/*--------------------------------*- C++ -*----------------------------------*\
| =========                 |                                                 |
| \\      /  F ield         | OpenFOAM: The Open Source CFD Toolbox           |
|  \\    /   O peration     | Version:  v2012                                 |
|   \\  /    A nd           | Website:  www.openfoam.com                      |
|    \\/     M anipulation  |                                                 |
\*---------------------------------------------------------------------------*/
FoamFile
{
    version     2.0;
    format      ascii;
    class       volScalarField;
    location    "400";
    object      ddt0(k);
}
// * * * * * * * * * * * * * * * * * * * * * * * * * * * * * * * * * * * * * //

dimensions      [0 2 -3 0 0 0 0];


internalField   nonuniform List<scalar> 
18232
(
-2.19202e-08
-9.37526e-06
0.0025205
-4.00632e-06
4.51205e-08
0.000895374
-0.00697005
5.76604e-09
3.26211e-07
-0.00453593
1.01385e-07
-7.35899e-09
0.00696837
-0.00583924
2.43856e-06
0.000400865
-2.63412e-07
0.00786156
-2.41387e-09
0.0105466
0.0131158
-0.00782548
0.00405918
-3.04056e-08
-1.34519e-08
-4.17237e-09
-3.75026e-07
0.00162263
-1.66297e-09
-6.65531e-06
2.09586e-09
0.0145656
-0.000155951
1.0132e-08
-3.18966e-06
7.91657e-09
0.0134339
-0.0280904
0.00314573
-1.48345e-08
-5.13394e-06
1.45976e-08
0.00249303
-2.95983e-08
-5.92183e-06
2.38342e-08
0.0131347
-0.000164691
2.10138e-06
0.00050476
-1.27971e-07
1.90589e-06
-6.61103e-09
0.000936505
-3.15724e-09
3.04133e-07
0.000229918
0.00814375
1.56771e-08
1.65405e-06
2.92677e-07
-0.0112447
0.00311701
-0.00367014
-3.37597e-07
2.99718e-08
0.00187694
2.85288e-08
-1.63919e-07
1.01467e-08
-2.16564e-08
-6.52491e-10
0.00441967
1.00042e-08
8.79989e-07
1.34184e-08
-4.8297e-07
0.000363887
0.00202423
-0.000312935
-1.74854e-05
-3.5417e-06
-1.89997e-05
-2.28663e-06
-6.18518e-10
-0.0186591
1.1606e-07
-3.27244e-08
-0.00279864
0.00462052
8.65706e-08
-1.65294e-08
4.34561e-07
0.00673912
-4.17076e-07
-2.70881e-06
6.33882e-08
-4.69779e-09
6.21007e-08
8.8312e-08
0.0051012
-0.0146608
6.32972e-09
-4.81576e-10
-1.29308e-08
0.0033462
-8.87818e-09
-0.00626645
0.00868441
0.00732042
0.00380874
-4.47926e-07
5.98248e-07
-0.000558439
-2.99713e-09
-8.72995e-09
8.71138e-08
0.00537459
0.00619807
3.81483e-08
-1.079e-09
-0.00571661
-4.24265e-09
-0.0302952
8.73623e-09
6.43268e-08
1.53205e-07
0.00414133
-1.13815e-05
-3.32139e-06
-7.63443e-08
-2.9022e-06
3.04204e-09
3.11277e-09
2.09067e-08
-1.25294e-09
-4.20935e-06
8.29206e-07
0.0133615
0.00208044
-1.7322e-09
0.00306791
0.00188894
-3.28072e-06
-1.8846e-08
-3.66766e-08
1.78167e-07
2.73365e-05
1.12093e-07
9.84282e-08
-1.09084e-05
5.6389e-09
0.0042948
2.87804e-07
-0.0100753
-1.08269e-05
0.00190574
1.97434e-07
5.204e-09
0.00351337
5.28701e-09
-0.00452143
-0.00818855
-0.0209568
0.00795253
-1.14855e-08
9.68781e-06
-0.0323133
-8.15688e-09
-1.07738e-05
-1.06824e-08
-0.0376648
-1.14016e-05
-1.76091e-09
6.96667e-10
-3.21593e-09
-0.001805
-2.50733e-08
-4.68742e-09
-4.48531e-09
-2.14451e-09
0.0072572
2.01752e-07
-0.00342634
4.1539e-10
1.24927e-09
-8.23917e-09
0.0132043
-1.48026e-06
-2.44586e-06
3.05084e-09
-0.00567658
-2.4078e-08
1.52039e-08
-7.98541e-09
4.73251e-08
1.06464e-05
-2.22228e-08
2.26882e-07
8.58812e-09
6.36709e-09
-7.50864e-09
9.71351e-09
1.1948e-09
-3.09427e-08
-4.91904e-08
-1.69756e-06
4.30131e-07
-5.83036e-08
5.0431e-09
1.77091e-09
5.14333e-08
1.53459e-09
8.04707e-06
3.49785e-09
0.000125413
-4.45306e-07
5.39015e-10
-0.00362407
-1.75567e-05
2.69174e-07
-5.866e-06
0.00441309
-0.0365303
3.25214e-06
-8.1286e-09
1.26519e-07
-1.43555e-07
1.35367e-06
-3.76808e-06
-0.00489016
4.91736e-10
1.21868e-09
-4.10798e-09
-4.63478e-07
-7.03394e-09
-4.24699e-07
-1.21721e-05
-9.2631e-07
-1.51085e-07
0.00225517
-1.3067e-08
-1.44357e-07
-3.49116e-05
0.00700927
4.15208e-09
6.15937e-07
-8.1923e-07
6.53183e-11
6.25231e-10
0.00274294
1.52597e-06
0.0126212
2.27801e-07
-2.72802e-06
-0.00453029
2.99418e-08
0.000255169
-7.07139e-08
-1.67663e-08
-0.00473078
1.60843e-09
0.000734332
1.16086e-07
-1.02915e-08
-1.02695e-05
0.000233442
-1.70648e-07
-1.3363e-08
0.00047409
6.09999e-09
-3.13452e-07
-1.13751e-05
0.012924
2.89454e-05
-9.63029e-09
-6.00039e-06
2.19745e-09
-1.16541e-08
-0.000122399
0.000343777
-0.00232789
0.000144273
7.23305e-10
3.05758e-05
9.42676e-09
5.74165e-08
4.12273e-08
0.00518483
-1.34765e-05
0.00413648
-0.00316189
9.43888e-11
-7.36719e-07
-1.70186e-07
-5.37685e-08
-1.46068e-08
-1.7526e-09
1.71507e-08
0.00465408
-5.43579e-07
-1.81011e-05
0.0123981
-9.47668e-09
2.25285e-09
2.88043e-10
1.26648e-08
2.21095e-06
5.93903e-08
-7.88533e-10
4.79169e-08
-9.43059e-06
-0.00185981
-6.74192e-09
3.69532e-07
-0.000133883
-1.9696e-08
1.47169e-06
9.2526e-07
-8.25353e-10
7.1955e-08
-0.0142736
4.29913e-07
5.06252e-10
-9.37104e-06
-0.00294165
-1.10044e-08
1.04025e-07
6.63581e-08
-9.62457e-10
3.78771e-05
4.29208e-06
-0.000470157
1.08808e-08
1.42752e-06
5.26627e-07
7.07344e-09
-3.84124e-08
-1.16345e-06
0.00104035
-1.10218e-05
-1.59903e-05
-3.98044e-07
-9.69997e-06
1.79742e-06
2.28743e-06
-0.00554596
2.7563e-09
-2.06629e-08
5.1853e-09
-4.52426e-09
4.03672e-06
-3.6593e-06
-4.12504e-10
3.29289e-08
6.90203e-09
-0.0321145
-1.17839e-08
-1.33576e-08
-3.81148e-10
5.37902e-08
7.57751e-05
3.71029e-06
-9.94664e-09
6.07077e-08
2.43156e-08
8.16701e-10
2.40428e-09
-6.76132e-06
1.53001e-08
3.75379e-09
-4.60345e-07
0.0136843
8.05863e-09
-3.0408e-07
1.3839e-08
0.00451526
-1.15965e-09
4.01313e-08
-0.0162634
-0.00438411
-6.70354e-09
-2.26142e-08
8.94058e-07
-2.1595e-10
-3.50625e-12
1.88863e-08
-0.000240226
-1.64768e-07
5.47074e-08
-7.01338e-08
-0.00603691
6.03719e-09
-7.77196e-09
-1.53194e-07
7.11412e-08
0.00138009
5.73868e-09
-0.0136594
1.23565e-07
-1.35672e-05
-9.28935e-10
2.95656e-08
1.08339e-07
-0.0227356
3.8221e-06
-2.58157e-07
1.05314e-05
7.82759e-07
-8.70569e-05
-0.00562995
-1.95272e-07
0.00187099
-4.68508e-08
-4.31143e-09
8.9703e-08
5.29646e-08
-0.02187
9.78511e-11
-1.78193e-07
-6.04546e-06
-0.00780109
0.00110322
-0.000427905
4.61186e-08
-0.000160965
1.01507e-05
-3.32158e-09
-1.39378e-08
0.0050703
-0.0267099
3.2109e-08
-1.17892e-08
-5.24478e-10
-7.47894e-10
-6.07306e-09
1.20714e-05
3.56622e-07
2.56236e-10
1.62061e-06
4.78627e-08
-8.09078e-09
0.00390232
-1.02925e-08
-4.63219e-08
-1.35876e-08
2.75796e-06
-0.00642697
2.89777e-09
1.16444e-08
-0.0314594
5.79127e-08
1.01895e-05
1.62388e-08
-1.30752e-08
-8.08596e-09
6.77529e-08
-0.00333787
-1.31634e-06
1.58855e-08
-1.65202e-09
1.21718e-07
2.85115e-05
-2.92311e-08
2.72576e-07
8.3531e-06
-2.47894e-09
-0.00436147
-1.04943e-09
-1.19582e-09
0.0671456
2.88069e-07
0.00473723
0.00128369
0.000307687
-1.74207e-09
-1.32664e-09
-4.84958e-08
0.00156026
1.21924e-09
2.64593e-08
-2.59624e-08
0.014408
-1.14022e-09
-8.25144e-09
1.97913e-10
7.35179e-06
0.012704
-4.75913e-05
2.28087e-10
-3.87437e-07
0.00980286
-0.000286542
1.30209e-09
0.000997719
-4.5524e-08
0.0012215
-3.10727e-08
6.15308e-06
-1.40382e-09
-0.000137142
2.18309e-09
4.3876e-08
7.23889e-08
0.0130156
4.73993e-09
-1.29426e-06
2.34498e-08
0.00755645
4.49601e-08
1.53013e-06
3.96372e-07
-1.50206e-06
-2.02434e-09
-0.0560197
1.74524e-08
2.23074e-09
-2.87531e-09
-2.95542e-08
-8.41236e-10
1.52514e-10
-1.78522e-11
-1.49707e-08
-5.47659e-08
6.71259e-09
2.74588e-08
1.03175e-06
0.00260271
4.28388e-09
3.00497e-06
6.85406e-09
0.00105751
-0.0010967
9.96527e-09
-1.28507e-05
5.42835e-08
0.00647331
3.98547e-09
-0.00400459
2.11247e-08
-3.02562e-09
0.0742783
1.12752e-07
8.93089e-08
-0.0174824
-2.00601e-07
-1.30159e-07
2.50996e-09
0.00596368
2.90282e-09
-3.71835e-06
9.53192e-09
-1.1836e-06
-8.98223e-09
-1.35568e-05
-9.60795e-07
1.12762e-08
3.38113e-08
-5.36747e-09
1.01492e-07
2.665e-07
5.92781e-09
-1.26944e-09
-0.00483105
0.00605781
-0.00508735
-9.50826e-07
-0.000173807
9.31663e-05
-0.00124787
-1.06335e-08
0.0132715
4.67007e-09
-3.07518e-06
-1.01017e-08
-2.66588e-09
1.31365e-09
-4.64494e-09
3.76541e-08
0.000704542
-5.94946e-08
2.86129e-09
-0.000127927
-0.0520345
-5.0505e-05
-4.62173e-09
-1.42089e-05
1.98789e-10
3.66379e-08
-6.21325e-10
-1.29686e-07
1.64199e-09
0.00630018
9.89144e-08
8.04249e-10
0.00787956
4.06372e-08
-3.71545e-08
0.00170415
1.2098e-09
-8.00373e-07
-0.00209735
0.000183146
6.70401e-08
-2.28016e-06
-6.45273e-09
-8.49862e-10
-5.23791e-09
0.0181843
2.42728e-06
-0.0077072
1.77293e-09
4.90425e-08
0.0015668
-1.10458e-09
0.0102414
0.0188122
7.81549e-07
5.11437e-08
-9.64858e-10
-1.26967e-08
-1.06945e-09
0.000720107
0.00991337
-9.50605e-07
-3.64223e-05
-0.00440837
4.64109e-06
-1.41728e-06
-4.0782e-07
2.07283e-05
1.63031e-09
3.06825e-08
-1.36542e-05
-0.00299203
2.33508e-06
-2.71654e-06
-2.26568e-11
-2.71572e-08
-9.16875e-06
-0.0233597
0.000183365
1.92381e-09
7.11429e-08
-0.00291823
-4.77771e-07
-0.00857828
2.13029e-07
4.2061e-06
2.46899e-09
2.98829e-07
9.4813e-10
1.79279e-06
-5.20145e-05
-1.0387e-08
9.67602e-09
-5.01249e-07
-0.00128614
2.81035e-08
3.17638e-08
3.42297e-06
-5.80211e-07
-5.86282e-08
9.65855e-09
1.78626e-06
7.73583e-06
2.37405e-06
-6.36258e-09
-6.77124e-10
1.77575e-07
0.00471875
4.63854e-08
1.44399e-07
-0.00161396
2.79885e-08
-1.37873e-08
1.02659e-07
-6.56308e-07
-1.10796e-08
1.03987e-07
3.07873e-07
-1.11458e-09
-1.38008e-05
8.16456e-09
-2.6373e-08
-6.17643e-08
-0.00034224
-1.9434e-07
-4.48221e-08
1.11882e-07
4.52889e-05
1.23947e-08
3.26516e-09
0.00237564
5.25236e-07
-8.59604e-06
2.87457e-09
-8.4981e-09
-0.00479443
4.29049e-07
-0.0034166
-1.08523e-07
-4.266e-08
-2.14547e-06
-3.78373e-05
1.0779e-06
-9.59358e-07
2.80952e-06
-5.94495e-10
2.25047e-08
2.90683e-07
-2.08413e-07
3.17937e-09
4.4324e-08
0.0113546
4.1071e-08
1.25702e-06
4.85973e-07
7.04861e-09
0.010419
-4.01623e-07
0.00708983
1.58042e-05
-1.09809e-05
-5.38551e-09
-3.30949e-07
-2.63347e-08
1.71325e-07
-3.10309e-05
-2.8102e-09
-2.12191e-07
2.42264e-05
6.98455e-08
-1.63684e-08
0.00482654
4.17179e-08
-3.58915e-07
-6.8548e-08
-0.0011263
-1.55903e-08
-7.64362e-06
0.00269352
-6.21034e-08
-0.00326836
0.00265686
0.0196886
-1.00842e-07
-0.00366979
-1.28225e-06
0.0190763
1.49776e-08
-4.63439e-09
-2.1923e-05
-9.49245e-09
-0.0337648
0.0121302
-1.27595e-08
9.00328e-07
-9.01128e-07
-6.94065e-05
5.06598e-09
1.05638e-08
-1.30763e-05
0.00462508
2.042e-09
-6.00359e-07
-8.80461e-06
1.4519e-07
4.66338e-09
5.51437e-05
-8.23997e-08
1.37394e-05
-0.0124541
2.6518e-08
-7.63747e-07
8.15597e-09
-0.000121165
-1.9584e-06
4.14252e-05
-3.15344e-08
0.00031048
-9.74478e-08
-5.5729e-06
-7.89123e-08
-2.09137e-08
-0.00419846
1.00658e-07
-0.00348201
-3.43532e-09
-1.8063e-08
-1.41305e-05
4.36815e-06
-4.1793e-09
-1.97254e-07
2.06097e-07
1.49247e-09
2.48954e-09
-2.6068e-06
3.76709e-06
0.00674872
5.54745e-07
-1.34844e-07
8.16986e-08
-9.2098e-09
3.38213e-08
1.20581e-06
-0.000190466
4.39713e-07
1.09192e-09
-2.01861e-09
-4.68248e-07
-5.6649e-08
0.00577069
0.00447018
-4.132e-08
3.60349e-06
4.27469e-08
-0.0367803
3.58589e-10
-3.90731e-09
1.82506e-10
-1.60652e-08
-3.84981e-08
-1.31914e-05
-4.69027e-09
0.00291395
-1.78419e-09
-6.07612e-07
-7.35191e-07
-2.48076e-09
-5.23376e-09
-9.92355e-09
-3.81961e-09
1.26933e-06
-1.46471e-08
3.57664e-07
4.67864e-06
0.00185004
-5.82343e-06
5.21666e-09
-1.10517e-05
9.43037e-08
-5.00785e-08
-9.06028e-08
1.7436e-08
1.24188e-06
0.00378926
0.019079
-0.000675523
5.32192e-09
-7.0194e-08
1.06845e-07
7.22642e-10
1.91003e-07
6.06037e-09
-0.00485984
-0.000571306
-0.00191119
-2.622e-07
9.50584e-08
3.02351e-05
1.87626e-07
0.0108861
-2.89574e-08
-0.00337455
-1.75437e-07
-4.18587e-09
0.001955
-1.16103e-08
-4.2329e-06
-3.38383e-08
0.000283685
-4.94102e-06
6.35316e-08
-3.75346e-08
6.74064e-09
4.84701e-09
8.01734e-08
-0.0160803
-1.63322e-05
-3.41314e-08
9.92706e-08
-2.54782e-09
0.00129512
-0.00975866
4.07692e-08
2.54439e-07
0.00586305
0.00111334
-1.88473e-06
5.21774e-08
0.000101192
-3.48012e-08
-8.22942e-07
-2.70151e-07
-5.45933e-09
8.3503e-08
5.7454e-08
-1.61512e-05
5.38738e-08
7.0775e-07
-7.96269e-09
-2.02415e-08
-0.0184613
9.50059e-09
-4.00351e-09
1.07681e-09
-2.5071e-09
-5.99681e-09
5.3468e-09
1.70323e-06
-8.88318e-09
-5.49558e-06
0.0119017
0.00311207
3.84382e-08
0.0073643
-1.36593e-05
-0.00444592
1.46144e-07
7.9777e-06
0.00349706
1.57562e-08
7.03668e-08
-2.2423e-07
2.77533e-06
-4.44904e-07
1.56329e-06
1.03368e-06
-0.000330142
7.02558e-09
2.27673e-07
1.34916e-08
-6.23915e-09
-8.60033e-09
-6.04055e-09
0.00128289
0.00114333
-1.79703e-08
-3.9395e-08
-6.75835e-10
-1.23457e-08
-0.0018986
-5.56683e-09
6.94936e-10
-0.00396871
-1.42025e-08
-0.0125812
-1.09536e-08
-9.09307e-09
-0.000120786
-1.15157e-08
-5.34661e-07
0.00298798
-2.69941e-08
2.70824e-09
-2.63518e-06
1.78672e-06
0.000314515
-0.00504633
6.05142e-05
1.97683e-06
-1.30585e-09
-1.66619e-08
-0.0036768
3.47677e-07
1.7129e-09
-3.96336e-08
-4.80224e-07
4.27723e-10
1.54366e-05
-0.00322821
0.00858197
9.33479e-08
0.00592043
2.01122e-05
0.000334668
-5.22963e-09
1.44311e-05
3.59665e-10
0.00131934
-1.98099e-09
-5.95516e-09
0.00376014
5.988e-07
-7.19924e-09
-7.19505e-06
1.08227e-09
-3.3459e-06
6.30479e-08
-2.30281e-07
-9.72725e-08
5.92332e-09
1.69234e-08
0.011845
4.08001e-09
1.06545e-05
3.413e-07
-5.05147e-09
-3.93916e-09
-2.09819e-08
-3.13166e-08
0.000188151
1.01915e-08
0.00142075
2.77406e-07
0.00807777
8.2168e-09
2.13415e-07
1.67059e-07
-1.39461e-09
1.7624e-09
7.42553e-09
2.42908e-07
1.02067e-06
6.7755e-10
-0.000234985
-8.12355e-07
-8.09409e-06
0.038084
3.09178e-08
-4.80045e-08
-8.60575e-09
-6.1223e-08
1.27478e-07
7.25787e-08
0.00948829
-7.6855e-09
1.02048e-07
1.42501e-07
-0.0283909
-0.0019181
-0.00113613
-2.165e-08
9.94637e-08
1.376e-09
-6.95025e-06
5.40629e-09
-2.88003e-08
-0.00212221
-1.1373e-05
-4.67803e-09
2.23319e-05
-0.00167456
-5.67979e-08
4.15668e-09
-0.0205205
8.03643e-08
1.36643e-08
-5.16899e-05
8.40453e-06
1.96875e-09
-0.0212814
8.32804e-08
7.22881e-09
5.73743e-07
2.38697e-10
-0.000447551
-1.37497e-08
1.86844e-08
0.00621263
-1.7436e-08
1.16835e-07
1.02426e-08
4.187e-09
-8.24937e-10
4.71579e-08
3.07466e-07
1.07931e-05
-5.33312e-09
-0.0377411
2.45443e-09
-2.38072e-05
0.000328809
1.15155e-06
-0.00322655
-3.07142e-09
-0.00444185
4.49546e-09
0.000145413
-2.84754e-09
0.0060898
-0.0030654
0.000889038
1.07805e-07
0.00259929
0.00018435
-0.0154513
8.59398e-08
9.19142e-08
7.11459e-05
-0.00340022
-0.000101554
6.14466e-08
-2.1574e-06
-6.96458e-06
-1.14907e-09
-0.00287959
7.06139e-09
1.52654e-06
0.00157381
-7.13305e-10
-9.32293e-09
-2.92145e-08
-5.97645e-09
3.81855e-10
4.16212e-06
-8.06015e-09
-3.34234e-05
-2.94411e-09
9.38961e-05
-0.00408593
-3.2652e-09
-8.17259e-09
-3.8865e-08
1.12697e-07
0.00238005
3.12045e-07
0.00282857
4.18726e-07
0.0118645
2.45306e-09
-4.51763e-08
8.62809e-11
-1.29745e-09
2.46597e-10
0.00381771
7.51341e-10
-8.70166e-11
1.56094e-08
0.0100462
6.36528e-08
7.24712e-08
-0.00329486
-3.06518e-07
2.23586e-09
-8.27676e-06
-6.1276e-09
-2.17865e-08
-3.31713e-08
-6.08993e-06
6.11056e-09
-0.00146522
-3.61427e-09
-5.08368e-09
-2.58036e-06
-6.25211e-10
-3.61011e-09
-0.00253301
2.37258e-06
-0.00317307
-0.00399979
5.89808e-08
7.72611e-09
1.64012e-08
-2.24951e-08
3.47533e-06
0.00333612
-0.0252586
8.93441e-09
-5.2969e-05
-0.0408805
-1.56564e-08
-7.52717e-09
6.06133e-08
-0.00316521
-1.9009e-05
2.4106e-09
2.19931e-08
1.70677e-09
-5.9928e-07
-4.15475e-08
-1.05038e-05
-8.94308e-09
-5.39208e-06
2.28018e-09
-3.2487e-09
-0.00113697
-1.81247e-06
1.01756e-07
-0.000992835
2.73908e-09
6.45994e-06
-2.40292e-09
-9.16359e-09
-0.00625858
-1.99527e-08
-5.92734e-09
-0.0016727
-2.5011e-09
1.29735e-07
4.14308e-09
1.28203e-06
3.27193e-10
0.00147111
-9.74973e-08
3.26531e-07
-3.37372e-06
2.36424e-07
5.54656e-08
7.19829e-09
2.30772e-09
-3.98303e-08
-2.66573e-07
0.00234139
8.52474e-07
1.12041e-09
3.73938e-08
-0.00158191
-2.60751e-08
1.60686e-06
1.16738e-07
3.50608e-08
-2.11302e-07
3.37269e-09
1.95072e-08
5.12802e-07
0.000558879
-0.000221856
0.00133454
1.42111e-06
-2.24424e-06
0.00546325
3.64535e-09
9.5064e-07
-1.22871e-08
-4.79155e-08
-8.91844e-10
-8.3447e-08
-0.00293994
-5.179e-10
0.000397889
-2.50972e-07
1.37295e-08
1.18198e-07
-3.53974e-09
0.00495831
-3.28565e-09
-0.00317059
2.82633e-08
6.10568e-07
1.30658e-06
-3.6439e-07
0.00190153
1.13495e-07
-8.42708e-05
-1.85082e-08
3.9439e-07
1.4925e-06
-6.4098e-09
0.0007871
2.14709e-09
5.39679e-08
-1.28533e-08
-6.05881e-09
-2.64955e-09
0.00224328
-1.84515e-09
1.33329e-09
-2.47644e-07
0.00192197
0.00174792
-1.96668e-08
-6.42818e-06
8.96839e-09
6.79013e-09
-2.51199e-08
-1.8791e-08
2.71539e-09
-6.0511e-09
2.76678e-09
2.39446e-09
-1.57211e-05
8.85825e-08
-8.46708e-09
-1.41993e-08
7.82572e-08
0.00162988
0.00485811
-3.64503e-06
-4.31756e-08
0.00582023
6.23917e-08
-1.43863e-05
2.04566e-08
-2.3018e-06
0.00266758
1.01376e-08
2.06318e-09
2.25164e-09
1.04491e-06
-0.0248527
3.85476e-08
1.40178e-08
-5.03803e-09
-3.58513e-08
-0.00198319
0.00571705
2.71539e-08
-7.62984e-06
1.61877e-07
0.00195626
0.0186131
-3.97679e-08
3.15554e-07
3.18908e-06
6.49104e-10
3.4678e-08
-0.0473302
-6.01775e-05
-1.59309e-08
-0.0047359
1.97884e-06
-1.3472e-06
1.99005e-05
9.14376e-09
4.54894e-07
-1.05749e-07
-4.14024e-08
-0.00857742
8.7504e-09
1.59564e-08
8.33194e-06
0.0102737
9.49615e-10
-0.00201438
-3.61506e-09
1.88671e-05
3.22585e-09
6.21967e-09
-2.66709e-07
-1.033e-07
1.31009e-06
3.71225e-07
-2.47191e-08
-0.00904882
8.96476e-09
-8.22488e-07
1.37706e-06
3.00015e-07
3.0058e-08
0.0206559
-1.07064e-09
-2.88355e-09
0.0188796
1.26848e-08
0.000839428
-1.31581e-08
-9.86408e-06
4.02979e-08
-1.1706e-09
0.00231226
-4.73171e-09
1.85417e-05
-0.00379097
3.91965e-09
0.0175082
-0.00270984
7.95596e-08
-7.42341e-10
-3.10616e-06
-2.37339e-05
-7.37323e-08
-0.00852659
-2.11674e-08
3.74439e-08
0.00032313
-0.00657677
3.00086e-09
-0.00094092
0.0014118
-1.85824e-08
-2.38787e-09
-7.76441e-06
3.2475e-05
9.34107e-08
-1.79534e-05
0.00921027
-0.00137419
7.14192e-08
3.15476e-07
-5.91534e-08
-7.11725e-08
-4.2996e-09
0.00945706
0.000560699
1.23908e-09
0.00708368
1.12812e-08
1.01942e-08
0.00360274
0.000283582
8.85151e-09
7.31355e-09
-1.97689e-05
0.00364086
1.07589e-07
2.94494e-07
7.87928e-09
0.00555958
0.0511606
4.95901e-07
7.86217e-09
-0.00368778
-3.89278e-08
-0.00796408
1.27173e-07
-4.84021e-08
3.50181e-08
-8.04138e-09
-4.43393e-09
3.75638e-09
6.41788e-08
-0.00176845
0.00536416
-9.28197e-10
0.0259055
-2.00655e-06
-0.000179779
-1.06966e-06
-0.00159419
-1.23092e-06
-7.99266e-08
1.05e-09
4.63914e-09
-5.30637e-11
1.54103e-07
9.40564e-08
-3.0253e-08
-0.00106288
-1.09239e-05
0.00398326
-6.94061e-07
0.00191434
1.65405e-08
1.87614e-06
0.00517593
3.56507e-06
6.97892e-07
-3.02593e-07
-9.87861e-09
-0.00171901
9.35079e-09
5.68132e-08
6.51719e-06
1.11228e-07
-0.00110486
0.00037184
-0.0758531
-2.50399e-06
-0.00510816
-0.000115835
0.000926441
-1.61562e-09
-0.00232448
-0.000570951
-0.00247283
0.000603496
-6.57156e-09
0.000987739
3.35107e-09
-3.77621e-08
-2.88657e-05
0.000265924
-0.0199333
-0.00121383
-2.06422e-06
-0.00202768
0.0120035
0.002375
3.92074e-08
6.18816e-09
3.31366e-09
0.0153483
-4.57729e-06
-0.0216268
4.14585e-07
0.00532155
-0.00646837
0.0353088
-8.05608e-07
-0.0367131
1.80433e-07
1.00156e-07
4.98943e-07
0.000273334
-4.21295e-09
2.78845e-08
1.01696e-08
-0.000843443
1.03288e-06
3.17546e-06
-5.65934e-09
0.0428438
0.0385985
-4.54644e-05
0.000372942
-0.00207062
-8.98286e-09
3.13649e-08
-2.221e-05
-1.96692e-05
-0.0149511
-0.000771316
-2.61335e-08
-0.00248289
-1.74992e-07
-1.89177e-07
0.0014331
3.17724e-10
6.91187e-09
-2.51667e-06
0.00407209
-2.41541e-09
0.000409355
-0.000114798
-6.98487e-06
-1.6758e-07
-0.0238795
0.00741776
-3.01229e-06
0.00190106
-1.69374e-08
-3.08746e-07
1.57979e-05
9.7396e-06
-4.85025e-06
-1.31787e-07
4.9805e-06
1.06161e-05
-4.94788e-06
-0.000919237
5.80925e-06
0.000536284
4.53208e-09
-1.37165e-08
-0.00544871
-0.00535317
-0.0214118
-3.49745e-06
0.011416
4.83629e-08
-0.00690926
7.76558e-07
3.563e-08
0.00249278
-0.00135257
-2.35118e-07
2.33495e-08
-4.61455e-08
0.0129455
-0.000160402
-2.21129e-08
9.12945e-07
1.44134e-09
-0.00234879
-0.0682237
-2.33474e-08
1.7784e-08
0.00976687
0.0349295
0.00613591
-2.18202e-05
-5.08464e-08
-2.42678e-07
5.91213e-08
5.24038e-09
-1.72365e-08
-0.00197584
-6.45056e-06
3.22072e-08
4.56707e-10
-2.07872e-09
-4.63395e-08
-0.00184948
1.26817e-06
-1.9578e-05
-1.56686e-08
-1.04873e-06
4.16978e-09
-0.000116317
-5.56723e-09
5.96482e-09
-1.55137e-05
0.000108427
-8.95549e-08
2.02231e-07
0.00449475
0.0085501
-2.41743e-06
1.22796e-08
-0.0734098
0.00597373
9.92674e-07
-0.00475896
4.5291e-07
-1.49324e-09
0.00525664
1.67448e-07
-0.00232373
-2.32792e-09
-4.47219e-08
2.41005e-06
0.000621792
-5.03803e-08
1.17876e-09
1.09791e-07
2.57735e-06
-3.71053e-07
-5.68035e-06
-1.61488e-09
2.77378e-08
7.45705e-09
-3.15863e-06
-7.73548e-09
0.0176469
3.52621e-09
1.1473e-06
-3.60018e-08
-6.62535e-08
2.29014e-07
2.57628e-07
-8.51613e-10
8.68453e-09
-0.00160991
-1.46005e-05
0.0286995
-3.56192e-05
-1.5922e-09
0.00486756
-1.94074e-06
0.00726781
-6.79778e-06
-2.28119e-07
0.0179953
-2.90577e-09
-0.00549428
-9.08474e-08
-9.02214e-09
6.2343e-08
7.41816e-08
-3.99104e-08
7.92811e-09
9.89883e-06
1.03206e-08
4.17082e-08
-0.00420835
-2.49213e-09
0.00175898
-4.59048e-09
-1.78993e-06
-2.20077e-08
-2.0536e-07
-0.000115937
7.65832e-05
-4.45873e-08
4.46997e-08
-7.26254e-09
-3.44275e-08
-5.10921e-09
-1.726e-08
0.00643156
0.00118363
1.04526e-06
2.18973e-08
1.39879e-07
-0.000165736
-2.75865e-06
0.00494626
1.20217e-08
-4.82924e-08
0.00566382
-0.00191944
0.00620684
4.11514e-06
0.00124949
0.00201609
1.13118e-08
4.6297e-09
-2.21656e-05
-4.45196e-05
1.95346e-07
4.1065e-08
-4.35101e-08
-7.57627e-09
-3.60078e-08
3.51203e-05
-0.000853909
-2.12342e-08
-2.74988e-09
9.32913e-06
-2.46117e-08
-0.00795039
0.00621552
2.7499e-08
1.42359e-05
-0.00470991
5.31879e-08
-0.000361607
-2.90258e-09
-3.26115e-08
3.63538e-08
-0.00181456
-7.90952e-06
1.68983e-05
1.19006e-05
-0.00439282
7.44865e-06
-0.00467895
0.000499184
-6.45503e-07
-1.91834e-07
4.54077e-06
7.71535e-08
2.40681e-08
-1.85926e-09
0.00380637
4.97648e-09
1.02009e-07
0.0128637
-9.54041e-10
2.90914e-07
-0.00495048
2.51375e-08
1.50182e-08
0.00610963
-0.000317971
0.00628443
-0.00904991
-1.29332e-08
-3.85839e-08
-1.94719e-05
0.0100653
1.00705e-06
3.24227e-05
-1.93104e-05
0.0113387
0.00229796
-1.93713e-05
1.19825e-08
-1.94466e-05
1.21706e-08
-0.00493605
8.42298e-07
3.64886e-07
0.00145569
1.6594e-07
-0.00465626
1.17597e-08
-1.1384e-06
-0.0236554
-3.85613e-08
8.20765e-06
-1.36888e-08
2.15156e-06
-7.18501e-09
-0.00254915
0.0116632
-0.0116902
0.00787331
-0.0010335
9.47791e-08
2.25163e-08
-1.73708e-06
8.50961e-09
1.18209e-09
8.48935e-07
-0.00537368
-2.05037e-09
3.45017e-08
-3.96676e-09
1.43087e-07
3.63498e-09
-0.00590246
-0.000581594
-7.13554e-10
-9.82372e-09
-1.07802e-05
2.31589e-07
1.94363e-08
-0.00460983
-6.59109e-09
8.97388e-09
2.197e-08
-3.03553e-06
-0.0022246
-1.2704e-05
0.00120961
0.00703322
2.45911e-07
0.000608464
-0.00430906
0.00700848
1.44975e-07
0.00200807
-1.45813e-09
0.0133333
-4.6161e-05
-0.00343145
-3.08452e-10
-8.23128e-09
-2.01205e-05
0.000450067
-0.00379228
5.03576e-07
-3.01243e-08
6.6433e-09
4.26681e-08
0.000431013
-0.003474
-3.50139e-09
1.30544e-09
-1.14495e-05
-3.89606e-09
-0.00126654
-0.00271762
6.00227e-05
-1.53708e-07
-2.5498e-06
-3.54988e-06
-4.24255e-09
-2.2204e-06
-3.95104e-08
2.99449e-08
1.07701e-08
0.0205899
6.3525e-05
-2.57423e-06
-0.00445491
1.35912e-08
2.64175e-08
-2.03818e-07
-1.11459e-09
-1.4375e-08
0.00479529
-8.03447e-08
-0.00153639
9.36245e-09
-6.55794e-07
1.42221e-05
4.31151e-08
0.00114652
0.00437203
-7.4674e-06
-0.00119091
7.32287e-08
-0.0110433
1.55853e-06
-0.00011903
-0.00111304
-0.0665412
-4.1881e-08
-1.08945e-09
-4.45786e-07
-8.14072e-08
-0.00341161
-1.38282e-05
3.28788e-09
-8.82938e-09
1.97675e-07
-0.000945443
2.12568e-06
-1.85097e-08
1.37268e-08
-0.00181239
2.54664e-08
0.000981111
-0.00548864
0.00525511
1.42412e-08
-9.35484e-08
-2.10524e-08
-2.00688e-06
-0.00195885
1.62409e-10
2.59647e-07
-0.000286354
6.42916e-07
1.69613e-06
0.0122303
0.000123442
4.09037e-07
-0.000314052
2.79589e-08
-2.05901e-08
-2.02417e-06
-8.88848e-10
-0.00342681
0.00457837
-6.16867e-08
0.0135794
3.25453e-10
-0.0069378
-8.98658e-10
1.94569e-07
4.49242e-10
0.0079353
4.62531e-08
-0.00100476
-0.000147652
1.82527e-08
8.7885e-08
-0.000386492
-0.00204105
0.000417161
0.000198057
7.43477e-09
-2.6697e-08
5.42547e-08
0.00708901
-4.07082e-09
-6.7103e-08
2.50197e-09
0.00394024
-1.95115e-08
7.03686e-08
3.58847e-07
-0.0114712
-7.43107e-09
0.00333776
-3.76521e-06
1.49505e-08
-1.02447e-09
-0.000486108
-2.4432e-06
-4.2957e-07
1.26326e-08
5.79807e-10
5.61784e-10
8.18083e-09
-8.69214e-08
1.09799e-08
-0.00649264
9.74161e-09
-1.29607e-06
0.0168868
5.03407e-09
2.53867e-09
-1.31264e-08
-1.39394e-08
0.00545797
-4.62286e-09
4.45769e-10
0.00702686
-3.3951e-07
-3.01051e-06
-4.07007e-10
-3.0548e-06
-9.27064e-10
2.01661e-07
-0.00640802
-8.2271e-06
0.000177212
-2.04021e-05
-1.27975e-08
1.91981e-08
-1.98789e-08
-1.09005e-07
-5.84868e-08
5.82294e-09
0.00632513
-0.000657427
1.78225e-08
7.02549e-09
3.63975e-05
6.2818e-09
-0.000542912
-8.13336e-07
-8.33341e-08
4.4954e-05
-0.000201275
-6.32473e-09
9.15717e-07
-6.42036e-09
-4.13041e-08
-2.65378e-09
-3.69592e-09
0.00563122
-5.82047e-09
-7.17258e-08
0.00497896
-5.77127e-08
0.00158398
2.85972e-08
2.24784e-08
0.0112243
-2.00023e-06
1.90129e-08
0.00267803
0.00830902
0.00827026
-9.50627e-10
-0.00572488
-2.12492e-08
2.95423e-05
0.0074112
-1.65388e-09
0.000562494
-8.05743e-05
-1.74474e-07
1.13069e-07
-0.00234119
7.0776e-08
-1.72887e-09
7.31154e-07
0.00777711
2.56949e-08
-2.19817e-06
-4.23164e-09
-1.3191e-09
0.0003501
1.33933e-08
-4.03549e-05
0.00709317
0.013948
-1.00164e-08
-2.64923e-08
4.31756e-10
1.20766e-08
1.27349e-07
0.00391838
0.000928543
6.95597e-08
-0.00518499
-0.000359736
-2.0087e-08
-2.04437e-08
5.40479e-07
0.00876846
-1.55e-08
-0.000254897
3.79931e-05
3.54904e-06
8.13188e-07
1.90665e-06
6.25914e-06
1.52213e-08
0.00831229
0.000192977
2.48978e-07
0.000334932
-2.8685e-09
0.00435773
-5.91902e-10
-3.91417e-09
-8.28986e-09
-1.00528e-08
-8.13678e-09
4.5948e-09
-1.83791e-09
-1.38712e-09
-1.8192e-06
3.72974e-08
-7.25532e-09
8.56801e-09
0.00109656
4.04594e-09
1.23247e-09
-2.17484e-07
6.51399e-06
-3.1775e-08
-6.93247e-08
1.75545e-08
-0.00323615
-0.0051928
0.000139821
-1.23208e-05
-1.55575e-09
-1.29133e-08
-2.0997e-06
9.43725e-09
0.000742952
-0.00403725
-0.0743629
0.000941127
1.24346e-08
-0.00766388
0.0132489
-1.30172e-05
-2.59463e-09
-1.17342e-05
0.0214262
-0.00150757
5.9522e-07
1.30986e-09
2.81871e-09
-2.86714e-08
-1.18986e-05
-5.39724e-05
-4.63003e-08
-0.00102941
6.45225e-07
-1.05784e-07
4.98266e-09
-4.4063e-08
1.82842e-10
-3.7074e-07
-1.1708e-05
-1.5934e-05
3.57001e-07
-6.49454e-06
-0.0179977
0.0293495
7.15474e-08
-1.25309e-09
-1.44655e-07
-3.98858e-09
-1.1506e-07
1.13784e-08
-2.51167e-09
3.23996e-08
-2.42012e-08
1.65628e-08
1.94424e-10
0.014229
7.97299e-08
-8.02439e-08
-0.00320571
-3.86183e-05
2.73894e-06
-1.03087e-08
-1.65641e-07
-3.18591e-09
0.000111281
-4.53194e-08
1.19639e-05
-9.54839e-10
-9.34538e-08
-1.06236e-07
-6.74519e-08
-1.91842e-07
0.00539223
0.00481947
-9.46079e-07
0.000122551
-3.61812e-09
2.00378e-06
0.00984734
-0.000682018
8.07415e-05
0.0036196
0.00029621
6.91529e-10
1.59901e-09
4.3594e-08
0.0046573
0.00433394
-0.000138663
-0.002094
6.50826e-09
-2.78495e-05
0.0165932
5.29765e-07
-9.86005e-09
-0.00230476
-1.41017e-07
-0.000758543
-0.000197627
0.0281624
-1.842e-08
0.00320092
-5.09322e-09
-1.44113e-08
2.89673e-08
7.67575e-06
-0.000255258
0.00284422
-4.33973e-05
7.41273e-08
3.81364e-08
-2.25942e-08
-0.00260083
0.00643258
-1.39445e-09
-0.000300979
-6.93494e-08
-9.69458e-07
0.0106764
1.60046e-10
1.14659e-08
-4.79617e-09
9.60339e-08
-5.55365e-08
1.53858e-07
-6.45151e-08
0.0212894
7.02019e-07
0.00737468
2.84023e-09
-1.8815e-05
-3.5259e-08
1.12532e-09
-5.05789e-09
-6.22081e-09
-3.13074e-07
-1.41483e-09
0.000641685
3.46575e-05
-2.97389e-06
1.26386e-08
-2.99995e-08
-5.35597e-06
-3.80104e-08
-0.000106978
0.00566704
3.38809e-09
-2.48187e-09
5.87145e-08
-0.000832747
-1.29614e-07
-1.24956e-08
-3.81185e-08
-5.62955e-09
0.0112225
-0.0735634
-0.000137175
9.22117e-05
0.000225462
-2.36669e-07
0.0146855
-7.57577e-08
0.00393809
-1.1931e-09
-5.33014e-07
-2.48295e-08
-2.84403e-05
8.84181e-09
2.91306e-08
5.26392e-07
1.0244e-09
1.03881e-08
8.17252e-09
-6.25203e-05
-0.0021726
1.45582e-08
-6.83451e-08
-7.19769e-08
-7.12853e-08
8.90266e-05
-0.00110308
-2.91421e-09
-4.21504e-06
-1.52965e-06
0.00115475
-7.44318e-07
-0.00873518
-0.0117279
0.000224933
5.72244e-08
-1.32409e-09
1.90974e-08
6.62133e-06
-4.13303e-07
-9.75648e-08
-1.09572e-08
7.8252e-09
-2.04839e-08
7.13486e-08
-1.20123e-08
0.0205237
0.00577224
-2.36989e-08
-3.14786e-08
-6.27726e-09
0.00573884
1.98133e-07
2.10779e-07
1.09919e-08
2.04852e-09
-0.0118222
7.83156e-07
-3.24053e-07
0.00983831
1.38515e-06
0.00297514
2.99686e-08
-2.86167e-06
1.10117e-06
-8.59504e-09
-1.75482e-08
0.00532949
7.81492e-07
-7.60459e-07
-7.66371e-06
0.00131995
-3.84188e-07
-3.06046e-08
-0.0131441
0.000151948
1.03936e-09
-2.03256e-05
-1.85554e-05
-1.46897e-09
6.21709e-08
2.98602e-08
5.55851e-08
-4.24233e-07
4.4987e-05
0.0158749
0.00170906
2.451e-09
8.12404e-09
1.04415e-08
7.43048e-09
-1.855e-07
4.95271e-06
-1.73784e-05
-1.90133e-06
-3.6048e-08
4.04715e-08
-2.02369e-06
2.48095e-07
-1.31754e-07
-6.00687e-09
-1.83371e-06
-7.1061e-09
8.517e-10
-1.58808e-06
0.000823457
0.00126515
-2.63968e-08
0.0117573
6.83426e-09
-0.000582912
5.11961e-07
6.48461e-09
3.66832e-09
1.32656e-07
0.0178489
-2.34998e-07
1.14743e-09
2.57856e-09
-1.28577e-08
1.36139e-08
0.0106055
0.00230536
7.48269e-09
0.00245555
0.0167136
-3.39044e-08
2.08653e-07
-1.73105e-09
5.98985e-07
0.00467917
-2.19827e-06
-2.67977e-09
0.004093
-2.84381e-05
5.89214e-08
-2.20317e-07
-1.34747e-09
-0.00127428
-0.00938993
1.32851e-06
4.27752e-06
-3.48126e-07
1.84218e-08
-5.4932e-08
-2.28234e-06
-4.67802e-07
0.00119942
5.20626e-06
0.000599167
4.7676e-08
1.88745e-07
7.18591e-08
1.2612e-06
-1.07351e-06
-1.91384e-06
-6.4852e-09
-2.45684e-06
-3.98248e-07
0.0112873
1.46163e-08
8.38789e-08
4.28789e-08
-2.09999e-07
-1.78283e-08
0.00191792
-9.57638e-08
-7.35009e-08
-2.60411e-10
8.40915e-09
4.97987e-08
0.00300362
-2.13217e-06
-2.21269e-08
-1.67067e-06
4.42029e-08
-3.50676e-08
-8.61172e-09
0.00133761
-7.13289e-09
4.37744e-08
-0.00340311
-4.61699e-09
-1.61006e-08
0.00805607
-0.00552681
-6.54853e-05
-0.00202615
8.82932e-09
-2.77015e-06
0.000263755
2.0495e-05
-1.49343e-09
9.10134e-05