/*--------------------------------*- C++ -*----------------------------------*\
| =========                 |                                                 |
| \\      /  F ield         | OpenFOAM: The Open Source CFD Toolbox           |
|  \\    /   O peration     | Version:  v2012                                 |
|   \\  /    A nd           | Website:  www.openfoam.com                      |
|    \\/     M anipulation  |                                                 |
\*---------------------------------------------------------------------------*/
FoamFile
{
    version     2.0;
    format      ascii;
    class       volScalarField;
    location    "350";
    object      k;
}
// * * * * * * * * * * * * * * * * * * * * * * * * * * * * * * * * * * * * * //

dimensions      [0 2 -2 0 0 0 0];


internalField   nonuniform List<scalar> 
18649
(
0.01872
8.20542e-05
0.0188662
0.000112678
6.40311e-05
0.0272343
8.60014e-05
4.59444e-05
0.013116
0.0120256
8.00154e-05
7.70515e-05
6.80907e-05
8.63383e-05
0.107711
6.76073e-05
7.83303e-05
8.59159e-05
0.00694311
8.21503e-05
7.68349e-05
0.0706414
0.00683393
0.000107591
0.0118203
0.00525286
0.0108154
0.0135451
7.95563e-05
0.0575063
6.63085e-05
6.59961e-05
7.82014e-05
9.36678e-05
7.89308e-05
8.94292e-05
0.104481
8.43718e-05
7.99947e-05
8.66067e-05
0.0322527
8.90286e-05
0.00020057
0.012683
0.0144123
0.0666927
0.0040173
9.51393e-05
8.76244e-05
0.000105257
0.000111176
0.00902189
6.9117e-05
0.03491
5.32086e-05
0.00020259
0.0804862
8.7751e-05
4.47311e-05
0.00568918
5.7241e-05
0.000154569
8.96644e-05
0.104206
0.0551895
0.00783059
0.00280368
9.05195e-05
0.0147301
0.07086
0.011081
9.3665e-05
8.55219e-05
8.92039e-05
6.56891e-05
0.0119179
0.019663
7.94077e-05
0.0591495
4.73149e-05
6.5284e-05
8.83714e-05
0.0252466
0.00913689
4.86936e-05
0.000185067
8.50829e-05
8.41365e-05
4.78762e-05
0.016295
0.111774
0.00014902
0.000107816
0.000112248
6.37923e-05
6.89576e-05
8.96805e-05
0.000105842
0.0046597
5.70873e-05
0.0219284
6.47295e-05
0.00358029
4.59983e-05
0.0129354
0.0128906
0.026676
0.00564941
0.000189708
8.5413e-05
7.85832e-05
9.5555e-05
8.57435e-05
6.94201e-05
6.39419e-05
0.000106346
9.04106e-05
9.5643e-05
6.6667e-05
8.47545e-05
5.64049e-05
0.000103311
0.00925994
6.9547e-05
4.82242e-05
8.96482e-05
0.0851919
7.36963e-05
7.96602e-05
4.88672e-05
8.69729e-05
0.105587
0.000195456
0.00022986
7.72056e-05
0.0656948
0.0141952
0.0210844
0.0144956
0.0150379
9.47708e-05
6.93954e-05
4.4721e-05
7.52642e-05
0.0116745
5.57532e-05
9.0248e-05
0.000244154
0.0126394
8.81085e-05
0.0187472
0.00014676
7.12533e-05
8.55192e-05
0.000100743
0.00011184
8.80807e-05
6.78044e-05
6.71814e-05
0.00513036
0.0228091
0.0194085
8.84345e-05
0.014727
0.0321102
6.64029e-05
7.57768e-05
0.012126
6.04714e-05
5.65681e-05
8.54054e-05
7.10638e-05
6.6028e-05
6.75043e-05
0.00010373
0.0111168
0.0108103
8.77283e-05
0.0123862
0.0240325
7.51263e-05
0.0150257
5.4149e-05
6.7953e-05
7.66551e-05
5.41389e-05
5.32206e-05
0.000101793
5.64352e-05
4.70476e-05
8.92114e-05
0.0185385
0.000142566
8.58309e-05
8.76483e-05
6.60966e-05
5.40724e-05
5.39872e-05
0.0170364
9.52194e-05
4.71942e-05
6.36413e-05
0.00585239
8.56638e-05
7.51118e-05
7.11802e-05
0.000229372
0.0109296
9.09706e-05
6.8742e-05
5.65292e-05
8.50302e-05
5.34506e-05
9.06038e-05
0.0169331
9.16226e-05
8.60972e-05
8.90631e-05
6.7599e-05
0.00237986
8.34141e-05
5.09872e-05
0.0657545
0.000106513
0.018898
7.68492e-05
0.000126833
0.00754003
0.000107849
8.53657e-05
4.69976e-05
6.57553e-05
9.51363e-05
7.79174e-05
0.00240713
7.48282e-05
8.83181e-05
7.6473e-05
5.36162e-05
4.45465e-05
8.78407e-05
0.0121215
0.000104746
0.0598263
0.0172924
7.47362e-05
8.57742e-05
7.87165e-05
0.0762686
0.00010228
7.48839e-05
0.00336729
7.43792e-05
6.60312e-05
9.246e-05
6.64789e-05
6.86094e-05
5.68301e-05
8.54773e-05
5.84267e-05
0.102078
5.16416e-05
5.05938e-05
8.50253e-05
5.30271e-05
0.000125687
5.64538e-05
0.000354734
6.64302e-05
6.10576e-05
0.000162798
0.00156459
9.02618e-05
6.09961e-05
0.105836
0.000103847
8.52967e-05
9.2497e-05
8.69311e-05
0.000156037
0.000263096
8.91355e-05
0.0138172
8.57224e-05
4.87376e-05
0.00017791
9.47294e-05
7.64887e-05
0.0138085
4.71902e-05
7.56621e-05
0.0252341
8.60837e-05
7.47703e-05
0.090486
0.0774322
0.0915486
0.0750402
9.47012e-05
6.74424e-05
6.36349e-05
0.0146483
0.000104318
0.000164132
0.000270882
5.96135e-05
0.000685492
0.000119186
9.52395e-05
0.000109356
7.59514e-05
0.00639219
4.48878e-05
5.31623e-05
8.58662e-05
6.49974e-05
8.92758e-05
0.0264156
0.0195222
5.32886e-05
0.0621882
6.02474e-05
5.65089e-05
7.92705e-05
0.0737642
7.70571e-05
0.0927719
0.00494692
6.75485e-05
8.74552e-05
8.73497e-05
0.00935145
0.00165751
6.33424e-05
0.010735
7.51295e-05
0.00519576
5.89142e-05
9.88097e-05
0.000238416
7.83537e-05
0.00156964
0.0294149
0.00785685
0.0163962
0.000116848
0.00010467
7.92368e-05
0.0765904
0.00484154
8.82072e-05
0.000141788
5.17148e-05
7.40797e-05
9.21941e-05
8.82306e-05
7.70694e-05
0.00561295
6.4539e-05
5.299e-05
8.45097e-05
0.00638394
0.000102464
6.84683e-05
0.00425602
0.00839219
6.36334e-05
4.95363e-05
0.000954512
5.34916e-05
9.94615e-05
0.000486712
5.10335e-05
6.94918e-05
0.108728
8.6721e-05
0.00014528
0.000425587
0.00687056
0.00071695
0.000898835
5.3485e-05
7.3979e-05
0.00143578
0.0063001
8.52782e-05
7.93067e-05
6.70586e-05
8.72995e-05
7.96669e-05
0.00153078
6.6078e-05
5.41743e-05
8.55688e-05
0.0146474
0.00264368
6.41536e-05
4.76035e-05
5.8862e-05
6.0716e-05
0.000268444
0.00233175
9.10791e-05
0.000116283
2.09306e-05
5.92628e-05
6.72814e-05
0.000432003
5.3491e-05
0.000104374
9.74527e-05
0.00011522
0.000153823
8.76542e-05
0.000283731
9.23658e-05
0.0107931
8.37194e-05
8.63999e-05
8.92926e-05
9.42318e-05
5.41853e-05
0.000106385
0.00794178
0.00628599
4.44243e-05
0.000119352
0.000322171
9.23196e-05
0.0862669
0.0216712
5.56758e-05
8.20485e-05
8.23631e-05
0.106894
8.07208e-05
7.38277e-05
0.00676682
7.95216e-05
6.35896e-05
5.54927e-05
4.46573e-05
8.59011e-05
9.85115e-05
8.75902e-05
7.41102e-05
8.61977e-05
0.000153283
0.0282705
7.35455e-05
8.90804e-05
0.0886572
8.92543e-05
0.0122219
9.4228e-05
7.18498e-05
7.7558e-05
6.01551e-05
0.0695972
0.000209961
6.59802e-05
0.103019
8.04315e-05
0.010983
0.00540783
6.81769e-05
4.45961e-05
4.49701e-05
7.36478e-05
8.47696e-05
7.59241e-05
5.0656e-05
9.05951e-05
0.000113346
0.000109071
0.000119736
8.52244e-05
7.39984e-05
9.45514e-05
0.0892709
9.56481e-05
0.0577881
8.44105e-05
5.69709e-05
5.15811e-05
0.0247676
7.48533e-05
0.0064891
0.0670574
7.64569e-05
7.56747e-05
0.00681176
4.56571e-05
9.03533e-05
6.71361e-05
9.29116e-05
0.000101975
6.79773e-05
5.14785e-05
7.01719e-05
0.000111156
8.90108e-05
8.5537e-05
7.67925e-05
0.00759738
0.00317211
0.00471733
4.68775e-05
6.69468e-05
0.0118521
6.31465e-05
8.51013e-05
6.53366e-05
0.000189213
0.000195812
8.6108e-05
0.0134242
7.66205e-05
0.000118998
6.67614e-05
6.81485e-05
8.30668e-05
8.78808e-05
0.066609
6.79049e-05
0.0102561
0.00614662
0.00412785
0.0103621
8.38897e-05
5.87579e-05
0.00159474
5.54193e-05
5.86253e-05
0.000173795
8.53369e-05
4.46492e-05
7.77758e-05
0.0653511
8.86252e-05
0.000155755
6.61453e-05
0.0782086
7.52001e-05
0.000107676
0.000193327
0.00553082
7.67384e-05
9.50827e-05
9.61651e-05
6.62876e-05
0.0181944
6.4896e-05
0.000115526
8.49229e-05
0.000707134
2.05134e-05
0.0094853
7.54876e-05
7.3667e-05
0.00471614
8.69862e-05
0.000196298
9.41094e-05
6.04136e-05
6.82072e-05
0.104778
0.000110771
9.15817e-05
0.000106153
8.93466e-05
0.000107934
4.56288e-05
6.48029e-05
0.0295322
4.58283e-05
0.0133551
8.46465e-05
0.0260501
8.91961e-05
7.02309e-05
7.47414e-05
0.101728
5.26106e-05
5.20858e-05
8.94225e-05
8.7183e-05
0.000344345
0.0664354
7.63988e-05
7.20296e-05
6.27544e-05
0.00135971
5.4344e-05
0.00576323
7.43008e-05
8.91437e-05
0.000372421
6.70477e-05
0.00870993
5.1505e-05
0.0885159
5.82741e-05
4.85215e-05
6.66686e-05
0.000116187
5.93707e-05
0.00879983
8.80679e-05
0.0119951
8.72034e-05
0.0664805
5.25874e-05
7.51852e-05
0.000173093
8.27777e-05
6.4797e-05
6.09535e-05
0.00199837
0.000106019
6.82331e-05
0.000355709
0.000157018
7.37756e-05
9.12642e-05
9.32691e-05
0.0267182
0.0668187
0.00371417
0.0690278
8.81673e-05
0.0181015
0.0769607
8.18053e-05
0.000109029
0.0240508
8.50803e-05
0.000190861
8.30882e-05
0.00114911
8.90268e-05
0.00251973
0.0102491
7.39001e-05
0.000711922
6.23675e-05
8.37559e-05
5.52303e-05
8.47941e-05
0.00159733
5.14877e-05
0.000278902
0.00748751
0.000119008
8.55253e-05
0.058695
8.55097e-05
7.44013e-05
0.0277113
7.45847e-05
7.03986e-05
0.0103903
5.13702e-05
8.44193e-05
0.000115231
6.72091e-05
6.42776e-05
8.82691e-05
9.09032e-05
5.9732e-05
9.72461e-05
9.30022e-05
7.2134e-05
6.57165e-05
9.11402e-05
0.00893777
0.000104708
0.000163752
0.000574654
0.00812246
8.1319e-05
0.000876713
0.070143
8.64649e-05
0.000120179
6.55082e-05
9.64668e-05
8.53975e-05
6.9829e-05
7.50956e-05
6.45105e-05
8.85318e-05
0.0223806
0.0930794
0.0106379
9.01685e-05
5.43444e-05
0.139267
5.1651e-05
0.0181285
8.45539e-05
0.0103746
9.00791e-05
0.134803
6.07082e-05
0.00114766
6.44331e-05
0.0174385
7.49088e-05
0.00305248
0.00285206
9.08782e-05
0.0685312
5.92426e-05
0.0691291
6.06846e-05
9.9213e-05
0.039125
5.67109e-05
4.72602e-05
6.85026e-05
5.25248e-05
0.000146302
0.14527
7.86188e-05
8.41123e-05
0.00317131
0.0125827
6.44847e-05
0.000130358
5.64506e-05
7.87865e-05
0.0196087
0.010197
9.5637e-05
0.000103772
8.90661e-05
0.0194629
6.231e-05
6.5402e-05
0.00576139
0.000220205
4.85307e-05
9.63966e-05
0.000136809
8.83711e-05
6.57081e-05
4.63988e-05
0.0193968
0.000100134
5.29755e-05
7.8861e-05
0.0784677
8.83277e-05
0.000105131
0.0015992
9.00597e-05
0.0182539
8.6087e-05
5.34127e-05
4.84979e-05
8.42528e-05
0.000122892
8.93196e-05
5.51653e-05
5.83715e-05
0.000118727
6.53675e-05
0.0150981
0.026327
8.14933e-05
9.79757e-05
0.00263412
7.31161e-05
5.15295e-05
5.20815e-05
4.56556e-05
0.000105381
6.56571e-05
0.0690027
8.00743e-05
8.35525e-05
5.22397e-05
8.63847e-05
9.01676e-05
5.52178e-05
0.000166335
0.0469965
0.0220059
0.0755339
0.0568843
0.00190654
6.52536e-05
8.69744e-05
0.000673406
9.89313e-05
0.00948656
8.6875e-05
0.000121186
0.0113079
0.0169405
0.0129254
8.12314e-05
5.28317e-05
5.58779e-05
8.92592e-05
7.16481e-05
0.00783827
0.000142314
4.95546e-05
8.78292e-05
9.48344e-05
9.15678e-05
0.0722013
0.000125289
0.0927285
7.9342e-05
0.034047
8.02745e-05
8.97096e-05
9.1096e-05
4.74235e-05
6.77922e-05
0.0155559
7.15389e-05
0.000118919
9.00342e-05
7.89595e-05
8.24072e-05
5.15794e-05
0.00943084
0.0179738
9.12629e-05
0.00293668
8.84365e-05
0.000120512
0.00011935
0.000166172
6.85522e-05
8.9681e-05
4.4656e-05
9.81482e-05
8.80634e-05
6.09717e-05
5.12559e-05
4.95163e-05
4.55738e-05
0.0600973
8.63782e-05
9.09102e-05
8.21518e-05
6.75614e-05
7.95164e-05
6.39932e-05
0.000684113
5.91906e-05
5.12627e-05
7.6037e-05
5.23205e-05
6.52919e-05
0.0202368
8.67001e-05
0.00886168
5.34282e-05
8.54226e-05
6.77963e-05
6.69659e-05
6.35595e-05
4.63343e-05
5.21454e-05
0.000117251
0.0165919
0.0086045
0.0700272
9.48503e-05
8.80742e-05
5.91014e-05
0.0552763
4.59312e-05
0.00233791
0.000141034
0.136102
5.27721e-05
0.000532089
0.00346823
8.6772e-05
7.23317e-05
9.84723e-05
0.0629602
9.54873e-05
9.64176e-05
8.4343e-05
0.0121639
0.0692513
4.95718e-05
0.00916411
9.00318e-05
6.1223e-05
6.78734e-05
6.98858e-05
7.8784e-05
4.61798e-05
0.00290827
0.00398596
4.89914e-05
7.97128e-05
7.62248e-05
7.36913e-05
6.61246e-05
0.0777257
0.0790339
0.000132716
4.64967e-05
4.67013e-05
4.46268e-05
0.0696445
0.021269
0.000476782
0.000152416
5.32302e-05
0.0230857
0.0236553
0.14315
4.66674e-05
5.10212e-05
0.000189816
8.59988e-05
0.0673738
7.12608e-05
6.21283e-05
5.37849e-05
9.84128e-05
8.75968e-05
4.84868e-05
8.01762e-05
6.16904e-05
6.52466e-05
0.000107176
0.0359882
0.0122865
0.000119961
0.0119954
8.86685e-05
0.000121322
8.32737e-05
5.35143e-05
7.10742e-05
0.00857851
0.0119382
0.0669237
0.126922
7.01977e-05
5.10268e-05
8.58411e-05
8.79557e-05
0.00410783
0.000114235
5.19111e-05
5.42255e-05
0.119266
8.36835e-05
8.84894e-05
7.85102e-05
0.132405
0.0679062
0.0001957
0.00718691
6.58271e-05
9.73181e-05
5.19103e-05
0.0118366
9.10235e-05
8.4101e-05
0.0105014
0.000225527
7.53888e-05
5.15831e-05
8.85653e-05
0.145891
0.0130017
0.0712483
5.91529e-05
8.30565e-05
0.0140605
6.76748e-05
4.46299e-05
8.95471e-05
0.00604907
4.85427e-05
6.62565e-05
0.00655013
0.0574316
7.22263e-05
0.000919081
7.36956e-05
0.0158272
4.53056e-05
8.79815e-05
0.0260947
0.0801575
0.0232779
4.60412e-05
8.50947e-05
0.0701131
7.80031e-05
5.17273e-05
0.0532958
0.0966655
5.53932e-05
5.95937e-05
8.93801e-05
0.00972837
0.00185608
0.0247471
0.000126088
8.67637e-05
8.73311e-05
8.91758e-05
0.00129868
0.000118789
0.0784609
0.000108451
7.21011e-05
0.0678767
0.00780272
0.0288151
0.000292677
0.141351
5.2267e-05
8.0137e-05
0.0689814
0.000142352
9.79203e-05
8.89474e-05
8.69049e-05
0.00755705
8.38991e-05
0.0267597
8.03718e-05
0.00117783
7.92448e-05
0.00253752
6.52184e-05
0.00189518
0.000102574
8.83644e-05
0.0155028
0.000104422
5.36771e-05
0.00348213
0.0780158
9.19793e-05
7.82717e-05
0.00380933
6.33664e-05
0.0753956
8.02039e-05
0.012718
7.17807e-05
4.89273e-05
7.5341e-05
0.00121529
5.49772e-05
5.153e-05
5.99973e-05
0.00676328
0.0346708
8.6546e-05
7.50378e-05
8.50537e-05
0.0230066
9.10432e-05
8.94386e-05
0.0804271
0.0260503
0.01308
7.68266e-05
5.1895e-05
0.0203919
4.67122e-05
0.0102672
0.00332272
7.23634e-05
4.52252e-05
8.73786e-05
0.00993049
0.0801574
0.0191043
4.62338e-05
7.31927e-05
0.0147859
9.83509e-05
0.00158798
0.0624641
0.0050585
6.37872e-05
8.80332e-05
0.0497232
8.57461e-05
4.60708e-05
4.66573e-05
8.3696e-05
0.00581818
7.15822e-05
0.00767997
6.27121e-05
0.0666418
9.79767e-05
4.45808e-05
9.62294e-05
0.000415685
0.0679848
8.77646e-05
8.42152e-05
7.75557e-05
6.3797e-05
0.0541949
0.000116079
0.000371506
7.28552e-05
0.0117424
0.148428
8.97626e-05
8.7872e-05
6.33496e-05
6.38544e-05
8.26669e-05
6.83387e-05
0.0103122
9.41174e-05
0.0125814
0.000388014
6.08025e-05
0.0122258
0.0113743
9.86074e-05
9.72521e-05
0.133972
8.33235e-05
0.03982
0.0048626
8.76633e-05
5.49153e-05
0.0130451
0.0203339
0.000197509
6.95023e-05
8.03217e-05
6.7607e-05
8.32255e-05
7.19663e-05
0.000595049
8.21053e-05
0.0122619
0.00964111
9.26938e-05
6.03978e-05
4.66885e-05
0.0176507
4.85122e-05
0.0721141
9.213e-05
0.0041084
7.9062e-05
7.99379e-05
7.43584e-05
0.0102495
4.48534e-05
0.00125957
7.60528e-05
8.5534e-05
6.95703e-05
8.24734e-05
4.5901e-05
5.6169e-05
6.41006e-05
8.71554e-05
0.0344331
0.000302069
6.74416e-05
0.00848993
4.50794e-05
6.8228e-05
0.110908
7.20233e-05
4.59643e-05
0.003156
6.76706e-05
0.000102861
0.00594071
7.53592e-05
0.000120235
0.010717
7.41066e-05
0.0111236
4.73738e-05
0.000127664
0.135909
8.52804e-05
4.72347e-05
9.65414e-05
5.32881e-05
5.28152e-05
5.60127e-05
0.00237422
4.86727e-05
0.0199316
0.0027756
6.68337e-05
9.89739e-05
0.0673855
8.99877e-05
8.69874e-05
8.42347e-05
8.7763e-05
9.51203e-05
7.33401e-05
7.96772e-05
5.33523e-05
0.0249525
7.24188e-05
7.49329e-05
6.75266e-05
7.73199e-05
9.0111e-05
0.00697057
0.0039672
4.49655e-05
0.0106891
0.000151129
0.000795728
0.0145493
0.0328722
6.68168e-05
5.62604e-05
8.77688e-05
9.22329e-05
0.0102585
5.38345e-05
0.0106979
7.20888e-05
0.000108092
6.82071e-05
5.24411e-05
0.00891977
7.60904e-05
6.43926e-05
0.0994241
6.9958e-05
8.73417e-05
6.64392e-05
0.000109784
0.00541841
8.92943e-05
0.0145479
0.0348424
5.17568e-05
7.38088e-05
7.00908e-05
0.00127327
7.96004e-05
8.59659e-05
0.000101934
7.34413e-05
0.0103367
0.00883043
0.000125485
0.0669025
0.0874582
0.0115228
0.000137975
6.50138e-05
0.0666372
0.000110662
7.18915e-05
7.19273e-05
6.32461e-05
0.00345847
8.52686e-05
8.76044e-05
0.0181302
0.010294
9.49012e-05
5.05874e-05
6.01306e-05
0.0106027
7.77217e-05
8.53378e-05
8.63331e-05
0.0102698
9.44295e-05
0.00666565
8.64817e-05
0.00021816
0.00010253
8.98306e-05
0.0103894
8.18342e-05
8.0115e-05
7.71907e-05
6.66177e-05
6.00991e-05
0.0100215
0.0739567
7.24996e-05
4.49159e-05
7.36739e-05
6.72236e-05
0.0156117
8.53564e-05
7.40703e-05
6.32429e-05
8.36548e-05
6.66253e-05
7.17635e-05
8.17429e-05
5.86286e-05
0.000200626
0.00479126
7.79535e-05
8.95603e-05
4.65563e-05
8.70034e-05
0.00723422
0.0166369
6.56309e-05
9.27883e-05
6.08646e-05
0.0807792
9.02295e-05
0.0217034
4.58746e-05
0.0582343
7.59614e-05
8.26835e-05
0.00363936
4.76344e-05
0.0861185
5.92845e-05
0.105615
8.39376e-05
0.0122556
5.07915e-05
0.0244457
0.000299638
5.96062e-05
0.0770216
5.98908e-05
4.57643e-05
0.00927489
6.07974e-05
7.39213e-05
0.000177399
9.78662e-05
7.24101e-05
6.06384e-05
4.47122e-05
6.69107e-05
0.0138544
7.55101e-05
5.08086e-05
0.0477515
8.83701e-05
0.0144132
6.21228e-05
8.55222e-05
6.08039e-05
8.06161e-05
0.00435667
0.00010616
0.0196358
0.0266935
0.000103489
7.48883e-05
6.01819e-05
6.57813e-05
0.0919791
7.56446e-05
7.44252e-05
5.9838e-05
8.59532e-05
0.00158024
0.0662763
6.01575e-05
0.0227775
7.07853e-05
9.5807e-05
4.72223e-05
8.57598e-05
8.17658e-05
0.0143714
7.24512e-05
3.21357e-05
0.0120579
7.75769e-05
6.40716e-05
0.0148922
0.0796461
4.47937e-05
0.106658
5.35356e-05
0.022603
8.97989e-05
0.000603766
0.0262155
9.83068e-05
6.32663e-05
0.000121341
6.77722e-05
8.12963e-05
9.25839e-05
9.56171e-05
8.54907e-05
0.00753582
0.0151205
8.98672e-05
7.68769e-05
7.55019e-05
6.46968e-05
0.000116369
7.75727e-05
7.07061e-05
8.36156e-05
6.05333e-05
9.33436e-05
0.000238569
8.38445e-05
7.93676e-05
9.51375e-05
0.0852843
0.000446757
8.96908e-05
0.0211084
0.000241949
0.000128922
0.0656428
6.47151e-05
8.88166e-05
7.46604e-05
6.63705e-05
7.93316e-05
0.132827
7.82645e-05
8.98673e-05
6.80811e-05
8.6298e-05
0.00747743
4.95406e-05
0.0055479
9.05015e-05
0.0783414
8.91819e-05
0.022818
5.35935e-05
9.99222e-05
8.66538e-05
1.73351e-05
8.53356e-05
7.71328e-05
0.00518306
8.90508e-05
8.85903e-05
4.54683e-05
0.00909999
0.0574191
7.48156e-05
6.21743e-05
0.00675703
0.0147658
0.0394265
5.9218e-05
7.25541e-05
0.0776227
8.88916e-05
0.00763197
0.000512335
4.90421e-05
8.60234e-05
0.0028605
7.95537e-05
8.96854e-05
5.77901e-05
0.000116556
9.36893e-05
0.00016834
6.48207e-05
0.000570885
0.00936752
0.0797781
0.0370544
7.97722e-05
7.17005e-05
7.02197e-05
7.94717e-05
4.68236e-05
0.0720686
6.57787e-05
0.0185476
8.46415e-05
0.000386828
0.0022363
6.80595e-05
5.9427e-05
8.66212e-05
0.0100658
6.05227e-05
6.81142e-05
6.81238e-05
7.12145e-05
0.00490162
6.14078e-05
8.16115e-05
7.93487e-05
8.65706e-05
6.28136e-05
6.07582e-05
0.0132702
8.59002e-05
0.0298189
0.000103288
6.6357e-05
0.00586584
6.41677e-05
0.00769253
6.101e-05
0.00096991
5.30002e-05
6.67866e-05
5.15855e-05
7.11396e-05
5.92471e-05
5.59283e-05
0.000146056
8.48737e-05
0.0303513
8.7129e-05
9.62365e-05
6.12659e-05
0.000122887
0.0107904
0.0105901
8.76786e-05
7.35091e-05
7.16582e-05
8.67351e-05
6.54754e-05
0.0328432
8.61917e-05
8.02977e-05
0.079791
8.45244e-05
8.07966e-05
7.94485e-05
0.0170434
0.10259
0.013615
6.05219e-05
6.54968e-05
0.00120317
0.0103518
8.53091e-05
7.05501e-05
0.0373267
0.00956172
4.84817e-05
0.00338864
0.0114466
5.97117e-05
0.000125863
5.04352e-05
6.56527e-05
8.26273e-05
8.95178e-05
6.28642e-05
9.71908e-05
8.90564e-05
8.59533e-05
5.18322e-05
4.60076e-05
9.04438e-05
8.73457e-05
8.92266e-05
4.54167e-05
7.67394e-05
7.43116e-05
8.75493e-05
9.24932e-05
9.20055e-05
0.00015122
4.58206e-05
0.0603843
8.78611e-05
0.000393732
9.00344e-05
0.00874904
6.04428e-05
7.1195e-05
7.69701e-05
5.3392e-05
0.000124966
9.28074e-05
0.000274579
5.33073e-05
8.91698e-05
5.93622e-05
8.57327e-05
0.0158863
6.0093e-05
0.0111793
0.0527487
0.00010548
0.00292323
5.03959e-05
9.16309e-05
8.60212e-05
8.75974e-05
5.44488e-05
5.30782e-05
0.00916313
0.0122414
8.87762e-05
8.9812e-05
6.47792e-05
0.0115399
5.164e-05
7.17968e-05
6.11823e-05
5.46623e-05
4.66148e-05
0.00518871
6.72572e-05
0.00118536
8.22207e-05
7.95112e-05
0.00800106
0.00109167
8.70164e-05
0.000132467
0.0740665
0.0279999
0.00655497
5.93276e-05
6.25235e-05
5.67297e-05
6.47631e-05
8.56434e-05
0.000142461
4.74285e-05
0.0158179
4.74262e-05
9.68291e-05
4.47071e-05
8.49527e-05
0.00171508
0.000108085
0.0875677
8.6879e-05
4.4642e-05
0.00698702
0.10134
8.11072e-05
0.0658791
4.65716e-05
9.25853e-05
8.68978e-05
8.71811e-05
0.0857833
0.000240461
0.000108288
8.56939e-05
0.00237209
8.1527e-05
8.37546e-05
0.00109973
8.6997e-05
0.0104771
6.57232e-05
7.42397e-05
8.1965e-05
5.27148e-05
0.00118054
0.115299
7.25819e-05
5.51678e-05
9.00776e-05
4.65769e-05
0.013245
7.28115e-05
0.0104588
9.33104e-05
0.000715778
0.000368186
8.47637e-05
0.0546787
9.92798e-05
5.0233e-05
6.36575e-05
0.0623269
0.000102114
0.027004
7.44028e-05
6.58677e-05
9.60536e-05
8.57084e-05
0.00711814
0.000146444
0.00876254
0.00189314
0.00758166
8.58032e-05
5.92833e-05
0.0609899
3.53107e-05
0.014472
0.000298573
9.79683e-05
0.000886796
8.69596e-05
9.12213e-05
0.0342314
5.6826e-05
5.43056e-05
0.121041
5.25333e-05
6.5634e-05
0.0662261
9.38528e-05
0.0143737
9.3962e-05
7.62858e-05
0.000142371
7.67494e-05
0.000102121
8.80937e-05
0.0010376
0.0559573
5.23598e-05
8.81157e-05
9.29214e-05
0.132042
0.000673357
0.0669629
9.97023e-05
0.1235
8.70757e-05
6.24503e-05
7.58355e-05
0.117173
5.98259e-05
0.0735497
6.53558e-05
0.0872817
8.80789e-05
8.4087e-05
0.0104407
0.0125792
0.000125519
8.19913e-05
0.00503368
0.0778782
0.00890904
5.45156e-05
5.18445e-05
8.95251e-05
5.06119e-05
5.93267e-05
7.00682e-05
5.01919e-05
8.11292e-05
0.000570402
0.000100808
5.21939e-05
7.85957e-05
0.00750728
0.000218452
7.66462e-05
0.0974326
7.67161e-05
7.78483e-05
0.136785
6.2135e-05
8.81686e-05
0.0136585
8.0338e-05
0.0158599
4.68242e-05
0.00958297
7.54199e-05
0.084883
5.70826e-05
8.35462e-05
8.04179e-05
0.00675664
0.113059
0.000114579
5.79391e-05
0.000234524
0.0119778
0.0102886
0.00218656
0.0304258
0.00581444
0.00264268
9.86258e-05
8.72719e-05
8.56026e-05
8.91101e-05
5.78547e-05
9.10475e-05
4.5125e-05
7.85571e-05
0.0705147
0.00010508
0.0836031
0.0722506
0.06562
0.00375016
6.77655e-05
0.0152389
6.68584e-05
4.86886e-05
8.38156e-05
6.02621e-05
7.32569e-05
0.0784094
7.00609e-05
0.058567
8.70824e-05
0.000847254
0.00387867
4.84893e-05
0.0578249
8.42213e-05
8.56955e-05
7.06588e-05
5.31847e-05
0.00973188
0.0170803
5.6911e-05
0.0214821
7.98396e-05
5.28714e-05
0.00887085
7.69197e-05
4.64586e-05
6.73401e-05
0.000118503
9.03319e-05
9.63954e-05
0.1434
4.66389e-05
0.0185899
8.03015e-05
7.88317e-05
0.000442362
0.000676605
0.139461
8.56116e-05
4.6692e-05
5.91158e-05
0.0115177
3.4296e-05
9.26273e-05
8.82702e-05
6.22142e-05
8.71057e-05
7.46306e-05
7.12579e-05
2.68493e-05
0.059775
4.18225e-05
6.44572e-05
4.95837e-05
0.00692774
6.46969e-05
0.00111125
0.00846805
9.31834e-05
0.00953691
7.273e-05
4.52508e-05
0.00275199
0.065398
7.95582e-05
8.8605e-05
4.70759e-05
7.25919e-05
0.0803404
0.127426
0.0767084
0.0129232
6.47014e-05
5.16631e-05
0.013064
5.89689e-05
0.0104756
9.36953e-05
5.88544e-05
0.000117162
0.0781744
7.86369e-05
5.19202e-05
6.2896e-05
8.34504e-05
7.65672e-05
5.77992e-05
7.77575e-05
6.64899e-05
0.0225519
4.77694e-05
7.1116e-05
0.00272702
0.00995527
5.98436e-05
8.84263e-05
0.064665
9.859e-05
0.0704167
0.0824548
8.89653e-05
8.83583e-05
7.67383e-05
0.0244853
0.0104852
7.35857e-05
0.134479
0.0751959
0.00063498
6.58138e-05
7.05985e-05
4.91297e-05
7.60136e-05
0.0579935
0.00102694
0.0369664
0.0657819
6.97838e-05
4.50923e-05
0.133139
8.90937e-05
0.11473
0.0693413
0.00013883
0.0419919
0.00464149
8.43289e-05
6.65161e-05
7.58979e-05
0.0684663
0.00779672
0.000527052
4.6055e-05
9.69361e-05
0.0737175
0.000390732
6.94828e-05
4.72261e-05
8.54504e-05
9.46588e-05
0.000167498
0.0210877
9.30259e-05
0.000100716
0.0739764
6.02685e-05
0.000130126
0.000925912
0.000123242
0.000644798
5.53175e-05
0.0661592
7.75009e-05
0.00328567
6.00093e-05
6.16009e-05
0.134284
8.62905e-05
6.81105e-05
7.9983e-05
0.00918677
0.00380823
5.92965e-05
8.42443e-05
0.000276025
7.5757e-05
9.21932e-05
0.00466256
7.83097e-05
0.0139775
0.00466121
0.000427139
7.66516e-05
0.0654067
9.0036e-05
7.08069e-05
5.95626e-05
5.26042e-05
6.68121e-05
0.062481
8.0312e-05
0.00732742
8.84491e-05
0.000104713
7.39679e-05
0.000100039
9.17095e-05
8.70708e-05
0.00803785
8.67052e-05
0.0121573
7.81808e-05
0.00509166
0.000100123
0.00122215
9.38307e-05
6.66435e-05
5.3543e-05
9.19076e-05
0.000230611
0.0117667
0.000144393
0.000291155
0.00387303
8.39071e-05
8.62043e-05
6.05072e-05
0.00463256
0.0220484
0.0146398
0.000106473
0.000172414
6.0144e-05
0.137189
0.0141602
0.0672618
9.07614e-05
5.94245e-05
0.000104388
0.0680994
6.21364e-05
0.000215812
0.007405
8.04471e-05
0.00156352
8.42143e-05
0.0751883
0.00014597
0.0736771
9.6587e-05
6.15073e-05
5.91653e-05
0.0750067
4.46906e-05
8.9797e-05
0.025872
9.95928e-05
5.96717e-05
0.000171524
0.00734756
9.52998e-05
6.27737e-05
0.000287605
0.000197603
8.03164e-05
9.20767e-05
0.0117457
0.00814913
0.000120213
0.0104958
0.00743371
8.87901e-05
8.86266e-05
0.0094421
7.04464e-05
6.12062e-05
0.00671828
0.000160457
8.48967e-05
7.41788e-05
7.56613e-05
0.000200313
0.064131
5.93077e-05
0.0671988
8.98902e-05
0.00250356
4.85154e-05
0.00823123
0.0717502
6.50319e-05
0.0665515
0.0144463
8.40819e-05
7.21059e-05
0.000162785
9.07855e-05
0.000179091
4.7509e-05
8.50905e-05
9.18157e-05
8.9817e-05
8.61954e-05
0.138863
6.60181e-05
0.000105906
0.0840291
4.47393e-05
0.00348521
9.80848e-05
0.000167206
0.00915029
5.43621e-05
0.0118815
7.3101e-05
0.0162659
8.90712e-05
6.67045e-05
0.000106797
7.54524e-05
9.02632e-05
0.000106706
7.8025e-05
8.92442e-05
7.58665e-05
0.0110904
0.00653946
0.000892308
0.000209879
7.00404e-05
0.000170657
7.71216e-05
9.39691e-05
0.0410136
7.26319e-05
8.31374e-05
0.0128773
8.03997e-05
6.51383e-05
0.00607951
0.00010091
0.0218788
0.04479
6.07602e-05
8.14609e-05
9.56675e-05
8.81053e-05
0.000104448
0.0893177
4.65095e-05
7.55534e-05
0.0792664
0.0050665
0.00279409
0.0819612
0.141311
5.50822e-05
0.0134243
0.00373099
6.7796e-05
4.92161e-05
9.10805e-05
0.00781831
0.00012447
9.071e-05
8.57427e-05
0.00525078
0.000109201
6.31528e-05
8.98282e-05
6.57168e-05
4.6638e-05
0.0371474
8.27758e-05
0.0144501
0.0566889
4.69868e-05
0.139008
7.12075e-05
9.15229e-05
0.116489
0.0616913
0.0348339
6.04419e-05
8.91549e-05
0.0145094
9.00498e-05
9.06234e-05
0.0567102
0.0102566
0.13367
0.0171755
0.00010073
8.23062e-05
5.85568e-05
6.25978e-05
0.108542
0.0746456
0.000103522
8.96623e-05
5.91166e-05
0.0131408
0.00411435
8.08991e-05
0.0131027
0.000116817
0.0725704
3.2819e-05
5.85586e-05
0.0101686
4.45905e-05
9.54001e-05
0.00486409
8.79213e-05
8.57253e-05
0.00853391
9.19363e-05
8.07225e-05
9.33509e-05
0.103222
8.99624e-05
0.000146476
6.31945e-05
0.00851425
0.00469452
0.0162681
7.67513e-05
5.85906e-05
0.000100895
0.0150288
0.0134783
8.89845e-05
7.70362e-05
9.8266e-05
4.91745e-05
0.0113281
0.000153548
8.66351e-05
8.49369e-05
7.60262e-05
6.9715e-05
5.97689e-05
7.66739e-05
9.05564e-05
9.27787e-05
0.00989641
0.00159066
0.00867587
9.45346e-05
0.000182828
0.000148487
8.03147e-05
9.38208e-05
0.000742388
7.2454e-05
7.83398e-05
7.25079e-05
9.62773e-05
7.21195e-05
0.000131419
0.000110844
0.0132271
8.85719e-05
0.05472
0.00206561
0.0715882
0.000461273
0.00666199
9.13325e-05
8.7706e-05
0.138625
6.99047e-05
8.69893e-05
4.66464e-05
4.75698e-05
7.92772e-05
8.28866e-05
9.9393e-05
5.16835e-05
0.000107943
0.0011428
8.63912e-05
0.0140427
6.98464e-05
0.000113299
0.000116402
5.90072e-05
8.60076e-05
0.0121718
0.000149177
8.18154e-05
7.44587e-05
0.115845
6.32077e-05
0.0136087
0.0724874
0.0149977
0.0223545
9.24018e-05
0.000207941
0.0389745
0.000406999
8.73365e-05
0.000148057
0.0906712
0.0102183
8.58233e-05
0.0644961
8.67292e-05
8.71022e-05
0.0886414
0.000130182
8.77e-05
6.07024e-05
0.0173309
6.62696e-05
0.00718384
6.10109e-05
0.00259149
6.09442e-05
8.69605e-05
8.92553e-05
7.44173e-05
8.83465e-05
7.50187e-05
6.35997e-05
0.0519861
8.5286e-05
0.0176279
0.00710293
0.03383
8.86035e-05
0.0912949
6.88518e-05
8.90592e-05
0.00049591
0.0698881
6.67068e-05
0.000104237
4.65122e-05
8.68514e-05
9.74537e-05
0.0120265
0.0174803
7.99337e-05
0.0130491
0.0712505
0.000124403
8.91823e-05
5.09642e-05
8.57716e-05
8.98588e-05
5.8218e-05
0.0299965
8.74904e-05
0.0689316
4.77485e-05
0.148839
0.0132503
0.000541743
0.0656496
8.82046e-05
0.000379559
8.54361e-05
6.89965e-05
7.67004e-05
0.000100704
8.57917e-05
7.07565e-05
7.85751e-05
0.0727427
0.0986657
0.0144454
0.0214804
5.98737e-05
5.33033e-05
7.90857e-05
7.28434e-05
0.000154869
0.00789266
9.76394e-05
9.86798e-05
8.06161e-05
0.0627256
5.82807e-05
5.14983e-05
0.0131909
0.122504
0.0594555
6.68356e-05
8.72389e-05
8.80813e-05
0.00055244
0.0862681
6.7244e-05
0.0589393
6.43112e-05
8.64615e-05
6.53963e-05
4.67435e-05
0.00861479
0.000206393
8.92962e-05
6.51924e-05
0.126293
8.5866e-05
0.066991
8.97398e-05
3.64645e-05
8.95156e-05
8.7178e-05
8.10018e-05
6.35615e-05
0.017001
6.10316e-05
0.0112825
8.49917e-05
4.65751e-05
0.0695144
0.000132648
0.0700149
8.61949e-05
7.26309e-05
9.65499e-05
0.0262576
6.48379e-05
9.64814e-05
8.70537e-05
0.0363336
8.41167e-05
0.00915018
0.0719754
9.73505e-05
5.70509e-05
1.20949e-05
8.56463e-05
0.000102144
9.30128e-05
6.00446e-05
7.31542e-05
0.0864913
0.000989483
0.0624647
0.0116589
6.51758e-05
0.0816151
6.9685e-05
0.0741833
9.62104e-05
7.9987e-05
7.68005e-05
0.000204856
0.0168147
0.00892632
8.64312e-05
0.0308195
8.29723e-05
7.66522e-05
5.49613e-05
0.000169301
6.3603e-05
0.102055
5.96161e-05
8.00836e-05
0.0816397
7.41625e-05
0.0864221
0.0862767
7.57407e-05
5.69877e-05
0.074838
0.0866652
8.26815e-05
0.000134579
9.4609e-05
8.37296e-05
8.62881e-05
0.0212623
4.59955e-05
8.56817e-05
0.000316059
8.48769e-05
0.000142125
0.0610827
9.92749e-05
0.010655
0.0619479
6.26806e-05
8.73821e-05
7.91879e-05
9.35591e-05
5.77882e-05
8.53933e-05
0.0125855
6.14096e-05
8.61098e-05
8.85705e-05
8.95537e-05
0.0781453
8.2498e-05
5.67958e-05
8.95668e-05
0.000179045
5.79939e-05
7.99339e-05
7.29105e-05
4.4592e-05
8.68207e-05
9.48429e-05
8.59643e-05
6.90197e-05
0.000115525
8.75943e-05
5.25804e-05
8.98969e-05
8.19123e-05
5.27511e-05
0.00012543
6.53889e-05
0.052809
7.72826e-05
0.0103578
0.00011391
0.073426
9.35139e-05
0.00823407
0.000115163
0.105542
0.0721837
8.71513e-05
0.0733082
0.00941858
0.00704749
5.26854e-05
6.09067e-05
0.0135936
4.46386e-05
0.000104947
8.17817e-05
0.0187642
8.32991e-05
8.3038e-05
0.000426186
6.07217e-05
0.0746523
0.0777101
0.000320471
0.0001058
0.0919524
0.0475362
0.0764994
0.00495311
6.11584e-05
0.0248812
8.87967e-05
0.012154
0.0729553
0.0792247
0.00961053
7.96759e-05
0.0646276
8.88017e-05
0.0804452
6.66744e-05
7.84691e-05
5.93624e-05
0.0100541
0.0710746
0.0101714
8.36024e-05
0.0723197
0.00244215