/*--------------------------------*- C++ -*----------------------------------*\
| =========                 |                                                 |
| \\      /  F ield         | OpenFOAM: The Open Source CFD Toolbox           |
|  \\    /   O peration     | Version:  v2012                                 |
|   \\  /    A nd           | Website:  www.openfoam.com                      |
|    \\/     M anipulation  |                                                 |
\*---------------------------------------------------------------------------*/
FoamFile
{
    version     2.0;
    format      ascii;
    class       surfaceScalarField;
    location    "350";
    object      phi_0;
}
// * * * * * * * * * * * * * * * * * * * * * * * * * * * * * * * * * * * * * //

dimensions      [0 3 -1 0 0 0 0];
oriented        oriented;


internalField   nonuniform List<scalar> 
27704
(
0.495221
-0.467242
-0.0279794
0.108178
-0.394855
0.286676
0.0528263
0.442395
-0.0432788
-0.0924214
0.1357
0.403816
-0.492851
0.0890343
-0.375737
0.192508
0.183229
0.154775
-0.40314
0.248365
0.0883224
-0.459406
0.371083
0.221648
-0.410753
0.189104
0.0177852
-0.138524
0.163668
-0.428095
0.264428
0.529404
-0.134761
-0.394643
-0.0952365
0.499053
-0.144661
0.271228
-0.126567
-0.00512956
0.000200551
0.00492901
-0.522645
0.558091
-0.0354465
0.460611
-0.246081
-0.21453
0.399938
-0.245163
0.311261
-0.337398
0.0261369
0.442264
-0.334086
0.35345
0.175954
0.00146838
0.0137236
-0.015192
0.183031
-0.496809
0.313778
0.140454
-0.155653
0.0151988
-0.157081
0.174866
0.482095
-0.299064
-0.228294
0.454216
-0.225922
-0.457427
0.365957
0.09147
-0.131367
-0.200289
0.331656
-0.0121075
-0.00254126
0.0146488
0.447907
-0.422744
-0.0251629
0.35474
0.0931668
0.204532
0.256079
-0.251029
0.0605393
0.190489
-0.516395
0.473792
0.0426029
-0.30705
0.211721
0.0953293
-0.00934999
0.0132307
-0.00388068
0.244378
-0.366841
0.122463
0.415109
-0.251441
0.151885
-0.296545
0.305286
-0.291787
-0.0134985
-0.287309
0.192372
0.0949373
0.11403
-0.00295628
-0.111074
0.367779
-0.330931
-0.0368483
-0.134582
-0.254633
0.389216
-0.0161503
0.00296632
0.0131839
0.079873
-0.48481
0.404937
-0.178261
0.142009
0.0362522
-0.467108
0.325415
0.141693
0.0245477
-0.190292
0.165744
0.0921732
-0.135452
0.212753
-0.536979
0.324226
0.52008
-0.254927
-0.265153
0.353014
-0.0477279
0.168498
-0.476028
0.307529
-0.12665
0.142627
-0.0159768
-0.197271
0.193384
0.00388774
-0.318176
-0.148933
-0.331421
-0.162627
0.494048
0.107067
-0.462593
0.355527
0.571211
-0.195645
-0.375566
0.123548
0.12674
0.188815
-0.127833
0.192621
-0.0647885
-0.00274041
-0.00936709
0.200911
-0.496907
0.295996
0.488628
-0.381561
0.247413
-0.198412
-0.0490002
-0.420439
0.285857
0.0160577
-0.0145893
0.127095
-0.35539
-0.099858
-0.151171
0.158748
0.24119
0.300254
-0.173514
0.185879
-0.495249
0.30937
0.356718
0.0110612
-0.398342
0.279119
0.119224
-0.512008
-0.00438665
-0.00849824
0.0076454
0.000852842
-0.460058
0.490957
-0.0308985
0.469752
-0.283873
0.379797
-0.135419
0.382158
-0.313175
-0.0689825
0.316346
-0.556278
0.264372
0.291906
-0.0585003
-0.0681502
0.307321
-0.120752
-0.186569
-0.121031
0.315244
-0.194213
0.0369075
-0.496966
-0.21084
0.250479
-0.0396392
-0.00192719
-0.00320237
0.127226
-0.0289094
-0.0983166
0.151813
-0.0113588
0.251965
-0.0372534
-0.214712
0.0886319
-0.353268
0.264636
0.264024
0.256055
-0.130373
-0.176677
-0.39778
0.192296
0.205484
0.472811
-0.2719
0.283018
0.288193
0.327828
-0.265637
-0.0621911
-0.0870552
-0.435589
0.491268
-0.339727
-0.151541
0.388096
-0.299774
0.404692
-0.183044
0.224339
0.180353
0.278489
0.103668
0.0557564
0.0538189
-0.109575
0.0184368
0.12419
-0.245547
0.404295
0.246245
-0.552141
0.305896
0.124824
0.052307
-0.177131
-0.332329
0.134219
0.198111
-0.241261
-0.184453
0.425714
0.403157
-0.314525
-0.193881
-0.203899
0.0806982
0.166714
0.174431
-0.0496066
0.160519
0.286341
-0.44686
0.120617
0.186704
-0.36555
0.538309
-0.172759
-0.0221898
-0.100436
0.122626
-0.191461
-0.147235
0.338695
0.20078
-0.44204
-0.00681453
-0.370013
0.376827
0.305193
-0.223649
-0.0815449
-0.105548
0.0928907
0.0126576
0.168549
-0.421893
0.253344
0.19835
-0.329717
0.632015
-0.325429
-0.306585
-0.386704
0.260677
0.126026
0.0272829
-0.155115
0.128704
-0.119102
-0.0096015
0.128596
-0.092821
-0.0357746
0.463238
-0.0410575
-0.422181
-0.0113354
-0.484467
0.185093
0.299374
-0.0514763
0.107233
-0.234279
-0.250187
0.269685
0.145494
-0.415179
-0.192846
0.014033
0.178813
-0.485549
0.0916393
0.39391
0.383216
0.0908559
-0.474072
0.197509
0.176283
-0.373792
-0.43944
0.20304
0.236401
0.311605
-0.496701
0.185097
0.207898
0.156303
0.136981
-0.0667163
-0.0702652
-0.19547
0.419809
0.263365
-0.144023
-0.119342
0.339983
-0.274359
-0.0656234
0.225913
-0.235138
0.0092246
-0.477631
-0.00791879
-0.137743
-0.255583
0.393326
-0.0278397
-0.122866
0.150706
0.353376
-0.14493
-0.208446
0.31647
-0.0531053
-0.346367
0.468417
-0.12205
0.226239
-0.519099
0.29286
0.397013
-0.555539
0.158526
0.370003
-0.265104
-0.104899
-0.440548
0.218987
0.221561
0.161509
-0.305532
-0.306675
0.396224
-0.0895488
0.0587839
0.0674844
-0.126268
-0.45797
0.46049
-0.00251927
-0.426448
0.471007
-0.044559
-0.211973
0.419756
-0.207783
0.559108
-0.408288
-0.150819
-0.555149
0.360253
0.194896
-0.279405
0.158654
-0.459131
-0.00147236
0.460603
0.116225
0.266723
-0.382948
-0.271196
0.422366
-0.15117
0.174198
-0.14965
0.368698
0.104179
-0.472876
-0.159728
0.413372
-0.253644
0.248319
0.0681506
-0.407443
0.250616
0.119387
0.438109
-0.162776
-0.275333
0.415254
-0.145569
-0.264655
0.416413
-0.151758
0.0689676
-0.415334
0.373333
-0.167422
-0.205911
-0.433589
0.168935
0.448664
-0.280166
0.129658
-0.157497
-0.392858
-0.108364
0.501222
-0.536041
0.197458
0.338583
0.150518
0.0634254
-0.213943
0.289508
0.0504747
0.203852
0.0220616
0.273756
-0.140955
-0.132801
-0.308018
0.110285
0.197733
-0.327873
0.444098
-0.24069
-0.190966
0.431657
0.175723
-0.106059
0.164843
-0.169238
-0.00902353
-0.315661
-0.22038
0.247203
-0.53274
0.285537
0.614717
-0.217703
-0.38329
-0.16122
0.358729
-0.42717
-0.0319609
0.0265565
0.102039
-0.0362686
-0.387824
0.424093
-0.22623
0.237399
-0.0111691
0.47552
-0.211496
0.0965081
-0.489366
0.117803
0.191668
-0.309471
-0.191487
0.484119
-0.292632
-0.118906
0.231714
-0.112809
0.0444514
0.0374969
-0.0819483
0.24764
-0.142093
-0.105548
0.557358
-0.196971
-0.360387
0.275993
-0.125475
0.288382
0.180034
0.360949
-0.281076
0.24172
-0.342096
0.100376
-0.388299
0.461157
-0.0728573
-0.00317732
-0.0102808
-0.0614752
-0.176424
0.237899
-0.251759
-0.188789
0.0420112
-0.468459
0.13893
0.0710479
-0.209978
-0.231134
0.17346
0.0576735
0.473893
-0.473893
0.375622
-0.133902
0.575686
-0.378227
0.348363
-0.521285
0.172922
0.173295
-0.0312861
0.273544
0.135228
-0.408772
0.26244
-0.155229
-0.107211
0.186899
0.251209
0.0949846
0.139051
-0.234036
0.18599
0.187343
0.116275
-0.475248
0.358973
0.328773
-0.558018
0.229245
0.310668
-0.0216896
-0.288979
-0.142392
0.471703
-0.329311
0.102127
-0.35388
0.251753
-0.00511185
-0.00338639
0.362578
-0.0758409
-0.286737
-0.0420127
-0.266491
0.308504
0.239954
0.0338018
-0.051655
0.514893
-0.0268908
0.0165836
0.0103072
0.107468
-0.291259
0.249246
-0.200416
-0.0307175
0.479613
-0.33864
-0.140973
-0.146886
0.0352484
0.151067
-0.186316
-0.408192
-0.0497779
0.205066
0.270454
-0.586477
0.293491
0.292987
0.174325
0.201298
0.2614
0.297708
0.00179557
-0.0111456
-0.321781
-0.141464
0.463246
-0.32783
-0.137879
0.465709
0.105552
0.222356
-0.327909
0.188293
-0.484451
0.296158
-0.0876237
0.226554
-0.562859
0.320173
0.242686
-0.0470384
-0.34301
0.390048
-0.46386
-0.0198657
0.483726
0.348125
0.0464596
-0.394585
0.291161
-0.0907208
-0.20044
0.138262
-0.0741585
-0.0641038
-0.217325
0.0984194
0.411874
-0.0637486
0.00271396
-0.00464115
-0.137422
0.0369861
-0.108383
-0.1867
0.295083
0.0562061
-0.199101
0.142895
0.227338
0.0833298
0.0299349
0.0936131
-0.067596
-0.0689039
0.1365
-0.190742
0.272746
-0.0820043
-0.386575
0.350306
0.28241
0.274949
0.268196
0.363819
0.0560993
-0.1146
0.203408
-0.291646
0.0882386
0.367896
-0.408954
-0.272334
-0.36582
0.359005
-0.521756
0.355082
0.166674
-0.125121
0.245281
-0.362098
0.116817
0.464913
-0.217112
-0.247801
-0.116738
0.0286156
0.0881223
-0.0153317
-0.0115591
-0.0264542
-0.170817
0.0129395
-0.0222002
0.00926067
-0.0691235
-0.123722
-0.136309
0.424692
0.124064
0.279093
-0.230515
-0.0761594
0.139706
-0.201181
0.077825
0.213336
0.151736
-0.0779118
-0.0738243
-0.461001
0.503012
-0.349335
0.302296
0.115405
-0.125159
0.00975403
-0.155205
0.0128994
-0.171879
0.15898
-0.245695
-0.27606
0.489575
-0.302796
-0.186779
0.229305
-0.560726
-0.195726
-0.228993
0.424719
-0.32543
0.23289
0.0925395
0.295636
0.174116
0.241502
-0.229091
-0.0124116
-0.105338
0.228465
-0.179355
-0.439074
0.243348
0.00452964
-0.011417
0.00688732
-0.543286
0.235059
0.308227
-0.473914
-0.500418
0.419463
0.0809548
-0.00735547
0.020295
-0.0271902
-0.230127
0.257317
0.256695
0.358022
-0.412526
0.14133
0.359498
-0.490362
0.130864
0.00686763
-0.212389
0.205521
-0.352744
0.377577
-0.0248331
-0.062216
0.127333
-0.0651166
-0.390787
-0.0730727
0.110618
-0.302079
-0.437128
0.168702
0.268426
0.311174
0.178401
-0.00302921
-0.457972
0.191593
-0.171826
-0.0197668
0.0441604
0.222654
-0.369552
0.146899
0.391821
0.0968073
0.10454
-0.209878
-0.362248
0.354616
0.00763136
0.174333
0.000214396
-0.174548
0.0723779
-0.164799
-0.132786
0.119481
0.0133055
-0.407728
0.136066
0.271662
-0.0130139
-0.0091863
-0.274178
-0.0632197
0.20177
-0.106785
-0.248201
0.199854
0.0483462
0.141793
-0.463574
0.0531738
-0.284233
0.23106
0.173839
-0.13859
0.357376
-0.177097
-0.180279
0.257276
-0.284467
0.365161
-0.085828
-0.279333
-0.167578
0.484236
-0.316658
0.478686
-0.147343
-0.331343
0.167753
-0.288784
0.0576569
-0.255815
0.198158
0.318541
-0.521893
0.203352
-0.144589
0.408864
-0.264274
-0.499722
0.222353
0.277369
-0.334416
-0.128177
-0.270849
0.394913
-0.382449
-0.173829
0.451038
-0.0592177
-0.465675
0.274188
-0.0139105
0.146722
-0.132812
-0.249546
0.0256685
0.223877
0.0479115
-0.436211
-0.52602
0.236071
0.289949
0.00450953
-0.261364
0.370141
-0.108777
-0.25157
0.0033692
0.341505
0.109534
0.0975807
0.26758
-0.1303
0.0680843
-0.263101
-0.175973
0.3368
-0.283626
0.0568612
0.081401
0.388769
-0.291188
-0.306116
0.221191
0.0849255
-0.145897
0.36855
-0.134051
0.370591
-0.23654
0.209739
-0.202871
-0.38922
-0.111198
0.0454168
0.0819158
-0.334858
-0.186427
-0.468092
0.465062
-0.279871
-0.0262454
0.161944
0.188472
-0.473811
0.194541
0.27927
0.530764
-0.409832
-0.120932
-0.576878
0.234595
0.342284
-0.290869
-0.216341
0.507209
0.0674663
0.0842698
-0.0319692
0.288852
-0.256883
0.0634137
-0.27061
0.182986
0.123649
0.350032
-0.473681
-0.405412
-0.157446
-0.382846
0.248795
-0.196414
0.467314
-0.270901
0.17092
-0.434022
-0.11389
-0.0188968
-0.0154742
0.384041
-0.368567
-0.101676
-0.168934
0.111037
0.0161889
-0.304102
-0.0430599
0.347162
-0.107367
0.0397708
0.218147
-0.100086
-0.118061
0.0243741
0.332344
-0.307717
0.111288
0.196429
0.31964
-0.0891339
-0.230506
-0.117234
-0.170075
-0.233889
0.0538741
0.180015
0.00684634
-0.474938
-0.177392
-0.37194
0.0745674
0.297373
-0.183338
-0.372202
-0.164888
0.477873
-0.159332
0.531865
-0.239137
-0.292729
0.218924
-0.162718
-0.0296693
0.023248
0.00642135
0.1885
-0.0141664
0.501314
-0.189709
-0.115938
-0.195527
0.311465
-0.300951
0.185013
-0.000708127
-0.0198192
0.0205273
0.450131
-0.110035
-0.340096
-0.14249
0.419257
-0.276767
-0.282626
0.314965
-0.0323396
-0.260217
-0.147511
-0.196658
0.470906
-0.274248
0.312987
0.188326
0.455097
-0.0523684
-0.402728
0.378875
-0.133594
0.164507
-0.00793788
-0.156569
-0.278777
0.384837
-0.106061
0.317949
0.161664
0.236745
0.0828951
0.00746582
-0.12592
0.118455
-0.11885
0.311358
-0.115868
0.350675
-0.234807
-0.187735
-0.101198
0.288933
-0.0769327
-0.292953
0.105218
-0.126934
0.495632
-0.17335
0.302941
-0.318415
-0.153138
0.426682
0.491621
-0.229443
-0.262178
-0.0819655
0.14945
-0.137054
0.213252
0.20406
-0.417313
-0.024649
-0.0222032
0.0468522
0.327673
0.122458
-0.376939
0.217211
0.217872
-0.0785817
-0.139291
-0.268167
0.399555
-0.131388
-0.0797997
0.534896
0.249258
-0.497239
0.247982
-0.225933
0.394482
0.123556
0.176785
-0.300341
-0.16741
-0.184351
0.351761
0.151411
-0.479241
0.113353
0.118361
0.159495
0.279691
-0.103065
-0.176626
0.142633
-0.148474
0.00584137
-0.0722162
-0.308811
0.381028
-0.103945
0.0544313
0.136248
-0.19068
0.0335924
-0.115558
-0.204033
0.0220413
0.181991
0.00624657
0.00139883
-0.178333
0.29895
-0.303459
-0.380033
0.457237
-0.077204
0.254826
-0.139653
-0.115173
-0.440705
0.158292
0.282414
-0.453968
-0.0992501
0.553218
0.0158728
-0.0150349
-0.000837893
0.446143
-0.0343578
-0.411786
-0.341179
0.173769
-0.340482
0.0578559
-0.485446
0.230262
0.255184
0.12505
-0.320053
0.195003
-0.251586
0.477825
0.312427
-0.187377
0.098467
-0.333548
0.235081
0.476415
-0.478666
0.00225087
-0.348109
-0.137374
0.485483
-0.304086
-0.0541707
0.358257
0.0433427
0.236348
-0.0797813
0.272153
-0.323061
0.128035
0.195026
0.432079
-0.174802
-0.284057
0.312649
0.160162
0.261592
-0.203935
0.247126
0.32856
0.468221
-0.09763
0.0382485
0.278098
-0.480628
0.324256
0.156372
0.400337
-0.126206
-0.274131
0.028583
0.407698
-0.436281
0.00120935
0.112821
0.092929
-0.069284
-0.263045
0.0472041
-0.378135
0.468886
-0.115435
0.040836
0.1265
-0.167336
0.097992
0.370229
0.545814
-0.366002
-0.179811
0.182302
0.114343
-0.296645
-0.3381
0.490495
-0.152395
-0.0130478
0.00012153
0.0129262
0.375356
0.170458
-0.361213
-0.0644308
0.425644
0.0893573
-0.123757
0.0343997
0.139943
-0.0861244
0.0818587
-0.407104
0.325245
-0.3163
0.202132
0.114167
-0.408896
-0.00966124
0.418557
0.0944125
-0.0998971
0.00548467
0.486196
-0.173209
-0.369104
-0.0397915
0.140637
-0.1222
0.178922
-0.287306
-0.177646
0.560862
0.358749
0.0533382
-0.412087
0.0170924
-0.00129213
-0.365358
0.127798
0.23756
-0.255607
0.0609249
0.194682
0.493766
-0.139026
-0.0238113
0.0107974
-0.423912
0.311686
0.112226
0.148567
-0.0141005
-0.134467
-0.277913
0.221891
0.0560222
0.379294
-0.349287
-0.0300068
0.166705
0.265374
0.0536546
0.178537
-0.232191
0.422238
-0.304826
-0.117918
-0.33754
-0.129702
-0.467395
0.299817
0.182866
-0.14203
0.18636
0.213977
0.206985
-0.414709
0.207724
0.457092
-0.333443
-0.388692
0.558148
-0.169456
-0.0829458
-0.340966
-0.175636
-0.22612
0.401755
0.0965775
0.121295
0.350357
-0.176032
-0.00567503
-0.132517
0.138192
-0.156018
0.210449
-0.289958
-0.253328
0.137763
-0.40593
0.0195548
-0.020263
-0.174742
0.00286334
0.109487
0.138154
0.123327
0.00658724
-0.234171
0.233007
0.00116351
-0.00708581
-0.259355
-0.226091
0.137107
0.279729
-0.416836
-0.179406
1.90088e-05
0.179387
-0.327535
-0.159542
0.487078
0.413161
-0.175769
0.299325
0.00909383
0.109881
-0.380906
0.271025
-0.382135
0.0780489
-0.247797
0.434696
0.0294555
-0.0541046
-0.468631
0.475477
-0.223603
0.541372
-0.317768
0.187959
-0.0453506
0.404849
-0.0533353
0.120802
-0.00576413
-0.00641866
0.0121828
0.111314
0.357572
0.265044
0.164502
-0.429545
0.175614
0.263371
-0.438984
0.111209
-0.0167961
0.310854
0.152805
-0.463659
-0.00922568
-0.444742
-0.00543406
0.413034
-0.4076
-0.394962
0.0296046
0.0606146
-0.11395
0.336512
0.221579
-0.489904
0.197496
0.292408
0.156633
0.312588
-0.469221
-0.0222563
-0.00741302
-0.355164
0.451454
-0.0962899
0.284148
0.217134
-0.501282
0.489261
-0.32176
-0.167501
0.238809
0.0131568
-0.53006
0.239199
0.290861
-0.185733
0.360992
-0.233194
-0.244354
-0.195086
-0.135715
-0.250988
0.0114586
0.00441421
-0.484747
0.0161167
0.27732
-0.440096
-0.12347
0.117795
0.203529
0.113031
-0.316561
0.410739
-0.273632
-0.308656
0.515364
-0.206707
0.263689
-0.184667
-0.0790222
0.0912295
-0.194294
-0.470774
0.104771
0.143873
-0.486883
0.0858093
0.0695878
-0.155397
-0.401568
0.231271
-0.271241
0.0399702
0.0796171
-0.179475
0.196371
-0.315221
-0.0153145
0.00226676
0.056687
0.204905
0.0147384
0.00235399
0.0436879
-0.354526
0.310838
0.110819
0.0953448
-0.132163
0.036818
-0.449548
0.0905888
0.358959
-0.213677
0.122392
0.301972
-0.200088
0.00439158
-0.45394
-0.00342469
0.263554
-0.260129
0.355524
-0.245643
0.0221671
0.117776
-0.0944667
-0.373288
0.467755
-0.393694
0.251204
-0.178569
-0.073402
0.251971
0.153224
-0.461881
0.20102
0.114224
0.294807
0.191389
0.294588
0.302147
-0.305914
0.00376706
0.441157
-0.284524
-0.242556
0.0639865
-0.355292
0.364241
0.0298409
0.186124
-0.215965
0.308075
0.0188419
-0.326917
0.000522617
0.00138292
-0.00190554
-0.15311
-0.213731
-0.349008
0.100466
0.248542
-0.0904775
0.286849
0.126273
0.523888
-0.33726
-0.186627
-0.32837
-0.535705
0.165692
-0.111052
-0.205248
0.22687
-0.197029
-0.196031
0.474688
-0.278657
0.294067
0.190169
-0.0806796
0.226487
0.314542
-0.500449
0.185908
0.334113
-0.231986
-0.122109
0.201726
0.283936
0.157014
-0.44095
0.45655
-0.254674
-0.201877
0.0945981
-0.325974
0.231376
0.0510859
-0.315157
0.264071
0.242876
-0.151647
0.0166322
0.124005
0.0108467
0.2913
-0.201745
-0.288159
-0.281764
0.397982
-0.116218
0.238679
-0.0851385
-0.153541
0.0906435
-0.00180398
-0.0888396
0.155405
0.234004
-0.389409
0.130075
-0.0146701
0.280995
0.175555
-0.171332
0.00534357
0.165989
-0.0497115
0.357787
0.46346
-0.12902
0.140029
0.27071
0.143805
0.254322
-0.398126
0.0627235
-0.0120774
0.0105539
0.00152358
0.289489
-0.238403
0.262433
-0.149081
-0.122735
-0.086153
-0.023824
0.109977
0.365717
-0.522381
0.156664
0.131033
-0.353238
0.222205
0.357832
-0.149906
-0.207926
0.341281
0.111328
-0.452609
0.158478
-0.276251
0.117773
-0.00184456
-0.0843084
-0.22489
0.495617
-0.270727
0.293021
-0.296446
-0.179744
0.379905
-0.248872
-0.392108
0.174996
-0.1233
0.0858638
0.037436
-0.0112943
0.274848
0.227848
-0.0616882
0.037433
0.0242552
-0.368165
-0.208714
0.00581325
0.0100287
-0.0158419
-0.308884
-0.184926
0.0380122
0.171425
-0.209437
0.439927
-0.234503
-0.205425
-0.261658
0.18804
-0.51417
0.326129
-0.42281
-0.0479636
-0.269836
-0.171915
0.441751
-0.126307
0.212116
0.0379553
-0.0461308
0.00817551
-0.254617
-0.142282
0.396899
-0.166417
-0.175679
-0.175128
0.211184
-0.0360568
0.321058
-0.28281
-0.268157
0.408186
-0.226079
0.210722
0.015357
0.456761
-0.403195
0.148579
-0.0584985
0.337617
0.355234
0.0581382
-0.0374498
-0.166583
-0.0492636
-0.159377
0.20864
0.0571459
0.184356
-0.332858
0.523054
-0.3243
-0.198753
0.218549
-0.368602
0.150054
-0.187073
-0.103578
0.100622
-0.554306
0.274097
0.280209
0.259946
-0.0565379
-0.0352594
-0.0893608
0.12462
-0.277235
0.42104
0.339455
-0.126203
0.230204
-0.591444
0.361239
-0.0128025
-0.198037
-0.136777
0.476986
-0.288693
0.223243
0.0988296
-0.322073
0.0206149
-0.0142773
-0.00633766
0.331583
-0.236985
0.131362
-0.180626
0.189295
0.0743941
0.239177
0.276425
-0.309216
0.0327909
-0.0886847
-0.521669
0.217929
0.30374
-0.252365
-0.241144
0.493508
0.304328
-0.198776
0.083242
-0.114857
0.0316153
-0.0338434
-0.361119
0.468578
-0.173771
-0.445791
0.0906276
-0.233294
-0.0235047
0.256798
0.377257
-0.158709
0.0299086
0.291149
0.000928609
0.173353
-0.174281
-0.360546
0.0787821
0.208519
-0.170507
0.262004
-0.273298
-0.153532
0.408622
-0.25509
-0.369145
-0.105185
0.47433
-0.562574
0.338971
0.34788
-0.528063
0.180183
-0.195102
-0.0569022
0.252004
-0.422168
-0.0179254
0.440093
-0.00341633
0.00922959
0.362315
-0.139657
-0.222658
0.153732
0.2041
-0.215532
-0.247735
0.0889359
0.125291
-0.214227
-0.388967
0.119131
-0.281225
0.425098
-0.0287302
0.0450613
-0.0163312
0.00529995
-0.270937
0.056358
-0.0810401
0.0246821
-0.00480186
-0.000663699
0.00546556
0.402158
-0.195173
-0.195599
0.48194
-0.24689
-0.112951
0.359841
-0.204969
0.197557
0.00741166
0.0121652
0.134557
-0.0971684
0.0623104
0.034858
0.252662
-0.237912
-0.0147492
0.15562
-0.108046
0.311086
-0.0176241
0.307132
-0.223003
-0.18775
-0.335148
0.16873
0.179428
0.297558
0.541426
-0.364924
-0.176501
-0.0681946
-0.165976
-0.162199
-0.284097
0.446296
0.0873795
0.00524276
-0.0926222
-0.290139
0.199419
0.111451
0.293661
-0.405113
0.011151
-0.315253
-0.214074
0.176624
0.244971
-0.0136999
-0.145957
0.112676
0.0332804
-0.213068
-0.308825
-0.00791653
-0.00416092
-0.142979
0.389224
0.12246
-0.0857708
-0.0366897
0.161183
-0.439563
0.27838
0.262297
-0.0902218
-0.172075
0.231535
-0.136901
-0.0946343
0.359865
0.170899
-0.114182
0.417509
-0.303328
0.302048
-0.44444
-0.280516
-0.160636
0.441152
0.0899045
-0.119429
0.0295246
0.25609
-0.0443686
-0.132678
-0.296811
0.133224
0.163587
0.0711281
-0.451161
-0.36173
-0.175248
-0.241233
0.228431
0.159711
0.0699294
-0.229641
0.263617
-0.206931
0.206981
-0.300171
0.0931896
0.108007
0.022068
0.0416896
-0.246206
0.204517
0.118971
-0.111505
-0.408624
0.264034
-0.0182179
-0.205431
-0.226489
-0.331528
-0.330139
0.0999119
0.230227
0.0864404
-0.21807
0.13163
0.327501
0.195552
-0.125356
0.431821
-0.306465
0.359775
-0.248323
0.523034
-0.175154
0.0802205
0.0104231
-0.194634
0.304919
-0.076482
0.236193
-0.405934
0.143431
0.262504
-0.537696
0.359032
0.178663
0.140713
0.221602
0.159408
-0.438513
0.279106
-0.39084
0.0933531
0.297487
0.266428
-0.421459
0.155032
0.315801
-0.288517
0.413408
-0.124891
0.47684
-0.293463
-0.183377
-0.148243
0.395446
0.00634721
-0.0813686
0.0750214
0.22145
0.0312115
0.137287
-0.437216
-0.0388122
-0.300892
0.159937
-0.16234
-0.316553
0.473818
-0.31441
0.561068
-0.330864
0.31143
0.16541
0.104219
-0.0143145
0.212448
-0.0389876
0.353202
-0.378573
0.025371
0.00385435
0.0122033
-0.1602
-0.274488
-0.185383
0.45181
-0.00210973
-0.00269212
-0.358456
0.513172
-0.154716
-0.238617
0.206647
-0.132845
-0.157295
-0.0145865
0.021359
-0.00677257
-0.286175
0.465603
-0.238195
-0.0113503
-0.170313
0.176687
-0.0063737
-0.09347
0.354147
0.0881144
0.260927
-0.349041
-0.231672
0.00986999
-0.00534036
-0.0516113
-0.422282
-0.149291
0.523478
-0.391431
-0.132047
0.204215
0.0462644
0.00608169
0.0112156
-0.0172973
0.153244
-0.438928
0.285684
-0.0516006
-0.150357
0.239293
-0.448915
0.36186
-0.414312
0.30013
-0.370597
-0.155423
0.320814
-0.0975715
-0.216641
0.53981
-0.323169
-0.400658
-0.0105943
0.411253
-0.0113174
-0.389341
-0.195831
-0.257461
0.453293
0.270518
0.143872
-0.41439
-0.382199
0.0936822
0.220932
-0.470751
0.281891
0.18886
0.00576348
-0.0206139
0.0769719
0.0674838
-0.102743
-0.252001
-0.339443
-0.513974
0.306354
0.20762
0.418272
-0.327416
0.0096618
-0.017874
-0.064466
-0.176767
-0.0960873
-0.00117336
0.0972606
-0.0557523
-0.228094
0.523706
-0.295612
-0.174851
-0.138324
-0.14334
0.265732
0.0475179
-0.00956263
0.520381
-0.314586
-0.205796
0.13699
0.294832
-0.227677
0.214667
0.01301
-0.175038
-0.107172
0.28221
-0.00500818
0.0114965
-0.00648834
0.271405
-0.43386
0.162455
-0.371464
-0.0507039
0.51366
-0.335595
-0.178065
0.0538403
0.137753
0.204266
-0.162326
0.446474
0.185101
0.103535
-0.288636
0.168524
0.286124
-0.454647
-0.323355
-0.169496
-0.21527
0.193351
0.0219194
0.41377
-0.218004
-0.195766
-0.417578
0.194575
0.017474
0.175401
0.106526
0.248998
-0.114869
0.105165
0.0097041
-0.290742
0.361993
-0.0712512
-0.337349
0.365932
-0.44585
0.508931
-0.0630805
-0.0433491
-0.318899
-0.173085
-0.203854
-0.00443864
-0.000569532
0.0101529
-0.0202098
0.010057
-0.327484
0.413494
-0.0860094
0.431969
-0.29498
0.305686
0.196809
-0.110369
-0.205387
0.0302591
0.00551494
0.317294
0.224077
-0.154338
0.41871
-0.11977
0.117925
-0.34773
0.0927734
0.254957
0.383415
-0.033058
0.161247
0.159568
0.0405844
-0.0528148
0.0122304
-0.00785498
-0.031537
-0.087565
0.305794
0.115554
-0.421348
0.158908
-0.27032
0.0766821
0.193638
0.484883
-0.303095
-0.181787
-0.365271
0.273687
0.0915843
-0.226062
-0.106698
0.136678
0.356029
-0.492707
0.318798
-0.304578
-0.13255
0.120806
-0.489951
-0.248
0.0226837
0.0248342
0.0840973
-0.0777501
-0.0506117
-0.230107
0.441327
-0.21122
-0.204637
-0.391941
0.230186
0.161755
-0.403957
-0.0418927
0.413715
-0.493514
-0.192091
0.28617
-0.371998
-0.41469
-0.306134
0.455417
-0.149283
0.0912472
-0.00386772
-0.000141082
0.300138
-0.468145
0.168007
0.224366
-0.42078
-0.162338
0.396469
-0.234131
0.153629
0.205783
-0.359412
0.333593
-0.505255
0.171662
0.274056
0.109359
0.173224
-0.263701
-0.000991765
0.0995188
-0.098527
0.0832252
-0.226566
0.367357
0.152092
-0.519449
-0.344072
0.271856
-0.00917576
0.0130301
0.181029
0.333865
0.315688
0.169195
-0.0481803
-0.00523299
0.0534133
-0.146337
0.170691
-0.0243538
0.280685
0.260741
0.480767
-0.310648
-0.17012
-0.109978
0.288697
-0.178718
0.358371
-0.00516909
0.161748
0.100692
0.368406
-0.0749546
-0.293451
-0.184389
0.172467
0.0802352
-0.252702
0.229891
-0.270523
-0.0979237
-0.316786
-0.00305325
0.11106
0.0181808
-0.0135603
-0.0875785
0.21894
0.317921
-0.229807
-0.00688193
0.0129636
0.301381
0.0873881
-0.267001
0.19921
0.0677904
0.00538551
0.0963936
-0.101779
-0.00554642
-0.348199
-0.214375
-0.0963126
0.281414
-0.00444411
0.0141059
-0.11827
-0.181226
-0.0890942
0.118855
0.153891
-0.354834
-0.300527
0.207438
-0.113688
-0.180139
0.293827
-0.0922606
0.265485
0.211073
0.125621
-0.336694
0.0382628
0.263219
-0.41
0.146781
-0.34147
-0.037215
0.378685
-0.171758
0.0585048
-0.213734
-0.265476
0.0703743
0.224748
-0.0177666
0.342428
-0.33756
-0.0048681
-0.0436285
-0.119611
0.16324
-0.3494
0.000508501
0.266288
-0.266797
0.00442968
-0.194918
0.0528252
0.324374
-0.163128
0.262513
-0.305641
-0.174987
-0.0581228
-0.0740401
0.428975
-0.267792
-0.397667
0.179333
0.218334
0.0772195
0.240702
0.138099
-0.463529
-0.314102
-0.172796
0.486898
0.0562682
-0.397738
0.284802
0.183775
-0.453293
0.206722
0.284899
-0.33144
-0.0404997
0.183562
0.230208
-0.415716
0.141613
0.274103
0.446022
-0.0941973
0.285866
0.158333
0.0541148
0.0568756
0.174659
0.152319
0.091899
0.111572
0.143254
0.0873506
-0.0428992
0.00696099
0.439183
0.170764
0.291366
-0.462129
-0.0646335
-0.0167352
0.201706
0.292196
-0.493902
-0.442843
0.0816299
0.0571813
0.206436
-0.263576
-0.145704
0.409281
0.518081
-0.184488
-0.343329
0.245835
0.097494
0.320764
0.0216641
0.21249
-0.0191069
-0.0584469
0.128493
-0.0700465
0.344427
-0.414767
0.261235
-0.093368
0.403545
-0.310177
-0.166687
-0.00513906
-0.181921
0.200173
-0.0182518
-0.0108822
-0.000534752
0.112713
-0.0233557
0.257313
-0.453971
0.099948
-0.438048
-0.0487339
-0.0129543
-0.0901709
0.361494
0.178316
-0.286611
0.488316
0.326507
-0.0632355
-0.0605216
0.357651
-0.280431
0.360737
0.401515
-0.225902
0.0140755
-0.00463162
-0.00944383
0.302573
0.1753
0.0078492
0.405865
-0.00233327
0.400626
-0.398292
-0.00595471
-0.175966
-0.0383518
0.116986
-0.0786345
-0.324414
0.335565
-0.313328
0.114758
0.19857
-0.0264204
0.385169
-0.280479
0.499535
-0.219056
-0.0358671
0.00713698
-0.202863
0.209223
-0.207604
-0.00161912
-0.308056
-0.160339
0.468395
-0.292046
-0.125532
0.0384679
-0.0157842
-0.200828
0.110606
0.260669
-0.153315
-0.107355
0.165265
0.451854
-0.0932821
0.252767
0.148298
-0.401065
0.409544
-0.327685
-0.0177171
0.183423
-0.165706
-0.516001
-0.0907018
0.0565811
-0.34745
-0.273157
0.443656
-0.170499
0.331884
0.026487
0.60134
-0.231299
-0.370041
0.346648
0.254692
-0.0251199
0.0105334
0.296526
0.0709841
0.113848
-0.0152244
-0.0986232
-0.0950096
-0.188645
0.473448
0.34541
-0.0528451
-0.292564
-0.0285741
0.304999
0.270538
-0.176144
-0.0943935
0.306149
0.217738
-0.100423
-0.425413
0.0425668
-0.18648
0.297768
0.440834
-0.156898
-0.0240513
-0.180918
0.283482
-0.150258
-0.436723
0.163566
0.452161
-0.176278
-0.275882
-0.525752
0.193465
0.332287
-0.248794
0.373777
-0.124982
-0.532335
0.211689
0.320646
0.0977148
0.14504
0.0738845
-0.00491517
0.271203
-0.139976
-0.00690747
-0.382223
0.38913
0.46128
-0.168404
-0.292876
0.345113
0.478562
-0.380562
0.131759
0.248803
-0.456428
0.147616
0.12977
-0.438654
-0.365084
-0.0297712
0.169367
-0.496902
0.533124
-0.250856
-0.282267
0.0713312
-0.424599
0.0869131
-0.333803
-0.171367
0.00504295
0.166324
-0.242779
0.19849
0.0442887
-0.160067
0.334228
-0.266083
-0.231156
0.276549
0.132315
-0.0861774
0.445471
-0.288457
-0.128525
0.495882
0.0709821
-0.111897
0.0409147
-0.0584379
-0.366975
0.153599
0.0205985
0.047853
0.0554906
-0.34675
-0.195366
0.545398
0.0893401
0.302468
0.158812
0.306112
0.0392974
0.51767
-0.20505
-0.312619
-0.0633773
0.130861
0.00976344
-0.0200461
0.0102826
-0.0882806
0.202009
0.0668656
-0.458295
0.391429
-0.407865
-0.0271658
0.435031
0.315743
0.162942
0.204638
0.328486
0.211537
-0.00847478
-0.203062
-0.28611
-0.114747
-0.152694
0.267441
-0.0664385
0.463911
-0.315453
-0.148458
-0.00218028
0.00305535
0.209435
0.21813
0.0210464
-0.291805
-0.123911
-0.292021
-0.27611
-0.214252
-0.140976
0.328542
-0.187566
-0.155417
0.407414
-0.251997
0.154892
-0.415743
0.00787757
-0.231914
0.34517
-0.350604
0.182452
-0.430249
0.2812
0.231697
-0.387983
0.156286
0.273601
-0.0916883
-0.181913
-0.114831
0.420625
0.0197226
-0.259463
0.239741
0.334233
-0.513195
0.178961
0.263423
-0.423195
0.159772
0.140486
-0.123854
-0.0968034
0.09563
-0.41498
0.128338
0.286643
-0.0377933
0.0752902
0.418934
-0.163478
-0.255456
0.287453
-0.321837
0.0660846
0.152063
-0.462972
0.368505
-0.419704
-0.0555444
0.42505
-0.161627
0.449699
-0.149561
-0.0175888
-0.197682
0.382028
-0.129261
-0.525152
0.333054
0.192099
-0.487942
-0.261835
-0.118726
-0.296638
-0.141875
0.0508847
0.0410547
-0.0919393
0.167679
-0.475735
0.249122
0.1874
0.301861
-0.189255
-0.0420552
0.403976
-0.361921
-0.165665
0.359583
-0.0383668
-0.321217
0.236862
-0.0296899
-0.207172
0.33689
-0.517628
0.180738
-0.388457
-0.397994
0.117515
-0.180701
0.0103886
-0.331794
0.131505
-0.139639
0.421416
-0.281778
0.147332
0.0186395
-0.165971
0.241052
-0.101563
0.37481
0.269332
-0.377667
0.108335
0.00733567
-0.0130998
-0.0378108
-0.0399615
0.0777722
0.0885117
0.223625
-0.312137
-0.14789
-0.103679
-0.217969
0.479851
-0.261882
0.00423955
-0.298501
-0.112583
0.411084
-0.160436
0.42548
0.438814
-0.274313
0.321507
0.15231
-0.252095
0.271818
-0.110564
0.308127
-0.197563
0.268161
-0.172204
-0.0959572
-0.102857
-0.250381
0.273296
0.151754
-0.142404
-0.149242
-0.432379
0.294499
0.176173
0.275987
0.455059
-0.181763
0.25546
-0.380732
0.125273
-0.297264
-0.128454
-0.233644
-0.481373
0.108085
0.161096
0.0208803
-0.359349
0.338468
0.241687
-0.0339215
0.159983
-0.126062
-0.00686541
0.154197
-0.256858
0.186912
0.0699459
-0.351644
0.315231
0.127033
-0.298631
-0.139887
0.371583
-0.427945
-0.018205
0.44615
0.452548
-0.276375
-0.457317
0.0661258
0.391191
-0.00472312
0.150107
-0.413683
0.507888
-0.173654
-0.465301
0.289654
0.175647
-0.447618
-0.286663
0.306957
-0.28727
-0.155838
0.443108
0.0485444
-0.456833
-0.263373
0.394843