/*--------------------------------*- C++ -*----------------------------------*\
| =========                 |                                                 |
| \\      /  F ield         | OpenFOAM: The Open Source CFD Toolbox           |
|  \\    /   O peration     | Version:  v2012                                 |
|   \\  /    A nd           | Website:  www.openfoam.com                      |
|    \\/     M anipulation  |                                                 |
\*---------------------------------------------------------------------------*/
FoamFile
{
    version     2.0;
    format      ascii;
    class       volScalarField;
    location    "250";
    object      omega_0;
}
// * * * * * * * * * * * * * * * * * * * * * * * * * * * * * * * * * * * * * //

dimensions      [0 0 -1 0 0 0 0];


internalField   nonuniform List<scalar> 
18758
(
0.117774
5.49931
0.0214521
4.31568
5.84482
5.76233
7.18789
0.021712
0.297341
0.0270953
0.02367
10.8788
0.0220407
0.170986
0.0230534
0.738731
0.0428733
0.0219429
0.0219262
0.0309795
7.95241
0.0222696
5.5729
3.8979
0.642805
0.0217163
1.70293
5.66557
8.94946
3.60295
0.0741206
5.73695
0.0221831
0.0227278
0.149185
0.022172
0.0222267
0.0220012
0.0222699
0.0450175
0.0220156
0.0268031
0.0216487
0.0263737
1.58952
0.0216125
5.15696
0.0240217
0.0269568
0.021616
0.126419
6.16124
0.0215466
0.0235037
5.49871
7.55893
0.0222166
0.340064
0.0219433
0.1933
0.111443
5.62567
0.123154
0.022883
0.0215538
0.0220141
0.046641
0.0221761
0.0219203
6.09992
5.83749
0.0223035
0.0216232
16.3429
0.0216851
0.0219292
0.282972
5.88858
0.0928583
5.04451
5.95931
2.8654
0.211174
5.54189
0.318807
0.0306462
24.0242
0.125009
5.66479
0.0219361
5.34378
0.0219468
15.3661
0.0271419
5.82926
14.087
0.307452
0.0216858
0.0218937
6.512
0.0316109
5.09996
0.0944423
0.0473531
7.07238
1.93193
5.57842
6.02433
0.0226907
0.022298
17.6183
12.479
0.021756
0.0220288
7.13383
9.72214
7.0158
0.0230737
8.03406
5.45585
0.0387006
0.0219643
11.317
1.60649
0.594392
1.30582
3.90547
1.2468
12.758
0.0220365
0.0442399
1.53656
15.8158
0.0498885
4.75335
0.0239081
0.268966
0.0469607
0.0218911
0.0815354
0.0857839
0.197679
0.0219669
11.7519
0.0220321
0.0220088
9.9948
6.49388
0.0712252
6.68201
1.76204
3.32963
0.0306366
0.0222704
4.806
0.0283484
6.91903
0.0240845
0.0221552
0.0222892
0.0218021
0.222122
20.4222
0.0221599
0.110108
8.71903
0.0219778
12.0075
0.25262
5.9001
4.67966
0.0219415
20.2328
5.70242
0.21439
3.03405
7.8277
0.0229649
0.0769696
0.0221222
0.0217956
30.0924
2.64625
0.0216516
0.0252257
0.99967
0.0219144
7.66578
0.0216336
0.021929
0.0495176
0.743166
0.0224025
0.068168
0.0333072
0.12929
0.0312135
0.281535
0.0221491
0.0216421
0.0734866
0.0238689
0.0365764
0.086784
0.0220373
0.0326632
0.0970408
0.0222783
7.78229
0.0275078
0.0219304
0.0497196
0.0222075
0.03732
0.0800511
6.47218
0.0842283
0.666086
0.0216366
5.87337
0.0219317
0.0227095
0.217437
7.70233
0.259313
0.0944797
0.0585184
0.0455942
0.0216101
0.0883829
0.0220091
0.125529
5.03158
0.341508
0.0220585
0.021918
0.0216123
0.021637
11.783
0.0363272
0.0218319
0.554983
5.61452
0.0230271
6.68664
27.3752
0.318182
0.0221785
5.89071
0.0297284
0.0221516
11.343
0.0308177
0.0299855
0.0224806
0.0413355
0.62716
0.811973
0.0364118
0.0923497
0.0216674
0.0778203
0.0220325
0.0851856
0.0271128
0.225057
8.66687
0.021638
0.0225846
0.555899
0.0225392
0.0250146
0.0850611
9.13704
9.27115
0.0219549
0.122955
27.6656
1.3788
0.022608
0.0217407
0.0297877
0.0365041
0.0219577
25.4504
0.459411
2.64623
34.9585
5.46937
0.0216297
0.0214439
0.0537153
7.41876
0.025519
0.088542
0.122268
0.0290708
5.54636
0.0218997
0.376819
5.63925
0.0216203
5.89563
0.0383496
0.0219421
0.0326789
0.0877288
0.022806
0.0221569
5.76197
1.76854
0.0219288
8.29351
5.52183
0.241401
0.0220198
0.0221513
0.75646
0.0230027
0.0216459
0.0217699
0.0232023
0.249153
0.0919233
0.0296197
0.0350962
0.0315276
0.048824
0.0216531
0.0222785
1.18712
0.0564829
0.133239
4.22049
0.0257026
0.0223211
0.0221076
0.348616
5.95862
0.021622
0.021918
0.0216242
0.023832
0.0442611
0.662018
0.021965
0.0221919
0.021608
0.923145
0.249496
0.16908
0.141773
0.0228892
0.572967
0.108708
0.0370159
0.0314948
10.0755
6.71268
2.15661
0.0220465
0.0324841
6.25653
8.89732
0.024955
0.0216346
0.059433
0.0219586
0.0308516
8.32861
3.78183
0.129582
0.0312223
6.60977
0.0219801
0.0239012
0.0218869
0.0222909
0.1236
0.0241582
6.71831
0.301198
0.0224224
0.0219345
6.62446
0.125665
0.279156
0.0219821
0.0575538
0.0217288
0.02609
0.0219637
0.0216469
8.21355
7.07691
3.50656
22.1116
0.0219068
0.242841
5.13658
0.042593
0.0217524
4.22285
0.0217739
0.0220693
0.0217916
0.128418
0.0219554
0.0261831
0.142249
10.6294
0.0217594
5.75136
0.0485784
0.0220239
0.0258771
0.0219463
0.0219201
0.0287761
0.0722135
0.0474024
15.0632
0.0393264
0.0220461
0.490305
5.92914
4.79196
4.80454
0.117698
0.0224895
0.0216474
0.0218343
0.0222495
0.127944
0.0435158
0.0329024
0.0364008
0.0306274
0.839423
0.0970139
0.02194
0.0336842
4.65456
0.0228153
3.76026
0.0222475
0.0220823
5.24053
0.0278546
0.02251
0.561899
0.15319
0.0521042
11.1333
0.02193
0.0226347
0.866095
9.56403
0.0371016
0.0686366
0.187392
0.494815
20.6539
0.172521
0.0223083
0.14131
0.0220283
0.129075
0.0231701
13.5933
0.0559667
3.71012
0.0325837
0.0813989
0.0216299
3.54956
0.0216289
8.97164
0.021889
0.349708
0.0220582
0.570558
0.0315447
0.0220879
0.0218989
0.0217826
5.53058
10.8868
7.19658
0.0466155
0.0246284
0.0894062
0.0222709
0.0222868
6.19525
0.0218989
0.0220615
0.12493
0.0220411
0.0662068
0.0864172
0.0220576
0.0219526
0.0279486
0.022722
0.0289205
6.63027
0.0315533
0.0362246
0.0267069
0.0220506
4.94171
0.0222414
0.0226909
3.28178
10.1992
0.0784459
2.06666
0.0249951
0.0226662
6.59829
0.0219515
8.59736
0.249595
0.0220809
6.61493
1.04946
0.0607078
0.0218648
0.0521241
6.16538
0.0220264
0.0218881
0.0231394
0.0227841
0.0220372
0.0216773
0.0222944
11.1626
0.0253898
8.59404
0.0219678
0.169358
7.75649
0.0220376
0.021641
0.0253466
0.022128
0.0226472
0.0233236
0.0221066
0.116646
0.927063
0.0215436
6.18184
5.25222
0.0355796
0.136265
3.68103
0.0264446
0.0307641
0.0287709
5.91304
0.0251852
0.0468123
0.0220039
10.7531
0.0421298
0.235116
0.147723
6.84629
0.0252247
0.0219247
0.0589536
0.676369
0.0225684
0.504879
0.0221983
5.78975
0.0227472
0.0217953
0.0217793
0.0220474
5.33585
5.81117
0.0219843
0.280564
0.0303211
4.91658
7.61046
0.646189
2.36126
0.0218995
5.8538
0.0654966
0.0219755
0.04769
6.10411
6.35113
0.0227088
0.0226033
0.0220056
0.0214864
6.59409
0.117355
5.57464
5.22764
0.0220266
0.0221406
0.059876
0.0222796
0.0218042
0.0233536
0.0229289
0.123051
0.0418328
0.237172
6.0703
0.0696181
0.0220642
0.0275359
0.115598
6.16847
0.0453802
5.28408
0.0519539
0.0219966
0.312459
4.92454
0.0224688
0.0216429
0.152312
5.25825
0.261874
0.0220412
8.8511
33.294
1.1243
0.0216104
6.33535
6.02097
24.0136
0.0241886
0.0221983
7.42874
0.0222946
0.22551
6.70407
0.206401
5.55895
0.093925
5.44926
0.0736606
0.0220838
0.0225909
5.62754
4.57562
7.5825
3.859
0.0219499
0.227072
0.0222769
0.0609106
0.0947665
0.116255
0.0220864
0.0250986
0.209388
6.12916
5.25134
9.36147
0.0378527
0.0320985
0.305478
0.0222291
0.0217074
0.0219581
0.0254402
0.0768828
0.0220363
0.0908599
0.0218516
0.0220806
0.0219057
5.80262
0.022334
0.0222692
0.0569318
0.0530331
0.0215499
11.3588
0.0219655
0.0217014
0.0560527
0.0361426
0.0248514
0.0228635
3.64608
0.0356506
0.0342343
4.8853
0.034531
4.38423
0.0261673
0.119944
27.5226
9.23188
0.0216347
5.95124
2.19732
0.0216853
5.71466
0.0220638
0.0218935
0.0395371
0.0219511
0.0959579
6.08684
0.0216274
25.976
0.0218802
0.0379103
4.53141
0.0215282
5.23645
0.0236781
0.0219764
0.0219206
0.0219553
0.259649
0.0745897
11.3588
0.073597
5.51042
0.0591474
0.02204
0.235308
7.41276
3.74854
0.0750993
0.162338
0.0635097
0.0269609
0.25566
0.0226269
4.12663
0.0220351
5.12877
0.0227998
0.0735527
0.0280632
0.0223776
9.03973
0.0226407
0.0218123
2.47825
0.0236618
0.0219085
0.0451637
0.0863621
0.271189
1.26342
3.82408
5.20129
0.0221332
0.0222062
6.92786
0.0219975
0.745666
0.0993589
0.0238274
0.0220608
0.0321497
0.0219898
0.0219415
0.0290521
0.661393
0.234418
0.138845
0.0651321
0.0221322
0.0628694
7.79371
0.0218624
0.0966969
0.0239753
6.07416
0.0232277
5.49791
0.0220293
2.21913
0.0222765
0.0866849
0.0219792
0.0251821
0.0298131
0.0215344
0.0216848
0.0215847
5.65709
32.0866
0.0331958
5.39768
0.0220011
0.0425615
0.0281271
0.293446
5.47444
0.0332873
0.0215417
0.242056
0.0218545
0.0219991
0.0281639
8.53369
10.121
1.33431
0.822242
0.076853
0.0229983
0.0218912
2.90159
0.0218963
2.0659
0.0279302
0.0221849
6.38847
6.4342
0.0220904
8.86453
0.0273988
0.111671
0.0979558
1.84397
6.24974
0.956456
0.0219956
0.0214586
6.09858
0.0219569
0.0219221
0.0284915
0.0219654
5.24341
0.30498
0.0609734
4.9853
0.0494508
0.141543
0.0238477
0.0219897
0.0215387
0.021781
9.6449
8.4135
0.350066
0.0220571
0.0215348
0.0303158
0.0218443
0.0404568
0.0257481
2.08547
6.25885
0.089059
0.251991
0.332154
0.0219028
0.235158
0.0218928
5.50168
1.75867
6.77858
7.8192
0.0230027
0.0292079
3.35237
4.95852
7.7062
0.045989
0.124344
5.58409
0.0220479
0.238821
1.81068
0.132362
0.0220419
0.0219655
0.0417725
5.30819
2.43628
0.0960978
0.0219715
0.0248368
0.0292426
43.9448
0.0222789
0.686111
0.021891
0.0227091
0.213658
0.0218638
0.0220236
0.0233145
0.0268485
0.0219765
0.0226662
0.0216134
3.10493
0.30361
5.40134
0.0216353
0.0502291
0.0220138
0.250458
0.291344
0.0384869
0.0218942
0.0228476
0.68068
0.136342
0.0291837
7.98094
0.128562
0.0219397
0.0220249
4.52628
5.31133
0.060571
0.0216188
0.42646
0.0221249
0.0366437
0.0216675
0.757635
4.96464
0.0218613
0.0220149
3.02546
0.0219325
6.49077
7.16464
0.0621147
0.0222467
0.0221653
0.0216628
0.0220337
22.4065
6.63061
0.130821
0.0228924
5.2778
0.0219407
0.0219322
7.70674
0.0217488
6.06817
0.0215138
0.0289814
0.023512
0.0219361
0.0218394
0.0221202
4.80698
0.0225551
0.0221941
0.14916
0.0421915
0.021974
0.0592429
0.0367254
0.0221233
0.287264
0.0219788
0.0374823
5.66418
0.0988852
0.0219584
0.262167
0.100099
0.0840332
0.0263741
0.0659661
8.90031
0.0245872
0.0603248
0.0219546
0.0215918
0.0220104
0.0444375
0.0378252
0.0473927
0.02187
0.0276368
0.0657963
5.51393
0.240757
0.0219248
0.0217792
0.0228136
0.0901991
0.0218098
7.33279
0.0219623
0.0219588
0.0217785
0.523792
4.96862
0.0221543
0.0236514
0.0218852
0.103486
0.0218092
0.0219601
0.914697
0.0222704
0.0215953
0.0221303
0.149478
0.0217961
0.0218688
5.14251
7.65408
0.74764
0.0440637
5.06261
0.0501882
0.0219562
0.0219037
20.7617
0.0219648
0.0735798
0.0900215
0.0414343
0.02659
0.0223092
0.0312611
0.0228484
0.0216269
0.217487
6.15435
0.0431237
0.0217864
6.45925
0.0472078
6.08733
6.61898
0.107399
0.0221397
0.0219533
0.021775
0.0635787
0.0221261
0.021841
5.44977
0.161209
0.0432585
0.0219072
0.070155
0.285453
0.0220962
0.026298
0.0353761
0.157757
0.0767137
0.0220173
0.0234156
0.0383392
0.0218216
0.0480274
0.022288
8.7231
0.059861
0.123346
0.0217818
0.0361399
5.02114
4.47133
0.541382
0.0603316
8.58022
0.0221312
0.0219572
0.0226901
0.0897215
0.0221708
0.0232793
0.030573
0.0618187
0.0220027
0.0219553
0.0220147
0.022277
0.338015
3.85653
2.01077
0.0220005
7.57496
0.0298305
0.0221552
0.0326025
0.0219373
0.0878842
0.022998
0.0219696
4.58315
32.3328
4.81091
0.0223348
19.0791
0.0219692
5.26063
4.6864
0.0215347
0.0626706
0.334015
0.021625
0.0219636
15.604
0.0222616
0.0220216
0.195324
0.744394
0.0220275
0.0318201
0.0221492
0.0253026
0.135537
0.0221666
4.76921
0.0450309
0.0219618
0.535774
0.0598436
0.0838868
0.022288
0.265786
0.0220574
5.93283
0.0219707
0.0217704
15.7643
0.021701
4.93733
0.0219668
0.0538858
7.71894
6.14239
0.021995
0.0222873
0.0220303
0.0232872
0.0274625
0.0272059
0.0214897
8.2301
0.0218832
0.0219681
0.156317
0.156372
0.042625
0.0220292
9.97808
0.0886585
0.0224226
0.0354723
0.0219171
0.0217631
8.22139
0.0216339
0.0217774
0.0218245
5.09467
0.0218134
0.0218279
5.69912
0.0254926
5.70534
0.0329956
0.0214896
0.0218819
4.56804
0.025896
0.0220094
7.45954
5.40637
0.0217925
5.12855
0.120154
0.0219254
0.0220156
0.21429
0.0222218
0.389021
0.0328348
0.0220342
1.20356
12.3216
0.237449
0.0218904
6.80251
0.0302079
0.413863
1.45316
0.0219031
9.1515
0.0220135
0.0318004
0.0260043
6.13301
0.0216892
0.022357
0.559682
0.022273
0.0359109
0.0216955
0.022084
5.71708
0.0865104
0.0250941
0.0353902
2.16498
0.0223219
0.0233466
0.0549637
0.137245
0.02548
0.0219564
0.0219255
0.0221467
0.0226138
0.0218494
0.0350329
0.0276097
0.646531
0.0220099
4.76803
0.021975
0.0285604
0.0219866
0.03589
0.0220554
0.0219405
5.54342
4.68496
0.024148
0.0220973
13.0839
0.0277588
15.9148
0.0369979
0.0739585
5.3515
8.71246
4.86425
0.0230041
0.0219949
0.0218038
4.52212
0.0218365
0.0220237
0.137205
0.0218529
0.0221858
0.0220667
10.4373
2.68194
0.0221826
4.91625
6.21021
0.0240703
0.0219412
0.0221552
5.53639
0.0216829
0.0997388
0.0222894
0.0219878
0.0220618
0.0217572
0.0807452
0.0219724
0.021897
0.0217825
0.0215977
0.275745
0.0216124
0.0218126
0.0221081
0.0219557
0.351358
0.523479
0.0591848
0.0225391
0.0220008
0.0221942
0.0222241
5.11562
0.0219331
0.0306256
0.0691436
5.13692
0.021959
0.021923
5.03529
0.0221271
0.0927903
0.0819207
0.0225132
4.67698
5.57163
0.0308637
6.92384
0.0284143
0.131843
0.021489
10.5614
0.0220516
5.54768
0.0220545
0.0218363
4.83064
2.08241
0.489492
0.141624
0.0219108
6.81218
0.022177
5.99162
0.0556538
0.0219356
0.0214898
0.0219088
0.0509347
0.0635569
5.61386
0.0418197
0.0218896
0.021924
0.0219175
9.94823
0.163626
0.0339429
0.0221455
0.0219119
0.0302752
1.16586
0.0219325
0.0321851
0.0688827
0.0219363
0.0239519
0.0233809
0.0587997
0.151794
0.0245362
0.0773705
0.0215931
0.0220209
7.58694
0.0402269
0.0890649
4.21673
0.0216144
8.57206
8.30581
0.051717
6.30243
0.0219442
4.98593
5.90715
0.11266
0.0218005
9.93748
0.154061
0.0219992
0.0395348
6.64402
0.0226492
0.021979
0.041203
0.0222713
10.0492
0.0307754
0.0220477
0.0222825
0.0218811
0.0729202
0.0327347
7.77509
0.104613
5.35263
0.0784344
0.0222608
0.0219462
0.49247
10.0367
0.0219767
0.0218962
0.158407
0.0220879
0.348048
4.92435
9.08619
0.0219544
0.0219708
6.1868
0.021761
6.1815
0.566944
0.0217157
5.8075
0.0600764
0.0831958
0.0219799
13.6007
0.0220366
3.5571
0.02151
0.0490119
0.0228179
0.0216916
8.26265
0.022716
0.0219612
0.0234558
5.4916
0.0220825
0.0216054
4.44733
0.0219009
0.0216629
0.0221226
0.0250487
0.0220612
0.0221849
0.0282046
0.0221793
0.0265285
0.0215639
0.227741
6.78628
0.119522
5.50925
0.0280466
0.0265392
0.0218823
0.0218337
0.0221232
7.27461
5.15763
0.0219242
0.0222777
0.0219208
18.8488
0.021599
0.278642
0.338181
5.53165
4.88396
7.90795
5.2972
0.0216379
4.67867
5.7955
4.70155
0.0259903
0.0221316
0.042604
0.0216257
3.22212
0.12999
0.0600663
0.0272191
8.16227
0.021997
0.0214599
5.09812
0.147427
0.0219937
0.0215316
0.0441675
0.0221218
13.3195
14.4213
5.69185
4.7434
0.0837377
1.10144
0.0218345
0.312592
0.0221116
0.0219622
0.0216543
5.65199
0.0221715
0.021828
1.14718
5.14236
0.216052
0.143112
0.0229592
0.0388094
10.4307
9.44491
5.09634
5.56848
0.120434
4.91468
0.140878
0.917667
0.0520585
0.0408379
0.0218853
0.035616
0.0322587
0.0220543
5.13442
0.0218016
0.0219889
0.0220056
6.12788
0.0256186
0.0218149
0.0218277
0.0219731
0.126792
0.0811731
2.75562
0.0227052
6.29743
0.0215198
0.0219226
0.0852078
0.0792007
0.0215043
5.50928
0.042107
5.30919
0.0219913
10.9372
0.0602796
0.0219293
0.0220611
0.0219542
5.26769
5.49317
8.66796
0.0219858
0.0222221
0.0215796
5.40842
0.0282764
0.0220701
1.09376
0.0219352
0.0226438
5.19544
0.0216033
0.0219583
0.0220726
0.0221446
0.0214816
0.0224118
0.0215187
0.0222523
0.0819822
0.0394372
0.0218377
7.43262
0.0238209
5.98043
9.4263
0.0503428
5.59609
5.3666
0.0218193
0.0428467
0.0220303
0.0218357
3.66862
0.0262061
6.55811
0.0274332
0.13329
0.0220676
0.0232221
0.0219161
5.45356
0.0434093
5.54014
0.0220519
0.122652
0.0290369
0.021804
0.0380748
0.0410452
0.0215494
8.07523
0.0221018
0.0412585
0.0220116
0.0304157
0.0518276
0.226449
0.0264044
0.0817909
3.93632
0.0304453
0.0399132
0.0216002
6.40997
0.0599167
0.0222719
0.0715515
2.25207
15.9408
0.0219749
0.0229209
0.0221729
0.0215886
0.0219286
5.10607
0.0286944
0.0220825
10.1525
0.0221151
0.0215927
0.0258868
6.06695
0.0221737
10.1917
4.4996
0.110976
7.82288
0.0226405
5.45776
0.447878
0.0216023
0.0288736
0.0220096
0.0223078
0.0393322
6.84751
0.060974
0.54175
0.459192
0.0218878
6.5821
0.0219092
5.15492
0.022272
26.8142
4.55209
0.0221605
0.0217607
0.022279
0.0328715
0.0857935
0.0219726
14.8203
0.0229561
0.041339
0.0771627
0.0231395
0.0219042
3.87224
0.0217649
0.2163
0.0291566
16.5066
0.0221234
0.0218805
4.97745
0.0214337
0.0217581
0.0226146
0.0606914
0.0516726
0.305276
0.0243285
0.0217605
0.0253235
0.0222655
0.0224957
4.85668
0.0219315
0.0503872
5.54808
0.217192
0.0219551
0.089786
0.021883
0.0222085
0.51944
0.228412
0.0881356
0.0222394
0.0219551
0.024657
0.0890946
0.0219147
0.0295409
0.0218884
0.0222485
0.0218455
0.0220226
5.47114
0.021559
10.6573
5.61065
0.0253767
0.0216836
5.14222
6.1905
0.0217682
0.021979
14.1089
0.0222881
0.0675173
0.290257
0.792712
0.0219186
0.0228494
0.0492447
0.0219865
6.12114
0.181162
0.0218133
0.0316183
0.0388803
0.0220902
0.368456
0.0221532
0.0515471
0.0229219
0.0247448
0.0215323
0.0218892
0.289001
0.0219631
5.54227
0.0700209
0.0219918
0.0219834
0.0219857
0.0218671
4.81626
0.0222734
0.192969
0.0219081
0.0218388
0.0555399
6.07231
0.0217695
0.0215575
0.0219216
0.0226365
0.030735
0.0304496
5.20181
0.0282062
0.0218427
0.159883
5.00924
0.0222673
0.0315623
5.21555
0.0358516
0.0224053
2.75872
0.0214809
7.98749
0.0424642
0.0220677
0.0837528
0.02188
0.0219245
0.0219215
4.88598
0.0220128
0.424026
5.02509
0.969291
0.0289555
0.0219664
4.7884
0.0222782
24.331
0.0217232
0.323427
0.0257752
0.0893187
0.0226706
4.22598
0.0296579
0.0222245
5.69321
6.55925
0.0215612
0.317305
0.0219902
0.0310852
0.0217391
27.907
0.753469
0.0223019
0.0220169
5.81418
0.329745
0.0218576
0.0234923
0.0220325
0.0218088
0.0217125
0.0240047
4.82458
12.4748
0.0224644
0.296086
0.0235456
0.0685514
0.0220035
27.4397
5.3724
7.53085
0.0226599
5.06413
6.75922
0.0249651
0.0307739
0.0218741
0.0499888
6.41584
0.0221684
0.0217124
0.021765
0.0273494
0.0215858
0.0219881
0.505015
0.0231151
0.170879
0.0220132
0.0219745
0.0224905
0.022044
0.196982
13.5227
0.0217915
0.0451282
0.0215424
5.66472
0.0218263
0.0241931
6.1539
1.8948
0.0261698
7.40236
0.453543
0.0220672
0.0578328
0.0221066
0.0335489
0.0222336
0.0219273
0.157401
0.118767
5.15792
0.12197
0.0351452
3.72946
0.0231691
0.041579
0.0227798
4.87565
5.46289
4.75566
0.0219532
0.0215162
7.32669
5.04535
0.02213
5.03379
0.0221389
0.0272691
0.0214951
0.0218934
0.0218121
0.0218407
0.211935
0.0405215
0.0383809
0.0219745
0.0220214
0.0216456
0.0218262
0.0218166
0.0222615
0.0219358
5.25636
5.2784
4.75437
0.0237034
7.62011
0.0560121
5.81042
7.7698
0.0555446
0.0221152
0.0222466
0.23882
0.0224307
3.56694
9.58095
0.0225938
0.0216992
0.0306053
5.19713
0.0219992
6.52091
0.0218508
0.0221006
6.07612
0.0219283
0.0286186
0.0221659
5.00909
0.02158
0.021937
0.229496
0.0216215
0.0220576
0.0218837
0.0216995
0.0683534
0.0218935
16.9656
0.022024
0.0222156
0.0214724
7.24588
0.0338373
0.0221914
4.92462
0.0220872
0.0215566
0.259303
4.90386
0.0221051
5.73037
6.24971
0.026643
5.27923
0.0221145
0.0219681
0.0992095
0.0216717
5.41206
5.3728
0.0214891
0.0259495
0.0218724
6.54857
1.37724
0.0445317
0.0221434
0.661613
0.0363306
0.0527679
0.0271078
0.0220208
0.0225458
0.0218926
0.0218082
5.95058
0.0214513
0.0218101
0.0417727
7.2659
0.084254
6.34146
0.022017
0.0437197
0.0218915
0.0219903
0.0220777
0.0217596
0.0221525
0.0219163
0.0221009
0.0221722
0.0242243
0.0219965
0.0221463
0.0216434
7.0388
6.21648
0.0222006
0.0228028
5.91297
0.0222104
0.135114
5.30643
0.306238
6.06047
0.768864
6.17903
6.00856
6.94362
0.0217702
0.0302492
0.0218679
0.0488666
0.0245995
0.0222237
0.0217847
9.00841
0.0216309
0.0299597
12.8255
0.0215865
0.0217304
0.0813708
0.0217009
0.0218887
0.021879
0.0221656
5.0487
6.54738
0.0220379
0.0219363
0.0220577
0.0228784
0.0428066
0.0228908
11.8649
0.232146
0.0221939
4.71012
0.0324872
0.0219366
7.60417
0.0215937
0.0517022
0.0217742
0.0223631
0.022378
4.6692
0.0219333
0.0219642
0.0239008
0.0223244
0.0306299
0.0218199
4.00378
0.0393096
0.0443805
6.43019
6.30419
0.121073
0.0329663
4.64522
0.0219781
0.0220078
0.0252721
5.09473
0.053364
0.0478837
8.23265
0.0219771
2.01956
0.228164
3.32574
0.0220004
0.0358226
0.0218702
0.124898
0.0339395
0.773207
6.48587
0.0220159
0.0347635
0.0281392
0.0218999
0.671678
0.0219665
0.03013
0.149535
0.0864204
0.0219495
0.0222946
0.0222288
0.0560037
0.0219508
0.0221694
0.0219623
0.0220781
0.0216607
0.0384922
0.0215449
0.524151
5.15863
0.0224585
0.0217521
0.0215551
0.0421675
0.034796
0.0221256
6.38843
0.0501271
0.0217672
0.0218187
5.13086
5.16768
0.0219387
0.210049
0.034473
0.0220115
5.24296
0.0226906
0.0732599
0.022234
12.0287
6.30643
0.0222563
0.0361703
5.4429
0.0333013
7.6705
0.0222404
0.0253673
5.16006
6.75107
0.0255718
0.0253118
0.022556
0.0247145
0.0228493
6.48629
5.15487
5.04476
0.0234201
0.021989
0.0589819
0.0218933
0.240669
0.0249973
9.63974
0.0215754
0.0221891
0.0217585
0.0219011
0.0218456
0.0853094
7.33456
0.0299334
0.0216199
0.0221042
9.10462
0.0236494
0.0238341
0.0221559
0.036772
7.39211
0.0217033
0.0218391
0.0407213
0.0876649
0.0221142
0.042359
0.022265
0.0238687
0.136694
0.0288871
6.77204
0.605814
0.0471477
11.3716
0.0218576
0.0218899
0.023087
5.65233
0.0231988
0.372867
0.0216577
5.28736
0.0365089
0.0218605
0.0307056
0.0223081
6.07469
0.0569582
0.0309026
0.252798
0.118563
0.0221504
0.0222
0.0222339
0.0248955
5.30844
0.053485
0.0221032
0.219534
0.0218555
5.66257
0.0219498
5.14352
0.029605
5.83725
1.50033
0.0570427
0.0219616
0.0220067
0.0218692
6.36604
0.0219762
0.0542777
7.42537
0.0215356
8.34494
0.0327737
0.0219565
0.0848346
0.0219155
0.0218341
5.16161
6.02333
6.55487
0.0218893
0.0217606
0.0227343
0.0243268
0.0229752
0.0219359
10.4899
0.0832832
0.412987
0.0225325
0.0430769
1.3489
1.27506
0.0304632
0.0217565
5.06167
0.0229568
5.19273
0.0218825
0.0220281
0.021982
0.0217204
0.0215279
0.0222146
0.0217849
0.0367315
7.12251
0.035651
5.14082
0.025273
0.0222091
0.022124
0.455171
0.0220241
0.0224894
0.0220452
4.3647
4.44516
0.0217811
0.0234864
0.0218609
0.0219737
0.0222781
0.0220641
0.0218932
0.801589
0.0222114
0.0217952
0.134398
0.0218229
4.94962
0.0891828
0.0993165
0.225184
0.0240151
0.0220783
5.84751
0.0220707
0.0817612
0.0287151
0.0217893
0.0493778
0.0220653
5.51239
0.02161
0.0217932
6.23039
0.0554787
9.17946
0.0217512
0.0941784
0.140947
0.0316974
5.04478
0.0218824
0.0217434
0.0216192
0.0861972
0.0227555
2.09872
0.0220114
0.0421554
6.74474
0.217903
0.0220163
0.964687
0.0254989
6.8527
0.0237005
0.0233623
0.0240014
5.28265
0.0219659
0.022361
4.96219
0.0215615
0.0263128
0.0218334
0.0465193
6.13662
7.35423
0.0218652
0.0962701
0.0220072
0.269126
0.022016
0.0224154
0.0914922
19.9464
0.0385959
0.0219998
0.0252904
4.85753
0.0589164
0.0888378
5.44831
0.0220261
8.91333
0.0229973
0.160949
0.0217916
0.02513
5.84088
0.0255247
0.0219201
0.495685
7.03299
6.42815
0.0217015
5.40616
0.390178
0.0216163
0.142996
10.2602
0.0222782
0.0228044
3.29528
0.0214959
0.0224284
0.0218299
0.0220634
0.122237
0.087516
0.0350926
5.29785
0.0222712
0.0586953
0.0296798
0.0221864
0.0234519
0.0344689
0.0220027
0.0222282
8.25907
5.0062
8.42541
0.0216776
0.0376352
0.0221357
5.29937
0.0220898
0.0415179
7.66833
4.96816
0.0660052
0.0219523
0.328823
4.97795
1.58241
0.0220024
0.0221252
0.0218343
5.65149
0.037919
0.153589
5.75906
0.0220623
0.0222097
5.25139
0.0286875
0.0885822
0.0221734
0.0218796
0.0219763
0.765233
0.0220176
0.0544514
0.0217012
0.0221109
0.0217932
5.37633
4.96551
0.0236974
0.421385
0.0230082
1.39915
0.021912
0.0219008
0.0916451
0.0220516
0.0219219
0.0252139
0.0938385
0.0291326
0.126074
0.0220251
0.0716744
5.15841
0.0221019
0.0220191
0.022009
5.04968
0.044589
0.0463233
0.09166
0.0217749
0.021858
0.160509
0.0258335
4.71102
9.23311
0.0363768
5.02545
5.61835
5.40769
0.0565237
0.0222566
0.0220003
0.333513
4.9768
0.0218725
0.0378603
5.21528
0.022106
0.217695
0.935503
0.148286
0.0219201
0.0945071
0.0221209
0.022106
0.0216247
0.885212
0.0221187
0.0540608
0.0376029
0.021984
0.0221829
4.57738
0.0217758
0.021595
0.0473186
3.74146
0.0380908
0.0220244
0.0395612
7.05782
5.36385
0.0283641
6.44419
0.0895211
0.129015
0.0565657
0.0221007
0.151582
0.0334247
0.0216537
0.0217207
0.0223569
0.025976
0.38371
5.06209
0.022218
0.588427
0.0793378
1.66353
13.2449
0.295126
5.26216
0.144419
5.12896
0.0503801
5.00864
0.0600077
0.021976
0.0221008
5.82112
4.82044
0.124169
5.34942
0.0218212
6.47683
5.21628
0.0220363
0.021646
0.036752
0.0627837
5.52448
9.72084
0.117553
0.0218734
0.0218147
0.0222196
8.82798
0.0254142
4.35226
0.0245196
25.5696
0.209432
5.417
0.027855
5.77532
0.0217987
0.0215546
0.0258418
0.0221635
5.99317
0.125486
5.30145
0.0220552
6.18255
5.06968
0.0215477
0.0417537
5.20797
0.0436148
0.0218696
0.0262642
0.0219782
4.98433
0.0214578
0.0223433
5.8545
0.0292489
0.0470132
0.0278332
0.0218142
0.0221779
0.04147
0.0220601
0.0216494
0.0218346
0.0301319
5.28988
2.75039
0.0219784
0.13501
5.89847
0.0221158
7.61
6.09037
0.0222021
11.0867
0.0220751
0.0962937
4.84808
0.0219682
0.0221655
0.0222099
0.092675
0.026152
0.0218597
6.25842
0.0219579
6.91481
0.0220421
6.75424
4.66488
0.0251472
0.0217393
0.175129
0.078809
0.147059
4.51805
0.0436609
0.022209
4.92324
0.0224715
0.0856315
0.0752117
0.030708
0.0654236
0.0218758
0.130463
5.44069
5.98634
0.11654
0.0218772
0.231416
5.3273
0.0222722
0.195554
0.111905
1.13261
0.0219586
0.0250915
0.0215019
0.208712
6.22154
0.0904732
6.32182
0.0834093
0.0384681
5.24451
4.5558
5.44004
0.421408
8.87013
0.0713402
12.6521
0.0532896
5.22222
5.81473
0.0232737
0.0223389
0.0274543
0.0613356
0.0219988
0.0258144
0.022262
0.0242048
0.0220072
0.021864
6.6759
5.24025
0.0222037
0.0513692
0.0221059
0.021794
0.0236019
0.0819475
0.0235459
0.0924709
0.0221718
0.0428428
0.471695
0.102799
0.0454212
0.0219769
0.106666
0.0222202
0.0219269
0.696693
0.0228548
5.31534
0.189364
0.0219356
0.0242937
4.34728
0.0220756
0.0965956
0.0575166
0.0609448
0.0267282
0.037183
0.0220136
0.0221675
5.11963
9.232
0.0362807
0.0794471
0.0220451
5.43861
0.0256514
5.7839
0.0826806
0.0221097
0.0216795
6.4605
0.157296
5.74462
0.028544
5.80662
0.0226134
5.23432
9.36365
0.0305629
0.144276
0.0218554
7.37574
0.0222379
11.1398
0.0288172
4.92075
4.73215
4.94437
5.3147
0.0351711
7.90378
0.183117
0.0480845
4.65108
4.89629
5.22279
0.0217122
0.0259214
0.0763907
8.51086
0.021872
0.0217908
0.0294434
0.0579788
11.3005
0.0627801
0.0445188
0.0219331
0.122876
0.0215448
0.203661
5.21133
0.514846
0.0217777
6.87084
0.0683717
0.0225585
5.47554
0.399412
0.0265947
5.23828
5.05968
4.56343
0.0527835
0.0218379
0.0287993
6.51843
0.0378858
0.0219841
7.41636
0.0214961
6.37961
0.023243
0.022153
5.97804
5.02882
0.0218328
0.0519499
0.0219541
7.95708
0.0215076
4.95118
0.180528
0.0419045
0.0218985
0.0220077
0.0221604
0.0378901
0.0532209
0.121358
0.029042
5.31558
0.0335857
0.0253824
6.41364
3.6431
0.0216458
0.170526
0.0219434
5.04412
0.0221776
0.0443052
5.20019
0.0276709
0.0219313
5.23316
0.0222902
0.0222552
0.045636
0.022278
0.0218795
6.21294
0.0648857
5.55468
0.0222785
0.120158
0.0905336
0.0216466
0.021927
0.0238986
0.0218297
4.89716
0.386252
3.40011
5.75382
4.50698
4.99189
0.0219192
0.0220131
0.0219466
0.0221374
0.0958254
6.94221
0.0309683
0.0250229
5.60643
0.0222734
0.0217797
1.21313
0.131835
0.0214713
0.0219617
0.0218864
0.231874
0.0217555
0.0220197
0.159839
0.0344294
0.119891
0.0238242
5.52902
5.92371
0.0214658
0.0217213
4.68205
0.0338459
0.0253037
5.10634
0.0358023
0.125803
0.547768
0.0234342
0.35746
4.83526
0.0215398
0.0253622
5.38266
0.0252847
0.0220166
3.76286
0.0560671
0.0563513
0.0221766
0.319493
0.023758
5.14555
0.0220341
0.0219772
0.0327144
0.065319
6.64471
0.0360198
0.021967
24.4276
5.3729
0.0238917
0.0743877
0.0220341
0.0218965
0.0217486
5.15708
0.0218479
6.5855
0.246001
5.40864
5.61179
0.0353255
4.62848
0.0334419
6.61241
1.32282
0.109189
0.672235
0.0744095
0.0967246
4.85761
0.0522408
0.0220055
0.0220606
16.4343
0.0403192
0.0229857
0.0221691
6.37289
9.42004
0.0220938
4.44893
8.68894
0.0679413
0.456224
0.0416842
0.0400169
0.0418845
0.10248
5.04727
0.0276155
0.191639
0.206312
0.0217578
0.128029
0.0279776
5.49102
0.0658186
0.0219649
0.238098
0.0700013
0.0745532
0.525866
0.0225629
4.91296
0.205426
10.7063
6.32064
0.0221839
0.0220158
0.0218823
7.35173
4.93761
0.0770218
0.174441
0.0218466
0.0217318
0.0225962
0.084656
4.37017
0.0533637
6.42961
0.0772515
0.366553
1.10024
0.021762
0.0556676
9.16988
7.17375
6.1354
5.87512
5.76093
0.022227
5.36388
6.16251
4.87763
3.23287
0.0219366
6.28169
0.0226202
5.03343
0.0273314
12.7034
12.1237
3.93289
0.0221564
0.0219763
0.0743669
0.0238202
0.122629
0.0222727
0.0471095
0.0490717
0.0217984
0.0220027
0.0348036
0.0219301
7.70032
0.0218867
0.0230821
6.24875
0.0698417
5.7034
0.126385
7.94305
0.0219321
0.0219785
0.0222721
5.16331
7.6581
0.0220252
0.0507656
6.2914
9.59783
0.0218888
6.03957
5.09734
0.0218066
5.29118
0.0219085
0.0417989
0.022012
0.060182
0.0220712
0.120452
5.26217
0.0218491
0.0221576
6.29137
0.0362367
0.0216965
0.0221148
9.52051
0.0218742
0.0221801
5.20698
9.53952
5.58344
0.096791
0.0219279
5.13086
6.30716
0.555233
0.0221667
0.0934794
0.0672907
0.0219649
0.215653
0.0218052
0.0217808
0.021824
0.0585418
6.18535
5.9698
0.0427157
0.167027
0.0218782
5.59663
0.0218264
0.0282664
0.04658
0.0233823
0.053219
0.036564
0.0218604
0.116057
6.2145
0.0563444
20.0013
8.00829
0.0602469
0.0220204
0.0250805
0.239081
0.0296409
0.0221938
0.11785
7.35762
0.0217066
6.30198
0.0288365
0.0219558
0.508474
6.48637
4.48822
0.021975
0.0268461
0.0250293
0.0555418
0.0498532
0.0218693
0.0219657
0.106966
0.80637
4.7572
0.0276455
0.0222741
0.0217423
0.17508
0.0220253
4.97333
0.0222732
0.0413176
7.29584
0.228748
6.40427
0.022052
6.47336
4.36245
6.85946
0.0220034
0.022233
0.0549204
4.15422
0.0218105
6.53324
0.0218706
0.021497
6.61394
0.0221837
0.056997
0.0279521
0.0228934
0.0316841
0.0294881
0.0638329
0.048082
0.0396522
20.539
0.182574
4.86827
0.0458522
0.0344724
0.0574878
5.16038
0.195661
0.0281658
0.0220797
6.31249
0.0227769
2.17472
0.18689
0.521814
0.0216904
5.46518
0.0220567
1.9117
0.0225712
0.880135
5.33426
0.0489818
11.4616
5.70857
7.79815
5.12367
5.62535
0.066584
0.0219445
0.0217948
0.780857
0.0218055
0.0219026
0.0219766
0.0404642
0.0233553
0.0349316
7.24302
5.77347
0.138552
0.0279633
0.0275734
0.021577
0.0255042
0.232226