/*--------------------------------*- C++ -*----------------------------------*\
| =========                 |                                                 |
| \\      /  F ield         | OpenFOAM: The Open Source CFD Toolbox           |
|  \\    /   O peration     | Version:  v2012                                 |
|   \\  /    A nd           | Website:  www.openfoam.com                      |
|    \\/     M anipulation  |                                                 |
\*---------------------------------------------------------------------------*/
FoamFile
{
    version     2.0;
    format      ascii;
    class       surfaceScalarField;
    location    "250";
    object      phi_0;
}
// * * * * * * * * * * * * * * * * * * * * * * * * * * * * * * * * * * * * * //

dimensions      [0 3 -1 0 0 0 0];
oriented        oriented;


internalField   nonuniform List<scalar> 
27907
(
-0.0826952
0.0637182
0.0189769
-0.0586301
-0.0127908
0.0714209
0.415388
-0.465774
0.0503854
0.0382235
-0.0193298
-0.0188938
0.00939329
-0.00414916
-0.00524413
-0.00988398
0.00204777
0.00783622
0.0087878
-0.000250034
-0.00853777
-0.333364
0.422392
-0.0890276
0.0951694
-0.0817503
-0.0134191
-0.168854
0.0232326
0.145621
-0.0230217
0.183631
-0.16061
-0.00955841
0.007596
0.00196241
0.0805944
-0.436477
0.355883
0.0916592
-0.10067
0.00901096
0.259535
-0.176921
-0.0826143
0.051211
-0.030707
-0.0205039
0.0355289
0.0922066
-0.127736
-0.0877422
0.368832
-0.28109
-0.120726
-0.136448
0.257174
0.145407
-0.12136
-0.0240475
-0.00168937
0.000500414
0.00118895
-0.430238
0.448962
-0.0187243
-0.00170299
0.000679918
0.00102307
0.0670215
-0.0865242
0.0195027
0.0251285
-0.0872234
0.0620949
-0.420032
0.0866682
0.037708
0.00656184
-0.0442698
-0.00201312
-0.00297073
0.00498384
0.0301311
0.0153585
-0.0454896
0.0752655
-0.0605275
-0.014738
0.0893072
0.0146714
-0.103979
0.00159807
-0.00615405
0.00455598
0.474228
-0.461775
-0.0124527
-0.243818
0.125121
0.118697
-0.0996259
0.0248649
0.0747609
-0.484353
0.294067
0.190285
0.557018
-0.334942
-0.222077
0.280687
-0.135659
-0.145028
-0.153001
0.24308
-0.0900799
0.0278394
-0.125762
0.0979229
0.273846
-0.189584
-0.0842626
0.15988
-0.139111
-0.0207689
0.174329
-0.339959
0.16563
-0.118475
0.159463
-0.0409879
0.0968865
-0.0750645
-0.021822
-0.495741
0.260669
0.235072
-0.00104599
-0.000657002
-0.152598
0.192571
-0.0399732
-0.148006
-0.020848
-0.204028
0.39909
-0.195062
-0.0886762
0.113166
-0.0244898
0.0244068
-0.0160199
-0.00838686
-0.475159
0.0934622
0.381697
-0.194171
0.17115
0.00194684
-0.00395996
-0.0249246
0.0821482
-0.0572236
0.299301
0.257717
0.0439425
-0.0235692
-0.216734
-0.0166827
0.233417
-0.0976203
0.0248192
0.072801
0.0555336
-0.0857757
0.0302421
0.00753281
0.001255
-0.117244
0.111335
0.00590935
0.188808
-0.033649
-0.155159
-0.385454
-0.0897051
0.345043
-0.19
-0.155043
-0.073136
0.13421
-0.061074
0.364364
0.109864
0.146717
-0.277688
0.130971
0.00597052
0.0184362
-0.0146282
0.010838
0.00379013
-0.121989
0.224494
-0.102505
-0.379532
0.175504
-0.0221227
0.0133055
0.00881717
0.149953
-0.376843
0.22689
0.209116
-0.00928981
-0.199826
0.0941412
-0.0728343
-0.021307
0.00517143
0.00276542
-0.00793685
-0.0808329
0.0223851
0.0584478
0.0025328
-0.00112774
-0.00140506
0.00243387
-0.00231777
-0.000116106
0.0760591
-0.0571741
-0.018885
-0.0627244
-0.0348958
0.000318389
-0.0062778
0.00595941
0.0909425
0.00319877
0.168907
-0.150218
-0.0186884
0.0249603
-0.0369626
0.0120023
-0.098318
-0.0189265
0.00363026
-0.00335633
-0.000273932
-0.0471685
0.256285
0.00309138
-0.00277299
0.00183184
-0.218566
-0.00799342
0.00445633
0.0035371
0.140458
0.0194216
0.00233757
-0.00256275
0.000225184
-0.00619525
-0.00179818
0.0837197
0.00722278
0.3489
-0.198947
0.121985
-0.260726
0.13874
-0.0012735
-0.000415868
0.147439
-0.0208461
-0.126593
8.67524e-05
-0.00077611
0.000689357
-0.0797799
-0.0272345
0.107014
0.0185796
-0.110798
0.0922187
-0.00330477
0.00490283
0.0500498
0.0252157
0.0711167
-0.042924
-0.0281927
0.00939022
-0.00421879
-0.162735
-0.0338391
0.196574
0.142624
-0.242124
0.0994995
0.00352047
-0.00971572
-0.0221227
0.197163
0.216223
-0.413386
-0.152372
0.260585
-0.108213
-0.0418366
0.0374703
0.00436631
0.00979984
0.000158512
-0.00995835
-0.00936197
0.00928481
7.71626e-05
0.127401
0.132134
-0.0025709
0.00134339
0.00122751
0.00228493
5.26361e-05
0.0200392
0.111723
-0.131762
-0.270244
0.239342
0.0309021
-0.0237775
0.0310142
-0.00723673
-0.0402982
-0.000364795
0.040663
0.0188821
-0.0760735
0.0571914
0.0638233
0.0330632
-0.0733614
0.0147313
-0.0634142
0.0814727
-0.0180586
0.00599111
-0.00153478
0.440059
-0.624167
0.184109
-0.076691
0.11222
0.0624032
-0.0246952
0.003332
-0.00283159
0.13071
-0.0534083
-0.0773017
-0.0104789
0.0312993
-0.199529
0.119664
0.0798647
-0.0880669
0.0152327
0.126953
-0.0991141
0.275995
-0.15401
0.00304442
-0.0477346
0.0446901
-0.0754526
-0.00538026
-0.00690713
-0.045939
0.0528461
-0.262353
0.237426
0.0249268
-0.065413
0.0404885
0.224865
0.0489819
-0.18614
0.276904
-0.0907635
-0.00610637
0.00637339
-0.000267013
-0.0113829
-0.00142381
0.0128068
-0.0180881
0.107395
0.0225693
-0.034787
0.0122177
0.0566746
0.0193844
-0.0600607
-0.00322206
0.0632828
0.186452
-0.0488295
-0.137622
-0.459252
0.457374
0.00187765
0.0013234
-0.000910401
-0.000413
-0.000602718
0.154636
-0.154034
-0.0013642
-0.0012067
-0.198418
0.0458197
0.00333631
0.166356
-0.169692
0.486237
-0.29932
-0.186916
-0.193227
0.355562
-0.162335
-0.0969913
0.0672414
0.0297499
0.0157673
-0.00977772
-0.00598957
-0.184097
0.187434
0.0843012
-0.0287676
0.0449139
-0.0147828
0.161872
0.0902596
-0.252132
0.0275971
-0.00654345
-0.0210537
0.0685801
-0.0879688
0.0193886
0.000893871
0.00888679
-0.00978066
-0.00716388
0.00670553
0.000458345
-0.322011
0.234268
0.00860316
0.00716413
-0.00361855
0.00594036
-0.00232181
-0.0409482
-0.0560431
-0.0049378
0.0719593
0.0385376
-0.0110607
-0.0274769
0.170273
0.0185346
-0.0608078
0.0638522
-0.265713
0.145818
0.119895
0.263302
-0.460011
0.196709
0.0112859
-0.0112859
0.011057
-0.0711177
-0.182044
0.346839
-0.164795
-0.0762418
0.157373
-0.0811309
-0.00551158
-0.0635618
0.0690734
-0.317093
0.23516
0.0819332
0.00855082
0.00124902
-0.217412
0.386915
-0.169504
-0.313188
0.182858
0.130329
0.0666199
0.0640901
-0.0794523
0.0160381
-0.0311339
0.209461
-0.178327
0.0940667
-0.112155
-0.0482901
-0.0530713
0.101361
-0.118137
0.0198192
0.126726
0.0186812
0.104887
-0.0363067
0.534953
-0.301368
-0.233586
-0.185237
0.359566
-0.0278295
0.0753633
-0.0475338
-0.177414
-0.0210032
0.136238
-0.150375
0.0141363
0.085456
-0.104834
0.0193777
-0.300919
0.381514
-0.121225
0.0729348
0.0773354
-0.108469
0.0311337
-0.529689
0.0704368
-0.00036899
0.00067952
-0.00031053
-0.171259
0.023253
-0.162285
0.381017
-0.218733
-0.0885376
0.107117
0.0620438
0.14823
-0.210274
-0.119051
0.135864
-0.0168135
0.0531915
-0.074058
0.0208665
0.000606091
-0.00264017
0.00203408
-0.0245635
0.077755
-0.0225029
0.042857
-0.0203541
-0.0905448
0.326177
-0.235632
-0.00126524
-0.00861874
0.206547
-0.200516
0.0377805
0.0999443
-0.0373933
-0.062551
-0.00537858
-0.000727789
0.0186408
0.0577371
-0.0763778
0.10686
-0.0295248
-0.0800484
0.122145
-0.0420968
-0.0840097
0.110522
-0.0265127
-0.357668
0.293692
0.0639755
0.0725775
-0.109546
0.0369683
0.245188
0.0998549
-0.0217291
-0.0964081
0.00175421
-0.00162186
-0.000132343
0.0943907
-0.010671
-0.00540262
-0.431075
-0.187883
-0.129209
-0.263058
-0.0946101
0.475035
-0.281551
-0.193484
0.012073
-0.0358505
0.165733
-0.104461
-0.0612716
-0.210096
-0.0741571
0.284253
0.0236773
-0.0837655
0.0600883
0.0162242
0.0548925
-0.220385
0.0438726
0.176512
0.0385567
-0.0159873
-0.00499078
-0.00347422
0.00846501
0.0855581
0.00883265
-0.278116
-0.206236
-0.00246126
0.00271384
-0.00025258
0.126786
-0.0043666
-0.12242
-0.364599
0.0418201
0.322779
0.0276145
-1.73575e-05
0.0240817
0.144825
0.0909889
0.0357973
-0.0775257
0.201317
-0.123791
-0.0552776
-0.0631176
0.118395
0.0861986
-0.0218083
-0.0643903
0.0151089
-0.0376118
-0.114245
-0.00480615
-0.0888032
0.0611872
0.027616
-0.118857
-0.163554
-0.136331
0.0518371
0.0844935
-0.307007
0.335433
-0.0284262
0.10485
-0.0193939
-0.141605
-0.0296537
0.0457148
0.0542295
0.0106283
-0.000413441
-0.0102149
-0.339729
0.249184
-0.0388724
0.20278
-0.163907
-0.07155
0.0729035
-0.00135343
0.16233
-0.201203
0.107456
-0.183698
-0.0322562
0.0253108
0.00936545
-0.0346763
-0.0101993
0.000837313
0.140133
0.0975594
-0.237693
0.0268074
0.0785175
-0.105325
0.0153283
-0.00373838
-0.01159
-0.0779188
0.0207447
0.211494
-0.179598
-0.0318959
-0.189716
-0.107667
0.297383
-0.176802
0.102873
0.0739291
0.0953382
0.0703947
-0.221724
-0.0406291
0.0110801
0.00424824
0.0829131
-0.0592358
0.0217237
0.0312792
-0.0530029
0.003332
0.000708217
-0.373025
0.193001
0.180024
0.0147443
0.400644
0.0315352
-0.0962929
0.0647576
0.00669143
-0.00608533
0.152416
-0.112443
-0.039973
-0.0664181
-0.0862267
0.107082
-0.0208551
-0.0553357
0.153536
-0.0982008
-2.73845e-05
-0.268229
0.147504
0.0846105
-0.0437815
-0.0408289
-0.00538393
-0.325096
-0.170645
-0.0106777
-0.0122054
0.0228831
-0.0904677
0.120125
-0.0296575
-0.121922
0.268639
-0.178322
0.0714182
0.106904
-0.0810728
0.107019
-0.025946
-0.219832
0.202493
0.0173389
-0.367927
0.00332843
0.0086001
-0.00990363
0.00130353
0.069163
-0.0474393
-0.367213
0.216756
0.150457
0.00728493
-0.00908689
0.00180196
0.000151087
-0.060516
0.0791568
-0.291964
0.30526
-0.0132956
0.440059
0.0537364
-0.0768844
0.0231481
-0.0527736
-0.167611
0.135729
-0.317773
0.109287
-0.237518
0.128231
-0.120682
0.213094
-0.0924121
-0.0678531
-0.0201157
-0.112265
0.0311925
-0.0900171
-0.0867852
-0.00252978
-0.101932
-0.140376
0.0190166
0.00506055
0.0615593
0.174275
-0.293132
0.324274
0.161962
0.0272081
0.0542646
0.00564083
-0.0906172
0.0849764
-0.0558961
0.0827035
0.0282186
0.0100049
0.0602953
0.0921204
-0.218506
0.187372
0.427802
-0.588945
0.161143
0.0469468
0.0376637
0.0204401
-0.0311178
-0.384744
0.121686
-0.190879
0.398514
-0.207634
-0.283338
-0.101406
-0.117675
-0.0818542
-0.0989004
0.0148907
0.0817744
-0.0566459
-0.097656
-0.172588
0.256535
-0.138009
-0.118526
-0.382809
0.210009
0.1728
0.0464906
0.00472033
0.0511754
-0.0580825
0.0936722
-0.0299466
-0.0637256
0.0303189
-0.0872458
0.0569269
-0.251978
0.19661
0.0553686
0.0654605
0.0135285
-0.078989
0.00339516
-0.0860903
0.0408187
0.0996904
-0.140509
0.0167182
-0.110051
0.0933326
-0.00821502
-0.00402794
0.00531113
-0.00128319
-0.0658911
0.0603796
0.352955
0.0872484
-0.440203
0.130974
-0.143381
0.0124072
0.00437772
-0.0630026
0.0586249
0.0299871
-0.00467627
0.00609756
0.140187
-0.146284
-0.215666
-0.15736
0.110385
-0.00775014
-0.102635
0.269036
-0.192459
-0.0765772
0.034574
0.108779
-0.143353
-0.0543381
-0.00581236
0.0601505
0.0257514
-0.0310688
0.00531736
-0.0813224
0.0925372
-0.0112147
-0.117253
-0.0231232
0.0095233
0.00110502
-0.263898
0.0301433
0.233755
0.0303806
-0.207795
0.125571
0.135981
-0.261552
-0.239746
0.0867456
0.0269693
-0.0962672
0.0692979
0.171461
0.00205084
-0.173511
0.00816509
-0.000880157
0.0725504
-0.0416983
-0.0308521
-0.189415
0.111889
-0.202171
-0.165042
-0.00153087
-0.00671298
0.00824385
-0.0899017
0.00857928
0.0386928
0.0564766
-0.0160594
-0.247839
0.0866508
0.0245539
-0.111205
0.117893
-0.307609
0.16049
-0.0276878
-0.132802
0.163828
0.0755142
-0.166749
-0.17298
-0.00716531
0.00867463
-0.00150933
-0.000649573
0.000280582
-0.0631364
0.026694
0.0364424
0.0284808
-0.260031
-0.232319
0.49235
0.00815004
0.0723598
-0.0805098
0.00244659
-0.00531898
0.00287239
0.057915
-0.113193
0.397929
-0.200766
-0.00191841
0.030137
-0.140847
-0.132155
0.273002
-0.278643
0.181353
0.0972893
0.429961
-0.16666
0.0774736
-0.0505043
0.1533
0.113166
-0.266466
-0.154973
0.036498
-0.0551209
0.0854398
0.00650877
-0.0259995
0.0194907
0.251326
-0.142039
0.00264745
0.00674584
-0.096205
0.131901
-0.035696
0.0958861
-0.387851
-0.0303836
0.165052
-0.134668
-0.267813
0.140014
0.127799
0.190138
-0.139269
0.0839329
-0.0847021
0.120018
-0.0353157
0.082633
-0.0775725
0.00179589
-0.00678667
-0.0753795
0.0954187
-0.365505
0.20022
0.165286
-0.00610419
-0.0654458
-0.039354
0.0289576
0.0103963
0.0154311
0.0314733
-0.0469044
-0.00499799
-0.00216589
0.0208141
-0.0966333
0.0758192
0.217244
-0.176756
-0.0404881
0.191478
-0.358228
-0.36064
0.150544
-0.120886
0.18293
0.0712666
0.0212706
0.0254237
0.101011
-0.126434
-0.143726
0.144817
-0.00109074
-0.117234
0.0267668
0.0362333
0.00380072
-0.0677339
0.0639332
0.0270804
-0.172922
-0.0948906
-0.136463
0.133933
0.00235349
0.00127677
-0.216065
0.0300284
0.186037
0.00068769
0.0250637
0.427802
-0.414514
0.229534
-0.00292633
-0.014496
0.0174224
-0.12032
-0.014413
0.134733
-0.16385
-0.046229
0.210079
0.0767418
0.00945683
-0.0937986
-0.00582726
-0.0529796
0.0845148
0.00742513
-0.00143402
-0.161433
0.152143
0.193129
-0.031651
-0.161478
0.01215
-0.000883588
0.00847959
-0.0205511
-0.0643931
0.0849442
-0.104284
0.0995694
0.00471424
0.0774057
0.0142535
0.0686045
-0.0648038
-4.65911e-05
-0.010323
0.0103696
-0.075851
0.0902185
-0.212208
0.115563
-0.0325196
-0.0830431
-0.229966
0.0775943
0.0989065
-0.0276399
0.076456
0.136965
-0.21342
0.00531972
0.00210542
0.1089
-0.0222489
-0.0698761
0.0742538
-0.141238
-0.00248835
-0.00026674
0.0915877
-0.0913209
0.149939
-0.0427915
-0.0437327
-0.177019
-0.202514
-0.00534311
0.00131517
0.255883
-0.130312
-0.041068
0.0753058
-0.0342379
-0.446339
0.142725
0.303614
0.0619213
-0.0770921
0.0151708
-0.110709
0.145282
-0.445047
0.28135
0.163697
-0.0730639
-0.187662
0.223127
0.206834
-0.0420206
-0.00666064
0.0486812
-0.00529575
-0.00194969
0.00724544
-0.0182866
-0.02355
-0.103099
-0.0185184
0.121618
0.0426295
-0.163054
0.120425
0.0916751
0.0153437
-0.280941
0.515522
-0.234582
-0.417406
0.0304729
0.386933
0.0188497
-0.0129679
-0.0058818
-0.255523
0.182459
0.228374
0.116625
-0.344999
0.00674614
-0.0929729
-0.114117
0.467072
-0.0155697
-0.0887139
0.103697
-0.0120219
-0.0780606
0.306434
-0.119838
0.273139
-0.00289127
-0.10814
0.111032
-0.169551
-0.0465146
0.125795
-0.126398
0.0365862
0.00197047
-0.00440306
-0.114954
0.119357
0.078276
-0.0988271
0.00910342
-0.138896
0.129793
-0.260656
-0.10485
-0.040026
0.0143804
0.0256456
-0.173773
-0.0227705
0.196544
0.140009
-0.190189
0.0501798
-0.0491167
0.061759
-0.0126422
-0.00893743
-0.00163591
0.0105733
-0.0943393
0.0940726
0.0730099
-0.0304457
-0.0425643
0.123313
-0.117216
-0.0605068
0.00153939
-0.0104768
0.276444
-0.114572
0.00101973
-0.00813818
0.00711845
-0.0808614
0.0397935
-0.330544
-0.0326935
0.363238
0.0379313
-0.00134512
-0.0139918
0.0160993
0.0942857
-0.251197
-0.228372
0.479568
-0.0896015
0.0952423
-0.00769053
-0.0154171
0.0231077
0.0911032
0.137472
-0.28669
0.149218
-0.206883
0.0299622
-0.168057
-0.0517749
0.035506
-0.221646
0.465116
-0.445428
-0.0196884
0.0587849
0.0380187
-0.03151
-0.171003
0.178334
-0.00733069
0.0332869
0.011627
-0.277846
0.162586
0.115259
-0.0914492
0.104796
-0.0133465
-0.0671289
-0.00838831
-0.298619
-0.402648
0.108894
-0.170011
0.0611171
-0.519864
0.245643
0.274221
0.177383
0.0341117
-0.18669
0.0497869
0.136903
-0.102692
-0.163022
-0.0766585
0.103021
-0.0263628
0.00772079
0.0387698
-0.171823
0.373054
-0.201232
-0.0133696
0.0219375
-0.00856795
-0.00157273
0.000498575
0.00107415
0.1328
-0.0438797
-0.08892
0.0540035
0.0615592
-0.0150777
-0.0480587
0.0213795
-0.131621
0.127218
0.119932
0.0310773
-0.151009
-0.0085265
-0.00610166
-0.1768
0.005797
-0.0108859
0.106881
-0.0959953
-0.267954
0.108933
0.159021
-0.0135108
-0.00681647
0.0203273
0.0681802
-0.127591
0.0594105
0.0804354
-0.02926
0.0706899
0.0208493
-0.0915391
0.00756777
-3.49654e-05
-0.0679063
0.155769
-0.267199
0.11143
-0.101158
-0.0119515
0.11311
-0.0866834
0.0742964
0.012387
0.0376451
0.0821706
-0.0632885
-0.220549
0.0526624
0.167886
0.0532471
-0.0370229
-0.1911
-0.00574711
0.196847
0.156979
0.120311
-0.27729
-0.185392
0.408519
0.381162
0.10565
-0.486812
-0.00253158
0.00102116
0.00151042
0.0422158
0.0110313
0.23343
-0.24949
-0.0663004
0.0730914
-0.00679104
0.141521
-0.108423
-0.033098
0.0481407
-0.0327095
-0.00674035
0.0014446
-0.0116662
0.0654025
0.0553801
0.0201053
-0.0754854
0.0247347
-0.192442
0.167707
0.00617608
-0.00914681
0.114207
-0.0201406
-0.0876097
0.238152
-0.150542
-0.122782
0.0496457
0.0028298
0.012402
-0.0153283
-0.150198
-0.0936201
-0.159434
0.00511653
0.154318
0.235581
-0.0900836
-0.145497
-0.443043
0.0146458
0.428397
-0.00910554
0.0124798
-0.00337428
-0.0826474
0.102858
-0.0202101
0.0013653
-0.000944485
0.00339108
0.146599
-0.242901
0.0963015
0.250624
0.284329
-0.0193132
-0.103386
0.122699
-0.0702852
-0.359953
-0.32586
0.132633
-0.0275049
-0.159185
-0.14823
0.203012
-0.0547821
0.0346766
0.127934
-0.0597538
-0.0433679
0.102912
-0.0595439
-0.00592034
0.0105566
-0.0046363
0.0959341
0.00363522
-0.327084
-0.119255
-0.0129156
-0.107405
-0.000556899
-0.084825
0.0853819
0.0175806
-0.0120483
-0.00553237
-0.123682
0.112796
0.0734252
-0.0691832
-0.00424197
0.0282833
-0.126567
0.098284
-0.00198134
0.235412
-0.0704648
0.00416439
-0.0520756
0.049419
0.0026566
0.0324538
0.177007
0.0652484
-0.264378
0.19913
0.0656523
-0.0297519
-0.0359004
0.00317813
0.0615189
0.42427
-0.0431087
0.00510302
0.00020811
-0.00213016
0.00213016
-0.083027
-0.00365635
0.202992
0.196098
0.00583905
-0.0058533
1.42444e-05
-0.00909307
0.00721424
0.00187882
-0.0283594
0.141266
0.0301943
-0.447407
0.271369
-0.0404825
0.0354769
0.00500554
0.31768
0.158511
-0.0975594
0.064384
0.0331754
0.00738498
-0.00636525
0.0638365
0.0196691
-0.0835056
0.00164571
0.00592206
0.0251369
0.0850073
-0.110144
-0.000998014
-0.000452823
0.00145084
-0.117384
0.032682
-0.233237
0.198464
0.0347726
0.0492308
-0.208665
0.00742392
-0.00756292
0.000138998
0.0420157
-0.00349677
-0.0385189
-0.000492964
-0.0198155
-0.0112533
0.139996
-0.0437584
-0.053801
0.152537
-0.433478
-0.118806
0.0387571
-0.023087
0.104512
-0.0814254
-0.0904519
0.00177571
0.0888385
-0.419383
-0.118625
0.150138
-0.0315127
-0.0708847
0.0790347
0.00613828
-0.0195079
0.00732498
9.89468e-05
0.00651878
-0.00865105
0.00213227
-0.0767593
0.117578
0.0592636
0.0881752
0.0937991
-0.00824107
0.124653
0.131882
0.161623
0.134574
-0.296197
0.231059
0.0883695
-0.319429
-0.00621809
-0.133481
0.139699
-0.0796679
-0.343079
0.0662858
0.276793
-0.111415
0.0883285
-0.168365
-0.158067
0.326432
-0.44819
-0.175978
-0.195095
0.401592
-0.206496
0.00707278
-0.00434088
-0.0027319
-0.0673911
0.210015
-0.412013
-0.0687921
0.480805
0.100794
-0.120107
0.00557044
0.115654
-0.121225
-0.308058
0.136235
-0.00921992
0.00205461
0.223948
0.0450886
0.159149
0.116694
-0.275842
0.00617933
-0.105017
0.0988374
-0.000842626
-0.0862603
0.087103
0.150086
-0.228112
0.147784
0.0803272
0.00860595
0.0648193
0.0684065
0.169586
-0.106241
-0.0633448
-0.0454568
-0.00661879
0.105847
0.0637397
-0.0394869
0.0375685
0.0198095
0.0203738
-0.0105704
-0.0196939
0.0302643
-0.0117254
0.00261986
-0.218089
-0.00310158
0.0139396
-0.0897115
0.0132191
0.0764924
-0.204741
-0.173491
0.378233
-0.00127837
-0.00269346
0.00397183
-0.150948
-0.181984
0.332933
-0.197181
0.402999
-0.205818
-0.102008
-0.0312564
0.133265
-0.465323
0.184233
-0.0849232
0.107147
-0.0222234
0.0129524
0.00462825
0.209897
-0.0164393
0.00586888
-0.177635
0.20237
-0.0290691
0.140792
0.0018643
0.0401514
-0.224252
0.397241
-0.172988
-0.000974846
-0.000954938
0.00192978
-0.131984
0.160744
-0.0287607
-0.113786
0.265752
-0.151965
0.328425
-0.18864
-0.139785
-0.00453361
0.235593
-0.0799759
0.0448926
0.0350832
0.025022
-0.0528516
0.00679017
-0.00900229
0.00221212
0.108572
-0.0126376
0.00522364
-0.00317588
0.122093
-0.100801
-0.0212917
-0.142859
0.0740275
-0.085187
0.0111595
0.00775022
-0.00123145
-0.0140029
0.069383
0.0298344
0.045529
0.0268675
0.0668046
-0.0879655
0.113856
-0.0258904
-0.108234
0.160699
-0.0524645
-0.0624671
-0.0175087
0.0613105
0.112466
-0.173777
0.0776103
-0.0209357
0.346491
0.12257
-0.469061
0.00466912
0.00116993
-0.0454805
0.170602
0.0804314
-0.050597
0.11456
-0.117452
-0.0519259
0.204066
-0.15214
0.0592428
-0.0438844
0.180897
0.146189
-0.327086
0.0169563
-0.0868324
-0.167426
0.035442
0.203418
0.124719
-0.0992953
0.106948
-0.103184
-0.00376371
-0.0324073
0.0772999
-0.012927
0.0448646
-0.0637757
0.0189112
-0.000757282
0.00612793
-0.00537065
-0.26924
-0.232955
0.00538459
-0.000281579
-0.0856629
-0.202623
0.288286
0.0796856
-0.0727921
-0.00689349
-0.0791017
0.104239
0.0123364
0.171295
0.249716
-0.327777
-0.0695805
-0.108742
0.163262
-0.23703
-0.266368
0.152582
0.144156
-0.0313002
-0.112856
0.0669267
0.0127588
0.067106
0.0358059
0.0406178
0.0250345
0.00420326
0.0920199
-0.0962231
0.432176
-0.236416
-0.19576
0.11365
-0.0219966
-0.0916531
0.00578523
0.0327524
0.306483
-0.1425
-0.163983
0.0807452
0.0237672
0.0855265
0.0771737
-0.1627
-0.0153326
0.0150354
0.000297194
0.0893496
-0.189327
0.0999775
-0.000161818
-0.00172718
0.001889
-0.118092
0.464583
0.0706942
-0.0434861
0.0956537
-0.507667
-0.0550851
-0.0541115
0.109197
-0.217964
0.130354
-0.150558
0.14434
0.0182979
-0.137683
0.119385
0.148802
0.279702
-0.120554
0.429166
-0.27077
-0.158395
0.012453
-0.0544736
0.0110659
-0.0110659
0.151268
-0.108973
-0.0422946
-0.00433744
0.0033626
-0.216
0.214019
-0.0283049
0.129316
0.182334
-0.0276974
-0.0887874
0.0399814
0.0488059
0.00120653
0.00132627
0.123951
0.0273173
0.235211
0.13172
-0.366931
0.0563505
0.0240849
0.138118
0.0504816
-0.266482
-0.030459
-0.127929
0.158388
0.00722944
-0.0087603
-0.0276004
0.000137167
0.0274632
-0.0731638
0.0704184
0.00274536
-0.0226934
-0.054191
-0.0276767
0.0526987
-0.17659
0.0559075
0.295686
-0.212183
-0.083503
0.0534238
0.0241865
0.20441
0.0157497
0.06248
-0.0782298
0.0332863
0.126162
-0.159448
-0.423999
0.294383
0.129616
0.00555802
0.014513
-0.0200711
0.0143609
-0.0123915
-0.00196939
-0.222551
0.00855909
-0.00176892
0.131271
-0.122167
-0.0927751
0.10527
-0.0124949
-0.0202774
0.0814646
0.0503165
0.0130957
0.051685
0.0249157
-0.0766007
0.52986
-0.325988
-0.203872
-0.45321
0.0533441
0.399866
-0.00692709
-0.00447537
0.0114025
-0.12592
0.266053
-0.139692
-0.137997
0.153218
0.229012
-0.0939052
-0.135107
0.040304
-0.0545162
0.0142121
-0.00381391
-0.0734914
0.0773053
0.0187067
-0.00105196
0.001237
-0.000185042
0.0326243
-0.128829
0.0766196
-0.0517546
0.164827
-0.0793004
0.377615
-0.0876875
-0.289928
0.171201
0.270756
-0.441957
-0.299522
-0.0913005
0.390823
0.00896094
-0.00900753
0.00109687
-0.0758361
0.0666246
0.0092115
0.345184
-0.095468
0.361478
-0.126266
-0.113323
-0.129448
-0.148357
0.277805
0.026217
-0.128225
-0.128437
-0.0265363
-0.0140955
0.00956056
0.0151846
-0.0247451
-0.0342467
-0.0771687
-0.0503993
0.0763347
-0.0259354
-0.071632
-0.0042041
-0.139392
0.276864
-0.0809273
0.0184601
0.231167
0.0645185
-0.00249194
-0.0303071
-0.0594044
-0.00136375
-0.00089092
0.00225467
-0.0125079
0.0528039
-0.040296
0.0435621
-0.191792
0.120037
0.0241184
-0.0687538
0.0248607
0.043893
0.00102484
-0.000949517
-7.53214e-05
-0.00224734
-0.0994803
0.0630724
0.0364079
0.0820607
-0.0826176
-0.00626706
0.00780645
0.343281
-0.457398
0.0907065
0.00309267
-0.0372241
-0.00307418
0.0955678
0.00333874
0.448931
-0.25758
0.125705
0.00222886
0.000183146
0.00179296
-0.00197611
-0.0162698
-0.0237562
-0.0609052
0.091985
-0.0310797
0.312021
-0.141321
-0.1707
0.021837
0.137167
-0.159004
0.122436
-0.105449
-0.0169874
-0.0155274
0.0120532
0.147632
-0.199558
-0.0528469
-0.027132
0.0799789
-0.139297
0.305196
-0.165899
0.0235783
0.053023
-0.0844439
0.031421
0.161354
-0.303855
-0.345516
0.206074
0.139442
-0.0752259
0.151682
-0.165458
0.0238535
-0.16687
0.398398
-0.231528
-0.123802
0.185113
-0.179818
0.0577785
-0.012914
-0.0765026
0.0806359
-0.00413328
-0.0131244
0.0117006
0.32873
-0.0103167
-0.0698792
0.0801959
0.316995
-0.162623
-0.154372
-0.0140394
-0.000474385
-0.081276
-0.102141
-0.00273053
0.104872
-0.304231
0.164934
-0.167967
-0.084011
-0.020324
-0.0557495
0.105407
-0.0279384
-0.077469
-0.109366
0.140444
0.00847197
-0.000269026
-0.00820295
0.0825337
0.0130341
-0.17109
-0.08546
0.232059
-0.0429837
-0.000497039
-0.00285929
-0.0923231
0.00218567
0.0901375
-0.436638
0.247126
0.189512
-0.0800122
0.0295809
0.0504314
0.242891
0.194312
-0.437203
0.107993
-0.137062
0.341667
-0.26474
-0.0769264
0.0532656
-0.0791839
0.0259183
0.00116158
0.196935
-0.397121
0.200186
0.123446
0.153458
0.0630227
-0.0783482
0.0153256
0.221066
-0.0652973
-0.00914826
-0.0296207
0.038769
0.00854179
0.000349072
-0.00889086
-0.090841
0.106736
-0.0158951
-0.11747
-0.356857
0.0565077
0.300349
0.0939644
0.247702
0.248567
-0.366659
0.00965003
0.0627084
0.0194398
0.0572699
0.209438
-0.171087
-0.0383508
0.00230713
-0.0035855
-0.396121
0.13609
-0.177727
-0.135461
0.0118999
-0.0229606
0.135563
0.160089
-0.295652
-0.0122001
0.0080509
-0.22392
0.402522
-0.178602
-0.000389479
-0.107213
0.107603
0.139137
-0.142528
0.293851
-0.151323
-0.289467
0.254629
0.0348384
-0.182894
0.425785
0.000497194
0.00620834
-0.203898
0.0400472
-0.196288
-0.227711
-0.00824554
0.0487306
-0.0404851
0.125877
-0.000172262
0.47112
-0.25281
-0.21831
0.110349
-0.10417
0.00839816
0.12784
-0.100243
0.345886
0.0266115
0.210745
-0.109994
0.00785319
-0.00127437
-0.000452812
0.0726309
0.0106519
-0.0832829
0.148393
0.135908
-0.284301
0.0590372
0.0140543
-0.0222892
-0.0772245
0.0995137
0.114747
-0.0216091
-0.0931377
-0.135995
-0.0294636
-0.0231614
0.111687
-0.088526
0.0534305
-0.200862
0.104398
0.0964636
-0.122006
0.0212051
-0.203583
0.291953
0.141587
0.179772
-0.32136
-0.158368
0.336446
-0.178078
-0.0118651
-0.0989258
0.110791
0.0781039
0.0577605
0.118068
-0.0111869
0.121334
0.149345
-0.270678
0.128899
-0.159358
0.0262418
-0.00181385
-0.00631519
0.00812905
0.0403072
-0.0885103
0.271368
0.360335
-0.0905875
-0.269748
-0.115645
0.109729
-0.0451426
-0.0645862
-0.144963
0.00977282
-0.000108729
-0.00966409
0.317146
-0.180046
-0.1371
-0.124165
0.273938
0.0863966
0.0321368
0.0218121
-0.053949
-0.00130101
0.00132153
-2.05174e-05
0.176013
-0.477381
0.0228343
0.149563
-0.172398
0.190225
0.212774
0.0240874
-0.103189
0.462379
-0.251446
-0.210933
-0.18668
-0.0779248
0.264605
-0.061857
0.06756
-0.00570291
-0.365404
0.461058
0.161254
-0.308438
0.147184
-0.409178
0.221806
0.187372
-0.105307
0.0522702
0.0530367
0.435832
-0.280192
-0.15564
0.284977
-0.137323
-0.147654
0.00842751
0.0320018
-0.0404293
0.0165858
-0.068253
0.0516672
0.0398576
-0.0232561
-0.0762242
0.000910261
-0.000444511
-0.00046575
0.112801
-0.0820106
-0.0307909
0.180324
0.136822
-0.355721
0.100198
0.00091826
0.0101476
0.0368118
-0.223492
0.035871
0.0841468
-0.0191041
0.104111
0.126512
-0.100295
-0.122919
-0.0304871
0.153406
-0.0846359
-0.127094
0.211729
-0.136419
0.0191662
0.177043
-0.205684
0.0286418
0.239837
-0.439227
0.19939
0.0816141
-0.0285911
0.0164549
-0.00645083
-0.0100041
0.127024
-0.0221529
-0.104871
0.155301
-0.454823
-0.0455195
0.0363712
0.0311106
0.00522548
0.0029396
0.00258347
0.00162243
-0.012818
-0.0799571
0.262101
-0.46052
0.198419
-0.386325
0.135128
-0.0052665
0.418833
-0.413567
0.0228087
-0.455183
0.341702
0.113481
-0.242776
-0.0466914
0.00509813
0.00142448
-0.00652261
0.0323722
-0.10468
0.0928145
-0.196712
-0.159009
0.0954017
-0.0911984
-0.069287
-0.00234498
-0.228203
-0.216844
0.0880673
0.0713958
-0.101078
-0.0492961
0.0593321
-0.0397761
-0.019556
-0.10046
0.0844328
0.151148
-0.156721
-0.0374505
0.104909
-0.136166
0.425005
-0.210553
-0.214452
-0.00175447
0.0905227
-0.0887682
-0.171526
-0.0469804
-0.0291842
0.0558782
0.0209871
-0.0801665
-0.0208905
0.101057
-0.287985
0.147138
-0.0261315
0.125822
0.00128516
-0.00125792
-2.72422e-05
-0.0327174
0.0133877
0.0637228
0.0176911
-0.0814139
-0.0973451
0.00502201
0.000888421
0.0088844
-0.193082
0.119067
-0.32265
-0.0348523
-0.164507
0.19936
-0.00531766
-0.0512251
-0.305632
-0.126536
0.116447
0.0549042
0.0866167
0.107641
-0.000904485
-0.452143
0.175265
0.276878
-0.475622
0.20466
0.270961
-0.144105
0.234364
0.110647
-0.476051
-0.00952482
-0.0669778
-0.0285937
0.00877829
-0.0835124
0.0697704
0.013742
-0.284937
0.199275
-0.00741836
0.0085613
-0.00114294
0.0957496
0.0266869
0.27399
-0.459517
0.185527
-0.075448
-0.0657897
0.448055
0.0178178
-0.465873
-0.0167911
-0.088203
0.104994
0.0471603
-0.201934
0.154773
0.159512
0.152509
-0.00176709
-0.000255988
0.00202308
-0.010323
-0.00020221
-0.000461721
0.000663931
0.158498
-0.219565
0.0610677
-0.00400492
-0.00728102
-0.118334
0.00224906
-0.00380349
0.00155443
-4.77707e-05
-0.00171932
-0.458476
-0.114479
0.0913178
0.0666956
-0.0705095
-0.196801
-0.19058
-0.219094
0.409673
0.00143766
-0.0116211
0.0101834
0.133844
-0.21848
0.323488
-0.126118
-0.197371
0.0290645
0.0553044
-0.0843689
-0.0297614
0.345124
-0.0965575
0.129658
0.0284305
-0.158089
0.450003
-0.138492
0.164037
-0.0255451
0.0455434
0.059864
-0.270982
-0.188535
-0.000696739
-0.000348417
0.00104516
-0.137765
-0.261296
-0.214326
-0.0847201
0.0189074
0.0658127
-0.085308
0.0989141
-0.013606
0.0540381
-0.109123
0.376465
0.07781
-0.0187728
0.161675
0.0989104
0.00346988
-0.28871
0.147389
-0.119374
0.312873
-0.193499
0.0552356
-0.00235012
-0.0528855
0.1889
0.216746
-0.405646
-1.5857e-05
0.209824
-0.0770549
0.105338
0.025692
-0.0381999
0.0197721
-0.0274627
-0.136601
-0.131353
0.141581
0.0829131
-0.198107
-0.147409
0.173756
0.00261605
-0.176372
-0.157995
0.0497611
-0.0801593
-0.0343906
0.11455
-0.234851
-0.186682
0.421534
-0.00187265
0.163706
-0.310103
0.146397
0.296532
-0.17127
-0.125262
-0.0785778
-0.0267291
-0.0257349
0.0732546
-0.0475197
0.0394508
0.0875731
-0.34868
0.47125
0.0183746
-0.0169369
-0.0991873
0.108656
-0.00946827
0.157837
0.123253
-0.100368
-0.0228854
0.140542
-0.288951
0.156796
-0.00361407
0.0365621
-0.032948
-0.11305
-0.259528
0.140154
-0.129501
0.266728
-0.137227
-0.000906911
0.00222844
-0.154373
-0.119018
0.273391
0.319222
-0.200122
-0.119099
0.00182865
-0.171425
0.0329334
0.000433541
0.00581856
-0.00625211
-0.138731
0.063283
-0.34222
-0.100823
-0.218161
0.408385
-0.0103388
0.171258
-0.144749
-0.0265094
0.155689
0.161305
-0.0305465
-0.00993592
0.00579226
-0.00559587
-0.000196391
0.323466
0.112366
-0.00289807
-0.00299851
0.00589658
-0.086816
0.00664955
0.209099
0.0555641
-0.264664
-0.253624
0.143162
0.110462
-0.0486398
-0.0322216
-0.0388718
0.327995
-0.289123
0.0526186
0.0214668
-0.0740854
0.110128
0.0196869
-0.368367
0.0807245
-0.0637682
-0.00688841
0.00323005
0.00365836
-0.0128273
0.263752
-0.102678
-0.161074
0.0106374
-0.00932933
-0.0013081
-0.117021
-0.0193984
0.0186541