/*--------------------------------*- C++ -*----------------------------------*\
| =========                 |                                                 |
| \\      /  F ield         | OpenFOAM: The Open Source CFD Toolbox           |
|  \\    /   O peration     | Version:  v2012                                 |
|   \\  /    A nd           | Website:  www.openfoam.com                      |
|    \\/     M anipulation  |                                                 |
\*---------------------------------------------------------------------------*/
FoamFile
{
    version     2.0;
    format      ascii;
    class       volScalarField;
    location    "250";
    object      ReThetat_0;
}
// * * * * * * * * * * * * * * * * * * * * * * * * * * * * * * * * * * * * * //

dimensions      [0 0 0 0 0 0 0];


internalField   nonuniform List<scalar> 
18758
(
615.544
132.789
605.325
39.9998
33.6501
32.2678
37.3235
602.855
497.824
601.646
629.173
41.8944
590.615
395.247
557.184
304.363
494.102
593.823
611.07
601.956
35.5655
583.88
37.4723
141.464
592.074
602.724
373.033
33.2465
44.4593
421.696
431.985
36.0772
586.814
618.817
423.94
576.865
585.855
618.664
621.746
509.517
618.874
505.853
609.147
578.285
520.113
604.048
37.0964
627.305
600.756
608.404
664.882
36.3434
605.78
628.268
33.3316
196.309
586.145
272.637
579.828
394.591
627.74
37.8578
519.525
529.98
605.594
557.612
481.498
587.106
616.212
36.2972
35.6045
505.469
608.623
212.516
606.833
581.167
430.945
33.973
501.337
39.2858
34.9536
480.422
390.41
32.397
419.133
630.109
81.9077
530.864
41.8931
586.694
32.524
575.926
60.9381
508.642
34.5361
61.6381
417.033
607.739
593.657
35.6178
607.508
32.7226
453.997
640.658
35.9408
499.676
66.6728
33.9458
623.433
476.113
67.6089
213.358
601.251
604.954
37.2034
33.2426
33.4065
558.223
40.7536
34.3934
641.941
540.377
39.7533
310.045
608.886
514.645
199.718
425.464
56.0215
590.942
487.162
391.817
35.5167
531.049
212.074
567.503
437.149
510.395
594.35
402.846
490.286
520.039
600.007
95.576
620.158
607.94
34.7192
33.9493
431.794
36.4474
586.818
183.095
633.467
584.526
34.8292
635.654
40.5111
627.061
584.885
584.119
602.782
385.922
78.5774
587.143
629.425
40.8377
612.276
40.1996
651.916
32.2051
33.1583
594.226
76.6982
33.3336
389.898
203.729
36.6165
535.736
417.992
619.948
599.774
33.505
243.995
609.944
572.279
428.6
588.008
33.1958
608.467
579.62
534.994
548.113
607.744
433.488
568.677
539.221
603.59
650.606
587.577
608.789
346.206
626.323
623.11
528.257
590.651
570.795
466.051
584.05
35.6934
597.873
594.222
641.263
589.032
627.511
475.463
35.8482
470.926
284.973
605.472
32.233
594.236
623.622
429.279
34.7149
659.119
457.472
644.316
567.29
608.651
551.168
557.019
548.5
36.6631
410.616
590.174
587.53
608.705
603.393
42.4163
636.146
600.487
605.965
63.2391
625.609
38.354
214.079
424.374
578.991
34.7422
403.369
579.745
38.8034
635.801
411.243
578.712
643.075
456.675
270.465
626.055
525.914
593.911
471.69
586.394
540.938
597.51
424.178
33.9618
605.176
623.256
556.355
622.931
573.205
543.249
38.5226
33.4816
597.208
661.679
31.9669
511.899
605.885
611.951
633.794
637.784
600.45
32.5515
620.584
188.94
35.457
37.0106
608.99
605.799
569.098
36.0468
417.402
514.25
582.652
631.123
34.7783
610.983
359.159
32.3318
603.674
38.3624
558.886
617.474
624.52
638.502
577.499
579.187
35.8537
322.432
592.568
35.9948
34.5864
660.108
579.123
588.848
357.371
625.914
609.534
611.064
438.629
650.623
630.511
632.771
634.831
599.556
542.972
594.505
584.149
427.312
614.647
665.738
39.5293
412.313
607.8
590.193
366.144
39.3275
609.46
594.996
609.008
562.422
566.934
625.621
541.275
485.15
608.624
307.149
526.559
610.089
635.099
613.206
597.618
610.204
640.77
404.121
42.044
35.0438
294.965
590.378
604.243
125.479
36.6611
608.961
609.456
634.264
615.133
610.354
67.6275
35.751
413.238
598.294
34.0018
571.788
625.641
596.483
622.479
425.621
631.236
36.3293
488.22
580.078
592.033
33.2342
414.797
479.507
564.05
446.841
611.739
457.982
544.676
605.068
33.7191
35.7372
361.915
73.676
595.104
457.066
35.9347
644.722
601.827
40.5151
613.183
601.834
599.897
426.289
555.177
573.911
634.057
39.0481
611.173
33.7813
542.82
578.655
603.237
578.236
595.014
630.529
470.779
548.519
209.524
643.595
568.377
543.294
44.8096
58.6378
33.1442
423.061
603.223
604.832
600.741
588.392
412.272
524.041
511.212
559.374
633.604
422.336
453.09
572.133
634.993
44.2703
588.466
36.0023
586.696
567.663
33.966
543.574
623.467
460.084
424.994
572.623
53.4443
578.907
584.545
289.145
40.8407
406.418
649.906
390.049
446.531
33.5505
396.918
504.111
630.166
602.996
411.435
624.587
54.6598
446.929
220.317
510.499
427.718
603.597
161.646
608.554
35.0948
596.332
623.8
585.031
403.343
610.649
586.183
593.25
600.252
56.5907
34.5204
38.0541
475.529
575.48
635.592
584.67
583.026
36.0304
593.469
565.483
571.742
590.803
647.961
643.368
565.17
557.49
518.775
587.977
637.031
39.0059
488.635
408.941
619.007
568.829
228.091
489.521
623.615
338.736
33.262
429.053
275.179
608.325
623.174
33.1983
611.149
33.6218
623.037
585.002
37.5619
500.662
635.134
596.588
615.321
37.7457
619.09
615.256
561.033
581.397
604.439
601.778
584.566
42.3314
632.533
40.1747
541.222
625.499
83.1321
585.948
608.7
632.445
588.24
605.906
467.546
618.615
496.356
318.089
606.269
37.2095
33.6041
380.303
625.892
342.898
474.279
491.974
630.599
35.5226
630.028
461.823
601.158
33.128
603.069
539.347
454.27
37.6805
629.925
593.74
637.652
554.19
604.37
619.18
524.5
54.9135
609.145
613.704
600.466
590.717
33.7572
52.9645
547.9
387.26
556.163
52.7717
34.4863
356.464
308.207
593.409
33.0607
434.155
608.871
485.055
36.0458
33.7243
617.09
462.181
606.537
605.177
34.2495
493.624
33.3815
35.8906
532.158
587.981
564.199
584.694
602.33
456.292
565.158
504.459
612.945
650.21
34.0968
650.674
582.835
547.434
659.906
35.1071
463.722
356.863
649.066
546.927
378.006
67.0329
608.685
608.531
317.706
32.6022
649.998
590.501
35.0215
35.5358
499.24
608.499
39.8101
36.0298
85.0468
630.554
578.817
37.8833
584.423
409.874
33.54
646.8
38.2458
448.249
35.4615
474.79
583.521
453.613
33.2473
48.2331
35.7655
36.4201
611.445
410.301
584.589
640.655
436.157
663.107
584.415
571.154
464.63
36.7742
33.255
35.1081
641.655
609.665
428.109
484.126
611.075
579.039
538.791
432.177
566.286
437.618
598.778
590.73
595.769
33.5226
478.647
584.789
571.553
615.827
606.442
33.8107
615.24
596.378
649.16
453.171
578.562
617.416
410.863
380.212
621.333
71.2363
622.963
42.7229
398.35
497.142
122.498
34.3249
608.217
35.7176
275.344
603.06
34.7406
576.701
596.494
633.738
594.106
642.731
35.1799
608.52
110.074
588.808
641.443
49.5607
606.246
32.7535
607.422
616.403
588.756
578.24
613.838
324.046
33.3607
652.301
32.3885
578.406
567.369
453.08
35.2809
198.755
361.01
630.569
435.344
632.406
642.464
616.049
474.33
590.773
40.8829
618.164
381.837
505.162
622.323
51.147
456.83
601.58
309.168
606.137
595.787
514.634
657.028
616.643
513.045
121.675
33.1405
588.085
578.862
34.9647
570.114
609.451
447.468
630.911
565.308
622.203
547.044
615.938
567.271
625.816
652.473
323.29
640.358
587.718
454.45
37.2988
598.777
434.51
629.03
35.3934
472.268
35.1819
590.947
274.189
584.532
474.041
609.051
537.613
497.83
606.156
595.915
606.18
52.4686
34.2659
526.29
32.6188
552.298
519.1
635.865
480.338
39.9461
527.081
607.097
547.726
598.928
545.032
635.813
33.3158
39.1056
441.052
368.603
316.366
448.789
600.628
479.405
596.45
344.671
630.214
578.079
34.1522
32.1621
568.475
33.2844
618.834
399.726
526.844
281.339
32.1408
593.039
592.266
604.493
34.2619
596.816
616.173
629.767
595.795
62.2092
382.817
572.248
32.6497
555.03
424.35
625.104
592.067
605.416
600.945
33.4088
34.0482
342.805
565.952
606.981
496.382
608.825
634.456
573.998
440.927
35.9195
438.961
430.028
339.024
615.442
639.069
601.247
39.4516
332.9
39.1038
44.1208
563.548
556.159
385.511
32.6759
39.8532
335.575
655.404
33.1204
590.424
433.72
289.935
409.822
590.586
617.758
617.525
35.6957
227.801
577.287
542.252
540.871
387.583
220.917
620.878
601.318
595.893
584.815
642.203
598.393
580.857
624.185
595.298
592.432
616.319
608.598
183.71
374.804
34.0957
608.924
488.618
554.707
447.236
521.331
600.564
595.427
611.913
599.787
454.486
629.854
33.8438
409.317
570.729
534.811
44.5846
42.5324
634.858
605.865
373.331
587.926
640.339
609.171
595.347
34.9831
597.86
609.818
268.173
592.663
40.5312
33.4008
450.929
481.601
577.437
609.194
590.743
33.4431
201.28
663.797
621.56
34.6795
593.34
574.539
34.8077
612.288
33.4935
606.23
485.826
463.993
579.598
607.245
588.06
33.1917
623.433
578.174
346.249
620.776
592.734
650.936
624.997
588.073
500.322
592.338
598.047
35.3261
409.799
563.756
398.505
421.591
658.039
595.132
460.077
53.8081
629.886
584.149
582.596
605.244
589.106
455.943
628.549
458.211
611.586
634.488
434.26
35.2357
431.89
584.454
604.867
616.243
644.343
601.91
33.3164
585.973
599.314
605.97
338.406
32.6572
587.388
627.684
596.952
451.305
600.18
547.501
393.956
584.79
604.29
579.633
630.08
600.7
615.64
48.0814
143.61
336.194
338.654
32.6983
517.948
586.889
592.642
34.1734
550.581
474.978
447.384
637.389
538.704
585.6
596.084
606.651
606.205
650.455
34.8687
606.015
601.258
43.9445
475.059
36.4853
29.4526
402.468
586.391
593.457
597.947
450.238
586.588
607.546
32.6373
335.646
459.239
592.151
641.366
363.728
586.641
578.453
620.868
299.857
475.648
607.042
628.203
634.372
599.614
613.527
606.921
312.292
643.783
626.846
613.87
641.561
32.6244
41.6799
623.281
633.09
33.3598
586.289
582.938
624.298
660.972
577.497
429.432
558.686
450.745
591.959
593.694
613.6
584.612
359.851
35.8471
343.046
567.482
33.523
384.767
587.452
502.65
595.769
644.842
623.948
540.78
33.8611
33.629
32.7698
599.348
33.4644
542.035
36.0143
33.8419
603.073
465.439
376.349
606.014
593.163
32.6397
588.057
588.372
649.572
555.126
590.818
620.539
587.591
627.902
450.38
587.078
33.46
489.155
593.371
658.891
624.364
469.095
583.119
401.268
606.957
34.1055
545.342
607.274
56.2112
602.305
32.6718
593.026
651.503
40.3634
38.5911
600.511
499.826
580.76
455.152
632.388
396.733
605.664
35.8994
596.539
615.982
652.657
565.627
608.72
591.078
33.5928
606.331
622.928
371.425
587.899
612.746
39.158
606.11
607.409
612.755
32.5878
609.163
604.395
33.6607
628.445
33.9789
505.593
605.275
596.97
181.884
533.943
554.006
37.0014
33.4802
601.539
36.1746
631.632
598.542
529.238
617.752
585.357
394.71
606.411
590.598
452.453
51.0592
454.778
613.194
34.6907
595.122
277.674
326.447
591.077
34.5146
588.661
416.453
528.924
37.235
602.848
585.199
431.884
584.398
372.907
602.356
590.691
33.215
658.798
568.351
640.364
369.674
482.669
627.949
631.985
434.024
601.425
550.942
590.265
586.58
623.827
598.203
584.579
623.826
607.079
591.713
235.975
606.868
521.035
592.254
595.898
589.403
580.951
35.6404
32.8478
627.902
582.532
85.9543
622.624
60.3195
430.639
321.195
34.9284
36.2733
36.6778
578.585
597.67
600.606
40.4944
612.458
587.617
508.354
608.928
580.02
578.541
33.5286
302.702
586.178
41.5298
35.6968
624.983
593.462
533.465
41.3134
594.465
407.678
584.539
592.379
609.014
604.998
471.847
615.962
611.226
613.348
603.233
388.061
605.572
614.387
596.051
549.809
392.918
367.685
621.64
599.196
530.314
580.43
584.873
36.2662
567.01
606.307
566.819
34.8659
593.774
593.099
34.8153
587.97
645.921
646.634
623.078
33.3891
37.8386
406.839
35.0628
637.2
406.2
601.295
29.5992
590.155
388.447
570.377
603.595
119.993
347.044
630.261
302.596
593.987
36.954
585.606
33.0188
557.326
594.4
602.613
585.949
648.099
596.067
33.4683
487.085
594.571
593.387
596.977
33.2552
579.383
586.649
587.11
594.169
634.494
319.818
584.145
602.671
422.141
564.186
623.398
429.451
585.668
520.993
628.438
389.241
607.081
585.82
33.3446
641.968
650.314
152.064
607.026
33.2101
174.383
479.26
34.0636
581.032
67.7879
45.7483
424.882
598.797
37.7858
438.587
591.642
566.106
37.9221
607.511
592.42
638.378
584.771
34.0396
563.802
595.818
584.702
596.883
322.458
492.095
33.2134
421.369
36.0639
654.33
583.15
578.049
610.532
126.236
531.583
599.186
632.569
599.533
395.487
66.063
35.8546
550.05
568.63
32.873
607.224
35.3585
618.744
611.246
47.7111
641.093
489.636
558.853
200.709
590.643
218.468
605.933
548.218
596.123
606.685
36.2366
603.873
567.074
628.411
35.0949
586.257
606.099
35.1047
591.24
607.59
587.828
540.992
566.768
577.59
586.973
578.681
402.347
603.14
611.167
35.2888
507.294
35.7313
527.889
524.883
595.75
599.119
618.854
35.9368
36.0876
615.863
584.643
590.881
184.705
606.304
482.357
456.201
39.6257
32.705
34.6422
35.5065
594.367
64.2457
33.7871
32.834
592.24
494.706
470.1
602.193
145.701
433.887
594.253
634.563
33.6621
548.025
605.436
60.1803
442.459
609.253
605.517
468.543
587.903
101.81
31.8789
33.2861
35.7841
447.634
480.435
609.785
476.398
581.793
546.697
606.528
36.0232
619.778
612.614
597.003
37.9262
645.914
449.798
622.612
641.035
33.8733
33.4456
64.3793
37.9267
517.601
32.6822
559.987
482.023
600.107
468.073
595.129
592.613
489.16
572.23
68.7205
597.314
609.609
566.654
33.3594
571.386
599.988
605.883
546.479
629.637
574.916
244.512
592.22
35.132
606.4
586.772
534.153
565.98
605.718
37.9181
492.287
33.5061
591.983
50.8175
591.817
582.975
565.999
547.282
33.2159
33.2718
34.6819
592.699
593.341
606.37
33.6389
585.594
579.859
498.289
565.807
624.475
35.9971
603.88
561.211
583.415
590.383
604.499
581.646
605.456
522.522
451.869
644.349
598.976
33.5845
627.672
34.2419
33.5727
612.77
34.981
33.5587
612.957
486.527
591.35
604.233
239.607
589.717
39.5353
526.504
403.753
582.229
568.888
595.005
42.0443
529.966
38.4084
602.86
605.944
552.344
599.543
586.571
522.146
607.227
36.5895
570.183
479.55
590.99
562.001
637.618
421.164
592.606
445.905
352.507
632.932
469.904
603.585
34.4794
651.013
583.504
656.201
377.666
35.6117
544.216
626.407
586.925
607.88
588.91
34.8839
576.261
585.885
33.736
582.739
606.451
589.55
34.9685
491.54
34.6595
54.5843
515.311
33.9597
618.039
33.7213
492.605
604.108
552.306
539.178
598.887
523.672
35.6428
469.88
670.207
630.068
598.546
37.6433
595.416
44.5406
584.786
146.342
41.952
584.867
612.679
583.695
523.112
557.895
593.087
35.5709
583.222
463.92
653.149
624.204
594.676
37.1943
607.162
411.58
591.76
33.6762
588.374
597.263
44.5806
605.34
601.778
623.071
655.97
562.589
459.501
549.675
604.882
628.801
622.745
598.073
32.7657
594.423
638.98
33.8115
422.376
560.407
631.897
596.765
578.969
314.599
643.23
583.723
585.54
561.93
412.863
441.698
613.971
499.165
597.644
622.165
598.639
605.403
40.6236
605.556
43.1456
42.2973
623.184
608.447
61.634
36.5273
598.758
556.856
46.8091
605.797
321.187
595.61
649.16
593.743
541.834
647.24
555.351
32.5253
634.933
613.155
618.961
638.288
584.291
550.815
585.76
522.764
623.087
631.425
605.494
598.471
488.42
606.097
33.1798
428.015
534.812
537.147
592.24
598.019
33.2036
584.728
639.724
596.21
596.6
650.925
39.5948
601.252
607.398
588.195
616.246
638.49
636.703
34.2641
507.902
598.125
569.978
32.7628
605.207
602.442
36.091
639.994
621.164
399.835
604.477
34.5338
462.039
578.524
424.826
615.529
584.681
614.016
37.4071
524.612
437.535
32.8092
417.052
503.567
593.046
70.4325
583.921
33.7222
609.295
380.038
492.266
416.3
543.912
35.0941
631.237
585.755
33.3485
34.0559
606.453
434.054
592.149
617.6
612.023
33.4812
568.666
599.146
601.777
37.8153
557.255
597.863
575.841
586.282
599.396
606.317
563.638
34.9378
109.526
599.899
487.53
554.106
428.094
591.366
33.5104
33.1598
33.4552
459.983
32.6976
33.2413
571.813
633.776
596.809
441.421
33.8085
618.005
605.962
604.49
633.798
605.839
557.398
513.575
568.851
574.634
543.596
592
585.714
590.46
542.393
43.4798
599.074
480.088
607.161
33.5564
613.064
550.848
34.8098
446.236
398.422
34.1193
358.139
566.011
629.951
586.036
530.305
585.607
594.302
453.458
497.489
36.3705
418.202
366.36
252.321
565.674
637.882
618.469
33.101
37.3805
34.9601
560.221
605.523
34.7904
33.1246
578.549
64.4278
580.318
632.703
605.765
616.043
613.709
613.182
435.595
527.592
636.014
534.298
556.387
603.346
599.469
599.062
585.003
592.668
35.414
35.2151
33.096
621.836
44.0735
607.437
32.3336
45.5705
638.225
588.244
503.196
599.96
599.849
116.481
34.9539
622.491
602.163
495.917
33.5522
583.382
34.0458
611.111
587.723
32.1459
581.299
510.258
587.187
35.7886
604.193
563.695
644.39
609.191
565.89
604.935
602.513
469.514
592.852
33.4674
590.543
578.686
604.925
33.2371
632.975
594.32
33.0009
585.945
604.143
366.529
47.2235
566.704
32.5577
34.1799
634.137
35.3158
588.212
617.205
408.024
610.192
36.232
33.5783
606.262
534.083
599.221
34.8029
341.194
508.166
580.667
455.53
496.461
574.021
633.087
590.941
617.68
593.146
601.883
46.3855
605.934
601.537
627.765
100.271
442.159
33.299
590.778
561.16
615.646
616.217
498.734
604.496
581.119
591.533
586.657
587.023
616.776
610.836
619.608
602.767
34.1997
32.183
618.641
620.495
40.4697
586.154
406.646
35.6171
349.632
32.1984
593.629
32.2415
335.015
35.0143
610.126
636.597
599.266
648.061
630.579
585.743
612.836
35.0976
609.431
392.203
43.2057
608.127
611.689
654.412
603.118
601.717
596.373
609.671
33.2006
34.1004
588.024
561.463
565.135
608.546
524.81
620.523
277.299
655.129
580.056
33.714
541.217
567.97
39.1252
607.583
440.533
601.46
619.473
611.074
33.1065
574.881
593.37
618.947
621.472
638.478
603.313
35.7039
645.193
561.825
198.711
32.8919
423.838
515.842
74.7578
596.752
589.945
626.242
33.9945
434.84
646.75
35.1273
592.599
525.277
642.832
225.13
549.432
547.141
597.428
653.224
369.883
475.972
33.3322
590.723
640.762
581.726
616.043
629.633
541.435
499.785
575.703
643.521
556.441
584.457
585.598
646.85
593.632
609.808
547.694
589.056
609.942
561.525
605.14
644.161
35.8918
601.641
607.942
605.898
611.971
548.605
578.932
33.6369
466.303
605.021
598.168
33.7398
36.1358
594.275
410.464
459.955
576.28
34.7835
582.678
656.601
585.601
91.8359
33.2731
585.119
582.669
34.173
636.143
49.7033
585.563
584.574
34.8085
37.3689
629.064
487.834
613.721
416.887
587.429
35.6924
36.0158
50.975
556.617
612.042
472.128
601.475
636.25
623.668
34.7938
604.36
586.609
611.862
613.05
598.515
450.742
36.3352
592.789
607.345
587.545
34.1425
609.974
622.824
587.341
631.539
38.4718
602.519
614.522
523.158
546.404
571.668
584.6
484.384
609.888
404.091
565.13
36.0655
563.29
558.153
49.4277
598.026
604.312
623.125
32.3772
573.999
409.586
601.835
34.093
635.533
598.868
637.997
598.485
35.5002
640.784
633.422
658.273
421.725
587.145
580.789
585.466
627.249
34.5782
443.727
581.513
466.661
610.796
32.3422
565.736
32.7011
627.854
32.3051
336.609
587.713
544.674
552.3
597.572
33.1949
593.37
456.023
61.2592
605.328
35.4931
569.347
548.76
419.481
595.894
610.325
33.1683
38.5695
35.2531
593.772
604.158
605.553
618.274
626.657
615.977
63.649
417.643
371.613
621.621
617.883
593.184
434.978
570.521
607.802
34.7276
618.941
34.5859
597.261
590.269
548.367
609.593
605.332
585.823
600.596
473.48
38.7463
586.116
35.181
584.551
581.568
583.389
620.564
557.398
620.985
588.076
35.1044
42.2745
600.727
554.736
599.031
544.153
583.667
577.191
592.983
601.82
575.972
612.71
624.683
603.101
87.1422
433.62
408.827
458.027
616.737
569.486
41.1894
617.328
414.837
505.791
607.692
647.865
589.722
32.6633
608.856
612.717
33.9749
639.893
33.3079
601.744
480.212
661.454
578.24
45.5948
596.758
608.343
609.101
619.061
454.88
345.866
574.934
482.366
38.493
461.012
560.065
573.746
410.721
35.9365
572.775
590.609
618.543
70.1722
547.278
622.459
33.7851
604.877
541.471
607.601
453.886
35.7859
41.7777
614.141
536.341
568.747
389.489
554.984
620.435
409.669
33.4528
609.431
589.573
586.923
39.4774
650.634
455.593
32.5508
585.147
135.204
581.282
658.112
609.55
635.224
33.9467
432.573
594.73
630.591
35.9184
35.0552
606.55
37.4017
385.5
604.01
656.716
34.611
584.221
575.532
160.89
606.375
612.778
598.587
500.674
498.622
569.991
477.69
35.0282
583.815
315.497
391.498
589.389
456.724
477.937
610.12
585.79
37.2093
36.4603
35.2622
610.282
632.905
587.274
36.1952
589.231
644.028
38.525
36.3909
411.003
616.212
355.625
35.5238
428.35
582.008
578.019
600.913
32.4077
634.978
552.106
33.2625
616.497
586.184
33.0841
441.423
641.972
586.247
596.799
532.87
493.394
520.98
445.366
599.984
582.644
600.147
36.5195
33.0877
595.465
631.548
619.733
363.727
591.77
594.819
438.493
519.267
587.731
417.236
639.908
574.985
663.536
600.435
472.025
32.7518
554.84
592.738
533.308
32.8203
635.402
498.406
442.855
610.392
609.146
543.293
561.475
340.361
36.4524
624.604
33.32
34.5965
33.2919
479.665
576.953
591.71
407.749
33.6339
597.783
610.114
34.646
571.019
419.735
602.059
426.889
586.554
410.305
497.716
570.939
601.251
263.152
618.635
439.226
466.14
592.419
579.225
38.2917
612.829
607.397
500.001
156.971
493.254
584.602
619.907
53.2325
42.7411
574.576
49.9352
423.407
651.358
634.898
617.166
388.07
367.94
609.375
611.478
599.832
596.095
397.265
33.0972
585.929
418.387
652.999
586.228
47.8049
412.56
35.9217
436.105
36.0477
628.772
33.1088
449.599
540.109
609.499
32.352
52.966
435.294
64.6035
607.08
45.3514
34.4901
589.876
603.602
635.605
510.108
34.8449
33.4403
657.819
596.216
613.55
585.835
37.4434
423.063
67.2613
577.313
91.9518
574.291
35.3706
580.691
41.1953
603.366
604.152
587.085
586.361
35.1776
634.454
36.478
502.237
33.8623
69.1227
605.056
609.255
33.0799
461.677
596.386
538.726
591.723
33.3277
605.997
597.875
34.3059
605.638
554.011
578.491
598.363
502.298
627.586
616.884
609.593
598.472
600.402
33.3023
352.384
573.287
550.007
33.2011
582.559
51.8523
33.2629
592.226
43.6916
574.713
484.73
67.0412
554.363
577.376
614.864
412.886
632.961
597.275
36.437
599.585
34.0098
590.524
36.8867
35.8306
415.305
612.145
517.829
649.316
369.06
35.1178
499.989
614.008
35.4871
623.026
433.945
467.836
634.102
641.358
597.554
641.268
66.3231
41.3235
658.938
596.278
430.706
35.461
584.796
651.454
432.894
540.567
595.833
433.645
606.881
432.435
32.1616
408.103
32.2382
640.906
519.124
33.4142
35.4573
36.1365
392.61
35.8363
486.016
52.0093
455.033
32.5803
33.5848
626.819
494.872
633.992
641.7
591.827
596.968
582.646
617.258
561.538
599.91
33.2519
63.5679
586.292
648.311
570.746
600.699
559.948
639.737
605.447
647.423
596.403
634.776
338.452
658.08
528.222
592.68
656.035
585.958
594.795
376.465
600.806
33.0873
533.199
590.734
580.609
80.7871
578.618
653.416
650.474
318.136
599.383
639.139
564.099
587.167
33.088
39.9029
628.451
595.916
504.918
35.276
410.626
32.9755
628.091
586.183
605.412
32.9142
652.632
33.2218
391.047
32.408
549.485
33.1229
43.059
548.954
627.628
597.541
47.8037
603.283
43.2078
450.41
34.8743
33.5846
33.1687
33.3451
555.323
41.7212
406.383
646.194
34.3145
50.587
34.4011
601.688
456.901
465.221
38.3771
599.722
609.977
557.14
647.173
51.2945
640.483
639.985
590.257
660.011
605.231
464.185
61.0163
506.922
599.357
44.5042
387.033
585.08
33.8963
359.065
533.705
34.2396
33.9753
48.3871
633.732
600.026
592.893
33.6764
641.869
572.374
46.0008
602.587
32.0883
625.444
616.766
39.7554
33.3598
608.268
644.842
585.359
37.2493
606.983
35.7707
373.539
338.871
595.189
559.04
586.891
518.38
444.295
646.674
637.585
33.9746
476.4
619.698
33.6041
111.48
603.415
356.136
605.626
33.7383
592.683
393.199
32.5558
628.999
593.215
33.459
595.162
582.772
643.674
584.643
595.583
32.6738
432.26
33.4776
584.128
643.122
424.657
607.977
586.989
623.627
614.53
33.4236
344.489
130.598
43.4503
58.6814
33.5697
595.227
525.482
588.94
595.63
644.948
35.3626
623.979
586.737
37.7322
576.673
610.427
478.688
453.627
604.982
546.386
603.257
431.017
601.205
595.352
611.3
639.414
430.826
626.706
33.403
32.9339
605.863
611.518
36.6978
624.935
617.602
33.9338
636.797
651.736
444.692
586.015
427.118
33.2964
606.242
596.26
36.1472
515.421
565.247
173.829
641.368
444.986
530.334
291.897
562.138
34.6883
520.207
545.402
635.024
603.658
34.6483
640.388
609.231
105.598
34.3221
595.097
653.83
581.537
592.642
605.446
37.4963
601.994
40.2153
632.953
33.9661
33.2041
639.088
79.5762
632.309
34.4381
372.346
623.041
644.771
648.995
603.062
37.1929
602.279
551.435
567.939
62.0386
639.695
620.532
577.853
33.6487
41.9448
569.257
75.257
35.8598
426.965
439.817
639.509
533.22
468.801
611.638
33.0481
630.905
395.655
383.479
603.78
415.918
565.813
33.1145
504.94
586.1
653.108
604.481
648.302
399.757
620.892
33.0151
656.226
60.3977
32.4262
586.763
590.08
596.85
54.4885
33.0258
619.425
403.383
601.534
611.409
587.155
414.727
43.7227
643.659
33.6543
637.262
309.809
488.95
601.748
582.519
42.5162
42.4066
32.7765
33.9932
39.4727
600.926
34.6094
38.6367
33.0151
166.983
569.8
34.9358
622.915
33.254
634.495
60.5202
49.06
36.2291
577.561
540.276
622.472
443.342
454.919
584.049
616.023
648.167
600.054
551.307
639.205
594.482
35.6343
596.629
580.442
37.2076
426.702
34.9149
449.357
40.6166
616.367
547.283
603.948
33.7987
42.5051
590.759
548.96
32.9827
49.073
596.447
39.3143
34.141
596.897
33.6851
596.058
565.554
591.289
638.706
568.446
659.315
35.742
613.02
587.355
32.7179
638.952
606.69
616.766
37.9956
597.157
601.005
35.0441
33.3337
35.0052
453.168
583.406
34.3069
36.096
662.96
587.126
407.481
442.962
611.955
431.91
590.783
598.599
606.562
493.48
32.5007
40.7396
346.814
408.583
610.575
36.0074
607.185
441.776
520.486
627.71
593.537
641.425
605.944
658.561
32.3381
317.057
65.6554
46.433
627.554
592.459
605.846
393.15
569.998
586.448
436.672
34.141
603.145
32.1066
543.249
602.636
651.575
33.8913
39.7219
546.323
632.983
576.175
624.662
644.859
613.287
612.449
606.514
602.028
33.1446
635.315
476.055
607.997
407.04
591.067
63.4791
584.421
617.587
35.8586
607.372
32.6196
576.971
32.1531
34.9709
40.8061
591.61
572.407
514.223
34.7826
597.866
32.2966
598.115
604.452
47.5885
586.761
540.569
401.856
490.226
622.108
637.91
650.764
490.28
500.222
34.2462
547.134
34.1828
571.504
638.144
318.536
70.702
411.497
625.173
572.995
34.8673
581.889
348.478
656.362
618.423
602.918
274.758
576.958
444.251
577.946
411.845
34.0248
409.214
60.1997
37.1351
34.9046
36.2663
32.4261
334.832
588.491
605.633
569.803
604.131
614.769
607.848
606.846
624.736
639.843
199.059
34.1783
444.969
629.811
555.483
608.024
463.459
656.907
663.009
40.7793
615.259
638.85
452.345
638.34
415.632
475.377
588.986
592.636
606.265
34.594
607.599
37.4101
31.5514
608.478
586.793
592.629
589.587
603.13
613.328
624.346
36.2594
326.467
598.389
639.556
38.6388
569.643
364.985
604.148
582.557
570.796
671.065
36.858
262.943
631.103
399.518
35.1906
578.87
370.035
316.823
34.4868
587.887
70.7724
599.712
598.144
111.411
469.174
615.667
620.158
539.988
502.46
507.379
37.6947
628.683
396.678
33.1287
613.792
456.5
415.721
338.162
417.21
424.222
594.142
633.953
588.17
33.9091
78.9901
547.564
585.6
649.892
595.684
445.555
620.674
475.005
588.165
301.227
35.8191
570.045
41.245
589.333
295.3
601.47
576.922
576.315
599.078
490.345
99.5321
632.886
629.128
553.03
615.38
35.3805
601.391
609.769
34.6186
403.85
597.652
591.958
34.0513
409.852
524.896
423.336
537.987
615.644
651.919
601.45
577.647
42.5865
34.1502
602.898
653.501
35.4185
536.281
522.635
606.622
105.904
358.621
386.328
388.812
606.408
588.007
583.498
35.257
434.383
587.167
37.1209
636.096
32.7283
34.851
573.207
599.373
401.949
588.872
33.9086
620.644
36.0075
613.722
434.456
611.507
606.333
35.8024
34.0437
584.264
599.752
603.425
610.635
600.842
601.579
626.998
571.722
33.6308
532.936
572.076
482.864
460.153
33.1175
44.0942
573.222
604.889
645.633
83.5417
622.973
597.397
572.164
458.592
350.96
59.6965
625.014
32.4858
509.694
616.164
539.813
586.336
516.325
558.499
581.931
532.019
633.433
589.283
585.408
459.361
33.5632
34.8186
99.9442
335.891
637.51
588.36
33.7941
575.195
568.755
589.429
657.038
418.037
626.896
631.312
39.6335
473.307
611.714
622.592
560.415
647.051
34.6549
580.148
33.5049
542.935
606.954
552.003
304.575
532.555
598.902
595.415
583.613
37.1794
601.713
352.362
397.22
604.129
594.214
538.235
622.467
624.199
35.0739
608.651
582.138
32.9909
407.805
586.618
648.135
381.591
369.786
574.118
85.1151
596.364
605.776
454.795
593.902
534.195
456.894
586.08
661.302
37.5498
649.517
633.825
605.784
518.916
621.102
79.4964
605.335
595.879
660.235
605.398
484.524
38.976
37.4426
45.294
603.156
33.1309
621.714
348.486
590.505
582.941
580.49
423.374
590.74
625.549
614.161
33.2869
575.36
52.0594
595.82
605.041
596.223
605.522
617.643
381.122
648.945
589.781
435.806
33.0547
38.8969
634.963
601.888
507.53
591.09
52.4039
594.591
655.711
611.579
44.0115
409.87
430.088
423.523
610.355
579.428
384.67
55.323
653.12
568.415
36.1963
553.013
583.116
583.805
660.615
478.605
603.439
34.1551
602.443
630.848
561.634
579.546
592.906
605.658
509.116
595.444
584.098
387.791
623.561
529.4
605.746
589.846
608.017
37.2958
315.925
594.184
360.956
538.179
444.741
33.232
609.356
568.819
35.9405
605.943
33.0286
35.0401
33.9699
82.7824
34.5851
524.903
597.175
612.883
618.725
580.187
567.723
446.344
566.731
588.303
34.7966
462.214
447.285
43.0839
585.846
34.7667
540.436
641.817
415.4
595.964
458.493
34.734
481.952
599.161
474.742
617.973
43.7376
427.755
604.981
616.52
33.8955
586.069
616.726
356.586
460.493
509.625
589.182
611.234
179.748
561.729
586.888
34.0726
647.834
490.196
423.013
40.3219
426.049
651.788
654.977
528.906
363.083
618.732
33.7467
583.857
394.257
34.7078
35.0627
519.967
475.431
33.3368
404.534
34.9449
605.341
528.718
42.782
54.4807
604.273
578.462
596.467
565.891
449.987
612.728
586.735
568.056
574.546
615.662
411.046
488.12
579.685
584.804
583.195
613.549
648.465
541.171
510.255
620.648
630.012
47.0169
609.16
33.6209
524.713
601.169
334.359
606.253
522.316
634.019
524.559
130.017
35.4635
519.885
645.567
627.033
539.243
584.982
456.723
537.038
596.414
590.662
59.4547
570.015
613.232
630.056
42.8524
590.176
595.427
571.186
458.332
560.197
603.657
33.9265
533.759
610.373
578.455
577.183
605.475
599.194
446.712
601.968
629.163
523.549
623.722
49.3244
237.194
39.2972
580.791
603.792
580.044
426.968
618.542
593.913
501.137
573.723
591.205
602.445
606.503
43.339
608.776
637.935
417.164
608.872
577.059
459.334
45.9908
35.4549
39.9537
625.44
488.145
595.234
605.825
635.165
454.924
32.5969
589.905
470.913
565.967
555.956
461.385
593.619
606.381
606.779
606.057
33.3085
605.176
551.855
321.53
530.817
587.034
551.239
624.61
32.6296
641.264
34.5605
602.237
610.586
597.874
607.534
257.845
622.517
576.785
372.807
581.321
34.1035
534.453
585.863
565.88
38.3742
574.557
597.185
605.731
577.634
33.1199
101.564
619.501