/*--------------------------------*- C++ -*----------------------------------*\
| =========                 |                                                 |
| \\      /  F ield         | OpenFOAM: The Open Source CFD Toolbox           |
|  \\    /   O peration     | Version:  v2012                                 |
|   \\  /    A nd           | Website:  www.openfoam.com                      |
|    \\/     M anipulation  |                                                 |
\*---------------------------------------------------------------------------*/
FoamFile
{
    version     2.0;
    format      ascii;
    class       volScalarField;
    location    "50";
    object      ddt0(ReThetat);
}
// * * * * * * * * * * * * * * * * * * * * * * * * * * * * * * * * * * * * * //

dimensions      [0 0 -1 0 0 0 0];


internalField   nonuniform List<scalar> 
18758
(
-4.1229
24.6404
0.332278
-6.06016
11.2973
-1.36161
-0.556201
22.7474
18.9724
58.1035
9.9035
61.4279
39.2222
1.65831
-0.740687
-0.0558183
35.2521
0.880433
-2.67203
4.27698
42.4342
-119.934
-1.34249
0.162667
-20.1814
39.5558
-32.799
-15.2455
-127.711
-37.409
71.8093
-18.1542
10.2129
193.058
4.66965
-33.57
102.789
4.0514
17.4055
0.176681
-72.0008
61.2167
-32.2698
0.265126
-0.0427888
31.447
31.8676
-69.1565
2.05334
-1.91111
12.5823
2.11155
-2.09452
-5.12953
-6.32741
54.8793
-0.635336
3.06897
-56.2865
-1.04541
0.425477
1.19487
-27.8529
-0.99297
0.417458
18.8654
-0.0667027
-1.49142
-18.096
1.7483
0.746208
283.536
-0.463125
3.83717
10.3334
118.078
37.9541
4.28687
32.5482
-30.9993
-9.50534
34.6446
10.5441
13.5234
-4.28103
-5.83387
-19.376
1.46824
-28.7801
-4.57187
-2.80745
-0.210245
-30.8284
2.40498
-0.34221
0.0430843
0.794143
-52.0402
-1.3582
0.847108
74.2425
-34.0288
-1.71901
-0.87707
20.9783
71.4987
-75.0594
-2.26298
22.8517
-12.3374
0.0466624
2.47111
2.09177
0.159175
-53.3049
-37.0877
-79.9337
3.83352
-13.3017
-6.18694
2.30387
23.0324
-4.03744
-0.51181
-0.652953
-2.87157
-0.15867
-0.963975
-163.552
0.056099
-73.1633
0.04643
22.0443
10.3511
0.494922
0.377227
22.5524
-3.45631
-39.3437
-12.9485
13.0863
10.0083
-47.8876
18.8845
-0.635786
-18.8156
15.7689
-232.19
9.30308
-1.46013
-0.364295
0.636072
-0.750836
12.2756
-65.1006
-10.7318
-29.7368
-202.538
15.344
24.9676
-18.1113
-1.23201
2.55635
16.719
-8.02624
2.35244
-0.77031
-8.02601
-0.105182
89.9389
1.1891
0.339885
-208.892
0.188582
6.89544
0.0103701
0.24374
-75.7801
44.5432
-8.15063
-0.82034
-12.671
3.27068
2.96062
-1.05502
-0.370507
-44.7402
-20.2996
2.94995
18.4197
0.73706
-0.155916
1.34379
607.557
-1.05162
2.67488
-137.517
-0.406212
3.30224
0.0341386
-3.01941
-127.931
21.8957
-0.174586
-0.0420838
2.86516
-0.753635
-3.22162
-0.194792
0.396208
0.458228
-16.3753
-2.3016
-2.81352
-11.1166
0.627165
0.1096
-21.1583
-0.372628
-78.4301
279.737
3.68461
-44.0759
-263.095
21.7375
-0.19322
7.19396
15.9274
-13.4649
-0.413184
20.2386
-13.255
12.8548
0.85992
0.599845
3.15943
34.4397
1.29818
-78.967
-0.969305
-0.615342
30.2855
-63.9379
-1.16672
-1.40255
561.957
-0.0433594
0.0609047
6.66525
0.871814
1.30275
-0.0799947
0.041597
2.96808
-0.00794229
10.535
1.49006
152.332
-0.100964
377.563
-10.2453
-0.360632
-0.357939
7.67594
-441.264
-542.608
-0.696293
-73.5403
-1.0429
4.06203
-15.4098
26.6412
3.50872
-0.0622343
-0.226914
-16.5029
19.6407
-0.0199217
-3.36029
-2.41209
-0.0134211
-0.0388223
-1.42598
14.8788
-1.58177
0.654824
0.1948
-61.9453
-0.531952
-1.13431
-1.2704
-0.195855
0.474399
-0.126558
0.219817
2.55905
-0.226415
-0.0625122
0.117364
-1.09857
-7.94585
0.725043
0.524464
-190.032
-14.0791
-0.281246
-94.2417
80.5027
1.10221
50.5886
-1.12809
-303.416
-3.66998
-39.004
-179.537
156.566
-0.401769
-94.183
-181.294
-0.17824
-33.5567
15.1754
-1.89331
0.918602
-1.10062
0.289329
0.182099
0.065022
-0.369013
45.45
-27.0147
8.29991
0.834166
0.960846
0.00985444
-0.2636
-6.37438
-4.48079
19.6071
2.04164
-7.26052
8.14215
16.9127
-196.164
-3.30313
-144.198
-8.3368
-0.416511
-18.9898
-21.4308
103.879
14.5596
-456.707
-0.239826
0.41436
173
-17.6169
5.83067
-18.4093
-3.70929
-0.24811
-97.4737
375.532
25.2037
21.1417
451.909
0.326838
-12.5719
-12.2611
-81.0028
1.66948
-85.8748
1.71919
136.876
-78.6283
-592.762
0.0750679
38.9619
-230.115
14.2825
20.4287
0.347543
0.422644
4.75419
11.4323
29.9252
-13.4743
-0.44916
1.96422
81.758
-10.6253
-0.0121775
17.2808
-9.36975
-0.204001
2.21153
-3.35743
-0.561673
-0.221035
-1.11549
2.74086
36.4513
27.043
-28.4512
622.293
-226.676
-1.024
-8.52838
-165.57
2.67392
0.948653
-29.1086
8.90403
3.35242
13.0112
-43.6317
4.54944
3.43821
10.5587
-0.213468
-8.08577
1.61965
4.41477
-270.923
7.54066
0.188449
6.96003
-25.5014
-0.394399
3.65556
0.0523189
7.88615
-0.209438
-0.130396
24.9156
-18.3147
0.115046
0.262961
6.65469
14.6435
14.7237
121.635
-0.444136
23.6812
1.2392
-5.60556
3.67742
-0.208714
70.9897
-0.711141
17.3081
0.559932
-313.363
3.02996
-0.606138
0.635432
-5.86463
1.13963
-19.5767
4.66184
0.0143849
1.37316
-0.194444
-1060
-4.9527
-0.00375256
-23.7564
314.034
-56.5572
-22.5042
-411.895
-27.6518
3.83346
-129.123
40.5313
15.5207
12.1489
-74.3492
-22.6532
13.5008
0.866622
1.29991
-0.0573967
-0.304805
0.136341
0.13221
13.9267
0.336607
-0.40567
-10.2157
0.196159
0.163428
0.129889
4.42084
-33.2895
32.0458
0.852158
18.3302
0.68032
-28.8326
-27.8887
-5.21202
115.188
-0.154615
-0.298942
-4.82219
8.83032
-14.6437
-0.120492
6.03955
13.9372
-0.0220729
1.00043
-11.4694
-16.1977
-36.3556
-8.73017
18.5073
-1.39696
-0.500678
-0.0347244
0.00624788
0.430721
1.11051
0.0394727
-7.4728
0.79563
1.59135
161.9
0.744522
1.05759
0.614406
-10.5514
-50.7634
95.5916
0.686787
32.859
40.3127
25.6967
-1.20672
1.97901
1.93232
-0.409657
-0.867149
-1.90477
-1.30286
0.0512807
0.496606
-2.72738
-8.08528
2.66976
0.0783505
-0.156862
-0.405311
0.220769
-1.73855
-15.9363
0.100754
-58.6849
0.577513
0.815973
185.963
-5.64888
-0.191795
-0.379907
0.875216
0.363911
-0.0686967
-5.42842
14.9202
-31.4527
2.01096
-27.7492
0.957842
-23.9192
0.274549
-0.721677
-16.4458
1.62277
0.726771
-29.185
0.411126
3.77597
22.2576
0.577082
0.305194
3.90758
3.561
16.7077
-7.5995
-0.571395
0.959073
7.69283
13.1471
-15.9512
-0.0725265
527.667
-54.2524
-36.9369
-0.972388
-1.30458
-1.538
0.384463
0.451567
-3.22177
27.1024
131.473
2.80783
-2.38667
-5.03901
23.5118
15.3901
-0.176696
-187.868
-6.47485
1.00845
32.0958
-2.58328
-0.176794
-3.10631
-77.7278
-0.092407
0.729591
2.44453
-0.345901
16.0475
160.062
0.214367
-19.4538
44.8351
-0.297522
0.584236
-1.36956
3.70629
126.081
-0.0644214
-39.8582
0.541153
-1.71291
-0.00124477
-0.384053
9.95972
-9.79966
-2.07123
-19.9454
1.82312
-0.30836
-18.4221
0.133531
-0.431233
0.386247
-0.228078
-1.61633
248.458
-23.3621
17.5093
-2.2162
0.545085
-18.7438
-0.283883
-12.0786
13.458
1.7792
16.3669
-3.9166
-0.269633
24.9573
0.164665
0.0953309
-635.821
9.16854
-17.4948
1.04901
69.7842
-1.14052
-15.8281
2.60423
26.0112
-3.67575
16.0698
15.7569
-1.77519
-1.04761
-28.211
0.305907
-40.1313
-261.264
0.87649
7.96076
40.2667
8.93447
16.3101
-16.1883
-0.573581
-0.307693
1.61491
-17.8092
19.2022
-5.5777
-26.8809
0.769869
3.65142
-19.851
0.381404
0.702762
0.481965
-0.0152446
-1.37965
-0.209621
-3.94085
119.05
-27.9181
-17.7949
-0.692221
3.02028
12.3192
2.32658
-7.51202
-9.22267
-11.1552
6.41364
3.42091
-1.75692
-10.5477
0.701854
-17.2006
-211.962
-5.15578
-0.796345
-0.241603
-13.9248
-3.26467
374.981
1.65792
5.98934
-39.9164
-1.27988
70.098
2.89879
28.1277
2.47515
2.25359
14.9246
55.6305
-0.769397
-1.94702
8.10065
1.36139
0.094119
-83.404
-2.23288
-0.776549
0.95483
1.95493
16.7577
150.512
113.565
-0.905872
-116.152
0.807114
3.50285
-33.2818
7.22852
0.0358803
-44.2915
17.7479
-0.137834
-92.8575
-0.0503963
21.5424
0.0185871
4.54111
-19.0716
3.32866
-71.4358
-0.47895
12.0928
0.0794492
-14.1519
-75.7213
13.8969
-40.6865
1.10826
2.80694
-59.0754
85.3854
-5.49575
0.737501
0.559235
-6.87689
1.65955
40.1885
-1.56577
0.863895
0.114595
-0.666305
-0.455839
0.0851196
1.03507
-32.3098
1.96166
-0.522407
-55.8351
-0.827842
472.881
50.5282
23.7968
-2.14644
-1.69302
-2.18766
0.532612
0.66234
-8.33322
-0.432986
-0.289613
0.735824
1.28122
-1.08282
-2.21418
-28.2509
23.8221
-6.53973
0.423666
32.4478
47.0666
10.7242
0.152657
-2.1502
3.46816
0.105056
-176.722
-48.616
0.113758
-101.593
-188.295
-81.8722
1.56676
32.2409
-7.34789
-0.115028
0.686959
352.947
0.620879
0.798737
-27.9781
117.075
0.539389
-0.107405
9.89935
0.455832
0.208395
-0.916738
-4.15241
-0.809423
-1.50958
1.40285
0.579773
0.0250594
-29.7861
-0.10131
-1.295
-63.7308
25.4661
-4.11133
0.661389
-0.392003
0.588171
-21.4798
-4.20215
1.05098
1.23516
-2.88482
-1.58062
16.5451
17.6897
1.12353
-1.6512
-114.863
-0.381563
-0.317801
82.8416
0.230531
7.08884
-6.2615
0.955102
-0.0967285
-1.31218
-3.51972
-13.8286
1.30301
-3.32616
2.74072
-69.5081
28.7608
-0.01447
14.4072
0.652215
12.4793
2.96739
-1.1998
-9.73102
-0.335661
8.31402
-3.10669
158.939
0.600941
-9.41029
-0.710154
0.014134
22.2986
16.356
0.144002
-7.26938
0.0979145
-5.75407
3.82799
-0.630555
-0.0737942
0.245776
22.7618
-0.739911
-0.338961
6.55519
21.8461
6.8154
47.6544
-22.1258
-0.153481
0.656596
-0.366649
-0.125899
0.189738
0.682111
-2.22524
3.63123
28.3824
-0.136834
0.173413
3.84907
-0.157144
-12.6149
141.92
0.110593
0.329045
1.92634
-18.4651
-1.18697
-159.84
-1.65512
-1.38358
28.6211
0.222671
3.86443
30.1731
-0.203981
170.017
0.749763
-1.12405
0.919129
34.9776
19.9481
34.0279
-0.481158
0.950469
-37.9306
-43.0992
-9.62885
-11.0729
-8.27111
1.64909
20.9261
-1.46531
1.50449
0.69725
-13.1467
-19.8283
1.59636
-2.959
1.03797
-6.59849
0.722263
455.664
-0.934644
-27.918
-2.55017
1.57208
-0.894824
0.420872
5.5022
15.5403
1.38806
82.5084
-0.157757
-0.2136
121.405
-0.382881
-34.746
0.697202
18.0343
0.401387
1.27666
-0.0869012
0.644575
259.318
-10.5374
5.59872
14.4048
8.72503
0.962182
53.5169
-0.33742
37.7193
-0.980778
22.352
-8.95566
8.07059
2.06435
2.32149
0.271772
1.04608
-0.110757
20.8741
17.5437
-0.259928
-4.34021
-1.50661
0.363364
-14.578
-5.0779
69.2457
1.45867
-9.15258
1.38938
-0.0413295
355.414
51.8021
2.70116
0.169564
-0.821678
8.76242
0.430378
3.33918
-5.46689
0.620051
4.18385
3.54069
-7.69329
-52.463
-0.942901
3.91307
39.2724
-13.4501
-49.6052
-151.544
4.74093
3.13519
-0.23994
4.39227
4.26906
8.89011
-7.36907
4.56045
6.85305
73.8598
0.531996
49.9265
3.93129
-2.31334
-106.857
1.68238
1.22763
-95.1907
2.73303
0.264713
-17.2564
-11.3498
1.28901
0.705888
0.0881434
-17.3518
-5.85933
-5.96945
20.6008
0.310907
-1.42132
1.08961
1.53268
-24.3369
-4.16261
1.58712
3.76801
16.0415
-0.0533544
1.30937
1.6047
-0.686722
1.31393
-0.875381
-3.08451
0.603001
67.6965
-55.9544
-75.054
-34.0668
19.2364
0.188169
-3.28187
-0.119372
-0.616103
1.2382
-1.98839
-1.14851
0.901039
-0.0834685
-14.6004
13.8115
131.285
-0.279797
2.60789
3.16688
-5.21099
0.195021
0.61683
-5.38757
0.505078
-31.5302
-22.2934
14.072
14.3365
0.573579
0.524376
-34.0233
9.15757
0.513719
178.769
10.278
-3.87902
-6.25842
27.8306
-21.6477
-0.0397593
-0.305277
2.56875
-2.13046
22.3544
125.175
0.228019
35.2364
-1.18621
8.03426
2.33264
-3.57294
4.0428
-8.75259
-37.1063
41.3511
-32.0765
-56.9989
-21.3418
1.6956
0.239768
3.01771
-4.13193
0.128179
-0.389477
-15.7593
-16.5684
-81.4824
-53.882
-42.6156
-175.82
-12.654
6.37234
-2.92084
-17.9059
-678.392
-0.477798
24.5278
83.6238
0.564096
0.393843
125.222
42.6705
0.643143
-1.04542
0.240164
45.4581
4.8668
-110.985
-44.2729
-60.7943
0.440013
0.696877
29.8627
6.27726
-26.1533
6.74428
1.54137
-19.1739
44.704
-0.354388
-111.312
3.75614
-143.652
-24.8165
8.67055
-6.25637
21.311
-1.61837
0.819786
-18.7145
-5.62354
24.8815
-0.0217877
-87.9948
26.905
0.461041
0.104792
0.404303
0.16138
14.4162
108.93
-33.2491
1.85756
-23.8182
219.381
-15.0464
3.05722
11.9877
-52.6189
5.96924
-0.828538
0.371581
1.2718
1.36448
-4.22034
-1.61247
-0.489798
-29.6512
-1.77336
0.658891
-18.8647
-1.17003
8.32101
-1.88698
0.831953
-1.14208
-19.1494
-6.83341
-79.8847
-10.4336
-287.752
4.892
22.4463
-0.224448
1.50726
-5.53937
7.72878
3.74564
-77.5767
50.5016
-57.2469
0.324584
-1.27034
-1.91491
-5.57483
0.364737
-0.938767
-18.2778
-3.09566
0.784372
-1.46404
0.70941
-132.249
8.10255
-1.81394
-0.384826
46.6632
-2.28419
-19.7558
17.1367
21.1609
74.2644
-3.00084
-1.31628
-18.2117
-58.2323
-0.0768361
0.606369
-121.714
13.6959
-99.4447
0.0702618
-10.8507
0.586042
-0.0936704
-1.20414
-7.92894
3.62991
26.3336
-1.15441
0.991824
3.59845
0.263091
-46.8184
-0.199977
-3.09642
-23.7287
-9.20829
8.16652
0.0312498
-1.36123
-3.79256
31.3377
-1.46527
-1.4658
22.2454
0.183924
-1.15965
2.37823
0.209423
-0.536788
0.440339
-1.76387
16.7686
-0.229039
-369.154
-0.364842
-1.79231
21.8565
-0.474035
115.214
-1.34098
-29.7094
0.644978
156.228
-19.3745
0.294729
-2.62225
-3.55114
6.32512
-0.194416
0.418753
2.30681
0.0183084
3.93962
55.5478
1.85911
9.43293
2.00345
-10.7377
18.9487
-27.787
-1.74875
-50.8865
-391.061
-9.82702
-0.297933
0.383962
-1.40085
0.280518
-37.8579
0.678584
0.507852
-40.1902
-0.84249
-0.92506
-1.30535
-29.9978
-2.22555
-17.7969
-1.47446
-1.26576
-10.8368
-0.875976
27.69
-0.32308
0.055449
-47.9889
61.7199
-9.27072
3.66132
-8.80091
1.9354
0.590456
-4.35823
-102.359
106.656
-0.559166
-28.8657
-50.6997
22.219
-80.0932
-0.151321
-22.5954
207.473
-0.54491
5.77918
0.0300728
-48.1353
-53.4656
-99.5154
-9.90881
74.0547
19.1935
-35.4114
0.481641
0.364213
4.7835
-21.7032
-0.00217592
0.0780332
9.50645
0.231057
-1.01452
0.643246
0.183234
9.49034
11.3311
0.679852
-3.61977
-160.072
-5.06281
-0.0437728
-40.3688
42.0457
-56.8509
1.73197
1.14655
-3.57788
7.78087
3.48828
-45.9251
-0.975208
-8.48353
10.4861
0.291351
16.566
26.825
-4.45223
-0.699385
0.570234
-0.201133
0.569016
1.13556
-90.3794
80.9268
0.701703
-3.9409
-29.3835
0.124557
1.053
-0.371975
0.690184
-1.40023
3.09417
-17.3604
-1.40692
12.0831
-57.1696
0.631828
0.505057
-7.79282
-38.6374
-1.38438
-67.8787
0.91838
0.585337
-44.322
-5.64833
-0.0448215
0.191444
-7.24693
0.114677
6.34429
-0.315999
180.368
101.842
-0.924208
-1.13478
-3.6187
-0.63154
0.710199
1.24693
-137.909
-0.422691
17.2128
-5.63599
-68.3275
-42.7218
-36.7326
5.56357
6.48728
-4.00936
1.67266
-0.166228
-8.19019
-27.8178
-31.8857
-2.76883
-3.56977
4.73812
13.3372
9.22878
0.825592
-3.44589
-2.87716
-0.881154
-55.6486
-1.62822
6.38499
-15.8973
-19.0003
146.194
1.69806
118.254
54.3957
0.0543911
-57.9489
1.49399
-0.105463
-3.80702
-133.566
-45.9864
-0.0240501
74.0753
-1.37091
-0.0283591
453.276
98.962
28.4177
0.612947
41.8189
-23.2695
-0.299976
18.8714
38.5417
-0.155652
9.56017
210.769
-2.2724
31.6801
-7.27314
0.0556028
253.911
-126.017
-112.19
182.887
0.0899039
-126.895
0.340492
0.374894
-62.6722
6.67139
7.37372
-146.55
0.453886
28.5838
8.25996
-1.77793
10.3918
-28.0983
-1.47249
3.90687
-1.34943
-1.35881
-50.7729
-551.772
11.8611
-9.14071
27.8316
-9.38909
-1.77248
1.59346
3.72792
95.7343
-38.4779
0.875971
0.173678
19.678
28.7149
18.4217
1.6289
-0.391057
12.2776
0.564232
34.4144
-143.752
0.0359823
4.05628
0.615824
-14.2534
478.019
15.8807
5.27925
24.1678
-0.749527
-0.0978756
11.6517
-0.516226
127.961
-111.654
-0.616801
0.458668
34.3368
282.39
-0.325883
-25.8607
312.688
50.1894
3.68407
0.70107
0.903965
48.7263
-1.36491
0.789961
13.9342
1.07856
0.211958
0.362316
0.445654
-0.763223
1.07749
15.251
-12.1313
-1.65763
436.967
0.0689176
13.618
2.93373
-1.69504
-30.6748
-0.828623
-1.91329
-0.819314
-6.22484
-2.73788
-0.0245164
7.85801
385.369
-9.77685
0.645545
-44.4252
63.6065
36.7828
-64.7978
167.01
1.19786
0.272161
-6.15102
-6.95114
0.059216
41.0473
-173.693
0.248974
0.545006
-8.91443
60.3689
19.1603
-69.7868
2.05182
-13.5032
0.116646
11.7318
5.67477
-97.4328
-6.52287
27.2147
-14.6023
2.01468
-41.978
0.532291
51.7905
-35.1014
0.72173
0.372576
-0.437938
28.7934
6.13578
13.6886
0.0624965
1.17414
-277.844
-92.4491
151.409
-0.0910313
-6.39943
0.597572
-0.760551
-42.3874
-11.7055
2.77058
-0.0698973
-3.8631
2.91826
-8.34652
-6.31631
-0.695676
332.259
-0.442203
-0.148068
1.12352
-1.52861
31.1487
-4.4843
0.593384
-141.952
-6.55469
-22.5338
-8.08557
39.5433
-0.382492
0.296349
1.53734
-0.395475
-24.3371
-8.85258
-26.6847
11.6879
0.00968059
13.569
-3.85042
-35.5303
-42.4244
-0.490121
13.2156
-0.417294
-0.492455
-1.12166
-0.450999
0.0271354
-0.38102
4.84995
0.243041
2.83518
0.211534
11.0084
-0.894133
-0.0392572
-102.241
-17.7017
89.8086
-1.06585
1.06507
1.6858
-0.462733
-0.739126
-17.0879
-0.439939
0.104338
-1.24697
0.424739
-2.90444
-0.830812
40.5368
-38.2915
-33.5674
47.8118
0.63093
-206.929
-21.2223
123.525
-1.37069
46.3227
-0.442441
6.44452
-0.00944403
-239.84
-47.8993
0.444737
-62.2877
-24.6775
0.075129
26.2134
5.37333
-23.9103
0.70239
2.71701
31.0516
-3.48816
-244.291
0.319808
-6.02734
-0.560452
-2.97556
2.70458
-31.241
-13.738
3.74849
5.32766
-3.78535
-4.2391
-0.260249
-5.23592
5.88934
-1.93064
2.28337
23.7297
-19.3544
-0.136796
2.61937
3.44939
5.69883
-0.619979
27.4305
0.154291
-24.3965
34.4201
9.89993
-1.30231
-1.65032
0.495489
20.2265
3.25657
-1.18575
-57.8925
2.90377
11.4451
0.821718
5.31948
-0.779303
-2.04606
21.7806
41.0422
-52.9149
-57.8701
17.358
-88.0886
-11.8158
-15.9671
-3.49502
0.775808
-0.958508
0.760568
97.6527
-0.0109003
-8.15997
0.323992
0.368061
24.585
-41.5111
-4.31575
176.405
-68.9451
2.02999
15.7149
2.521
2.69401
0.314266
4.87316
0.41875
-10.9376
11.0678
13.2633
6.10055
0.378539
-10.2292
-1.34161
11.3207
-1.73509
0.608688
-0.606832
-34.7001
-3.65414
-5.23537
13.3397
3.20346
-10.8589
48.1643
2.02703
13.0996
555.885
-1.46539
-24.0853
-0.942992
-1.21691
1.20956
195.267
-2.11738
3.05811
80.7351
12.0069
43.8587
-4.79187
-34.0227
-5.17287
-0.669067
-0.327409
-0.120044
4.66449
-0.642408
26.8185
4.48481
1.05811
-0.407143
-6.17413
-1.8131
-0.450861
0.143784
-42.4304
-11.3726
-23.8775
-0.402926
35.0269
-0.332429
-32.4236
-4.15915
-30.9705
62.022
-5.96302
-81.4597
-0.362103
0.0487525
0.400127
-0.103924
-1.72039
0.00237211
-4.36461
0.17086
-0.532575
-0.00118911
-0.755989
-0.0315381
-1.83579
6.14965
-27.2208
0.738423
45.8371
4.72671
-3.3207
4.17104
-2.48814
-33.2973
-4.65451
-54.7437
1.32153
2.40297
-22.8727
13.4368
-61.2799
14.8749
-267.329
-14.9038
91.4345
-0.194444
1.60428
-129.593
-12.7584
-17.6799
-8.44627
26.6424
525.929
-3.85512
13.1243
13.6777
6.3744
-0.703256
0.382838
4.50105
-83.5737
1.25232
-10.1935
23.3915
-60.6976
-0.0575016
-7.36269
13.3157
21.0481
-3.83095
6.94836
-6.62365
5.75829
28.3908
-1.43175
5.72325
-137.256
-100.496
36.6033
9.22397
39.8987
-120.637
-1.38111
-0.200893
-36.1966
4.24769
-12.4908
6.10742
347.218
-2.26245
-72.3814
-0.859166
-1.66288
-19.963
0.125456
14.3394
0.343964
-63.3524
-0.965713
-17.9896
-143.645
-16.9937
-13.649
1.39256
-10.1204
-104.416
5.8172
-5.3617
7.84524
0.0200488
-7.15969
-0.918779
-0.200416
87.6999
0.355519
0.844853
14.2105
7.76614
-0.841287
-6.07863
17.4017
-13.9737
1.34788
-0.751012
-12.0932
-4.84157
0.853925
0.0916203
-1.28914
32.6743
1.41581
131.01
-5.13668
0.52471
0.157643
30.6536
-66.519
-19.8259
-7.60562
0.57757
15.1385
0.402167
9.94806
-74.4129
11.1493
-8.25672
-8.41656
-1.91334
29.245
-20.1875
-61.7925
-51.5024
3.20908
1.84362
-0.663979
3.87758
-10.546
4.35809
4.70915
174.287
-0.120335
-0.1012
-34.387
0.844804
-0.590146
-38.0817
-95.1043
-0.351609
-13.1503
-39.4105
0.0961263
-0.363654
0.341785
190.559
268.645
10.8792
-8.94664
-21.7072
-10.1888
22.0583
11.0986
0.606186
3.14106
-6.00392
0.104046
-1.48172
1.89082
-16.9276
20.783
22.5898
35.5725
0.559339
0.0779525
-0.285474
-83.1817
-7.4796
47.5136
-0.496426
0.397389
90.971
-342.385
4.48618
-18.5503
-0.886409
-4.70024
-70.4004
0.383497
82.634
-121.729
-5.95998
122.779
0.391534
0.750708
-3.87546
0.41454
1.87304
-0.910521
-0.578865
-12.6236
-0.638425
-2.399
67.3083
-1.35995
-0.963269
-24.4695
11.893
0.669133
14.7632
9.35032
14.5298
-0.706821
-15.2131
9.73054
-98.6761
-1.23301
1.61478
-1.76885
-89.5289
3.21492
-0.828923
2.58453
0.696906
-58.7228
0.376865
-111.452
0.085123
-0.219956
-0.410236
9.0773
-5.75969
5.53224
-202.769
-56.1831
-7.00961
1.79646
3.75546
214.892
-4.6908
-44.8149
-392.363
-20.8297
-32.6677
-25.0749
0.724582
-44.1275
3.75768
-8.72425
0.410489
-0.639657
-0.436916
17.3858
-0.788594
-1.02426
6.63851
-30.9003
3.74192
1.91795
2.85437
-166.566
0.536522
0.123997
-0.298349
0.182297
-147.366
0.188445
2.27893
-33.8602
0.497995
44.1958
-27.5101
2.18117
-13.0962
-0.0828764
7.80411
23.1697
-140.213
-19.9146
4.72839
-2.86891
-0.120589
-57.4721
-1.55429
6.72654
-9.08535
0.322243
-8.60547
3.27724
-0.36194
3.05565
-46.9955
5.43019
27.3742
-79.8102
-3.035
-0.493536
1.66844
-85.4749
2.98685
1.63564
1.12115
1.81989
0.629112
1.13759
32.4446
13.8577
0.556359
0.621742
-71.947
-39.7859
14.9679
6.58683
-21.8207
-11.9288
-2.40729
45.7595
-1.3706
-3.39249
-438.908
131.391
4.69695
5.93013
-16.0659
-6.94598
-3.08699
6.09244
-0.00366144
-0.810052
1.60157
5.39497
0.159361
-1.10099
-36.5427
169.72
-0.780021
-1.33142
3.51922
6.60429
-54.7417
-0.0296674
8.84633
-2.73452
-1.89144
2.90586
8.66745
-26.4508
904.532
-0.940618
-10.3156
-0.694669
0.990728
-23.3967
-6.7016
0.164447
-2.74746
-3.30343
0.216066
-14.2571
-39.9841
6.9106
904.905
-0.206168
12.4919
-1.55426
-1.78609
3.05748
0.774712
39.6989
0.382582
-49.9691
9.11128
34.6772
-3.41546
13.8813
-0.263349
4.19439
0.590957
31.4832
-1.26437
3.7507
37.9733
-1.52769
-21.1539
1.76092
50.11
-14.0578
21.9797
-14.3537
0.0550037
6.49133
1.78574
-4.38249
2.3183
4.03136
18.0592
-0.53927
-0.564558
13.9145
-6.95431
0.427626
-1.21328
1.94777
42.7677
-2.97352
-15.323
-15.3378
-0.416877
11.5563
0.674121
0.678595
11.9174
-27.3256
-3.56422
-1.57276
17.9964
-0.782893
-0.53774
-0.507677
0.369439
3.8331
5.70067
-0.868085
5.36676
64.0386
-7.75969
124.654
-0.502078
-0.931387
5.04068
215.923
-0.678743
-18.6539
-0.0159302
-104.841
0.125857
11.4874
-172.745
0.392475
-3.16984
230.998
-2.38662
19.6765
244.825
4.84132
-8.69957
-40.577
-33.0136
17.4791
-6.11485
44.7136
312.944
5.31216
-4.11658
107.041
46.4825
-2.85095
-2.93229
0.505964
-0.985612
-0.531447
-91.428
-23.3923
-2.45092
-1.04398
-143.582
-2.65473
5.8463
0.501684
132.294
-53.1351
5.67301
6.15207
1.47683
13.8211
3.17016
-2.24905
142.026
-9.474
0.145994
13.4016
0.574233
-1.3115
-0.281324
175.233
-1.64281
-24.825
26.9372
-2.32003
-3.21453
18.2659
-0.981077
1.75736
-0.131038
20.0344
-0.737422
-36.3521
1.04069
3.33006
6.06111
-13.1144
-45.7038
-2.12044
-660.038
-451.418
-0.479996
-318.451
-0.282148
-134.519
26.433
-7.35631
-4.11477
-0.0518388
2.51676
-19.1758
-58.6191
50.0349
0.821417
-0.467767
0.630921
145.854
3.35976
-68.1119
-147.42
-5.83297
3.14757
2.33996
25.5313
-23.9076
-40.8773
8.59079
-2.35285
0.774717
-8.80197
0.0354785
-15.0325
6.40058
-0.125771
10.5768
-1.77418
-28.3036
-10.6823
0.698911
48.2599
0.656646
0.76523
-3.51034
13.6077
-63.7534
-1.86889
12.9993
-5.59449
323.953
0.30035
2.44116
-0.460855
-3.92382
33.4745
-60.504
-61.7053
1.25895
20.6933
-0.84627
12.1737
-0.440115
11.5322
-36.8406
3.23067
-9.63378
0.518076
19.6216
561.394
-5.25171
36.0827
1.99947
-5.68907
1.61227
-1.74758
25.0151
0.501019
0.386526
-3.32233
-38.7284
57.2645
-0.609862
-1.67038
-8.74395
-0.220114
16.0498
3.48989
-0.388323
25.5871
0.104503
0.104934
0.544205
23.64
-1.7737
46.601
5.42622
-27.599
80.0976
-58.3538
0.984734
-28.4761
11.5237
0.52364
1.57334
1.22417
0.0214632
-0.233611
-1.03645
-0.801848
111.478
3.83549
2.58458
-2.79537
-22.7962
-0.262989
3.12837
0.414133
-3.70177
-3.92638
-0.342365
-0.771888
20.0567
-92.6594
20.2589
-19.0061
5.97222
33.0333
24.9099
95.5359
44.214
-1.96911
1.88645
-0.755575
0.139549
-2.09707
-100.882
41.6829
-0.351436
0.310002
-13.3187
-2.12603
-0.496352
3.4976
-19.2324
-0.898767
-3.18933
-1.05806
-0.621025
-0.747458
-0.866561
-17.9157
37.6422
272.652
0.0855103
-0.206552
-99.9868
91.404
5.37447
-0.00701222
-2.69235
0.398121
0.130247
-40.8265
0.123809
-1.98108
-21.7057
10.5069
-54.5795
280.763
-16.9091
-36.1655
-15.9035
-150.797
21.7629
-1.94856
-213.85
12.9611
-29.3342
14.8334
2.74504
1.23364
-1.89533
-10.3158
-0.399942
-2.08026
-0.546588
0.187733
0.655817
-26.6478
1.45692
-0.286967
197.333
-29.5479
-0.730914
1.6193
0.390332
3.49175
-279.703
-16.7729
-0.605513
-14.9353
2.36757
-0.244215
-2.65014
-1.06081
-0.727759
229.34
-33.2055
-7.7376
7.90591
285.183
-34.1023
-62.8075
-2.06705
-8.26389
-12.9223
-65.5777
30.3006
-1.39214
-0.375468
-33.5992
0.167291
-16.8929
-36.0499
-52.4201
-57.4024
-7.29713
0.325285
142.114
-117.48
0.650755
140.218
-21.5283
-47.8644
-0.58281
1.66415
32.9143
145.603
-4.24621
-0.108264
-0.754945
10.1148
161.138
-13.9792
-19.9227
1.10987
0.0267589
-53.5152
92.3809
-0.183341
-12.1646
-353.194
0.0703292
-5.34271
40.5945
4.45503
35.8275
229.01
0.283073
-2.17816
0.722679
-6.51515
-71.7982
-2.39868
1.88757
270.565
-78.2051
4.94415
-7.86252
-2.29598
16.1357
111.513
-0.0999616
-160.025
1.50239
0.194927
-1.76273
-141.213
-28.7632
80.1079
-32.1381
4.89622
18.8995
-41.1619
-146.947
-54.9225
-29.5071
-33.2857
0.409889
-1.307
-21.9296
-72.4207
-2.71486
-369.445
-72.2037
0.0976605
-87.7743
-1.42726
0.112513
0.864865
-28.0973
8.80424
4.89352
-28.6003
118.042
-15.5927
3.89137
0.670564
-0.836035
-1.34854
-16.9923
153.075
-6.49975
2.02808
-3.18609
4.83728
4.5006
-26.298
-1.28594
3.56883
-74.1214
2.77033
2.58199
-447.662
-1.62487
-26.703
-0.23492
-28.6724
0.890027
1.82448
-46.5767
3.07031
-1.27728
-157.611
-2.22637
1.79086
-20.7994
3.26311
-280.647
-1.19134
-48.9173
-89.2385
415.829
12.5175
-48.3231
3.66486
-295.148
-38.6125
4.06501
0.637927
-84.2231
34.8189
8.62631
46.8668
3.54404
-0.0108683
2.14467
-38.1439
-110.759
1.80458
-6.49561
-0.214779
0.0943209
-1.00563
-0.322332
101.728
33.9191
-0.189754
-47.1796
-0.0301061
-23.7488
-112.161
-3.5256
-1.67971
8.82375
-8.46906
3.29437
-1.56598
1.54496
-12.2106
-225.051
0.612742
-111.374
131.803
-9.60294
-1.05425
-65.0109
-27.6589
-63.2158
9.53601
0.626868
0.851194
7.29851
-96.6932
53.4458
12.9093
17.5116
12.892
-0.817604
-38.3932
-59.0234
-83.3843
-0.174889
33.095
-20.3441
-45.7184
4.09539
-0.450094
0.0757621
-0.535331
-0.0612105
-0.239775
-0.407644
0.0739119
-63.1518
2.37658
-20.5909
17.7384
-0.635592
-1.45811
20.503
1.60817
-66.0735
0.0901142
0.157723
-70.6283
-53.9785
-4.22391
3.5563
0.0835092
-202.611
553.664
4.49536
-0.433513
4.80163
-6.93585
4.88543
0.11287
-78.7819
-1.6063
111.601
-3.56483
-28.3541
-0.392618
-48.5067
685.033
0.495032
-0.241157
0.128365
-10.6143
-26.5571
-4.20663
-1.43547
-30.6686
67.5085
-49.4796
4.45634
36.6559
209.508
-110.375
-285.73
-73.4179
15.4508
0.0595305
1.46633
-61.7262
-41.8839
327.097
0.606801
-6.66349
7.76613
-57.3397
-60.4523
-56.2589
2.10319
20.4439
2.28959
-49.7617
-1.07149
-458.867
320.437
-31.4384
-0.241498
4.7136
-37.7922
-70.1323
0.629913
17.209
-0.624915
-305.529
11.1844
-3.94453
-59.7791
30.4091
0.306381
1.63894
0.693691
0.798616
42.8703
-14.6847
0.206519
23.8827
-122.134
-19.3957
-4.88631
3.19828
1.40926
-2.89547
0.480982
0.875751
-63.9231
5.85742
-63.3264
-0.628108
-28.21
-33.3623
58.5969
-19.0547
0.0649542
102.421
-35.5309
16.0997
9.65078
0.343716
57.0653
-0.439587
9.46288
-40.3727
9.57483
-5.51714
57.9154
0.455326
9.79999
-6.12496
7.55456
-38.4881
0.0857119
2.75448
102.077
-1.87763
-2.95037
3.82332
5.8006
22.0398
-12.3987
1.3488
-5.77139
-0.933154
-67.6477
0.0516106
14.4343
-43.4792
-38.0325
-0.0767533
0.582844
17.5643
28.0446
-20.4756
5.31858
2.15931
-0.624878
-0.143853
-1.13836
-129.11
-3.13279
42.8703
-5.29967
-2.22919
-5.05601
97.2982
-5.40011
-1.96545
-5.89768
0.0667309
0.812954
-26.4341
-0.631071
18.0119
4.34544
-1.45931
-0.700158
0.609823
-0.799915
-41.7226
-70.122
-2.59075
-1389.23
-2.42021
-0.369884
-1.91208
-49.2054
62.4599
5.79814
0.511314
9.31506
4.49374
-19.0285
-42.6759
-2.59444
-55.2465
-2.42622
-62.5589
-1.12454
-59.8126
-243.545
-2.91504
4.96375
-0.630872
-6.44712
0.486357
-0.959512
-150.123
-0.553736
0.695195
0.016682
2.72617
194.902
4.14683
11.8839
1.34367
0.183857
-0.193555
1.38545
9.29131
-0.165467
-12.5576
-31.7836
0.0185942
5.60441
-0.0190793
-43.5667
53.6446
-31.0886
11.7612
-12.3275
-25.452
1.10542
-18.3904
0.909892
2.49369
1.86226
0.168326
-5.431
-0.490396
-226.191
73.457
-1.81935
-1.99195
54.1619
5.52071
15.5183
-51.805
-89.6092
-0.395315
69.3871
-41.6793
-4.23178
-7.3435
-487.792
0.0223641
-7.16267
77.5478
-65.2367
126.354
-56.0216
-60.3279
1.1286
-0.0405464
42.5102
2.34165
47.2097
-0.810031
0.256051
11.6499
-2.12297
-7.41383
0.0425329
-29.604
1.13601
-1.96471
-38.9949
-0.713053
-14.7637
-0.361889
4.09156
-0.184686
-5.28598
-2.33684
8.61229
-1.79864
-33.6439
-0.103872
-420.192
-144.88
-23.1086
37.8948
-30.5194
-143.263
2.09639
112.06
-39.2773
-50.2176
-12.1833
6.09118
-46.3743
-6.06141
-56.3351
-5.45406
-85.0422
-4.61795
-11.2356
-45.4434
-13.0019
5.29672
39.1772
0.78034
11.2441
-36.8544
-25.829
-243.154
1.22472
-0.192679
-1.39975
95.9174
-66.0835
36.6053
9.76039
-1.20858
7.96756
-54.6701
16.5247
9.44208
-0.446362
-93.4444
-0.139254
112.754
-1.40763
-13.7527
-337.169
-30.5543
8.46848
-6.83725
1.53628
0.605342
-30.11
-52.0615
-0.334304
-1.12182
53.6827
-62.5648
-69.3528
-50.3101
29.3818
-10.2847
-3.10292
-69.1659
48.8831
-99.542
-15.2626
-0.0144891
-64.0145
9.50022
-0.555693
8.00061
-145.324
-0.744999
8.41725
0.17592
-3.48125
-0.275868
4.01824
19.4306
-7.87487
83.8978
-145.395
-0.510832
-5.6541
-3.86893
-2.94432
0.217096
-5.74065
-36.0105
-54.1384
0.590008
-5.98872
-1.72731
-1.72777
-26.5978
-1.99309
42.8656
-34.2482
-41.3075
151.593
-46.3203
-4.55773
12.6026
0.528958
3.96784
14.0079
39.4987
-3.17492
39.7009
0.0910896
-68.817
69.5033
35.881
-1.64182
5.99364
-2.29782
7.05225
0.321117
21.9574
27.3155
-1.15327
-321.279
-4.74549
-2.94222
-29.5473
72.1065
-0.312511
-2.04724
-1.29121
0.0057082
8.74783
-0.746249
60.4117
-32.574
-6.16269
-2.18355
0.0182843
8.0051
18.3261
-19.357
-13.546
-3.96679
1.74311
-2.16761
-2.26623
1.6096
-49.8913
-10.9698
32.0733
-12.2871
3.26094
-65.3417
3.13855
0.315372
0.473375
11.2046
-34.0589
191.097
7.67044
-139.836
3.75776
232.536
-3.96082
17.7787
9.4964
-9.50888
22.5238
-0.193258
-0.829345
69.5443
22.6609
-0.00335466
-0.0391963
-60.7339
-1.60493
26.9967
-6.87269
-11.6166
-2.10696
-21.7509
-0.163368
7.90256
-0.927792
9.99292
1.09504
-0.305357
-55.2109
13.0308
0.400792
56.0228
-32.0441
0.338468
5.41634
-38.4233
-0.567161
31.0518
-0.762024
-342.123
-56.2252
-26.5757
-17.6941
1.23737
8.99668
17.2889
-2.55641
37.5715
1.27363
-1.3222
212.03
-2.81135
144.337
-2.05693
-103.479
1.22104
7.2111
-61.7798
-0.368523
47.5565
48.4448
8.00944
-44.0339
-33.5682
-7.41186