/*--------------------------------*- C++ -*----------------------------------*\
| =========                 |                                                 |
| \\      /  F ield         | OpenFOAM: The Open Source CFD Toolbox           |
|  \\    /   O peration     | Version:  v2012                                 |
|   \\  /    A nd           | Website:  www.openfoam.com                      |
|    \\/     M anipulation  |                                                 |
\*---------------------------------------------------------------------------*/
FoamFile
{
    version     2.0;
    format      ascii;
    class       surfaceScalarField;
    location    "50";
    object      ddtCorrDdt0(phi);
}
// * * * * * * * * * * * * * * * * * * * * * * * * * * * * * * * * * * * * * //

dimensions      [0 3 -2 0 0 0 0];
oriented        oriented;


internalField   nonuniform List<scalar> 
27882
(
0.000674447
-0.000707987
3.35417e-05
0.00234759
-0.0033166
0.000969005
-9.49103e-06
5.36963e-05
-4.42011e-05
8.58011e-05
0.00058865
-0.000187982
0.00190729
-0.0017193
-6.84454e-05
4.32943e-05
2.51501e-05
-7.12574e-06
-9.29273e-05
0.000100032
0.00028656
4.33538e-05
-0.000329906
-0.00145153
0.00126356
-0.00115656
-0.00102076
0.00217733
0.00104555
-0.00216975
0.00112419
0.00821615
-0.035512
0.0272958
-0.0234288
0.0275932
-0.00416438
-0.000556818
0.000262147
0.000294673
-2.1581e-05
0.000119287
-9.77172e-05
7.23185e-05
-1.49748e-05
-5.73378e-05
0.0536586
-0.0454424
3.95285e-05
-8.13001e-05
-9.84497e-05
7.68722e-05
-0.000237779
0.000607437
-0.000369675
-0.00837803
0.0298555
-0.0214774
0.00570476
-0.0032041
-0.00250068
-2.44996e-05
-4.39508e-05
-2.06537e-05
5.235e-05
-3.16966e-05
0.00332434
0.0023804
-0.0024685
-0.0093459
0.0118144
0.0915405
-0.102108
0.0105679
-0.0070646
0.0119999
-0.0049353
0.00378001
0.00212343
-0.00590347
0.00191365
-0.00441397
0.00250032
-0.0297296
0.0112014
0.0185282
0.129683
-0.0381422
3.00762e-05
0.000256468
-0.00317583
-0.00587117
0.00904703
-0.000138481
0.00164175
-0.00150326
0.00346872
-0.00155507
0.00529878
-0.0287276
0.00176881
-0.0127835
0.00709553
0.00568792
8.55035e-05
-3.88085e-06
-8.16238e-05
-0.00329823
0.00327182
2.64098e-05
0.00209118
-0.002165
7.3824e-05
0.002085
0.000811306
-0.00289631
-0.000733923
0.000584981
0.000148941
-6.82866e-05
5.03955e-05
1.78913e-05
-0.0165306
-0.00710904
0.0236396
0.000557238
0.00153395
0.00671173
-0.00229587
-0.00441585
-0.00265335
-0.00582267
0.00847605
0.000561632
-0.000564824
3.19496e-06
0.0026968
-0.00165124
0.0288243
-0.0174114
-0.0114129
6.44316e-05
0.000497199
0.00133392
-0.000424028
-0.000909888
-0.00338474
-0.000539107
0.00392384
0.0134944
0.0140987
0.000310473
-9.76017e-05
-0.00021287
-0.000514895
0.000277085
0.00660145
-0.0023525
-0.00424895
6.0771e-06
0.0003044
-5.74706e-05
1.28633e-06
5.61847e-05
-0.000994061
0.000260141
-0.183318
0.106872
-0.017877
0.0473081
-0.0294312
3.98831e-06
-6.14579e-05
0.0148669
-0.0120915
-0.00277538
-2.06704e-06
-2.76592e-06
4.83649e-06
0.000166853
-0.000156126
-1.07344e-05
0.0079385
-0.0150031
-2.76368e-05
6.71669e-05
0.0091302
0.0196941
0.013876
-0.0110866
-0.00278943
2.66448e-05
6.11193e-05
-8.7765e-05
0.000763918
-0.00142585
0.000661991
0.00901844
-0.0101926
0.00117421
-0.0221451
-0.00758451
0.0277516
0.00425326
-0.0320049
0.0548955
-0.0713663
0.0164707
-0.00260809
0.00339467
-0.00130966
-0.00316186
-0.000322632
0.00348448
-0.0116403
-0.00114312
0.000151984
0.0547436
0.00042868
0.00399097
-0.00441965
0.00160235
-0.00132267
-0.000279678
-0.00327187
0.00592141
-0.00264956
-4.79922e-05
-0.000623906
-0.00126716
0.0020311
-0.0970502
-0.0862682
0.000351266
-0.00362315
-0.0325914
0.0109197
0.0216717
5.17199e-05
-7.43945e-05
2.26753e-05
-0.00351873
0.000675489
0.00284318
0.00373619
-0.00638953
0.000103525
-7.68875e-05
3.20471e-05
-1.28156e-05
-1.92322e-05
2.67254e-05
-5.12729e-05
2.45495e-05
-0.00398026
0.0022712
0.00170908
0.0221651
0.0561355
-0.0783006
-0.000118702
5.83798e-05
6.03114e-05
-0.000394046
-0.0161366
0.00166257
0.000256805
-0.00191936
-1.27016e-05
0.000179553
1.26605e-05
1.93862e-05
0.0121846
0.00268226
0.0128765
-0.0212545
0.00248969
0.00422205
-0.00976727
-0.0228241
0.0300677
0.00445691
-0.0345247
-0.0147178
0.0340811
-0.0193634
-1.89153e-05
-6.60554e-05
8.49743e-05
-0.0305169
0.0126399
-0.00206138
0.00303197
-0.000970607
-9.89218e-05
9.37021e-05
5.22192e-06
0.00222096
-0.00055839
0.0411308
-0.0221223
-0.0190085
-0.0023581
-0.00162217
0.000293229
-0.00022404
-6.91917e-05
0.0114932
-0.0437522
0.0322589
0.000683383
-0.00158659
0.000903204
-4.19144e-05
-1.52111e-05
5.71281e-05
0.0325701
-0.0048185
0.00121472
0.000387624
0.000167366
-0.000202705
3.53429e-05
-0.00151349
0.00452227
-0.00300877
0.00110503
0.000228888
0.000742009
-0.000414687
-0.000327315
-3.00513e-05
0.000197418
0.0108252
-0.0014685
-0.0093567
-0.00893139
0.00632095
0.00430559
2.9515e-05
-1.24579e-05
-1.70539e-05
0.00126294
-4.0027e-05
-0.00122292
0.00723661
-0.0171089
0.00987227
6.50629e-05
2.04397e-05
1.34422e-05
1.00503e-05
-2.34916e-05
0.0246134
-0.0101561
-0.0144574
0.00061208
0.000477861
-0.00108995
0.016308
-0.00423479
-0.0120731
0.00142565
-0.00458751
-0.00261824
0.000556858
-0.0149427
0.0217206
-0.00677793
-0.00309745
0.00131434
0.00178314
-0.0306663
0.060734
-0.00451042
0.00299692
-0.00183055
8.40534e-06
0.00182214
0.0175981
-0.00541342
0.00800145
-0.00804949
4.8077e-05
-0.00136875
-0.000800997
0.0285964
-0.0177101
-0.0108863
0.00910271
-0.00525075
-0.00385199
0.0054402
-0.0070837
0.00164346
-9.25928e-05
0.000142738
-5.01531e-05
-0.00250625
0.00070349
0.00180276
-0.00178513
-0.0015131
0.00893814
0.0470315
-0.0005694
-0.00294935
0.00438067
0.00644453
-0.00432938
-0.000518003
0.00484736
0.000978842
-0.0121633
-0.0211672
0.0333305
0.000171357
-0.000233987
6.26261e-05
0.00744946
-0.00364039
-0.00380909
0.0116353
0.00596282
-0.013187
-0.00628438
0.0194714
-0.000278758
0.000244297
3.44615e-05
-5.22201e-05
0.000223583
0.0208414
0.0131933
-0.0340347
-0.0052408
-0.0036906
0.0135804
-0.0125451
-0.00103524
0.00735369
-0.00109983
-0.00625389
-2.91052e-05
1.96162e-05
0.00274729
-0.00662029
0.00387299
4.18625e-05
1.50324e-05
-0.0464849
0.0509418
5.99779e-05
-1.66974e-05
-4.32805e-05
2.62714e-05
7.72542e-05
-0.0118996
0.00508787
0.00681171
0.00525868
-0.00843451
-4.43355e-05
-0.000288142
9.48549e-05
2.35485e-05
-0.000118405
0.00131757
-0.000127914
-0.00118967
-0.00455436
0.00116961
-0.00044346
1.62687e-05
0.0206164
-0.0303626
0.00974622
-0.00010226
4.64073e-05
5.58499e-05
0.000637676
-0.00505165
-0.00479083
-0.000714486
0.00550528
0.0109407
-0.0072045
-0.0180525
0.00300787
0.0150447
-0.000840733
0.00628094
-3.98059e-05
-6.24566e-05
0.00761508
0.00174645
-0.00936153
-0.00548432
0.0159163
-0.010432
-0.000115301
-3.25207e-05
0.000147816
-0.000200529
0.000405606
-0.000205064
0.0165295
-0.00398113
-0.0125483
-0.000138707
4.61062e-05
0.00128124
0.00965946
-0.000130986
1.29762e-05
0.000118012
-0.000265966
-8.65025e-05
0.000352469
-0.00361676
0.00799744
-0.0033885
-0.00764184
0.0110303
1.36216e-05
-7.14736e-05
5.78522e-05
6.41956e-05
-8.3107e-05
0.000860216
0.00658925
-3.27214e-06
-0.0002457
0.000248973
-0.000864495
-0.0069258
0.0043763
0.000100869
-4.99865e-05
-5.08803e-05
-0.00261359
-0.000522037
0.00313557
-0.000436915
0.000170952
0.000184346
-0.000628006
0.000443651
-0.000422831
-7.9012e-05
0.000501837
5.57515e-05
-2.90242e-05
-1.34694e-05
-5.81577e-05
7.16287e-05
-0.00318297
0.000104983
-6.16866e-05
-0.00181748
0.000641348
0.00117613
-0.0227507
0.0172664
-0.000369941
0.000161632
0.000208308
-0.00151246
-0.00158498
0.00608618
-0.00970297
0.00838617
-0.0117747
0.00010847
-0.000100915
-7.55354e-06
0.00802276
0.000995676
-0.00504286
0.00218881
0.00285405
-0.0346062
0.0224429
0.000165134
-0.000168409
0.00871701
-0.0111855
0.000186792
-0.00201734
-0.00838397
-0.0381009
1.99331e-05
-6.4889e-06
4.9198e-05
1.42486e-05
-6.3445e-05
-0.000157613
-0.000212325
0.00606434
-0.00861155
0.0025472
0.000438361
-0.00620972
0.00577135
0.0210237
-0.00372464
-0.0172991
1.09033e-05
-8.85021e-05
7.75837e-05
4.72351e-06
-7.60171e-05
7.12981e-05
-0.00216798
0.00823234
-0.00365192
0.0144182
-0.0107663
-5.90185e-05
-1.79496e-05
7.69708e-05
0.0120189
0.0165774
-0.0191198
0.014319
0.00480076
5.8088e-05
-5.8645e-05
5.57804e-07
3.74101e-07
-1.57772e-05
1.54023e-05
-0.000387442
0.000333535
5.39069e-05
-7.43501e-05
-4.43523e-05
0.00519422
0.00215947
-0.000805917
0.000738306
6.76144e-05
-8.55019e-05
0.00010135
-1.58468e-05
-0.000440076
0.000282461
-3.11046e-05
1.53723e-05
1.57302e-05
-0.0184829
-0.000321128
0.0188041
4.55153e-05
-0.000316714
0.000271201
0.0209217
-0.00704567
7.83182e-05
2.05769e-06
-8.03744e-05
-0.0230356
-0.00154688
0.00124551
0.00178645
-0.000153183
-4.95171e-05
8.91627e-06
4.91705e-05
0.00769293
-7.78466e-05
0.00184223
0.0130321
-0.0148744
-0.0277434
0.0295856
-0.000178198
2.50218e-05
0.0126561
2.21272e-05
0.000120612
0.0001751
-9.11633e-06
-0.000165986
-0.0518389
0.0402192
0.0116197
-0.0113605
-0.0119747
0.0233352
4.11017e-05
0.000133996
-4.32823e-05
-0.00012684
0.000170126
-9.64912e-05
4.22121e-05
5.42796e-05
-2.12766e-05
-0.000401571
-0.00123105
0.000705962
0.000525117
6.84014e-05
3.65804e-05
0.000775563
-0.000591221
-0.000571063
1.42418e-05
9.83498e-06
-9.45821e-06
1.707e-05
5.09119e-06
-2.21576e-05
7.76261e-05
-8.36598e-05
6.03527e-06
-0.0168223
0.00692461
0.0098977
0.000112148
0.000139359
-0.000182641
0.000126792
-5.82328e-05
-6.85596e-05
0.0101483
0.00426995
5.11308e-06
7.86615e-06
-1.29763e-05
1.77734e-05
-6.3771e-05
4.75216e-06
-0.000238269
0.00030329
-6.5034e-05
0.000116216
-0.000213822
-0.000105422
6.63172e-05
3.91073e-05
-0.000104161
5.63507e-05
4.78144e-05
0.000446363
-0.000247969
-0.000198396
0.000116765
-8.29664e-06
6.3578e-05
-1.18566e-05
-3.55804e-05
1.49267e-05
-0.00303955
0.00464042
-0.00160087
4.34296e-05
0.000539543
-0.000582967
1.41775e-06
-3.09186e-05
2.9506e-05
4.17754e-05
-4.03587e-05
-0.0127526
0.0185902
-0.00583763
0.00140764
-0.00221718
0.000809536
3.00748e-05
6.47811e-05
0.0101512
-0.00699231
-0.00315885
-0.0154432
0.0283197
-0.000763431
-0.000230634
0.0099776
0.00351681
8.7913e-05
-1.02848e-05
0.0172092
0.0139292
-0.0311384
0.0122947
0.000511343
0.00633949
-0.00685088
-0.000620517
0.00440052
0.00192423
-0.00779539
-0.000135118
0.000142247
-7.1281e-06
-0.00151141
0.0525587
-0.0510473
0.00288215
-0.01173
0.00884786
-7.11615e-06
7.35356e-06
-2.30486e-07
0.00600098
-0.00548965
-0.00442598
9.65948e-05
-0.0225697
0.0048596
3.22081e-05
3.05554e-05
-6.27586e-05
-0.000147822
-0.00413157
-6.9818e-05
1.38249e-05
-3.01544e-05
0.000117377
-8.72208e-05
-0.00301333
0.00401885
-0.00100553
-0.00529946
0.00669896
-0.00139946
-0.000346875
0.00412603
-0.00377916
0.00476444
-0.0152684
0.0105039
-2.81648e-05
6.03717e-05
-0.000233239
6.52847e-05
1.30351e-05
-3.35763e-05
-6.53437e-05
8.99541e-06
-0.000248062
0.000239074
6.52501e-05
0.000219854
-0.000285106
-0.000240697
0.000284055
0.000131117
-0.000317453
0.000186334
0.000201222
-0.000192218
0.000163508
-0.000106153
-5.73405e-05
0.0382049
-0.0296489
-0.0129915
0.000238865
-0.000360285
0.000972362
0.0170788
-0.0488104
0.0709755
-6.70517e-05
3.68986e-05
0.00111583
-0.00138357
0.000267712
0.00182516
-0.00041752
0.00329623
0.00045247
-0.00374874
-0.00976544
0.0153894
-0.005624
-0.0206754
0.00898738
0.011688
0.000139599
-9.31916e-05
-0.00432134
0.00594512
-0.00162376
0.0183653
-0.0169113
-0.00145409
-0.0015123
0.00434615
-0.00283387
0.00013198
3.15176e-05
-0.00256302
0.00221615
0.000638108
-0.000476114
-0.000161995
-0.000256601
0.000841585
0.0170426
-0.0149391
0.0308554
-0.00591466
0.00815643
-0.00224176
0.00792443
-0.00867905
0.000754632
0.0079451
-0.0228842
-9.44592e-06
-0.000911452
0.000422848
0.000488595
0.000600807
0.000716774
-0.00423264
0.00187455
-0.00538429
0.0207571
0.0203737
-0.0476275
0.0392435
-0.0168179
-0.000990178
0.017808
-0.000456829
0.00372865
-0.0147911
-0.00588422
-3.16825e-06
-2.7935e-05
0.00777296
-0.00890437
0.00113144
0.00653295
0.00106215
-0.00221075
0.0011486
-0.00267827
-0.0032364
1.02991e-06
-3.0935e-06
6.80495e-06
4.5544e-05
0.00201983
-0.00522395
-0.00160902
0.0209454
-0.00689641
-0.014049
-0.0514908
-0.000348125
0.00150893
-9.52421e-05
-0.0219316
-0.0306777
0.0159599
6.61416e-05
6.18209e-06
-0.000296237
-2.85333e-05
0.00032478
8.61086e-05
-0.000530789
0.000444667
-5.25774e-05
0.00104964
-0.00099707
1.0835e-05
-5.27449e-05
0.00047309
0.000165016
-0.000109303
8.64001e-05
2.28998e-05
2.4788e-05
-7.71602e-06
-0.000101215
4.17219e-05
5.94983e-05
0.000349902
-0.000344514
-5.38815e-06
0.00158135
0.000643605
-0.00222495
-0.0140906
-0.00048383
0.0145744
0.00117848
-0.000390575
-0.000787906
-0.0183448
0.0126437
0.00570113
-0.00469933
-0.0136455
-0.0058449
-0.00089341
0.00673829
0.00615698
-0.00371615
0.00846026
-0.00474407
0.00016972
0.000276641
7.09756e-05
-3.37154e-05
-3.72625e-05
-0.00193701
0.00274832
-0.000208226
-8.80147e-05
5.89447e-05
-0.000108579
4.9629e-05
0.00251679
-0.0541438
-0.00286953
-0.00136311
-0.0258085
0.00876992
0.0170386
-2.33178e-05
-0.000293395
0.0155943
0.0226107
-3.59372e-05
-3.2349e-05
-0.000410525
0.000453942
0.000166711
-4.53646e-05
-0.000121348
-0.00873069
0.0100305
-0.00129986
-0.0105341
0.000446721
-5.44326e-05
-4.97274e-05
0.0131812
-0.00841677
0.00216489
0.000689132
-0.00285403
9.28274e-05
-7.51306e-05
-1.76954e-05
-0.00098108
0.000928508
-4.17437e-05
9.97842e-05
-5.8038e-05
-0.0147525
-0.032875
2.78408e-05
-7.35609e-05
4.57208e-05
-6.48224e-05
-4.06016e-05
-0.0194503
0.00626327
0.000840081
0.000338401
-2.95523e-05
-7.05417e-05
9.68129e-05
-0.000113948
-0.000161327
0.000275281
-0.000651373
0.000671271
-1.99344e-05
0.00792578
-0.0161727
0.00824686
0.0192578
0.000137534
-0.0193953
-2.06995e-05
5.21489e-06
1.54847e-05
-0.00431852
1.77837e-05
0.000148927
-0.000249743
0.000314995
-0.00336263
-4.15861e-05
-1.84713e-05
6.00577e-05
0.0165429
-0.00534154
-1.28688e-05
-7.83573e-06
7.27337e-05
-0.000724144
-6.64197e-06
-2.59482e-05
3.25918e-05
0.029382
-0.00862487
0.000473184
-0.000270703
-0.000202482
-7.82942e-05
-3.10125e-05
0.00186318
-0.00538281
0.0035196
-0.00116456
-0.00105261
-5.20159e-05
0.000104167
-5.21495e-05
-0.000698634
-0.000212805
0.000215345
-0.000983537
0.000768193
-5.77081e-05
7.13317e-05
-4.98411e-05
-2.54599e-05
7.53047e-05
-9.60433e-05
6.04876e-05
3.55555e-05
-0.0239632
0.0247739
-0.000810743
0.0260419
0.0036349
-0.0296768
-6.97942e-05
-7.40561e-05
0.000143838
-0.00254794
0.00122815
0.0013198
0.038797
-0.0308519
-0.00635962
-0.00553998
-0.0130851
0.00559208
0.00749304
-0.00698506
-0.0121347
-0.00608637
-0.00699876
-0.000312827
0.000129076
0.00018375
-0.00789273
0.00417657
-0.00746745
0.00237228
-0.00112059
-0.00125168
-0.000295108
0.000325181
0.00353388
-0.00535136
-0.00979681
0.0142972
-0.00450039
0.00305652
-0.00567477
-4.04361e-05
7.20062e-05
-3.15627e-05
-8.75338e-05
-5.40024e-06
3.0939e-05
-2.17574e-05
-9.17892e-06
-6.08472e-05
1.9259e-05
1.85204e-05
1.24229e-05
-1.33317e-05
-2.60195e-05
0.00808282
-0.0145426
0.0064598
4.67316e-05
6.67482e-06
-5.34046e-05
-0.000123827
0.000145294
-2.14704e-05
0.00144331
0.000675486
-0.00211878
7.56399e-06
2.19512e-05
4.46211e-06
3.28743e-05
-3.73345e-05
7.5859e-05
-5.3912e-05
-2.19493e-05
0.000592947
-0.000377596
0.00242903
-0.0122258
0.030002
-0.000146544
-0.000114581
0.00120402
0.00149278
-1.85711e-05
5.85537e-06
1.27166e-05
0.00111189
-0.000749203
-0.00036269
0.0020216
-0.00618171
0.00416011
0.0316846
-0.0199932
-0.0116914
-0.0010311
-0.0157868
-7.44393e-05
6.09712e-05
6.6655e-05
7.29496e-05
0.024222
0.00181987
-0.00803178
0.000374576
9.66587e-05
-0.000471233
0.000225098
-0.000219023
-0.0153446
0.0247757
-0.00943115
-0.00518699
7.47761e-05
-1.56575e-05
-2.91543e-06
0.0186779
0.00703349
-0.0257115
0.000254991
-0.000334014
-0.00330178
0.00472745
-0.000276487
0.00065107
0.000432293
-0.00141337
-0.000846723
-0.0017012
-1.63635e-05
5.92018e-07
-5.6644e-05
5.16153e-05
5.03504e-06
8.1286e-05
-3.57106e-05
-4.55711e-05
-6.76175e-05
3.79485e-05
2.96684e-05
-9.05197e-05
0.000255652
-9.74415e-06
6.01407e-05
-0.0145561
-0.0134618
0.0280179
8.93222e-05
-0.000130452
4.11324e-05
-0.0203826
-0.00542593
0.0338457
0.0049513
5.22344e-05
5.19338e-05
-3.64609e-05
0.000125788
5.35719e-05
-6.83928e-06
0.00105933
-0.000788786
-0.000270516
-0.000574924
0.00166833
-0.00109342
0.00758014
0.0116776
0.000100956
-4.25758e-05
-0.00445245
-0.0136001
-0.00161563
-0.000437182
0.00205279
0.00138815
0.000984143
-5.91446e-05
-0.00025834
0.000317482
0.00034926
6.40026e-07
-0.000217723
3.30679e-05
-0.000135655
0.000102578
0.00013927
-0.00010621
0.00696566
0.0022204
-0.00918607
0.0268319
-0.00621548
-2.43125e-06
1.22695e-05
-0.00021736
-0.000294714
5.64286e-05
-0.0125828
0.0334241
-0.000125069
7.97048e-05
3.75875e-05
1.81624e-05
-4.46072e-05
3.12706e-05
-0.000145609
2.17793e-05
-2.25729e-05
-0.000126966
0.000149544
-0.00023366
0.000174514
0.000364529
-0.000195836
-0.000168717
-7.2682e-05
0.00364655
-0.00599902
5.19212e-05
4.90344e-05
6.88327e-05
-3.76922e-06
-0.00127485
-0.011242
0.0125168
0.0195338
0.0121508
0.00093754
-0.00343166
0.00249411
0.00063098
0.000111031
7.53151e-06
7.85154e-05
-8.60479e-05
-1.06458e-05
1.51097e-05
-9.88467e-05
1.9511e-05
7.93302e-05
0.00116124
0.0186759
-0.0104288
-0.00824703
-0.00287675
0.000662804
0.00221395
0.000290427
-0.000114453
-0.000176005
0.03474
0.00325566
-0.0379957
-6.36756e-05
7.1199e-05
-0.000209824
0.00132566
-0.000671293
3.83231e-05
-0.000113614
7.52908e-05
-0.00171855
0.00190534
1.22792e-05
-3.99164e-05
-4.23182e-05
-2.52995e-05
0.106659
-0.0792942
-0.0273645
-5.31623e-06
5.90108e-05
6.65241e-05
-0.000267063
-0.00154729
0.00947172
-3.64592e-05
-1.1027e-05
4.74817e-05
4.85056e-05
-9.9225e-05
5.07172e-05
-0.00744945
0.000154757
0.000138471
-0.0163468
0.0109618
0.00538496
0.00138066
-0.000502433
-0.000878232
-0.000122082
2.65476e-05
9.55347e-05
-2.63968e-05
1.97575e-05
-0.00288902
0.00331769
0.000290156
-0.000185691
-0.000104451
-0.00166682
0.00109191
1.08535e-05
4.91317e-05
0.0477927
-0.0130527
0.0104686
-0.00279479
-3.98221e-06
3.21518e-05
-2.81665e-05
-0.00578619
0.00274663
0.000105035
1.75904e-06
-0.000106799
4.39818e-05
5.689e-05
-6.95343e-05
6.37173e-05
5.81436e-06
0.000507305
-0.000440739
-6.65701e-05
0.0205787
-0.0175708
0.0115245
0.00358526
-0.0151098
-0.000134812
0.000439522
-0.000304709
-3.78534e-05
-0.00037187
0.0181623
0.0200529
-0.0382153
-0.0256754
0.0103308
4.25146e-05
2.06148e-05
-6.31306e-05
0.00804782
0.00210333
-0.000237002
0.000579219
-0.000342226
-0.00434652
0.00131525
-5.2314e-05
-0.000931449
0.00289277
-0.00196132
5.32558e-06
-5.48749e-05
4.95514e-05
0.00027553
0.000231779
0.00381249
-0.00237987
-0.00143263
-8.52019e-05
-3.68828e-05
6.75958e-05
-6.22682e-05
-5.37485e-05
-7.13188e-05
3.8522e-05
-6.84588e-05
2.99385e-05
-0.000564095
0.00108297
-0.000518877
0.0162704
0.00217841
-0.0184488
-7.27646e-05
-1.27357e-05
0.0300224
-0.00710483
0.00617339
0.000477958
0.000642095
-0.00112005
-5.9366e-05
-1.01648e-05
-1.48472e-05
-7.29785e-06
2.2145e-05
-0.0318912
0.0115087
0.00531606
7.19771e-05
-0.00156149
0.00314292
-0.00158142
-0.00330933
-0.00377438
0.00110196
0.00586369
-6.37975e-05
2.20544e-05
-4.45713e-05
4.95172e-05
-4.95065e-06
-0.00043502
0.00212869
-0.0135153
0.0113866
1.00394e-05
9.49957e-05
0.000113219
0.00171194
-0.000135291
2.70927e-05
0.000108195
1.23306e-05
-0.000674871
0.0011635
-0.000488631
2.45768e-05
6.82495e-05
6.94743e-05
-0.00153285
0.000769416
-3.24636e-05
2.23935e-05
1.00695e-05
0.000277946
0.000771699
0.0164079
0.000162732
-0.00188128
0.0284841
-0.0360423
0.00755824
-0.000540115
-8.7894e-05
0.000116787
-0.0320015
0.0434948
-2.29748e-05
6.05646e-05
-0.00353293
0.0074734
-0.0220295
-1.84957e-05
-0.000116802
0.00178469
-0.000517494
-0.0012672
-0.000174937
0.00959713
-0.0197532
-3.2322e-05
7.41847e-05
-0.0109311
0.00019191
9.8251e-05
0.100765
0.0289176
8.45572e-05
5.72658e-05
-0.000141825
0.00728296
-0.000513152
-0.00676978
-0.000825585
-0.00501931
-0.00377514
0.00226283
-0.000306611
-0.000133465
0.00599496
-0.0185401
-0.000690469
0.000453459
-0.00696946
0.00356154
0.00340792
-0.0271532
0.00164555
0.0255077
-0.0230899
-0.0024602
0.0255501
0.000116478
2.28431e-05
-0.000139341
0.0404257
0.0190202
-0.0594458
-1.64314e-05
-0.000114552
-0.00304572
0.00148424
0.00487073
4.73643e-05
-2.92325e-05
-1.81249e-05
-2.5857e-05
0.00125154
-0.00122576
-0.026413
-0.00826393
-0.000777095
-0.00055415
0.00133125
0.000326317
3.82074e-05
2.99906e-05
7.55251e-05
5.64727e-05
0.000225214
-0.0022402
-0.00255064
0.0110178
-0.00629758
-0.00472025
-2.46137e-05
-0.000207355
0.000231972
-0.0541238
-0.00050558
-0.000178833
0.000169709
-0.000273014
-0.000295956
0.000568964
0.000154795
-2.73975e-05
-0.000127397
1.50916e-05
-6.82167e-05
5.31222e-05
-4.40005e-05
-3.96573e-05
-1.87855e-05
5.73084e-05
-0.0183437
1.45479e-05
-1.12339e-05
-3.31087e-06
0.000299446
0.000800272
0.000274945
-0.00107523
0.00284036
-0.000442417
0.00236984
-7.63508e-05
6.67339e-05
9.61063e-06
-0.000197653
9.70487e-05
0.000100606
-0.00419437
-0.00060003
0.00479437
-0.000169204
0.00012118
4.80197e-05
-0.00554964
0.00767833
-4.25417e-06
0.000456134
-0.000451853
-0.000259915
-0.000256118
7.7874e-05
0.000178233
0.00015867
1.15724e-05
-0.000170257
-0.000121354
8.88315e-05
-0.0214128
0.000134829
1.99656e-05
-0.0218037
0.00896834
0.000246091
0.0169749
-0.0249913
0.00801633
-7.10025e-05
0.000109327
0.00305493
0.0010711
0.000227392
-0.00100448
-0.0382606
-0.000367308
0.038628
-0.000151227
0.000539488
-0.000388254
-0.0116586
0.0204286
0.00147381
0.000539543
-0.00201336
-2.49849e-05
-5.99717e-06
3.09866e-05
0.000268964
0.000531302
-1.14717e-06
-4.03168e-05
4.14657e-05
-0.0094319
-0.0177213
-0.000110867
-5.83339e-05
-0.000158223
0.000145559
1.26798e-05
0.0142666
0.00530348
-0.0195701
-0.00176601
-0.000912261
6.89189e-05
-4.40487e-05
0.00014596
-0.000101914
-0.000409048
-0.000240798
9.97692e-05
0.000141028
-6.46071e-05
-1.17477e-05
0.000218488
0.000422859
0.0116922
-0.0118281
0.000135889
0.000299309
9.85806e-05
-0.000397881
-0.00011966
-0.000121138
-1.33692e-05
1.22218e-05
-0.00476572
0.0126915
0.0162939
-0.00476942
0.00787297
0.0100795
-0.0179525
-2.9073e-05
9.04228e-06
2.00347e-05
0.0042055
0.00326998
-0.00747547
-0.000109434
-4.87831e-05
-0.000156551
0.000721321
-0.0152308
-1.93715e-05
6.18874e-05
0.00163048
-0.0160931
0.010899
0.00519413
-2.97798e-05
-6.67112e-05
0.000465266
-0.00101089
0.000545618
6.4408e-05
2.86743e-05
-9.30658e-05
0.00121809
-0.00125813
4.34167e-05
-6.27893e-05
0.000366633
-0.000106011
-0.00026062
-0.0011
0.000401374
-0.000193234
1.44005e-05
0.000942957
4.06101e-05
-6.05561e-05
1.99445e-05
0.00821615
-0.0176767
0.00946059
-1.23836e-05
1.2356e-05
2.92476e-08
0.00053529
-0.0034138
-0.00695128
-0.00759133
-0.00174723
-0.00129849
6.35406e-05
7.43437e-06
1.47311e-05
0.000143938
-8.14465e-05
-0.00341597
0.00349742
0.00774423
-0.00353873
-0.00364406
-0.00332541
-2.15477e-05
1.21142e-05
9.436e-06
2.08313e-07
-7.80308e-05
7.78143e-05
-4.05665e-06
-0.00142179
-0.00359999
0.00478236
-0.00149107
0.000435082
-0.000135764
7.13284e-05
1.8525e-05
-8.98492e-05
9.40031e-05
-7.17165e-05
-2.22661e-05
-9.7808e-05
5.37594e-05
-0.0011133
-0.000419545
-3.6959e-06
7.44514e-05
-7.07524e-05
0.00438222
-6.66027e-05
2.26036e-05
0.000100214
-5.1708e-05
-0.00186657
-2.32387e-05
1.6146e-05
7.09582e-06
0.00173526
0.0125837
0.0100495
-0.00451589
-0.00553358
-0.00319494
-0.0193748
0.0192264
-0.00613277
-0.0130936
0.0136749
-0.00198273
9.08981e-05
-7.16453e-05
-1.92606e-05
-7.41415e-05
-0.000301712
0.000387792
-0.000239743
0.000338328
-3.75093e-05
6.41265e-05
-2.66147e-05
1.4701e-05
2.49973e-05
-3.97022e-05
-0.000105109
8.95816e-05
1.55295e-05
0.000103271
-2.77388e-05
0.0236227
0.0236855
-0.00411519
0.00613678
-0.0141931
-0.00190006
-0.000406788
0.00055356
-0.000146771
-6.1102e-05
8.83458e-05
-2.72474e-05
0.000245974
-0.00186162
-0.000251056
0.00183242
-0.00571841
0.00605451
-0.000336069
-6.08356e-05
1.08471e-05
0.000671977
-2.21236e-05
-0.000649846
0.000255683
0.000110948
-0.00117319
0.0055001
-0.00432692
-0.0207863
0.013574
0.00721231
-0.0481098
-6.1868e-06
5.59674e-06
5.94698e-07
-0.00239823
0.000865057
0.00759519
-0.000528627
0.000993896
0.00104259
0.0139701
0.00707632
-0.0210464
0.000153058
-2.59909e-05
-0.000127088
-5.76643e-05
9.9875e-05
6.69905e-06
6.2134e-05
0.00945851
-0.00419984
-5.64976e-05
5.07681e-08
5.64476e-05
0.000140404
6.89195e-05
-0.000209331
-9.2906e-05
0.00547132
-0.00537841
0.0147689
-2.6006e-06
7.86422e-05
-7.60473e-05
7.52463e-05
2.61036e-05
0.0249955
-0.0147477
-0.0102478
6.63074e-05
2.16073e-05
2.16031e-06
6.67217e-05
-6.88844e-05
-2.7507e-05
8.87302e-05
-6.12197e-05
2.75688e-05
2.18788e-05
-4.94462e-05
7.81145e-06
-8.19088e-05
7.40839e-05
0.000540942
-0.000990891
0.000449944
-0.000953434
0.00168603
-0.000732621
-6.03368e-05
0.000101995
-4.16679e-05
-6.58342e-06
-4.9909e-05
0.11403
-0.0733931
-0.0406368
-0.00463624
0.00346304
1.00454e-05
-0.000108496
-0.00387278
0.00740666
0.00875971
-0.00576463
-0.00299506
-0.000362059
0.000289724
7.23512e-05
-0.000360376
-0.000107997
0.000468372
9.37859e-05
-0.000333525
-1.54997e-05
-1.56801e-07
0.000509163
-0.000395531
-0.00011362
-4.33532e-05
-0.000318694
-0.00010078
0.000100305
4.70131e-07
-2.78796e-05
-0.00010778
0.000695975
-0.00015503
1.14404e-05
-7.69198e-05
6.54843e-05
-0.0105419
0.0248085
-0.000666391
-0.000564644
-0.000106052
7.35747e-05
3.24768e-05
-6.06715e-05
2.36386e-05
3.70338e-05
0.00339093
0.000608381
-0.00399933
-2.22365e-05
0.000133968
-0.000201836
6.78691e-05
0.0155835
0.0134883
-4.68505e-05
-1.30683e-05
5.99231e-05
0.00125567
-0.00210239
-0.000765652
-0.000334331
0.000114162
-3.38515e-05
-8.03058e-05
-1.80824e-05
2.89579e-06
1.51908e-05
-7.12291e-05
8.87486e-05
-1.75179e-05
0.00079421
-0.000186789
0.00067565
-0.00155761
0.000881957
1.98305e-05
-6.96707e-05
0.00581867
0.0134077
0.00197452
-0.00134723
-0.00654547
-0.0283173
0.0422874
3.80228e-05
5.5965e-05
-0.00876507
0.00432469
0.00444038
-4.58933e-05
0.00661291
0.0181628
0.00018884
-3.16323e-05
-7.55958e-06
3.91905e-05
-0.00641345
0.00591341
0.000500044
0.00358289
-0.0220658
-0.000257179
5.84801e-05
0.000198699
-0.014668
0.0364627
-0.0217947
-0.00236958
-0.000119863
-1.80628e-05
0.000137926
-0.00113397
0.000459081
-4.63868e-05
0.000180354
-7.14671e-05
0.000587051
-0.00115114
-0.000824354
0.000319784
0.000504581
-5.07956e-06
-2.03293e-06
0.00111727
-0.00023139
-0.000885877
6.07494e-05
-6.12879e-05
5.35742e-07
0.00010816
-0.000132773
-0.0038078
-0.002117
-0.000457777
0.000199436
2.45208e-05
-6.20236e-05
-2.05044e-05
2.42586e-06
-0.0219023
-7.21996e-05
1.15285e-05
1.3058e-05
0.000305434
-0.000318495
-0.00164306
0.000689589
0.0166932
-0.00830706
-0.0378754
0.0196742
0.0182012
-0.0192267
0.0189057
-0.0476037
0.0341418
-4.5789e-05
0.000103067
-0.000147551
4.44858e-05
5.77578e-05
5.64052e-05
-0.0229471
-0.00014277
-2.8607e-05
7.66569e-05
-4.80482e-05
5.02197e-05
1.93287e-05
-6.95418e-05
0.000362967
-0.000339219
-2.37484e-05
0.000386621
-0.00013093
0.012167
-0.0215989
-8.59486e-05
5.52127e-06
8.04476e-05
-4.85377e-05
-7.4308e-05
0.000122866
0.00983471
-0.0168929
0.00705823
-7.24575e-05
6.03322e-06
6.6426e-05
0.00213243
-0.0225392
0.000136728
-3.36649e-05
-9.60645e-05
3.57235e-05
-0.000777976
-0.0589761
0.0597541
-0.000322989
0.0069095
-0.00796736
0.00821318
-0.00482227
-1.06827e-05
-4.16614e-06
9.19335e-05
-9.69479e-05
5.01643e-06
-0.00659004
0.0164713
-0.00988123
-2.50957e-05
-7.36753e-06
-6.98814e-05
0.000432852
0.0194009
0.00154451
5.67376e-05
7.5356e-06
-6.42731e-05
0.0182128
-0.00952934
-0.0086835
7.58066e-05
-9.49784e-06
4.33162e-05
-1.57444e-05
-8.99038e-05
0.00203315
-0.00138956
-0.000213499
-0.000610853
0.0469857
-0.01112
-0.0358658
-2.09326e-05
8.14205e-05
4.72233e-05
-6.14625e-05
1.42497e-05
-0.0412202
0.0342393
0.00698086
-0.000392763
-0.000821209
0.00149682
-0.00104608
-0.00124784
0.00229391
0.00117228
-5.50091e-05
-0.00726262
0.00342897
0.00383366
0.00601638
0.0106768
-3.04995e-05
9.7659e-05
-6.71613e-05
-0.00206841
-3.97404e-05
2.4527e-05
0.0280575
-0.00937957
0.0347357
0.000255422
0.000466723
-0.000191191
-2.39297e-05
-6.20141e-05
-0.0121395
0.00658986
-2.90252e-05
-3.65298e-05
6.55608e-05
-0.00176772
-0.0364929
-6.60923e-05
-0.000391684
-0.0109516
0.00224359
0.00367779
-6.73274e-05
-3.77795e-05
0.00015325
-6.48287e-05
-8.84232e-05
-8.34211e-05
-1.54351e-05
-0.0294205
-0.0133208
0.0254877
-0.000129665
0.000111155
0.00515558
0.00199731
-3.08022e-05
2.43837e-05
6.41729e-06
5.76907e-05
-3.70751e-05
0.00567394
0.0125389
2.13886e-05
6.36569e-05
-8.50411e-05
0.00676905
0.00199067
-1.0945e-05
-3.02475e-05
4.11925e-05
0.000171882
0.000203901
-0.000375768
2.8614e-05
-5.67766e-05
3.51818e-05
-4.61256e-05
-1.71147e-05
6.43399e-05
4.16711e-05
-7.06964e-05
0.00462355
0.00542589
-0.00263546
0.00158937
0.00196484
0.000110635
-0.00207547
0.0013753
0.000674217
-0.00204952
0.000337621
-5.29521e-05
-0.000284669
-7.2006e-05
6.7002e-05
5.00565e-06
-0.00594105
-0.00907193
0.015013
-1.87441e-05
-5.83193e-05
7.70671e-05
0.010759
0.0362267
-4.08457e-06
5.73945e-05
-5.33102e-05
0.0538106
0.00045258
0.000606754
-0.000756287
-0.00256032
0.000201781
0.000246766
4.47549e-05
-0.000291523
5.57448e-05
5.00591e-06
0.010098
0.00371285
-0.0138108
-4.05962e-05
-3.97611e-06
-0.00309194
0.0105654
0.00586727
0.000859975
-0.00672724
-2.02336e-05
0.000327658
-0.000600683
8.03042e-05
-9.90475e-05
-1.05101e-05
2.14436e-05
-1.09264e-05
0.000671736
-0.000242044
-0.000429687
-0.00045762
0.000454291
3.32526e-06
0.0213548
-1.67464e-05
-0.000112924
-1.7366e-05
0.000170413
-0.000117834
5.68457e-05
6.09814e-05
-3.13634e-05
0.000293518
0.0260136
-0.026381
0.00792391
-0.000178186
6.73282e-05
-2.47115e-05
1.9819e-06
2.27328e-05
5.64313e-05
-0.000318094
0.000261662
8.7411e-05
0.000250215
4.41435e-06
6.00714e-05
-6.44873e-05
-7.33852e-06
-0.000263364
2.63897e-05
7.62955e-05
-0.000102685
7.47622e-06
-0.000158069
-2.73386e-06
0.00023896
-0.000236228
-0.00206486
-0.00271376
0.0047786
-0.0035964
0.000294634
-7.46677e-05
-0.00019963
0.000328706
0.0174814
-0.00323508
-0.0142463
-0.000514714
-0.000251158
0.000765872
0.0167895
0.0544187
-0.0712082
-0.0091767
6.98734e-05
3.65141e-05
-0.000106394
-0.00633088
0.0071911
1.05118e-05
3.39598e-06
-1.39065e-05
0.000241564
-9.76016e-05
0.000431136
-0.000352594