/*--------------------------------*- C++ -*----------------------------------*\
| =========                 |                                                 |
| \\      /  F ield         | OpenFOAM: The Open Source CFD Toolbox           |
|  \\    /   O peration     | Version:  v2012                                 |
|   \\  /    A nd           | Website:  www.openfoam.com                      |
|    \\/     M anipulation  |                                                 |
\*---------------------------------------------------------------------------*/
FoamFile
{
    version     2.0;
    format      ascii;
    class       volScalarField;
    location    "50";
    object      omega_0;
}
// * * * * * * * * * * * * * * * * * * * * * * * * * * * * * * * * * * * * * //

dimensions      [0 0 -1 0 0 0 0];


internalField   nonuniform List<scalar> 
18758
(
0.0236708
0.0432584
0.0221267
0.0236669
0.0252244
0.0209568
0.0212905
0.0227845
0.0248146
0.0244872
0.0305769
0.470392
0.0582405
0.0225798
0.0212695
0.0211444
0.501754
0.0209762
0.021259
0.0237203
0.401826
0.28898
0.0209587
0.0209589
0.235581
0.280006
1.06555
0.085798
0.0652914
0.120824
0.250682
1.06195
0.0226533
1.43825
0.0256141
0.109872
0.0708276
0.0252668
0.2751
0.0208686
0.152466
0.0249489
0.0446914
0.0220796
0.0213498
0.242054
0.0244837
0.0644523
2.82934
0.0234999
0.0358239
2.60991
0.0234994
0.0233628
0.152255
0.0511385
0.0207378
0.0235076
0.0578563
0.0207267
0.0215151
0.0220047
1.45106
1.94222
0.0216745
3.64677
0.0213762
0.0210862
0.0845483
0.0210274
2.45763
1.55989
0.0212181
0.0264753
0.0583901
0.244484
1.17584
0.512741
0.0248772
0.0390116
0.0796878
0.244684
0.502822
0.0410364
0.0226494
0.117906
0.0244672
0.0271518
1.44234
0.116134
2.00044
0.0223552
0.0608586
2.91096
0.0212061
0.0207459
0.0208875
0.0452149
0.536493
0.0211021
0.23852
0.028094
0.0210543
0.0207404
3.6476
0.356925
0.0661371
2.01366
1.19391
0.620287
0.0211698
1.80754
0.0246154
0.021788
0.0280674
2.18071
0.0439938
0.0209824
2.6328
0.023106
0.0212502
1.18842
0.0226573
0.0206227
1.90976
0.023414
0.0218339
0.0206308
0.123252
1.82153
0.0596915
0.0222024
0.02698
3.43621
0.0208436
0.0212751
1.15265
0.0223395
0.132915
0.0790752
0.0258348
0.422797
0.0384258
1.19563
1.88284
0.044511
3.77107
0.105018
0.0328011
2.30064
1.86039
2.24387
0.0215867
0.0257422
0.133521
1.63995
0.0582314
0.130105
0.0428219
0.0392629
2.76726
0.0208541
3.1366
3.78524
0.181092
0.0208154
0.0208085
2.43208
1.82039
0.380867
2.69643
0.0222132
0.072756
0.0217803
1.20046
0.0210688
0.021205
0.259977
0.894119
0.0219828
0.0211401
0.0234519
0.144963
0.0224268
1.95038
0.0213595
0.14538
0.0303196
2.98013
0.157033
2.34011
0.0213517
0.0542164
0.191551
0.0209468
0.0223582
0.158697
0.021573
3.01103
0.0211359
0.0216323
0.145701
0.0971274
0.021141
0.0211721
3.14603
0.0209666
0.0259913
1.82529
1.923
0.0214708
0.059115
0.0218361
0.0219622
0.0229995
0.0208402
0.0212971
0.0579266
0.020884
0.200859
0.172399
0.021384
0.0378087
0.148402
0.0989503
0.0216133
0.0609934
0.115376
2.69857
0.0209379
0.291824
0.0436339
1.19293
0.0214857
0.0209924
0.021504
0.0632152
2.65358
0.556472
0.0219137
0.0211854
0.0592337
0.105143
0.0218527
2.17078
0.545825
0.0210053
0.0206269
0.021017
0.0211042
2.73872
0.0218675
0.0212838
0.0215733
0.0211464
2.17638
0.0207593
2.50204
0.0211824
0.498991
0.024794
0.0206578
0.0210132
0.0521012
1.44355
1.30538
0.020684
0.126441
0.0215986
0.0214103
2.55845
3.43498
0.0213826
0.0208625
0.0207455
0.0228247
0.0254947
0.0208665
0.0221414
0.0225656
0.0206268
0.0223257
0.0212161
3.77174
0.0212808
0.0208424
0.0207858
0.098467
0.0207255
0.020729
0.021956
0.0220741
0.0207467
0.0214612
0.0216173
0.0215795
0.0215846
0.0229163
0.0210479
1.9116
0.0236491
0.021399
0.0213966
0.835027
0.0256651
0.0211157
0.0237429
0.355412
0.0220814
0.0494924
0.0212217
1.49817
0.141369
0.0675854
0.0645738
1.37778
0.0210383
1.20737
0.184301
0.0213948
0.0645114
0.0413631
2.30812
0.0209689
0.0210772
1.86866
0.021562
0.020727
2.02967
0.0528196
0.0274679
3.27407
0.020962
0.0207827
0.0211596
0.0217001
0.0219142
0.0220224
0.022816
0.0210211
0.0218652
0.0219043
1.78499
0.770694
0.0221568
1.0737
0.518595
0.0207137
0.0304231
0.0263337
0.262094
0.376612
0.141737
0.0213613
2.32415
0.239887
0.0308915
0.021898
0.0268012
0.0220676
0.0219787
0.15993
0.576922
0.318296
0.0697306
0.518768
0.021
0.0249129
0.0237096
0.0452194
2.75834
1.86519
1.19038
0.0984732
0.174089
0.262206
0.0212249
3.22529
0.112241
0.0278997
0.322939
0.0209997
0.0209288
0.286485
0.379612
0.375084
2.50073
1.97502
0.0219418
0.451754
0.611675
0.0211541
0.0224829
0.022822
0.022498
0.0213295
0.0221515
0.0214186
0.0227815
0.0218436
0.0210789
0.030056
0.209321
0.0268001
0.262391
0.24201
1.96272
0.181038
0.105
0.0213413
0.0209252
0.0517698
0.0224901
0.0219415
1.21063
0.0442558
0.650757
0.020743
1.7275
0.021225
0.0237282
0.0210002
3.14869
1.60524
0.425642
0.0216163
3.19736
0.0593256
0.021237
0.022354
0.0214139
1.18322
0.0215788
0.0214587
0.200178
0.0270815
0.0219591
0.0211933
0.0227031
0.0242543
1.78026
0.514133
0.0215353
3.49431
0.0210178
0.0221705
0.110196
0.0214102
0.269919
0.0216013
0.0244567
0.0220443
1.02095
0.0219009
0.0214121
2.44786
0.0262933
0.0208117
0.0247973
0.0232115
0.0211481
0.0215096
0.0221247
0.612938
2.45811
0.0216645
0.0314971
0.746157
0.251076
0.28636
0.406976
0.279916
0.0212099
0.0962598
0.0552399
0.029454
0.0226182
0.230461
0.252424
0.0255915
0.0211501
0.021288
0.0207219
0.0214056
0.0207159
0.0213883
0.0525376
0.0220474
0.0208698
0.0570549
0.0221916
0.0220278
0.020898
0.0230053
0.241775
0.459404
0.0209902
0.0331517
0.0210445
0.0267986
0.126423
2.58797
0.103736
0.0211496
0.0213701
2.46543
3.34322
0.0264324
0.0207296
1.03606
3.79038
0.0207884
0.0209756
2.63864
0.0230613
0.0835288
0.0264566
0.022573
0.0314804
0.0206314
0.0210225
0.0222761
0.0210584
0.0209091
0.0215567
0.429856
0.0208399
0.665664
0.944903
0.0208287
0.0209381
0.0222381
0.0251071
0.0268237
0.653752
0.0211113
0.147723
0.0284014
0.0293
0.0214995
0.0210127
0.0211559
0.0216825
0.0216717
2.0608
1.96473
0.0206251
0.0208854
0.022019
2.44528
0.0210452
0.0208426
0.0213866
0.0208801
0.0208066
0.021426
0.0224312
0.0211419
0.0597006
0.0211066
0.0208281
0.073884
2.68882
0.024507
0.0218336
0.0210964
0.0221512
0.0211902
0.0226463
0.456742
0.0323847
0.0220237
0.66016
0.0210849
0.0311819
0.0219011
0.0211955
0.0444742
0.0210002
0.0210993
0.787324
0.0220594
0.0224278
0.068256
0.0215281
0.0213156
3.10965
0.0210788
0.052505
0.0239324
0.0216106
0.0220657
0.0389951
0.0230812
0.0268105
0.0210514
0.282943
0.605439
0.265239
0.0206466
1.96444
0.0207186
0.0214467
0.0211188
0.0230452
0.167105
0.0836888
0.0218333
0.0223511
0.023056
1.83414
0.824973
0.0210549
0.0202719
0.0237831
2.57551
0.0267017
0.0298783
0.0207473
0.0229225
0.0440803
0.0215777
0.0207507
0.0210287
0.0206784
0.0256049
0.149671
0.0212524
0.805245
0.0296231
0.0236127
0.0211231
0.0205769
0.6594
0.270875
0.0208901
0.0380567
2.14404
2.02637
0.0215206
0.0212377
0.0426127
0.359516
0.0206934
0.0257654
0.0212055
0.0226417
0.0279625
0.0213751
0.0216803
0.0223046
0.0206668
0.0223028
0.205217
0.0434525
0.500855
0.021911
0.0208271
2.63116
0.0208197
2.56822
0.444033
0.021219
1.16698
0.022975
0.0218893
1.16215
0.0217336
0.0216489
1.18377
0.022901
1.07116
0.0207059
2.60229
1.98148
0.0293956
0.0216853
0.350177
0.023611
0.051181
1.13977
2.03896
0.0215494
0.477188
0.0211856
0.0390438
0.0702336
0.0211342
0.0280212
1.1718
0.0544751
0.0257352
0.0225468
0.0209596
0.0218971
0.0217149
0.0298366
0.0651025
0.0208747
2.5826
0.0234088
0.0213984
0.0252257
0.0207356
0.0218556
0.0212041
0.0206826
2.03782
0.0206148
0.0222156
0.199311
0.060949
0.0645169
0.0213903
0.0213744
0.0430616
0.0213523
0.353624
0.0235619
0.0232382
0.0222431
0.0213788
0.0208622
2.56736
0.0207493
3.04473
0.17763
0.0220285
2.23849
0.0211146
0.0264133
0.0253416
1.59989
0.0234085
0.63341
0.0795442
0.0213886
0.209582
0.0204445
1.10375
0.021373
0.0217731
3.36828
0.252748
0.0211833
0.0215381
0.022736
0.0211406
0.021384
0.166102
1.98991
0.0212262
0.0211762
0.0204574
1.7949
0.0821847
0.0398335
0.0206539
0.0228536
0.0217644
0.0213963
0.0269755
0.533522
0.0210566
0.0387685
1.04943
0.0207006
0.0314765
0.0213904
0.0268558
0.0210329
0.0212019
0.0249425
0.0214295
0.0452605
0.0213864
3.58909
0.0214169
0.0236519
0.0622415
0.0541087
0.0383295
0.0209769
0.0213663
0.117311
0.0507246
0.0476386
0.0208262
0.0210946
0.0265218
3.59856
0.262779
0.0211109
0.0211716
0.0220119
0.02151
0.022418
0.0211716
0.0216474
0.278872
0.0212006
0.0213228
0.108874
0.0206385
0.80116
0.0666786
1.82797
2.4351
0.442696
1.98651
0.0211813
0.0211061
0.022873
0.0212217
0.0210631
0.0209938
0.021212
0.0218576
2.0194
0.125835
0.950714
0.0218142
0.0210644
0.0288011
0.029916
0.0470781
0.0216059
0.0219922
0.0212407
2.26176
0.109557
0.755693
0.0214947
0.0715587
0.108593
0.0292731
3.44843
0.83023
0.0222941
0.0207901
0.0207861
0.918706
0.0215419
0.0207114
0.0567221
0.728341
0.021162
0.0213994
0.635243
0.0212294
0.0211311
0.0212475
0.0211828
0.0212775
0.0229326
0.0278708
0.0212581
0.0215555
0.750827
2.20182
0.0212485
0.26326
0.284675
0.0219694
0.0218406
0.0213263
0.020879
0.0225705
0.0219484
0.0216412
0.021682
0.0227411
0.0215428
3.37424
0.0257109
0.0214664
0.0211871
0.278333
0.0215636
0.0208094
0.20899
0.0210771
0.0305656
0.0249558
0.0213323
0.0207987
0.0209647
0.0240278
0.0359951
0.0216041
0.443846
0.0487525
0.0930287
0.856281
0.0219492
0.0439657
0.0208135
0.998806
0.0220799
0.0211067
0.146185
2.50935
0.0216722
1.17326
1.20221
0.0210086
0.027399
0.0208702
0.0218971
0.0259614
0.022256
0.0210541
0.0233908
0.0210324
0.0208467
0.435274
0.0215413
0.0210593
0.020797
3.44821
0.0212096
0.0216003
0.0276488
0.105853
0.486052
1.35533
0.439128
0.0210389
0.0207465
0.0213405
1.94175
0.0220874
0.0209135
0.0230321
0.0212877
1.08299
0.0215736
0.0215152
0.157583
0.0211402
0.0592877
0.221201
0.020726
0.0212497
1.21919
0.0227502
2.08673
0.33953
0.0205675
0.0214076
0.0632809
0.0206774
0.0230837
0.417486
0.0207724
0.281089
0.0212326
0.0211509
0.0212675
0.0294687
0.0223459
0.529768
0.0225943
0.0209807
0.594371
0.0816201
0.0366716
0.0252
0.0232409
2.91215
0.1093
0.0205674
2.88071
0.0214753
2.65633
0.785393
0.0213033
0.0225
0.0215911
0.326543
0.020765
1.61267
0.0215079
0.164639
0.128112
0.021123
0.0211089
0.0211906
1.18147
1.11287
0.0212076
0.54023
0.0214257
0.021063
0.34435
0.0212888
0.270563
0.0208081
0.0232263
0.0209521
0.0208106
0.0209899
0.0207678
0.0609161
0.0260327
0.0310285
0.0295112
0.0217798
0.0212319
0.365923
0.0212619
0.51582
0.0214896
0.504706
0.0252104
0.0563902
0.0207307
0.0207854
0.0210366
2.53415
0.0211122
0.470999
0.0504279
0.0213964
0.0249697
0.0212564
0.0206244
0.0228608
0.0208201
0.415259
0.021219
0.0223816
0.0212042
0.0226548
0.881442
0.582925
0.0213611
0.0208122
0.0215466
0.0217022
0.0211119
0.0220033
0.0217992
0.0211806
0.0211265
0.0208656
0.199161
0.0806124
0.021829
0.0212472
0.122146
0.022216
1.73316
0.102329
0.0217902
3.22599
0.0222199
0.0208706
0.0209843
0.0231312
0.0284545
0.0209268
0.0299695
0.326301
0.0250003
0.114359
4.25981
2.19173
0.0278643
0.0215171
0.0214227
0.382545
0.0212879
0.0218388
0.0276604
0.0237326
0.0215615
0.0211524
2.19138
0.0232845
0.0217902
0.0218239
0.0232397
0.0251282
0.0214153
0.0235784
0.0212162
0.0280183
0.0218652
0.0216933
0.0216164
0.572704
0.0217215
0.0212416
0.513014
0.0211119
0.0214646
0.0216193
0.0221345
0.0216115
0.553289
0.10129
0.327879
0.271763
1.84825
0.021583
0.0216408
1.93246
0.513536
0.021347
0.022006
0.0219233
0.0214243
0.0222018
0.0221176
0.0646252
0.0778569
0.0218457
0.0204615
0.0393443
0.0218731
0.0215115
0.021476
0.0218443
0.0210782
1.13593
0.667791
0.0276282
3.57421
0.0211132
0.0210881
0.0595503
0.0247477
0.0210694
0.0755405
0.0217463
0.0224401
0.327751
0.0648561
0.0276665
0.0216857
0.0215489
0.0218041
0.0206232
0.483241
0.0590183
2.40886
0.438686
2.16848
0.0217252
3.08877
2.08197
4.21336
0.11012
1.78643
0.0244264
0.0352599
0.0940255
0.0293341
0.0209439
0.0211635
0.0213857
0.0376987
0.0208095
0.0215751
0.0275256
2.67062
1.59621
0.261988
0.0713348
0.0814396
0.0252311
0.0226929
0.0212518
2.75255
0.305025
0.0209972
0.0279881
0.316334
2.40922
2.078
0.032059
0.0466926
0.0207157
2.00957
0.0217175
0.406964
0.656678
0.0279339
0.124112
0.0981705
0.0213981
0.0212291
0.471358
0.550671
0.206465
0.0216975
0.0211003
0.0230319
0.368105
0.0242477
0.112401
0.021767
0.169872
0.0291076
0.0247991
1.01572
0.0595241
2.01801
0.0207309
0.0304854
2.32121
0.0266611
0.02116
0.4889
0.520402
0.0211333
0.0212529
0.0211561
0.0219275
0.0221852
2.88993
0.543736
0.0218968
0.0272078
0.614972
0.0279107
0.0229881
0.0228647
0.0698778
0.0247289
0.0206786
0.0209928
0.854909
0.020768
2.43666
0.0209308
0.0206636
0.280518
0.0221116
0.0211176
0.0285668
0.0207813
0.0231881
0.0207634
0.0210893
0.0214917
0.0773182
0.0213114
0.0488475
0.145293
0.0713426
3.69376
0.0238729
0.0205183
0.0207713
2.34232
0.0252274
0.0217345
0.0663319
0.0305957
1.7259
0.020839
0.0208734
0.0205626
0.020788
0.0211797
0.0210037
0.022015
0.022082
0.0213004
0.0294652
0.0209663
0.136961
0.0221476
0.0207317
0.0223844
3.09874
2.00862
0.508327
3.5933
0.456241
0.0750205
2.01571
0.0227488
0.0315295
0.0385454
2.1729
0.0209793
0.665531
0.0290466
0.176598
0.0211826
0.499982
0.0210583
0.0212432
0.0211626
0.0281142
1.76772
3.0737
0.0215428
0.0210268
0.0209333
0.0208685
0.0275751
0.0213421
2.02799
0.0508507
0.0275411
0.0218011
0.0211419
0.0208653
2.4979
0.0850287
0.0213366
0.0214245
1.11829
0.020897
0.021342
0.0204902
0.0211585
0.0214757
0.0216663
0.0209467
0.54308
0.0228912
0.643682
0.0240328
0.02162
0.274414
0.0219437
0.32349
0.0216286
0.0442538
0.0218362
0.0619736
0.0311533
0.0687562
2.2766
0.0227847
0.0316355
0.0222769
0.0211704
0.0206504
0.0209398
0.0687173
0.0344161
0.0235979
0.0683421
0.0206205
0.0213593
0.0328648
0.603335
0.0206334
0.0375027
0.178771
0.11203
0.09284
0.0222698
0.0215066
1.99517
0.0265601
0.0208545
0.0211262
0.113329
0.0205059
0.0206396
2.07633
0.0477682
0.0220461
0.0220073
0.0218901
2.14556
0.0234228
1.90811
1.89108
0.0212301
0.0210179
1.00958
0.0311129
0.0220354
0.0222416
0.0222798
0.0224996
0.0208231
0.0234427
0.166138
0.0365722
1.93315
0.290352
0.0311723
0.488839
0.875867
0.0208358
0.444682
1.98472
0.0221775
4.15149
0.0214557
0.195351
0.0668794
0.500112
0.0222025
0.0363754
0.0293758
0.0358928
0.0210608
0.0207586
3.76436
0.0227124
0.0211403
0.0211816
0.0216829
0.020853
0.0219279
0.0209909
0.021171
3.62803
1.20086
0.0211005
0.022174
0.52688
0.416486
0.0207527
0.226196
0.0453135
0.0393165
0.0213662
0.020978
2.43172
0.0217258
0.0448383
0.0725303
0.0206468
0.0219935
3.49256
0.0214242
0.449037
1.1714
2.17157
0.0218702
0.0214276
0.0212971
0.0214826
0.0211961
0.0522123
0.109068
0.0209558
0.651751
0.245457
0.0221904
0.0215234
0.0212001
0.411061
1.95569
0.0287579
0.0292485
0.0228727
3.48055
0.279811
0.0209976
0.0210794
0.0252872
0.0315488
2.00362
0.0625318
0.0211678
0.998235
0.283838
0.0218723
0.0208676
0.0215408
0.0231784
0.0210243
0.0219878
0.0206322
0.0335297
0.0646504
0.0213423
0.0215224
0.0298126
0.0206558
0.0210906
0.0214875
0.161343
0.0206051
0.0224749
2.61244
0.192847
0.0729577
0.0747988
0.0219678
0.0213403
0.0222892
0.0205563
0.0210724
0.0218449
0.601464
0.0259552
0.0221973
0.0234062
0.0211942
1.16511
0.0462936
0.0212061
2.31992
0.0207067
0.0225384
0.181197
2.01206
0.0232055
0.023346
0.0233123
0.0313719
0.0212465
2.89884
1.93849
0.0206275
0.0649133
0.425689
0.0213374
0.0223771
0.175777
0.0575693
0.0215661
0.273802
0.0238211
0.0211809
0.103089
0.303293
0.500116
0.0210892
1.1563
0.032319
0.0209487
0.04235
0.0278746
0.0215254
0.0341548
0.622378
0.361519
0.0306303
0.0294597
0.0206188
1.80579
0.111946
0.228919
2.19503
0.0213382
0.770797
0.0213396
0.0210304
0.0393071
0.0220083
0.0242485
0.146573
0.0215862
3.57881
0.16995
2.00594
0.0267577
0.0537076
0.0206001
0.0219624
0.0230948
0.0205361
1.22287
0.232178
3.63377
0.655387
0.0786742
0.382514
1.98765
0.0212107
0.0219434
2.01188
0.0489487
0.0213431
0.0211305
0.0589429
0.0303443
0.0262371
0.0212417
0.021484
0.0297186
0.0211362
0.0667269
0.132478
0.0208718
3.50437
0.0208157
2.91891
0.283594
3.24259
0.0220439
0.488616
0.0216364
0.0210812
0.0222185
2.01091
0.0338019
0.489516
0.0217322
0.0211292
0.0809459
1.65534
0.0215794
0.118577
1.77418
1.83235
1.22613
0.0208577
0.0213603
0.388436
0.0205432
0.0208361
0.0241058
0.0212158
0.0213843
0.0208264
0.0211203
0.0237489
0.0211672
0.0301442
0.0267902
0.0210482
1.01716
2.22567
0.0248842
0.0204451
0.0212897
0.0264551
0.0213502
0.0212444
0.021345
0.110802
0.0211328
0.0225806
0.023026
0.0670565
0.337411
0.0209094
0.026914
0.0329357
0.0261094
0.0677538
0.132236
0.0214025
0.0211922
0.0228281
0.0225937
0.0231512
0.0578628
0.275802
0.0212935
1.63458
0.0218906
0.0554335
0.0696397
0.937744
2.79527
0.0226785
0.0210728
1.01684
0.0224322
0.863747
0.0222288
0.472138
2.96242
0.0207678
0.0364283
0.0210715
0.0271455
0.070986
2.42272
0.0210051
0.0213382
0.0687799
0.0216496
0.691777
0.0207643
0.439031
0.290178
0.0385002
2.66082
2.14388
0.0207248
0.0208949
0.0213461
0.553542
0.0776631
0.0217725
0.0226639
0.0217634
0.0204431
0.0221397
0.0207602
0.0206161
0.0557492
0.0217201
0.0205485
0.0231689
2.01331
0.182607
2.15758
0.0215248
0.0497892
0.0218855
0.0244689
0.122215
0.0595121
2.0514
0.0207068
0.0319261
0.0208075
0.0322339
0.022276
0.045414
0.494557
0.0220566
0.0669385
0.0212853
0.131122
0.0644646
0.0205973
0.0223988
0.0219964
0.0219931
1.94982
0.0213194
0.0213607
0.0219607
0.0216453
0.0210149
0.0224287
0.0212991
0.02175
0.0213455
0.0210198
0.869373
0.498791
3.04194
0.0212236
0.0212519
0.0210718
0.02093
0.020634
0.0348867
0.0211002
0.0206167
0.0212515
0.0208517
0.0276612
0.0212601
0.118876
2.52089
0.0357146
1.97867
0.0215244
0.319377
0.0323203
0.256979
0.0207912
0.587738
0.0220397
0.0213521
0.0213511
0.0384923
0.0878905
0.020914
0.0266768
0.026394
0.0211664
0.0322844
0.411622
0.0304011
0.0208935
0.0225078
0.0894367
0.0219513
0.259216
0.0209219
0.02197
0.0213527
0.0219935
0.0267206
0.317335
0.0319816
0.0205269
1.66327
0.0222003
0.0236303
0.0210587
0.0243996
3.8978
0.0208341
0.0217478
0.0279959
1.18303
0.0208392
0.0210115
0.0206065
0.0320035
0.0219288
0.533153
0.0213524
0.024567
0.0273512
3.58395
0.0206058
0.020719
0.0209778
0.028747
0.0204525
2.0951
0.0647832
0.0310168
0.426269
0.021278
1.67196
0.0213863
0.0205827
0.030461
0.0492623
0.187354
0.048616
2.97126
0.261401
0.0261097
0.0318016
0.022153
0.672295
0.0213536
0.0217644
0.104134
0.0216654
0.387374
0.021146
0.0213601
0.468797
0.0376176
0.0655963
0.251925
0.072519
0.0216284
0.0276114
0.0213576
0.0205328
0.0210377
2.93085
2.3759
0.328752
0.0251184
0.0237622
0.357004
0.0209333
0.0292601
0.0208164
0.0334484
0.0212065
0.0205092
0.0217183
0.0372089
1.62531
0.029807
0.0270503
0.0205751
0.027834
0.221005
0.0213256
0.0533931
0.241674
0.0205569
0.0560718
0.0205442
1.93798
0.0214165
0.287693
0.021802
0.0215012
0.0245341
0.030232
1.93308
0.0221533
0.154058
0.0225482
0.0213394
0.0213503
0.0213683
0.0205237
0.0213066
1.86153
3.54997
0.0268692
0.0214884
0.0241282
0.0225683
0.0215648
0.0217216
0.0758023
0.356595
0.0368053
0.0211937
0.296449
0.0205075
0.05996
0.0224801
0.0363561
2.57403
0.374961
0.131244
0.0205063
0.0213072
0.0209467
0.0211523
0.021355
0.0211307
2.21039
0.0214612
0.0220622
0.0218292
0.0353793
0.0211323
2.07733
3.44632
0.0423859
0.0213567
2.85664
0.0205189
0.367362
0.0969571
0.0224507
0.0445138
0.0234819
0.0589188
0.0213704
0.0216759
0.0267134
0.046154
0.0974583
0.48054
0.15301
0.139052
0.0286913
0.022107
0.0212058
0.478707
0.023126
0.740668
0.0219043
3.58539
0.549164
0.41181
0.0223001
1.1245
0.0235211
0.0211435
0.0215588
0.0228287
0.0612222
0.0212464
0.415091
0.0323418
0.103263
0.0210243
0.0240035
2.95933
0.468547
0.373846
0.0242418
0.0220701
2.90796
0.88835
0.0217096
0.0447359
0.180535
0.058052
0.11287
0.0250184
0.0265838
0.169695
0.0209021
0.0214118
0.044299
0.0213423
0.0281096
0.451426
0.349249
0.0223319
0.119503
0.0240256
0.0207494
0.0445696
0.0217776
0.262131
0.0206719
2.49418
1.99611
0.0676574
0.153447
0.112066
0.222797
0.0237818
0.0252438
0.101827
3.07192
0.0223961
0.0219572
0.0210294
0.0241845
0.0210431
0.0210499
0.210265
0.0210483
0.0205769
0.0299545
0.021986
0.0210129
0.0222248
0.978455
0.0584085
0.0217821
0.0213569
0.0272187
0.022253
0.0210467
0.0209497
0.0207238
0.877191
0.0247028
0.0472477
0.0263271
0.0212094
0.0205113
2.62557
0.161099
0.801441
0.0221708
0.02165
0.0325934
0.020943
0.0263618
0.117727
0.281258
0.0223517
0.0230683
0.021286
0.0276025
0.478388
0.258825
0.349544
0.0244452
0.0212599
0.0205961
0.0240271
0.0745137
3.10609
0.020607
0.148275
0.0205207
0.0215436
0.0734006
0.0208583
0.729831
0.0761644
0.307111
0.0209048
0.0296791
0.0365493
2.38093
0.021252
0.0219633
0.14356
0.212238
1.22037
0.489009
2.86689
0.0223098
0.214666
0.0246536
0.0211066
2.77873
0.0219789
0.0209393
0.0215443
0.0215076
0.85616
3.63499
0.0244877
2.46006
0.0215486
0.0209506
0.0214987
0.128375
0.0252199
2.62813
0.0213889
0.0218648
0.0311612
0.839771
0.0205167
0.347301
0.0213233
0.0218699
2.39546
0.0208643
0.116623
0.810649
0.507439
1.08718
0.0217388
0.0232656
0.0219219
2.36234
0.0287302
0.0213737
1.91172
0.0244465
0.0205158
0.0224688
0.263214
0.0209101
1.89171
2.70347
0.0243525
0.020973
0.0239589
0.0239026
3.61959
0.0205354
0.0289323
0.0219462
1.54319
2.16754
0.0212333
0.0214785
0.158681
0.0256968
0.021483
0.0210227
0.0208913
0.045162
0.0228366
0.0811418
0.0217692
0.021596
0.0213756
0.0225618
0.0218699
0.0222281
0.600586
0.0376974
0.400184
0.0217751
0.020511
0.365016
0.0244045
0.0613877
0.209252
0.107078
0.257078
2.72197
0.0204929
0.340327
0.0244942
0.022232
0.0208276
0.0213928
0.0213768
1.78552
0.0218231
0.0213624
4.13378
1.09443
3.39156
0.021068
0.0209247
1.31047
0.0208954
0.0214706
0.0242003
0.0210352
0.19776
0.0226475
2.6866
0.283463
0.0211932
0.113371
0.0662881
2.73194
2.37321
0.0212844
0.0240912
0.0342335
0.324029
2.49042
0.024706
0.0217011
0.0213949
0.0762083
0.0208876
2.9534
0.735202
0.0209315
0.735866
0.0205384
2.07389
0.0218162
0.0326759
0.0221581
1.8804
1.87949
2.12069
1.87571
0.0214389
1.12937
3.27696
0.0218477
2.50923
0.0217658
0.0205084
0.0212052
0.0265175
0.0237137
0.0215165
0.0209877
0.0729783
0.0367701
0.0404276
4.032
0.0463436
0.026319
0.0218998
0.0498875
0.0214811
0.106932
0.676685
0.145337
0.388038
0.0221092
0.0231891
0.0222626
0.0221821
0.0228264
0.021023
1.87357
1.04975
3.38566
0.0207584
0.0215277
0.0387914
0.14067
0.022057
0.0207781
0.0220003
0.0225374
0.0361246
0.0212576
0.398558
0.0216982
2.05206
0.0209737
0.0255825
1.08416
0.34579
0.0212235
0.101684
0.0213507
0.0205481
0.0583169
1.08186
0.0210094
0.0220315
2.1927
0.0212886
0.0472385
0.477687
0.0263154
0.149457
0.0214499
1.18542
0.02756
2.66196
0.0205127
0.0209406
3.41243
0.0208172
0.0455804
0.0241533
0.0288235
2.04994
0.0222814
0.0213931
0.0220539
0.021037
0.154151
2.06732
0.0205496
0.340565
0.0223753
0.169965
0.0212179
0.567805
0.0332919
0.0263411
0.027224
0.0213647
4.08951
0.0205467
2.23854
0.020511
0.021309
0.0234987
0.0215508
0.0206709
0.0593765
0.0230618
0.0210165
0.0221078
0.0205836
0.0425498
0.0248952
0.217969
0.0294047
0.0207833
0.0322815
0.0209782
0.0209507
0.0239266
2.91217
0.0232117
0.0223005
0.201938
0.0206353
0.0211127
0.0212205
0.0209045
0.0210782
2.93524
0.0209561
0.0227676
0.223269
0.0219466
2.15352
0.0213462
0.0206638
3.15927
0.151949
0.0215683
0.0435427
0.0242803
1.74061
0.0210554
0.0226925
0.0548017
0.0215145
0.0229946
0.156288
0.0220486
0.0221438
0.344892
0.0241059
0.0464218
0.282353
0.223373
0.0233334
0.0218805
0.0348127
0.584776
0.0219099
0.765445
0.550079
0.160231
2.01685
0.0211677
0.0213706
0.0211632
0.0363833
0.481077
2.57913
2.18585
0.021169
0.116333
0.0212238
4.13206
0.0211925
0.0357232
0.0966117
0.0218211
0.0220264
0.12057
0.0247872
0.0217254
0.02193
0.0528899
0.0231265
0.020928
0.0884104
0.0217797
0.0217814
0.0210986
0.957755
0.0238868
0.302352
0.0281745
0.0229249
2.11693
0.0247934
0.0741574
0.0205348
0.0211748
3.70465
1.92415
0.665107
0.0218329
0.0238337
4.02793
0.0759616
0.0830644
0.0228577
0.0294788
0.0358345
0.0205752
0.387714
0.0209132
0.0561208
0.536482
0.106035
0.109144
0.0221698
2.86079
0.056452
0.0304789
0.0248313
0.0210566
0.0213388
0.0213238
0.35279
0.0206248
0.435322
0.0586111
0.369113
0.0211336
3.62736
3.61452
0.0307975
0.304928
0.0221728
0.0216761
0.0210813
0.024313
0.021381
0.0245823
3.9906
0.0213497
0.0222946
2.01638
0.0315847
0.0263261
0.0255158
0.0306079
0.0207745
2.47632
0.0224712
3.46713
0.0368597
0.0225869
0.0300704
0.106448
0.276065
0.0212805
0.0211849
1.85747
0.0233244
0.0528087
0.146183
0.0393846
0.0208476
0.0626073
0.0214152
0.369501
0.0213802
0.0225201
0.270801
0.021998
0.106129
0.0204915
3.70313
0.637479
0.0220836
0.0286425
2.66661
0.0245305
0.0205268
2.04017
3.57343
2.39456
0.0208963
0.0217483
1.03806
2.741
1.99369
0.0214962
0.0228325
0.0215752
0.0257539
0.0217293
0.0206657
0.920246
0.0209382
2.34158
0.0233606
1.03133
0.0211684
2.01099
0.856272
0.108406
0.2169
0.601871
0.0205901
0.0629145
1.71261
0.0208506
0.0216874
0.0213186
2.26256
1.83535
0.0214766
1.89529
0.0362441
0.0212396
2.74933
0.0227737
0.0554427
2.17774
2.96116
0.0212037
2.13935
0.0219509
0.0213225
1.9408
0.0419097
0.159261
3.23775
0.0272149
2.99891
0.064389
0.0265085
0.704827
3.38691
2.02317
0.0220611
0.0211668
0.0211129
0.0225293
0.088337
0.117466
2.23099
1.85728
0.0241568
0.0210948
0.0214084
0.0238388
0.0284897
0.0211981
0.372097
0.0219634
0.0205998
0.0222347
1.91102
0.0497949
0.103904
1.94754
0.0213312
1.84658
0.140548
1.05835
0.0224766
0.0245619
0.0229018
0.0213342
0.0227632
0.100561
0.023933
0.0226894
3.02697
0.0213709
0.088546
0.497383
0.0426241
0.0354809
0.0280576
0.227388
3.39461
0.0213568
0.59435
3.73882
0.0373801
0.0220711
0.0205408
0.0217497
0.0216615
0.231396
0.0225738
2.06348
0.0226636
0.0212452
2.32268
1.20606
0.0205392
0.0211239
0.177603
0.36736
0.02138
0.0208603
0.0222
0.0250691
0.232853
0.0574565
0.0205131
0.10224
0.0220384
0.385304
0.022983
0.37254
0.0212653
0.0664114
2.74589
0.372846
0.022058
0.31722
0.300359
0.280467
0.0209154
0.0225573
2.70666
0.140631
0.0927392
2.08679
0.0214198
0.0655835
0.022789
0.0454463
0.0598677
0.708415
0.139361
0.022041
0.0212945
0.023885
0.123757
0.0213471
0.0309893
0.051616
0.0729997
0.0206636
2.53801
0.144323
0.126138
0.0226177
0.0215428
0.0215205
0.0242996
0.0368292
2.47257
0.0997738
0.0208688
0.021298
0.0275369
0.276486
0.021441
0.0763264
0.044842
0.0224287
2.39135
3.46931
0.0209446
3.2088
1.20724
2.43607
2.00145
0.0207511
0.0239677
0.125565
0.021847
0.0219822
0.567954
0.0348713
2.91833
0.0221976
0.0212991
0.0249453
2.69921
0.0210654
1.27239
0.021152
0.021568
2.0203
0.108154
0.0313354
0.111797
0.0545609
0.0228612
1.17096
0.0664434
0.190749
0.309502
0.0496294
0.0537592
0.021315
0.0213125
0.0527404
0.231048
1.99584
0.296764
0.107448
0.0260157
0.205321
0.0283309
0.0209738
0.0217648
0.061333
0.31434
0.02062
0.0547488
0.0754747
0.0989877
2.89277
0.0217684
2.25816
0.0215839
0.0225837
0.204682
0.0223331
0.0217857
0.0223234
2.92376
0.0275458
0.0543895
0.020674
0.0213068
0.0294825
0.386609
0.0221598
0.308228
0.022309
0.0672136
0.0222338
0.228222
0.0210461
2.9085
0.0905251
2.76038
0.0215315
0.195111
0.0211114
0.021305
1.0795
2.83101
0.0974706
0.0207006
0.250759
0.0527317
0.745465
1.01417
0.0413146
0.0223889
0.904368
0.182795
0.0212241
0.0209469
0.394852
0.0586555
2.99053
0.026074
2.97094
0.0205422
0.0217879
0.772206
0.0583612
0.0211775
0.383214
0.0213027
0.0215161
0.022074
0.0222394
0.436656
0.297294
0.0205148
0.0773369
0.0208927
0.0312708
0.254035
0.0218235
2.55833
3.25619
0.209011
0.23388
0.0214761
2.67939
0.0223455
0.140043
0.0207388
0.128442
0.0298469
0.0245678
0.0214738
0.10491
0.052638
0.509705
0.134231
0.0218771
0.0205782
0.14642
0.132864
0.0308712
3.18024
0.0242388
3.4125
0.0214695
0.20991
0.120271
0.36407
0.0210135
0.0421204
0.0460016
0.161311
0.0225832
0.0240005
0.0243648
0.0238226
0.0243306
0.0243602
0.0241872
0.0210464
0.0820789
2.81282
0.683021
0.0247571
0.0212065
1.96548
0.959494
0.0212238
0.0553312
0.0238607
0.0228432
1.23053
0.0397356
0.0213427
3.25898
0.021362
1.12964
0.513314
0.177313
0.0236119
0.0218057
0.0227567
0.020585
0.022351
0.14958
0.0223892
0.0323292
0.398662
0.14617
0.0213655
0.0464356
0.603141
0.0215021
0.0245116
0.175224
0.0232651
0.0486115
0.0231514
0.0239867
0.0421463
0.292795
0.0843472
2.95296
0.0251889
1.72828
0.056864
0.268883
0.0564736
0.0278556
0.0209907
0.0243115
0.170437
0.238928
1.35705
0.0209776
2.51659
0.38981
0.0372926
0.13654
0.755726
2.67662
3.56481
0.0211526
0.0844403
0.0238561
0.177999
1.59284
0.0323615
0.0211159
0.400533
0.0441398
0.117271
0.0210489
0.0506449
0.0234813
0.190638
0.0227192
0.0992943
0.169194
0.0252303
0.0208504
0.021736
2.43023
0.0207717
0.103625
0.0527957
2.80783
0.0287231
0.332093
0.0590817
0.021215
0.0212766
2.62721
0.0232282
0.0208555
0.0211439
0.435
4.03874
0.101013
0.0213905
0.0346074
0.0348443
0.349473
0.0398156
0.0209613
0.0472377
0.282419
0.0270178
0.0236322
0.0208075
1.79265
0.0210563
3.31194
0.0309339
0.0398859
1.0769
0.150421
0.0208816
0.0227199
0.405502
0.0233053
0.0251115
0.0210927
0.0215391
2.99792
1.16794
0.0226755
0.0206358
3.25533
0.0619906
0.0266502
0.0212155
0.0254588
0.0245011
0.14465
0.0212539
0.04764
0.249304
0.0783389
0.0244281
0.0208185
0.0268622
0.0262402
0.041449
0.0209382
0.0218524
0.0214991
0.0215009
2.09935
1.94735
2.73717
0.0253285
0.0220397
0.0208304
2.63773
0.558505
2.15601
0.0239083
0.0994247
0.0213039
0.021745
0.0639606
0.0207247
0.123671
0.0217998
2.09898
0.021496
2.41522
0.02145
0.0255779
0.0281824
0.0225817
0.30205
0.0207446
2.3166
0.0208586
0.105926
0.274428
0.154318
0.0205647
0.615419
1.12773
0.0617745
0.0875816
0.0222781
0.100075
0.0211133
0.0366316
0.0207092
0.0271472
1.03318
2.14183
3.11888
0.0217048
0.134236
0.0209343
0.0214592
0.263418
0.020923
0.0210274
0.0210838
0.0210096
0.947278
0.0224183
0.0233188
0.0219729
0.0217427
0.0210699
0.0225524
0.0241581
0.0214581
0.0303733
0.0340363
0.0211443
0.400277
0.0232104
0.0520276
0.467415
0.0346083
0.0477872
0.0985174
0.193305
0.0550895
2.44846
2.59289
2.87508
0.0210488
0.0208969
0.0234572
0.0206387
0.0925476
0.0255286
0.0208922
2.04347
3.31443
1.683
0.0380677
0.0516923
0.0369544
0.0213762
0.0763725
0.108227
0.0222932
2.16694
0.960411
0.0215504
0.0260075
0.726677
0.0303141
0.043114
0.0538451
0.0494051
0.0209266
0.0210038
0.0589327
2.8144
0.0629869
0.0232518
0.0211041
1.71714
0.0223095