/*--------------------------------*- C++ -*----------------------------------*\
| =========                 |                                                 |
| \\      /  F ield         | OpenFOAM: The Open Source CFD Toolbox           |
|  \\    /   O peration     | Version:  v2012                                 |
|   \\  /    A nd           | Website:  www.openfoam.com                      |
|    \\/     M anipulation  |                                                 |
\*---------------------------------------------------------------------------*/
FoamFile
{
    version     2.0;
    format      ascii;
    class       volScalarField;
    location    "50";
    object      ReThetat;
}
// * * * * * * * * * * * * * * * * * * * * * * * * * * * * * * * * * * * * * //

dimensions      [0 0 0 0 0 0 0];


internalField   nonuniform List<scalar> 
18758
(
567.537
483.342
586.801
568.415
522.12
603.467
591.615
543.755
531.504
545.884
508.209
119.716
408.903
552.229
590.191
597.323
108.696
606.558
591.802
533.692
140.673
343.634
602.628
602.583
410.368
424.302
73.375
573.139
481.873
331.841
240.164
69.2411
548.592
243.037
513.65
334.012
411.824
520.176
221.491
608.557
274.586
575.917
389.882
599.482
593.958
238.489
578.602
537.101
27.1192
571.314
485.044
27.4351
571.171
589.886
380.252
424.393
599.683
540.702
551.405
600.442
593.293
599.812
61.8321
38.3497
587.41
66.2622
594.435
602.725
574.419
606.302
27.0374
186.734
590.648
501.167
392.36
252.763
62.4219
101.058
534.506
400.813
408.868
227.322
105.437
434.765
593.454
391.499
530.617
492.677
62.305
394.212
27.7514
581.607
427.21
27.6271
592.233
604.987
608.034
493.138
94.8262
597.384
244.33
494.182
603.294
605.145
67.2011
153.794
523.87
27.3005
58.2596
95.4746
597.617
38.4209
586.122
591.039
494.671
80.4472
507.139
599.684
46.2588
584.805
599.052
59.0875
591.596
611.736
25.5396
589.594
600.448
611.492
457.572
25.8807
543.562
576.911
532.985
35.9871
608.622
598.135
63.5229
591.406
519.38
411.352
574.154
135.222
480.576
57.4664
25.5561
450.52
57.9018
462.253
502.697
29.5744
26.1062
26.129
587.168
512.78
287.48
42.6481
429.468
433.066
422.165
483.706
47.773
608.502
29.409
57.3634
264.084
598.968
609.029
36.0002
25.8829
147.67
26.9457
583.8
504.017
609.624
55.9721
598.349
591.586
301.515
341.186
576.486
605.308
584.623
381.761
572.646
30.9804
595.88
298.755
557.72
28.292
280.53
26.3315
596.538
583.092
319.04
604.465
569.059
531.859
591.577
28.6116
596.803
585.805
413.591
320.951
597.846
598.397
29.7525
592.11
511.063
26.0197
25.9804
593.236
431.752
583.192
598.606
546.796
608.086
594.005
435.618
603.251
255.083
274.477
598.009
490.788
413.484
320.028
609.182
387.094
399.212
42.468
593.649
395.635
451.581
57.4351
591.233
601.159
596.67
410.294
26.4005
358.836
558.527
596.715
413.27
536.702
588.947
29.2498
421.757
598.805
608.958
596.405
597.442
27.0071
599.474
609.627
594.127
601.784
90.6853
598.895
110.482
597.578
168.277
583.832
611.166
597.684
583.081
135.407
156.141
610.743
516.849
585.79
590.85
46.2689
46.2347
591.338
596.458
610.031
548.595
543.036
603.662
597.831
551.09
609.108
581.286
595.301
50.5446
590.459
598.098
605.393
539.943
606.333
606.175
585.615
575.057
599.782
594.581
590.842
595.23
609.134
572.527
601.127
25.659
549.638
595.276
599.3
124.716
515.08
605.238
525.509
156.194
598.796
415.983
595.497
118.108
533.092
565.89
480.948
257.518
604.587
86.0793
413.099
593.328
570.422
430.492
30.2212
600.504
604.162
25.9227
609.393
603.841
25.5583
427.444
555.45
32.5926
600.84
599.009
600.539
593.622
583.056
583.926
547.003
590.967
581.894
566.92
41.7755
129.221
592.073
102.225
96.568
605.426
505.929
510.993
391.521
154.947
558.4
596.423
25.8442
247.774
563.507
567.572
562.526
597.09
599.95
501.681
183.612
181.853
371.056
197.189
599.584
527.389
582.453
530.648
26.7737
101.714
56.7464
435.898
268.542
524.758
600.229
87.607
435.607
505.997
172.791
600.39
602.325
347.167
149.947
144.665
43.7703
25.5432
558.409
124.915
97.2228
597.272
559.14
556.955
595.553
595.788
595.406
596.273
572.464
587.57
594.895
506.757
230.167
514.55
318.673
251.34
25.8929
237.213
487.753
595.185
602.028
372.627
553.673
561.73
59.7246
542.261
90.2817
599.718
40.4215
592.733
548.042
603.546
30.2013
112.757
132.352
591.529
31.0497
430.625
596.416
595.806
593.144
58.1972
592.503
595.508
262.739
513.554
559.594
592.87
548.542
535.759
41.9349
174.617
593.841
73.8622
603.503
582.108
402.715
605.58
228.966
592.522
533.106
587.196
177.879
595.82
595.615
25.9453
511.809
606.052
527.883
545.018
597.729
593.471
588.374
346.715
29.9982
580.735
547.121
137.764
306.842
160.405
370.831
164.14
598.121
504.766
422.217
487.65
551.005
236.642
197.57
572.957
599.65
591.658
606.495
605.359
606.099
606.377
380.966
586.035
604.078
432.494
583.449
586.541
608.277
551.104
211.342
128.301
591.65
483.699
603.186
522.196
377.772
30.1396
447.144
596.173
597.479
29.7878
33.7615
565.409
600.788
79.0841
51.1773
605.771
604.218
46.3572
544.66
413.908
568
590.507
550.036
608.927
599.539
577.504
599.384
594.659
589.507
114.125
604.351
90.352
92.3066
606.445
604.286
582.287
535.639
556.43
128.031
596.729
286.876
520.624
486.558
602.573
593.543
597.168
578.829
577.459
26.1903
30.7901
608.988
595.607
577.037
35.3105
604.154
608.457
606.383
603.555
600.228
603.08
563.126
597.518
553.47
596.583
609.192
452.076
30.587
580.842
600.054
597.593
581.633
594.691
587.87
127.154
468.834
576.858
94.0099
597.21
502.701
600.315
596.894
452.241
607.066
599.285
84.7777
587.759
571.298
370.812
596.576
594.66
29.6646
598.456
368.25
541.06
589.662
586.252
439.777
540.435
562.739
598.729
271.461
105.294
158.74
607.778
25.7781
605.172
593.014
596.124
575.025
274.853
493.054
590.621
570.042
587.666
43.8595
96.1275
598.806
559.23
540.858
26.2003
537.998
542.827
604.897
575.038
555.88
592.747
604.775
604.939
606.867
545.266
386.384
609.625
80.4787
538.925
539.051
596.068
610.228
88.6285
379.868
608.524
512.452
26.0252
26.0598
591.414
596.671
430.212
147.416
605.939
516.498
594.326
574.911
515.058
594.521
578.41
597.834
607.35
597.127
348.733
456.798
106.363
599.645
598.433
54.3486
608.356
43.6212
111.881
593.981
61.5698
592.23
599.83
63.1632
609.66
609.582
170.198
542.359
68.8983
604.623
124.723
25.8964
569.936
592.132
156.933
547.888
402.453
63.2161
35.4951
591.506
101.941
595.484
508.267
477.397
601.213
545.098
62.5269
369.475
506.556
561.475
603.966
566.649
595.816
562.658
389.083
596.303
61.0185
546.065
590.458
529.681
604.656
608.965
598.647
606.81
30.0964
609.08
596.579
270.027
428.421
427.228
598.885
592.216
583.296
592.351
146.208
547.786
542.128
558.761
590.785
604.99
39.5836
604.217
46.6734
407.964
574.344
26.9004
598.27
563.533
513.38
124.468
550.315
95.0757
313.61
596.581
238.445
613.05
68.37
592.388
570.016
37.2316
219.89
597.24
580.69
548.935
606.954
599.34
280.45
26.6202
600.297
606.588
613.759
42.6544
468.223
459.673
607.639
658.896
568.761
591.701
516.734
97.7131
598.925
505.814
75.2611
610.124
540.198
592.881
534.518
599.646
596.06
535.975
589.682
545.869
604.876
40.16
593.572
550.332
506.072
382.981
516.065
600.903
591.032
287.62
554.634
410.53
603.834
596.622
498.163
29.6954
201.471
600.74
597.238
556.959
581.421
596.487
593.916
594.097
155.133
598.579
594.503
296.731
608.745
390.14
573.747
43.7811
31.2526
113.583
26.5615
593.663
595.821
553.311
600.399
598.328
605.162
597.303
566.489
37.9103
378.717
85.7879
585.635
597.702
521.72
504.348
583.426
591.225
600.326
595.146
25.9171
294.582
90.9836
591.443
524.062
466.15
552.091
29.203
82.6972
558.904
610.07
609.436
332.563
574.299
602.044
574.237
99.0274
595.152
609.446
92.5569
597.955
595.867
598.646
599.046
588.533
552.582
550.687
589.069
573.024
90.4323
25.8417
591.889
215.937
306.577
591.133
587.939
599.892
605.441
573.504
592.461
590.237
576.84
556.84
575.515
38.4175
538.528
590.893
600.414
205.385
591.638
601.578
331.325
598.213
561.29
535.707
595.371
604.528
608.153
525.388
475.514
591.402
109.492
583.866
516.937
78.7507
559.386
415.448
604.29
79.6997
576.36
599.515
369.291
67.4426
593.164
58.6047
253.297
598.671
517.839
601.4
586.088
545.347
589.258
600.236
550.601
598.871
598.49
108.223
601.95
598.651
604.425
43.6468
601.203
589.032
555.678
314.128
112.98
163.9
109.901
599.088
603.568
596.019
35.9954
584.46
602.707
550.964
595.282
70.7935
573.491
584.465
258.606
595.542
429.071
251.516
603.786
589.041
56.2578
551.919
26.2447
189.781
610.785
592.103
378.477
606.585
551.594
130.728
604.667
189.528
598.51
599.626
590.157
512.868
590.718
107.173
580.049
600.465
109.488
311.13
474.548
571.762
552.571
27.6115
308.677
606.54
27.4842
593.551
45.34
84.1929
599.861
579.052
573.297
151.21
604.964
135.361
602.068
257.719
387.091
599.086
604.571
593.735
58.3021
66.2097
594.012
113.307
593.278
598.698
163.075
594.645
306.511
604.228
548.289
600.772
604.113
599.84
604.343
566.197
567.339
474.301
561.034
589.01
593.541
155.777
598.942
109.805
599.654
108.185
539.68
449.676
600.783
599.593
598.954
26.7065
598.859
107.351
408.875
604.945
533.333
598.919
608.663
575.736
601.429
137.828
593.713
558.637
594.479
557.826
198.514
103.436
592.821
604.117
588.528
588.415
596.04
595.032
571.565
593.732
598.809
600.076
367.517
421.039
588.54
597.184
398.619
570.385
64.1982
276.796
568.3
30.6629
582.361
599.302
594.694
541.481
459.761
600.277
554.918
161.947
556.678
393.619
46.9048
26.4642
541.64
582.552
594.799
138.247
594.578
587.371
537.565
543.454
591.906
601.972
25.6879
552.567
589.432
584.179
551.69
555.563
590.349
547.78
594.392
563.584
586.478
578.095
593.613
103.806
581.421
594.581
100.772
604.465
594.473
591.818
563.851
587.451
106.595
467.047
156.177
201.478
43.3452
609.422
590.885
37.1174
98.9764
591.894
575.597
585.815
593.517
562.484
573.071
385.951
431.806
584.792
611.429
432.54
586.905
609.355
596.758
573.005
596.066
177.886
95.8692
542.752
41.1159
596.209
596.613
570.731
580.031
597.585
473.371
591.338
578.455
153.315
576.379
569.05
589.99
591.106
565.952
609.341
112.073
536.498
26.4817
130.249
28.7461
590.635
28.8281
29.0201
45.4921
394.356
56.3504
582.347
458.116
521.554
558.613
606.345
594.141
592.677
440.091
604.269
592.747
557.376
53.2721
80.3901
207.818
429.226
286.739
573.994
596.86
594.354
49.3911
412.69
603.993
556.276
214.004
25.9313
25.854
552.902
450.491
604.44
26.0697
577.34
134.373
89.3402
525.118
385.599
515.131
593.17
590.118
125.595
105.992
368.17
592.947
594.445
571.455
147.153
567.61
519.042
569.855
472.655
487.873
514.103
81.4341
392.947
25.9727
604.061
562.73
31.3981
544.523
597.754
133.666
115.165
595.631
599.373
609.652
583.526
589.593
82.1413
118.377
588.278
519.394
142.545
539.442
538.462
541.431
362.444
510.815
608.891
600.017
94.4586
605.181
34.0003
609.553
607.144
186.317
598.363
596.385
550.07
605.012
553.44
610.019
597.851
604.379
413.229
591.046
500.741
381.349
346.66
37.0791
541.098
610.914
605.155
31.1342
549.109
592.73
524.317
534.056
68.6824
605.961
610.357
611.031
602.95
602.538
603.333
576.726
594.955
595.904
490.486
610.011
505.776
586.684
610.299
597.91
93.3072
27.6898
96.9534
43.8787
112.384
418.232
28.2676
594.258
560.001
533.691
25.6364
600.292
126.313
507.984
435.594
593.327
102.052
597.971
598.552
600.35
513.746
38.9715
52.4875
592.11
606.874
599.257
605.01
519.45
599.344
28.2296
577.242
556.03
588.892
595.457
604.857
28.2308
332.888
597.626
584.908
65.288
604.745
596.279
613.329
602.595
603.237
594.194
608.324
108.709
552.243
266.608
563.82
580.911
348.33
598.945
487.782
585.67
456.76
608.933
653.781
558.732
574.598
26.7028
593.937
468.338
581.001
594.673
605.095
601.05
355.005
533.528
552.359
355.448
605.359
591.23
579.003
101.696
606.272
487.74
385.534
391.721
312.878
583.764
578.646
25.7875
534.956
603.138
595.874
390.922
612.255
608.306
28.878
569.694
599.367
581.306
586.563
27.0231
551.311
25.7757
45.8727
593.718
599.461
88.5256
529.402
576.076
557.286
570.036
598.165
603.753
537.887
450.052
547.512
26.3752
187.554
518.228
106.598
103.293
598.516
108.848
85.1815
581.304
54.5922
591.822
345.333
549.057
130.399
572.249
442.582
486.496
562.381
597.74
601.363
38.1909
569.873
595.56
596.818
587.447
608.542
559.646
600.046
593.825
39.612
56.9911
597.013
597.153
153.796
109.8
604.292
403.436
422.593
525.103
592.277
600.158
27.8144
584.042
584.285
544.728
608.114
578.575
37.1481
592.956
121.945
62.0112
30.2393
561.6
595.391
593.546
595.8
596.324
480.919
293.008
599.865
94.0914
427.109
582.726
583.986
598.645
121.846
25.8747
452.451
543.884
550.662
37.6359
204.936
602.531
597.315
542.016
508.007
36.6177
539.607
600.788
79.6022
195.006
594.487
602.968
584.912
545.74
599.213
558.293
609.09
513.45
617.167
586.623
577.827
555.57
607.325
596.854
596.841
436.505
609.353
586.543
30.6672
426.996
349.612
427.284
588.959
591.442
593.571
609.28
597.964
577.344
107.415
479.995
554.796
595.246
597.25
60.4287
406.235
594.145
32.6448
607.718
566.217
353.332
28.5931
594.798
549.243
550.991
508.954
603.546
85.1927
181.128
608.844
547.439
110.568
588.948
552.324
418.29
559.883
573.902
188.524
539.875
594.631
361.381
333.466
114.441
602.981
65.762
460.305
606.392
581.738
551.367
587.324
432.482
136.596
158.242
481.348
450.68
608.731
182.105
491.869
391.105
112.052
589.733
117.276
590.811
598.908
542.354
559.14
544.061
451.364
575.822
54.1989
269.215
26.4325
544.993
574.472
606.092
587.675
554.173
607.704
71.1032
285.88
41.3153
96.0322
409.074
152.927
29.1746
594.534
594.745
62.4017
565.135
591.373
595.788
391.736
510.984
535.728
593.708
577.045
440.815
595.557
396.154
472.436
608.255
34.3793
603.86
42.1656
381.387
37.8226
599.15
122.097
588.253
597.858
555.011
25.5828
542
131.898
588.943
595.963
342.986
213.096
574.029
386.052
175.342
201.248
55.7364
603.512
591.615
139.818
607.004
603.175
538.386
594.125
594.549
604.039
595.849
547.891
597.603
483.02
548.362
593.56
169.699
25.6808
522.786
612.291
595.169
522.776
595.911
594.457
585.538
399.861
598.958
573.32
538.41
533.171
170.236
602.546
518.982
448.73
532.691
369.045
326.546
602.461
593.004
560.046
565.324
571.144
350.754
436.775
596.067
39.8396
579.233
550.7
324.639
95.7897
26.978
563.485
598.271
66.9689
597.175
96.4937
592.527
125.45
42.939
599.432
490.189
597.503
742.109
568.498
26.1571
599.622
588.204
391.338
592.682
85.3626
600.271
128.538
301.943
553.494
100.65
25.6239
606.451
602.659
588.713
117.26
392.459
565.381
578.543
570.194
613.143
589.294
604.211
612.492
481.474
572.298
613.182
595.102
28.9526
258.366
30.4744
585.829
603.01
580.971
541.625
394.717
372.303
25.5762
610.145
468.374
604.101
533.078
590.17
571.923
121.296
586.211
579.115
595.499
317.228
363.364
612.667
553.201
585.862
580.873
25.7814
588.47
585.243
575.828
594.043
599.348
552.466
595.227
585.163
598.979
599.176
96.591
98.5573
80.0367
598.556
603.554
605.439
600.495
604.333
450.526
602.78
609.309
594.606
603.218
532.41
599.041
383.583
70.1385
508.07
51.3919
582.069
207.952
482.7
354.891
601.467
99.0713
592.382
587.188
589.253
645.891
533.858
601.765
474.956
568.949
594.049
440.333
120.204
474.656
602.805
599.568
331.144
597.73
209.264
601.617
593.45
585.311
582.75
579.108
175.882
459.736
611.237
39.8048
599.43
595.49
598.446
517.715
42.0894
598.845
581.524
505.608
61.5574
608.296
602.731
606.658
462.685
598.958
111.619
590.108
535.315
550.9
38.8789
609.261
611.324
603.371
560.216
612.198
28.4257
311.786
467.49
129.462
596.292
39.7084
585.629
610.293
453.029
449.399
420.389
539.336
51.8117
308.79
555.978
537.185
560.329
87.9898
585.654
581.595
416.21
575.289
148.753
609.77
609.501
112.986
553.65
323.51
194.199
428.039
595.628
460.895
585.211
610.911
598.467
28.6437
26.9989
175.929
520.97
534.013
156.082
601.287
457.743
610.885
579.983
597.927
605.8
596.923
473.567
40.7253
489.931
542.947
608.646
476.762
233.976
594.815
402.668
495.543
607.208
433.84
611.357
25.813
596.919
514.63
570.357
579.81
557.5
448.832
49.9783
597.363
288.158
561.345
587.722
588.414
603.703
610.313
594.863
45.1994
35.1866
559.752
595.618
586.519
599.023
593.698
589.231
543.407
164.276
390.099
601.758
178.393
611.358
440.728
563.52
495.043
72.6912
117.841
370.408
605.605
588.943
600.755
594.943
584.976
595.738
29.8435
590.135
598.392
562.091
442.91
598.032
26.1313
34.5716
579.212
591.27
66.587
609.944
120.747
307.025
595.922
573.221
545.076
443.973
603.07
582.872
523.485
415.938
529.003
124.115
471.182
372.383
513.755
560.099
594.462
142.645
552.213
91.9909
585.379
51.3202
219.435
109.212
554.951
66.8461
546.575
599.06
599.565
540.421
459.312
594.762
117.496
445.24
521.71
598.701
588.445
53.0282
116.117
123.722
544.539
584.265
29.8526
93.179
571.14
417.098
455.146
463.809
380.251
544.614
521.351
452.646
605.129
609.387
465.02
586.53
494.14
120.733
286.899
579.556
462.306
564.724
611.097
575.311
586.897
321.492
610.274
79.2757
25.9316
299.256
487.504
389.56
225.794
550.593
575.706
396.653
29.553
561.805
577.449
599.264
590.177
603.541
598.409
248.147
598.196
610.92
482.746
578.506
602.744
598.04
69.1858
432.092
590.097
585.193
534.187
556.014
598.275
600.897
611.735
79.4594
544.77
555.98
500.833
593.796
606.005
75.0244
456.148
100.888
587.106
577.684
579.881
601.083
520.86
288.261
378.885
583.122
557.369
594.405
515.266
104.779
214.526
177.423
544.192
594.015
609.511
545.39
342.816
29.6902
609.111
312.855
606.175
592.857
571.53
603.443
84.1644
567.889
174.335
606.322
573.697
514.323
26.9021
593.904
599.204
455.918
223.997
58.7527
123.695
50.4806
565.333
348.822
538.044
609.858
27.6497
593.295
601.562
595.577
598.625
88.2953
49.1646
531.379
137.478
599.633
601.295
582.695
518.808
577.472
116.936
602.299
563.206
540.778
180.962
608.875
170.243
587.307
595.908
84.5444
603.013
286.656
110.941
99.5793
331.861
589.866
550.385
583.597
25.8316
458.297
586.593
26.1841
531.18
607.991
558.922
233.096
609.975
25.6089
59.0337
541.703
603.418
528.068
590.815
42.7309
611.05
573.295
595.298
87.5876
26.4959
595.113
598.479
364.739
506.076
603.474
603.142
602.224
563.123
551.249
342.364
586.28
589.493
585.698
545.949
582.469
599.299
144.715
392.14
115.136
579.07
608.951
196.771
591.103
440.322
264.281
394.857
188.818
56.78
612.842
250.51
543.644
562.697
603.968
602.853
601.184
42.7077
607.371
584.876
53.8829
73.1477
32.9155
605.52
608.88
110.715
602.136
578.505
561.315
598.835
338.646
580.457
27.2931
200.476
599.125
367.845
377.923
30.9659
43.187
596.223
529.181
468.268
482.949
48.6398
534.56
570.609
601.316
538.875
610.064
35.7793
91.3734
601.301
120.13
611.375
25.6166
590.344
534.368
560.905
45.765
101.566
27.2873
26.0446
598.27
84.6914
30.9913
566.22
26.3432
567.744
603.344
594.314
532.276
532.325
587.462
600.145
376.208
515.035
579.558
60.9118
578.738
569.07
597.852
567.556
599.134
400.939
216.04
368.395
123.647
596.872
553.137
554.999
596.109
545.896
598.808
25.6116
66.3368
33.4262
610.246
592.301
573.052
389.652
598.291
611.216
598.64
545.369
521.509
591.049
139.985
593.072
27.301
608.272
522.049
72.1969
286.707
598.224
405.204
587.719
609.295
576.636
66.5571
599.602
571.088
27.6724
589.545
581.207
126.403
496.807
378.231
579.896
59.3864
541.663
34.3479
608.214
601.039
54.951
604.069
551.075
529.216
518.861
29.4225
553.561
600.325
564.432
598.443
268.763
26.2712
610.801
158.351
594.25
412.837
594.275
141.015
467.373
533.093
524.399
591.084
48.9957
604.463
29.7176
608.657
588.669
545.362
591.99
607.062
378.975
552.545
599.241
606.834
607.15
459.443
540.074
224.533
458.115
600.799
463.099
600.293
600.749
529.016
55.4028
599.196
606.32
457.951
612.438
601.216
601.619
601.998
606.767
36.3115
603.495
597.431
346.7
587.599
118.528
603.09
612.147
30.4186
347.31
589.269
457.523
561.047
99.8806
598.197
542.798
334.689
571.029
600.212
497.945
572.033
559.252
493.523
520.497
582.642
323.437
222.771
543.304
586.135
472.493
372.777
576.431
88.0477
108.342
264.499
27.1264
597.136
589.026
595.325
462.074
131.603
54.2025
26.5993
598.65
305.195
596.291
49.3878
594.205
550.016
524.907
598.17
573.454
396.384
545.182
568.759
579.746
562.807
545.001
601.672
318.399
564.635
570.114
601.52
100.569
568.161
176.554
503.86
551.778
27.5598
518.735
578.221
610.042
594.205
54.5341
25.5545
98.2365
590.183
524.284
61.7619
577.727
536.539
602.346
511.885
414.106
613.044
193.135
602.09
478.022
111.63
397.793
398.194
585.632
27.3719
578.695
435.858
608.789
598.043
599.135
586.761
231.66
611.272
139.661
508.05
119.57
606.331
33.2659
58.3939
572.201
185.58
562.663
593.032
597.179
588.488
588.025
528.16
45.1202
593.822
554.55
26.1311
565.785
585.634
512.477
500.192
604.89
25.9909
595.304
38.0596
532.491
603.793
471.966
403.074
233.036
596.819
596.206
25.8912
597.877
399.002
369.841
565.529
605.633
381.258
603.828
258.7
601.889
569.703
194.783
565.588
401.961
612.299
56.1579
179.299
594.136
524.296
26.7307
589.811
608.322
26.5143
60.6861
25.8589
602.402
568.551
75.9311
108.941
26.5572
578.924
552.57
590.009
534.185
567.115
607.98
74.5528
601.481
26.9471
533.639
75.6926
598.513
166.691
86.3759
392.387
412.803
110.746
611.23
573.588
41.2755
603.238
571.906
592.06
26.0051
25.8073
603.88
25.5569
508.315
595.441
27.0841
556.027
576.753
25.9201
28.123
600.677
28.9093
596.491
594.767
25.5962
455.394
383.718
41.6842
472.59
29.4062
469.615
513.926
109.285
68.0621
26.2816
569.092
598.637
596.145
547.541
508.281
371.408
27.0258
39.5428
541.14
599.214
594.506
529
575.383
598.052
122.74
606.98
612.781
557.393
25.5891
579.378
373.92
148.364
594.273
25.7252
391.701
82.5074
559.58
556.754
601.256
586.72
578.058
397.409
554.943
603.024
51.0586
589.663
537.551
178.535
576.674
478.419
579.938
340.252
42.4721
598.832
141.064
46.0117
573.174
563.404
611.883
567.395
583.648
245.253
586.649
26.3232
583.946
590.595
26.0576
62.5756
608.98
595.859
264.456
164.439
593.388
602.536
576.811
540.288
423.459
435.695
611.726
401.604
556.341
122.218
601.374
121.465
590.51
545.09
62.5442
119.897
574.545
254.745
327.014
320.254
598.985
547.917
41.0304
378.136
576.328
27.2717
603.963
402.337
574.921
581.065
560.339
95.2856
481.834
586.111
595.088
596.574
403.3
591.941
601.045
590.707
364.995
607.47
27.3088
280.878
486.378
551.265
593.187
578.538
545.126
526.785
44.1718
397.887
601.999
590.329
510.003
345.138
606.177
614.82
385.458
578.271
30.6546
63.8108
603.45
83.5174
265.34
26.6484
26.7227
603.944
591.306
502.554
598.77
578.66
387.422
411.972
28.7284
581.947
590.783
543.674
103.588
608.873
110.585
604.813
590.587
27.7761
425.363
533.23
287.03
433.676
552.988
60.955
294.216
411.744
193.725
570.452
563.854
590.84
591.896
439.991
373.738
27.0472
224.829
541.354
602.113
375.562
553.709
600.513
568.114
435.418
208.619
607.389
442.663
292.942
396.908
38.01
609.022
26.5498
600.601
555.934
233.252
585.095
565.217
564.864
45.1706
578.604
439.162
611.868
590.671
455.466
121.573
595.104
228.205
606.348
576.041
576.704
229.993
598.402
27.5665
560.47
27.6873
596.094
423.992
599.106
591.443
69.8724
33.5066
335.285
611.898
321.1
319.605
149.409
67.9229
438.713
559.344
174.552
347.604
594.477
600.855
158.054
344.179
41.2531
528.247
28.2681
613.233
565.533
108.355
491.044
596.121
115.848
596.976
585.597
569.796
583.423
150.294
332.213
608.085
546.703
602.365
509.049
418.34
574.604
32.0003
32.4422
357.949
330.562
581.231
26.5035
560.985
445.132
604.211
463.897
517.414
540.979
575.249
524.916
567.516
320.419
315.822
576.37
608.863
686.802
480.247
565.525
35.6958
522.491
36.5806
603.851
340.986
502.297
158.088
599.893
547.679
575.75
463.387
548.957
570.372
559.024
572.606
558.204
553.729
553.172
598.477
531.513
27.1162
92.5934
544.634
593.902
26.065
70.9558
593.419
460.476
555.689
569.786
80.3391
377.324
596.834
31.2624
595.782
125.703
378.443
472.494
558.801
595.081
591.283
609.468
579.361
287.696
606.135
527.34
121.762
377.872
584.468
423.835
203.877
588.098
557.57
367.769
583.892
573.85
591.332
544.878
571.628
324.799
539.379
28.373
535.797
147.917
533.315
355.252
494.6
496.511
599.934
543.916
460.009
195.09
235.157
600.264
32.1064
133.266
524.911
488.475
124.318
26.8535
45.0863
604.687
554.628
546.211
422.471
169.285
443.098
596.238
122.507
569.774
512.148
598.743
394.39
561.818
533.937
538.79
399.699
360.268
541.422
603.139
569.757
26.2544
605.155
397.495
580.799
56.2355
489.214
161.863
578.729
593.109
604.25
26.3578
550.204
603.289
595.582
140.077
45.6181
552.12
592.709
477.783
430.136
153.467
576.165
600.934
448.444
334.038
511.758
537.656
604.301
216.364
601.587
33.5294
545.418
578.111
73.7371
273.951
598.324
544.213
118.465
533.605
541.086
596.629
586.559
81.5291
58.976
599.908
610.438
31.8027
378.531
582.434
594.262
573.139
548.632
480.841
590.697
578.948
171.177
571.298
543.724
603.97
509.95
544.007
575.633
601.996
581.788
594.667
586.326
27.2801
110.37
38.812
647.919
564.639
605.862
37.7502
105.548
38.7446
546.739
403.204
592.521
566.242
576.269
605.676
295.34
582.121
26.1088
598.777
25.9055
579.166
554.485
494.642
599.913
420.048
606.199
28.1404
598.884
553.188
231.128
363.211
609.011
96.3618
63.6585
427.322
565.759
594.373
518.576
599.452
454.06
611.695
526.408
177.179
27.1012
29.9254
589.78
669.07
601.151
588.552
549.334
601.049
598.715
597.11
602.203
259.659
548.608
541.544
582.379
599.593
601.655
547.68
544.613
580.773
494.269
477.67
608.696
131.944
577.212
452.308
136.752
435.18
407.928
405.258
362.627
390.692
47.3305
29.6042
38.7963
602.662
602.088
543.372
604.53
448.311
573.275
599.599
26.6875
61.0949
39.9561
433.235
458.696
554.254
604.553
309.135
389.631
552.177
40.5566
336.642
583.878
591.203
103.678
479.915
466.684
556.607
468.88
601.941
603.321
341.016
34.0375
339.088
564.797
596.114
41.2897
594.936
556.421
606.979
56.2987
609.586
544.865
532.25
597.244
570.783
26.0237
603.819
601.931
547.188
26.4977
66.6787
609.649
448.514
582.77
265.586
112.71
521.113
74.5586
465.802
172.114
45.9757
290.215
540.426
556.518
42.7235
517.956
563.835
593.14
403.434
406.43
534.339
592.327
539.908
468.234
544.202
536.918
236.562
26.8212
389.055
554.6
54.0739
669.143
538.488
606.753
596.072
381.321
544.023
266.312
536.345
601.529
542.453
565.827
581.3
143.669
587.238
87.6098
589.696
441.193
604.492
593.669
175.918
334.535
53.2707
684.788
567.607
601.591
476.684
80.4042
600.522
26.0411
417.626
69.388
467.462
413.63
575.917
529.551
401.04
105.644
102.838
482.679
570.281
606.306
384.868
540.359
578.394
42.4213
512.567
603.293
547.388
605.698
596.048
613.572
564.935
43.0986
548.207
359.518
329.45
25.5494
552.548
594.913
580.057
592.93
416.983
100.586
560.785
599.046
436.135
596.775
26.2061
481.958
581.655
438.014
444.379
66.2972
76.0439
431.748
585.545
534.253
574.188
27.9919
577.42
53.7654
27.4073
283.399
606.271
411.164
104.039
276.468
600.097
29.4688
570.934
491.8
592.387
490.604
500.71
612.099
172.129
478.486
39.73
439.825
171.261
566.396
26.309
590.321
671.936
536.646
27.9164
400.526
544.958
31.3144
27.7282
596.432
40.5893
572.406
479.68
569.547
562.366
602.013
557.11
26.4818
447.85
527.904
76.0532
399.984
574.472
481.303
544.416
66.9745
597.299
563.389
67.4465
483.283
80.8007
551.808
385.146
564.651
272.425
597.529
508.618
59.9381
582.377
229.038
613.741
590.27
276.647
330.837
571.634
599.204
509.84
26.0893
266.209
371.318
517.937
541.182
439.662
588.691
48.3161
25.6511
32.6215
26.2491
597.222
497.657
580.898
28.4295
566.667
437.824
595.889
552.646
482.956
605.459
410.239
586.801
275.392
72.956
473.768
581.104
586.619
69.0213
573.463
562.423
357.935
584.274
574.048
425.495
26.8848
165.112
568.196
101.212
564.477
328.697
483.759
608.933
97.4042
339.221
550.774
479.446
345.585
531.231
353.035
57.1664
441.113
488.954
581.804
600.218
583.148
505.451
598.997
60.8817
406.695
450.326
605.73
161.358
39.2543
601.673
40.4603
597.129
547.61
527.728
473.713
26.3098
26.2704
302.493
571.097
59.1001
585.068
276.484
599.318
591.319
569.71
66.8856
552.801
533.242
548.982
222.1
592.7
546.478
542.815
596.844
332.011
602.374
541.522
553.675
594.555
393.277
103.904
553.726
373.705
605.231
569.927
568.581
598.034
80.9945
601.278
495.294
74.8235
580.142
101.616
511.565
586.92
455.911
426.769
32.7082
582.136
586.086
601.521
601.897
59.967
531.411
652.539
585.448
598.84
558.655
565.145
63.1545
490.256
509.428
594.389
568.206
594.455
348.6
580.209
450.148
576.426
139.993
529.421
609.01
553.235
391.652
577.926
599.659
596.96
545.459
583.133
530.867
590.625
94.663
599.385
48.7911
544.294
609.793
270.067
526.253
584.036
57.0355
593.149
551.143
589.108
598.906
556.983
527.743
97.9731
334.538
538.043
510.969
262.045
390.878
492.798
539.764
598.54
27.1097
445.834
539.211
525.568
596.968
78.9582
322.672
386.048
571.632
465.149
604.572
535.553
590.624
531.77
464.37
546.778
498.571
81.4623
27.6714
577.024
538.965
562.048
594.461
548.363
602.08
516.638
594.761
594.3
595.352
135.136
605.055
33.8183
536.874
561.759
599.526
25.635
578.08
594.088
591.534
534.657
134.138
111.167
515.308
528.27
564.145
498.277
174.076
600.441
595.535
45.0735
57.2621
364.961
593.659
598.153
597.499
610.011
63.2854
296.069
395.609
601.279
125.568
596.071
599.421
515.059
448.203
295.414
568.915
63.5398
536.383
249.251
117.368
110.603
279.863
485.813
87.4055
450.388
609.092
523.766
583.199
347.423
56.7579
591.699
591.561
564.032
480.517
600.176
592.089
112.479
584.157
597.934
599.638
571.983
588.862
589.253
553.249
26.2963
594.454
592.193
525.685
597.245
457.009
533.914
323.565
563
591.802
602.371
548.975
600.739
349.516
81.9272
594.404
361.362
395.446
612.841
125.599
602.6
401.977
588.609
578.481
541.777
605.568
592.094
341.612
418.737
523.319
570.968
602.553
584.099
555.781
569.222
570.408
70.1683
550.83
67.7372
598.044
578.576
210.007
597.794
603.342
566.504
573.113
605.673
563.603
389.587
27.2429
597.065
63.5466
568.595
595.281
597.329
554.946
559.057
107.802
403.523
588.674
595.212
566.898
576.048
543.512
76.8289
596.327
314.647
573.495
39.3361
510.401
586.493
208.322
599.665
593.056
32.0449
584.633
565.222
229.985
97.6282
591.568
586.875
577.763
520.489
532.588
590.312
61.6431
598.068
599.786
546.011
548.403
597.415
492.205
611.143
594.478
602.416
148.75
599.177
594.274
518.47
570.548
587.629
26.071
578.779
272.341
591.237
558.708
401.73
161.91
586.676
603.013
428.06
564.496
133.842
520.54
594.137
551.946
393.866
543.254
482.417
578.203
96.0345
57.9615
100.294
595.781
586.201
60.2125
565.365
590.645
310.797
583.109
592.356
579.697
601.744
603.188
595.12
602.031
606.219
604.617
603.142
590.381
584.425
121.611
580.387
57.3179