/*--------------------------------*- C++ -*----------------------------------*\
| =========                 |                                                 |
| \\      /  F ield         | OpenFOAM: The Open Source CFD Toolbox           |
|  \\    /   O peration     | Version:  v2012                                 |
|   \\  /    A nd           | Website:  www.openfoam.com                      |
|    \\/     M anipulation  |                                                 |
\*---------------------------------------------------------------------------*/
FoamFile
{
    version     2.0;
    format      ascii;
    class       volScalarField;
    location    "50";
    object      ddt0(gammaInt);
}
// * * * * * * * * * * * * * * * * * * * * * * * * * * * * * * * * * * * * * //

dimensions      [0 0 -1 0 0 0 0];


internalField   nonuniform List<scalar> 
18758
(
5.01666e-08
-4.41086e-05
2.30055e-14
-4.43282e-14
6.91881e-15
6.4063e-15
1.94518e-14
1.96796e-15
-3.6004e-07
3.29275e-14
8.8861e-16
-3.64122e-13
-3.21558e-14
9.50898e-07
-1.27666e-15
3.78819e-15
2.46773e-14
2.38221e-14
-3.29433e-14
6.44639e-14
-1.74016e-14
1.87104e-14
-2.53734e-15
5.47298e-06
0.0354901
-3.2941e-14
-6.30812e-07
4.02055e-14
-5.68564e-10
-0.0330176
-3.13149e-11
2.35951e-14
4.93337e-14
-1.38412e-15
1.54462e-08
-1.06303e-15
1.99544e-15
2.38514e-15
1.60085e-14
-2.78334e-14
4.80847e-15
2.27598e-15
6.63817e-15
4.09828e-14
0.0273642
-3.56296e-15
-5.07937e-14
3.5986e-14
1.89271e-15
4.68372e-15
1.06027e-05
-2.71369e-14
7.19162e-16
-2.09465e-15
-1.12135e-15
-0.000322757
1.4311e-14
1.91846e-15
-1.63503e-14
1.5823e-05
1.07495e-08
-1.95418e-15
3.69749e-08
3.41969e-14
2.69841e-15
3.39143e-14
1.68754e-14
-3.70454e-15
8.28752e-15
4.21337e-15
2.48573e-14
-3.58794e-15
-3.09221e-15
6.57723e-05
-3.11063e-14
-3.67907e-14
4.18249e-07
-6.54599e-14
4.92655e-14
2.62656e-14
5.83228e-15
0.127454
2.4927e-05
5.16526e-14
9.13275e-07
-1.54707e-15
-7.76744e-09
2.70345e-08
7.62164e-08
2.0711e-14
-5.63014e-16
-3.23423e-14
2.38133e-11
-1.5513e-14
-1.89755e-14
-1.95524e-10
2.2478e-07
-9.43936e-15
-1.80085e-14
-3.77622e-14
3.55305e-14
-2.06329e-14
-4.56009e-10
-2.93014e-14
1.77431e-15
0.0304314
-2.17112e-06
8.39424e-15
5.49809e-15
-3.7808e-14
2.86452e-10
-6.63384e-06
-2.11568e-15
-8.18966e-15
-1.49051e-11
2.85724e-15
8.19076e-15
-9.01775e-16
-1.72615e-14
-6.3902e-14
-3.64714e-14
1.49068e-14
-7.93013e-10
-8.79378e-09
0.000519659
-0.0220643
-3.26526e-05
0.000172943
-2.12685e-12
-7.89246e-15
1.46798e-14
-2.85537e-08
5.43949e-15
-8.54077e-15
1.16844e-11
-3.92462e-14
3.99176e-07
3.23739e-15
-2.77637e-14
-3.69448e-14
-2.82384e-14
3.3717e-06
-8.3019e-17
-5.16584e-07
-3.92962e-15
1.88102e-14
-3.00764e-15
1.6535e-13
-7.50085e-11
8.40015e-14
0.349689
-0.00105585
-3.06778e-14
-4.15393e-14
-8.88417e-16
-4.16221e-14
-1.1841e-15
7.62486e-15
4.0995e-15
-4.29887e-15
1.25031e-15
6.52069e-06
5.6207e-09
5.05744e-15
2.20156e-08
5.73346e-10
3.50033e-15
-6.80256e-11
0.00031683
3.21057e-15
2.58614e-14
2.80406e-14
-6.95169e-10
-1.30911e-14
-1.72163e-05
0.00313497
-4.43224e-11
2.77997e-14
-2.09532e-15
-1.15524e-14
3.88309e-14
1.63407e-14
-0.00484659
-3.26507e-15
-5.23874e-15
-0.00151915
-1.68376e-14
-4.19894e-14
2.40062e-14
2.29462e-14
2.50023e-15
0.000181137
4.94955e-15
-2.74747e-11
-3.62336e-14
1.85172e-08
3.50732e-14
0.000605549
2.3708e-14
-2.82537e-14
-8.57949e-15
1.61693e-17
-1.40469e-14
-6.51536e-09
-1.97631e-16
-3.1273e-14
-3.23053e-10
2.35251e-15
2.89316e-14
-2.68776e-15
-1.05694e-14
2.25176e-15
2.0353e-15
-3.01208e-14
-7.24521e-15
3.35803e-14
-1.42478e-14
3.43987e-14
3.77095e-14
-9.35993e-16
9.21011e-16
4.27944e-14
-1.11484e-06
-3.52699e-14
7.01468e-05
-1.08466e-09
-5.98603e-13
-1.19692e-14
-3.54334e-14
8.41671e-09
-1.82041e-15
-4.62961e-08
2.74808e-14
-2.91696e-06
5.9984e-15
1.84675e-15
-6.45436e-15
5.96061e-15
1.47927e-09
9.82635e-16
-7.61111e-15
-0.0105266
-6.05882e-08
-3.53267e-14
7.88253e-12
0.00165572
-1.24015e-06
-2.27778e-14
-7.10699e-15
1.74911e-14
2.87564e-14
-1.59245e-11
1.96941e-15
-5.12311e-14
1.90532e-14
-1.17068e-15
0.000788368
3.16839e-14
3.09023e-14
6.23069e-13
1.454e-14
8.51696e-10
-8.7572e-15
-3.28956e-10
-1.39095e-15
-4.761e-07
3.17564e-14
3.01171e-14
-3.74637e-14
9.01685e-06
3.5559e-14
-8.18979e-15
-2.73991e-09
1.92281e-11
-4.70117e-15
-1.43254e-16
-8.05735e-07
2.50621e-06
0.0533352
1.96119e-15
-2.23282e-14
1.81851e-15
-8.6352e-15
-1.3414e-15
-2.04158e-06
-0.009344
1.20647e-12
-2.6725e-14
1.63005e-14
3.9737e-14
2.87817e-15
1.13187e-14
1.65716e-15
-4.28793e-14
-2.44052e-13
-8.04814e-08
-3.09191e-14
-1.66509e-14
2.69734e-14
-8.72087e-07
-2.66843e-14
5.47287e-15
1.00751e-14
-2.87285e-15
-2.91016e-15
2.16264e-15
2.30275e-08
-3.68074e-14
1.76035e-14
5.40408e-11
3.35445e-11
-1.16554e-15
6.09969e-13
4.5344e-14
0.000239149
2.14225e-15
2.86002e-14
1.42006e-06
-3.12884e-14
2.58742e-14
1.06925e-14
3.46558e-14
0.000110727
3.67967e-09
5.52016e-15
-7.70292e-15
-3.02311e-14
1.95218e-15
-3.02108e-14
-4.05618e-15
-0.00021807
-7.23726e-13
-2.32317e-06
3.43723e-14
-4.79507e-14
7.65271e-16
-8.48749e-15
-3.2151e-07
-1.97253e-14
-3.53205e-14
-1.95878e-14
7.06055e-15
-4.21466e-14
3.15283e-14
0.0391809
7.07885e-15
-2.189e-15
-1.30686e-15
8.67638e-13
-4.43403e-08
-8.37841e-06
3.12122e-08
7.58855e-15
-0.000105302
1.11138e-07
3.23416e-14
8.86308e-16
-1.81333e-13
-6.5887e-15
-0.0354661
8.49294e-17
1.88952e-14
0.000490406
-8.08163e-12
-1.96836e-14
5.18804e-14
1.27899e-11
-3.40793e-14
3.61431e-14
1.28381e-06
5.61406e-15
4.37476e-09
3.29184e-15
-3.07375e-14
-5.1578e-14
-4.03673e-16
1.97694e-14
-8.11442e-15
-5.3229e-10
3.81947e-14
1.23444e-13
-1.32824e-07
6.07701e-15
7.18162e-15
-1.83299e-14
6.45614e-09
-1.39506e-06
-1.2818e-14
-2.2759e-11
1.01278e-14
-3.51596e-14
3.58791e-15
-2.63781e-15
-5.50064e-15
-1.23611e-14
0.0192264
1.27093e-07
9.77441e-15
-3.27667e-07
6.11045e-14
4.4449e-14
1.26347e-15
5.08534e-14
-2.5989e-15
3.38544e-14
-3.47969e-16
2.1019e-09
9.17416e-16
4.90041e-15
-8.46786e-08
-2.66643e-10
-1.76051e-14
1.83852e-14
9.19751e-14
-1.49823e-15
1.13285e-15
-1.69103e-14
3.54834e-14
3.59889e-14
-6.97694e-11
7.56051e-15
-0.52171
3.13261e-14
2.70277e-14
-4.35338e-05
-9.6011e-14
6.03183e-15
-7.22257e-16
-2.472e-09
-2.7781e-14
3.69354e-14
3.45569e-14
-2.21949e-14
-7.95742e-09
3.68296e-14
5.78556e-14
-1.99677e-14
-9.38514e-15
-0.000972322
-9.82673e-10
-3.7582e-14
1.22358e-14
-4.45593e-08
-1.32252e-15
2.82887e-14
4.44065e-14
-1.66593e-14
4.82055e-10
-2.82924e-14
-1.83184e-14
8.92296e-05
-2.42251e-09
-4.97527e-14
1.84026e-13
-1.15736e-14
-4.78261e-14
-2.68833e-14
-3.72296e-15
4.50651e-16
3.41484e-10
-4.70432e-06
-0.000812375
2.2551e-14
5.24816e-06
4.83982e-15
-3.46014e-08
-8.6672e-16
-1.43903e-08
1.74115e-14
1.70568e-11
-1.97288e-11
0.00714682
2.17103e-15
3.38241e-11
1.35896e-15
-0.000246172
-3.78932e-14
4.76805e-14
-2.68184e-14
0.000217699
-1.01773e-14
1.51746e-07
3.49284e-14
-3.86964e-14
3.44971e-15
-3.0316e-14
2.64139e-10
4.11744e-15
1.04693e-10
3.49823e-15
7.43013e-14
1.55089e-08
1.09722e-14
6.3397e-14
2.41113e-14
-2.40172e-14
-1.28384e-14
-3.96666e-07
-2.85483e-14
-2.4282e-10
-3.21802e-09
1.23105e-14
-1.90247e-15
-2.23208e-14
3.54943e-14
-3.09761e-14
4.63324e-12
-1.02457e-15
-8.19864e-15
-7.88248e-15
-2.42903e-14
-1.44005e-11
8.86187e-15
3.85101e-14
0.000322538
5.40489e-14
1.37368e-10
-7.49674e-07
-3.30048e-14
-1.80406e-15
1.57303e-14
6.77659e-15
2.01183e-14
7.29899e-05
1.37394e-14
-1.80942e-12
0.000106428
1.24685e-11
1.77701e-15
-9.60037e-14
1.605e-14
-4.24912e-14
1.91876e-14
4.75013e-14
-7.9107e-16
-4.38944e-14
1.68217e-14
1.36619e-15
-8.29796e-09
-1.03143e-15
1.12228e-10
7.32811e-16
-2.43405e-05
-1.28997e-06
4.6501e-14
-3.09713e-14
-1.85279e-15
-4.49324e-14
1.8427e-15
9.42288e-15
7.79481e-15
-5.09276e-09
-1.42662e-11
3.93364e-14
-2.71048e-14
1.27055e-14
-3.81788e-14
5.17473e-06
0.0257819
5.63291e-15
-6.41345e-15
3.11866e-14
1.42476e-14
2.55522e-15
-1.25976e-13
-8.12503e-15
-1.17745e-13
-5.22521e-14
-4.6853e-07
-1.08239e-08
-2.31076e-14
-8.26584e-16
-2.51002e-14
4.17349e-12
-0.155682
-2.83073e-14
0.000110753
4.22101e-15
8.78373e-09
-3.19556e-15
6.42138e-16
1.82946e-15
-9.44545e-15
5.6728e-14
-7.69708e-10
6.08455e-15
-0.000494142
-2.31057e-15
-3.50745e-14
-8.18773e-15
5.47665e-06
0.00181651
-4.90609e-14
2.24289e-14
3.99752e-12
-4.14381e-14
6.97743e-14
-1.5598e-14
-1.46595e-09
-4.40276e-15
1.62902e-15
2.05642e-14
3.51789e-15
6.31185e-14
1.58664e-09
-7.56069e-15
-1.39469e-14
-1.57584e-14
-1.07231e-16
-2.69832e-11
-3.72374e-14
-1.67044e-14
-7.83486e-16
-1.48059e-14
7.11164e-09
-3.70993e-14
-0.000127449
-1.49698e-14
7.3395e-10
2.67615e-14
7.49658e-15
-1.3034e-06
3.81989e-14
-1.11451e-14
0.000130296
-4.97345e-14
-4.68745e-14
-0.000188804
-2.92605e-14
1.25421e-16
-8.54228e-15
-3.5019e-15
-8.34439e-14
7.43039e-05
-2.90157e-15
2.30878e-15
-2.692e-15
-0.136082
3.88356e-14
4.04999e-14
-2.1475e-11
9.35861e-07
2.74349e-14
9.3007e-15
9.82705e-10
3.07257e-14
-5.83696e-07
-1.22393e-14
-2.07905e-05
1.36765e-14
-5.63577e-11
2.10568e-15
1.10755e-10
2.21339e-16
-6.78362e-16
4.61676e-15
1.09592e-14
6.26778e-11
1.66669e-14
2.00306e-14
-2.42323e-06
2.004e-14
-1.20605e-11
-1.89801e-10
1.26036e-06
1.47654e-14
-7.40647e-16
-1.64057e-07
1.00885e-14
3.70137e-14
-4.95998e-14
6.04772e-14
-3.47012e-15
-2.67138e-06
-4.99632e-15
2.61371e-14
-3.24527e-14
2.34141e-14
1.39677e-10
1.6155e-15
4.02903e-10
-2.52095e-14
-1.9242e-14
2.15442e-14
1.17828e-14
-5.62431e-15
4.19328e-14
2.75322e-12
-3.18782e-14
-2.88418e-14
-1.24218e-14
-3.25124e-14
5.23071e-15
2.08846e-13
-1.37264e-14
-7.28152e-15
2.0099e-15
0.00234758
-5.82268e-15
-2.39737e-15
-1.30313e-14
2.9217e-14
8.90144e-15
3.55778e-15
-7.92035e-09
-3.49462e-07
-1.98757e-14
7.70204e-15
7.71141e-15
-0.00011423
-3.21237e-14
-9.04147e-15
2.56625e-15
9.98106e-15
-1.71395e-14
1.18514e-14
-1.09984e-06
1.43886e-14
2.86005e-15
-9.99609e-10
-3.06287e-14
3.68641e-15
4.48543e-14
-4.24989e-14
-3.17491e-14
-1.36174e-15
-3.65965e-16
1.24597e-14
-5.09814e-15
1.1192e-05
2.15644e-14
3.26521e-15
-6.35233e-10
-1.46334e-14
1.00752e-13
-8.00526e-15
7.92926e-09
-1.30785e-12
0.0031713
2.53422e-14
-6.91829e-06
2.29073e-11
-4.20192e-15
-3.87326e-08
2.93205e-14
-0.0041257
-9.68703e-15
-2.75542e-14
-3.15583e-14
-9.39709e-15
-3.43316e-14
3.2209e-14
-5.14596e-08
-3.0335e-14
-2.74656e-14
0.00379698
-3.23504e-15
2.8016e-14
-8.53933e-15
-3.78666e-08
1.72995e-05
-0.0905018
5.09094e-07
2.9428e-14
-1.68254e-15
-3.65246e-14
-2.95791e-14
-6.71484e-16
0.00649
4.82451e-10
-6.67589e-15
-2.06248e-15
-2.82977e-14
-3.3897e-15
2.86034e-14
-3.53592e-15
-0.00161061
-0.000148296
4.67876e-15
2.49464e-11
-7.71568e-15
-1.48714e-11
2.28544e-11
3.49371e-14
7.75455e-11
1.37722e-14
-2.67118e-14
-7.00611e-15
5.49305e-14
-6.10086e-15
-0.000207134
-5.29246e-14
-5.31909e-10
-3.88219e-14
1.69499e-15
-1.19386e-15
3.92989e-14
-6.0592e-14
3.23639e-14
6.81648e-12
-3.78992e-14
7.25418e-15
-4.64765e-15
-1.85731e-15
-2.27744e-14
3.83009e-14
1.47665e-07
6.44591e-14
-1.97988e-14
-6.9996e-15
1.48536e-06
-9.21394e-15
2.19377e-14
1.97743e-14
2.37809e-14
-3.54011e-10
-0.00170134
8.68774e-06
-1.53674e-14
1.33457e-14
-6.32389e-15
-0.103122
2.15968e-14
0.000123283
1.65447e-15
2.84737e-14
3.09076e-15
2.31879e-14
-2.26033e-14
2.29222e-14
-3.57131e-15
-1.15245e-08
-4.92826e-12
-9.29774e-08
-7.19737e-14
0.0128224
3.02176e-15
3.68655e-14
-1.03159e-14
3.1127e-14
4.40109e-14
-6.73072e-15
-3.55388e-14
1.82987e-10
0.000113782
-1.43065e-11
-3.93473e-14
9.55889e-14
1.27436e-08
6.44452e-15
4.1294e-15
-3.4648e-15
-7.63016e-15
3.54112e-14
1.46281e-14
-0.0010405
1.54256e-14
-3.20667e-14
2.92067e-16
2.30718e-14
-1.49125e-14
2.38932e-14
-0.0054524
-4.20223e-14
3.00216e-10
2.27475e-05
0.000392815
-1.11612e-14
-9.25326e-06
2.47236e-15
2.6715e-14
-0.000295508
9.76132e-15
-2.60127e-09
4.14639e-15
-6.04832e-15
-0.000697603
-6.20177e-14
9.33012e-15
6.83708e-14
-2.86995e-06
-8.36504e-15
-5.13105e-16
-2.74297e-08
3.11971e-10
-1.3825e-08
3.8776e-15
4.23497e-16
-7.5068e-14
-2.91734e-14
-1.48494e-12
2.73206e-09
4.69531e-15
1.31439e-15
2.10017e-15
-2.08882e-06
-2.55553e-14
-0.00257626
-2.47231e-15
-6.09013e-16
-8.02753e-05
-1.43032e-14
5.5868e-15
-1.28231e-15
2.31621e-14
-1.93292e-15
-1.07403e-14
-1.09643e-15
-7.45238e-07
0.000484746
5.92452e-14
3.93601e-16
-8.8847e-15
7.04739e-15
2.07948e-07
1.07484e-06
3.42794e-15
1.54095e-14
-3.123e-16
0.00114679
4.69761e-11
1.49324e-14
-5.07882e-14
-1.68835e-09
-2.15122e-14
3.39499e-14
8.68279e-15
8.22361e-09
2.85555e-11
3.5005e-14
-1.31847e-05
2.59965e-14
1.67288e-14
3.50306e-14
0.0609151
1.34906e-14
3.0731e-14
-1.24582e-16
-0.000432677
2.77097e-14
-4.80395e-09
-1.83526e-14
-4.19956e-11
-3.05155e-14
9.63998e-15
-3.05823e-15
-4.27716e-15
-2.17976e-14
-5.64353e-05
3.03906e-06
3.44125e-14
-1.43102e-14
2.5792e-15
-1.62434e-14
-1.38984e-12
4.06545e-17
-1.44659e-14
5.56802e-15
-4.89131e-14
1.42557e-15
9.45837e-15
-2.85568e-14
-3.56004e-15
2.77157e-15
1.94448e-14
3.80518e-14
-3.32735e-14
3.58647e-15
-1.8202e-14
-1.29909e-13
1.77935e-14
-4.18236e-14
-2.2181e-07
-2.46982e-15
-2.70963e-14
-6.95719e-15
-2.27532e-09
-4.77511e-15
-0.000602865
3.1992e-10
1.57999e-08
4.23914e-15
6.96622e-11
2.91826e-08
2.41497e-14
2.70254e-11
3.49112e-15
-3.20003e-14
-4.37966e-14
-3.40084e-13
3.67665e-14
-6.41304e-14
-7.83838e-15
3.85936e-15
9.73155e-13
-4.64208e-14
1.03246e-06
-1.23912e-14
-2.57584e-14
5.47684e-16
-4.23832e-07
7.9476e-15
-3.96181e-15
1.74296e-14
-1.78396e-15
-8.6156e-15
8.72884e-14
-6.28176e-15
-2.30736e-14
1.97703e-14
2.39662e-14
5.99709e-10
-2.15748e-14
3.07892e-14
-0.00083003
1.84381e-14
1.80606e-14
1.06539e-14
2.15006e-06
-2.45875e-14
2.29065e-15
2.48139e-14
-1.20972e-06
-1.28885e-12
-2.63653e-14
1.93022e-14
1.81843e-15
-6.37552e-15
2.523e-14
-4.66308e-15
9.49487e-15
-1.98095e-10
-1.82802e-10
1.46769e-14
-1.92334e-16
5.2216e-15
-8.18745e-15
-5.02472e-16
1.675e-15
-6.24818e-05
1.11427e-14
1.87949e-15
-1.28336e-14
-1.56102e-08
-9.50157e-14
-1.41858e-14
8.87397e-07
1.33531e-09
-2.86079e-14
-2.94366e-15
1.29255e-15
-1.79736e-11
-1.75693e-14
3.10984e-14
-1.03356e-15
-2.21533e-15
-3.45718e-15
2.07533e-14
8.98003e-11
0.00201924
4.14468e-15
1.34609e-14
2.66954e-14
6.42308e-14
7.95303e-10
1.66414e-15
-2.47005e-14
-2.19397e-14
-1.38312e-14
-7.01621e-15
3.32591e-14
0.0514828
9.01243e-12
2.34671e-07
1.45564e-14
-9.39648e-15
8.86701e-16
2.29522e-14
0.000843127
-3.3573e-11
1.64158e-14
1.46131e-14
-4.10135e-14
-2.00767e-15
-4.56018e-08
1.94168e-14
1.29611e-14
-7.56672e-15
-2.47931e-11
1.80581e-16
2.10893e-15
-1.17443e-14
-3.34619e-14
0.00117857
2.40185e-15
-5.65205e-05
-2.05374e-15
-2.25906e-14
1.59405e-14
1.75206e-15
1.0896e-14
-2.84859e-14
3.91606e-09
9.2293e-16
1.6461e-14
4.77955e-14
-6.16161e-14
-5.35712e-14
-5.48076e-15
-3.73406e-14
4.96762e-15
-3.36081e-14
-2.61484e-15
-4.78553e-15
-1.39613e-11
-7.43791e-05
1.46925e-14
9.73171e-15
3.23516e-11
-2.33118e-15
3.64711e-14
-3.12209e-05
0.0179678
2.81962e-15
3.17919e-14
-6.0791e-16
5.02601e-15
2.27506e-09
4.99138e-15
1.43082e-14
-2.35451e-14
2.80735e-14
-0.018742
-2.66397e-12
-1.95354e-09
1.04291e-14
0.000353573
-2.95192e-14
-2.60811e-14
2.94022e-14
-9.72308e-15
7.10562e-09
-7.53417e-15
-3.45635e-14
-4.92142e-15
-1.00755e-13
-5.78334e-11
2.61303e-14
-9.23445e-16
-5.85551e-17
2.13622e-14
8.79506e-15
-2.89586e-14
-5.97277e-15
-2.31021e-15
-6.44165e-12
6.83134e-15
-1.96019e-14
7.60572e-06
-3.56718e-06
3.57209e-14
2.75017e-14
-2.01594e-11
5.71981e-09
4.88021e-15
1.53732e-14
-1.39067e-14
1.21335e-14
1.36514e-10
-1.3969e-15
-3.8201e-15
9.37633e-15
2.22478e-14
5.43468e-15
-1.22402e-14
3.68679e-14
-6.92868e-16
-2.46281e-14
3.61696e-14
-3.11955e-14
2.91355e-14
-0.000113994
3.65546e-15
2.81274e-14
2.26247e-11
8.66295e-16
-1.68369e-14
1.99322e-14
1.31058e-07
-6.93493e-16
1.34459e-14
-1.56784e-05
-1.336e-14
-1.48288e-07
-1.35969e-14
-4.5145e-16
0.0167216
6.16226e-13
-3.41012e-07
-1.45679e-14
1.2593e-14
4.10965e-15
2.17968e-15
0.00163898
1.07513e-14
3.31685e-15
5.13947e-14
1.02048e-17
3.43275e-15
3.33591e-14
-6.33709e-15
3.51837e-15
-1.44612e-07
-2.12673e-14
2.78932e-15
3.9204e-15
-2.85193e-15
1.30024e-14
-1.00595e-08
-9.86975e-16
-1.28861e-15
-0.00227333
3.35678e-16
-2.17825e-14
-9.81555e-13
-1.23627e-08
1.74402e-14
-5.32569e-14
3.72366e-14
4.25081e-14
2.96072e-15
-1.90562e-14
-3.6591e-15
-1.27929e-15
0.1183
-4.96139e-15
-5.81989e-05
1.64968e-14
-1.92874e-15
6.38935e-15
2.54239e-14
-4.14386e-15
-1.33711e-14
-3.5085e-14
-3.72623e-14
-2.95106e-14
2.8463e-14
-1.28048e-07
3.65307e-14
-2.91326e-09
2.98618e-14
-3.5471e-14
-7.22634e-14
-3.41213e-14
-2.15245e-14
2.76133e-15
4.8087e-16
9.14759e-15
-2.4717e-14
6.44668e-15
-2.50807e-14
3.39402e-10
4.50931e-14
1.39502e-14
1.27854e-15
1.38653e-14
-0.000822612
4.68728e-15
1.97225e-07
4.07599e-14
2.70297e-14
3.47322e-14
3.09909e-14
-7.41175e-15
-1.20436e-14
-5.55674e-09
6.44287e-15
-2.93403e-15
2.59821e-14
1.35548e-14
-2.72172e-10
-3.09325e-16
3.00779e-14
-1.25278e-14
-3.46711e-16
0.0015872
-2.07053e-14
5.27026e-15
3.39359e-14
-5.95781e-16
-3.20235e-05
-4.59372e-05
1.24502e-12
1.2952e-14
-1.57477e-14
-7.03163e-15
-8.53024e-15
3.58458e-15
-2.48113e-15
-1.19786e-16
1.05859e-12
3.11977e-14
1.15876e-14
-1.3939e-14
1.32041e-14
-3.3053e-15
3.41875e-09
9.28059e-10
2.3192e-15
1.5973e-14
-5.04108e-14
4.50193e-15
-3.63927e-14
-4.18165e-15
3.42112e-08
1.63362e-16
-1.8094e-07
-8.56798e-15
0.00159243
-3.14324e-16
-1.06283e-14
-4.48298e-05
-2.85032e-05
0.000441429
3.55188e-14
4.64542e-16
3.55999e-12
1.09008e-14
-3.12949e-14
5.35911e-12
-2.79253e-16
3.79658e-14
3.78595e-14
-3.41254e-15
2.19944e-14
-1.48581e-14
-1.89673e-16
-2.92295e-14
-1.44952e-15
-2.37647e-14
-5.6227e-14
2.14899e-07
-2.21168e-15
3.9768e-15
-1.62461e-14
-3.8032e-14
-1.36953e-12
-6.85499e-14
1.71609e-14
-1.25631e-14
-2.1793e-16
-3.43834e-14
-2.86558e-14
2.07049e-11
-3.63584e-09
-2.4952e-14
-3.33386e-14
-7.15908e-15
-2.64689e-14
-4.01901e-14
-2.79537e-14
-4.48112e-09
4.57128e-05
-7.14578e-16
4.00317e-14
-0.00396083
-1.83604e-14
2.58558e-14
-8.15317e-15
-9.43987e-13
1.26628e-12
-9.43481e-10
-3.25602e-14
4.11921e-12
9.13769e-09
-2.47093e-14
-2.49708e-16
-2.54718e-14
-4.83695e-15
5.81105e-15
-7.95471e-15
-4.10521e-15
-1.98785e-14
1.12029e-15
-6.5174e-15
-9.70663e-16
1.26574e-14
1.47708e-14
-3.5432e-14
3.87505e-14
-1.40175e-10
-2.71907e-14
-6.99763e-10
3.83718e-14
-1.92278e-14
-0.00693978
3.8892e-05
2.15699e-15
-2.42146e-15
-1.14555e-05
-1.04406e-15
9.28513e-06
3.27193e-14
-1.37112e-14
3.98871e-15
-3.46155e-15
6.49315e-14
-1.67753e-14
1.91678e-14
0.000365285
4.59729e-15
4.36871e-13
4.23092e-12
-3.09973e-14
2.65227e-14
0.000663303
-8.43464e-17
-1.38894e-14
-3.50073e-15
1.24784e-14
-5.20888e-15
-1.87972e-14
5.10297e-13
-3.01966e-15
-2.58149e-14
1.54566e-14
-7.46244e-14
-5.61536e-14
1.25997e-15
-3.27363e-15
-1.76472e-15
-2.93669e-14
-6.71841e-15
-2.00875e-15
2.41043e-16
-3.98169e-15
-3.55246e-14
3.62118e-14
-3.44874e-14
4.74911e-15
-8.16682e-06
-2.54872e-14
-6.75942e-13
1.13911e-14
6.46531e-15
8.30288e-15
2.30653e-14
-2.02421e-14
3.79744e-15
3.65293e-14
4.11447e-14
-1.65888e-14
-3.27022e-14
1.83444e-14
-0.000269935
-2.92981e-14
6.37327e-07
0.00113132
-4.05832e-14
-4.31206e-14
2.0299e-14
-1.23344e-14
-2.96306e-14
-1.56046e-14
4.14767e-14
1.21673e-14
6.95942e-16
-1.17875e-16
-3.62702e-14
-2.32565e-15
-3.95429e-13
-2.04011e-09
-2.18967e-12
-5.39078e-15
1.79884e-14
-3.31967e-14
3.34007e-14
1.99866e-14
9.41928e-09
-4.46415e-14
-2.70359e-14
1.70007e-14
-1.11168e-14
4.94419e-05
3.9776e-12
8.4105e-15
-1.79299e-14
2.591e-10
-0.00267764
-1.30895e-14
-3.53245e-07
-2.53972e-14
2.72215e-15
-5.7913e-15
1.04677e-14
3.42679e-14
-6.01694e-15
-0.0137874
7.19844e-15
0.000261903
-7.50469e-09
1.39929e-14
1.22367e-14
-3.72142e-14
2.99602e-14
-3.87937e-13
-1.7591e-14
2.1402e-11
2.31179e-14
-5.78965e-06
-3.34245e-05
1.29818e-13
1.14403e-14
-9.09534e-15
-8.94327e-15
1.97646e-15
7.83197e-15
-1.83805e-09
1.00627e-15
1.31818e-16
-1.7168e-16
-8.47263e-14
2.12792e-14
-2.19205e-15
-2.58176e-14
3.84761e-15
-8.44008e-07
-3.05623e-10
-0.00173839
-4.74482e-15
1.48553e-14
2.74592e-14
9.16451e-15
-1.88031e-10
-3.72771e-12
-2.57994e-14
4.48157e-14
1.87592e-14
-4.21707e-14
-1.63257e-15
-1.9357e-12
-1.05244e-11
-1.06576e-14
2.76778e-14
2.4559e-14
-1.19455e-14
-4.78189e-14
-1.07593e-14
1.92556e-15
-4.72728e-15
2.51906e-15
3.44276e-14
-3.07312e-14
1.73858e-14
0.000384676
-1.243e-14
7.17038e-17
2.53049e-14
4.05539e-15
-2.32729e-15
-6.83618e-14
7.17005e-15
3.99753e-16
-7.00831e-15
2.34865e-16
9.53862e-16
1.35179e-10
3.85332e-15
-2.61472e-15
-1.08046e-14
3.05572e-14
5.83972e-15
6.7595e-14
-5.91914e-14
-1.42486e-15
-3.11683e-14
-1.15394e-14
-4.82902e-15
8.69506e-16
-1.06606e-14
0.000180093
-3.333e-14
-1.61438e-09
3.59979e-14
-3.81397e-08
1.49484e-14
4.65786e-15
-1.63254e-14
4.80731e-16
-1.72876e-15
8.70061e-15
2.35125e-17
1.25032e-07
-5.32143e-15
-4.4773e-15
2.14071e-14
-1.14791e-14
-1.82155e-14
4.42007e-12
5.21242e-14
3.41419e-14
-1.28477e-14
-7.17502e-15
-5.7042e-14
2.79448e-07
2.51216e-14
2.06099e-10
-0.0116526
-4.58481e-15
-5.24036e-15
1.29759e-14
-2.78939e-14
4.9895e-12
4.63067e-15
4.61778e-12
0.0560016
-1.91121e-14
-2.00316e-15
7.77701e-15
-6.84709e-16
-2.35332e-14
-2.89655e-14
1.42122e-15
3.3253e-14
-7.16369e-15
-3.59902e-14
7.0459e-15
8.58155e-15
-9.19295e-16
8.76896e-15
-5.51757e-16
-1.68612e-14
4.79593e-14
-1.03574e-12
-2.07974e-14
-1.0469e-15
1.13601e-14
2.65953e-05
1.63283e-15
-2.20073e-15
-3.51532e-16
6.29915e-15
1.03691e-14
3.47569e-10
-3.9071e-13
0.00674627
0.000218195
7.67275e-15
-2.61654e-11
-1.12351e-14
6.90299e-15
1.7882e-15
8.56526e-07
1.82545e-14
-1.40991e-14
-7.66097e-15
3.93872e-14
2.73917e-14
5.33044e-09
-2.14751e-15
-4.24882e-15
-3.46454e-14
4.10412e-14
2.34938e-10
4.97477e-15
2.10572e-15
4.1485e-14
4.83469e-15
-2.2529e-05
3.52595e-14
1.13034e-15
3.36563e-14
-1.74243e-15
-2.19784e-14
-4.13877e-15
-7.63168e-15
3.52915e-15
4.04008e-12
-7.49614e-13
-8.73131e-08
8.30193e-16
2.84571e-14
-3.84721e-14
3.17782e-14
2.8452e-14
-5.03702e-14
2.74945e-15
-3.85577e-14
3.31099e-14
2.4874e-07
2.66721e-14
-1.1078e-09
-4.55262e-15
4.13148e-15
-1.892e-14
0.000273637
1.53067e-08
6.71141e-15
-8.54058e-15
7.59825e-14
-6.08417e-11
1.89962e-14
2.85887e-15
-6.17303e-15
3.96988e-14
-2.38312e-14
-3.69143e-15
-2.5698e-15
1.54549e-14
-1.23748e-08
-9.77901e-06
-2.72266e-14
-4.4728e-15
-1.72578e-13
-3.66502e-14
2.83453e-14
3.24214e-14
7.87007e-11
-2.68294e-14
-5.20922e-15
-5.84408e-06
-0.0183658
1.24801e-14
-2.57219e-15
3.91532e-15
7.90564e-15
-3.35077e-14
-1.09376e-05
-6.31181e-15
-8.54681e-15
1.05458e-14
-2.4417e-14
7.15667e-06
-7.37341e-15
1.76442e-14
-2.5622e-14
-3.56278e-15
1.15234e-15
2.97094e-15
-2.77445e-07
-2.99253e-15
-1.87894e-14
-6.02059e-11
-3.81814e-16
4.03946e-15
-2.27956e-15
1.40881e-14
2.52512e-14
-2.93164e-14
-3.88831e-05
-2.67653e-14
6.44381e-15
2.37008e-13
-6.27239e-14
-8.99505e-15
4.16542e-14
1.7455e-14
4.32745e-15
3.24956e-14
-4.8113e-14
-1.31472e-11
-1.24434e-16
4.2597e-14
1.85841e-07
-1.26915e-14
-2.5727e-15
-2.95392e-16
-2.6371e-14
-2.90455e-15
4.43563e-15
-0.000384161
6.43667e-14
1.21587e-14
-8.31399e-15
-4.2751e-15
-5.82188e-11
-1.94201e-14
2.92499e-14
-1.83578e-14
-1.49573e-14
-3.74744e-14
0.000137378
-2.22194e-14
-0.00402759
3.10074e-15
1.83286e-15
5.45269e-14
-6.72156e-15
9.72381e-15
3.54381e-14
-0.00375971
-3.22377e-14
-1.33261e-10
-2.13578e-14
3.01391e-14
-9.73714e-15
3.17433e-14
-2.57069e-14
2.88927e-14
6.91068e-15
2.14752e-05
2.70699e-14
-1.79288e-14
-2.33032e-14
7.71175e-14
1.20725e-05
1.05961e-15
3.30987e-16
-2.70613e-14
1.25446e-05
-6.07394e-15
-3.38445e-14
-8.10211e-15
-2.41535e-15
-3.29765e-15
4.13738e-16
-3.42072e-14
0.000150397
4.34251e-16
1.95609e-08
3.57454e-14
-2.69554e-11
9.75766e-15
4.03187e-14
7.52457e-15
3.1514e-14
6.45652e-15
3.34883e-15
2.8731e-14
-3.51808e-14
3.4529e-15
1.94123e-14
2.00485e-12
-4.19711e-14
-2.95055e-14
-2.37581e-14
3.43994e-14
3.99281e-14
8.9424e-15
-7.39538e-14
-0.00194958
-1.99496e-14
-9.37088e-07
2.437e-15
-2.50485e-15
-3.66958e-15
-7.03378e-15
7.20571e-07
-1.91435e-12
3.48237e-14
5.7764e-15
1.82794e-14
1.8294e-15
-2.07916e-14
1.70382e-15
3.31703e-14
9.06484e-05
1.40147e-16
5.2559e-16
1.90336e-14
1.393e-14
-3.211e-12
2.98102e-15
7.32271e-15
3.46684e-14
2.26978e-14
-1.08937e-08
8.1424e-09
-1.95545e-14
-2.58677e-09
1.83313e-14
0.00243094
-1.07421e-14
3.07801e-14
3.76069e-16
5.1816e-14
-1.16917e-14
-1.9083e-15
4.12163e-16
3.41656e-15
9.90279e-15
4.47131e-14
-4.23904e-15
6.80245e-14
-7.96865e-15
-1.30831e-14
-1.59279e-19
4.31916e-15
-1.99298e-14
-2.53804e-14
5.84993e-08
-3.48155e-14
2.57808e-15
-3.4788e-14
-3.32388e-14
-4.34422e-14
4.86531e-15
-3.47791e-14
-3.28752e-14
2.60663e-14
-2.04911e-14
-4.03063e-15
5.36691e-15
-2.25955e-15
-1.96307e-07
2.34378e-13
-1.89068e-14
3.0782e-08
-6.31451e-12
-2.33395e-14
9.60181e-16
-1.65365e-06
-8.60908e-15
-9.85228e-15
-1.95992e-14
-8.05533e-15
2.98616e-15
7.95804e-15
-1.78249e-14
-3.47149e-15
6.46417e-14
3.30879e-14
1.13093e-15
-4.48445e-14
3.48364e-16
-5.38047e-14
-5.12915e-16
-5.85831e-14
8.13157e-16
-3.7777e-14
-2.23173e-05
9.05011e-15
3.20234e-14
1.58806e-14
-4.26925e-15
-3.44003e-14
-1.48118e-14
6.24024e-15
3.13658e-15
3.49093e-14
4.29838e-15
-3.50705e-14
5.59293e-15
2.66445e-14
-6.89198e-14
5.21463e-17
3.2012e-14
0.00015802
-7.72532e-08
6.63669e-16
-1.41111e-15
-1.10671e-14
1.55861e-15
4.29416e-14
7.72736e-15
2.30589e-15
1.11756e-09
1.35509e-14
2.91996e-14
-2.52239e-14
5.67341e-15
2.34098e-15
3.88882e-15
-4.25071e-14
-0.000953967
-2.74247e-15
-4.67539e-15
-0.00583452
2.19072e-15
-3.33165e-13
1.08409e-15
-8.58362e-16
-3.46868e-15
-2.37749e-14
3.95348e-14
-2.14093e-11
3.29987e-14
-2.18609e-14
-3.39857e-15
-3.48087e-06
1.89707e-10
-3.23885e-14
-1.98678e-16
-6.55984e-15
7.70539e-15
-9.83286e-15
3.92205e-14
-2.2145e-14
2.14103e-14
-1.39391e-14
-9.0294e-15
-5.33228e-15
1.71091e-14
2.4055e-14
3.30082e-14
-2.36549e-14
-3.42936e-14
-1.43809e-14
5.37652e-15
-3.84611e-14
1.58228e-14
-8.37653e-15
2.42358e-08
-2.17442e-14
-1.32417e-05
-2.37787e-14
-0.00321414
-1.1578e-14
-0.0195351
4.97058e-14
1.07071e-14
-3.94739e-14
3.5977e-14
-3.71459e-14
-6.64824e-15
-4.102e-15
3.55536e-14
6.59635e-15
-2.09739e-15
-1.57775e-14
1.4751e-09
-3.3513e-14
9.8119e-15
8.23249e-10
3.20395e-14
8.05207e-15
3.90999e-14
8.00578e-15
-2.4805e-14
-1.39817e-14
7.47117e-16
1.34994e-14
2.7515e-14
-2.69232e-14
-8.56128e-16
-3.51856e-14
-0.00826909
-5.92092e-05
8.98248e-16
2.84803e-14
-3.51906e-14
1.40493e-15
1.8555e-14
-8.00173e-15
-2.4355e-13
4.94026e-16
8.16469e-15
3.95016e-14
-3.84783e-14
-1.30204e-15
-1.66779e-15
-1.44715e-14
-1.17068e-15
-2.47034e-15
-2.46408e-15
9.534e-15
4.4501e-14
-1.09533e-15
0.000195027
2.16929e-14
-2.76046e-09
6.9763e-16
-1.22409e-14
-2.70295e-14
-3.8548e-14
1.91614e-14
-1.36786e-14
-2.35103e-12
3.28102e-14
4.22834e-14
1.63507e-14
0.0434982
0.000197983
0.000522131
-1.8246e-15
-1.673e-14
-7.07266e-15
-4.66258e-07
3.43874e-15
4.39476e-05
-1.17256e-14
3.112e-15
3.20154e-14
-5.61782e-15
5.46379e-15
-0.011501
6.70934e-16
2.12231e-16
-4.1446e-07
-4.32298e-09
2.83472e-14
-1.11779e-15
3.44228e-14
-8.90594e-13
3.46997e-14
-3.55502e-15
-2.94568e-15
-3.08915e-15
9.48303e-15
8.44008e-15
3.85595e-15
-0.00454129
6.87657e-14
-4.81344e-16
1.01456e-14
-2.86854e-14
-5.60185e-17
2.6054e-14
-8.61702e-15
3.92918e-14
-3.66864e-15
-1.7667e-14
-1.25815e-15
3.90534e-14
-2.97803e-14
4.7264e-15
-5.49968e-06
4.55082e-14
2.05532e-14
-1.28745e-14
-3.88051e-14
3.48943e-10
5.11432e-15
-6.93743e-08
1.22115e-14
2.64576e-14
2.42178e-15
3.92942e-14
2.64132e-15
-1.40632e-05
6.14863e-15
-5.68196e-15
-5.90515e-15
3.43676e-12
2.23e-14
-5.38401e-15
-3.28452e-14
-3.55554e-15
-7.05908e-15
-3.57422e-15
3.38658e-14
3.1067e-14
-2.59956e-14
-1.81469e-14
-2.37372e-11
4.32701e-14
-0.000190829
-6.28837e-16
-1.66634e-14
2.39044e-14
-3.24761e-15
8.84572e-15
-4.25856e-14
-2.17878e-14
2.56815e-11
-1.51777e-10
1.08791e-14
-7.42125e-15
-5.8609e-15
2.10561e-15
1.81268e-14
-3.09997e-14
-4.49671e-14
-1.96728e-14
-5.94754e-14
-6.00957e-15
1.53049e-14
3.20153e-14
4.01629e-09
3.27678e-15
-3.53851e-14
-1.07551e-15
4.05237e-16
1.74011e-08
-1.43072e-15
-4.33713e-13
0.0041071
1.07657e-15
1.9607e-07
2.16408e-15
-1.21816e-16
-8.39031e-15
-9.39118e-15
-2.19166e-14
-0.00405945
7.03142e-15
-1.98967e-14
-1.18196e-15
6.1036e-15
-1.30612e-14
1.45635e-16
1.26859e-14
1.0176e-12
-3.63742e-15
0.000145063
-1.12174e-09
2.04242e-14
-8.32304e-15
-3.10735e-14
5.32861e-15
-3.93083e-16
6.24915e-12
3.83643e-14
2.21593e-07
4.77998e-14
-4.96159e-14
5.48732e-16
4.04547e-15
9.32031e-16
-3.3848e-14
0.000141001
9.40399e-13
-1.80657e-14
1.79853e-14
-2.78531e-15
4.96758e-14
5.12394e-15
-4.23404e-12
0.000579928
6.65153e-15
4.45706e-14
-2.77133e-15
-6.83138e-15
-7.19859e-11
2.92043e-15
-1.37541e-14
2.82378e-14
3.44633e-14
4.92284e-15
1.77125e-14
-4.07217e-14
3.23219e-14
-4.11575e-14
-2.52589e-14
-1.33171e-14
-4.55129e-06
-3.98635e-11
7.25116e-07
-2.27212e-15
-2.35324e-14
0.0286486
4.42681e-06
-3.18577e-15
-4.74513e-14
1.27787e-14
2.92715e-14
3.21681e-14
1.91443e-14
2.05054e-15
1.84203e-15
-2.59041e-14
-2.89265e-14
-3.29315e-14
3.04438e-14
-2.82936e-14
3.98342e-10
-1.04676e-14
-1.49212e-14
-2.52689e-14
1.78015e-14
-5.23303e-14
-0.000252023
-1.69744e-15
5.75613e-15
1.82571e-15
-9.58765e-16
4.86435e-15
2.55784e-15
-5.70182e-14
2.94561e-14
2.35286e-15
6.49613e-16
-1.35994e-14
7.02741e-15
0.00315826
1.97855e-14
3.46621e-14
1.26639e-06
8.24239e-15
-5.79637e-07
3.09104e-10
9.1277e-10
-1.70558e-08
8.26493e-15
5.06269e-16
4.00776e-14
-1.20589e-14
-1.72019e-11
-2.74458e-14
-2.3891e-14
-1.10951e-14
-3.3278e-14
-8.44852e-15
-6.9154e-15
3.68353e-14
-9.00969e-15
-9.50821e-13
8.43556e-15
-3.36631e-15
6.87921e-10
1.63369e-05
1.32562e-14
-8.49685e-15
-4.00105e-14
1.83255e-14
-6.14199e-16
-1.96163e-09
-2.3614e-15
0.000304521
-1.35115e-15
7.68942e-16
2.04102e-14
-1.85043e-07
-3.47644e-14
5.27422e-05
-3.47543e-14
-1.54168e-15
2.21493e-14
-3.04515e-15
-1.68596e-14
-1.74714e-08
-1.86128e-14
1.4343e-15
-1.07255e-14
-3.83924e-15
1.78489e-15
-4.36373e-15
-3.12557e-16
2.49092e-14
-2.55459e-08
1.6309e-15
1.55055e-11
-3.7574e-15
-0.00205149
-6.70283e-15
-3.81749e-15
-9.79016e-10
-2.66681e-15
1.10259e-14
6.46184e-15
-1.06707e-14
-1.35192e-15
4.0595e-13
2.07743e-11
4.79938e-15
-2.57932e-14
-2.84396e-05
8.95845e-15
2.99594e-05
4.55328e-15
-2.159e-15
7.79778e-15
-5.45771e-15
2.88996e-14
-0.000393928
1.87904e-14
2.03418e-14
4.00451e-14
2.56078e-14