/*--------------------------------*- C++ -*----------------------------------*\
| =========                 |                                                 |
| \\      /  F ield         | OpenFOAM: The Open Source CFD Toolbox           |
|  \\    /   O peration     | Version:  v2012                                 |
|   \\  /    A nd           | Website:  www.openfoam.com                      |
|    \\/     M anipulation  |                                                 |
\*---------------------------------------------------------------------------*/
FoamFile
{
    version     2.0;
    format      ascii;
    class       volScalarField;
    location    "50";
    object      ddt0(k);
}
// * * * * * * * * * * * * * * * * * * * * * * * * * * * * * * * * * * * * * //

dimensions      [0 2 -3 0 0 0 0];


internalField   nonuniform List<scalar> 
18758
(
-1.97201e-06
0.00386531
-7.99951e-09
0.00338463
0.000846541
0.00246512
-0.000102737
4.48935e-09
-0.000142895
-1.54357e-06
3.2135e-08
-0.00144567
4.61408e-10
2.46149e-05
1.21078e-07
-0.000280604
-2.05597e-06
-1.4532e-08
6.27659e-08
2.4768e-06
-0.000122695
-7.32181e-10
-0.000821615
-0.000462357
0.000490082
-1.97268e-09
0.000367412
0.00222905
0.00665486
-0.00903009
-6.20413e-06
-0.00156093
-4.50482e-10
-1.45836e-07
-9.7708e-06
-5.17208e-09
-1.52275e-10
1.00361e-07
-3.50114e-07
1.28657e-07
7.89681e-08
4.75243e-07
3.15181e-08
-1.00353e-06
-0.000292303
7.52655e-09
-0.000649919
5.69012e-07
1.037e-06
-9.19362e-09
3.22965e-05
-0.0024523
-6.4072e-10
4.7865e-08
0.00218549
0.00138007
-1.80314e-10
1.60295e-05
1.40396e-08
4.03408e-05
-2.1114e-05
-0.00011099
1.95096e-06
-4.57028e-07
1.6576e-10
7.69347e-10
-1.6307e-06
-5.13923e-10
6.89071e-08
-0.00228185
-0.00149552
-9.0591e-09
-4.31531e-09
0.00252344
2.82247e-08
-4.62983e-08
0.000206301
0.000169455
-1.03427e-06
-0.000281788
-0.00144641
-0.00117123
8.41162e-06
0.00193464
9.04189e-05
2.59362e-07
-0.000848848
-1.49599e-06
-2.05633e-05
1.85295e-09
0.00205712
-2.46e-08
-0.00201878
4.58915e-07
-0.00145286
-0.00171586
5.87604e-05
4.07859e-08
-5.6834e-08
-0.000294958
-2.93746e-06
0.00216037
-2.08402e-06
-1.12722e-06
-0.00130947
-0.0156245
-0.0080638
-6.33156e-05
1.78449e-07
-6.53333e-08
-0.00237411
0.000147468
1.89992e-09
1.73543e-07
0.00723688
0.00024009
0.00107907
5.23547e-08
-0.000850736
-0.00112623
-5.77291e-07
-2.58714e-08
0.000355367
0.00016226
-0.000520712
0.00103884
0.0014193
0.000581037
-0.00158815
-2.45781e-08
-2.02859e-06
0.00044877
-4.84914e-05
9.4748e-07
0.000836695
6.56384e-07
0.000178746
-6.72039e-08
-5.13507e-08
3.37284e-06
-5.68375e-06
-1.16241e-05
8.93944e-08
0.00627944
-1.39375e-07
2.56386e-08
0.000862612
-0.00132987
-5.29683e-06
-0.00602456
0.00587102
-0.00132361
2.81728e-07
-1.55279e-09
-0.000525979
8.84154e-07
-0.000605929
8.08766e-08
1.66631e-07
-1.03313e-09
-3.85789e-08
-4.91425e-05
0.000626869
1.57329e-07
-2.40402e-05
0.00526317
1.39188e-07
-0.00200215
-0.000102867
0.00206497
0.000556008
-1.97813e-08
-0.000623012
0.00189313
-5.57728e-05
0.000470947
0.00552205
2.90774e-07
7.00788e-07
-9.75461e-08
-9.6731e-09
0.000398267
-0.00195387
-5.48943e-08
-2.3954e-07
0.00127554
-3.22296e-09
0.000281877
8.95369e-09
-3.27193e-08
1.37994e-06
0.000214382
8.08974e-08
-6.69492e-06
1.0353e-07
-1.61139e-05
3.2277e-07
-2.37315e-05
-2.12826e-09
2.16594e-08
1.17868e-06
-7.57143e-07
-1.48786e-06
-4.64355e-06
8.6453e-10
-2.56416e-07
4.89599e-06
-8.11842e-10
-0.000453942
4.87274e-06
-1.0902e-08
-1.54749e-06
-1.10641e-07
4.79236e-07
1.89368e-06
-0.00124172
-5.08555e-07
-8.80737e-05
-3.38126e-09
0.00286158
-1.30502e-08
1.18967e-07
4.61408e-06
0.00088844
0.000152303
3.04499e-06
-1.92162e-06
-6.66212e-07
-3.43161e-09
-3.57327e-06
-1.19069e-08
-1.35712e-05
-0.000587657
-2.93993e-05
-4.57824e-09
-6.99849e-08
-8.36705e-09
1.04192e-08
0.00060044
-1.91986e-06
-3.06534e-08
-0.00042851
-0.00882779
-1.24411e-07
-0.00650746
0.0084179
-8.05001e-05
-4.7062e-09
-0.00148014
3.9745e-07
-1.00258e-09
-0.00161258
6.3795e-07
1.19001e-07
2.47458e-07
-1.58791e-06
-0.000177877
8.90652e-05
2.15104e-07
7.45717e-06
2.33646e-08
2.54029e-06
1.1241e-08
3.43139e-07
7.14257e-06
4.08745e-05
-0.000327047
-2.86573e-09
-2.65569e-09
-4.95404e-05
-8.90442e-08
4.20781e-08
-6.59032e-06
0.00380262
0.000905995
7.14036e-08
2.45281e-05
0.00436289
0.000228844
-7.02409e-09
-8.22265e-08
2.50484e-06
-2.15207e-06
-1.0173e-07
0.00752772
-0.000399408
-0.00299915
0.00016912
-0.000782442
2.88173e-08
-7.90745e-09
-2.84597e-07
-0.00152127
4.30513e-07
3.52317e-06
-8.19077e-06
-7.98256e-07
-0.00117384
1.91809e-07
-0.00422372
0.00193022
1.12889e-08
-0.00403758
3.66972e-07
1.33511e-07
-1.24602e-06
-2.19361e-08
1.06003e-07
-4.2964e-09
-0.000198655
-0.0028187
-9.61257e-08
-0.000145924
-0.00118294
0.000174749
2.494e-08
-4.81842e-08
-0.0107339
-1.87696e-07
-9.11267e-09
-9.78929e-08
2.89115e-07
-5.47969e-05
2.45989e-06
2.36351e-06
-2.16672e-06
2.53999e-06
-4.76307e-07
-1.71375e-09
-6.1749e-10
0.000108796
-8.49303e-07
3.06252e-05
0.00455923
2.99675e-07
-5.15022e-09
1.30413e-08
-0.0038549
-0.00429319
-2.61819e-08
5.82642e-10
-3.40537e-08
4.37649e-07
-1.01332e-06
0.000214346
-4.02554e-08
-1.88775e-08
-8.84174e-09
-0.00034714
-2.26255e-05
-9.47569e-05
9.70404e-06
-3.79133e-08
0.000194267
8.43581e-06
-7.66417e-07
-5.71742e-07
-0.000980595
0.000555913
-0.0176056
-4.32845e-11
-2.32594e-06
0.00799365
0.00296743
-7.35556e-07
3.45573e-08
5.20634e-07
-1.93387e-07
-1.46387e-06
0.00795737
0.00418178
1.46855e-05
2.87693e-06
-0.000317349
-8.40574e-09
-7.42178e-07
-2.05419e-08
-8.51841e-08
8.90846e-06
-3.10177e-07
-0.000117276
-8.05917e-05
2.35259e-07
-5.79207e-08
0.000881043
-7.97138e-07
-0.000509096
-1.19167e-08
-3.74946e-06
-1.04375e-07
-1.97476e-07
9.6086e-09
7.79347e-09
0.00126816
-0.000556612
-0.00207461
0.000202352
1.19711e-08
-0.000174954
-0.00123775
-1.82439e-06
2.81756e-09
0.00418663
-5.01346e-08
1.70541e-07
-1.16929e-08
7.22709e-06
-3.95956e-08
2.49018e-07
2.3058e-06
0.00155012
-1.1712e-07
0.000725925
-2.8938e-07
1.86508e-08
-2.67392e-07
4.5497e-08
-2.41822e-09
-9.47327e-07
2.08869e-06
-6.96917e-07
-0.0122962
-1.35113e-06
-1.76726e-09
-7.44376e-05
-0.00859602
-0.00520236
0.000535207
5.6399e-06
2.64497e-07
9.56328e-09
-4.85418e-08
9.60733e-08
9.4713e-06
1.27194e-06
2.1605e-07
1.42701e-07
-6.52653e-07
0.00163422
-3.36988e-07
-4.2256e-09
-2.24515e-06
-4.69313e-05
-2.8809e-07
0.00415042
3.51674e-08
4.37776e-09
-0.000584649
-7.16858e-08
9.3574e-09
0.000167046
-2.2261e-05
-1.23568e-07
-0.00125526
-9.35296e-08
5.34219e-07
-0.000274141
-0.00161361
-2.05679e-08
-5.08528e-07
-8.97034e-06
-0.00102631
0.000352183
4.24119e-05
-6.19201e-08
6.2218e-06
4.7713e-08
6.54136e-06
-3.62136e-07
-0.00186865
-5.71169e-06
0.000914053
-1.62487e-07
-3.59733e-06
1.25877e-08
0.000422447
7.57617e-09
0.0005677
-3.69781e-08
-1.21728e-05
2.73025e-08
-0.00817159
-1.79039e-06
-3.25692e-09
-2.12521e-08
-9.98428e-09
-0.0113556
0.00099001
0.00857135
-9.87409e-07
-3.9672e-07
1.06112e-06
-7.15679e-10
-2.86952e-10
-0.00227353
-5.54535e-08
9.80799e-09
-4.50429e-06
7.75659e-10
6.00069e-08
1.1973e-06
7.02145e-09
-5.40826e-09
-3.28167e-07
-4.25936e-07
7.28563e-07
-0.00705549
-8.78412e-07
2.63929e-07
-1.1313e-06
1.25911e-08
-0.00296371
1.76535e-07
-1.46815e-07
0.0022084
0.000376503
-3.67024e-06
-0.0112042
-2.88126e-06
-6.78833e-08
0.000549165
1.25127e-07
0.00122737
5.37191e-05
4.42804e-09
-0.00679631
-6.33329e-05
-2.38543e-06
2.41828e-08
-7.71493e-07
-0.00335795
1.91719e-07
-1.81579e-07
1.65804e-07
-7.6036e-08
-9.78692e-08
-4.0306e-10
-1.84648e-10
0.00326846
-2.38845e-07
0.00478195
-7.08087e-08
3.50787e-05
0.00636571
9.05993e-09
2.17316e-08
-2.49503e-07
1.43792e-09
-1.79939e-07
2.30905e-07
-8.65129e-08
1.25342e-05
0.000125124
-4.28075e-09
-0.00311283
0.00178058
8.19271e-09
-2.596e-05
0.00867667
2.03544e-07
-2.08561e-07
-2.73658e-07
-0.00149978
1.37437e-07
2.03371e-06
8.87273e-08
0.00215051
9.17843e-07
-2.66089e-06
2.21312e-05
-9.47947e-05
1.20881e-07
-2.49207e-08
-2.60439e-06
-0.000111086
2.06619e-07
-0.000366122
-5.10035e-08
-0.00919775
2.60677e-07
-4.54012e-08
-7.4343e-09
1.04903e-09
0.00137668
-0.00979645
-1.6872e-08
1.94481e-05
3.99681e-07
-0.00507162
0.00102928
-0.00959203
5.73616e-05
4.67196e-08
0.0023532
-4.17849e-06
-7.39107e-08
-1.18986e-06
-0.00215805
0.00103754
-2.87527e-07
-2.68725e-07
1.4138e-07
-7.28096e-09
-0.0015665
8.45489e-06
0.00196255
-0.00104543
-1.67222e-08
-1.24641e-09
2.46237e-06
-8.13372e-10
-7.05442e-09
-3.15342e-07
2.35976e-07
6.82437e-06
1.26788e-06
3.78051e-05
-0.000370322
-1.28055e-06
2.42154e-08
7.68687e-08
-2.68756e-05
-0.00165515
9.94556e-07
0.00191986
-3.55287e-07
4.92058e-10
-6.3467e-08
-0.00712217
1.21539e-07
-3.45093e-08
6.32092e-06
0.00214024
7.1116e-06
1.16125e-09
0.00061849
5.30627e-05
0.00095312
-1.64193e-08
-3.62484e-05
-0.000171564
-0.00313738
-4.70797e-07
-2.15712e-09
0.00827064
1.54174e-11
3.35515e-05
0.00139944
-4.69491e-05
-0.000104618
-3.28073e-06
-0.000275315
1.73449e-06
1.62439e-08
1.44581e-07
0.000254361
-0.00122034
-0.000178853
0.0056322
6.4368e-08
1.32883e-05
-3.10929e-11
2.84834e-07
-2.66677e-06
3.57687e-05
-3.01788e-10
-4.83838e-07
-0.000198798
-0.00285474
0.000302924
-0.000201423
-1.03715e-06
-2.23574e-06
-9.49871e-05
3.75826e-08
-2.89318e-08
-2.64832e-08
2.53511e-07
-5.17678e-06
1.35099e-09
-5.80222e-07
1.98514e-08
-3.8927e-08
-2.11212e-09
0.00120488
9.97797e-08
-3.36171e-10
5.93689e-07
-1.26458e-06
-2.90307e-09
0.000946212
-1.52996e-07
-2.04384e-08
5.95409e-07
4.36596e-07
-4.73392e-07
1.89085e-07
0.00184411
-6.39049e-08
-1.82361e-06
-0.00747947
-2.48793e-06
0.00232131
5.45924e-07
1.35175e-05
0.00260077
-0.00127425
-3.43905e-08
-0.00170155
3.10827e-05
1.55732e-09
0.000675787
2.10468e-08
-9.60602e-09
-9.94472e-07
-3.32493e-09
2.61161e-05
-0.0015284
8.69236e-09
-0.00113599
3.03949e-08
-4.22605e-07
-0.00126413
-4.93413e-09
0.00261023
1.38958e-06
-8.32488e-08
-1.8941e-07
-7.45207e-08
-2.79749e-05
-1.2148e-06
0.000379841
-3.91771e-07
0.00204772
1.95176e-06
-5.23955e-09
-0.00013329
-0.000202835
0.000673269
5.38642e-06
-0.000108898
2.86884e-06
-1.02297e-06
-0.000185178
-8.98424e-08
-0.000507176
8.28579e-10
-2.83055e-05
1.8842e-08
4.14334e-06
-1.25153e-08
-5.54952e-08
0.00820087
2.40661e-07
-7.08645e-09
-0.000782803
1.20907e-06
3.11817e-09
1.43308e-06
8.11184e-07
0.000222541
-0.00219817
-0.0130754
0.00125424
2.77441e-10
-1.58187e-09
0.000621561
5.36144e-09
0.000455538
-1.90724e-06
-1.07666e-07
6.69483e-09
-3.323e-07
1.11145e-08
1.16072e-08
5.86882e-07
-0.000154534
4.81971e-05
1.12507e-05
-1.55288e-06
-2.45473e-09
-8.63633e-07
0.00589556
-1.74823e-08
-2.68985e-06
4.19269e-08
-0.00167116
5.26632e-07
-0.000961985
9.45916e-10
-0.000112668
-4.14087e-11
6.25624e-06
-3.44501e-08
4.37627e-07
4.6034e-07
-3.57604e-09
-1.87018e-08
1.2505e-08
-0.0109447
0.000853682
-1.20523e-07
0.00252389
-5.26216e-08
1.75808e-06
5.00137e-07
0.000597543
-0.000287848
-5.66071e-07
-1.15802e-08
2.06732e-05
4.41271e-09
-3.20571e-08
-6.37658e-07
0.000695928
0.00317876
-0.00137115
-0.0100616
3.82573e-06
-1.81499e-08
-2.60211e-08
-0.0458137
-8.01024e-09
0.000770697
1.57117e-07
-3.10915e-09
-0.00172888
0.00448345
4.65073e-09
0.00040618
-2.56573e-06
-1.12701e-05
5.48974e-06
-0.0116954
0.00386436
0.000845501
2.4999e-09
6.84258e-11
-0.000666053
3.19809e-08
-1.18824e-07
7.33348e-08
8.30285e-08
-0.0100189
1.82152e-05
2.76823e-06
0.00160533
1.53367e-07
1.22162e-05
1.83013e-07
9.20004e-09
-6.1911e-09
5.78394e-10
0.000891319
-0.00108285
-8.98137e-05
5.92562e-09
-1.06029e-08
5.07055e-07
-1.21752e-07
-1.1687e-06
9.24818e-07
0.0017056
-0.00254771
2.57698e-07
-2.3572e-05
0.000236245
-2.72172e-07
-0.000437979
7.50167e-08
-0.000396053
-0.000552473
-0.00102276
0.00801243
6.052e-08
4.27552e-07
-0.00134926
0.00153731
-0.00119549
-2.5738e-06
-3.39002e-05
0.000703401
5.86068e-10
-0.00011121
0.000197775
-5.27617e-06
5.08729e-10
1.17592e-07
2.18245e-06
-0.00068342
-0.00218097
-6.87447e-06
7.1548e-09
-1.60174e-07
1.54411e-07
-0.0152108
-2.1595e-08
0.00010767
-6.27294e-08
7.39387e-08
5.47735e-05
-1.55956e-08
3.41388e-08
-6.73519e-08
1.10367e-06
7.08333e-09
2.17097e-07
-1.78659e-08
-0.0123981
-0.000200453
-0.00211085
-1.55519e-09
1.94886e-07
5.17368e-09
1.18109e-05
1.33728e-05
8.27428e-07
-7.26417e-08
1.29808e-08
8.42368e-05
5.77882e-06
1.21363e-07
0.00131179
-1.01408e-05
-5.76453e-09
-3.27862e-09
0.000316424
2.64134e-06
2.41068e-09
1.23125e-08
-0.00727848
3.66846e-09
1.15419e-07
-1.67095e-09
0.00060405
-0.000617717
-1.03415e-08
2.24039e-07
0.000909138
-6.39225e-08
-0.00720785
-4.3279e-05
9.05278e-07
8.96337e-08
-3.68244e-09
-5.39143e-09
5.51895e-10
0.000158753
0.0109256
4.92509e-05
5.12376e-08
0.000625962
1.38929e-08
-6.55097e-08
0.00546609
-5.23588e-08
0.000731883
-6.77116e-09
-5.77481e-07
1.35919e-07
-3.13087e-09
1.58838e-07
2.63189e-09
0.000479453
-5.13974e-08
-2.36739e-09
-3.71593e-06
1.48371e-06
1.10014e-08
3.95112e-07
-3.69937e-07
2.15149e-09
-9.97271e-05
6.75445e-09
2.18109e-07
-0.000997737
-7.06e-06
-8.29076e-08
-1.17428e-05
-2.3508e-06
-5.96473e-06
-6.41314e-06
-2.55922e-06
0.0084714
-4.79416e-07
1.02731e-06
-7.36543e-08
-8.02756e-09
1.01861e-08
1.08361e-06
1.33383e-06
1.53235e-06
1.19872e-07
3.31166e-08
-6.38551e-07
-0.00020492
-2.73206e-05
-5.58476e-08
1.00722e-08
4.22079e-08
1.05098e-05
2.7993e-10
2.47953e-05
1.62412e-09
-5.48136e-09
-2.07745e-08
-0.00011827
0.00170454
-3.51036e-09
-2.67819e-07
-1.26568e-08
-4.15999e-06
-5.56223e-09
-2.42387e-08
-0.0182458
-1.41187e-10
5.80079e-08
6.08715e-09
-5.25651e-05
8.06959e-10
3.66924e-07
-0.00543819
0.00861165
-0.000101256
-4.41294e-06
0.00201107
1.17121e-06
-1.07866e-07
-4.44495e-08
0.000508246
-5.45114e-09
2.59238e-06
-8.61068e-07
-1.46178e-06
-2.35181e-07
1.99978e-07
1.04585e-06
9.64736e-08
-1.72081e-09
0.000145609
-0.0014188
-4.05362e-07
-2.34162e-09
-0.00863676
-1.25126e-06
-0.00015114
-0.000919133
-1.181e-05
2.57857e-09
3.58242e-08
1.71979e-08
-4.86422e-07
4.89852e-09
7.96213e-08
0.00182104
1.10535e-05
4.54175e-07
-1.54134e-08
-2.96093e-08
4.56007e-05
3.34383e-09
-1.37943e-06
-1.42693e-06
-2.45257e-05
1.92409e-06
-7.31084e-08
-1.48242e-07
-9.2342e-07
-1.23205e-08
1.82609e-06
-9.85052e-09
0.0231378
-3.26087e-06
1.36281e-05
-9.38085e-08
-9.69782e-07
0.00166206
0.00142434
-0.000588175
3.81905e-07
-4.67594e-05
6.8176e-09
-2.7833e-08
6.54388e-08
4.68147e-06
-4.78247e-09
-5.21668e-07
5.62866e-07
-6.62e-07
7.49231e-09
-2.66314e-08
-6.29263e-08
-4.90228e-10
-0.000291341
0.00522938
-0.000467417
6.60378e-09
-0.000162706
4.96669e-07
-3.63111e-09
-4.37163e-07
-1.14011e-08
2.09546e-06
-1.19004e-07
-4.68659e-08
-0.000182671
0.000558667
0.00140278
1.21184e-07
0.000172469
-8.91339e-08
-0.00125756
-0.000263209
1.89524e-09
-1.77203e-06
2.23356e-05
4.1053e-09
1.23776e-10
0.00384794
1.70235e-07
2.10308e-08
-0.000124855
-0.000112814
7.48423e-10
5.47183e-07
-3.20298e-09
-3.20859e-07
3.96787e-06
-2.43784e-09
0.000109051
-1.92337e-06
-1.35634e-08
7.42592e-05
1.38436e-07
4.35054e-06
-5.61e-10
3.23119e-05
3.85336e-08
-0.000121196
2.08699e-08
-1.87499e-08
0.00329044
8.03897e-09
0.00161967
-1.50839e-08
-2.22991e-06
0.00715925
-0.00372289
1.27064e-07
2.44923e-08
7.92565e-09
1.38287e-09
-1.39579e-06
4.21409e-07
-9.35725e-09
-0.000161871
-5.87549e-08
-1.99313e-07
-4.36987e-05
5.17917e-05
-8.01092e-07
1.48667e-09
0.00753732
-6.94653e-07
1.3805e-08
-2.1106e-07
-1.36897e-07
-4.65817e-08
0.00403614
-6.5613e-09
-3.1429e-08
1.12333e-07
0.00175147
8.44937e-08
3.64449e-08
0.00102989
-4.5824e-07
0.0014511
-9.4316e-07
-7.92544e-09
-1.05479e-08
0.00123839
-5.62597e-08
7.84853e-09
0.00785264
0.00171326
2.89776e-09
-0.00160781
-1.95997e-06
1.24504e-07
-2.62579e-08
1.35193e-05
6.01219e-10
-0.00636504
-2.4042e-06
1.25001e-09
-0.000743821
-0.000794459
-0.000331179
1.60557e-07
-0.00163772
-2.06523e-06
-8.59573e-05
-0.00739828
-9.6622e-08
-0.00122298
1.37997e-08
-5.66323e-07
-8.95094e-08
-0.00309622
8.73506e-10
9.00062e-08
-0.00781675
-8.13393e-10
-3.42539e-07
7.7575e-09
2.15416e-07
0.00115588
-1.26897e-06
-2.31168e-07
2.13416e-07
0.000414496
1.83006e-08
-1.00505e-07
-9.52654e-07
2.36785e-05
-2.57813e-08
-2.05004e-08
-6.55164e-08
-7.35814e-09
7.17366e-08
-1.11902e-08
7.87705e-07
1.43394e-06
0.000327801
8.38561e-09
0.00138988
1.08211e-07
2.69387e-08
7.81054e-09
-5.98238e-07
1.90241e-07
2.2436e-08
-0.000510282
0.00130068
2.6308e-07
1.32346e-08
-8.48805e-05
-5.13998e-08
0.00695202
4.09414e-07
-6.16111e-06
0.000429848
-0.000145254
-0.00430805
8.02392e-08
1.44224e-07
-6.10713e-10
0.000360456
1.15953e-07
1.95622e-08
9.51432e-06
-1.54649e-07
-5.07969e-09
2.40388e-08
-0.000227339
-0.00126799
-5.9509e-10
-1.98276e-05
-0.00206602
-1.42313e-07
3.21069e-09
2.82082e-09
-0.00525146
6.21368e-09
-8.71323e-06
-2.29758e-10
7.77334e-09
2.72214e-07
-4.78337e-09
3.84384e-06
-2.18578e-07
2.36444e-07
-6.84599e-08
2.69049e-09
6.84603e-05
1.74722e-08
-6.9537e-08
8.32139e-08
-1.37254e-08
7.57632e-06
-0.00717786
-7.45361e-07
3.21919e-07
-3.30456e-08
-4.31459e-09
-3.53348e-09
-0.00182565
-8.83553e-08
-2.6337e-06
3.37774e-06
0.000339045
2.05179e-10
-7.64299e-08
-0.000731583
1.95663e-10
1.22045e-05
-4.35806e-06
-4.91944e-08
0.000278035
-0.00438248
-3.90842e-07
-0.000221513
-3.26206e-07
-1.52309e-05
-1.79734e-08
-0.000337267
3.98922e-09
0.00607323
2.64675e-08
8.1776e-08
0.000522625
0.00166504
0.000112645
1.13127e-05
-8.48642e-09
-0.00399868
-8.78523e-09
0.0021292
4.81833e-07
1.38636e-09
-2.52391e-08
4.6871e-08
1.02606e-06
2.07396e-06
0.00165444
-9.65568e-07
-2.27811e-08
1.42076e-08
1.47593e-07
0.00011866
1.57032e-05
1.02107e-06
-3.56624e-09
1.36416e-08
-4.74732e-07
0.000239097
1.11105e-07
-1.3846e-06
6.02544e-07
-8.53296e-08
-1.06434e-07
5.41004e-07
-6.53608e-07
1.06405e-05
1.95738e-08
3.44421e-06
-3.3628e-08
1.61912e-08
0.00100647
-1.44896e-06
3.04851e-06
0.000208575
1.322e-08
0.000342639
-0.000327611
3.98502e-07
-0.00113328
-2.97328e-08
-0.00781173
-0.00937631
2.07339e-06
-6.04595e-09
0.00210859
-2.4691e-05
-8.47889e-09
-1.74221e-06
-0.00123549
1.02368e-07
4.24015e-09
1.89814e-06
-3.69554e-10
0.00116038
-2.66659e-07
7.04462e-08
-1.43602e-10
-4.81355e-08
-7.74988e-06
-1.42511e-06
0.000199523
-5.86505e-06
-0.00196011
5.21093e-06
-7.53926e-10
-5.43924e-08
-0.000516911
-0.00207197
-2.94595e-08
-4.07425e-08
-2.57516e-05
1.05032e-07
8.70433e-05
-0.00642018
-0.0010415
-2.73145e-08
3.54992e-09
0.00190751
2.76661e-08
-0.00181817
0.000234195
-1.16965e-07
-0.00947701
3.34064e-06
-2.84044e-06
-3.17462e-08
-0.000843905
4.68458e-09
0.000830872
-5.69218e-09
-1.19384e-06
-1.61347e-07
1.80007e-08
0.00345033
3.0277e-08
-3.48918e-09
-1.18509e-07
0.000292923
4.3918e-09
2.07325e-08
-0.000158912
-1.00108e-07
1.63645e-08
-8.52578e-09
8.58023e-08
1.26515e-08
-3.5578e-09
-1.12804e-06
-2.87945e-09
-3.18178e-07
2.95757e-09
4.92162e-05
-0.00166904
-2.71736e-06
-0.00066204
5.17475e-08
6.66276e-07
-7.7086e-08
-1.56486e-08
-1.40999e-07
-0.00119834
-0.00143436
-2.60786e-07
-2.44518e-10
-1.17544e-09
0.0118111
1.56637e-08
0.000183468
0.00055825
-0.00505931
0.00151394
0.000918085
-0.000410287
2.81383e-08
-0.00497776
0.0015691
0.00130685
-6.08523e-07
-4.49415e-09
-6.0997e-07
-1.88279e-09
-0.00292167
1.51417e-05
-2.50032e-06
6.27551e-07
0.00126244
-2.96069e-09
-8.72015e-09
-0.00631601
-2.35142e-05
-1.0689e-08
-6.33506e-09
5.7423e-07
7.24848e-10
0.00216144
0.00101218
0.000220707
-0.00380458
9.62656e-07
0.000616298
1.63279e-07
-1.08149e-05
4.47558e-09
-8.71607e-08
1.35805e-08
-0.00176747
-5.7461e-08
2.59882e-07
0.000724229
-0.000608638
9.17798e-06
2.99998e-05
1.54581e-07
-5.79084e-07
0.00110383
-0.000127984
-0.00803802
-0.000783235
-2.17687e-06
0.0015668
6.31415e-05
-0.000827673
-2.18228e-06
-4.23413e-06
-7.22077e-08
-5.91735e-07
-7.62993e-07
1.77025e-08
-0.010272
1.35415e-08
2.5039e-08
1.03324e-08
0.000939631
3.69683e-07
-7.72295e-09
-3.74682e-08
2.2736e-08
7.55198e-06
-8.58525e-06
0.000724776
7.46735e-08
0.00043054
-5.38251e-09
-1.16158e-07
4.16062e-06
5.51555e-06
-6.75397e-09
-0.00456229
-2.25421e-06
0.00194792
-3.95182e-09
-0.000916944
2.45276e-06
-1.94593e-09
1.07177e-08
-7.4618e-09
0.000331856
0.00231368
-0.000232973
2.29082e-09
2.6386e-08
1.2132e-08
0.00155252
9.10458e-07
2.34077e-08
0.000104843
-1.3092e-07
-1.23992e-07
-0.00126173
-6.76328e-09
-8.92116e-08
1.97818e-08
6.68662e-09
-2.80577e-08
7.76875e-08
-6.889e-09
-3.30458e-08
-7.75748e-07
3.80619e-07
-1.64728e-08
-0.000184567
-2.77836e-07
-0.000390776
-0.000209477
1.934e-06
-0.00113156
0.00179028
-4.6823e-08
-1.49283e-06
4.88877e-09
3.85833e-08
0.00262412
2.33333e-06
-0.00722517
1.45701e-07
-3.71167e-06
-7.19503e-08
-9.24804e-08
-5.37029e-10
-0.00538691
-2.56176e-07
-0.000677751
-1.37737e-07
-1.34303e-05
-2.78284e-07
-8.91556e-09
-6.8715e-07
1.06035e-06
-1.41406e-08
0.00387726
4.23538e-09
4.2739e-07
1.78161e-08
1.33668e-07
1.25314e-08
6.3188e-05
-4.50849e-06
1.2446e-06
0.00956659
7.61447e-07
-2.94555e-06
3.92167e-08
-0.00246419
4.42192e-06
-3.90362e-10
6.0334e-07
0.00170451
-0.00052967
-4.38109e-08
-2.19321e-07
-3.06998e-10
-1.32971e-08
-7.69915e-08
0.000224997
2.28783e-07
3.51401e-09
0.00112795
9.49927e-09
1.44977e-08
4.40197e-06
-0.00131113
1.56775e-09
0.000927316
-0.00222129
2.65095e-06
0.00135636
2.93208e-08
0.00129701
-8.69262e-05
8.5872e-09
-1.86154e-07
-3.38533e-08
1.44966e-07
-1.20062e-06
-0.00019596
-2.19257e-06
0.000493636
0.00017512
4.61123e-09
-0.00653715
1.54133e-09
-0.0052605
-1.37621e-10
0.00813716
-9.31203e-05
-9.54408e-09
-4.36241e-08
-8.15601e-10
-1.26494e-06
7.68996e-06
7.72034e-09
-0.000269379
-1.44525e-07
-2.94565e-06
6.82132e-07
-2.84731e-07
2.72625e-08
0.00504868
2.80488e-08
-2.32837e-05
-1.63147e-06
0.000508446
-2.3986e-09
-3.90541e-09
-0.00435229
-2.72039e-09
1.41199e-09
-1.52674e-08
2.78035e-06
-4.45083e-08
7.25538e-05
-2.34027e-07
-1.4702e-08
-5.8385e-07
-1.85594e-07
-4.14829e-07
0.00139625
3.95922e-09
-1.2907e-06
-0.000867067
5.20298e-05
-4.90088e-08
1.17614e-06
7.22116e-09
-1.83474e-09
-1.75588e-05
0.000698721
-8.77419e-09
-6.94507e-10
-6.56128e-08
3.19936e-07
2.60049e-06
3.14584e-08
-8.60354e-07
-3.5689e-08
8.13747e-09
-1.54373e-08
-2.54954e-07
-0.00524397
-5.38957e-10
0.00577466
-1.42762e-05
-6.59533e-07
5.21687e-08
-0.00748451
-0.00102847
-9.43079e-09
-1.68366e-08
-0.00147245
1.07813e-07
-7.18161e-06
-4.51188e-05
0.00123084
-3.60717e-08
2.21069e-07
1.16586e-06
-8.93578e-09
0.00195326
1.62966e-05
-7.4145e-08
2.44376e-06
7.21614e-07
-5.27595e-10
-4.22824e-05
-1.37444e-08
1.5762e-06
6.84509e-08
-7.184e-07
-6.14868e-09
2.32699e-08
9.5156e-05
1.45294e-08
0.000106192
2.80397e-06
-2.47665e-08
-1.82349e-08
9.70313e-09
-1.27598e-07
0.000479162
-3.10457e-10
-5.68394e-05
-1.26715e-09
2.05112e-08
5.88014e-08
-0.00406718
-9.75787e-10
-1.88295e-09
-5.45869e-08
1.06334e-07
-8.26563e-07
-3.7169e-08
0.00347936
6.68447e-07
-4.57936e-09
1.2148e-05
0.00212758
2.96008e-07
-6.34606e-08
-0.00141955
-8.39132e-08
-1.84026e-07
-0.00261468
-2.303e-08
0.000958354
-2.78618e-06
1.56676e-08
-1.51668e-06
-2.59018e-09
-8.99146e-08
-1.7966e-07
-0.00433991
-8.50302e-09
-0.00194706
0.00225175
-0.000121095
-6.03618e-07
2.50107e-09
-0.00626293
-1.55525e-09
0.000801434
2.49445e-08
0.000403517
3.74343e-07
-2.62689e-06
1.1997e-07
0.00393305
1.5652e-07
-1.10808e-09
0.00137351
0.00136831
1.18253e-09
-0.00774238
1.61287e-08
1.5049e-06
-4.81183e-08
-8.56738e-07
-0.00027809
2.223e-07
5.75306e-08
-0.00379785
-2.09863e-05
-9.52502e-09
8.93677e-07
1.9155e-08
-1.01339e-08
-2.99401e-09
-8.79512e-08
-0.000177079
-5.23711e-05
-2.71575e-07
1.15506e-05
4.71061e-07
1.19536e-06
-6.76756e-09
-2.99475e-05
0.000406124
-0.000135675
-2.47372e-08
0.00154321
0.000124424
-1.0235e-06
1.64664e-07
-1.10132e-07
-7.12695e-07
0.00148296
9.65214e-09
1.32578e-08
2.73362e-08
1.85532e-07
1.21316e-08
-9.60649e-09
0.000365858
3.28517e-08
-6.74118e-06
-2.47516e-08
1.60641e-08
-5.72009e-09
5.57182e-09
0.000199365
-0.00272731
-5.93108e-09
-1.4484e-06
-1.32262e-08
0.00133908
-1.82729e-08
-4.35966e-07
0.000666418
-0.00813452
1.94652e-07
0.00522328
-1.52718e-06
5.03005e-09
7.10417e-07
1.83733e-07
-8.26655e-07
-9.8718e-11
-2.41517e-08
5.78074e-06
-9.18968e-06
-0.00202875
-1.04726e-05
1.00551e-07
0.00122664
-5.7969e-08
-3.47412e-07
-3.00104e-07
0.000652329
-0.00432179
0.00508819
-2.06638e-08
-6.55351e-09
0.000797996
0.000511242
5.11872e-09
-0.00734174
5.84295e-09
3.84224e-08
-7.75509e-09
3.74896e-08
-7.54094e-08
2.66655e-07
-9.67858e-05
-9.35398e-07
-1.22618e-06
-7.08536e-09
1.34811e-09
5.41684e-09
-1.35011e-08
-8.07859e-09
-6.24829e-10
-3.04062e-09
-0.000698918
-1.28888e-06
0.000632176
-4.98219e-07
0.0080705
-2.87105e-06
0.00173464
0.00814529
-2.88864e-06
1.25048e-09
-1.7494e-09
-5.82071e-06
1.93598e-07
-0.00347979
0.000687012
5.43221e-09
7.7414e-09
-7.43355e-07
0.0018464
4.21918e-08
-0.00174056
1.56504e-07
7.80893e-09
0.00200471
-4.25761e-08
-5.82187e-07
-1.56296e-09
-0.00257357
8.51455e-09
-1.34146e-07
-0.000377714
2.40645e-08
1.01916e-08
1.57714e-07
-3.42469e-09
-6.30453e-07
-1.05984e-07
-0.000137454
2.62319e-08
-1.55994e-09
-9.45874e-09
8.64299e-05
-3.7722e-07
-2.69553e-08
0.000867197
-1.04139e-09
2.61084e-08
-5.20986e-05
4.12185e-05
5.14518e-08
0.00220898
-0.00106494
1.04779e-06
-0.000160905
2.13511e-09
5.80346e-08
4.65214e-07
4.90429e-08
-0.000753612
0.00175416
-1.43331e-08
-1.68144e-07
-1.36781e-08
-0.000231464
0.00154377
7.38315e-07
-1.50022e-09
0.000235392
5.29961e-07
-6.59394e-08
1.16174e-06
1.1549e-09
-8.13511e-08
-6.45901e-08
-3.58304e-09
-0.009939
-9.5547e-09
-1.96748e-08
3.48659e-07
0.008187
9.84713e-07
-0.000586545
1.11912e-09
7.97212e-07
-1.55988e-07
-1.84938e-07
-4.87733e-08
1.92207e-08
-1.02032e-08
1.15387e-08
1.07441e-08
-1.0369e-10
1.60484e-07
1.29893e-07
-2.48383e-07
3.88036e-09
-0.000297439
0.00415631
1.25943e-07
-1.42604e-07
-0.00456688
-8.29761e-10
-1.65943e-05
-0.00221896
-4.68439e-05
0.00112658
0.000153976
0.000816787
-0.0026158
-0.0017036
-1.87083e-08
-8.28402e-07
4.85844e-09
1.32711e-07
-8.52318e-07
-2.45689e-10
5.01778e-11
-0.00152113
2.09652e-08
3.51242e-07
-0.00238218
-1.41474e-09
-5.26329e-08
6.24725e-06
9.00626e-09
7.14183e-08
2.05722e-08
1.8077e-07
0.00155648
-0.00031007
4.23467e-09
-1.09971e-07
1.03068e-08
1.78864e-07
-7.15948e-07
2.31336e-08
0.0190066
-2.69731e-05
-4.70771e-09
-0.000164148
-4.00626e-07
-8.34748e-08
-0.00139855
3.61735e-09
-6.88685e-07
-1.06385e-09
1.8222e-07
3.4133e-08
0.000645192
-6.66858e-08
2.55649e-09
-4.3592e-07
1.32669e-07
-2.66206e-07
-1.6391e-07
0.00603452
-2.33451e-06
-4.55963e-07
0.00193508
0.00141266
1.0157e-05
-1.42203e-06
-0.00605746
1.53528e-07
4.20505e-08
-4.23315e-07
0.00134777
-1.82081e-06
1.86916e-06
0.00057116
3.90515e-09
0.000438989
7.73059e-05
0.000787379
-9.61209e-10
-5.7592e-07
-7.9483e-08
1.29102e-05
-1.2352e-07
0.00055243
-0.000287936
1.88954e-08
2.61322e-07
-1.06218e-07
4.56667e-08
-0.000870644
-4.94274e-08
-1.04707e-06
1.92951e-05
-3.4837e-06
-8.20875e-08
-1.10304e-10
-1.90284e-09
-2.89828e-06
5.02055e-09
2.0546e-07
-5.85511e-08
9.80737e-09
3.79158e-09
2.75781e-07
-4.18571e-09
-0.000589548
-0.00123112
1.65939e-07
6.17188e-08
-5.22179e-08
-3.34377e-07
-4.16437e-07
4.75754e-09
0.00151078
-1.48132e-07
-3.16741e-08
-4.67767e-09
-0.000507617
-0.00163836
1.34708e-10
-2.23438e-05
4.13609e-07
1.53301e-08
-0.00019411
-1.57188e-08
2.166e-06
-1.17809e-09
0.00459864
0.000750878
-8.2476e-11
1.49694e-08
0.00120811
-3.42615e-06
0.00720292
-9.93061e-10
-3.67494e-06
0.000139458
-0.00542884
-6.47007e-07
-1.76785e-08
2.40727e-08
5.92914e-07
-2.37894e-07
-0.000440147
-0.00142971
-0.00540701
5.64902e-08
5.35264e-08
-3.03012e-06
7.91025e-08
-0.000158489
-5.54812e-07
0.00081433
3.61675e-08
-1.57904e-09
-8.88112e-08
-1.96882e-07
-1.20541e-08
-2.59123e-06
0.00833604
-2.21654e-06
6.6348e-09
9.75838e-09
-0.000314274
-2.28282e-07
3.58847e-07
-1.74939e-09
-6.06331e-07
-0.00147488
5.76617e-09
3.07897e-07
-1.00633e-07
6.95138e-06
6.31689e-09
-3.58859e-07
1.24072e-07
-5.71477e-07
-9.95631e-06
-2.68936e-07
-0.00462675
4.26881e-05
-6.78153e-07
0.00642236
-1.01695e-08
1.08198e-07
-2.10498e-07
0.00269726
-3.62358e-08
0.00235829
3.36541e-09
0.00128456
-1.13671e-06
-2.56499e-08
-4.63325e-07
6.99789e-08
-0.00171936
2.90945e-06
7.51069e-07
-7.93328e-05
-1.0612e-05
1.25487e-09
-4.02677e-09
-5.11544e-10
-4.26204e-07
0.000740873
-7.56226e-07
1.08148e-08
7.69441e-05
2.32025e-07
0.00264101
-9.64673e-08
0.00156219
5.14195e-07
0.0030592
0.000521842
2.63446e-06
9.96898e-10
5.72268e-09
-1.17268e-08
0.000608322
1.21199e-07
2.22022e-06
0.00318673
-4.43243e-09
5.12047e-05
-3.78415e-08
1.22626e-08
-2.7192e-06
-1.79981e-08
2.36449e-07
0.00041924
-8.74457e-05
0.000246787
-5.18842e-08
1.54063e-08
-2.67955e-07
4.22651e-08
-1.10577e-08
8.48827e-08
0.0109677
-2.25973e-06
-0.00567257
-3.2353e-08
1.35309e-06
0.000474662
-5.32354e-05
-9.55127e-08
6.32608e-08
-0.000187609
9.54896e-08
0.00065679
3.98895e-10
1.21222e-08
-2.92931e-08
2.84221e-08
-5.28185e-09
2.07706e-07
-8.5198e-09
5.30688e-07
0.00718088
5.04994e-07
-0.000112931
-5.92828e-07
-5.16262e-09
3.09717e-09
-3.28791e-05
3.00391e-09
1.89257e-07
7.76892e-09
-0.000154415
-7.69348e-05
-3.43824e-09
3.6453e-07
-2.47589e-08
-1.39332e-08
-1.03319e-10
1.62646e-08
-9.79614e-08
0.000476298
-3.39332e-08
-4.0983e-09
1.4521e-05
-1.61278e-07
-0.012743
5.68252e-07
2.22214e-06
6.53664e-05
-6.2901e-08
1.62049e-08
-0.00478101
-3.46232e-08
-4.33439e-06
7.08137e-07
-1.55701e-08
1.48199e-06
6.62748e-09
0.00169685
4.84234e-09
-4.8289e-08
-0.00069428
8.09651e-07
-7.63846e-06
1.56653e-09
7.15672e-06
4.74789e-06
-3.57882e-07
-0.00487624
-4.79934e-09
4.99926e-08
3.01224e-09
5.61825e-06
5.54713e-08
1.8159e-05
1.2375e-08
-1.02784e-07
-0.00116903
-8.12039e-05
2.71038e-09
0.000263622
7.14283e-08
-0.00107297
6.55124e-07
-1.43002e-07
-3.64589e-07
-0.0120873
-4.95942e-08
-2.58711e-08
-0.000415461
1.83677e-09
-3.57996e-07
6.87505e-08
-7.32497e-07
-0.00200214
0.0100753
1.81883e-07
-3.89759e-06
-9.42368e-09
0.000149599
1.33506e-09
-7.11837e-08
-7.01116e-06
-0.000121038
1.62615e-07
-7.90749e-09
-3.16158e-06
-0.000126548
-3.56632e-06
1.00628e-06
0.0023594
2.66044e-08
0.014492
-2.01137e-08
-2.24709e-05
1.71143e-07
-4.66402e-09
-0.00122948
-1.36848e-07
2.83509e-10
6.24083e-05
-0.00111343
-0.00347871
1.52367e-08
-0.00450484
0.000371668
6.84931e-08
-4.90421e-05
0.000835079
6.62426e-10
1.83105e-07
-0.012279
-1.41543e-08
1.24124e-08
-6.2057e-09
-3.48673e-08
-1.05335e-06
5.02492e-06
2.94508e-07
0.000316133
-1.17475e-09
9.3691e-07
8.53723e-07
7.92853e-08
-5.52096e-07
-7.31562e-07