/*--------------------------------*- C++ -*----------------------------------*\
| =========                 |                                                 |
| \\      /  F ield         | OpenFOAM: The Open Source CFD Toolbox           |
|  \\    /   O peration     | Version:  v2012                                 |
|   \\  /    A nd           | Website:  www.openfoam.com                      |
|    \\/     M anipulation  |                                                 |
\*---------------------------------------------------------------------------*/
FoamFile
{
    version     2.0;
    format      ascii;
    class       volScalarField;
    location    "50";
    object      omega_0;
}
// * * * * * * * * * * * * * * * * * * * * * * * * * * * * * * * * * * * * * //

dimensions      [0 0 -1 0 0 0 0];


internalField   nonuniform List<scalar> 
18758
(
0.106345
4.04625
0.0214551
4.21603
5.24699
7.10923
7.52724
0.0217147
0.212354
0.0271682
0.0236784
9.77436
0.0220418
0.157376
0.0231887
0.750757
0.0411356
0.0219411
0.0219287
0.030119
7.09586
0.0222695
5.31205
0.573617
0.750811
0.021719
1.40078
5.39774
9.33688
3.95262
0.0658979
5.44748
0.0221831
0.0228084
0.13162
0.0221729
0.0222267
0.0220082
0.022277
0.0433141
0.0220014
0.0266963
0.0216486
0.0262262
1.83203
0.0216125
5.0177
0.0240181
0.0264763
0.0216158
0.144413
4.79362
0.0215467
0.0235089
5.16654
9.75495
0.0222166
0.345692
0.0219708
0.187459
0.10448
5.89584
0.119724
0.0229434
0.0215539
0.0220098
0.0444966
0.0221761
0.0219487
4.67508
4.4729
0.0223468
0.0216228
16.6327
0.0216861
0.0219527
0.258577
5.0487
0.103671
4.84176
6.18001
3.14145
0.196666
6.55075
0.261029
0.0306175
23.3851
0.119656
5.81509
0.0219612
6.1489
0.0219714
13.9106
0.0271169
6.19587
12.4905
0.23745
0.0216862
0.0219005
5.93739
0.0330943
5.53606
0.0808638
0.0466627
6.88481
2.38053
5.73578
5.20928
0.0226888
0.022311
15.9955
13.0105
0.0217593
0.0220446
7.69738
9.50152
6.24728
0.0232115
7.23677
5.82672
0.0384181
0.021971
11.1727
0.977799
0.629648
1.29588
2.59402
0.466939
11.1732
0.0220516
0.0422399
1.18656
12.912
0.0485266
4.62538
0.0238249
0.258069
0.045104
0.0218979
0.0826066
0.0963769
0.286479
0.0219936
13.6654
0.022014
0.0220475
8.19593
6.87713
0.0649726
7.09911
2.16078
2.77839
0.0304101
0.0222701
5.00389
0.028392
6.28384
0.0241429
0.0221856
0.022289
0.0218102
0.19
18.7736
0.02218
0.108075
9.20214
0.0219847
11.5836
0.249256
7.18928
4.65154
0.0219399
18.4627
5.35071
0.184086
0.385168
8.48651
0.0230585
0.0812621
0.0221223
0.0217975
32.8068
1.70733
0.0216529
0.0254428
0.533739
0.0219249
7.21023
0.0216327
0.0219344
0.0474113
0.465786
0.022429
0.0624346
0.034867
0.120688
0.031018
0.300125
0.0221497
0.0216413
0.0763543
0.0239967
0.0371732
0.0864887
0.022038
0.0340685
0.0858676
0.0222782
7.39227
0.0264813
0.0219292
0.0508205
0.0222499
0.0372559
0.0786534
6.36948
0.0799154
0.424037
0.0216367
7.27966
0.0219305
0.0227161
0.224993
6.69317
0.294208
0.0825974
0.0583786
0.0487996
0.0216125
0.0854248
0.0220046
0.11724
4.95284
0.25093
0.0220595
0.0219269
0.0216147
0.0216378
11.6362
0.0375102
0.0218371
0.618639
5.79699
0.0230929
7.06044
27.8834
0.241263
0.0221794
6.18482
0.0297068
0.0221533
10.9428
0.030625
0.0301002
0.0225514
0.0415834
0.468298
0.539183
0.0366148
0.0884634
0.0216759
0.0695452
0.0220291
0.0843302
0.0270873
0.223313
9.33921
0.0216382
0.022574
0.467054
0.0225167
0.0252131
0.0838465
9.52282
8.34256
0.0219805
0.125782
13.6434
1.17318
0.0225884
0.0217485
0.0294878
0.0376125
0.0219838
9.41296
0.575476
4.93253
30.3384
5.28185
0.0216305
0.0214473
0.0496548
7.24961
0.0255021
0.0976549
0.113369
0.0300122
5.81105
0.0219028
4.49054
6.77645
0.0216206
4.30171
0.0372429
0.0219608
0.0333245
0.0883329
0.0229274
0.0221585
6.10932
4.92357
0.0219271
8.78421
5.83887
0.266649
0.0220152
0.0221655
4.5356
0.0230546
0.0216463
0.0217756
0.023243
0.23331
0.0915622
0.0297053
0.0360499
0.0304594
0.0499967
0.0216613
0.0222783
0.453909
0.0566113
0.122769
4.10015
0.0257161
0.0223322
0.0221394
4.54686
4.45045
0.0216247
0.0219172
0.0216261
0.0238774
0.0454954
0.78256
0.0219679
0.0222217
0.0216077
1.01605
0.278564
0.170087
0.148849
0.0229556
0.511423
0.101412
0.0371115
0.0315592
9.01378
6.18855
0.725043
0.0220471
0.0336891
6.27373
9.35937
0.024996
0.0216357
0.0572851
0.0219809
0.0308074
7.50496
2.64768
0.110381
0.030319
6.93696
0.0220083
0.0239667
0.0219077
0.0222908
0.104583
0.024155
7.11957
0.286523
0.0224903
0.0219314
6.01243
0.107178
0.213518
0.0220089
0.0530426
0.021735
0.0262497
0.0219706
0.0216474
6.98182
6.67959
3.50461
20.9228
0.0219106
0.209632
4.31315
0.0427628
0.0217557
4.08285
0.0217746
0.0220893
0.0217938
0.109712
0.0219585
0.0258391
0.154461
10.6486
0.0217654
5.06269
0.047587
0.0220199
0.0259402
0.021974
0.0219193
0.029442
0.0654397
0.050123
15.1075
0.0391413
0.0220436
0.363304
5.94523
4.50149
4.72022
0.0986369
0.0225441
0.0216481
0.0218401
0.0222627
0.107591
0.0420083
0.032995
0.0367337
0.0305041
1.29807
0.0833154
0.0219692
0.0342117
4.84624
0.022877
2.65742
0.0222749
0.0220828
5.80385
0.0279437
0.0225197
0.463751
0.133173
0.0504675
9.86246
0.0219624
0.0226481
0.727738
8.58582
0.0376174
0.0745012
0.16141
0.745383
20.4134
0.167594
0.0223475
0.142704
0.0220556
0.108177
0.0232038
12.3076
0.0523745
3.75632
0.0330197
0.0727755
0.0216304
0.54992
0.0216284
7.93425
0.0219118
0.336545
0.0220581
4.89531
0.0315681
0.0220893
0.0219045
0.0217852
5.82052
8.86704
7.7396
0.044268
0.0247779
0.0909332
0.0222708
0.0222867
4.85011
0.0219043
0.0220612
0.116219
0.0220416
0.071802
0.08779
0.0220572
0.0219572
0.0280696
0.0227686
0.0289041
6.95835
0.0327013
0.0364298
0.0266249
0.0220486
5.80717
0.0223273
0.0226867
2.63986
9.85217
0.0702
5.10388
0.0251146
0.0226696
5.88762
0.0219593
7.63322
0.288246
0.0220821
6.96002
0.514964
0.058677
0.0218705
0.0511861
4.68953
0.0220155
0.0218652
0.0232896
0.0228886
0.0220736
0.021679
0.0222943
11.192
0.0253379
9.10628
0.0219695
0.163194
6.48958
0.0220347
0.0216398
0.025342
0.0221286
0.0226283
0.0234052
0.0221059
0.112943
1.1989
0.021544
4.72084
4.75634
0.0357628
0.143571
3.75548
0.0265653
0.0317336
0.0288153
4.55977
0.0252006
0.044909
0.022021
2.51736
0.0415186
0.261806
0.139948
7.17449
0.0252648
0.0219537
0.0597109
0.647873
0.0225671
0.519348
0.0222468
5.9658
0.0227144
0.0217914
0.0217823
0.022048
4.72902
5.98788
0.0220114
0.293524
0.0305518
4.39495
6.7239
4.15405
1.16222
0.0219196
5.74949
0.0616259
0.0219825
0.0457614
4.68796
7.15964
0.0227751
0.0226206
0.0220115
0.0214884
6.67544
0.106028
5.19273
4.57524
0.0220564
0.0221412
0.0562492
0.0222793
0.0218114
0.0234052
0.0230529
0.12089
0.0409798
0.262917
5.19188
0.0746669
0.0220645
0.0274684
0.135588
4.9973
0.0437297
5.98745
0.0518688
0.0220269
0.293086
5.30937
0.0224935
0.021645
0.163059
5.90464
0.299004
0.0220418
7.48569
29.0818
1.27442
0.0216101
6.56188
6.36726
23.0466
0.0241664
0.0221984
8.01925
0.0222945
0.191776
5.93585
0.178225
5.82211
0.0822567
4.83726
0.0679884
0.022133
0.0225665
5.41826
4.29027
8.01767
3.1276
0.0219589
0.192113
0.0222769
0.0600624
0.0817679
0.150797
0.0220876
0.0251683
0.209575
4.60478
5.07786
10.0841
0.0382484
0.0332195
0.264131
0.0222578
0.0217076
0.0219532
0.0258707
0.068268
0.0220339
0.0783133
0.021856
0.0220928
0.0219051
5.28968
0.0223664
0.0222692
0.0540945
0.0519603
0.02155
9.57865
0.0219915
0.0217105
0.0567948
0.0361889
0.0250345
0.0228642
4.37082
0.035801
0.0353212
5.35335
0.0358207
4.17162
0.0262351
0.112786
26.9976
8.72554
0.0216363
4.54233
0.610121
0.0216876
5.0246
0.022063
0.0218932
0.0395079
0.0219491
0.112558
4.84888
0.0216269
24.5287
0.0218969
0.0378449
4.28905
0.0215292
5.59931
0.0236495
0.0219864
0.0219259
0.0219517
0.290885
0.0773407
10.5963
0.0763419
6.69222
0.0575093
0.0220378
0.23788
7.97645
2.02786
0.0774626
0.179263
0.0608599
0.0271101
0.275342
0.0226378
5.30265
0.0220357
5.31941
0.0228981
0.0775971
0.0280892
0.0223785
9.18633
0.0226613
0.0218188
2.5639
0.0237488
0.0219079
0.0431157
0.0906354
0.310099
1.46663
5.46477
4.80915
0.0221338
0.0222062
6.26588
0.0219911
0.67677
0.0865705
0.0238306
0.0220605
0.0326255
0.0219907
0.0219513
0.0290024
0.576195
0.261749
0.160658
0.0653222
0.0221331
0.0571369
8.42092
0.0218654
0.0834616
0.0240718
4.76319
0.0232623
5.6388
0.0220299
0.504432
0.0222765
0.0791926
0.0219939
0.0255948
0.0307964
0.0215351
0.0216936
0.0215848
5.88178
30.4739
0.0329443
5.96351
0.0220297
0.0412535
0.0281288
0.348409
5.09934
0.0331544
0.0215434
0.267784
0.0218584
0.0220279
0.0281986
7.79823
10.2904
0.535372
4.30571
0.0799318
0.0231197
0.0219142
4.15401
0.021896
1.7382
0.0278491
0.022185
5.9559
7.83827
0.0220908
8.07369
0.0275153
0.0997237
0.089353
5.18374
7.68282
1.06792
0.0219962
0.0214629
5.1556
0.0219862
0.0219455
0.0285078
0.022
5.6343
0.257156
0.058016
5.75994
0.0484379
0.124258
0.023951
0.0219896
0.0215389
0.0217842
8.82797
8.23679
0.260486
0.0220569
0.0215369
0.0312276
0.0218412
0.0400209
0.0254615
2.11789
5.13666
0.0769976
0.297088
0.301126
0.0219008
0.227214
0.0219141
5.17557
0.549104
6.18147
8.16083
0.0231354
0.0291702
3.6894
5.72918
6.95245
0.0467902
0.154167
5.10884
0.0220485
0.267886
1.4387
0.110619
0.0220425
0.021986
0.0408245
4.65555
2.93305
0.104981
0.0219694
0.0251559
0.0293713
44.7657
0.0222843
0.762633
0.0218951
0.0226927
0.245337
0.0218665
0.0220195
0.0233354
0.0280325
0.0219762
0.0226547
0.021613
5.30173
1.34411
5.52447
0.0216356
0.0510793
0.0220122
0.261147
0.208727
0.0374405
0.0218984
0.0229178
0.628742
0.11872
0.0292026
6.90549
0.108501
0.0219671
0.0220536
4.25498
5.44278
0.0640038
0.0216189
4.19464
0.0221259
0.0362831
0.0216662
0.751913
5.13526
0.0218627
0.0220481
2.23079
0.0219615
6.73283
7.19699
0.0565628
0.0222809
0.0221661
0.0216619
0.0220342
23.9722
8.87767
0.130798
0.0228774
4.59686
0.0219495
0.0219349
8.46863
0.0217525
5.59845
0.0215151
0.0290529
0.02342
0.0219372
0.0218439
0.0221213
4.71137
0.0225525
0.0221942
0.159502
0.0407174
0.0219719
0.0601735
0.0369077
0.022124
0.327279
0.0219786
0.0375478
5.74625
0.0878535
0.0219572
0.302581
0.0860359
0.0885174
0.0274748
0.0615225
9.02656
0.024516
0.0593345
0.0219508
0.0215973
0.0220061
0.0447727
0.0372125
0.0450765
0.0218882
0.0277747
0.0624922
5.82168
0.28029
0.0219308
0.0217838
0.0228547
0.0977813
0.0218167
7.34871
0.0219558
0.0219855
0.0217823
0.38447
5.62247
0.0221549
0.0237047
0.0218853
0.0888493
0.0218124
0.0219658
0.878677
0.0222704
0.021601
0.0221322
0.160367
0.0217993
0.0218673
4.33666
10.0658
0.70713
0.0449727
5.54972
0.0492713
0.0219511
0.021909
16.8219
0.0219692
0.0657632
0.080243
0.0410039
0.0265411
0.0223633
0.0310001
0.0228796
0.0216269
0.255061
5.03714
0.0439518
0.0217895
6.64983
0.0449636
6.42498
3.68749
0.0960557
0.0221419
0.0219655
0.0217909
0.0573956
0.0221281
0.0218437
6.68206
0.163634
0.0437833
0.021912
0.0678792
0.277737
0.0220976
0.0264671
0.0363026
0.169174
0.0692017
0.0220238
0.0234155
0.0382053
0.0218245
0.0488332
0.0222946
9.71956
0.0602982
0.131353
0.0217825
0.0369773
5.80067
4.27116
0.633893
0.0644481
8.81966
0.0221332
0.0219527
0.0227145
0.0905062
0.0221716
0.0232617
0.030637
0.0567244
0.0220024
0.0219535
0.0220205
0.022277
0.663986
2.90013
0.689421
0.0219942
7.74656
0.0300003
0.0221557
0.0330311
0.0219464
0.0874997
0.0230052
0.0219674
4.87773
33.8738
5.40969
0.0223856
20.1803
0.0219703
4.69392
5.03746
0.0215415
0.0590396
0.290064
0.021625
0.0219631
3.59239
0.0223067
0.0220184
0.210981
0.782364
0.0220281
0.0317081
0.0221497
0.0253747
0.117609
0.022167
5.24886
0.0430257
0.0219597
0.702399
0.0609705
0.0767813
0.0222878
0.293885
0.0220659
5.03184
0.0219694
0.0217715
15.9159
0.0217035
5.56556
0.0219648
0.0539753
8.23924
4.91091
0.0220192
0.0223407
0.0220269
0.0232655
0.0274527
0.0271856
0.0214921
8.68224
0.0218884
0.0219826
0.145653
0.192161
0.0449363
0.0220298
4.20257
0.0836648
0.0224325
0.0353445
0.0219247
0.0217608
8.78959
0.0216338
0.0217776
0.0218097
5.91428
0.0218093
0.02184
5.09065
0.0255446
5.10264
0.0334353
0.0214911
0.0218821
3.46462
0.0263115
0.0220073
8.08518
4.81589
0.0217958
4.45276
0.127332
0.0219471
0.0220366
0.267867
0.0222221
4.82742
0.0341257
0.0220347
1.33407
11.1421
0.236733
0.0218794
6.84866
0.0308956
0.424789
1.46534
0.0219203
8.51316
0.0220095
0.0314198
0.0264677
4.59598
0.0216914
0.0224175
4.81942
0.0222729
0.0362028
0.0216979
0.0221264
5.19383
0.0909839
0.0249956
0.0357308
0.8604
0.0223485
0.0233545
0.0539659
0.119951
0.0255795
0.0219603
0.0219267
0.0221488
0.0226258
0.0218505
0.0336755
0.0279629
0.790107
0.0220098
6.54002
0.0219876
0.0287136
0.0219846
0.0372887
0.0221091
0.0219415
4.94248
4.97759
0.024126
0.0220986
15.1238
0.0288814
16.0073
0.0371319
0.0744937
4.77597
9.06798
4.18327
0.0231514
0.0220155
0.0218072
4.30189
0.0218177
0.0220205
0.152035
0.0218485
0.0221866
0.0220663
11.1441
1.01295
0.0221835
4.74937
4.90769
0.0240844
0.0219411
0.0221963
4.24564
0.021692
0.0891466
0.0222894
0.0219877
0.0220858
0.0217621
0.0725681
0.0219938
0.0219048
0.0217797
0.0215989
0.297248
0.0216128
0.0218116
0.0221437
0.0219618
0.274288
4.03452
0.0604683
0.0226665
0.0220226
0.0221949
0.0222243
4.23995
0.0219485
0.0315479
0.0677931
4.46138
0.021957
0.0219227
5.25385
0.0221279
0.0948433
0.0832179
0.0224949
5.11245
4.12637
0.0311261
7.41393
0.0283853
0.114819
0.0214945
4.15237
0.0220522
6.06874
0.0220528
0.0218477
0.934731
1.90772
0.521493
0.167118
0.0219119
7.28473
0.022178
5.93599
0.0529927
0.0219349
0.0214965
0.0219113
0.0506718
0.0600012
5.16019
0.0404933
0.0219066
0.0219202
0.0219322
9.8597
0.179078
0.0329209
0.0221468
0.0219132
0.0305715
1.18246
0.0219384
0.0327121
0.0722412
0.0219502
0.0239717
0.0233013
0.0582982
0.142701
0.0244027
0.0803955
0.0215958
0.0220164
6.82578
0.0408828
0.0849765
0.737687
0.0216139
8.02021
8.54825
0.0523327
5.64509
0.0219441
5.41586
5.99028
0.0951645
0.0218015
10.1038
0.131599
0.021997
0.0382291
6.13682
0.0226542
0.0219771
0.0401453
0.0222713
8.27171
0.0305934
0.0220652
0.0222825
0.0218873
0.073097
0.0332369
7.39286
0.089595
5.02985
0.0758694
0.0222607
0.0219456
0.610919
12.2398
0.0219782
0.0219184
0.150944
0.0221245
0.295002
5.1595
8.86846
0.0219614
0.0219985
6.31451
0.0217626
4.93219
0.65211
0.0217203
5.92428
0.0585239
0.0800926
0.0219748
13.1514
0.022037
4.67778
0.0215113
0.04776
0.0229049
0.0216926
8.897
0.0227821
0.0219857
0.0234591
4.95158
0.0220839
0.0216058
4.58708
0.0219173
0.0216659
0.0221237
0.0254096
0.0220606
0.0221852
0.0284476
0.0221797
0.0267023
0.0215696
0.287041
6.78204
0.138067
4.95528
0.0283254
0.0262778
0.0218921
0.0218362
0.0221496
7.06223
4.49486
0.0219158
0.0222777
0.0219235
19.7686
0.0215993
0.349516
0.42331
4.17888
5.53014
6.77828
4.62753
0.0216462
4.56155
5.09921
5.0753
0.0257523
0.0221685
0.0421813
0.0216284
4.85196
0.111428
0.0597302
0.026956
7.16799
0.0219959
0.0214626
5.12026
0.124861
0.0219938
0.0215322
0.0432252
0.0221226
14.9077
2.51961
5.55087
4.27446
0.0753946
0.913893
0.02183
0.281358
0.0221135
0.0219635
0.0216576
5.40299
0.0221674
0.0218262
1.43618
4.96231
0.17944
0.13109
0.0229424
0.0386054
8.98451
9.93519
5.47351
5.28083
0.125733
5.56495
0.210082
0.454282
0.0514448
0.0408637
0.0218949
0.0372428
0.0327595
0.0220533
5.5859
0.021801
0.0219907
0.0220003
5.78867
0.0254965
0.0218182
0.0218403
0.0219717
0.146623
0.0882352
0.821431
0.0227652
5.88785
0.0215209
0.0219288
0.0794964
0.069906
0.021506
4.11617
0.0405456
4.87374
0.0219893
9.75979
0.0599925
0.0219319
0.0220608
0.0219609
5.0522
5.22774
9.35258
0.0219862
0.0222948
0.0215795
4.86216
0.0281853
0.0220707
0.569515
0.0219446
0.0226279
4.5421
0.0216085
0.0219577
0.0220733
0.0221713
0.021487
0.0224748
0.0215196
0.0222933
0.0743105
0.0387442
0.0218402
7.63857
0.0238778
5.02416
10.0034
0.0490445
5.79747
4.87915
0.0218047
0.0411908
0.0220306
0.0218475
3.02333
0.0258428
6.83877
0.0274327
0.118554
0.0221116
0.0233184
0.0219156
4.23921
0.044493
5.23545
0.0220877
0.11486
0.0291257
0.0218056
0.0368582
0.0404312
0.0215508
8.71994
0.0221024
0.0402488
0.0220097
0.030387
0.051026
0.20684
0.0267685
0.0731662
5.40253
0.0305011
0.0398037
0.0216063
6.07519
0.0596845
0.0222718
0.0718935
3.07525
14.1739
0.0219742
0.022944
0.0221733
0.0215904
0.0219498
4.36642
0.028751
0.0220837
8.82287
0.0221172
0.0215928
0.0257005
4.88026
0.0221988
8.67049
4.34311
0.1054
6.71228
0.0227125
4.84779
0.323084
0.0216022
0.0290127
0.0220406
0.0223539
0.0391442
7.30912
0.0579747
0.656258
0.458089
0.021911
6.91134
0.0219092
4.24686
0.022272
27.4669
4.29316
0.0221621
0.0217607
0.0222789
0.0328884
0.0821256
0.021971
12.9273
0.0230935
0.0419634
0.0774917
0.023196
0.021905
3.17413
0.0217662
0.201328
0.029755
15.4497
0.0221237
0.021901
4.24959
0.0214371
0.0217612
0.0225942
0.059582
0.0500601
0.259509
0.0245437
0.0217657
0.0253126
0.0222859
0.0225878
5.53198
0.0219359
0.0496015
6.18021
0.192588
0.021957
0.086057
0.0218896
0.0222086
0.435769
0.253842
0.0836986
0.0222394
0.0219568
0.0245785
0.0787969
0.0218852
0.0305111
0.0219116
0.0222569
0.0218475
0.0220524
4.19546
0.021559
10.8107
5.51431
0.0254411
0.0216838
5.42566
5.94418
0.0217698
0.021974
13.6331
0.0222872
0.0662719
0.274591
1.04244
0.0219194
0.0228561
0.0491189
0.0219828
6.67386
0.166325
0.0218098
0.0313647
0.03867
0.0220914
0.276774
0.022155
0.048643
0.022918
0.025045
0.0215328
0.0219123
0.306538
0.0219753
6.51126
0.0639013
0.0220132
0.0220022
0.0219842
0.0218827
5.40011
0.0222733
0.19908
0.0219073
0.0218418
0.0552408
4.99333
0.0217727
0.0215575
0.0219452
0.0226049
0.0305611
0.0306612
5.45784
0.0290567
0.0218435
0.15456
5.36385
0.0222698
0.0313778
4.64713
0.0356657
0.0224079
4.31579
0.0214869
6.80747
0.043076
0.0220675
0.0748919
0.0218562
0.0219298
0.0219369
4.17402
0.0220314
2.55717
5.29459
0.502046
0.0298086
0.0219659
5.11727
0.022278
24.2087
0.0217246
0.252301
0.0258059
0.0799254
0.0227288
2.53737
0.0295551
0.0222245
5.11804
5.9095
0.0215612
3.52055
0.021989
0.0311614
0.0217423
30.5061
0.473382
0.0223231
0.0220379
4.22973
0.254974
0.0218584
0.0235103
0.0220302
0.0218103
0.0217145
0.0239777
4.98738
14.5466
0.0224597
0.244869
0.0236909
0.0619538
0.0220013
29.814
5.14719
7.73692
0.0227581
5.98645
6.4206
0.0250584
0.0309611
0.0218873
0.0505069
5.55777
0.0221821
0.0217148
0.0217704
0.0275445
0.0215859
0.0219835
0.589575
0.0231528
0.187907
0.0220444
0.0219713
0.0225297
0.0220444
0.188841
12.9658
0.0217928
0.0429467
0.0215442
5.13857
0.0218099
0.024348
5.45512
1.92361
0.025986
3.16853
0.310088
0.0220674
0.0614522
0.0221465
0.0331518
0.0222336
0.0219264
0.151442
0.105185
4.17083
0.10417
0.0352525
5.385
0.0233137
0.041509
0.0228434
5.53896
4.09198
2.86994
0.021957
0.0215173
6.48929
4.86239
0.0221321
5.36826
0.0221409
0.0274433
0.0214971
0.0218667
0.0218188
0.0218367
0.240243
0.0415201
0.0400364
0.0219768
0.0220202
0.0216465
0.0218292
0.0218178
0.0222615
0.0219328
4.22534
4.61358
4.69307
0.0237263
7.98061
0.0557485
6.78927
8.08097
0.054719
0.0221159
0.0222685
0.220685
0.0224012
4.85001
7.9606
0.0225827
0.0217017
0.0313525
4.65788
0.0219936
7.20144
0.0218641
0.0221019
7.37443
0.0219313
0.0289253
0.0221663
4.54685
0.0215861
0.0219481
0.197013
0.0216219
0.0220568
0.021889
0.0217019
0.070396
0.0219103
18.756
0.022023
0.0222157
0.0214786
7.05144
0.0330864
0.0222342
5.65259
0.0220884
0.0215632
0.24756
5.25366
0.0221401
7.13685
5.45572
0.0265589
4.58523
0.0221152
0.021972
0.0856299
0.0216729
5.32739
4.7763
0.0214918
0.0263257
0.0218924
6.96174
1.79862
0.0426952
0.0221454
0.415389
0.0364486
0.0509853
0.0271468
0.0220222
0.022598
0.02191
0.0218146
6.08359
0.0214552
0.0218159
0.0415037
7.38875
0.0739747
7.44053
0.0220178
0.0408946
0.0219107
0.0220012
0.022089
0.0217646
0.0221543
0.0219196
0.0221024
0.0221725
0.0243545
0.0219882
0.0221707
0.0216447
7.4551
7.68304
0.0222145
0.0228411
4.53085
0.0222104
0.116003
5.05254
2.99326
7.17677
0.870541
7.14337
7.67769
6.88857
0.0217815
0.0306617
0.0218851
0.0488548
0.0248116
0.0222238
0.0217912
8.4882
0.0216318
0.0298073
12.4263
0.0215891
0.0217318
0.0797373
0.0217034
0.0219077
0.0218855
0.0221992
4.67041
6.87354
0.0220367
0.0219497
0.0220572
0.0228527
0.0441137
0.022868
13.3749
0.262671
0.0221944
5.10114
0.0322348
0.0219426
6.86792
0.0215956
0.052268
0.0217775
0.0223556
0.0223833
4.66475
0.0219547
0.0219626
0.0239956
0.022328
0.0309225
0.0218257
3.15987
0.038893
0.0430966
8.63592
6.48043
0.101232
0.0332392
5.07619
0.0220063
0.0220033
0.025406
4.50162
0.0539787
0.0484913
7.30966
0.0219753
2.43476
0.309688
1.24095
0.0219994
0.0361541
0.0218855
0.13423
0.0342673
0.557223
6.65898
0.0220142
0.0353305
0.0278704
0.0219296
0.640394
0.0219714
0.0307439
0.16726
0.0877987
0.0219584
0.0222945
0.0222289
0.0563059
0.0219507
0.0221973
0.0219644
0.022079
0.0216606
0.0376786
0.021545
0.62385
4.24226
0.0225374
0.0217536
0.0215618
0.0442337
0.0348315
0.0221275
5.56617
0.0505617
0.0217719
0.0218191
5.68253
4.20951
0.021938
0.189505
0.0346538
0.0220062
5.44289
0.0227408
0.0741011
0.022234
13.7827
6.16048
0.0222562
0.0351649
4.80838
0.0343957
7.31918
0.0222404
0.0257381
4.3106
7.18243
0.025527
0.0254029
0.0225505
0.0246798
0.0229551
5.99625
4.22496
4.38803
0.0235816
0.0219835
0.0560069
0.0219113
0.179562
0.0250167
7.91574
0.0215811
0.0221893
0.0217649
0.021915
0.0218471
0.0763528
7.97155
0.0309641
0.0216193
0.0221054
9.85115
0.0236791
0.0238434
0.0221564
0.0364437
6.73454
0.0217059
0.0218717
0.040123
0.0827282
0.0221149
0.0407413
0.0222914
0.0238418
0.120951
0.0288468
7.26046
0.710688
0.049804
11.5604
0.0218589
0.0219018
0.0230854
7.03953
0.0233671
1.45752
0.0216591
4.68102
0.0363078
0.0218754
0.0304862
0.0223217
4.74389
0.0554186
0.0307384
0.285272
0.100462
0.0221516
0.0222006
0.0222339
0.0250002
4.5983
0.052647
0.0221048
0.216414
0.0218583
7.0292
0.0219577
6.13849
0.029626
7.29529
0.588748
0.0602997
0.0219679
0.0220052
0.0218702
6.36534
0.0219898
0.0505522
5.21609
0.021536
7.24165
0.0328464
0.0219609
0.0765692
0.021914
0.0218345
4.96502
6.30391
5.88517
0.0219063
0.0217658
0.0227666
0.0245081
0.0230148
0.021948
10.9451
0.0749477
4.65217
0.0225793
0.0437493
1.25848
1.0192
0.0304053
0.0217579
5.23408
0.0228923
4.47712
0.0219015
0.0220273
0.0219789
0.021721
0.0215284
0.0222516
0.0217879
0.0369546
7.64151
0.0347839
4.36855
0.0248229
0.0222096
0.0221262
0.399417
0.0220233
0.0225278
0.0220444
4.50029
4.54384
0.0217842
0.0236392
0.021877
0.0219721
0.022278
0.0220635
0.0219078
0.90593
0.0222577
0.0218027
0.137595
0.0218294
5.57906
0.0775948
0.0855249
0.186971
0.0241613
0.0220787
4.50945
0.0220628
0.0737444
0.029514
0.02179
0.0490664
0.022066
6.76838
0.0216098
0.0218008
5.51088
0.0541022
9.40221
0.0217544
0.085681
0.162375
0.0322186
4.2625
0.0218824
0.0217448
0.0216193
0.0819514
0.0228241
0.656662
0.0220058
0.0409189
6.17672
0.189805
0.0220128
1.07182
0.0255312
6.61991
0.0236835
0.0235179
0.0240864
5.69263
0.0219656
0.0223565
5.44201
0.0215683
0.0262422
0.0218335
0.0472191
4.76202
7.78625
0.021853
0.0937341
0.0220023
0.270176
0.022015
0.0224156
0.0834223
22.1932
0.0397229
0.0219949
0.026302
5.04838
0.0603682
0.0777011
6.13811
0.0220216
11.001
0.0230605
0.173611
0.021795
0.0251634
6.47422
0.0256288
0.0219198
0.539051
6.84705
6.31862
0.0217033
4.08855
0.463217
0.021622
0.163167
8.72769
0.022278
0.0229066
5.38349
0.0214982
0.0224304
0.0218309
0.0220708
0.108444
0.0855314
0.0361166
4.73512
0.0222711
0.0568114
0.0293908
0.0222431
0.0233879
0.0354673
0.0219983
0.0222282
8.86773
4.9489
7.50226
0.021679
0.037644
0.0221372
4.15368
0.0220905
0.0411517
8.24095
5.20397
0.0685859
0.021972
3.24497
4.5443
0.565406
0.0219972
0.0221273
0.0218392
6.55302
0.037489
0.156415
6.75467
0.0220408
0.0222097
4.88138
0.0288517
0.0903298
0.0221746
0.021896
0.0219768
0.899592
0.022036
0.0530522
0.0217067
0.0221129
0.0217958
5.25437
4.78552
0.0236872
0.516021
0.0229697
0.448217
0.0219161
0.0219031
0.0796788
0.0220786
0.0219278
0.0252875
0.112417
0.0291741
0.143914
0.0220454
0.0638962
5.53499
0.0221332
0.0220315
0.0220356
5.30323
0.0454546
0.047563
0.0813538
0.0217742
0.0218548
0.147951
0.026102
6.22526
9.59638
0.0369967
4.61039
2.72269
4.90052
0.0533646
0.0223207
0.0220009
0.262594
5.51149
0.0218782
0.0381847
5.06271
0.0221066
0.209313
0.771764
0.125575
0.0219281
0.0847349
0.0221526
0.0221065
0.0216301
0.983788
0.022121
0.0549044
0.0381571
0.0219841
0.0221838
4.74101
0.021783
0.0215941
0.0454574
0.601669
0.0375127
0.0220205
0.0398035
5.80654
4.23565
0.0284712
6.36764
0.078983
0.132326
0.0587719
0.0221138
0.161596
0.0328877
0.0216536
0.0217221
0.0223571
0.026094
0.286689
4.73324
0.0222181
3.52134
0.0797334
1.52074
11.929
0.283567
4.1747
0.127375
4.28947
0.0493642
4.68923
0.0557774
0.0219758
0.02212
7.28864
4.37035
0.105568
5.7201
0.0218237
6.62486
4.49223
0.022036
0.0216472
0.0381554
0.0609035
4.92998
8.83264
0.103786
0.0218731
0.0218294
0.0222196
9.30639
0.0253257
4.47407
0.0246548
24.4292
0.20436
4.7586
0.028041
4.40229
0.0218071
0.0215559
0.0263683
0.0221647
6.13503
0.142241
4.12268
0.0220617
5.40449
5.51695
0.0215475
0.0435744
4.85204
0.0436716
0.0218693
0.0265774
0.0219748
4.60972
0.0214616
0.0223893
6.3218
0.0295249
0.0513333
0.0276638
0.0218149
0.0222082
0.0412815
0.0220743
0.0216515
0.0218356
0.0304256
5.16949
2.60549
0.0219718
0.137031
5.36073
0.0221177
6.98055
5.49952
0.0222364
9.92987
0.0220751
0.0892279
5.04241
0.0219641
0.0221666
0.0222125
0.081655
0.0263217
0.0218602
5.25017
0.0219847
7.64643
0.0220427
6.3717
4.85714
0.0251623
0.0217413
0.151633
0.080149
0.1583
4.84948
0.0443397
0.0221974
4.38764
0.0224722
0.0753703
0.0670426
0.0301899
0.064105
0.0218928
0.155855
5.74374
5.21008
0.111247
0.0218899
0.180026
4.22661
0.0222722
0.179137
0.0978264
0.728798
0.0219887
0.0251776
0.0215057
0.19383
7.32106
0.0832336
7.25834
0.0927191
0.0384682
4.71888
4.71751
5.05516
0.581659
8.77817
0.0675007
12.7927
0.0494473
5.93273
6.63382
0.0232951
0.0223825
0.0272927
0.0590397
0.021998
0.0261498
0.022262
0.0243858
0.0220027
0.0218812
7.82166
5.65279
0.0222038
0.051566
0.0221065
0.021797
0.0237755
0.0797332
0.0236537
0.0888676
0.0222075
0.0435481
1.36252
0.108
0.0455834
0.0219754
0.102414
0.0222202
0.0219248
0.875677
0.0229172
4.91513
0.15752
0.0219334
0.0243959
4.76234
0.0220759
0.109369
0.0593886
0.0588221
0.0272558
0.036316
0.0220088
0.0221677
4.78095
8.32408
0.035952
0.0768772
0.0220496
4.79469
0.025689
6.96424
0.0784735
0.0221114
0.0216809
6.79045
0.162562
5.47473
0.0287029
7.26887
0.0226528
5.00572
9.68809
0.0308737
0.161976
0.0218559
7.25645
0.022243
11.2061
0.0286176
4.55612
5.16344
4.62809
4.80289
0.0364051
8.38576
0.166312
0.0481831
4.7624
4.34324
4.50891
0.0217149
0.0261117
0.0760174
7.81582
0.0218919
0.0217992
0.0297881
0.0620388
11.5133
0.0604094
0.0441068
0.0219309
0.135827
0.0215521
0.193796
5.53108
0.475015
0.0217796
7.07079
0.0711772
0.022601
4.88821
2.5313
0.0269265
4.57534
4.45976
4.49772
0.0559696
0.0218426
0.0285153
6.72544
0.0371713
0.0219769
7.50316
0.0215012
7.65457
0.0232589
0.0221723
4.54573
4.60048
0.0218519
0.0515016
0.02195
7.45549
0.0215111
4.38377
0.175823
0.0420913
0.0218987
0.022003
0.0221616
0.0379637
0.0510783
0.124788
0.029185
5.59164
0.0342826
0.0257226
6.2586
4.78442
0.021647
0.175215
0.0219622
5.09208
0.0222097
0.0440062
6.22444
0.0275417
0.021929
4.69409
0.022325
0.0222551
0.0461893
0.022278
0.0218779
6.57487
0.0611727
6.36059
0.0222783
0.125688
0.079313
0.0216454
0.0219296
0.0237755
0.0218564
4.86195
3.16489
4.78288
4.67938
4.39842
5.00402
0.0219178
0.022033
0.0219434
0.0221599
0.103318
7.01659
0.0299737
0.0245449
4.13095
0.0223154
0.0217802
1.55165
0.121062
0.021477
0.0219682
0.0219022
0.192155
0.0217584
0.0220394
0.15577
0.0345452
0.104198
0.023915
4.95383
5.94997
0.0214691
0.0217219
4.87913
0.0346829
0.0251692
5.17247
0.0358093
0.13345
0.455191
0.0235922
0.400971
4.77475
0.0215468
0.0249979
5.00831
0.0254386
0.0220117
1.04125
0.0550542
0.053898
0.0222152
0.352446
0.0239592
4.44706
0.0220578
0.0219757
0.0331612
0.0643529
7.01826
0.0357096
0.0219655
24.4568
4.68551
0.0239704
0.0767393
0.0220309
0.0219078
0.0217528
4.99125
0.0218655
6.77269
0.325805
4.82147
5.32864
0.0349886
5.28961
0.0319281
7.08044
0.346856
0.11423
0.590185
0.0753218
0.103642
5.07474
0.0510009
0.022005
0.0220602
17.0873
0.0401202
0.0229718
0.022183
6.06655
9.74519
0.0220943
4.70475
8.46517
0.0614474
0.420825
0.0405964
0.040482
0.0414416
0.0984793
4.79607
0.0275977
0.193677
0.251619
0.0217627
0.109712
0.028038
5.05737
0.064095
0.0219584
0.24707
0.0673179
0.0754802
0.665792
0.0226095
4.70076
0.235078
10.9665
7.00579
0.0221841
0.0220133
0.0218989
5.98696
4.70112
0.0789342
0.145379
0.0218631
0.0217352
0.0226235
0.0758026
4.15979
0.0524453
7.32307
0.0756428
0.347864
0.652215
0.0217652
0.0534969
8.22754
7.5666
6.35416
5.80832
4.27235
0.0222627
4.40933
5.37945
4.68253
5.31753
0.0219422
5.31658
0.0226496
4.63949
0.0274729
12.9727
12.1726
3.34365
0.0221582
0.0219952
0.0728388
0.0238312
0.112976
0.0222725
0.0476153
0.0491362
0.021801
0.0220007
0.0345593
0.0219281
7.11836
0.0218866
0.0231489
5.5025
0.062703
5.12778
0.109638
8.46956
0.0219386
0.0219763
0.0222693
4.61524
8.07583
0.0220249
0.0490111
7.57247
9.80693
0.0218919
4.60131
4.43842
0.0218146
4.71031
0.0219082
0.0402871
0.0220116
0.0596301
0.0220712
0.151299
5.50936
0.0218573
0.0221576
7.71184
0.0353737
0.0216979
0.0221309
9.80812
0.0218744
0.0222098
4.27197
9.86516
5.07312
0.0825638
0.0219414
4.40037
5.64191
0.607697
0.022167
0.0853079
0.0615144
0.0219564
0.241145
0.0218237
0.0217926
0.0218344
0.0545477
7.67302
4.7847
0.0436194
0.153493
0.0218758
5.20951
0.0218289
0.0280823
0.0470414
0.0233955
0.051482
0.0362444
0.0218869
0.116826
7.72094
0.0542163
18.7364
8.20349
0.0629014
0.0220317
0.0252111
0.248805
0.0297209
0.0221938
0.100426
6.71051
0.0217093
7.69267
0.0288884
0.0219761
0.59213
6.52987
4.63516
0.0219732
0.027106
0.0252336
0.0577694
0.0494159
0.021874
0.0219773
0.101876
0.782022
5.31213
0.0277007
0.0222794
0.0217439
0.15527
0.0220258
5.08164
0.022273
0.0421821
7.10379
0.22873
6.9055
0.0220506
7.53532
4.49305
7.25386
0.0220027
0.0222543
0.0518015
2.20236
0.0218093
7.4349
0.0218773
0.0215011
6.60962
0.022184
0.0537278
0.0280865
0.0229759
0.031551
0.029518
0.0687499
0.048485
0.0387841
18.6063
0.191974
5.05021
0.0488685
0.0349195
0.055667
5.63637
0.162919
0.0280327
0.0220802
5.47665
0.0228315
0.735544
0.208775
0.470466
0.0216927
7.5929
0.0220554
2.24735
0.0225714
0.991234
4.74428
0.0502021
12.0322
4.1942
6.81541
4.55036
7.00557
0.0660544
0.0219415
0.0218048
0.830528
0.0218114
0.0219323
0.0220058
0.0414706
0.0234023
0.0346213
9.17225
5.32034
0.119312
0.0277829
0.0276065