/*--------------------------------*- C++ -*----------------------------------*\
| =========                 |                                                 |
| \\      /  F ield         | OpenFOAM: The Open Source CFD Toolbox           |
|  \\    /   O peration     | Version:  v2012                                 |
|   \\  /    A nd           | Website:  www.openfoam.com                      |
|    \\/     M anipulation  |                                                 |
\*---------------------------------------------------------------------------*/
FoamFile
{
    version     2.0;
    format      ascii;
    class       surfaceScalarField;
    location    "350";
    object      ddtCorrDdt0(phi);
}
// * * * * * * * * * * * * * * * * * * * * * * * * * * * * * * * * * * * * * //

dimensions      [0 3 -2 0 0 0 0];
oriented        oriented;


internalField   nonuniform List<scalar> 
27284
(
-0.0142746
-0.00596883
0.0202434
2.73726e-05
-3.1062e-05
3.68958e-06
0.00393746
-0.0156396
0.0117021
3.82115e-05
-6.62003e-06
-3.15953e-05
-0.00754924
0.00587465
0.00167458
-0.0411398
0.0100321
0.0311076
0.000559424
6.20085e-05
-0.000621428
-0.00196277
-0.00558648
1.98982e-05
8.08735e-06
-2.79874e-05
-0.0279418
0.031187
-0.00324515
0.000476253
0.00106373
-0.00153995
0.000276389
0.00350306
-0.00377944
-0.00387115
0.00414754
0.0297518
-0.0130892
-0.0166626
-1.05689e-05
-1.839e-05
2.89571e-05
-3.62068e-07
4.88307e-06
-4.52244e-06
6.13388e-06
3.20867e-05
0.0014997
-0.00137962
-0.000120073
-0.0116319
-0.00379688
0.0154288
0.0014979
-0.00107368
-0.000424225
0.0168011
-0.0180727
0.00127162
-0.000194114
8.12447e-05
0.000112875
-1.43513e-05
1.37339e-05
6.17462e-07
-0.0146457
-0.0264941
-1.50457e-06
-1.28484e-05
0.000761439
-1.37799e-05
-0.000747664
-0.000807985
0.000515391
0.000292599
3.64973e-05
-3.97207e-05
3.22787e-06
-4.91952e-06
2.48171e-05
0.00101384
0.00120219
-0.00221602
-0.00750148
0.0215901
-0.0140886
0.00249455
-0.00553278
0.00303821
-2.42694e-05
-4.65874e-05
7.08564e-05
-1.94856e-05
8.74717e-06
1.07382e-05
1.48424e-05
-1.55479e-05
7.05157e-07
0.000706461
-0.000368197
-0.000338256
-0.00018085
-0.000557092
0.00073793
0.000191887
0.000514576
-0.00165173
0.00266557
2.81181e-05
0.00014147
-0.000169585
-1.83754e-05
1.63204e-05
2.0719e-06
0.00167844
2.09588e-06
-2.39638e-05
2.18671e-05
-3.0439e-05
2.87105e-05
1.72662e-06
-3.06711e-06
-0.00170111
-0.00358361
0.00528467
3.81713e-05
-4.13353e-05
3.16137e-06
4.19006e-05
-3.73373e-06
-0.0237833
0.000125115
0.000132543
-0.000257665
4.95415e-06
-8.76227e-06
3.80762e-06
0.0277431
-0.00643688
-0.0213063
0.000280116
-0.000155005
0.0134553
-0.0100687
-0.00338664
-3.42517e-05
-2.99585e-05
6.42067e-05
0.00113667
0.000361234
8.64918e-07
-4.95875e-06
4.09338e-06
0.00400367
0.000172967
0.000588464
-0.00568018
0.00612348
-0.000443286
-1.73894e-05
-0.00522704
0.00323219
0.0019948
0.0065131
0.00694224
-0.000698584
0.000211339
0.000487245
0.00303705
0.00393231
-0.00696933
-5.20059e-06
3.69809e-06
1.50361e-06
0.00084129
-0.000610612
-0.000230673
0.000450718
-0.000631562
6.79808e-06
1.23376e-05
-1.91374e-05
0.049983
-0.0392786
-0.0107044
-8.21215e-05
4.66977e-05
3.54149e-05
1.7463e-05
-5.17196e-05
-0.0019269
0.00583768
-0.00391077
-0.00186145
0.0014889
0.000372547
-0.00164933
0.0112174
-0.00956807
-2.65265e-06
1.28114e-05
-1.01583e-05
-0.00352655
0.00753021
-1.11006e-05
8.4476e-06
-9.68034e-06
-7.24366e-05
0.00769284
-0.00934217
0.000603203
0.000238082
-0.0229097
0.0207834
0.00212633
1.96094e-05
0.000182605
-0.000906772
0.000724184
0.00102086
-0.00471914
0.0036983
9.86255e-06
-1.04866e-05
6.26894e-07
8.82231e-06
-4.35808e-05
3.4765e-05
0.00239969
0.000141002
-0.00254067
2.40122e-05
3.53549e-05
-5.93728e-05
0.00203986
0.000359848
0.0334363
-0.0136315
0.0192359
-0.00619233
-0.0130436
-0.00655385
-0.0163558
-0.000183008
0.000315552
-0.0296957
-0.00219932
0.031895
0.000820741
0.000986725
-0.00180747
6.19017e-05
-5.039e-05
-1.1514e-05
-0.000466656
0.0012874
-0.00109375
-0.00331979
0.00441352
2.72628e-05
-0.000141129
0.000113885
0.00348033
-0.00245947
-4.20037e-05
3.23155e-05
4.60231e-05
-0.000229042
2.62809e-05
-1.73837e-05
-8.89836e-06
-0.00076351
0.00064646
0.000117039
7.64641e-06
-8.00935e-06
0.00730845
-0.00427142
0.0205909
-0.0502866
0.0012183
0.000419187
-0.00163747
5.26629e-06
-2.78042e-05
2.25397e-05
-5.59385e-06
6.45853e-06
-2.19318e-07
-2.7875e-07
4.98798e-07
-0.0020581
0.00318059
-0.0011225
0.000889628
-0.000707035
-0.00372704
-0.00393747
0.00766449
0.00212214
-0.000837905
-0.00128425
-1.39202e-05
-2.80868e-05
-0.00522698
0.0129198
-0.000458573
0.000478789
-2.02275e-05
-8.85193e-05
-0.000522089
0.0171879
0.0327951
0.0118372
-0.00789974
0.0172265
0.00160039
0.00331821
-0.00491858
0.0117696
-0.0169966
0.00139936
0.00511283
-0.00651219
-0.00024856
4.08132e-05
-3.4677e-05
0.000216741
-0.0144913
-5.34832e-05
-5.02672e-05
0.000103739
4.58615e-05
1.6033e-05
-0.00418528
0.0319284
3.5986e-05
1.09511e-05
-4.69339e-05
0.00624613
-0.00160338
-0.00464272
0.00927253
-0.00576687
-0.00350566
-7.60062e-06
-3.67084e-05
4.43089e-05
-0.0160434
0.00441144
0.0374557
0.00482392
-0.0422796
3.76746e-05
-4.84042e-05
1.07372e-05
0.00104249
0.0181934
0.000646966
0.000229438
-0.000876412
0.00239051
-0.00900993
0.00661942
-2.1757e-05
-1.99771e-05
4.17393e-05
-0.0196031
-0.00355113
0.0039342
0.00533831
3.63555e-06
-1.90585e-05
1.54084e-05
-0.00148061
0.00558875
-0.00410814
-6.76317e-05
2.09807e-05
4.66503e-05
0.000432177
-0.00249028
-0.00564564
-0.0042002
0.00984584
-3.42672e-06
3.99216e-05
-0.000469769
0.000381259
-0.000390885
0.000875518
-0.000484635
-0.00467082
0.00425596
0.000414853
-2.77696e-05
3.80623e-06
-4.17213e-06
5.01996e-06
-8.50297e-07
2.50259e-05
1.57772e-05
7.32444e-06
2.53963e-06
-3.175e-05
9.99627e-06
-6.69207e-06
2.52094e-06
0.000834584
-0.00164202
0.00080745
4.46978e-05
-8.71305e-06
-1.26456e-05
1.79128e-05
-0.00343867
0.00748302
-0.00404434
0.00176765
-0.00199983
0.000232175
0.0150693
-0.024354
0.00928466
-0.00578423
0.00430361
-0.0203136
0.0116896
0.00862397
-0.0999948
-0.0147534
0.114748
1.56267e-05
0.000631328
1.30779e-06
-1.44618e-06
1.37387e-07
0.00444038
0.00180575
1.06878e-06
-1.0587e-06
-1.07749e-08
-0.00949014
-0.0142932
-3.12807e-06
2.93518e-06
1.93171e-07
-1.59602e-05
1.95847e-05
-7.85307e-07
5.66173e-07
1.78142e-05
1.65921e-05
-3.44047e-05
0.000315724
-0.000256921
-5.87878e-05
0.00132256
-0.0014587
0.000136132
-1.65952e-05
1.68858e-05
-2.86657e-07
0.0220466
-0.00697725
-8.30077e-05
0.000165599
-8.26001e-05
4.75012e-05
-3.86296e-05
-8.86944e-06
-0.00689544
-0.00709247
0.0139879
-0.000116959
0.000162976
-7.94187e-06
6.79215e-06
1.14718e-06
-0.00334092
-3.61534e-05
0.00337708
-1.27655e-05
-1.35342e-05
2.63182e-05
-0.000378481
0.000893874
0.00609826
-0.0046989
0.00431802
-0.00541176
-1.7621e-05
2.31622e-05
-5.54262e-06
-1.39694e-05
-3.37237e-05
4.76936e-05
1.46913e-05
-8.50799e-06
-6.17187e-06
0.00913179
-0.000465656
-0.00866614
-5.42728e-06
1.03807e-05
-0.0113033
-0.00681559
0.0181189
-5.44133e-06
-2.56232e-05
0.0244748
0.00527694
1.81612e-05
-0.00013512
-0.000247682
-0.000703918
0.000951583
0.000188662
-0.00184039
1.32004e-05
-1.81456e-05
4.94845e-06
-0.00647346
-0.0138401
6.96052e-05
1.71757e-05
-8.67873e-05
-0.0141343
-0.0858605
2.07874e-05
2.67196e-05
1.18258e-05
-6.29704e-06
-5.52661e-06
-0.000311349
0.00060932
-0.000297972
2.15147e-05
-4.09338e-05
1.9428e-05
-0.0208188
0.0102438
0.010575
0.000746988
-0.00145388
0.000706896
0.000963348
-0.000216358
-3.64838e-05
-3.11474e-05
-0.0185069
0.00901678
0.00208936
-0.0007668
-0.000231984
0.000210104
2.18825e-05
2.47651e-05
7.54215e-05
-0.0001002
-4.53878e-06
3.70501e-05
-3.25217e-05
-0.000608953
0.00182722
1.80979e-05
1.06957e-05
-2.87932e-05
-0.00317881
0.00300713
0.000171685
0.000131482
0.0027997
-0.00293119
0.00636129
-0.00863209
0.0022708
0.000181013
0.00181586
-0.00199688
2.05132e-05
2.08593e-05
-4.13717e-05
0.0069491
0.0305066
-0.0156364
0.00881209
0.00682432
-0.00173061
0.00412463
-0.002394
-0.000563255
0.000578173
-1.49226e-05
-0.000160304
0.0180984
0.0181689
-0.0362673
3.86109e-05
-0.00734342
0.00390474
0.00545802
0.00090327
-0.000112206
-5.94002e-05
0.000171594
0.00439715
-0.000166283
-0.000266903
0.000433191
0.000619331
0.000344015
-2.87592e-05
1.6823e-06
2.70741e-05
0.000246076
6.96576e-05
0.000985906
-0.000366577
0.00337814
-0.00222527
-0.00115286
9.43769e-05
-3.11578e-05
-2.70518e-05
5.82013e-05
-4.34648e-05
2.95893e-06
4.0503e-05
-0.00536707
-0.0154517
-0.0273099
0.0207403
0.00656959
-4.17139e-05
0.0001944
-0.000152691
8.92689e-05
-0.000787854
-0.0170661
-0.00468042
-0.00259783
0.00727822
0.00249017
-0.00235869
2.95182e-05
-1.17038e-05
0.00428568
0.00262913
-0.00691481
-0.000511653
0.000345376
-3.85307e-05
-8.42665e-06
4.69274e-05
0.00148576
-0.00130474
3.05654e-05
9.97501e-06
-4.05461e-05
0.00663655
-0.0122822
-0.00671889
0.0085574
-0.00183852
-0.00756321
0.0025993
0.00496392
0.000655422
-0.000979179
0.00032372
0.002538
-0.00234933
-0.00980246
0.00369318
0.00610927
0.000311541
0.00488619
-0.00519773
-0.00133852
0.00561198
-0.00427345
-6.07945e-06
3.66468e-05
-6.11222e-05
0.00110573
-0.000384698
-0.000721035
2.2568e-05
1.0103e-05
-3.26689e-05
0.00070858
-0.000956268
-0.000330766
9.87762e-05
3.55926e-05
-4.6684e-05
1.10945e-05
4.61195e-05
-5.07862e-05
4.68555e-06
-0.00475013
0.00120811
0.00354201
3.5686e-05
-4.32895e-05
0.00221296
-0.0080894
0.00587644
0.0923178
-0.0253041
-0.00490796
0.0020795
0.00282846
-3.18919e-05
5.34069e-05
0.00221192
-0.000780198
-0.00143174
3.16086e-05
-9.04428e-06
0.00145743
-0.00428782
0.00283041
-8.65148e-05
7.38549e-05
1.26809e-05
-0.00187657
0.00253231
-0.000655744
-9.09702e-06
-9.26833e-06
0.000212792
0.0113984
0.00465147
1.31014e-05
-3.73681e-05
-0.00124591
0.00231595
-0.00107005
-0.000396168
-1.61201e-05
0.000412294
0.00161331
0.00152109
-0.0031344
0.00506736
-0.00475582
-2.70602e-05
1.64899e-05
3.27954e-05
-4.67647e-05
-0.005042
0.00725496
5.5012e-05
-8.89439e-06
0.00727669
-0.000265362
0.000619313
-0.000353954
-0.00816554
-0.00259554
-0.000209664
0.00280519
-0.00324519
0.000790185
-0.00126765
0.000477449
-0.000856832
-0.0038933
-2.05708e-05
-0.000173336
0.000193898
-0.000420842
-6.89712e-05
0.000489809
0.000840084
-0.000184672
-0.00185829
0.000612367
-0.0040378
-0.0126214
0.0166592
0.0206501
-0.00455114
-0.016099
1.29509e-05
-3.45865e-05
2.16426e-05
-0.00167785
-0.00142837
0.00310622
-0.0111824
0.00403263
0.00714978
0.00101542
0.0011965
-2.84047e-05
4.13567e-05
9.13953e-06
3.27495e-05
-4.71989e-05
-3.16307e-06
5.03646e-05
-0.00068315
0.00181129
-0.00112816
0.0132982
0.0073519
0.0213958
-0.0406944
0.0192987
0.0126356
-0.0166734
-0.00369986
0.00070099
-0.000119213
-0.00058179
0.0193581
-0.00787968
-0.0114784
-6.00039e-05
5.07517e-05
9.25204e-06
9.86565e-05
-8.14684e-05
0.000930425
8.88179e-05
-5.25456e-05
-3.62743e-05
0.00164754
1.22633e-05
2.57924e-06
0.00652264
0.0233241
-0.0298467
-8.70521e-06
-6.20165e-06
1.49032e-05
0.0328495
-0.0210799
-7.38985e-06
-1.67676e-05
2.4146e-05
0.000140683
-0.000112564
0.000774292
0.000827862
-0.00160216
-0.00143501
0.00585163
-0.00441659
0.0125895
-0.0218502
0.00926074
-0.00313184
0.00090657
-0.00022039
0.012856
0.000168147
-0.000129198
-3.8945e-05
5.59104e-05
-3.18981e-05
5.32109e-05
3.5604e-05
0.000997475
-0.00211213
0.00111466
0.00297883
-0.0309207
-2.71918e-05
6.33615e-05
-3.61699e-05
3.60352e-05
-6.64673e-07
-3.53574e-05
0.00171476
-0.018596
0.0168812
6.27848e-05
4.5399e-05
-0.000108193
-3.35021e-05
-2.13831e-05
5.48863e-05
-0.00457163
-0.00194956
0.00652119
0.0014324
-0.000434927
-3.35226e-05
-3.81351e-06
3.73412e-05
0.000586471
-0.000204083
-0.00038239
0.00164194
0.000890376
-3.69877e-06
4.19557e-05
-3.82718e-05
0.00228875
-0.000646814
-5.59564e-05
-8.83054e-06
6.47874e-05
2.92635e-05
6.77676e-06
-9.61729e-05
0.000123448
-0.00534456
-0.000335641
0.0179678
-0.0107111
-0.00725666
-3.24256e-05
-2.35307e-05
-1.87476e-05
4.19942e-05
-2.32432e-05
0.0033252
-0.00434268
0.00101748
-1.47254e-05
-3.24674e-05
3.6833e-06
-1.40922e-06
-2.27525e-06
0.0320602
-0.0169442
-0.015116
0.0136797
0.00428804
-0.0054279
0.00457106
-8.06391e-05
3.15866e-05
4.906e-05
2.59259e-05
-0.000138139
0.000300963
-0.00417212
0.00104903
-0.00104507
-3.96255e-06
-0.00356732
0.00785301
-0.000604237
0.000183386
-8.49002e-06
1.99904e-05
-1.14943e-05
0.00389744
-0.000572241
-0.00223077
0.00666832
-0.00443755
-3.98659e-05
0.000105209
-6.53374e-05
2.93604e-05
-2.44403e-05
-4.91336e-06
0.000383445
0.00111627
1.81814e-05
-1.41379e-06
-1.67663e-05
-0.000504421
0.00177011
-0.0012657
1.16219e-05
3.06798e-06
0.0102476
-0.00438223
-0.00586535
0.000595022
0.000133869
-0.000417005
0.000283136
-3.49786e-06
-1.70269e-06
-3.66822e-05
0.000755133
-4.65516e-05
0.00118919
-0.0006675
-0.000521686
-0.00313682
0.00312026
1.65536e-05
0.00478029
-0.0134273
0.00864701
-0.0323395
0.0216284
-0.000516867
-0.00138739
0.00190425
0.00482893
-0.00950935
-0.000290267
0.00320925
-0.00291898
-1.99228e-05
1.2521e-05
-1.09077e-05
-6.88417e-06
-0.00261808
0.00167076
0.000947308
1.21741e-05
-2.49301e-05
-0.000425224
-0.00500268
0.000367348
-0.000305339
0.00211371
-0.00229689
0.000183174
0.00889167
0.0104664
0.00819783
-0.0151301
0.00693225
0.0209206
-0.00833113
0.0014298
-0.00652776
0.00509793
1.1426e-05
1.4855e-05
-0.0515914
0.0207028
0.0308885
-7.95316e-05
-6.15866e-05
3.25697e-05
3.02316e-06
0.0172036
-0.000402489
6.23337e-06
-2.30077e-05
0.00360622
0.000291221
0.000279506
-0.000352985
7.3478e-05
0.00412844
0.00318002
-1.48739e-05
2.11e-05
0.00479508
-0.000354677
0.0497005
-0.0447832
-0.00491734
-0.00579104
0.00233195
0.0034591
2.65851e-05
2.8304e-05
-5.48898e-05
3.29463e-05
-2.17334e-05
-1.12137e-05
-0.00319175
-6.60113e-05
-0.00039256
-2.76606e-05
-0.000151501
0.000179158
0.00847465
0.0227123
0.00250488
-0.00922377
4.23363e-05
-9.75984e-06
-0.00030213
-0.00348258
0.000345761
6.0977e-06
2.68471e-05
-0.000187755
0.000251413
-6.36615e-05
-0.00206352
-0.00106832
-0.0153516
-0.00103115
0.0163828
0.00222034
-0.00239657
0.000176242
-7.6459e-05
0.000139244
0.000235929
-0.000256508
-0.000885471
0.00170806
-0.00082256
1.84627e-05
-1.14853e-05
-6.97696e-06
-2.93892e-06
-3.88947e-05
4.18348e-05
0.000210076
0.000376393
-0.000434262
-0.0059126
0.0106929
-6.25578e-06
-2.23649e-06
-2.78635e-07
4.14328e-06
-3.86293e-06
-1.63617e-05
4.13902e-05
-2.50385e-05
0.00422913
-0.00566416
0.00323256
-0.00546333
-4.23159e-05
-1.72951e-05
5.96106e-05
0.00319528
0.000410935
-0.00172136
7.28327e-05
-3.50439e-05
-3.77676e-05
0.00736628
0.0017655
-0.00214203
-0.00308501
7.34365e-05
-0.000156437
1.3296e-05
4.88618e-06
-0.000234842
0.0024552
0.0034272
-0.00649622
0.00306901
0.0235967
-0.00815923
-0.0154374
-1.90322e-06
-1.48372e-05
1.67398e-05
-0.0200507
0.0145845
0.00546622
-8.85674e-06
4.65232e-05
-8.15878e-06
-0.00246288
0.00448899
-0.00202611
-0.000413392
0.000564253
-0.000150849
0.00434181
0.00590576
0.00223244
-0.00415934
-0.000335905
-0.000250849
-0.0016106
-0.000146662
-4.74509e-05
0.00340819
-0.00797982
0.000412528
6.62627e-05
-0.00136469
0.000711249
0.000653455
0.000107175
-0.000127091
1.99184e-05
-1.02199e-05
-1.99721e-05
3.01915e-05
6.36905e-05
4.78022e-05
-0.000111501
-2.50562e-05
0.0044106
-0.00325654
-0.00115406
-0.00626799
-0.00715931
0.00778529
-0.00365686
5.59087e-05
-0.00143553
3.27534e-05
-6.15056e-05
2.87522e-05
0.000152568
-0.00100347
0.000692118
-0.000183258
0.00097344
0.00019158
-0.000623819
0.000432237
-0.00013133
2.94835e-05
0.000101847
1.63671e-05
-2.19058e-05
5.54532e-06
-0.00230132
-0.0019865
-2.26624e-05
0.000806267
-0.000614687
0.0197696
-0.0175525
-0.00221716
0.00747584
-0.0187792
-0.00466931
5.24797e-05
-0.000105971
8.81976e-06
-9.09637e-06
0.000225233
0.000154688
-0.00678198
0.0134185
0.000737235
0.0153095
-0.0160468
0.000220646
-0.0018985
-0.000995465
0.00107199
-7.65232e-05
-0.00192264
0.000268022
0.00165463
0.000245638
-0.000273856
2.82214e-05
-8.53345e-05
-0.000452683
0.000537986
0.00830907
-0.00465191
-0.00365717
0.00292623
-0.00159927
-0.00132697
7.49579e-05
-0.000358495
0.00028354
-0.013
-0.00575167
0.0187517
-3.28008e-05
4.16209e-05
-0.0101606
-0.0129395
-0.0386519
-0.000449618
0.000524755
-7.51059e-05
8.27604e-05
-0.000270517
0.00464014
0.00366892
-1.09582e-05
-3.57241e-05
0.00364464
0.00115046
-0.00216298
0.00465752
0.0149988
-0.0184478
0.00344892
0.000499907
-8.73716e-05
-6.88779e-05
0.000132571
7.92296e-05
-5.24758e-05
-2.6741e-05
0.00313907
0.0209897
-0.0241287
-0.00122617
0.0201979
-0.00519907
0.0402047
-0.0211375
-0.0190672
-0.00125613
0.000552201
5.01702e-05
2.90653e-05
-0.00018588
-0.000720887
3.32639e-05
-6.03271e-05
-0.000325552
0.00131983
-0.000994271
-0.0170302
-0.0140896
-0.00441735
-0.0160803
0.00981231
-0.0122474
0.0229365
-0.0106892
0.00553776
-0.00198847
-0.00354929
-0.00383661
-0.00169617
-0.00288365
0.00331582
-4.39441e-05
2.61608e-06
-4.59669e-05
5.07867e-05
-4.82807e-06
0.00180285
0.00373491
-0.00147586
-0.000123889
0.00159974
4.27913e-06
-9.07896e-05
-2.52589e-05
5.85101e-05
0.0150533
0.0177962
4.12389e-05
1.67272e-05
-5.79752e-05
0.0168446
-0.029092
0.000625008
0.0021374
-0.00276241
-0.00413079
0.0042374
-0.000106674
0.00399504
-0.00369408
-4.54796e-05
-4.97269e-07
0.00103299
-0.000143361
0.0206557
-0.0204389
2.77201e-05
-1.13495e-05
0.01509
-0.0164377
0.00134771
1.1888e-05
1.74759e-05
0.0169856
-0.0106027
-0.00638293
0.00201599
0.000910235
1.90538e-05
-2.74132e-06
0.00151415
-0.0043978
-0.00465831
0.00539181
-0.00396201
-2.52086e-06
1.57243e-05
-1.76785e-05
3.99117e-05
-2.22327e-05
-0.00068529
-0.000730409
0.0014157
-6.58727e-05
-0.000383748
-0.000168553
-0.00396223
1.29965e-06
8.89297e-06
-1.01988e-05
0.00350321
-0.000271038
-1.23805e-05
5.36135e-05
-0.0138468
0.014584
-1.39982e-05
3.09053e-06
-3.50583e-05
5.6997e-05
-2.1945e-05
0.012148
-0.00701298
-0.00513503
0.00338436
-0.0013782
-0.00200617
0.00467513
0.000782886
-8.6171e-07
-2.26674e-06
0.00130656
-0.000755519
-0.000551042
0.00123603
-0.00200912
0.000773094
-0.030178
0.0367006
-0.00292117
0.0243169
0.000569775
2.9086e-05
-0.000598868
-0.000326173
0.00312588
5.60782e-06
1.18212e-06
-6.78977e-06
0.00134194
-9.41493e-05
7.97687e-05
1.43743e-05
-9.46843e-05
0.000664463
-0.0049804
-0.00739417
0.0123745
-2.139e-05
1.35924e-06
2.00274e-05
-0.0190774
-0.0132622
3.75534e-05
-3.22969e-05
-5.26504e-06
-1.2725e-06
2.58042e-06
0.000597483
0.000153711
-0.000751231
-0.0137687
0.00698673
0.00129201
-0.000242973
-0.0048799
-0.00411945
0.00899934
0.000650964
-0.00123504
0.000584075
-0.000391412
-0.000826459
0.0012179
0.0549597
-0.00502861
-0.0499311
-3.90237e-05
-4.72753e-05
0.00103469
0.0204279
-0.0214626
-0.00130106
9.58844e-05
0.0196737
-0.00459567
0.00220504
0.00239067
-8.09066e-05
9.50172e-05
-1.41208e-05
-3.32251e-05
-2.69294e-05
6.01436e-05
-7.05815e-05
0.000117275
0.00013098
0.00135793
3.67072e-05
-0.00013756
0.000100834
7.66519e-06
0.000271841
-0.0119964
0.00742659
0.00456984
-0.00474606
-0.0284608
0.0332068
2.05292e-05
-5.55873e-05
0.00407052
-0.00623712
0.0021666
-0.0112811
0.00139294
-0.000962167
-0.000430762
0.0129154
-0.00821631
-0.00469909
4.24586e-05
-4.53938e-05
0.00743069
-0.0133995
-0.020833
0.0142348
0.00659822
3.84122e-05
4.91724e-05
-8.75849e-05
0.0564719
-0.00151228
-0.00156899
3.305e-05
0.00153597
-0.00475797
0.00173565
0.0030223
0.0325333
-0.0627113
0.000271158
0.00010642
-0.000377581
-0.000112295
-7.14073e-07
1.78312e-06
-0.0109591
0.00406363
-0.00189995
0.0012168
-4.65566e-05
-9.90942e-06
5.64583e-05
-0.000103473
0.000143573
-4.00895e-05
-0.00820156
-0.00379487
8.60685e-05
0.000101763
-0.000177399
-5.70139e-05
0.000234409
0.00109263
-0.00197807
-0.0381639
0.0263498
0.0118142
-0.0160889
0.019228
0.000936626
0.00411262
-0.00504924
0.00194329
-0.0180322
-0.00321832
0.00318218
0.00113702
-0.00466359
3.75293e-05
-4.93011e-06
4.29347e-05
-3.80006e-05
0.000904773
-0.00141217
0.000507406
-0.0235591
0.0560924
-0.00237185
-0.00229897
-0.00177045
0.000987159
0.000783229
5.70479e-05
-3.04653e-05
0.000558618
-0.016195
-3.0743e-05
1.43885e-05
-3.83345e-06
-9.02999e-05
9.41348e-05
0.0469945
0.0106213
-0.0576159
-7.17435e-07
4.40133e-06
0.00203434
-0.00112956
0.000332447
0.00271901
-0.00759892
-1.60024e-05
1.76678e-05
-1.6536e-06
-1.33185e-05
3.36385e-05
-2.03118e-05
-0.00065695
0.000592785
6.41256e-05
0.000857842
0.000448714
-4.91224e-06
2.25735e-05
-1.76615e-05
-8.59727e-05
0.000750921
-0.000664952
0.00361452
-0.000189317
-0.00342521
-0.0070088
-0.00305991
-0.000163439
-0.000253577
8.89963e-07
2.04598e-05
-2.13505e-05
0.00431598
-0.00271557
0.0446719
2.07489e-05
3.37128e-05
-5.44652e-05
0.0152919
-0.0133486
0.00363923
2.03581e-05
0.00203797
-0.017367
0.015329
-2.25446e-06
2.12499e-05
-1.89952e-05
-0.0161989
0.000559301
7.34309e-05
-6.36093e-05
-9.80862e-06
-4.78297e-05
-0.000305155
0.00504774
0.00710026
-0.000399081
0.000643953
-0.000244883
-0.0154467
0.0144155
-0.000482093
0.000318655
1.78208e-05
-3.11385e-05
0.0186449
-0.016607
6.43059e-06
6.70069e-05
2.5433e-05
6.17555e-06
3.33718e-05
-3.70739e-05
-4.2691e-05
3.77695e-05
0.0012526
0.000781734
0.00314814
0.0124455
0.00847514
8.90145e-06
-3.44158e-07
-8.55765e-06
-0.000153196
0.0152432
0.000430893
-0.00114532
0.000714415
0.000980284
0.0143116
0.0555648
0.036753
-5.55124e-07
0.000251966
-2.74216e-05
0.000316476
-7.27116e-05
0.00015632
-8.36086e-05
-0.00223431
0.00557044
-0.00333614
2.25345e-06
4.30788e-05
-4.53232e-05
2.59051e-05
-3.21116e-05
6.20748e-06
-6.57162e-06
1.39628e-06
5.17595e-06
1.04963e-05
1.58621e-05
1.18578e-05
-0.00854161
0.0129269
-0.00438527
0.00182357
-0.000755087
-0.0011032
-0.000833893
-0.000239792
-0.00267572
0.00124735
-0.000416939
0.00125153
0.00320213
0.00124159
-0.00444372
0.00673453
0.00182287
-1.59395e-05
0.00226857
-0.000219376
0.00353759
4.93406e-05
-2.84818e-05
-0.00864326
-0.00544631
-0.0276323
-0.0105316
4.75353e-06
-2.06481e-06
-2.68858e-06
-0.00530398
-0.00553235
0.0108363
1.08184e-05
-3.6245e-06
-7.19432e-06
0.0320649
-0.0139665
0.00042039
-0.000811788
7.06624e-05
-3.22506e-05
0.00102276
-0.000791192
-0.000620985
0.0134482
-0.0124679
4.10454e-06
6.48896e-07
0.000356719
-0.000449414
9.26686e-05
0.00985677
0.0112321
-0.0210889
-0.00598185
0.00971981
-0.00373799
-0.014271
0.00890398
2.50333e-05
-9.15786e-06
0.00729057
0.0132565
-0.0205471
-0.00195763
-0.000937656
0.00289523
0.0162428
-7.87121e-06
9.17761e-06
0.000361288
-4.04852e-05
-0.000320804
0.000223274
4.78831e-05
2.20947e-06
2.99068e-05
-3.21181e-05
-2.47385e-05
-1.77657e-05
4.25098e-05
-6.80965e-06
-8.73873e-06
2.48088e-06
2.62283e-05
0.00814418
0.00159383
0.00160145
2.61675e-05
-5.77028e-06
-2.03973e-05
-3.20093e-06
1.19488e-05
1.06164e-06
3.10965e-06
-4.17154e-06
0.000131003
-3.9034e-05
-9.19734e-05
-0.00695656
0.000974701
-0.00300963
0.001052
2.49291e-05
-0.000226897
0.00108474
1.89145e-05
4.23757e-05
-6.12924e-05
2.36289e-05
9.12697e-06
-0.000863828
0.000300574
-3.87259e-05
-0.000870434
-0.00893203
-1.1073e-05
2.49479e-06
8.57956e-06
4.50276e-05
3.47192e-06
-4.84965e-05
-4.77859e-06
-3.16496e-06
-4.17583e-06
5.66471e-05
-0.00113295
0.0011189
1.40501e-05
-0.000846138
0.000847167
-1.03451e-06
-0.00888108
0.00494361
0.0107933
-0.000443607
0.000472679
7.40325e-06
-5.77974e-05
-0.00159888
0.00502607
-1.86391e-06
-1.42743e-05
-0.000234473
-0.000611667
0.00134889
-0.0156199
-0.00125858
-0.000915155
0.000680676
-1.52318e-05
-1.03995e-05
2.56313e-05
1.77211e-05
-0.00186885
2.41628e-05
-1.18251e-05
-0.000367364
-0.0023696
0.00273696
-4.64756e-05
4.87408e-05
-0.000136038
-1.71169e-05
-2.74615e-05
4.45827e-05
2.18344e-05
0.000339463
-0.025556
0.00761149
0.0179445
-3.04459e-06
4.59893e-05
3.92565e-05
0.000113831
-0.000153085
5.09208e-06
1.3369e-05
-0.00458637
-0.011457
0.0045439
-0.0229917
-0.000692795
0.000582599
0.000110185
-0.000109619
0.000146317
-0.00255521
0.00226494
0.00234464
-0.00171963
0.0057605
-0.00234211
-0.00341839
-0.00849369
0.00384177
-4.78847e-06
-1.18049e-05
0.0138619
0.00633597
-0.000107402
-0.0389338
0.00899297
0.0299408
-0.000550991
0.000505985
4.50048e-05
-3.07201e-06
-3.22422e-06
0.000187855
-1.20692e-05
-0.000175786
-0.0442626
0.0420633
-0.00013251
1.17858e-06
-0.000382819
-0.000309987
-0.0038935
0.00525157
-0.00720113
0.00200108
3.5041e-06
1.99682e-05
-2.34729e-05
1.76969e-05
-1.68075e-05
9.00974e-06
-8.90234e-06
-1.07749e-07
5.72109e-05
-3.64561e-05
-0.000524596
0.00787827
-0.0051418
-0.00273647
0.00864868
0.0146754
-0.001369
0.00220504
-0.000836025
1.49991e-05
9.46537e-06
-2.44687e-05
-1.36914e-05
3.41427e-05
-2.04511e-05
-9.75806e-07
-4.26047e-05
-9.4664e-06
-3.01062e-05
3.95702e-05
4.2176e-06
1.05651e-06
-5.27476e-06
0.000129584
1.16224e-05
-0.000141208
-0.00264918
0.0018941
-0.000518302
0.0241806
2.91616e-05
-1.41722e-05
-3.2909e-05
5.27295e-06
2.76598e-05
0.00512867
-5.84903e-05
-0.00226709
-0.00287144
0.00150243
0.00145751
-0.00467583
0.0033361
-0.00861015
0.00527404
0.00159421
0.00452927
-0.00308436
0.00183613
0.00124823
3.61887e-05
-4.07365e-05
1.04712e-05
-2.48574e-05
-6.4918e-05
8.9791e-05
-1.53621e-05
-2.14084e-05
3.67707e-05
-0.082716
0.0434375
0.000586759
0.00130456
-0.0018913
-0.00583685
0.00360252
-4.40189e-05
5.19213e-05
-7.90391e-06
7.12408e-05
-0.00135459
0.000850163
-9.0342e-06
1.32504e-05
-0.00440221
-0.00409149
-0.00501598
0.0059526
-8.60651e-06
-0.000116291
0.000145774
-5.03698e-06
7.11163e-06
-2.07733e-06
-4.18443e-05
-4.99166e-05
2.27268e-05
0.000374088
0.00813938
-0.00891034
0.000770928
-1.63087e-05
-9.01377e-05
0.000106444
-0.000293238
2.54391e-06
-4.65635e-05
2.06497e-05
-2.28674e-05
2.21703e-06
-4.61654e-05
-2.47507e-05
2.69722e-05
0.000272967
-0.0021956
-5.76205e-06
2.64115e-05
0.00230501
0.00107935
-2.18031e-05
0.0113717
-0.00965696
0.0059024
-0.000493359
0.0125563
-0.0269028
0.0143465
-0.000722505
0.00233581
6.46961e-05
-0.000136343
7.16629e-05
-0.0023076
-0.00117498
0.0242055
-0.00523039
-0.0189751
2.86257e-06
-1.26437e-05
1.15513e-05
1.09354e-06
-1.57838e-05
1.42776e-05
0.00342482
-0.00124756
-0.00217726
-1.72314e-06
8.51484e-06
-0.000345219
-0.00273915
0.00384864
-0.0109411
2.94547e-05
-2.43204e-05
-5.11937e-06
0.000361827
1.95795e-05
-0.00038142
1.10754e-06
1.42035e-05
-0.0238337
-0.0151001
-0.00834657
0.00812618
7.62957e-06
-7.19971e-06
-4.29067e-07
4.82737e-06
3.95628e-06
-8.78466e-06
-0.000173978
-0.00130188
0.000138508
-0.00273406
-4.29477e-05
2.139e-06
4.08074e-05
-0.00570497
-0.00082279
-2.62573e-05
7.86734e-06
2.60279e-05
-1.53323e-05
-0.000562823
0.022412
-0.0214084
-0.00100356
0.0164109
0.0237937
0.0207791
-0.00261023
0.000430012
0.00770938
-2.26694e-05
4.06612e-05
-1.79929e-05
-4.60233e-05
-0.00322024
0.00326627
-0.00484278
0.00942248
-0.0045797
-1.40521e-05
-0.00202976
0.0020438
3.24984e-05
2.47098e-05
0.00294251
0.00129159
-0.00107094
-0.00164223
-0.0124001
0.0140424
0.00493838
0.0174736
1.79633e-06
-7.34948e-07
1.31302e-05
-3.57998e-05
-2.47089e-05
8.72242e-06
0.00060539
-0.00020224
-0.000403145
6.93718e-06
-0.00257377
-0.0158793
-4.28525e-06
-2.4212e-05
2.84929e-05
3.00148e-06
2.64501e-05
9.9026e-06
0.00015824
-0.00127381
0.00010301
0.00117082
7.9334e-05
-7.34343e-06
-7.19786e-05
-0.000171892
0.000119143
5.27472e-05
0.00128911
0.00263079
-0.00391991
0.000142035
0.000963695
-0.000712668
0.00041057
0.000302092
0.0081577
-0.00428271
0.00707671
-0.002794
0.000349788
0.00390603
-0.00425583
2.38932e-05
-3.92523e-05
-1.72425e-05
8.53413e-06
3.19206e-05
-6.48734e-06
0.000288397
-0.000786496
0.000498096
0.001447
0.00175512
0.00133333
0.00292263
-5.3973e-05
1.72642e-05
-1.50565e-05
1.66492e-05
-1.5949e-06
0.00129899
-0.0120172
0.0193077
6.04863e-06
1.22642e-06
-7.27481e-06
5.95966e-06
-2.453e-05
1.85732e-05
0.00438734
0.00100447
2.98647e-05
2.38874e-05
-2.09461e-05
-2.94881e-06
5.97405e-05
-1.99221e-05
-3.98103e-05
-0.0317942
0.0437455
-0.0119514
1.44413e-06
-2.69889e-05
-5.93408e-06
1.11476e-06
4.93273e-06
0.00135164
-0.000877873
-0.000473774
1.93892e-05
-5.7686e-06
-1.36264e-05
-0.00045344
2.49509e-05
0.000428502
0.0068569
-0.00344872
1.23321e-05
-6.37292e-06
-0.0139255
0.0101286
0.00149582
-0.000442624
-0.00105319
-0.00291642
0.00670401
-0.00378762
-0.00510822
0.00132495
0.00378327
-3.67672e-05
4.2178e-05
-5.40374e-06
0.00229595
-0.00231
-3.85555e-05
8.91808e-06
2.96313e-05
-1.18642e-05
1.60377e-05
-4.17991e-06
-3.49693e-05
3.13919e-05
3.55291e-06
0.0288161
0.0134107
-0.0422269
0.00633476
0.00614965
0.00133336
-0.000822458
0.0209061
-0.00448931
-0.0164168
-0.00358288
0.00127526
0.00080449
0.00359556
0.00541851
0.00320594
-0.00862446
0.00125115
-0.00132079
6.96323e-05
3.38697e-05
-4.26997e-05
-0.0231898
0.0169526
-0.000166077
0.000159755
6.31192e-06
3.18475e-06
-4.05447e-06
8.66966e-07
8.88789e-06
-5.18923e-06
-0.0166011
0.0080595
-0.0318421
0.027096
0.0215516
-0.00910615
-8.39234e-07
1.9293e-05
-1.84605e-05
-0.00151165
-0.00346814
0.00497979
-0.00697105
-0.00291705
0.00153884
-0.000138798
-0.00272607
0.00286486
-0.000686941
-0.000195772
0.000882705
-0.000923697
0.00127533
-0.000854925
0.0256756
0.00638922
0.000624089
-0.000605335
-1.87521e-05
-0.000174326
0.000582771
0.000810174
0.0168167
0.00471056
3.40325e-05
4.52964e-05
6.29396e-06
-6.85429e-07
-0.000312464
0.000284801
0.00876455
-0.000357421
-0.00840715
-0.000428268
0.000196744
-5.5278e-05
0.0181677
0.00273847
0.000440401
-0.00089384
0.0049065
0.00102288
-0.00592938
0.000363483
-0.00105042
0.0069569
-0.0111571
2.06655e-06
-2.37669e-05
2.16924e-05
-0.0465479
0.0227142
5.08948e-05
0.000160337
-0.000211251
0.000113108
-2.10584e-05
-9.20505e-05
3.40424e-05
3.00739e-06
0.00014041
0.000113296
-0.000253706
1.32459e-05
9.98627e-05
3.45286e-05
8.19089e-05
2.33075e-05
-0.000889373
-1.47714e-05
2.01279e-05
-5.35937e-06
-0.0136685
-0.0328794
0.000537419
8.19044e-05
-3.89266e-05
9.87807e-05
-5.98645e-05
7.31941e-07
-5.76986e-06
0.00486615
0.00221057
5.57418e-05
-2.32322e-05
1.7832e-05
2.7331e-05
-4.51595e-05
-0.0029319
0.00154451
-0.00196558
0.0235557
0.00649927
-0.00108075
0.000100828
8.0902e-05
-8.98172e-05
8.9314e-06
-0.0129469
0.0255455
-0.0125985
-2.06273e-05
2.26893e-05
-0.00267255
5.31866e-05
2.77265e-05
0.00997925
0.0115724
0.0030993
-0.00323809
-0.0263753
0.0241982
-0.000799276
0.0012563
-0.00045701
-0.000316496
0.000164994
-0.00286028
0.0159437
-0.00506124
-0.0108825
-0.00237722
-0.00263876
-6.27939e-06
3.15165e-05
-2.52379e-05
2.89181e-05
3.08213e-05
0.000779534
-0.00160597
0.00885808
-0.0138385
-5.04501e-05