/*--------------------------------*- C++ -*----------------------------------*\
| =========                 |                                                 |
| \\      /  F ield         | OpenFOAM: The Open Source CFD Toolbox           |
|  \\    /   O peration     | Version:  v2012                                 |
|   \\  /    A nd           | Website:  www.openfoam.com                      |
|    \\/     M anipulation  |                                                 |
\*---------------------------------------------------------------------------*/
FoamFile
{
    version     2.0;
    format      ascii;
    class       volScalarField;
    location    "350";
    object      k;
}
// * * * * * * * * * * * * * * * * * * * * * * * * * * * * * * * * * * * * * //

dimensions      [0 2 -2 0 0 0 0];


internalField   nonuniform List<scalar> 
18355
(
0.000275587
0.00013705
0.000181805
0.000140647
0.000220696
0.0053272
0.000146157
0.000222536
0.000150292
0.00318247
0.000157738
0.00018834
0.00018971
0.000341022
0.00014177
0.000135473
0.00014062
0.000153885
0.000210811
0.000153123
0.000311471
0.000149103
0.000136961
0.00526218
0.000136995
0.000148783
0.00014661
0.000141053
0.00015266
0.000158904
0.000373834
0.000184426
0.000137726
0.000134306
0.000146001
0.000150618
0.000160002
0.000151019
0.000159722
0.000148485
0.000150445
0.000158698
0.000134464
0.000136873
0.000136983
0.000236316
0.000141195
0.000141066
0.000856103
0.00014504
0.00014168
0.000458192
0.000145484
0.000215811
0.000143143
0.000153915
0.000145637
0.000737798
0.000149399
0.0248085
0.000134411
0.000181153
0.000215951
0.000143816
0.000196246
0.000139637
0.000154782
0.000160198
0.000133987
0.00925722
0.000142296
0.000143175
0.000176123
0.000155976
0.0008288
0.000134151
0.000695216
0.000134267
0.000141983
0.00111088
0.000154707
0.00302391
0.000134097
0.00015694
0.000183845
0.000148875
0.000151516
0.00017415
0.000140523
0.000174542
0.00161218
0.000313176
0.00301017
0.000144973
0.0068088
0.000148154
0.000140067
0.000145277
0.000188231
0.000148706
0.00018063
0.000141668
0.000144579
0.000130118
0.000155171
0.000135598
0.000195957
0.0069636
0.000166993
0.000135092
0.000142346
0.000147481
0.00016774
0.000156327
0.000722196
0.000161357
0.000141393
0.00227483
0.000152505
0.00015437
0.00834717
0.000116658
0.00326577
0.000178641
0.00272373
0.000134688
0.00014665
0.00014073
0.000280742
0.000147644
0.000140132
0.00301546
0.000143482
0.000184174
0.00021194
0.000140604
0.000209424
0.00669857
0.000141841
0.000309812
0.000157335
0.000118062
0.000140929
0.00067988
0.000213717
0.000146103
0.0335515
0.000131503
0.00016722
0.00324163
0.000140975
0.000154117
0.000146858
0.000202446
0.000134583
0.000137582
0.000140825
0.00014894
0.000141024
0.000138456
0.000154651
0.000143602
0.00013514
0.000245467
0.000156301
0.00296236
0.0343772
0.000305398
0.0123365
0.000157401
0.000146871
0.000183533
0.000148315
0.00148482
0.000146406
0.000148916
0.000146358
0.000130319
0.000151584
0.000163349
0.000149463
0.00284494
0.000148442
0.000141333
0.00189936
0.000144441
0.000148963
0.000173911
0.000143354
0.000147657
0.00020401
0.00018766
0.000137338
0.000134843
0.000143598
0.00237303
0.000138964
0.000313706
0.000137163
0.000388866
0.000144083
0.000152588
0.000159943
0.000148228
0.000295974
0.000146909
0.0106752
0.000141295
0.000137168
0.000144737
0.00014679
0.00413039
0.000168204
0.000148338
0.00013167
0.00241572
0.000163371
0.000156815
0.000147114
0.000141315
0.000166064
0.000134061
0.000171866
0.000220976
0.000161988
0.000162649
0.00013425
0.00480254
0.000251917
0.000171252
0.000145157
0.000155216
0.003231
0.000134233
0.000222299
0.000185241
0.000149219
0.000204964
0.000155744
0.000146949
0.000137397
0.000151359
0.00014432
0.00016931
0.000146904
0.00014315
0.000141003
0.00387882
0.00647401
0.00014289
0.000147971
0.0063995
0.0001935
0.000202792
0.000130327
0.000148029
0.000155831
0.000146307
0.000160211
0.000139674
0.00317846
0.000276329
0.000185466
0.000161624
0.000160876
0.000178949
0.000280611
0.000190869
0.000139636
0.000143195
0.000149044
0.000135155
0.000152883
0.000157119
0.000140704
0.000146855
0.000167327
0.000140441
0.000199322
0.00824107
0.000164043
0.000147022
0.000162448
0.000135021
0.000174223
0.00014628
0.00016509
0.000147689
0.00016405
0.0034949
0.000137441
0.000173165
0.000152135
0.000159209
0.000259707
0.000144203
0.000134637
0.000195662
0.000146836
0.000195977
0.000160021
0.00135345
0.000174378
0.000186187
0.000153074
0.000168898
0.000144618
0.000154244
0.000161296
0.000173336
0.00245475
0.0104488
0.000142295
0.000160373
0.0002103
0.000163362
0.000142204
0.000141005
0.000141011
0.000172671
0.00892248
0.0477602
0.00243822
0.000166076
0.000156711
0.00327713
0.000131378
0.000146682
0.000156725
0.000144224
0.000171137
0.000144795
0.00312832
0.000135901
0.00284183
0.000143208
0.000148287
0.000154143
0.000192493
0.000330988
0.000169433
0.00205253
0.000148852
0.000140657
0.000144096
0.000158745
0.00327526
0.000140877
0.000145162
0.00218102
0.000148607
0.000141009
0.000196513
0.000156141
0.000141009
0.00014449
0.000166246
0.000150101
0.000166112
0.000135613
0.000144076
0.00014848
0.0172247
0.00157103
0.000135301
0.000140742
0.000191373
0.000141074
0.000147253
0.00354456
0.00135671
0.000170898
0.000143933
0.000149414
0.000189875
0.000151183
0.000186488
0.000154397
0.00013664
0.000184713
0.000208577
0.000148019
0.000143519
0.000153906
0.000145794
0.000154786
0.000143612
0.000215904
0.00014642
0.000153553
0.000142333
0.000141064
0.000152554
0.000150666
0.000178784
0.0550293
0.00258223
0.000153267
0.000193615
0.000180255
0.000143417
0.000144679
0.000171364
0.000143365
0.00017292
0.000145395
0.000158781
0.00291523
0.000252728
0.000324938
0.000188633
0.000130219
0.047083
0.000148711
0.000140639
0.000364048
0.000142883
0.000170813
0.000135215
0.000202075
0.000142831
0.000182338
0.00310511
0.000183013
0.000144284
0.00013756
0.000183895
0.000152533
0.000142848
0.00307358
0.000247884
0.000140571
0.000172082
0.000179064
0.000137472
0.000149469
0.000167589
0.00293237
0.000172615
0.000148594
0.000144989
0.000168014
0.000143537
0.000136036
0.000143839
7.30429e-05
0.0547706
0.000136417
0.00015196
0.000144565
0.000194995
0.000203166
0.000134842
0.000170581
0.000172581
0.000145333
0.00381683
0.00018165
0.000148663
0.000144509
0.000171528
0.000194412
0.000556649
0.000136192
0.000362372
0.000142288
0.000136407
0.000176796
0.000152965
0.000221817
0.000175832
0.000153945
0.00015689
0.000149119
0.000195553
0.000152905
0.00016038
0.000148893
0.000135948
0.000147991
0.000136155
0.000181969
0.054969
0.000202339
0.000154576
0.000147224
0.000148872
0.000148731
0.000152949
0.000145086
0.000135648
0.00014377
0.000174504
0.000137502
0.000145356
0.00582613
0.000319926
0.00021092
0.000147483
0.000150894
0.000167687
0.000148895
0.00336503
0.000116221
0.000158692
0.000157148
0.000158573
0.000150549
0.000154616
0.0462931
0.000168373
0.000149416
0.00405985
0.00014612
0.00031933
0.046089
0.000156482
0.000149256
0.047915
0.000140775
0.000181731
0.000184928
0.00241637
0.000152911
0.000147859
0.000145222
0.000857323
0.000628833
0.00199922
0.00237233
0.000152925
0.000145077
0.000156895
0.000143208
0.000156687
0.000378955
0.00328536
0.0548991
0.0211193
0.000173115
0.000181138
0.000169278
0.000141259
0.000142269
0.000177947
0.000157942
0.000146474
0.000143158
0.00305019
0.000139969
0.0188531
0.0001626
0.00018236
0.000191077
0.000142307
0.000156376
0.00028763
0.000143732
0.0542922
0.000142727
0.00029671
0.000168419
0.000148087
0.000168981
0.000189821
0.000189965
0.000150047
0.000134004
0.000166949
0.000156755
0.000182981
0.000143536
0.000181379
0.000139927
0.000269712
0.000147076
0.000143678
0.000216209
0.000209415
0.000203207
0.000145035
0.00015785
0.000156782
0.00305533
0.0502724
0.000155777
0.000245161
0.000145516
0.000162265
0.000148179
0.000155392
0.0483834
0.000136817
0.00278358
0.000146758
0.000146003
0.000155913
0.00328622
0.000152651
0.00020339
0.000149838
0.000166573
0.00331994
0.000131532
0.000141059
0.000326807
0.000173479
0.0045484
0.000177342
0.00014782
0.000143167
0.000142679
0.00015564
0.000149286
0.000137204
0.000231568
0.0139809
0.000143456
0.00660812
0.00468161
0.000156098
0.000132238
0.000136257
0.000264598
0.00167447
0.000132601
0.0032126
0.000169604
0.0179013
0.00341265
0.000143486
0.000142623
0.00014772
0.00243862
0.000172402
0.000144728
0.00014907
0.000228654
0.000148459
0.000170292
0.000143404
0.000168393
0.0525443
0.000544945
0.000264762
0.000522431
0.000175538
0.000492653
0.000157127
0.000140603
0.00016021
0.00362386
0.000211975
0.000171208
0.000144489
0.000245878
0.000144449
0.000148038
0.0235762
0.000149091
0.000161216
0.000207282
0.000199359
0.000144645
0.000142893
0.000155779
0.000158595
0.000134177
0.000149905
0.000171189
0.000219203
0.000153429
0.000144215
0.000176952
0.00338542
0.000143897
0.000437902
0.000968971
0.000145226
0.000430397
0.000134794
0.000142697
0.000143731
0.000135648
0.000207102
0.0001534
0.0013603
0.000153093
0.000142922
0.000414639
0.000143703
0.000134922
0.000145251
0.000140718
0.000162023
0.000172481
0.000338511
0.00015161
0.0544232
0.00015148
0.000375542
0.00769287
0.000149569
0.000144056
0.000157818
0.000136418
0.000186165
0.000142514
0.000134785
0.000135638
0.000144524
0.000143648
0.000109045
0.000155412
0.000174379
0.000153765
0.000159644
0.00015399
0.000187795
0.000316998
0.000137433
0.000181369
0.000179585
0.000134425
0.00402969
0.0524034
0.000141572
0.000144245
0.00014589
0.00331
0.000166478
0.000132391
0.000167292
0.000159356
0.00029757
0.000142816
0.000155092
0.000438771
0.000212415
0.00134559
0.000143617
0.00244944
0.000179015
0.000261032
0.000143542
0.000152392
0.000143086
0.000146138
0.000142089
0.000144862
0.000136818
0.000217822
0.00016522
0.000140462
0.000134241
0.000140464
0.000148329
0.000208691
0.000178701
0.000137426
0.000158571
0.000146787
0.000147027
0.000145751
0.000140861
0.000157848
0.000134247
0.000140268
0.000149039
0.000147252
0.000154671
0.000144483
0.000485284
0.000280277
0.000156021
0.000140116
0.000193207
0.000134662
0.000134307
0.000143745
0.00102823
0.000154609
0.000144234
0.000135886
0.000137212
0.000156434
0.000133928
0.000159143
0.000142428
0.000148228
0.000141996
0.000152149
0.000490151
0.000140557
0.000148805
0.000142461
0.000214458
0.00260902
0.000159456
0.000149304
0.00018177
0.000163425
0.00017307
0.0430613
0.0001486
0.00177683
0.000148938
0.0210563
0.000150518
0.000136903
0.000135746
0.0086744
0.000135624
0.000159799
0.000232148
0.000199939
0.000179023
0.000152447
0.000141651
0.000143954
0.000143712
0.000160949
0.0001917
0.00294935
0.000175142
0.000145501
0.000133952
0.000154194
0.000141929
0.000140891
0.000148478
0.000174365
0.000161802
0.00320365
0.00014541
0.000144432
0.000171847
0.000143212
0.000195617
0.000175479
0.000176748
0.00019193
0.0258426
0.000161843
0.000141222
0.000134007
0.000147638
0.000142488
0.00971558
0.000172339
0.000185768
0.000136914
0.00014709
0.000153037
0.000141133
0.0406807
0.000273559
0.000134318
0.000135992
0.000142704
0.000142114
0.000140934
0.000144556
0.000160797
0.000134983
0.000149813
0.00013693
0.000137942
0.000142217
0.000145917
0.000159369
0.000137893
0.000199829
0.000135871
0.00131295
0.000168929
0.000153815
0.00195838
0.000154654
0.000148801
0.000180088
0.00278773
0.000143859
0.00013929
0.000137071
0.000179075
0.000150694
0.000161748
0.00152109
0.000146346
0.000149398
0.000144699
0.0226858
0.00201347
0.00015158
0.000139089
0.000158576
0.000173773
0.000142357
0.000189038
0.000139536
0.000134029
0.000156271
0.000392928
0.00259775
0.00297668
0.000154289
0.000134673
0.000145219
0.000211835
0.000160922
0.000143688
0.000210503
0.0001586
0.000244339
0.000173087
0.00014213
0.000134719
0.000144743
0.000150039
0.000134869
0.00120328
0.0030224
0.000134616
0.000146556
0.000148971
0.000168223
0.000144236
0.000142084
5.96531e-05
0.000149191
0.000142537
0.00279428
0.000190077
0.000184411
0.000142424
0.000135935
0.000134807
0.000154792
0.000186822
0.000215603
0.000140636
0.000138212
0.000152227
0.00235091
0.0001371
0.000143982
0.000189332
0.000141029
0.000139243
0.000143658
0.0191845
0.00013575
0.000144527
0.000137157
0.000165937
0.000135756
0.000158895
0.00019323
0.000144013
0.000212493
0.000163359
0.00021779
0.000180293
0.000140881
0.000162528
0.000140545
0.000139121
0.00014089
0.00483257
0.00362665
0.000257701
0.00016026
0.000376536
0.000180324
0.000150511
0.000190872
0.000192906
0.000156504
0.000135602
0.00851398
0.0001502
0.000139758
0.000137488
0.00238661
0.0100983
0.000358537
0.000138943
0.000183224
0.00192853
0.000194751
0.000164187
0.00015542
0.000152802
0.000165698
0.00321809
0.000151452
0.000150359
0.000156672
0.0421395
0.000344686
0.000144166
0.000147469
0.000143203
0.0301765
0.000153687
0.000148771
0.000338439
0.000158804
0.000174261
0.000155295
0.00314147
0.000138642
0.0195525
0.000149872
0.000135789
0.000141291
0.000135998
0.000135833
0.000140836
0.000147992
0.000503313
0.000137236
0.0211269
0.000159617
0.000147555
0.000140552
0.00018904
0.000143472
0.000146559
0.000152934
0.000413034
0.000188674
0.00015338
0.000146481
0.0418662
0.00013861
0.000176014
0.000146271
0.000376182
0.000165497
0.00368843
0.00015986
0.000142925
0.000141807
0.000420801
0.000228744
0.00013772
0.000143589
0.000167507
0.0491581
0.000131028
0.000177937
0.000141003
0.000157701
0.000140482
0.000134849
0.000149162
0.000150068
0.000135295
0.000174185
0.000173395
0.000160839
0.000190151
0.0103983
0.000150357
0.00224662
0.00013636
0.000185606
0.0185277
0.000195234
0.000134635
0.000150521
0.000146061
0.000610673
0.000145068
0.000139518
0.00018284
0.000146359
0.00014628
0.000150004
0.00014965
0.000142956
0.0467293
0.00528513
0.000180009
0.000139209
0.000144845
0.00024357
0.00013612
0.000262943
0.000147244
0.000145866
0.000149264
0.000157646
0.000232914
0.00013704
0.000145197
0.000345895
0.000146982
0.000148481
0.000167618
0.0335023
0.00324555
0.000144454
0.000143288
0.0481043
0.00401124
0.000282556
0.000141254
0.000165511
0.000211454
0.000137729
0.000169095
0.000151527
0.0050819
0.000154428
0.000144993
0.000151573
0.000135748
0.0485695
0.000145067
0.000139446
0.00242271
0.000189974
0.00226144
0.000135146
0.00015189
0.00013556
0.000132085
0.00013608
0.000150727
0.000146682
0.000148542
0.000135708
0.000148202
0.000177824
0.000159219
0.000163015
0.000140427
0.000153301
0.000142032
0.00315948
0.000147464
0.000150606
0.00014727
0.000135772
0.000148359
0.000167223
0.000143918
0.000143378
0.000141126
0.000136128
0.00216459
0.000362786
0.000144473
0.0474908
0.000167381
0.000148566
0.000147797
0.000150308
0.000545988
0.000148523
0.000136384
0.000134565
0.000134628
0.000299134
0.000144712
0.000136902
0.000234042
0.000134055
0.000133274
7.92272e-05
4.87193e-05
0.00022104
0.00019218
0.000864826
0.000135609
0.00342747
0.00015822
0.000143141
0.00013687
0.000172416
0.000143177
0.000164835
0.000181432
0.000152038
0.000150578
0.0251284
0.000208498
0.000353865
0.000264975
0.00203598
0.000236738
0.000139512
7.54871e-05
0.0166242
0.000135031
0.00387154
0.000138922
0.00015096
0.000191658
0.000140463
0.000244336
0.000157885
0.000152553
0.000148046
3.63743e-06
0.000143919
0.0168157
0.000142857
0.00013612
0.000440714
0.000133412
0.000169025
0.000148614
0.000178142
0.000142177
0.000143874
0.000152964
0.00230117
0.000144187
0.000144629
0.000136686
0.000155015
0.000142381
0.000150921
0.00262829
0.00014144
0.000158008
0.000148032
0.000157611
0.00015928
0.00014046
0.000148959
0.000184243
0.000147005
0.000148604
0.000160665
0.00329766
0.000150095
0.000141783
0.000144002
0.000163415
0.000224021
0.000150523
0.000140963
0.000141328
0.000137766
0.000131922
0.000135641
0.000157695
0.000222541
0.000178859
0.00014665
0.000327137
0.000139726
0.000146596
0.0524107
0.000171738
0.000134212
0.000190652
0.000148835
0.000140929
0.00442099
0.000148317
0.000176508
0.000132608
0.00019567
0.0001399
0.000134824
0.000136021
0.00226259
0.000243304
0.00014677
0.000259474
0.000135852
0.000142388
0.000139086
0.000192816
0.000145538
0.000138505
0.000145627
0.0001521
0.000142989
0.000145711
0.000140509
0.000148742
0.000146546
0.000140411
0.000152975
0.000135186
0.000366868
0.000180835
0.000136401
0.000158418
0.000158738
0.000140765
0.000139957
0.000150152
0.000140737
0.000162111
0.000156346
0.000202571
0.000206213
0.000147622
0.000178666
0.000197671
0.000143043
0.00014768
0.000184996
0.000155322
0.00320055
0.000135618
0.000147985
0.000152937
0.000144145
0.000154337
0.000157797
0.000140522
0.000174268
0.000144137
0.000155687
0.000139792
0.000188251
0.000143777
0.000154955
0.000160199
0.000142751
0.00553324
0.000796126
0.000153642
0.000158687
0.000163115
0.00013453
0.000195986
0.000145496
0.000168443
0.000890237
0.0116467
0.000152222
0.000184261
0.000164579
0.000143068
0.000165798
0.000138166
0.0393447
0.000187349
0.000147776
0.000140692
0.000213671
0.000175231
0.000142806
0.000143219
0.0112865
0.000146778
0.000138416
0.00188879
0.000174231
0.000134894
0.000253186
0.000136057
0.000149598
0.00017558
0.000143008
0.000144361
0.000155473
0.000523112
0.000140221
0.000159369
0.000144332
0.000143045
0.000139823
0.000347908
0.000147138
0.00014504
0.000144195
0.000239445
0.000159844
0.000140411
0.000133037
0.000186346
0.000142248
0.000136791
0.000273781
0.0392916
0.00014892
0.000682912
0.00015536
0.000172634
0.000150924
0.000178201
0.00595005
0.000162547
0.000142991
0.00013716
0.000156062
0.000142794
0.000852241
0.000230023
0.000137473
0.000150166
0.000136373
0.000135473
0.00923823
0.000142896
0.000150801
0.000152277
0.000210259
0.000144556
0.000147876
0.000156366
0.00619382
0.000145633
0.000145027
0.000136502
0.000137499
0.000155429
0.000171335
0.000147229
0.000142212
0.000144715
0.000143409
0.000137191
0.0457109
0.000147831
0.000143284
0.000141957
0.000177294
0.000135763
0.000136795
0.000169864
0.000142524
0.000186902
0.000144397
0.000144541
0.002309
0.0501692
0.0161631
2.31815e-05
0.000158857
0.000147504
0.0503617
0.000139858
0.00015615
0.000135265
0.00150974
0.000130036
0.000155796
0.00014466
0.00604597
0.000177887
1.57572e-05
0.0483831
0.000150879
0.000199342
0.000148063
0.000149101
0.0273884
0.000167127
0.000142124
0.000136006
0.000154526
0.000166148
0.000144028
0.000144728
0.000139792
0.000135264
0.000236849
0.00331121
0.000148072
0.000169625
0.0408901
0.000355151
0.000155028
0.000160614
0.000153221
0.000155375
0.000142228
0.000150762
0.000343147
0.000140293
0.000136246
0.000146258
0.000391287
0.000265143
0.000158101
0.000146679
0.000146716
0.000160363
0.000143748
0.000158594
0.000177663
0.000233761
0.000153701
0.000314073
0.000134728
0.000142842
0.00014847
0.000135634
0.000146052
0.000140084
0.000141412
0.000140968
0.00293381
0.000147146
0.000138351
0.000136721
9.05735e-05
0.000150824
0.000171786
0.00018839
0.000136145
0.00948343
0.000152242
0.000137149
0.000133513
0.00254909
0.000104591
0.000133768
0.000140586
0.000141363
0.000151946
0.000199278
0.000227314
0.000149875
0.000150137
0.000192188
0.0519706
0.000149402
0.000142074
0.00240898
0.000154764
0.00238727
0.000152496
0.000142388
0.000179203
0.000170147
0.0495308
0.000173131
0.000345804
0.000136066
0.000142304
0.000148957
0.000144998
0.000154724
0.000147839
0.000146266
0.000139536
0.000148669
0.000150181
0.000164307
0.000144341
0.000152668
0.000148902
0.000143684
0.000141955
0.000174982
0.000152149
0.000140382
0.000145303
0.000224851
0.000143708
0.000157243
0.000148068
0.000175665
0.000136698
0.000168987
0.000153447
0.000135991
0.000143819
0.0380115
0.000244603
0.000150898
0.000172058
0.000153977
0.00017351
0.000140051
0.000161892
0.000178977
0.000141234
0.000193865
0.000140917
0.00014325
0.000150646
0.000148969
0.000161768
0.000210758
0.0502476
0.000178876
0.000136197
0.000144514
0.000143365
0.000191173
0.000149144
0.000855855
0.00013978
0.000143895
0.00014354
0.000181332
0.000142632
0.000146669
0.000144418
0.000194003
0.00013668
0.0015622
0.000136212
0.000168677
0.000144493
0.00016191
0.000140833
0.000154231
0.000346654
0.000253271
0.000136244
0.000183735
0.000145297
0.000146903
0.0243731
0.000404305
0.000136172
0.000142753
0.00015607
0.000135907
0.00014418
0.000148579
0.000147739
0.000159536
0.000173931
0.0001502
0.00015914
0.000293649
0.000147115
0.000140693
0.000142115
0.000156515
0.000163078
0.000143802
0.0498532
0.00014087
0.0505224
0.000167009
0.00013656
0.000140223
0.000139964
0.000219694
0.000146387
0.000152709
0.000146317
0.00013987
0.000378933
0.000154088
0.000170846
0.00014739
0.000145668
0.000151789
0.00014328
0.000153829
0.000143473
0.000158115
0.000149422
0.000148537
0.00505995
0.000203013
0.000806175
0.00014094
8.24908e-05
0.000150967
0.00186742
0.00018717
0.00257321
0.000150432
0.000134916
0.000170131
0.00014201
0.00477041
0.00014988
0.000192421
0.000150838
0.0430904
0.0109205
0.000153877
0.000172904
0.000139457
0.000137511
0.000148723
0.000134883
0.00014806
0.000153024
0.000139498
0.000163227
0.0002045
0.00156156
0.000140684
0.000204933
0.000134631
0.000142429
0.000143632
0.00018302
0.00014778
8.1718e-05
0.00014719
0.000144028
0.000474752
0.000140224
0.000152345
0.000142248
0.000155074
0.00240957
0.000166694
0.0424436
0.000154359
0.000186642
0.000152893
0.000141755
0.000144627
0.00015516
0.00016448
0.000143116
0.000151983
0.000143204
0.00315473
0.000138378
0.0249207
9.80047e-05
0.000187472
0.000157872
0.000237697
5.09527e-05
0.000134878
9.03554e-05
0.00014238
0.0162071
0.000148653
0.000152018
0.00383837
0.00357823
0.000161081
0.0118361
0.000143589
0.00141757
0.000130625
0.0121944
0.000135201
0.000177166
0.000192471
0.000146746
0.000139176
0.000149391
0.000144654
0.000176258
0.00184088
0.000169662
0.0014951
0.000141447
0.000940973
0.000144393
0.000147794
0.000143156
0.00014533
0.00470675
0.000147674
0.000138009
0.000166742
0.000148289
0.00226947
0.000204744
0.000142986
0.000220293
0.000169183
0.000140576
0.000144913
0.000155037
0.000136512
0.000174907
0.00016372
0.000150743
0.000151931
0.000137261
0.000146596
0.000176307
0.000149087
0.00014506
0.000150483
0.000134819
0.000135601
0.000363008
0.000161269
0.0549455
0.000160235
0.000173977
0.000158946
0.000142103
0.000167628
0.000137894
0.000140796
0.00155579
0.000163151
0.000104397
0.000178725
0.000152027
0.000152465
0.00804303
0.000144053
0.000173944
0.000184873
0.0506693
0.000136374
0.000138202
0.000147076
0.000195225
0.00179237
0.000180704
0.000154602
0.000148274
0.000142043
0.000135549
0.00241032
0.000152825
0.000172792
0.00560183
0.000146848
0.000153429
0.000155692
0.000144915
0.000142803
0.000143499
0.000173939
0.000203633
0.000148518
0.00015286
5.67356e-05
0.000142572
0.000148455
0.000153914
0.00014687
0.0048502
0.00464068
0.00262065
0.000205817
0.0026082
0.000152092
0.000139813
0.000177295
0.000169024
0.0001605
0.000143433
0.000135344
0.00246918
0.000228788
0.000141443
0.000139614
0.000162518
0.000321178
0.000155531
0.000134993
0.0477009
0.000152747
0.000167909
0.000134968
0.000159566
0.000131169
0.000151643
0.00015872
0.000142048
0.039555
0.000149268
0.000170782
0.000206597
0.00145638
0.000201311
0.000142207
0.000177898
0.000155842
0.000176624
0.000151832
0.00017636
0.000145447
0.000151992
0.0026381
0.000152072
0.00259394
0.000140055
0.000212414
0.000135902
0.000148949
0.00214507
0.000156148
0.000209846
0.000162286
0.000149722
0.0527734
0.0461297
0.00014005
0.00248372
0.000173531
0.000138919
0.000134148
0.000363338
0.0010543
0.000139061
0.000136138
0.000148476
0.000136678
0.047829
7.97905e-05
0.000130199
0.000133264
0.000139959
0.000164586
0.00017232
0.00343454
0.000135907
0.0195398
0.000147262
0.000191246
0.0437171
0.000161125
0.000138669
0.000139946
0.00364868
0.000136594
0.000141104
0.000136415
0.000163383
0.000154534
0.0402817
0.000162921
0.000148394
0.000142385
0.00015874
0.000207502
0.000182829
0.000141715
0.00014212
0.000195401
0.000173335
0.000150204
0.00742364
0.000160464
0.000152635
0.0161054
0.000152068
0.000159367
0.000148469
0.00280197
0.000145296
0.000148629
0.00030974
0.000160104
0.000141185
0.000143348
0.000131221
0.000172391
0.000204756
0.000141079
0.000136012
0.000149465
0.000177225
0.000165399
0.000135062
0.000142807
0.000138474
0.000161984
0.000170636
0.000146622
0.000143019
0.0208537
0.000142065
0.00135634
0.000165478
0.000169399
0.000152638
0.000152492
0.000145111
0.000168821
0.000200463
0.000178162
0.0369462
0.000164695
0.000140105
0.0296774
0.0001363
0.000178987
0.0449582
0.000160497
0.000141806
0.000154845
0.000180911
0.000142687
0.000143532
0.000198105
0.000142896
0.000152947
0.000140819
0.000147197
0.00013742
0.000200961
0.000188945
0.000135846
0.000141112
0.0153402
0.000142591
0.000137099
0.000140907
0.000140802
0.00141557
0.000158452
0.000152988
0.00015342
0.000149298
0.000137833
0.000177171
0.000185256
0.000159385
0.00347442
0.00015399
0.000154376
0.0371251
0.00014012
0.000136295
0.00014378
0.000140631
0.000148625
0.000132804
0.000150959
0.0403823
0.000143449
0.000141883
0.000153371
0.00014072
0.00120789
0.00014771
0.0449771
0.000224693
0.000169901
0.000162902
0.00284633
0.00016545
0.000143256
0.000152567
0.000140509
0.000151161
0.000155071
0.000148028
0.0223966
0.000135844
0.000143811
0.000173881
0.000256134
0.000147902
0.000139779
0.000203167
0.000150089
0.000169384
0.000143086
0.000139904
0.000144591
0.000396617
0.000146106
0.000244626
0.000177459
0.000145555
0.000139697
0.000143876
0.000162067
0.0019751
0.000135874
0.000177853
0.00014186
0.0456215
0.000182161
0.000150389
0.000196927
0.000146263
0.000153027
0.000156732
0.0047245
0.000161191
0.000157469
0.000161291
0.00384375
0.000147609
0.000171794
0.000144611
0.000217685
0.000197117
0.00021732
0.000143041
0.000163809
0.00158907
0.000389045
0.000153163
0.000155176
0.00201174
0.00186689
0.000140437
0.000174253
0.000143457
0.000155632
0.000146086
0.000150647
0.000150091
0.000106443
0.000147404
0.000148267
0.000177858
0.00410901
6.01366e-05
0.000190181
0.00651064
0.000139947
0.00158052
0.000180682
0.000142208
0.000141783
0.00231894
0.000154772
0.000145224
0.000142286
0.000176154
0.000138694
0.000142839
0.0390421
0.000145648
0.000148255
0.000141106
0.000143898
0.000151512
0.000139507
0.0288385
0.000164521
0.000151648
0.000139448
0.000164059
0.010479
0.000142537
0.000148224
0.00199006
0.00021604
0.000143509
0.000155383
0.000138701
0.000140434
0.000193132
0.000198016
0.000140465
0.000143772
0.001999
0.00028759
0.0105911
0.000199983
0.000160603
0.00333019
0.000140787
0.000156345
0.000155202
0.000139876
0.000134127
0.0128475
0.000169751
0.000228913
0.0205225
0.000134121
0.000133264
0.000151026
0.000170422
0.00963822
0.000136417
0.000173414
0.00683653
0.0355192
0.000147184
0.000151321
0.00212529
0.000143178
0.000155216
0.00405513
0.000140882
0.000142529
0.000139626
0.00016578
0.000142035
0.000162532
0.000148758
0.000213657
0.000161728
0.00424586
0.000143262
0.000142245
0.00016299
0.00014798
9.4631e-05
0.000150526
0.000186133
0.000187701
0.000140838
0.000144412
0.0492474
0.0356266
0.00349758
0.000139117
0.000143414
0.000155268
0.000145119
0.000143136
0.000144051
0.000154361
0.000147745
0.000139502
0.000139757
0.000184579
0.000153597
0.000173671
0.00558611
0.000181594
0.000173697
0.000156248
0.000186332
0.000219988
0.000163225
0.000156379
0.000159504
0.000141808
0.000601121
0.000136719
0.000135748
0.000140869
0.00636781
0.000142528
0.00656088
0.000148055
0.000134972
0.000185049
0.000143082
0.000142306
0.000143063
3.07309e-05
0.000245255
0.000147636
0.000139921
0.000151832
0.00908251
0.000173158
0.00219718
0.000143394
0.000174152
0.00014701
0.000145723
0.00013613
0.000138955
0.00014342
0.000148492
0.000887305
0.000153814
0.000153202
0.000190126
0.0151837
0.00018911
0.000142052
0.0001931
0.000164309
0.0104968
0.000137293
0.000143193
0.000149507
0.00030348
0.000132461
0.000144617
0.000138897
0.000136529
0.000189381
0.000151473
0.000192753
0.000152084
0.000132261
0.000159812
0.000144026
0.00360469
0.000143195
0.000165944
0.000148116
0.000159998
0.00014952
0.000179762
0.00244208
0.000142284
0.000183733
0.0481619
0.0001417
0.000146576
0.00017053
0.000131929
0.00368818
0.000181565
0.000142467
0.000177427
0.000134284
0.000162991
0.000148463
0.000142212
0.000136453
0.000150065
0.000140522
0.000138834
0.000145075
0.000147505
0.000173672
0.000136169
0.000208255
0.00013848
0.000140379
0.000160041
0.000178145
0.000149689
0.000132048
0.000142429
0.000153766
0.000176265
0.00616087
0.000164558
0.000149163
0.000149147
0.000139549
0.00016297
0.000140693
0.000151672
0.0243716
0.000168615
0.000171727
0.000141147
0.000147502
0.000150041
0.000132169
0.000183303
0.00013483
0.00024007
0.00014939
0.000224828
0.000159134
0.0178189
0.000147319
0.000185884
0.00176915
0.00462615
0.000504136
0.00015781
0.00308308
0.0308402
0.000148781
0.000165442
0.051791
0.000138662
0.000139086
0.00014395
0.000155732
0.000222414
0.000145903
0.000158757
0.00748899
0.00013017
0.000144616
0.0134504
0.000611481
0.000184383
0.000661022
0.00371506
0.000150086
0.000195092
0.000153943
0.000155291
0.00463527
0.00015399
0.0401848
4.43201e-05
0.000154171
0.000145759
0.000150728
0.000154621
0.000139826
0.00386611
0.000132379
0.000142853
0.000142933
0.00190839
0.040051
0.000263792
0.000144726
0.000150103
0.000138971
0.0523791
0.000143217
0.000149508
0.000154257
0.000208536
0.00013846
0.000185238
0.0433035
0.00235938
0.000147745
0.00163777
0.000139649
0.000519708
0.000132784
0.000156867
0.000142734
0.000176936
0.000160608
0.0126014
0.000209374
0.000152222
0.000153612
0.000176358
0.000154906
0.000141923
0.000138775
0.00015612
0.00014747
0.00198151
0.000131058
0.000142829
0.000144248
0.00014381
0.0018821
0.000139336
0.000134484
0.000146399
0.00227227
0.000166236
0.000176514
0.000152111
0.000151429
0.000187996
0.000139893
0.00014322
0.00019096
0.000171766
0.00013444
0.000172977
0.000152692
0.00202078
0.000142723
0.00024127
0.000142442
0.000143192
0.000135178
0.000134911
0.000142301
0.000141395
0.0067864
0.000185252
0.000146772
0.000143135
0.000142381
0.000151526
0.000159185
0.0395473
0.000146708
0.000200207
0.000163282
0.00240521
0.000147407
0.000175929
0.000143081
0.000142749
0.000162818
0.000142576
0.000145683
0.000140369
0.000136429
0.0534658
0.000143592
0.000139289
8.16442e-05
0.00194705
0.000191587
0.000141401
0.000135592
0.000155243
0.0437715
0.000153637
0.000147903
0.000147211
0.00391921
0.000148612
0.000143778
0.000204442
0.000141319
0.000156757