/*--------------------------------*- C++ -*----------------------------------*\
| =========                 |                                                 |
| \\      /  F ield         | OpenFOAM: The Open Source CFD Toolbox           |
|  \\    /   O peration     | Version:  v2012                                 |
|   \\  /    A nd           | Website:  www.openfoam.com                      |
|    \\/     M anipulation  |                                                 |
\*---------------------------------------------------------------------------*/
FoamFile
{
    version     2.0;
    format      ascii;
    class       volScalarField;
    location    "350";
    object      k_0;
}
// * * * * * * * * * * * * * * * * * * * * * * * * * * * * * * * * * * * * * //

dimensions      [0 2 -2 0 0 0 0];


internalField   nonuniform List<scalar> 
18355
(
0.0002757
0.00013705
0.000186336
0.000140647
0.000220502
0.00530215
0.000146147
0.000222584
0.000150291
0.00318585
0.00015772
0.000188269
0.000189592
0.00034372
0.00014177
0.000135474
0.000140619
0.000153884
0.000210982
0.00015313
0.000304903
0.000149102
0.000136961
0.00523418
0.000136995
0.000148773
0.0001466
0.000141053
0.000152659
0.000158891
0.000385735
0.000184379
0.000137726
0.000134305
0.000145999
0.000150616
0.000160006
0.000151019
0.000159706
0.000148486
0.000150445
0.000158684
0.000134464
0.000136873
0.000136983
0.000237729
0.000141195
0.000141065
0.000892783
0.000145039
0.000141679
0.000529707
0.000145482
0.000215984
0.000143143
0.000153918
0.000145637
0.000723949
0.000149388
0.0250565
0.00013441
0.000181204
0.000216065
0.000143818
0.000196225
0.000139637
0.000154777
0.000160208
0.000133987
0.00924708
0.000142295
0.000143174
0.00017611
0.000155989
0.000846998
0.000134151
0.000684523
0.000134267
0.000141982
0.00113566
0.0001547
0.0030313
0.000134097
0.000156936
0.000183881
0.000148874
0.000151515
0.000174149
0.000140524
0.000174541
0.00170941
0.000312694
0.00301423
0.000144971
0.00669231
0.000148154
0.000140067
0.000145301
0.000188271
0.000148704
0.000180667
0.000141667
0.000144577
0.000130118
0.000155164
0.000135598
0.000195912
0.00684508
0.000167012
0.000135092
0.000142346
0.000147481
0.000167704
0.000156323
0.000745666
0.000161341
0.000141392
0.00229462
0.000152499
0.000154367
0.00829472
0.000118938
0.00339151
0.000178677
0.00274515
0.000140304
0.000146639
0.00014073
0.000280984
0.000147642
0.000140133
0.00325853
0.000143482
0.00018424
0.000211985
0.000140604
0.000209501
0.00660814
0.000141841
0.000309387
0.000157337
0.000114862
0.000140928
0.000670016
0.000213732
0.000146103
0.0337761
0.000131502
0.000167179
0.00323583
0.000140975
0.000154115
0.000146823
0.000202553
0.000134583
0.000137583
0.000140825
0.00014894
0.000141023
0.000138456
0.00015464
0.000143602
0.00013514
0.000244695
0.000156294
0.00296405
0.0346011
0.000305741
0.0121851
0.0001574
0.000146871
0.000183593
0.000148315
0.00153548
0.000146406
0.000148916
0.000146358
0.000130319
0.000151584
0.000163345
0.000149463
0.00284651
0.000148441
0.000141333
0.00190485
0.000144439
0.000148963
0.000173923
0.000143354
0.000147647
0.000199646
0.000187709
0.000137338
0.000134843
0.000143599
0.00243505
0.000138963
0.0003139
0.000137163
0.000390626
0.000144081
0.000152601
0.000159919
0.000148227
0.000296311
0.000146909
0.0104931
0.000141295
0.000137167
0.000144752
0.000146789
0.00416272
0.000168282
0.000148425
0.000131669
0.00247156
0.000163368
0.000156818
0.000147113
0.000141315
0.000166068
0.000134062
0.000171882
0.000221677
0.000164029
0.000162536
0.00013425
0.0047085
0.000252069
0.000171243
0.000145158
0.00015521
0.00322454
0.000134234
0.000220655
0.000186741
0.000149219
0.000201625
0.000155754
0.000147008
0.000137397
0.00015136
0.000144272
0.000169289
0.000146903
0.00014315
0.000141002
0.00390806
0.00649541
0.000142888
0.000147938
0.00641975
0.000193507
0.000203531
0.000130326
0.000146887
0.000155845
0.000146307
0.000160119
0.000139675
0.00317552
0.000277623
0.000185492
0.000161611
0.00016085
0.000177606
0.000280503
0.000190935
0.000139637
0.000143195
0.000149036
0.000135155
0.000152898
0.000157116
0.000140704
0.000146854
0.000167344
0.000140441
0.000199451
0.00831284
0.000164052
0.000147021
0.000162429
0.000135021
0.000174259
0.00014628
0.000165082
0.000147689
0.000164046
0.00351057
0.000137441
0.000173194
0.000152132
0.000159203
0.00026037
0.000144202
0.000134638
0.000195762
0.000146834
0.000193274
0.000160012
0.00127886
0.000174409
0.000186229
0.000153085
0.000168906
0.000144616
0.00015425
0.000161288
0.000173338
0.0024502
0.0103802
0.000142294
0.000160372
0.000210402
0.000163345
0.000142203
0.000141004
0.000141011
0.000172683
0.00890568
0.0475555
0.00243298
0.000166075
0.00015671
0.00328813
0.000131378
0.000146682
0.000156727
0.000144224
0.000171124
0.000144795
0.00313491
0.000135902
0.00283956
0.000143208
0.000148288
0.000154157
0.000192448
0.000331493
0.000169414
0.00204749
0.00014885
0.000140657
0.000144096
0.000158774
0.00327433
0.000140877
0.000145162
0.00219072
0.000148604
0.000141009
0.00019668
0.000156153
0.000141008
0.000144492
0.000166237
0.000150101
0.000166098
0.000135614
0.000144076
0.000148478
0.0174818
0.00158084
0.000135302
0.000140742
0.000191069
0.000141073
0.000147253
0.00355616
0.00136783
0.000170937
0.000143932
0.000149414
0.00018982
0.000151174
0.000185415
0.0001544
0.00013664
0.000184563
0.000208613
0.000148017
0.000143519
0.0001539
0.000145794
0.000154751
0.000143612
0.000216216
0.000146343
0.00015355
0.000142334
0.000141064
0.000152569
0.000150662
0.000178842
0.0549743
0.00258921
0.000153271
0.000193779
0.000180169
0.000143417
0.000144678
0.000171406
0.000143365
0.000172972
0.000145391
0.000158791
0.00292528
0.000245609
0.000325334
0.000188685
0.000130219
0.0470597
0.00014871
0.000140639
0.000363877
0.000142883
0.000170824
0.000135174
0.000202055
0.000142831
0.000182404
0.00311633
0.00018308
0.000144285
0.00013756
0.000183952
0.000152528
0.00014285
0.00307571
0.000247627
0.000140571
0.000172129
0.000179116
0.000137472
0.000149468
0.000167577
0.00307878
0.000172641
0.000148591
0.000144988
0.000168015
0.000143538
0.000136035
0.00014384
7.64167e-05
0.054747
0.000136417
0.000151959
0.000144565
0.000194958
0.000203058
0.000134842
0.000170637
0.000172597
0.000145333
0.00390114
0.000181708
0.000148661
0.000144508
0.000171552
0.000194649
0.00055898
0.000136192
0.000362293
0.000142288
0.000136407
0.000176833
0.000152961
0.000222063
0.000175814
0.000153945
0.000156905
0.000149118
0.000195407
0.000152898
0.000160401
0.00014889
0.000135948
0.000147991
0.000136155
0.000182026
0.0549085
0.000202343
0.000154574
0.000147226
0.000148869
0.000148759
0.000152958
0.000145092
0.000135647
0.00014377
0.000174531
0.000137502
0.000145378
0.00556108
0.000319842
0.000210997
0.000147481
0.000150894
0.00016768
0.000148893
0.00335767
0.000167451
0.000158673
0.000157139
0.000158592
0.000150548
0.000154614
0.0464494
0.000168375
0.000149414
0.00408749
0.00014612
0.000319726
0.0460726
0.000156495
0.000149256
0.0480532
0.000140774
0.000181798
0.000184935
0.00240494
0.000152905
0.000147859
0.000145222
0.0008418
0.000631867
0.00198731
0.00237933
0.000152938
0.000145077
0.000156891
0.000143207
0.000156712
0.000377898
0.0033387
0.0548277
0.0211935
0.000173118
0.00018112
0.000169259
0.000141259
0.00014227
0.000177857
0.000157963
0.000146474
0.000143157
0.00303284
0.000139969
0.0189365
0.000162645
0.000182418
0.000190965
0.000142307
0.000156373
0.000287956
0.000143732
0.0542097
0.000142727
0.000297541
0.000168421
0.000148087
0.000168974
0.000189884
0.000190014
0.000150046
0.000134004
0.000166959
0.000156768
0.000183024
0.000143536
0.000181414
0.000139927
0.00028464
0.000147074
0.000143677
0.000216386
0.000209417
0.000203395
0.000145036
0.000157841
0.000156789
0.00306919
0.0500889
0.000155775
0.000244651
0.000145515
0.000162247
0.000148177
0.000155392
0.048274
0.000136817
0.00278482
0.000146759
0.000146004
0.000155915
0.0032814
0.000152642
0.000203449
0.000149859
0.000166584
0.0033134
0.000131532
0.000141059
0.000325891
0.00017349
0.00430608
0.000177338
0.000147822
0.000143166
0.000142677
0.000155646
0.000149285
0.000137179
0.000231611
0.0143449
0.000143455
0.00676515
0.00483988
0.000156084
0.000131611
0.000136257
0.000264654
0.00166056
0.000132601
0.00319504
0.000169615
0.0180714
0.00343145
0.000143488
0.000142621
0.00014772
0.00244212
0.000172409
0.000144729
0.00014907
0.000228688
0.000148458
0.000170317
0.000143402
0.000168402
0.0524668
0.00053252
0.000266458
0.000518077
0.000175541
0.000471473
0.000157124
0.000140602
0.000160199
0.00364494
0.000212053
0.000171247
0.00014449
0.000245996
0.000144449
0.000148038
0.0231196
0.000149091
0.000161206
0.000206774
0.000199327
0.000144645
0.000142893
0.000155771
0.000158583
0.000134178
0.000149919
0.000171134
0.000219361
0.000153424
0.000144215
0.000176964
0.00338711
0.000143897
0.000435565
0.0010227
0.000145226
0.000431084
0.000134795
0.000141755
0.000143731
0.000135635
0.000206819
0.000153395
0.00147022
0.000153089
0.000142922
0.000418981
0.000143703
0.000134922
0.000145251
0.000140717
0.000162014
0.000172491
0.000338944
0.00015161
0.0543396
0.000151465
0.000371378
0.00776197
0.000149568
0.000144056
0.000157807
0.000136412
0.000186197
0.000142514
0.000134785
0.000135638
0.000144525
0.000143648
0.000102574
0.000155406
0.000174376
0.000153772
0.000159667
0.000153981
0.000187583
0.000318595
0.000137434
0.000181424
0.000179616
0.000134426
0.00408303
0.0523159
0.000141572
0.000140774
0.00014589
0.00330457
0.000166485
0.000132391
0.000167298
0.000159346
0.000291861
0.000142816
0.000155095
0.000450632
0.000212435
0.00136601
0.000143617
0.00244462
0.000179043
0.0002611
0.000143542
0.000152393
0.000143088
0.000146137
0.000142089
0.000144863
0.000136818
0.000214387
0.000165262
0.000140462
0.000134241
0.000140464
0.000148327
0.000208708
0.00017872
0.000137426
0.000158559
0.000146789
0.000147029
0.000145753
0.00014086
0.000157399
0.000134247
0.000140268
0.00014904
0.00014725
0.000154681
0.000144445
0.000505408
0.000281336
0.000156017
0.000140116
0.000193154
0.000134662
0.000134307
0.000143809
0.00104431
0.000154599
0.000144242
0.000135885
0.000137212
0.000156432
0.000133928
0.000159166
0.000142428
0.000148226
0.000141996
0.00015215
0.00049126
0.000140557
0.000148804
0.000142461
0.00021371
0.00259989
0.000159457
0.000149303
0.000181565
0.000163463
0.000173417
0.0432476
0.0001486
0.00176526
0.000148937
0.0211034
0.000150516
0.000136903
0.000135746
0.0085754
0.000135621
0.000159785
0.000231043
0.00020013
0.00017902
0.000152449
0.000141651
0.000143954
0.000143712
0.000160959
0.000191841
0.00295468
0.000175197
0.000145501
0.000133952
0.000154193
0.000141929
0.00014089
0.000148477
0.000174388
0.000161797
0.00321378
0.00014541
0.000144432
0.000171808
0.000143212
0.00019595
0.00017551
0.000176765
0.000192112
0.0260941
0.000161812
0.000141222
0.000134007
0.000147638
0.000142488
0.00975775
0.000172337
0.000185801
0.000136915
0.000147089
0.000153007
0.000141132
0.0408808
0.000275328
0.000134318
0.00013599
0.000142704
0.000142114
0.000140934
0.000144558
0.000161933
0.000134982
0.000149811
0.000136931
0.000137942
0.000142216
0.000145916
0.000159385
0.000137893
0.00019989
0.000135871
0.00132383
0.000167408
0.000153828
0.00191554
0.000154693
0.0001488
0.000180136
0.00278007
0.000143859
0.00013929
0.000137071
0.000178986
0.000150695
0.00016172
0.00152475
0.000146345
0.000149388
0.000144699
0.022739
0.00200784
0.000151581
0.000139089
0.000158594
0.000173808
0.000142358
0.000189107
0.000139536
0.000134029
0.000156267
0.000392793
0.0026019
0.00297043
0.00015395
0.000134674
0.000144679
0.00021187
0.000160943
0.000143689
0.000210511
0.000158572
0.000244248
0.000167856
0.000142131
0.00013472
0.000144743
0.000150039
0.000134869
0.00116813
0.00302236
0.000134616
0.000146555
0.00014897
0.000168238
0.000144236
0.000142086
5.99302e-05
0.000149188
0.00014254
0.00278884
0.000190177
0.000184447
0.000142424
0.000135936
0.000134807
0.000154721
0.000186752
0.000215775
0.000140636
0.000138212
0.00015223
0.0023438
0.0001371
0.000143982
0.000189405
0.00014103
0.000139243
0.000143658
0.0194094
0.000135751
0.000144528
0.000137157
0.000166259
0.000135756
0.000158889
0.000193177
0.000144013
0.000212718
0.000163364
0.000217718
0.000180415
0.000140881
0.000162543
0.000140546
0.000139121
0.00014089
0.00485748
0.00365648
0.000256748
0.000160262
0.000375109
0.00018037
0.000150506
0.000191005
0.000192954
0.000156513
0.000135602
0.00868309
0.000150199
0.000139758
0.000137488
0.00247384
0.010491
0.000359001
0.000138943
0.000183277
0.00191545
0.000194759
0.000164179
0.00015541
0.000152778
0.000165698
0.00321149
0.000151452
0.000150359
0.000156658
0.0422082
0.000349529
0.000144167
0.000147469
0.000143204
0.0302809
0.000153702
0.000148771
0.000333314
0.000158795
0.000174246
0.000155285
0.00314043
0.000138642
0.0195622
0.000149871
0.000135791
0.000141291
0.000135996
0.000135833
0.000140836
0.00014799
0.000360015
0.000137236
0.0211174
0.000159611
0.000147556
0.000140552
0.000189139
0.000143472
0.00014656
0.000152973
0.000407167
0.000188688
0.000153375
0.000146481
0.0417417
0.00013861
0.000176045
0.00014627
0.000376745
0.000165485
0.00368727
0.000159859
0.000142927
0.000139118
0.000477124
0.000229842
0.00013772
0.000143589
0.000167521
0.0490527
0.000131028
0.000178029
0.000141082
0.000157708
0.000140482
0.000134849
0.000149158
0.000150065
0.000135295
0.000174145
0.000173382
0.000160803
0.000190203
0.010575
0.000150356
0.00224131
0.000136362
0.000185656
0.0186959
0.000195122
0.000134635
0.000150539
0.000146061
0.000605945
0.000145068
0.000139518
0.000182897
0.000146359
0.00014628
0.000150005
0.000149648
0.000142956
0.0466259
0.00529845
0.000180066
0.000139209
0.000144845
0.0002437
0.000136116
0.000259194
0.000147246
0.000145866
0.000149264
0.000157656
0.000233515
0.000137107
0.000145197
0.000346493
0.000146983
0.00014848
0.000167639
0.0336204
0.00324168
0.000144455
0.000143285
0.0480164
0.00403555
0.000282715
0.000141269
0.000165503
0.000211225
0.000137729
0.000168861
0.000151525
0.00510932
0.000154421
0.000144994
0.000151567
0.00013575
0.0484317
0.000145067
0.000139444
0.00241426
0.000190387
0.00225529
0.000135147
0.000151888
0.000135558
0.000132084
0.000136079
0.000150736
0.000146683
0.000148541
0.00013571
0.000148201
0.00017789
0.000159245
0.000163022
0.000140425
0.000153297
0.000142032
0.00317216
0.000147466
0.000150601
0.00014727
0.00013577
0.000148357
0.000167218
0.000143919
0.000143378
0.000141125
0.000136127
0.00210108
0.000361617
0.000144474
0.0473656
0.0001674
0.000148567
0.000147796
0.000150305
0.000534194
0.000148531
0.000136384
0.000134565
0.000134629
0.000299524
0.000144713
0.000136903
0.000235287
0.000134055
0.000133273
7.96228e-05
4.92978e-05
0.000221101
0.000192293
0.000805583
0.000135609
0.00338955
0.000158218
0.000143141
0.00013687
0.000172552
0.000143176
0.000164832
0.000181545
0.000152039
0.000150579
0.0247037
0.000208331
0.000353466
0.000243448
0.0020168
0.000236744
0.000139517
6.55044e-05
0.0169141
0.00013503
0.00382519
0.000138922
0.000150957
0.000191801
0.000140464
0.000245034
0.000157877
0.00015255
0.000148039
7.70315e-06
0.000143919
0.0167085
0.000142857
0.000136119
0.000436347
0.000133413
0.000169046
0.000148613
0.000178206
0.000142177
0.000143875
0.000152959
0.00228832
0.000144187
0.00014463
0.000136686
0.000155014
0.000142381
0.000150918
0.00262966
0.00014144
0.000158008
0.00014803
0.000157634
0.000159047
0.00014046
0.000148958
0.000184294
0.000147006
0.000148604
0.000160635
0.00329074
0.000150085
0.000141783
0.000144002
0.00016343
0.000224078
0.00015052
0.000140963
0.000141328
0.000137766
0.000131921
0.000135639
0.000157676
0.000221548
0.000178941
0.000146649
0.000329098
0.000139727
0.000146582
0.0523799
0.000171767
0.000134212
0.000190682
0.000148812
0.000140929
0.00444131
0.000148317
0.00017654
0.000132609
0.000195906
0.0001399
0.000134824
0.000136022
0.00225918
0.000243482
0.000146771
0.000259714
0.000135853
0.00014239
0.000139086
0.000192606
0.000145538
0.000138505
0.000145558
0.000152097
0.000142989
0.000145711
0.000140509
0.000148745
0.000146546
0.000140411
0.000152973
0.000135186
0.000371527
0.000180899
0.0001364
0.000155109
0.000158734
0.000140765
0.000139958
0.000150152
0.000140738
0.000162121
0.000156349
0.000202734
0.000206205
0.000147623
0.000178688
0.000197816
0.000143043
0.000147673
0.000185046
0.000155336
0.00319657
0.000135618
0.000147946
0.000152956
0.000144159
0.000154456
0.000157798
0.000140522
0.000174181
0.000144138
0.000155694
0.000139797
0.000188154
0.000143776
0.000154958
0.000158914
0.00014275
0.00555461
0.000819342
0.000153665
0.000158703
0.000163111
0.000134529
0.000195942
0.000145495
0.000168445
0.000932869
0.0120316
0.000150354
0.000184114
0.000164594
0.000143068
0.0001658
0.000138166
0.0392381
0.000186054
0.000147777
0.000140691
0.000210091
0.00017522
0.000142805
0.000143219
0.0114448
0.000146779
0.000138416
0.0018597
0.000174231
0.000134894
0.000253357
0.000136057
0.0001462
0.000175634
0.000143008
0.000144361
0.000155485
0.000584209
0.000140221
0.000159372
0.000144333
0.000143045
0.000139823
0.000342936
0.000147138
0.000145042
0.000144194
0.000239529
0.000159847
0.000140411
0.000133037
0.000186389
0.000142248
0.000136791
0.000274327
0.0394928
0.00014892
0.000696858
0.000155332
0.000172635
0.000150948
0.000178233
0.00597302
0.000162711
0.000142996
0.000137161
0.00015606
0.000142794
0.000890861
0.000229946
0.000137473
0.000150155
0.000136373
0.000135472
0.00886664
0.000142896
0.000150797
0.000152277
0.000209941
0.000144556
0.000147874
0.000156361
0.00620011
0.000145633
0.00014503
0.000136502
0.000137499
0.00015543
0.000171371
0.000147231
0.000142213
0.000144715
0.000143411
0.000137191
0.0457419
0.000147832
0.000143282
0.000141957
0.000177358
0.000135763
0.000136795
0.000169882
0.000142527
0.000186978
0.000144397
0.000144541
0.00230463
0.0502078
0.0164545
2.25779e-05
0.000158784
0.000147499
0.0501499
0.000139858
0.000156164
0.000135263
0.00148156
0.000130036
0.000155785
0.00014466
0.00610898
0.000177871
1.5778e-05
0.0481674
0.000150872
0.000199301
0.000148062
0.000149099
0.026945
0.000167154
0.000142124
0.000136006
0.000154525
0.000166173
0.000144028
0.000144727
0.000139792
0.000135264
0.000236312
0.00332974
0.00014807
0.000169509
0.0409911
0.000357397
0.000155037
0.00016055
0.000153219
0.000155374
0.000142228
0.000150766
0.000341092
0.000140293
0.000136246
0.000146258
0.000389036
0.000265644
0.000158102
0.000146678
0.000146712
0.000160362
0.000143748
0.000158584
0.000177638
0.000233757
0.00015373
0.000310829
0.000134728
0.000142841
0.00014847
0.000135632
0.000146052
0.000140084
0.000142773
0.000140968
0.00293174
0.000147136
0.000138351
0.000136721
9.12808e-05
0.00015082
0.00017179
0.000188483
0.000136146
0.0091429
0.000152015
0.000137149
0.000133513
0.00254298
0.000111035
0.000133769
0.000140586
0.000141363
0.000151996
0.000199455
0.000227652
0.000149791
0.000150136
0.000192296
0.051794
0.0001494
0.000142075
0.00233731
0.000154767
0.00238556
0.000152488
0.000142389
0.000179239
0.000170122
0.0495726
0.000173229
0.000343474
0.000136066
0.000142306
0.000148957
0.000144999
0.000154726
0.000147838
0.000146265
0.000139536
0.000148674
0.000150156
0.000164354
0.000144334
0.000152663
0.000148899
0.000143684
0.000141947
0.00017501
0.000152188
0.000140382
0.000145303
0.000224607
0.000143761
0.000157404
0.000148061
0.000167786
0.000136698
0.000169006
0.000153454
0.00013599
0.000143818
0.0377537
0.000245323
0.000150908
0.000172008
0.000153969
0.000173532
0.000140051
0.000161881
0.000178996
0.000141234
0.000193901
0.000140916
0.00014325
0.000150763
0.00014897
0.000161777
0.000210389
0.0501548
0.000178768
0.000136197
0.000144515
0.000143365
0.000190962
0.000149144
0.000846432
0.00013978
0.000143896
0.00014354
0.000181388
0.000142634
0.000146669
0.000144418
0.000194206
0.00013668
0.00146326
0.000136212
0.000168649
0.000144495
0.000161912
0.000140833
0.000154232
0.000344193
0.000254609
0.000136244
0.000183773
0.000145297
0.000146904
0.0239347
0.000405246
0.000136171
0.000142752
0.000156082
0.000135907
0.000144179
0.000148579
0.000147739
0.000159523
0.000173966
0.0001502
0.000159128
0.000294552
0.00014711
0.000140693
0.000142115
0.000156824
0.000163082
0.000143801
0.0497682
0.000140868
0.0503155
0.00016702
0.000136554
0.000140224
0.000139965
0.000219383
0.000146368
0.000152711
0.000146318
0.000139915
0.000378692
0.000154094
0.000170778
0.00014739
0.000145667
0.000151787
0.00014328
0.000153835
0.000143473
0.000158341
0.000149421
0.000148536
0.00494774
0.000202988
0.000780916
0.000140939
8.30485e-05
0.000150961
0.00185993
0.000187202
0.00254272
0.000150435
0.000134914
0.000170138
0.00014201
0.00472092
0.00014988
0.000192426
0.000150834
0.0428708
0.0105535
0.000153872
0.000172871
0.000139457
0.000137511
0.000148723
0.000134882
0.00014806
0.00015302
0.000139498
0.00016323
0.000204909
0.00155471
0.000140684
0.000202966
0.000134631
0.000142429
0.000143632
0.000183083
0.000147777
7.79701e-05
0.000147189
0.000144026
0.000439083
0.000140224
0.000152345
0.000142247
0.000155044
0.0023754
0.000166711
0.042486
0.000154284
0.000186704
0.000152889
0.000141755
0.000144626
0.000154209
0.00016448
0.000143116
0.000151984
0.000143204
0.00306987
0.000138378
0.0251629
0.00010114
0.000187523
0.000157863
0.000237937
5.1305e-05
0.000134877
0.000102143
0.00014238
0.0161461
0.000148651
0.000152015
0.00384336
0.0035808
0.000161071
0.0119242
0.000143589
0.00140763
0.000130625
0.0125309
0.000135201
0.000177189
0.00019249
0.000146747
0.000139176
0.000149389
0.000144655
0.000176281
0.00183302
0.000169672
0.00147829
0.000141447
0.00100926
0.000144393
0.000147803
0.000143158
0.00014533
0.00465405
0.000147678
0.000138009
0.000166756
0.000148289
0.00226481
0.000204743
0.000142986
0.000221055
0.000169194
0.000140577
0.000144914
0.000155031
0.000136512
0.000174912
0.000163718
0.000150745
0.000151944
0.000137261
0.000146596
0.000176369
0.000149085
0.00014506
0.000150485
0.000134825
0.000135601
0.000364274
0.000161255
0.0548687
0.000160249
0.000173976
0.000158971
0.000142103
0.000167633
0.000137881
0.000140796
0.00154895
0.000163151
0.000103904
0.000178742
0.00015204
0.000187214
0.00785141
0.000144052
0.000173773
0.000185252
0.0506433
0.000136374
0.000138182
0.000147072
0.000195106
0.00178196
0.000180941
0.000154604
0.000148273
0.000142043
0.000135534
0.00241605
0.000152829
0.000172812
0.00556384
0.000146849
0.000153416
0.000155681
0.000144916
0.000142803
0.000143499
0.000173981
0.000203615
0.000148517
0.000152876
5.23415e-05
0.000142574
0.000148455
0.000153908
0.00014687
0.00487402
0.0046435
0.00263455
0.000205904
0.00272282
0.000152082
0.000139813
0.000178012
0.000168926
0.000160484
0.000143433
0.000135345
0.00245593
0.00022874
0.000141443
0.000139613
0.000162512
0.000319786
0.00015554
0.000134993
0.0475275
0.000152747
0.000167923
0.000134968
0.000159586
0.000131169
0.000151655
0.000158705
0.000142048
0.0394458
0.000149267
0.000170809
0.000206654
0.00145011
0.000201414
0.000142207
0.000177964
0.000155848
0.000176663
0.000151845
0.000176388
0.000145446
0.000151987
0.00263353
0.000152072
0.00258649
0.000140055
0.000212393
0.000135902
0.000148949
0.00208489
0.000156145
0.000210011
0.000162075
0.000149722
0.0527345
0.0459039
0.00014005
0.00223568
0.000173511
0.000138919
0.000134149
0.00036374
0.00100021
0.000139061
0.000136138
0.000148436
0.000136678
0.0475879
9.46616e-05
0.000130199
0.000133264
0.000139959
0.000165517
0.000172345
0.00344474
0.000135906
0.0196425
0.000147265
0.000191333
0.0436941
0.000161125
0.000138669
0.000139952
0.0036593
0.000136594
0.000141104
0.000136416
0.000163352
0.000154539
0.040115
0.0001629
0.000148392
0.000142385
0.000158764
0.000206969
0.000182692
0.000141715
0.000142123
0.000195648
0.000173362
0.000150201
0.00752534
0.000160441
0.000152631
0.0156727
0.000152068
0.000159357
0.000148468
0.00279666
0.000145296
0.000148627
0.000309427
0.000160101
0.000141186
0.000143348
0.000131221
0.00017235
0.000204731
0.000141078
0.000136013
0.000149463
0.00017723
0.000165338
0.000135062
0.000142807
0.000138474
0.000161982
0.000170645
0.000146621
0.000143019
0.0203863
0.000142066
0.00145954
0.00016548
0.000169398
0.000152649
0.000152496
0.000145112
0.000173308
0.000200491
0.000178179
0.036787
0.000164699
0.000140105
0.0293957
0.0001363
0.000179004
0.0447036
0.000160513
0.000141806
0.000154845
0.00018096
0.000142687
0.000143532
0.000183418
0.000142896
0.000152821
0.000140884
0.000147204
0.00013742
0.000201001
0.000188946
0.000135847
0.000141112
0.0155818
0.000142591
0.000137103
0.000140907
0.000140802
0.00146871
0.000158582
0.000152984
0.00015342
0.000149298
0.000137824
0.000177232
0.000185193
0.000159379
0.0034849
0.000153813
0.000154369
0.0369681
0.00014012
0.000136295
0.00014378
0.000140632
0.000148623
0.000132805
0.000150962
0.0400873
0.000143448
0.000141884
0.000153371
0.000140719
0.00119329
0.00014771
0.0448038
0.000224633
0.000169835
0.000162916
0.00284285
0.000165378
0.000143257
0.000152559
0.000140509
0.000151157
0.000155006
0.000148029
0.0221089
0.000135844
0.000143811
0.000173899
0.000256665
0.0001479
0.000139779
0.00020306
0.000150076
0.000169625
0.000143086
0.000139904
0.00014459
0.000397531
0.000146103
0.000244789
0.000177474
0.000145463
0.000139697
0.000143878
0.000162042
0.00196823
0.000135874
0.000177896
0.00014186
0.045517
0.000182655
0.000150396
0.00019636
0.000146263
0.000153022
0.000156745
0.00478649
0.000161254
0.000157488
0.000161324
0.00384706
0.00014761
0.000171707
0.000144612
0.000218491
0.000197118
0.000216978
0.00014304
0.000163798
0.00158014
0.000388814
0.000153146
0.000155173
0.00199522
0.00184877
0.000140437
0.000174294
0.000143457
0.000155624
0.000146087
0.000150647
0.000150091
0.000111502
0.000147406
0.000148266
0.000177903
0.0041054
6.74003e-05
0.000190332
0.00643623
0.000139947
0.00156338
0.000180729
0.000142208
0.000141783
0.00230687
0.000154775
0.000145224
0.000142286
0.000176176
0.000138694
0.000142838
0.0392393
0.000145648
0.000148253
0.000141106
0.000143899
0.00015151
0.000139505
0.0284174
0.000164705
0.00015165
0.000139447
0.000164032
0.0105443
0.000142536
0.00014822
0.00198237
0.000215915
0.000143509
0.000155389
0.000138701
0.000140434
0.000193358
0.000197551
0.000140465
0.000143776
0.00199114
0.000294993
0.010755
0.000200933
0.000160559
0.00332697
0.000140788
0.000156351
0.000155206
0.000139877
0.000125332
0.013062
0.000169802
0.000229845
0.0205343
0.000134122
0.000133265
0.000151025
0.000170428
0.00970371
0.000136417
0.000173432
0.00674575
0.03567
0.000147184
0.000151319
0.00215536
0.000143181
0.000155212
0.00404444
0.000140881
0.000142529
0.000139628
0.000160342
0.000142028
0.000162531
0.000148757
0.000213695
0.000161705
0.00424513
0.000143262
0.000142245
0.000162998
0.000147982
9.44793e-05
0.000150533
0.000186193
0.000187757
0.000140838
0.000144412
0.0491648
0.0357009
0.00362977
0.000139117
0.000143414
0.000155268
0.000145119
0.000143136
0.000144051
0.000154583
0.000147745
0.000139502
0.000139757
0.000184655
0.000153614
0.000173717
0.00569587
0.000181644
0.000173755
0.000156238
0.000186365
0.000220001
0.000163241
0.000156368
0.000159491
0.000141808
0.000602074
0.000136702
0.000135748
0.000140868
0.00634953
0.000142526
0.00656401
0.000148054
0.000134972
0.000185079
0.000143082
0.000142306
0.000143063
3.10557e-05
0.000245564
0.00014764
0.000139921
0.000151833
0.00875138
0.000173197
0.00218819
0.000143395
0.000174182
0.000147011
0.000145723
0.000136129
0.000138955
0.00014342
0.000148549
0.000898525
0.000153829
0.000153222
0.000190275
0.0154128
0.000189185
0.000142051
0.000193148
0.000164322
0.0104394
0.000137293
0.000143196
0.000149594
0.00030534
0.000132461
0.000144617
0.000138897
0.000136528
0.000189371
0.000151473
0.000192715
0.000152216
0.00013226
0.000160031
0.000144026
0.00359071
0.000143194
0.000166361
0.000148116
0.000160008
0.000149519
0.00017982
0.00242533
0.000142284
0.000183613
0.0483073
0.0001417
0.000146575
0.000170539
0.000131929
0.0034308
0.000181483
0.000142466
0.000177456
0.000134284
0.000162888
0.000148462
0.000142212
0.000136452
0.000150063
0.000140523
0.000138834
0.000145075
0.0001475
0.000173729
0.000136172
0.000208433
0.00013848
0.000140379
0.000160023
0.000178133
0.000149686
0.000132048
0.000142429
0.000153767
0.00017634
0.00598747
0.000164571
0.000149163
0.000149147
0.000139549
0.000162981
0.000140693
0.000151672
0.0246098
0.000159658
0.000171762
0.000141147
0.000147497
0.00015004
0.000132169
0.000183454
0.000134829
0.00024029
0.000149389
0.000224449
0.00015914
0.0180646
0.000147322
0.000185917
0.00164067
0.00464809
0.000497426
0.000157805
0.0031007
0.0308978
0.00014878
0.000165457
0.0517511
0.000138666
0.000139086
0.00014395
0.000155727
0.000222395
0.000145902
0.000158757
0.00741724
0.000130169
0.000144616
0.0135606
0.000605949
0.000184349
0.00065272
0.0036626
0.000150086
0.000195085
0.000153961
0.000155315
0.0045737
0.000153991
0.0400666
4.36959e-05
0.000154171
0.000145757
0.000150728
0.000154786
0.000139825
0.00365737
0.000132378
0.000142853
0.000142933
0.00196089
0.0398832
0.000262689
0.000144727
0.000150106
0.000138972
0.0522039
0.000143216
0.000149498
0.000154255
0.000208534
0.00013846
0.000185333
0.0433416
0.0023538
0.000147754
0.00163217
0.000139654
0.000514829
0.000132783
0.000155581
0.000142679
0.000176966
0.00016064
0.0127847
0.000209423
0.000152219
0.000153614
0.000176459
0.0001549
0.000141923
0.000138775
0.000156105
0.000147466
0.00197218
0.000131058
0.000142829
0.000144248
0.00014381
0.001875
0.000139336
0.000134484
0.000146395
0.00227327
0.00016625
0.000176547
0.000152105
0.000151426
0.000188076
0.000139898
0.00014322
0.000191033
0.000171782
0.00013444
0.000172984
0.000152693
0.00201029
0.000142723
0.000241306
0.000142454
0.000143193
0.000135178
0.000134911
0.000142302
0.000141395
0.00658289
0.000185326
0.000146771
0.000143135
0.000142381
0.000151526
0.000159185
0.0392772
0.000146705
0.000200541
0.000163281
0.00239885
0.000147408
0.000175996
0.000143081
0.000142748
0.000162798
0.000142576
0.000145683
0.00014037
0.000136402
0.0534292
0.000143593
0.000139289
8.09165e-05
0.00191317
0.00019188
0.000141386
0.000135591
0.000155237
0.0435972
0.000153634
0.000147902
0.000147213
0.00376739
0.000148612
0.000143776
0.000211241
0.000141312
0.000156769
0.000157443