/*--------------------------------*- C++ -*----------------------------------*\
| =========                 |                                                 |
| \\      /  F ield         | OpenFOAM: The Open Source CFD Toolbox           |
|  \\    /   O peration     | Version:  v2012                                 |
|   \\  /    A nd           | Website:  www.openfoam.com                      |
|    \\/     M anipulation  |                                                 |
\*---------------------------------------------------------------------------*/
FoamFile
{
    version     2.0;
    format      ascii;
    class       volScalarField;
    location    "350";
    object      omega;
}
// * * * * * * * * * * * * * * * * * * * * * * * * * * * * * * * * * * * * * //

dimensions      [0 0 -1 0 0 0 0];


internalField   nonuniform List<scalar> 
18355
(
0.160013
0.0204337
0.182553
0.0209826
0.033562
0.727174
0.0215574
0.0360277
0.0220251
0.380564
0.0249915
0.101989
0.108538
0.0999601
0.0210341
0.0201983
0.0209753
0.0237813
0.126496
0.022713
0.175721
0.0219142
0.0204641
0.724103
0.0204701
0.0220008
0.0215836
0.0210193
0.0223096
0.0255955
0.193275
0.0454652
0.0203524
0.0200684
0.0212368
0.0221864
0.0271025
0.0222608
0.0260149
0.021845
0.0222718
0.0254687
0.0200867
0.0204204
0.0204314
0.285003
0.0209944
0.020983
0.27057
0.0212777
0.0208597
0.4736
0.0213419
0.106298
0.0212874
0.0228369
0.0212406
0.262492
0.0220997
4.39273
0.0200782
0.0692681
0.105073
0.0212866
0.0580958
0.0206274
0.0237304
0.0272238
0.0200203
0.737113
0.0209399
0.0212885
0.0377511
0.0246147
0.239103
0.0200388
0.284077
0.0200497
0.0209086
0.292394
0.023685
0.472033
0.0200305
0.0246751
0.0496003
0.0217709
0.0223022
0.0392328
0.0208761
0.0394865
0.416038
0.144403
0.474948
0.0212702
0.686587
0.0218767
0.0208618
0.0213675
0.0658346
0.0218378
0.0459912
0.02088
0.0212163
0.0195141
0.0238763
0.0202107
0.057482
0.6821
0.0322919
0.0201548
0.0208582
0.0215338
0.0307069
0.0243819
1.09756
0.0268931
0.0208548
0.40423
0.0228205
0.0235606
0.746713
0.160058
0.564515
0.0443705
0.439058
0.280947
0.0216182
0.020976
0.167648
0.0216647
0.020865
0.881168
0.0212675
0.0650393
0.0836043
0.0208713
0.130849
0.687965
0.0211207
0.175787
0.0251821
0.0126382
0.0209541
0.272147
0.0848151
0.0216463
4.33301
0.0196119
0.0303018
0.258876
0.0210118
0.0234636
0.0212999
0.0305593
0.0200974
0.0205192
0.0209818
0.0217831
0.0209627
0.0206156
0.023977
0.0212748
0.0201618
0.0290503
0.0247984
0.388264
4.3591
0.182827
1.59194
0.0251957
0.0214392
0.0625713
0.0216924
0.352519
0.0213241
0.0220174
0.0213836
0.0195296
0.0226456
0.0284607
0.0218672
0.38127
0.0217906
0.0210433
0.324769
0.0212007
0.0217966
0.0384676
0.0213512
0.0217203
0.281705
0.0653902
0.0204644
0.0200524
0.0213814
1.82476
0.0205615
0.201871
0.0204444
0.116258
0.0211539
0.0231332
0.026167
0.0217194
0.17914
0.0215856
1.58095
0.0210382
0.0202995
0.0214588
0.0215532
0.596503
0.0252289
0.0233601
0.0196189
0.43976
0.0284688
0.0250391
0.0216036
0.0209947
0.0314064
0.0199752
0.0368137
0.0340295
0.0300032
0.0247213
0.0199952
0.602996
0.134341
0.0338869
0.0213905
0.023906
0.340738
0.0199895
0.0211266
0.023689
0.0219853
0.283764
0.0245891
0.0227519
0.0204618
0.022564
0.0210087
0.0324218
0.0215824
0.0212937
0.0209863
0.576086
0.727093
0.0210105
0.0224313
0.719875
0.137218
0.0323593
0.0195331
0.0165883
0.0246242
0.0216719
0.0243781
0.0208112
0.255545
0.0434836
0.0607017
0.0287114
0.0266607
0.0262112
0.038834
0.0708105
0.0208045
0.0212956
0.0218881
0.0201524
0.0231947
0.0252266
0.0209793
0.0215648
0.0292403
0.0208575
0.0725242
0.729659
0.0277792
0.0215806
0.0275044
0.0201405
0.0396792
0.0215331
0.0295549
0.0218322
0.0288499
0.264644
0.0203282
0.0416438
0.0227139
0.0233956
0.0421684
0.0213195
0.0200358
0.0674825
0.0215606
0.0145653
0.027146
0.420681
0.0403554
0.0622218
0.0234163
0.0300415
0.021214
0.0237955
0.0284254
0.0416311
0.321871
3.08808
0.0210793
0.0243283
0.0945252
0.0280719
0.0210745
0.0209745
0.0209982
0.0432926
2.77854
3.41673
0.322859
0.028812
0.0248598
0.480071
0.0196112
0.0215639
0.0248472
0.021372
0.0339329
0.0210837
0.43077
0.020233
0.471131
0.0213094
0.0218009
0.0237747
0.124635
0.199428
0.032615
0.301723
0.0218847
0.0208877
0.0213616
0.0240204
0.381722
0.02091
0.0215125
0.261306
0.021829
0.020913
0.148135
0.0235649
0.0209925
0.0212747
0.0303825
0.0222347
0.030199
0.0200741
0.0213672
0.021799
4.25647
0.287323
0.0200456
0.0209407
0.0310105
0.0210062
0.021538
0.49378
0.264019
0.0308088
0.021345
0.022028
0.11096
0.0220169
0.0203964
0.0238773
0.0202704
0.0296521
0.0318997
0.0217229
0.0212986
0.0237674
0.0215445
0.0231279
0.0213816
0.0678743
0.0212247
0.0232506
0.0209245
0.0209999
0.0230429
0.0221781
0.0557639
3.72536
0.335706
0.0228973
0.132155
0.0265394
0.0213176
0.0210521
0.0393145
0.0213508
0.0317432
0.021426
0.025938
0.457611
0.103798
0.190568
0.0646689
0.0195211
2.7921
0.02184
0.0209699
0.205645
0.0212923
0.0263995
0.0195586
0.0630454
0.0212863
0.060466
0.398748
0.0566052
0.0212841
0.0204649
0.0583573
0.0228363
0.0210105
0.383851
0.0347261
0.0209631
0.040208
0.055973
0.0204602
0.0220639
0.0311995
0.710464
0.0388496
0.02183
0.0212635
0.0351067
0.0212725
0.0201933
0.021167
0.0607753
3.78766
0.0202525
0.0222242
0.0214306
0.134551
0.0319777
0.0200386
0.0260976
0.0377249
0.0214859
2.2194
0.0702827
0.0218297
0.0213933
0.0375156
0.13939
0.178334
0.0202299
0.242284
0.0211641
0.020247
0.0431069
0.0229972
0.0735453
0.0376747
0.0234032
0.0250216
0.0219197
0.140954
0.0229603
0.0277739
0.0218769
0.0202064
0.0217309
0.020223
0.0695491
3.71502
0.062797
0.0240807
0.0215997
0.0218763
0.0219266
0.0233934
0.0216617
0.0200443
0.0213903
0.0401694
0.0204681
0.0216279
1.83566
0.212811
0.0969018
0.0216447
0.0220362
0.0313752
0.0218746
0.267898
0.621772
0.0239014
0.0247161
0.0253019
0.0222692
0.0237454
4.29933
0.0327511
0.0219647
0.342972
0.0216195
0.195168
2.7642
0.0250289
0.0220157
4.20976
0.0209865
0.0584205
0.0456678
0.315392
0.0229572
0.0217115
0.021473
0.137511
0.187531
0.288175
0.366493
0.0232881
0.021461
0.0246812
0.0213021
0.0236129
0.165655
0.510944
3.64153
1.31732
0.0284308
0.0424532
0.0317751
0.021003
0.0211505
0.0295925
0.0243306
0.0215496
0.0212995
0.497296
0.0208462
1.27518
0.0252292
0.0654331
0.118236
0.0211562
0.0243811
0.180436
0.0213842
3.43021
0.0211777
0.12905
0.0327461
0.0218883
0.0314684
0.0695475
0.0665288
0.0219492
0.0200056
0.0336951
0.0252005
0.0666601
0.0213779
0.0708905
0.020839
0.412329
0.0213378
0.0211779
0.20283
0.02787
0.0310158
0.0211499
0.0250429
0.0230314
0.436107
3.42458
0.0243752
0.0305496
0.02125
0.0274292
0.0217482
0.0241793
3.73052
0.0204239
0.345345
0.0215466
0.0213212
0.0243645
0.265871
0.0222251
0.0731407
0.0220288
0.0340169
0.395644
0.0196203
0.0209941
0.22526
0.0381993
1.72039
0.039375
0.0217059
0.0213054
0.0209827
0.0245339
0.0219747
0.0198481
0.1036
1.40389
0.021162
0.879462
0.808101
0.024246
0.192884
0.0202113
0.149074
0.223076
0.0196952
0.385865
0.0372046
3.80006
0.452236
0.0211035
0.0209757
0.0216085
0.363032
0.042533
0.0213099
0.0219629
0.102012
0.0217937
0.0382008
0.021073
0.0357134
3.05093
0.0753589
0.0436066
0.0864016
0.0402351
0.231765
0.0247293
0.0209187
0.0262924
0.467736
0.0294181
0.0409098
0.0212974
0.130839
0.0214065
0.0217462
2.95625
0.021779
0.0268919
0.0332903
0.0682518
0.0214731
0.0212936
0.0242768
0.0254301
0.0199722
0.0219645
0.0330315
0.112217
0.0232111
0.0213051
0.0423945
0.405936
0.0212443
0.0608499
1.50656
0.0214767
0.28559
0.0200091
0.137295
0.0213552
0.0200168
0.198468
0.0231311
0.579882
0.0230796
0.0212982
0.279713
0.0213512
0.0201356
0.0215169
0.0209293
0.027376
0.0373361
0.19669
0.0221407
3.4947
0.022637
0.0450717
0.711024
0.0220784
0.0213552
0.0250559
0.0200829
0.0902406
0.0211925
0.0201124
0.0201323
0.0212963
0.0213752
0.619251
0.0243878
0.0432033
0.0228314
0.0242284
0.0237024
0.0281926
0.0476623
0.0204698
0.0683137
0.0452459
0.0200098
0.565603
3.05334
0.0208158
0.0235517
0.0212954
0.345555
0.0338265
0.0196759
0.0342126
0.0258035
0.0267723
0.0209546
0.024229
0.120266
0.0784937
0.365287
0.0213704
0.316774
0.0631739
0.14286
0.0213767
0.0228877
0.0210389
0.0214869
0.0210721
0.0210976
0.0204181
0.0322045
0.0251192
0.0208654
0.0200601
0.0206395
0.0217859
0.0745076
0.0615422
0.0203218
0.0253992
0.0215378
0.0215684
0.0214992
0.0209514
0.0134709
0.0200545
0.0208872
0.0218218
0.0216172
0.0233251
0.020921
0.64704
0.132793
0.0244857
0.0208695
0.13291
0.0201011
0.0200624
0.0217481
0.298261
0.0240035
0.0213024
0.020156
0.0204528
0.0248628
0.0200121
0.0258611
0.021184
0.0217558
0.0210711
0.0227978
0.0744786
0.0209114
0.0218579
0.0211419
0.148033
0.323808
0.0269755
0.0219793
0.0261974
0.0256349
0.0140343
4.39085
0.021758
0.261148
0.0218825
1.36255
0.0221734
0.0202835
0.0200452
0.735889
0.0200258
0.0272373
0.0237548
0.164722
0.0403768
0.0223673
0.0210071
0.0209924
0.0212292
0.0281973
0.086047
0.424766
0.0432481
0.0215324
0.0200079
0.0226308
0.0210724
0.0208214
0.021801
0.0431191
0.0246022
0.482496
0.0215256
0.021441
0.033564
0.0213075
0.141665
0.0438092
0.0417466
0.116176
4.38454
0.0273951
0.0209901
0.0200157
0.0216856
0.0212263
0.741125
0.0421368
0.0862721
0.0203098
0.0215983
0.0228532
0.020839
4.45157
0.0445919
0.0200573
0.0200718
0.0210079
0.0210788
0.0209179
0.021282
0.230163
0.0199673
0.0220347
0.0203151
0.0205902
0.0210807
0.0214666
0.0256975
0.0205839
0.0258631
0.0201511
0.22121
0.219779
0.023697
0.403074
0.0227746
0.0218988
0.0581105
0.374895
0.021324
0.020693
0.0204788
0.0254754
0.0220405
0.027388
0.283599
0.0215028
0.021994
0.0214843
1.37061
0.30143
0.0221331
0.0206018
0.0246061
0.0397785
0.0211451
0.0659745
0.0207729
0.0199684
0.0246171
0.0795325
0.383473
0.335087
0.231214
0.0200474
0.055731
0.0700643
0.025337
0.0212237
0.069627
0.0239015
0.176647
0.0143969
0.0208208
0.0200546
0.0214817
0.0220677
0.0200584
0.313705
0.38405
0.020111
0.0215247
0.0219077
0.0357593
0.0212645
0.0208895
0.028133
0.0219118
0.0210198
0.336844
0.0791765
0.0695655
0.0212248
0.0202393
0.020125
0.0230335
0.0275725
0.0323043
0.0208776
0.0205671
0.0225347
0.315291
0.0204644
0.0214198
0.064917
0.0209185
0.0207643
0.0213538
1.45544
0.0202191
0.02145
0.0204673
0.0263366
0.0202298
0.0260533
0.130305
0.0214205
0.131724
0.0293726
0.227087
0.0522722
0.0209944
0.0259475
0.0208545
0.0207488
0.0210062
0.49428
0.334503
0.0278939
0.0273107
0.0607093
0.0595474
0.0221258
0.0827918
0.0425773
0.0237738
0.0200728
0.936843
0.0222509
0.0207055
0.0203934
1.76928
1.30743
0.212623
0.0207171
0.0758399
0.261601
0.0273997
0.0287846
0.02389
0.0228436
0.0327631
0.35209
0.0227739
0.0222967
0.0244679
2.49138
0.438303
0.0212563
0.0215011
0.0210654
3.96911
0.023572
0.0219037
0.0445401
0.0260175
0.0353076
0.0238402
0.252359
0.0206808
1.34466
0.0221016
0.0200799
0.0209901
0.0199958
0.0200738
0.0208983
0.0217182
0.521724
0.0204535
1.37299
0.0268391
0.0216822
0.0207676
0.0765059
0.0212063
0.0215126
0.0236622
0.171686
0.0399972
0.0231288
0.0215421
3.66091
0.0206759
0.0423545
0.0215239
0.21974
0.0294762
0.259445
0.0263679
0.0210178
0.00859329
0.449537
0.0373248
0.0205589
0.0213469
0.0352895
3.72348
0.0195774
0.0471232
0.0217656
0.0254316
0.0208688
0.0200439
0.0219731
0.022148
0.0200427
0.0353337
0.0356924
0.0245084
0.115115
0.989392
0.022218
0.311474
0.0201441
0.0888265
3.90368
0.152047
0.0200217
0.0221345
0.021503
0.200924
0.0211479
0.0207559
0.0732147
0.0215072
0.0215298
0.0221993
0.0220479
0.0212492
2.87089
0.367419
0.0551638
0.0207591
0.0214608
0.114446
0.020056
0.020896
0.0216014
0.0214897
0.0220053
0.0239233
0.273607
0.021108
0.0214817
0.230266
0.0215742
0.0218027
0.0355077
4.02373
0.354688
0.0214334
0.0210596
3.36527
0.478747
0.165018
0.0210542
0.0325035
0.207397
0.0203574
0.0192017
0.0227876
0.500944
0.0235037
0.0215039
0.0222854
0.0200932
3.56997
0.0214706
0.0204567
0.316827
0.0306917
0.349221
0.020002
0.0226368
0.0200373
0.0196509
0.0202043
0.0223051
0.0216202
0.0218285
0.0200809
0.0217523
0.0465222
0.0260757
0.023868
0.020631
0.023506
0.0210785
0.255449
0.0216405
0.0221464
0.0215608
0.0200324
0.0217891
0.022046
0.021163
0.021236
0.0208342
0.0202121
0.352012
0.0384656
0.0212302
3.61124
0.0341297
0.0217428
0.0217068
0.0222087
0.11585
0.021905
0.0201296
0.0201028
0.0200308
0.186457
0.0213006
0.0202882
0.165012
0.0200132
0.0197289
0.0124734
0.0120622
0.0772034
0.120711
0.79833
0.020077
0.727904
0.0256507
0.0212309
0.0204266
0.025802
0.0212865
0.0299946
0.0544551
0.0230228
0.022007
2.95048
0.0522009
0.235666
0.209249
0.314382
0.0877387
0.0204648
0.415482
1.43518
0.0201302
0.743916
0.0207129
0.0223969
0.121081
0.0207343
0.0385993
0.0250207
0.022852
0.0218563
0.0577276
0.0213818
1.3226
0.0212399
0.0201749
0.0966408
0.0197651
0.0233871
0.0218618
0.0489386
0.0212002
0.0214191
0.022986
0.343589
0.0211934
0.021293
0.0202248
0.0239273
0.0211827
0.0223832
0.374786
0.0209734
0.0259769
0.0217191
0.0237145
0.0123973
0.0209441
0.0219331
0.0803784
0.0215678
0.0217945
0.0244693
0.265633
0.0221421
0.0211292
0.0214269
0.0261931
0.0793225
0.0223463
0.0210258
0.0209647
0.0205645
0.0196364
0.0200552
0.0249359
0.0237289
0.05048
0.021543
0.096879
0.020658
0.0214244
3.847
0.041566
0.0199787
0.0694384
0.0215149
0.0210209
0.488009
0.0218051
0.0425432
0.0197423
0.13433
0.0204556
0.0200169
0.0202553
0.3457
0.0924803
0.0215389
0.127851
0.0202353
0.0209291
0.0207438
0.125293
0.0212671
0.0206581
0.0207845
0.0226938
0.0212749
0.0214509
0.020806
0.021846
0.0215214
0.0208511
0.023398
0.019996
0.102519
0.0570197
0.0202004
0.0445732
0.0262019
0.0209365
0.0206734
0.0219563
0.0207559
0.0288783
0.0249024
0.0414228
0.041445
0.0216701
0.0603846
0.14022
0.0212216
0.0217041
0.072074
0.0235419
0.258929
0.020217
0.0222275
0.0226101
0.0212564
0.0233091
0.0258209
0.020953
0.0220574
0.0212597
0.0235258
0.0204795
0.100569
0.0213211
0.024152
0.0137073
0.0209972
0.51118
0.186157
0.023039
0.0254946
0.0287354
0.0198854
0.0538604
0.0214328
0.0341343
0.235849
1.35653
0.0190091
0.0222937
0.0266915
0.0210358
0.0307419
0.0204986
3.69267
0.0216694
0.0215639
0.020813
0.0359257
0.0373766
0.0212252
0.0212225
3.50115
0.0216763
0.020649
0.500078
0.0468718
0.0201179
0.12406
0.0203081
0.0814308
0.0491888
0.0212684
0.0214376
0.0232338
0.435302
0.0208027
0.0263032
0.0214412
0.0212775
0.0208288
0.0681501
0.0217484
0.021369
0.0211552
0.111817
0.026632
0.0208187
0.0197815
0.087447
0.0211538
0.0204452
0.120909
4.29163
0.021929
0.806465
0.0233294
0.0428886
0.0221497
0.0517585
0.513396
0.0245622
0.0212285
0.0203205
0.0244173
0.0212028
0.221662
0.060811
0.0205324
0.0221364
0.0203344
0.0200145
2.23803
0.0212123
0.0224178
0.022798
0.0577584
0.0214557
0.0216969
0.0248955
0.525231
0.0215268
0.0213733
0.0203676
0.0204938
0.0241273
0.0412887
0.0215867
0.0211288
0.0212629
0.0210958
0.020327
2.67902
0.0217084
0.0210553
0.0211019
0.0523881
0.0202901
0.0204471
0.0356615
0.0209437
0.0355794
0.0212686
0.0214383
0.311711
3.88635
1.42867
0.0179625
0.0250326
0.0217328
3.23423
0.0206562
0.024834
0.0199856
0.411218
0.0195064
0.0242781
0.021465
0.681863
0.0396308
0.0290255
3.35943
0.0222959
0.0567206
0.0217322
0.0219442
2.94062
0.0337264
0.0211774
0.0203001
0.0237179
0.0271947
0.0214271
0.0212657
0.0206494
0.0199738
0.186348
0.321292
0.0217265
0.0197915
4.03227
0.103307
0.0233905
0.024708
0.023192
0.0243803
0.0212068
0.0222564
0.104536
0.0209124
0.0203226
0.0215196
0.116215
0.193809
0.0256116
0.0215482
0.0215618
0.0266968
0.0213492
0.0253905
0.0427777
0.0373537
0.0230392
0.0314222
0.0201216
0.0212298
0.0218505
0.0199689
0.0215961
0.0208573
0.072931
0.0210145
0.47961
0.0215423
0.0206442
0.0204021
0.0235366
0.0223224
0.0410171
0.0575038
0.0201541
2.35231
0.0205735
0.0204337
0.0198044
0.31992
0.163643
0.0198268
0.0208249
0.0207766
0.0227094
0.161413
0.0380684
0.0210967
0.0220864
0.125943
3.38438
0.0219743
0.0211479
1.71765
0.0238953
0.326698
0.0230953
0.0211511
0.053907
0.0223903
3.87433
0.0227581
0.0501802
0.0203166
0.020923
0.0217865
0.021501
0.0238226
0.0216905
0.0215579
0.0207943
0.0218371
0.0216024
0.0219211
0.0213494
0.0229294
0.0218902
0.0213457
0.0208297
0.0322258
0.0226694
0.0209212
0.021516
0.167465
0.021964
0.0238275
0.0218403
0.0653388
0.0204334
0.036729
0.0228682
0.0201866
0.0211088
3.43565
0.0572032
0.022125
0.0239743
0.0233338
0.0391434
0.0208719
0.027549
0.038847
0.0210608
0.0867605
0.0208279
0.0213361
0.022875
0.0218607
0.0286204
0.0532679
3.53193
0.0254432
0.0201952
0.0214511
0.0211078
0.0459687
0.0219559
0.158878
0.0208216
0.0213773
0.0213613
0.0621283
0.0209689
0.0215807
0.0212727
0.122346
0.020431
1.04456
0.0203429
0.0245992
0.0213186
0.028959
0.020998
0.0236675
0.0593649
0.0476046
0.0202031
0.0341328
0.021513
0.0214493
2.77779
0.0675378
0.020319
0.0212487
0.0237017
0.0202489
0.0211538
0.0218772
0.021706
0.0233886
0.045535
0.0221758
0.0264815
0.0477736
0.0216327
0.0209899
0.0211788
0.0248372
0.0291253
0.0213946
3.80487
0.0206923
3.28682
0.0351851
0.0200958
0.0207215
0.0207001
0.0564203
0.0213339
0.0233052
0.0214884
0.0213367
0.0644244
0.0230541
0.0259317
0.0216625
0.0214737
0.0227394
0.0212346
0.0230141
0.0213708
0.0250795
0.0219956
0.0218334
0.59005
0.0287342
0.119569
0.0210029
0.0111814
0.0223194
0.261046
0.0610933
0.615609
0.0224019
0.0199518
0.0387172
0.0209151
0.498974
0.0221623
0.0372566
0.0223207
3.46647
2.28341
0.023308
0.0261486
0.020755
0.0205374
0.0219081
0.0199364
0.0217415
0.0230622
0.0207877
0.0251695
0.0428179
0.239965
0.0208945
0.0140738
0.0201056
0.0211902
0.0211338
0.0776767
0.0216819
0.0270947
0.0217468
0.0211429
0.945695
0.0208801
0.0231303
0.0210467
0.0231609
0.582212
0.0261255
2.58186
0.0230386
0.059673
0.023059
0.0211214
0.021233
0.0108829
0.0243197
0.0212786
0.0227823
0.0213294
0.45105
0.0206531
4.25557
0.110678
0.0636749
0.0250372
0.0982728
0.0173996
0.019921
0.322047
0.0211884
1.28226
0.0218301
0.0227072
0.267418
0.257529
0.0270495
1.16481
0.0213878
0.189849
0.0195598
1.35977
0.0201598
0.0219209
0.0374315
0.0216288
0.0207255
0.0219744
0.0212831
0.0325687
0.262089
0.034417
0.256166
0.0207267
0.320386
0.0214438
0.0217669
0.0210446
0.0212158
0.496646
0.0216498
0.0205656
0.0347573
0.021817
0.263449
0.0713113
0.0212691
0.0472601
0.035009
0.0208609
0.0214443
0.0237373
0.0203173
0.0484403
0.0292123
0.0225029
0.0228249
0.0204492
0.0213218
0.0507644
0.0219399
0.0214564
0.0223108
0.0199757
0.0201255
0.245317
0.0268728
3.59836
0.027238
0.0463638
0.0257503
0.0211187
0.0260349
0.0202008
0.0209859
0.269359
0.0241601
0.00770327
0.0473991
0.0221229
0.216193
1.49501
0.0211553
0.0267345
0.0265753
2.90259
0.0203089
0.0200842
0.0216377
0.0250929
0.28186
0.0274216
0.0238348
0.0217876
0.0211734
0.0197659
0.261489
0.0233635
0.021944
0.528574
0.0216343
0.0227758
0.0240015
0.021489
0.0212376
0.0210751
0.0469477
0.0913052
0.0218319
0.0230998
0.356268
0.0209449
0.0219758
0.0233148
0.0215985
0.360991
0.38937
0.430156
0.0768688
0.50231
0.0225435
0.0208448
0.0580774
0.0196437
0.0263926
0.0210682
0.0201893
0.274408
0.0602197
0.0210832
0.0207582
0.027956
0.0327412
0.0232027
0.0200095
2.9833
0.023013
0.0352418
0.0201434
0.0259354
0.0195901
0.0227019
0.0254184
0.0211717
3.89719
0.0219883
0.0367732
0.0883035
0.221796
0.080607
0.0211974
0.0537046
0.024523
0.0276163
0.0223977
0.0234715
0.0214529
0.0225138
0.367201
0.022846
0.367122
0.0207927
0.219283
0.02029
0.0219166
1.43985
0.024646
0.209346
0.0145532
0.0221211
3.82831
3.02251
0.0208661
1.64984
0.0356397
0.0207272
0.019866
0.210272
1.02823
0.020482
0.0202767
0.0222588
0.0202265
3.25126
0.775184
0.0195205
0.0197912
0.0208625
0.255505
0.0427452
0.25934
0.0201994
3.75141
0.0215946
0.0614549
2.70785
0.0240541
0.020582
0.0205538
0.264716
0.0203361
0.0210477
0.0202002
0.0245883
0.0232115
3.46749
0.0251267
0.0217857
0.0211943
0.0264893
0.206277
0.0415513
0.0211218
0.0208888
0.140088
0.0441113
0.0221069
0.677977
0.0266144
0.0228613
2.67558
0.0228058
0.025837
0.0218325
0.338746
0.0214192
0.0218229
0.208741
0.0274208
0.0210536
0.0213547
0.0195977
0.034002
0.0946242
0.0209775
0.0202693
0.0220468
0.0561007
0.0160608
0.0202
0.0212434
0.0206572
0.0212944
0.0394584
0.0215222
0.0210112
2.75857
0.0211121
0.585892
0.0309592
0.0335041
0.0232208
0.022358
0.0214849
0.100017
0.0783574
0.0581332
3.29407
0.0303228
0.0208743
3.43132
0.0202177
0.0622289
3.31205
0.0207972
0.0211294
0.0238631
0.0615443
0.0211969
0.0210846
0.573507
0.0212656
0.0212698
0.0218672
0.0217012
0.0203375
0.0669448
0.106934
0.0201394
0.0210276
1.10215
0.0211876
0.0202144
0.0210021
0.0208383
0.475561
0.0199812
0.0229835
0.0224121
0.0219905
0.02025
0.0334585
0.0872025
0.0266268
2.2369
0.0212492
0.0234896
3.24087
0.0208871
0.0203684
0.0211064
0.0208414
0.0218228
0.0197582
0.0222955
3.30356
0.021191
0.0210983
0.0227168
0.0208195
0.214368
0.0216812
2.9071
0.191522
0.0223338
0.0295011
0.375742
0.0267847
0.0211852
0.0230893
0.0209542
0.022423
0.02245
0.0217489
3.21318
0.0202876
0.0213257
0.0414098
0.185152
0.0217086
0.020844
0.193896
0.0222348
0.0227653
0.0213147
0.0208541
0.0210783
0.267389
0.0214434
0.172609
0.0480218
0.020136
0.0208354
0.0211228
0.0242543
0.266378
0.0201454
0.0382125
0.0211024
2.84135
0.242832
0.0222118
0.166154
0.0215548
0.0229938
0.0239328
2.46421
0.020826
0.0251521
0.026216
0.38511
0.0216664
0.0336668
0.0214541
0.0474092
0.132367
0.153714
0.0210111
0.0283095
0.21931
0.0776854
0.0228205
0.023987
0.248911
0.227428
0.020825
0.0479431
0.0212015
0.0239763
0.0214638
0.0223041
0.0222285
0.0642487
0.0216311
0.0218163
0.0507429
0.388687
0.103238
0.105063
0.681861
0.0207914
0.200756
0.0556732
0.0210406
0.0211221
0.289941
0.0250805
0.0214947
0.0212134
0.0412772
0.0207013
0.0212574
4.27261
0.0214691
0.0217558
0.0210443
0.021406
0.0225937
0.0204709
2.95734
0.0219126
0.022861
0.0205199
0.0283553
1.14657
0.0209425
0.0217515
0.26591
0.179408
0.021357
0.0242809
0.0207094
0.0209366
0.0371527
0.159665
0.0209371
0.0211149
0.267362
0.125253
0.992579
0.0320729
0.0244596
0.384093
0.0207492
0.024822
0.024102
0.020586
0.362
1.04555
0.0370356
0.0355727
1.42469
0.0198684
0.0197849
0.0225778
0.0352027
0.729857
0.0203311
0.0370833
0.885556
4.10594
0.0216416
0.0225324
1.89505
0.0210244
0.0238838
0.378144
0.0209634
0.0211922
0.0204584
0.311781
0.0208285
0.0241167
0.0218737
0.0347939
0.0270122
0.407027
0.0211933
0.0211351
0.0274049
0.0217269
0.00637811
0.0222279
0.084174
0.102988
0.0209955
0.0213393
3.36839
3.95934
0.569978
0.0207614
0.0213619
0.0228622
0.0215269
0.0212723
0.0214346
0.0237338
0.0218297
0.0206755
0.0207709
0.0555288
0.0233517
0.0283114
0.69885
0.0576084
0.0442506
0.0242252
0.041715
0.109019
0.029796
0.0229294
0.0258326
0.021075
0.168175
0.0199527
0.020278
0.0207079
0.535753
0.0209335
0.530511
0.0217464
0.0201327
0.0457001
0.0211784
0.0211472
0.0211732
0.022969
0.147712
0.0216478
0.0205903
0.0226962
1.08763
0.0434558
0.255521
0.0210674
0.0315006
0.021538
0.0215425
0.020179
0.0207281
0.0213608
0.0171155
0.218113
0.0226841
0.0226085
0.101249
1.10922
0.110687
0.0208717
0.0832881
0.0315571
0.760492
0.0204891
0.021107
0.0231131
0.0964229
0.0197949
0.0213555
0.0207194
0.0203376
0.109792
0.0221865
0.0631232
0.02307
0.0197802
0.0210287
0.0214343
0.524606
0.0210944
0.0271983
0.021791
0.0269978
0.022073
0.0542644
0.273567
0.0212154
0.0421322
4.17828
0.0211225
0.0215299
0.0391306
0.0197272
1.77999
0.0276197
0.0209589
0.051401
0.0200109
0.0236055
0.0216118
0.0208257
0.0202084
0.0221798
0.0206822
0.0207184
0.0215238
0.0217626
0.0438003
0.0200223
0.114548
0.020535
0.0208978
0.0273935
0.0463086
0.0220335
0.0197232
0.021196
0.0224614
0.0444718
1.41491
0.031876
0.0219429
0.0219737
0.0207598
0.0294848
0.0209334
0.0224594
4.27568
0.258676
0.0421341
0.0210515
0.0217181
0.0221719
0.0197303
0.0392643
0.0201202
0.101553
0.0219921
0.161548
0.0264137
4.14636
0.0215941
0.0606834
1.14769
0.353171
0.0640995
0.025201
0.316563
3.89986
0.0218804
0.0329419
3.7669
0.0205183
0.020753
0.0213373
0.0241129
0.0566977
0.0214619
0.023976
0.706779
0.0195203
0.0214675
3.47571
0.136374
0.084394
0.0976849
0.439731
0.0221708
0.0621787
0.0234127
0.0237803
0.582732
0.0225025
3.04971
0.0418674
0.0237352
0.0213965
0.0224878
0.0234859
0.0204456
1.61209
0.0197911
0.0212452
0.021269
0.350152
3.50822
0.0275078
0.0212641
0.0222871
0.0204816
3.26249
0.0210366
0.0219961
0.0235881
0.0489173
0.020678
0.0652735
2.60678
0.275526
0.0218185
0.273204
0.020483
0.291042
0.019827
0.0129434
0.0202523
0.0550795
0.0258233
1.05462
0.103154
0.0227194
0.0228879
0.0242113
0.0236914
0.0211052
0.0207097
0.0242866
0.0217713
0.295711
0.0196017
0.0210699
0.0214332
0.021404
0.290004
0.0207438
0.020123
0.0214979
0.318494
0.0269778
0.0495114
0.0226856
0.0225716
0.0715159
0.020524
0.0213132
0.0669929
0.0407344
0.0201203
0.0368035
0.0230006
0.294516
0.0212483
0.0330629
0.0208439
0.0212168
0.0202221
0.0201763
0.0211609
0.0210761
1.40806
0.0591713
0.0215492
0.0213217
0.0211333
0.0222085
0.0267042
3.40433
0.021597
0.032992
0.0242759
0.27577
0.0216301
0.0437654
0.0212966
0.0212557
0.0276365
0.0212185
0.0214427
0.0206524
0.0197652
3.77504
0.0213863
0.020736
0.0163454
0.285941
0.0362731
0.0205866
0.0199711
0.0239941
2.88257
0.023354
0.0217068
0.0215703
1.20444
0.0218798
0.0211217
0.104337
0.0207418
0.0249814
0.0229297
0.0215458
0.020159
0.0489084
0.0253781
0.0206286
0.0212804
0.021305
0.0208964
0.473834
0.0228535
0.0213992
0.0197731
0.0219812
0.0201851
0.0212413
0.0635386
0.0206476
0.0241347
0.0233457
1.47989
0.0197315
0.0224678
0.048749
0.0268846
0.161166
0.0209939
0.0215397
0.196783
0.0214042
0.0200273
0.344634
0.0214108
1.3956
0.262576
0.0558548
3.27471
0.0214191
0.0274534
0.260507
0.0212416
0.0200007
0.313266
0.401341
0.0208949
0.020138
0.0226885
0.0208886
0.205064
0.0156943
0.287129
0.0214918
0.0216555
0.0212211
0.0211161
3.26768
0.44929
3.57257
0.0246988
0.0223368
0.672154
0.0213409
0.0208946
0.0227738
0.0209289
0.0218611
0.127166
0.0197257
0.527927
0.0219578
0.0220736
0.0213961
0.0263987
0.0209082
3.26812
0.0206846
0.0212025
0.0225806
0.020159
3.16512
0.0245857
0.0248994
2.60648
0.18808
0.0331316
3.35834
0.0213275
2.96711
0.0269473
0.0206939
0.022347
0.0217704
0.396231
3.26494
0.0214966
0.0235667
0.430753
0.021073
0.02057
0.0235011
2.79077
0.511062
0.0215144
0.0221344
0.0861467
0.0231655
0.0576202
0.0565961
0.065212
0.0201413
4.10803
0.0215839
0.324815
0.0566724
0.034277
3.89965
3.38897
3.15791
0.0203578
1.16826
0.0200624
0.019783
0.426233
0.0197643
0.0222018
0.0211457
0.0615318
0.0206152
0.119138
0.0201683
0.0269477
0.523929
0.0262839
0.0250801
0.388532
0.0218299
0.0202291
0.0218723
0.0802162
0.0236835
0.11645
0.0214193
0.0261389
0.0217417
0.155941
0.0214232
0.0216108
0.021372
0.501905
0.0308073
0.0215088
2.79388
0.021085
0.0214646
0.0240553
1.42046
0.0213972
3.95414
0.0215216
2.67462
0.0214237
0.0400503
0.0209886
0.0468375
0.0214272
0.0601163
0.0247991
0.0496271
0.0208952
0.0217072
3.28369
0.0203559
0.0239827
0.0276228
0.020092
0.0654747
3.72895
0.110766
0.0221387
0.0197363
0.0211857
0.105306
0.0234183
3.75559
0.0241572
0.260708
0.0215626
0.300147
0.0205367
0.0323853
0.100552
0.0228815
0.14979
0.0232407
2.46313
0.162494
0.0207786
1.44931
0.0223995
0.0211451
0.0229112
0.0770786
0.0231889
0.157874
0.0241357
0.0944352
0.0402738
0.0548889
0.0433853
1.34016
0.0214662
0.0215291
2.56992
2.48665
0.0334334
0.0235821
2.82168
0.152568
0.0212954
0.0214412
0.021212
1.245
0.0207135
0.0209641
0.0328634
0.053178
0.0198254
0.0206143
0.0222262
4.01938
0.020506
0.024341
0.0198265
0.105393
0.0205852
1.2581
0.0218421
0.0206501
0.0213385
0.0203052
0.326092
0.0340648
1.08469
0.0213285
0.028869
0.020209
0.225644
0.132859
0.0449685
0.0207996
0.0522917
0.0208863
0.0215919
3.53032
0.0210798
0.024128
0.452604
0.0201511
0.0927156
0.0206948
0.0198342
0.0215551
0.14211
0.0208108
3.94783
0.0990014
0.0391381
0.275882
0.0207098
0.0981893
0.0556376
3.88248
0.0354422
2.28467
0.186258
0.0215729
0.035668
0.0217062
0.028364
0.0208116
0.022916
0.0212049
0.0259692
0.0514911
4.02486
0.0243171
0.0232627
0.754921
0.309935
0.0212074
0.0214285
0.0670822
0.0360329
0.0204166
0.856065
0.037319
0.0222539
0.0203661
0.0224398
2.50657
0.0216251
0.0525983
0.0195972
0.623488
3.76618
0.088006
0.0222119
0.021759
0.0211611
0.0212873
0.0214579
0.0246033
0.0223066
0.0215611
3.66655
0.0208363
0.0214331
0.0210646
0.28318
3.88984
0.0212477
0.0214552
2.74572
0.0204819
4.11581
0.0215236
0.0213731
0.0197241
0.0216694
0.0205985
0.0227292
0.0201861
0.197353
0.0218464
0.216145
0.0213561
0.186937
0.0214234
0.0246343
0.21891
0.201032
0.0213265
0.0214476
0.0201897
0.0197247
0.506218
0.403404
0.0225401
0.0207615
0.0212349
0.0203331
0.0770846
0.0799162
0.0419198
0.390905
0.0396017
0.0214376
0.0211847
0.020529
0.798506
2.62319
0.0159115
0.0211338
0.020819
0.0274559
0.021381
3.21034
2.49035
0.0309666
0.0202706
2.27808
0.11079
0.0214456
0.4337
0.0176936
0.496391
0.0325931
0.0326318
0.0261436
1.449
0.0325061
3.56035
0.020861
0.0205177
0.0207016
0.0203575
0.0215094
0.0286159
0.0204973
0.0257135
0.0200049
0.266261
0.0214095
0.0293405
2.78681
0.0221084
0.0198067
0.0289062
4.0007
0.021258
0.0206072
0.185669
4.08274
0.203594
0.0220642
0.019732
3.21656
0.10638
0.0238785
0.0484647
0.0213961
0.0315524
0.0215087
0.110898
0.0206715
0.0209529
0.389333
0.020419
0.0229408
3.52181
0.0572558
0.0206389
0.0233783
0.0207523
2.36383
0.024275
0.026379
0.0214278
0.0207867
0.100794
0.0301192
0.0211587
0.0212959
0.0197301
0.0226702
0.020598
0.0227975
0.202733
3.15006
0.0235185
0.0391335
0.0208082
0.0452455
0.0212079
0.0215394
0.0207679
0.272933
0.04102
0.0200353
0.0228887
1.21716
0.0367733
3.77833
0.0458877
0.0212971
0.0207781
0.0269864
0.0225438
3.8997
0.020518
3.11501
3.94845
0.0209032
0.0376832
3.57136
0.0252525
0.31664
0.0923153
0.0222909
3.9499
0.0258799
0.020362
2.86363
3.17715
0.0837887
0.0217135
3.33184
0.68843
0.0213426
0.171498
3.34298
0.0213829
0.0206977
0.0218342
0.020022
0.0215465
0.306944
4.25616
0.021427
0.00437254
2.98726
2.7589
0.0326105
0.255647
0.0210548
0.0246563
3.99246
0.0549003
2.47185
3.89068
0.0212563
0.0214414
0.021051
0.0140743
3.94003
2.84348
0.0210252
0.035506
4.03984
0.0747274
0.0541597
0.0211361
0.0214805
0.0219577
0.853913
0.022191
0.0353793
0.0307833
0.0220343
0.39982
0.0235765
0.141725
0.123425
3.87578
0.0212177
0.0212037
0.0226354
0.0343663
0.227799
0.407776
0.0218884
2.68904
4.00971
0.0326516
0.0313259
3.63328
0.243393
0.266676
3.17346
0.0213298
0.287536
0.449786
0.0292604
0.0274054
0.111641
0.0224406
0.0979302
0.0233548
0.0219385
0.0199842
0.0215664
0.0208986
0.451237
0.0510158