/*--------------------------------*- C++ -*----------------------------------*\
| =========                 |                                                 |
| \\      /  F ield         | OpenFOAM: The Open Source CFD Toolbox           |
|  \\    /   O peration     | Version:  v2012                                 |
|   \\  /    A nd           | Website:  www.openfoam.com                      |
|    \\/     M anipulation  |                                                 |
\*---------------------------------------------------------------------------*/
FoamFile
{
    version     2.0;
    format      ascii;
    class       volScalarField;
    location    "350";
    object      p;
}
// * * * * * * * * * * * * * * * * * * * * * * * * * * * * * * * * * * * * * //

dimensions      [0 2 -2 0 0 0 0];


internalField   nonuniform List<scalar> 
18355
(
-0.00490841
0.0030242
-0.01858
0.000905393
0.00513301
0.00444418
0.00379427
0.00511815
0.00295897
-0.0125603
0.00649359
-0.0399026
-0.0389387
0.00148082
0.00289264
0.00251799
0.000980252
0.00614137
-0.0290713
0.00458921
0.017206
-0.00591
0.00301668
0.00364094
0.00301824
0.00513244
0.00393399
0.0010989
0.00295098
0.00732333
-0.021542
0.0128744
0.00256566
0.00228242
0.000173373
0.00529846
-0.0221744
0.00543819
0.00789586
0.00130718
-0.0027063
0.00710096
0.00232019
0.00300373
0.00302016
-0.0315854
0.00223851
0.00222337
-0.0232477
0.00407535
0.0020877
-0.000285239
0.00413003
-0.0170833
-0.00277047
0.00458643
0.00107447
-0.0202177
0.00527712
-0.0134763
0.00229889
-0.0342425
-0.0151524
0.00268503
0.0119107
0.00200029
-0.00701517
-0.0214621
0.00215797
-0.011073
0.00375283
-0.00279806
0.0101674
0.00700104
0.00738266
0.00219604
-0.0177511
0.00221173
0.00371184
0.00723969
-0.00626147
0.00386824
0.00217478
-0.00422779
-0.00269058
0.00271305
0.00191523
-0.00797656
0.00316579
-0.00647437
-0.0209606
0.01961
0.00380296
0.00406161
-0.0218986
0.00261751
0.00273079
0.00262456
-0.0204748
-0.00471819
-0.00297114
0.00367885
0.00403043
0.00015015
-0.00541649
0.00253948
0.013001
-0.0218967
-0.0134518
0.00244433
0.00107483
0.00191926
0.00927516
-0.00402636
-0.00286577
0.00363601
0.00363991
0.00628358
-0.0040242
-0.00765305
-0.0129463
-0.0163097
-0.0223539
-0.00693316
0.00609763
-0.0222147
0.00387271
0.000929589
-0.00935574
-0.00543141
0.00278813
-0.00321332
-0.000894521
-0.0258646
0.0025466
0.0032865
-0.0293693
-0.0134206
-0.000688831
0.0189778
-0.0161988
0.00633023
0.00259875
-0.00235599
0.0039062
-0.00258742
0.0014354
0.000191281
0.00955666
0.00334641
0.00112017
-0.00766654
0.00308852
0.00438782
0.00233689
0.00295685
0.000983659
0.00264352
0.00260442
0.00295221
0.00620883
-0.000826773
0.00246943
0.0050903
0.00726714
-0.00400402
0.000695767
-0.00330333
-0.0290872
-0.0156264
0.0016628
-0.0253786
0.00254721
-0.0235614
0.000829899
-0.00256773
0.00188894
0.000105707
-0.0188038
-0.000968442
0.00278357
-0.00230122
-0.00567125
0.0011372
0.00148741
0.00402133
0.00294818
-0.00529486
-0.00334399
0.00397081
-0.0243736
-0.0213128
0.00307337
0.00208313
-0.00294318
0.00115746
0.00208698
-0.0100705
0.00304155
0.00149787
0.00397893
0.00547256
0.00813719
0.00284488
-0.00552419
-0.00600965
-0.0243562
0.00122431
0.00251517
0.00320454
-0.00205611
0.00599253
0.00285555
0.00291325
0.000176307
-0.0279061
-9.11601e-05
-0.0229922
-0.00564488
0.00251561
-0.0136673
0.00194692
-0.00928669
0.00310533
0.00252552
0.00339871
0.00198772
-0.00874082
-0.00125036
0.0068921
0.00357179
-0.00594866
-0.00490998
0.00196857
0.00502048
0.0031143
-0.0143892
-0.0278563
-0.0289983
0.00302691
0.00306789
-0.0184661
0.00300498
0.00531707
-0.00566792
-0.00290378
0.00197884
0.0057651
0.0049203
0.00379633
0.00268215
0.00456963
-0.0182534
0.00296378
0.000130998
0.00325179
-0.0281948
-0.00194501
0.00323919
0.0028702
0.00265028
0.00363362
-0.0213801
-0.0346583
0.00872189
0.00601689
0.00563283
-0.0202145
0.00290561
-0.00293037
0.00413164
0.00242304
0.00556477
-0.0237243
0.00135302
-0.00290564
0.0077593
0.00325106
-0.00487344
-0.053448
0.00777221
-0.00216022
0.00476972
0.00240652
-0.00932671
-0.00605265
0.000509016
-0.00275608
0.000557072
-0.000667522
0.00254984
-0.0287957
-0.005412
0.00338144
0.00552914
0.00288295
0.00206477
-0.00483749
-0.00263018
0.00572311
-0.0238103
-0.0411176
-0.0117491
-0.0219932
0.00580067
0.00773383
0.00403196
-0.0263715
-0.0340867
-0.0274943
-0.00135622
-0.0136501
0.00257147
0.00651985
-0.0120749
0.00563714
0.0024889
0.00229555
0.00167756
-0.0414848
-0.0123591
-0.0391737
-0.002196
0.00773652
-0.0171596
0.00299563
0.000283483
-0.00603463
-0.0163259
-0.00386026
0.00606741
0.000112395
-0.0133063
0.00256084
0.00605878
-0.00256321
0.00104041
0.00620679
-0.0300104
-0.00278043
0.00464667
-0.00153751
-0.00185837
0.00319879
-0.00370064
0.00456704
-0.00978908
0.00320875
-0.000176927
0.00194467
-0.00281238
0.00329863
-0.0196781
0.00467741
0.00182809
0.00360668
0.00152269
-0.00142386
0.00230972
0.00195453
-0.000109078
-0.0044897
-0.0149983
0.00260305
0.00192436
0.00249868
0.00386081
0.00158933
0.0024641
0.001097
0.00233584
0.00764758
-0.00334698
-0.014647
-0.0368462
0.00360387
0.00328598
-0.0272302
0.00253671
0.0040379
0.00513323
-0.00441433
6.11877e-05
0.0059965
0.00254122
0.00557056
-0.00297036
0.019138
0.00307334
-0.00845419
0.00200153
0.00176068
0.00539891
0.00405364
-0.0326319
0.0198899
0.00172499
0.00354407
-0.0191427
0.00539445
-0.0025819
3.3205e-05
-0.0292271
-0.00340663
0.00802389
0.00378834
0.00813874
0.00273366
0.000408378
-3.34812e-05
-0.0189565
0.000108927
-0.0609319
-0.00512159
0.00145221
0.0177076
-0.00261155
0.00474328
0.000417237
0.0137289
-0.002596
-0.0262225
0.00257555
-0.021558
0.00126161
0.00307208
-0.0217378
-0.004513
0.00359163
-0.00838113
0.00371946
0.00147571
-0.0295545
-0.0315125
0.00306341
0.00122945
0.00393075
-0.0245769
-0.0164894
-0.00244886
0.00408903
-0.0299435
0.00262002
0.00236462
0.00359352
0.000822106
0.0197374
0.00251829
0.00272683
-0.00213062
-0.0282196
0.0052196
0.00203077
0.00451587
-0.00980031
-0.0067818
0.0025848
-0.032707
-0.00591801
0.00255887
-0.0165045
-0.0298824
-0.0273526
0.00248052
-0.0179197
-0.000606356
0.00249844
-0.0108112
-0.00537618
0.0202474
0.00946462
-0.00835506
0.00735042
-0.006397
-0.0197798
-0.00373415
-0.0341558
-0.00336696
0.00244544
-0.0102304
0.002461
-0.0311176
0.0185481
0.0144211
0.00654271
0.00122311
-0.00298378
0.00322069
0.00575854
0.00264972
0.00180515
-0.00428002
-0.0100987
0.0030761
0.00263732
-0.066337
-0.0125435
-0.0139461
-0.00553525
0.00273002
0.00319578
-0.00569604
0.00252517
-0.0230924
0.00642578
-0.0023504
0.00700751
-0.00984202
-0.0129984
-0.0216627
-0.00488505
0.00497144
-0.0168272
0.00192611
-0.00430531
-0.063232
-0.0297367
0.0012062
-0.0200717
0.00133518
-0.0265094
0.013405
-0.00328113
-0.00320808
-0.0100538
-0.00627716
-0.00074696
-0.0249322
-0.000884966
0.00451184
0.005674
-0.006045
-0.00489964
-0.00305243
0.00625177
0.0171251
-0.0279123
0.0190758
0.00739967
0.00754462
0.0116448
0.0104001
0.00216428
0.00021943
0.00776318
0.00630424
-0.00634032
-0.00301961
0.00402221
0.00281862
0.00657004
0.00695674
-0.0283275
-0.0357582
0.000100526
-0.00339731
-0.010351
-0.00421901
0.0144805
0.00019673
0.0206002
-0.00373113
-0.00266977
0.0104511
-0.0205049
-0.0183676
0.00283557
0.00208928
-0.0291724
-0.0304795
-0.0275498
-0.00347219
-0.0349112
0.00285796
-0.0241214
4.73237e-05
0.00314072
-0.0119952
0.00377802
0.00343718
0.000878742
-0.00110825
0.0035727
-0.0111836
-0.0341732
-0.0182205
0.00326975
0.00151832
0.00421494
-0.00355195
-0.0181084
0.00189915
0.00300203
0.00143815
-0.00117519
0.00163275
-0.0135831
0.00226273
0.0036325
0.00392972
0.00344007
-0.0369875
0.00148297
0.00026641
0.00190759
-0.0191112
-0.00615901
-0.0660987
0.00863202
0.000747663
-0.00312123
0.00378952
0.00699423
-0.00117873
0.000380282
0.00428594
-0.0119557
0.00302955
-0.0313233
-0.0257593
0.00531191
-0.00944988
0.00238175
-0.00384889
0.00104394
0.000201093
9.8775e-05
-0.0298202
0.00965174
-0.0138917
0.00354788
0.00377906
0.00252613
0.0008198
-0.0404636
0.00166652
-0.0153525
0.00277771
-0.00527826
-0.0301637
0.00388397
-0.0309753
-0.0293675
0.00124531
0.00441547
0.00133224
-0.00484047
-0.0160379
-0.00293662
0.00268301
0.00171174
-0.0108471
0.00448618
-0.0437684
0.00137787
-0.00329854
-0.00216895
0.00042536
-0.0887896
0.00244476
0.00164846
0.00353542
0.0032925
-0.00646467
-0.00269149
-0.0122351
-0.000607297
0.00190917
0.00265129
0.0117929
-0.0176267
-0.00920234
0.00293756
-0.00727087
0.000917874
0.00164671
0.00231299
0.0010831
-0.00648057
-0.0142278
0.00192734
-0.0200254
-0.00404913
0.000303938
-0.0121244
-0.00234229
-0.0196556
-0.00934497
-0.00274384
-0.0162457
-0.00387404
0.00240816
-0.00141868
0.0027047
0.00223631
-0.00872629
0.00146792
0.00294734
0.0149254
0.00527093
0.00300093
-0.0564948
0.000976915
-0.00349818
-0.00180986
0.00189015
-0.0273554
-0.000774099
0.00235058
0.00220671
0.00154168
-0.00405156
-0.00805473
0.00684893
-0.0269389
0.00454046
0.0065098
0.00579254
0.00352842
0.0039617
0.00308072
-0.0322695
-0.00562391
0.00200845
-0.0310132
-0.0343826
0.00171838
0.00467123
0.00137565
-0.00288728
-0.0359204
0.000139179
-0.030019
0.00104966
0.00325659
0.00175186
-0.0284894
0.00212902
0.00897995
0.00695642
-0.00400179
-0.00347554
-0.0414337
-0.00233976
-0.00355308
-0.01632
0.00352616
-0.00227143
0.00228892
0.000228259
0.00299814
0.00364134
0.00432931
0.00296159
0.00226106
0.000952723
-0.00193807
0.00917894
-0.0406485
0.00253245
-9.75794e-06
0.000589596
0.00102361
0.00357331
0.00251265
0.00587897
0.00223524
0.0026363
0.00291825
-0.00523268
0.00580724
0.00243909
-0.0058332
0.0200926
-0.0175264
0.00268037
-0.0325873
0.00233217
0.00225665
0.00232038
0.00688682
0.00634537
0.00238082
0.00224393
0.00305397
0.00733895
0.0021369
0.00750077
-0.000673487
-0.00463631
0.00209302
-0.0160327
-0.00103224
0.00273689
-0.00671348
0.00268367
-0.0311131
-0.00440298
-0.0295358
-0.000792316
0.0051114
0.00698393
0.00523558
-0.018385
0.00280051
0.000148893
-0.00674952
0.0100786
0.00519435
0.00251501
0.00177813
-0.0224446
0.00178195
-0.0301341
0.00314505
-0.0175555
0.0110506
0.00239646
0.00294402
0.000393041
0.00166164
-0.0346987
-0.023937
-0.0078045
-0.021236
-0.00854808
0.00211215
0.0018449
0.00189744
0.00358205
-0.00842176
-0.0262246
0.00430533
0.00188335
-0.00825714
-0.0059292
0.0113887
-0.00314867
-0.0280346
-0.0222654
-0.00505987
-0.0209632
-0.0073709
0.00925809
0.00241142
0.00213262
-0.0101397
-0.00203379
-0.0128415
-0.038215
-0.0274777
0.00262444
-0.0052864
0.00542602
0.00361331
-0.0208959
0.00448021
0.00223165
0.00184117
0.00236225
0.00218601
0.00318917
0.00357869
-0.00853723
0.00168582
0.00507883
0.00264185
0.00308681
0.00238331
-0.00211935
0.00721895
0.00308122
0.00367843
0.00222404
0.00199629
-0.00935955
0.0061269
-0.000933303
0.00337657
-0.0138957
-0.0306228
-0.00337663
-0.00200571
0.00288343
0.00302608
0.0033154
0.00292808
0.00923165
0.00126941
-0.0018161
0.00523232
-0.00654079
0.00808802
-0.00160024
0.00293322
0.00234056
0.00648367
-0.0127273
0.000684454
-0.0194177
0.00290041
0.00192626
-0.0177034
0.0104641
0.00283056
-0.00615928
-0.00820157
0.00210287
0.00249689
0.0163568
0.00667568
0.00182397
0.0154257
0.00652799
-0.0345325
0.00875755
0.000928968
0.00212175
-0.00672119
0.00482507
0.00210092
-0.00139954
-0.00599118
0.00238248
-0.00164552
-0.0016324
-0.0328893
0.00197819
0.00346159
0.00353294
0.0042352
0.00264128
-0.00432314
-0.0237436
-0.0259407
-0.00203627
0.00258544
0.00239385
0.00204326
0.00345702
0.0045738
0.00325983
0.00285822
0.00344167
-0.00279923
0.00304889
-0.00459879
-0.0171311
0.00327221
0.00286571
-0.00402477
-0.00778941
0.00253968
-0.00617539
0.00305787
0.00256288
0.00259484
-0.0139571
-0.0213731
-0.0047323
-0.0298614
-0.0169115
-0.0179366
-0.0224835
0.00139662
0.00681693
0.0033534
0.00289268
0.00107083
-0.0206879
-0.0134
0.00570144
-0.0230813
0.00316062
-0.0305312
0.00414395
-0.0237592
0.00700427
0.00609069
0.00197055
-0.0330516
-0.0192848
0.00261586
0.00203139
-0.00526852
-0.00631182
0.000433317
0.0030223
-0.0307577
-0.000308365
0.00360506
0.00964156
0.00229977
0.00538761
-0.0353281
-0.00233211
0.0042649
-0.019892
0.00550685
-0.0541029
-0.00729286
0.00204155
0.00148955
0.00363033
0.0112697
0.00597203
0.00137329
0.00378521
-0.0147945
0.0130444
0.00262778
0.00195394
0.00303929
0.00743443
-0.0102809
0.00189661
0.00259025
0.00141729
0.00191394
0.00326015
-0.00405905
-0.0205392
0.00282575
0.00423591
-0.0235957
-0.0108971
0.00236875
-0.0241104
0.00179707
0.000193736
0.00365625
-0.0223619
0.00737492
-0.00287634
-0.00540628
-0.011673
0.00305442
-0.0116817
-0.005144
0.00154089
0.0099383
-0.000285714
-0.00567516
0.00356901
0.00570695
-0.0125147
0.00400788
0.00308953
-0.00384111
-0.037374
0.00559993
0.000127891
-0.0213231
0.000311758
0.00781859
0.00319844
0.00204844
0.00397795
-0.0101469
0.00190792
0.0127026
0.00787598
0.00672439
-0.0247111
-0.0400956
-0.00956349
-0.00211569
0.00190864
-0.0285997
0.00973788
-0.016178
0.00201093
0.00345629
-0.00465305
-0.0323523
0.000780192
0.00296723
-0.0304501
-0.0021222
-0.00575912
-0.00195006
-0.00989611
-0.00181662
-0.0716086
-0.0189172
-0.0275057
0.00289171
-1.26567e-05
0.00567774
0.00185782
0.004762
0.00146788
-0.00470992
-0.015637
0.00638803
-0.032398
0.000367552
-0.00685587
-0.0210992
-0.0012729
-0.00815665
-0.0385507
0.0127763
-0.000574861
-0.00583413
0.00385043
0.0119374
-0.0144544
-0.00473015
0.00154621
-0.0356946
-0.0200912
0.00258406
0.00591868
0.00420424
-0.0208399
-0.000479792
0.000828839
0.00446168
0.00164391
-0.0143823
-0.00660288
0.00214029
-0.00320439
0.0052852
-0.000403993
0.00165315
-0.00582622
0.00190017
0.000156113
0.00240363
0.004709
-0.0108462
-0.00172414
0.0016671
-0.00391289
-0.020265
0.00806402
0.00359906
0.00262958
0.00562527
0.00199104
-0.000307269
0.00166828
0.00438366
0.00256437
0.00179513
-0.0023008
0.00183926
0.00394429
0.000296799
0.00361005
0.00242278
-0.0126111
0.00369319
0.00409379
-0.0106874
-0.0283517
0.00276229
-0.0103207
-0.0104343
-0.00292339
0.00442064
0.00189017
0.00236226
0.00204658
-0.00824782
0.00200732
0.00253413
-0.0324448
0.00211083
9.57088e-05
0.00177029
0.00160649
0.0172209
-0.0207096
-0.0400625
0.000141444
-0.0055594
-0.014949
-0.00032483
0.00300873
0.00402018
-0.0026888
-0.00760574
-0.0226005
0.00491164
0.00292538
-0.0878091
0.00537705
-0.0133031
0.00157041
-0.00197683
0.0200636
0.00212199
-0.0276912
-0.00204413
0.00236306
-0.00388082
0.003047
-0.0123952
-0.032499
0.00342636
0.00387813
0.000751469
-0.00568833
0.00502928
0.00663222
-0.0046174
0.00147379
-0.00169635
0.00225967
-0.0021079
0.000111053
0.00201484
-0.0136768
-0.0235992
-0.00163529
-0.00287918
-0.00478679
-0.00174362
0.0040056
0.0020705
0.00226978
-0.0129337
-0.000748409
-0.0118261
-0.00061292
0.00312778
-0.0307111
-0.00634866
0.00631353
0.00196457
0.00171114
-0.0144637
-0.0298243
0.000770999
0.00434915
0.00677756
0.00388886
0.00540646
-0.0004699
-0.00446841
0.00687938
0.018383
0.0018947
0.000643708
0.00307391
0.00309772
0.000106118
0.00191842
0.00590201
0.00478688
-0.0232789
-0.00307421
-0.00144587
0.00331732
0.00182572
0.00447102
-0.0425317
0.00192914
-0.0187915
0.0019212
0.000750069
-0.0166548
0.000713792
-0.00987397
0.000987453
-0.0194987
0.00213425
0.00194483
0.00263273
-0.000233286
0.0203947
0.000355424
0.00700962
0.00259773
0.00348025
0.00291309
-0.0364447
0.00168596
0.00309154
0.00263312
-0.00479385
-0.00258374
-0.0022431
0.00351245
0.00378538
-0.00134946
0.0032767
0.00541534
0.00167742
0.00373842
-0.0274135
0.00229684
0.0103742
-0.0225573
0.00264907
0.00332765
0.00293921
0.00343738
-0.0283156
-0.0281564
0.00821057
0.00828564
0.00074748
-0.0384303
-0.019371
-0.000234084
0.00400689
-0.0263558
0.00591842
0.00234142
0.00257006
0.0020703
0.00363025
0.0025056
0.00186114
-0.0302766
0.00162933
0.000386865
0.00180739
0.00601052
0.00211474
-0.0419503
0.00215
-0.0274631
0.00396069
0.00374066
-0.0190931
0.00115901
0.00465063
0.00743433
-0.00838828
0.00117107
0.0161873
-0.00208694
-0.018239
0.00148395
-0.0129311
0.00660181
0.000671893
0.00703297
0.00383736
-0.00724155
0.00231903
-0.0081355
0.00426904
0.00186792
0.00354904
0.00971996
0.00775764
-0.0011585
0.000327189
0.00670608
0.00240782
0.00307914
-0.00208765
-0.0386618
0.00234526
0.00578768
0.00281183
0.00653312
-0.0351082
-0.00237376
-0.00578783
0.00337726
0.021239
0.00341676
-0.0125702
-0.00571789
-0.00257779
0.00284395
-0.0012159
-0.0022249
0.00364103
0.00398795
0.00447924
-0.013229
0.00344486
0.00113418
-0.0264774
9.36435e-06
0.00299726
0.0197281
0.00304929
-0.0147732
-0.00253958
0.00342092
-0.03927
0.00338613
-0.0286054
-0.0249559
0.00220945
0.00164214
0.0026043
-0.0128007
-0.000270356
-0.000405256
0.00324715
0.00305728
0.00536215
0.00284718
0.00173963
-0.0806683
-0.000344133
0.00208353
-0.0107531
0.00900321
-0.00627164
-0.00612117
-0.0274575
-0.0237117
0.0025906
0.00367091
0.00278432
0.00289574
-0.0136243
-0.0452551
0.00239437
0.000839814
0.0041142
0.00356891
0.00262263
-0.0547309
0.000459729
0.00387886
0.00102668
-0.0337034
0.00279632
0.00299499
-0.0173833
0.00344484
0.00708766
0.00226958
-0.00595925
-0.00249282
-0.0205066
0.0101898
0.00114414
0.00372495
0.00491774
-0.0496311
0.00329938
-0.0296713
0.0017252
-0.00384211
0.000142313
-0.0115715
-0.0065193
-0.0384038
0.00976778
0.00399743
-0.0421717
0.00555372
0.0172832
-0.00863682
-0.000627229
-0.096757
-0.0274291
-0.00119445
0.00279489
-0.0136937
0.0071994
-0.0046182
0.00408695
0.00327793
0.00132179
-0.0289954
-0.0121073
-0.00671737
0.00190566
0.0162333
0.00480736
0.00585212
0.00268773
-0.0150394
-0.0291909
-0.00173446
0.00361356
0.00191857
0.00213158
0.00282916
-0.00483694
0.0018121
-0.039661
-0.0155487
-0.00338715
0.00466543
-0.00604074
-0.00387135
0.00118668
-0.00451886
0.00483639
0.00455894
0.00424051
0.00239809
-0.0013254
-0.0147646
0.00136955
0.00232113
0.00283317
0.00260464
0.0010417
0.00583248
0.00311302
0.00287587
0.00286956
0.00199107
-0.000922517
-0.038214
-0.00666347
0.00214928
-0.0749945
0.0030124
0.00275989
0.00111709
-0.00452257
-0.0340828
0.00117383
0.00349506
0.00265211
0.0036539
-0.0150023
0.00449302
0.00273329
0.00494342
-0.0230051
-0.0270752
-0.0053649
-0.000821332
-0.0329326
-0.0186472
-2.36981e-05
0.00452396
0.000549701
-0.0283427
0.0024053
-0.0254245
0.00238132
0.00520046
0.00277097
0.00349695
0.0027192
0.000780368
-0.0149093
-0.00570197
-0.00820945
0.00289436
0.00366897
0.00260697
0.00186674
0.00273215
-0.0101012
-0.00225041
-0.00380774
0.00265321
0.00746589
0.00300206
0.00212913
-0.00799879
-0.0290115
0.00232594
0.00227993
0.00502084
0.000904202
0.00298409
-0.0330362
0.00564647
0.00234505
0.0039413
-0.0419865
0.0079078
0.00360262
0.00200072
-0.000354423
-0.0109347
0.00250676
-0.00224193
0.0142125
0.000308962
-0.0230897
0.00358135
-0.00322907
0.00190848
0.00442713
-0.0291048
0.0057088
0.0147894
0.00351273
0.00232176
-0.00286061
0.00379869
0.00974369
-0.0127088
0.00155299
0.00288143
-0.00451545
-0.003854
-0.0286958
0.00352292
-0.00801108
0.00218289
-0.0203236
0.00298109
-0.0456509
0.00283571
0.00330252
0.00326793
-0.0343575
0.00116562
-0.0191726
0.00505426
0.00580469
0.00234153
0.00728493
-0.00793434
0.0018495
-0.102037
0.00437985
0.0028284
-0.00217376
0.00603575
0.00263368
0.00398555
-0.0155506
-0.0110935
0.00341653
-0.035569
-0.00877792
-0.0226813
0.00610023
0.00478967
0.000915578
-0.00124145
0.00253566
-0.0161981
-0.0028889
0.00382443
0.00262966
-0.0421626
-0.0440873
0.00190437
0.00342668
0.00340009
0.00451313
0.00346772
0.00540352
-0.00022182
0.00193776
0.00265019
0.00573876
0.00467914
-0.0104677
-0.00446834
-0.0218202
3.75397e-05
0.00568425
-0.00336813
0.00245675
-0.00993129
-0.000671979
-0.0203433
0.00341562
-0.00141193
0.00129913
0.00174832
0.0055685
0.000647851
-0.0170666
-0.00630881
0.00359161
0.00166277
-0.0380332
0.00226479
-0.0162686
-0.0180318
0.00815446
-0.00133136
-0.0376555
-0.0775124
-0.00199658
0.00474146
0.00318933
0.00306337
-0.0160689
0.0012784
-0.0100453
-0.00999275
0.00292508
0.00698741
0.00844064
0.00172305
0.00316835
0.00371243
0.00235812
-0.000906946
0.00385883
-0.03203
0.00456344
0.0096471
0.00216365
0.00344142
-0.0644217
0.00268761
0.00506792
0.00318206
0.00562961
-0.00571133
0.00717611
-0.0649456
0.00200679
-0.0158945
-0.0144829
-0.000287922
0.00344517
0.00372534
-0.000377016
-0.00251547
-0.0199496
-0.00317695
-0.0139458
0.00282663
0.00116126
-0.0368267
-0.0198112
5.20424e-05
0.0132705
0.00165735
0.00124407
-0.013502
-0.000969591
0.00310937
-0.00355504
-0.0103547
-0.000866754
-0.000852422
-0.00366733
0.00405546
-0.00341046
0.00368283
0.00013014
0.0139577
0.00244245
0.00204641
0.00788737
0.00271591
0.00316648
-0.00574064
0.00251567
0.00726334
0.000350863
-0.00924229
0.000278509
0.000555381
-0.0153615
-0.005877
0.00436621
0.00350175
0.00133442
-0.0171739
0.00316418
0.00318622
-0.0429349
-0.0144563
-0.00843317
0.00729141
-0.00239452
0.0083636
-0.0182839
0.00333319
-0.00563005
0.000459385
0.00275847
-0.038424
-0.00887007
0.00371622
0.00512594
0.00304711
0.000349087
-0.0349182
-0.000317333
-0.00586783
-0.017882
0.000515099
0.00218773
-0.0221449
0.0030038
0.0122807
-0.0206226
-0.0399181
0.00750475
0.000869129
0.00725185
0.00188756
0.00141738
-0.000813649
-0.000274773
0.00175377
-0.0194408
0.00270232
-0.0139459
-0.0234757
0.00344724
0.00340219
0.00259305
-0.0355758
0.0027588
0.00186961
0.00479468
0.00302767
0.00025077
0.00409654
-0.0192865
-0.000242767
-0.00120021
5.02954e-05
0.00158551
0.00562878
0.00209183
-0.0184157
-0.0112501
0.00579805
0.00301878
-0.00278375
-0.00173893
0.00341336
-0.0445704
-0.0191842
-0.000297144
0.00547866
-0.0224229
0.00343415
-0.00234524
-0.00144653
-0.00834607
-0.0189109
-0.0283535
0.00381674
0.00250455
-0.0173466
0.00567034
0.00255734
0.00295587
0.00195568
0.00367582
0.00389117
0.0025176
-0.00849701
0.00298017
0.000143121
0.00328223
-0.00195918
0.00455685
0.00458025
0.000104509
-0.0738156
-0.0156182
-0.031972
0.00242597
0.00765364
0.000161301
0.00498822
0.00302686
-0.00115695
-0.0650575
-0.0134818
-0.0173162
-0.0114265
0.00283391
-0.0116977
-0.00154416
-0.0336481
-0.0241135
0.00382547
0.00364334
0.00203969
-0.00401738
0.0056951
-0.00124344
-0.0221764
-0.00195494
0.00337401
-0.031728
0.0027789
-0.0125709
-0.0298313
-0.0222538
-0.0329118
0.00201922
-0.0174149
0.0104184
-0.0820333
0.00262131
-0.0663012
0.00859339
0.0028792
0.00114845
0.00385315
-0.0655597
0.00264097
0.00268656
0.00205713
0.00229142
-0.0561278
-0.0166154
0.000102731
0.00114504
0.00250439
-0.00592363
-0.0425564
-0.000587264
0.00242627
0.00875998
0.00228027
-0.00658716
-0.0728741
-0.00260254
0.0026009
0.00213878
-0.000514782
0.002814
0.000289448
0.00225435
0.00456059
0.00581572
-0.0297621
0.00697105
-0.00337078
-0.00116974
-0.0297162
-0.016193
0.0145126
-0.000393725
0.00343667
-0.0185076
-0.0358052
0.00505552
-0.0300507
0.00881065
-0.00147284
-0.0846973
-0.0195982
0.000401021
-0.0131602
-0.00277844
-0.00220088
-0.00704436
-0.0151815
-0.0293123
0.000415642
-0.00322218
0.000230529
0.0101978
-0.0201296
0.00238857
0.00268717
0.000621897
-0.0486621
0.00192726
0.00262168
-0.00194204
0.00288651
0.00204226
-0.0392246
0.00422741
0.00338164
-0.0978993
0.000999875
-0.0166481
-0.0144598
-0.00283582
0.0055654
0.00365412
-0.00707449
-0.0456447
-0.0105233
-0.0390857
-0.0465327
-0.0144634
0.00256718
-0.039874
0.00240078
-0.0391731
-0.0547895
0.00199419
-0.000417426
-0.0142894
-0.0297164
-0.000355427
0.00341722
-0.0559612
-0.0024391
0.00276465
0.00192465
0.00440699
0.00260137
0.00683787
-0.0358339
0.00216729
0.00100887
-0.0492085
-0.000268557
0.00144006
0.00121756
0.00353477
0.0201552
0.00206214
-0.00216735
0.00284239
-0.0131477
0.00149186
0.0075631
-0.0456967
-0.0219233
-0.0065104
0.00280469
-0.00104613
-0.042768
0.00232655
0.00291878
0.0039372
0.0034653
-0.00635708
0.00103815
0.00495507
-0.0605517
0.00296234
0.000928377
-0.000678562
0.00354625
0.000443287
-0.00759026
-0.0851874
-0.0178383
0.00245503
-0.0268609
-0.00372813
0.00370668
0.00191921
0.00429348
0.00156269
-0.000172642
0.00207461
0.001015
-0.0437983
0.00277882
-0.00275188
-0.0214849
-0.0349597
-0.00829368
0.00250381
-0.0167252
0.0054311
0.0023394
-0.00299497
0.00255941
0.000417853
-0.0149158
0.00432833
-0.0380248
-0.024254
0.00185373
0.00250486
0.00344256
0.00449637
9.05573e-05
0.00218475
0.013892
0.000709986
-0.0766353
-0.0071779
0.00458836
-0.020936
-0.00801104
-0.00163259
0.00616719
0.00412469
0.00204162
0.0072826
0.00698689
-0.0192774
0.00101133
0.0104325
-0.00631839
0.00849833
-0.0202494
-0.0304392
0.00337002
0.00632345
0.0028816
0.00034252
0.00556997
-0.0123399
-0.00198229
-0.00146992
0.00343076
-0.0456147
0.00192877
0.000957777
-0.000147808
-0.000381086
-0.000572606
-0.048505
0.001003
-0.01466
-0.0278344
-0.0236009
-1.62385e-05
-0.0221541
-0.0108621
0.00331856
-9.99556e-05
-0.0258601
0.00322352
-0.000230097
-0.0149226
0.00363447
-0.00734074
-0.00193934
-0.00603214
0.00289989
-0.00229008
0.00607527
-0.00418879
-0.00689148
0.000479262
-0.00451462
-0.0170888
0.00212404
-0.0963119
0.0022858
0.00459733
0.00262365
0.00714757
0.00541632
0.00332492
0.00465809
-0.000396886
-0.0192944
-0.0038389
-0.0239533
0.00281555
0.00185371
0.00853903
-0.0166361
0.0019172
0.00345393
-0.000213447
0.00454306
-0.0459784
0.00305844
0.00268908
-0.00767688
0.00339518
-0.025426
-0.0187852
0.00262929
-0.0501148
-0.0413221
-0.0272494
0.00316797
0.0117723
0.0011949
0.00110114
0.00357387
-0.00934068
-0.0189394
0.00283114
0.000312367
-0.0331446
0.0139052
-0.0102824
-0.0164212
0.00233542
0.00344141
-0.00427454
0.000749719
0.00228257
-0.000716662
0.00212471
-0.0191363
0.00266448
-0.00068122
-0.000815935
0.00535322
0.00657184
-0.0164931
0.00165416
0.000704776
0.00770077
0.00262348
0.00166404
0.0046714
-0.0265715
-0.0275461
0.0012353
-0.00110565
0.0141522
0.0117613
-0.013691
0.00272033
-0.0033301
0.0027838
-0.00285847
-0.00226497
-0.00446094
0.000452206
-0.00283873
0.00337868
0.00330523
-0.0150392
0.00573439
0.00727598
-0.0153565
-0.0257963
-0.0337502
0.00333238
0.00867917
-0.0135203
-0.0276942
0.00347473
0.00304111
0.00149465
-0.0222891
0.000287036
0.00276316
0.00263816
-0.0235755
0.00329949
-0.0255328
-0.000493285
0.00238876
0.0133853
0.00165822
0.000444941
0.00178798
0.00180786
-0.0214063
0.0030573
0.00261838
-0.0163047
-0.0497439
-0.0348077
-0.00609882
0.00388714
0.00720701
0.00356679
-0.008704
0.00228058
0.00291353
-0.00339796
0.00183718
0.00425937
0.00363135
0.00361347
-0.022749
-0.0568083
-0.0261288
0.00329868
-0.0231773
-0.04102
-0.0265436
0.00295813
0.00265456
0.00189951
0.00563892
0.00144488
-0.00118523
0.00294019
0.00283189
-0.0248851
0.0028284
-0.00529897
0.00195684
0.00141029
0.00205313
-0.00432559
-0.00242236
0.00264325
0.00207391
-0.0143167
-0.019331
-0.0171265
-0.0267639
-0.00630337
-0.00194768
0.0148515
0.00449454
-0.000444973
-0.00224231
-0.0370659
0.00116748
-0.0728828
0.00468325
0.00372081
-0.0309219
0.0020467
0.00199539
0.001397
0.000894216
0.00231759
-0.0146027
0.00280053
0.00287678
-0.00286939
0.00491858
-0.0329373
0.00145963
-0.0261715
0.00313621
0.00264961
-0.0301354
-0.0186999
-0.00480256
0.00109542
-0.00111648
0.00280958
-0.020268
-0.016236
-0.042109
-0.0103277
-0.0147322
0.00322948
-0.0252665
0.00256797
-0.00261248
0.00331073
-0.0150775
-0.0458728
0.000136815
0.00489561
-0.0147194
0.00110026
0.00878797
0.00237298
0.0126422
-0.0103645
-0.0317569
-0.0199955
-0.00307188
0.00285895
-0.0197587
-0.0560716
-0.0191233
0.00244169
-0.00683881
-0.0113617
0.0093246
-0.0120845
-0.0415932
0.0105312
0.00155779
0.00279029
-0.00289099
-0.00445986
0.00433695
-0.00182973
0.00649423
-0.0148985
0.00012848
-0.00641852
0.00746158
-0.0215883
-0.0443808
0.00183227
-0.0138139
-0.01262
0.00294624
0.00582895
0.00612414
-0.00429848
0.00273226
-0.00451564
0.00510247
-0.0252131
0.00423455
0.00342567
0.002554
0.00216167
-0.0559868
0.00144333
-0.00190298
-0.00213098
0.00218704
-0.034767
0.00361035
0.00416553
0.00327545
0.00268574
-0.0349725
0.00211907
0.00518826
-0.0124529
0.00567935
0.00284066
-0.0238222
-0.058408
-0.00101895
0.00444266
-0.000702327
0.00211515
-0.00347436
0.00154216
0.00374878
0.00235593
-0.0473392
0.00702324
-0.0542212
-0.0208995
-0.00180362
0.00570873
0.00258633
-9.75808e-05
0.000798921
0.00290385
0.00571839
0.00491296
-0.000639975
9.86684e-05
0.00359636
-0.00549395
-0.00414603
-0.000634407
0.00316832
0.00246319
0.00450647
0.000483161
0.00699182
-0.0311754
-0.00335473
-0.0175668
-0.0234963
0.0021394
-0.00323846
-0.0163524
-0.0360598
0.0024676
-0.0005787
-0.0161607
-0.000118797
-0.00219563
0.00331931
0.00233961
0.000488175
0.00267641
0.00256683
-0.000125179
0.000244084
-0.00536262
-0.0190901
-0.00176064
-0.00305702
0.00119236
0.00275391
-0.0273011
-0.0468091
0.0026658
0.00529625
-7.15889e-05
-0.00365674
0.00123617
-0.0195157
-0.00297516
-0.00234093
0.00663994
-0.00156764
-0.00169875
0.00288467
0.000124831
0.0140073
-0.00349338
0.0031855
0.00135399
-0.00441963
0.00888357
0.00224043
0.000106773
-0.010641
-0.0883917
-0.0144094
-0.00792874
0.00315598
-0.00494228
-0.0153098
0.00392217
-0.0459366
0.00263313
-0.0217024
0.00272723
-0.0057301
0.00216559
-0.028025
0.00352897
0.00329798
-0.00237228
0.00336981
0.0023283
0.000349805
0.00280247
-0.00446033
0.00141015
-0.00458782
0.00258165
-0.000132636
-0.0342755
0.00331924
-0.000476445
0.000182564
-0.00957367
0.000981885
-0.00539741
-0.0321442
-0.0199417
-0.0311749
0.00348705
0.00367105
0.00169574
-0.00403523
0.00171369
-0.00259339
-0.0025499
-0.0649383
-0.00912453
-0.0457853
-0.00581853
-0.00520963
-0.00315416
-0.0199578
0.000152639
0.00174725
-0.00391416
-0.00190231
0.00220345
0.00238458
-0.00383376
0.00218013
-0.0117843
0.00918612
-0.00948655
-0.00692858
-0.00760083
0.000777774
0.00295563
0.00438358
0.00345881
0.00414728
-0.0216343
-0.000124067
-0.0568152
-0.00338378
0.00214337
0.0044807
0.00199002
-0.0139684
0.00224759
0.00102103
-0.0164553
0.00468166
0.00456592
-0.00411626
-0.0305494
0.00215851
-0.0235018
0.0033859
0.000951789
-0.0031614
0.00253287
0.0106798
-0.00887469
0.00699329
-0.0415881
0.00237521
-0.00178822
-0.0481057
0.00294412
-0.00104836
-0.0280563
0.0028301
-0.00611421
0.00283842
-0.0262719
-0.0659466
0.0036066
0.00588754
-0.00233948
0.00169733
0.00320121
0.00373154
-0.104917
-0.00407721
-4.41504e-05
0.00456745
-0.00990837
0.00593931
-0.0404402
-0.0381828
-0.0154557
0.00249824
-0.00686925
0.0036343
-0.00149594
-0.0157063
-0.0265808
-0.0107678
-0.033841
-0.0325126
0.0029042
-0.0638948
0.000315644
0.00144179
-0.00539884
0.00108202
-0.00739533