/*--------------------------------*- C++ -*----------------------------------*\
| =========                 |                                                 |
| \\      /  F ield         | OpenFOAM: The Open Source CFD Toolbox           |
|  \\    /   O peration     | Version:  v2012                                 |
|   \\  /    A nd           | Website:  www.openfoam.com                      |
|    \\/     M anipulation  |                                                 |
\*---------------------------------------------------------------------------*/
FoamFile
{
    version     2.0;
    format      ascii;
    class       volScalarField;
    location    "150";
    object      omega;
}
// * * * * * * * * * * * * * * * * * * * * * * * * * * * * * * * * * * * * * //

dimensions      [0 0 -1 0 0 0 0];


internalField   nonuniform List<scalar> 
18166
(
0.0343892
0.0219219
0.0222719
0.0948321
3.70861
0.0405758
0.0217939
28.7646
3.49412
2.53122
0.0220406
0.0219783
3.64988
0.273995
5.57284
0.272526
0.022123
3.16383
0.02198
7.45878
0.139774
0.0221237
0.136956
0.0220723
0.0218944
0.0217993
0.0322268
0.0286181
0.0220268
0.100226
12.4004
0.0215134
0.0219563
0.0219575
0.0214645
0.0220404
3.4951
0.0220465
0.0217036
2.50089
0.02226
12.8379
0.0219623
0.0220291
0.0351418
0.0221366
0.0902713
22.0295
0.199702
0.0305598
0.0447153
0.0442867
0.150939
0.0222355
0.0220465
6.34877
12.3081
11.383
0.0231524
0.0255792
0.0613115
0.0263616
6.0032
0.031669
0.291737
0.0220824
4.07792
4.90588
16.8292
0.03044
0.0214681
0.0223048
0.0337401
0.0242224
7.99257
1.07883
0.158485
13.5654
0.0251725
0.0220732
0.0222558
3.74316
0.0220787
0.0220434
0.0216029
0.0229275
0.0258823
0.0219348
0.0451564
0.0216948
8.09165
0.0390704
4.87741
0.0222767
0.022253
0.0230428
0.0215825
0.0575099
0.0246442
0.028296
0.0219707
0.0221405
5.68825
0.0321131
0.0304055
0.0221491
13.806
3.03001
0.024471
0.0220722
6.04211
3.56554
3.97927
4.85952
0.0221503
0.0216744
0.0607249
8.04767
0.0222203
4.43223
4.76442
0.0220391
0.593228
7.77653
0.125176
0.0219852
0.0221556
3.54101
0.0282761
0.0391118
0.141628
29.3616
0.0247279
3.04485
0.0271212
0.0890333
0.0220511
0.0218783
0.02483
2.82886
3.44308
0.308204
1.67526
2.72543
0.0242258
9.86773
27.289
5.80888
0.0218988
0.0263979
0.0215796
4.0556
11.2186
0.125691
0.0222513
0.0220784
0.022422
9.98316
0.0220579
3.54942
0.0216543
4.60671
0.0251607
0.0218031
0.0457018
0.634536
0.0221523
2.56953
3.77624
6.36733
0.221216
4.83218
0.0381296
4.88453
4.8633
0.0219685
0.322509
4.9256
0.0219036
0.0219402
0.0221513
0.0366635
0.166025
0.295097
7.03634
0.0218645
0.0512439
0.0910881
0.0220382
0.021659
0.0640982
0.0219781
0.0428442
0.0220479
0.0341789
5.9855
0.0389357
0.0336481
7.37141
2.87308
0.207013
4.09196
0.0217919
5.88977
0.0220307
0.045174
3.8747
9.49029
2.97684
24.6296
3.85262
3.43838
0.0219137
0.0221055
0.0472218
0.0378695
0.436798
0.0584478
3.87256
3.65597
0.0249267
0.0219538
0.0218694
0.0486399
7.29668
0.0217747
0.0550417
0.0218482
0.0233518
0.0217853
8.49456
3.96557
0.023273
1.78036
0.0220113
0.0227623
0.0454426
0.0556259
4.02962
9.8672
0.0433393
3.63904
7.68465
0.0251726
5.17662
0.0221199
0.0950563
3.63867
3.41895
0.0229133
0.035212
0.0221516
0.0220361
0.0278012
4.27199
9.06446
0.0221093
3.73835
5.04758
0.0218063
0.0220931
1.81858
0.0616975
0.198741
10.5614
4.23003
4.68666
0.0241158
0.022264
0.0289539
0.0310711
0.0221077
0.0219098
5.01152
0.0460227
6.76185
4.86441
0.0218375
0.760554
0.0215492
0.0828393
3.91423
0.0238912
0.0221467
0.0244734
0.0825377
0.026489
0.0224447
3.51722
0.0221623
0.028657
0.082699
0.0246795
0.0221066
0.0238202
4.50629
0.0217815
0.0221193
0.0217736
5.19391
4.77216
0.0220749
0.0221896
0.0219044
7.93268
0.0219521
6.90773
0.138816
0.0220363
0.0216536
0.0244893
0.784946
5.96945
0.0271145
0.0221616
4.42636
0.0753608
0.0247396
0.0220955
0.374546
0.0219371
0.0246257
4.06008
0.0592527
0.0351958
0.029632
0.0224418
0.0219534
0.0216257
4.48958
0.0218747
2.8293
0.0221703
0.021795
15.4522
3.68564
0.219235
3.77951
6.09256
4.69108
0.0219199
4.276
0.393184
1.79512
0.0226736
0.0220582
0.0217944
0.0275936
0.0223947
0.0520239
0.0232821
0.0803294
0.0221203
0.0218835
0.0687222
0.0258598
0.0687114
0.0424572
0.0220541
0.0216263
0.0219501
4.15037
3.44008
0.0221136
0.0217975
0.0220169
0.0222699
0.104074
0.022272
8.54681
5.43151
0.0219173
0.0219379
1.52995
3.57875
16.7019
1.83179
0.0222468
0.0428203
0.224682
0.0218023
2.43612
2.69182
0.026337
0.0239093
0.0219872
0.0220847
0.0222755
3.98641
0.0219846
0.0214815
0.0264287
0.0216896
4.28487
0.213676
0.0222414
0.022132
6.55682
0.0218194
0.0218309
0.0221511
0.281886
3.8206
0.0222711
6.99964
0.0227083
0.0217885
7.21857
5.59125
0.022411
8.16909
7.71837
0.0386128
6.13305
0.0244625
0.0276497
0.0806296
0.245733
0.021407
0.0220988
0.0224978
0.0219879
1.03555
0.0239924
0.815243
0.022269
0.485291
0.0219523
3.27009
29.7309
0.0259383
0.561192
0.0366759
0.022462
0.0430533
4.37542
5.58837
0.0222002
7.55417
0.0356954
0.0216687
8.08033
3.77283
0.0219527
4.51295
4.57158
0.0220882
25.5763
0.107452
0.0217781
0.0470555
5.06363
3.32769
0.0462876
3.15993
3.57732
0.336389
0.0756278
0.0216833
3.74085
0.0219786
0.0220427
0.664808
6.1904
0.0228892
0.0223645
0.0352259
0.024228
0.0220986
0.0217905
0.021609
0.0555491
3.4538
0.0219559
0.0814824
0.0222788
5.16022
0.0221034
0.0220184
0.665465
6.14668
0.0518152
4.13642
0.0219864
0.0219984
3.64611
19.0602
0.0578689
0.0223789
0.245552
0.200693
0.0221959
0.0221565
0.0222382
0.0228628
4.58861
3.67953
0.0220246
0.0226271
0.0985703
3.63794
16.4303
0.0214791
0.0229489
4.60888
0.0220337
0.0221521
0.0220825
0.0217034
0.0594612
0.385464
2.58327
0.284288
0.0220646
0.178843
0.0218938
0.0222763
5.49456
2.68559
0.0482824
5.01329
3.98774
6.28218
3.6134
0.170022
3.93238
7.69718
0.0940321
6.51141
0.0219776
0.0732592
0.0229264
0.023043
0.0910174
2.77593
0.0231378
0.592665
6.25967
0.042395
0.0222543
0.021998
2.39287
3.85901
4.21985
0.0215264
0.492446
3.75533
0.0224404
0.0227488
0.022014
0.0249795
28.505
4.98912
0.0222335
3.99456
0.022119
3.54295
0.0256059
0.0220591
0.0274848
3.99961
0.021665
0.0220484
3.53692
3.81085
0.0950658
5.72168
0.0223202
0.0220844
0.0221877
1.86084
0.0930233
3.53068
0.0302405
3.3205
3.90643
0.0456955
15.5878
0.0229582
5.31677
0.0216878
0.192491
4.43284
0.0923417
0.0246962
4.60935
5.28005
0.022048
19.6531
0.021975
0.0222459
24.9873
3.59629
0.022237
0.0220938
0.0216056
3.54875
4.17721
0.0220416
0.254333
0.0244124
0.0220986
0.0219928
0.0759103
0.186044
0.0255638
17.6382
0.0221108
0.0218798
4.84166
20.39
0.388006
10.0717
2.12177
0.0222172
3.78267
16.5087
0.0241458
5.54079
0.0686204
0.0250267
0.0424638
4.42188
0.0263857
0.0717578
0.0228198
0.0320331
3.63014
0.022051
5.02416
0.0617126
0.0531296
0.0383152
0.0216767
0.0225379
6.81218
0.0220587
0.0221242
0.0968436
0.0216781
0.0618417
0.0221305
0.138354
0.0221669
0.0306675
0.0216331
31.0422
9.94763
4.07626
0.0228017
8.30624
3.62455
0.16084
0.0217808
4.1376
0.0223021
24.2652
0.0220529
0.0898784
7.75386
2.84154
19.5736
1.00185
3.93107
0.0214504
11.4785
0.0219291
0.027656
0.0240272
0.0219809
0.0220606
4.79677
0.0739784
0.0225655
4.20323
12.1602
0.0517328
0.0214575
0.0259991
0.0222638
0.0218158
0.0217002
0.0219716
0.413069
0.0272914
6.74721
3.94402
6.88566
4.60022
0.23369
0.0264896
0.0221657
7.82533
0.0218766
4.93125
4.42035
0.0216703
0.0339326
4.37248
4.20859
5.01832
0.0310973
0.0257879
0.0217946
3.80026
8.38809
6.71411
0.0677694
0.939656
21.0794
0.0652174
3.15386
22.7851
0.210504
0.0219893
7.07278
0.0863551
0.0698811
3.93609
0.0218165
0.128798
0.0905177
0.0218123
0.291834
5.6053
3.32862
5.37389
0.0311734
0.0292733
0.0220687
0.178662
1.49867
0.0266911
4.34076
0.0219263
4.00216
3.68051
0.0258707
0.0241032
0.0222699
0.0355594
0.0222578
15.0387
0.116947
3.46573
0.0217858
0.0218064
0.0217976
24.4939
3.63388
0.0330382
15.2775
0.0758642
7.3228
0.0220588
0.0221495
0.489233
0.0228646
0.549754
8.87906
0.0744618
0.479043
0.0222017
4.74336
5.01129
0.240381
0.0232534
0.0217457
0.0226711
0.0221581
0.238049
0.0243849
0.0217148
0.306073
0.0230505
1.87386
0.185174
0.0377324
0.0219243
4.3668
0.0216839
0.0260047
4.35697
0.100924
0.0219995
0.209414
4.11839
0.0217774
0.0220917
0.0219761
0.0558672
3.01007
0.0220459
9.11954
0.0222626
3.84978
10.7781
3.72433
4.91641
0.0552305
0.0295125
0.698433
0.021941
5.98489
0.0217771
0.0218243
0.0215464
0.0219816
3.50935
0.0218587
0.0220657
0.0221667
0.02171
0.880583
0.0229626
4.27823
0.0219903
0.0221673
0.0220401
5.00327
15.9444
40.6967
0.850956
0.0218301
3.9647
3.60129
0.0229224
0.0219923
6.63417
4.50316
0.0247657
0.132031
5.11124
0.0559367
0.0217884
0.0587226
0.0317093
0.0593691
4.26531
8.7423
0.0216099
6.96251
0.0218045
0.726768
0.0679413
0.0506819
0.0219815
10.5774
6.87657
5.85239
0.0221818
0.0752688
0.021673
8.79363
0.0220587
0.0407609
0.0226029
0.0218843
0.0765617
0.0238486
0.0220843
1.33873
0.0221007
4.15921
0.0284075
0.467525
0.021948
0.21911
0.0725383
0.0220401
3.87615
0.453529
5.07651
0.0221704
0.0249903
0.154644
5.25065
0.0219884
0.0223876
0.02368
5.02457
0.0215827
0.082095
0.248004
0.0229405
0.0215084
0.0221592
0.0219136
0.0485932
0.0216772
0.760659
0.0341818
0.0216061
0.0235353
6.35171
0.0219263
0.0242536
0.0218276
0.0220642
0.058043
0.216773
4.64074
0.11586
0.0229437
0.0222403
4.34236
2.50829
6.93952
10.7288
0.100796
0.406913
0.0219971
0.0325598
5.26288
7.91187
3.73307
0.0221104
0.0744394
0.0538542
11.0459
4.00222
0.0220324
0.0828405
0.0254083
3.53429
5.22451
4.52729
0.0217944
1.93778
0.0222705
0.0217922
4.63876
0.0222939
0.0226288
9.11137
2.06722
0.0219091
6.06443
0.108577
0.021651
0.672276
0.0215115
9.88503
3.49781
0.100546
5.91165
0.661669
3.55948
0.0215315
0.0225825
0.021939
0.0215675
0.0215568
0.0242243
3.58228
4.27962
0.0218637
6.29847
0.0348429
0.0373742
0.0219936
0.0230813
4.44896
3.52544
4.49361
4.79308
0.0220895
0.0449162
4.01208
0.0248203
0.257869
0.255207
3.57556
4.18191
0.0218643
0.0219296
0.0239797
0.0220694
0.0523958
1.40348
0.0224523
1.63712
0.0221172
0.0222817
0.0218358
4.97485
1.09147
0.0219946
0.0221546
6.5204
0.0219593
6.74003
3.52491
0.0219459
0.458426
0.0219584
6.8355
3.95123
3.57493
0.326196
0.0221084
0.0806424
0.88256
0.0231849
21.2106
3.76627
3.38424
0.0225153
0.0479498
0.0236108
0.0224824
5.49746
2.44935
0.110635
0.112173
0.0215587
0.202064
0.0434411
0.0221616
0.0766985
4.16775
6.975
2.19515
0.035001
0.679086
7.39352
0.0215732
0.0228574
0.0222676
0.0965143
0.0401698
0.0236631
0.0332181
0.0510199
0.0260338
0.136697
0.0220625
0.0805912
4.07172
3.58646
4.25607
18.1323
0.0218053
0.0224338
12.7138
0.0789428
0.0217841
0.0218756
3.72855
0.032121
0.129077
0.0221441
0.0229192
7.72496
7.72495
24.5242
0.0220335
3.92524
0.0232615
0.336181
4.27499
0.0222214
0.0578367
0.0504003
2.14121
6.67393
0.0240145
3.64096
4.97602
0.511072
0.0426885
3.69649
0.031149
14.8874
0.0222709
0.0222587
0.0219945
0.0219865
0.0233668
0.0461953
0.0219651
0.630429
0.0219276
0.0227506
5.30562
0.0220518
0.0987062
9.57327
4.55916
9.19866
0.0220206
0.0220518
0.0218388
0.0222783
4.34261
0.315733
0.137065
6.3226
3.44179
0.0221796
0.0354677
0.0235382
0.0222707
0.0307599
0.0221498
0.031553
0.0215121
0.0221034
0.0226967
0.0221107
0.137922
0.141284
0.0253179
3.95095
0.0219929
0.0221089
5.78967
0.0320709
4.31217
0.318102
0.0994997
0.335849
15.6146
2.41311
0.0219875
6.32077
0.0251327
3.4789
0.0353205
3.86639
4.12289
1.97733
0.0367268
4.44364
0.0220062
0.0222032
0.0218831
4.38622
0.0469299
3.7388
4.00919
2.94673
0.0217667
4.12116
4.87604
0.0219011
0.0227285
0.0439197
0.0229095
5.0368
0.0324457
0.026607
2.85126
0.0220802
7.77185
0.0230984
0.0224077
4.26312
0.0234816
2.90353
0.0223925
4.18302
0.0220794
1.97697
0.0222583
0.0220442
2.8591
0.225007
0.0216902
0.0217879
2.10885
0.0215165
0.0219028
5.48591
0.0224284
4.36549
0.304864
0.0222147
6.78799
3.96109
0.115675
0.0985773
0.0222602
5.05483
0.0220769
0.128094
0.0216482
0.0482676
0.0225977
0.0219518
0.216904
0.0221414
3.63969
2.53863
4.82043
0.023378
0.0219259
0.0222211
0.0215952
0.091337
0.0218027
36.5219
19.5368
2.95892
4.25597
0.514488
5.23739
0.315377
0.0216184
0.0462578
0.0251165
0.122606
0.0657253
0.022775
1.72498
0.0220873
0.4125
0.0263593
17.6594
4.59813
0.0215979
4.68961
5.77168
0.0611601
0.0427996
0.0476009
10.364
0.321762
4.72911
0.0221268
2.18658
0.0675461
4.57682
9.09978
1.50222
0.102803
13.03
0.172467
3.89853
0.0217911
4.63155
0.0215918
0.0226031
0.0224934
0.0220447
0.0219714
0.0215348
0.0218539
0.0221205
5.85385
3.5403
0.107623
1.04633
0.0216198
0.0224224
0.024667
2.69273
0.571191
0.0218859
13.0686
0.0219771
0.021932
0.06466
6.6531
0.026782
4.36905
0.0236194
8.85334
0.021769
0.196945
0.0261276
0.334842
0.022134
0.0221182
0.0507866
2.61841
0.0219857
0.021897
0.0308176
4.65298
0.0416689
0.02225
0.0709638
8.03548
0.0415852
0.118153
0.0278974
0.0485054
6.86624
0.0217505
9.13893
0.0217836
9.19616
0.0222499
0.795329
0.022193
4.82164
0.0220081
0.0217938
0.0273113
0.0221186
0.0442454
0.0219118
0.0222783
1.60303
0.0220037
0.0221924
3.42656
0.0263974
8.86169
0.0698032
3.61914
15.578
3.71704
0.0219375
0.634616
10.7715
0.0217574
3.07825
0.0280021
0.0219865
0.189952
0.0218769
19.7024
0.0216911
0.108901
4.27527
0.237503
0.0229363
3.61774
0.0220808
0.1865
0.0454061
0.0222104
7.04407
4.40417
1.17039
4.12545
3.59049
0.0427181
14.0877
0.595751
0.372157
0.0216065
7.96765
0.0276237
1.91791
8.78464
0.136309
0.0832214
0.0441031
0.0215974
3.5316
0.0218266
2.65653
4.35491
3.83612
0.0217972
0.0358581
6.37528
0.0219136
0.138185
7.21101
0.0223873
4.8459
0.0221262
0.434953
0.0220121
7.93369
0.269927
5.56371
3.9153
35.2648
3.52462
0.450499
0.0219896
7.54944
0.912537
0.021997
0.0228355
0.0216326
0.187818
4.80386
3.91881
0.072525
20.1271
0.0447557
0.0221635
0.0266126
0.0247656
9.28124
16.0965
5.1181
1.97476
0.0362134
0.0237527
3.95645
0.0217499
0.0243329
0.0228977
4.03082
0.0221699
0.0220988
1.98166
10.3664
6.53216
0.0241869
3.95909
0.021913
0.0220238
3.44602
1.0915
0.0221555
9.31398
5.24687
0.252884
0.0218904
1.91315
0.0222877
5.35393
0.0353789
6.42758
4.08099
0.0920563
4.3725
4.83697
0.023722
8.92356
0.026764
3.67901
0.0216516
4.00711
4.64924
7.87192
0.0681714
8.30018
5.73239
5.10969
0.0308056
0.0222561
0.360911
8.38602
0.0292795
0.0351434
0.168366
0.0220255
8.99921
0.0219265
0.0431919
4.38032
0.064426
0.0221807
4.4078
0.0221176
0.0224867
14.2089
0.0215791
0.156207
0.0472284
0.0217505
6.55806
0.328708
0.0216859
4.40022
0.0217023
2.45901
6.15525
0.0220786
0.0219688
0.0222128
5.25949
1.92613
0.0920747
5.35918
3.99898
6.13017
6.82096
3.64859
0.0217271
0.0658511
0.296086
1.97084
0.0220091
20.7236
0.0250235
0.123787
3.90575
0.0221926
0.022099
0.025825
0.0220975
0.0220733
9.96852
4.11808
0.06011
6.78877
0.0228545
3.90442
5.98296
1.75434
0.146525
6.82968
0.0220215
0.0219841
3.88713
5.80818
0.155642
0.0218983
0.0256346
0.0219764
4.19665
4.20004
0.0221027
0.0756023
0.19851
0.0220227
11.3546
8.54871
0.0333019
0.0402344
0.0219289
0.0219901
1.92222
0.0219939
0.0225261
0.0259926
0.021968
0.0226417
0.0216875
0.0407045
5.14236
23.519
5.8772
0.0221014
0.0221372
0.0219032
3.66684
0.0221096
8.69176
0.0219653
0.0684518
4.79737
0.0220676
0.0218059
0.0220865
0.0217615
0.0222134
0.568873
3.62439
0.04839
7.84555
0.0810624
0.0697271
0.0220042
0.0260196
0.0235136
6.09502
0.0235266
3.93954
0.0338286
5.64906
0.0396315
0.0355233
4.635
4.66198
0.0237996
0.0451325
0.0764083
0.0215934
0.0220013
0.0221884
0.021981
3.51249
0.0218217
2.04364
0.0218267
4.28191
0.416124
0.0221568
1.35562
9.47851
0.0273038
0.0216592
4.57411
0.442406
0.0215624
0.0220807
0.653006
0.0239467
0.0220017
0.022044
0.0219194
0.213273
0.0357003
4.72258
0.0219314
0.0595538
0.0219894
0.36117
4.30875
0.0279097
2.11981
0.0346565
0.0225743
0.0357408
0.216698
0.0220674
0.0219517
13.8958
0.0394616
0.0217094
0.445407
6.00634
0.0217335
10.7546
0.0219285
7.79973
0.105055
0.0256724
1.65392
0.0728492
0.0907148
0.0833906
3.8463
0.0224015
0.022114
20.0541
11.5343
0.0220916
1.5603
0.0227059
11.8328
0.0219208
0.0215958
0.0219133
4.34934
0.0221784
0.0520401
4.46121
0.0500803
0.0477843
0.211771
0.0227292
0.0321622
1.89859
7.47404
0.0216911
0.0219831
0.0219077
1.02577
0.0224464
3.56438
0.220816
4.15985
0.0222638
0.252675
6.41884
0.126171
13.3435
0.0224577
0.0237528
0.0401372
4.60762
0.0226119
0.0221029
0.0222697
3.8743
2.64589
2.59531
5.76939
4.14417
0.0245064
5.62847
0.021767
0.022472
0.0220109
0.0356891
0.0226814
8.85143
4.77208
0.0220724
8.56296
3.43822
0.219685
4.96312
0.0218312
9.29298
4.59044
0.0263913
0.0215998
0.0219241
4.07472
0.0482485
0.0222895
0.074222
4.58005
2.07603
5.01931
3.54621
0.0226927
0.0223962
5.02123
0.0219329
0.0215411
6.4647
0.0239384
0.023443
0.158046
0.0406739
0.022007
0.14049
2.85237
14.0741
0.0346688
3.79674
0.896703
3.84155
4.03729
0.0221493
0.0219154
6.13639
4.30599
0.0692308
5.0237
0.431757
0.0236764
0.0219834
9.28414
0.413633
0.114032
0.0217798
1.96079
0.303063
0.0220323
0.217228
1.29088
0.0219622
0.0220747
0.0216997
4.53522
0.215572
0.0477015
0.0245794
0.0283235
0.0219449
0.0221741
3.73893
3.5706
0.0222573
3.54541
0.0220158
5.4766
0.171623
5.76069
0.0864833
0.0216959
18.1898
0.0219193
1.7382
4.58353
4.73041
7.84955
0.0220676
0.0221777
0.0218817
0.0219502
0.150139
0.0216929
0.0239665
0.0226859
0.427429
0.0219842
0.0219928
4.53646
0.0221295
0.0716753
0.0217637
0.0221065
3.17317
0.0220051
0.0272793
0.0221282
1.26097
13.1498
0.0219055
0.021913
0.0254177
1.90885
0.0241317
3.5848
4.28465
4.02636
0.0225055
2.90542
0.0217233
0.267988
0.0217547
5.24767
0.0994627
0.165775
0.0437578
0.0217604
0.0219148
0.0218181
1.76544
0.341126
4.8983
1.84757
0.0219829
2.65594
0.0216036
0.0282305
0.0222322
9.48884
0.0215552
0.0238155
0.536285
0.0222716
4.77283
0.0222675
0.0260941
0.021898
0.0216261
0.0219605
0.022238
3.58477
0.0374743
3.97254
0.0220169
0.022911
5.00304
0.354509
0.0254727
4.67117
0.0436114
0.0215265
0.0220001
0.0465139
0.0222732
4.48605
0.579418
3.53427
0.0220065
0.264038
0.0221356
0.0220004
5.01508
0.0215141
0.0220696
8.9471
0.0222237
0.0239512
0.022215
0.125609
9.58809
2.10391
5.70936
0.0475237
0.0220762
0.0229112
6.83576
0.0221892
0.0219259
0.0218696
0.0270667
18.3008
0.0221674
0.0221086
0.0472287
0.0220269
0.297264
2.66014
0.0245515
4.17422
1.51287
0.0897498
0.0219598
0.12416
0.0426593
0.55362
0.422462
0.0216206
0.0220913
0.0221463
0.0223924
0.0221036
0.0217853
0.0220925
4.51844
0.0424675
0.0217541
0.0221548
3.70199
4.65677
0.0279861
0.118909
0.0219742
0.0224801
0.272006
0.229599
0.0473149
3.39977
4.39683
0.0229801
0.0224503
4.24121
0.0220053
0.0219976
0.0222483
0.0241534
0.217924
3.81324
0.0477395
2.8431
5.87151
0.0219875
0.0286174
0.0369332
9.66321
4.12547
0.0220817
0.506259
0.567661
4.17305
0.107619
0.0218261
0.0223177
8.566
0.0236699
0.0771186
3.90259
6.04016
0.192792
0.0220648
4.2714
0.0219938
0.0222572
4.09018
4.50115
0.223113
3.70942
2.78449
0.0733833
0.0215466
0.0220778
0.0219353
0.0219715
4.45112
3.71565
0.0219685
0.0215219
0.0221834
0.023035
4.43492
0.0444122
0.0217039
0.227322
5.11969
0.0853654
7.11775
0.0215399
0.0248137
0.02422
0.0216792
0.0216749
0.0335109
0.0436121
0.161924
4.49257
0.104782
7.03449
0.263965
11.7286
0.0826265
0.066567
2.18086
0.0219103
0.0219221
1.86622
4.92273
0.270837
3.5804
3.68077
4.14985
5.49837
3.59183
0.0219062
0.0220153
0.249049
0.0230871
0.0219134
0.610176
0.0398098
2.47923
0.230047
5.16874
1.80381
0.0224144
0.186559
0.0363368
0.0219145
0.021873
0.0789793
11.2604
8.47389
4.51828
0.0217573
0.0224302
0.0512136
0.0220037
6.36233
0.286229
1.27853
0.178964
0.0219489
0.023802
0.0415423
3.79003
0.0228324
9.80558
0.0227422
0.0310151
0.196464
8.04185
0.085126
0.0601965
3.4396
0.0786405
0.0216396
2.19657
0.0220125
3.6985
0.021778
0.0456588
0.0591062
0.0975788
0.0368845
0.0219218
15.5248
0.0408858
3.44784
7.77251
6.89714
0.0221138
0.0543319
0.781086
0.0233528
0.02289
3.60758
5.26277
0.022084
0.0219662
0.0222125
23.5337
0.0221212
4.30478
0.429442
4.59412
0.0435848
0.177413
0.0222773
0.0367519
0.0216858
10.397
0.0578775
0.022325
0.022087
2.4861
8.63127
0.0221055
6.04714
0.0221226
0.0221306
0.0372525
7.80481
0.0249613
0.0449441
0.0242318
0.0250151
0.443094
7.40426
3.40265
0.0581724
0.0228959
0.373766
1.9585
4.66336
5.03124
0.28374
0.0511351
0.0220788
0.0990362
2.6594
0.0220915
0.457337
0.110574
0.0221438
0.0218126
0.179587
0.0447226
0.0220632
0.0253292
0.0245777
5.84662
0.0218368
0.0215435
0.0289331
1.03732
0.753499
0.0233383
3.98136
0.0220046
0.021931
6.07483
6.40346
5.61249
0.0815683
0.798284
7.45194
0.0382704
0.0221219
0.022095
0.0773852
0.0359675
0.0221667
0.0259779
0.0218027
0.0255189
5.90178
4.02137
0.455988
3.95908
0.022108
0.0516365
4.35994
0.0217721
2.53985
0.0219388
0.0215584
0.0635152
0.0216852
0.0222302
0.0237909
0.0221214
0.0360969
1.44344
0.0217743
0.244154
4.2214
4.67312
34.2174
0.0219862
0.0220675
3.47316
3.63331
0.0925362
0.146881
7.2139
0.134724
4.37485
0.0219494
0.0322773
5.81832
0.0220013
0.176547
0.120329
0.0833203
0.0629954
0.0219203
0.0216819
0.0220896
0.0250506
1.71719
4.34068
0.0229097
4.00695
3.74304
0.021817
0.0271554
6.44662
11.881
0.0221037
4.87736
0.0497128
8.8122
0.0235613
1.6887
1.73619
0.0312742
7.36798
0.527996
0.130265
0.20967
4.98549
0.190155
0.0219744
4.15264
4.06134
0.0225216
0.0387519
0.0227826
0.428915
0.0222632
0.0219238
0.0221235
0.0299092
0.0297254
5.91185
0.0390543
5.56791
7.70813
3.91038
9.99738
0.0219809
0.0282859
0.0220008
0.0374676
0.021638
0.0221563
3.80974
15.5491
0.021922
0.0220672
0.219871
3.85399
0.0220984
0.322324
0.0220046
0.0238991
0.0219912
4.25664
0.0225284
0.0218968
0.0217621
6.98844
3.32469
0.0627383
0.0361589
0.0222772
4.71189
0.0241612
4.17034
4.14697
11.5271
0.0716622
0.021918
4.964
0.0287382
0.0223838
0.0216851
0.0221612
10.1035
0.0216909
0.0220003
0.0222696
0.0509445
0.0219475
4.55186
0.0355731
4.54552
0.0605081
4.31344
3.9349
5.7101
0.0219452
0.0224885
4.2504
5.42505
2.97928
18.5858
0.0587946
0.0265889
0.0236755
20.3777
0.0217253
0.360694
32.523
0.0219836
4.35235
4.70862
8.44922
0.0222784
0.0317578
0.0434002
0.0218711
0.0428219
0.0216993
0.0220038
4.16121
7.75787
3.67047
0.022506
0.0217276
0.0219954
4.16727
0.0215534
5.27441
4.68343
1.92023
0.0218423
0.0292764
0.0221452
0.021941
0.0217152
4.77556
0.0219103
3.82511
0.369147
3.4187
0.0216506
0.0516314
1.13525
0.0243252
4.89482
2.28736
3.86961
0.0219889
3.54947
1.91175
0.0219528
4.07563
5.95315
0.0220012
5.13155
4.77495
4.40727
0.0777913
0.0219913
0.046046
25.3114
0.461742
0.0220087
9.40806
0.105076
0.063566
3.43322
0.804266
4.17297
0.022278
0.0254266
0.16079
26.387
4.73851
4.00034
0.0589353
4.37057
0.262197
0.336839
0.0241239
0.0218415
0.0232593
3.83263
0.593656
22.165
3.62967
0.0341864
0.0348943
4.33508
0.212372
0.0218425
5.19696
0.021738
0.0534783
0.0219969
0.0461057
2.35996
0.022819
7.69574
0.0651206
0.022218
0.0233547
0.0893074
0.0222172
0.0218138
4.03592
0.0218974
0.173696
4.60713
0.0666315
0.0219227
14.7638
0.0217567
6.18702
0.327116
0.02204
0.0222796
0.0221063
0.0221686
0.0220652
0.0222931
0.0228772
0.0222599
4.28442
0.0239874
0.0218568
0.0220866
0.0217116
3.77553
4.21298
0.116459
0.0220758
0.0232282
12
0.109115
0.0384841
0.0220434
0.0221715
0.0216719
4.62627
4.99253
0.0452783
4.4374
4.11436
0.590311
8.66147
4.60701
0.0218625
3.47198
1.73149
0.047432
0.0219929
3.82096
0.0219065
3.67541
0.0468516
0.057775
0.029812
10.6111
4.21937
0.0425623
4.19406
0.111413
0.0219954
0.0956917
0.133883
0.126541
0.022189
0.0671158
0.0246258
3.59847
1.70185
0.0219426
0.0216674
0.231553
0.0214577
0.0298593
2.83905
0.12405
4.04153
4.42967
0.0219961
4.94052
0.0223789
7.11686
0.0241412
0.140042
0.0242842
0.0219173
0.0220772
0.0666259
1.63936
0.0218515
0.879248
0.0227553
6.70112
5.89223
0.168871
6.42287
5.02134
4.3895
3.1785
0.0742528
0.031612
0.0297259
0.0220944
0.0215288
4.98248
4.35654
0.0220946
0.0216592
0.0217868
0.0220838
0.281012
10.9648
0.0221199
0.101402
0.500157
0.0326766
4.64959
2.42884
2.21702
0.0258081
0.0287163
0.022268
0.0215548
0.0219237
0.0763978
0.0218613
0.0262397
0.0237694
0.27435
0.0220972
0.0221717
0.0237636
0.021749
0.0219558
0.0763353
0.0401038
0.0661835
4.43448
0.0217464
0.394981
0.17956
0.0216822
0.192971
3.91574
0.0221875
5.94901
4.97217
0.0217409
0.103028
0.0947773
0.0425452
0.0220644
0.299642
0.0216337
3.88789
0.135612
5.66467
4.25137
0.219366
0.0375686
0.0219137
3.49087
0.174685
4.76057
3.6165
5.03608
2.30627
3.55865
0.0223452
0.149154
3.57211
4.1052
0.0374229
0.0322907
5.65964
0.0217242
5.01392
2.50053
0.251142
0.0219876
0.115113
4.78075
5.44295
0.0217286
6.64155
0.0234248
0.0215412
5.41323
4.67355
0.0361694
0.0220069
0.0242269
2.21621
0.0254979
5.45708
4.1403
21.0656
0.0221159
0.0221033
3.87509
2.42621
0.0854096
0.0296033
0.0326508
1.75447
1.03441
4.09877
4.23297
12.8712
0.241399
0.0219995
6.38301
0.117473
0.0239345
3.55411
2.16775
0.02549
3.38773
4.28069
4.73623
0.0216776
0.0521843
0.390175
0.151678
0.0509403
0.0268367
4.44755
0.0217366
0.043055
0.128085
2.69163
8.33439
0.372621
4.16962
4.28709
4.52404
10.54
0.0222214
1.32875
0.0282814
3.66287
0.0219117
3.93643
4.18149
4.4912
8.04973
0.0241186
3.5654
4.50434
3.57049
4.14789
0.0257403
0.431063
0.0222741
0.0217093
0.133661
0.0341739
3.22055
4.12061
0.0220005
0.022023
15.6949
0.0218595
3.92397
0.0218813
5.91128
0.0222507
0.0280843
5.0586
0.0218721
3.57829
3.65699
5.58307
0.0220063
0.0602056
4.37445
0.220871
0.28591
11.1244
5.01501
0.0252873
0.0217467
0.0365446
0.215061
0.022867
4.03608
3.79437
0.565043
0.0246442
0.690345
0.0258514
4.71158
0.938555
0.0220183
0.0221152
4.00034
0.279998
1.43818
1.60708
0.0218612
1.63639
14.0833
34.8097
36.1498
0.183717
5.62127
0.0219154
0.221303
0.021952
0.0230953
0.0227988
0.142379
0.0433596
0.0219108
3.40014
0.0219134
0.925365
0.0326119
0.106751
0.219068
6.69299
0.323957
0.0686435
0.022007
3.65734
0.0738645
0.0247385
0.0244628
6.91999
4.08965
0.0219744
6.90862
3.68337
0.0732008
4.13895
0.0266611
0.0220002
3.66737
3.6136
3.894
0.548079
4.27925
0.278315
0.0352829
0.0236669
0.0221342
0.266282
0.30532
0.0221571
0.0222667
12.2014
3.48467
5.01333
1.87165
3.78302
0.0492797
2.46678
0.0220986
0.0303803
4.38207
4.38175
4.04223
5.15038
0.0322701
0.225225
0.660222
3.78964
0.167023
4.85075
1.68589
0.0222141
4.53193
0.063092
0.0215152
0.0220927
6.11429
0.0221637
0.0221103
0.0344795
0.46334
0.0443296
0.0287116
0.0241186
1.3585
0.0405657
0.0804148
0.0259521
0.390606
0.123724
0.0254568
0.0219124
0.0220083
5.41567
4.13721
0.0220557
0.0223946
0.811947
0.0216412
0.207103
0.0474455
1.23345
0.0219597
0.203726
0.0217605
0.0554881
0.0218718
0.278499
3.9681
0.44288
0.599009
0.0222098
0.37557
0.0629526
2.81827
0.0217435
0.0221521
0.0235005
4.65514
5.17255
0.0247912
0.0221866
0.174141
0.452367
7.55595
0.0216586
4.8961
0.0220122
0.0221731
0.0227001
1.76359
0.0216512
0.0251795
0.0221933
3.64637
0.0244854
0.0217912
6.41442
9.36061
0.0220087
21.3299
0.0391662
0.0704514
2.68496
2.03451
0.0218716
3.77837
4.28527
3.9271
0.0220832
2.23385
0.0224416
0.0418388
0.161665
0.022292
2.80241
0.179811
0.0463367
3.93676
0.0234322
0.21672
0.505448
5.07331
0.0219542
4.07135
4.23823
0.0381034
3.44358
0.0960156
6.99058
0.0576187
2.37019
0.0483491
0.0217222
0.0220606
0.125985
2.04535
0.0359013
0.0216234
0.0305608
0.0220239
4.22812
0.025551
4.23947
0.0219388
0.116286
0.192652
0.0375107
0.0221014
0.0558829
0.0414051
0.0217726
5.08127
0.0312417
3.13368
0.0568861
0.0391772
4.97096
21.5433
4.74521
0.582504
0.0812792
0.0389397
0.0289123
0.269054
0.0221001
0.135715
0.0716669
0.0368928
4.94008
0.021943
0.0549973
0.0220699
21.4006
0.0234831
0.202096
0.082351
0.0222037
0.0216021
0.357051
0.0405837
6.98008
0.208938
0.141925
0.029528
0.101836
0.0219328
0.0461044
0.0219839
0.0220971
3.5186
0.101783
3.97989
1.40164
0.0221499
0.0230066
0.154188
0.0222898
0.0239935
0.0219824
0.0381493
10.5997
0.0293635
32.5574
0.278921
0.0221898
0.0930295
2.14426
0.0222888
0.021675
0.0221685
0.753687
1.89346
0.0222451
0.317179
4.18846
0.310659
0.0218285
0.155238
0.0285473
0.0219866
8.09577
0.0235451
4.91574
0.0223039
2.7849
4.95945
3.77928
24.3267
0.123514
4.79671
3.90142
19.3048
0.0222551
3.62588
0.0572533
0.0216645
0.0822557
1.7931
0.0221235
3.37686
0.0219173
0.026055
2.93854
0.0229917
0.0465322
0.0229785
0.0219209
4.09049
0.0343295
0.0428495
0.0220928
0.0219382
0.0220043
0.0845949
0.0215494
2.23342
0.0754471
0.0239068
0.0219216
10.6558
0.0954036
0.0841623
9.99548
0.0239067
2.17168
3.39174
0.0246312
4.98042
0.0465302
0.0484266
0.0397352
0.0221474
0.0219794
4.95138
0.0529104
0.0219242
3.80888
0.0600009
0.0766105
0.0219963
0.0624052
0.0325682
0.04035
0.0219208
0.0221645
0.306843
0.0443231
7.19348
0.0633139
0.0381214
0.0591245
15.6761
0.050463
0.0677757
0.021931
5.85651
4.62225
19.6399
3.46864
4.52465
0.369952
1.2379
0.0219834
4.37019
0.0987583
0.161168
8.18953
0.021744
0.036379
4.00875
0.0219216
0.0216769
30.8407
3.37486
0.0222738
4.53631
5.56624
0.0215361
5.7678
0.280147
5.61553
0.0219848
3.21313
0.0220085
0.0222634
34.5934
0.304051
0.12328
0.0460512
4.58004
0.09926
2.34901
2.35041
0.0354298
0.229646
2.33091
0.0366826
4.26655
0.0219164
2.48047
0.0219239
0.0219859
2.23871
0.022289
0.0216629
2.51106
0.0237417
0.0220714
0.0328398
1.37977
4.00679
0.0227
9.25071
0.15232
0.0287213
0.0217728
0.031131
0.0218685
3.53757
0.0221441
0.134421
1.88564
0.191122
3.8921
0.0245598
16.1859
0.0217924
0.0239445
0.675485
0.0217273
0.0901105
1.81817
0.0219604
0.060813
4.91303
0.299679
1.76317
0.0605117
2.34553
0.022128
4.35672
4.08372
0.0218603
0.0220845
0.15674
0.0372048
4.01871
3.59253
2.54587
0.397412
0.0429768
4.73396
0.0215532
0.227355
0.0828071
5.70568
1.82969
0.048457
0.0217224
0.0292897
3.00743
0.0219262
0.0222231
2.47619
0.0217231
0.0221353
3.88297
4.01241
2.00265
0.0219591
1.77859
0.022089
0.231706
0.0217778
0.376783
0.189592
3.79242
2.27895
5.76271
0.0218085
3.65145
4.99246
3.54299
0.338325
0.824634
2.39981
0.394444
0.24943
0.0218767
3.95109
10.8865
0.351957
0.0219682
3.55288
0.0852386
0.182195
0.0376714
0.0303462
0.0686048
0.0261314
4.40709
1.7401
0.0218599
0.0606478
0.0687738
4.25715
0.0280628
0.0353246
0.0286663
2.47288
0.0216668
0.0215455
4.32809
0.391342
5.06533
4.85663
1.24534
1.74835
0.163156
0.0219947
0.022146
0.0406811
0.0461158
0.0675294
0.158477
2.53419
0.022174
0.0375734
0.108734
20.3765
0.0232346
0.123355
0.0290508
1.33977
0.0221106
0.627655
0.428051
4.96896
0.0221417
0.636464
0.0220245
0.0219553
0.0219907
1.50846
3.68393
6.94327
0.0670356
0.0219865
0.0787955
0.205083
4.81606
2.71972
0.0221175
4.44723
0.0525749