/*--------------------------------*- C++ -*----------------------------------*\
| =========                 |                                                 |
| \\      /  F ield         | OpenFOAM: The Open Source CFD Toolbox           |
|  \\    /   O peration     | Version:  v2012                                 |
|   \\  /    A nd           | Website:  www.openfoam.com                      |
|    \\/     M anipulation  |                                                 |
\*---------------------------------------------------------------------------*/
FoamFile
{
    version     2.0;
    format      ascii;
    class       surfaceScalarField;
    location    "150";
    object      phi;
}
// * * * * * * * * * * * * * * * * * * * * * * * * * * * * * * * * * * * * * //

dimensions      [0 3 -1 0 0 0 0];
oriented        oriented;


internalField   nonuniform List<scalar> 
26940
(
0.131626
-0.0834003
-0.0482261
0.502361
-0.189659
-0.312702
0.128736
-0.470764
0.342028
-0.035119
0.131299
-0.0961802
-0.0199195
0.00681271
0.0131068
-0.102191
0.100866
0.001325
-0.373668
0.394018
-0.02035
-0.0117615
0.0117615
0.00144061
0.0024597
-0.00390031
0.00750628
-0.0112296
0.00372335
-0.28362
-0.0987415
0.382361
0.275503
0.0602753
-0.335779
-0.00408235
0.00672002
-0.00263768
0.0970409
-0.00797301
-0.0890679
-0.0154114
-0.0179364
0.0333477
0.102073
-0.00503166
-0.0158591
0.313862
-0.298003
-0.0183034
-0.0192861
0.0375895
0.330903
-0.148233
-0.18267
-0.00103225
-0.00823229
0.00926454
0.112847
-0.125007
0.0121596
0.35229
-0.368149
0.138496
-0.0256487
-0.424163
0.251197
0.172967
-0.00561591
-0.365621
0.371237
0.102024
-0.475692
-0.0885746
0.140784
-0.0522094
-0.213026
0.107651
0.105374
-0.0697051
-0.192781
0.262486
-0.134425
0.0993062
0.00872727
-0.00215579
-0.00657148
0.00524734
0.371951
-0.377198
0.251785
-0.328355
0.0765695
0.365562
-0.192054
-0.173508
-0.231532
0.410243
-0.17871
-0.517316
0.231034
0.286282
-0.00138232
0.00282293
-0.207285
-0.310031
0.0722725
-0.308179
0.235907
-0.00540709
0.0129134
0.372817
-0.48139
0.108574
-0.0924603
0.0528229
0.0396375
0.369603
-0.117818
0.308402
-0.247778
-0.0606244
-0.072975
-0.0339409
0.106916
0.489632
-0.277177
-0.212456
0.131507
-0.00322075
-0.128286
0.00872727
0.113641
-0.114799
0.00115746
0.128915
-0.0681284
-0.0607862
-0.0514997
-0.1137
0.1652
0.161698
-0.134649
-0.0270496
-0.07772
-0.0521516
0.129872
0.122559
-0.461368
0.338808
-0.406004
0.122384
0.0109497
-0.00259602
-0.00835368
-0.0466531
-0.0458073
-0.000938661
0.00796308
-0.00702442
0.192508
-0.252295
0.0597868
-0.0161087
-0.157093
0.173202
0.0996604
-0.155574
0.0559134
0.202596
-0.0401491
-0.162447
0.00962365
-0.0100102
0.000386557
-0.214085
0.101121
0.112964
-0.0847231
-0.0165318
0.101255
-0.179633
0.36757
-0.187937
-0.00551248
0.00767804
-0.00216557
0.0186029
-0.0228442
0.00424132
-0.00386145
0.0215419
-0.0176805
0.208949
-0.155536
-0.0534132
-0.401575
0.170043
-0.0770739
-0.169526
0.2466
-0.12371
0.0507352
-0.184221
0.215613
-0.0313922
-0.0196066
0.0196066
-0.0209794
0.0268812
-0.00590182
-0.0769628
0.127709
-0.0507462
-0.0125402
0.00867875
0.0573336
-0.221376
0.164043
-0.170474
0.467811
-0.297338
-0.479369
0.0142002
0.465168
-0.000761405
-0.000195494
0.000956899
-0.237452
-0.433275
0.150191
0.283085
-0.422099
0.532996
-0.110897
0.182626
-0.280383
0.097758
0.223758
-0.241148
0.0173899
-0.389206
0.548521
-0.159315
-0.142993
0.162446
-0.0194528
-0.262141
0.334413
0.00998793
-0.00998991
1.978e-06
-0.126436
0.0170854
0.109351
-0.00795914
0.0013686
0.00659054
0.290202
0.188934
-0.479136
-0.0793663
0.452183
-0.0668331
0.249459
-0.0664556
-0.29862
0.365076
0.105843
-0.110673
0.00482969
-0.181303
0.145397
0.0359061
0.0334675
-0.187468
0.154001
0.489597
-0.475822
-0.0137747
-0.43386
0.138431
0.295429
0.0297454
-0.0451568
-0.0880482
-0.126037
0.111224
0.0977246
-0.324804
-0.109056
-0.0202655
0.0157719
0.00449358
-0.0050839
0.00244533
0.00263857
0.118005
0.0224579
-0.140463
-0.294443
-0.103092
0.397535
0.00578042
-0.00671908
-0.000151133
-0.00191544
0.00206657
0.0036447
-0.00412776
0.000483053
-0.0282297
0.0538532
-0.0256235
-0.0918919
0.400104
-0.308212
0.109996
0.215387
-0.325383
-0.103887
0.115553
-0.011666
0.00080091
0.00231312
-0.188625
-0.0364719
0.225097
-0.0664828
0.0147091
-0.0251496
-0.0288502
-0.226135
0.156429
-0.0198248
-0.071719
0.0915439
-0.0301338
0.0276963
0.00243755
-0.138486
0.0997461
0.03874
-0.389277
0.24375
0.145527
0.233194
-0.382552
0.149358
0.0068379
-0.0031919
-0.003646
-0.179227
0.105607
0.07362
-0.0745199
-0.0337668
0.108287
0.116998
-0.124644
0.00764686
0.0295834
0.0161158
-0.0456992
0.156644
-0.218634
0.0619897
0.00145063
-0.00953273
0.00808209
-0.173896
0.0716764
0.10222
-0.0214564
0.152964
-0.446682
0.239397
0.141375
0.200812
-0.342187
-0.0486982
0.205343
0.00071823
0.00358534
-0.00430357
-0.00418825
-0.000310135
0.00449839
-0.102047
0.0173235
-0.0592489
-0.0383678
0.0976167
-0.000321769
-0.00736534
0.221035
-0.10303
-0.00438548
-0.0432078
0.0475932
-0.0129431
0.0129431
-0.0522435
0.0129039
0.0393396
0.218528
-0.297159
0.0786302
0.242701
-0.0985844
-0.144116
0.358172
-0.424628
-0.00325872
0.00120363
0.00205508
-0.0202655
-0.0623533
-0.0761328
-0.0778071
-0.303861
0.381668
-0.433006
0.138563
-0.214
-0.00985635
0.223857
0.0118854
-0.00226178
-0.297849
-0.148833
0.00275555
0.10984
0.318343
-0.428182
0.022763
-0.0130153
-0.00974774
0.144886
-0.221661
0.0767751
-0.417312
-0.0380391
0.455351
0.0187052
0.0163805
-0.0225868
0.00620629
-0.102709
0.375217
-0.272507
0.00419571
-0.00451748
-0.000422164
-0.000489869
0.000912032
0.00602141
-0.00603374
1.2329e-05
-0.0984895
0.111919
-0.0134292
-0.0655556
0.037326
0.0595042
-0.134024
0.0176447
0.00095827
0.0722418
0.0122173
-0.0844591
0.128928
0.181734
-0.310662
-0.0445074
0.022313
0.0221944
-0.00663897
-0.0236856
0.0303246
-0.237256
-0.285521
0.522777
-0.463716
0.0745107
-0.348758
0.256866
0.0480852
-0.137116
0.089031
0.0250463
-0.0466953
0.021649
-0.03885
-0.00565739
0.0149998
0.0571318
-0.0721316
-0.25655
0.424692
-0.168142
-0.136905
0.0437866
0.0931185
-0.0468651
-0.0876541
0.134519
-0.339349
-0.0446771
0.384026
-0.22865
0.338646
-0.031163
0.130823
0.27157
0.0593333
0.179928
-0.16429
-0.0156382
-0.263665
-0.169611
-0.186228
0.140274
0.0459548
-0.00672047
0.000144775
0.00657569
-0.0900373
-0.0121541
-0.131913
-0.0543152
0.00287587
-0.00365729
-0.0014266
0.00897539
-0.107465
-0.00207414
-0.00270079
0.00477493
-0.187115
0.313549
-0.126434
-0.0130988
-0.0391447
0.0251488
-0.200967
0.175818
-0.16996
0.0353113
0.00291891
-0.00368031
0.0111767
-0.000227042
-0.0193946
0.0230144
-0.00361983
0.0111396
-0.0111396
-0.0119081
-0.00801144
-0.00445255
0.000264298
0.265105
-0.174142
0.365885
-0.191743
-0.140534
0.183656
-0.0431217
-0.102154
-0.0242819
-0.0810567
-0.0136715
0.0947282
0.00195583
0.00321371
-0.00363588
0.000225844
-0.000421338
-0.173193
-0.0287788
0.201972
0.0162533
0.316397
-0.332651
-0.409805
0.153255
-0.0941028
0.0499695
0.0441333
0.0109271
-0.010897
-3.01357e-05
-0.106544
0.287216
-0.180672
-0.106387
-0.00428557
0.546749
-0.395803
-0.150946
-0.149828
-0.0449924
0.19482
-0.297612
0.110497
0.00964331
-0.00990968
0.000266366
-0.00403043
-0.000173707
0.00420414
0.25635
-0.0998734
-0.156476
0.00405048
-0.00568522
0.00163473
-0.410137
0.544434
-0.134297
0.100776
-0.261163
0.160387
-0.178367
0.0378325
-0.0860211
-0.0603163
0.146337
-0.00714762
0.00518573
0.00196189
0.0604465
-0.0648319
0.162814
0.0171144
-0.00191736
0.00179975
0.000117613
0.00956646
0.0012716
-0.0108381
-0.153442
0.137333
-0.0058018
0.0508941
-0.0450923
-0.200099
0.220007
0.0844342
-0.000409385
-0.00150798
0.0026351
-0.0119447
0.00930955
0.225481
-0.247534
0.0220527
0.0627174
0.068909
0.412156
-0.178962
-0.232562
0.25771
-0.102027
-0.0772
0.000472741
-0.00373146
0.0069752
-0.00146918
-0.00550602
0.110691
0.295756
-0.406446
-9.37125e-05
-0.000377468
0.000471181
0.00140448
0.00461693
-0.431448
0.0141364
-0.189903
0.370203
-0.180299
0.00612381
-0.00207332
-0.0954062
0.116867
-0.0214604
0.0287398
0.0849014
0.000367381
-0.00147924
0.00111186
0.00182755
0.000376579
-0.00220413
-0.000453194
0.000535726
-8.25322e-05
-0.205881
0.0216605
-0.0365686
-0.4428
0.114757
-0.0812893
0.04034
-0.345447
0.171305
0.316452
-0.470125
0.153673
-0.000949655
-0.017821
0.0187707
0.146878
0.0155684
-0.00124547
-0.00633321
0.00757868
-0.0363272
0.0296883
0.22091
0.325839
-0.024712
0.00373265
0.363419
0.122714
-0.0207125
-0.102001
0.0011196
-0.00663208
-0.184154
-0.0217269
0.171475
-0.278644
0.107169
0.0647633
-0.237956
-0.140061
0.0415207
0.0985403
-0.0183591
0.220955
0.295993
-0.149358
-0.146636
-0.0021307
0.000748384
-0.0287626
-0.319995
-0.0358108
-0.177215
0.11503
-0.136486
0.220832
-0.121914
-0.0989185
-0.292415
0.403105
-0.222838
0.0386838
-0.00167166
-0.00504881
-0.310623
-0.0539355
0.364558
-0.136884
-0.208563
0.179181
-0.285725
-0.0672536
0.0614518
0.0115927
0.0339183
-0.0455109
-0.443206
0.272732
-0.315299
0.0783602
0.236938
-0.0987162
0.415168
-0.0224489
-0.0294508
0.0518997
-0.402616
0.192486
0.210129
0.010055
0.00112171
-0.137775
0.105094
0.0326816
0.187265
0.121137
0.212482
-0.330267
0.117784
0.146143
-0.218635
0.0724917
-0.0217042
0.00616393
0.0155402
-0.00580078
0.00476853
0.0531998
0.106413
-0.159612
0.316735
-0.345498
-0.0136312
0.0143846
-0.000753472
-0.0577044
0.0104375
0.0472669
0.106565
0.114267
0.175982
-0.102679
0.101942
0.000737233
-0.155245
0.362868
-0.207623
-0.13245
-0.0488526
-0.00376059
0.00168645
-0.123027
0.027621
0.133474
-0.110661
-0.0228129
-0.123064
0.054936
0.189201
0.106792
-0.175922
-0.226694
-0.296308
0.400569
-0.104261
0.0026785
0.00209759
-0.00477609
-0.209321
0.350696
-0.0059147
-0.093393
-0.338
0.0588987
0.279101
0.0393104
0.00808323
-0.0473936
0.00165158
-0.00234313
0.000691547
0.104904
-0.0133792
-0.0915253
0.00035943
-0.000453143
0.00891976
0.00106817
0.00802107
-0.00302539
-0.00499568
0.3236
-0.105071
-0.00111971
-0.00058703
0.00170674
-0.0934326
-0.00924663
0.00188519
0.00401605
-0.00590124
-0.169598
0.270374
0.263227
-0.378428
0.115202
0.346716
0.0327635
-0.379479
0.155821
-0.102621
0.186429
-0.263503
0.0599072
-0.145928
-0.00472417
0.197232
-0.0193478
0.134378
-0.322632
0.185748
0.307521
-0.430245
0.122724
0.0471015
0.0179667
-0.0650683
0.178685
0.0450733
0.00709513
-0.0647996
0.166387
-0.15361
-0.0127769
-0.142777
-0.385911
0.0896034
-0.342952
-0.120765
0.001013
0.000814551
0.00216809
-0.00225124
8.31476e-05
0.116587
-0.409002
0.29854
-0.402892
0.104352
0.211001
0.131916
-0.342917
-0.394763
0.00432068
0.390442
-0.0125355
0.0991486
-0.0866131
0.567357
-0.330605
-0.236752
-0.00634828
0.00831763
-0.00196935
-0.0364905
0.018187
-0.526563
0.400775
0.125788
-0.299978
0.144733
-0.0934804
0.0793383
0.0141421
0.00269586
-0.00301519
0.000319333
-0.0163013
0.0556117
-0.00205567
0.00394087
0.379859
-0.516033
0.136173
0.00209711
-0.00415453
0.109059
-0.0244509
0.00482188
-0.00410365
-0.024317
0.104224
-0.0799075
0.107172
0.135529
0.0754941
-0.240689
0.165194
-0.328752
0.263072
0.0656804
0.19057
0.220251
0.299466
-0.519716
-0.000656474
-0.00649114
-0.218436
-0.110316
0.28529
0.116725
-0.402015
0.15381
-0.221582
0.0677723
-0.0504656
-0.239092
0.289557
-0.000769095
0.00255999
-0.00179089
0.0342608
0.0929379
-0.127199
0.171922
-0.47197
0.300047
0.167001
-0.00908872
0.00112958
0.217365
-0.396243
0.178878
0.245449
-0.404094
0.158645
0.268206
-0.277119
0.00891332
0.0941835
0.00871895
-0.102902
-0.000521849
0.00217343
-0.226318
0.51652
0.0547461
-0.0397463
-0.285565
0.202326
0.0832383
-0.212634
-0.0849786
0.00108132
0.00670815
-0.00778946
0.00596821
-0.00488689
-0.257431
0.104404
0.153028
0.0443424
-0.0667912
0.00441328
-0.13226
0.119778
0.0124822
-0.0632819
0.0613029
0.00197907
0.0751614
0.143202
-0.218363
-0.0115106
-0.175958
-0.0727487
-0.0673123
0.0692877
0.00570532
-0.074993
-0.145529
-0.414135
-0.516247
0.302024
0.214223
0.313657
-0.155125
-0.158532
-0.195892
-0.193385
0.0142149
0.00216559
-0.208148
0.0415871
0.166561
-0.0146171
-0.0133796
0.0279966
-0.325046
0.453782
-0.105689
0.0858643
0.236971
0.128591
-0.000175303
0.00234339
0.0129635
-0.0129635
0.174521
-0.0616065
-0.112914
0.0226779
-0.0123222
-0.0103556
0.0275909
0.105883
0.164299
-0.187833
0.136333
-0.00194013
0.00117103
-0.0471434
-0.00706119
0.0542046
0.462891
-0.456826
-0.00606562
-0.00607622
-0.000272055
0.160735
0.0184733
-0.179209
-0.282449
-0.117714
0.400163
-0.00701085
-0.023123
-0.00412002
0.00523962
0.324355
-0.308102
0.00875363
0.0140094
-0.00116251
4.27985e-05
-0.318083
-0.114923
-0.0133613
0.0133613
0.0673791
-0.0799146
-0.293855
0.0812215
-0.0378112
-0.0562916
-0.0225261
0.0215764
-0.0114098
0.0836517
-0.170246
0.0565459
-0.00689763
-0.0122591
-0.00137209
-0.0694141
0.103675
-0.0682746
-0.0634431
0.131718
0.258163
-0.308628
-0.00727301
0.00408111
0.181221
-0.329454
0.308893
-0.12614
-0.182752
0.0150542
0.00762368
-0.00259567
-0.0606863
0.150404
0.0800512
-0.230455
-0.0799847
-0.177447
0.175007
-0.0142714
-0.14997
0.225131
-0.252968
0.0528689
0.314102
0.0326138
-0.460984
0.0388852
0.133156
-0.10972
-0.0234361
8.77024e-05
0.00510553
-0.00519323
-0.464767
0.121815
0.136206
-0.0134924
-0.506157
0.111394
-0.00073044
-0.00684836
0.0075788
-0.282864
-0.233383
-0.446614
0.0364772
-0.0290115
-0.0744506
0.103462
0.00486172
0.0217563
-0.0266181
0.107564
-0.101413
-0.00615123
-0.00115728
0.000154056
0.00100322
-0.27739
-0.110112
0.387502
0.366052
-0.0882423
-0.27781
0.00037281
-0.000146966
8.10793e-05
-0.0422735
0.0421924
0.0829412
-0.143257
-0.246491
-0.0168075
0.263299
-0.0419119
0.0462546
-0.00434271
-0.0060637
0.03111
-0.301
-0.15454
0.45554
-0.399408
0.296699
-0.0393099
0.419169
-0.0114947
-0.187852
0.199346
-0.00346397
0.00614246
-9.16684e-05
-0.000174399
0.000266068
0.311187
-0.195936
-0.115251
-0.246568
0.0588314
0.187737
-0.0554755
0.0146371
0.0408384
-0.00139281
-0.00612029
0.0075131
-0.0105985
0.000346139
0.0102524
-0.116285
-0.18333
0.00856153
0.174768
-0.0414509
0.107926
0.4524
-0.246387
-0.206014
-0.436873
0.146614
0.290259
0.0554086
0.289956
-0.345365
-0.0812106
0.159017
-0.077806
0.0398152
-0.0308473
-0.00896794
-0.0173553
-0.0356957
0.053051
-0.0104097
0.0796973
0.169962
0.105323
-0.104961
-0.000361792
-0.277322
0.271706
0.271979
0.202099
-0.474078
0.000465091
9.28964e-05
-0.000557987
-0.0196192
0.0384774
-0.0188582
-0.11839
-0.0185147
0.028531
-0.0296901
0.00115904
0.00397351
-0.000328807
-0.035218
0.0400797
-0.000709226
0.000617557
-0.115596
0.0386336
0.00147445
0.000625886
-0.00210034
0.00826236
0.000255896
-0.00851826
0.106253
-0.109474
0.00847926
0.00116405
0.360583
-0.0850793
0.0541967
0.0249041
0.200577
-0.20291
0.274905
-0.0719947
-0.0242593
-0.0312162
-0.0971094
0.0378605
-0.140501
-0.111794
0.0749405
-0.097784
0.0228435
-0.00897199
0.0551798
-0.0462078
0.18998
-0.105705
-0.0842757
0.317604
-0.395411
0.158026
0.110443
-0.268469
0.0336111
-0.0532303
-0.000625961
0.0017721
-0.00114614
0.000291349
-0.00144863
-0.12056
0.393565
-0.273005
0.100592
-0.0256511
-0.00603803
0.00267331
0.00336472
-0.0659534
0.227869
-0.161916
-0.0704306
-0.215134
-0.0769381
0.287939
0.069727
-0.16092
0.0911934
-0.00450662
0.03409
-0.00133765
0.00711807
-0.314824
0.437384
-0.00099003
0.00390894
-0.488304
0.268514
0.21979
-0.00699024
-0.00495441
-0.0976202
0.154954
-0.0137482
-0.225526
0.239274
-0.155736
0.0101823
0.145554
0.00662003
-0.00801284
0.323063
-0.110581
0.348239
-0.420993
0.0727544
-0.00448342
0.00457112
-0.00241691
0.00224251
-0.122429
0.032417
0.0900119
0.0426493
0.0139168
-0.260408
-0.159458
-0.283748
0.342596
-0.390012
0.0474158
-0.00103943
0.00498454
-0.0039451
-0.00500737
0.0619154
-0.0569081
-0.00547662
0.00375316
0.00172346
0.169614
-0.00930837
-0.160305
-0.0486717
0.0313164
-3.1088e-06
-0.000842841
0.00084595
-0.0814667
-0.0969003
0.00796308
0.0254889
-0.208819
0.00975906
0.00116808
-0.0608202
-0.318201
0.379022
-0.0377859
0.0317222
-0.00142935
0.00357175
-0.0021424
0.0131953
0.0340651
-0.0472604
-0.0724909
0.00202558
0.00599548
0.00592197
0.00305142
-0.00897339
-0.0344232
-0.268879
0.303302
-0.00350465
0.0242524
-0.0207477
0.016202
0.255368
-0.415087
-0.0462803
-0.0105985
-0.00275672
0.00245375
0.000302971
0.430327
-0.258405
-0.412913
0.09483
0.436543
-0.326704
0.000270935
-0.0196656
-0.000644656
-0.000573624
0.00121828
-0.0741262
0.422365
0.107978
-0.0587429
-0.0492352
-0.137277
0.212772
0.197579
-0.277292
0.079713
0.12035
-0.39774
-0.111285
-0.00979023
0.121075
0.109421
-0.00409751
0.195261
-0.0503755
0.00208364
0.0194583
-0.292392
0.408979
-0.102284
-0.0247346
-0.0115828
-0.000178704
0.106241
-0.0859283
-0.0203124
0.00887898
-0.000616616
0.00635848
0.00210946
-0.00846794
-0.0386524
-0.181524
0.220177
0.00401878
0.00270124
-0.021846
0.0219271
-0.0703984
0.174266
-0.103868
-0.00733194
-0.023823
0.0311549
-0.106211
0.0905792
0.0156319
-0.198145
-0.0232318
-0.0876994
0.141822
-0.0541227
-0.00176905
-0.000171082
0.0932628
0.0812577
0.0659137
-0.134188
0.201675
-0.231232
0.0295574
-0.177071
0.00774203
0.169329
-0.00201925
0.320761
-0.355185
-0.0146207
0.0248744
-0.0102537
-0.131234
0.0500233
-0.0181132
0.084317
-0.0662038
0.107589
0.455677
-0.197514
-0.0471994
-0.234099
0.281298
-0.00533431
0.00603477
-0.000700456
-0.34449
-0.0765031
-0.168202
-0.320103
0.128006
-0.0390866
-0.0889197
0.293135
-0.396837
0.103702
-0.0726326
-0.0810647
0.0116635
0.105334
-0.273582
0.0849567
0.160473
-0.172707
0.012234
-0.272768
-0.113143
0.00274052
0.0130314
0.0100865
-0.000520028
0.0137473
-0.0178586
0.00411129
0.196891
0.00478371
0.0103354
-0.000276729
-0.0100586
-0.000485997
-0.000223229
-0.0437281
0.00594222
-0.312554
0.24225
0.070304
0.00036347
-0.000989431
-0.0330416
0.206996
0.0124127
-0.0112041
-0.437778
0.174113
0.0613517
-0.0109935
-0.0503582
0.00117942
0.0668638
-0.0680433
-0.00113184
-0.0011194
0.0119075
-0.0671308
0.0919281
-0.0247972
-0.0049374
0.00428093
-0.424973
0.0632074
0.00685271
-0.00912648
0.00227378
0.153978
0.335619
0.0551699
-0.15648
0.10131
0.10002
-0.170418
0.322611
-0.181277
-0.141335
-0.531637
0.311305
0.220331
0.00632556
0.00222379
-0.00854935
-0.0167961
0.133429
-0.116633
0.0933946
-0.227717
0.134322
0.00572046
-0.00671049
0.00895858
-0.00779769
-0.00116089
0.0292202
0.0571907
-0.0864109
-0.0147299
0.184362
-0.133782
-0.0505793
0.378068
-0.414637
-0.135338
0.352704
0.33202
-0.276612
0.254003
-0.125075
0.0224655
0.0173497
-0.00525908
-0.150477
-0.0232053
-0.00831234
0.0315177
0.000221133
-0.00815715
0.00793601
-0.00575947
-0.00425073
-0.00830492
0.00852605
0.0472563
-0.0517855
0.00452922
-0.173812
0.0390154
0.134796
-0.247921
-0.13463
-0.0472134
0.0483928
0.422501
-0.221689
0.00930392
-0.00244072
-0.00686319
0.00129851
0.00295283
-0.00425134
-0.383011
0.100562
-0.101514
0.187017
-0.0855035
0.000589377
0.00180298
-0.00239236
-0.00195421
0.00314152
-0.00118731
0.0153939
0.0131371
0.167291
-0.00681779
-0.149137
-0.316174
0.107754
0.20842
-0.00312773
0.00433136
0.0087023
-0.0018496
-0.00452401
0.0456251
-0.0411011
-0.114403
0.00819218
0.0828261
-0.094236
0.0120031
-0.0956112
-0.0187921
0.00559569
-0.00218004
-0.00341565
-0.0036533
-0.0492694
0.0529227
-0.000297278
0.0475536
0.25594
-0.00372371
-0.00618597
0.0851956
-0.105908
0.120358
-0.137154
-0.00078758
-0.00414982
0.405797
-0.132491
-0.273306
-0.135139
0.0390702
0.0960683
-0.0395162
0.0527115
0.178593
0.227204
0.112493
-0.0942726
-0.0182203
0.00509666
-0.0522401
0.00202503
0.00357066
-0.00324629
0.0027931
-0.0404305
0.115721
-0.0752909
0.183762
-0.00194764
-0.181815
-0.418365
-0.113272
0.00233097
-0.0442428
-0.0758817
0.0150839
0.0607977
-0.0562031
-0.117693
-0.000807054
-0.000355459
0.248008
-0.309677
0.0616697
0.00344005
-0.00344316
7.35462e-05
-0.000224679
-0.18114
-0.0156903
0.19683
0.151371
-0.128913
-0.381236
-0.0445114
0.425747
0.120641
-0.0198086
-0.100832
0.444265
-0.0661973
0.0107617
-0.00180312
0.0780948
0.054869
-0.132964
1.18551e-05
0.00243347
0.083396
0.415887
-0.237294
-0.10808
-0.208094
-0.0266527
0.0229994
-0.00201545
0.00202731
0.0388843
-0.122285
0.00554622
-0.00905087
0.026612
-0.141691
0.115079
0.074772
-0.0625547
-0.255738
-0.18204
-0.42603
-0.006548
0.432578
0.0225459
0.0488008
-0.0713468
0.250959
-0.100555
0.0376356
-0.0869725
0.0493369
-0.0127939
0.0675155
-0.00261902
-0.0648965
0.014047
-0.0951037
0.176548
0.107401
-0.28395
-0.00653425
-0.00106466
0.00759891
0.0219533
-0.00694167
-0.0150116
0.00142759
-0.0402776
0.0660905
0.190259
0.479954
-0.361591
-0.118362
-0.123946
0.217341
-0.447095
0.372108
0.0749877
-0.121422
0.020562
0.10086
0.0587045
0.16233
0.395554
-0.120926
-0.274628
0.105625
0.00686829
0.217255
-0.130549
-0.0867053
0.00251923
-0.00355866
-0.0225792
-0.061375
0.0839542
-0.104669
-0.226211
-0.300352
-0.000469739
-0.00129931
-0.10565
0.321038
-0.224781
0.0436411
-0.0065559
0.00689786
0.0107403
0.0506114
-0.291909
0.203667
-0.0648223
0.0422431
-0.00233091
0.000376706
-0.368011
0.225228
0.142782
-0.297572
-0.1393
0.283361
-0.223085
0.0659459
-0.0367257
-0.00184659
0.000714758
-0.413475
-0.00629328
0.00706017
-0.000766884
0.374095
0.193262
0.0075813
-0.00482575
-0.00231318
0.0109793
-0.00866613
-0.00189128
-0.000987291
0.00386317
0.00117683
0.172139
0.0116238
-0.0026763
-0.0190279
-0.0530438
-0.422778
-0.0481407
0.035042
-0.212865
-0.155146
-0.381005
0.392668
-0.0116633
0.0982216
0.291039
-0.38926
0.177439
-0.294025
0.116586
0.00846221
-0.00209141
-0.0063708
-0.0664366
-0.197605
0.264042
0.0980751
-0.442565
-0.0582504
-0.257048
0.172957
0.222597
-0.0441255
-0.0261262
0.0702517
0.138435
-0.185261
0.0468266
-0.00149743
0.00811746
-0.288741
0.40909
-0.322434
-0.124661
0.276084
0.0157465
0.0062068
-0.00865555
-0.0042876
0.00705425
-0.030496
0.0158789
-0.384652
0.00364763
-5.69232e-05
-0.00208915
-0.00066757
0.158154
-0.169649
0.305255
0.042596
-0.347851
-0.00999518
0.00571421
0.00428097
-0.00814673
0.00741629
0.195075
-0.18368
-0.0113956
-0.0413384
0.127027
-0.0856883
0.00258872
0.0304022
-0.032991
0.0596664
0.0734898
-0.278556
-0.0339976
0.16346
-0.104435
-0.059025
-0.155621
-0.02145
0.0621836
0.101277
-0.00281878
-0.000871742
0.00369052
0.00179907
-0.00411225
-0.0758777
-0.224504
0.300382
-0.00959754
0.00932182
0.00027572
0.192589
0.223298
-0.000800218
0.0822932
-0.081493
-0.0213315
0.141689
0.149092
-0.0891846
0.104175
0.00820063
-0.0100777
0.00187705
-0.0058196
-0.000473686
0.051498
0.0104169
-0.0619149
0.466293
-0.135422
0.116075
0.267073
0.188604
0.00294283
-0.490593
0.221714
0.0116275
0.149558
-0.161185
-0.225802
0.0702192
0.155582
-0.0991257
0.377681
-0.278555
0.00822184
0.0592937
-0.182874
-0.0252735
-0.232001
-0.0660883
0.298089
0.00534212
0.00961246
-0.0149546
-0.46606
0.389843
0.0762176
0.000895631
-0.00232498
-0.0681897
0.175841
0.0697433
0.00659778
-0.0763411
0.370755
-0.247632
-0.123123
0.112765
-0.0198274
0.0521393
-0.0741766
0.0220374
0.185046
0.00624365
-0.0836712
0.0954171
-0.0117459
-0.0199374
0.0953068
-0.343228
0.0248199
0.120577
0.0750889
0.0526202
0.00305001
0.0195257
-0.0225757
0.346298
-0.0410422
0.0327046
-0.246705
0.0991819
0.100965
-0.200147
0.00645422
-0.0210749
-0.397293
0.278906
0.118387
0.130176
-0.0183456
-0.111831
-0.0451659
-0.0762564
-0.0235636
0.161998
-0.275944
-0.129548
0.405492
-0.441123
0.015093
0.457986
-0.0110255
-0.44696
0.0336366
0.0778687
-0.111505
-0.0898754
-0.0677668
0.0236413
-0.0328208
-0.103418
0.136239
0.242529
-0.318406
0.199879
-0.195942
-0.00393701
0.00137257
0.0089628
-0.264305
-0.0800658
0.344371
-0.0239596
0.203783
-0.179823
-0.150795
-0.198604
-0.291989
0.155946
-0.0656041
-0.0903419
0.117373
-0.0899457
-0.0274277
0.0198775
-0.10298
0.0739689
0.165739
-0.24421
0.0784703
-0.0740874
0.250636
-0.00882665
0.000813815
0.0072408
-0.00088232
0.0132667
-0.036472
-0.00673623
0.00864406
-0.00190782
-0.0570982
0.0520908
0.0128081
0.12252
-0.41126
0.0686052
-0.170119
-0.00790838
0.00641096
0.00831715
-0.000116517
0.000125904
-0.00424592
-0.341393
-0.124667
0.0778637
-0.0257244
0.103453
0.00956592
-0.000962507
-0.00244139
0.00869087
-0.00624948
-0.0866614
-0.245347
0.332009
-0.0585424
0.0342831
-0.0799865
0.149713
0.00500115
0.00434975
-0.0093509
-0.00100139
0.00808598
-0.0070846
0.0230949
-0.00934757
0.400564
-0.0754814
0.0968941
-0.0214127
0.447067
-0.226816
-0.312089
0.233501
0.0785881
-0.000659479
-0.000147575
0.299709
0.176482
0.203504
-0.250704
0.0020983
-0.00173092
0.000793944
-0.00359482
0.00280088
0.359269
0.0110895
-0.00476398
0.0182789
0.0222907
-0.0405696
-0.330356
0.101705
-0.0180448
-0.0124512
-0.410489
0.134545
-0.00438148
-1.17245e-05
0.00439321
-0.00108166
-0.00550016
0.00658182
-0.00641896
0.00721667
0.00387287
-0.0916649
0.0199459
0.019353
0.0036614
-0.386428
0.265868
-0.166899
-0.0589028
0.0968414
-0.294317
0.197476
0.36564
-0.402653
0.0370128
-0.144039
0.327966
-0.183927
0.217465
-0.152701
-0.00149008
0.0017871
-0.000297019
0.00107627
-0.00234398
0.00126771
0.229457
0.0272016
-0.256659
0.0015625
-0.00635735
0.00479485
0.193056
-0.162911
-0.0301452
-0.106367
0.0163301
0.294184
0.0587913
-0.352975
-0.0801794
0.245919
0.000974436
-0.00750869
0.0031035
-0.00674949
-0.00863489
0.0061935
-0.00118528
-0.0427399
0.0439252
-0.399143
0.167142
-0.0148161
0.161694
-0.0041499
-0.00279212
0.00694202
-0.0709038
0.214106
0.103487
-0.00930321
0.0901375
-0.0525019
0.00862357
-0.0053812
-0.00324238
0.00639319
-0.0154654
0.00907219
0.16302
0.0967598
-0.361065
-0.218724
0.0687543
0.347053
-0.440247
0.093194
0.0784614
-0.0965746
-0.00592104
0.0112632
-0.250906
-0.0894542
0.0223233
-0.442664
0.101271
-0.0823623
-0.388402
0.374337
-0.256505
-0.117832
-0.0060118
0.00100701
0.00500478
-0.0987676
0.408715
-0.286195
-0.199099
0.3065
-0.00706233
-0.00165542
0.00871775
0.14453
-0.336585
-0.00905293
0.00805155
-0.00239358
-0.00180208
0.00419566
-0.122091
-0.206264
-0.0728464
0.0953923
0.193682
-0.00578176
-0.00421342
-0.00341723
-0.00884186
0.00357214
-0.000876277
-0.00742765
0.0902744
-0.0828467
-0.1438
0.442693
-0.298893
-0.105163
0.131775
0.0146477
-0.000817702
-0.01383
-0.231768
0.0819396
0.00266143
0.0102817
0.00635273
0.00370066
-0.0100534
0.00147197
0.0428291
-0.201195
0.158366
0.169781
-0.108598
-0.0611832
-0.203182
0.0296376
0.173544
-0.173679
0.216508
0.0470148
-0.00493665
-0.0420782
-0.00702029
0.003363
0.052344
0.0313446
-0.121221
0.0898764
0.221602
-0.120636
0.0304228
0.0902132
-0.126588
0.0224908
0.104097
-0.169991
0.227064
-0.0570737
-0.0646469
0.0707687
-0.00612178
-0.00269709
-0.00612957
0.000355844
-0.00912651
0.00877067
-0.00912018
0.0161042
-0.126765
0.0125645
-0.0306093
-0.0086714
0.00193517
-0.366043
-0.0366097
0.16297
-0.238809
0.075839
0.454605
-0.417285
-0.0373196
0.0180265
0.043889
0.0359701
-0.175824
0.139854
-0.0229592
0.107745
-0.140566
0.0865532
-0.0691638
-0.0173894
0.131974
0.0756102
-0.207584
0.0877495
0.445128
-0.0732575
0.0242373
0.0490202
-0.00119851
0.00267296
-0.000561444
0.0161992
-0.0233075
0.00710822
0.00148693
0.00965265
-0.138495
-0.264397
0.27541
-0.171006
-0.00177849
-0.0683087
0.0363876
0.0319212
-0.357765
0.303829
-0.19623
0.223432
0.000321885
0.00306004
-0.00338192
0.0716892
0.0690948
0.110708
-0.0109622
0.175224
0.0588368
-0.261747
0.0079593
0.00212719
0.00948183
-0.00951271
3.08749e-05
0.0427237
-0.0399832
-0.294747
0.208085
-0.000412753
9.60948e-05
0.000316659
-0.178702
0.13371
-0.113129
0.0843492
0.0287797
-0.00151754
0.00180889
0.16324
-0.199712
0.11403
0.0419161
0.116989
-0.0833528
0.00313396
0.00259608
-0.00573004
-0.00540309
0.00674168
-0.00133859
-0.0651312
-0.152981
0.218113
0.00023893
-0.00148986
0.00125093
0.0524212
-0.0179863
-0.0344349
0.0921753
-0.00934915
0.143866
0.0461148
-0.00278427
0.00291017
0.083255
-0.123685
0.00259959
-0.00444576
0.00184617
-0.411691
0.061848
0.349843
-0.364103
0.0602424
-0.449629
0.177158
0.272471
-0.357354
0.280914
0.0764403
-0.170357
0.0704834
-0.127125
-0.0431207
-0.144079
-0.320688
0.0650943
0.32231
-0.0893796
-0.0055006
0.00425512
0.386508
-0.11081
-0.275698
0.151919
-0.0456655
-0.000933512
0.0104153
0.00349521
-0.0044825
-0.024287
-0.0554844
0.0797714
0.276515
-0.0990755
0.295021
-0.107756
-0.266551
-0.137543
0.0690447
-0.480736
-0.0087876
-0.110508
0.0162354
-0.0543505
-0.0834246
-0.00850283
-0.000295066
0.0087979
-0.00680526
0.0057236
0.0311339
0.237072
-0.0304926
-0.106624
-0.0441864
-0.162335
0.206522
0.515456
-0.243477
-0.00309363
0.0669686
-0.236959
0.0765422
0.0391792
-0.127368
0.413437
-0.286069
-0.117157
-0.0597171
0.184914
-0.125197
-0.437386
0.293586
0.108226
-0.133137
0.0249113
0.0178075
-0.0955275
-0.156097
0.127318
0.0240264
-0.00467332
-0.287972
-0.0693823
-0.253743
0.239995
-0.00465599
0.056154
-0.194251
0.106203
0.00898803
-0.00676424
-0.0033489
-0.092102
0.0954509
0.0745312
0.0773874
-0.0979246
0.0842531
-0.00397155
-0.00716803
0.00129818
0.00352371
-0.237591
-0.0326054
0.270196
-0.00424314
0.00470823
-0.201543
0.101546
0.0999964
0.00911966
-0.00411851
-0.151464
0.176833
-0.0253689
0.00282516
-0.00246573
0.00657243
-0.00559799
-0.000773318
-0.00167891
0.0184868
-0.029755
-0.0367278
-0.13525
0.293277
-0.460282
0.159282
-0.0379466
0.256287
-0.21834
0.0002724
0.000316977
0.114676
0.0689799
0.000699432
-0.00197335
0.00179965
-0.00452848
0.0019012
0.00262729
0.106831
-0.364951
0.25812
0.0029222
-0.00268326
0.00520805
-0.00390954
0.0702897
-0.435911
0.267673
-0.0641689
-0.127281
0.0395818
-0.245984
0.0885847
0.157399
0.0170859
-0.0140359
-0.0732251
-0.121026
0.176856
-0.0230459
0.00484722
-0.276108
0.422721
0.00953208
-0.00918594
0.110221
0.107034
-0.225138
0.215282
-0.0179201
0.088706
-0.0707859
-0.21187
0.0159284
-0.00398169
0.258968
-0.241496
-0.0174715
0.000322741
-0.345755
-0.0944924
0.00391094
-0.003117
0.33004
0.124564
0.0846057
0.199304
-0.283909
-0.00817583
0.0047586
-0.0408526
-0.0686615
0.109514
0.2712
-0.347932
0.144519
0.203414
-0.0167985
-0.0227056
0.0395042
0.266197
0.315045
-0.430374
0.115329
-0.00797252
0.00690787
-0.172561
-0.063423
0.235984
-0.00730797
0.0072002
0.000107769
0.0273387
0.0757603
-0.103099
-0.361323
-0.0989596
0.00744311
0.00173253
-0.00917564
0.000159727
-0.000169253
9.52613e-06
-0.126592
0.0631924
0.0634
-0.0312199
0.139236
-0.108016
-0.17569
0.25405
0.00223744
0.168854
0.126167
-0.0744478
-0.0606908
-0.131069
0.449412
0.0520995
-0.0776059
0.0255064
-0.200251
0.140534
0.0880071
-0.325598
-0.121469
0.0942741
0.0271945
0.1997
-0.00127341
0.00811846
-0.00684505