/*--------------------------------*- C++ -*----------------------------------*\
| =========                 |                                                 |
| \\      /  F ield         | OpenFOAM: The Open Source CFD Toolbox           |
|  \\    /   O peration     | Version:  v2012                                 |
|   \\  /    A nd           | Website:  www.openfoam.com                      |
|    \\/     M anipulation  |                                                 |
\*---------------------------------------------------------------------------*/
FoamFile
{
    version     2.0;
    format      ascii;
    class       volVectorField;
    location    "150";
    object      U_0;
}
// * * * * * * * * * * * * * * * * * * * * * * * * * * * * * * * * * * * * * //

dimensions      [0 1 -1 0 0 0 0];


internalField   nonuniform List<vector> 
18166
(
(0.837083 -0.0141433 -2.9664e-20)
(1.00569 -0.00149746 4.29208e-22)
(0.999919 -0.000933281 1.13421e-20)
(1.20958 0.0140386 -4.02307e-20)
(0.0936042 -0.399377 -1.41346e-19)
(0.833159 -0.132757 -4.55004e-20)
(1.01396 -0.0106033 2.86104e-21)
(-0.317893 -0.00921235 -4.77443e-21)
(-0.0917439 9.1592e-05 8.1835e-20)
(0.141085 -0.150743 -5.6372e-20)
(0.999277 -0.00993445 0)
(0.995815 -0.0161368 0)
(-0.116551 -0.030001 -1.60631e-19)
(1.2711 -0.0704538 0)
(0.596316 0.0303375 -4.76313e-20)
(1.27228 -0.0667473 5.33399e-22)
(1.00085 -0.00585137 1.31918e-21)
(0.034269 -0.912411 6.56108e-21)
(0.991487 -0.0179297 2.6468e-21)
(-0.238972 -0.00975568 1.19003e-19)
(1.23688 -0.118245 1.28679e-19)
(1.00077 -0.00593082 -4.60646e-21)
(1.23431 -0.103755 -1.09397e-19)
(0.996109 -0.0018419 2.26992e-21)
(1.00812 -0.0116371 -2.91035e-22)
(1.01351 -0.0102358 -4.55031e-21)
(0.858555 -0.0258517 -3.46063e-20)
(1.09942 -0.0459298 3.07661e-20)
(0.987537 -0.0293667 8.03887e-21)
(1.21553 0.0113248 -4.31847e-20)
(0.00468907 -0.188602 0)
(1.01673 -0.000576234 2.7465e-21)
(1.00077 -0.0310215 2.85997e-21)
(0.996835 -0.0203653 0)
(1.01959 0.00011957 0)
(1.00204 -0.00839832 1.44776e-22)
(-0.0743636 0.000498458 0)
(1.0019 -0.00823343 -1.21122e-22)
(1.02784 -0.0085017 0)
(0.169751 -0.190639 1.15069e-19)
(1.00006 -0.000721102 -2.04152e-21)
(1.20221 -0.235186 3.41733e-20)
(1.00032 -0.0325652 7.24609e-22)
(0.981069 -0.0187883 0)
(0.836117 -0.0213012 -1.19956e-20)
(0.998265 -0.00271048 -1.08056e-20)
(1.11496 0.119891 -3.90828e-20)
(-0.000967899 -0.193626 0)
(1.17663 0.176964 2.71513e-20)
(0.868632 -0.0194701 3.12749e-20)
(1.10481 0.056459 2.35354e-20)
(1.13358 0.0216577 -3.5611e-20)
(1.24483 -0.0820973 -3.55148e-20)
(1.00018 -0.000664559 8.25584e-22)
(0.99934 -0.00951808 0)
(-0.24251 -0.00570161 1.08104e-20)
(1.19347 -0.229338 -9.98201e-20)
(-0.197545 -0.0116114 -8.35709e-20)
(0.98922 -0.0673751 -1.26192e-20)
(1.08305 -0.0378643 1.09336e-20)
(1.1642 -0.131065 0)
(1.08 0.00848055 -9.54404e-21)
(-0.24255 -0.00961517 -1.32966e-19)
(1.08741 -0.0967838 0)
(1.27301 -0.0559906 -3.09755e-22)
(0.996883 -0.003969 0)
(-0.154767 -0.00965948 -1.95951e-20)
(0.373492 0.12554 0)
(0.393813 -0.118679 -8.15255e-23)
(1.1051 -0.00523834 0)
(1.01939 -7.38196e-06 0)
(1.02657 -0.0483353 0)
(0.841217 -0.0558235 0)
(1.0335 -0.0794044 2.06108e-22)
(0.0319287 -0.409168 -7.08387e-20)
(0.35742 0.344385 9.29184e-20)
(1.24071 -0.097644 1.67102e-20)
(0.230914 -0.0843043 0)
(1.07188 -0.0584808 0)
(1.00143 -0.00719037 -1.06516e-21)
(1.00005 -0.00180037 1.96452e-21)
(0.0223792 0.00280122 3.20088e-20)
(0.996452 -0.00207956 -1.68064e-20)
(0.994932 -0.00378039 9.13206e-21)
(1.01662 -0.00131176 0)
(1.05205 0.00922033 0)
(1.08575 -0.0304867 4.81176e-21)
(1.00577 -0.00628033 4.36357e-23)
(1.13079 0.0283296 -1.69547e-20)
(1.02732 -0.0079944 3.45378e-21)
(-0.240907 -0.00835048 1.58385e-19)
(0.866776 -0.148873 -2.03939e-20)
(-0.193682 -0.0173714 0)
(1.00001 -0.00065624 0)
(1.00017 -0.000981938 2.11932e-21)
(1.05234 0.0115179 0)
(1.01698 -0.00109376 2.91243e-21)
(0.998872 -0.251444 -1.77831e-22)
(0.924129 -0.00976281 -1.44703e-20)
(1.09824 -0.0317395 2.3028e-20)
(1.00509 -0.000778015 6.06615e-22)
(0.999037 -0.00499453 -2.77579e-21)
(0.664484 0.0324928 -8.0134e-20)
(1.08497 -0.0988231 0)
(1.10397 -0.00589477 0)
(0.999081 -0.00457416 -5.31693e-21)
(-0.0860538 -0.374015 2.79304e-20)
(0.0902213 -0.013074 -1.48409e-19)
(0.982404 -0.0803346 1.08309e-20)
(0.999783 -0.00831185 2.09243e-21)
(-0.183982 -0.0157119 -1.7568e-19)
(-0.0381792 0.0055336 0)
(-0.0902557 0.0151467 0)
(0.831966 0.168034 1.08432e-19)
(1.00059 -0.00493634 2.5056e-21)
(1.03153 -0.000671032 -7.1544e-21)
(1.01473 -0.261393 0)
(-0.00550782 -0.0618305 -3.89923e-20)
(0.975236 -0.0306225 3.4415e-21)
(0.713908 0.243536 0)
(0.607456 0.785534 -3.78625e-21)
(0.986839 -0.027974 -5.17427e-21)
(1.29086 -0.216058 9.94105e-20)
(0.460089 0.0094647 0)
(1.23275 0.0132371 -2.83376e-20)
(0.994307 -0.0147273 -4.79936e-21)
(0.998702 -0.00274265 -3.5451e-21)
(-0.145311 -0.0249642 1.01416e-19)
(0.945192 -0.106888 7.30686e-21)
(0.943743 -0.181065 1.91912e-20)
(1.23932 0.0283186 3.77567e-20)
(0.802945 -0.421333 2.97264e-20)
(1.07722 -0.00535075 4.86729e-22)
(0.151097 0.0264831 -2.49637e-20)
(0.937536 -0.0890306 2.11472e-20)
(1.10836 0.117961 3.21489e-20)
(1.00172 -0.00828342 0)
(1.00856 -0.00941585 0)
(1.07832 -0.00287403 0)
(-0.0237383 -0.103077 -3.07776e-20)
(-0.119013 0.00155889 0)
(1.27511 -0.0635665 -4.10943e-20)
(1.24816 0.226708 0)
(0.127231 0.0185292 0)
(0.986237 -0.0774235 -1.346e-20)
(0.948706 -0.0404432 1.49817e-19)
(-0.279058 -0.0121687 0)
(0.799162 0.0374049 0)
(1.03999 -0.00654893 4.03044e-21)
(1.08702 -0.00614627 -2.17455e-20)
(1.01682 -0.000913208 4.87764e-21)
(0.0385555 -0.0462743 -3.46762e-20)
(0.52451 -0.731809 9.05185e-21)
(1.23229 0.01347 0)
(0.999844 -0.0012208 -2.39222e-21)
(0.999973 -0.00782451 2.14455e-22)
(1.00892 -0.0535757 0)
(-0.255152 -0.0115319 1.00221e-19)
(1.00158 -0.00779184 -1.21725e-21)
(-0.138764 -0.0259672 9.09067e-20)
(1.01449 -0.00123075 0)
(0.262442 0.0810227 0)
(1.07923 -0.0420218 1.39586e-20)
(1.00973 -0.00134237 -2.01103e-21)
(1.13387 0.0231913 3.86698e-20)
(0.33136 0.00706888 -3.78734e-20)
(0.998758 -0.00336252 -8.81991e-21)
(0.108157 0.00825002 2.53596e-20)
(0.0242937 -0.00158117 3.14124e-20)
(-0.141981 -0.0193871 1.82707e-19)
(1.26385 -0.0147969 0)
(0.890807 0.174007 -3.30333e-20)
(0.945845 -0.181858 -1.39128e-20)
(0.35238 0.119785 0)
(1.28125 -0.0616761 0)
(0.994667 -0.0202598 0)
(0.608377 0.381786 1.46659e-19)
(0.493695 0.159981 9.9052e-20)
(1.00604 -0.0011562 0)
(1.00557 -0.00580159 0)
(1.00052 -0.00507617 -3.04749e-21)
(0.961047 -0.173833 1.18142e-20)
(0.524953 -0.0814624 -1.35332e-19)
(0.593568 0.349676 -3.76259e-20)
(1.0616 0.0121618 8.07059e-20)
(1.00805 -0.0047546 -1.04504e-21)
(1.0457 -0.222376 1.10899e-20)
(1.2032 0.0203547 4.15348e-20)
(1.0027 -0.00579285 0)
(1.03085 -0.000331072 3.93923e-21)
(1.1711 -0.121677 1.74962e-20)
(0.991031 -0.0191201 -3.12924e-21)
(1.11874 0.0382226 0)
(0.995226 -0.00386233 0)
(1.03141 -0.156051 0)
(-0.00473041 -0.167244 0)
(0.841956 -0.116756 7.66198e-20)
(1.02568 -0.148001 -2.64622e-21)
(-0.0112156 -0.0785957 -1.38152e-20)
(0.105913 -0.00502499 -2.64764e-19)
(1.26176 -0.0218303 2.26964e-20)
(-0.0955139 0.0264815 0)
(1.03656 -0.00117921 -6.29806e-21)
(0.820632 0.03653 -2.31272e-20)
(0.997821 -0.0396097 2.97255e-21)
(1.13722 0.0185742 3.60665e-20)
(0.0557871 0.00436246 5.56956e-20)
(-0.255441 -0.00725491 -1.36992e-20)
(0.168202 -0.471008 1.83621e-19)
(-0.277263 -0.00998735 4.62308e-21)
(0.122565 -0.350414 -9.08384e-20)
(-0.105533 0.00223327 4.63083e-20)
(1.00599 -0.00139035 0)
(0.997561 -0.00320061 -3.24285e-21)
(1.11365 0.0507335 1.29944e-22)
(0.866544 -0.145656 0)
(1.28129 -0.0444952 9.38296e-20)
(1.01242 -0.248707 -2.04645e-21)
(0.0575925 -7.18516e-05 -2.77089e-20)
(-0.00353045 0.000297116 -5.60474e-20)
(1.07655 -0.0294647 2.35181e-20)
(1.0025 -0.0165494 -2.45255e-21)
(1.00791 -0.0047908 9.05246e-22)
(0.758255 -0.0166894 -3.67466e-21)
(-0.261604 -0.0103668 0)
(1.01721 -0.0127009 2.04979e-21)
(0.994454 -0.248989 2.38001e-21)
(1.00802 -0.00143256 -4.42218e-22)
(0.978513 -0.0672822 0)
(1.03617 -0.00204077 1.28541e-20)
(-0.243395 -0.00929319 -7.88546e-21)
(-0.0911536 0.0133321 4.94093e-20)
(1.05962 0.00543599 5.27073e-21)
(-0.0307159 -0.0998042 2.40721e-20)
(1.0033 -0.000587127 7.1127e-23)
(1.05246 0.00771827 -1.45641e-20)
(1.11345 0.0458103 0)
(1.15195 -0.128829 -2.47595e-20)
(-0.155847 0.00244329 -4.43328e-20)
(1.07898 -0.0591351 -2.66952e-20)
(1.11819 0.0417349 0)
(-0.0345569 -0.00327984 0)
(-0.237735 -0.0102391 0)
(1.08023 -0.0341932 -2.35835e-20)
(0.877456 0.102303 8.91835e-20)
(0.970732 -0.00270456 -1.8487e-20)
(1.20857 0.0148558 7.6232e-22)
(-0.0470048 -0.00427634 0)
(0.176523 0.0370681 5.40826e-20)
(1.03948 -0.0517712 0)
(0.827948 0.0215081 -2.20802e-20)
(0.998577 -0.00261212 9.90809e-21)
(0.998982 -0.0380426 -2.07298e-21)
(0.945696 -0.102366 1.27996e-20)
(0.015603 -0.0638736 1.86404e-20)
(-0.153873 0.020075 1.08033e-19)
(1.0001 -0.0067803 0)
(-0.0147728 -0.0066134 6.26647e-20)
(-0.130885 -0.0221802 -2.34337e-19)
(1.0094 -0.00118388 2.41493e-21)
(0.997228 -0.00355864 0)
(-0.0289436 -0.106512 -2.81561e-20)
(1.1608 -0.143167 8.86128e-20)
(1.16885 0.179348 3.84721e-20)
(0.0151729 0.0270333 0)
(0.00288374 0.0357882 0)
(0.00510458 0.00352548 -2.18682e-19)
(1.03184 -0.0791732 -1.40947e-21)
(1.00005 -0.00129715 0)
(1.1025 -0.0333467 -2.68937e-20)
(0.861151 -0.0257129 3.79729e-20)
(0.9976 -0.00311995 -2.28368e-23)
(1.00692 -0.00767406 1.49074e-22)
(0.396362 0.061658 -4.36339e-20)
(1.13084 0.0295785 -1.25056e-20)
(-0.175147 0.00667815 0)
(0.556177 0.176611 0)
(1.00846 -0.00118453 4.80774e-22)
(0.401536 0.29037 0)
(1.0169 -0.000673225 9.38941e-23)
(1.14072 0.0976495 -1.56833e-20)
(-0.138588 -0.00929702 0)
(1.02889 -0.0769004 0)
(1.04237 0.00652411 2.26705e-21)
(1.07386 -0.0323374 -1.5761e-20)
(1.16091 -0.193464 0)
(1.07978 0.0104775 0)
(1.05053 -0.0258454 0)
(-0.0565188 0.00161895 0)
(1.00043 -0.00456496 2.65177e-21)
(1.0992 -0.0448112 2.93642e-20)
(1.10766 0.110329 3.86012e-20)
(1.04164 -0.0791567 6.70022e-21)
(1.00018 -0.00690966 0)
(1.02717 -0.0764399 0)
(-0.00741306 -0.160609 0)
(1.01478 -0.0106559 -7.41148e-22)
(0.997919 -0.0028995 9.66999e-21)
(1.01691 -0.0126712 -2.00205e-21)
(0.950294 0.108233 6.71291e-20)
(0.645579 0.198085 -1.13102e-19)
(1.00131 -0.00741844 2.41812e-21)
(1.01553 -0.0457762 0)
(1.00718 -0.00787333 0)
(0.865681 -0.0149278 0)
(1.00295 -0.0334672 0)
(-0.245069 -0.00608248 -1.26161e-20)
(1.23482 0.0430863 -3.30148e-20)
(0.980639 -0.0199013 0)
(1.03087 0.000891575 5.77563e-21)
(1.07558 -0.00874459 -1.92447e-20)
(0.318382 -0.145344 -1.03653e-19)
(-0.220002 -0.00964677 -3.85161e-20)
(0.905698 -0.0574417 -3.21435e-20)
(1.00037 -0.00484693 0)
(0.104355 0.346268 7.11645e-22)
(0.65855 0.0314256 1.36239e-22)
(1.0451 -0.0792286 3.17195e-21)
(0.997233 -0.00340843 -4.03072e-21)
(1.2784 0.0914378 -7.70212e-21)
(1.00393 -0.0174809 2.48649e-21)
(0.929072 -0.0132439 6.02526e-20)
(-0.0687459 0.0321211 0)
(1.15476 -0.145935 -7.15555e-20)
(0.932591 -0.161855 0)
(0.868302 -0.0148472 -8.02549e-20)
(1.05144 -0.0246923 9.3729e-21)
(1.00227 -0.0332235 0)
(1.02483 -0.00420411 2.84313e-21)
(0.078932 0.0494018 -2.64945e-21)
(1.00861 -0.00958898 -4.02753e-22)
(0.128738 0.0134335 1.59223e-21)
(1.04253 0.00766316 0)
(1.03612 -0.000157058 0)
(0.50057 1.08872 7.5345e-20)
(-0.0513768 0.00919565 0)
(1.26442 0.000113626 -8.59749e-20)
(0.00264285 -0.00610231 5.09767e-20)
(-0.230257 -0.00763349 -1.19993e-19)
(0.131326 0.0705537 0)
(1.04075 -0.0055251 -4.45025e-21)
(-0.043047 -0.00212545 0)
(1.27754 0.0835775 0)
(-0.0604556 -0.088278 -2.21944e-20)
(1.05107 0.0082242 1.37011e-20)
(0.999711 -0.00881315 4.92839e-21)
(1.0147 -0.0121667 -2.65752e-21)
(0.901206 -0.0396632 1.84858e-20)
(1.02575 -0.0481363 -4.78632e-21)
(1.14538 -0.128229 1.21777e-20)
(0.988203 -0.0681194 1.10784e-20)
(1.10227 0.111245 -1.83601e-20)
(0.99794 -0.00285485 -7.17134e-21)
(1.00735 -0.00450232 -1.05406e-21)
(0.683145 0.0698706 2.26487e-20)
(1.08546 -0.032057 9.36315e-21)
(0.670654 0.0399323 0)
(1.12118 0.0335891 -2.68246e-20)
(0.999468 -0.00906029 0)
(1.02428 -0.00482485 -5.61657e-21)
(1.00525 -0.00585916 0)
(-0.0208907 0.0305364 -1.70401e-20)
(-0.0245596 -0.0419692 -9.63499e-21)
(1.00022 -0.00643841 1.66245e-21)
(1.01295 -0.00928297 0)
(0.99318 -0.00531961 5.44448e-21)
(0.999892 -0.000641034 0)
(1.06212 -0.313786 -2.13278e-20)
(1.00007 -0.000730085 0)
(0.169666 -0.0323155 0)
(0.489809 -0.673133 1.61746e-20)
(1.00653 -0.00592385 0)
(1.00343 -0.0174366 -1.72195e-21)
(1.29753 0.0206032 7.7735e-20)
(-0.0556809 -0.00302489 0)
(0.61275 0.903875 5.3109e-21)
(-0.0586926 -0.0863956 4.47986e-20)
(1.00004 -0.00204668 4.02884e-21)
(1.12192 0.0333707 2.83439e-20)
(1.26439 0.00799667 1.57156e-19)
(1.03638 -0.000810738 8.4252e-22)
(-0.0289432 -0.105394 5.13086e-20)
(1.25749 0.212618 5.20497e-20)
(1.08702 -0.0072369 1.6023e-20)
(1.04202 -0.0701034 7.22999e-21)
(0.986896 -0.0117889 4.92568e-21)
(0.996924 -0.00373058 0)
(1.00002 -0.000152384 6.46923e-22)
(-0.145279 0.00342008 0)
(0.987864 -0.0115411 -3.67453e-21)
(1.01925 -0.00026849 0)
(1.08793 -0.0143013 5.69598e-21)
(1.02383 -0.00863456 -1.55653e-21)
(-0.0342412 0.0280748 0)
(1.26297 0.0938462 1.30414e-19)
(0.999987 -0.00215414 -3.2749e-21)
(0.998011 -0.00256958 7.30014e-21)
(-0.205747 -0.0155992 -4.66547e-20)
(1.01219 -0.011184 0)
(1.01138 -0.0107961 0)
(1.0209 -0.0418715 1.80425e-21)
(1.27035 -0.0478725 1.16277e-19)
(-0.0388803 0.00928327 -1.92377e-20)
(1.0001 -0.00105876 0)
(0.971727 0.0168498 0)
(1.05261 0.00571207 -7.505e-21)
(1.03615 -0.00229598 -1.74145e-20)
(-0.188145 0.00402534 8.36578e-20)
(-0.170268 0.00861834 0)
(0.979974 -0.043929 3.92314e-21)
(0.967808 -0.0242281 8.80746e-20)
(-0.136899 0.028348 -1.54872e-19)
(0.922544 -0.18215 0)
(1.01395 0.036784 1.0744e-19)
(1.07629 -0.01444 9.17187e-21)
(1.09593 -0.0370303 3.78009e-21)
(1.1536 -0.202968 0)
(0.976777 -0.450205 -4.92164e-21)
(1.01802 0.000215344 2.96725e-21)
(0.998957 -0.0066771 -7.44358e-21)
(1.05006 -0.0280418 2.13275e-22)
(0.994552 -0.0142098 0)
(0.2963 -0.00951543 0)
(1.00657 -0.08175 1.46437e-21)
(0.411502 -0.444596 4.37816e-20)
(0.999936 -0.000960376 -3.73907e-21)
(1.27782 -0.21574 0)
(0.996837 -0.0200617 0)
(-0.0244863 -0.0504802 9.23202e-21)
(-0.32831 -0.00842619 -4.19582e-21)
(0.909511 -0.0036365 1.90751e-20)
(0.376532 0.0461587 8.46189e-20)
(0.930447 -0.171636 0)
(1.05096 -0.0273576 0)
(1.10234 0.0520088 -3.12815e-20)
(-0.045469 0.0202185 0)
(0.893524 0.0563869 -1.24214e-19)
(1.00041 -0.000193965 -5.83012e-22)
(0.107395 -0.0318156 5.47386e-20)
(1.1156 0.0138114 0)
(1.02257 -0.00685097 0)
(0.503522 0.00701259 0)
(-0.111751 -0.0092648 -7.02449e-20)
(1.00218 -0.0171912 -3.5166e-21)
(0.266049 0.0808485 0)
(-0.0182707 -0.000825851 4.59738e-20)
(0.999848 -0.00757346 -2.18975e-22)
(-0.295336 -0.00654371 -3.83758e-21)
(1.06211 -0.330414 -1.1755e-20)
(1.03575 -0.00291388 1.48833e-20)
(0.772856 -0.0280724 3.06816e-21)
(0.454205 0.0683985 -4.59571e-20)
(1.28741 -0.0580042 -2.11528e-20)
(1.10866 0.0557501 -1.62612e-20)
(0.15039 0.0217676 6.8592e-20)
(0.0695131 0.346613 2.23878e-20)
(1.26881 0.103232 7.45788e-20)
(1.19987 -0.033893 4.0774e-20)
(1.02332 -0.00811129 4.17072e-21)
(-0.164665 -0.021833 -8.32019e-20)
(0.992425 -0.0181315 -5.06216e-21)
(0.996463 -0.0379703 0)
(0.339133 0.071251 -1.20606e-19)
(1.03783 0.0358726 -4.04242e-20)
(1.00015 -0.0628918 5.30496e-21)
(0.979914 -0.0440204 -3.59396e-21)
(1.11311 0.0172352 2.59181e-21)
(1.07443 -0.0117499 -8.81711e-21)
(0.971627 -0.00343371 1.44488e-20)
(1.01526 -0.0121576 2.70299e-21)
(1.01634 -0.00142157 0)
(1.03011 -0.233009 8.06882e-21)
(-0.135934 -0.000820146 0)
(1.00504 -0.00538063 -1.50356e-23)
(1.1369 0.0959436 2.32555e-20)
(0.999931 -0.000516022 -2.3031e-21)
(-0.215049 -0.00914918 -5.3261e-20)
(0.998996 -0.00654111 2.32512e-21)
(1.00319 -0.000295386 -8.79179e-23)
(1.25325 0.212875 -3.31339e-20)
(0.601241 0.0233457 -5.51749e-20)
(0.977488 -0.243618 0)
(-0.0151734 0.0201104 0)
(1.00371 -0.00971707 0)
(1.00328 -0.00941209 7.9351e-22)
(-0.00524454 0.00169963 -6.20638e-20)
(0.721163 -0.185343 -1.26503e-19)
(1.15379 -0.138448 2.67306e-20)
(1.04958 0.00135844 -1.36566e-20)
(0.599803 -0.345229 0)
(0.505085 -0.0570965 1.21389e-19)
(1.00019 -0.00369368 1.32261e-21)
(0.998789 -0.00309478 6.89801e-24)
(1.00005 -0.00239661 -5.79319e-21)
(1.03639 -0.0559909 1.53092e-21)
(0.110453 0.0557981 -3.84406e-20)
(0.00348176 0.00407928 -1.68653e-20)
(0.994811 -0.0355797 2.74027e-21)
(1.00616 -0.057729 0)
(0.626201 0.126814 -1.14887e-21)
(-0.167821 -0.0219099 0)
(-0.270107 -0.00983015 -6.51877e-20)
(1.01944 -0.000215987 2.33578e-21)
(0.966312 -0.0466319 -3.66153e-21)
(0.601985 0.809235 4.69505e-21)
(0.997055 -0.0374704 -3.07638e-21)
(0.998611 -0.00242269 0)
(1.00093 -0.00741908 0)
(1.01788 -0.00727788 -3.39038e-21)
(1.17618 -0.0663013 0)
(0.456282 -0.27042 1.12673e-19)
(0.706854 -0.732309 0)
(1.00057 -0.447877 1.9119e-20)
(1.00156 -0.00769424 3.42884e-21)
(1.25582 -0.0325461 3.80499e-20)
(1.00807 -0.0119159 -1.26793e-22)
(1.00003 -0.00036797 -1.16071e-22)
(0.0206828 -0.00850841 8.44726e-20)
(0.916788 -0.756872 2.11139e-20)
(1.03215 -0.22362 5.72798e-21)
(0.46104 0.13191 6.12386e-21)
(-0.0788349 0.0160913 -1.90266e-20)
(0.675555 0.0245266 9.30548e-20)
(-0.0153925 0.00402101 4.4609e-21)
(1.24441 -0.103606 -4.34221e-20)
(0.0316209 0.0097918 -1.28927e-19)
(-0.249578 -0.00999523 -6.13284e-20)
(1.11714 0.123809 2.4917e-20)
(-0.231373 -0.00918586 5.83048e-20)
(0.9952 -0.0171893 1.93828e-21)
(0.669885 0.0509581 0)
(1.04136 -0.0508344 6.33966e-21)
(1.05508 0.00874746 -2.18891e-20)
(0.643058 0.110803 9.98548e-22)
(1.24831 0.229213 0)
(0.987656 -0.0639546 8.68032e-21)
(1.29229 -0.151703 0)
(0.894235 0.031541 2.29918e-20)
(1.1342 0.0124334 -3.26617e-20)
(0.999818 -0.00117972 1.22671e-20)
(0.980709 -0.0101 -9.06901e-23)
(0.887208 -0.696753 -7.6154e-21)
(-0.0239741 0.0114454 0)
(0.0140649 0.0246539 -1.02549e-19)
(1.02079 -0.00104553 2.25343e-21)
(1.28844 -0.144928 0)
(-0.107768 -0.0302534 3.01056e-23)
(0.96046 -0.0115652 0)
(1.05337 0.00532607 1.60215e-20)
(0.992809 -0.00520579 -3.03676e-21)
(0.920441 -0.0257535 -2.01521e-20)
(0.676778 -0.329667 -5.86702e-20)
(-0.171868 -0.0178858 1.73665e-19)
(1.00021 -0.000764317 -7.86998e-22)
(0.0826076 0.00547537 0)
(0.998931 -0.00556027 0)
(0.173289 0.0339571 -6.28286e-20)
(1.07342 -0.0606282 -9.63248e-21)
(1.01665 -0.0429222 -7.18197e-22)
(1.07489 -0.0774983 -1.4063e-20)
(-0.187834 -0.019226 -1.32585e-19)
(1.03129 0.00150022 -3.0231e-21)
(1.00258 -0.00503101 0)
(-0.113285 0.000188337 8.89291e-20)
(0.0365078 0.00645336 1.4673e-20)
(1.17392 -0.199144 -6.67758e-20)
(0.727821 0.0359668 8.98184e-20)
(1.04902 0.00029825 1.44608e-20)
(1.00118 -0.00687556 0)
(0.999237 -0.00181627 -1.47023e-21)
(-0.0174047 -0.0987232 -6.71674e-21)
(0.720278 -0.255274 1.26352e-20)
(-0.016538 -0.116173 0)
(1.09898 -0.0698735 -2.40517e-20)
(0.654884 -0.766926 0)
(0.0261859 -0.0062253 -3.27977e-20)
(1.11532 0.0462693 -4.14473e-20)
(-0.193244 -0.0110701 5.11636e-23)
(0.965254 -0.0462717 3.67834e-21)
(-0.251568 -0.0106995 1.88928e-20)
(1.01777 -0.00620692 0)
(0.505047 -0.0216698 0)
(0.0701561 0.0146821 3.27329e-20)
(0.694495 -0.199984 1.318e-19)
(1.07705 -0.00633993 1.92221e-20)
(0.111094 0.0654458 0)
(-0.231854 -0.0133989 1.81753e-19)
(1.00243 -0.00603632 0)
(0.395274 -0.139475 -9.21125e-20)
(0.991246 -0.0191552 4.06537e-22)
(1.00012 -0.000622517 -9.65118e-22)
(-0.272637 -0.0109044 -3.68224e-20)
(-0.0487064 -0.00280398 0)
(0.999969 -0.00242409 6.83484e-21)
(0.999933 -0.00735071 0)
(1.01448 -0.0010049 -2.32726e-21)
(0.109921 -0.457709 -7.02777e-20)
(-0.0104415 0.0102654 7.56332e-20)
(1.00269 -0.00540155 0)
(1.26909 -0.00160829 -6.05287e-20)
(1.04251 -0.0744177 -9.975e-21)
(1.04245 0.00515701 0)
(1.00361 -0.00907619 -6.09707e-22)
(1.18817 -0.119533 4.14668e-20)
(1.25818 -0.0272409 -2.7898e-20)
(1.08255 -0.0406963 -2.36245e-20)
(0.478127 -0.126846 -4.63928e-20)
(1.00035 -0.00651612 -3.25641e-21)
(1.00752 -0.00461105 1.00476e-21)
(0.580703 0.181602 0)
(-0.317708 -0.00953943 0)
(1.27721 0.0742577 -1.39238e-20)
(-0.258981 -0.0101731 -1.57231e-20)
(0.161751 -0.0888277 -6.62029e-20)
(0.968092 -0.0088225 -2.3683e-20)
(-0.10709 -0.0308467 5.27955e-20)
(0.478494 -0.121218 -4.58737e-20)
(0.938818 -0.0431285 2.48384e-20)
(0.366396 -0.615349 -3.9242e-20)
(1.05281 -0.273621 0)
(1.06844 -0.0617885 0)
(1.08307 -0.168821 -1.26226e-20)
(-0.0363688 0.0142689 0)
(0.903202 0.0113471 0)
(1.19521 -0.039167 -3.97853e-20)
(1.03281 -0.0551964 1.24421e-21)
(1.09112 -0.0915082 -1.07175e-21)
(-0.119774 -0.0286533 -5.41948e-20)
(1.00247 -0.00574134 -1.1351e-21)
(0.377549 0.126128 9.1758e-20)
(1.17845 -0.0722193 -1.75999e-20)
(0.892421 -0.239488 -2.75791e-20)
(0.955629 -0.180756 -1.46266e-20)
(1.02337 -0.00798045 0)
(1.05149 0.00216535 -3.57292e-21)
(-0.144462 0.0129868 4.05713e-20)
(1.00237 -0.00497227 -9.57931e-22)
(0.999017 -0.00573679 -2.42448e-21)
(1.21638 0.00173602 -4.98593e-20)
(1.02107 -0.00734872 -2.40235e-21)
(1.16077 -0.129312 -2.98123e-20)
(1.0428 0.00585433 -2.56759e-21)
(1.23602 0.0321927 1.81841e-20)
(0.977236 -0.0308313 6.02382e-21)
(1.10294 -0.0656619 -4.08856e-20)
(1.02417 -0.00496864 0)
(0.245996 -0.245364 -1.3484e-19)
(-0.251902 -0.010586 0)
(0.0866371 0.493919 -1.65589e-19)
(1.03414 -0.0554764 0)
(-0.240407 -0.00907485 0)
(-0.0124194 0.00288008 3.63181e-20)
(0.523107 -0.0121502 0)
(1.03568 0.00149414 0)
(0.00752599 0.0130739 -6.84347e-20)
(0.963037 -0.00337762 2.44298e-20)
(-0.158007 0.185578 -1.53215e-21)
(0.995506 -0.00395906 0)
(0.655604 -0.0958857 -9.77674e-20)
(1.14241 -0.0358881 0)
(-0.0351646 -0.0398419 1.77775e-20)
(-0.314043 -0.00878014 -6.98579e-20)
(1.29032 -0.0711765 -1.13535e-19)
(-0.115683 0.0057109 3.92692e-20)
(1.01949 0.000450926 -6.50927e-21)
(-0.271095 -0.0082073 0)
(1.00549 -0.000543777 0)
(0.906678 -0.0687398 -1.00936e-20)
(0.94216 -0.0494761 0)
(0.988689 -0.0104067 7.62182e-21)
(1.00241 -0.000619898 0)
(-0.209376 -0.00880024 -2.61096e-20)
(1.13651 0.0877779 2.15036e-20)
(1.04958 -0.0308023 9.06641e-21)
(0.120169 0.00775746 5.96544e-20)
(0.127312 -0.0719418 0)
(0.773468 -0.139989 -2.27309e-20)
(1.01959 0.000213141 3.89184e-21)
(0.945202 -0.084004 2.29484e-20)
(1.00011 -0.00118527 0)
(1.01248 -0.0115767 1.03927e-21)
(1.01769 -0.00687703 0)
(0.993731 -0.0210821 3.3476e-21)
(0.463594 -0.28385 -1.03889e-19)
(1.07149 -0.07895 1.03115e-20)
(0.553134 0.012596 -1.17045e-19)
(-0.199051 -0.00256271 4.68315e-20)
(-0.248964 -0.00886178 -3.47013e-20)
(-0.219075 -0.0045917 -1.12342e-19)
(0.742394 -0.439755 -3.95879e-21)
(0.903285 0.0113998 -1.168e-20)
(0.998872 -0.0025771 4.24194e-21)
(1.03656 -0.0237288 -4.98181e-20)
(1.00866 -0.00917024 -4.99922e-22)
(-0.214438 -0.00784926 -1.15512e-19)
(-0.0974605 0.0262082 3.4139e-20)
(1.02189 -0.00708315 0)
(1.09607 -0.107546 -1.36214e-21)
(0.0379899 0.0229101 0)
(0.0739306 0.00562485 -4.63949e-20)
(0.472572 0.1375 -5.95742e-20)
(1.1067 -0.0621287 1.10111e-20)
(0.90852 0.0132613 0)
(1.02115 -0.0174945 -3.2724e-21)
(0.0506148 -0.0487784 3.55207e-20)
(-0.257351 -0.00846888 0)
(0.839908 0.0237835 3.84366e-20)
(1.0529 -0.253561 1.14757e-20)
(1.29372 -0.057575 -1.20749e-19)
(-0.324075 -0.00953545 0)
(1.03684 -0.272088 -1.393e-20)
(0.0248211 -0.104416 4.84933e-20)
(0.911161 -0.354042 1.22593e-21)
(0.78888 -0.444204 -2.13826e-20)
(1.00353 -0.00979002 7.79908e-22)
(-0.235857 -0.00980019 -7.46892e-20)
(1.14508 0.0991109 8.29265e-21)
(1.13397 0.081245 -6.47102e-20)
(-0.100982 0.00761058 0)
(1.01532 -0.0167962 -1.91368e-21)
(1.16276 0.133762 0)
(0.709814 -0.214676 0)
(1.01598 -0.01666 2.29873e-21)
(1.25576 0.135519 3.73859e-20)
(0.852678 0.0527887 9.34917e-20)
(0.0293334 -0.0941373 -4.8243e-21)
(0.0517962 0.00305479 1.15129e-19)
(0.857466 0.0115126 -2.55419e-20)
(1.09801 -0.0556735 0)
(1.00218 -0.000758057 0)
(0.60973 -0.326516 0)
(1.05224 -0.605909 2.89352e-20)
(0.938943 -0.0886022 -6.94241e-21)
(-0.0306406 0.0006902 -1.03712e-19)
(1.00284 -0.0229705 2.27724e-21)
(0.0622093 -0.00474551 6.2231e-20)
(-0.0102223 0.00665607 0)
(1.08347 -0.00177093 2.41501e-21)
(0.979678 -0.0774831 0)
(0.999957 -0.00122203 0)
(0.871984 -0.129977 1.86863e-20)
(1.00014 -0.00158597 -6.70181e-22)
(0.240106 -0.0852197 9.63556e-20)
(1.18852 0.0955181 0)
(0.0684619 -0.00489475 1.84062e-19)
(1.01434 -0.0103099 1.22066e-21)
(1.01603 -0.0160416 0)
(1.02055 -0.0178656 -3.19171e-21)
(0.556969 -0.192655 -5.25838e-20)
(0.0753686 0.0250034 1.19496e-19)
(0.845687 0.0187803 -2.24518e-20)
(0.190688 -0.0844767 1.00963e-19)
(1.12593 0.0955117 0)
(1.19619 -0.0469014 8.93258e-20)
(0.995803 -0.00395345 0)
(1.00094 -0.000499324 1.71e-23)
(1.25796 -0.296805 -4.5411e-20)
(0.999301 -0.0659398 -2.30961e-21)
(1.28449 0.170607 0)
(0.0576603 -0.416682 0)
(0.785597 -0.23416 1.47488e-21)
(1.28109 -0.0480615 0)
(1.04102 -0.0304672 -2.49192e-21)
(-0.198717 -0.00977961 -1.25848e-20)
(0.365674 0.104248 6.40663e-21)
(0.593136 0.344958 -5.50786e-21)
(1.05899 0.00577717 -1.61732e-20)
(1.01168 -0.00138094 -2.62741e-23)
(1.051 -0.0332246 -8.6119e-21)
(0.999329 -0.00458115 0)
(1.26994 0.0192702 1.0323e-19)
(0.987282 -0.0815605 0)
(1.02355 -0.0103656 9.52204e-21)
(1.25455 0.139219 0)
(0.950968 -0.0296685 1.62346e-20)
(-0.0197414 -0.104777 -1.90896e-20)
(1.01366 -0.392226 -2.56013e-20)
(0.923607 -0.176946 -2.15699e-20)
(1.00617 -0.00604698 -3.17244e-22)
(-0.0135285 0.0181815 -2.93906e-21)
(1.032 -0.000121516 1.1569e-20)
(1.08506 -0.00504552 -1.06698e-22)
(0.0440085 -0.108984 -4.93972e-21)
(0.627943 -0.143049 0)
(1.00313 -0.0097407 0)
(1.00155 -0.431407 -2.57821e-21)
(0.048183 0.00251392 -1.74947e-20)
(1.02952 -0.0138901 -5.74386e-21)
(1.00084 -0.00699098 0)
(0.996429 -0.0168022 0)
(0.758732 -0.12736 -3.13427e-20)
(-0.033898 -0.030723 -3.62845e-20)
(1.00263 -0.0053967 2.38373e-22)
(-0.16818 0.00800209 -9.62103e-20)
(1.00006 -0.000883724 0)
(-0.153978 -0.0236505 0)
(0.18441 -0.0658211 -1.35779e-19)
(-0.0160488 -0.109675 0)
(-0.0480269 -0.0652383 -1.42234e-20)
(0.981807 -0.247653 0)
(1.10103 -0.0513218 1.94015e-20)
(0.352698 -0.102691 -5.93444e-20)
(1.00497 -0.000610301 -9.18477e-22)
(0.89152 0.0385461 8.35689e-20)
(1.02903 -0.0145697 0)
(1.00964 -0.00407536 -2.79201e-22)
(1.02148 -0.00184635 0)
(1.03983 -0.0169876 -1.67293e-20)
(0.13569 0.00776448 -6.93355e-21)
(1.02542 -0.0229317 -2.33331e-21)
(1.00225 -0.00464614 9.1197e-22)
(1.01453 -0.0449358 -3.5163e-22)
(1.02388 -0.0100539 -3.60115e-21)
(0.937506 -0.603388 2.07098e-20)
(0.968197 -0.0518394 8.66007e-22)
(-0.195153 -0.0180001 7.46134e-20)
(1.00374 -0.00907672 6.01438e-22)
(0.999451 -0.00427901 4.53758e-21)
(1.0026 -0.00609594 0)
(0.344994 0.103335 0)
(-0.279592 -0.0126611 1.30281e-19)
(-0.379153 -0.13923 7.16249e-20)
(0.449947 -0.420929 -1.09011e-19)
(1.00933 -0.00361572 -3.31368e-22)
(-0.100198 0.0128213 -7.27507e-20)
(-0.0592372 -0.0036817 -1.87669e-20)
(1.03655 -0.0530768 2.00176e-21)
(1.00006 -0.0135554 -4.23542e-21)
(-0.217471 0.000411733 0)
(-0.192958 -0.00897635 4.1875e-20)
(1.06389 -0.0637893 7.89943e-21)
(1.21987 0.0784558 2.88769e-20)
(0.546307 0.0765137 5.651e-20)
(1.04105 -0.237319 0)
(1.03626 0.00101622 -1.14607e-21)
(1.15776 0.0371281 3.84825e-21)
(1.09065 -0.0919415 2.61072e-21)
(1.15578 0.033228 -3.12041e-21)
(0.084441 0.00782602 8.43438e-21)
(0.0870285 -0.0521743 -4.82726e-20)
(1.02463 -0.00365931 -5.36058e-23)
(-0.247574 -0.00665148 2.27263e-22)
(1.01678 -0.0159733 -2.04156e-21)
(1.30202 -0.172192 0)
(1.12982 0.0832707 -4.08248e-21)
(1.14345 -0.121255 0)
(0.987983 -0.0103622 4.24694e-21)
(-0.256138 -0.00917559 0)
(-0.155503 0.0114752 5.85848e-20)
(0.980769 0.0468668 6.61221e-20)
(0.999059 -0.00179013 7.4578e-21)
(1.10149 0.103325 3.44075e-20)
(1.02361 -0.0076524 0)
(-0.262237 -0.00832886 7.22252e-20)
(1.0023 -0.00568467 -1.49798e-21)
(1.10306 0.0437712 2.09094e-20)
(1.05433 -0.0216123 -1.0585e-20)
(1.00851 -0.0113471 -2.6615e-22)
(0.774005 -0.265444 -1.6809e-21)
(1.00594 -0.0790287 -4.30805e-21)
(0.997576 -0.00553833 9.03842e-21)
(0.26265 0.111328 1.79063e-19)
(1.0014 -0.00563723 1.27225e-21)
(0.0380561 0.0123929 -1.65989e-20)
(1.09825 -0.0401532 -3.88153e-20)
(1.14902 -0.441065 -6.96281e-20)
(0.99864 -0.0292951 8.27852e-21)
(1.25734 0.102432 -1.42349e-19)
(0.935497 -0.301449 0)
(0.995239 -0.0361349 -2.93624e-21)
(-0.153461 -0.0231264 0)
(1.28806 -0.135227 -7.67877e-20)
(0.483728 0.0682826 -1.38527e-20)
(0.998944 -0.00274575 0)
(0.920966 -0.0137364 0)
(1.24093 -0.0944888 -1.97166e-20)
(0.403586 0.0167399 1.42519e-20)
(0.999887 -0.0139956 4.81993e-21)
(1.00676 -0.0536554 7.64162e-22)
(1.0645 0.00429093 1.25016e-20)
(0.330795 0.114905 -1.24599e-19)
(1.01954 -0.00264089 -5.83555e-21)
(1.20487 -0.00802179 4.24905e-20)
(1.26869 0.0181438 6.60352e-20)
(0.969265 -0.0530542 3.33588e-21)
(1.01946 -0.000666611 0)
(1.00078 -0.000399375 3.8577e-23)
(1.00672 -0.0068405 -2.49432e-23)
(1.11699 -0.153935 3.19083e-20)
(1.02167 -0.00736637 5.0052e-21)
(0.918931 -0.55611 -1.26942e-20)
(1.12184 -0.0325206 -6.50721e-24)
(1.02416 -0.00358344 -4.93398e-23)
(1.02237 -0.0749537 6.37021e-21)
(-0.229743 -0.00820575 0)
(1.00475 -0.0177254 0)
(1.06824 -0.0446786 -1.50106e-20)
(1.0117 -0.0111435 -6.87992e-22)
(1.00209 -0.0059286 1.38983e-21)
(1.17326 -0.0807983 -6.28605e-20)
(1.25371 0.110287 6.16092e-20)
(0.0803486 -0.474252 6.94806e-20)
(1.24382 0.201824 -5.92079e-20)
(1.06016 -0.00565376 -1.02108e-20)
(1.04231 -0.0294528 7.47935e-21)
(-0.200073 -0.017555 1.51746e-19)
(0.128324 -0.100695 8.95229e-20)
(0.614569 0.00669324 1.541e-19)
(-0.250273 -0.00960263 0)
(0.698079 -0.260785 -1.32674e-19)
(1.2791 0.078371 -8.10883e-21)
(1.00361 -0.00851445 0)
(1.09137 -0.102096 -1.87457e-20)
(-0.212309 -0.0155052 0)
(-0.241456 -0.00940237 0)
(-0.0970812 -0.00909172 -4.01701e-20)
(1.00125 -0.00540224 -1.76417e-21)
(0.943029 -0.321281 7.31472e-21)
(1.04394 -0.234155 0)
(-0.254612 -0.00336247 1.4828e-19)
(-0.192456 -0.00315486 4.82859e-20)
(0.997758 -0.00991174 -3.16701e-21)
(0.667809 0.121608 0)
(0.916962 -0.0188008 -2.02981e-20)
(0.118408 0.191337 6.00623e-22)
(-0.212275 -0.00747494 0)
(0.163362 0.513438 2.19532e-19)
(1.01342 -0.00980834 1.08908e-21)
(1.29512 -0.0782769 2.11373e-20)
(1.00002 -0.000194065 5.66705e-24)
(1.03558 0.00260929 0)
(-0.00613401 0.00132325 1.00333e-19)