/*--------------------------------*- C++ -*----------------------------------*\
| =========                 |                                                 |
| \\      /  F ield         | OpenFOAM: The Open Source CFD Toolbox           |
|  \\    /   O peration     | Version:  v2012                                 |
|   \\  /    A nd           | Website:  www.openfoam.com                      |
|    \\/     M anipulation  |                                                 |
\*---------------------------------------------------------------------------*/
FoamFile
{
    version     2.0;
    format      ascii;
    class       volScalarField;
    location    "100";
    object      ddt0(omega);
}
// * * * * * * * * * * * * * * * * * * * * * * * * * * * * * * * * * * * * * //

dimensions      [0 0 -2 0 0 0 0];


internalField   nonuniform List<scalar> 
18598
(
-0.0993182
-0.202648
-0.00881203
-0.0116054
-0.00440676
-1.47783e-05
0.0397963
-1.14609e-05
-3.08861e-06
0.00161577
-1.48941e-06
0.0335434
-8.47291e-06
0.0914937
-0.0315914
0.0191688
0.000343464
-0.0614293
0.00860279
-0.0101317
-0.101002
-5.65554e-06
0.00523249
-1.10591e-06
-1.23728e-06
-0.0079391
-2.21272e-06
-0.127789
-5.10954e-06
-7.52176e-06
0.0178073
-3.02629e-06
-0.103829
-1.97348e-06
0.0182682
-3.59412e-06
-0.000334791
-1.3942e-06
0.00165339
-0.354436
-0.144389
-1.87675e-06
2.22301e-07
0.00151683
-2.46637e-06
-0.109511
-6.1764e-06
-0.371963
-0.0010554
3.56112e-06
0.0221007
1.32994e-06
-7.18958e-05
-0.0158433
6.07557e-05
-3.12256e-06
0.153631
-0.165258
-0.0866497
0.0676128
3.75473e-05
3.7512e-06
-5.11756e-05
0.0684613
-0.00131807
9.65009e-05
-0.000669192
0.000109222
-3.49366e-06
0.000324359
0.000146939
-1.32803e-07
0.000105554
-6.00731e-06
-8.83393e-06
-5.15362e-06
3.39893e-05
-4.8326e-05
-5.97435e-05
0.000278827
2.08366e-06
-1.62185e-07
-1.07268e-05
3.53826e-06
2.41335e-06
0.000114532
-5.08047e-06
-0.0997619
0.526099
-0.745265
-0.000341091
-0.000128922
-1.58489e-06
2.63126e-05
5.5184e-06
9.02405e-05
-0.000978734
-0.00795139
-0.00428423
-0.000375736
0.118483
0.0872646
0.310969
-0.0912241
2.29316
-0.00495128
0.00243685
0.0251625
-4.05148e-06
0.312711
0.0126964
5.18403e-06
0.00725565
0.0853965
-3.2528e-06
-0.00624372
7.6129e-05
-1.41643e-05
0.00739821
-2.71933e-06
-0.00372013
0.00821034
0.0323381
2.32826e-07
1.95277e-07
-0.368583
-0.060308
-3.63435e-06
-2.20015e-06
0.113195
0.0117141
0.97055
0.428286
-6.04585e-05
0.00120648
-0.00314292
-2.47866e-06
-7.85322e-06
-7.39938e-06
0.0195022
-3.41726e-05
-8.58252e-06
0.000286289
2.0071
0.00543871
-1.88965e-06
1.89912
-2.73505e-06
0.0242015
-8.52893e-06
-2.934e-06
-0.041159
0.000491644
1.12745
9.25091e-05
5.24595e-05
0.00102501
0.0365186
4.88325e-06
-5.12132e-06
-0.00450765
-0.0101439
0.00154078
1.34049e-06
0.192347
0.68441
0.00260956
5.65896e-06
-8.53048e-06
-5.08411e-06
-1.27231e-05
0.518572
-0.194711
0.0670963
-0.221064
-0.573377
-0.0034149
-0.476398
-2.53021e-06
-1.8326e-06
0.178186
-1.3187e-06
-0.000363293
1.31618
2.79027e-07
-0.000118249
0.0472807
-5.18587e-06
0.00625735
0.102436
0.00762202
0.000141157
-2.44922e-06
0.174134
-0.00731075
-0.00376432
-5.17443e-06
0.0090392
-6.84089e-06
-0.104035
0.00906952
0.000187388
0.000442952
0.097184
0.0152959
2.49871e-06
-5.70229e-06
-0.000223346
0.000437102
-0.0622449
1.11252e-07
-2.16494e-06
-7.29885e-05
-0.0093961
0.216714
0.000124522
-0.0447044
-0.271155
0.0102205
-1.69251e-05
-0.487896
0.0142044
-1.40472
-5.23301e-06
-6.61373e-05
0.00179193
-0.000922653
0.00929189
-0.000390595
-5.1651e-06
0.00448433
-3.50613
2.60099e-05
-0.00394888
-7.60017e-06
-2.32062e-05
8.27338e-06
-0.00669973
-1.51215e-06
0.0636352
1.08422e-07
1.07479e-06
0.00594666
-0.000446663
-5.47513e-06
-7.27418e-06
1.13917e-05
0.000110637
-6.53937e-06
-2.05718e-06
-0.171483
-8.93894e-05
-0.200793
0.00685928
9.5189e-07
3.34378e-05
-9.22068e-07
-0.417819
-2.66576e-06
-1.99793
1.0676e-05
-1.61031e-05
-0.0137807
-5.50334e-05
-7.80122e-07
0.0442059
-4.10515e-06
5.46624e-07
-1.95402e-06
0.0381775
1.18525e-06
0.000126069
0.223266
-1.75298e-07
0.000154859
-0.139048
2.41071e-06
-0.0653752
-0.0999432
-0.0199381
0.0156842
0.0809194
-3.84062e-05
0.336101
-0.0507404
0.0377972
-0.0526048
1.02629e-05
-0.216093
-0.154983
-1.04672e-06
0.0217022
-1.12869e-06
-0.00081224
0.0998364
-8.20341e-06
-0.710991
-0.000516498
-2.02436e-06
-0.0476962
-1.31742e-05
-8.57045e-06
-4.37549
-0.000545775
-1.10238e-06
-0.687342
3.02214e-06
-1.07475e-05
9.40176e-05
-4.82078e-07
8.35146e-05
-1.26348e-06
-0.0524092
2.25735e-05
-5.44485e-05
-0.130898
-0.000533633
-1.04017e-05
0.0892552
-1.13678e-06
-0.000637151
-2.5766e-06
-5.44481e-07
-2.33231e-06
-0.0352278
0.107647
0.00126492
0.279684
-4.66068e-05
0.0290394
-4.17196e-06
-0.0375466
-1.79883e-06
-0.197438
-9.75507e-07
-3.69569
-3.8561e-06
0.000135131
-0.23289
-9.2729e-07
0.00152243
-5.60364e-06
0.388488
0.000152964
0.000850732
-1.23479e-05
-6.93247e-06
0.0989773
0.744232
1.06495
-4.6137e-05
-0.00174833
2.75331e-05
0.26254
1.70523
1.386e-05
-0.0951298
-0.313815
-0.0141224
8.32959e-05
-0.00524678
0.050262
0.00311976
-0.000169831
0.208491
-4.68841e-06
-0.135105
1.69338e-07
-0.202302
-1.87188e-06
5.44666e-05
0.000420659
3.25305e-07
-1.08275e-06
1.44831
-3.7851e-07
3.49944e-06
-4.53427e-07
3.10798e-06
-0.000112555
-0.000697018
-0.0105482
-0.0109854
2.64871e-06
0.000355723
0.00629542
-6.01323e-05
6.28242e-06
0.0363348
2.8709e-05
1.3414e-07
0.321205
2.60358e-05
-0.000904086
-0.0165027
-2.05862e-05
9.11028e-06
0.0590609
-0.00243336
-1.30685e-06
4.44925e-06
0.000156956
2.74704e-06
0.000178486
0.0012801
0.252781
0.000132825
1.60187
-6.96393e-06
0.11639
0.0201242
-2.45465e-08
0.135211
0.161821
-0.135749
9.13123e-05
0.0303356
-0.00206167
0.00438223
0.0465891
-8.42528e-07
-2.06832e-06
-2.02775e-06
-2.70324e-06
-0.294374
-0.158804
0.170902
9.08717e-07
-2.68193e-06
4.99424e-05
3.85029e-05
-7.56502e-05
-1.18018e-07
-1.13619e-05
0.00804467
0.0001435
3.24382e-07
-2.06178e-06
5.74966e-07
-9.863e-06
-1.22093e-05
-7.421e-06
-0.354098
0.0199136
5.13623e-05
0.000388193
0.000233821
-5.58372e-06
0.0643309
-0.109105
-7.12645e-06
-9.58175e-07
4.54882e-06
-0.123063
1.40041e-05
-8.70426e-08
-6.17918e-05
-2.00717e-06
-0.000125033
-6.61015e-06
0.0689648
-1.61804e-05
6.7009e-05
6.76935e-07
-1.95676e-06
6.01432e-05
-6.01354e-05
0.234522
1.27356e-06
-1.37263e-06
-4.55317e-06
-3.58706e-06
-5.76681e-06
0.000177496
0.0657449
1.46357e-05
-6.00398e-05
-1.54083e-05
-2.94208e-05
-2.37071e-06
0.00692335
3.20198e-05
0.000289652
7.20932e-08
3.83719e-06
1.18214
0.00760724
3.2789e-06
0.0160905
0.0535611
-0.0231284
-2.62221
0.00771854
-5.15195e-06
-4.40371
1.93006
-7.65069e-06
-1.4873e-05
0.019674
0.00950894
1.89674
0.0744673
-3.84883e-05
-0.111553
-3.58504e-06
6.48856e-06
-7.22605e-06
-9.94451e-07
-1.0903
1.84065e-05
0.000578517
0.000338429
-1.1523e-06
0.310921
-9.36943e-06
1.14973
1.94988
-0.37995
1.62997e-06
2.0955e-06
0.25115
0.00150102
0.839511
0.0237004
0.000225537
-1.32405e-05
0.0235887
0.0268783
0.00974557
-5.54473e-07
-6.78237e-06
-6.2437e-07
-9.61467e-08
-3.65543e-05
-6.40574e-05
-2.00018e-06
0.0329358
2.91705e-06
3.46792e-06
0.0182201
-0.0140349
-0.20752
-1.15918e-05
0.00531984
0.305394
0.000552739
-3.06649e-05
0.672804
-0.188861
0.167583
0.03083
-4.38917e-07
-7.98893e-05
4.41425e-06
0.0104478
-5.72645e-06
0.00301461
-4.28725e-06
-8.24899e-07
-1.57476e-06
-1.44836e-06
-0.149748
0.354344
8.75251e-05
-0.0816494
-0.745902
1.39552e-06
-0.00315787
2.79798e-06
-8.37342e-06
-0.00500141
-0.384759
-1.23603e-06
-0.000623424
2.33003e-06
-7.62469e-06
-1.54077e-06
0.109901
6.80392e-05
1.10968e-06
4.46669e-08
0.150571
-0.309373
-0.464267
-6.61496e-06
-1.1977e-06
-1.13986e-05
-0.0641462
0.0238197
4.01029e-06
-8.22881e-06
-1.8283e-07
-6.62181e-07
-0.000347675
-3.97107e-07
0.000121096
-0.0224532
1.34615e-07
-0.0446903
-5.97678e-05
-0.000383699
-7.32072e-06
-7.69507e-06
-0.00021594
1.4795e-08
7.22116e-07
0.000434823
-0.015929
-0.00213291
-6.61776e-06
-0.00318612
2.18523e-05
-0.0207328
-0.169641
-1.99506e-06
-3.57039e-07
-5.26343e-05
0.780447
-1.23465e-05
-3.04227e-05
-3.45121e-07
-0.00393289
0.798134
3.82128e-06
1.48746
-0.000254773
-0.33459
-0.135072
0.000393829
8.53314e-08
2.1777e-05
-5.39915e-06
-0.000562063
4.09686e-05
-1.81898e-05
0.0271415
-0.000311499
0.000197571
-0.0935651
0.000186262
-0.000665358
6.19761e-07
-0.00832523
0.0097539
-0.00418007
-9.63449e-06
2.36285e-05
0.0436321
2.83403e-06
1.46955e-06
-0.00013679
4.02572e-06
-0.0882866
-0.00105679
2.00644
-0.120803
-0.261497
-6.94803e-07
-0.0654986
8.00811e-07
8.48667e-07
-8.09926e-06
0.00561415
9.63214e-08
-1.45623e-06
-1.57285e-05
-4.62345e-06
-0.00806528
-0.00022826
0.00104297
-3.46263e-07
-2.2601e-06
-8.69546e-06
-0.598926
-0.0299623
1.03896e-06
-1.39378e-05
-0.878173
-0.0587681
-0.064922
0.000398157
-0.958137
-5.55667e-05
-0.0200744
-2.2897
-1.65259e-05
-1.42432e-06
-0.0820533
-0.00445898
-4.57079e-06
0.111076
-0.33313
0.021464
-1.06978e-05
1.18824e-05
-1.47053e-06
0.00937543
0.0464868
0.507191
-1.25591e-05
-0.00219133
0.0224817
-7.84561e-07
0.526785
-4.82806e-05
3.2857e-07
-0.788827
7.8518e-07
0.197334
3.54621e-06
6.70994e-07
-1.53699e-08
6.32224e-05
-0.34805
-4.24173
-7.39989e-06
-0.169626
-1.70759e-06
-6.27723e-06
1.85923e-05
-0.000564336
2.82499e-07
0.0219374
-0.181356
2.42383e-05
-1.24966e-06
-6.6733e-06
0.611103
0.000617153
0.0180162
0.0415519
4.85353e-05
0.000164485
-0.0772632
0.206834
2.5423e-05
0.0326478
0.000113943
1.54556e-05
-0.000411112
0.000260896
-1.43439e-05
0.00437163
5.48878e-05
7.81155e-06
-1.38489e-05
-0.077287
-0.070017
-0.00750024
0.0748604
0.00014157
0.00418562
-1.27226e-05
0.342191
0.0150876
0.00106678
1.46535e-06
3.55443e-07
-0.00675293
0.0620451
-9.4089e-06
-0.000443604
0.0732157
-3.91926e-06
0.875167
-9.69171e-07
-0.0462325
0.639161
-1.63677e-07
-1.94733e-05
0.000180738
1.28667e-07
1.42074e-06
-1.14297e-05
-3.36831e-06
3.02226e-07
-0.0315444
-7.79669e-06
-6.23025e-06
-1.48254e-05
0.0265182
-0.203229
-2.16996e-05
-1.23899e-05
-4.23274e-05
-7.01262e-08
-0.204333
-0.00119457
0.852946
-8.58687e-07
-2.35828e-05
-0.031299
9.84268e-07
0.000132714
-6.21632e-06
6.34976e-07
-0.000139946
-3.93213e-06
-0.000218418
-0.110134
0.000100756
-4.86455e-06
7.59431e-07
-4.32126e-06
-0.000258874
-0.085718
-0.00691435
1.35764e-06
-3.19351e-06
-8.52944e-07
4.48894e-05
4.90829e-05
7.75304e-06
6.74972e-05
0.379599
-2.18608e-05
-3.2498e-05
-0.046847
-0.176665
-0.305694
0.0360098
-0.544855
6.30267e-07
-0.00579461
-8.46979e-06
-1.47763e-06
4.61413e-06
1.49722e-08
0.000731569
-4.65342e-06
-0.241017
9.6716e-06
0.00536779
1.78267e-06
7.07723e-06
0.000438243
8.45224e-05
1.65774
1.17265
-0.00216042
-2.75618e-06
-9.36504e-05
-0.170771
-5.62169e-07
1.22389
-1.01613e-06
0.00474846
-0.0512221
0.00672036
0.00143242
-0.228645
0.0714082
0.000198508
-0.00460167
-0.00174629
-0.0805872
-0.0566178
0.000139651
-0.802743
4.63861e-06
-1.02111e-06
7.25863e-07
-7.13156e-08
-4.3262e-06
-3.31224e-06
-0.265896
-7.30567e-05
-0.000143886
-2.68522e-05
-0.0650371
-5.41739e-08
1.40058
-6.47213e-05
-0.000151348
5.0874e-06
-3.48695e-05
8.81951e-06
-4.73783e-06
6.73906e-06
-9.46994e-06
-5.58711e-05
-1.18066e-05
-0.0088769
-0.56338
-1.62815e-06
-0.0146576
0.000165108
-9.23171e-07
-0.00517597
-6.89523e-05
5.76773e-07
0.0244295
-0.029821
0.00626238
-0.14356
-2.06182e-06
0.00610268
-7.70008e-07
1.83846e-06
3.86189e-05
-8.95454e-07
3.93839e-05
-7.36209e-06
0.0354137
-2.03238e-05
9.49802e-06
0.00128527
-3.65749e-06
-5.87493e-06
-0.000675542
0.286496
-6.10068e-07
-7.25332e-06
-0.0111557
0.00708082
-1.36595e-05
-3.97712e-06
-0.0014729
-4.09704e-06
-0.000311013
-0.000101002
0.279145
-4.1053e-06
-1.08308e-06
-1.47954e-05
-0.000179344
1.54546e-07
-0.00138301
-0.0179085
-0.0691271
6.74374e-07
-0.00250506
-0.0206306
-2.08924e-07
7.00071e-07
-3.12378e-07
-5.02418e-05
1.12072
5.9466e-05
-0.67827
-0.000495106
-3.02355e-06
-0.0079902
0.2586
-2.60035e-06
-5.25497e-05
-0.107953
-0.0954289
0.00644135
0.142229
0.0001736
-0.00751237
-7.38721e-06
8.82871e-09
0.0226348
-2.8011e-06
0.128228
-0.491848
9.62078e-07
-7.98558e-07
-0.00284324
-7.69648e-06
0.0263109
0.155758
-0.737392
0.00427016
-1.36595e-05
-0.162078
1.91451
1.2839
4.24138e-05
1.46005
-0.0401373
-3.61504e-05
0.373743
2.97524e-05
0.0059888
6.06693e-06
0.000820079
1.00917e-06
0.00243589
-0.000579889
0.560461
-0.0165454
-6.1182e-05
-2.00668e-06
-5.20682e-07
7.75048e-05
-0.552191
-0.086192
-0.0460606
0.000357403
-0.0792026
0.00299338
-0.000164874
0.0025665
3.44735e-05
1.54651e-06
-3.72829e-05
-7.99803e-05
-1.45535e-05
-1.64055e-05
5.27231e-06
-0.0365422
-9.06435e-07
-7.93757e-06
0.163537
-0.10471
-0.00473083
-0.000679482
0.326339
0.0128999
-0.00180946
4.31732e-05
-0.127626
0.000181946
-5.66371e-05
0.0136513
0.0178629
-0.0128502
1.73326
0.110494
-0.00148895
0.314164
-1.78465e-06
-0.000745987
0.00648873
9.76511e-07
-0.00035927
-1.49811e-06
-4.31007e-05
0.988994
8.81264e-08
-0.000209049
-2.89463e-05
-3.38399e-06
2.2722e-06
2.16921e-06
0.000563693
-5.34931e-07
0.0431185
-2.50768e-05
-0.000105485
-5.87334e-07
-0.181888
6.73091e-07
-0.535745
-5.61223e-05
0.00264633
2.69458e-07
0.210585
-0.000963496
-3.74349e-07
-0.00134335
-0.00174442
-0.0281922
0.0235663
-3.26709e-06
0.0220682
-0.197084
-0.00165929
-0.00851959
-0.163375
-3.10695e-07
0.00221944
7.37755e-06
0.000857534
-2.15194e-05
0.0457286
-1.14258
0.00304678
0.135504
7.40302e-07
-9.33356e-05
2.10835
-1.29263e-05
0.444774
0.598979
-0.00939226
0.00155857
-3.57451e-06
7.53988e-06
0.267133
-5.07225e-06
7.38956e-07
-0.00159362
8.56493e-06
7.5086e-07
4.37577e-06
-3.81923e-05
1.25672e-06
0.0234156
0.000126828
0.0271987
9.78853e-06
-0.700595
0.000103318
0.000228134
-5.08418e-05
-0.0719894
0.0815579
-1.03094e-06
-0.00447817
-0.124927
1.6091e-06
-0.0495704
8.74523e-07
-6.26943e-05
-1.12648e-05
0.00464914
7.1556e-05
0.000145631
-0.000497461
0.164865
-2.83e-07
-0.0314468
-0.393632
-2.41715e-07
-7.77398e-06
-3.02875e-06
-0.0664575
0.000890958
1.2853e-06
0.137397
0.00510125
0.00516762
-4.30107e-07
1.49035
1.9195e-05
4.69145e-05
7.51962e-07
-0.155701
9.69447e-06
2.10558e-05
-6.50589e-06
-6.86319e-06
-1.13712e-06
1.75278e-05
-0.303361
0.00486121
4.50963e-06
1.0882e-05
0.872701
0.0242763
0.00089069
-9.62081e-06
-0.00619562
-5.18155e-06
1.8482e-06
-2.33337e-06
-6.608e-06
-0.0120306
7.20022e-06
-8.07376e-06
-0.00421762
-2.1549e-05
7.86972e-05
-9.68454e-07
-9.31391e-07
0.000165247
-6.79558e-06
-0.00935261
-0.0270711
8.04746e-06
3.51326e-06
2.70891e-05
0.171649
-0.0019861
-7.4532e-06
4.25027e-06
0.0166928
0.012465
-0.0585662
-0.000712744
-0.00221541
0.00930163
0.299017
-5.97899e-07
0.220242
8.99386e-07
0.0186208
-5.47632e-06
-2.93436e-06
-0.00718355
-4.36985e-06
-0.61042
-0.0366349
8.44384e-06
1.22043e-06
-1.19107e-05
-2.04949e-06
0.259581
-2.92538e-06
2.06998e-06
0.397974
0.00210587
-9.12689e-07
0.289489
0.000602142
-0.000255998
-0.0012464
3.27892e-06
-0.0183465
-9.67433e-07
-0.000207847
0.0242927
-0.626475
1.45295e-05
0.298666
-0.36567
-0.0251764
5.10751e-06
2.9447e-06
0.00177885
0.000118908
0.143835
0.0985822
-0.527963
-4.50507e-06
0.00242689
-1.76813e-06
-0.0804493
-0.0165118
-7.64223e-07
0.00419633
0.000104366
0.00151921
-4.12987e-08
-0.00376817
0.000454786
2.79791e-05
0.164911
4.56545e-08
-8.14716e-07
-0.882763
-8.39421e-05
-1.3996e-05
3.83065e-05
-1.43329e-05
0.12205
3.09676e-06
1.79304e-06
1.90549e-07
-1.06141e-05
-1.33808e-05
-6.51374e-05
0.00384732
-1.0606
-0.000136134
5.98511e-05
-0.00177781
-0.0611326
-3.06293e-07
0.322668
-0.0419786
0.104556
2.39079e-07
0.00613853
-5.37906e-06
-0.00350189
-0.000149164
0.00164608
-0.00095718
0.000261685
1.92935
0.000135035
9.34128e-06
-0.0910577
-0.105666
-6.95009e-06
1.72255e-06
-0.364537
3.47613e-06
-0.398978
-2.23879e-06
-2.68858e-07
6.91156e-07
-1.56955e-06
0.00015026
0.00016802
-0.000121151
1.40728e-07
3.12983e-07
-9.50388e-06
0.780503
-1.70865e-06
-0.00289803
-0.124298
-0.0795391
-0.000413658
0.0423009
5.35721e-05
-0.0335392
-0.0502794
-9.11224e-06
-0.00283
0.00265449
-6.62421e-06
1.27202
-0.0863252
-5.6306e-07
-0.000562243
7.47362e-06
-0.00240999
0.020201
-0.0784073
0.0050977
-9.82132e-07
-0.0713058
1.49248e-06
-2.00893e-05
0.00146216
-0.757769
3.8135e-06
-2.80307e-05
2.4527e-05
-0.0154113
-0.0341477
0.00132702
-6.11214e-06
-3.9156
-4.31445e-06
-2.98274e-06
-8.00621e-06
6.30131e-06
2.87936e-06
0.0256789
1.71772e-06
0.242254
0.0636988
-0.000436876
0.000538218
0.0379623
-0.00494735
-7.75614e-06
4.23311e-07
-0.698629
0.00247452
1.63172e-05
0.000471331
8.43108e-07
0.00591743
-3.3504e-06
2.11997e-05
-2.93926e-06
0.0121138
2.16057e-06
-0.0835278
-0.00165871
5.14284e-07
-1.85848e-06
-9.81519e-05
1.87845e-05
-0.0189669
-0.0318468
-0.801282
-0.203038
-1.13063e-05
0.0163091
-0.41759
5.09337e-07
0.00192663
0.0196352
7.31878e-07
0.000127748
0.00539505
-0.0159938
0.0360612
0.00101123
2.14289e-06
-0.103404
4.19694e-07
-6.77729e-06
-0.0743489
-0.375752
-4.84436e-05
-6.28e-06
-0.14183
-4.36678e-07
-0.00430782
1.24989e-05
-0.00165606
-3.97747e-06
1.4412e-06
5.86955e-06
-0.307883
1.10517e-05
-0.0595936
-0.000725039
-0.675044
3.00367e-06
-7.55029e-07
-0.406651
-0.0212192
-0.00348244
-0.0133435
-0.0115391
1.69318e-05
0.091026
-0.00136243
7.07015e-05
0.0139513
-3.36376e-07
-0.0836547
0.00364388
-0.000132533
1.70983e-06
0.0122564
-0.517133
-2.48278e-05
0.0110818
1.96312e-05
-0.327131
1.39567e-05
-2.89461e-07
0.135316
-4.75427e-05
0.000797887
0.386982
0.00971381
1.06704e-06
0.00138399
-0.013663
-0.000126764
-0.609931
0.292501
-8.69193e-06
7.04723e-07
0.0136564
1.03886e-06
0.215814
0.00016182
-0.0371285
0.000387503
3.60523e-06
-1.32398e-05
4.88469e-07
0.0614609
0.161843
-0.360572
-1.63226e-06
0.000484232
0.0128864
-0.418573
-5.90451e-05
0.0194538
0.000358166
0.0830615
-0.139519
0.0250874
1.48293e-07
0.0295735
-0.100868
-6.90628e-07
-9.4637e-05
-0.00242912
6.17353e-07
-1.47577e-06
-0.077112
-1.60005e-06
-0.0130185
0.0153861
4.09502e-07
-0.0670182
-6.18118e-05
0.0667877
-0.298589
-1.93849e-06
-6.58577e-06
-1.86029e-06
0.0278498
-1.48441e-05
-5.52711e-07
0.0039352
0.889587
-0.0271219
0.00355418
-7.21441e-05
0.221474
-7.56335e-07
-0.110999
-1.33691e-06
-0.00264459
-0.0715077
0.0376224
1.81081
-0.00029131
0.125385
-0.000766764
6.25618e-05
-0.00145668
7.49523e-07
1.68363
-1.60109e-06
0.0367969
6.63144e-07
0.00337005
-8.17454e-07
1.49527e-06
0.149734
0.00271169
-0.0349751
-0.120435
-2.17734e-05
-5.01878e-06
-0.701788
2.4989e-07
4.02511e-05
0.0151786
-0.000269264
-1.55835e-05
-1.43708e-06
0.18692
-1.38753e-05
0.000613366
0.0109338
0.00400144
-1.30149e-06
0.28287
2.80981e-05
-0.104898
-0.656484
-9.17753e-06
2.86091e-06
3.11966e-06
0.342104
1.8976
0.0158949
2.73801e-05
2.44124e-06
4.93963e-06
-0.00355623
0.595667
-3.61968e-06
0.84615
3.69531e-06
-6.28126e-07
0.000162249
-2.31154
0.000361155
-0.0513817
0.00441392
-0.00151771
-0.254689
-3.03885e-06
6.64482e-07
-7.24893e-07
0.000291613
-6.53395e-06
-1.56756e-07
0.136562
-1.44118e-06
9.35051e-07
-1.8224e-06
-6.03403e-06
-3.88929e-07
-0.157841
3.15417e-07
0.254163
3.95649e-06
-0.00375978
-9.73536e-06
1.56309e-05
5.08403e-05
-0.000355505
-3.26846e-07
-6.1222e-07
7.88327e-06
-5.01096e-05
-0.188654
-0.000809846
-0.0013575
-0.0770441
0.000189901
-3.76597e-06
0.498558
0.019585
-2.16474e-07
3.9701e-06
-0.0336013
0.250073
-1.26727e-06
0.310303
0.0222455
-0.0434231
-0.00393685
-0.0581621
0.0184492
1.7088e-06
-1.10769e-06
3.41159e-07
-0.00651276
-1.87655e-05
-8.36915e-07
-1.04418e-06
6.07191e-07
0.138902
3.21923e-06
0.000375966
0.000760965
0.0866446
4.53206e-06
-0.000166586
0.00441893
-5.14843e-07
-2.52673e-06
-0.00255417
-0.00884673
-0.0010595
-0.042819
0.000544854
-8.78603e-07
-1.14782e-06
-2.61729e-06
-3.7169e-05
0.0418828
0.0264876
-1.07213e-05
0.188673
-0.0550466
-9.92773e-07
-0.000532027
0.00688096
0.0415321
0.000580991
-0.00201084
0.0085962
-0.000207636
-4.91691e-07
0.000685542
0.00119559
-0.00179464
0.000400621
-6.29475e-05
-0.0585801
-0.0599646
0.0237585
0.0107627
0.353061
-2.73667e-06
-4.80136e-05
-0.761422
0.301636
0.000153054
-7.66757e-05
-0.0845288
-0.0599064
0.153122
1.68653e-07
-3.67964e-06
-2.43725e-06
-4.41572e-06
6.66992e-07
0.838431
0.155241
-0.000604179
1.38924e-06
5.41855e-06
0.168264
0.0192147
-8.78108e-05
-2.70882e-06
0.129012
-0.000127031
1.98979e-06
-1.02455
-0.136465
-0.105608
0.0132337
0.495485
-0.00327649
-1.89808e-05
-2.9497e-05
0.00128881
0.522757
-7.72373e-06
-0.0217826
-5.46142e-06
-9.68028e-07
-0.500073
-8.10734e-07
-0.0618273
-0.000523821
-0.128495
-0.139062
-6.58541e-07
0.00481701
-1.61166e-06
0.0255425
1.71062e-06
0.414856
-0.00022287
-0.0237327
-5.67505e-06
-9.96433e-05
-0.98539
-8.5704e-06
1.69371e-05
0.450582
8.86637e-05
-7.66184e-07
-0.000320931
0.0113148
-9.1537e-07
-3.1505e-07
1.80016e-06
1.37429e-06
-1.71897e-05
-0.00694048
-3.71415e-07
0.301851
-0.0607602
0.00525592
-5.95868e-06
-0.367445
4.6822e-05
1.08614e-06
-9.01156e-07
2.63619e-06
2.93897e-07
0.0155995
0.0113109
0.0523008
0.00021769
0.00817849
1.17417e-06
-0.121861
-0.00316503
0.319908
0.00730964
-2.74787e-06
4.87091e-05
-0.133997
-8.57342e-06
0.000633399
-0.000207237
-0.00013243
-0.172408
0.0303375
-2.34894
7.28494e-05
0.00136996
-0.121908
0.0193346
-0.0332812
3.80521e-07
0.000139186
-0.000338232
-0.0844736
2.73395e-06
6.60479e-06
0.00518526
0.231589
8.16449e-06
6.83156e-05
0.0135445
8.08772e-06
-8.85781e-07
-0.0088421
-9.79316e-07
7.92113e-07
0.00630993
-1.56967
-1.57583e-06
9.36091e-07
-1.44558e-06
-8.64982e-05
-0.0703479
-2.584e-06
4.45087e-06
-0.232741
0.015439
-0.332669
3.25121e-05
-0.00132118
1.15415e-05
0.000114006
3.10376e-05
-0.0113095
-0.744036
-6.66328e-06
-1.00999e-06
-0.207003
-0.0403879
0.000816377
-0.00809313
1.50333e-05
-1.6615e-05
-1.91173e-06
-0.0307039
0.0227001
0.00186695
5.5835e-05
-0.0312542
-0.00172895
0.00531061
-3.36873e-06
0.413496
0.020317
-1.65086e-06
1.02268e-06
0.005635
0.0119927
0.032866
-0.00486012
5.6276e-05
-0.0179582
2.73333e-06
2.26985e-05
-0.409292
-0.733241
-0.0122403
-3.29011e-05
-3.91964e-06
-0.000624191
1.59417
2.20819e-07
6.09078e-06
-9.56008e-05
-2.54792e-06
2.2052e-05
0.00395148
1.21303e-05
0.00022017
-0.119593
7.5541e-07
-0.000346553
0.03902
8.45538e-06
0.00439479
0.0607364
-4.69312e-05
0.0173858
0.013751
0.000122665
1.07328e-06
-5.79378e-05
0.000187027
0.000361488
-1.02391e-06
-0.416836
-0.0173556
0.00505196
-5.9094e-05
-0.412836
2.88875e-06
-0.000805327
-0.0335822
-8.10833e-06
0.00625434
0.000558939
-0.185102
-1.05458
-6.55176e-06
-0.0027983
4.6056e-05
-0.000101005
-0.0912185
5.17349e-06
4.92037e-08
-0.00170035
0.00603456
-0.000236961
-1.91925e-06
0.00979333
9.34946e-07
-1.42266e-06
-0.00448577
-0.00406054
-0.0394078
-3.39635e-05
-0.0451327
0.525251
-0.00277968
-0.130761
0.108845
-1.11854e-06
-0.0799685
7.73554e-07
1.62152e-06
6.45018e-05
0.0036363
-1.09298e-05
-3.35415e-06
-0.000656101
1.17031
-0.000120659
-0.000400091
-0.274261
6.79171e-05
-1.17533e-06
-0.134641
7.4093e-05
-0.00122238
9.60397e-06
0.000352886
-4.54579e-05
-0.00171416
-0.000688166
1.78421e-06
1.09451e-05
0.0617425
-0.0490285
-5.15691e-05
0.392714
-3.08822e-05
0.195041
5.86299e-07
-5.5755e-07
-1.54789
-0.0147408
0.0012025
-9.1856e-07
3.62152e-06
-1.71219e-05
-3.66205e-06
-0.0401512
4.33605e-06
0.231391
0.000738852
0.00178747
-5.52989e-06
-0.691397
0.0284101
-0.000261293
0.384415
6.98413e-07
8.87715e-05
-0.000405487
-0.000865311
-0.210141
-0.0756239
7.16144e-05
0.00115002
-0.000293416
5.45203e-06
-3.38346e-05
0.00168314
0.295205
0.000791461
-0.00670278
6.42832e-06
0.0187044
0.127758
-0.0299259
-0.000110655
-0.00134305
-0.0648985
1.25743e-05
1.09264e-06
0.000170322
-0.090293
-0.336991
0.179274
2.00619
0.000279959
1.82915
3.41873e-06
-6.96931e-05
4.46069e-05
0.500432
-0.00282375
-3.56828e-06
1.04749e-05
-1.0941e-05
-0.000161263
0.0363974
8.78987e-06
0.822145
0.00197995
-2.02586e-05
7.70389e-05
-0.0318923
-0.000761307
-3.54331e-06
1.12837e-06
0.00210874
-0.00152779
-0.555043
-5.16899e-05
6.66859e-05
-6.52727e-06
0.315367
-2.10907e-08
-4.65423e-06
-4.01785e-06
-0.185854
0.0415506
9.08875e-08
-1.12999
-8.15779e-07
6.7916e-06
-0.00614632
0.101935
4.58735e-05
-0.0274576
-5.4505e-05
-1.47778
0.00936406
2.14176e-06
-0.0238393
0.150793
-1.19558e-06
0.00307757
9.60921e-07
-3.65454e-07
4.57253e-05
0.000505805
7.7112e-05
0.00731038
-0.0251102
1.44977e-06
1.82524e-06
0.00633195
0.0211584
-4.82538e-06
-6.44939e-06
5.03673e-06
0.00182785
-5.95028e-05
0.12997
-5.2456e-05
-1.16855e-05
1.61313e-05
0.000505932
1.61049
-0.0252664
0.0912903
-0.0263848
0.00748071
-0.00842156
-0.0298049
0.00819814
-0.00406515
5.72146e-05
0.00422794
-4.01653e-06
-0.000115378
-0.00477165
-0.000113861
0.0160371
-0.119537
-0.101949
-0.109404
-0.231343
0.0318214
-2.81503e-06
0.012548
-2.54571e-05
-4.65532e-06
-0.0373033
-1.31162e-05
0.0885817
3.59929e-05
-0.000201944
-8.67987e-05
-0.0971546
-0.00816544
0.00448919
1.26825e-06
0.0818658
0.00050912
-6.50547e-07
0.000115035
-0.146369
0.00170847
0.578479
1.01725e-05
-0.00354204
-0.0530911
0.0429499
-0.433913
-0.0233127
0.042387
0.00455665
-0.155756
0.00646394
1.43018e-07
-0.000115907
4.12881e-07
-4.82718e-06
0.000427892
-1.10537e-05
0.00101633
5.13326e-05
-0.134627
0.0127742
-4.72193e-08
-0.00028102
0.00026678
0.00236873
-3.87318e-06
7.52937e-07
0.00763801
-0.144567
0.261445
0.00872832
-0.00141758
0.00105332
0.0108262
-1.96781e-05
-6.46461e-07
-7.47206e-05
-0.00021195
-0.000313114
8.87203e-07
0.0142857
0.00408717
-0.00021608
0.00105538
0.00110681
0.00627301
-1.56082
-0.00545014
-1.05296e-06
-5.33398e-05
0.0477948
0.0061319
-0.00128473
-0.18258
-1.13314e-06
-0.0715209
0.000212003
-0.00673078
-0.248288
-0.136303
4.88831e-06
6.26086e-05
-3.85306e-06
-4.77295e-06
-6.16344e-07
0.00966567
-0.00371977
0.00671004
-0.481037
0.000593055
5.89745e-08
-5.37782e-06
0.000347406
1.92612
0.00617916
-0.100013
0.0221627
0.631181
-2.50615e-07
1.74072e-06
-0.00730317
0.00366168
-0.0292415
0.000179571
-0.00229841
0.21287
8.70582e-05
0.0102304
0.0462921
-0.561369
-0.111294
-7.47598e-05
0.0052555
-3.14283e-06
2.27567e-06
2.60965e-05
0.0280036
-1.4383
-1.85921e-06
-0.060642
-9.97079e-06
6.21801e-05
-0.00426551
-2.0701e-06
-2.87315e-06
1.03542e-06
-1.14234e-05
0.0134153
3.16866e-06
3.22707e-06
0.000278899
-2.11428e-06
0.000171515
-0.0399833
0.433453
-0.00451438
-0.249001
0.00185783
-2.16646e-05
-0.83069
-0.242168
-7.74144e-05
0.170595
0.00441044
0.080018
0.0134459
-0.060792
5.54491e-06
0.168978
-0.567219
0.0425983
0.0155743
-0.00114243
1.44742e-05
7.04437e-06
0.000712255
-1.03032e-06
-4.0002e-06
-0.000556779
0.30133
0.243074
-1.85713e-05
7.40525e-07
1.1039e-06
-7.04566e-05
-0.00211547
-0.00999105
-0.142806
5.11322e-05
0.000795609
0.524618
-0.189586
5.42702e-07
-0.34669
-1.27644
-0.00498393
-0.0248829
-0.0191527
9.94048e-08
-0.000750171
-2.09287e-05
-2.47711e-06
-0.000109368
-2.1137e-06
-6.84453e-07
0.0413134
-0.0208234
-0.44701
-0.000257063
0.00468216
0.0294123
1.01573e-07
-0.154458
3.19874e-06
6.42095e-05
-0.11093
8.81024e-06
-9.84354e-05
0.0983868
-4.87545e-05
-2.11742e-06
0.133548
-1.77029e-05
-0.00188291
-0.0512895
4.2684e-06
0.0622787
0.145075
0.110041
-1.11977e-06
0.00275825
2.73118e-07
-1.01026e-06
-7.43e-06
0.110699
-4.22374e-06
-0.00245228
-3.67575e-05
0.000696553
0.00496106
-0.0181233
0.00327645
-0.000432615
2.35863e-05
3.01482e-07
0.000170459
-2.17693e-06
0.19432
-1.99887e-06
-0.553432
0.739013
0.738469
8.62278e-06
-0.0859526
-0.0208213
0.120432
0.0183461
4.42e-05
-1.01149e-05
0.0813927
0.0385301
-2.31647
1.24598e-06
-1.52304e-05
0.0235481
-9.93291e-07
-2.29953e-06
-3.63143e-05
2.27214e-06
-2.14549e-06
-6.91794e-06
-0.00014949
1.63578e-07
0.0286079
-0.0153821
-0.256284
0.000313528
0.00451538
-1.23222
0.00538896
0.109435
3.93438e-06
0.00855497
-2.01128e-06
2.84045e-06
0.000315621
0.206653
0.000956499
-0.113759
-0.0546982
-0.00191119
0.0287408
-0.0013707
0.131805
0.0153356
0.00106546
2.84839e-06
-2.2758
-0.11726
8.05867e-06
-0.067393
-2.62896e-05
-0.991265
3.06955e-06
7.47929e-05
-0.088466
0.0870557
-0.000113428
-0.023007
0.0716741
-0.000555597
0.208326
0.00038909
0.0638998
-1.04065e-05
0.00020592
-0.00553992
-0.00865102
1.28546
-0.114555
0.000174694
-0.000114597
0.209972
3.06259e-06
-2.75809e-06
0.137992
1.31564e-06
0.00342134
-0.00952226
-7.06588e-05
0.000489066
0.148665
-0.0594075
2.01661e-06
0.0158378
0.000372636
1.6754
-0.000966174
-0.0020482
-2.45748e-06
1.12472e-06
4.37074e-06
-1.74203e-05
-1.32458e-06
0.000389848
0.00108972
-1.25985e-05
-9.85233e-07
5.74548e-05
-5.4314e-07
-4.24205e-05
0.20116
-8.66709e-05
-0.000727511
0.149067
0.148043
1.18554e-06
5.88437e-07
-0.000413455
-5.09066e-05
-9.31625e-07
1.73789e-06
-0.000225378
0.912332
0.127221
-0.000274533
8.40289e-06
-0.0546842
-9.68362e-07
-0.0121456
-0.00360383
7.39181e-06
5.3492e-06
0.00479187
3.38939e-09
0.148085
-7.26678e-05
-0.00333879
-3.61635e-06
0.979175
0.000518716
-0.770539
0.00862615
-3.06017e-06
-1.83811e-06
0.00168735
0.00111531
-1.41305e-06
-2.03983e-06
0.706904
-6.42904e-05
-3.25109e-06
0.531434
4.59162e-05
-0.0574576
-1.26161e-06
1.51882e-06
-0.00273545
-6.35451e-06
-0.00137302
-0.0199081
0.0195123
0.822553
0.879915
0.233475
0.00743429
5.46359e-06
0.000646588
0.0002468
-1.85249e-05
0.126759
-0.0022901
0.0239519
9.59256e-05
0.015494
-0.149616
0.000621075
0.0142933
0.00554376
-5.75772e-06
-0.33754
0.00304855
-0.471469
-7.83811e-06
-0.0448902
3.37526e-05
1.14806e-07
-1.11347e-05
-0.0227181
-3.84743e-06
-0.0172373
0.00454166
0.000194884
-0.350236
-2.26051e-05
1.35978e-05
-4.68466e-05
-8.19631e-07
0.140223
5.89305e-05
0.000151841
0.190115
-6.36092e-06
2.62312e-06
0.0833024
1.34007e-06
-0.0144988
0.163677
0.0912502
0.0041317
-0.000179617
-0.0021988
8.10744e-07
2.40882e-07
-0.154131
-5.45725e-06
-0.0128926
4.46805e-05
-1.44542e-06
-3.35104e-06
-0.0103891
-3.20906e-05
-0.00749815
1.56466e-06
1.18748e-05
0.0375161
0.163305
-0.00427362
0.0424578
-2.42223e-07
-9.63698e-07
-0.00328995
0.175574
-0.0104675
-0.0243136
3.83755e-06
0.022006
-0.124665
0.00551078
0.000298067
-0.00119705
-0.0501778
-0.00966156
0.00651895
-0.0794674
-0.122485
0.0183937
-4.86156e-05
-1.42511e-05
-4.07037e-07
-2.33761e-06
0.647503
5.55253e-06
0.00252977
2.89682e-06
0.00406
3.14267e-06
0.00316117
-4.82589e-06
1.24976e-06
0.0821504
-7.76171e-07
0.00411089
0.00297463
0.189349
0.000164916
-0.798947
-3.97023e-05
0.115897
5.80532e-07
0.000235791
-0.239739
0.00471937
0.00695126
5.65773e-06
-5.75405e-07
0.00305825
-0.000521544
1.45983e-05
-0.000325551
-0.614696
0.00503525
-5.02644e-06