/*--------------------------------*- C++ -*----------------------------------*\
| =========                 |                                                 |
| \\      /  F ield         | OpenFOAM: The Open Source CFD Toolbox           |
|  \\    /   O peration     | Version:  v2012                                 |
|   \\  /    A nd           | Website:  www.openfoam.com                      |
|    \\/     M anipulation  |                                                 |
\*---------------------------------------------------------------------------*/
FoamFile
{
    version     2.0;
    format      ascii;
    class       surfaceScalarField;
    location    "100";
    object      ddtCorrDdt0(phi);
}
// * * * * * * * * * * * * * * * * * * * * * * * * * * * * * * * * * * * * * //

dimensions      [0 3 -2 0 0 0 0];
oriented        oriented;


internalField   nonuniform List<scalar> 
27642
(
-0.0102844
0.0226944
-0.01241
-0.00772904
0.00387783
0.00385122
-0.00563835
0.00693426
-0.00129592
-0.0151413
-0.000969518
0.0161108
-0.00773234
0.00209398
-5.27852e-05
8.43294e-06
4.43517e-05
-0.0256972
0.0254904
0.0002068
1.64286e-05
-1.64309e-05
-1.29647e-05
3.49577e-06
9.45516e-06
-0.000820885
0.00472065
-0.00389975
7.0433e-06
-1.13122e-05
4.25534e-06
0.00101277
0.00402647
-0.00503923
4.36407e-05
-7.2636e-05
2.89927e-05
0.0200702
-0.0169195
-0.00315068
0.0187588
-0.010301
-0.00845774
0.00286254
-0.00184976
-0.00307115
5.13553e-05
0.0030198
0.0120196
0.00351609
-0.0155357
0.049905
-0.061286
0.011381
0.00211411
-0.0321572
0.0300431
0.0118873
0.000132319
1.5742e-05
2.42599e-05
-4.0029e-05
0.00228552
-0.00662358
0.0043381
-2.29459e-05
-2.34274e-05
4.63662e-05
-3.4579e-05
-1.98512e-05
5.44226e-05
0.0579313
-0.00802628
-9.22328e-05
8.29798e-05
9.23136e-06
0.00828257
-0.00947993
0.00119732
4.62042e-05
-8.85595e-05
4.23681e-05
-4.14054e-06
-3.33231e-05
3.74511e-05
0.00847439
-9.46029e-06
-3.51397e-06
-0.00158251
-0.00614658
1.14225e-05
-4.37993e-06
0.0121092
-0.0406428
0.0285336
-9.10532e-05
-6.71165e-05
0.00015815
0.00191957
-0.00193704
1.74806e-05
1.51038e-05
-4.9682e-05
-0.00122711
-0.0026337
0.00386082
0.0107675
0.0102375
-0.021005
0.010217
-0.00193446
-0.000104736
3.10269e-05
7.36965e-05
4.81949e-05
1.59164e-05
-6.41128e-05
0.00192553
-0.00315264
5.2077e-05
-0.000155379
0.000103295
0.00707818
0.012992
5.64161e-05
-3.56266e-07
-5.606e-05
-0.0128563
0.0236238
-0.00321607
0.00285201
0.000364069
-7.53383e-05
-1.55908e-05
9.09223e-05
0.0110479
-0.0123562
0.00130836
-0.000121879
0.000140627
-1.87319e-05
-6.3106e-05
-0.000624046
0.00068715
-0.0003385
0.00831767
-0.00797917
0.000185719
-0.00014146
-4.42558e-05
9.41818e-05
-0.000185249
0.0622184
0.00376719
-0.0659856
0.0115371
-0.0125888
0.00105178
-0.011745
-0.00505944
0.0168044
-0.00454341
-0.0366814
0.0412248
-4.40954e-06
0.000119843
-0.000115442
-3.49101e-05
2.77634e-05
7.14592e-06
0.000434296
-0.000497399
0.00645262
-0.00937296
0.00292032
-9.95225e-05
-0.00311654
-0.000690669
0.000907021
-0.000216354
-0.000733953
0.00197751
-0.00124353
-0.000784694
9.40197e-05
3.77414e-05
-2.12587e-05
-1.64834e-05
-0.0108411
-0.00642637
0.0172675
-0.000769829
0.0010643
-0.000294467
5.16072e-05
-4.07875e-06
-4.75308e-05
-0.000112348
0.000107031
-3.66328e-05
8.28466e-05
-1.63836e-05
3.95373e-05
-2.31527e-05
5.23619e-05
-2.31722e-05
-2.91816e-05
-6.98453e-05
6.54537e-05
-0.000716843
0.000415758
0.000301086
-0.000103992
-0.000612853
-0.00121694
0.000935493
0.00028147
3.14252e-05
-0.000106758
-0.000137472
4.56556e-05
-2.322e-05
-2.24368e-05
2.5173e-05
1.25661e-05
4.96385e-05
-4.2413e-06
-4.53849e-05
-9.4728e-05
-1.75936e-05
4.74833e-05
8.93486e-06
0.00238925
0.009498
0.0397811
-0.0220929
-0.0176882
0.0302222
-0.00547826
-0.0247439
0.00215305
-0.000233452
0.000725893
-0.00110738
0.000381495
-1.48694e-05
-5.318e-05
6.80557e-05
-0.000256224
-4.88345e-05
0.000305085
-4.32213e-05
7.46352e-05
0.00024817
-6.24183e-05
-0.000501554
0.00268668
-0.00218512
0.00120136
-0.0120424
0.00398746
-0.00480835
-0.00189524
0.000750914
0.00114434
0.00189655
0.0603218
0.0933987
-0.0896315
0.00635701
-0.0228969
0.0165399
0.0227496
-0.0203603
-0.00407033
0.00442482
-0.000354515
0.00076957
0.00613758
-0.00690716
-0.00522862
-0.00320881
0.00843749
-0.00463876
0.00551093
-0.000872161
4.5453e-06
2.03486e-05
-2.48928e-05
0.0113934
-0.0425822
0.0311887
-0.000523968
0.00338651
5.55492e-05
-9.87557e-05
-0.00454591
0.00683143
0.019511
-0.013154
-7.08742e-06
-2.37212e-06
-0.0396888
0.0493474
-0.00965868
0.000911027
-0.00077262
-0.000138356
1.46793e-05
-4.45416e-06
-1.02346e-05
-0.00261904
0.00209507
-5.92167e-05
4.41993e-05
1.50115e-05
-0.0410165
0.00132771
0.00261555
-4.45565e-05
-0.00257098
0.0464959
-0.0117692
-0.0347268
-1.39694e-05
6.21617e-05
3.9021e-05
1.25887e-05
0.00973401
-0.0194177
0.00968366
-0.0571918
-0.00365625
0.0608481
-4.62315e-05
-1.29886e-05
-7.21649e-05
-3.25644e-05
-0.00630923
0.00786261
-0.00155332
0.00338687
-0.000771319
-0.00780658
0.0130521
-0.00524555
-0.00756047
0.0216057
-0.0140453
0.000467531
0.000392265
-0.000859756
0.00300286
-0.00107727
-0.00280199
0.00800467
-0.00520268
-6.46322e-05
-2.75955e-05
-0.000105844
6.24932e-05
4.33527e-05
-2.5493e-05
-8.03479e-05
0.0146538
-0.00122906
-0.0134248
-0.000111058
-0.000137325
0.000248373
1.21848e-05
-1.81999e-05
6.00973e-06
0.000913998
0.000410097
-0.0013241
-0.00953008
0.00320184
0.00632822
-0.0108398
0.00940239
0.00143737
-0.000301511
0.000165272
0.00013625
-0.00364659
-0.000423766
2.94503e-05
-3.0848e-05
1.39872e-06
-0.041071
0.0531801
2.92241e-05
-1.70438e-05
-1.26732e-05
5.5765e-06
-0.0143708
-0.00777253
0.0221433
0.00211674
-0.00116846
-0.000948283
0.00157165
-0.00874153
0.00716989
0.00057243
-6.62268e-05
-0.00050621
-1.58072e-06
-0.000254679
0.00114252
0.000974221
-0.00933758
0.0192818
-0.00994419
1.26568e-05
5.16374e-05
-6.42794e-05
-2.34326e-05
-1.22528e-05
3.56879e-05
-0.00760316
0.00480116
-0.0128985
0.00259743
0.00491563
-0.0101443
5.66205e-05
-1.29789e-05
0.0106159
-0.00965585
-0.000960144
0.0331527
-0.0322353
-0.000917372
-0.0119878
0.0113183
0.000669554
-2.28511e-05
0.000133979
-0.000111137
3.05433e-05
1.51073e-05
-3.56801e-05
-5.28726e-05
-5.2785e-05
0.0118931
-0.0194535
-0.00356023
0.0192123
-0.0156521
0.00789159
0.0161148
-0.0240064
-0.0206996
0.0171394
-0.0172352
-0.00487214
0.0221074
0.00111677
0.00654611
-0.00766287
0.0082309
-0.0254661
-6.82426e-05
2.20046e-05
-2.43497e-05
-4.38991e-05
-0.00902328
0.00779884
2.9618e-06
-3.82337e-06
8.49889e-07
7.69103e-05
-0.000823536
0.000746613
-0.00589938
0.00440593
0.00149346
-2.31684e-05
-1.13809e-05
3.45506e-05
0.000812922
-8.70339e-05
0.00188854
0.0127653
3.34425e-05
-4.5527e-05
1.2084e-05
-0.000676376
0.00564286
-0.0049665
0.0330376
0.000115136
-0.00257535
-0.00829453
0.0108699
0.000202269
0.000708776
4.01783e-05
4.01821e-06
-0.0371314
0.039028
-0.00854875
0.00966551
-0.0116628
-0.000325025
4.71438e-05
1.25758e-06
-4.84163e-05
0.00955153
-0.00920321
-0.000348331
-1.32629e-06
2.05811e-05
-1.92594e-05
0.0170073
0.00735563
-0.0243629
-0.00181001
0.00717492
-0.00536487
-0.000278974
-0.000312709
0.000591701
-0.00227473
0.00161248
0.000662248
0.00919049
-0.014447
0.00525652
0.00161764
0.0094303
-1.82489e-05
0.0001228
-0.000104571
6.28872e-05
0.00231943
-0.000166384
-0.000806616
-0.00146811
0.00647124
-0.0636631
0.000145024
-0.000163288
6.40171e-06
5.02249e-06
0.00049045
-0.000352844
-0.000137589
0.000702823
-0.00321543
0.00251261
0.0172329
0.0225482
-0.000335027
0.000802565
0.00312118
-0.017492
-0.0147939
-0.00150508
0.016299
0.00526794
-0.0078433
-2.34111e-05
2.54646e-05
-2.06009e-06
-0.0157983
0.0240292
0.0042977
0.00361289
-0.00791057
0.037679
-0.00745681
-4.77395e-05
4.89979e-05
0.000299992
0.000190468
0.00579492
0.00375662
-0.00201557
0.00151403
-0.0454262
0.0264646
0.0189616
-0.00116247
-0.00073277
-3.84458e-05
3.7123e-05
0.00353752
-0.00618287
0.00264539
-0.0093398
-0.00812743
0.0174673
-2.32148e-05
4.28842e-05
-1.96783e-05
-0.00192938
0.00665003
2.50816e-05
-2.87594e-05
-0.000102967
0.000131719
-0.000206521
-9.49932e-05
-0.00129393
-0.0138473
3.11816e-06
-4.55834e-06
1.45696e-06
0.0209182
-0.0117278
-3.45931e-05
-2.12958e-05
5.58875e-05
8.27736e-06
-3.14362e-05
0.00544823
-0.00612461
0.000878656
-0.000801746
1.94423e-05
-4.28806e-05
7.3803e-05
9.52554e-05
-0.000169058
6.68823e-05
-2.58798e-05
-4.10023e-05
0.000854329
-0.000501331
-0.000352998
6.22306e-06
3.82428e-05
-4.44713e-05
-1.12578e-05
-1.23253e-05
2.35697e-05
0.00222714
0.00930997
-0.000198836
-0.000774469
0.000973298
-0.0100746
0.0270819
0.0160435
-0.00567776
-0.0103658
4.91618e-05
-6.40332e-05
8.45923e-05
0.000255698
-0.000340285
-4.03833e-05
5.71285e-05
-1.67433e-05
-0.0202265
0.00442821
-2.72323e-06
-9.94581e-06
0.0321815
-0.0578375
0.025656
0.000280413
-0.000100504
-0.000179894
5.81194e-06
1.06188e-05
0.00584644
0.0101971
0.000369326
-0.000568155
1.27136e-05
-5.30971e-05
-0.0155375
-0.0127123
0.0282498
0.000141287
4.41992e-05
-0.000185488
4.63534e-05
-6.50121e-05
1.86567e-05
-0.000168463
0.000145786
2.26505e-05
-0.0161206
0.000583022
0.00012523
1.09107e-05
-0.000136155
8.44922e-05
-0.0446713
0.0420436
0.00262771
1.73542e-05
0.000107897
-0.00168263
0.000794568
0.00088807
-0.019702
0.00898231
0.0107197
2.10847e-05
6.05505e-06
-2.71402e-05
-0.010078
0.0328275
-0.00459932
0.0238116
0.0307204
-0.0103936
-0.0203268
-0.00076711
-0.00387161
0.00770531
-0.0108396
0.00313428
0.0003579
7.63893e-05
0.000828985
0.0110641
-0.079318
0.0857893
-0.00212161
0.00857426
-0.0195811
0.0149818
7.15744e-05
-1.16106e-07
-7.14665e-05
-0.00105073
-0.0450821
0.0461328
0.0226751
0.0925544
-0.11523
0.00019182
-8.78438e-07
-0.000190929
-0.0152527
-0.0178076
0.0330603
-4.88541e-06
-6.43247e-06
0.00159098
-0.00372426
0.00213328
-0.00832719
0.00201796
-0.000827613
5.49786e-05
0.0112346
-0.0179178
0.00668324
0.00499137
-0.00340036
-2.41125e-05
1.28591e-05
0.028819
-0.038897
2.86401e-05
-1.44105e-05
-1.4231e-05
3.78204e-05
-4.38205e-06
0.0154085
-0.0247483
0.0014459
-0.00217986
-0.000178266
0.00016241
1.58416e-05
0.0197217
-0.00848712
5.62523e-05
4.4091e-08
-5.6289e-05
5.56424e-05
-6.63765e-06
-4.90078e-05
0.00127343
-0.000701009
-0.00016995
-8.30893e-06
0.000164873
-0.000666205
-4.32895e-05
-8.99293e-06
5.22818e-05
0.0136082
0.0171122
0.000210545
6.98782e-05
0.000381417
-8.1419e-05
0.0514043
-0.052455
0.0013987
0.000920748
2.7648e-05
-4.34282e-05
1.57821e-05
0.0554145
-0.006022
-0.0493925
1.38395e-05
-0.00106164
-0.00445267
0.00551431
2.57995e-05
-4.71668e-06
6.33655e-06
-1.53926e-05
9.06156e-06
-3.86581e-05
-1.01439e-05
4.8801e-05
0.0232776
-0.0211635
0.0200882
-0.0303226
0.0102345
0.00179643
-0.00170175
-9.4655e-05
-0.013618
0.000106734
0.000274698
0.00903978
0.0374561
-2.41705e-05
2.86961e-05
-0.0357261
-0.00970019
2.14576e-05
7.9932e-06
0.0133626
-0.00363677
-0.00972584
-5.01005e-05
2.71385e-05
0.0540192
-0.0218376
-5.61268e-05
1.93062e-05
3.68158e-05
-0.00085303
-0.00221812
-0.0356015
-0.0357959
0.0713974
2.18567e-05
-0.00396682
0.00133315
-5.70137e-05
5.54846e-05
1.54219e-06
0.0335536
-0.0139063
-0.0196473
-0.000704182
-0.000125975
0.000830146
0.000579044
-0.00174752
3.49854e-05
-7.34451e-06
-0.00012148
0.000107568
1.39275e-05
0.0508711
0.00825135
0.0253022
-0.00996915
0.00543266
0.00453653
0.000588622
0.00015162
-0.000740258
0.0031477
-0.00244487
-0.000245325
0.000329909
-0.0375853
-0.007086
-0.00621674
-0.00331334
1.00853e-05
0.000236498
-0.000246588
-0.0195812
0.00783624
0.0253821
-0.00529392
-0.0173087
0.00836826
0.00894051
0.00114192
1.08168e-05
-0.00115273
0.00726715
-0.00135597
-0.00591119
0.0312879
0.00174974
-0.00123435
0.00181338
0.000158873
0.000218459
-0.000377352
-0.0347518
0.00425434
0.0304974
2.93968e-05
-6.50592e-05
-0.0237218
-0.0019754
-1.71103e-05
4.83131e-05
-3.12065e-05
0.00705906
0.00630358
4.67307e-05
-6.55459e-06
-0.000402874
0.000402783
7.04512e-08
0.00176328
-0.00152049
-0.000242773
-1.4645e-05
-3.46541e-05
4.92966e-05
-1.62175e-05
-1.36845e-05
0.00329875
-0.0111054
3.07047e-05
-5.65243e-05
2.58191e-05
-2.9306e-05
1.35749e-05
1.57286e-05
-2.55439e-05
-2.72853e-05
5.28239e-05
9.80489e-06
5.22425e-05
-6.20591e-05
-0.000810664
-1.69182e-05
0.00147532
-0.00148919
1.38659e-05
-0.0169395
0.00337889
0.0135606
-0.0156911
5.73201e-06
4.38987e-05
0.000542657
-0.000991555
0.000448911
0.00921335
-0.000552818
-7.12292e-05
-1.31978e-05
-1.61054e-05
-0.00702183
0.0179701
-0.0109482
0.000365295
-0.000554166
0.000188877
-5.54694e-05
3.83549e-05
-0.0326249
0.0440183
0.000564624
-0.000199317
0.00692865
-0.0139201
0.0218117
-1.80316e-05
0.000122312
-0.000104263
0.000152196
-0.0482021
0.0421801
0.00524691
0.00776393
-0.0130108
-6.04677e-06
9.9939e-05
-0.0002791
-0.000281192
0.000560302
2.67455e-06
8.67265e-07
-3.54566e-06
0.000442819
0.000699094
0.00269635
0.00309856
0.000965259
0.00020671
-0.000485793
-0.0645403
0.0129683
0.051572
-0.000106079
-1.54058e-05
0.00432107
0.00629488
-0.0166882
0.00748499
6.73538e-06
-5.62639e-05
4.95337e-05
-0.00667519
-0.000403863
0.0070791
-0.0067623
0.0164963
0.128625
-0.10595
2.72673e-05
-5.04883e-05
-0.027965
-0.000402669
0.00398631
-0.00358364
-0.0329069
0.00289532
-0.0147311
0.00770924
1.49728e-05
-1.09792e-05
-4.01495e-06
6.57918e-05
1.61795e-05
-8.19899e-05
8.06995e-06
0.000146253
-0.0640165
0.0284151
0.00601309
-0.00213525
0.0124112
-0.0298761
0.0174649
-2.08952e-05
3.33752e-05
-1.24876e-05
0.000104098
-3.82959e-05
-0.000301156
-0.000101731
-0.000642572
-0.000562615
0.00120517
0.000216768
-5.52107e-05
-0.000161548
3.33308e-05
2.46178e-05
-5.795e-05
1.01532e-05
1.25679e-05
-2.2721e-05
-0.00867477
0.00731881
-0.000287507
0.000297575
-4.92385e-05
-9.5931e-06
-3.10416e-05
1.02635e-05
2.07657e-05
1.46861e-05
1.04082e-05
-2.67908e-05
-2.28169e-05
-4.42623e-05
6.70777e-05
0.0709971
-0.0038387
-0.0671584
0.00958898
0.0113293
-0.000285955
0.000325269
-3.93147e-05
-0.00046091
-0.00231235
0.00277327
0.000456863
-0.00109944
-4.72947e-05
3.5041e-05
0.00903651
-0.00273979
-0.00629673
0.0184111
-0.0185562
0.000145113
-1.28282e-05
-4.33029e-05
-8.50445e-05
4.44834e-05
4.05609e-05
2.57009e-05
4.58798e-05
0.0158312
0.00257993
-6.60559e-05
6.17555e-06
5.98782e-05
-3.29886e-05
1.20962e-05
0.00019759
1.68063e-05
-0.000214392
1.09673e-05
-1.36972e-05
0.000395371
1.6089e-05
3.62719e-05
0.00414262
0.0213478
2.27723e-06
-2.56843e-05
-3.16407e-05
0.000331694
-0.00030005
-1.97566e-05
-1.12865e-05
5.98257e-05
-8.46183e-05
2.47887e-05
0.000178904
-0.000283562
0.000463347
-0.000179794
-0.0139681
-0.0207837
-9.42701e-06
-2.13354e-05
3.07603e-05
4.51377e-06
-1.54849e-06
3.39559e-05
-4.63432e-05
1.23882e-05
-1.27301e-05
2.80697e-05
-1.53434e-05
2.15153e-05
-7.85386e-05
-0.00196195
0.00110893
0.00927695
-2.74447e-05
-3.86131e-05
-9.62675e-05
0.000684896
-7.2144e-06
-9.21341e-06
2.12207e-05
0.000176418
-0.000159915
0.000151569
8.34742e-06
-0.00122359
0.00476114
-4.37222e-05
-2.4802e-06
4.62027e-05
-0.00101466
2.27673e-05
-4.96876e-06
-4.60854e-07
5.43142e-06
-0.0142638
-0.0179714
-0.00557186
-5.97033e-06
1.00021e-06
0.0144948
-0.00490588
-0.00477164
-0.00606792
-0.0151515
-0.0408815
0.056033
-0.0114499
-0.031767
0.0432169
0.00383284
0.000125724
-0.000108367
0.0197609
-0.0312108
-0.0062051
0.00143345
0.000100232
-6.27933e-06
6.11759e-05
-5.48967e-05
0.0307118
-0.0261323
-0.00457951
0.000756417
-0.00859972
0.0128656
-0.00477736
-0.00459556
0.000734991
-0.000319234
0.00482997
0.00538708
9.98091e-05
-0.000104069
4.28773e-06
-2.05802e-05
-1.43285e-05
2.3746e-06
2.33691e-05
-4.68072e-05
-0.0237882
0.0156607
1.80589e-05
-7.90461e-06
-0.0318874
-0.000269763
-0.00104795
8.74652e-06
-6.25817e-05
5.38378e-05
-0.0335656
-0.00901667
-0.0376819
0.004775
-0.0220014
0.00773754
0.00936054
0.00350495
0.0223598
-0.0272201
0.0048603
6.81185e-06
-5.73051e-06
-1.08006e-06
8.44103e-07
0.0233582
0.000256661
0.000107282
0.00168915
0.0230936
0.000264699
-0.016259
0.00692139
-0.00038233
0.000103362
9.6366e-05
-3.98437e-05
-5.65207e-05
0.0267648
0.000506521
-0.0272714
-0.0141263
0.00642761
0.00769871
0.00569654
-0.00494013
1.57294e-05
8.40899e-05
-3.27209e-06
0.000110856
-4.68988e-06
8.68167e-06
-3.96932e-06
-5.50407e-05
3.37448e-05
0.000960814
-0.0005915
-0.000540283
0.000436288
-8.42121e-05
5.2843e-05
3.13831e-05
-0.0528402
6.60546e-05
1.22696e-05
1.20457e-05
-2.43252e-05
0.00201387
0.0356074
0.00483384
-0.0024624
-0.00237144
-0.00597025
0.00910454
0.000112361
-0.000130397
-0.00105072
0.0104531
-0.0140733
0.0294072
-0.0153338
0.00218345
-0.00213208
-4.18303e-05
5.02629e-05
-0.00434822
-0.0185487
-0.0112551
0.00237994
0.00887521
-0.00168749
-0.00733584
-0.00375587
0.0305207
-1.99203e-06
3.2434e-05
-3.04341e-05
0.000233563
-4.41184e-05
5.57542e-05
-1.16179e-05
0.00611208
-0.0165407
0.0104286
4.32897e-05
4.61898e-05
-8.94932e-05
-0.00286735
0.0061563
-0.00328896
5.36478e-05
-4.51115e-05
-8.53408e-06
-7.68429e-06
2.99162e-06
5.77017e-06
-2.66452e-06
4.55734e-06
1.20765e-06
-0.00147125
-0.0111176
0.0322412
-0.00914766
0.00311067
-0.00376609
0.000655457
0.0477481
0.0191639
-0.0259823
0.00681838
-3.97471e-05
2.8369e-05
-0.0076515
-4.39953e-05
2.91671e-05
-4.44501e-05
1.5277e-05
-0.0068336
0.0208033
0.0182384
-0.0390416
-2.45408e-05
5.22667e-05
-2.77209e-05
-0.000672446
-0.00126459
1.61039e-05
-6.14552e-05
4.53581e-05
3.51422e-05
1.83568e-05
-5.351e-05
5.26971e-05
-7.72362e-05
-0.0133033
0.0238757
-0.0105724
3.10857e-05
2.11311e-05
-5.2222e-05
-4.46685e-06
3.22266e-05
-2.79469e-05
2.5964e-05
0.000331348
-0.00416391
0.00383263
-0.00321051
-0.0115834
-0.0172241
0.0436887
0.00304898
0.000503098
-0.00355207
6.59753e-05
-5.72335e-05
1.17703e-05
0.004607
-0.0331442
0.0285372
-0.0233914
0.0253134
-0.00192199
-6.05869e-05
1.64677e-05
5.3268e-06
-3.89242e-05
3.35829e-05
-2.08452e-06
8.43564e-06
-3.32895e-05
2.80129e-05
5.27069e-06
0.000332545
0.00164499
2.96244e-05
3.8447e-07
-3e-05
-0.0018351
0.00294404
0.00393058
0.000903263
3.72497e-05
-1.38386e-05
-2.34129e-05
0.0330493
0.0155148
-0.0485641
-0.000613901
2.1605e-05
0.000592303
0.00586739
-0.000876016
-0.000142203
-1.77118e-05
-4.43214e-05
4.96408e-05
0.00129804
-0.000593632
-0.000704425
3.09054e-05
6.33827e-06
-1.90174e-05
6.53701e-05
-0.0194585
0.0239316
-0.00447315
0.00937337
-0.00033687
-0.00491107
-0.0120285
7.14601e-06
0.000953671
0.00633883
-0.000201268
0.000570764
-0.000563626
0.00314387
-0.0226023
-0.105693
-0.036931
-4.25197e-05
-4.16856e-05
-3.90481e-05
2.92364e-05
9.806e-06
-2.17291e-05
-0.00059216
-0.0139608
0.0112079
0.00275288
-3.6337e-05
-4.42433e-05
8.05729e-05
-0.000817794
7.12672e-06
-8.14408e-06
-0.0168687
0.00532983
0.0115389
0.0183349
-1.59224e-05
2.81969e-05
-0.00269751
0.000595858
-0.000547633
-4.82229e-05
0.00698054
-0.00387078
-0.000425562
0.000968205
-2.63457e-05
2.86936e-05
-2.34287e-06
0.000670128
-0.000105478
4.17698e-05
-2.23256e-05
0.00409715
0.00177021
0.00569854
-0.0028614
-0.00283715
-0.000227353
0.0782471
0.00166398
0.00138498
-0.000381053
0.000269987
-0.0105171
0.0291377
-0.0186206
0.00213941
-0.0017293
0.00197426
3.45831e-05
-1.64669e-05
-1.81216e-05
-0.0026693
0.0200648
-0.0173955
0.0124866
-0.00637455
0.0198162
0.0381151
2.12188e-05
3.44217e-05
0.000658589
1.15438e-05
0.0260051
-0.00989024
5.49071e-05
-5.48728e-05
-5.09362e-05
1.65217e-05
3.44172e-05
0.00037572
-0.000472
2.05916e-05
5.17019e-05
-7.23019e-05
0.0194445
-0.0148375
0.00292582
-0.00207682
-0.00666471
-0.0145911
-0.0033267
-0.00106815
-0.0299055
0.0309737
-4.05348e-06
0.0140826
-0.0207422
0.00665961
-4.7953e-05
-1.70618e-05
2.69136e-05
-1.07516e-05
-1.61656e-05
-3.93621e-05
6.03502e-06
0.0234966
0.0258508
-8.4977e-05
8.10297e-05
3.95044e-06
2.4919e-05
-4.89979e-05
2.40785e-05
3.97458e-05
-4.60268e-05
2.36369e-05
5.00189e-06
0.021843
-0.00891923
-0.0129238
-0.000395628
0.000258298
-0.00346982
-0.000496992
6.09373e-06
6.61964e-05
1.67728e-05
-2.02943e-05
2.29896e-05
-2.69786e-06
0.0197654
-0.0246375
-0.0127055
0.0457548
2.30726e-05
-2.94118e-05
6.34876e-06
-4.48126e-05
3.2436e-05
1.23701e-05
0.00670185
0.0200797
-0.0267815
0.0172265
-0.00359703
0.0483633
7.87126e-05
0.00168458
-0.0374461
0.0582494
-2.99632e-05
-5.99871e-05
8.99595e-05
0.042792
-0.0554975
0.00995875
-0.0106134
1.13883e-05
-3.12053e-06
-0.0169047
0.0118453
-0.00403355
0.00350077
0.000532793
7.24295e-06
-3.14033e-05
0.00118741
0.00103072
-0.0367567
0.00296389
0.00810495
-0.0110689
-0.000494049
1.90538e-05
0.000474988
-0.000905109
8.73541e-05
4.46859e-05
-1.97676e-05
-0.00208487
-0.00453869
0.0190279
-0.00661663
0.0149718
0.00772264
7.50876e-05
2.12723e-05
0.0022476
-0.00597796
0.00373036
-0.0154898
0.000898695
-4.76647e-05
-1.47552e-05
6.24231e-05
-0.0236018
0.0067403
0.0168615
-0.000369156
-0.000405312
1.79811e-06
2.35477e-05
-2.53328e-05
-0.0666182
-0.0165929
1.50798e-05
1.9499e-05
-0.00882597
0.00713844
-4.95265e-05
7.01183e-05
-5.13292e-05
5.80634e-05
-6.29438e-05
-2.20332e-05
4.48393e-05
-1.37551e-05
0.110078
-0.0926623
-0.0174153
0.00858183
0.00682669
-9.29366e-06
-6.00826e-05
0.00910062
-0.00687341
-9.79186e-06
2.07627e-05
-2.00673e-05
0.000231864
-0.000101578
-0.000130342
0.00463997
-0.00239235
3.08632e-05
-2.25861e-05
0.0244197
-0.0348008
0.0103811
-0.00215451
-2.4218e-05
1.01539e-05
1.40644e-05
-2.27127e-05
-2.79638e-05
5.06746e-05
3.34578e-05
-2.72343e-05
-0.01781
0.0125118
0.0052982
-0.00382706
0.00035726
-0.0428578
0.00617637
0.0657548
-0.056715
9.45774e-05
-9.38383e-05
-7.21661e-07
0.000201418
-0.000488936
-0.0185371
0.0016324
0.00624976
0.0018815
-0.00813126
-0.00130931
0.000480513
0.000828794
-0.000716364
-0.000126018
-0.000140271
0.000266285
0.00227183
-0.000873119
0.000528012
-0.000326575
3.29677e-05
2.19286e-06
-3.51679e-05
-0.00269657
0.00541099
-0.0027144
0.000302601
-0.000207353
0.000211426
-0.000337445
1.65628e-05
0.0443779
0.00103846
-0.0454164
-0.0269244
0.0231444
0.00377993
-0.0329827
0.0229081
-0.00409883
-0.0195029
-0.000333517
0.00126903
0.00110133
-8.17199e-06
-3.10771e-05
3.92557e-05
-0.0158182
0.00174493
0.0363307
0.00307352
0.00118799
0.00181489
8.96471e-07
2.38325e-05
-2.47306e-05
2.99268e-05
-1.35858e-05
-1.63347e-05
0.00662253
0.0116831
-0.0183056
-0.00652712
-0.00126189
0.00163071
-0.000368825
0.0009882
0.00128363
-0.0228497
0.0119491
0.0109006
-0.000253018
0.000251177
1.83837e-06
-0.0234654
0.0186128
0.00485256
8.12851e-05
-2.69852e-05
-5.43061e-05
-0.0619358
-0.0173822
0.0351822
-0.0328737
-0.00230851
-5.82066e-05
8.08039e-05
-2.25928e-05
0.00073663
-0.000378731
-0.00210835
0.00164745
7.39511e-05
-7.92022e-05
5.24411e-06
-6.13856e-05
3.24994e-06
5.814e-05
6.00616e-05
7.74959e-05
-0.000137561
2.22635e-05
-3.97738e-05
1.75109e-05
2.06764e-05
-3.9023e-05
1.83438e-05
0.0126469
0.00473928
-0.0173862
-5.83187e-05
3.5501e-05
-9.6253e-06
4.35774e-05
-3.03274e-05
2.21541e-05
-0.0118308
-0.00229552
0.00435823
0.000339432
-0.0046977
9.29433e-05
3.53772e-05
-0.000128315
-6.12092e-05
4.50898e-05
1.61098e-05
-0.000131534
-8.01206e-07
0.000132337
1.28935e-05
1.70325e-05
-0.00812884
0.0101884
-0.00205957
-0.00333101
-0.00534376
-0.00496138
0.0401436
1.0086e-05
0.000176636
-0.0056353
0.0484273
1.70967e-05
2.34007e-05
-4.04973e-05
-0.00176226
0.00154233
0.000219901
-9.04919e-06
4.63818e-05
-1.80218e-05
-8.18721e-05
0.000457607
1.88645e-05
1.88519e-05
-3.77165e-05
-0.000526659
0.000482972
4.3674e-05
-0.00900032
-0.0138494
-0.0058953
-0.00186398
0.00775928
-4.89024e-05
-3.74655e-05
8.63661e-05
-3.35007e-05
1.99157e-05
1.62239e-05
-0.000122315
0.000564695
-0.000646601
-0.00833315
0.0109776
-0.00264448
-0.00540715
-0.000775597
0.00618274
-6.21818e-06
-5.51622e-05
-2.18019e-05
4.40732e-05
-4.09181e-05
-1.39299e-05
5.48448e-05
-3.07231e-05
0.00012531
-0.000844069
0.000629065
0.000215008
-0.000120203
9.14238e-05
0.000201004
0.010348
0.0190592
3.93192e-05
-5.43849e-05
1.50624e-05
-0.000121683
1.87204e-05
-0.0111483
-0.0123171
0.000386921
0.00397129
0.00138819
0.0138207
-0.0152089
-0.0142513
-0.0187314
0.0387707
-0.0150701
-0.0237007
2.14346e-05
0.0129703
-0.00634773
-1.01978e-05
-2.82294e-05
-1.98324e-05
4.80647e-05
6.43518e-05
-1.95779e-05
4.02558e-05
0.000355843
-0.00020932
8.36694e-05
-2.81391e-05
-5.55366e-05
0.012539
-0.0398999
0.0273609
1.02831e-05
5.65981e-05
-0.00456525
0.00368275
0.000882498
-5.59644e-05
-9.86343e-06
6.58244e-05
-1.94306e-05
7.49632e-05
0.000213177
-0.0014137
0.00120048
0.000167638
0.000490963
-0.00560174
0.0116842
-0.00608242
-0.00649415
0.0166961
-0.0102019
0.00337492
-0.00057624
-0.00279868
-4.21178e-05
8.12249e-07
4.13017e-05
0.000631066
-0.000809905
0.000178841
-0.015275
5.26923e-05
-2.1987e-05
-0.0055482
-0.00442093
4.89067e-05
3.23732e-05
-0.00103794
-0.0060879
-0.00224524
-0.0035064
-0.00105885
0.000859656
-0.00125076
0.000391083
0.0454212
-0.0328822
-0.00143357
-0.0143847
-0.000620176
0.000585717
3.44522e-05
0.00846704
0.013376
-0.00288565
0.00626053
-0.018228
-0.000309082
-0.0122653
0.0138977
-0.000649088
-5.51017e-05
0.00385212
-0.0224166
0.0185645
-5.81672e-05
6.68956e-05
-8.73178e-06
1.45399e-05
-2.43354e-05
3.43747e-05
4.85624e-06
-3.92298e-05
5.20205e-05
-1.12378e-05
-4.07745e-05
4.48897e-05
8.75771e-06
2.58536e-05
5.78233e-05
0.0894276
0.02065
-0.000802094
0.000815894
-1.37974e-05
-0.00067192
0.000328988
-0.000295106
-3.38544e-05
-0.0206266
0.0101095
2.75747e-05
1.88079e-05
0.0077047
-0.000391336
-0.000102741
-0.000911024
0.00141191
-0.000500887
-8.25579e-05
2.4388e-05
0.000182174
-5.25582e-05
4.75205e-05
5.04121e-06
3.35528e-05
-2.63253e-05
-7.49849e-05
5.55603e-05
0.000342517
-0.000131084
-0.00110533
-0.000577313
0.000183078
0.000145917
-0.00558258
0.00908916
-0.00350659
0.050524
-0.00441665
-0.0461073
-8.64091e-05
5.29237e-05
3.35033e-05
0.0295556
-0.00963621
-0.0199194
-0.00119957
-0.0005627
-6.43392e-06
-8.94204e-06
0.0110459
0.00660788
-0.0176538
0.00142509
-0.00205066
0.000625587
-6.19244e-05
-0.0112022
0.0284022
0.00360006
-0.00482364
-0.0128259
0.0142141
-1.70623e-05
-8.13409e-06
2.51987e-05
0.0078368
0.00665806
2.64121e-05
2.44992e-05
-5.09154e-05
8.56779e-05
-3.62689e-06
-8.20529e-05
0.000298793
-4.30937e-05
-1.51861e-05
-4.28473e-05
5.80318e-05
0.000167412
2.78042e-05
-0.000195204
-3.63808e-05
-0.000216628
0.00379078
-8.14311e-06
-0.000160906
-2.95286e-07
-5.22552e-05
-0.0115431
0.0082121
0.000101602
7.56409e-05
-0.000177245
1.42602e-05
-3.74267e-05
-0.00634562
0.00238144
0.00396416
0.00765888
-0.00140923
-1.3705e-05
-3.64034e-05
-0.000993144
8.21244e-05
-0.00694595
-0.00329387
0.0102398
-0.0047114
0.00201484
-2.57367e-05
2.12879e-05
3.01363e-05
-1.12718e-05
-0.000197954
-0.00325541
0.00345335
8.26936e-06
-2.53286e-05
0.0201966
0.00935899
0.00166603
-0.000240949
-0.0295787
0.0419495
-0.0123709
1.54168e-05
-2.81472e-05
5.17082e-05
-3.66066e-05
-3.28917e-05
-0.000507605
2.69832e-05
6.25368e-06
-3.32356e-05
-0.00293093
0.00273298
-0.0139455
0.00383367
0.0101118
-0.0140712
0.0179234
-1.8962e-05
1.45863e-05
4.37446e-06
-0.0340542
0.0162466
0.00837657
-1.90297e-05
-3.19102e-05
1.04417e-05
-2.31933e-05
5.42553e-05
-0.000708868
0.000654608
0.00750391
-0.000484397
-0.000359674
0.0271396
-0.00175755
0.0140229
-0.00869309
-7.70547e-05
-0.00123224
-0.013841
0.00816321
-0.0428836
0.00155048
0.0413331
6.65708e-05
-9.98986e-05
3.33621e-05
5.44079e-05
-2.95878e-05
-2.48216e-05
0.013024
-0.00944566
-0.00357835
0.0618686
-0.0291839
-0.0326848
0.000857613
-0.00332002
0.0633996
-0.0122412
-0.0511584
-9.53099e-06
-0.000610648
-0.00504305
0.0116509
0.000194757
0.000147753
-3.18614e-05
3.92474e-06
-0.00847194
0.0220802
-8.88612e-06
1.23742e-05
0.0227514
0.0406482
-0.000617648
0.0229774
2.26209e-05
-3.61399e-05
-0.00597153
0.000564359
-1.80808e-05
-2.20803e-06
0.0312183
-0.00909267
-0.0234713
0.0325639
-0.00273487
0.0298745
0.00791668
-0.000235832
-0.00768083
-0.000463334
-0.00052982
-0.00809667
-0.00138326
-0.0130905
0.0074887
-0.00120706
-0.0100863
0.0112934
0.000215714
-0.000246427
-0.0504646
-0.0140758
-0.0180283
0.00576296
0.000422954
-8.48122e-05
-0.00033812
-0.00970731
5.14999e-05
-0.000799752
0.000336429
-0.00261239
0.00621245
5.70684e-05
-7.17473e-06
-4.98909e-05
0.00261457
-0.0010021
-1.57004e-05
-1.78035e-05
-0.00475337
0.00456608
0.000187307
-0.000163914
-0.000847431
0.00101134
0.0170539
-0.0211492
0.00409533
0.0111741
-0.00285644
-0.000157764
0.00021587
-5.81132e-05
-2.29636e-05
8.27803e-05
-7.75045e-05
1.93e-05
-1.32276e-05
-1.09905e-05
-0.0313492
0.0240904
0.00725875
0.0456351
-0.00125713
-0.0440045
-0.002199
-0.000417432
0.00121202
-0.00997643
0.00854287
0.00266668
0.00525
0.00149704
-0.000508822
0.00607805
0.000468054
0.0011404
-0.00029126
-0.000849111
-7.82997e-05
2.23299e-05
-7.58369e-06
4.6901e-05
-0.000910212
-0.0013021
0.0022123
2.9181e-05
3.77969e-06
-2.93277e-05
0.000122284
7.33061e-06
-5.10523e-05
0.0060869
0.00094705
-0.00703391
-5.71352e-06
1.61101e-06
4.09692e-06
-0.000386476
0.000102907
-0.00986557
-0.0200106
-0.00193712
-0.017644
0.0504329
-0.000994779
-0.0494381
-0.0046439
0.00312732
0.00151658
0.0205956
-0.0532205
0.00658546
-0.0132978
0.00671234
-0.000142636
0.00270101
1.28344e-05
-0.00497419
0.00556802
-0.0004567
-0.000520624
0.000977333
-0.0010026
0.000669095
-0.003381
0.00423864
0.0144999
-0.0024168
-0.0120831
0.0106548
0.039778
-0.00058337
-0.00591079
-0.022396
-0.000826596
0.0023019
-0.0247106
0.0453062
2.79377e-05
-4.77947e-05
0.00466436
-0.00180757
-0.00285677
-0.00763126
0.00501888
-1.49517e-05
5.08138e-05
-3.58726e-05
-0.000163084
0.000758936
-4.03686e-05
8.48521e-05
-0.000130151
-2.76109e-05
-0.00591754
-0.00804325
4.16207e-05
-4.38085e-05
2.18031e-06
-0.0227232
0.000885193
-0.000646785
-0.000238413
1.26714e-05
2.68639e-05
6.26174e-05
2.30615e-05
-3.30598e-05
2.02845e-05
1.27722e-05
-0.010267
0.00743006
0.00283695
1.77295e-07
-1.1159e-05
0.00745101
0.000414814
-0.000780477
-5.98208e-06
8.40939e-06
-2.4339e-06
0.0545822
-0.00916101
-1.89433e-05
5.22299e-05
-3.3283e-05
-0.00647727
0.0198638
-0.0133865
0.000256785
-8.69971e-05
-0.000169793
-0.00364927
2.45503e-05
4.15262e-06
-0.046997
0.000836443
6.52646e-05
-0.00963109
0.00517842
-0.000252103
-0.00155897
0.00181106
-0.059459
0.0538237
-0.00970152
0.0102891
-0.000587589
9.59455e-05
-0.000775142
-0.0039782
0.00213476
-0.0102636
0.00274709
0.00103778
-0.00378487
0.00714331
-0.00811283
-0.0149747
-0.0319898
0.0469646
-4.38817e-05
-1.2383e-05
0.0154568
-0.00769283
0.000152505
-0.000350613
0.000198121
-0.000874149
0.00108734
-0.000665184
0.000352486
-0.0896922