/*--------------------------------*- C++ -*----------------------------------*\
| =========                 |                                                 |
| \\      /  F ield         | OpenFOAM: The Open Source CFD Toolbox           |
|  \\    /   O peration     | Version:  v2012                                 |
|   \\  /    A nd           | Website:  www.openfoam.com                      |
|    \\/     M anipulation  |                                                 |
\*---------------------------------------------------------------------------*/
FoamFile
{
    version     2.0;
    format      ascii;
    class       surfaceScalarField;
    location    "250";
    object      phi_0;
}
// * * * * * * * * * * * * * * * * * * * * * * * * * * * * * * * * * * * * * //

dimensions      [0 3 -1 0 0 0 0];
oriented        oriented;


internalField   nonuniform List<scalar> 
51027
(
0.067637
-0.302006
0.234369
-0.249308
-0.0282474
0.277556
-0.283848
0.127759
0.156089
0.188811
-0.150036
-0.0387753
0.231224
-0.391036
0.159812
0.0840274
-0.294519
0.210492
-0.0629941
-0.203224
0.266218
0.0684822
0.0419351
-0.110417
0.00312851
-0.00531486
0.00218635
0.198113
0.106294
-0.304407
-0.079909
0.151227
-0.0713178
-0.149715
-0.0555923
0.205308
0.395509
-0.199333
-0.196177
0.0297658
-0.182702
0.152936
0.152357
-0.429317
0.27696
0.223234
0.132514
-0.355748
0.11514
-0.0752506
-0.039889
-0.258473
0.330892
-0.072419
0.250112
-0.120446
-0.129666
0.026162
-0.00606708
-0.0200949
0.190184
-0.0300114
-0.160172
0.143577
0.0670709
-0.210648
-0.0829519
0.281065
0.0253476
-0.172389
0.147042
0.0209672
0.202747
-0.223714
0.116107
-0.107292
-0.00881495
0.217907
-0.167387
-0.0505202
0.0143963
-0.141534
0.127138
0.17656
-0.131033
-0.0455272
0.0861634
-0.277971
0.191808
-0.0718731
-0.13435
0.206224
0.0775306
0.0816623
-0.159193
0.0232119
0.0928955
0.149787
-0.408261
0.129138
-0.213881
0.0847429
-0.16656
0.166193
0.000366881
-0.244226
0.34373
-0.0995036
-0.44587
0.235807
0.210063
-0.18001
-0.155639
0.335649
0.0499225
-0.229933
-0.399235
0.263493
0.135742
0.119293
0.191743
-0.311036
-0.437316
0.295839
0.141477
-0.255265
0.166646
0.0886187
0.340142
-0.256115
-0.15782
0.0779114
-0.0137279
0.0285778
-0.0148499
0.152388
-0.361217
0.208829
0.330661
-0.178273
0.180715
-0.395174
0.214459
0.0138435
0.17634
0.311576
-0.154593
-0.156983
0.353669
-0.0940419
-0.259628
0.0787452
-0.196033
0.117288
-0.157679
0.017579
0.1401
0.246516
-0.360964
0.114447
-0.15318
-0.139788
0.292968
-0.108956
-0.0488643
0.332178
-0.21687
-0.115309
0.153484
0.178694
-0.299161
0.145981
0.241466
-0.276039
0.0345731
0.0726817
-0.263387
0.190705
0.416586
-0.204247
-0.212339
0.204064
-0.125319
-0.180992
0.201959
-0.16261
0.0536534
-0.0702977
-0.191919
0.262217
0.167071
-0.152675
0.381487
-0.150263
-0.425451
0.117413
0.308037
0.0696731
-0.254086
0.184413
0.236981
0.116688
0.162956
-0.192967
0.386015
-0.233658
0.00363661
-0.00391254
0.000275925
-0.0247309
0.011003
0.351559
-0.155215
-0.196343
0.104178
0.229096
-0.333274
-0.193238
-0.0651469
0.258385
-0.0861023
-0.0586673
0.14477
-0.191078
0.277241
-0.224811
0.328989
-0.0711948
0.139677
0.166863
-0.141515
-0.0893913
0.312625
-0.0752057
0.0371793
0.0380263
0.319934
-0.237205
-0.0827288
0.00145118
-0.168011
-0.33003
0.0807215
0.227462
0.124096
0.288557
-0.188095
-0.100461
0.13325
-0.338145
0.204895
-0.176992
-0.122168
0.00517411
-0.0020456
-0.352807
0.228174
0.124632
0.285452
-0.215779
0.284235
-0.0427691
0.213624
0.202962
-0.0245484
0.0916274
-0.0670789
0.352363
0.00974519
-0.362108
0.0926763
-0.0184459
-0.0742304
0.0846164
0.16276
-0.247377
0.0980512
0.0785086
0.0300133
-0.0234914
0.203439
0.153676
-0.357115
0.111706
0.0923577
0.141133
-0.318125
-0.201704
0.320997
0.1489
0.116386
-0.265286
-0.404221
0.193136
0.211085
0.14585
0.0268573
-0.172708
0.152081
0.136476
0.244025
0.0793832
-0.323408
0.156361
-0.035568
0.239007
0.0878106
-0.36132
0.273509
0.199839
-0.0368838
0.200302
-0.0885953
-0.350756
0.309927
0.0408288
-0.122852
0.089564
0.0332882
0.00504254
-0.221891
0.216849
-0.152079
-0.178694
0.330773
0.00353112
-0.000828019
-0.0027031
-0.0258943
0.378257
-0.348258
0.26254
0.0857185
0.263952
-0.11978
-0.144172
0.0993839
0.196614
-0.295998
0.199562
0.101037
-0.300599
0.0651043
-0.241144
0.17604
-0.233588
0.170594
0.240432
-0.0915314
-0.102126
0.346151
0.284259
-0.143166
-0.141093
-0.158361
0.159812
-0.0919512
0.146883
-0.0549316
-0.00100638
0.00464299
-0.31627
-0.113047
0.218775
0.112998
-0.331772
0.00480701
-0.00509196
0.00028495
-0.0594217
0.101357
0.0398661
-0.0231965
-0.0166697
0.0321406
-0.00428968
-0.0278509
0.276061
-0.0304126
-0.245648
-0.179286
-0.173243
0.352529
0.0522205
-0.138323
0.0363707
-0.229608
0.0508665
0.159352
-0.210218
-0.260529
0.399862
-0.139332
-0.0656624
-0.359788
-0.10774
0.0747124
0.0330278
-0.0379913
-0.14599
0.183982
0.231919
-0.10278
-0.100166
-0.0834622
0.183628
0.0974409
-0.0442508
-0.0531901
-0.208945
-0.137439
0.346384
0.0627929
-0.212508
-0.075648
0.111322
-0.0356743
-0.0201066
0.0566062
-0.0364996
-0.229442
0.157569
0.0394551
0.0709486
-0.110404
0.260437
-0.418963
0.158526
-0.035427
0.119833
0.12908
0.394998
-0.239469
-0.155529
0.0958073
0.162353
-0.25816
0.109973
-0.276857
0.166884
0.430132
-0.222543
-0.207589
-0.292061
-0.0444643
0.336526
-0.197342
0.000431546
0.19691
0.101814
-0.305038
0.371549
-0.283739
-0.124602
0.299117
-0.174515
0.0134159
0.0264502
-0.036621
0.0224994
0.0141216
0.0898497
-0.0503946
-0.237312
0.384325
-0.147014
-0.327877
0.21054
0.117337
0.327335
-0.211801
-0.115534
0.170403
-0.0723517
0.0891357
-0.0891224
-1.32896e-05
-0.0630277
0.208878
0.093572
-0.306111
0.212539
0.164999
0.11926
-0.158792
0.000430911
0.0686741
0.0287667
-0.226332
-0.121927
0.390737
-0.197947
-0.19279
-0.203194
0.270831
0.334542
-0.329942
-0.00459981
-0.202931
-0.122599
0.32553
0.17325
-0.374155
0.200905
0.215289
-0.164422
0.13196
-0.359859
0.227899
0.151576
0.0372353
0.345724
-0.252152
0.144827
0.194777
-0.339604
0.120052
-0.0496616
-0.0703905
-0.197588
-0.248282
-0.345219
0.348302
-0.00308267
0.0151859
-0.0672232
0.0520373
-0.087156
-0.0550883
0.142244
-0.142971
0.0558155
0.148173
-0.357118
0.074918
-0.333063
0.258145
0.0449348
-0.289161
0.175209
0.215529
0.0639547
0.29092
-0.354875
-0.295319
0.201542
0.0937765
0.303556
-0.151746
-0.15181
-0.0867611
0.421303
-0.335535
-0.0152212
-0.0687992
-0.0579268
0.0815397
-0.0236128
0.254675
-0.224572
-0.0301038
0.377725
-0.377725
-0.192239
0.340412
0.181797
-0.0563575
-0.12544
0.00380695
-0.000275833
0.0668977
-0.257671
0.190773
0.40744
-0.0925983
-0.314842
0.00257446
-0.0587515
0.0561771
0.110476
-0.163376
0.0529004
-0.106996
-0.0765958
0.183592
0.0460631
0.208612
0.352034
-0.224832
-0.127202
0.0819093
0.325531
0.104392
0.0959095
0.0652355
-0.284482
0.219247
-0.25273
0.387023
-0.134293
-0.0521337
-0.000338722
-0.0292206
0.0295593
0.0803085
0.0123678
-0.108961
0.213353
0.113074
-0.167828
0.0547541
-0.342352
0.204913
0.152536
-0.344774
0.069933
-0.212703
0.14277
-0.152992
-0.158133
0.311125
-0.0491889
0.10728
-0.0580909
-0.00500818
-0.0137168
0.018725
0.323643
-0.258408
0.152198
0.0979148
0.0526033
-0.144555
0.0100065
-0.0150147
-0.000381379
-0.0595143
0.0598957
-0.404763
0.176987
0.227777
0.0975057
-0.311767
0.214261
0.12665
-0.0968838
0.0906384
-0.206271
0.115632
-0.0708136
-0.137802
0.208615
0.2278
0.167198
0.329804
-0.222935
-0.106869
-0.285015
0.415397
-0.130382
-0.12831
0.351985
-0.223675
0.406844
-0.289862
-0.116982
0.0851878
-0.0544863
-0.0307015
0.232846
-0.0858969
-0.146949
0.0327415
-0.10839
-0.272074
0.323409
-0.0513355
0.0298512
-0.00703691
-0.0228143
-0.385384
0.0401445
0.345239
0.322826
-0.371281
0.0484553
0.0572832
0.0279047
0.230577
-0.0603143
-0.170262
0.20013
-0.109491
0.0261433
-0.298217
-0.149766
-0.124011
0.273777
0.255599
-0.188701
0.117106
-0.180134
-0.171075
-0.0342697
0.205345
0.140656
0.0411413
0.397578
-0.183954
-0.349941
0.230757
0.119184
0.110731
-0.313662
0.308282
-0.0811376
-0.227144
0.156689
-0.359392
0.202703
-0.206804
-0.0484612
0.0860606
0.00307513
0.356959
-0.259453
-0.239768
0.346524
-0.106756
-0.359268
0.363055
-0.00378711
0.206402
-0.394144
0.187743
0.149421
0.0834241
-0.1448
0.0483926
0.0964069
0.162576
-0.376002
0.213427
-0.0568987
-0.079659
0.136558
0.242464
0.0658178
0.0239498
-0.0242885
0.149918
0.0905133
-0.21512
0.398973
-0.183853
0.0689743
-0.297286
0.228311
0.0544407
0.0656115
0.121989
-0.366134
0.244145
-0.322303
0.233856
0.088447
-0.144327
-0.132965
-0.158602
0.291567
0.235476
-0.0855579
0.0570047
0.160903
0.201817
0.195761
-0.224609
-0.106836
0.331445
0.142719
0.0927567
0.145595
-0.068064
0.1436
0.0693831
-0.212983
0.210611
-0.15215
-0.0584617
-0.0566537
0.307265
-0.250611
-0.0678688
-0.197173
0.265042
-0.0909617
0.233681
0.024306
0.0484883
0.166801
-0.340935
0.212625
-0.15975
0.368365
-0.208616
-0.0903938
0.2075
0.0551158
-0.227505
0.0187358
0.234613
-0.253349
0.121254
0.0682535
-0.189508
0.0463519
-0.206348
0.159996
0.158894
0.144662
0.0295116
-0.0322785
0.00276687
0.237289
-0.0937118
0.143217
-0.0909966
-0.147046
0.032635
0.114411
-0.207242
0.253594
-0.0666297
0.21023
0.0380706
-0.00833999
-0.0297306
-0.245613
-0.17335
-0.125858
0.0671907
-0.262429
0.205775
0.126188
0.225846
-0.0503026
0.344047
-0.247902
-0.0961453
-0.150337
0.21972
-0.0490005
0.051575
-0.0649121
-0.0579401
-0.203366
0.222102
-0.0989789
-0.0439926
0.0559689
-0.212063
0.156094
0.0936573
0.213608
-0.0259993
0.316518
-0.290519
-0.063392
0.0397141
0.0236779
0.0470825
0.0968733
-0.143956
-0.00216748
0.00297605
-0.000808577
0.0611882
-0.0132543
-0.047934
0.20958
0.220553
0.00221124
-0.34743
-0.377134
0.147477
0.229657
-0.253261
-0.123872
0.30894
-0.215282
0.0291514
0.0108456
-0.039997
-0.0312359
-0.0439698
0.176375
0.0977224
-0.274097
0.10812
0.249536
-0.357656
0.0296622
0.239494
-0.34162
-0.00409998
0.0115406
-0.00744059
-0.343542
0.348481
-0.00493924
-0.0341995
-0.0291925
0.0754564
0.0355829
-0.111039
0.127864
-0.183457
-0.152068
-0.136287
0.288355
-0.128093
0.354665
-0.172257
-0.182408
0.0917443
-0.272676
0.180931
-0.376715
0.173766
0.20295
-0.249413
0.318387
0.2901
0.0541021
-0.344202
0.28479
-0.119792
0.00468222
-0.00878219
0.0487569
-0.168059
0.119302
-0.0236571
0.0528085
0.0156316
-0.0202901
0.00465842
0.214299
-0.15833
0.352923
-0.179673
-0.0955662
0.0914481
0.00411811
-0.0141864
0.0339596
-0.0197732
0.149613
0.205051
0.0567036
-0.208772
0.181781
0.145554
0.383286
-0.176003
-0.207284
0.253317
-0.10112
-0.14995
-0.0640077
0.213957
-0.311168
0.2433
-0.105562
0.0339281
0.0716339
-0.296785
0.121712
0.175074
-0.333012
0.21989
0.113122
0.200212
-0.12753
0.0776017
0.231338
-0.144872
0.0458931
0.193173
0.0573691
0.265457
-0.129945
0.369439
-0.362598
0.16253
0.200068
0.0345719
0.241489
0.0435595
-0.121432
0.0778721
-0.332423
0.356026
-0.0236027
0.165727
0.178588
-0.344315
0.15145
0.234565
0.331732
-0.25413
-0.107018
-0.19929
0.306308
-0.201482
0.300866
0.310789
-0.25342
0.0930025
-0.240659
0.147657
0.119999
-0.342574
0.222574
0.342488
-0.222489
0.344837
-0.222848
0.13475
0.150041
-0.0194272
0.00823815
0.0111891
-0.0525117
-0.136684
0.189196
0.103804
-0.0283479
0.013058
0.0169998
-0.0300578
0.118914
0.241143
-0.360057
-0.33038
0.235821
0.0945594
0.0310383
-0.0179803
0.109479
-0.297908
0.188428
-0.175505
0.123884
0.0516206
0.0334164
-0.00127588
0.0318715
-0.0176386
-0.0142329
0.141874
0.144242
-0.286115
-0.00243565
0.000671685
0.00176396
0.174759
-0.160915
-0.163575
0.348573
-0.196038
0.381983
-0.174411
-0.207572
0.224013
0.120034
-0.24932
-0.0388355
0.288156
-0.250086
0.167134
0.0184199
0.0134516
0.0552761
0.0850951
-0.140371
0.127725
-0.285471
0.157747
0.107389
-0.186815
0.0794251
0.0486425
-0.100335
0.0516922
-0.201509
0.342415
-0.150368
-0.192046
0.0220331
-0.00640142
-0.0887993
-0.268321
0.35712
-0.0900331
-0.190389
0.280422
0.163218
0.0115406
-0.159862
0.0201539
0.139709
-0.115756
0.0665674
-0.11297
-0.148979
0.261948
0.106527
0.220954
-0.327481
0.232511
0.097293
0.242708
0.0652759
-0.307984
-0.25651
0.106744
0.304139
-0.218964
-0.085175
0.000679963
-0.0175735
0.0168935
0.00369148
0.00111553
0.159209
0.183205
-0.192663
-0.151887
0.34455
-0.052416
0.176423
-0.124007
0.0973039
0.22634
0.255231
0.0550166
-0.310248
-0.287876
-0.042504
0.302657
-0.215332
-0.0873251
0.0413294
-0.373752
0.0572831
0.0578565
-0.183992
0.070729
0.113263
0.141328
0.0627606
-0.204089
-0.250785
0.29813
-0.0473446
-0.31183
0.123667
0.188163
0.0859451
-0.240267
0.154322
-0.24505
-0.121084
-0.00203697
-0.00247145
0.00450842
-0.201741
0.308268
-0.184916
-0.0971949
0.282111
0.0846459
-0.34162
0.256974
-0.0275226
-0.130157
-0.0784243
-0.30696
0.0233799
-0.0434865
-0.312782
0.205426
0.107356
-0.0311222
-0.143204
0.174327
0.16577
-0.358433
-0.100354
-0.209974
0.310328
-0.255362
0.0734379
0.181924
-0.158886
-0.000976096
-0.01269
0.0850056
-0.0723156
0.0961395
0.223794
-0.224258
0.178474
0.0457841
0.3492
-0.192533
-0.156668
0.150081
0.113871
0.353926
-0.142526
-0.2114
0.0426608
0.0614923
-0.104153
0.225376
0.170133
-0.0390111
-0.158331
-0.145044
0.0362926
0.108752
-0.179188
0.0721921
0.196843
-0.34873
0.17546
-0.126704
0.397293
-0.278343
-0.11895
-0.119882
0.294578
-0.174695
-0.0426337
-0.208151
-0.1118
0.21919
-0.013603
-0.170897
0.1845
-0.184798
0.269444
-0.221738
-0.0336235
-0.347473
-0.00201138
0.349485
0.303895
-0.104333
-0.153064
0.355202
-0.202139
0.123214
-0.3478
0.224586
0.0768634
-0.132854
0.0559907
0.299047
-0.361973
0.0629265
-0.20966
0.119188
-0.358956
0.313079
-0.158061
-0.155018
-0.227225
-0.135497
0.213221
-0.150428
-0.34575
0.345022
0.000728654
0.085709
-0.279748
0.194039
0.145757
-0.354841
0.209084
-0.399981
0.190037
0.209944
0.324175
-0.140108
-0.184068
-0.11665
-0.224286
0.133309
0.0676219
-0.200931
0.272144
-0.20704
-0.174743
0.310948
-0.136205
-0.182867
0.411242
-0.228375
0.253033
-0.178115
0.315826
-0.218522
0.0110114
-0.00584896
-0.0051624
-0.278771
0.110032
0.168739
0.149563
0.163515
-0.0510719
-0.124433
-0.0418702
0.0948264
-0.0529562
0.348218
-0.242526
-0.105692
0.0276379
-0.00147589
0.097259
-0.282175
-0.312078
0.137336
0.0551735
-0.109361
0.0541877
-0.177247
-0.127171
0.304417
-0.132084
0.330798
-0.198714
-0.124319
0.0335278
0.0907915
-0.173696
-0.188902
0.284359
-0.188179
-0.0961797
0.351912
-0.311768
-0.303351
0.126104
-0.338861
0.354784
-0.0159235
0.162326
-0.175929
0.255707
-0.372451
0.116744
-0.0618374
-0.11241
0.174248
-0.32567
0.0883579
-0.13118
-0.126184
0.257364
0.178206
0.17572
0.395902
-0.122595
-0.273307
0.099538
0.24868
0.254349
-0.16864
0.0799967
-0.188205
0.108209
0.173539
0.110819
-0.308612
0.308168
0.000444021
-0.11755
-0.0502778
0.0683544
0.185995
0.106491
0.217344
-0.323835
-0.00570164
-0.00122529
0.00692693
0.306635
-0.147741
0.0743442
-0.241223
0.166879
-0.326169
0.20357
0.28558
-0.19293
-0.0926492
-0.0011287
-0.00257823
0.00370692
0.117617
0.0180589
-0.135676
-0.132428
-0.0126159
-0.340705
0.190336
0.173292
-0.325371
-0.117103
0.1971
-0.367453
0.350099
0.0173536
-0.195959
0.264314
-0.337516
0.112684
-0.0600165
0.13688
0.0674826
0.0877561
-0.155239
-0.230496
0.343463
-0.112967
0.211029
0.0159903
-0.307999
0.292008
-0.068942
-0.0641919
0.133134
0.061934
-0.193554
0.334056
-0.140503
-0.199007
0.358216
-0.202557
-0.110225
-0.0138724
-0.038949
0.0528214
-0.239424
0.112348
0.127075
-0.0200128
0.0540141
-0.0340013
0.0561357
-0.0409498
0.0589217
0.226658
-0.20705
-0.0054809
-0.000220739
-0.051901
0.169518
-0.0938505
0.149127
-0.227869
0.346783
-0.368012
0.152891
0.110994
-0.0802754
-0.0307186
-0.352071
-0.0784219
-0.00134999
-0.045345
0.046695
-0.00203025
-0.0004054
-0.0674527
-0.0649756
-0.137389
0.0699364
0.0505919
-0.079042
0.224365
-0.131362
-0.1391
-0.142921
0.282021
0.117117
0.33745
-0.16391
-0.112974
0.0799942
0.0329793
0.324319
-0.211884
-0.112435
0.1935
0.109157
-0.156807
-0.166199
0.323006
-0.173319
0.368881
-0.195562
-0.0212959
0.0718878
0.312258
-0.13795
-0.174308
-0.341242
0.110747
-0.191801
0.0372985
0.154502
0.218772
0.133213
-0.165347
-0.130089
-0.226935
0.357025
0.183485
-0.315913
0.132428
-0.03466
-0.215895
0.042109
-0.124199
0.0820902
-0.0296941
-0.00244388
0.032138
0.0141905
-0.0894411
0.157406
-0.310397
0.19266
0.126447
-0.319106
-0.11224
0.297699
-0.185459
0.284943
-0.0609673
-0.223976
0.241935
-0.16759
-0.192919
-0.00406691
0.00156606
0.00250085
-0.0492004
0.0108984
0.038302
0.0740774
-0.0137477
-0.0603297
-0.0114413
-0.0377591
0.0255412
-0.0397276
0.101373
-0.409985
-0.332545
0.0874958
0.100704
-0.288662
0.187958
-0.313495
0.131582
-0.00190802
-0.000259457
0.0934738
-0.193782
0.100309
0.0662062
0.258113
-0.416407
0.189182
-0.260073
0.196157
0.0639158
0.332996
-0.100486
0.142287
-0.281387
0.0569909
-0.00628974
-0.0507012
0.00459727
0.0064141
0.102687
0.151261
-0.253948
-0.226641
0.0292761
0.197365
-0.267524
-0.201066
-0.110764
-0.104224
-0.267057
-0.0825136
0.0842517
-0.00173809
0.0459216
-0.197499
0.151577
-0.295585
0.102031
-0.00513101
0.00972828
0.295186
-0.114471
-0.186206
-0.0738673
-0.172453
0.375646
-0.203193
-0.0739026
0.0060204
0.0678822
-0.078073
-0.0462463
-0.350554
0.215524
0.13503
-0.317956
-0.133642
0.261401
0.0769988
0.0436021
-0.120601
0.311546
-0.21051
-0.318248
0.219793
0.0984548
0.103047
-0.184096
0.081049
-0.176796
0.261412
0.345015
-0.0893076
0.0468989
-0.0561447
0.00924583
0.163877
-0.234174
0.321141
-0.201452
-0.119688
-0.17305
0.101404
0.0716455
-0.138092
-0.179628
0.31772
0.17246
0.16499
-0.274008
0.201146
0.0728612
0.3176
-0.0935864
-0.0717818
0.195627
-0.123845
-0.381116
0.236896
0.14422
0.226958
-0.181036
0.00203878
0.0591495
-0.0912919
0.184766
0.0632455
-0.00558856
-0.057657
0.00372233
0.324449
-0.133461
-0.190988
0.0504146
0.116818
0.235375
0.10964
-0.20762
-0.129896
0.120911
0.11212
-0.233031
0.208733
0.112407
-0.243474
-0.0305339
0.212182
0.150987
-0.363169
-0.37941
0.182806
-0.308518
0.125711
0.127678
-0.354614
-0.0107107
-0.0140202
-0.0729363
-0.101179
0.174115
0.11671
0.207401
-0.324111
-0.301143
-0.012222
0.313365
0.0104567
0.0195566
0.314992
-0.165429
-0.000888039
0.00792834
-0.00704031
-0.270487
0.0476937
0.222794
-0.0575736
0.300282
0.125391
0.162887
-0.288278
-0.274421
0.177226
-0.134363
-0.0743401
0.208703
-0.114356
0.276379
-0.162023
-0.0810019
0.019653
0.0613489
0.137302
0.187147
-0.106335
-0.22621
-0.168903
0.33463
-0.408344
0.241276
0.167067
0.401355
-0.21566
-0.185694
0.101484
-0.0839052
0.126307
-0.292527
0.16622
-0.069341
0.000677756
0.000693249
-0.001371
-0.00184366
-0.0739705
0.0758142
0.0542647
-0.20444
0.150175
0.26888
-0.167066
-0.189705
0.24397
0.0314234
0.0795706
-0.148558
-0.0779503
0.226509
0.323932
-0.122995
-0.200937
-0.256208
-0.0230954
-0.0135256
0.182111
0.215182
0.165221
0.149771
-0.381041
0.169283
0.211758
0.0869237
0.166393
0.309925
-0.183618
-0.00176488
0.00137936
0.000385517
0.109566
-0.337493
0.227927
-0.118977
0.0330862
0.0858909
0.0892446
0.243751
-0.122468
0.0255365
-0.174095
-0.154798
-0.200043
0.023849
-0.0299161
0.0189206
-0.0222424
0.00332178
0.290326
-0.259821
-0.0305049
0.30788
-0.124394
-0.165632
0.322321
0.14694
-0.279905
0.169914
-0.211586
-0.0150553
-0.274803
-0.129418
0.328728
-0.219162
-0.343695
0.117363
0.337216
-0.0907
-0.0799657
0.29046
-0.210494
-0.168419
-0.230816
-0.293691
0.213725
0.0761791
-0.247207
0.171028
0.157154
0.0968244
-0.253979
0.186041
0.14888
-0.334921
0.205224
-0.329405
0.124182
0.0770526
0.0933503
-0.0961131
-0.126256
0.222369
-0.0277972
-0.167534
0.195331
-0.0418309
-0.00160615
0.0434371
-0.235088
0.286446
-0.0513583
-0.0436699
0.218783
-0.319423
0.10064
0.295421
-0.098807
0.0411296
-0.00724619
-0.0338835
-0.0864825
0.138699
-0.279633
0.140934
-0.0380523
0.00883284
0.0292194
0.133422
-0.185933
-0.339612
0.116914
0.222698
-0.159979
0.165021
0.196323
0.127609
-0.112271
-0.282903
-0.00731678
-0.0121105
0.180623
-0.0724545
-0.108169
0.346056
-0.346555
0.000499153
0.106374
-0.334243
-0.122337
0.277498
-0.155161
-0.0955999
0.252754
0.22428
0.0660463
-0.0343806
-0.152067
-0.125619
0.333138
-0.20752
0.175432
0.132448
0.337466
0.014446
0.0881835
0.136181
-0.0820305
0.210778
-0.128748
0.355035
-0.142853
-0.243169
0.108806
-0.264822
0.15732
-0.383036
0.225716
0.200371
-0.316849
0.116478
-0.131308
0.00314241
-0.00827342
-0.294778
-0.281957
-0.0615849
-0.212095
0.260617
-0.0485217
0.0554068
0.10505
-0.160457
0.0588035
-0.0190894
0.306336
-0.222962
-0.083374
-0.15885
0.0413
-0.00171908
-4.57938e-05
0.118299
0.0652175
0.00885986
0.140895
0.16574
0.208264
-0.308618
0.109184
0.0453711
-0.154555
0.066214
-0.157598
-0.162986
0.320585
0.103549
-0.0483753
0.109779
0.19436
0.0826853
-0.226768
0.144082
-0.102347
-0.169626
0.271973
-0.223753
-0.195286
-0.167096
0.362382
-0.0532854
0.0418441
-0.0927546
-0.0128074
-0.119137
-0.119574
0.238711
-0.24708
0.38585
-0.13877
-0.338909
0.127679
0.21123
-0.168371
0.278344
0.35926
0.01781
-0.37707
0.321284
-0.114882
0.363507
-0.213507
-0.15
0.206847
-0.328826
0.121979
0.0976008
-0.156521
0.0589203
-0.0700656
0.150209
-0.0801434
0.226872
0.155112
0.244951
-0.168772
-0.313407
0.190412
-0.132156
0.27403
0.227027
0.37332
-0.228493
-0.317542
0.159944
-0.25844
0.06551
-0.173629
0.121212
0.00354697
0.203826
0.102509
0.365222
-0.169772
-0.195451
0.0885238
0.222266
-0.134388
-0.2106
0.129556
0.0810446
0.03087
-0.0320153
0.00114534
0.184908
-0.228189
0.0432807
-0.354635
0.159349
-0.006737
0.216612
-0.133927
0.303222
-0.214698
-0.000116721
-3.24308e-05
0.000149152
-0.127919
0.17138
-0.199178
0.0338152
-0.161296
0.127481
0.0773306
0.0339917
0.288382
-0.3402
0.051818
0.158925
-0.0469607
-0.111964
-0.0654572
0.255249
-0.189792
-0.338349
0.263604
0.0747451
0.211286
-0.144215
-0.154863
0.0649593
0.0899035
-0.217124
0.0979866
0.0971552
0.0981654
-0.195321
-0.0684058
0.20497
-0.135037
-0.0804166
-0.163494
0.24391
0.315043
-0.142584
0.02461
-0.093552
0.0624932
0.000752344
-0.00436005
-0.0231129
0.0274729
-0.401757
0.239317
0.16244
0.364866
0.126614
-0.154137
-0.05144
-0.0563002
-0.0383649
0.00935725
0.0290076
-0.298773
-0.0395765
-0.202983
0.0686329
-0.0959973
-0.273198
0.0611035
-0.0686045
0.0601085
0.00849591
0.34023
-0.133383
-0.226737
-0.0317037
0.0643272
-0.317057
0.2101
0.144935
-0.0395808
0.0424071
-0.00282626
-0.11192
0.285476
-0.173556
-0.212404
-0.146419
0.358823
0.313816
-0.148595
-0.115532
0.278107
0.124894
0.219943
-0.0616408
0.13864
0.18614
0.131037
-0.317177
0.0735149
-0.275554
0.202039
-0.163327
-0.149835
0.313162
0.136312
0.177504
-0.000959123
0.00163688
-0.0418809
-0.0114045
-0.000811219
0.00183903
-0.00102781
0.124743
0.191532
-0.316276
-0.172468
0.281948
-0.326314
0.140633
-0.333209
0.192576
0.0378561
0.0209474
0.368597
-0.256634
-0.111964
-0.204678
0.115465
0.0434597
0.16138
0.0492311
-0.00174538
0.031257
-0.245949
0.180492
0.000165735
-0.000944634
0.000778899
-0.0511853
0.0505508
0.000634521
-0.343901
0.156236
0.187665
0.17796
0.101343
-0.279303
-0.183282
-0.225061
-0.184108
0.234031
0.0679529
0.159005
0.364281
-0.0716689
-0.292613
0.183433
-0.10177
0.18481
-0.314626
0.129816
0.257272
0.107009
-0.00417107
0.00213409
-0.323863
0.129225
0.194639
-0.28116
0.0157386
0.265422
0.391834
-0.182873
-0.208961
0.0887017
-0.299508
0.210807
-0.174129
0.370765
-0.196636
-0.24731
0.000611571
0.0405181
-0.332757
-0.00649254
0.33925
0.182491
0.132552
0.103393
-0.16278
0.059387
-0.171936
-0.0629517
0.234888
0.243297
-0.14749
0.0229031
-0.0039825
0.0121829
-0.251123
0.23894
0.0737852
-0.113447
0.0396617
-0.276953
0.0850337
-0.204033
0.133219
0.153376
0.0817297
-0.119303
0.0375733
-0.119256
0.35463
-0.0436857
0.074613
-0.0309273
0.0594873
-0.0598687
-0.369256
0.1534
0.215856
-0.0374944
-0.0435075
0.219651
-0.207468
0.0298233
0.197639
0.167108
-0.0637149
0.27548
-0.153996
-0.121484
-0.0372923
0.106976
-0.0696837
-0.210929
-0.1537
0.364629
0.0347962
-0.206732
0.00285436
-0.0657003
0.0628459
-0.130712
0.315522
0.0109996
-0.0689264
-0.0428902
0.146174
-0.103284
-0.204565
0.27808
-0.298053
0.139992
-0.212787
0.323518
0.0197961
-0.0241562
-0.350611
0.184403
0.166208
-0.216612
0.305314
0.110386
-0.271744
0.161357
-0.137244
0.00621163
0.0578166
0.147153
-0.346179
0.229884
0.116296
-0.00256833
-0.00160274
-0.273521
0.183488
-0.22876
-0.123042
0.351801
0.11069
-0.335406
0.224716
0.231313
0.170042
-0.123636
-0.20577
0.230503
-0.0724268
-0.158076
0.322029
-0.211339
-0.00506579
0.355165
0.0749288
-0.250476
0.175547
-0.209748
-0.0883047
0.374614
-0.217295
-0.136561
-0.047431
-0.170553
0.0976169
0.125596
0.0882107
-0.23956
0.311618
-0.0720579
-0.0241507
0.339619
-0.143296
-0.276872
-0.00428832
0.41245
-0.259775
-0.152675
0.310157
-0.354075
0.0439172
0.0621187
0.248039
-0.0344818
-0.165489
0.199971
0.0396741
0.0114221
-0.0510962
0.311139
-0.110768
-0.204266
0.262354
-0.0580877
-0.226548
-0.0263457
0.252893
0.154925
-0.230667
0.0757422
0.261492
-0.136102
-0.0315382
0.0294568
0.00208141
0.118182
-0.200213
0.34585
-0.13575
-0.329278
0.101471
0.0678564
-0.169327
-0.12417
-0.161626
0.116467
0.0451596
0.259789
0.15266
-0.0586231
0.134878
-0.0762551
0.1115
-0.322491
0.210991
0.0119828
-0.136641
0.124658
0.146768
0.295028
-0.231074
0.110643
-0.174642
0.0639991
0.0165872
-0.256147
0.28505
-0.0826833
-0.202367
-0.0900349
0.189439
-0.0994043
0.177608
-0.350927
0.414542
-0.123622
-0.403912
0.236059
0.167853
0.155117
-0.235621
0.0805032
-0.233379
0.339753
0.27299
-0.11023
-0.0517418
0.123813
-0.0720711
-0.175059
0.272318
0.176444
0.175592
-0.352037
-0.227848
0.0668189
-0.32082
0.254001
0.205547
0.201297
-0.15032
-0.187017
0.337337
-0.33338
0.288774
0.0446052
0.312062
-0.0656569
-0.312068
-0.0526657
0.00170942
0.0509563
0.201061
-0.322893
0.121831
-0.222032
-0.12858
-0.394344
0.254579
0.139765
0.207187
0.0778632
-0.129145
0.29173
-0.162585
-0.047783
0.230589
-0.184686
-0.219226
-0.0315466
-0.00126484
0.0328114
0.0403177
0.109131
-0.149449
0.321723
-0.208725
-0.221714
0.0713771
0.0654541
-0.223262
0.157808
-0.0734912
0.107419
0.293106
-0.226287
-0.166528
0.209967
-0.0434389
0.0823859
0.0421769
-0.164629
0.122452
-0.000355754
0.000239033
0.0685585
-0.380325
-0.174668
0.340438
-0.195134
0.160652
-0.219816
0.147293
0.0725236
-0.0989759
-0.00195183
-0.229066
0.333972
-0.104906
0.225969
0.133239
-0.359207
0.247696
-0.172767
0.204528
0.321231
-0.204521
0.332094
0.0138896
-0.345983
-0.266409
-0.127735
-0.108951
0.322582
-0.213631
0.166444
-0.377249
0.210805
0.337169
-0.179044
-0.156164
-0.00322516
-0.000841751
-0.332123
0.223172
-0.0581206
-0.165991
0.224111
-0.0228263
0.35492
0.175395
0.0551082
0.0657447
-0.326274
0.0578967
0.157612
-0.215509
-0.00293012
0.000710477
0.00221964
0.199721
0.146128
-0.0274462
-0.249411
0.195151
-0.326416
0.131265
0.392772
-0.219684
-0.173088
-0.093006
-0.178193
0.271199
-0.035576
0.269332
-0.165629
-0.103703
0.321425
-0.196682
0.175244
-0.0737734
-0.198303
0.0611709
0.137132
0.134175
0.206055
0.0567785
0.126654
0.331547
-0.145558
-0.185988
0.0699118
0.101272
-0.171183
-0.140804
0.0979142
0.118165
-0.325682
0.207517
0.168
-0.333631
0.0354248
-0.0251876
-0.0102373
-0.279736
0.107797
0.171939
0.380179
-0.195776
0.0580871
0.156212
-0.00129653
0.00146227
-0.312682
0.127359
0.185323
0.0151318
-0.332158
0.317026
-0.299972
-0.0475018
0.141967
0.206496
-0.348463
0.179731
-0.311816
0.343049
-0.343049
-0.0641727
0.169512
-0.105339
-0.0230156
0.0152258
0.00778977
-0.283642
-0.0497373
0.174356
0.0832394
-0.257595
0.109948
0.187535
-0.297483
-0.00340516
-0.0016868
-0.222627
-0.119947
0.380808
-0.117204
0.028037
-0.00553761
-0.146961
0.346682
-0.100827
-0.0229034
-0.000587973
-0.171217
0.10938
-0.0819452
0.125505
-0.210661
-0.00239761
0.00182704
0.000570566
0.197876
-0.321615
0.123739
0.333481
-0.207322
-0.126159
0.20933
-0.341469
0.132139
0.205999
0.127482
0.00149883
0.00418469
-0.00568352
-0.326114
0.353794
-0.0276808
0.2706
-0.178856
-0.0103991
-0.0769299
0.087329
0.0757347
0.227487
-0.0999852
0.27636
-0.132287
0.0376139
-0.116232
0.0786185
-0.0612079
-0.00601533
-0.249227
-0.13189
0.0882719
0.158719
-0.246991
0.208529
-0.00506815
-0.20346
-0.172665
0.115849
0.0568163
-0.223774
0.00365744
-0.00478614
-0.185539
-0.00149481
-0.00514266
0.00663747
-0.100407
0.269207
-0.1688
-0.031652
0.0321637
-0.000511698
0.0706866
0.0761962
-0.186918
-0.138764
0.227479
-0.162025
-0.156098
0.168081
-0.081424
-0.129176
-0.372513
0.231642
0.140871
0.145511
0.0803144
-0.225825
-0.346266
0.0537388
0.104855
-0.35659
0.251735
0.175934
0.204244
-0.282858
0.109006
0.173852
-0.183136
0.248251
-0.0481212
0.114471
0.283859
-0.110525
-0.173334
0.191852
-0.0511963
0.0777825
0.0460445
-0.123827
0.196903
-0.139006
0.11378
-0.161274
0.0474937
0.118853
-0.367166
0.193923
-0.112833
0.0168499
0.095983
-0.317534
0.210698
0.0756414
0.152056
-0.227698
-0.0361162
-0.0503412
0.147942
0.125023
-0.18116
0.056137
0.102413
-0.0304256
-0.0825479
0.0939963
-0.134818
0.0408218
0.133361
-0.124128
-0.00923302
-0.151465
0.219418
0.309316
-0.123176
-0.23331
-0.13136
0.36467
0.137291
-0.0570203
-0.0802708
0.142464
-0.0953814
-0.137072
-0.0219827
-0.0519199
0.244832
0.135977
-0.00124445
-0.00168567
0.108267
0.237789
-0.0568163
-0.138151
0.194968
0.354793
-0.346428
-0.00836471
-0.247538
0.355658
-0.0717424
-0.268512
0.340254
-0.0231253
-0.0897076
-0.294993
0.0825888
0.195223
-0.0739687
0.203614
0.199553
-0.373965
0.255646
-0.0812905
0.363926
-0.225485
-0.13844
-0.153099
0.389995
0.00355258
0.204976
-0.241048
-0.120925
0.0990017
0.222721
-0.417751
0.202091
-0.244182
0.0938502
0.150332
-0.0726796
0.237527
-0.164847
-0.18303
0.377808
0.203135
0.139353
0.234218
0.165643
0.155656
-0.228335
-0.386341
0.174341
0.212
-0.107919
0.398019
-0.114508
0.156685
-0.0631215
-0.254412
-0.124311
-0.182274
-0.122246
0.304521
-0.108388
0.277749
-0.169361
-0.285342
-0.0739258
0.140295
-0.197112
0.053064
0.0820955
-0.13516
0.210327
0.08879
0.0733378
-0.251793
0.178455
-0.0545157
0.435151
-0.142045
-0.326421
0.1493
0.177121
-0.227379
-0.132914
-0.0667899
0.133577
-0.0628908
-0.170852
0.106679
0.15075
-0.218899
0.068149
-0.0203565
-0.0752098
-0.00481984
0.00847728
-0.326213
0.124508
0.0311391
0.31191
-0.160388
-0.0678004
-0.164488
0.100861
-0.0581998
0.0973098
-0.16208
0.0647699
0.00133358
-0.00115782
-0.000175759
0.169739
-0.112961
-0.131626
0.259351
-0.276881
-0.0247301
0.301611
0.050479
-0.32736
0.321141
-0.134275
-0.186866
0.0225058
-0.0145294
-0.00797643
0.275604
-0.136905
0.167843
0.0804078
0.117638
-0.0800236
-0.146104
0.197529