/*--------------------------------*- C++ -*----------------------------------*\
| =========                 |                                                 |
| \\      /  F ield         | OpenFOAM: The Open Source CFD Toolbox           |
|  \\    /   O peration     | Version:  v2012                                 |
|   \\  /    A nd           | Website:  www.openfoam.com                      |
|    \\/     M anipulation  |                                                 |
\*---------------------------------------------------------------------------*/
FoamFile
{
    version     2.0;
    format      ascii;
    class       volVectorField;
    location    "250";
    object      U_0;
}
// * * * * * * * * * * * * * * * * * * * * * * * * * * * * * * * * * * * * * //

dimensions      [0 1 -1 0 0 0 0];


internalField   nonuniform List<vector> 
34253
(
(1.01413 0.00107435 -1.1092e-24)
(1.01471 0.00191494 -1.77109e-22)
(1.03024 -0.00418583 2.9503e-22)
(1.01967 0.0430513 3.46661e-22)
(1.01167 -0.000190443 -2.24199e-25)
(0.947959 -0.0161427 7.43683e-23)
(1.0249 -0.00154278 1.10869e-21)
(0.936629 0.0294579 0)
(0.0536189 -0.0475619 -3.74643e-21)
(0.978189 0.0189077 3.17282e-22)
(1.03523 0.0263753 7.52511e-23)
(0.7923 0.0279829 0)
(1.01235 0.000480383 -1.47089e-23)
(1.02999 0.018923 -5.6439e-22)
(1.01445 -0.00096014 1.2018e-23)
(1.01849 2.93839e-05 1.29042e-22)
(0.953562 0.0801404 2.20646e-21)
(1.01442 0.000715032 -3.473e-26)
(0.993408 -0.00414963 6.70542e-22)
(0.289464 0.0592401 2.92117e-21)
(0.834241 0.0180617 4.74283e-21)
(1.03614 0.00570573 -7.82394e-22)
(0.981609 0.0201813 -1.87141e-22)
(0.76844 0.0271181 -1.86164e-23)
(1.03411 0.0111399 -3.1297e-22)
(1.06019 0.0440859 0)
(0.983915 0.0244968 0)
(1.02733 0.0187955 -4.32329e-22)
(0.681728 -0.0130292 0)
(1.01806 0.00515534 -3.24214e-22)
(1.01926 0.0226078 -4.32978e-22)
(1.05254 0.0124105 -4.24013e-21)
(1.05933 0.0445268 -1.62642e-21)
(1.01457 0.000729632 1.03276e-24)
(1.02778 0.0148555 4.23926e-22)
(1.04541 0.0173309 8.9383e-21)
(1.01787 0.00366313 0)
(1.01043 -0.000104332 6.43994e-24)
(1.0145 0.00186675 0)
(1.0146 0.00192081 0)
(1.01009 -7.44858e-05 1.16487e-23)
(1.01421 0.00197607 -4.2806e-24)
(1.01033 -9.76278e-05 -1.07311e-23)
(1.03202 0.00568474 0)
(0.95493 -0.0162361 1.35379e-22)
(1.03561 0.0260351 2.41034e-21)
(0.579957 0.0405825 2.1657e-20)
(1.01373 -0.000682911 -3.45271e-26)
(1.01368 -0.000656518 1.34271e-23)
(1.01391 0.000281674 0)
(0.812884 0.0173933 -4.23165e-21)
(1.02144 0.002944 -2.2565e-22)
(1.01858 0.00592077 -4.07822e-22)
(0.778083 -0.060265 7.51797e-22)
(1.02082 0.0240246 -2.87144e-23)
(0.897371 0.00214011 -7.95171e-24)
(1.01365 0.0015851 0)
(1.0363 0.0263735 0)
(1.02209 0.00319227 1.02125e-21)
(1.02199 0.00327057 3.46075e-21)
(1.01361 0.0015758 0)
(1.01657 0.00389228 -8.75604e-23)
(0.840317 -0.0492557 3.73562e-23)
(0.920847 0.0389598 0)
(0.781515 -0.064482 -1.01038e-21)
(1.03596 0.0104179 2.7711e-23)
(1.03672 0.0260012 0)
(1.02058 0.00657009 0)
(1.02736 0.0185615 3.79501e-22)
(1.01178 -0.000198916 0)
(1.00968 1.05058e-05 -6.07917e-23)
(1.02114 0.00802317 -4.41015e-24)
(1.01847 0.00585516 -3.63687e-22)
(0.899747 0.00831579 2.24949e-22)
(1.01437 -0.000919429 -2.43582e-23)
(0.0718157 0.0123701 3.30004e-20)
(0.563784 0.0379317 -1.56681e-20)
(1.02109 0.00290433 1.55283e-21)
(1.01393 -0.000924639 -1.10387e-23)
(1.0274 0.00480998 -2.1299e-21)
(1.05021 0.0294147 0)
(1.01797 0.00506025 1.3276e-21)
(1.01386 -0.000868431 1.12571e-23)
(0.962211 0.0277785 0)
(0.760584 0.0304866 0)
(1.01837 6.07082e-05 6.08832e-22)
(0.46894 -0.0247978 -5.1782e-23)
(0.895233 0.0099922 -1.31907e-23)
(1.04573 0.0168536 -8.75654e-21)
(1.01468 0.00191461 1.51336e-22)
(1.02098 0.00295623 0)
(1.02035 0.00980874 -4.63469e-22)
(1.01814 0.00120617 1.05738e-21)
(1.01366 0.00161048 0)
(0.0653169 -0.0477435 0)
(0.988794 0.030384 -5.30506e-22)
(1.02074 0.0078765 -1.14957e-22)
(1.0165 0.00381745 8.99743e-23)
(0.920191 0.0373511 -1.96839e-22)
(1.05936 0.0782902 -5.61508e-21)
(1.01846 0.00449837 8.78435e-23)
(1.07804 0.0524053 -1.29703e-20)
(1.0274 0.00210609 6.88589e-22)
(0.688429 -0.0185183 0)
(0.386212 -0.0899864 -7.5478e-21)
(1.00763 0.00790433 1.71098e-23)
(0.78742 -0.061099 6.21057e-23)
(1.0136 0.00159271 2.92514e-22)
(1.0141 0.00192449 0)
(0.84017 0.0352404 5.42603e-22)
(1.01053 1.06612e-05 0)
(1.02444 0.0215447 2.24955e-22)
(1.02019 0.00959482 -4.33948e-22)
(1.01287 0.000539691 -5.32056e-23)
(1.02133 0.00300589 2.59347e-22)
(1.00726 0.00610518 0)
(1.01043 0.000176748 -1.58288e-25)
(0.921681 0.00416282 0)
(0.794933 -0.0640009 -1.25086e-23)
(1.01434 0.00117965 0)
(1.06884 0.0502187 1.01849e-20)
(1.02088 0.00812703 -1.57649e-21)
(1.01237 0.000623822 -5.12994e-23)
(0.0495441 0.015667 2.07577e-21)
(1.01798 0.00492914 -6.37637e-23)
(1.01876 0.00225785 0)
(1.02048 0.00914372 0)
(1.01684 0.00347651 -8.98916e-23)
(1.01684 0.00331044 3.89079e-22)
(1.02354 0.00193947 1.11459e-21)
(1.02522 -0.0015643 1.33682e-21)
(0.837904 0.0317902 -2.73664e-22)
(1.01278 0.00052094 2.33388e-23)
(1.01595 0.0130424 -1.57739e-22)
(1.04519 0.0161642 0)
(1.04863 0.0271041 0)
(0.0989277 0.0194437 -1.56726e-20)
(1.01441 -0.000893269 -1.33075e-23)
(0.992142 -0.0202343 1.05342e-23)
(-0.0824692 -0.0329507 -2.15278e-20)
(0.902303 0.030875 -2.48024e-21)
(0.640412 0.0465749 6.2107e-21)
(0.439758 0.071892 0)
(1.02012 0.00649881 0)
(1.01361 0.000870886 3.80163e-23)
(1.05078 0.0285099 0)
(1.0274 0.00456513 2.95623e-21)
(1.02452 0.00805235 0)
(1.01076 -3.42268e-06 0)
(1.00906 3.31386e-05 0)
(1.07737 0.0390537 -2.85922e-21)
(1.02698 0.0180163 -7.14484e-22)
(1.02763 0.0151221 -1.11112e-21)
(1.02688 0.0247656 -1.66522e-21)
(1.02666 0.0808304 0)
(1.01202 0.000810048 1.58789e-22)
(0.820317 0.0242023 1.43936e-22)
(1.05608 0.0570439 0)
(0.865424 0.0669675 -7.35697e-21)
(1.01949 0.0235934 0)
(0.923352 0.0569626 7.00158e-23)
(1.01024 -0.00699835 -1.37425e-22)
(1.06883 0.0180352 1.2257e-20)
(1.02701 0.018354 -8.27839e-22)
(1.01751 0.000311558 5.90151e-23)
(1.03044 0.000497426 8.55408e-22)
(1.02376 0.00663095 1.85021e-21)
(1.01284 -0.00041867 0)
(1.0174 0.00605022 -2.77302e-23)
(1.0296 0.0174389 2.02721e-21)
(1.02464 -0.00174694 -1.01752e-21)
(1.01033 0.000163963 4.62238e-25)
(1.01916 0.0061452 0)
(0.637565 0.0463185 5.36832e-21)
(0.337477 -0.0382681 -1.94647e-21)
(0.888763 0.0597371 -4.43641e-22)
(1.01002 0.000135516 2.01376e-22)
(0.880259 -0.0175368 6.65499e-23)
(0.967072 0.0413732 0)
(0.672647 -0.0251417 0)
(1.08608 0.0610724 0)
(1.02413 0.0212587 -4.82649e-23)
(1.01397 0.00162877 4.46551e-22)
(1.01569 0.0125493 2.31213e-23)
(1.04544 0.0156959 0)
(1.02118 0.0813229 0)
(1.01889 0.00224648 1.14427e-21)
(0.89917 -0.0130867 2.09677e-23)
(1.01423 0.00110454 1.25655e-24)
(1.01077 8.55537e-05 3.8688e-25)
(1.0178 0.0011362 2.08882e-21)
(1.01323 0.00126032 0)
(1.02442 0.00785285 0)
(1.01048 4.37618e-05 7.69729e-25)
(1.01727 0.0417184 -8.04515e-22)
(1.0139 0.00156093 3.87299e-22)
(0.97955 0.00544936 1.22319e-23)
(1.05045 0.078199 0)
(1.01042 -0.000102245 4.72853e-24)
(1.01547 0.00179087 5.01885e-23)
(0.697753 0.0804293 0)
(1.05127 0.0255187 0)
(1.05148 0.024727 0)
(1.01197 0.000798747 -1.49289e-22)
(1.01415 -0.00102786 4.26715e-23)
(1.01801 0.00375634 0)
(0.898919 -0.0108645 1.2249e-23)
(1.0157 0.00200877 7.05575e-24)
(1.01824 0.00584711 5.99196e-22)
(1.02165 0.010141 1.23697e-23)
(1.01064 9.95111e-05 -3.41809e-25)
(1.01433 0.00116649 -3.59779e-23)
(1.04621 0.0791966 0)
(0.47848 -0.00446562 1.82336e-21)
(1.03481 -0.00102454 2.12036e-21)
(1.00376 -4.52422e-05 -1.28703e-22)
(1.01189 0.00076447 1.54585e-22)
(1.03376 0.0272126 0)
(0.0443936 0.0103035 -3.79229e-21)
(1.02042 0.00288391 -7.697e-22)
(1.01079 7.32206e-05 3.04264e-23)
(0.772188 0.0809526 -1.10865e-20)
(1.03789 0.0259908 6.56406e-22)
(0.721849 -0.039571 4.06176e-23)
(1.03453 -0.000805357 1.41656e-21)
(1.01583 0.00317737 0)
(1.01076 6.25958e-05 -3.89787e-23)
(0.799371 -0.0576504 -7.5112e-23)
(1.01436 -0.000123351 7.57047e-24)
(1.00928 0.000117764 0)
(1.03743 0.0264157 -1.3608e-21)
(0.704267 0.0488595 0)
(1.07738 0.0530431 1.64064e-20)
(0.809452 -0.0587275 3.38927e-22)
(1.03905 0.0258932 -7.49062e-22)
(1.0121 0.000841275 2.35326e-22)
(1.01184 0.000750043 -3.00163e-22)
(1.02396 0.01507 -5.04637e-22)
(1.01409 0.0010184 0)
(1.06071 0.057156 0)
(0.418071 0.0506676 -1.4521e-20)
(1.01424 -0.000152027 6.4235e-24)
(0.995296 -0.0069122 -6.72146e-22)
(1.04883 0.02634 0)
(0.381643 0.0458836 3.28523e-20)
(1.09654 0.0634207 0)
(1.01334 -0.0109549 2.68071e-23)
(1.01059 -3.91269e-05 1.72739e-23)
(1.03002 0.0186485 8.55437e-22)
(1.02603 0.0151182 -3.71205e-23)
(1.02027 0.0202344 -2.49714e-22)
(1.01769 0.000287526 -6.01362e-23)
(1.01888 0.00599979 0)
(1.01064 7.9183e-05 0)
(1.019 0.00194554 -5.96559e-22)
(1.01731 -0.000101699 1.47625e-21)
(0.469792 -0.0120362 2.02251e-21)
(1.03888 0.0146509 -5.97549e-21)
(1.05687 0.0558693 0)
(1.01458 7.95369e-06 4.51624e-23)
(0.383176 -0.076926 0)
(1.0102 3.30027e-05 0)
(1.01348 -0.000548541 1.26987e-23)
(0.477787 -0.0135797 -1.0947e-21)
(1.02665 0.0153107 6.99812e-22)
(1.02587 0.0152608 -2.41622e-21)
(1.01469 0.000153706 -4.75846e-23)
(1.02761 0.00285002 3.11217e-21)
(1.02024 0.00280554 2.32228e-21)
(1.02435 0.0207584 9.63768e-22)
(1.03577 0.00690875 2.37771e-21)
(1.03337 0.0267887 0)
(0.928497 0.0360812 -2.47974e-23)
(1.01557 0.00297119 -1.14186e-21)
(1.01776 0.00104982 1.12322e-21)
(1.00189 0.0147223 3.24689e-22)
(1.01492 0.00100342 0)
(1.03237 0.00557245 1.30284e-21)
(1.08435 0.0607634 7.3243e-21)
(1.01053 -3.57145e-05 -5.5276e-23)
(1.01088 0.000244293 3.2577e-27)
(1.00842 3.16537e-05 5.20707e-23)
(1.01144 0.000207922 0)
(1.03848 0.0148174 -2.16137e-21)
(1.04044 0.0389884 -4.03984e-21)
(1.01772 0.000199239 -3.36352e-24)
(1.00176 0.0266353 0)
(1.00007 0.0170285 -7.14359e-22)
(0.682365 0.0471839 -1.40077e-20)
(0.840422 0.0223671 -2.13027e-22)
(1.01077 3.92041e-05 -1.71848e-25)
(1.01494 0.00212729 -1.96837e-22)
(1.05008 0.0777681 0)
(1.0196 0.00173573 1.24248e-21)
(1.01576 0.00303852 -2.95598e-22)
(1.01135 -0.0096556 1.52578e-22)
(1.01723 0.00165415 7.72817e-23)
(0.840136 0.019448 -2.97407e-23)
(0.98621 0.0211517 5.62807e-22)
(0.928234 0.0326542 1.54008e-22)
(0.984775 -0.0155544 -1.48578e-22)
(0.840767 0.011042 -2.65474e-23)
(1.05274 0.0129673 6.09294e-21)
(1.03467 0.00521554 -3.05978e-21)
(1.0217 0.0176073 0)
(1.01378 -0.000781685 8.97247e-24)
(0.961397 -0.0209693 -3.99823e-23)
(0.84271 0.00888291 -8.87144e-25)
(1.02638 0.015143 1.75324e-21)
(1.02413 0.0077704 0)
(1.01919 0.00202785 1.8616e-21)
(1.01299 0.00115709 2.21105e-22)
(1.02413 0.020422 -1.07932e-21)
(0.774355 0.0298457 1.9031e-23)
(1.01566 0.00230576 -1.87158e-23)
(1.04298 0.00363785 0)
(1.03714 0.0123149 1.09955e-22)
(1.02146 0.00997805 -5.29936e-22)
(0.654254 0.0521351 -2.23198e-20)
(1.03622 0.0062571 0)
(1.05029 0.027755 -2.8356e-21)
(1.05196 0.0310057 8.55333e-21)
(1.0356 0.0120085 -3.40352e-22)
(1.03476 0.00565302 3.0081e-21)
(0.764839 0.0559149 0)
(1.00918 -0.00633767 -1.14665e-22)
(1.05072 0.0300747 0)
(1.01391 -0.000830696 -1.23907e-23)
(1.01575 0.00312286 0)
(1.03863 0.0263565 -7.45091e-22)
(1.01621 0.00346555 0)
(1.03419 0.00508029 0)
(0.735941 0.0801166 0)
(1.07002 0.050076 -1.11346e-20)
(1.01555 0.00226545 2.14949e-23)
(1.05251 0.0245833 0)
(1.02368 0.00752805 1.01393e-21)
(1.01381 -0.000770569 -8.63177e-24)
(1.01263 0.000199439 5.82944e-23)
(0.416367 -0.00926217 2.89267e-22)
(1.0538 0.0229555 0)
(0.0519204 -0.0249369 1.19462e-20)
(0.83691 0.0774575 -1.05845e-20)
(1.01287 -0.00042578 -1.35728e-23)
(1.01569 0.00163837 -5.2756e-23)
(1.01196 0.000809291 0)
(1.01199 0.000827121 0)
(1.0137 -0.000717305 -8.05009e-24)
(0.390757 0.0557926 -2.58593e-22)
(0.465619 -0.0231662 7.31521e-23)
(1.01834 0.00667171 -2.9193e-22)
(1.01258 0.000443455 -1.08255e-24)
(0.393298 -0.0735359 0)
(1.01266 0.000518684 8.14925e-23)
(0.246317 0.0378652 0)
(1.01577 0.000322406 -1.95597e-23)
(0.413725 -0.00910663 9.25504e-24)
(1.06692 0.0305634 -8.73214e-22)
(0.75573 0.0252114 3.18406e-22)
(1.01967 0.0065442 1.16366e-23)
(0.989385 0.02782 0)
(0.955804 0.0258699 2.48886e-22)
(1.01774 0.00491548 0)
(1.01268 0.000679089 0)
(1.01482 0.00209177 3.76841e-22)
(1.01058 0.000588355 8.53458e-24)
(1.01611 0.0119442 0)
(0.198899 0.0280198 0)
(1.03769 0.0229761 4.82166e-23)
(0.414508 0.0588794 2.22398e-22)
(0.260809 0.062232 -4.63705e-21)
(1.02356 0.00734349 6.74817e-24)
(1.01313 0.00121881 0)
(1.08292 0.0403702 0)
(0.44487 0.0752552 2.37701e-21)
(0.956523 0.0212758 0)
(1.01978 0.00656744 0)
(0.964798 0.0420119 0)
(0.949277 0.031108 0)
(0.994685 -0.0110453 7.33399e-22)
(0.828535 0.00603361 0)
(0.9553 -0.0215016 -1.50952e-23)
(1.07148 0.0449616 0)
(1.0194 0.00647087 2.84874e-22)
(0.891157 -0.013304 -5.66325e-24)
(0.840551 -0.0468747 6.03296e-23)
(1.01373 -0.000698952 1.37233e-23)
(1.05271 0.0238941 2.9956e-21)
(1.01309 0.00118958 -1.46175e-22)
(1.01344 -0.00051247 -1.5475e-23)
(1.01257 0.000499034 -5.27984e-23)
(0.87268 -0.0122742 3.23326e-25)
(1.02016 0.00652665 -8.61595e-23)
(1.0565 0.0433825 0)
(1.01057 -0.000119837 4.75953e-25)
(1.01244 0.000998298 2.52468e-22)
(1.01443 -0.000973814 2.69562e-23)
(1.0136 -0.000650593 -6.04389e-24)
(1.01646 0.00305897 6.68725e-22)
(1.01671 0.00337654 1.35928e-21)
(1.01327 -0.00048348 -1.46549e-24)
(0.99672 0.0118657 7.91402e-22)
(1.01562 0.00304085 -4.30519e-22)
(1.01552 0.00295288 4.21803e-22)
(1.0194 0.00166073 1.92139e-21)
(1.01594 0.0114678 -5.37961e-23)
(0.303761 -0.0982294 0)
(1.04346 0.00697119 -4.93946e-21)
(1.06679 0.0312694 0)
(0.570675 0.0586451 8.51061e-21)
(1.01351 -0.000292172 0)
(1.01583 0.00306048 0)
(0.590183 0.0610422 0)
(1.01923 0.00632283 0)
(1.0521 0.0151486 2.59618e-21)
(0.45687 0.0729303 -9.95446e-21)
(0.348174 0.0698685 0)
(1.01793 0.00348461 -9.50738e-22)
(-0.0503657 0.026181 -2.54e-20)
(0.763793 0.0229257 -3.22494e-21)
(1.02399 0.00758788 1.98414e-21)
(1.01177 0.000718324 -1.9229e-24)
(1.01208 0.000412034 0)
(1.01615 0.00337812 0)
(1.01659 0.00122975 -1.89854e-25)
(0.987113 0.0189972 1.91461e-22)
(0.343489 0.0663837 1.31711e-20)
(1.06115 0.0158474 -7.74905e-21)
(0.958826 -0.00607129 0)
(1.03183 0.0141129 2.66724e-21)
(1.07275 0.0635613 -5.49538e-21)
(1.01033 -9.91182e-05 -7.39199e-24)
(1.01304 0.000798406 0)
(0.290959 0.0650008 -7.13598e-21)
(1.01388 -0.000325765 5.65141e-25)
(1.02244 0.00197354 0)
(0.75112 0.0196043 3.44244e-21)
(1.02346 0.0252295 0)
(1.06151 0.0584698 0)
(1.027 0.00258847 1.41486e-21)
(1.01114 -0.000166215 -5.72282e-24)
(1.01878 0.00593284 2.60485e-22)
(0.893404 0.0139362 4.96335e-23)
(1.02801 0.00287146 -2.77997e-21)
(1.01862 0.0061018 0)
(0.422867 -0.0914403 0)
(-0.08537 -0.0328914 1.47224e-20)
(1.013 0.000777846 1.49197e-24)
(1.01155 0.000624073 -7.7208e-23)
(1.04545 0.00978567 3.59737e-23)
(1.01416 -0.000210541 -1.17436e-23)
(0.908933 -0.00776238 -5.24115e-23)
(1.01592 0.00311729 -5.45698e-22)
(0.86841 -0.0216905 -1.00086e-22)
(1.01052 -0.000110268 0)
(0.953968 0.0794233 0)
(1.03144 0.0261188 0)
(1.02194 0.0198268 0)
(1.02102 -0.00413479 0)
(1.01765 0.00636049 1.25581e-22)
(1.02832 0.00503172 6.88666e-24)
(1.01971 0.00169194 -1.30933e-21)
(-0.0653743 -0.0399767 2.48876e-22)
(1.01107 -0.000157182 1.25843e-23)
(1.01783 0.00963691 -4.11339e-22)
(1.01041 4.75892e-05 -9.83247e-25)
(1.02106 0.0250171 0)
(1.01041 2.50353e-05 0)
(0.840265 0.0646161 2.13141e-20)
(1.02717 -0.00427106 -3.38636e-22)
(1.03779 0.0142166 -5.94929e-21)
(1.01152 0.000607902 7.64414e-23)
(0.895598 0.0116867 -1.23865e-23)
(1.02947 0.00742729 0)
(1.02378 0.0257931 -3.33547e-22)
(1.06548 0.0712704 1.25736e-21)
(0.893931 0.00598131 -4.33171e-23)
(1.03393 0.000337626 2.77172e-21)
(1.01376 0.000941277 4.31308e-23)
(1.02037 0.008988 0)
(1.01683 0.00146239 4.53743e-22)
(1.07747 0.0301984 3.74928e-21)
(1.01233 0.000463409 -1.42344e-23)
(1.02999 0.0173743 -2.8543e-21)
(1.05925 0.0188757 3.69687e-21)
(0.742333 -0.0346862 0)
(1.01161 0.00065463 -1.50767e-22)
(1.03759 0.0223532 5.81415e-21)
(1.01536 0.00038049 0)
(1.01936 0.0064075 1.24571e-21)
(1.0202 -0.00373057 0)
(1.03155 0.0138171 4.08703e-24)
(1.0169 0.00728459 -4.03168e-23)
(1.0104 5.1808e-05 -3.99907e-25)
(1.02981 0.00740045 -2.25665e-21)
(1.01008 -2.53766e-05 -5.02164e-24)
(1.01684 0.00336679 0)
(1.01267 0.000711493 0)
(1.01391 -0.000458834 7.18607e-24)
(0.852479 0.0175324 -8.36512e-22)
(1.01323 0.000300008 0)
(1.01043 4.33828e-05 3.76029e-26)
(1.01096 0.000251564 0)
(0.858462 -0.00344046 0)
(1.01563 0.000900104 -3.12449e-25)
(0.856769 0.0289693 0)
(1.01209 0.000150436 -3.9404e-22)
(1.01489 0.00237894 0)
(0.984785 0.0344922 0)
(1.01061 4.94077e-05 0)
(0.869514 -0.00100809 0)
(1.01931 0.00199078 -6.32817e-22)
(1.02135 0.0219078 5.21534e-22)
(1.02328 0.00185885 -1.89575e-21)
(1.01226 0.000952856 0)
(1.01045 0.00015244 5.20201e-25)
(1.01407 -0.000969789 -8.70029e-24)
(1.01405 -0.000241456 1.36747e-25)
(0.103037 -0.00780629 -2.82388e-21)
(1.0229 0.00623687 8.85067e-22)
(0.857237 0.000673982 -2.27226e-22)
(1.05282 0.0149187 -2.72097e-21)
(1.06571 0.0325886 -8.00032e-21)
(1.01383 0.00162647 1.91077e-22)
(0.274107 0.0566379 -2.97068e-21)
(1.01819 0.00916801 9.75043e-23)
(1.01222 0.000932003 0)
(1.04951 0.0584839 0)
(1.01429 0.00192647 0)
(0.968888 0.0288499 0)
(1.02553 0.0709417 -2.76511e-21)
(0.872645 -0.00804651 3.95779e-23)
(1.02022 0.00851882 1.25422e-22)
(1.00919 3.97003e-05 2.35617e-23)
(1.01423 0.00190461 0)
(1.01745 0.000176887 1.76003e-21)
(1.01733 0.00735425 2.50593e-23)
(1.01358 -0.000322973 0)
(1.02721 0.0217627 0)
(1.00879 0.000162911 -2.44048e-22)
(1.02853 -0.000322878 -5.98371e-22)
(1.01674 0.00147599 -1.35991e-21)
(1.01382 0.00164518 4.7059e-22)
(1.01378 0.00160572 -1.25615e-22)
(1.01496 0.0022495 -5.49608e-23)
(1.04361 0.0053376 5.70075e-21)
(1.02011 0.00837353 -1.03997e-22)
(1.01034 -9.58689e-05 -1.03319e-23)
(1.03981 0.0262122 7.4594e-22)
(1.0149 0.00195471 0)
(0.945959 -0.022945 0)
(0.0910903 0.0214274 -1.33573e-21)
(1.02145 0.00968187 1.41332e-22)
(1.02288 0.00701986 -1.89498e-21)
(1.01792 0.00118302 -1.04123e-21)
(0.838797 -0.0158862 -1.05676e-22)
(0.0983229 0.00376726 -2.14615e-20)
(1.02558 0.0250642 1.28415e-22)
(1.06012 0.0186518 -4.95669e-21)
(1.01317 0.000829821 0)
(1.01247 0.000649337 7.17668e-23)
(1.04298 0.00523366 -4.0313e-21)
(1.01264 0.000108337 0)
(1.01495 0.00186048 -4.32849e-23)
(1.01581 0.00314179 5.40413e-22)
(0.884316 0.0206439 7.86787e-22)
(0.66997 -0.0402048 0)
(0.986806 -0.018148 1.36337e-22)
(0.949553 0.0274985 0)
(1.0127 0.000231575 -7.52858e-22)
(1.03034 0.0552826 -5.92761e-23)
(1.06575 0.0319049 6.66037e-21)
(1.01027 1.88262e-05 0)
(1.01288 0.000747925 -8.97011e-23)
(1.02582 -0.00509661 3.63669e-22)
(0.41257 0.0419578 -1.44545e-21)
(0.827295 0.0492801 2.24439e-22)
(0.480921 0.0648715 -2.03837e-22)
(0.655263 0.0798295 7.36923e-21)
(0.837008 -0.0206843 7.38731e-23)
(0.989507 0.0325005 1.08485e-22)
(0.078279 0.0160305 0)
(1.02595 0.0247762 -1.28197e-23)
(1.06024 0.0155022 0)
(1.01337 -0.000306389 0)
(1.01092 3.32449e-05 -9.88792e-26)
(1.07524 0.0416635 1.18365e-20)
(1.01279 0.000738546 4.61531e-23)
(1.02873 -0.00533923 0)
(0.656433 0.0780026 -2.78386e-21)
(-0.0553605 0.0229448 3.01736e-20)
(1.06067 0.0179398 4.32248e-21)
(1.06047 0.017275 7.47484e-21)
(0.569619 -0.04798 0)
(0.998667 0.0108696 -1.98857e-21)
(1.01925 0.00626543 -6.06279e-22)
(0.897117 -0.00680744 0)
(1.02015 0.00818142 0)
(1.04507 0.0618611 0)
(1.0157 0.00234724 4.55524e-22)
(0.869134 -0.0251345 -1.01706e-22)
(1.02707 -0.00422929 1.10111e-23)
(1.01278 0.000519562 9.80508e-26)
(0.54291 -0.0468316 -4.88052e-22)
(0.982618 0.0375104 5.92777e-23)
(0.990203 -0.0185805 -1.94304e-22)
(1.04531 0.00200285 -4.27272e-21)
(1.01889 0.00197866 5.70668e-22)
(0.879276 -0.0138819 4.85377e-23)
(1.01654 0.00137719 1.48134e-23)
(1.01421 0.00194691 0)
(1.04579 0.00163991 2.08754e-21)
(0.892562 -0.00891736 0)
(1.06952 0.0247225 -3.44645e-21)
(0.452818 0.0727955 1.83841e-21)
(0.980996 0.0794618 0)
(1.01423 0.00103363 -8.00825e-24)
(1.01574 0.00270921 2.67402e-22)
(1.01758 0.00582408 -1.39266e-22)
(1.02327 -0.00437212 2.24273e-22)
(1.02272 0.00683834 1.91982e-21)
(1.01801 0.00114554 0)
(-0.0798854 0.00721981 -1.04406e-20)
(0.668722 0.073014 -2.65855e-21)
(1.07586 0.0687731 0)
(0.680519 0.0730386 8.57363e-21)
(0.487107 0.0753146 0)
(1.01027 -8.72636e-05 2.39662e-24)
(1.01963 0.00156993 -7.27882e-22)
(1.01495 0.00292314 2.45428e-23)
(0.895087 -0.0266943 0)
(0.053618 -0.0242938 -1.33927e-20)
(1.00069 0.0321059 2.52202e-22)
(1.01567 0.00233277 1.26207e-22)
(1.01577 0.000920257 4.90863e-25)
(0.891567 0.0506046 0)
(1.01878 0.00596494 2.29045e-22)
(1.01933 0.00636741 -8.76588e-22)
(0.791422 0.0804491 0)
(0.108413 -0.00356199 -9.04609e-22)
(1.01957 0.00653315 -2.36304e-22)
(1.02838 0.00988453 0)
(1.01925 0.00624051 6.53438e-22)
(1.01787 0.00648856 0)
(1.0134 -0.000547416 -1.17003e-23)
(1.08239 0.0618278 4.87873e-22)
(0.832315 0.00404595 0)
(1.00985 1.85686e-05 2.38415e-24)
(0.11216 0.00685731 0)
(1.01191 -1.66108e-05 0)
(0.89933 0.0472032 -3.06341e-22)
(1.0091 -0.00438187 -7.32592e-23)
(0.884718 0.0827145 5.607e-21)
(1.02512 0.071984 0)
(1.0263 0.00245733 0)
(1.01805 0.00566897 0)
(1.03022 -0.00241158 -1.0883e-22)
(1.04545 0.0496346 0)
(1.01671 0.00320876 -3.79295e-22)
(0.891668 -3.09584e-05 7.13948e-24)
(1.02643 0.0280484 6.45427e-22)
(1.02702 0.00206611 0)
(1.01367 -0.000334598 0)
(0.80351 0.0651747 0)
(1.02067 0.0067531 0)
(0.947571 -0.0223476 -4.0722e-23)
(0.705983 -0.0335526 -2.87763e-23)
(1.01445 0.000453818 1.24165e-23)
(1.02009 0.00804795 3.76876e-22)
(1.02138 0.00676006 -1.06492e-22)
(1.01617 0.00336611 0)
(1.04139 0.003782 -4.74562e-21)
(1.01029 -7.74307e-05 1.03192e-23)
(0.848377 0.00447753 0)
(0.848123 0.0784158 0)
(1.00089 0.0300608 0)
(1.09561 0.059874 8.37309e-21)
(0.428983 0.0726945 6.63119e-21)
(0.978316 0.0282994 -1.99615e-23)
(1.05602 0.00720578 0)
(1.01364 -0.000372602 1.28241e-23)
(1.0159 0.00319861 -2.56583e-22)
(1.02989 0.00694673 -1.22881e-22)
(0.949227 -0.0227243 3.32305e-23)
(1.02143 0.00655731 2.50611e-23)
(1.01086 0.000179975 -3.4674e-23)
(1.01667 0.00144842 0)
(1.01872 -0.00233793 1.71488e-23)
(1.01653 0.00158855 -1.50142e-23)
(0.562489 0.0368953 2.28549e-20)
(0.964283 0.0392566 6.58796e-22)
(1.01113 -0.000178242 9.2714e-24)
(1.01806 0.0039099 -5.84981e-23)
(0.365053 -0.0883502 1.47892e-20)
(0.86047 0.00249048 1.93085e-22)
(0.120602 -0.0229762 0)
(1.02164 0.00716043 6.63236e-23)
(0.892711 0.0108872 -2.15737e-23)
(1.02035 0.00746685 0)
(1.01812 0.0102266 -1.11501e-22)
(1.03072 0.00132515 -5.0058e-21)
(1.02336 0.00606378 0)
(1.02691 0.0735307 1.10738e-20)
(0.97709 0.0283639 -1.28733e-22)
(1.01976 0.00153033 -6.88049e-22)
(1.01237 0.000951526 -2.59109e-22)
(1.01056 8.3594e-06 6.01511e-24)
(1.01266 -0.000381841 1.57213e-24)
(1.02004 0.0237464 8.37843e-23)
(1.01075 1.35963e-05 -2.04491e-23)
(1.02169 0.00694386 0)
(-0.0294711 -0.0388384 -4.34141e-21)
(1.08209 0.0424478 -7.87062e-21)
(0.85219 -0.0395615 1.13006e-22)
(1.02431 -0.0016606 1.15114e-21)
(0.859828 -0.0377952 -1.02897e-22)
(1.07432 0.0419881 -2.06541e-20)
(0.988598 -0.00768711 -5.14159e-23)
(0.895257 -0.0272958 -9.46989e-23)
(1.0181 0.0038614 5.62851e-22)
(0.332322 -0.041814 -9.42982e-22)
(1.01535 0.000352217 0)
(0.859008 0.00609193 3.63323e-23)
(1.0124 0.000449178 1.40755e-23)
(0.998557 -0.0137654 -2.40305e-21)
(1.01083 3.91733e-06 2.15534e-23)
(-0.0228825 0.0464225 -3.89994e-21)
(1.01265 -0.000291341 -2.52447e-24)
(1.06394 0.0335788 5.97629e-21)
(1.0187 0.0059068 -2.237e-22)
(0.988899 -0.0199641 5.12687e-23)
(0.985294 -0.00655892 -5.7929e-22)
(0.985789 0.0356122 0)
(0.325428 0.063792 -3.12045e-21)
(0.290342 0.0631831 0)
(1.01772 0.00452121 0)
(1.01427 0.00196832 0)
(1.01485 0.00100461 -8.67711e-23)
(1.01719 0.00155448 5.68101e-23)
(1.01374 0.00091617 -4.82529e-23)
(1.02869 0.00994629 0)
(1.01049 8.68357e-06 0)
(1.01253 -0.000285388 5.36743e-24)
(1.01883 0.00212586 -2.31072e-21)
(0.895834 0.00394862 -7.2267e-24)
(1.01043 1.1949e-05 0)
(1.0101 -7.53717e-05 7.0867e-24)
(1.01041 1.56449e-05 9.28467e-25)
(1.02211 0.00653905 -1.31838e-21)
(0.877232 0.0449567 0)
(1.01339 0.000875972 4.4321e-23)
(1.02625 0.00568533 -1.70515e-22)
(0.676698 -0.0303228 1.33655e-22)
(1.02393 0.0132279 1.02414e-21)
(1.01669 0.00352333 2.49769e-22)
(0.419129 -0.0228633 -1.66115e-22)
(1.0182 0.00409205 0)
(0.44958 0.0631546 1.36128e-22)
(0.898031 0.00883259 1.32959e-23)
(1.01685 0.00352815 -6.49869e-22)
(0.671675 0.0642597 -4.08725e-21)
(1.01584 0.0030961 0)
(1.01997 0.000608786 -9.3925e-23)
(0.377533 0.0662192 -1.32419e-21)
(1.04403 0.00725232 0)
(1.02768 0.00769965 -3.34302e-22)
(1.0209 0.00824969 0)
(0.896596 -0.0279409 4.24373e-23)
(1.01383 0.000307187 4.05804e-22)
(0.315525 -0.0968614 1.27252e-20)
(0.785125 -0.0239626 3.58718e-23)
(1.0081 2.80523e-06 -1.71414e-23)
(1.01327 -0.000300548 0)
(1.02668 0.0014433 0)
(0.872018 0.042186 7.14351e-23)
(1.0176 0.00445013 3.85352e-22)
(0.434467 -0.0257929 4.19172e-22)
(1.02651 0.0250856 2.09267e-21)
(1.01363 0.001482 4.57032e-22)
(1.01422 0.00192346 0)
(1.00832 3.69765e-05 0)
(0.998784 0.00873277 4.26042e-22)
(1.03714 0.006084 0)
(1.01093 0.000181446 -2.8327e-23)
(1.03051 0.00110085 3.68653e-21)
(1.02854 -0.00167448 5.47542e-22)
(1.01212 0.000380327 0)
(1.01655 0.00297251 0)
(1.01362 -0.000293345 0)
(0.111492 0.0119425 -3.71523e-21)
(0.893369 0.0123391 1.55989e-23)
(1.01582 0.00036458 -6.24812e-22)
(1.01888 0.0036299 -1.39039e-21)
(1.05311 0.0111573 -6.03524e-21)
(0.450276 -0.0151707 -3.27245e-22)
(0.972443 0.0327471 0)
(1.04023 0.0257164 0)
(-0.0291343 0.0447276 -2.12082e-20)
(0.453849 -0.0916987 1.00667e-20)
(1.03805 0.0146233 2.52431e-21)
(1.0799 0.0692744 1.1049e-20)
(1.02128 0.00952481 -1.2967e-22)
(0.896411 0.0114987 2.13652e-24)
(1.04144 0.0255049 1.6549e-21)
(1.03575 0.00648533 -4.22031e-21)
(1.02837 -0.00459285 -8.85981e-24)
(1.04882 0.0593373 3.02136e-21)
(1.01849 0.00604051 0)
(1.03424 0.00974748 -2.88773e-21)
(0.973092 -0.0276439 5.28982e-22)
(1.01565 0.00302717 -2.49327e-22)
(1.01119 0.000302092 0)
(0.714703 0.07397 -2.43863e-20)
(1.07274 0.0447054 2.36719e-21)
(1.03124 0.00227504 3.21637e-23)
(1.0092 3.60602e-05 1.28331e-23)
(1.01816 0.000196535 -1.05308e-21)
(1.02356 0.00644541 0)
(1.01708 0.000246166 -8.04264e-22)
(1.00967 -5.55064e-05 -2.6063e-22)
(1.01053 -9.95004e-05 1.5552e-23)
(0.914306 -0.0196466 -1.58773e-23)
(0.848396 0.0242225 -2.48866e-22)
(0.941247 0.0248054 0)
(1.01205 0.000395786 0)
(1.02196 0.00637338 8.90494e-22)
(0.891956 -0.0276223 3.51846e-23)
(1.0178 0.00339649 -3.19752e-24)
(1.014 -0.000300656 -1.16834e-23)
(0.984183 0.00534757 0)
(1.02786 -0.00536523 0)
(0.83802 -0.0122244 -3.00821e-23)
(1.04602 0.0101488 0)
(1.08414 0.0621486 -8.3994e-21)
(0.972598 0.0284671 8.23286e-22)
(1.01209 -0.000278608 5.44905e-24)
(1.01326 -0.000457087 -5.57161e-24)
(1.02832 0.00646595 1.54796e-22)
(0.977577 0.0454598 0)
(0.401399 -0.048231 2.58853e-21)
(0.850917 0.0416163 0)
(1.01128 0.000310125 4.03049e-25)
(0.106474 -0.0173386 3.98449e-21)
(1.0339 0.00942148 -4.22429e-21)
(1.01313 -0.000429849 2.18058e-25)
(-0.00449572 -0.0050061 -6.53192e-21)
(1.01428 0.00194676 2.46505e-22)
(1.01711 0.00382404 -3.56974e-22)
(0.769319 0.0280454 0)
(1.05444 0.0567497 5.40519e-21)
(1.01176 0.000371276 0)
(1.04606 0.0312482 0)
(1.01664 0.0021191 0)
(1.01474 0.00125625 4.21068e-23)
(1.03563 0.00556926 0)
(1.0505 0.0318229 2.99886e-21)
(1.03097 0.00205809 1.45175e-21)
(1.02097 0.0247298 0)
(1.01193 8.7765e-05 0)
(1.02396 0.0147719 -1.11662e-21)
(1.02937 0.000772109 -3.63965e-21)
(1.0201 0.00784546 -5.27978e-22)
(1.03066 0.0566281 3.59548e-22)
(1.09044 0.0610833 0)
(0.609069 0.0514503 0)
(1.01538 -0.00654279 7.87002e-23)
(1.01016 -8.12529e-05 -6.55637e-24)
(1.02214 0.0253214 0)
(1.07825 0.0384029 2.97754e-21)
(0.535831 0.0595767 5.8921e-23)
(1.01477 0.00131328 1.0327e-22)
(1.01993 0.0220906 3.13612e-22)
(0.699607 -0.0291717 3.24769e-23)
(1.01888 0.00354649 2.02691e-21)
(0.988361 0.0753848 -1.22279e-20)
(0.90955 -0.0182426 5.26333e-23)
(0.840291 -0.00715741 -3.33722e-23)
(1.0083 0.000116494 0)
(1.01091 0.000165048 4.89084e-23)
(0.353493 0.0483094 2.16979e-22)
(1.0209 0.00628781 -1.37815e-21)
(1.01513 0.000344293 -5.8592e-22)
(0.865691 0.0075421 3.50106e-23)
(1.01777 0.000154534 -6.71124e-25)
(1.01929 0.00170503 -6.21403e-22)
(1.04497 0.0484693 0)
(1.01224 0.000933181 0)
(1.01944 0.00270331 0)
(1.02878 -0.00494117 3.51933e-23)
(0.864636 0.0110833 -6.23325e-23)
(-0.0275702 -0.0390649 0)
(0.727087 0.0740185 1.12035e-20)
(-0.00752045 0.0491209 0)
(1.01113 -0.00018248 3.33478e-24)
(1.01913 0.00623627 -4.91634e-22)
(1.02873 -0.00578652 -3.39417e-23)
(0.946799 0.0326138 -2.3967e-22)
(0.446943 -0.0153181 8.72484e-24)
(1.0148 -0.00131137 3.1598e-23)
(0.952793 -0.0224634 0)
(1.04528 0.0309955 7.60942e-21)
(1.02127 0.0172434 0)
(0.641244 0.0517665 1.94275e-20)
(1.0166 0.00208823 0)
(0.0103765 -0.0188038 2.87796e-21)
(0.854965 0.0685376 1.10222e-23)
(1.0154 0.00286794 3.79326e-22)
(1.01824 0.00481176 -4.34723e-22)
(1.01048 1.3445e-05 0)
(1.01463 0.00195492 -7.70973e-22)
(0.854119 0.0102386 5.88986e-23)
(1.01324 0.00133662 1.00911e-22)
(1.05167 0.012171 6.77826e-21)
(1.01239 0.00100195 0)
(1.01319 0.00130658 0)
(-0.0590356 -0.0454287 9.51789e-21)
(0.95911 0.0333007 0)
(0.904746 0.00375858 1.51369e-23)
(1.01028 -8.32242e-05 -8.98968e-24)
(1.01296 -0.000369381 0)
(1.01306 -0.00655396 5.0648e-23)
(1.01822 0.00403705 7.36499e-23)
(0.68224 0.0658045 7.29946e-21)
(1.01033 3.64856e-05 -4.25365e-22)
(1.02002 0.00773605 1.95049e-22)
(1.0343 0.0193673 2.00945e-21)
(1.0022 0.0163573 3.11347e-22)
(1.02998 0.000509961 9.09004e-22)
(0.315153 0.0657095 0)
(0.891269 0.0271054 1.08459e-23)
(1.05197 0.0575581 -2.00556e-23)
(1.02064 0.00650777 0)
(1.02041 0.0209282 2.8606e-23)
(1.01377 0.00161356 -5.19703e-22)
(1.05683 0.053257 6.07275e-21)
(1.01373 -0.000395046 -3.97879e-23)
(0.488462 -0.0414863 -8.5038e-22)
(1.09705 0.0624462 6.73298e-21)
(1.00828 -0.0103558 -6.70178e-23)
(1.03275 0.0730061 0)
(0.889741 0.0279132 3.60694e-23)
(1.0208 0.0029491 -4.40902e-22)
(1.03399 0.0196226 2.0516e-21)
(1.01398 0.00473708 3.50184e-22)
(1.07031 0.0419937 0)
(1.01523 0.000982227 0)
(1.0038 0.0168292 -4.06173e-22)
(1.09479 0.0621041 -1.1968e-20)
(1.01242 0.00102233 0)
(0.495788 0.000388755 -1.82238e-21)
(1.04733 0.00829828 2.01436e-21)