/*--------------------------------*- C++ -*----------------------------------*\
| =========                 |                                                 |
| \\      /  F ield         | OpenFOAM: The Open Source CFD Toolbox           |
|  \\    /   O peration     | Version:  v2012                                 |
|   \\  /    A nd           | Website:  www.openfoam.com                      |
|    \\/     M anipulation  |                                                 |
\*---------------------------------------------------------------------------*/
FoamFile
{
    version     2.0;
    format      ascii;
    class       volScalarField;
    location    "350";
    object      ddt0(epsilon);
}
// * * * * * * * * * * * * * * * * * * * * * * * * * * * * * * * * * * * * * //

dimensions      [0 2 -4 0 0 0 0];


internalField   nonuniform List<scalar> 
33474
(
1.71905e-10
-1.9183e-10
-0.00146779
-8.11607e-11
7.51376e-10
2.28477e-05
5.21949e-11
4.85427e-10
7.02896e-11
1.35398e-11
2.36592e-09
-2.99119e-10
-2.02639e-10
1.81662e-10
1.91026e-07
3.22859e-09
-2.1499e-10
2.25545e-08
0.00773664
-1.76369e-09
-1.40591e-10
1.08277e-11
-1.39724e-10
2.76087e-05
6.05165e-07
1.00841e-10
2.39795e-11
2.13316e-05
-0.000354556
-1.24221e-10
-1.48747e-11
3.03837e-09
-1.88415e-05
6.66902e-10
1.34955e-07
9.80853e-08
1.13327e-09
2.12228e-10
-1.201e-09
1.00672e-07
2.64741e-11
-0.000324316
1.06034e-05
2.00737e-11
0.00023099
0.0301861
-1.61293e-13
-3.28984e-08
-1.73543e-10
-2.54286e-09
-1.55922e-10
-8.7186e-10
1.98305e-06
0.000397125
1.13728e-09
6.97898e-06
-1.87985e-09
7.49254e-11
0.000182606
-0.000330802
1.41381e-10
-7.27479e-10
-0.00209397
2.3353e-10
-5.10181e-11
-1.85498e-09
-0.0236766
0.000102031
-5.84288e-12
-0.000381506
2.35365e-10
-3.456e-10
-8.26766e-13
-1.49494e-11
-2.48412e-10
5.01267e-10
-8.78309e-10
2.98134e-11
1.33262e-09
3.86003e-09
-0.000426886
-4.08286e-12
-0.000216384
1.60152e-10
5.02735e-10
-0.000348506
1.62686e-08
2.47955e-06
0.00455474
-2.6275e-10
2.0185e-07
-2.21585e-09
2.42311e-08
4.22311e-11
-2.13448e-10
-5.56323e-10
-7.60986e-11
1.14497e-09
-1.25459e-11
0.00386877
3.2644e-12
4.51649e-07
0.000323475
2.02445e-10
7.5684e-08
0.000591959
3.82343e-06
-1.11052e-10
1.93851e-11
6.43118e-11
2.66358e-08
4.14512e-10
0.000350998
-5.09497e-10
1.53651e-08
-0.00292899
-1.59141e-09
-1.661e-10
1.96109e-10
-2.05803e-11
-1.43482e-10
-2.72181e-10
2.45039e-10
-1.54176e-10
6.97381e-07
-0.00255277
1.62113e-08
6.71508e-10
-0.00014557
-0.000381966
4.65606e-07
3.40868e-05
0.0224296
2.75666e-09
-1.58454e-10
1.08276e-10
-9.81413e-11
1.67932e-10
-1.53555e-10
-3.6394e-10
-0.000664406
-0.000549282
2.17604e-09
2.73938e-10
3.27891e-09
1.21072e-08
0.000141155
1.98413e-11
-6.42101e-10
-6.66323e-09
-2.50235e-10
1.54641e-11
8.45671e-12
2.5125e-10
-4.14554e-10
-4.40459e-12
-0.000348867
-2.34665e-10
9.91608e-09
-0.000430038
1.21087e-10
3.19469e-09
-0.000926413
-1.2717e-10
0.000303411
-5.58967e-10
-1.53591e-11
-1.24921e-10
8.18575e-11
1.02368e-10
1.37294e-08
-2.36773e-10
-9.27126e-11
0.000477635
1.05246e-09
-1.30572e-10
-0.000691494
-2.34148e-10
-2.20758e-05
-4.98374e-10
-2.40135e-10
6.60609e-10
8.13672e-11
-0.000536378
3.69448e-10
8.34502e-10
1.50822e-09
-0.000326928
-0.000832999
5.23003e-11
-2.47114e-10
-0.0329658
3.15407e-10
1.02006e-09
-0.0011483
2.2472e-09
-6.04186e-11
1.61398e-09
-0.000318968
1.0647e-09
3.70088e-11
-2.76849e-05
-3.70863e-10
-3.87213e-10
-6.56633e-10
1.26554e-10
0.000222664
-2.7228e-10
5.31212e-07
-8.82153e-07
-3.52161e-10
0.000106267
5.36603e-09
3.4476e-10
-6.14581e-11
-0.0277457
1.94299e-12
0.000424415
-3.61875e-10
-1.91846e-10
-3.22048e-07
1.21057e-10
6.26613e-11
3.30181e-08
2.89042e-05
1.2795e-10
1.31374e-07
-8.07832e-12
-0.000135408
0.000495113
3.92077e-11
7.08167e-05
6.22169e-10
-0.000336788
-0.000303925
-5.88883e-10
3.58786e-11
8.71473e-08
-3.76935e-10
-0.000203395
1.56525e-07
-0.00102471
5.057e-11
4.77143e-12
1.61943e-10
-0.000705684
9.05345e-09
3.61299e-10
1.55984e-05
1.44287e-10
0.000101397
7.7054e-10
-0.000269724
3.41652e-05
-7.95742e-05
-6.87421e-11
1.19614e-10
-7.00452e-10
-0.000607524
-0.000166264
-3.51698e-10
1.18945e-09
3.66457e-14
1.00711e-10
-8.91184e-10
5.85116e-10
-0.000216392
-1.28496e-09
4.08623e-11
1.83145e-10
3.24726e-10
-4.66946e-10
2.16613e-10
2.38902e-10
0.00218565
-8.15862e-11
8.54895e-08
-0.000219457
-1.06922e-09
9.00695e-11
2.37269e-09
7.89465e-10
-2.1818e-10
-1.30852e-10
4.11087e-10
1.39895e-10
-5.64439e-10
8.70028e-06
-2.20288e-10
4.532e-09
6.95336e-05
1.64273e-10
4.55022e-11
0.00294886
-0.000138795
0.000868719
-2.30822e-10
1.28984e-06
6.41436e-07
-2.99879e-08
0.000259496
-0.00063982
-0.000629381
-6.83808e-09
-2.09405e-05
2.82512e-10
-5.93905e-10
-0.000151204
0.000437829
1.72983e-10
-6.17909e-10
8.06901e-10
8.06382e-11
6.8427e-10
-2.08202e-10
-0.0140557
3.91839e-10
-1.91201e-05
-3.05708e-10
-0.000634962
-1.42139e-10
-9.49014e-10
2.02052e-10
-2.97857e-10
1.87616e-10
6.55057e-07
5.36229e-10
2.99366e-10
-5.97327e-13
1.18357e-09
-0.0196425
-3.47119e-11
-3.69289e-10
2.75175e-09
-6.30734e-11
-2.50915e-05
2.90575e-08
-3.38969e-11
0.00109021
1.53611e-05
2.6304e-12
2.61139e-05
-3.01327e-09
-2.56327e-10
6.3825e-10
3.68554e-05
2.09539e-09
9.05992e-12
-6.00253e-10
7.78979e-12
5.93112e-10
-0.00148126
-3.80881e-10
-0.000393376
-0.0011884
0.000401691
-0.0280197
0.0100471
2.50233e-10
4.14091e-10
-4.21962e-08
1.2823e-10
-0.000331709
4.71238e-10
-1.56534e-10
-0.000522179
-4.78001e-11
2.41044e-10
3.57322e-12
1.87265e-05
-7.22246e-11
-1.21977e-10
-0.00033067
1.46751e-10
1.69911e-10
6.17343e-06
-0.000617079
2.85227e-10
4.23214e-06
-1.8147e-10
0.000226074
0.000586077
1.1786e-09
7.08017e-12
3.9097e-08
-0.000982354
8.25647e-10
4.3928e-10
-3.1395e-10
-0.000349051
0.000443079
7.95509e-12
2.56045e-09
4.59483e-06
-5.09543e-11
2.0028e-10
1.95022e-11
1.66589e-08
1.919e-10
1.52182e-10
-6.68554e-06
0.00068895
4.46882e-11
-9.03928e-09
-2.08674e-11
1.70122e-11
-9.80194e-05
-1.54926e-08
5.14139e-10
-3.7115e-12
-4.60915e-10
0.000336667
-1.80096e-11
-0.000346633
-6.81623e-10
3.53406e-11
3.37497e-11
-0.000438109
2.34615e-10
-0.000359587
-6.52258e-10
-0.000439394
-0.000720387
-1.06805e-09
0.000237833
4.08679e-10
1.05737e-05
-0.00058963
3.35767e-09
0.000357167
1.37159e-10
-6.10987e-05
0.00259228
1.46323e-09
1.74573e-11
-1.13543e-09
4.78095e-10
6.59913e-10
8.25783e-11
1.15905e-10
-1.13545e-09
2.61639e-11
-5.30495e-10
5.11547e-12
0.00165863
-0.000734351
3.14634e-11
-2.42606e-10
-8.63381e-12
-1.28908e-10
-3.75493e-11
0.000136062
-6.12699e-10
-4.57241e-10
-0.00191569
-5.82317e-11
3.044e-11
1.99054e-10
0.000123784
7.78389e-10
-0.000586659
-7.4819e-05
0.00214632
-0.000183752
3.39238e-06
0.000644489
-1.32896e-10
0.000446387
4.19472e-11
-3.24136e-10
-0.000396965
7.01177e-11
-0.000232684
0.000503785
-0.000536463
-2.91577e-09
-5.04681e-11
3.30953e-10
-1.891e-10
8.65836e-10
-0.000670372
5.87344e-10
0.00034042
0.0154743
2.44118e-10
-0.000147482
0.00157201
5.96216e-11
0.000636768
-1.01606e-11
3.11173e-10
8.94337e-10
-0.0197037
-1.55957e-10
9.19019e-10
-5.55752e-11
-5.31849e-10
-4.54757e-10
-0.000357421
1.27202e-10
0.000140962
1.22667e-10
-4.86758e-10
0.000471611
1.49921e-09
-1.09892e-07
0.000183115
7.43189e-10
-8.35219e-05
-0.000403799
0.00415944
1.40323e-08
2.75247e-11
-6.77264e-11
-6.37814e-10
-0.000140385
-9.8992e-10
0.000172219
9.93287e-05
-3.43689e-10
3.03096e-10
-4.66332e-10
-0.000519292
-2.56333e-10
4.70305e-07
1.28393e-07
0.000166649
-0.00105684
1.11537e-05
-2.02773e-10
4.3474e-10
-1.95986e-08
-2.40729e-10
-0.168637
7.99599e-11
0.00851432
7.33988e-10
0.000198438
0.000264011
-1.4554e-09
0.0105923
2.56118e-06
-2.73937e-09
-1.61955e-10
-4.03878e-09
-0.000428119
-0.00236251
4.82465e-11
0.000256426
-5.40207e-05
-4.37775e-12
2.24682e-07
-1.51458e-10
-0.00543916
4.35748e-10
2.21985e-10
-2.14488e-09
-2.77464e-11
1.14453e-10
0.000790175
-3.3146e-10
-9.44198e-10
-2.28896e-12
1.05978e-09
-9.83975e-11
-7.62111e-10
0.00212851
3.10083e-10
4.82141e-05
4.05683e-06
7.07538e-10
-5.88478e-11
-2.9744e-07
6.76035e-10
0.000454629
1.69673e-10
1.50949e-10
0.000751674
2.75517e-10
-1.16829e-10
-6.60816e-10
-4.15678e-05
-0.000159302
-0.000399187
3.89466e-10
-2.69307e-11
8.91939e-05
-0.000235282
-2.73682e-10
-1.70589e-09
-1.45757e-09
-2.40423e-10
0.00418995
-1.88786e-09
-3.72515e-12
-2.54162e-10
-1.66297e-10
-9.27183e-11
-0.000146
1.00142e-10
-0.000562259
1.05889e-10
-1.34186e-10
-7.61343e-11
-7.61788e-05
-3.69317e-10
-1.2166e-07
-5.15061e-12
-1.51586e-08
6.81076e-10
1.04056e-10
5.89551e-10
1.02327e-08
1.32113e-12
5.98394e-10
5.45297e-05
0.000233114
-1.89438e-09
-2.23317e-11
1.72739e-10
-6.29197e-10
0.000163969
1.0148e-08
4.48155e-07
0.00164193
1.09036e-10
-1.59984e-10
-1.08156e-09
2.46655e-10
4.77092e-10
-5.69312e-11
7.66771e-05
-1.81118e-10
1.23326e-08
0.000509538
6.179e-05
2.72087e-10
-0.0395198
-0.000610499
0.000358028
-0.000633342
1.867e-10
-2.42739e-11
1.03738e-07
0.000609102
2.20415e-06
0.000346242
-2.68521e-10
-2.24684e-08
6.22994e-11
7.01418e-05
-3.88785e-10
8.44861e-08
6.80548e-09
1.56479e-09
1.16712e-12
-4.91074e-11
1.60994e-10
1.64163e-07
1.58083e-08
-2.19799e-10
1.79567e-11
-2.75111e-05
3.51713e-10
0.0012986
9.65019e-11
0.000172099
2.63474e-10
0.00046748
2.32862e-08
0.0001836
-0.000246882
-6.77314e-12
-0.00290381
7.53268e-10
7.97167e-10
-2.18967e-05
-1.38961e-09
2.5753e-10
2.27838e-10
9.79048e-12
-2.7282e-09
-2.615e-11
5.73916e-10
9.35363e-05
-6.96672e-10
9.01946e-11
-0.0218257
3.20182e-05
2.6082e-05
-0.00147348
0.000399867
0.000396006
2.14558e-10
6.05625e-05
1.47801e-10
8.42749e-10
-1.86139e-09
-0.000530514
-4.65375e-10
-1.72464e-07
1.98438e-12
1.85446e-05
-4.71046e-06
-1.39613e-08
3.88071e-11
-5.59026e-12
1.53123e-09
-0.00057067
1.60088e-10
-1.46724e-10
-5.58033e-10
-6.75031e-08
0.000423707
7.20209e-11
1.33604e-05
-2.33392e-10
-0.0512039
1.14247e-08
7.44848e-11
-5.82085e-11
-2.86199e-11
8.17854e-10
-9.9385e-11
1.53923e-11
-5.39199e-11
7.33586e-10
4.25092e-10
0.000708987
5.75838e-11
2.58379e-05
0.000117451
-7.38343e-11
5.03987e-08
4.27356e-07
3.1845e-11
1.03449e-09
9.88323e-11
-4.22689e-10
-0.000746052
-1.26513e-10
6.99735e-10
-2.76957e-10
-0.000678048
-0.0146156
7.09364e-05
-0.00125045
-0.000354468
-2.88008e-10
1.53222e-09
0.000433399
5.40962e-08
2.47508e-09
2.89346e-10
-1.05542e-09
2.66651e-10
-8.92353e-11
0.000182721
-3.07146e-10
0.000203547
-4.24574e-10
1.98489e-09
8.34713e-08
6.97519e-08
-1.56337e-14
-0.000537623
1.16013e-11
-2.47739e-10
1.26601e-11
-0.000578692
-9.01418e-05
1.04837e-09
-5.37837e-10
0.000104099
3.08019e-10
0.000429172
1.51917e-10
0.000686959
1.88948e-10
-7.40434e-10
0.00174975
1.64897e-07
0.000236349
-0.0101961
1.19456e-10
1.19402e-10
5.53765e-10
-1.59023e-10
-0.000452003
-4.457e-10
2.44122e-07
-9.59881e-11
1.3604e-09
-0.000500393
-1.50898e-09
-0.000299827
5.86856e-09
-1.41837e-05
-2.4178e-05
0.000131257
-1.01922e-10
2.08412e-11
-3.03069e-11
-1.99716e-06
2.78699e-07
1.58536e-08
6.38967e-12
6.49933e-10
0.00335528
0.000452359
1.03072e-05
3.50646e-10
-6.4507e-08
-1.29799e-10
1.53506e-10
-1.09929e-10
-7.95719e-11
1.30373e-06
2.00045e-10
1.36783e-07
-3.53506e-10
-1.1079e-11
4.47172e-06
-9.90336e-12
-1.58175e-10
0.000258344
9.15312e-06
-4.57873e-11
-0.000517742
3.53606e-10
-1.65926e-10
-1.91136e-10
2.57939e-10
-3.6079e-12
-7.79864e-11
-1.68998e-10
-0.000823235
-0.000108263
-2.57339e-10
6.67747e-10
0.00428073
1.30043e-06
6.27609e-10
-3.67777e-10
-2.34568e-10
1.23191e-10
2.50404e-10
4.26679e-11
-8.02882e-09
2.53039e-11
0.000381227
1.64473e-10
0.000278518
-4.46888e-10
-4.15815e-11
-1.15259e-10
3.15163e-05
-3.00861e-10
-8.13111e-10
0.00299801
-3.20468e-09
-5.6384e-10
2.20959e-05
-0.00054735
0.000187991
0.000130163
-2.0503e-07
-0.00238567
-2.57057e-10
0.00439155
-0.000544589
1.18244e-10
0.000511647
0.00084038
1.16932e-10
3.55406e-06
2.8279e-10
-2.5415e-11
0.000347185
-0.00161617
2.19436e-06
9.75041e-06
-0.000140442
-9.24403e-11
6.48595e-10
-2.62019e-10
-4.84347e-10
-7.52425e-10
8.33204e-10
-0.00140942
-0.000226901
-1.34709e-10
-6.94682e-11
4.97062e-05
-3.4691e-09
1.5495e-10
5.74992e-06
-6.00555e-10
-0.000163407
2.91712e-10
0.000347686
-0.000576937
-0.000140798
5.51688e-10
8.24663e-10
4.99054e-10
2.24099e-10
8.40467e-11
-1.88953e-09
-2.08933e-07
-4.86849e-09
7.59485e-08
-1.19785e-10
7.28425e-11
0.0166356
-0.000131938
5.02169e-08
-0.000792937
-2.56393e-10
-9.24437e-10
-7.27091e-11
4.01176e-10
-8.10106e-10
2.7265e-05
2.25996e-07
0.000212736
3.3255e-10
0.000411296
1.48494e-10
-0.000462418
-5.96645e-08
0.000390058
1.20066e-10
5.03631e-07
0.00207036
0.00399879
1.07073e-10
-8.1758e-06
7.00103e-05
-3.81896e-14
-4.57461e-10
-0.150692
5.39173e-10
-0.000350705
-3.5017e-09
-8.556e-11
-2.69346e-10
-8.08884e-05
-6.17283e-07
5.83096e-11
5.4119e-12
4.63292e-10
1.80129e-05
1.18219e-05
-1.05322e-09
-9.31278e-09
0.00042659
-2.44596e-10
1.41478e-10
8.76628e-12
-0.000256914
0.01095
0.00040027
1.76696e-10
1.70916e-10
-0.00068384
3.52748e-09
7.09263e-11
9.19984e-10
1.74818e-09
8.52249e-11
-5.30492e-10
-0.00177369
-7.88415e-11
3.35847e-05
0.000227192
5.50544e-10
-0.000202323
0.000419526
-8.77333e-12
1.08738e-10
-0.000383523
-1.1569e-10
-2.57922e-11
-7.30704e-10
-1.34353e-10
-5.88123e-12
2.53046e-11
9.54334e-11
2.50228e-10
9.37299e-05
3.65601e-10
0.000276904
5.16938e-07
-7.98714e-11
1.60192e-05
-5.02837e-11
4.19187e-05
-3.78113e-10
-6.84163e-09
4.09219e-08
1.23765e-11
8.82487e-11
-0.000146744
7.40716e-11
-9.51449e-09
0.000545434
9.84742e-09
-8.27676e-12
0.000367919
1.82192e-11
-0.000382975
-1.45486e-09
-1.92736e-10
-1.19303e-10
-9.81539e-11
-1.36431e-10
0.000634162
-1.32576e-11
-0.000444704
7.10926e-08
-1.23218e-11
-3.29528e-12
-2.49774e-07
-1.29462e-10
-0.000705999
3.1676e-11
-0.00147317
6.62561e-06
7.25493e-08
-0.00174038
-2.91094e-09
3.0516e-10
7.70398e-10
0.000150961
-2.73984e-10
-3.04933e-05
5.8085e-10
-1.77663e-10
-1.10795e-09
-3.02944e-10
4.89789e-12
-2.2742e-10
-1.19865e-12
4.14666e-10
-6.54296e-09
-3.82188e-10
1.3398e-12
1.52639e-09
0.00108529
0.000348068
-6.40842e-05
-8.90023e-05
8.02788e-11
0.000464095
-9.02137e-06
2.85798e-07
-2.49714e-10
0.000591243
-5.99558e-11
1.32048e-10
-1.29684e-10
2.86084e-09
5.66849e-11
0.000145895
3.93604e-10
-7.8447e-06
1.35028e-11
2.30222e-09
1.36505e-10
3.32234e-11
-0.000260253
1.69398e-11
3.72061e-10
1.02572e-09
-2.44379e-07
1.02449e-07
-4.39861e-10
9.86277e-05
0.000200555
-1.02942e-09
0.000286822
-2.51514e-11
2.21027e-05
0.000125427
2.04136e-09
4.57103e-10
-2.81605e-10
-1.55185e-09
0.00857904
-1.35463e-10
-8.89093e-11
0.008456
2.35128e-12
6.92425e-08
0.000111312
2.62059e-10
0.000429969
-9.94658e-11
1.44756e-10
1.37561e-10
7.37255e-10
8.21416e-11
5.51843e-10
-0.00048227
6.17916e-11
-4.11368e-10
3.08595e-10
2.78648e-11
-0.000322005
7.621e-11
1.97484e-10
3.25246e-10
4.55677e-08
-6.03021e-10
4.06505e-10
3.26044e-12
1.93354e-09
2.3177e-10
0.000600476
-1.13274e-09
1.04035e-09
-6.52025e-05
2.89292e-10
4.39296e-10
-4.75548e-10
-0.00062907
-2.29113e-10
1.54896e-07
2.15909e-10
-4.87449e-10
-7.48155e-10
2.95633e-10
4.6429e-12
-0.000149597
1.02684e-05
0.000510364
-2.40342e-10
-1.95968e-08
-3.40366e-10
3.08611e-10
2.96217e-07
1.13481e-10
6.57498e-11
-2.55897e-09
0.00989823
3.65462e-10
-7.59806e-11
-5.3136e-11
3.50031e-10
-0.000395329
4.01386e-08
-0.00042544
1.27869e-08
4.79851e-08
-0.00105607
-0.000319972
4.06403e-10
-2.05854e-09
2.21328e-10
-8.54331e-10
-2.15105e-06
-0.0510764
-1.01804e-09
-2.64087e-10
-2.43929e-05
7.15629e-10
7.85317e-05
-1.51091e-10
6.89482e-10
-7.44723e-11
4.56706e-10
-3.62113e-10
-0.112937
1.84932e-11
5.55326e-05
0.000294728
2.4714e-09
0.000291053
-0.000284484
4.4633e-11
-1.25796e-09
2.76234e-09
5.89877e-11
0.000374879
1.84034e-10
-3.38865e-10
-0.000584707
-9.65138e-08
0.00207185
2.58674e-06
1.41333e-05
3.53682e-09
1.14732e-11
0.000268104
-6.08369e-11
2.79145e-09
3.03283e-10
-0.000621537
8.81887e-12
-0.000333049
-0.000326786
-4.04774e-11
-3.83685e-11
1.62906e-10
-0.000656929
1.24732e-10
0.000426507
0.00107802
2.18686e-11
-4.55117e-10
-6.98144e-09
4.1938e-11
6.60043e-10
1.39539e-10
1.06749e-10
-0.000697594
-2.32743e-11
-6.07848e-12
1.07459e-09
0.000141096
3.73726e-11
0.000829848
-1.11147e-10
-4.93689e-11
-1.19666e-11
-2.47267e-09
9.22421e-12
-7.03885e-11
1.14834e-10
-0.000378993
-2.43734e-11
2.70482e-10
0.000112312
6.51086e-12
1.96004e-10
-1.38366e-10
-2.99648e-10
1.53271e-10
-4.75452e-05
-9.72941e-11
-0.00032052
-0.00449653
0.000761884
2.86277e-05
2.79068e-11
9.02268e-11
1.37614e-09
5.08202e-10
-4.42167e-10
-8.92877e-11
1.01819e-06
-5.47548e-10
0.0010991
0.00412173
3.00986e-09
2.56528e-10
-1.01369e-10
0.000377718
2.56656e-11
9.42076e-07
-7.16215e-10
3.43492e-09
-7.71586e-10
1.50705e-08
1.11869e-07
1.7283e-09
5.53393e-12
-8.00268e-09
-0.000118716
0.000226893
-1.84834e-05
-5.35064e-09
-4.38132e-10
2.74915e-05
3.1447e-10
-6.15597e-11
6.48451e-10
-4.92812e-11
0.000562738
2.83671e-10
0.00355943
0.000916369
-3.00709e-11
-6.55836e-10
2.11775e-10
4.33476e-11
1.18793e-10
-0.000129768
1.23764e-10
1.21906e-10
1.60503e-07
-1.01282e-07
0.000368239
0.00111622
1.64631e-05
-7.93782e-11
-7.50136e-07
-2.96354e-11
1.69156e-06
-7.4e-12
-0.000329152
-0.000577871
1.42034e-10
6.57084e-11
-0.000486968
-2.88496e-11
4.52307e-07
0.000454467
-0.00342438
-0.000295013
2.22495e-10
-0.000290492
-0.000119739
4.21382e-08
3.20284e-10
7.9993e-05
2.62797e-10
4.92834e-09
0.000139591
2.79249e-06
0.000125194
8.68512e-06
-0.000779686
4.82364e-12
1.39183e-08
4.80803e-10
-0.000236207
1.42957e-10
4.56099e-12
-1.39474e-10
-0.000340141
-1.01339e-10
3.2621e-06
1.77738e-10
-1.09794e-09
-0.0290159
-0.0171518
1.24583e-11
4.32907e-10
8.57992e-11
0.000273228
-3.52644e-10
7.4585e-11
7.44161e-05
-1.35847e-09
-1.02144e-05
-1.12538e-10
-4.31574e-11
-5.85923e-11
-2.96619e-10
0.00314027
1.87649e-10
-0.000573773
-1.2341e-08
4.8428e-10
-7.24375e-12
-0.00133798
9.68167e-10
1.29829e-10
6.66102e-12
4.38156e-10
2.08098e-09
3.22558e-11
7.1993e-09
-2.75578e-10
1.92433e-06
1.7464e-10
7.3422e-11
7.60376e-07
1.51831e-06
-4.09823e-09
-1.84585e-11
0.000194293
-0.000694592
3.66973e-05
-1.706e-09
9.87821e-11
-1.48382e-11
-0.000105323
-7.28693e-12
-1.92344e-12
-7.08325e-11
-1.82125e-10
2.03632e-09
-3.93571e-10
5.15191e-11
2.67808e-07
4.11329e-11
0.00245291
-0.00013237
-5.31065e-10
0.000221981
0.000181572
-0.000499841
5.71827e-10
5.32987e-10
-1.87005e-10
-1.10019e-10
-1.31038e-10
-1.79269e-09
-5.39411e-11
3.43659e-10
-3.45766e-10
-7.12374e-12
-0.000126205
1.4053e-10
3.93508e-05
2.73985e-08
-5.33091e-05
-1.44951e-10
6.82117e-11
-3.00421e-10
-2.6488e-10
0.000123341
-6.03011e-10
-5.06318e-10
0.000414762
-6.13452e-05
1.24399e-09
-3.90815e-09
1.83753e-05
-0.000869294
-1.80396e-11
0.000160186
-0.00125559
-4.4105e-09
-1.47876e-10
5.23507e-06
-5.8218e-10
-2.94854e-11
-1.59585e-11
1.85723e-09
1.09363e-10
0.000431202
-0.00339196
0.00369653
-8.48531e-10
-1.04557e-11
-9.14622e-10
0.00540206
-6.35216e-10
8.94495e-11
-1.09925e-09
-0.000660477
-0.000871094
-5.69574e-11
2.82581e-07
1.07766e-09
4.96981e-10
6.7268e-11
-0.000110937
-6.07931e-10
-1.41759e-09
-1.19479e-09
0.000111124
7.27086e-10
1.08075e-10
-1.84078e-10
4.73044e-09
-1.52672e-10
-6.90409e-12
-6.64249e-09
-3.93071e-10
1.99368e-05
-6.10255e-11
-4.9506e-10
9.08127e-12
-3.4059e-07
-2.34751e-10
1.53421e-09
-0.000880673
-0.000538495
2.35175e-11
-2.20344e-11
-6.56037e-05
-6.58795e-08
1.43048e-09
-3.98341e-10
1.29644e-10
-4.51919e-10
-6.88422e-12
-0.0832055
-0.00104184
-2.81342e-09
-8.27514e-09
-0.000437237
-0.000206351
3.73005e-11
5.80473e-10
2.03238e-08
-3.47895e-10
2.27995e-10
-0.000706335
-1.33244e-10
-4.4326e-11
-1.74523e-10
0.000118381
0.000386721
0.00120527
0.000188922
3.41731e-10
-0.000685056
-0.000302201
-2.64929e-05
-2.06408e-10
1.3534e-10
-2.28566e-09
2.32535e-11
0.000142094
-4.68132e-10
-2.10296e-11
-4.21486e-10
2.61572e-06
2.4392e-09
6.97749e-10
0.000160709
6.01291e-11
-0.000121302
-9.20373e-10
1.8301e-10
-1.24789e-07
0.00120322
1.1989e-10
-3.11694e-10
2.72343e-10
0.000305358
2.77458e-10
3.79517e-10
-0.00015717
-8.2282e-05
-1.24694e-05
4.344e-12
-9.24589e-11
0.000163204
3.58927e-10
3.56331e-10
4.9632e-11
-0.00042787
-1.14308e-10
3.2141e-07
4.75415e-10
-0.000182146
-0.000289661
2.42411e-09
-0.000365999
4.23911e-11
-0.00507463
-1.14194e-10
0.000163083
-2.33008e-10
3.32332e-09
-0.000149121
5.27327e-05
-1.18786e-09
9.36844e-10
0.000146138
-6.78648e-10
7.34975e-08
1.65923e-10
-7.20582e-13
0.000342303
-2.85528e-11
1.0371e-05
7.26015e-12
7.42446e-11
1.71951e-12
1.13748e-10
-8.03794e-11
1.78773e-08
-1.98697e-10
-0.000760131
6.47825e-10
0.0055789
9.36251e-05
-2.62206e-11
-1.86313e-10
-5.15857e-05
2.55875e-10
-1.19215e-09
-0.0032211
7.15119e-10
0.00224629
7.054e-10
2.06528e-10
-4.78117e-12
5.78472e-09
1.55131e-10
0.000507201
-0.00127219
0.00164654
0.000126836
-9.62614e-11
-6.80565e-09
-4.36151e-05
0.000308382
0.00311553
-3.45951e-10
-0.000522392
0.00164112
5.14447e-11
-2.43071e-13
-1.15701e-10
-0.000512593
-4.39915e-10
-2.16698e-10
6.72966e-10
3.79672e-10
-7.12867e-11
0.000105543
-8.08283e-11
-2.59275e-11
0.00233062
1.83881e-10
1.62264e-07
-1.03808e-10
-0.00167064
-4.36488e-10
-1.95303e-10
6.89133e-10
4.35106e-12
-2.52269e-09
-3.37343e-11
0.0001445
-7.16627e-11
-0.000308884
-0.000132033
-7.3359e-11
-2.99446e-10
-2.88427e-09
-7.58991e-05
-3.52821e-10
0.000295793
-4.21177e-05
-3.08581e-10
-0.000668199
0.000468451
4.22483e-11
-0.000138541
-6.38081e-11
-8.50522e-10
2.28194e-11
5.16303e-09
1.34887e-10
4.81213e-10
2.19762e-11
-0.00211835
7.73442e-07
-0.00246955
8.33675e-10
-1.84367e-10
-1.57425e-11
6.28264e-11
-7.74153e-10
6.66512e-12
1.10209e-11
-4.10246e-10
3.15907e-05
-4.15936e-05
-0.000350032
2.96722e-10
-5.83235e-10
-1.13481e-10
-1.54307e-11
-1.07176e-07
0.00265161
-4.384e-11
1.07234e-07
-0.000736106
2.58232e-10
-0.00056355
3.62829e-10
2.48757e-10
-1.34386e-07
-2.68921e-10
1.17604e-10
-4.97804e-11
1.25854e-10
5.20566e-11
-6.896e-11
-6.75891e-11
-1.34528e-10
6.48808e-11
3.4186e-11
-0.000141373
-2.57902e-11
4.26019e-07
0.0023886
-1.62202e-07
-3.74608e-11
1.40311e-11
1.97524e-10
-6.96479e-10
2.50043e-12
0.000241969
-6.66707e-11
6.90786e-10
-4.1102e-05
0.000596482
-9.73307e-10
-0.00300776
-1.96845e-11
4.90247e-05
6.51076e-05
6.31212e-11
-3.04706e-10
1.35915e-10
1.35688e-06
0.0018198
0.000558003
-2.00235e-09
6.29402e-10
0.00058259
2.33152e-10
8.62021e-05
0.00197442
-0.000345938
-9.84059e-14
1.59416e-05
-0.000174563
0.000322131
1.52699e-10
1.6104e-10
-3.75259e-10
1.02072e-11
1.41404e-09
1.19882e-09
-0.000436295
1.35334e-10
-3.87243e-10
-1.67467e-11
-1.16515e-09
1.3349e-06
2.03097e-11
3.07427e-12
-0.000497096
6.34955e-10
9.76728e-10
1.48369e-10
2.88261e-09
2.41328e-10
-3.12809e-10
-0.00015417
1.46179e-10
-2.94358e-10
-6.84677e-11
-1.10545e-05
-3.55584e-10
-0.000330486
-0.000458243
-9.21683e-06
-0.0018644
-6.67598e-11
2.4892e-10
-7.68133e-09
-0.000216728
0.000130553
5.55044e-09
-3.52697e-11
-9.87491e-12
0.0063334
-5.54725e-11
3.26058e-10
0.000194862
-0.00036633
-4.05717e-11
-0.000336425
-6.84163e-10
0.000241377
-6.28324e-12
2.59808e-10
3.91825e-11
8.70163e-10
-1.72495e-10
1.04817e-10
9.0471e-10
-4.57035e-10
-3.88294e-12
5.79214e-06
6.19243e-11
-1.41692e-09
8.60547e-05
-0.000540046
-2.6946e-10
2.17695e-12
6.92221e-11
-1.84539e-10
-1.27303e-10
-7.57499e-09
1.90908e-07
4.73672e-10
-5.86316e-11
2.44257e-10
-0.000166789
2.4715e-06
-2.37414e-05
-1.31432e-11
3.53787e-08
1.06734e-10
7.77739e-08
-0.000103189
2.61665e-11
-1.35239e-10
-0.000476312
3.12117e-10
-8.8764e-12
-6.92867e-05
1.07049e-07
6.55772e-11
-8.82228e-11
-0.000364051
-3.43454e-11
1.7488e-10
6.56202e-05
-2.90243e-10
-5.98038e-11
-1.46421e-10
-4.25405e-10
-7.28459e-10
0.000262684
2.86755e-10
-6.76957e-11
-1.17328e-09
-1.14236e-09
2.82211e-11
-2.28398e-10
5.83584e-06
-1.05299e-10
-7.86263e-05
-0.001787
1.64299e-06
1.18506e-11
0.000130442
3.67576e-11
-0.000145974
-0.00071026
9.71919e-11
9.77114e-11
-2.11103e-10
7.29521e-11
-1.6494e-09
2.40228e-12
-2.16626e-09
0.000736772
0.00338067
-2.27558e-05
3.72872e-05
-2.20354e-10
0.000397673
2.73566e-10
-0.000648831
8.47852e-05
-0.000217183
-6.48621e-07
-2.42808e-08
-0.00299354
-0.0160674
-0.000145269
7.1534e-10
0.00948155
-3.83315e-08
-3.53356e-11
-2.22712e-10
1.56565e-10
-0.00317404
-3.60794e-09
-6.20114e-11
2.34578e-10
9.9295e-08
0.00080525
1.93112e-11
2.91448e-10
7.00594e-11
-2.3548e-10
-1.02514e-10
4.34279e-10
5.97213e-12
7.56353e-12
-0.00331553
5.72286e-10
-8.61632e-11
2.78366e-11
2.14614e-09
4.17037e-10
-9.95889e-05
-3.184e-09
3.43706e-11
-2.67494e-12
0.0077048
3.21182e-10
1.3109e-08
-2.15477e-10
6.8234e-11
-1.4724e-10
-4.30729e-10
-6.98283e-12
2.41494e-05
-1.1206e-10
-2.46864e-09
3.53998e-10
3.43343e-12
-3.63959e-11
-1.47755e-10
-9.29822e-12
2.85324e-08
-1.56042e-10
4.05302e-10
0.000243918
0.000377429
2.7126e-10
5.32701e-10
-1.66866e-11
-1.74843e-11
-7.55466e-05
9.91143e-05
2.18224e-11
-0.00238447
-1.07478e-10
-1.45839e-11
1.26106e-09
-3.15046e-11
-8.96384e-06
1.11681e-10
0.000454894
0.00148299
1.04665e-07
7.58412e-05
8.14211e-10
-0.00130142
-0.000441603
9.76737e-11
-1.94134e-10
1.25497e-11
-3.3804e-10
-8.16638e-11
0.000363138
6.72816e-11
6.32669e-11
-0.000182214
2.68042e-09
7.46801e-10
3.22063e-10
-1.16943e-10
-1.82636e-11
1.65084e-05
1.94971e-07
1.77484e-05
-0.000120246
-1.11603e-07
1.68056e-09
-2.88605e-10
-1.89167e-10
-6.32938e-05
-8.97887e-11
-0.000129489
-8.33261e-05
-7.73014e-05
-2.7339e-09
1.99057e-10
0.000510082
1.63334e-05
-7.11969e-05
0.0078956
-1.17536e-12
-0.000137315
-6.4118e-12
1.86575e-10
-8.97211e-11
-3.32133e-12
-0.00064149
-2.20858e-10
3.68322e-10
-4.07569e-11
-0.000283629
-0.00330216
-1.97258e-09
-6.27163e-11
7.59887e-12
-5.48884e-05
1.44779e-06
6.65928e-10
0.000484797
0.000398502
-9.44609e-09
0.00898544
-4.94961e-07
6.31521e-09
0.000380994
-6.6753e-10
-0.000379345
0.0198039
-3.23145e-11
0.00505995
-5.61723e-10
0.000454633
1.7411e-09
-0.000311891
2.21991e-09
-1.88299e-07
-0.000830342
-8.38147e-11
-1.77646e-11
0.000532578
-1.00117e-10
-0.000120373
-1.33441e-10
-5.19798e-10
2.14307e-10
0.000610509
4.89746e-09
4.05696e-11
-1.38048e-09
-8.0138e-12
1.34405e-10
1.06606e-11
-7.22649e-11
5.75275e-10
0.00036193
1.01091e-11
-0.00264738
0.00173263
0.000246994
4.07274e-10
2.76602e-05
0.000185053
-2.20731e-09
2.09286e-11
1.27193e-05
2.71781e-10
-4.2695e-05
0.000400631
4.70941e-11
-0.000799975
1.96951e-05
-7.83002e-10
0.000299292
-1.80067e-11
4.71752e-06
3.39917e-10
-0.000761963
8.24921e-10
-6.45764e-06
1.5039e-10
0.000642298
0.000231815
-2.6992e-08
4.93762e-11
1.00187e-06
1.42681e-07
5.91332e-11
1.78977e-05
7.00974e-05
8.18155e-10
-0.00136461
3.76875e-11
1.22358e-07
-4.31192e-10
2.23846e-11
-2.84204e-09
-3.01857e-06
-1.45193e-10
-0.00042064
0.0314619
-1.57387e-10
1.55684e-10
1.27721e-10
-6.94884e-10
4.66964e-11
-3.53977e-10
1.65737e-05
0.000134043
0.000755157
-5.34763e-11
-0.0287149
-0.000191535
0.00186714
-3.01137e-10
-0.0236533
-2.4707e-10
1.35618e-11
-3.43601e-06
0.00286269
-2.95484e-11
-0.000906859
-4.72429e-09
-9.38601e-11
-0.000678322
5.50538e-10
-0.00110013
4.33198e-05
6.92159e-11
2.62719e-05
-0.000627842
-0.000139639
3.03206e-10
5.25738e-05
-3.75427e-07
-2.05241e-09
3.63707e-11
-1.76395e-10
-0.00362619
-0.000100443
1.32689e-10
2.85036e-10
1.14532e-10
-1.74352e-10
-3.17438e-05
-1.64863e-09
1.73421e-10
2.27751e-10
2.89291e-10
-1.31857e-09
5.32797e-06
-1.45183e-10
2.60937e-10
-7.21631e-11
-1.05501e-07
-4.14079e-11
-8.17339e-10
-0.000250258
-0.000389332
-1.56268e-10
-1.42532e-05
2.67632e-09
7.02903e-05
-8.59461e-05
0.000135218
2.80053e-11
-1.56426e-11
6.79813e-11
1.28203e-09
4.83934e-10
-4.1575e-10
1.23935e-11
-2.78618e-09
1.38417e-10
-2.42675e-10
-0.00026106
8.12749e-10
1.88918e-06
0.000471002
3.89992e-09
-8.32616e-13
-1.19495e-10
-1.31759e-10
-7.19676e-10
-0.000249148
-0.000672975
7.34418e-11
-8.65017e-09
3.65855e-10
-1.61083e-12
-4.53868e-10
-4.08696e-10
-0.000247904
-0.000917676
-5.74479e-10
-2.57668e-11
3.40243e-09
-6.88876e-11
-0.0018715
-4.43141e-09
0.000454977
-5.13166e-10
1.40379e-10
-2.10834e-09
1.8013e-10
-1.08797e-08
-0.000735954
-9.21745e-11
0.000693385
0.00034425
-3.69063e-09
-0.000272102
-9.01062e-06
-1.74836e-11
-3.56494e-12
4.4324e-11
-9.52309e-10
0.0185357
-2.56268e-09
7.25239e-11
-4.1203e-09
0.00564717
-1.66258e-11
3.14439e-12
2.08454e-06
-8.24263e-09
0.000171017
-1.04571e-10
-7.23142e-10
1.71017e-07
-1.90324e-10
-6.48042e-11
3.31185e-12
-0.000333461
-9.43886e-11
0.000464923
-1.40274e-08
0.000108705
2.19476e-11
-0.000501883
7.86249e-08
-9.50028e-11
-4.84256e-13
-6.59515e-10
-0.000248467
-2.20674e-10
2.49792e-10
-7.43563e-05
2.70464e-10
-5.96249e-10
9.60908e-09
4.13102e-05
9.85114e-11
1.43925e-10
-1.15338e-10
-5.79069e-11
4.21398e-11
0.00685674
-0.000377357
-1.15985e-10
-2.21807e-11
-0.000287197
-2.22729e-09
-0.000933368
-0.000199691
-0.00046457
-8.7974e-12
-3.08893e-09
0.000313357
-0.000180964
-0.00254997
8.59078e-10
-1.39137e-09
-8.79791e-10
0.000143547
-3.01984e-09
2.74022e-10
8.89331e-10
-4.15707e-10
-1.51628e-09
9.99422e-10
-7.63182e-11
-3.26131e-10
-5.73697e-10
4.07821e-11
8.20369e-11
0.000328065
-1.40966e-11
-0.000506755
0.00255487
-0.000601437
3.86381e-10
-0.00437496
0.000989473
-4.58553e-10
7.45672e-11
0.0108808
1.70181e-10
0.000623761
-6.12334e-10
1.75343e-09
5.97428e-09
8.06802e-07
-8.3824e-10
-9.27675e-09
-1.1046e-09
2.6248e-10
2.87868e-10
-0.00069502
-1.45836e-10
6.44591e-05
0.000152172
-1.89033e-10
1.31355e-10
0.000453257
0.00100724
5.62768e-10
-2.01697e-09
3.27618e-11
-3.32763e-11
-3.47982e-11
-4.85789e-10
-1.46483e-10
2.76256e-09
0.00148688
-1.11331e-10
-0.000895535
-5.29253e-05
-4.61238e-10
-0.000505021
-0.000393032
-3.49624e-09
-4.90574e-10
4.11078e-11
-8.55821e-11
0.000989126
-4.30682e-06
9.67021e-10
-0.463547
0.000848157
1.43818e-11
5.33077e-10
0.0112581
4.57302e-10
-0.00684042
0.00150857
-0.000721955
1.50535e-06
-4.72406e-10
0.000658188
7.79342e-09
-0.000690502
-0.000175173
6.43884e-11
-2.12557e-10
4.18295e-08
1.16365e-10
-1.50378e-10
-1.92424e-11
1.19724e-10
-1.50013e-10
5.97758e-10
2.08889e-09
-3.88681e-11
-1.16354e-11
-3.64731e-11
8.1901e-05
-1.79189e-08
-4.30798e-11
1.40988e-11
0.00658535
-1.42686e-09
2.74336e-09
1.97267e-08
-2.03533e-10
-1.45348e-09
-3.43174e-10
-0.00116462
-2.85558e-10
-5.3555e-11
-0.000320459
-4.07454e-10
-5.36506e-12
-0.000496032
2.61952e-08
-2.26067e-10
-4.86583e-11
-6.14298e-09
3.88602e-11
-1.15869e-08
-2.3479e-11
2.23641e-10
-4.12322e-05
0.00192889
4.00275e-11
2.3182e-11
3.96895e-10
-4.76142e-06
-2.06106e-10
1.88669e-10
3.31476e-10
-6.57489e-11
1.48553e-09
-1.1209e-09
1.85041e-10
-4.76334e-11