/*--------------------------------*- C++ -*----------------------------------*\
| =========                 |                                                 |
| \\      /  F ield         | OpenFOAM: The Open Source CFD Toolbox           |
|  \\    /   O peration     | Version:  v2012                                 |
|   \\  /    A nd           | Website:  www.openfoam.com                      |
|    \\/     M anipulation  |                                                 |
\*---------------------------------------------------------------------------*/
FoamFile
{
    version     2.0;
    format      ascii;
    class       volVectorField;
    location    "350";
    object      ddt0(U);
}
// * * * * * * * * * * * * * * * * * * * * * * * * * * * * * * * * * * * * * //

dimensions      [0 1 -2 0 0 0 0];


internalField   nonuniform List<vector> 
33474
(
(-3.8146e-07 4.35627e-06 0)
(2.41302e-06 4.20738e-06 0)
(0.000124038 0.00102708 0)
(-2.78624e-05 6.41239e-06 -2.20137e-22)
(-1.03914e-05 -3.16042e-06 5.82312e-23)
(-0.000359153 0.000984333 0)
(1.64728e-05 4.62447e-05 1.72771e-22)
(2.15774e-06 -6.3579e-06 -8.79466e-23)
(2.31518e-06 -6.44817e-06 0)
(2.32435e-06 -1.43918e-06 0)
(-0.000261539 -0.000211257 0)
(1.36304e-06 -5.25075e-07 1.07767e-24)
(2.02007e-06 -1.66206e-06 7.01442e-23)
(2.58351e-06 3.12385e-06 1.07228e-23)
(-0.00093019 -0.000974274 6.71933e-23)
(-0.000190427 -0.000147235 -2.02261e-23)
(2.90053e-06 -6.3335e-06 -7.93238e-23)
(-0.000335861 0.000206657 0)
(-0.0384785 0.00433926 0)
(1.88922e-06 -6.63571e-06 0)
(1.43437e-06 1.08812e-06 7.11717e-24)
(-8.86952e-06 -7.96313e-06 -2.12288e-22)
(-7.3359e-06 -2.35197e-05 3.78162e-23)
(0.0210471 -0.000976835 4.33576e-21)
(-0.000253102 0.000710758 4.83208e-22)
(-8.21887e-06 -7.84255e-06 0)
(-5.46167e-05 -2.9204e-05 -4.49477e-22)
(0.0237611 -0.00198246 0)
(0.00128413 -0.000907695 0)
(-2.44235e-05 -3.1705e-05 5.20139e-23)
(2.71326e-06 -4.2874e-07 0)
(7.33743e-06 5.71986e-06 5.26382e-25)
(0.0207653 -0.00311296 0)
(1.16979e-05 -0.000276446 -5.14614e-22)
(-2.5279e-05 0.000546323 0)
(-0.000449279 0.000515958 6.70785e-23)
(1.11688e-05 -1.46077e-05 0)
(-5.69253e-07 -1.15286e-05 0)
(-0.000108575 -1.6734e-05 1.25836e-23)
(0.0123766 0.00357827 3.00979e-22)
(5.0042e-07 -1.54492e-07 0)
(-0.000118436 -7.05555e-05 -1.10448e-21)
(9.32049e-05 -0.000385401 -5.60035e-22)
(1.55794e-07 -1.45414e-06 1.69403e-22)
(-0.00263134 0.00284488 3.50432e-22)
(0.0380115 -0.0241424 -9.80187e-22)
(2.31192e-07 -1.57482e-06 -3.47134e-22)
(-0.000309067 0.000492183 0)
(1.37375e-05 3.66937e-05 3.0865e-22)
(0.000322225 0.000526027 -8.21885e-23)
(-2.56439e-05 6.30993e-06 0)
(1.86714e-06 -6.50853e-06 1.73882e-22)
(-0.000204887 0.00067083 -3.81388e-22)
(0.00158195 -0.00193035 -2.12654e-22)
(-9.60994e-06 -3.38888e-06 -1.01142e-22)
(-0.000295624 0.00091217 -4.54374e-23)
(1.60303e-07 -8.23217e-06 0)
(5.59409e-06 7.9451e-06 0)
(0.000220283 -0.000144831 -1.4828e-21)
(-0.00298931 0.0001214 -6.86038e-23)
(2.29555e-06 4.31772e-07 -1.6787e-22)
(-0.000121434 -8.64069e-07 -2.1841e-22)
(-0.00257582 -0.000300024 0)
(-2.38229e-05 -1.3701e-05 0)
(1.18335e-07 3.64874e-06 2.70261e-22)
(1.14051e-06 -7.7613e-06 0)
(0.043516 0.0287708 -3.56634e-21)
(-0.00347598 0.00357815 0)
(2.48217e-06 5.7122e-07 3.38938e-22)
(0.000601172 0.00132283 5.05168e-22)
(-5.63122e-05 -0.000187931 0)
(-0.000218257 -0.000152038 1.18961e-22)
(1.99364e-07 -1.44393e-06 0)
(-4.08811e-05 1.05403e-05 2.67214e-22)
(1.62567e-06 1.01443e-06 0)
(-0.000173058 8.98137e-05 0)
(-3.04602e-05 -2.91299e-05 9.64491e-23)
(1.62584e-06 -5.5182e-07 -4.23536e-23)
(-9.92175e-06 -2.89721e-06 -4.90908e-22)
(0.000869198 -0.000478159 -9.56767e-25)
(-1.96596e-05 -0.000435795 -4.07404e-24)
(-2.66848e-06 -7.9436e-06 0)
(0.000323674 1.46135e-05 1.61951e-22)
(4.72077e-06 -3.85623e-07 -6.34351e-23)
(-0.000177914 8.68638e-05 0)
(0.0013551 -0.000868673 -2.95963e-22)
(0.00030129 0.00391087 -1.33647e-21)
(0.00140911 -0.000212952 0)
(0.0013343 0.000170892 9.81734e-22)
(-7.13548e-05 4.08914e-05 -3.74877e-22)
(-0.00043457 0.000699104 0)
(6.44036e-09 -1.55441e-06 2.19588e-23)
(-0.000526286 8.34545e-05 2.00386e-23)
(1.67049e-06 -6.05517e-07 0)
(3.30135e-05 -5.41731e-05 0)
(1.61757e-06 -7.63017e-06 -1.01603e-22)
(1.45644e-06 7.13645e-07 4.90752e-23)
(-8.88937e-06 -4.81532e-06 3.87639e-22)
(2.81389e-06 -3.57975e-08 0)
(0.0021671 -0.00119514 -6.42746e-22)
(1.98853e-06 -1.28992e-06 0)
(-0.000405994 0.00072507 0)
(-0.00187017 -6.44971e-05 -6.97248e-22)
(-8.98166e-06 -7.90962e-06 1.32981e-22)
(-0.00295774 -0.00193759 0)
(-0.000743516 0.00134861 0)
(0.00586293 0.0132274 0)
(2.00574e-07 -2.05932e-08 3.06059e-22)
(-2.91603e-06 2.54478e-05 2.72242e-24)
(-0.000660966 0.000643778 -1.63184e-22)
(5.77066e-05 -0.000965511 0)
(-0.000189975 7.57781e-05 0)
(0.0015152 -0.0016658 0)
(-0.000185339 -8.58966e-05 1.73341e-21)
(-0.000491795 9.98224e-05 4.10729e-24)
(-0.0168436 0.0212883 -1.05084e-23)
(-7.60589e-07 -1.21232e-05 -2.66931e-22)
(-1.13707e-06 -7.94241e-06 0)
(-2.16742e-05 -1.40355e-05 0)
(2.80454e-06 -1.82971e-06 5.98306e-24)
(-2.99307e-06 -1.56458e-05 -3.14116e-22)
(0.000126133 0.000225685 -3.24825e-22)
(-2.58512e-05 -1.70103e-05 -5.93881e-22)
(-4.01793e-06 2.38957e-05 5.70421e-22)
(-0.0066341 0.00206641 -1.65118e-21)
(-0.00285089 -0.000195427 0)
(-0.00049333 -0.000428967 0)
(-1.37297e-05 -0.000228089 0)
(0.000325153 9.60846e-06 -1.64871e-22)
(0.000325356 0.00139191 0)
(-0.00208533 -0.00950382 0)
(0.000579586 0.000742491 -2.24642e-22)
(0.0367118 -0.0133779 0)
(-0.000280572 -0.00020659 -2.64748e-23)
(-2.33038e-05 -3.30098e-05 0)
(5.33262e-06 -2.97682e-06 4.14593e-22)
(1.5699e-07 9.01909e-08 -3.9629e-22)
(-2.37796e-05 -3.4667e-07 0)
(3.05867e-05 -5.53083e-05 -1.67373e-23)
(2.38342e-07 1.11463e-06 -8.25792e-23)
(0.00114558 -0.00163849 -9.45342e-22)
(-0.00125806 0.0020321 0)
(-0.000270004 5.67306e-05 1.24942e-23)
(1.4884e-06 -1.8683e-06 -7.39524e-24)
(-0.000389633 -0.000514214 1.52299e-22)
(-0.000164698 -0.00077057 -5.65396e-23)
(-0.00572657 -0.00172051 0)
(2.53324e-06 -1.62244e-06 -8.27124e-24)
(-0.000125562 1.62231e-05 0)
(-0.000185414 0.000108044 0)
(-1.32578e-07 3.46099e-06 5.53018e-22)
(-4.7051e-06 -2.5268e-05 -1.55059e-22)
(-5.74338e-05 -2.90874e-05 6.14464e-22)
(1.55798e-06 2.12661e-06 -1.1694e-22)
(0.000120322 0.000203226 2.05553e-22)
(1.89428e-06 -6.89949e-07 4.00856e-25)
(0.00133754 -0.00108671 -1.39991e-21)
(-5.38184e-05 -6.27816e-05 -1.97998e-22)
(-0.000479541 -6.3139e-05 1.1112e-22)
(-0.000617491 -0.000100606 -2.62976e-22)
(-1.70348e-06 7.50891e-06 -5.1123e-23)
(-0.000282013 7.0481e-05 -1.23452e-23)
(-0.00251975 0.00485632 0)
(-4.37582e-06 -1.33133e-05 -2.53282e-22)
(-0.00164628 -0.00031298 6.03061e-22)
(8.62312e-05 0.000261279 1.39151e-22)
(2.827e-06 -1.58047e-08 -8.64408e-23)
(0.000267795 -0.000155983 9.39362e-23)
(5.56601e-07 2.86253e-06 -5.2232e-22)
(2.04461e-06 -5.60837e-06 1.50243e-23)
(-0.00045115 -0.000433848 0)
(-1.49072e-08 2.70817e-06 1.56137e-22)
(2.30082e-06 -5.46138e-06 -1.51751e-22)
(-0.00219792 0.00153605 -5.2305e-22)
(7.34088e-06 4.35591e-06 1.69547e-24)
(-1.20853e-05 -6.91547e-06 -2.72599e-22)
(0.00136022 -0.00213498 0)
(-8.91294e-06 -4.39781e-05 0)
(0.00471954 -0.00452888 -2.08989e-21)
(-0.000113133 1.27935e-05 -6.99198e-24)
(1.65059e-07 -1.12825e-05 0)
(-2.18051e-05 -0.000236639 0)
(-2.27758e-06 -2.69768e-05 2.07082e-22)
(-0.00114021 0.00331914 7.07841e-22)
(2.38743e-06 4.34077e-06 -2.71314e-23)
(-0.000244167 -2.24148e-05 0)
(-0.000183343 -0.000189651 -7.54488e-23)
(0.00165945 -0.00101622 0)
(0.00670623 3.20505e-05 -1.67241e-22)
(1.63469e-06 -4.10441e-06 2.22061e-23)
(-0.000131491 -8.4724e-05 0)
(0.0103825 0.00860946 -9.68042e-21)
(1.60532e-06 6.77115e-07 0)
(-0.000225105 -2.1447e-05 0)
(-0.00417655 0.00386199 0)
(0.000875063 -0.000397211 0)
(3.06538e-06 8.50291e-07 3.06954e-24)
(-0.000220446 -0.00012667 8.15711e-23)
(-0.000556368 -0.000137349 -4.27839e-22)
(-0.000143181 4.5743e-05 -5.20556e-24)
(4.99206e-06 -2.99896e-06 -4.13796e-22)
(0.00460125 -0.00774326 -5.67553e-23)
(0.000118413 0.000234654 -1.32132e-22)
(6.93652e-06 4.48375e-06 0)
(2.43796e-07 8.33022e-07 8.94669e-23)
(1.7134e-06 -4.11862e-06 -3.58984e-22)
(0.004252 -0.00259624 0)
(-0.00019606 0.0002368 -8.09057e-23)
(-7.92319e-05 -0.00209333 8.24303e-24)
(0.00265271 -0.00991627 -9.58721e-22)
(-7.00574e-05 4.20142e-05 -1.92651e-22)
(-0.00070217 0.000160842 0)
(-0.000281522 0.000245458 -1.52754e-22)
(0.000156046 -0.000149787 1.68718e-22)
(1.94413e-06 3.96341e-07 0)
(0.0672183 0.0139301 -3.46921e-21)
(1.19123e-06 -4.28762e-06 0)
(0.00180663 -0.0010002 -4.70015e-22)
(-0.000206655 -0.000151057 4.15606e-22)
(-0.000134384 -9.01768e-05 -1.72393e-23)
(0.0037937 -0.00765707 5.98394e-24)
(-3.43831e-08 3.37979e-07 2.23124e-22)
(1.97219e-06 2.71618e-06 4.12985e-25)
(1.43703e-05 -0.00105264 0)
(-0.000857341 -0.000929197 0)
(0.000131453 9.9681e-05 0)
(-0.000862526 -0.000882538 0)
(-1.34357e-06 7.36191e-06 5.5329e-22)
(0.0012248 0.00105409 2.14898e-22)
(-0.000815962 0.00164559 0)
(-5.81652e-05 -0.000142922 4.19538e-22)
(-0.00298469 -0.00033657 1.09109e-23)
(-2.8864e-06 -8.93122e-06 -2.72357e-22)
(0.00153871 -0.00125904 1.27624e-21)
(0.00194339 -0.00182303 3.45209e-22)
(-1.09989e-06 -1.40846e-06 0)
(1.31183e-06 3.44564e-07 -6.71731e-23)
(-0.00436998 -0.0023119 0)
(5.58084e-06 4.77266e-06 5.37126e-24)
(-0.00271337 -0.00131387 -1.77299e-22)
(0.00218537 -0.00335053 7.57952e-22)
(0.00320487 -0.00115129 -2.11675e-21)
(1.49036e-06 -2.64369e-06 0)
(2.03675e-06 5.87142e-07 8.95419e-23)
(-1.28478e-05 -2.41936e-05 -4.68192e-23)
(-0.0123239 0.00691624 -2.60388e-21)
(-0.00046152 -7.71705e-05 -1.11439e-22)
(4.45473e-05 -1.22629e-05 0)
(-0.000656978 0.00124353 4.36622e-22)
(-2.90266e-05 7.88107e-06 2.32071e-22)
(-0.00124204 -0.00345223 -2.11099e-22)
(-2.22229e-06 -6.26953e-07 0)
(-0.000143466 -9.93673e-05 1.12148e-21)
(0.00136413 0.00505288 2.88643e-21)
(-0.00876584 -0.00292794 -5.34425e-21)
(1.8656e-06 1.39213e-07 0)
(1.72584e-06 -3.28387e-06 -1.35683e-22)
(-0.000119616 5.37001e-07 2.12267e-22)
(0.0014324 -0.000488258 3.82359e-23)
(-0.000101475 1.6529e-05 -1.82301e-22)
(1.7407e-07 5.94485e-06 3.07375e-22)
(-0.000139881 3.96637e-05 1.0894e-23)
(3.81737e-07 -2.998e-06 0)
(4.02585e-06 -1.08805e-06 -5.77421e-23)
(2.37802e-06 -3.70894e-07 1.26536e-22)
(-0.000143878 8.5812e-05 0)
(-0.00239677 -0.00159446 -1.57086e-22)
(-1.68999e-06 -7.36754e-06 0)
(-3.87394e-05 1.01243e-05 0)
(-0.000736459 0.000602174 1.49382e-22)
(1.38539e-05 -1.12503e-06 -1.54093e-22)
(-0.000106402 5.936e-06 -2.78289e-22)
(-9.98508e-06 -2.24114e-05 1.05476e-22)
(-8.29147e-07 -1.2112e-05 0)
(0.000587855 0.000164995 0)
(-2.46045e-05 1.02875e-06 0)
(0.00114236 -0.00134388 0)
(-0.00329068 -0.000461797 -1.68582e-22)
(-0.000108869 -1.45963e-05 2.01333e-23)
(1.78349e-05 4.96465e-05 -1.78029e-22)
(-0.000363598 -0.000512139 -1.38497e-22)
(-4.83952e-05 -8.97054e-06 3.12767e-22)
(2.37058e-05 3.70802e-05 -2.10001e-22)
(1.02151e-06 -5.15728e-07 -9.22895e-25)
(5.42513e-06 1.90104e-06 -9.97158e-23)
(1.75202e-06 -2.98095e-06 2.49805e-23)
(2.26939e-06 -2.72298e-07 -1.14393e-22)
(0.000338816 5.74831e-05 2.09219e-22)
(-5.26171e-05 -5.84885e-05 -3.54442e-22)
(6.61332e-06 1.28778e-06 8.06442e-23)
(0.00151067 -0.000162387 -2.19645e-22)
(-1.98154e-06 -1.01444e-06 -1.09836e-22)
(5.91681e-07 -7.77953e-08 0)
(0.000701153 0.000106741 -3.32509e-22)
(0.000234659 3.74573e-05 -6.17002e-22)
(0.00154468 -0.000669419 0)
(-0.000132235 -6.9726e-05 0)
(-0.00179535 -0.000872828 1.89318e-23)
(-0.00328132 -0.00881672 -1.05178e-22)
(-0.000464157 0.000296817 2.67525e-21)
(0.00482975 -0.00300286 0)
(-0.00437647 0.00312707 0)
(-0.00243995 -0.000277685 -1.07406e-22)
(-0.000313958 0.00013888 6.26758e-23)
(0.00097326 -0.00985082 0)
(5.0114e-06 1.27377e-06 0)
(-7.93853e-05 -1.07453e-05 0)
(-0.000929321 0.000143072 0)
(0.00198044 -0.00109326 0)
(-1.92664e-05 -5.55495e-07 0)
(-0.000116698 1.27804e-05 1.14624e-21)
(-4.59858e-05 -5.50765e-06 5.99412e-23)
(1.33767e-06 -3.46662e-07 3.00424e-22)
(-4.81482e-05 -9.39117e-06 -2.75918e-22)
(-1.78787e-05 -6.27043e-05 8.05407e-23)
(0.0376639 0.0329244 0)
(2.48099e-06 -2.85624e-06 -5.9668e-23)
(0.00103365 -0.00631987 1.30314e-21)
(2.39258e-05 -1.01664e-05 -2.98553e-23)
(-0.00117744 0.00214388 0)
(3.95309e-06 -1.24961e-06 -1.05557e-22)
(3.89924e-05 3.06032e-05 1.22663e-22)
(-2.27749e-05 3.26631e-06 0)
(-0.000159739 3.7798e-05 0)
(5.49468e-06 -1.94521e-06 -4.11718e-22)
(-0.000222932 -0.00217585 4.13224e-23)
(-1.17371e-08 -1.11145e-06 0)
(2.40854e-05 -7.3543e-06 0)
(1.93465e-06 -7.25052e-07 -1.16745e-23)
(-4.51903e-06 -8.78115e-06 2.03752e-23)
(0.0657482 0.0158842 3.70979e-21)
(1.5784e-05 2.23877e-05 3.85867e-22)
(1.01626e-06 -4.51935e-06 -3.7162e-22)
(-0.000305966 -3.32284e-08 -2.95226e-22)
(-1.37626e-08 4.01331e-06 -2.43964e-22)
(-0.010213 0.00389737 -2.61557e-23)
(0.000256233 -0.00145608 -1.53381e-22)
(1.33646e-06 -3.63432e-07 0)
(-0.0403414 -0.00609618 8.07444e-21)
(-9.51391e-05 0.000253216 0)
(1.01199e-07 -5.7023e-06 1.1828e-22)
(-0.000839879 -0.00081464 -2.89472e-22)
(-1.7949e-07 -9.09169e-06 0)
(-0.000124222 -7.14172e-05 0)
(-9.41236e-05 -0.000190678 4.20507e-24)
(-0.000280413 0.00569854 -1.68893e-21)
(3.81288e-05 2.70058e-05 -2.17185e-22)
(1.3873e-07 -2.52728e-06 9.14271e-23)
(6.82486e-05 0.000255262 -1.51923e-22)
(4.78259e-06 1.61623e-06 5.8629e-23)
(-5.66758e-07 -9.23639e-06 -2.82485e-23)
(-0.000128128 0.000302719 4.05502e-22)
(2.22273e-06 -1.23955e-06 0)
(-0.000649044 0.00107024 2.4782e-22)
(-0.000330034 -0.000389808 0)
(0.000973039 -9.99173e-05 -1.67979e-21)
(0.0418984 -0.00663586 4.16328e-21)
(-0.0439358 0.00782984 5.19303e-21)
(2.11511e-05 -0.000180682 6.09491e-22)
(6.858e-07 -8.94659e-06 2.66167e-22)
(-0.00052958 0.00022419 -5.98919e-22)
(3.28353e-06 1.027e-06 -1.21124e-22)
(0.00156799 -0.00090206 -6.12383e-22)
(2.46972e-06 -2.93729e-06 0)
(-1.63508e-06 -8.23465e-06 0)
(0.000496173 0.000227019 -1.76053e-21)
(1.89904e-06 1.75135e-07 -8.2764e-23)
(0.000169528 -0.000147813 -4.14073e-23)
(3.1573e-09 -3.8379e-07 0)
(0.000111984 -0.000442516 9.54351e-25)
(2.43166e-07 -4.9128e-06 0)
(0.000126321 0.000192168 5.41202e-22)
(0.00159917 -0.000832456 5.90536e-22)
(-9.73674e-06 -2.57148e-05 0)
(-9.36599e-06 -7.51325e-06 0)
(0.000403927 0.000650748 0)
(-0.000400031 0.000610202 3.71152e-22)
(1.27782e-05 -1.19691e-07 0)
(0.000455285 -1.62886e-06 -1.51423e-22)
(-1.50861e-06 7.83724e-06 -6.882e-22)
(0.000158315 -3.87839e-06 0)
(0.0111021 -0.00999083 0)
(1.00032e-05 -1.46775e-05 -1.84199e-23)
(4.60269e-07 -1.81284e-07 -1.62069e-22)
(0.000999265 -0.00127441 -2.47458e-23)
(0.00382403 -0.00133805 1.60507e-21)
(-4.59298e-05 -5.54861e-06 0)
(1.53877e-06 -2.36895e-06 -3.24069e-24)
(2.21276e-05 -9.93841e-06 0)
(-0.003097 4.17487e-05 1.86947e-22)
(0.0022573 -0.00117272 -1.8443e-22)
(1.33329e-06 5.84877e-07 -1.06509e-22)
(-0.000301155 -9.59374e-06 2.47462e-22)
(0.000168029 -0.000320225 6.01134e-22)
(6.0615e-06 1.79946e-06 6.47543e-23)
(1.78878e-06 -3.81826e-06 0)
(1.78709e-06 -9.28517e-07 -4.11394e-23)
(-0.000136864 -0.000774108 6.20862e-23)
(4.82362e-07 1.69288e-06 0)
(1.14463e-05 2.13694e-05 0)
(0.00168233 -0.000226937 0)
(0.0114724 -0.0113175 0)
(2.7054e-07 -1.41887e-06 2.36822e-22)
(0.000281163 0.00106185 3.3395e-23)
(1.34638e-06 7.05694e-07 1.2136e-22)
(1.58082e-06 -1.06332e-06 1.76439e-22)
(0.00025183 4.14253e-05 8.56918e-22)
(-0.00138394 -0.00324961 -5.57816e-22)
(-3.59566e-06 -9.3526e-06 0)
(2.58631e-07 -3.30939e-06 1.07272e-22)
(-1.27823e-06 -1.30176e-07 0)
(0.000264232 -0.000107655 1.18552e-21)
(-3.6963e-08 -5.86437e-06 0)
(0.00236943 0.000431895 8.78049e-22)
(-0.000124217 1.46598e-05 0)
(2.17418e-06 -5.94868e-06 1.35905e-22)
(2.47377e-06 -1.68373e-06 -1.42267e-23)
(-0.000227657 -0.000289963 9.33376e-22)
(-2.70536e-05 -1.87327e-05 3.45189e-23)
(-0.0017686 1.55684e-05 0)
(1.08335e-07 5.37699e-06 -2.91946e-22)
(0.00120518 -7.03695e-05 0)
(-0.000848131 -7.15959e-05 0)
(1.56148e-06 2.25939e-06 -1.27357e-22)
(0.000401084 0.000684839 0)
(-0.000187572 8.43628e-05 6.27083e-24)
(-0.000892515 0.00130895 3.79391e-22)
(-0.00267245 -0.000299984 1.63571e-22)
(-0.000810482 -0.00224852 0)
(-0.00281891 0.00114116 -3.45887e-22)
(5.34549e-05 -8.24347e-05 0)
(-0.00958952 0.00346482 -3.36975e-23)
(0.000170761 0.000126762 -5.58557e-22)
(-3.51112e-07 -1.03214e-05 -1.56323e-22)
(1.44015e-06 1.40267e-06 0)
(-5.76854e-07 -1.18564e-05 2.18107e-22)
(-4.94499e-07 -7.4357e-06 0)
(2.66371e-06 -5.01666e-06 0)
(-2.35552e-06 5.83116e-07 -1.18121e-22)
(-5.29959e-05 5.97635e-07 -1.45819e-22)
(-0.000216241 -7.60259e-05 -1.49934e-21)
(4.07917e-07 -3.41107e-06 0)
(1.73776e-06 -3.18227e-06 0)
(2.13083e-06 -2.03722e-08 0)
(0.000121964 2.08215e-05 2.03898e-21)
(-0.011615 0.00764994 -2.06481e-21)
(1.16545e-06 -1.66771e-06 0)
(-5.87705e-05 -2.39109e-05 1.34385e-21)
(2.13349e-06 -3.52779e-06 -5.57058e-23)
(-6.69928e-06 -2.4667e-05 -6.18335e-23)
(7.14863e-06 4.4283e-06 4.05536e-24)
(0.00135157 0.000174511 0)
(-0.000106814 4.83674e-06 1.67235e-22)
(-1.43474e-05 -4.33799e-06 0)
(-0.00196036 0.00027739 8.52782e-22)
(-1.30785e-07 4.09621e-07 1.03068e-22)
(2.02257e-06 5.04817e-07 0)
(6.86545e-06 4.71526e-06 1.65757e-23)
(-0.00274126 -0.00163056 -6.1669e-22)
(-0.000273696 -0.00031651 -1.66594e-21)
(-0.00384108 0.00337866 6.69429e-23)
(-0.000845837 0.00213972 1.27019e-21)
(-0.0197496 0.0113968 0)
(0.00019662 -5.34861e-05 -3.23034e-22)
(0.0021019 -7.76212e-05 0)
(0.00258611 -0.00612275 2.79965e-23)
(-2.10347e-06 6.21353e-06 1.1353e-21)
(0.00126354 -6.61473e-05 1.28877e-21)
(6.40707e-07 -6.7455e-06 0)
(-2.50746e-06 -1.10844e-05 2.42763e-22)
(-0.000484988 0.00113212 5.44834e-22)
(1.51372e-06 -4.34226e-06 -2.24949e-23)
(-0.00168536 3.68212e-05 0)
(0.000334455 0.000131073 0)
(0.000957761 0.00274375 0)
(-0.000252128 0.000552294 3.9612e-22)
(5.84955e-06 1.87438e-05 2.12048e-22)
(1.25434e-05 -1.85634e-05 3.36176e-24)
(-0.000182756 7.22263e-05 7.3581e-22)
(0.000512426 -0.000213009 0)
(0.00278021 0.00453551 2.65119e-22)
(-4.88161e-07 -9.88373e-06 -1.64921e-22)
(-0.00318895 0.00117574 -5.70922e-22)
(0.0103434 -0.00436963 4.46842e-21)
(1.17542e-05 -0.000181726 0)
(-0.00340414 -0.00047873 1.15493e-22)
(0.000166706 2.19242e-05 -9.9211e-22)
(-1.12429e-06 -2.44103e-07 0)
(-9.61e-06 0.00106238 -1.2219e-23)
(8.70234e-06 2.35292e-05 -1.84903e-22)
(1.6897e-06 -3.22087e-06 -3.51437e-24)
(-0.000114774 1.45439e-05 -8.45785e-23)
(0.0428551 0.036001 -5.73953e-21)
(-2.1617e-06 7.48007e-08 1.12958e-22)
(-4.46205e-09 -1.13545e-05 -1.01672e-22)
(-5.65387e-06 -2.70038e-05 7.7448e-22)
(-7.86599e-05 -8.32192e-06 0)
(-6.57887e-06 -8.30515e-06 -7.1846e-23)
(0.00296209 0.000227835 0)
(4.82297e-05 -8.61645e-05 -2.95624e-22)
(0.00138904 0.000192692 0)
(1.40963e-06 -2.53306e-06 -5.15786e-23)
(2.50125e-06 -5.68026e-06 0)
(-0.00219473 0.00131617 -1.61723e-22)
(-0.000324565 -0.000345968 1.12574e-21)
(0.00144893 0.00197247 0)
(0.0143729 -0.00563034 -4.21184e-21)
(-0.000283377 4.66373e-05 -2.37937e-22)
(0.00017694 5.10843e-05 -2.69064e-22)
(-0.000813928 0.000999705 -6.57922e-23)
(0.000374309 0.00522474 4.45226e-22)
(-0.000320812 0.000139633 4.45029e-23)
(1.77067e-08 2.44806e-06 5.74368e-23)
(-1.2041e-06 -1.2133e-05 -3.91796e-22)
(-0.00017912 -7.87611e-05 -8.27199e-22)
(-0.00251206 0.000405354 -1.61959e-22)
(-1.15762e-05 -3.99856e-06 -1.92289e-22)
(0.00108256 0.000339863 0)
(0.00161159 1.84259e-05 -1.38463e-22)
(2.27596e-06 -9.52519e-07 0)
(1.69065e-05 -2.34528e-06 0)
(1.56391e-08 -9.43137e-08 -9.18415e-25)
(-0.00222819 0.00136654 -3.34585e-22)
(-0.000195385 -0.000241201 0)
(-0.000917142 0.000379758 0)
(-0.000155938 -0.00147001 -2.1546e-22)
(0.0013777 0.00025655 2.10904e-24)
(0.00670083 0.000157723 -4.11009e-22)
(-0.00172607 -0.00942996 -1.73602e-21)
(3.13052e-06 7.99616e-07 0)
(-1.44216e-05 -5.31004e-06 0)
(-0.00144762 0.000388029 4.06265e-22)
(0.00047362 -0.000216031 3.77051e-24)
(-0.081145 0.0105602 -3.41347e-20)
(4.76786e-06 1.52935e-06 -1.75179e-22)
(-0.0395652 0.00696354 0)
(-1.52387e-07 -7.1372e-06 0)
(0.000809866 0.000441818 0)
(0.0146763 -0.0117566 -3.25237e-22)
(-1.63844e-06 -1.11945e-05 -2.51234e-22)
(-0.0441609 0.0120914 -5.36167e-21)
(0.000132267 -0.000196604 -4.90742e-22)
(-0.000162394 1.04514e-05 -5.52963e-22)
(2.17801e-06 -3.87767e-08 -1.16506e-22)
(-0.000561342 0.000792304 -4.81648e-23)
(-0.00058068 -5.90601e-05 0)
(-0.000859648 0.00026284 5.61948e-23)
(1.31241e-06 -3.81213e-07 -2.6048e-23)
(0.000107716 0.00135583 1.51062e-22)
(-0.00719817 -0.00199819 1.71042e-21)
(2.33216e-06 -5.86395e-06 -1.77824e-22)
(-2.63259e-05 -0.00173724 0)
(2.1801e-06 -1.32859e-06 9.49916e-23)
(-0.00193812 0.0196442 0)
(1.72931e-06 -2.88729e-06 -2.84447e-22)
(-2.4726e-05 1.1844e-05 -2.40055e-22)
(0.000263562 0.00051729 0)
(4.47019e-06 -4.64344e-09 -8.23275e-23)
(4.36586e-06 1.47491e-06 1.08588e-22)
(0.000506055 -0.000304657 -5.12945e-22)
(6.06319e-07 4.14716e-08 -1.691e-22)
(-6.2996e-06 -7.12437e-06 1.01712e-22)
(5.12995e-07 -1.89115e-06 0)
(3.70618e-06 -4.9541e-06 -1.21697e-24)
(-1.37028e-05 -4.48409e-06 -1.06787e-22)
(1.71575e-06 -3.11322e-06 -3.50518e-23)
(0.000104095 0.000124813 0)
(1.78634e-06 -2.18355e-06 -7.77251e-23)
(0.0200369 -0.00444971 0)
(-0.00102608 0.000934058 0)
(-1.60736e-05 -0.000292286 0)
(-8.21988e-06 -8.17529e-06 8.45391e-23)
(-0.00017453 0.000710945 1.50501e-22)
(2.50472e-06 2.9665e-06 0)
(0.00632532 -0.00329873 1.35766e-21)
(4.54331e-07 -8.28425e-06 0)
(4.02025e-06 -1.41495e-06 -5.82209e-23)
(0.000705566 -0.00084796 0)
(6.47138e-06 1.83823e-06 0)
(-3.12488e-06 -9.51769e-06 0)
(-9.68967e-07 -1.09077e-05 1.99533e-22)
(-5.89624e-05 6.03692e-05 -3.88343e-22)
(0.00277064 5.71681e-06 -1.35571e-22)
(-0.000206853 0.000741896 0)
(1.64662e-05 -2.60523e-06 2.87498e-23)
(1.13943e-07 -1.53556e-06 3.10557e-25)
(0.0151221 -0.0027779 9.0625e-23)
(0.000782105 0.00175963 4.67424e-22)
(4.2124e-06 -3.72299e-07 -2.50247e-22)
(-2.36989e-06 -9.38957e-06 0)
(-6.7381e-06 -6.8732e-06 0)
(-0.000145713 0.000241549 0)
(-0.0347484 0.00155349 -2.35602e-21)
(-2.47028e-06 -1.11493e-05 1.44944e-22)
(4.71915e-07 -2.10479e-06 5.0435e-22)
(-0.000135917 -7.64835e-05 2.71036e-23)
(-2.08996e-06 2.71336e-07 2.02217e-22)
(2.77205e-06 3.9714e-07 -6.42251e-23)
(0.000465305 0.000555499 -7.44032e-22)
(-2.47974e-05 4.98645e-06 0)
(0.00390592 -0.00318944 -1.70843e-21)
(5.38499e-06 -2.08309e-06 4.12334e-22)
(1.18228e-06 -7.78726e-06 0)
(3.44513e-06 -1.65361e-06 1.01908e-22)
(-0.000363769 0.00167246 -1.01365e-21)
(9.03824e-06 -1.04628e-05 -1.99177e-23)
(0.0017235 0.00199533 0)
(5.39447e-06 -1.55754e-06 0)
(-0.00136204 0.000190193 3.36209e-22)
(1.3628e-05 -3.20558e-07 2.91853e-23)
(0.000135313 0.000111661 1.96879e-22)
(-7.9702e-05 -0.000197939 6.92007e-23)
(-0.000639279 8.72345e-05 1.7551e-22)
(8.45106e-08 -4.61332e-07 -3.78927e-22)
(4.50503e-06 7.03603e-06 9.28842e-23)
(-9.92694e-06 0.00125974 -6.04663e-23)
(0.00136144 0.000196653 0)
(-8.2065e-05 0.000131147 1.8567e-21)
(2.07663e-06 -4.13781e-06 0)
(4.52005e-06 -5.99144e-07 7.72863e-23)
(0.00036142 -9.16903e-06 0)
(0.0022385 0.000861213 6.45251e-22)
(-0.000123155 0.00035636 0)
(0.000877526 -0.00934098 2.46266e-22)
(-0.00203067 0.000857754 -7.42826e-22)
(2.73521e-05 -0.000133721 0)
(-5.90775e-05 2.14166e-05 0)
(-1.44932e-06 -7.92449e-06 2.17787e-22)
(8.82278e-05 9.45738e-05 1.16907e-22)
(1.42408e-06 -7.32924e-06 0)
(4.82475e-09 -1.10363e-06 -2.03778e-22)
(-0.000106813 0.000743192 9.5263e-23)
(-0.000120822 -6.47928e-05 0)
(-0.000664906 3.22124e-05 -1.44412e-22)
(0.00306258 -0.00728602 4.15857e-22)
(0.0200277 -0.00306918 3.00056e-21)
(1.39658e-06 4.05454e-07 0)
(-0.0299721 -0.00228946 -2.8326e-20)
(-0.00380471 0.00278635 -2.11056e-22)
(0.0120119 -0.0104356 4.71473e-23)
(6.32921e-05 0.00307638 0)
(-1.93154e-05 1.42589e-05 3.76036e-22)
(-0.00016704 0.000117638 2.52903e-22)
(-0.000709611 0.000257902 0)
(0.00274599 -0.00644226 2.93688e-22)
(-0.00193373 -0.000927728 2.7635e-22)
(0.000115275 0.00141005 -1.75799e-22)
(5.86255e-07 9.85915e-07 -5.84353e-22)
(-0.000136759 0.000234256 0)
(2.97179e-07 -3.77883e-06 -6.05361e-26)
(-0.000763197 0.000131289 -1.81826e-23)
(4.35949e-07 1.85043e-06 2.05379e-22)
(0.00881634 0.00293704 0)
(-0.0002842 0.00327122 1.98233e-23)
(-2.66714e-06 -1.05378e-05 -1.58014e-23)
(1.35818e-07 -4.4813e-07 3.78484e-22)
(1.46928e-06 -2.89911e-06 -7.98389e-24)
(3.63594e-05 -0.000135569 -5.88972e-24)
(-7.73437e-05 0.000361784 -1.08355e-24)
(-0.000450535 0.000118505 0)
(-7.32503e-06 -3.46467e-05 8.59136e-23)
(3.95692e-05 -0.000128407 -3.76083e-23)
(0.000791562 0.000569171 5.91362e-22)
(5.02991e-06 1.53917e-06 -2.28611e-23)
(0.00496484 0.016408 7.6016e-22)
(1.50156e-06 1.47553e-06 -3.93078e-24)
(-0.00217516 0.00277476 -3.24929e-22)
(3.88222e-06 6.0846e-07 -1.86462e-23)
(0.00208531 -0.000794078 6.32539e-24)
(-0.000483507 0.000111791 2.40011e-24)
(-0.00272368 0.000654319 0)
(-0.0115733 0.00728328 -2.58401e-22)
(2.60876e-07 -2.31017e-06 6.39243e-25)
(0.00173936 -4.51462e-05 1.31716e-21)
(-1.46078e-06 -6.70796e-06 -1.10636e-22)
(1.73531e-06 -2.50878e-06 3.58892e-22)
(-0.00213568 0.0034854 3.99932e-22)
(-2.74989e-06 -1.1546e-05 -1.69686e-22)
(1.40265e-06 1.28828e-06 3.13667e-23)
(1.90225e-06 -4.75774e-06 -9.06468e-23)
(1.51586e-06 -1.36538e-06 0)
(-0.000343873 -8.42211e-05 -1.85658e-21)
(3.5425e-06 -4.19771e-06 0)
(1.74786e-06 -2.15331e-06 3.51156e-23)
(-3.73252e-05 0.0013711 0)
(-0.000114526 9.42348e-08 0)
(-9.04966e-05 7.48159e-05 -8.43129e-22)
(0.0577532 0.0281189 -2.19309e-21)
(-0.00114398 -0.00133365 4.7445e-22)
(-0.00318108 -0.00273729 9.45151e-25)
(-0.000602961 -0.000289322 1.94658e-25)
(0.00130115 -0.00326086 1.85997e-21)
(-0.00103267 -0.00127761 -9.50776e-22)
(-2.05427e-05 -1.33476e-05 1.76426e-22)
(-0.000582257 8.5418e-05 -3.42749e-23)
(4.14365e-06 4.4367e-07 7.83788e-23)
(-5.47733e-06 -8.54119e-06 -2.0801e-22)
(-7.83479e-07 -1.12693e-05 2.31411e-22)
(-0.00139137 -1.63383e-05 -8.48425e-22)
(3.13458e-06 -3.25775e-06 2.54943e-22)
(-0.00957041 -0.00400428 7.82934e-22)
(-4.76538e-09 -2.56554e-06 6.6847e-24)
(-0.000789011 0.0012915 0)
(-0.0027099 -0.00756366 -1.2809e-21)
(0.00033523 0.00116074 3.58059e-24)
(-0.000109997 -0.000165228 0)
(5.44678e-07 -5.34979e-06 0)
(0.000452358 -0.000266583 4.10121e-23)
(-0.00121881 -0.000532185 1.18065e-23)
(1.62559e-06 -3.08417e-06 2.58506e-23)
(-4.68758e-06 -5.2516e-06 1.98638e-22)
(-7.43623e-05 -1.07793e-05 0)
(-0.00130554 0.00251178 -1.1185e-21)
(-0.00144174 -0.000471574 5.77375e-22)
(-5.43087e-05 -1.55403e-06 1.13343e-21)
(-0.00252922 -0.00296588 0)
(1.13726e-05 -5.04624e-05 4.70698e-23)
(0.000789851 0.00105307 0)
(-0.000112439 -0.000690054 1.02389e-22)
(5.9583e-06 -8.42825e-05 1.48392e-23)
(1.58112e-06 -2.78419e-06 0)
(5.4008e-06 -1.71348e-06 -5.36798e-23)
(-0.000150332 6.76699e-05 0)
(-2.10952e-05 -6.42785e-05 0)
(1.39255e-06 9.91112e-07 -1.40934e-22)
(3.47824e-06 -4.30573e-06 0)
(9.94124e-07 -5.53373e-06 -2.9847e-24)
(-0.000144742 7.3701e-05 0)
(0.000664407 -0.000196455 -1.40696e-21)
(1.2975e-06 -2.77554e-07 -6.44281e-24)
(-0.000318096 0.00100576 1.52292e-22)
(0.00208089 0.00089069 -5.777e-22)
(2.49004e-06 3.19779e-06 -3.35772e-24)
(-0.00122531 -0.00152989 1.22859e-21)
(-9.83646e-05 0.000530196 0)
(5.73496e-07 -1.01135e-07 0)
(-8.3743e-07 -8.22357e-06 2.4068e-22)
(-1.70793e-06 7.70124e-06 5.14265e-22)
(-8.93835e-05 -1.77241e-05 -4.30108e-23)
(-0.0052726 0.00890216 0)
(-0.000140941 0.000231929 0)
(-0.000282582 2.32189e-05 0)
(2.72743e-05 0.000118085 0)
(-0.00153151 0.000641763 5.85656e-22)
(0.0513103 0.0236659 8.80613e-23)
(-0.00266146 -0.00111982 0)
(-0.000815813 0.00183778 1.98267e-22)
(0.00128753 -0.000549174 3.13686e-22)
(3.32451e-06 -2.43547e-06 1.04288e-22)
(-4.24345e-07 -7.99909e-06 9.91481e-23)
(0.00103626 0.00247077 -1.3372e-21)
(0.00128259 -0.00120156 6.89964e-23)
(-0.000404797 -0.000393774 0)
(8.93893e-05 9.00202e-05 0)
(0.000422896 0.000218231 -1.70217e-22)
(1.69676e-06 -2.7066e-06 -1.62544e-22)
(9.45855e-06 2.20171e-06 0)
(-0.00163494 0.00245355 -5.48743e-22)
(3.08232e-06 3.0816e-06 -3.35026e-23)
(0.0132977 -0.00938947 1.41129e-22)
(4.83532e-07 -5.26243e-06 0)
(-0.000254679 6.33606e-05 0)
(-0.000622797 -0.00095774 -1.26171e-22)
(0.00141405 -0.00124708 -2.07328e-24)
(-2.89509e-08 -1.7747e-07 -2.92782e-22)
(0.00165067 -0.00208179 5.07641e-22)
(1.28295e-06 3.06999e-07 0)
(1.64505e-06 8.30241e-07 0)
(1.31542e-06 1.96558e-07 4.41222e-23)
(-0.00895869 0.00549961 2.82158e-21)
(0.0142178 0.0207428 -9.18577e-22)
(1.18928e-05 -1.53705e-05 -2.70771e-23)
(-5.92556e-05 8.04013e-05 -1.07354e-23)
(0.00187557 0.000195879 3.59604e-24)
(-4.17982e-06 -3.49352e-06 -1.77315e-22)
(0.00187549 -0.0012411 -1.01376e-22)
(5.7893e-06 7.09148e-06 -3.96818e-22)
(0.000253485 0.00172924 -1.57892e-22)
(-6.69419e-05 -0.000189046 0)
(-1.12794e-05 -4.36876e-06 -1.28926e-22)
(-0.0029054 6.68286e-06 0)
(0.00174585 -0.00394372 -8.30133e-22)
(-0.000740894 -0.0020437 -5.11365e-22)
(0.0641402 0.0272591 0)
(9.7904e-05 -0.000174566 0)
(-2.46649e-05 1.41327e-05 6.0441e-22)
(2.93722e-06 -3.96763e-06 2.2043e-22)
(-0.000183429 6.23815e-05 -6.88302e-22)
(-0.00180501 7.4471e-06 0)
(-0.000100223 4.16511e-06 6.07416e-22)
(-0.000883137 0.000460015 -2.01831e-22)
(-6.22795e-07 -1.19655e-05 0)
(-1.26117e-06 -1.17043e-05 7.43399e-23)
(-0.00115855 1.67706e-05 8.90891e-22)
(-5.44542e-05 0.00011211 -1.82855e-21)
(0.000102394 -4.50064e-05 0)
(-0.000405225 0.00108216 1.87542e-22)
(0.00084353 0.000661035 2.30897e-22)
(0.00174127 -0.00151978 7.49976e-22)
(0.00123136 -0.00207599 -4.63855e-22)
(-8.13129e-05 -0.000100276 1.63994e-23)
(2.72433e-06 -8.72557e-05 -1.50322e-23)
(1.74057e-05 2.36214e-05 3.11944e-23)
(0.00293524 0.00623151 0)
(-0.000128168 -0.00183214 -1.39848e-23)
(-0.00215706 -0.000743737 1.50078e-22)
(3.00567e-07 -5.01084e-06 4.37064e-22)
(-9.35406e-06 3.69448e-06 -5.31467e-22)
(0.00107191 0.028529 -1.04127e-21)
(0.00324854 -0.00740309 -3.69379e-22)
(0.00299157 0.0113673 1.15631e-21)
(1.62025e-06 -2.81177e-06 1.58432e-22)
(-0.00197015 0.00181278 1.99527e-21)
(-0.000169195 5.07826e-05 2.79339e-22)
(7.03503e-05 -3.9369e-05 5.87251e-23)
(-8.9397e-05 7.79624e-05 8.53761e-22)
(0.000413041 -0.000264446 3.86221e-23)
(8.37682e-05 0.000444891 -2.54152e-23)
(-2.43298e-05 -1.44727e-05 0)
(0.000463137 -0.00142548 0)
(-0.00020022 -0.000120583 -4.54211e-22)
(1.27913e-06 -1.46978e-06 0)