/*--------------------------------*- C++ -*----------------------------------*\
| =========                 |                                                 |
| \\      /  F ield         | OpenFOAM: The Open Source CFD Toolbox           |
|  \\    /   O peration     | Version:  v2012                                 |
|   \\  /    A nd           | Website:  www.openfoam.com                      |
|    \\/     M anipulation  |                                                 |
\*---------------------------------------------------------------------------*/
FoamFile
{
    version     2.0;
    format      ascii;
    class       surfaceScalarField;
    location    "350";
    object      ddtCorrDdt0(phi);
}
// * * * * * * * * * * * * * * * * * * * * * * * * * * * * * * * * * * * * * //

dimensions      [0 3 -2 0 0 0 0];
oriented        oriented;


internalField   nonuniform List<scalar> 
27055
(
0.000523244
-0.000523257
0.000421378
-5.28291e-05
6.43928e-05
-1.15637e-05
-0.000125674
-3.42871e-05
0.000159964
-6.64692e-05
-0.000138598
0.000205067
0.000234387
-0.000141809
-9.25784e-05
5.55436e-05
-0.000145609
9.00634e-05
-4.47116e-05
-3.61193e-05
8.08303e-05
0.000257916
-6.8031e-05
-0.000189887
-0.000212976
0.000146505
0.000151538
6.04464e-06
-0.000157581
0.0010284
-0.000204409
-0.000824006
-0.000248188
2.59254e-05
0.000222261
-0.000485699
0.000471004
1.47214e-05
-0.000229948
0.00010419
0.000125759
-0.000834593
0.00103283
-0.00019822
-3.05204e-05
3.04753e-05
4.59832e-08
4.2426e-05
-2.00309e-05
-2.23946e-05
-9.48835e-05
0.000119379
-2.44934e-05
0.000251797
-0.000266822
1.50258e-05
5.8817e-05
-0.000189361
0.000130544
-8.73625e-05
0.000154069
-6.67044e-05
2.42383e-06
0.000149115
0.000135514
-0.000198313
6.27998e-05
4.95542e-05
-0.000178723
0.00012917
0.000175314
-0.00012576
-1.99887e-06
7.67091e-05
-7.47104e-05
0.000108772
0.000125615
2.43698e-05
1.80565e-05
-1.09266e-06
-5.17355e-05
-2.6212e-05
2.85837e-05
-2.37202e-06
-0.0016233
0.002755
-0.00113158
0.000120061
-0.000104776
-1.52869e-05
0.000586181
-0.00291889
0.00233277
0.000282481
-0.000284009
1.52806e-06
-0.000177495
0.000203268
-2.57706e-05
0.000333393
-0.000335578
2.18692e-06
4.20978e-05
-0.000101504
5.94058e-05
0.000161578
0.000199594
-0.000361171
4.74458e-06
2.74825e-05
-3.2227e-05
0.000721035
-0.000117286
-0.00060383
0.00103304
-1.40517e-05
-0.00101897
-4.79932e-06
-0.000194063
0.000198862
0.000255757
8.83008e-05
-0.00034406
2.94935e-05
-4.17551e-06
-2.53192e-05
0.000187683
-0.000346318
0.000158634
0.000196498
6.0426e-05
9.80076e-05
0.000935031
-0.000269253
0.000256298
1.29543e-05
-2.27445e-05
0.000115695
-9.29502e-05
-3.48588e-05
3.14451e-05
3.41397e-06
-5.62041e-07
1.29439e-05
-1.23818e-05
-0.000366985
0.000506905
-0.000139913
-0.000133047
-0.000316766
0.000449818
-3.08299e-05
0.000260169
-0.000229339
0.000431919
-0.000132483
-0.000299435
-1.80625e-05
-2.23335e-05
4.03952e-05
-8.33404e-06
4.42149e-05
-3.58838e-05
0.000103224
-4.79402e-05
-5.52819e-05
-1.88897e-05
0.000180456
-0.000161565
-8.63037e-05
-0.000143644
2.97563e-05
-2.6173e-07
-8.05866e-05
-0.000124636
0.000205223
-0.000150865
2.51913e-05
-0.000816855
0.000248535
0.000568321
-0.000289302
0.000121042
0.000168261
0.00112041
-0.00112784
7.52202e-06
-7.49443e-05
-0.00154834
-6.51172e-05
6.31161e-05
-0.000286712
0.000206128
-4.05286e-05
2.24657e-05
-4.35895e-05
2.24552e-05
2.11354e-05
0.00105358
0.00170142
0.000108745
5.43333e-05
-0.000163079
0.000765013
0.000410903
-0.00117592
0.000257872
2.81347e-05
-0.000286006
0.000162022
-1.1306e-05
-0.000150721
-6.57931e-05
-9.70022e-05
0.000162795
-0.000270046
0.000270045
-0.000170707
0.000124389
4.63165e-05
-0.00231459
0.00223977
0.000222043
0.000349537
-0.000571574
-0.00058078
-1.1923e-05
0.000592696
0.000237939
-7.24536e-05
-0.000165483
0.000259131
-1.41108e-05
-0.000245018
0.000183794
0.000248127
-5.62669e-05
5.11287e-05
5.1384e-06
-0.000112328
1.74458e-05
0.000600263
-0.000378212
-0.000619239
0.000178074
0.000441165
-0.000106847
-5.47756e-06
-7.44453e-05
8.36018e-05
-9.15817e-06
-2.53703e-05
-8.4216e-07
-4.63087e-05
0.000362346
-0.000316037
-0.000113776
6.9283e-06
-7.53473e-05
-0.000211362
2.72089e-05
-5.66198e-05
2.94099e-05
-0.00016191
5.02835e-05
0.000111629
1.60633e-05
0.000248274
-0.000264336
-8.26845e-05
0.000164939
-8.22557e-05
9.61808e-05
7.23192e-05
-0.0001685
-0.000646366
0.000513323
0.000280045
-0.000170459
-0.000109586
-0.000256141
0.000216861
3.9279e-05
-0.00018084
3.34576e-06
-0.000209576
0.000150881
5.86953e-05
-4.99486e-05
4.88566e-05
-7.56574e-05
0.000560008
-0.000484344
-1.29052e-05
1.29052e-05
0.000131542
-0.000256176
-5.61184e-05
-0.000233185
0.000324591
-0.000269704
-5.4892e-05
-0.000113553
1.26186e-05
0.000100936
-8.10977e-05
0.000136641
-3.25088e-05
-2.35116e-06
0.000319268
-8.42829e-05
-0.000234983
-0.000476044
-0.000207565
0.00068361
0.000325965
-0.00013828
0.000204818
-0.000333501
0.000128681
-6.19404e-05
0.000300254
-0.00023831
5.87689e-06
3.63633e-05
-4.22401e-05
8.8897e-05
-4.67996e-05
-0.000121412
0.00028955
-0.000168142
0.000184335
-2.96578e-05
-0.000154679
-6.13156e-05
0.000407684
-0.000346362
0.000224241
-0.000229042
-0.00144962
-0.000185047
0.00163466
1.0472e-05
2.68269e-05
-3.72971e-05
-0.000111654
0.000170472
1.57327e-05
0.000308857
-8.38553e-05
3.59821e-05
4.78733e-05
0.000167041
-9.85505e-05
-6.84868e-05
-0.000161942
0.00036676
-7.34262e-05
4.65903e-05
2.6835e-05
0.000208828
-0.000575815
0.000262585
-4.71138e-06
-0.000299254
3.00001e-05
7.77591e-05
-1.51753e-05
-6.25855e-05
0.000199854
-4.58473e-05
-0.000154005
0.000177635
0.000181111
-0.000358747
-0.000280373
0.000249545
-0.000109816
-9.97602e-05
0.00319537
-0.00402994
0.000834467
-2.1307e-05
5.19825e-05
-3.06764e-05
0.000310076
-2.77329e-05
-0.000282341
2.31554e-05
-0.000221446
0.000198287
-0.000257705
0.0001714
1.39799e-05
-3.92233e-06
-1.00576e-05
4.59664e-05
-0.000274456
0.00022849
-0.000235008
0.000233335
1.67495e-06
0.00024488
1.15932e-05
0.000831162
6.13099e-05
-0.000892478
0.000329998
0.000297564
-0.00062756
6.96629e-07
0.000161324
-0.000378698
-0.000240542
0.000612128
0.000108856
0.00077152
-0.000699661
-7.18563e-05
-0.000481691
-0.00033516
-0.000279453
6.43073e-05
0.000215148
0.000180964
0.00032781
9.35628e-05
-4.0561e-05
-3.28663e-05
2.26378e-06
0.00080348
0.000316882
-0.00020248
5.21639e-06
0.000197265
-1.32442e-05
4.49785e-05
-3.17365e-05
-4.65425e-05
0.000243693
-0.000197149
-0.000648529
0.00384383
0.000122648
-0.00017826
5.56107e-05
-0.000228805
2.08937e-07
0.000228596
-7.49544e-05
-4.36361e-06
7.9316e-05
4.62888e-05
-9.1e-05
-3.93175e-05
-4.45373e-05
7.9678e-05
2.38332e-05
-0.000156209
0.000132379
-0.000269831
0.000269832
0.000136997
0.000100942
1.95161e-05
-2.08006e-05
1.28555e-06
0.0002716
1.08814e-05
-2.48322e-06
-2.10352e-05
2.35185e-05
-0.000214
0.000215063
-1.06458e-06
-0.000230926
0.000392503
-2.38427e-05
-1.97468e-05
0.000123347
0.0001567
0.000216904
-0.000216899
1.398e-05
-0.000267364
0.0001384
0.000128965
8.64635e-05
0.000172668
-4.33408e-05
4.80852e-05
0.000290196
-0.000307467
1.72711e-05
5.76491e-05
-0.000182572
0.00012492
9.83631e-05
-8.6024e-05
-1.23379e-05
4.49399e-05
6.07502e-05
-0.000307043
0.000246294
2.63993e-05
-4.77061e-05
3.84698e-05
-0.000126809
8.83395e-05
-6.22517e-06
-0.000107327
-0.000157375
4.4325e-05
0.000113051
1.14509e-05
3.34821e-06
-1.47993e-05
8.42567e-05
-1.66965e-05
-6.75594e-05
1.53722e-05
-1.55298e-05
1.58162e-07
-0.000409669
0.00025818
0.000151494
8.17176e-05
-0.000219992
0.000138274
0.000207782
6.75462e-05
-0.000275328
-0.000669821
0.000594168
-3.8002e-06
0.000160741
-0.000156941
5.15179e-05
0.00023457
-0.000286088
-0.0010356
-0.00297188
0.00400752
0.000232688
-0.000200452
-3.22344e-05
-0.000234314
-0.000179241
0.000413559
-9.53195e-05
8.99978e-05
5.32267e-06
-0.00019703
-6.0675e-05
-0.000112079
0.00020826
0.000284017
-0.000267952
0.000767488
5.86296e-05
-0.000826121
-0.000232172
-0.000177492
-0.000257646
0.000587647
7.34452e-05
1.01566e-05
-4.99272e-05
-2.24081e-08
-2.84034e-05
-0.000133507
0.000320173
-0.000274206
0.000169285
1.11727e-05
-3.55841e-06
0.000204118
-0.000200558
-6.52256e-05
-0.000135495
0.00020072
-2.91315e-06
1.43643e-05
2.11393e-05
-9.60928e-05
-2.32004e-06
0.000186563
-5.10482e-05
2.54897e-05
-2.79735e-05
-2.0409e-05
-7.02043e-05
9.06144e-05
4.27641e-05
-5.96915e-05
1.69251e-05
0.000187112
-6.44643e-05
0.000520241
-3.1772e-05
0.000803293
9.0935e-05
2.91255e-05
0.000121182
-0.000360807
0.000239627
-0.000160042
0.000137289
2.27538e-05
0.0017031
-0.00118884
-0.000514277
-0.00012112
9.83769e-05
-7.47577e-06
-1.13254e-05
1.88008e-05
7.66029e-05
-3.38405e-05
0.000189383
-0.000446347
0.000256961
0.000877293
0.000825785
0.000231661
-0.000196019
-3.56419e-05
0.000316741
-6.09845e-05
-0.000203028
-2.57777e-05
-2.68128e-06
4.84195e-06
-2.16069e-06
3.34885e-06
-1.7783e-05
1.44342e-05
0.000204759
6.92354e-06
-0.000211681
0.000115273
7.92106e-05
-0.000194483
7.44225e-05
0.000285967
-0.000360387
0.000373361
-0.000169902
-0.000203459
2.11887e-05
0.000107735
-0.000128922
-0.000239295
3.88447e-05
0.000122094
-8.36261e-05
-9.99193e-05
-8.09025e-05
0.000180828
3.80484e-05
-0.00013458
9.65306e-05
-0.000212939
0.000209382
-0.000229832
0.00021572
-0.00025792
4.39187e-05
0.000208293
-0.000244675
3.63848e-05
-0.000678268
0.000361506
0.000216729
-0.000217805
1.07492e-06
1.91995e-05
3.1626e-07
0.000153
-6.34033e-05
-8.95942e-05
-7.22711e-06
-9.04365e-06
1.62706e-05
0.000289967
-0.000351811
6.18479e-05
-1.33184e-05
-0.000266133
0.000240878
0.000178953
-0.000194115
1.51624e-05
5.13717e-05
-0.000149921
0.00286234
-0.00227631
0.000121485
-0.000228867
0.000107381
-1.80335e-05
1.76665e-05
3.67392e-07
-8.45515e-05
0.000105741
0.000287121
-0.000270227
-1.68932e-05
-3.18963e-05
-0.000548875
8.67084e-05
-0.000156309
6.95994e-05
-1.71458e-05
9.6698e-06
-0.000294333
0.000233034
0.000220699
8.74239e-05
-0.000308119
0.000257329
0.000250806
-0.000227297
-2.35061e-05
0.000364894
-0.00020939
-0.000155504
0.000268094
-1.17956e-05
-0.000133491
-2.65523e-05
-7.49143e-05
-0.000183648
0.000258563
-0.000310548
-3.9298e-05
0.000349844
0.000274106
-0.00019298
-8.11206e-05
0.000217111
-0.00069315
7.93633e-05
1.90015e-05
-0.000697599
0.00044047
0.000257137
5.4538e-05
0.000235659
0.00102421
4.18889e-06
0.000817115
-4.51079e-05
0.000224061
0.000133529
0.000231366
-0.000238602
5.05216e-05
0.000188082
1.22915e-05
1.74658e-05
-0.000233725
0.000236649
-2.92013e-06
-0.000249238
-0.000182194
0.00043143
-1.31017e-05
4.61224e-06
8.48963e-06
0.000194337
-0.000300638
0.0001063
-0.000441431
0.000171779
0.000269655
-5.72854e-06
-7.37314e-06
-2.78725e-05
1.95378e-05
7.81316e-05
-0.00155087
-0.000719667
0.000288112
0.000431566
-2.53172e-05
-5.20359e-06
0.000334013
-0.000273262
1.80562e-05
0.000213606
7.8216e-06
-4.49214e-05
3.71011e-05
-0.000589913
-0.00034934
0.00093926
0.000137636
3.58211e-05
-0.000173458
0.000235815
1.49897e-05
0.000235162
0.000256189
-0.000311969
5.57816e-05
-3.41862e-05
5.92198e-05
-2.50351e-05
0.000338695
-0.000217513
3.74738e-05
-2.33128e-05
-1.41629e-05
-0.000436921
0.00013671
0.000300223
-0.000292544
0.000208264
-0.00115634
0.000590197
0.000566143
0.000460447
0.000205886
-0.000164004
-4.18829e-05
0.000249825
-3.25494e-05
-0.000217274
-0.00139296
-7.30868e-05
-0.000219456
-0.000911833
1.2164e-05
0.000899696
0.000198759
-0.000195213
-0.000483053
1.56675e-05
5.77359e-05
-7.34012e-05
-0.000546381
0.000408187
0.000138194
6.57118e-05
-0.000259907
0.000194198
-0.000258688
4.51927e-05
0.000213498
0.00045891
0.000147796
-0.000606696
-0.000185271
0.000195705
-1.04329e-05
0.000277831
-0.000200843
-7.69896e-05
-6.82387e-05
3.12317e-06
0.000195744
-0.000430053
-0.000127215
0.000106806
-0.000202612
0.00025413
-3.89706e-06
1.21581e-06
1.14752e-05
-1.97372e-05
8.26275e-06
3.19802e-05
-6.61665e-05
-0.000299516
0.000509318
-0.000209786
2.29026e-05
-0.000141592
0.00011869
-0.000329688
0.00014604
-0.00121443
0.00129258
0.000179695
-0.000138089
-4.16071e-05
0.000584885
-0.000389694
-0.000195183
0.000106469
-0.000207977
0.000101507
0.000133326
7.256e-05
-8.63207e-05
-4.90068e-05
0.000135329
-3.18e-05
-0.000354574
0.000386379
0.00030619
-0.000224799
-8.13867e-05
0.000187162
-0.00023347
5.71468e-06
-4.81918e-05
4.24727e-05
1.23706e-05
-7.10587e-05
5.86881e-05
6.52891e-06
3.09537e-05
-3.74808e-05
0.000271559
-3.69895e-05
2.50807e-05
0.00019916
1.40912e-05
8.91302e-05
4.62047e-05
0.000474884
4.83284e-05
0.000166959
-0.000109311
-0.000246615
6.50348e-05
0.000181581
-2.04016e-05
4.33041e-05
-2.28256e-05
0.000173706
0.000100883
0.000176949
0.000170866
-1.56418e-05
-0.000155222
0.000169214
-0.000187912
1.86962e-05
4.19535e-05
0.000285855
0.000224768
0.00322399
-0.00344891
1.97138e-05
6.45439e-05
4.83298e-05
-0.000131014
-2.63742e-06
-0.000162756
0.000165393
7.19033e-06
-1.98225e-05
1.26333e-05
-0.000790764
-4.38311e-05
0.00149163
-0.00105451
-0.000437127
-4.14472e-05
0.000222862
-0.000181416
-0.000402825
-0.00029477
4.05367e-05
-2.49266e-06
-3.80451e-05
-0.000182406
0.000176046
6.36169e-06
0.000189811
1.49487e-05
8.29498e-05
-0.000994778
5.22417e-05
-8.67681e-05
3.45267e-05
1.77721e-05
-1.05811e-05
4.1515e-05
2.17477e-05
-6.32645e-05
-0.000202432
0.000283905
-8.14735e-05
-0.00027925
0.000291708
-1.24558e-05
0.000122517
-0.000242297
0.000119777
-0.000296543
2.20873e-05
-0.000902751
0.000985711
-0.000323867
-4.39264e-05
0.000367809
0.00019441
-7.9136e-05
0.000151428
-0.000272842
-3.79364e-05
1.40939e-05
-7.62462e-05
0.000284033
1.08272e-05
-1.91222e-05
8.29511e-06
0.000179791
-1.05768e-05
0.00109397
-0.000326501
0.00108358
0.00060817
-0.00169176
-0.000208698
0.000274411
-0.000434623
-5.84435e-05
7.08138e-05
0.000273278
-0.000318141
4.48641e-05
1.55324e-05
-1.60947e-05
7.12203e-06
-1.49139e-05
7.793e-06
2.85537e-05
-0.000180676
0.000152122
-0.000192614
-0.000244305
-0.00302793
0.0032526
-0.000233462
-0.000486203
-0.000249387
0.000176302
-0.000148939
-0.000336759
0.000194337
-0.000208901
1.45641e-05
-6.5299e-05
3.7903e-05
2.7398e-05
-2.474e-05
-7.60433e-06
3.23446e-05
0.000328988
-0.00015135
-0.000115401
-4.1975e-05
0.000226517
-0.000285558
5.90405e-05
0.000212386
1.70406e-05
-0.000229426
0.00171935
-0.00154084
-0.000178499
9.24861e-05
-6.91182e-05
-2.33664e-05
0.00039456
-0.000205177
-0.000466904
0.000337251
0.000129656
-0.000257533
0.00102255
0.00125004
-7.88129e-05
-0.00117122
-0.000198511
-4.81039e-05
6.93379e-05
0.00018246
3.67501e-05
-7.28442e-05
3.6095e-05
-0.000171809
-0.000127445
-0.00010439
0.000110098
-6.57956e-05
0.000152504
-0.000360114
-0.000186266
-3.6546e-05
4.30747e-05
1.56725e-05
2.18009e-05
4.94774e-05
-0.000119681
0.000564418
-0.00062179
5.73845e-05
-0.000101262
-4.96018e-05
-0.000102334
0.000184051
-8.98162e-05
-0.00030325
0.00039307
-8.96723e-05
-0.000223156
0.000253074
-2.99162e-05
-0.000118152
-0.00014921
-0.000235507
1.23531e-05
0.000195642
-5.05222e-05
-0.000145122
-0.000135474
-3.52319e-05
0.00111885
-0.000323745
-0.000795116
-0.000231866
0.000185324
6.70219e-05
-0.000313073
0.00024605
3.78059e-05
-0.000177327
0.000139524
-1.85439e-05
-2.37624e-05
4.23078e-05
3.87751e-05
-0.000112772
0.000150821
-4.74705e-05
7.99044e-05
-3.24345e-05
0.0030287
-7.72096e-05
-0.00295071
1.20392e-05
-3.67792e-05
0.000254883
-0.000133399
-0.000183386
0.00020654
1.23315e-05
8.0156e-05
0.000220118
-0.000200412
-1.97064e-05
0.000183416
1.22258e-05
-0.000275884
0.00037348
-9.75961e-05
0.000102575
-9.11074e-05
-1.14674e-05
-4.10121e-05
2.77674e-05
-8.51205e-05
6.04628e-05
2.46585e-05
0.000130469
-0.000207298
7.68266e-05
-0.000243519
-4.67108e-06
-0.000224832
-3.66877e-05
-2.86121e-05
0.000302066
-0.000235044
-0.000403404
4.9269e-05
0.00035414
-0.00120591
0.000606406
0.000599521
0.000233697
-0.000111181
-0.00014758
-9.8185e-05
0.000245764
0.000220828
9.86642e-06
-0.000230697
0.000177243
1.68029e-05
-0.000194048
0.000652199
-0.000193282
5.37602e-05
0.000154533
-0.000245393
0.000234011
1.13827e-05
-0.000117641
-0.000464227
0.000581874
-3.46846e-05
4.05614e-05
0.000382294
0.00133705
7.5748e-05
2.01067e-06
0.000241847
-0.000148034
-9.38143e-05
-0.000315963
0.000154516
0.000161449
-9.37112e-05
-0.000150962
-0.000352307
4.17585e-05
0.000208442
-0.00111118
-1.06323e-05
-2.87129e-05
3.93446e-05
-0.00014407
0.000172623
-8.09223e-05
3.34512e-05
-3.86548e-05
-0.000210733
0.000236349
-0.000226734
-9.61489e-06
-0.000247177
-0.000219726
-4.00136e-05
4.30792e-05
-3.06523e-06
0.000138633
3.22326e-05
7.54648e-05
-0.000245922
-2.78671e-05
2.54982e-06
-0.000144119
4.28548e-05
0.000378807
-0.000303663
-7.51398e-05
0.000123341
6.3771e-05
-0.00021984
0.000192333
2.75073e-05
6.56351e-05
-0.00011383
-0.00014613
-0.000111792
5.36185e-05
-3.13678e-05
-2.22526e-05
0.000157138
-0.000171799
1.46608e-05
2.66073e-05
2.95171e-07
-2.69016e-05
-0.000196396
0.000111413
8.49805e-05
0.000327209
-1.24354e-06
-0.000111892
0.000149698
-0.000248238
0.000209586
9.08785e-05
0.000242515
-2.51929e-05
-2.20682e-05
4.72612e-05
1.56501e-05
3.79658e-05
-4.74195e-05
9.96619e-05
2.13214e-05
0.000219639
-0.000240961
0.000284058
-0.000146433
-0.000137623
0.000142654
-0.000138772
-3.88366e-06
-6.07449e-05
0.000184085
0.000193707
0.000176114
2.26777e-05
-7.67926e-05
5.41186e-05
0.00100288
-0.00155379
0.000550991
1.04175e-05
0.000165331
-0.000175751
6.66791e-05
3.67266e-05
-4.7924e-05
1.11974e-05
-0.000220991
0.000155764
4.52339e-05
-4.70127e-05
3.36376e-05
1.33735e-05
0.000129516
-0.00157913
2.77958e-07
0.000232393
3.95686e-06
0.00013898
-0.00175925
0.00162018
-1.9654e-05
-1.82833e-05
0.000405707
-0.00019291
-0.000212799
-1.47324e-05
5.14582e-05
0.000187347
-0.000247306
0.00032173
8.99356e-05
-0.000155729
-0.000276298
-2.952e-06
5.78705e-07
2.60289e-05
4.60865e-05
-3.5614e-05
-5.09018e-06
-2.27765e-05
0.000286253
-0.000164492
-0.000121759
0.000274529
-5.38273e-05
-0.000136033
-0.000197468
-5.42022e-05
-2.53712e-05
7.95739e-05
-9.2795e-05
-0.000165891
-0.000197673
0.000222753
-8.15658e-05
6.48691e-05
0.000101697
0.000182364
2.50881e-05
-3.57205e-05
-0.000312598
0.000329386
-1.67872e-05
-0.000667331
0.000137697
0.000529608
0.000211134
-0.0002059
-5.23436e-06
-0.000434657
4.80604e-05
0.000386596
-3.92472e-05
5.14492e-05
-1.22019e-05
0.000214653
0.000191053
0.000173956
-0.000207983
3.40267e-05
5.23116e-06
-1.27649e-07
-5.10352e-06
-0.000216557
-6.16656e-06
0.000222723
2.5335e-05
-5.70135e-05
3.16791e-05
-0.000347443
7.15586e-05
-2.52665e-05
1.3045e-05
1.22211e-05
-4.75454e-07
-3.95381e-05
0.00032031
0.000264582
-0.000110244
1.03257e-05
-1.2059e-05
3.5853e-05
-6.20187e-06
-2.96509e-05
-0.000109406
-9.83312e-06
0.000119239
0.000255756
4.36406e-05
-0.000299394
-0.000112811
-0.000203153
1.35306e-05
0.000129123
3.47958e-05
0.000186032
3.94336e-05
-0.00013637
9.69362e-05
0.000169277
-0.000181896
1.26167e-05
-0.000141295
-7.23801e-05
0.000213674
-5.53929e-05
-1.28456e-05
3.92918e-05
0.00024783
1.54359e-06
3.68848e-05
-3.84286e-05
-2.9072e-05
-0.000558353
0.000482572
7.57816e-05
1.62842e-05
-1.26381e-05
-3.64653e-06
0.000233547
-0.000212227
5.06852e-05
-4.91418e-05
-0.00104809
0.0011461
-0.00222629
0.000401006
-0.000648681
0.000247678
-1.88202e-05
-6.27462e-05
-3.94447e-05
2.64305e-05
1.30136e-05
-0.000231095
3.06824e-05
-3.33395e-05
-2.29269e-05
0.000194794
-0.000234383
3.95952e-05
0.000102658
4.9914e-06
-0.000107649
0.000566815
-2.38776e-06
0.00265737
0.000371558
7.83401e-05
0.000241832
-0.000206681
-2.70449e-05
-1.96032e-05
0.000122263
-4.01501e-05
3.40322e-05
6.1191e-06
-0.00434389
0.00281898
0.00152469
-0.000150167
4.61974e-05
-4.91351e-05
2.94014e-06
-0.0001223
-0.000108263
0.000230563
-3.34653e-05
-1.35474e-05
-9.86478e-05
-0.000171398
-2.87929e-05
-1.06522e-05
8.86848e-05
0.000153162
0.000128369
-0.000115751
-6.45925e-05
-0.000131804
-0.000302762
0.000166728
-0.000220476
0.000226828
-6.3537e-06
0.000103882
0.000126067
-0.000229946
-3.49541e-06
2.97437e-05
-2.6249e-05
-6.97587e-05
1.43667e-05
0.000367098
-0.000136564
-0.000230535
2.3082e-05
-2.65778e-05
-1.81745e-05
-0.000116382
4.82242e-05
6.81574e-05
-2.62277e-05
5.15629e-05
0.000240793
-0.000307919
6.71253e-05
2.9041e-05
-0.000309463
0.000280422
0.000211347
-0.000390591
-0.000124944
-0.000141879
-0.000215332
-2.39618e-05
-0.00149172
0.000181966
0.00130974
-0.000117784
-6.65019e-05
0.000184286
-0.00023667
0.000118517
5.08043e-05
-2.07861e-05
-3.00202e-05
-0.000114457
0.000117423
-2.96725e-06
6.63674e-05
1.79981e-05
-1.52413e-05
-2.79247e-06
-0.000138879
0.000338474
0.000290084
-0.00017665
-0.000113433
5.83365e-06
-0.000208314
0.000319736
-2.9764e-05
-0.000289956
0.000128729
0.000161228
0.000735556
4.08048e-05
-0.000776369
-0.000254269
5.03332e-06
-0.000217013
0.00021198
3.51449e-06
1.71661e-06
0.000235923
-0.000230889
0.000121829
0.000228176
-0.000228688
5.12702e-07
0.000392695
-0.000263284
-0.00122842
-0.000434674
0.000118018
0.00031666
-0.000154849
-2.75574e-05
0.000135408
0.000154678
0.000248964
-4.4365e-05
-0.000204602
-0.000321998
0.000184736
0.000137265
-9.50065e-06
-0.000425152
8.2782e-05
-0.000406646
-0.000214648
0.000221896
-7.2491e-06
-4.71971e-05
-6.9186e-05
-0.000252901
5.02896e-05
0.00149918
0.000106694
-0.000197342
9.06487e-05
4.87031e-05
0.000330106
8.51255e-05
-8.8966e-05
3.84074e-06
-3.17843e-05
0.000375647
-0.000343865
-0.000220288
-0.00103016
0.00125046
-0.000190207
0.000156053
3.41535e-05
0.00035988
-0.00157429
-2.22061e-05
0.000234593
-7.25766e-05
3.32592e-05
-0.000119105
-0.000117563
-0.000130949
0.000128314
9.85639e-07
1.70385e-05
-1.80235e-05
0.000236629
-1.17115e-05
-0.000224918
-9.01483e-05
0.000320098
-0.000229951
0.00016739
-0.000112243
-5.51471e-05
0.000284797
-0.000129928
0.00023094
-0.000101012
5.82055e-05
-0.000367666
0.000619024
0.000388061
-0.00100707
7.19597e-06
2.78292e-05
-3.50237e-05
-0.000860197
0.00216381
-9.6396e-05
0.000226863
2.57548e-05
0.000143522
0.000343467
3.26366e-05
-0.000376106
-1.91855e-05
8.55515e-05
-5.21957e-05
-0.000382479
-0.000196816
0.000452971
-0.000256149
0.000176962
-0.00021368
3.67153e-05
1.71733e-06
-0.000116176
0.000257479
-0.000193238
-6.42408e-05
0.000161483
-0.000165284
-1.04992e-05
-0.000138982
0.000149481
-5.8902e-05
3.45098e-05
2.43935e-05
-0.000210214
-0.000100272
0.000310484
0.000284614
4.25966e-05
-1.78957e-06
0.000173759
-0.000224681
9.35154e-06
0.000293728
-3.75385e-05
-0.000201649
3.08613e-05
0.000170788
0.000317711
0.000779048
-0.00109677
5.13126e-05
2.88057e-05
-8.01173e-05
-8.15548e-05
-0.000352731
0.000434291
0.000420031
-7.658e-05
-0.000550052
0.000171351
-2.67091e-05
3.00568e-05
0.00053951
-0.000551437
5.90094e-05
-3.17999e-05
0.0010029
8.66135e-08
1.38528e-05
-1.39394e-05
4.45219e-06
-2.8984e-05
2.45316e-05
1.23586e-05
-4.08274e-05
2.84688e-05
-0.0034645
-0.00087954
0.000238903
-0.000241502
2.59928e-06
8.84016e-06
-4.04635e-05
3.16228e-05
-0.000503455
0.000306641
2.88837e-05
1.16534e-05
5.71013e-06
-0.000692493
0.00068678
-0.000335233
0.000278332
5.69011e-05
-0.000366449
-0.00118724
-0.000852333
0.000647925
0.000102466
-4.86648e-05
0.000132787
-8.41213e-05
-0.000113367
8.88691e-05
2.44957e-05
-6.50727e-05
8.07403e-05
-0.00066332
1.70737e-05
0.000646262
-0.000427312
-8.53116e-05
0.000512636
-0.000240287
0.000318627
3.84941e-06
1.15233e-05
0.00022399
-4.67459e-05
-8.29299e-06
1.29918e-05
5.50469e-05
5.60217e-06
4.55268e-05
7.14262e-05
-0.000189211
-1.39494e-05
0.000185105
-0.000171155
0.000161165
7.27333e-06
-0.00016844
-2.1985e-06
-2.96527e-05
3.18517e-05
-0.000465205
-0.00176108
-8.99506e-06
-0.000124567
0.000196886
0.000200601
1.63039e-05
0.000796867
-0.000294642
-0.000372705
-4.08446e-05
-7.25221e-05
-3.69293e-05
-0.000148342
-0.00278658
0.00319192
-0.000405505
6.87301e-05
-1.82323e-05
4.09117e-05
0.000125096
-0.000247068
0.000121974
2.32267e-05
-4.10088e-05
-0.000417642
-2.60923e-05
0.00044374
0.000351129
-0.0003566
5.46746e-06
-1.72034e-05
1.81885e-05
0.000355439
-0.000200921
-6.53652e-06
-0.000220762
-0.000241766
0.000250212
-8.44272e-06
0.000288157
-0.00024141
-4.67475e-05
0.000178297
6.03755e-06
0.000220407
3.53952e-06
-0.000223946
-5.64039e-05
0.000109761
-5.33573e-05
-0.00021198
0.000247483
-3.55021e-05
-0.00269161
0.00300938
-0.000317218
0.000105542
-0.0001352
1.49726e-05
3.68217e-07
-1.534e-05
0.000263743
-2.48384e-05
-3.1746e-05
-4.08304e-05
-0.000194134
0.000450594
-0.000256448
0.000107423
0.000192919
-8.64493e-05
-0.00278334
-0.000582892
0.00336621
0.000191866
-0.000117557
-7.43071e-05
-0.000180749
-0.000141249
0.00238696
-0.00342253
0.000145776
-0.000169757
2.39807e-05
0.000208956
0.000146484
2.91487e-05
-4.70743e-05
1.79262e-05
-0.000278033
-0.000272017
-0.000503357
0.000131215
0.000372152
-0.000270114
-6.51206e-05
-5.9749e-05
8.32866e-05
-2.3539e-05
0.00102976
-0.000784953
-0.000420952
-0.000135541
-0.000107758
0.000243299
0.000378313
-0.000387811
-0.000456789
0.000157274
1.75793e-05
-6.05121e-05
4.29334e-05
1.0744e-05
-2.07246e-05
9.98057e-06
-5.8776e-05
-0.000201132
0.000102218
-0.000249797
0.000112899
-0.000324879
0.000233311
-0.000268912
3.5602e-05
-0.000236333
0.000250346
-1.40113e-05
-0.000220766
0.000207491
1.32787e-05
-0.000264309
-7.12687e-05
0.000157
-5.04341e-05
-0.000106565
0.000228877
-3.73717e-05
-0.000191503
0.000194326
-0.000262358
0.000237616
-0.000409357
0.000171747
0.000205994
-8.49501e-05
-0.000730379
8.40413e-05
0.000283056
-1.38874e-05
0.000175053
-0.000112835
0.000470211
-0.000357366
-2.97524e-05
-3.94339e-05
4.05823e-05
0.000157836
4.76667e-05
-0.000205502
-5.81251e-05
1.88765e-05
-4.91741e-05
0.00024397
0.0002677
-3.21309e-05
-0.000235569
4.60228e-05
0.000194549
-0.00024057
-0.000473816
0.000109002
0.000364828
0.000543182
9.20463e-05
-0.00063523
5.61533e-05
1.67131e-05
-7.28776e-05
0.000629787
-0.000228793
-0.000195228
0.000252548
-5.73181e-05
-0.000272875
6.26598e-05
0.000151707
-0.000184294
3.25866e-05
-0.000179749
8.27468e-05
1.26423e-05
-1.85155e-05
5.87252e-06
-0.000196573
0.00177691
-0.000783822
-0.000992831
-4.96804e-05
0.000212924
-0.000163244
0.000428635
-0.000232885
0.000223549
6.59978e-05
-1.28925e-05
0.000391203
-9.13683e-07
0.000250759
-0.000249844
-0.000177998
3.32234e-05
0.000144772
-2.31403e-05
0.000915423
-0.000892395
-3.91627e-05
0.000119097
-7.99335e-05
0.000155957
-4.72132e-05
-0.000377587
-2.58156e-05
-3.59528e-05
-2.06676e-05
-0.0021581
0.00169292
0.000197575
-7.42456e-05
-2.96156e-05
0.000103863
0.000230272
0.000102622
6.23163e-05
3.31266e-05
-2.07688e-05
5.64225e-05
0.000227661
-0.000284082
1.53614e-05
1.57409e-06
-1.69359e-05
5.31553e-05
0.000639145
-0.000692301
-2.00725e-06
4.56764e-05
-4.36707e-05
-0.00179338
0.000933167
0.000145284
-0.00012145
0.000569378
0.000463456
-0.000872468
0.00123235
0.000468272
-0.000350248
-1.954e-05
-9.1409e-07
2.04556e-05
0.000227934
-0.000146473
-8.14607e-05
2.08124e-06
0.000137812
-8.11223e-05
-5.66905e-05
0.000192042
-0.00011211
-7.99321e-05
-0.000155235
-0.000163454
0.000318691
-0.0020785
0.0029858
-0.000907345
0.00015173
-4.75398e-05
0.000154536
1.42016e-06
8.2893e-05
-2.16805e-05
-6.12126e-05
-5.47135e-05
2.83559e-05
2.63584e-05
-0.000359598
0.000111362
-0.000106154
4.97504e-05
-0.000174862
-7.33047e-06
-9.94891e-05
-0.000156652
0.000296108
-0.00052957
-1.81119e-05
-7.25897e-06
0.000226861
-0.000122978
-1.96771e-05
0.000193436
-3.46188e-05
6.4887e-05
-3.02681e-05
1.6011e-05
3.53036e-05
-0.000350669
0.000423263
-7.25926e-05
1.9414e-05
2.06774e-05
-4.00905e-05
1.97868e-05
-2.10377e-05
1.25169e-06
0.000160688
-6.1511e-06
-0.000294925
1.75522e-05
0.000277372
-7.205e-05
1.23009e-05
0.000154708
-0.00047095
0.000316247
0.000258473
-0.00040206
0.000143587
-4.75244e-05
-2.22343e-05
3.6321e-05
-9.8902e-06
0.000474896
0.000283406
-4.26126e-05
0.000301468
-0.00039128
-0.000403993
0.00102302
-0.000392857
-2.47871e-05
-0.000140551
3.80167e-05
0.000102531
-0.000369509
0.000138585
6.82395e-05
-0.000190154
-7.96781e-05
0.000369606
-0.000376228
6.62355e-06
0.000187236
0.000223663
-0.000410895
2.12589e-05
-0.000134032
-0.000265757
2.94257e-05
2.64475e-05
-2.7421e-05
9.7285e-07
0.000706359
0.000412488
-0.000993903
0.000142862
5.23791e-05
-9.44541e-06
-4.2934e-05
5.37012e-05
-8.20233e-05
2.83218e-05
-0.000161712
0.000207734
2.5702e-05
-2.08905e-05
2.77815e-06
-0.000294963
0.000204814
0.00016565
-0.000232647
6.69971e-05
1.71941e-05
-1.83247e-06
6.44655e-05
8.60973e-05
-7.38828e-07
-8.53581e-05
0.000208042
0.00017001
0.00271864
-0.00288852
1.25396e-05
4.90822e-05
-4.86541e-06
-0.000150791
0.000409263
0.000385703
1.44521e-05
-0.000400157
3.28101e-05
0.000183726
-0.000216536
-2.77474e-05
-5.90209e-05
-1.17773e-05
-2.83721e-05
-1.76752e-05
2.27259e-05
-5.05042e-06
1.54877e-05
-1.63493e-06
0.000684684
-7.26376e-05
2.64858e-05
9.83562e-06
4.67738e-05
4.49176e-06
4.78881e-05
-5.7149e-05
7.41844e-05
-1.70335e-05
0.000479859
0.000172351
-0.000126057
-6.41506e-05
-0.000201676
0.000497784
0.000101324
-0.00010755
-0.000438222
0.000102307
0.000335921
0.000244952
-8.411e-06
-0.000236541
-8.90402e-05
6.12929e-05
-9.81872e-05
0.000160998
-6.28107e-05
-0.000836809
-0.00132132
-1.70906e-05
-2.37374e-05
-7.03782e-05
0.000104808
-3.443e-05
0.000128252
-0.000390738
0.00026249
5.46499e-05
8.31619e-05
-2.09715e-05
3.29558e-06
-6.43402e-06
1.79095e-05
7.05122e-07
2.57427e-05
-0.000229059
1.95334e-05
0.000209527
-0.000173781
0.000206593
0.000172785
0.000295489
0.000291167
-0.000281567
-9.59641e-06
0.000414793
-0.000344976
-6.98133e-05
3.93823e-05
1.94362e-05
-3.32859e-05
0.000158576
-0.000125291
0.000398867
-0.00200382
0.00160499
0.00024127
0.000163503
-0.000213184
-0.000167952
8.01378e-06
0.000159938
0.00014895
-5.66657e-06
-0.000143283
-7.12128e-05
4.9532e-05
-0.00348877
0.000817944
0.000808398
1.36557e-05
0.00025342
-0.000267079
-2.87448e-05
3.48662e-05
-6.12223e-06
0.000137321
-0.0002684
0.00013107
2.84955e-05
0.000208134
-1.30891e-05
-3.39858e-05
-0.00024783
0.00021659
3.12374e-05
-0.000146892
-0.00254456
-8.62148e-05
0.000283979
-0.000197763
0.00079096
0.000108053
-0.000898999
-2.05705e-05
0.000237432
-0.000723316
0.000227293
0.000496026
1.27716e-05
0.000157704
-0.000170475
1.67751e-05
-3.83133e-06
4.15586e-07
-4.15583e-07
0.000242615
-7.69657e-05
0.0001365
-1.39718e-05
0.000934249
-0.000130753
-0.000557139
0.00015708
0.000400064
9.77561e-05
0.000132879
-0.000230639
0.000239354
-2.58864e-05
0.000101118
-7.52299e-05
-2.10944e-05
-4.17302e-06
-0.000558627
1.55418e-05
0.000543093
-0.000137626
0.000158885
6.20159e-06
-3.49473e-05
-0.00278754