/*--------------------------------*- C++ -*----------------------------------*\
| =========                 |                                                 |
| \\      /  F ield         | OpenFOAM: The Open Source CFD Toolbox           |
|  \\    /   O peration     | Version:  v2012                                 |
|   \\  /    A nd           | Website:  www.openfoam.com                      |
|    \\/     M anipulation  |                                                 |
\*---------------------------------------------------------------------------*/
FoamFile
{
    version     2.0;
    format      ascii;
    class       volScalarField;
    location    "200";
    object      ddt0(k);
}
// * * * * * * * * * * * * * * * * * * * * * * * * * * * * * * * * * * * * * //

dimensions      [0 2 -3 0 0 0 0];


internalField   nonuniform List<scalar> 
18232
(
-9.71589e-09
0.00524393
0.0103234
-4.36376e-06
8.07214e-08
-0.00911655
-0.00316526
1.07719e-08
2.78234e-07
-0.00298447
-1.95975e-09
1.22011e-08
-0.00136203
-0.0059526
2.82041e-06
0.0224596
-1.02482e-06
0.0178677
1.45162e-07
-0.00618062
0.0102355
-0.0031816
-0.00118867
-3.52022e-08
-1.84774e-08
-2.34672e-08
1.66302e-08
0.00123867
4.89819e-09
0.00148616
-3.28938e-08
-0.0107332
6.4357e-06
3.35483e-08
-3.63618e-06
1.263e-08
0.00926731
0.0144338
0.00281371
1.00964e-08
1.77861e-05
-9.20615e-09
0.0107329
-3.29631e-08
2.75372e-05
7.28205e-08
-0.0627134
4.904e-06
2.92939e-06
-0.00895652
-1.05023e-06
2.43e-06
1.99785e-09
0.000520018
1.7326e-08
6.63484e-08
0.014279
-0.0455895
2.40639e-08
2.55776e-06
-7.53608e-06
-0.00783944
-0.00819055
-0.00245796
9.33234e-08
-6.0175e-08
0.00349183
6.58278e-08
1.18849e-07
1.57865e-08
-5.35698e-08
-1.38271e-09
0.00179145
-1.79285e-08
-7.41388e-06
4.01266e-10
-6.81254e-09
0.0102116
-0.00562974
-3.24436e-05
-1.616e-05
-2.95483e-06
-1.07467e-05
3.44514e-06
-1.86926e-09
0.00523062
2.18278e-08
8.40193e-08
0.00205453
0.00950398
-1.36384e-07
9.96169e-09
-6.94906e-06
-0.0120602
6.05685e-08
3.44165e-06
-1.02156e-08
1.58705e-08
-1.33766e-08
4.33689e-09
-0.0060515
0.00252807
-1.43983e-08
5.38778e-10
-5.49691e-08
0.000828883
2.54979e-08
-0.00657252
0.0159197
-0.00266918
-0.00155281
-4.44877e-08
-5.79138e-06
-0.0016645
5.81469e-09
1.59609e-07
7.67805e-09
0.00152927
-0.0043166
-6.12754e-08
-1.47635e-09
0.00489775
-2.15132e-08
-0.000105384
-7.66041e-09
4.29329e-08
9.12533e-09
0.00946812
-3.62974e-06
-1.19966e-06
-3.11876e-07
-3.78242e-06
-7.51393e-09
1.01505e-08
5.00379e-08
4.88979e-09
-4.26836e-06
-1.37495e-06
0.0063088
-0.00864599
6.14309e-09
0.014683
0.00975762
-3.14056e-05
-8.91825e-09
-2.14535e-08
2.654e-08
-2.43301e-05
6.63829e-09
-3.90129e-08
-1.7529e-05
4.47077e-10
-0.00704875
-1.01083e-07
0.0217399
-1.24242e-05
0.0100083
-1.68788e-06
-2.94738e-07
0.0153296
-2.99829e-08
-0.0261634
0.0220918
0.00706092
-0.00318879
2.3608e-08
-3.08575e-06
0.0133661
-6.66326e-10
-1.2906e-05
-6.89297e-09
-0.000181001
-3.26226e-06
-2.89626e-08
2.7925e-09
2.18497e-09
0.00345793
-2.1498e-08
5.04981e-09
2.24172e-09
-1.91458e-09
-0.00715286
3.03735e-08
0.00793185
5.26314e-09
-6.55928e-09
3.41814e-08
0.00750602
2.11929e-06
-4.13247e-06
3.94258e-08
-0.010962
5.74907e-09
-1.26646e-08
1.32181e-09
1.57093e-08
-1.04672e-06
-1.55323e-08
5.54971e-08
-3.47803e-09
4.31969e-09
8.28585e-09
1.37642e-08
2.79658e-09
-2.46693e-08
-3.02915e-07
3.70276e-06
3.31071e-07
-1.54051e-08
1.06339e-09
2.91485e-09
-4.1373e-08
-4.86155e-10
8.9408e-07
1.82697e-08
0.00296849
-6.32182e-08
-1.16885e-08
0.00819985
-1.55402e-05
-1.37396e-07
2.91315e-05
0.00255439
-0.000107424
-5.13798e-07
8.91226e-09
-1.2801e-07
-4.17303e-08
2.0523e-06
-2.8846e-06
0.00403322
3.15934e-09
4.23753e-09
3.55541e-09
-1.01936e-07
5.74267e-09
4.23262e-08
-9.05381e-06
2.40126e-07
3.59593e-08
0.0136234
-1.84295e-08
-5.94343e-08
-1.09752e-06
-0.0283688
5.86247e-09
-1.16251e-06
1.56765e-07
-3.46e-09
3.06514e-09
0.0147059
-5.14041e-07
0.0149757
-1.63076e-06
-4.0442e-06
0.00176843
7.2512e-08
0.0106615
-3.57005e-08
2.32914e-08
0.00658657
3.53216e-09
0.0056316
-2.05483e-07
-3.96405e-08
-8.22808e-06
-0.000281785
7.47143e-08
-1.48906e-08
0.00546903
-7.23685e-09
-6.01905e-08
-1.64498e-05
0.00319233
0.000467171
-5.68707e-09
0.000175218
-6.84689e-08
1.8182e-09
0.000241756
0.0141835
-0.00255678
0.00415128
4.572e-09
-4.24501e-05
-3.96432e-08
1.47319e-07
-7.96742e-09
0.00888768
7.67365e-06
0.00202756
-0.00446216
4.21122e-09
1.45108e-07
-2.2876e-11
1.54371e-08
1.9534e-09
4.01249e-09
6.77207e-08
0.0013737
1.58228e-07
-8.82836e-06
0.0139562
-9.57793e-10
3.92449e-09
2.30216e-08
3.58279e-08
5.27621e-07
-1.79584e-08
-1.68029e-08
2.71364e-08
-2.64186e-06
0.00220265
1.016e-08
1.03884e-07
0.000666949
-5.36399e-09
1.95124e-07
1.41234e-06
-1.52743e-09
1.98969e-08
0.00657105
-9.32831e-06
1.9755e-08
-2.91409e-06
-0.0382923
2.33323e-08
1.08667e-08
-1.60778e-08
2.11166e-08
1.95066e-06
-6.06628e-06
0.000744823
3.57694e-08
-5.89379e-07
-9.41841e-06
-1.47235e-08
-6.63995e-08
-1.60223e-06
0.000722739
5.01872e-06
3.03888e-06
-1.9061e-08
3.49263e-06
1.30943e-06
6.19381e-07
0.000959586
-2.76804e-08
-1.77391e-08
1.83728e-09
-7.84049e-09
1.69725e-06
-8.81428e-07
4.78328e-08
4.96594e-08
-1.37503e-10
0.0113795
1.03747e-08
6.06933e-08
-5.82637e-09
-2.85682e-08
-5.11878e-05
1.11749e-06
2.86216e-08
2.00215e-08
-6.58133e-09
-7.06688e-09
1.7681e-08
-1.19508e-06
-2.86549e-08
6.58781e-09
1.80256e-08
0.00154536
5.57889e-08
-3.16227e-08
-9.07732e-09
0.00179953
-3.35757e-09
3.48645e-08
0.00775138
-0.00958819
1.6314e-08
-1.84577e-08
-1.47682e-06
-1.80429e-09
-1.66062e-09
5.29805e-07
1.25307e-05
2.2128e-07
3.60081e-08
1.66551e-07
0.00580512
-5.60545e-09
2.74225e-08
-1.53094e-08
6.38086e-08
-0.00222772
-3.89744e-08
0.0101044
1.45542e-08
-4.22862e-06
-2.25924e-10
1.91166e-07
2.01781e-08
0.00843603
1.14807e-06
1.97799e-07
-3.35853e-05
-5.07606e-06
-1.29303e-05
0.00342602
1.45479e-07
0.00110671
1.69994e-09
5.79575e-08
8.60936e-09
7.96195e-08
0.00802421
-1.16892e-09
-3.91323e-08
3.86151e-08
-0.012861
-0.000394794
-3.76927e-05
-8.69151e-08
7.65388e-05
-2.78825e-06
-6.69487e-09
-4.39795e-09
0.00198798
0.0272959
7.96698e-08
9.6004e-09
-1.18232e-09
2.08156e-10
-4.50299e-09
-9.06927e-06
-5.78951e-07
-1.38615e-10
2.23921e-06
-5.73508e-08
-1.97675e-08
0.00210205
-5.23192e-09
-8.7375e-08
3.16146e-08
3.74799e-06
0.0394116
-9.03865e-10
4.87181e-08
0.016095
-2.51159e-07
-3.23407e-07
-8.01515e-09
-2.46626e-08
-1.81832e-08
4.58817e-09
0.00173816
3.82227e-07
-3.32596e-08
1.57884e-08
-1.44588e-07
1.96041e-07
-1.74324e-08
1.88075e-07
3.34485e-06
1.1893e-08
0.0080218
-1.48002e-09
-1.53333e-09
-0.0075174
1.86562e-07
0.00905495
0.00872566
0.00517208
6.65717e-09
6.14583e-09
2.98918e-08
0.00109304
-1.68223e-08
-7.35721e-09
3.64793e-08
-0.0245828
-1.71174e-09
7.52021e-10
-5.10808e-09
-8.52173e-06
-0.00819441
-5.015e-05
1.72644e-07
6.25051e-08
0.00208657
0.00326545
-5.83537e-10
0.00311683
-2.33563e-08
0.00874354
2.65016e-08
-5.97857e-07
4.3747e-09
0.00181053
1.48823e-08
2.31711e-08
3.2316e-08
0.0045707
2.75763e-09
2.72843e-07
-1.03708e-08
0.00385085
-6.14317e-08
1.60318e-06
-2.14198e-07
-2.65254e-08
-4.08335e-09
0.017211
1.85047e-07
-4.19377e-09
1.27007e-08
2.7783e-08
-1.67327e-09
4.38893e-09
-1.78667e-09
4.40646e-08
4.10247e-08
4.93895e-09
6.42507e-09
-2.49365e-06
0.00210781
-1.01439e-08
3.63603e-06
-1.13791e-08
0.0179148
0.00391102
8.72814e-10
2.05451e-06
1.87605e-07
-0.00249344
3.91143e-10
0.0064794
1.63986e-09
-1.34437e-08
-0.0533763
-5.93287e-06
5.26378e-07
0.00339657
1.46774e-07
-2.25934e-07
-1.43193e-09
0.00039877
-6.62266e-09
-4.36822e-06
7.62178e-08
-9.38507e-07
5.62095e-08
-3.98258e-06
2.45727e-06
-1.93788e-09
1.07485e-09
6.87949e-09
7.6877e-07
5.79557e-08
-2.93656e-08
-2.47434e-10
0.00403713
-0.00395138
0.00624274
2.36418e-06
-1.44932e-05
0.00213002
0.000854684
9.85094e-09
0.0197991
-1.41838e-08
3.5886e-05
7.65953e-09
-4.15909e-09
6.11489e-09
-1.00076e-07
3.71171e-08
0.019652
-2.4786e-07
1.51266e-08
-0.00033853
0.017013
0.0268837
4.17839e-09
3.30711e-06
1.49472e-08
6.61859e-08
-1.7895e-09
4.7723e-07
3.07884e-09
-0.00335586
2.40802e-07
6.36937e-09
0.00428292
2.21405e-08
-1.65068e-06
-0.00589428
2.57677e-09
1.60694e-06
-0.00105074
0.0146355
1.33393e-08
8.67189e-07
5.10646e-09
2.39849e-09
-1.09794e-08
0.0197261
5.92195e-06
0.0280818
5.19288e-09
1.70975e-07
0.000696601
2.89068e-09
0.00226338
0.0202536
6.93949e-06
8.08753e-09
-9.50518e-09
-6.68106e-09
3.58847e-09
0.000447865
-0.0269597
-1.33726e-06
-5.83156e-06
0.00629577
1.41666e-06
3.02179e-06
-9.28625e-08
0.000616361
4.08622e-08
1.61856e-08
0.00336703
0.000810525
5.76925e-07
-1.74788e-06
-1.20631e-09
3.3017e-08
-1.00088e-06
0.00631554
0.000834309
3.67845e-09
2.18705e-08
0.00108716
-6.16819e-07
-0.00201372
2.13171e-07
1.22917e-06
4.36437e-09
-6.37494e-07
5.92679e-09
-2.24979e-06
-5.44693e-05
6.04299e-09
5.45527e-10
-2.74493e-07
0.00123887
5.90713e-09
-5.95582e-08
4.30306e-06
1.92348e-06
-7.31443e-08
1.7505e-09
1.90602e-06
-2.26123e-05
5.51013e-06
5.71559e-08
-1.23712e-09
5.00937e-07
0.00222251
1.03111e-08
2.23301e-07
-0.00198866
1.6182e-10
-1.14315e-08
-1.35165e-07
1.16247e-06
1.11119e-08
5.65628e-08
-2.90968e-08
-2.46061e-09
-1.647e-05
-4.65879e-08
1.12769e-07
2.6119e-09
0.0189999
-2.13485e-07
-1.05454e-08
1.17753e-08
3.02483e-05
-6.12113e-09
6.54075e-09
-0.00891974
-4.26965e-07
7.75914e-07
-2.59641e-09
5.60189e-09
0.00534109
4.13565e-07
0.00143239
-7.25395e-08
-6.67655e-08
8.23954e-07
-7.59505e-06
-2.62072e-07
-8.98783e-07
5.96129e-07
1.58501e-09
1.60427e-07
-1.60957e-08
-1.78872e-07
-7.32453e-10
-4.90279e-08
0.0190637
3.03689e-08
-5.41051e-08
-1.01864e-06
6.06356e-09
-0.00201346
1.33292e-06
0.0076163
1.59848e-05
-1.19214e-05
5.50236e-08
-1.679e-07
-1.7351e-08
2.96562e-07
-2.41164e-05
6.49749e-09
7.27738e-08
9.39258e-06
8.44541e-08
1.24272e-10
0.00219883
2.18011e-08
-6.35734e-07
-1.37804e-07
-0.00149945
2.89759e-08
3.36687e-06
0.0030753
-2.74292e-07
0.00089756
-0.00887364
-0.0112881
1.67159e-08
0.00191773
3.3235e-06
0.0214519
3.03358e-07
6.0799e-08
3.96176e-07
-4.15104e-09
0.0211949
0.0191966
2.93798e-10
-1.19157e-05
-5.2041e-06
-0.00280116
2.71128e-08
-2.06721e-09
4.81967e-07
0.0151097
4.97825e-09
9.96258e-08
4.02889e-06
-4.05663e-08
-3.94167e-09
4.2867e-05
-3.942e-06
3.16567e-06
-0.00870285
2.32702e-09
2.40931e-07
-1.93232e-08
-2.86953e-05
-3.39541e-07
0.000232043
1.83338e-08
0.0252221
-1.06859e-07
-4.53507e-06
-1.16995e-07
2.99136e-08
-0.00810022
1.69474e-07
0.00632011
5.70836e-09
-8.29034e-09
3.61435e-06
-5.82466e-06
-2.85043e-08
-4.60534e-07
2.58615e-07
-1.92915e-08
3.17614e-09
-2.46636e-06
3.47244e-06
-0.00138785
-5.58319e-06
1.07376e-06
-1.30126e-07
-2.67688e-08
-9.59847e-08
-2.10025e-06
-1.77012e-05
3.5881e-07
-1.58933e-08
-1.39861e-09
0.0280059
3.56164e-07
0.000204868
-0.00179973
-4.92235e-08
-1.06437e-06
1.06485e-07
0.0200584
-1.1436e-08
4.47117e-08
-3.58696e-09
6.29438e-08
1.00614e-08
1.4488e-06
1.91098e-08
0.00136643
-1.45178e-09
2.63192e-07
2.92318e-07
-1.78915e-10
-2.911e-10
1.191e-08
5.46307e-09
1.40699e-06
-6.20151e-09
1.22684e-06
-6.921e-06
0.00491513
-1.4804e-06
-9.74855e-10
0.00726754
-1.89227e-08
-7.65781e-11
4.023e-08
5.24323e-08
-1.293e-05
0.00134618
0.020603
-0.00259082
-1.09871e-08
-2.51214e-08
2.49964e-08
-3.44195e-09
7.43575e-07
-3.21369e-08
0.0374171
0.0010103
0.0221129
1.42384e-07
8.60592e-08
-5.02943e-06
-5.71075e-08
-0.000437327
-3.52143e-08
-0.00044787
-4.34982e-07
-1.26377e-08
0.00132395
-1.59249e-08
1.11391e-06
6.39512e-08
0.000455054
-1.5887e-06
-1.37417e-07
3.05138e-08
1.26847e-08
-2.67522e-08
-1.80731e-07
0.0389678
-4.77934e-06
-3.24303e-06
2.31296e-09
4.98388e-09
0.000946148
-0.00798298
7.01397e-08
3.50326e-08
-0.00210329
-0.00532984
-2.23306e-06
-2.83185e-08
3.85636e-05
2.37412e-07
-1.5451e-06
6.83175e-08
4.18711e-09
-1.85351e-07
-6.90604e-08
-5.01924e-06
-7.46285e-09
-8.32096e-07
1.03688e-07
9.95952e-08
0.025125
4.76858e-08
-1.42152e-08
3.66594e-09
3.89008e-09
1.22875e-08
-8.51076e-09
5.22828e-07
4.63985e-09
-4.74538e-06
0.0161916
-0.00273569
-3.14853e-08
0.00592374
-6.67222e-08
0.00641511
6.81829e-08
0.00501446
-0.00585916
2.09534e-08
1.0516e-08
-1.70206e-07
7.95247e-06
-4.82317e-06
1.47473e-06
7.25377e-07
-0.00961282
2.1306e-08
5.14455e-08
6.09823e-08
2.08765e-08
6.23788e-09
2.11586e-08
-0.00412975
-0.00391171
-3.8316e-06
-6.21537e-08
-1.18217e-09
4.22324e-08
0.00207729
-4.51095e-09
-1.21138e-09
0.00359538
-6.06974e-10
-0.00169495
-1.65287e-07
-5.77794e-09
0.0204667
-2.24995e-09
-1.426e-06
0.00551222
2.32221e-08
-2.21702e-09
-1.40827e-07
-1.4623e-05
-0.000392075
-0.00136008
0.0316565
2.83199e-07
3.71186e-09
-2.99478e-10
-0.000487008
3.49734e-07
1.06177e-09
3.28862e-09
-8.17524e-08
4.65975e-09
0.0193354
0.0205183
-0.00482548
2.90986e-08
-0.00978394
-1.32971e-05
-0.00503494
7.65065e-08
-1.12277e-05
4.06312e-09
-0.00938877
3.57328e-09
7.76198e-08
-0.00101305
-1.14169e-06
2.81882e-08
-3.9602e-06
3.69248e-09
-1.38649e-06
2.13068e-08
9.73467e-08
5.01954e-09
-1.54628e-08
2.19727e-07
0.0173878
-4.50554e-09
-6.21288e-06
2.24785e-07
4.52495e-08
-9.95966e-09
2.5536e-09
-1.7096e-07
-0.000315806
-3.23242e-09
0.0132323
2.42793e-07
-0.00139743
2.23561e-08
-2.82082e-07
1.30956e-06
-1.60207e-08
3.74491e-09
1.86301e-08
2.70356e-07
1.03178e-06
3.36535e-09
0.000135895
1.98468e-06
-5.93378e-06
0.000350599
-1.99206e-08
-5.78144e-08
1.06617e-08
3.88968e-07
1.71835e-07
1.0251e-07
-0.00357115
-3.23314e-09
5.80278e-09
-3.53188e-08
0.0157618
-0.00137494
0.000304454
1.2818e-08
-1.43107e-07
3.99289e-09
-5.74617e-06
-2.72529e-09
3.36988e-08
0.0020132
-1.7204e-05
-1.04871e-08
2.46274e-06
0.00203684
-3.66565e-08
-3.40326e-09
0.0258859
6.78798e-08
-1.39789e-08
1.29148e-05
-0.000467996
4.68399e-09
0.00357446
5.55866e-08
2.39527e-08
5.94174e-07
3.94162e-09
0.00326268
8.1333e-08
-9.90606e-09
-0.0026523
-3.38022e-09
7.79051e-08
2.62535e-08
6.97737e-09
3.78844e-09
8.38795e-08
-2.04108e-08
-6.85537e-06
2.10895e-09
-9.26208e-05
-1.26209e-09
3.63983e-06
0.00106493
3.59822e-07
0.00657156
4.82922e-09
0.000291075
-2.49828e-09
-4.8118e-05
2.6312e-09
0.00655115
-0.00171827
-0.00964572
4.41169e-09
0.0198047
-0.000385155
0.00304292
1.22997e-08
-1.84012e-07
-4.84157e-06
-0.00278027
0.0179892
3.71994e-08
-1.11878e-06
-1.87947e-06
-5.71582e-08
0.00761786
1.97178e-09
3.34822e-06
-0.000860566
4.66554e-09
9.21268e-09
1.01715e-07
9.6079e-09
3.9876e-09
0.0205488
8.20325e-09
-3.33364e-05
1.55397e-08
0.00354391
0.00211311
3.94508e-09
-2.17276e-08
1.01414e-08
1.17812e-07
0.0100027
-6.77914e-06
0.000475367
4.32537e-08
-0.0291576
-1.14382e-08
6.83835e-08
3.82421e-09
1.84519e-08
4.22964e-09
0.00131503
2.94004e-09
-1.33549e-08
-7.05367e-09
-0.0152143
-2.54737e-07
3.34552e-08
0.000213406
-2.08345e-07
-1.61001e-11
-7.00512e-06
7.61327e-10
1.35583e-08
2.85319e-08
-1.9902e-06
6.21368e-10
0.017422
-3.44889e-09
-9.26836e-09
-5.47458e-05
4.97572e-09
3.71735e-09
-0.00227246
-2.08338e-05
0.00298634
0.00569797
1.30075e-07
-3.87729e-08
-3.67275e-08
8.19641e-08
1.30889e-06
-0.00532511
0.0465295
-4.72228e-09
0.0220866
0.00248614
4.27649e-08
7.62418e-10
3.70032e-08
-0.000378727
0.0192161
-1.72567e-08
2.57977e-08
-7.38806e-10
-2.38557e-06
2.09119e-08
-1.68415e-05
2.87915e-08
-4.87699e-06
4.12832e-09
-6.80085e-09
0.00119608
-1.29224e-06
6.7975e-08
-0.00285102
3.72728e-09
0.0232309
-3.08108e-09
-7.99656e-09
0.00103491
3.24592e-08
7.15792e-08
-0.00238912
-3.46303e-09
-1.1439e-07
8.67516e-10
3.49788e-07
6.83329e-09
-0.00234968
4.99533e-08
2.4033e-07
1.67753e-06
-3.25105e-08
-1.68221e-06
-1.33692e-08
1.20349e-09
2.83096e-08
9.06893e-08
-0.0105366
8.70442e-07
1.50573e-08
-1.26937e-08
0.000419281
1.17567e-08
-1.5264e-05
-2.77638e-08
7.20909e-08
-1.41526e-08
-3.42459e-09
-3.10029e-07
-5.14054e-07
0.000500216
0.000110689
-0.00166802
2.29154e-06
-1.87279e-06
-0.00129267
-1.26282e-08
1.45103e-06
8.7886e-09
-3.75001e-08
-1.83006e-09
-3.24992e-08
-0.00118746
-1.90795e-09
0.0217318
4.00036e-08
-1.12283e-08
-1.65604e-08
1.25513e-08
0.00672217
3.92634e-09
0.00790784
4.79754e-09
9.7822e-07
1.20426e-06
-1.23329e-07
-0.0101347
-2.92699e-08
0.00305023
9.52295e-08
5.38482e-08
-1.46879e-05
7.80971e-08
-0.00270769
5.26887e-09
2.84041e-08
-2.40323e-09
2.48768e-08
-3.1441e-09
0.00494266
-2.22268e-09
-1.88018e-08
4.97043e-08
0.0144228
-0.00524146
-1.42023e-08
-1.21481e-05
6.98822e-10
-4.02986e-09
3.07165e-08
-1.13391e-09
6.55673e-09
5.33287e-08
9.46252e-10
1.17592e-08
-6.77885e-06
4.82368e-08
-6.32754e-09
7.64083e-09
-2.118e-07
0.0129509
0.00328963
-4.96881e-05
9.21947e-08
-0.00570023
8.19376e-07
0.00198045
-2.74336e-08
4.76761e-07
0.0204372
-2.11228e-08
3.99844e-09
1.58678e-09
-1.25436e-06
0.0083854
-1.78417e-08
1.35306e-08
5.04247e-08
-4.6743e-08
-0.000870281
0.00694002
-1.98718e-09
0.000238377
-3.0104e-07
0.018819
0.0222244
-3.95045e-08
3.48978e-08
7.98091e-07
-7.10955e-10
3.3354e-06
-0.000180631
1.36703e-05
-1.878e-08
0.00542044
-7.57748e-07
2.3138e-07
-3.77614e-06
-2.10893e-08
1.11899e-06
-2.7589e-07
8.32364e-09
-0.00378568
-8.11293e-08
5.97094e-08
-1.17128e-05
-0.005565
4.8966e-09
0.00153155
4.28851e-09
-9.16212e-06
-2.42287e-09
1.87358e-08
-1.99784e-07
2.0066e-07
7.245e-06
2.94579e-07
-1.05869e-07
0.0372975
-2.7187e-08
-9.8159e-07
4.11732e-07
3.52842e-08
7.15175e-10
-0.00908712
4.8042e-10
-1.61731e-08
0.0217707
1.00768e-09
-0.0230316
-1.36035e-08
-7.05602e-06
1.1338e-07
1.03912e-09
-0.000710317
1.19463e-08
-1.05136e-06
0.00693816
-8.33602e-09
0.0226566
0.000598186
1.77034e-07
-1.97065e-09
-2.40369e-06
-1.89013e-05
2.23992e-07
0.0137365
-2.59391e-07
3.951e-08
-0.000921007
-0.00886851
-2.63753e-08
-0.0356015
0.00054428
2.73719e-08
-2.70305e-09
-2.24756e-06
-9.68625e-06
7.84461e-08
-7.38827e-06
-0.00141568
-0.00365173
1.92587e-07
6.02546e-08
7.21071e-09
-2.42193e-08
7.26837e-09
0.0139265
-0.000741889
2.28277e-08
0.00670877
7.89754e-09
-1.07687e-08
-0.00562978
-0.000424326
-3.08953e-09
-4.91897e-08
-2.35109e-05
-0.000169118
3.40662e-08
2.20013e-07
5.06234e-09
-0.00585588
0.00241793
5.81167e-07
4.04787e-08
-0.00163899
1.18759e-08
0.01597
7.91019e-08
7.73183e-09
1.81423e-08
5.35156e-09
1.53971e-08
1.39012e-08
3.66178e-08
-0.00135754
0.00645306
4.84576e-09
-0.0739821
-5.07307e-07
-0.00263285
1.90146e-07
0.00183037
-1.63045e-06
7.05709e-08
4.7971e-10
-9.09253e-09
5.63479e-08
-4.68112e-07
-8.89772e-08
-6.96751e-08
-0.00421642
-2.19156e-06
0.0147644
2.33879e-06
0.00136534
-3.18917e-09
-7.64361e-07
0.00139159
-9.57762e-06
-4.17224e-06
-2.16974e-07
-4.58549e-08
0.0220536
6.81397e-09
-2.69136e-06
3.50077e-06
4.12955e-08
0.00133884
0.0178686
0.0198265
-1.42996e-05
-0.0205982
-0.00450264
-0.0019245
-2.08753e-09
0.000226029
0.00288943
0.00091726
-0.00827704
1.12135e-08
0.00164038
-3.51592e-09
2.09168e-08
0.00800161
-0.000330984
0.0359461
-0.00249996
-1.66389e-07
-0.000133427
0.020058
0.00622203
-3.47582e-08
3.93341e-09
-1.27548e-08
-0.00959432
2.11245e-05
0.00455429
-6.33613e-07
-0.00522973
-0.0540328
-0.00783807
-1.54239e-06
0.00106348
3.05617e-07
-1.23755e-07
-2.9923e-06
-0.00148699
-6.78801e-09
4.76061e-08
3.09685e-08
-0.00237772
-1.62608e-06
6.86688e-07
-9.12778e-09
-0.00763142
-0.0214221
5.91229e-06
-0.000391488
0.000985804
-2.68605e-08
5.29817e-08
5.18986e-06
-6.003e-06
-0.00220622
-2.59246e-05
1.63774e-08
0.000651292
2.35262e-07
9.59548e-08
-0.0543494
4.16783e-09
7.77136e-09
-2.40351e-06
-0.00256749
3.01105e-09
-0.00226485
0.0216262
2.06033e-05
2.31856e-07
0.0096583
0.00791698
-5.3455e-07
-0.0104851
3.1308e-08
-1.06251e-06
-3.0131e-05
-1.48138e-07
1.00454e-05
-9.54223e-07
3.95793e-06
-5.62338e-07
2.62556e-06
0.00132818
-1.09083e-06
0.00183855
-1.24462e-08
-2.54151e-07
0.00481216
0.00666524
0.0426511
9.54209e-08
0.0180738
2.90016e-08
0.0154462
-2.62507e-06
-1.71914e-08
0.00289333
0.0019319
2.42349e-07
4.97938e-08
-5.43997e-08
0.022056
6.42331e-06
3.13254e-07
9.16929e-07
-4.60958e-10
-0.0030013
0.0188474
8.62072e-07
2.16333e-08
-0.00539691
0.0156923
0.0225422
-1.67083e-05
-6.42741e-08
5.75697e-07
-4.29245e-08
4.07453e-08
-2.03245e-08
0.00414753
-1.60988e-05
-1.30368e-09
4.02105e-09
3.71476e-08
5.98444e-07
-0.00122314
1.25489e-06
-9.29493e-06
-2.09099e-08
3.6973e-07
-4.80231e-12
-8.05696e-06
-1.18449e-08
9.12142e-09
-6.49197e-06
7.91454e-05
-3.96153e-09
1.9385e-07
0.0214657
0.016364
-1.87406e-06
-9.9299e-09
0.0179042
0.013457
2.80366e-07
0.00533885
-1.00445e-06
-1.64169e-08
0.00805685
9.31547e-07
-0.0308001
1.40124e-08
-3.1672e-06
1.90769e-07
-0.000340043
-8.01973e-08
-5.75456e-08
-5.59135e-09
2.06096e-08
-1.22616e-06
-1.14756e-05
-9.0247e-09
5.56154e-08
-1.55986e-08
5.53287e-06
2.39964e-08
0.0232203
1.07623e-09
5.60078e-06
2.6883e-08
-2.30955e-07
-8.1924e-08
1.091e-06
-2.28148e-09
1.3933e-07
-0.00100757
2.7305e-06
-0.0635412
-3.80094e-06
-1.55378e-08
0.0160434
-3.74292e-07
0.00512586
-2.57255e-06
1.22495e-08
0.022421
-1.31138e-08
0.000357941
7.6374e-07
2.88117e-09
2.58446e-07
3.30525e-08
-5.48383e-08
5.36633e-09
0.00210138
1.39998e-10
-6.56403e-08
0.000692044
3.60893e-09
-0.0104221
1.28915e-09
-3.4396e-06
2.5862e-08
-7.3018e-09
-4.77562e-05
0.00448693
-1.00503e-09
-1.72788e-08
-9.18645e-09
-1.89455e-08
-1.40421e-08
1.10097e-07
0.00525939
0.000977016
9.35594e-07
-1.50594e-08
5.55277e-07
-7.78911e-05
-5.23923e-06
0.0195876
5.04637e-09
-4.25413e-08
-0.00467724
0.000108081
-0.00374444
2.85714e-06
0.00103495
0.00635374
-2.74031e-07
-3.46928e-08
-4.22788e-05
-0.000258146
-1.70513e-08
-6.26506e-09
-3.99188e-08
9.40815e-09
2.39821e-08
-1.51839e-06
0.000119108
2.00505e-08
8.30121e-10
9.30505e-05
7.00468e-08
-0.000107124
-0.00437511
6.49949e-08
1.74717e-06
0.00704214
1.18658e-07
0.00414092
2.23496e-09
7.61636e-09
1.73474e-07
-0.000156791
1.15861e-05
4.60505e-06
-2.42118e-06
0.00774187
1.20142e-05
0.00496673
0.0192293
-8.83657e-07
1.85686e-07
1.60162e-06
1.0206e-07
7.24625e-08
-2.86657e-09
0.00125374
-8.68823e-09
-5.38706e-07
0.0221419
-4.76656e-09
7.08309e-07
-0.000375709
2.66063e-08
-3.34062e-08
0.00572542
0.000553733
0.0220003
0.0115902
5.65729e-09
3.51236e-08
0.000114026
0.00767751
-2.16286e-06
-8.3225e-05
-7.99816e-06
-0.00959774
0.00576848
-4.58759e-06
-6.79829e-09
0.000597111
-9.91664e-08
-4.67604e-05
-2.35675e-05
-2.50825e-07
-0.00969161
4.35752e-07
0.00194127
-1.20691e-08
-1.82782e-06
0.00357244
4.20433e-09
-1.55289e-06
-1.10819e-08
-3.65454e-06
6.39384e-09
0.00849754
-0.0112673
0.000310205
-0.0043917
0.000440483
4.29832e-08
-7.21349e-09
-3.36341e-09
-2.85818e-09
4.63762e-08
-1.706e-06
0.00715473
-6.97501e-10
2.06196e-08
-2.51422e-08
9.39677e-08
3.99159e-09
0.00566101
-0.00274326
8.72618e-09
-1.38536e-08
-0.00013378
-1.07384e-07
6.52557e-08
0.0220323
-6.06975e-08
-1.40881e-09
1.28776e-08
-2.32292e-06
0.000229211
2.5447e-06
0.00153424
0.0224806
5.99386e-08
0.00180893
0.0144099
-0.00288753
-5.05549e-08
0.00129128
2.67346e-09
0.0131985
-2.45036e-05
0.00584788
-3.84195e-09
1.82277e-08
5.17234e-05
0.0011805
0.00253932
4.95526e-07
-3.61094e-08
-9.25343e-09
3.73542e-09
0.00596029
-0.00171782
-2.63398e-09
-1.20369e-08
7.53673e-05
2.22551e-08
-0.00430809
-0.00981896
-0.000243432
-2.46294e-07
-8.42787e-07
-3.24047e-06
1.71854e-09
-4.33305e-06
-2.93814e-08
6.04276e-09
4.47586e-08
-0.0231153
0.00172139
-8.72049e-07
0.000468658
-9.80678e-09
-1.68074e-09
-1.01205e-08
-3.12586e-09
-7.07606e-08
0.00127897
-2.42243e-08
0.00630569
-2.8532e-09
-0.000300207
-4.36698e-05
-4.69099e-09
4.65796e-05
0.0196271
-2.45877e-06
-0.00320091
1.79956e-07
0.00860362
4.17459e-07
-0.000182198
-0.00875108
0.0175022
7.32271e-09
5.28946e-10
9.875e-07
6.06217e-08
-0.021232
-1.55006e-05
1.32343e-08
-1.20201e-08
-3.98093e-07
-0.000747668
-8.11016e-05
-1.87976e-08
7.45453e-08
-0.000596115
1.69762e-08
-0.00306841
-0.0059357
0.00310715
-8.62292e-09
1.37171e-07
-3.94964e-08
7.20005e-06
-6.59558e-05
-2.40501e-09
7.68244e-08
-9.23874e-05
9.22188e-07
-3.67851e-07
0.00148318
-0.00927757
-1.27101e-06
-0.000178374
1.56746e-07
-1.54004e-08
-1.50435e-06
2.59401e-09
-0.00837608
-0.00255398
-3.61503e-08
0.0151037
4.7546e-09
0.0152123
-1.77516e-10
1.39303e-06
-1.32572e-08
0.00526461
-1.02519e-07
0.00266506
7.09894e-05
1.16208e-08
2.06552e-08
-0.000182721
-0.000415035
0.0382525
-0.00903204
4.597e-10
8.59036e-08
-1.64496e-08
-0.00410165
-4.66889e-08
8.71805e-08
-9.31216e-09
-0.00353449
1.78832e-08
1.11933e-07
3.24252e-08
0.00929867
-1.34969e-08
0.00600162
-1.91676e-06
6.0523e-07
5.94856e-09
-0.000197405
-1.04899e-06
8.59432e-07
1.20445e-07
6.87169e-08
1.6211e-10
-1.33341e-08
-5.83983e-07
2.97873e-09
0.035143
-2.74608e-08
-3.2466e-07
0.0233802
7.16139e-08
-5.96015e-09
1.35132e-08
1.48381e-09
-0.00137125
-8.16475e-09
5.5658e-08
0.00838995
-1.51825e-07
-2.12824e-06
5.95514e-09
2.03546e-06
-2.98035e-09
2.41048e-07
0.0124111
-1.42923e-05
0.0016301
-1.69422e-05
4.78876e-08
4.18578e-09
6.40574e-08
-2.55921e-06
7.85637e-08
1.93617e-08
0.0141575
-0.0039701
-5.29725e-08
8.56716e-09
-0.00131195
-5.77746e-09
9.92579e-06
-4.32391e-06
-8.33586e-07
0.0195706
-0.00102534
-3.36688e-09
3.60894e-07
1.67434e-08
-2.80187e-08
-6.16536e-09
9.53037e-09
0.0216214
1.51375e-08
-1.81522e-08
0.0104076
1.43717e-07
0.00679451
2.1723e-07
1.3771e-08
0.0213851
6.79531e-06
-6.56039e-09
0.000254584
0.00564032
0.0238563
7.34488e-10
0.00644732
7.28741e-08
0.0219949
0.00904441
3.12999e-10
-0.00158093
-9.79473e-06
-2.23814e-07
1.92278e-07
-0.000444749
2.77265e-08
6.07613e-09
1.50474e-06
0.00936373
-1.60863e-08
-2.10008e-06
5.94035e-09
-2.33773e-09
-0.00178886
2.08745e-08
-2.02945e-05
-0.0059212
0.0124645
-7.6456e-09
3.59641e-08
7.39046e-08
-2.42952e-10
-2.96614e-07
-0.00468445
-0.000130749
-1.30504e-07
-0.0357669
0.00062148
-4.14177e-09
-1.48013e-08
1.69684e-07
0.0165817
-2.46531e-08
-0.002343
0.00809987
-1.7357e-05
3.1842e-07
-7.33607e-07
9.9306e-06
-5.29442e-08
0.0194003
0.00358653
4.45796e-07
-0.00837258
9.71098e-09
-0.0152556
5.89559e-10
2.83885e-09
2.39862e-08
-3.81996e-08
2.12658e-09
6.39729e-08
5.10443e-09
8.69295e-09
5.43582e-08
-8.47134e-10
-7.17973e-07
-1.70643e-09
0.000177479
3.78699e-08
5.84325e-09
7.75374e-10
-1.80394e-06
7.44226e-08
5.77628e-08
-4.29165e-08
-0.00193281
-0.0567204
-0.000305275
-1.93279e-06
5.56939e-09
2.39999e-08
-2.14978e-06
-1.77902e-08
-0.00133611
0.000397342
0.000403247
-0.000885296
-7.04588e-08
0.00793688
0.00351805
0.0102879
-3.25837e-09
-1.83523e-05
-0.0711444
0.000727185
2.70983e-07
7.65146e-09
-3.43129e-10
7.58555e-08
4.09401e-06
-0.000156839
-8.65533e-08
-0.00122537
-3.98978e-07
-1.76797e-07
1.44177e-09
5.34104e-08
7.88306e-11
-4.34377e-07
-8.11257e-07
-1.40408e-05
9.91596e-08
2.46193e-06
0.00348606
-0.0223387
-8.54476e-08
2.42034e-10
6.4849e-07
6.17099e-08
1.44021e-08
1.42309e-09
-9.04661e-08
-7.46924e-09
3.98146e-08
-2.25218e-08
4.58277e-10
0.00680161
-7.00966e-08
1.02578e-07
0.000993124
-5.81746e-06
7.64413e-06
3.20281e-09
-2.40659e-07
3.70872e-08
0.000856222
-2.56416e-07
-7.03774e-05
-8.86712e-10
-1.34215e-07
7.88755e-08
5.40986e-08
-5.45754e-07
-0.000922962
0.0143787
-5.7065e-06
0.000225331
8.81166e-09
-2.12485e-07
0.00731207
0.000275922
0.00378039
-0.00775096
0.000290441
2.18462e-11
-5.25871e-09
-7.89992e-09
-0.00171365
-0.00118131
-8.17584e-05
9.36969e-05
-1.6538e-09
0.00134351
-0.0240946
2.11756e-07
2.50705e-08
0.000253633
-2.0705e-07
0.000713156
-4.76345e-06
-0.0771501
9.71882e-09
-0.00449964
1.82485e-09
1.28523e-08
-3.8374e-08
-1.63416e-05
-0.00627162
-0.000840581
-1.29833e-05
6.98707e-08
-3.67068e-08
3.25551e-08
-0.000642564
0.00446979
5.56769e-09
0.00125156
-7.44332e-09
-1.25586e-06
0.0213886
5.71e-09
-8.79945e-09
6.34753e-08
-1.09726e-07
2.8441e-08
2.78702e-07
1.78248e-07
-0.0339616
9.74212e-07
0.00433574
3.00292e-09
-1.70162e-05
-2.61875e-08
4.67547e-10
8.90123e-09
-6.49983e-11
1.21032e-06
-7.08624e-10
0.000647585
-2.63001e-05
-8.38225e-06
-3.84185e-08
1.16795e-08
-1.83205e-05
2.56591e-08
1.16139e-05
0.00777813
-2.50201e-08
1.06738e-08
-4.21873e-08
0.0106515
1.84712e-06
6.80838e-09
4.19148e-08
3.56386e-10
0.0207837
0.00108095
0.000383333
0.0171594
0.00141108
-2.18457e-07
-0.0242239
4.07723e-08
0.00790484
1.87563e-09
7.36452e-07
9.94582e-09
-3.19043e-05
2.66108e-09
3.81907e-08
4.40572e-07
-4.04338e-09
-7.38711e-09
-4.08168e-09
7.25978e-05
-0.000874074
-1.54243e-08
4.19774e-08
7.53529e-08
2.90979e-08
0.000308414
-0.00276741
-9.69565e-09
-9.64456e-06
-3.57175e-06
0.000650957
-7.85956e-07
-9.69462e-05
0.00819354
0.000624872
6.31587e-08
1.47972e-09
-1.457e-08
3.15897e-05
-1.22767e-06
-1.65254e-07
-4.30344e-09
3.05378e-11
5.48902e-09
-4.83282e-08
-3.72217e-07
-0.0190017
0.0222087
1.42708e-08
2.00393e-08
6.48141e-09
-0.000388131
8.61789e-08
2.7043e-07
1.55559e-08
3.43411e-09
0.00735469
-1.01217e-06
-3.50623e-07
0.0227661
-1.30588e-06
0.000357921
-6.59424e-08
-1.38152e-05
-1.33264e-07
1.64262e-08
-3.42781e-08
0.0144582
-4.36506e-07
-1.40842e-06
0.00226718
0.00121066
-1.23768e-07
-2.10287e-08
-6.95444e-05
-0.000251052
3.48386e-09
-3.43763e-05
-6.39286e-06
-1.55594e-08
3.09593e-08
1.01129e-08
6.57935e-08
-2.09627e-07
0.0258229
-0.00842652
0.00313055
2.0442e-09
2.24564e-08
6.5588e-08
7.94098e-08
-7.55219e-07
1.13058e-05
-4.63075e-06
-1.48912e-06
1.51864e-08
7.67651e-08
7.03308e-08
3.29991e-07
-1.30593e-06
-1.54571e-09
3.32403e-07
1.39254e-08
2.42553e-10
1.68501e-06
-0.00184252
-0.00137761
-1.50526e-08
0.0215379
1.28646e-08
-0.00409388
4.65905e-08
-1.21878e-08
1.20043e-08
2.68275e-07
0.0223645
-2.41553e-07
2.23789e-09
-2.00613e-08
2.41194e-08
-1.71792e-08
-0.0353232
0.00159287
-5.9443e-09
0.0014784
-0.00750173
8.71377e-08
1.18555e-06
-5.03102e-09
5.28821e-07
0.00379182
3.23039e-06
1.05314e-08
-0.0278529
-3.33071e-05
8.55638e-08
-3.50831e-07
-3.09691e-09
0.0020314
0.000230392
-1.82008e-07
-5.27301e-06
-1.61807e-07
-2.90628e-08
4.50712e-08
-5.43179e-06
-4.13697e-07
0.0011552
-8.02624e-06
0.000799974
9.16625e-08
1.97495e-07
-3.80113e-08
1.57027e-06
1.15644e-06
-2.36454e-06
3.90822e-09
5.52817e-06
2.24463e-07
0.0217994
1.06346e-08
1.04803e-07
-5.76479e-08
-2.3147e-07
-8.83872e-08
0.00153533
-1.82195e-07
-1.86072e-07
-9.19837e-09
-9.16879e-09
3.74308e-09
6.23993e-05
-8.20907e-06
3.46274e-07
-3.5566e-07
-6.24874e-08
-1.77057e-09
-1.61612e-09
0.00128967
-8.16079e-08
-2.8677e-08
0.00402247
3.47288e-08
2.61469e-08
0.003452
0.000269174
0.0388476
0.000166849
3.16684e-09
4.05114e-06
-0.000547114
0.00819178
2.86731e-09
-5.15941e-05
6.48622e-07
0.00148153
1.64428e-08
8.44854e-07
0.0304879
0.00264153
-1.10082e-08
-1.98264e-05
-6.13182e-08
-0.0073544
4.28052e-09
0.00192807
5.77689e-07
2.01128e-08