/*--------------------------------*- C++ -*----------------------------------*\
| =========                 |                                                 |
| \\      /  F ield         | OpenFOAM: The Open Source CFD Toolbox           |
|  \\    /   O peration     | Version:  v2012                                 |
|   \\  /    A nd           | Website:  www.openfoam.com                      |
|    \\/     M anipulation  |                                                 |
\*---------------------------------------------------------------------------*/
FoamFile
{
    version     2.0;
    format      ascii;
    class       volScalarField;
    location    "200";
    object      p;
}
// * * * * * * * * * * * * * * * * * * * * * * * * * * * * * * * * * * * * * //

dimensions      [0 2 -2 0 0 0 0];


internalField   nonuniform List<scalar> 
18232
(
0.00274032
-0.0069132
-0.268919
-0.143129
0.00495172
-0.219939
-0.00102564
0.00296617
0.000632239
-0.00102087
0.00509964
-0.0262663
-0.0312749
-0.00783467
-0.000456766
-0.212909
-0.113408
-0.225652
0.00252884
0.0409397
-0.219912
-0.00465314
-0.0277885
-0.0140018
0.0027748
0.0022633
-0.0106569
-0.0100653
0.00276621
-0.00335486
0.00234524
0.0385378
0.00832878
-0.0545472
-0.140417
0.00301853
-0.225915
-0.104561
0.00488432
-0.0132093
0.0014858
-0.0195295
-0.273702
-0.0134123
0.00176184
-0.05045
-0.0234619
0.00792254
0.00123922
-0.221022
-0.110918
-0.00338771
0.00116812
0.000575186
0.00229711
0.000469113
-0.203777
-0.0326217
-0.0341381
-0.00509015
-0.102615
0.0117512
-0.0779517
0.00207575
0.00453584
0.00354092
0.00211821
-0.0496603
0.00421283
-0.0334681
-0.0283345
7.74019e-05
-0.00971046
-0.0200132
-0.0993517
-0.0190871
-0.0076367
-0.0393194
-0.0848685
0.0100769
-0.168122
-0.146051
-0.196622
0.00650618
0.000283493
-0.0187404
0.0051886
0.00257228
-0.00660509
-0.26201
-0.096689
-0.0100402
-0.102774
-0.0573003
0.00453726
0.00595543
0.00356055
-0.00999453
0.00364588
-0.0709037
-0.216435
0.00462014
-0.00118832
0.00294504
-0.0280531
-0.0114817
-0.0386893
-0.0114042
-0.230791
0.00430648
0.00314742
-0.00788472
-0.100235
-0.215508
0.00292498
-0.0347833
-0.0687633
-0.0107798
0.0131457
0.00362026
0.00024112
-0.0111105
0.00206158
0.0126286
-0.0186374
-0.00422479
-0.070511
-0.261824
-0.176021
0.00280136
-0.00246757
-0.136855
0.00194477
-0.00909337
-0.0508933
0.00272058
-0.146674
-0.0900299
-0.221415
-0.226633
0.00274378
-0.25648
-0.279526
-0.197683
-0.00694912
-0.0460115
-0.0689024
-0.0429219
-0.00326068
0.00530943
-0.150146
0.00190753
-0.220931
-0.079585
-0.170075
-0.156236
-0.280108
-0.106836
-0.00254144
-0.252018
-0.0137955
0.0168313
-0.176853
-0.0180221
0.00650735
-0.00963934
-0.0198153
-0.0809609
-0.0240958
-0.153808
-0.0239249
0.0217939
-0.176984
-0.0204404
0.00323251
0.00141897
-0.000215905
-0.0459169
0.00298335
0.00137641
0.00226218
0.0131057
-0.070094
-0.00584745
0.00322908
0.00138255
0.0025352
-0.223814
0.0101332
-0.131937
-0.050292
0.0368742
0.00364751
0.00361919
-0.0239595
0.00366561
-0.0161734
-0.0454017
-0.0687082
-0.0182402
0.00425939
0.0026147
-0.0314047
0.00326147
-0.0451832
-0.00294487
0.0086107
0.000839978
-0.0233874
0.00329302
0.00265465
0.00357699
-0.000169338
0.00693642
-0.0306825
-0.196758
-0.00700234
-0.0242366
-0.0267678
-0.167192
-0.0814003
0.00732428
-0.00907127
0.0203433
0.00768024
0.00249719
0.00544897
0.0037389
-0.00917361
-0.149446
-0.00121203
0.00262241
0.00325275
0.00143189
0.00448878
0.00296635
0.00445054
-0.163441
-0.00224006
0.00401782
-0.260682
0.00273048
0.00381103
0.0039877
-0.0482394
0.00294392
-0.0937363
-0.00313725
0.0011618
0.00328447
-0.259469
-0.0653261
-0.222579
-0.104057
-0.135804
0.00316032
-0.0481859
-0.207158
0.00363361
-0.00974336
-0.0264226
-0.000660438
-0.296975
-0.00128137
-0.0097249
-0.160379
0.00814124
0.0043434
0.00270798
-0.298711
0.00219549
0.00473797
-0.14513
-0.218625
-0.121877
-0.0213483
-0.186782
-0.010247
0.00268783
-0.115418
-0.0395809
-0.228651
0.00791577
0.00331205
0.00819256
0.00151761
-0.00210816
-0.0122507
-0.257325
-0.186276
-0.27725
-0.22771
0.00269593
0.00284746
0.0041026
-0.0241022
0.00279715
0.00261494
0.00423674
-0.0101471
0.00296243
-0.19345
-0.216664
0.00145182
0.00334265
-0.0131336
-0.0553414
-0.0379401
0.00359846
0.00250818
0.00199095
-0.17476
-0.00584077
0.00224021
0.00586289
-0.113498
-0.0139445
0.00312926
0.0065223
0.000304234
-0.00292862
0.0269303
-0.100278
-0.00923555
-0.173384
0.0244872
-0.0265215
-0.00277652
0.00368789
-0.0128557
0.00767997
-0.0663392
-0.123755
-0.0554809
-0.0682406
-0.0963638
-0.00123673
-0.0183408
0.00385695
-0.000406795
-0.204527
-0.180728
-0.00958851
-0.201886
0.00635835
-0.0352247
-0.0444828
0.0012215
-0.0443159
0.00325083
-0.0132778
-0.015422
0.00309549
0.00379859
-0.0598828
0.00328538
-0.0520043
-0.02365
0.00103684
-0.0460073
0.00368806
-0.00602941
-0.0249948
0.00236042
-0.0024811
-0.0121741
0.00249655
-0.0477609
0.00294041
0.00160022
0.00295407
-0.00857047
-0.0471425
0.00414077
0.0047731
-0.0228212
-0.271468
0.000115456
0.00348312
0.0225866
-0.0192514
-0.016478
-0.045295
-0.0921397
0.000112889
0.000112413
-0.0243401
0.00836299
-0.0209653
0.0035643
0.00377023
-0.0101833
0.00150168
0.00271978
0.00385325
-0.0634605
0.00784058
0.00127515
0.026105
-0.0717642
-0.178973
0.0016801
-0.0352864
-0.0705707
-0.0401045
-0.0220289
-0.01755
-0.00752541
-0.100743
0.00388462
-0.041294
-0.0197534
-0.00240716
-0.0453851
0.00116954
0.00480528
-0.0607761
-0.0439429
0.00162452
0.00392944
0.00328175
0.037166
0.00458813
0.00906312
-0.0960327
0.0101143
-0.0128216
-0.0239421
-0.0436981
-0.266864
-0.04711
-0.0494865
-0.0472056
-0.0117726
0.00164039
0.00342243
-0.0498875
-0.0915203
0.00166415
-0.00749196
0.00364367
-0.00742815
-0.0102558
-0.00116508
-0.0174738
-0.0385925
0.00603201
-0.0535942
-6.05785e-05
-0.0565623
-0.0276193
0.00507483
-0.0090265
-0.0221272
-0.0164466
-0.0168676
-0.00194382
-0.000199223
0.00019226
-0.0217502
-0.0253956
0.00139013
0.003513
-0.0276543
-0.0547947
0.00362303
-0.0129667
-0.0207442
0.000135374
0.000105515
-0.0371251
-0.0546583
-0.261147
-0.287559
0.00919199
0.00282636
0.00286611
-0.0302486
-0.00297694
0.00247631
0.0004811
-0.0248903
0.0405561
0.00164058
0.00231867
0.00206551
-0.0488754
-0.04529
-0.211164
-0.0343979
-0.0106867
-0.220006
-0.311183
0.00180722
-0.00966294
-0.0201527
-0.288979
-0.0197236
0.00338549
0.00254162
-0.00974145
0.00245011
0.00359732
-0.00124893
-0.220342
0.00323765
0.000584801
0.00360607
-0.23937
0.00353295
-0.0166937
0.000493644
0.0069327
0.000270981
-0.17166
-0.0356644
0.00224117
-0.0248079
-0.0298179
0.000309918
0.00264751
-0.000615353
0.00388189
-0.0191501
-0.01607
-0.00869465
-0.0850774
-0.0500701
-0.0142327
0.00434714
-0.0083151
-0.221512
-0.0102301
0.00180093
-0.195858
-0.0391713
-0.057374
0.00214634
-0.0328359
-0.0227083
0.00255844
-0.0360533
0.00595434
-0.0257758
-0.0109501
0.000821785
0.00510595
0.00177538
-0.261209
-0.00054334
0.00533653
-0.045206
-0.138334
0.00256442
-0.179833
0.00391526
0.00357604
-0.011911
-0.0131059
-0.0206979
-0.0676702
0.000613363
0.00116828
-0.0102973
-0.23764
-0.00760856
0.00559935
0.00968921
-0.195916
0.00372315
0.0031473
-0.23214
0.00255417
0.00392985
0.00312129
0.000357143
0.00319347
-0.0165564
0.000334828
-0.213578
0.00501228
0.0023459
-0.214647
-0.169291
-0.0649408
0.00324315
-0.202769
-0.0076703
-0.0477199
6.17084e-05
0.000862268
0.00266058
-0.237224
0.00451365
-0.00151665
-0.232694
0.00349146
-0.111355
-0.208409
0.00247589
-0.00145875
-0.011856
-0.195673
-0.00152555
0.00326333
0.00126446
0.000366041
0.00257361
-0.241127
0.00593927
-0.082647
-0.00798181
-0.0393583
-0.0402983
0.000290756
-0.216955
-0.243498
0.00729325
0.00351359
-8.79838e-06
0.00358139
0.000337796
0.00078854
0.0411187
0.00282891
-0.210907
-0.00151456
-0.0159098
0.00596985
-0.00719912
0.00316349
-0.0547367
0.00336567
-0.00808983
0.00562844
-0.0339565
0.00398912
-0.00818287
0.00369176
0.00850896
-0.00203259
0.0027537
0.00324188
-0.00164196
0.00578571
-0.000689653
-0.0173709
0.00492153
0.00807581
0.00323494
-0.0941781
0.0032277
-0.0838021
-0.212643
-0.00371511
0.00356908
-0.00438355
0.00323514
-0.00496616
0.00449851
0.00881151
0.000161389
-0.0170765
0.00358976
-0.0150413
-0.0489717
0.0102641
-0.0407599
0.000334744
0.00440517
-0.267674
0.00360501
0.00377712
0.0121378
-0.0117078
-0.0233815
-0.0946694
-0.0047756
0.00311561
-0.000755986
0.00326887
-0.00802034
-0.156051
-0.0142859
0.00290044
-0.0225571
-0.21001
0.00494652
-0.0441945
0.00328827
0.00858796
-0.00193055
0.00301615
-0.230044
0.00642373
0.00319962
0.00207386
-0.0211486
-0.00971031
-0.0416281
0.00147295
0.00368519
-0.0187924
0.00325983
-0.212062
0.00288006
-0.136566
-0.0337484
-0.00379543
-0.036306
0.00329307
0.00489859
-0.0564351
-0.0229053
-0.224599
-0.0631997
0.00667214
-0.0930168
-0.0105331
-0.214641
-0.00440171
-0.239662
0.00375874
0.00867294
-0.041614
-0.00825693
-0.0269725
0.00425674
-0.140063
0.00258758
-0.0181415
0.00379567
-0.000135108
-0.0262512
-0.00919155
-0.0607749
-0.000784943
0.00373498
0.00539258
-0.0499012
-0.200318
-0.00895884
0.00511187
0.00590703
-0.224979
-0.0381987
-0.0231789
0.00474219
0.00612815
-0.245148
-0.0298516
0.00418793
0.0106716
-0.02085
-0.175664
-0.228301
-0.0207124
-0.0863056
0.00706521
-0.214881
0.00223204
0.00360097
-0.192812
-0.248591
0.00297251
-0.00692188
-0.203032
0.00547664
-0.0126167
0.013683
-0.107409
0.00834472
0.0206057
-0.00856955
-0.00471091
-0.00788284
0.00904861
-0.163206
-0.192546
-0.0301665
-0.202891
0.0037436
0.00597902
0.00364165
-0.0497755
-0.0147716
-0.046636
-0.00493704
0.00279592
0.00258803
-0.205467
-0.0657454
0.00348409
-0.00199162
0.00517765
0.000573315
0.00326995
0.00442145
0.00839499
-0.0230435
-0.103055
0.00217103
-0.0972769
-0.0230815
-0.0984292
0.00730145
0.0092372
-0.0433371
-0.00812679
0.00167297
-0.0232586
-0.0252172
-0.265027
0.0412165
0.00292731
0.00775007
0.00068807
-0.182842
0.0024918
0.00253252
0.00149913
-0.0344869
0.00330099
-0.195625
0.00242558
-0.00638969
0.000207264
-0.00624302
-0.00512917
0.00110299
0.00338143
-0.0260827
0.00277045
-0.0208506
0.00253342
-0.0160273
-0.0626697
-0.29288
-0.168284
0.000698095
-0.0116756
-0.0822907
-0.0214037
-0.02331
-0.0506438
-0.0912935
-0.00698965
-0.244733
0.00115701
0.000750548
-0.0210562
-0.0763117
6.71012e-05
-0.0225637
-0.00464576
-0.0665584
0.00445108
-0.191872
-0.0173685
0.000343236
0.012865
0.00577616
-0.21612
0.00298844
-0.0339165
-0.00261459
0.00256026
-0.00814129
-0.0228465
0.00308993
-0.035723
0.000225629
-0.165924
-0.007077
-0.0298331
0.00387315
-0.016596
-0.00426775
-0.0333384
-0.182494
-0.10735
-0.00329599
0.00277979
-0.00688314
-0.0156909
-0.0488482
-0.0692689
0.00290351
-0.21383
0.00503201
0.0036725
0.00926468
-0.0302783
0.00394624
-0.0147585
0.00322995
-0.00427525
-0.027091
-0.181708
0.00362751
0.00298008
0.00261533
0.00262544
-0.0008133
0.00400109
0.00166878
0.00296625
0.00280778
-0.0103091
-0.00799011
-0.0419208
0.00317096
-0.152863
-0.22083
-0.010082
-0.0270178
-0.237566
-0.19222
-0.00449556
-0.00246745
-0.0132699
-0.00866338
0.00337843
-0.0764387
0.00516488
0.00602852
-0.109514
-0.0194903
0.00279119
-0.0221208
-0.00939986
0.00555612
-0.0465529
0.00303398
0.0031944
0.00302026
0.00282916
0.00436736
-0.109478
-0.0187891
-0.0113986
0.00381931
0.00172886
-0.00444687
-0.0119234
0.000774835
0.00164896
-0.0101958
0.00502373
0.00349259
-0.213214
0.00352866
0.00451651
-0.283838
-0.0235473
0.00204184
0.00482043
-0.0851501
-0.0190872
0.00421179
-0.0647902
-0.041484
0.00251393
-0.00211975
0.00647922
-0.0438062
0.003241
-0.0303578
0.00479607
0.00289491
-0.0165241
-0.205174
-0.211964
-0.0744859
-0.0260368
-0.0386159
0.0073395
-0.0386987
0.00830255
0.00295124
0.000170605
0.00289961
-0.0389684
-0.0113599
-0.0916251
-0.00971063
0.00649082
0.00325933
0.00255188
-0.0739117
-0.0183437
-0.0249761
0.00143965
-0.0336063
-0.222691
-0.00466724
-0.00156371
-0.0515497
0.00251611
-0.00418722
-0.00200704
-0.00229697
-0.207055
0.00258151
-0.258824
-0.0529304
-0.0236431
0.00289256
-0.0933014
0.00198255
2.55976e-05
0.00330038
0.00392964
0.00562792
-0.0249332
0.00297057
0.0103258
0.00134815
-0.158072
-0.0378146
0.00141178
-0.0201021
0.00299331
-0.0244581
0.00298836
0.00117669
-0.213901
-0.0130435
-0.0718573
-0.00114454
-0.0338345
-0.0158197
0.00627314
-0.0132821
-0.00481561
0.00329219
-0.154941
0.00257931
-0.00981828
-0.00999343
-0.137639
0.001596
0.00529493
-0.00660923
-0.0197202
-0.0124463
0.00910973
-0.0625188
-0.0310261
0.0135671
0.000978305
-5.36237e-05
-0.0191846
-0.0579546
0.00290005
-0.0356179
0.00292508
-0.310756
-0.0391128
-0.00396065
0.00498317
-0.0183485
0.00187317
0.00345216
0.00292871
0.00331106
-0.0603014
0.00331071
-0.00569756
-0.0237387
0.0178005
-2.39698e-05
-0.211589
-0.108201
-0.0488473
-0.0375139
0.00281465
0.00934204
-0.00435634
-0.0230089
0.00334395
-0.250347
0.0103275
0.00245829
-0.0792685
-0.228581
-0.207591
-0.0154098
-0.06812
-0.00486609
0.00963868
0.0114756
-0.0675948
-0.073677
0.00270444
-0.170287
-0.00528158
-0.0118987
0.0035112
0.00536149
-0.0291379
0.00334647
0.0030553
-0.0329142
0.000254163
0.00263714
-0.0161435
0.00307928
-0.143446
-0.0237862
-0.308327
-0.00671258
-0.00962449
-0.0263524
0.00345671
0.00136964
-0.217655
0.00649819
-0.00824203
0.0033432
0.0428972
-0.0182124
0.00119737
0.00293922
-0.0135619
0.00267182
-0.277034
0.00327068
-0.024804
-0.00403795
-0.0547421
-0.00176121
-0.0683282
0.00684689
-0.00600023
0.000580133
-0.157326
0.00348962
-0.021486
-0.00967935
-0.167654
0.0034808
-0.211911
0.00340696
0.00182152
0.0110051
0.000686099
0.00349175
0.00733256
-0.0824644
0.00382024
-0.00760184
-0.0466852
-0.0220294
0.00184291
-0.0370355
0.0114348
-0.0109026
-0.0113154
-0.00149452
-0.0823707
-0.0531231
-0.0397014
0.00352982
-0.0625912
0.00671439
-0.0180447
-0.0164572
-0.0562583
0.00261049
0.00593943
-0.0292134
-0.144789
0.00403111
-0.149441
0.00333501
-0.00141472
-0.0260464
0.00273392
-0.000371808
0.00673382
0.00320962
-0.0228526
0.00343939
0.00347879
-0.0441412
0.00327976
0.00263732
0.00642091
0.00344947
0.00521667
0.00260299
-0.0482909
0.00320588
-0.208599
0.00367529
-0.049843
0.00242401
0.000422687
-0.108344
-0.0276624
0.00162217
-0.0291736
-0.0159474
-0.00499317
-0.028694
-0.030031
-0.0319576
-0.0258473
-0.0287554
-0.0885029
-0.00198931
0.00442496
-0.0154015
0.000364403
-0.00194639
0.00697827
2.56475e-05
-0.0211892
0.00488251
0.00525293
-0.144085
-0.0121153
-0.0273617
0.00469825
-0.00129132
-0.0196952
9.76359e-05
0.00362098
0.0110967
9.50727e-05
-0.208675
-0.0146553
-0.0210621
-0.080452
0.00278788
-0.260838
0.00282894
-0.0164982
-0.00571452
0.00230003
-0.0235527
-0.00812456
-0.00325123
-0.00226966
-0.0068734
-0.0382477
-0.0649355
-0.0870245
-0.0400524
0.00407982
0.00338802
0.00450552
0.00357555
-0.0102254
0.00348601
-0.283739
0.000288613
-0.0245275
-0.0168761
-0.219124
0.00335859
-0.0365254
-0.138254
0.00253555
0.00253657
-0.00905235
-0.0184423
0.00298109
-0.0294308
0.00165928
0.0029175
-0.177695
-0.0596389
0.00353828
-0.0314578
-0.00204024
-0.259464
-0.26461
0.0100375
-0.0320761
-0.209642
-0.0172186
-0.00935597
-0.0369004
0.00328161
-0.217761
-0.00802727
0.00245326
-0.0199422
0.0044765
-0.00993007
-0.012042
-0.022943
0.00390995
0.00350337
0.0105652
-0.253253
-0.0118691
-0.00227488
-0.0956462
-0.220741
-0.250363
-0.019955
-0.00841935
-0.0265322
-0.0237178
0.00228003
0.00794653
0.00564796
-0.0356882
-0.000458996
-0.0628192
0.00456306
0.0106311
-0.021022
-0.0180853
0.00140302
0.0033322
-0.0132418
0.00399176
0.00410793
0.00781966
0.00553389
0.00291962
-0.00889112
0.00295144
0.00242344
-0.00873626
-0.055195
-0.00617661
-0.0300334
0.0066606
-0.0459384
0.00406911
-0.0727299
0.00368488
-0.128535
-0.0455953
-0.0679584
-0.00523159
-0.0229463
-0.00798755
-0.0232482
-0.245848
-0.0224394
-0.0176612
-0.0229427
-0.160522
-0.045176
0.000520741
-0.00459168
-0.00459146
0.0100056
-0.0118739
-0.00178362
-0.250798
0.00910913
-0.0436823
0.000213694
0.00381583
-0.175555
-0.0293911
-0.0343728
-0.00311102
-0.0718232
-0.208359
-0.0215454
0.00101207
0.0456082
-0.00417003
-0.00478618
0.00266977
-0.173156
0.00645664
-0.000504597
-0.180998
-0.0301127
0.0137867
-0.0422089
-0.0663858
-0.0230514
-0.0200024
0.00254545
-0.226463
-0.0339652
0.00363349
-0.237429
0.00262983
0.0017098
-0.210673
-0.0203716
-0.0211353
-0.0260619
-0.131643
-0.0020979
-0.0628916
-0.0533392
0.000815442
0.00727577
-0.0432034
-0.0344976
-0.0512635
0.012147
0.00346893
-0.031221
-0.0605469
-0.0384889
-0.00950918
-0.0292086
-0.00462766
-0.0132632
-0.0624413
0.0131922
-0.258713
7.21849e-05
-0.0210992
-0.163893
-0.0397789
-0.00111451
-0.320647
0.00372282
-0.0300368
0.00147006
0.00334094
-0.0596875
-0.0978425
-0.00538851
0.00368536
0.0136979
0.00271305
-0.251844
0.00281355
-0.0079219
-0.00817965
-0.065645
-0.268703
0.00894332
0.00410455
-0.00749899
-0.0155061
-0.194186
-0.0359898
-0.107153
0.0144147
0.00360384
-0.0125936
-0.222265
-0.218423
0.00559222
-0.0126367
0.00673997
-0.209815
0.00384023
0.0119145
-0.00436045
-0.0262526
0.00310215
0.000227923
-0.00550193
0.00332604
0.00360707
-0.0134065
-0.202637
-0.052234
0.0133278
0.00277381
0.0122382
-0.226101
-0.28531
-0.0312959
0.00380986
-0.0140282
-0.0295757
0.00116548
-0.00581824
0.003225
-0.231641
0.040823
0.0109854
0.00433113
-0.0388851
0.00425033
-0.00540481
0.00483648
0.00154685
0.000357142
-0.0606625
-0.0531167
-0.0393253
0.00332731
-0.0296981
0.000429828
0.0116182
-0.0446948
0.0148268
0.0125035
-0.00779964
-0.0454733
-0.0477526
-0.210061
-0.187909
0.000494316
0.00929058
-0.0330048
0.00980654
0.00457894
-0.00816566
0.0278642
0.00290481
0.000858865
0.00457604
0.00651049
0.00338137
0.00376367
-0.0745179
0.000827327
0.00490089
-0.0282043
-0.237172
0.00747379
-0.00242669
0.000121018
0.00296673
-0.145972
0.0050429
0.00422256
0.00300278
0.0131223
0.00503874
0.004153
0.00378425
0.00766153
-0.004567
-0.0160645
-0.107618
-0.0370434
-0.00673848
-0.0248687
0.0048537
-0.220142
0.00354156
-0.0231235
0.00357383
-0.0211805
-0.0267289
-0.00724209
-0.0188334
-0.0465392
0.00300106
-0.243323
0.00665394
-0.0269763
0.00251487
-0.000465266
0.0112554
-0.215757
-0.0153755
-0.0165493
-0.0219001
-0.0936182
-0.210116
-0.0800755
0.00304287
0.00416757
-0.0216735
0.00335211
-0.0219066
-0.00453558
-0.133369
-0.0123657
0.00268781
0.00323361
0.00412444
0.0107995
0.00224503
-0.190937
-0.016173
-0.00145108
-0.0149046
0.0147313
-0.0204456
-0.00508076
-0.178016
-0.199558
-0.0245658
0.00350356
-0.215524
-0.224505
-0.146758
-0.0207592
-0.195076
-0.242169
-0.0519479
-0.000178232
-0.0948045
0.00169493
-0.256346
-0.0174001
0.0440879
-0.00745654
-0.109243
0.00438486
0.0131963
-0.0197139
-0.014954
-0.0774972
0.00430484
0.00391335
-0.132831
-0.0189649
-0.0622116
-0.0137121
0.00227156
-0.00501414
-0.253193
-0.000378758
0.0179205
0.00365833
-0.110782
-0.0822011
-0.0158436
-0.00446742
-0.0382809
0.00543954
-0.20109
0.00432356
0.00956126
0.00173956
-0.240638
0.00496776
-0.235631
0.0047283
-0.0155418
-0.24873
-0.0147568
-0.0424265
-0.0152236
0.00152074
-0.0335592
-0.0758835
0.00290456
0.00375161
-0.0082406
0.0035978
0.0039496
0.010771
0.00290303
-0.00143926
0.00286442
-0.12942
-0.0238921
-0.0125264
-0.0296156
-0.16345
0.00328961
0.00330428
-0.0042688
-0.0188129
0.00175623
0.00242817
-0.247422
-0.000260585
-0.0274571
-0.0351572
0.00688142
0.00990132
-0.131924
-0.213928
0.00372788
0.00290175
0.00916334
0.00492016
0.00748268
0.0052638
-0.000976981
-0.29279
-0.107441
0.000839387
0.0139815
-0.212791
0.000537171
0.00322026
-0.019629
0.00039277
8.57531e-06
0.00500911
0.0074824
-0.00643252
-0.00445168
-0.00256898
0.0013528
0.013861
-0.209582
-0.0471285
0.0089757
-0.0204183
0.0023025
-0.00814557
0.00300452
-0.0329866
-0.0376419
0.00918991
0.00465489
0.00524396
0.0050137
-0.0152187
0.0212863
-0.0417123
-0.217348
-0.12673
0.00446139
0.00511914
0.00368547
-0.0597276
0.000223997
-0.0158958
-0.0170721
-0.00293751
-0.242045
-0.00456197
0.00299935
-0.0436974
-0.0546815
-0.00517718
-0.249961
0.00588586
-0.214196
0.0097205
0.00404118
0.000809817
-0.149501
-0.227113
0.00387158
-0.200832
-0.193433
-0.0263206
-0.285329
-0.190807
0.00257046
-0.00639279
0.00281642
0.0157012
-0.127422
-0.00981241
-0.000505346
-0.00954984
-0.0108251
0.00257816
0.00402386
-0.015945
0.00326775
-0.0234493
0.00402423
0.0082118
-0.0205731
-0.0333089
-0.0498865
0.0154513
-0.212159
0.00429692
-0.06141
-0.00391463
0.00331056
0.00161076
-0.0456979
-0.0907131
-0.00396298
0.000315174
-0.0239449
0.00261832
0.00207588
0.00325009
-0.017811
0.00896686
-0.00759867
-0.0193532
0.00588966
-0.0835458
-0.046898
-0.185945
-0.0108887
-0.000122935
-0.00599466
-0.14737
0.00353688
-0.198348
-0.0106265
-0.213465
0.00329911
-0.0108631
-0.021026
-0.220664
-0.00150918
-0.00973707
0.00281321
-0.228176
0.00579823
-0.00715226
0.00257886
-0.0326987
0.00634559
-0.004874
-0.00408329
-0.0386343
0.00283018
-0.00866844
-0.0213302
-0.304939
0.011574
-0.0324576
-0.0318386
0.00614318
-0.00653273
0.0109779
-0.0227036
0.00661656
-0.0064481
0.00297913
-0.144922
-0.0100273
-0.130673
0.0028105
-0.0342409
-0.0516804
0.0391089
-0.118559
-0.160355
0.00791614
0.00197499
-0.0208638
-0.014345
0.000286737
-0.0123755
-0.00916278
-0.0195795
-0.00453885
-0.00371249
0.00657622
0.00468086
0.0030138
0.00316329
-0.212091
-0.170115
0.0104307
0.00276636
-0.0447136
-0.0450687
0.00699897
-0.234997
-0.179778
-0.0303244
-0.000756524
-0.00625442
-0.0243111
0.041797
-0.160561
0.00389478
-0.0137127
-0.0959562
0.00442314
0.00534397
0.00288005
-0.0494384
0.00536222
-0.069775
-0.211168
-0.0441685
-0.266032
9.9481e-05
0.00364549
-0.0123335
0.00949191
0.00467898
-0.00366823
-0.0657189
0.00665911
0.00245267
0.00304598
-0.217448
-0.224645
-0.096072
0.00658414
-0.0380467
0.00357785
-0.142889
0.000431228
-0.0399796
0.00263209
0.00318064
-0.230289
0.00331493
-0.0189687
0.00235697
0.00216447
-0.0111326
-0.228567
-0.0954464
-0.317202
0.00600744
0.00274015
-0.0692064
0.00686616
0.0102233
-0.0518677
-0.219248
-0.00344868
-0.036
0.00292854
0.007905
0.00275671
0.00330162
-0.0232011
-0.0160118
-0.00922274
0.00324032
-0.0667914
-0.0445245
-0.0176591
-0.276373
0.00453308
0.00232739
0.00303761
0.00652331
-0.157384
-0.00910269
-0.0396633
-0.0420739
-0.00337545
-0.0131858
-0.0087691
0.00367152
-0.0485139
-0.0209368
-0.153756
-0.254075
-0.0480985
-0.00416261
0.00310453
-0.0154221
-0.0181666
-0.000602952
-0.0417296
-0.0753055
-0.00664972
-0.148643
-0.0235326
0.0037288
0.000228849
-0.0496261
-0.00906637
-0.142063
-0.00413982
-0.173616
-0.0455524
-0.0355907
-0.0409273
-0.108833
-0.0308347
-0.00955245
-0.237081
0.0129059
0.00279024
-0.0252336
0.00693073
0.00243145
0.00810074
0.00486233
0.0023499
-0.0193763
0.0067425
0.000750603
-0.0497526
-0.00947318
0.00326659
0.000255034
0.000454678
-0.215007
-0.00907714
0.0032531
-0.253336
0.00367459
-0.291894
0.00396403
-0.00349817
-0.224458
0.0100713
-0.011273
0.00249049
-0.227297
-0.248598
0.000620548
-0.00901732
-0.0406767
-0.0178347
-0.23468
0.00138318
0.00642222
0.00590478
-0.00637496
-0.0451173
0.00967501
-0.0254642
0.00062273
0.00199934
-0.231583
-0.0131306
-0.142004
0.00257944
0.000232732
0.00653807
-0.00346329
-0.0451126
-0.211664
-0.232425
0.00396322
0.000504053
-0.0691552
0.00364363
-0.10145
-0.209323
0.00311715
0.00301629
0.0307357
0.00503706
-0.015697
-0.0136156
0.00388972
-0.224545
-0.00734404
0.00994323
-0.177061
-0.0149227
0.00327539
-0.0618493
0.0205656
0.00273738
-0.220058
-0.00830431
0.00636521
0.0046553
-0.0170442
0.0159419
-0.000864602
0.00245089
-0.0320122
0.00277219
0.00237464
-0.0605253
0.00251892
0.00258391
0.00265438
0.0027165
0.00233806
0.00250121
0.00231908
-0.0317251
0.00336799
-0.0135222
-0.0332752
0.00398821
-0.025334
0.00278069
0.0122272
0.0376926
0.00576473
0.00465743
0.0025689
-0.0240591
-0.138322
-0.0146603
0.00549163
0.00951986
-0.0630034
0.00519559
-0.0228209
0.0136536
-0.0359184
-0.0114817
0.00265992
-0.119757
-0.00103348
0.00472874
0.00277265
0.0029227
0.00316743
0.00401593
-0.204107
0.00586362
-0.00829015
0.00468831
0.00789578
-0.00779641
0.00403001
-0.0226654
0.00223081
-0.131555
-0.186588
-0.16509
-0.0629573
-0.195018
-0.00250607
-0.0419816
-0.093026
0.00301092
-0.0165566
-0.041256
-0.0228906
-0.00797479
-0.00874287
0.00263302
-0.0405695
-0.010883
0.00139497
-0.220606
-0.00595563
0.00327809
-0.00926022
0.00389088
0.0169772
0.00394599
-0.00563353
-0.0306826
-0.00190536
-0.110307
0.00524296
0.00303175
-0.00719256
-0.0280354
-0.0247981
-0.00146292
-0.000159602
-0.248178
0.00542924
-0.202556
-0.0168634
-0.0568971
-0.22518
0.00490192
-0.00574273
-0.00900999
0.00021531
0.00309454
0.00207255
-0.042666
-0.0319453
-0.00916216
0.00686812
0.00465433
0.000824448
-0.156994
-0.0227337
0.00275183
0.00268469
0.00542144
-0.00714455
-0.00795747
0.00627698
-0.00944392
-0.0263213
-0.0126726
-0.003052
-0.000296623
-0.0223058
-0.0100194
0.00424094
-0.00890822
0.00604245
-0.0448255
-0.092032
-0.0365519
0.0102813
-0.24779
0.00199922
-0.0053836
-0.0319145
0.0021673
-0.230795
0.00334049
-0.0177493
-0.0415102
-0.010898
-0.0291388
-0.0458443
-0.0315971
0.00894573
0.00236369
-0.23652
0.00177478
-0.169698
-0.0256302
0.00159917
-0.00997714
0.00243402
0.00341622
0.00294349
5.01704e-05
0.0139285
-0.128528
-0.0173139
-0.0230757
-0.0730689
-0.0316384
0.00636557
-0.253738
-0.0355656
-0.0213465
-0.00593036
-0.137192
0.00335554
-0.0260251
0.00266029
-0.0259722
-0.224767
-0.0785578
0.00615495
-0.190775
-0.00270508
-0.00696914
-0.0266866
-0.0248022
-0.0406208
0.00302578
-0.00924684
0.00300612
-0.120355
0.00355778
0.00326493
-0.0407409
0.0023959
0.00246769
-0.017516
0.00656907
0.00772501
-0.00422175
-0.0304265
0.00317691
-0.0241967
-0.19922
0.00473149
-0.0214193
-0.129634
-0.125629
0.000856703
-0.131324
0.0157399
-0.0329855
-0.0968441
-0.0584159
0.00300202
-0.0211595
0.000166613
0.00358289
-0.0065758
-0.0135942
-0.000273192
-0.0104862
0.00398883
0.00281652
0.0373189
-0.212138
-0.000189761
0.000159549
0.00307731
-0.262953
0.0025853
-0.045263
0.00274684
0.000734938
-0.0321128
-0.0886074
0.00506831
-0.24819
0.00369916
-0.00681593
0.00388191
-0.12707
-0.0659635
-0.00981098
0.00397573
-0.24455
0.00276029
0.00334096
-0.00536178
-0.00247525
-0.00644171
-0.0183769
0.0140175
-0.205014
0.000822315
-0.0307719
-0.184437
0.0018986
0.00326001
-0.0679585
0.00308895
-0.00491675
-0.0251469
-0.022743
-0.00195348
0.000757757
-0.0104129
-0.0438229
-0.0424496
-0.113633
0.0195086
0.00439892
-0.144506
0.00351698
0.00402589
0.00325496
-0.0397441
-0.110442
0.000638589
0.00258461
-0.0058427
0.00314171
0.00308286
0.00675473
-0.0120758
-0.0150652
-0.240242
0.00389813
0.00398221
-0.0631778
-0.0233764
-0.0339152
-0.0443758
-0.248145
-0.00551779
0.00232729
-0.0111897
-0.0309651
-0.0108193
0.0199026
-0.00704721
-0.0132796
-0.00945557
-0.0287597
-0.0500653
0.00214871
-0.0112066
-0.0378225
-0.263137
0.00729172
0.00275838
0.0426192
-0.203002
-0.0552318
0.00522067
-0.0258756
-0.317645
0.0169056
-0.0635879
-0.0699506
0.00301254
0.00398793
-0.0445321
-0.127712
-0.134173
-0.00441131
-0.0586826
-0.00303328
-0.0569214
-0.0512904
-0.00291256
-0.0155467
-0.00137298
-0.13381
-0.00312509
0.00854262
0.00308517
-0.236072
-0.0135158
0.00199001
-0.0923029
-0.00704453
0.00407627
-0.00761729
-0.00843415
-0.111377
-0.0127952
0.000523288
-0.0741609
-0.00838062
-0.123745
-0.0281837
-0.159686
0.00387618
-0.0366668
0.00224592
-0.00593255
-0.0092291
-0.0908045
-0.00365174
-0.0510222
-0.00937173
-0.23
0.0168371
-0.0451074
0.00385568
-0.0111827
0.00719573
-0.000195554
-0.00806689
0.00280076
-0.116579
-0.0321643
-0.00454544
-0.0182362
-0.00655242
-0.0345391
-0.0110735
0.00031085
0.00465074
-0.0916758
-0.00554439
-0.00932193
-0.0121172
-0.0163015
7.38502e-05
-0.0553508
-0.183698
-0.0038503
0.0294644
0.00690511
0.00470641
-0.0100925
-0.00780169
-0.0028601
-0.133136
-0.2981
-0.011369
-0.00922329
0.000200657
-0.110583
0.000292918
-0.0209324
-0.219959
-0.041183
-0.0188085
-0.00905525
0.00110135
0.00586326
0.0172284
0.00698157
-0.0448467
-0.165994
-0.00414683
0.00402432
0.00307347
0.00209047
-0.0348769
-0.00421776
-0.0213736
-0.0178037
-0.0127639
-0.0467029
0.0125036
0.00284678
0.00209696
0.00370019
0.00663151
-0.02375
0.00295583
-0.313701
-0.0257725
-0.00984025
0.00439024
0.0020235
0.00425158
-0.0402118
-0.00140122
-0.0250966
-0.0215307
0.00280985
0.00316507
-0.00697108
-0.0234182
0.0031028
0.00740409
-0.00792842
0.00198168
-0.0538283
-0.032825
-0.0290566
-0.00793403
-0.0304857
-0.0226214
0.0030631
-0.0557673
0.00197397
-0.106218
0.00151594
-0.0188047
-0.182062
0.000645914
-0.0125395
0.000151996
-0.197652
-0.212312
0.000986232
0.00409321
-0.0156175
-0.0651435
0.00478437
0.0124545
-0.021608
-0.008929
0.00203056
-0.0287234
-0.0719153
-0.233234
0.00286897
0.00304869
-0.0140076
-0.0865927
-0.198454
-0.0681888
-0.00236524
-0.235337
-0.189581
-0.00545622
-0.0847972
0.00603934
0.00987743
-0.0765311
0.00973041
0.00885484
0.00393947
0.00867082
-0.0681965
-0.0360071
0.00243488
0.0024311
-0.0471978
-0.0147317
0.00626551
0.0104425
0.0112
-0.203752
-0.171913
0.00326954
0.01031
-0.0341962
-0.0354462
0.00512226
-0.00545975
-0.00529216
0.000499658
0.0331454
-0.00233314
-0.0819216
0.00653626
-0.013984
0.00466922
0.00338617
-0.0284225
-0.00431738
-0.206914
0.00101649
-0.0431966
-0.19604
-0.0226651
-0.0358798
-0.187054
-0.0106419
0.00270198
-0.0446022
0.00103487
-0.0274538
0.00292797
-0.226104
0.00420912
-0.0214787
-0.00372875
-0.0266176
-0.00477322
-0.16417
-0.186167
0.00294017
7.58349e-05
-0.0310149
-0.000361972
-0.00390599
-0.0223143
-0.0138802
0.000487003
-0.0211289
0.0161821
-0.0479766
-0.0212202
-0.0447686
-0.026248
-0.00810852
-0.0754898
-0.123528
-0.00557157
-0.00709756
0.00511726
-0.0147712
0.00585126
-0.151564
0.00478532
-0.11895
-0.00836466
0.00292353
-0.0168164
-0.0363285
0.00507492
0.00349682
-0.0311141
-0.0116642
-0.214994
0.00281292
0.00240338
-0.0195155
-0.0206645
-0.045633
-0.0510376
-0.0247934
0.000225419
-0.229657
-0.0171022
0.00274535
0.00349927
0.00783282
-0.0443057
-0.02274
0.00355367
-0.188208
-0.221759
-0.113671
-0.237665
-0.186716
-4.87657e-05
-0.0210726
-0.0304338
-0.00294171
-0.0478241
-0.0074538
-0.0231197
0.018111
-0.15664
-0.0306063
-0.0323617
0.00343881
-0.0347387
-0.00490226
0.0026325
-0.026354
-0.155506
0.00801438
-0.248583
-0.204705
0.000203222
0.00312078
0.000756992
-0.216946
-5.72959e-05
0.00327906
0.0054445
-0.180952
0.0027895
-0.0209364
-0.0541622
-0.0101134
-0.00642278
-0.0957806
0.00393707
-0.00320815
-0.221459
-0.0362666
0.000930492
-0.104825
-0.22115
-0.0406259