/*--------------------------------*- C++ -*----------------------------------*\
| =========                 |                                                 |
| \\      /  F ield         | OpenFOAM: The Open Source CFD Toolbox           |
|  \\    /   O peration     | Version:  v2012                                 |
|   \\  /    A nd           | Website:  www.openfoam.com                      |
|    \\/     M anipulation  |                                                 |
\*---------------------------------------------------------------------------*/
FoamFile
{
    version     2.0;
    format      ascii;
    class       volScalarField;
    location    "400";
    object      ddt0(k);
}
// * * * * * * * * * * * * * * * * * * * * * * * * * * * * * * * * * * * * * //

dimensions      [0 2 -3 0 0 0 0];


internalField   nonuniform List<scalar> 
18598
(
-9.36408e-08
0.00430306
6.28945e-11
4.66363e-08
3.42212e-08
1.31988e-09
-7.38116e-08
7.70927e-09
0.00195985
-0.00953446
-3.76341e-08
0.00375531
-3.08467e-08
0.000682858
-4.0409e-08
-1.17401e-06
0.00595282
-9.99234e-09
-3.87489e-08
0.00377394
-3.89788e-08
2.54363e-07
0.00703185
-1.99129e-08
1.43198e-08
0.00577842
-0.00308734
4.78406e-08
-0.00345726
-2.16668e-07
0.00492717
1.75862e-08
1.0368e-08
4.30682e-07
-7.06434e-08
-0.00247134
-2.27779e-08
-4.80527e-08
2.07698e-08
-0.00200297
6.91841e-06
-0.00499078
1.10148e-06
0.00151073
-3.10829e-08
4.59175e-09
-4.01741e-08
0.0126929
4.49314e-09
1.29056e-08
-1.12112e-08
-0.0104127
-2.96313e-06
1.8611e-05
1.06163e-07
1.37219e-08
-1.19131e-07
2.2829e-08
-2.63859e-09
6.46285e-08
-0.00138392
0.00211005
6.21868e-08
3.72421e-09
0.00106702
0.0189603
-8.09721e-09
-2.9554e-08
0.0107401
1.91172e-08
-1.54428e-09
-3.54711e-08
0.0113675
-5.30994e-06
-3.15703e-08
-2.10429e-06
4.74424e-08
-1.4029e-08
-1.39986e-07
6.24904e-09
0.00390064
-6.1974e-09
-1.39436e-07
0.00564932
-1.2983e-08
0.00337033
1.10114e-08
-0.0050339
7.4705e-09
1.3696e-08
-1.67471e-08
1.42629e-05
-1.62059e-08
4.23356e-06
0.00315672
3.56487e-08
0.00436736
3.40327e-09
0.00398115
4.59997e-07
1.61091e-07
-1.08622e-08
-3.59494e-08
-8.64247e-08
-1.03407e-07
-5.95908e-09
3.03468e-06
-0.00568923
3.6843e-08
0.00104021
-8.62923e-09
-0.00140476
-7.50443e-08
-6.8778e-08
1.39019e-05
7.98836e-08
0.00422214
7.03544e-08
1.82909e-08
-4.92754e-10
0.00505336
-6.76712e-08
7.93704e-08
-9.18817e-09
0.00362941
-2.66646e-08
-2.93688e-09
1.85149e-07
-0.00231063
-1.47597e-08
-2.41638e-08
-5.17461e-07
-0.0068683
-2.46635e-08
0.01004
3.43533e-08
-5.48447e-07
-1.60315e-08
-2.13195e-08
-5.80697e-06
0.00263531
-8.7619e-10
-4.29372e-08
0.00236188
-8.42104e-08
-2.0957e-08
-8.03332e-05
9.04044e-06
-4.94975e-08
-5.06318e-08
3.53675e-09
-1.02031e-07
2.12623e-08
-0.00249563
2.73353e-08
-1.34381e-08
-0.00309316
-3.23863e-08
8.44199e-09
-1.80242e-08
3.71891e-07
-2.32183e-06
-4.43162e-08
1.21711e-08
-1.35179e-08
-0.00185442
0.00318105
3.32387e-08
-1.8345e-07
3.38139e-08
-2.21014e-08
-6.99717e-08
0.00287925
-7.55525e-06
-1.43388e-08
1.93553e-08
0.00257339
4.10527e-08
3.62408e-08
-0.00358876
1.48988e-07
-0.0190279
-2.40152e-07
-2.18415e-08
0.00557054
-2.89484e-08
0.00513722
-0.000607501
-4.77913e-08
-6.35885e-06
-3.08496e-08
-3.57438e-08
-1.52266e-07
0.00497739
6.80669e-08
4.05019e-08
0.00183154
-0.00510962
3.58366e-07
4.68758e-07
-0.00769088
-1.20161e-08
-6.09192e-08
1.55658e-09
-2.48678e-08
-0.00191445
0.00035474
-6.74083e-08
-1.2088e-08
4.98394e-08
-2.02723e-07
0.00626568
2.56825e-08
-5.77484e-07
-2.75241e-06
8.75869e-08
2.892e-06
-5.13217e-08
9.10705e-08
1.51507e-08
-2.70819e-09
-4.4622e-08
9.18114e-09
1.02146e-07
-3.27429e-08
-9.34344e-09
8.5225e-08
9.53666e-08
0.00481106
-6.04959e-09
-0.0076893
0.0022424
3.25356e-08
4.84581e-08
-4.7724e-05
-0.00129013
-3.23014e-08
-5.5997e-08
2.21034e-08
-2.74915e-08
9.121e-09
1.88167e-07
-0.00209736
-3.06676e-08
9.8546e-06
2.0616e-07
-6.77349e-08
-5.65853e-08
1.11372e-07
-1.2226e-08
-0.00130868
-4.08602e-05
-0.00440114
-0.00676767
-1.30133e-07
0.00438758
-1.54058e-07
0.00154407
1.67298e-08
0.00572227
2.41078e-08
1.71467e-07
0.0205578
0.00429498
-0.0031123
4.14073e-08
-5.33778e-09
-0.00609071
2.5038e-06
-3.98238e-08
-2.04775e-08
-9.52655e-09
2.68726e-07
-9.75803e-09
-0.00138465
-0.004772
-0.00138312
0.00565852
5.05067e-06
1.88948e-07
1.40395e-07
-0.00554127
-4.25004e-08
-0.000522784
0.00284922
-1.7968e-08
2.2133e-06
-9.81753e-07
-3.03594e-08
0.00548901
-2.13286e-06
-0.0154461
0.00615791
0.0151174
0.00574278
-2.1974e-09
-2.81401e-08
-0.0104749
5.12782e-08
2.52946e-07
-0.0036363
-0.00898053
-6.96378e-08
0.00385157
-2.77918e-08
2.29562e-06
-0.00415403
-1.12203e-07
0.000643859
0.000115091
0.00118189
-2.94349e-08
-0.00808604
0.00104118
2.97677e-07
2.25689e-07
3.06136e-07
-3.33191e-08
-1.68421e-08
0.000416746
-1.49709e-08
-0.00693713
-6.99827e-08
3.57985e-08
1.55584e-09
0.00215393
3.85795e-08
4.70415e-07
7.99613e-08
-1.01115e-07
-4.66286e-10
-4.79524e-08
-0.00118822
-0.00321287
-6.92718e-09
1.66334e-05
-8.5029e-08
-0.00278772
4.0089e-06
2.2161e-08
2.6336e-07
0.00070672
-1.69401e-06
0.00568649
1.6024e-09
-0.00172643
0.0021052
-0.00796675
0.00595651
-0.00296172
-2.19066e-08
-9.37387e-08
-1.23058e-07
2.95707e-05
-9.58324e-06
-4.20885e-08
-2.56527e-06
-0.00242641
-2.03995e-06
-1.18972e-09
-1.07576e-07
0.00662857
5.67328e-09
1.53813e-09
-2.08283e-08
-1.25471e-08
-0.00107653
-0.00888811
2.71128e-07
0.00218208
-1.43075e-07
-0.0010836
-3.69846e-08
-0.00160521
1.07668e-08
-0.0126319
-0.00328135
4.30509e-09
-1.13786e-07
-0.00218838
0.00370215
3.62607e-08
-1.80461e-08
2.20609e-07
-8.07115e-10
0.00399676
-1.6032e-08
-1.62502e-09
1.52006e-09
-5.30817e-08
-0.0121097
3.60881e-08
1.30397e-08
-3.51538e-08
0.000407083
-2.50518e-08
6.37117e-08
-9.76844e-08
0.000335099
-1.90884e-08
-1.69166e-09
-1.05151e-07
2.51357e-08
-4.73272e-09
-0.00277409
0.00582918
-0.00210031
-0.00136135
0.00651512
-1.62724e-07
-5.86061e-08
-0.000534463
-4.73403e-07
2.34719e-08
-1.29409e-06
-3.2654e-08
-8.4173e-08
1.91863e-08
0.00937309
-1.01654e-08
4.53427e-08
-7.39495e-08
-6.0512e-08
-0.00993876
-4.80634e-09
-2.73416e-08
-4.69091e-09
-1.80231e-07
-1.5416e-07
-0.00619757
-3.32582e-09
-0.00671626
-3.16677e-08
0.000239258
-3.60062e-06
0.00599112
5.21696e-08
3.33004e-08
1.90685e-05
7.56469e-09
-0.00153629
-0.00500223
-1.40859e-09
-2.82881e-08
-1.44063e-08
0.00385212
-0.00390645
-0.00146341
-4.23817e-08
-0.00288262
1.56923e-08
0.00401062
-0.00505743
-8.29482e-10
0.00102567
-5.97193e-08
-1.71261e-08
1.11156e-08
-1.5289e-08
2.05293e-07
-0.00530173
-3.68528e-08
-1.37939e-07
0.000244005
-5.34015e-07
9.89525e-09
0.0142017
5.41994e-09
0.0011691
-1.04547e-08
-4.44969e-08
-1.02963e-08
-1.67203e-07
-0.00357607
-8.08546e-08
-1.85713e-08
2.48098e-08
-2.83736e-08
0.00453222
2.94621e-07
-9.35595e-09
-6.63051e-05
8.50531e-07
-7.16624e-08
7.5533e-08
1.38271e-08
-3.12538e-08
6.52354e-08
1.59362e-09
-6.08133e-08
-2.59796e-08
-7.19722e-06
-2.91814e-08
-1.24645e-06
0.00563371
-1.79202e-09
-1.11284e-06
-4.82952e-07
0.00395437
1.48741e-08
-0.00647169
-9.86006e-06
-3.78792e-09
-0.00901924
-2.55185e-08
6.23547e-11
-1.96028e-05
2.36637e-08
3.69014e-08
-0.005202
-8.82506e-08
-2.10925e-08
-1.21307e-08
-5.90171e-10
-6.31005e-08
-9.69934e-08
2.47373e-08
0.0020732
0.0031912
2.41285e-08
-9.44213e-09
0.00630062
-2.79489e-08
-3.3539e-08
6.5103e-09
0.00586799
4.48413e-08
2.97814e-08
0.00272651
-0.00335444
-2.1699e-08
-1.83535e-06
1.5435e-08
-1.03545e-08
-9.74256e-06
-0.00672995
0.00592838
8.03144e-09
-5.82493e-08
-0.00915288
2.38258e-08
-0.00517804
5.37635e-09
-2.4966e-08
3.93594e-08
-8.22444e-05
6.34168e-08
-7.47142e-06
2.19573e-08
-0.00617525
-0.0100775
-0.000726662
0.00297553
-6.99557e-08
0.00752007
-9.96668e-09
0.00461228
-0.00479309
-6.74197e-08
-1.45683e-08
0.00448242
2.26768e-07
1.50293e-08
-5.60204e-08
-2.69536e-08
0.0080538
-7.09984e-08
-0.00476967
7.00875e-08
-7.82231e-09
3.28488e-09
1.04203e-05
-4.74065e-08
-1.38155e-07
-0.00100605
0.00911207
-6.55318e-10
5.07628e-08
1.03619e-07
-1.77942e-08
1.8367e-05
-5.47528e-06
0.000765853
1.43156e-09
-0.00332208
4.32506e-05
-2.16425e-08
-0.00383498
2.46344e-07
0.00148276
0.0036347
1.11071e-08
0.00893316
1.41047e-07
3.53469e-05
0.00403608
6.30457e-08
8.16765e-09
7.97566e-09
4.45776e-08
-1.29906e-08
5.92464e-09
3.39416e-09
-3.33065e-08
2.61791e-08
0.00382806
1.5816e-07
-1.21145e-07
1.09119e-08
-7.84524e-09
0.00248421
-0.00255346
0.0033909
-5.83815e-08
0.00740606
-4.83596e-09
-2.39839e-08
2.3934e-08
-2.17683e-08
0.00627142
-0.00319443
-3.52666e-08
-4.37339e-08
3.49373e-07
-1.46169e-08
-4.27316e-08
0.000132761
-7.41453e-08
6.78768e-08
-6.33255e-08
-1.50707e-07
2.82593e-10
8.28488e-08
-0.0149165
1.11043e-08
-1.34804e-07
-8.65213e-08
-9.16237e-08
0.0051574
0.000329489
1.71039e-08
1.95651e-08
-2.37874e-08
-8.98922e-08
-4.23456e-09
-8.08499e-08
5.99609e-09
4.20168e-08
0.0041606
-0.00606649
6.52587e-09
-4.85854e-09
6.29185e-08
1.74647e-08
-6.46697e-09
0.00272484
0.00637075
0.00186073
3.51194e-09
-5.16118e-06
1.01488e-08
2.69238e-07
-9.1628e-08
2.50533e-07
1.85092e-08
0.00666031
-1.19691e-08
1.03713e-07
0.00544775
2.58846e-08
5.73845e-09
0.000405143
-2.11174e-08
0.00478661
-6.40264e-09
3.18071e-08
1.62224e-08
9.40382e-08
3.74082e-05
-0.00646721
2.88069e-07
1.52412e-08
-5.80391e-08
1.05296e-08
1.17776e-08
-0.00570128
2.45441e-08
-0.000911133
1.75274e-07
-5.47204e-08
-3.5003e-08
-1.43029e-08
1.62484e-08
-6.52579e-08
1.16674e-07
0.00273833
0.00204453
6.449e-07
-1.12028e-07
-2.27936e-08
2.98232e-09
1.09105e-07
-7.08313e-08
0.00135882
-6.87466e-08
-2.08429e-08
-1.42734e-07
6.24346e-07
-0.00128414
3.05762e-09
-0.000272366
-2.13023e-08
-0.00311644
-3.13723e-08
0.00597814
-6.27979e-08
-0.00748866
4.77628e-08
6.63186e-10
-1.06456e-08
-2.07069e-08
1.60755e-07
0.00623116
0.000151915
2.25176e-08
9.91824e-09
-1.02193e-08
0.00157339
4.6139e-09
2.23651e-08
-0.004798
-1.60308e-08
0.00181313
-0.00637655
5.94632e-09
0.00129441
-6.9418e-08
-9.03499e-08
-0.00916243
1.57374e-07
-9.6005e-09
2.78096e-05
6.94996e-09
2.46833e-07
-0.00156645
0.0002508
-0.00458224
0.00319939
0.00322678
-8.42448e-08
1.73536e-05
-3.6408e-08
-3.06509e-08
0.00922976
-0.00056435
-5.87742e-08
2.87791e-07
0.00371684
0.00493633
0.00138835
-0.00320043
-0.00941649
1.3389e-08
8.4868e-09
-3.25524e-06
-5.68529e-08
-0.00237552
-9.22893e-08
3.1985e-08
-0.000949953
-7.40931e-08
-3.85427e-08
-1.6404e-08
2.26322e-08
-1.55225e-08
-3.61208e-08
-0.000108708
-2.61903e-08
-9.35303e-09
0.00191848
3.31885e-07
3.50792e-07
2.17363e-07
0.00429698
3.18467e-08
0.00621775
7.9742e-09
-9.12008e-09
1.06352e-08
-0.00532273
1.74489e-08
1.64707e-08
2.56666e-08
-1.41185e-08
1.46312e-07
-5.64697e-08
-0.00842176
1.1427e-05
-0.00622018
0.0012042
-2.31487e-08
-5.36813e-06
-0.00836147
-9.76595e-08
-7.44864e-10
1.29996e-08
2.92753e-08
-0.0095793
1.96151e-08
4.72075e-08
1.8283e-08
2.06731e-06
-1.8125e-08
0.00475736
0.00424686
-1.86027e-08
1.09115e-08
-7.32772e-09
-3.04397e-08
0.00630918
1.29852e-08
1.05137e-08
-1.50219e-08
-6.94455e-08
-4.91248e-08
-1.15591e-07
-0.0154963
0.00978222
-1.29231e-07
-7.83359e-08
0.000125522
0.000804258
1.01343e-08
-7.45935e-09
-4.19967e-09
3.0605e-08
-0.00549787
0.00372213
-1.04113e-06
-0.000493026
2.34108e-09
3.68659e-07
-1.11334e-07
1.10091e-08
2.05766e-09
0.00592454
0.00533268
9.16488e-08
-0.00294036
4.21185e-08
-1.42178e-08
-2.25438e-08
-2.30289e-08
-1.0802e-08
2.38481e-07
2.18514e-07
1.3551e-07
5.19941e-07
0.00257903
-5.1792e-05
-0.00360223
-4.66044e-07
7.1362e-08
-2.40985e-08
-4.16659e-08
4.03215e-08
-0.00373807
-0.004336
-7.75554e-07
-7.41944e-08
-1.11052e-07
0.000672091
-1.06129e-08
-0.00597855
-7.50831e-08
-3.36468e-08
0.00233167
-1.34013e-08
-3.82858e-08
1.06485e-05
-1.48947e-08
-2.30354e-08
-6.19025e-08
-5.1462e-11
3.53981e-05
-0.00485328
-0.00856858
2.1411e-08
-8.15346e-09
1.47804e-07
-0.00330594
2.47213e-05
-2.72948e-08
7.51919e-09
1.82633e-09
-1.19811e-08
7.67927e-07
-4.72907e-09
-0.00184347
-4.95634e-07
2.96372e-09
-0.00232001
-3.34724e-07
7.9863e-09
0.00248173
7.26049e-09
-3.24671e-08
-0.00046878
-0.00920042
1.90482e-09
0.013582
9.6588e-08
0.0112883
2.0129e-08
6.51916e-08
-3.68144e-08
1.88387e-08
-6.49883e-08
-1.41393e-08
1.30176e-08
1.85849e-08
-0.00145279
-0.0194316
3.61088e-07
5.60333e-09
0.00429646
-6.3855e-07
1.13563e-06
1.26853e-08
3.77795e-08
0.011441
-8.826e-08
-4.15931e-08
-1.23796e-07
6.2417e-05
1.38744e-08
-5.79895e-08
1.80739e-09
4.37512e-08
-0.00265973
-9.75344e-08
-2.55058e-08
-1.74843e-08
-2.14274e-06
-2.74761e-08
-5.55361e-08
-2.37538e-08
-3.4614e-06
9.32115e-08
-7.94287e-08
-2.49016e-08
-1.01285e-07
-4.97786e-09
-2.62454e-07
0.0100043
-4.4409e-08
0.000425221
-5.85823e-08
3.30617e-08
-0.00268729
0.00239036
4.70579e-07
0.00549591
-2.38617e-08
-0.00668344
3.40289e-08
-0.00483341
2.31233e-07
-4.29886e-08
-5.90009e-08
-0.00621547
0.0122348
-7.77719e-06
1.48426e-08
0.0105958
-3.2074e-08
-6.29799e-09
-0.000491693
-1.09941e-07
-3.93493e-09
-6.95481e-09
-2.11082e-08
1.79889e-08
-2.67326e-09
-3.49443e-08
0.0125056
1.63397e-07
-1.33246e-06
0.00102261
-3.71998e-09
-0.00438121
0.00424032
9.88039e-08
-0.0108619
-1.04354e-07
-2.04263e-08
-0.00327332
-0.00209343
-0.0131753
0.00560495
-4.98696e-08
-3.8083e-08
8.85152e-08
-1.00241e-07
4.68478e-09
1.86815e-06
0.00189176
-2.93835e-08
2.72424e-08
3.38444e-07
4.79958e-08
-1.56123e-06
-1.31679e-07
2.50732e-08
6.74053e-08
-8.23085e-08
0.00118011
-0.002193
-0.00273066
7.62364e-08
8.51876e-10
-5.07535e-08
1.13489e-08
-2.06084e-08
-5.02622e-08
9.61553e-08
0.00474512
8.8838e-09
5.52861e-08
2.01321e-05
-3.33683e-09
-0.000369518
-0.00150737
-1.03624e-07
-0.00542849
4.40148e-08
6.89307e-09
-1.28308e-08
-3.6707e-07
6.59991e-08
0.0050289
-0.00716164
-1.14809e-08
-0.00211237
3.35581e-08
8.25864e-10
-0.00036547
8.86501e-09
-9.12393e-09
-2.1893e-08
2.73438e-07
-4.11518e-08
-1.417e-08
0.00398648
4.85733e-08
-1.90323e-08
0.00360663
3.4321e-08
-0.000778726
-3.96661e-08
-2.08804e-08
-0.00854675
-1.54085e-07
-5.88213e-08
0.00932577
3.27977e-08
-2.69401e-08
-0.000103177
-6.62099e-09
-0.00283036
-7.38969e-08
0.00428605
1.13347e-07
-0.00394945
-1.11899e-07
0.00450247
-8.95361e-08
0.00183058
4.01571e-09
0.00303597
1.42703e-08
-7.30495e-09
-7.21325e-08
4.26819e-08
4.17211e-07
0.000149402
-1.66666e-07
0.00388666
-8.82843e-08
0.00621309
-1.93007e-08
9.72269e-10
-2.192e-08
-6.32601e-09
0.00627707
6.20018e-09
0.0120811
-0.00239306
-0.00817869
-2.46478e-08
0.00294893
-3.87337e-08
3.61158e-08
-3.67802e-08
0.00345906
2.03831e-07
-5.36498e-10
-0.00368749
0.012383
1.07536e-08
-0.0089713
-0.00304233
-5.51322e-08
-4.81015e-09
1.97808e-07
-0.00377937
2.55999e-06
2.34303e-07
-9.497e-08
4.16567e-09
-8.27617e-09
-9.7747e-08
-2.98514e-06
-1.55255e-09
7.44611e-08
-3.23674e-09
-1.15048e-08
-1.2245e-07
4.82835e-09
-0.00217557
-0.0014173
-2.55864e-09
-0.00300213
2.21815e-07
-0.00362366
-5.3191e-08
-4.72533e-08
2.44213e-07
-8.86438e-08
-1.19262e-08
-0.0206656
-1.32964e-08
7.90028e-08
-2.08761e-08
-1.69256e-08
-1.09409e-08
1.71459e-09
0.000638909
0.000184816
-8.98222e-06
3.19202e-08
3.98924e-08
3.94124e-08
1.27427e-08
2.6659e-09
0.000975931
0.00707242
-0.00175021
2.86845e-08
-4.43204e-08
-1.80931e-08
0.00478015
-2.15541e-09
0.00331447
3.33989e-08
-0.00882462
0.000835036
4.21074e-10
-2.11433e-07
-2.07874e-09
-5.52342e-09
-1.14508e-07
2.15912e-08
-2.27308e-08
-6.59904e-08
1.19775e-05
0.00234212
1.92106e-05
-6.74169e-08
3.33191e-09
-0.00873639
-2.355e-08
-0.000650021
-0.00981146
3.75291e-08
2.69312e-08
-3.11172e-08
2.62839e-08
-3.19461e-08
2.43943e-07
-1.04718e-08
6.75085e-08
1.6835e-08
0.00485515
-1.83273e-08
-1.06541e-07
-4.6738e-08
0.00453699
1.57437e-06
-0.000502126
3.46637e-08
-2.47245e-08
-3.96938e-08
0.00812379
-3.69929e-08
3.04658e-08
-3.02281e-08
-2.77126e-08
3.60017e-07
-6.05289e-07
-1.68529e-05
0.00614249
-2.18179e-08
-1.84723e-07
-1.75497e-07
1.18808e-07
-6.38584e-08
5.50044e-06
2.40768e-09
-4.00411e-09
2.59587e-06
9.58245e-08
-4.55402e-08
-3.6557e-08
1.03629e-06
0.00838542
3.28162e-08
0.0176569
4.39316e-08
0.0171153
-2.08319e-08
-0.000269972
1.05583e-06
-1.44745e-07
2.37506e-08
-8.54474e-08
-0.00324612
1.00371e-08
-1.01076e-08
-2.2086e-06
0.0170055
0.00694873
7.7966e-08
0.00629573
9.9641e-06
-0.00760443
3.38808e-05
0.00162566
0.00416913
-5.08678e-08
1.83155e-08
-1.80156e-08
-2.11494e-08
-1.46881e-08
-5.19014e-08
1.32318e-08
-1.50237e-08
-7.39606e-09
0.00461665
-2.50476e-05
-1.14218e-08
0.00496457
-8.23442e-09
0.00884097
1.85945e-07
-0.0179705
1.17441e-08
2.15649e-08
-1.49227e-06
-2.27284e-09
0.00675086
-9.80332e-09
-1.71411e-09
-3.52359e-09
-0.000265604
1.80398e-08
-1.15827e-08
1.94282e-05
0.0159177
-0.00874257
4.59827e-08
2.00923e-08
3.88273e-07
7.40052e-09
-3.02802e-08
6.40194e-08
-1.5486e-08
4.96567e-08
0.00612927
0.0036533
4.0437e-07
2.63621e-08
5.90264e-08
3.05497e-08
-2.26563e-08
-0.0029783
4.65495e-08
-4.39194e-08
-2.05505e-07
-0.00257208
-1.43925e-05
-3.41471e-08
1.88148e-05
2.77475e-08
0.0157284
4.30388e-08
1.19187e-07
9.41317e-08
1.71285e-06
0.00474361
-2.2878e-09
6.60489e-07
2.08786e-07
-3.38013e-08
3.96716e-10
1.90129e-07
3.82446e-08
1.0053e-07
-0.00226092
-2.38137e-08
-2.21614e-07
-0.00920237
0.000180381
-0.00413507
1.30239e-08
-1.03389e-08
-1.53905e-07
-5.80188e-08
-2.97211e-09
-4.19349e-08
6.78227e-08
1.85338e-09
3.99125e-08
2.84586e-08
-0.00282464
-0.00283027
-1.78172e-08
6.98329e-07
-2.64623e-08
6.52687e-09
-0.00650684
-2.09469e-08
6.27896e-08
-0.00287842
0.00578106
-0.00978898
-1.05285e-07
-3.80984e-08
1.08022e-07
-0.00585188
1.05017e-09
6.38147e-09
-1.92494e-08
0.000240533
-3.00775e-10
0.00423449
0.00266935
-4.96176e-08
-0.002899
1.17141e-07
-0.00324145
-0.0216427
4.26483e-07
-3.15285e-08
-5.01256e-08
-3.4775e-07
-6.40108e-08
-1.34054e-08
-2.07494e-08
-2.06043e-08
1.92583e-07
-8.47526e-07
-0.00210662
4.5257e-08
1.38223e-06
8.94965e-10
3.53264e-09
-0.0154629
3.12651e-09
-0.0026902
-6.33828e-07
2.18878e-07
-2.77811e-11
3.43084e-07
6.26068e-08
6.03795e-09
1.04815e-06
1.56274e-08
-1.97759e-08
-0.00301709
8.9449e-08
-1.1631e-07
2.50855e-08
-9.25852e-09
4.80056e-06
2.85837e-07
-5.67536e-08
-5.9172e-06
-1.22176e-08
4.22675e-07
0.00674538
0.00476243
-5.11422e-09
-0.00120048
-9.66676e-08
-0.0180939
5.3988e-05
0.00628889
7.79702e-08
1.08046e-07
7.44444e-10
-1.12751e-08
-0.00481327
5.9031e-07
-3.08953e-06
6.16595e-08
2.44822e-07
7.8936e-08
3.10061e-08
0.00378063
0.00557435
0.000404401
8.70312e-09
0.00667797
-2.81896e-08
-4.00605e-07
4.76212e-08
-1.17463e-05
3.84428e-08
-9.74112e-08
0.00369208
3.27603e-05
2.21528e-08
-0.000450077
-1.88059e-07
0.00380504
1.1699e-07
-0.00510308
9.29755e-07
-2.49502e-08
-4.69302e-08
0.0020625
6.57274e-08
1.36211e-08
0.00250605
-3.91457e-08
3.73708e-07
0.0103367
1.25091e-08
1.36341e-05
0.00919544
-1.02843e-07
-8.64563e-09
0.0026995
6.5686e-08
1.92584e-08
-0.000949753
-3.92301e-06
5.53478e-08
0.00970157
6.50933e-08
-1.66483e-09
0.00643492
-6.28972e-08
5.06906e-08
-6.42763e-08
-3.92286e-08
-2.36106e-09
2.54201e-08
-7.92749e-05
0.00524024
-3.35083e-08
6.42974e-08
-1.75934e-08
4.98418e-08
-2.34299e-08
0.00514804
-5.08517e-08
-1.53645e-08
-1.5749e-05
-1.38417e-06
2.77537e-07
2.37349e-07
1.6171e-09
-8.75225e-09
-3.92929e-08
-7.27284e-10
4.81075e-09
-3.94918e-08
0.00907079
1.11278e-08
1.12486e-09
2.32789e-07
2.48651e-08
0.00297225
0.00434757
-1.86871e-08
-5.48385e-08
1.72097e-07
-2.31028e-08
2.4052e-08
-0.0183238
0.00381401
1.27752e-08
1.62672e-06
-4.11282e-08
1.26424e-07
-1.68089e-07
5.81357e-08
-6.89968e-07
0.0041646
-9.89e-07
2.83807e-08
1.71159e-09
2.62045e-09
-2.18168e-08
-0.00151644
-2.924e-08
-1.02211e-07
-2.17847e-06
3.35895e-08
0.000672303
4.02471e-08
0.0059004
-1.42389e-09
7.72044e-07
-1.67072e-08
6.46694e-08
6.7738e-08
5.70914e-09
3.20122e-07
-1.77748e-08
-0.0129287
-0.00454784
-0.00192743
1.77172e-07
2.24612e-08
7.14384e-08
-1.73316e-08
3.66189e-08
-1.38629e-07
4.99116e-08
8.94745e-08
0.00166283
1.67528e-07
-1.04358e-08
-2.79329e-08
-0.00376663
0.00381683
5.13983e-08
-2.61084e-07
-0.00233919
-0.00664005
5.53117e-08
0.000937273
0.00478232
1.37247e-08
0.0054485
4.02529e-09
-9.62785e-09
0.000230769
6.0834e-08
-2.34881e-08
-0.00580611
-2.39756e-08
-5.28845e-07
5.38485e-08
0.00595434
-4.8161e-08
1.58821e-05
-0.0031455
0.000179812
-0.0017915
3.54589e-10
7.26615e-09
2.45148e-08
-5.6484e-09
-2.0313e-06
-1.1895e-10
5.60179e-08
-0.00102353
-2.76331e-10
0.0207568
-0.000311422
-3.94081e-08
1.75771e-09
1.05302e-07
0.00343866
1.51273e-08
-1.13584e-07
6.68518e-08
1.14664e-08
8.18831e-08
0.00640866
-3.16733e-08
6.87066e-08
-0.00317734
-0.00586125
0.000147529
-1.37461e-07
-3.73785e-08
-0.00814835
-0.000206923
-6.73763e-08
-0.00811046
-0.00173379
0.00502997
9.08445e-09
7.02434e-08
-6.71782e-09
-7.35656e-09
-2.57455e-09
0.00899735
1.36368e-07
1.80949e-05
9.97107e-08
6.29801e-08
1.2764e-07
-1.51785e-07
0.000798001
1.88211e-07
-1.02419e-08
-1.05209e-07
1.06775e-08
-5.6974e-08
-4.7108e-07
6.527e-08
1.23613e-08
-3.11376e-08
-1.47427e-08
-5.46834e-08
0.00254077
-4.37895e-08
-0.00145507
5.77473e-08
0.00559515
4.99413e-09
0.00278872
1.02718e-08
8.54915e-10
2.42488e-08
-2.61377e-08
0.00558425
8.79265e-10
-1.45859e-08
3.14726e-08
1.16648e-07
2.40018e-06
-8.55435e-05
-7.00156e-08
3.28917e-08
2.68123e-07
-4.668e-08
-2.18209e-08
9.7328e-09
2.6981e-08
-7.30355e-08
-1.09735e-07
4.84953e-07
-1.90034e-08
5.82226e-09
6.19523e-06
4.51758e-06
-1.91396e-08
3.91265e-08
0.00415607
-0.00664669
1.53202e-06
-3.40352e-09
-8.27565e-07
-3.07014e-08
4.85131e-08
-1.18772e-07
-2.5347e-08
0.00492965
-8.21464e-08
8.19485e-09
-7.96528e-08
7.92687e-07
-0.00159704
-2.00247e-06
-1.39437e-07
7.19989e-10
-2.37042e-08
0.00624051
-2.75617e-06
-4.20342e-09
7.624e-07
-0.00766235
0.00526938
-1.0863e-08
3.77252e-07
0.00155232
0.00452435
-0.00279605
0.00809693
7.17441e-08
2.11799e-09
0.000319602
-0.00448679
-4.44541e-08
2.60245e-06
0.00400194
0.00405923
3.46423e-08
9.47403e-05
-1.81806e-08
-0.0128791
1.43668e-08
0.000547664
-2.72631e-09
-2.43886e-08
0.000645564
9.53976e-08
-3.19824e-09
-0.013281
5.19701e-08
1.26723e-05
1.95499e-09
4.99502e-07
4.13697e-09
-0.00443482
3.07912e-08
4.67591e-08
2.89082e-08
-0.000196315
-0.00214313
1.8174e-08
-4.74025e-09
0.0188816
3.91766e-08
5.2673e-09
0.00215658
-1.4838e-08
1.93393e-08
-4.86999e-08
-8.01794e-08
0.00116382
-4.81522e-08
3.10343e-08
4.43714e-08
-1.21289e-07
-4.76783e-08
0.00222456
1.36829e-07
7.83734e-09
2.51777e-08
-1.30653e-08
-1.58538e-07
-6.37372e-09
7.231e-08
-2.90307e-09
9.74412e-08
-0.00874459
0.00605537
0.00278732
7.60447e-08
-0.00184402
-3.74606e-09
0.00750712
0.00474389
-0.00520361
-1.71985e-08
1.10237e-09
-4.82344e-08
-6.68961e-08
0.00637787
-1.09469e-08
0.000742532
-2.68431e-08
1.17986e-05
1.8121e-08
6.7714e-08
-0.00855199
1.16889e-07
2.35258e-07
-0.000876162
-9.20418e-05
3.92025e-08
9.52923e-09
-5.14946e-08
0.000224597
6.17384e-08
-5.67904e-06
-0.0107712
-3.25178e-08
0.00766002
1.8865e-10
-2.2646e-08
-6.39539e-08
0.00013443
2.27809e-08
-5.84912e-07
0.00657162
-3.67164e-09
1.56422e-07
-2.26501e-08
2.1366e-08
2.42931e-08
0.00665219
-9.19307e-09
1.41574e-08
9.71887e-10
1.93161e-08
-2.98557e-05
0.00342923
-3.46044e-08
0.003222
0.00682469
3.86104e-09
0.00182355
6.78415e-09
5.22979e-09
3.78744e-08
6.54771e-08
-1.81387e-08
-1.28193e-05
4.52129e-08
-0.00168773
-4.99879e-06
5.87813e-05
0.00244486
0.011371
4.55834e-08
0.00691328
1.58037e-08
-7.13576e-06
0.00147269
8.75259e-08
0.00105876
-0.00139257
-0.00371762
-0.00814057
0.00539872
2.01094e-06
1.50151e-09
-1.35012e-08
-0.00101091
1.09468e-05
2.36177e-08
9.70469e-08
8.34626e-10
-4.44763e-07
-0.00313937
-5.22574e-09
-3.98357e-08
2.48343e-08
9.1062e-06
0.0021104
-3.27855e-08
3.79922e-08
8.99302e-08
0.00196202
3.14571e-09
-0.0131719
3.45153e-08
-7.35338e-11
1.72946e-07
-3.41572e-08
-1.34821e-07
5.71555e-08
-0.00353549
1.68785e-07
-0.00916276
4.37647e-08
6.95027e-08
3.89947e-07
2.65781e-08
-1.65794e-08
0.0162108
0.000961883
-1.27667e-08
-2.28584e-08
0.00970669
8.83191e-05
-3.15172e-08
4.61775e-08
-1.20864e-08
-1.27183e-07
0.00338973
4.55511e-08
-4.59961e-09
-1.02877e-08
0.0068255
-0.00883678
-3.044e-08
0.000321273
0.00567408
4.81926e-08
-0.0043829
0.00696097
-0.00127934
3.04154e-08
-6.33822e-06
-1.46467e-08
3.38472e-08
0.000820805
-0.000788144
-2.95097e-07
4.46934e-08
0.00686416
-1.91557e-08
-7.51734e-08
0.00316017
-1.51173e-07
0.000584186
-1.35604e-07
-1.74355e-09
0.00171724
0.00248476
-5.41599e-08
-6.30511e-08
-1.1738e-08
0.000620645
0.00352352
0.0024009
-2.16762e-05
-1.06439e-08
2.35387e-08
4.91103e-08
9.05691e-09
0.00307939
-0.00316385
0.00542124
5.26392e-08
0.0028223
3.58993e-08
-1.59752e-08
-2.88364e-08
-4.69576e-09
-6.81949e-08
-6.80224e-08
-1.06152e-07
1.30678e-07
4.65865e-08
-2.14473e-08
6.81105e-09
-0.00844292
-9.43692e-10
3.12423e-08
-4.95185e-06
-3.27591e-08
1.8909e-07
-1.14446e-07
-7.23827e-07
-1.60146e-08
4.59429e-08
-1.02976e-08
1.4623e-08
0.00174963
-0.00395154
-1.31121e-09
0.005091
0.00559761
-1.60459e-08
-1.16912e-07
-6.60575e-08
-1.26712e-08
-1.67825e-09
1.45948e-08
-9.51546e-08
-6.08173e-07
0.00141294
0.0010042
-9.40249e-05
-5.46579e-08
9.01071e-08
5.64617e-10
3.33851e-08
5.05764e-06
3.83704e-08
-0.00523597
0.000686109
-9.24109e-08
9.55277e-09
0.00627166
-1.61872e-08
-0.00039796
0.0037223
0.00283259
-3.96414e-08
-0.000522488
-0.00839032
-0.000750882
-1.74365e-08
2.54372e-08
-8.01672e-09
-6.60949e-10
0.00143863
-9.30252e-05
6.20383e-06
8.50055e-08
-7.41199e-09
-1.61584e-07
1.99923e-07
-0.0067479
-2.14134e-09
-1.08316e-07
0.00353743
0.00361061
-3.22668e-08
-7.43083e-08
-6.20611e-10
-0.00341449
-6.2859e-08
-1.67072e-08
-2.61091e-08
-6.6023e-09
-8.19669e-08
0.00101669
-5.66362e-09
1.66473e-09
1.88926e-07
0.000370627
7.69762e-10
2.95652e-06
4.08743e-08
-9.04892e-08
0.00402962
9.91262e-08
0.00303287
-7.02326e-08
0.00943333
3.41245e-08
7.55963e-08
9.18005e-09
1.31337e-08
-5.46969e-09
-3.96546e-07
2.74485e-08
1.0532e-08
-0.00378296
-1.39943e-08
0.00439801
-5.13613e-08
1.71304e-08
-5.68956e-05
-5.58508e-08
3.53621e-08
5.8467e-08
-5.10152e-07
8.44663e-08
0.00438086
1.31989e-07
6.30842e-09
1.25866e-06
0.00524144
-3.3355e-08
5.63985e-09
-1.70672e-08
-9.85338e-09
4.79653e-09
-1.22346e-07
2.15382e-08
1.87296e-07
-1.17888e-07
0.00384092
-0.00342139
1.29352e-07
4.41862e-09
4.72623e-09
-0.00591087
2.12911e-09
-6.92535e-08
-7.18788e-09
0.00768933
0.0031536
6.55884e-08
0.0101882
8.81795e-08
-4.45582e-08
-0.00195056
0.00673041
2.15347e-07
-1.43501e-06
-7.9853e-09
5.25056e-08
-2.3501e-08
3.36725e-06
-3.57765e-08
-7.70517e-08
0.0074471
-0.00156612
9.2342e-09
-2.35701e-08
0.00140585
-2.28193e-08
-8.65741e-08
2.83294e-08
-1.60594e-09
0.00479109
-9.77375e-05
3.0179e-08
0.00136671
-2.1927e-08
-0.00210508
0.00824492
-5.12536e-08
4.71114e-10
-4.73591e-08
-4.59573e-08
0.00484274
0.00304339
-1.55932e-08
2.61321e-08
1.79684e-08
2.62697e-07
7.05149e-08
0.00474963
1.02083e-07
0.00327826
-3.11857e-08
1.03509e-08
0.00304578
4.30021e-08
-0.00793803
-3.711e-08
-1.00359e-07
-1.52164e-07
5.04023e-08
-1.29766e-08
-7.36254e-06
-0.00202869
0.00327102
-2.79414e-09
6.97587e-09
2.12629e-08
6.18636e-08
2.42091e-07
-9.88825e-05
3.24067e-07
-0.0117253
0.00522031
-4.01839e-09
-1.47041e-08
-0.00558031
7.34884e-08
-1.33523e-08
-6.20397e-08
0.00648926
2.45857e-09
0.00861865
1.28109e-08
-0.00270283
-7.3185e-08
0.00155125
6.11358e-09
2.53915e-07
-4.158e-07
-0.00277794
0.000295261
-7.06186e-06
2.1719e-06
4.45782e-09
5.22257e-08
-0.000521146
-0.00224531
-5.17657e-08
8.11126e-09
1.15986e-07
-6.47868e-08
-8.42515e-08
-6.54725e-05
1.86215e-07
-9.42575e-09
8.51459e-08
0.000360432
2.97882e-08
-8.27644e-09
-0.00614521
1.40466e-07
4.00043e-08
1.90619e-06
5.33869e-08
2.5367e-09
-3.14819e-08
-7.37654e-09
-0.00146123
-3.45587e-08
-4.39597e-10
0.000115524
-1.75289e-08
1.15689e-07
0.000898873
-1.87643e-05
-0.00774437
0.0016663
1.35649e-10
0.00631099
5.85295e-08
-2.32657e-08
-8.59572e-08
7.04313e-10
9.08859e-08
-7.55251e-08
-8.34109e-08
-0.00341359
2.18334e-09
-1.85493e-07
-0.000985083
-4.80305e-08
2.55586e-07
0.0005162
7.70908e-10
8.25557e-10
6.97559e-08
1.05968e-08
-0.0012113
-8.37089e-09
1.88792e-08
-0.00224512
4.74909e-08
3.72879e-07
0.00994181
-1.41537e-09
-3.9818e-06
0.00324796
0.00139893
-4.20712e-08
1.25809e-08
-0.0177508
-1.13531e-08
0.00563577
-8.05869e-05
-0.00482884
8.37297e-09
-3.96722e-07
-6.15985e-09
-1.58728e-07
-3.01238e-08
-3.1671e-08
4.05023e-08
-0.00122113
4.50235e-08
0.0031747
1.22292e-07
-0.000541152
-3.52545e-08
-1.07548e-06
-0.0044428
-1.40531e-07
-9.25524e-08
3.10842e-08
-1.15539e-07
3.39049e-10
-0.00502012
4.54621e-07
0.00521208
6.91909e-09
4.23954e-08
-9.61836e-09
-1.10952e-08
4.18164e-07
-7.64599e-08
3.59765e-08
3.3496e-08
-0.0178586
0.0086293
-1.98526e-07
0.00435579
3.68607e-08
-5.11456e-09
-5.91828e-09
-1.97543e-08
2.18469e-08
-6.0725e-08
-6.84865e-09
-5.61465e-09
0.00589268
-5.57605e-08
-0.00012326
1.04405e-07
0.00445204
-2.11557e-08
0.00589479
-1.72003e-08
-0.0080018
-4.63412e-10
-4.39577e-09
-4.42486e-08
0.00441787
5.55513e-09
0.00243926
-2.43415e-08
-7.27605e-08
-4.61541e-08
2.40412e-06
0.00358076
-0.00200117
-0.000944877
2.98347e-06
3.90763e-08
0.00769722
5.97011e-08
-2.48816e-08
7.39654e-06
-1.27558e-07
-6.13841e-08
0.00569117
-3.84723e-08
0.00509697
-1.88373e-08
1.16448e-05
1.54035e-08
-3.9595e-08
2.19297e-06
5.32546e-08
-0.00228673
-5.90966e-08
1.28174e-08
3.59372e-09
-1.04024e-08
1.55045e-07
-4.9853e-08
-1.7661e-07
-3.28691e-09
2.13024e-05
0.00331699
9.58765e-08
0.00785157
-0.00565118
-5.25623e-08
-2.7085e-09
1.72195e-05
-4.52839e-08
-6.49124e-08
1.37208e-07
2.48084e-07
-0.00603922
5.28095e-08
-0.0041945
1.48104e-07
-0.000100882
-1.71044e-07
3.88921e-08
3.25644e-08
4.00989e-07
-3.33479e-08
-5.12095e-08
-2.6162e-08
-4.39282e-06
-9.39944e-08
1.94416e-08
2.51173e-07
1.42264e-07
1.18725e-05
-0.00347874
0.00613326
1.74062e-05
2.05218e-07
3.41533e-09
-1.48345e-08
6.33985e-10
4.51182e-06
-0.00202967
0.00321549
-0.00553123
-3.12429e-05
-0.00146479
1.98607e-07
-1.75839e-08
-1.02859e-08
-3.58484e-08
-6.81099e-08
0.00670398
0.00454589
-0.000151209
-5.73146e-09
-0.00105328
-1.13561e-08
7.81375e-08
1.05226e-09
0.000339463
5.28851e-09
-6.73764e-08
1.58816e-07
-2.2039e-08
7.54228e-06
-0.000426773
-0.00931422
-2.95453e-06
3.35584e-08
1.9118e-08
-2.60307e-05
-0.00586649
0.0034646
0.0044685
-4.63668e-09
0.00677087
7.42049e-09
5.55226e-08
-7.23906e-08
0.00540562
-8.08867e-08
-0.000596085
-0.00313988
8.32832e-08
-1.60311e-07
0.00469131
0.00390366
-1.09066e-07
-1.01599e-08
6.13276e-05
-0.00392108
-1.40352e-08
-9.17405e-08