/*--------------------------------*- C++ -*----------------------------------*\
| =========                 |                                                 |
| \\      /  F ield         | OpenFOAM: The Open Source CFD Toolbox           |
|  \\    /   O peration     | Version:  v2012                                 |
|   \\  /    A nd           | Website:  www.openfoam.com                      |
|    \\/     M anipulation  |                                                 |
\*---------------------------------------------------------------------------*/
FoamFile
{
    version     2.0;
    format      ascii;
    class       surfaceScalarField;
    location    "400";
    object      ddtCorrDdt0(phi);
}
// * * * * * * * * * * * * * * * * * * * * * * * * * * * * * * * * * * * * * //

dimensions      [0 3 -2 0 0 0 0];
oriented        oriented;


internalField   nonuniform List<scalar> 
27668
(
-0.000127271
6.33868e-05
6.38868e-05
-0.000527751
-0.00198146
0.00250921
-6.68423e-07
6.68239e-07
-1.5423e-05
-8.26259e-06
2.36869e-05
-5.81913e-07
-1.87387e-06
2.45765e-06
-2.73318e-05
1.73419e-05
9.99107e-06
2.02151e-05
-1.47176e-05
-5.49762e-06
-1.20317e-06
-4.13782e-07
1.61756e-06
0.00107586
-0.000439347
-0.000636536
-0.0013565
0.000205878
0.00115075
-1.43089e-06
2.33824e-06
-9.0746e-07
-8.51356e-06
4.2943e-07
-1.48859e-06
1.05905e-06
-0.000994704
0.00048055
1.53884e-06
-1.96743e-06
4.29433e-07
0.000140312
2.73116e-05
-0.000167633
0.000296242
-0.000143078
-0.000153164
-1.4654e-05
-1.26764e-05
5.40275e-06
-4.85118e-06
-5.51829e-07
0.000459026
0.000267754
-0.000726778
-8.26629e-07
2.66529e-06
-1.83873e-06
-2.38617e-06
2.05993e-06
3.26375e-07
-0.00051261
-0.000348588
0.000861166
3.10636e-06
-1.73748e-06
-1.36876e-06
1.41496e-06
-5.49049e-07
-8.66071e-07
-0.000173862
0.000282244
-0.0001084
0.000449882
0.000154808
-0.00060477
4.33423e-06
-1.65225e-06
-2.68251e-06
0.000769343
-0.000319413
-2.91657e-05
-9.81067e-05
0.000435104
0.000376033
-0.000811158
-1.81255e-06
6.10337e-07
4.65325e-06
-1.83046e-06
-2.82346e-06
2.26172e-05
5.5277e-06
-2.81445e-05
1.07496e-05
9.46496e-06
-5.45327e-05
-0.000108851
0.000163505
-3.59858e-07
-6.60495e-07
1.02013e-06
-1.5721e-06
1.41308e-07
-2.52388e-06
1.9424e-06
0.000487049
-0.000659719
0.000172674
-0.000114307
-1.98801e-05
0.000134154
-0.000118041
0.00100665
-0.000888574
0.00012268
0.000109176
-0.000231862
-0.000510506
1.72151e-06
-7.01203e-06
5.29031e-06
-1.82667e-06
-2.16423e-06
3.99105e-06
-1.09024e-06
4.9448e-07
5.95578e-07
-0.000968626
-0.000514917
0.00148355
-2.46659e-06
-9.0073e-07
3.36756e-06
7.07272e-07
7.07577e-07
-3.29878e-07
7.56118e-07
-4.26307e-07
0.00061604
-0.000598555
-1.74893e-05
6.1274e-06
-0.000173798
0.000167667
-2.34081e-05
4.32897e-05
-1.98917e-05
-7.33634e-07
-1.65235e-06
-5.22333e-07
1.0291e-06
-5.06823e-07
-1.12147e-06
2.73357e-06
-1.61146e-06
-5.25569e-07
1.21303e-07
4.04192e-07
-8.46616e-07
-2.7308e-06
6.14096e-06
1.61771e-06
-7.75982e-06
0.000319833
-0.000423751
0.000103936
0.00156532
-0.00209306
2.56301e-06
1.77118e-06
1.04878e-06
2.05745e-06
-0.000542859
0.000428919
0.000113939
-0.000585997
0.000120081
0.00046589
-2.75089e-06
1.90464e-06
4.90834e-06
-6.89202e-06
1.9836e-06
-0.00143182
-0.000752911
0.00218473
-3.09882e-07
3.08046e-07
1.75174e-09
1.6375e-05
-1.17292e-05
-4.6455e-06
4.36067e-06
-1.29188e-05
8.55812e-06
-0.00183322
0.000864626
-0.000127371
0.000133499
-3.14549e-07
-1.63234e-06
1.94642e-06
5.06194e-06
-0.00011937
1.42886e-06
-9.58598e-07
-4.70189e-07
-9.94618e-07
4.72256e-07
-3.85108e-06
5.21899e-07
3.32952e-06
6.85812e-06
9.517e-06
-5.80785e-05
0.000517103
1.80472e-06
-3.63173e-06
-4.26164e-07
2.35505e-06
-1.92858e-06
-0.000287403
0.000113537
1.46897e-06
3.1845e-06
0.000263147
0.000171959
-3.71244e-07
6.13919e-08
-0.0012383
0.00118949
4.87422e-05
2.91773e-06
-1.28619e-06
-1.63039e-06
8.22377e-06
-4.72266e-06
-3.50095e-06
-3.3815e-06
5.82753e-06
-2.44392e-06
-4.79855e-05
2.45709e-05
-4.25998e-06
5.9819e-06
-1.71781e-05
8.0184e-06
9.15628e-06
-0.00160982
0.00114203
0.00046779
1.45838e-06
-3.77407e-06
2.31577e-06
9.52695e-05
-0.000233397
0.000138124
-2.24461e-06
1.76598e-06
4.78548e-07
0.000122515
0.000477762
-0.000600279
-2.8595e-06
2.54772e-05
8.00543e-07
2.11741e-06
-9.02997e-08
-4.35285e-07
4.67638e-06
-1.00629e-05
5.38774e-06
-8.50114e-05
3.96512e-05
4.53599e-05
-1.13481e-06
-2.71573e-06
3.1458e-06
-2.3021e-06
-8.4378e-07
0.000136224
-0.000108552
-2.76754e-05
-0.000121478
0.000242723
-0.000121289
3.90293e-06
-2.324e-06
-1.57989e-06
-0.000185715
-0.000357143
-1.00135e-05
6.8795e-06
3.13477e-06
-2.2235e-05
0.000342072
1.66875e-06
-1.20801e-06
-4.60449e-07
1.0428e-05
-5.75022e-06
-2.52972e-05
-2.26883e-05
-6.41287e-08
-3.54761e-06
3.61176e-06
-0.000521685
0.0006442
7.33085e-06
-1.19043e-06
-1.92113e-05
5.67393e-06
1.35369e-05
7.57767e-07
-1.11778e-06
0.00013102
-0.000349945
3.96707e-06
-1.49231e-06
-2.47482e-06
9.96256e-07
2.59148e-06
-3.58803e-06
-3.4376e-06
-6.57561e-06
-0.000151027
2.28514e-05
0.000128198
2.51721e-06
-2.00081e-06
-5.1646e-07
-7.14979e-06
6.45658e-06
6.93693e-07
5.41167e-05
-2.47158e-06
-5.1645e-05
7.0994e-07
-5.5334e-05
-2.50761e-06
8.75871e-07
1.63216e-06
5.66421e-07
-8.2453e-07
2.58169e-07
1.31395e-05
-1.14487e-05
-1.69194e-06
-0.000717823
0.00119234
-0.000474586
-1.07444e-06
6.83704e-06
-5.7612e-06
0.000716543
-0.00214837
-5.47417e-07
2.17514e-07
-8.30455e-05
7.32469e-05
9.79842e-06
2.25064e-06
-3.83042e-07
-4.53511e-06
-1.50764e-05
1.96242e-05
0.00101308
6.27889e-05
1.87462e-06
2.3807e-07
-2.11279e-06
-2.89757e-06
1.77628e-06
-0.000318352
0.000757474
2.06625e-06
-3.48296e-07
-1.7182e-06
3.90794e-06
1.11718e-06
-5.02478e-06
-0.000699046
-0.000991829
0.00169089
-4.75956e-05
2.22982e-05
-2.18575e-06
2.27407e-06
-8.85249e-08
8.84219e-06
2.94482e-07
-9.13683e-06
1.44065e-06
1.70532e-06
3.20251e-05
-1.2971e-05
-1.90538e-05
1.94066e-06
-2.22368e-06
2.82889e-07
0.000244373
-0.000797692
0.000553348
3.636e-06
-2.17778e-06
1.76374e-06
3.01891e-07
0.000811814
-0.000809848
-1.97631e-06
1.47358e-06
1.04308e-06
1.5433e-06
-1.11369e-06
1.31989e-06
6.43175e-06
-7.75154e-06
-6.54004e-05
8.30404e-05
-1.76398e-05
-1.14973e-05
-5.67824e-06
1.03767e-06
-3.50413e-06
3.56588e-06
-1.37484e-06
-2.19149e-06
-1.18375e-06
-1.32354e-06
0.000240028
0.000247022
-0.000556152
0.000576422
-2.02726e-05
-1.89215e-06
-5.89449e-08
1.95114e-06
-3.1399e-06
5.74621e-06
-2.60186e-06
8.58124e-05
-5.13872e-05
-3.44259e-05
-1.94248e-06
1.62798e-06
9.97155e-06
-4.86269e-06
-5.10373e-06
-0.000836211
0.000517859
0.000227794
-0.000252044
2.42563e-05
-1.69489e-06
3.67774e-06
-1.98196e-06
2.12641e-06
-6.66348e-08
-0.000896392
0.000887881
3.46404e-06
-3.52818e-06
-1.06679e-06
4.67525e-06
-3.609e-06
6.66819e-05
0.000741085
-0.000807756
5.24139e-05
4.92151e-05
-0.000101628
-0.000270349
-0.00119038
0.00146078
6.23828e-06
6.90096e-06
4.38636e-06
-2.91747e-06
-2.09455e-05
-4.30073e-05
6.39436e-05
1.09696e-05
-9.37969e-06
-1.58894e-06
-0.000593394
6.34482e-05
0.000529917
-0.00037246
0.000331577
4.08895e-05
1.09484e-06
-3.53154e-07
-7.41445e-07
2.62861e-05
0.000201501
-9.26912e-06
2.82434e-06
6.44534e-06
1.68942e-06
2.27775e-06
-1.19117e-05
8.77345e-06
0.000110385
-0.000263551
0.000153159
-9.56819e-06
9.90696e-07
8.57766e-06
-2.69256e-06
1.50536e-06
1.18726e-06
-0.000197068
0.000355133
-0.000158051
-0.000203078
8.16035e-05
-7.90464e-05
1.36452e-05
0.000301367
-0.000178698
0.00042674
-0.000267926
-0.000158845
-3.54538e-08
-9.59191e-07
4.5851e-06
5.38941e-06
-5.90162e-07
-7.82759e-08
3.8906e-06
-6.30793e-06
2.41898e-06
-0.00108406
0.000843972
0.000240083
0.000905348
-0.000685265
-0.000220093
2.42005e-06
-4.79151e-07
3.25228e-06
-2.77844e-06
-4.73545e-07
-2.80625e-06
-1.52259e-06
4.32951e-06
-5.95177e-05
0.000122906
-0.000139773
1.22007e-05
0.00012757
-8.02207e-07
1.25405e-08
7.89651e-07
-8.88984e-05
5.85519e-06
0.000111403
0.000210917
-0.000322324
-1.2205e-05
9.99904e-06
2.20544e-06
0.000299546
-0.000188146
-8.31196e-07
2.63291e-06
-1.80174e-06
-1.85859e-06
-6.26728e-08
1.92086e-06
3.09054e-06
-1.8507e-05
-8.05507e-07
-6.28862e-07
1.43446e-06
2.02181e-06
-1.62615e-06
-3.95762e-07
4.66639e-06
-7.58557e-07
4.36414e-07
6.58505e-07
-6.90998e-06
1.12704e-05
-2.49371e-06
1.66248e-06
3.15267e-06
-2.15647e-06
-1.57974e-06
3.83719e-07
1.1956e-06
4.20683e-06
1.11516e-06
2.45048e-06
-0.0010551
0.000337239
-0.000229172
-0.000120879
0.00035005
-7.57407e-07
-1.48763e-06
-2.67921e-06
1.8523e-06
0.000220299
-0.000640312
0.000420018
-0.000434888
0.000356459
7.84557e-05
1.62275e-06
2.76422e-06
8.33518e-06
2.63312e-06
2.8928e-06
-1.84388e-06
-6.67614e-06
3.29485e-06
1.49746e-06
-5.11681e-06
3.61971e-06
-7.08421e-05
2.54341e-05
4.54073e-05
-0.000365147
0.000367171
-2.02902e-06
9.13775e-07
-2.89194e-06
1.97884e-06
-2.16056e-05
1.70651e-05
4.82861e-06
-1.4199e-06
-3.40925e-06
1.08264e-05
-6.24135e-06
-5.04834e-07
2.37961e-06
-1.32395e-05
1.03395e-06
-1.52479e-06
-1.16752e-06
-0.000228044
-0.000170334
0.000398396
0.000590953
-0.000370639
-0.000683599
-0.000554698
0.000326643
-0.00083092
0.000504285
-1.78693e-05
-1.40942e-05
3.19602e-05
-0.000458176
-5.44251e-05
-4.152e-06
1.28833e-05
-8.72927e-06
0.000503536
-9.97652e-05
-0.000403757
1.6588e-07
-2.87663e-06
2.71072e-06
0.000233994
3.49985e-05
-0.000268982
-3.41878e-06
2.35198e-06
-2.89649e-05
-3.20176e-05
6.09865e-05
-0.000279917
-0.000306057
-0.001128
-0.000481811
-0.000916692
0.00189159
-0.00097489
-2.42397e-06
4.21918e-06
-1.79425e-06
4.90588e-07
-1.29577e-06
0.00184007
-0.00159376
-0.00024632
-0.00018714
1.45279e-05
0.00017261
2.57821e-06
-3.16903e-06
5.90501e-07
8.3246e-07
-1.03817e-07
-7.28637e-07
-1.01506e-06
1.02084e-06
-5.70071e-09
-4.4355e-05
2.85197e-05
1.5836e-05
7.25537e-07
-1.85695e-06
1.13115e-06
0.000103033
-5.66923e-05
-4.63337e-05
-0.000486085
-0.000597973
0.000131193
-0.000368666
0.000237473
9.18706e-05
0.000204373
-5.2595e-05
9.02999e-05
-3.76986e-05
3.70281e-05
-6.59927e-05
-2.67866e-05
-4.40553e-05
0.00016935
-0.000411694
0.000242629
4.13393e-06
1.26908e-06
2.50976e-05
7.79524e-05
5.35588e-05
7.58546e-05
-0.000129407
1.00665e-05
-1.7293e-06
-0.000183217
-3.92506e-06
-3.16668e-06
-0.000102858
0.00010603
1.58132e-06
-2.41199e-06
8.30495e-07
-0.000457306
-0.000136092
0.000164405
-0.000118198
-4.6205e-05
-0.000918519
0.000648148
-0.000119718
9.87368e-05
-0.00157334
0.00105844
-0.00178757
0.000116459
0.00167113
-2.10244e-05
6.37158e-06
-1.80896e-06
2.72275e-06
0.000216766
-0.00136471
0.00114797
-1.28739e-05
8.72093e-06
1.35442e-05
4.05723e-05
-0.000301707
-0.000133186
-0.000131556
-0.00122493
4.2992e-06
6.52742e-06
1.97169e-05
-0.000170747
1.84749e-06
-3.54201e-06
6.17448e-05
7.44765e-05
-0.000843926
0.000910625
-5.37694e-07
9.48637e-05
0.000300468
-0.000395316
-0.000357441
0.000273492
8.39497e-05
0.00104074
-0.00116925
0.000128557
2.28895e-08
1.00985e-07
-1.23789e-07
-0.000852477
0.00106931
0.000127281
-3.24102e-05
-5.57051e-05
-2.33406e-05
-2.42469e-05
4.22675e-05
-1.80196e-05
-4.153e-05
0.000110738
-6.92072e-05
-5.77131e-07
6.00048e-07
1.93972e-06
-1.77367e-06
0.000301035
0.000202472
3.45626e-08
4.87363e-06
-0.000492524
0.000819179
4.88896e-06
-1.25438e-06
-3.6345e-06
-1.8896e-06
6.87813e-06
-4.98782e-06
3.30966e-06
1.35692e-06
-0.000137684
7.02738e-05
6.7329e-05
7.22056e-07
7.06623e-07
9.41399e-06
1.96184e-05
-2.90323e-05
4.30816e-07
3.61538e-06
1.21275e-06
5.2649e-06
-3.76745e-06
1.00629e-05
-5.73147e-06
-4.33103e-06
0.000667289
-0.000263355
-0.000403938
0.000985444
8.61721e-07
-7.79128e-07
-8.26221e-08
-2.9562e-06
2.61002e-06
3.4319e-07
5.54041e-06
-1.06314e-06
-4.4782e-06
-1.79436e-05
-0.000347193
-9.23018e-05
3.97263e-05
4.73019e-07
-7.17936e-08
-4.01226e-07
-2.36578e-05
-2.06975e-05
0.00013092
0.000559167
-0.000690007
-0.000148304
4.10981e-05
0.000107205
0.000146531
0.000100769
-0.000247304
3.1862e-06
-3.95719e-07
-2.79066e-06
4.19843e-06
-6.43926e-06
2.32762e-06
0.000164777
-0.00039395
0.000268919
0.000157814
-0.00155804
-0.000628353
0.00218629
0.000325507
0.000471684
-0.00079719
-7.02172e-06
3.77604e-06
3.24449e-06
2.50269e-05
6.99789e-06
-3.37877e-05
-7.34539e-06
4.11333e-05
5.06155e-06
4.72448e-06
-1.48304e-05
1.01025e-05
9.77803e-07
1.57657e-06
-2.55444e-06
1.65237e-05
-1.47501e-05
-1.77166e-06
-0.000467391
-0.000330293
3.02939e-05
0.000134109
-1.06085e-06
2.56605e-06
2.55607e-06
-4.3868e-07
-2.11822e-06
-6.39817e-05
0.000289971
-0.000226006
1.03513e-06
-2.00593e-06
9.70973e-07
7.83771e-08
7.83283e-07
7.13233e-07
-1.46816e-07
1.68741e-06
4.38903e-07
0.000667288
-0.0005231
0.000222958
0.00030015
-6.88432e-05
1.31385e-05
-7.48833e-05
-0.000821508
7.26292e-05
-0.000101795
-0.000624848
0.000506814
-2.78539e-06
-0.00052407
0.00026397
0.000260099
-6.16831e-07
2.15576e-06
3.15928e-05
-0.000950114
-0.000485419
0.000294024
0.0001914
4.59537e-06
-1.28556e-06
2.06234e-06
9.76336e-07
-3.03762e-06
-0.000177797
-0.000481922
0.000942924
-0.000702152
-0.000240767
-3.4562e-07
-1.25656e-06
1.60241e-06
-1.34435e-05
-7.58127e-06
-4.84302e-05
0.000100845
-1.24543e-05
7.15787e-06
5.29657e-06
0.000609275
-0.000423573
-0.000185701
8.43696e-07
7.22897e-07
-1.56602e-06
1.68396e-07
-6.26806e-07
4.5845e-07
-5.19854e-07
-6.56318e-07
1.1762e-06
8.84777e-06
1.21656e-06
0.000832909
-0.00142183
0.000588932
2.55595e-06
-6.6298e-06
4.07362e-06
1.07548e-06
-9.74656e-08
-9.78242e-07
5.77951e-07
-2.58704e-06
2.00929e-06
-8.72316e-05
3.41788e-06
-2.83241e-06
-5.85302e-07
-4.79324e-06
1.98745e-06
2.10737e-06
4.48574e-07
0.000297014
-0.000116294
-0.000180724
4.61462e-07
3.42731e-06
-3.88936e-06
-9.08126e-06
-3.37291e-06
-4.81304e-07
1.92964e-06
-1.4483e-06
-1.19258e-06
-1.55817e-06
2.75099e-06
-4.13287e-07
5.81721e-07
0.000855886
-4.40719e-05
-5.34071e-05
-0.000285476
-0.00026107
0.000546458
-0.000469489
9.70312e-05
-6.15245e-05
-7.82484e-05
-3.51649e-06
4.0428e-06
-1.06827e-07
-2.22643e-06
2.33256e-06
-0.000124321
1.33235e-06
-1.75854e-06
7.40024e-06
-4.84432e-06
0.000157364
-1.70577e-05
7.63644e-07
4.58394e-06
-5.34731e-06
-2.02914e-05
3.29561e-05
-1.26656e-05
8.28065e-06
-6.17548e-06
-2.10568e-06
0.000157841
-0.00194533
4.37626e-06
2.04954e-06
-6.42603e-06
-4.37273e-06
1.94807e-06
1.03559e-06
-1.5e-06
4.64625e-07
-9.56083e-08
-2.7341e-06
-4.85271e-05
0.000664572
-3.31696e-06
-3.83271e-06
7.17569e-07
1.86015e-06
3.54013e-06
-6.85688e-06
5.18198e-06
-3.54813e-06
-1.63342e-06
9.73951e-06
-2.76089e-05
-0.00178868
0.00150312
1.78029e-06
1.11264e-06
-0.000894964
0.000196144
0.000698737
-2.93412e-06
7.63849e-07
2.17028e-06
0.000144443
0.000152574
-1.84716e-05
2.78875e-05
0.000722665
-0.000116279
-0.000606399
9.01838e-07
-2.37628e-06
1.47454e-06
-2.28802e-06
-5.51329e-05
6.86239e-05
-1.34777e-05
1.07671e-06
-1.14666e-09
-0.00063349
-0.000535777
-0.000174572
-0.00010893
0.000283507
-1.05352e-06
-7.58464e-07
1.54109e-06
3.34784e-06
-3.35895e-07
-2.63778e-06
2.97347e-06
-0.000458035
-0.000493321
0.000951381
-0.000152823
-0.000332602
0.000416134
-0.000176103
-1.16637e-06
6.46826e-06
-5.30213e-06
-0.000556976
2.2744e-05
0.000534217
2.41887e-06
-1.51735e-06
0.000192737
6.13542e-05
-0.000254092
-0.000149474
-5.39597e-07
5.28637e-07
1.0867e-08
0.000331553
-0.00101494
0.00068337
-6.6955e-06
1.00667e-06
5.68858e-06
-3.50419e-06
3.96536e-06
2.425e-06
-2.55449e-06
1.29763e-07
-3.84942e-06
-1.17183e-06
5.02106e-06
2.553e-06
-1.27842e-07
0.00137423
-0.00103687
-0.000337357
-1.62281e-06
5.69366e-07
8.33462e-07
2.14487e-06
-2.97819e-06
-0.00117108
0.0010962
0.000182173
-0.000321505
0.000139362
-7.00551e-07
1.54448e-06
-0.00087877
-0.000694294
-1.93962e-06
1.45826e-06
-0.000361299
0.000340864
2.04413e-05
-1.48036e-05
7.34932e-06
7.4541e-06
4.12299e-06
-4.86974e-07
3.42607e-06
-7.92951e-07
-4.9414e-07
2.07545e-06
0.00139422
-0.00142635
3.21522e-05
1.5852e-06
-5.49534e-07
-2.71729e-06
7.48316e-05
-3.78322e-05
-3.70007e-05
-4.44639e-06
3.90124e-06
5.44739e-07
-0.000219482
0.000392726
-0.000173253
-0.000127645
8.61149e-05
1.15038e-06
1.26828e-06
-0.000143748
-7.64475e-06
0.000151405
-1.01053e-05
1.07436e-06
9.02823e-06
-7.80347e-05
3.77419e-05
4.02921e-05
1.2202e-06
5.65576e-07
-1.78499e-06
-2.61127e-06
9.10127e-07
1.70132e-06
-5.87274e-07
-1.38019e-06
-1.56361e-06
-2.95166e-07
-3.09825e-06
-6.23072e-06
9.32996e-06
-7.75398e-07
-1.41054e-06
4.96138e-06
-5.32373e-07
-4.42936e-06
-3.7247e-05
4.19734e-05
-4.9555e-06
5.71894e-06
-2.68615e-05
-0.000121442
9.93963e-05
-0.000674635
0.000575262
-5.03549e-06
3.96152e-06
-0.000121224
0.000118059
-0.000195399
0.000167299
2.80938e-05
0.000421239
-2.07039e-07
4.69971e-07
-2.62829e-07
-0.00126925
0.000438334
-0.00010068
4.55501e-05
2.85015e-06
-0.0003371
-0.000186001
-6.70539e-06
3.49047e-06
3.21495e-06
2.11901e-06
1.30741e-06
-0.000888089
0.000674202
0.00021389
2.77827e-07
3.03496e-06
-3.31305e-06
-3.29787e-07
-1.54625e-06
1.87643e-06
-0.000192888
0.000282532
-8.96427e-05
-2.71318e-05
-5.09029e-05
1.25136e-06
-1.00304e-06
-1.29882e-06
1.13165e-06
-2.68993e-06
5.08397e-07
8.42865e-06
-8.93702e-06
-1.3498e-06
-7.04263e-07
2.05449e-06
-3.54074e-06
1.05981e-06
2.48073e-06
-0.00040127
0.000280388
0.000362435
-0.000486295
0.000123867
1.70341e-06
2.28918e-06
-3.99136e-06
-2.05546e-06
-1.93452e-06
3.99004e-06
-0.000130875
3.72593e-07
-4.22226e-06
-2.60091e-06
-3.32905e-07
-1.00876e-06
-4.10806e-06
0.000329871
0.000444396
-0.000774269
-1.30639e-06
-1.57495e-06
2.8811e-06
1.08191e-06
3.98172e-07
-1.48008e-06
-0.000417881
0.00106843
0.000474976
0.000510447
-6.58376e-08
-2.4569e-06
-0.000147379
0.000329575
1.82817e-06
-2.15807e-06
-2.51397e-06
1.51116e-06
0.000199738
-0.000598511
0.000398772
-0.000746971
-0.000522294
0.000810701
-0.0023687
1.22967e-06
-5.31726e-07
-6.97917e-07
-1.51585e-06
-0.00177076
0.00201355
-0.000242811
-3.13713e-06
0.000478752
-0.00137372
-1.17055e-06
7.87467e-07
-1.59058e-06
8.03276e-07
4.84945e-07
-3.12271e-06
0.000241348
-0.000489025
0.000247678
4.82363e-07
2.03979e-06
-2.52235e-06
3.87772e-06
-4.12335e-05
3.73401e-05
4.8832e-07
4.44332e-08
-5.32752e-07
-0.00155933
0.00125133
0.000307986
0.000522195
-0.000316389
0.000485664
0.000908542
0.000327705
-0.000455683
0.000127982
1.55809e-06
7.16092e-07
0.000848696
-0.000518818
4.53873e-06
-1.16176e-06
-3.37705e-06
0.000170121
-7.48504e-05
4.98356e-05
-2.51051e-06
3.03729e-06
-5.26809e-07
-4.79155e-07
-6.04798e-08
-0.000485931
0.000266452
-2.23316e-05
3.4935e-05
-1.26043e-05
4.6954e-06
3.52823e-06
-5.8016e-06
7.12072e-06
4.38176e-07
7.38909e-07
-1.17671e-06
0.000105497
-0.000612322
0.000506825
1.72974e-06
-6.79594e-08
-1.66208e-06
-0.00023332
-0.000573754
0.000807038
-2.07427e-06
2.65197e-06
2.52699e-06
2.73799e-06
2.76581e-06
1.35729e-06
-0.000138353
3.7471e-05
0.000100883
2.16236e-07
2.28169e-06
-2.49694e-06
3.15473e-05
6.27514e-05
-9.42983e-05
5.05714e-05
-0.000278618
-0.000569231
0.000152649
0.000416591
1.99315e-06
-2.29701e-07
3.17966e-05
4.30369e-05
1.79773e-06
1.95177e-07
-9.16993e-06
-5.63386e-06
-0.00027594
0.000137598
-2.00915e-05
2.39652e-05
0.000135951
0.000747034
-0.000882981
2.26339e-06
-1.11312e-06
-2.40965e-05
0.000193497
-0.000744371
-0.000143713
-2.74963e-07
1.44092e-06
-1.16593e-06
-0.000581893
-9.07269e-05
0.000672638
-6.99941e-07
2.7624e-06
-0.000228445
-2.25655e-06
5.92834e-07
1.66378e-06
-0.000463747
2.23203e-06
3.21439e-07
8.52757e-06
-5.92102e-06
-0.000256632
3.87112e-05
0.000217935
4.79797e-05
-3.28487e-08
9.27097e-07
-8.94313e-07
-1.09846e-06
-4.31274e-07
1.53151e-06
-3.18621e-06
2.79033e-06
-3.05278e-06
-4.04892e-06
7.10138e-06
7.72645e-07
4.57085e-07
-4.09966e-06
2.64475e-07
3.83478e-06
-1.85594e-06
3.41074e-06
-1.5546e-06
4.88673e-06
-2.85854e-06
-2.02863e-06
0.000492794
-0.000130346
2.24065e-06
-1.36908e-06
-8.71375e-07
0.000104177
-4.93798e-07
1.45814e-08
9.24862e-07
-1.19985e-06
-0.000505538
0.000458051
4.74757e-05
-0.000429544
0.000755051
0.000212506
0.000396769
1.09892e-06
1.14198e-06
-0.000258717
-0.000353601
1.75362e-06
-1.02827e-06
-1.08473e-07
2.09745e-07
1.40498e-06
-9.66775e-07
4.94982e-06
-9.6528e-06
4.70331e-06
-0.000879664
0.00202167
0.000293582
-0.000187195
-0.000106405
2.45674e-06
-7.88589e-07
-1.6684e-06
7.94794e-07
3.76755e-08
1.14441e-05
-3.37765e-05
-2.92548e-06
8.71598e-07
2.05361e-06
6.9642e-06
2.14752e-06
-9.1112e-06
1.84337e-06
0.000137609
-0.000139458
-2.40393e-06
1.9462e-06
4.57389e-07
-1.33113e-07
-1.95965e-06
2.09251e-06
-9.51913e-07
-1.97378e-06
-2.96773e-07
-1.37349e-05
6.9557e-06
6.77917e-06
-1.37779e-06
-2.01933e-07
-0.000531763
-1.34626e-06
1.54255e-06
4.79103e-07
-2.52334e-06
1.90473e-05
2.14102e-06
2.74594e-06
-4.88675e-06
-0.000335575
0.000324519
1.10569e-05
-0.000121711
-0.00104445
0.00116592
-3.91903e-06
-4.02287e-07
4.32118e-06
2.05824e-06
-1.02295e-06
-3.74363e-07
2.66154e-07
-1.03247e-05
1.34185e-05
1.3467e-06
-1.14338e-06
-2.0334e-07
-3.0146e-05
1.7308e-05
1.28385e-05
-1.14875e-06
-1.39005e-06
2.22354e-06
0.000221686
-0.000111304
-0.000307829
-0.000352854
0.000660725
2.34283e-06
-2.72525e-06
3.82379e-07
1.49569e-06
-7.73502e-07
-1.18667e-06
-1.80094e-06
2.98821e-06
9.95878e-09
-8.12299e-07
-6.38565e-06
-7.1486e-05
-0.000434054
-0.000366087
-3.11181e-05
0.00039718
-0.00089159
0.000556676
0.000334909
6.43844e-06
-7.61902e-06
1.18009e-06
8.61519e-05
0.000192936
-0.000279054
2.85069e-06
-8.66635e-07
-1.98503e-06
-3.88925e-05
7.94905e-06
3.09437e-05
-5.9325e-06
-2.37939e-06
8.31374e-06
0.000183159
-9.98625e-05
-8.32975e-05
-4.83929e-06
1.41336e-05
-9.29504e-06
-0.000120999
5.9477e-05
-4.18024e-07
1.05359e-06
-6.17355e-07
1.57974e-05
-0.00035137
-8.7464e-07
-6.81219e-07
1.556e-06
-1.39882e-06
2.32519e-06
-9.267e-07
0.000645583
-0.000404232
2.23374e-06
2.65279e-06
-0.000382897
0.000453946
-7.1044e-05
-4.68188e-08
5.00819e-06
9.33486e-07
-6.58432e-07
-2.74979e-07
-2.77378e-06
-1.42511e-07
2.37471e-06
-0.000113536
-0.000162418
-0.00120184
0.000715758
2.13217e-06
3.09649e-05
-3.30965e-05
-2.15983e-06
1.14929e-06
1.01082e-06
-2.7501e-06
4.89107e-06
-2.67641e-06
9.99674e-07
1.67697e-06
3.65226e-05
-1.15528e-05
-2.49698e-05
0.000676004
0.000513472
3.49913e-06
2.04053e-06
-0.00104592
0.00172057
-0.000674651
-1.9744e-06
8.36603e-08
2.68565e-07
1.35084e-06
-1.61933e-06
-7.82581e-06
-1.44312e-06
1.21247e-06
2.20541e-06
7.75576e-07
1.93594e-08
7.79225e-07
-5.64017e-06
-1.73626e-06
2.21876e-06
0.000389526
-0.000510922
0.000596763
-0.00057662
-2.00852e-05
-7.9193e-05
-1.43583e-06
8.06292e-05
-2.99467e-06
-4.59595e-07
-1.19658e-06
-1.0929e-06
2.28932e-06
-9.18441e-07
1.00699e-06
-8.83584e-08
-0.000120065
9.7462e-05
2.26019e-05
2.61351e-06
-2.39804e-06
-0.000280768
-8.05303e-05
8.73686e-06
-8.22851e-06
-4.29185e-06
-2.41339e-06
-8.97204e-06
-1.34816e-06
-7.22355e-05
-6.95683e-06
0.000238468
-0.000107274
7.56516e-07
-9.99203e-07
2.42504e-07
-0.000534434
0.00039083
0.000143602
-9.03771e-07
1.09305e-06
-1.90103e-07
0.00070982
0.000146069
-4.29445e-06
-2.72703e-06
0.000108193
0.000326005
-0.00043411
-4.51183e-06
5.29225e-06
0.00170863
8.22858e-06
-1.13267e-05
2.65933e-06
-1.2514e-06
-1.40773e-06
-1.61377e-05
2.69475e-06
-4.40511e-06
-5.65688e-06
-2.07489e-06
1.01326e-07
1.97338e-06
-0.000290429
0.00022645
-0.000220313
2.32618e-05
-1.88206e-05
-3.90984e-07
4.12901e-06
-8.66216e-07
-3.26345e-06
7.95167e-07
-1.97037e-08
-0.00066697
0.000481255
-3.46747e-06
3.79465e-07
3.0877e-06
-8.98929e-07
-9.64652e-08
9.95591e-07
-0.000552679
3.72086e-06
-4.96354e-06
1.24278e-06
-0.000462672
-0.00176394
0.000170218
9.45421e-07
-1.88876e-07
0.00169628
8.03385e-07
-1.90126e-06
8.26414e-07
-1.50052e-07
-6.77181e-07
0.00156272
-0.00101868
-0.000544068
-3.5366e-05
-8.46984e-05
-3.56455e-07
-1.37339e-07
-0.000252125
0.000276963
-2.4839e-05
1.08142e-06
-3.10268e-06
-3.5789e-05
-0.00180554
0.00075962
-7.83569e-05
0.00075256
-0.000254297
0.000311302
-5.69908e-05
0.000431242
2.68089e-05
0.000135796
-8.22254e-05
-5.54842e-05
-2.95272e-05
-1.26065e-05
-0.000239516
-1.67604e-06
-1.14192e-05
-4.71926e-06
9.57893e-05
-5.27731e-05
1.51216e-05
3.76563e-05
-7.23624e-06
5.40396e-07
-2.47632e-05
2.68961e-05
-3.49499e-05
-0.000354787
0.000163033
0.000191751
-0.000607178
0.000870402
-0.000263219
-0.00144974
0.000533046
-0.000108663
-3.59394e-05
0.00014466
2.11763e-06
2.25162e-07
2.18707e-06
-6.44426e-07
-4.13546e-05
2.28839e-05
7.36063e-07
8.2774e-07
-1.56382e-06
-0.000650493
0.000387123
-1.66628e-05
-1.34838e-05
-8.11e-07
2.89319e-06
-2.08264e-06
-0.000622486
-0.000293062
0.000915555
6.13014e-05
-2.16504e-05
5.67828e-06
4.38475e-06
6.7635e-07
4.64817e-08
6.5927e-07
2.00016e-06
-1.16749e-06
-6.89543e-07
-0.000452443
0.000519681
-6.72601e-05
-5.76798e-06
4.60138e-06
7.69994e-07
-3.6868e-07
-4.01456e-07
-1.1598e-05
-0.000389673
-7.46935e-07
-5.29612e-07
-1.12369e-05
1.1765e-05
-3.18157e-05
0.000440474
-0.000898493
-8.23721e-07
-2.71693e-06
0.000318197
-0.000209961
8.18651e-07
3.71984e-06
-6.73939e-07
-3.41106e-07
9.05349e-07
3.22323e-06
-0.000518437
0.000210662
2.32744e-05
1.32481e-05
3.70318e-07
3.9973e-07
8.16169e-07
1.03224e-08
-9.26442e-07
8.06858e-09
-5.59363e-05
2.392e-05
2.23258e-06
-1.47369e-06
-7.587e-07
-0.000502339
0.00040532
9.7012e-05
-8.73262e-05
0.0001248
-0.000511521
0.000392129
0.000119408
0.000994367
-0.000850335
7.77413e-06
-0.00012509
0.00021125
-0.000767421
0.000291261
0.000476158
-3.12783e-07
-1.18877e-06
1.50203e-06
1.51281e-06
-3.24555e-06
1.73323e-06
-1.77158e-06
1.77784e-06
-7.47925e-09
2.21995e-06
9.79846e-07
-3.19963e-06
0.000102718
-0.000605056
-1.27073e-06
-7.60173e-07
-4.8825e-07
1.24807e-06
-3.78961e-06
-6.04348e-07
4.39403e-06
-1.36731e-05
-2.76824e-05
-4.19476e-07
2.80471e-06
-2.38529e-06
8.42506e-05
-0.00046714
0.000394498
-0.000542876
0.00014837
-4.17195e-06
-3.20613e-06
7.37751e-06
-1.34176e-07
6.57353e-06
-1.71251e-06
1.29664e-06
4.15224e-07
-9.8864e-07
-7.67968e-07
1.75663e-06
0.00157234
-0.000689262
-0.000883061
3.59258e-08
-3.92356e-07
1.02891e-06
-4.58605e-06
3.55691e-06
-4.97618e-06
1.22364e-05
8.48872e-07
1.38385e-06
-3.23762e-06
2.28544e-06
-3.69488e-07
4.34278e-07
-6.44968e-08
0.000157053
0.00139746
-0.00155451
0.000360939
-0.000805171
0.000444174
-2.84269e-06
2.55899e-07
4.64186e-06
-1.02655e-06
-0.00011513
-0.000242309
0.000496976
1.06669e-06
-1.6621e-06
-9.65945e-08
1.75847e-06
8.44765e-07
1.76072e-07
9.21936e-06
-0.000419163
-9.23061e-05
0.000473408
0.000103024
-5.2837e-05
7.86953e-05
-2.58563e-05
-0.000511342
-2.3092e-05
-3.16343e-06
1.08842e-06
2.07526e-06
-1.42422e-05
9.74004e-07
1.32672e-05
-1.93576e-06
-2.93091e-07
2.22894e-06
-1.56697e-05
2.13426e-05
-6.15064e-06
0.000393589
0.00117876
0.00022467
0.000497978
-3.01214e-06
2.00829e-06
1.00453e-06
0.000178429
-0.00016614
-1.22905e-05
-2.84697e-06
3.64647e-06
-7.99323e-07
4.41294e-06
7.69217e-07
4.51163e-06
4.33542e-06
-1.33492e-06
1.60353e-06
-1.48015e-07
-8.55534e-07
1.00342e-06
-1.47712e-05
3.91828e-05
-2.23653e-06
-3.69441e-05
-1.64481e-08
-1.34519e-06
1.36168e-06
-5.83353e-05
1.81562e-05
4.01815e-05
-8.90845e-05
-4.85994e-05
-0.000440573
-0.000546065
-3.58135e-05
-0.000108629
-1.74378e-05
0.000126065
1.8997e-06
-1.08337e-06
-2.93486e-06
1.17561e-06
1.75927e-06
1.1289e-06
-3.00238e-06
3.37136e-07
3.02409e-07
-6.39717e-07
0.000377878
1.27831e-05
-0.000390566
2.82381e-05
5.45051e-05
2.89302e-06
-6.36042e-06
3.46759e-06
2.47991e-06
-1.24746e-07
0.000202874
-0.000642238
-3.97772e-07
5.34295e-07
-1.3653e-07
0.000551729
-1.59001e-05
-0.000535774
4.06491e-08
-4.09795e-07
-4.62724e-07
-1.24998e-06
-0.000152073
-0.000303603
-6.27803e-07
-7.50354e-07
1.37818e-06
-1.75187e-05
2.67132e-05
-9.19436e-06
-0.000202318
0.000311491
-2.44551e-06
3.33588e-06
-8.90489e-07
-1.95493e-06
2.41479e-07
1.71314e-06
-4.30163e-07
-1.79354e-06
4.81306e-06
-7.31608e-06
2.50335e-06
-0.000195678
0.000197519
-0.000281567
-2.01337e-05
0.000277946
-0.000347512
6.95345e-05
1.61373e-06
1.24711e-06
-2.86078e-06
-4.96158e-06
9.26489e-07
1.27109e-07
0.000886254
-0.00111959
-1.37468e-06
-0.000175194
0.000176565
7.29355e-07
-3.23984e-06
-5.85084e-06
8.56564e-06
-2.71464e-06
2.83644e-06
-2.35163e-06
4.34738e-06
0.000124595
-0.000101499
-2.30944e-05
-9.38819e-07
3.17249e-06
-0.000277048
1.33879e-06
-1.14453e-05
6.20134e-07
-9.14399e-08
0.000359076
8.1125e-06
-8.30581e-06
7.79974e-05
-6.97002e-05
-1.95258e-06
6.27538e-07
1.32504e-06
-1.32667e-05
-5.26701e-07
1.28821e-07
-2.12263e-06
-0.00101867
-0.000152407
-0.000242293
-0.000356266
7.74143e-07
5.68277e-06
0.00153125
-0.00132405
-0.000207195
-1.60223e-08
-1.64602e-06
-0.000345468
0.00117731
-0.000831634
-4.02589e-07
4.70116e-07
1.08862e-07
-5.78822e-07
-2.68851e-06
5.98663e-07
-1.10307e-07
6.63161e-06
-5.625e-06
1.09798e-06
-1.78561e-07
-9.19814e-07
-1.0636e-05
2.66509e-06
-3.60412e-06
-0.00157363
0.000874589
-0.00149596
0.000305502
1.70209e-05
0.000166138
-3.2293e-06
2.24082e-06
9.89008e-07
0.000475442
-7.57177e-05
2.28814e-05
8.33655e-05
-1.09364e-06
-8.2272e-05
-1.52066e-06
4.02797e-06
-2.32418e-06
0.000695969
-0.00159232
0.000896347
-1.85475e-06
-1.66976e-06
4.57827e-08
1.62371e-06
-3.43846e-05
-7.14101e-05
0.000213773
-0.000142356
-2.48828e-06
1.80454e-06
6.83839e-07
5.54538e-06
1.54174e-06
-7.08676e-06
-1.2018e-06
-2.02728e-06
-3.04657e-05
3.70563e-05
-6.5908e-06
-0.000663299
0.000200501
0.000462807
2.34636e-07
2.28798e-06
-2.52213e-06
-5.14286e-07
-8.05239e-07
1.31958e-06
2.17262e-06
-8.94353e-07
-1.27809e-06
-8.13217e-05
-5.62706e-07
-4.8579e-07
1.04859e-06
-2.66662e-06
8.0075e-07
1.86566e-06
-2.27248e-06
-3.94153e-07
0.000308047
4.37433e-05
-0.00035182
9.46636e-07
7.55814e-07
-1.70255e-06
-6.85955e-07
-9.60683e-07
1.64673e-06
9.8693e-07
1.10841e-07
7.78268e-05
-5.23499e-05
-2.5477e-05
8.22451e-06
-3.52116e-06
-1.00522e-06
2.33788e-06
-0.00180445
0.00145898
8.66671e-07
1.42066e-06
-2.28697e-06
0.000765022
-0.000629074
2.29885e-06
-3.96173e-06
1.66286e-06
-2.59354e-06
1.61809e-06
9.75498e-07
0.000823291
-0.000113469
0.000538558
-0.000326046
-3.17774e-05
-2.65574e-05
-0.000531091
-2.00871e-05
0.000551183
1.04024e-07
-2.85464e-06
-0.000542485
0.00109418
1.50375e-06
-1.46944e-06
-3.41599e-08
-0.00152668
-0.000237247
1.35328e-06
-1.25918e-05
6.6669e-07
-1.70893e-06
1.04276e-06
-1.39259e-06
3.69154e-06
0.000578258
-0.000327032
-0.000251244
0.00118735
-0.000491377
-7.39259e-05
-0.000178096
1.71829e-06
-3.1619e-06
1.44392e-06
-0.000573015
0.000412112
0.000160876
5.58149e-06
-3.23587e-06
-2.34588e-06
-2.10942e-05
-1.4544e-06
2.25477e-05
-7.08205e-05
-0.000551672
-2.32573e-07
-9.0187e-07
1.24818e-06