/*--------------------------------*- C++ -*----------------------------------*\
| =========                 |                                                 |
| \\      /  F ield         | OpenFOAM: The Open Source CFD Toolbox           |
|  \\    /   O peration     | Version:  v2012                                 |
|   \\  /    A nd           | Website:  www.openfoam.com                      |
|    \\/     M anipulation  |                                                 |
\*---------------------------------------------------------------------------*/
FoamFile
{
    version     2.0;
    format      ascii;
    class       volVectorField;
    location    "400";
    object      ddt0(U);
}
// * * * * * * * * * * * * * * * * * * * * * * * * * * * * * * * * * * * * * //

dimensions      [0 1 -2 0 0 0 0];


internalField   nonuniform List<vector> 
18618
(
(0.0345522 0.00397033 -5.0597e-21)
(0.0731851 -0.127541 -1.87119e-20)
(0.000102544 -5.38232e-06 0)
(-0.0580762 -0.425825 5.33163e-20)
(9.78821e-05 0.00018606 5.00143e-21)
(-0.000404095 0.0387436 -3.70487e-21)
(0.00248427 -0.00507557 1.74339e-20)
(0.0517004 -0.0921757 1.48858e-20)
(-0.00304383 -0.00150807 3.09831e-22)
(0.000179062 -8.08946e-05 -7.08465e-22)
(0.00178403 1.67857e-05 1.0956e-22)
(9.93533e-05 -1.71015e-05 2.3993e-23)
(-0.0326559 -0.341969 0)
(-0.000401007 0.000848033 -2.20492e-22)
(9.85105e-05 0.000196373 -4.12814e-21)
(7.05421e-05 1.35411e-05 2.72284e-22)
(-5.48265e-06 -9.62045e-05 0)
(-0.159517 -0.344832 -1.68026e-20)
(2.89122e-05 -1.90947e-05 0)
(0.00282348 -0.00234282 4.64483e-22)
(-0.000108009 0.0290702 7.58382e-22)
(0.000117004 0.000247454 -4.90938e-23)
(7.06037e-05 1.82411e-05 -2.73293e-22)
(-0.0089376 0.021315 2.01658e-21)
(0.000253637 3.55156e-06 3.70286e-21)
(0.0302166 -0.0121852 -5.05329e-21)
(0.030462 -0.0026623 1.19291e-20)
(3.57585e-05 3.63072e-05 -5.66029e-22)
(6.90018e-05 1.36847e-05 6.92338e-23)
(0.000142349 0.000177198 4.90092e-22)
(0.000247246 -3.35521e-05 0)
(-0.00133388 -0.00178262 0)
(0.000336188 -2.72838e-05 0)
(-0.0526969 0.00143824 0)
(0.0310765 0.0645648 0)
(0.000279277 0.000219244 1.26276e-21)
(0.000283246 -5.53432e-05 -3.55408e-21)
(0.030576 0.052248 0)
(0.000341049 -0.00300431 -8.68737e-21)
(0.00014637 0.000194141 -5.0447e-22)
(0.134584 0.00574824 -2.42673e-21)
(0.0258635 0.00301983 -5.68866e-21)
(7.93617e-05 -0.000117577 3.91917e-22)
(-0.0447611 -0.163962 -3.62438e-20)
(-0.00263521 -0.00389263 -1.66716e-22)
(0.00065504 -0.000690566 3.14308e-21)
(0.0244273 -0.101015 -3.55949e-20)
(5.12561e-05 4.91587e-05 0)
(0.00495149 0.0281025 0)
(0.0493336 0.280928 -1.07362e-19)
(2.91818e-05 1.8208e-05 -4.18263e-21)
(-0.000110638 0.000176997 -3.78538e-21)
(-0.00894167 -0.140588 9.77432e-21)
(0.120535 0.0245381 4.17673e-20)
(5.96812e-05 -9.16581e-06 6.44085e-22)
(-0.0921389 -0.549083 0)
(-0.000652821 0.000422384 1.04734e-22)
(0.00328268 -0.000888332 -1.58938e-21)
(-0.0487355 0.00883455 0)
(0.00183048 -0.00272918 0)
(9.80754e-05 0.000177369 -3.15715e-22)
(4.25147e-05 1.21118e-05 6.33489e-22)
(0.00234614 -0.00437261 0)
(0.000273079 9.15217e-05 0)
(-0.0511788 0.039763 -2.41062e-21)
(-0.113044 0.109524 1.39906e-20)
(8.03895e-05 -1.27336e-05 -1.14935e-22)
(0.00290056 0.000227331 1.21889e-21)
(9.10568e-06 -4.75884e-06 9.77034e-25)
(0.0522126 0.0871035 1.29454e-20)
(0.0014206 0.00354769 -1.51373e-21)
(-0.00582564 0.0223248 2.28657e-21)
(0.015935 0.0100679 -2.80556e-21)
(-0.0598494 -0.0862846 -9.2647e-21)
(0.000290287 1.8185e-05 1.16226e-22)
(0.00221841 -0.00259211 1.30402e-22)
(0.0657996 -0.0231877 2.03866e-21)
(0.0866716 0.366859 7.30715e-20)
(1.03156e-05 8.06424e-06 0)
(0.0266247 -0.180338 -6.8315e-22)
(-0.098621 -0.13749 -1.99801e-22)
(-0.173471 -0.39085 -1.04904e-19)
(-0.07698 -0.0744291 0)
(0.000196665 -2.99465e-05 1.00286e-21)
(0.000338451 6.95229e-05 0)
(8.33332e-05 -0.000117712 -1.87034e-22)
(-0.0135808 0.0197546 -1.63505e-22)
(0.000168454 -5.97349e-05 -1.00804e-21)
(0.0110047 0.00298717 -1.13347e-20)
(-0.172025 -0.356815 0)
(0.0132784 0.0122594 6.87073e-21)
(0.029304 0.0349513 0)
(-0.0275709 -0.170934 -3.42414e-21)
(0.0640629 -0.037754 6.00958e-21)
(0.038261 -0.018012 4.43644e-20)
(0.00296801 -0.00439136 2.80781e-21)
(0.000288382 -6.92794e-05 0)
(0.0363481 0.13539 -4.0732e-22)
(-0.000321115 0.000788982 3.10632e-22)
(9.85799e-05 -5.43213e-06 -1.07016e-22)
(0.0417472 -0.00729692 -4.36679e-20)
(0.00021469 0.000185678 -1.14485e-21)
(0.061419 0.00802992 0)
(-0.00160047 -0.00233914 -1.48041e-21)
(0.000230422 1.01135e-05 9.80815e-23)
(0.346688 0.0404837 1.92499e-20)
(5.33584e-05 -1.14234e-05 -9.75482e-22)
(7.55371e-05 1.10243e-05 -4.19097e-23)
(-0.0601212 0.0736361 0)
(6.21315e-05 -2.49734e-05 -8.40821e-23)
(0.0978068 0.128828 8.22422e-21)
(0.000110368 8.45099e-05 0)
(0.000491643 -0.000340481 1.73233e-21)
(8.45815e-05 -2.46798e-05 0)
(0.000134022 4.99816e-05 1.89397e-21)
(9.70414e-05 -1.54753e-05 1.01873e-22)
(7.50927e-05 -1.04537e-05 1.2635e-22)
(0.150318 0.0784504 0)
(0.000244979 1.54225e-05 -2.57989e-21)
(0.0537734 0.0270701 7.58772e-21)
(0.0134435 0.124072 3.03722e-21)
(0.000440431 -0.000209626 0)
(-0.0903998 -0.523026 7.74405e-21)
(-0.199713 -0.393018 1.49412e-19)
(0.0392135 -0.000333394 -6.73493e-21)
(0.00890358 0.0338926 -1.04626e-20)
(0.118805 0.0368027 2.484e-20)
(-0.162456 -0.206308 -2.53463e-21)
(0.00224845 0.00159581 2.19431e-21)
(0.0118166 -0.00110706 -3.61766e-21)
(0.0259696 -0.00862974 4.7054e-20)
(0.000101629 9.32205e-05 0)
(-0.181693 -0.363934 -6.49678e-20)
(0.0469139 0.0124908 -2.5156e-20)
(0.000125808 4.9077e-05 -6.112e-21)
(4.3004e-05 7.69747e-05 1.43117e-22)
(0.000106627 8.9949e-06 3.38591e-21)
(0.000195133 -0.000200443 1.81957e-21)
(0.171775 -0.112225 2.61559e-20)
(4.58807e-05 1.16794e-06 0)
(0.000244494 -6.70058e-06 0)
(5.42684e-05 2.97778e-06 0)
(4.15348e-05 1.33853e-05 6.50877e-22)
(0.000285626 -4.33854e-05 -3.6078e-21)
(8.43935e-05 -4.96757e-05 2.18999e-22)
(0.0229331 -0.00585869 0)
(0.000267769 -7.73032e-05 0)
(2.48806e-05 2.60132e-06 4.19917e-22)
(0.237264 0.124335 -1.24301e-20)
(0.00509915 0.00143401 0)
(-0.00059018 0.000212865 -1.0513e-22)
(0.127957 -0.0728979 -1.74958e-19)
(0.203902 -0.0871637 -1.58282e-19)
(6.95135e-05 1.04992e-05 -1.36954e-22)
(9.57471e-05 1.94205e-05 -9.65469e-22)
(-0.00845715 0.0425405 1.1556e-22)
(0.182062 0.0961556 -1.88833e-21)
(-0.0953817 0.108366 1.72395e-21)
(-0.0250426 0.0170495 1.42214e-22)
(3.73245e-05 -6.15484e-05 0)
(7.6964e-05 8.76832e-06 0)
(0.0449368 0.149724 3.07492e-22)
(0.000208738 -0.000181346 0)
(0.0571843 0.0260816 2.60171e-20)
(3.68225e-05 8.35468e-05 -8.69816e-23)
(0.0121685 0.0906348 7.43577e-21)
(9.50166e-05 1.62861e-05 4.96282e-22)
(5.22569e-05 2.26712e-07 1.84505e-22)
(-0.100929 -0.144476 -1.73576e-20)
(0.000424489 -0.000367622 0)
(0.000261583 -7.63136e-06 0)
(5.80683e-05 -8.34142e-05 0)
(0.0242355 0.00715322 -6.84897e-20)
(0.00984369 0.00344177 -5.08586e-21)
(-0.117421 0.0715591 0)
(0.00497411 0.0022935 2.44319e-21)
(0.0278225 0.00296342 0)
(-0.160459 -0.193017 3.29148e-20)
(6.09884e-05 -7.63891e-05 0)
(8.45029e-06 1.55145e-05 9.77232e-25)
(0.010517 -0.00614355 -1.83823e-23)
(0.0221333 -0.0248689 0)
(0.000242187 0.000247989 -7.0632e-21)
(0.000133756 0.000204176 1.08305e-22)
(0.121156 0.0416866 -3.34643e-20)
(5.46339e-05 1.32382e-05 1.08409e-22)
(0.00207165 -0.00109751 -2.55207e-21)
(0.0100193 0.000289555 -1.18129e-21)
(0.0299193 0.00462353 0)
(0.000666269 0.0416576 0)
(-4.25368e-05 0.000600054 -3.19144e-21)
(0.0164732 -0.0122517 -3.51903e-21)
(-0.101873 0.102118 -3.08136e-21)
(4.76673e-05 3.43743e-06 2.7664e-22)
(-0.0751049 0.0195143 -1.38348e-20)
(6.99488e-05 0.0143894 -9.75432e-22)
(0.0147769 -0.0086777 1.65853e-21)
(-0.0283805 -0.0535528 -1.24199e-20)
(0.000183178 -2.75133e-05 0)
(-0.0692079 -0.299351 1.25384e-20)
(0.0393959 0.0640207 0)
(0.0766186 -0.136032 2.10837e-20)
(0.000618153 -0.00336033 -5.43551e-22)
(0.00075998 -7.93618e-05 0)
(-0.104241 -0.151475 -1.95938e-20)
(-0.193823 -0.0818302 -1.35305e-19)
(-0.0673437 -0.239577 1.29174e-21)
(0.09198 -0.0635038 8.87735e-20)
(0.000543161 -0.000195189 0)
(0.00721613 -0.0810961 -7.81793e-20)
(0.0546073 0.0116309 0)
(6.66021e-05 1.43466e-05 8.31744e-22)
(0.194694 0.10471 3.87526e-20)
(0.157309 0.0592724 -5.10682e-21)
(0.000139664 8.69268e-05 0)
(0.000218227 0.000202772 -4.92343e-21)
(0.0055072 0.0174223 3.1974e-21)
(-0.101203 -0.14326 0)
(0.000447968 -0.000430782 1.55525e-22)
(0.132275 -0.117432 1.17973e-20)
(0.000458885 0.000261853 0)
(4.61482e-05 0.0011371 8.25003e-22)
(4.89455e-05 1.31176e-05 -1.16438e-22)
(0.0271677 -0.0725214 2.21286e-21)
(0.00104494 -0.01178 -8.68448e-21)
(-0.00360339 -0.00667944 1.44866e-20)
(0.000382254 6.05103e-05 0)
(3.99713e-05 9.19729e-05 -1.08702e-23)
(0.0256668 0.0702345 -1.05517e-20)
(-0.0173034 0.026355 -2.49585e-21)
(0.0167654 -0.00969198 0)
(0.0567204 0.00560247 -1.05975e-20)
(0.00024966 -7.15828e-06 0)
(0.00450237 0.00190865 -1.34131e-21)
(0.000257568 -9.21481e-05 0)
(0.0153845 -0.0160994 -4.39069e-21)
(0.00133621 -0.0018501 -5.37591e-21)
(-0.00336661 0.00415863 -2.1543e-21)
(0.000165392 0.000325463 -4.35354e-21)
(0.0297487 -0.0119135 -6.9196e-21)
(0.00557773 -0.00568078 1.99961e-21)
(-0.00095391 -0.00111321 3.63901e-21)
(0.000249544 -0.000293932 0)
(0.00971996 0.00201039 0)
(0.0428042 0.00552493 6.1751e-21)
(-0.000100457 0.000190078 5.14079e-21)
(-0.0103786 0.0163521 1.15865e-21)
(-0.0183961 -0.142905 -5.27594e-20)
(7.84699e-05 2.64596e-06 0)
(0.00117504 0.00107325 -3.68412e-21)
(-0.00241115 -0.135218 -7.21727e-21)
(0.00879174 0.032572 6.18985e-22)
(0.000302056 0.000341703 0)
(-0.225595 -0.0150021 0)
(0.000459861 0.00029028 -2.92626e-21)
(6.84729e-05 4.17999e-06 0)
(0.000571406 -0.000217327 -1.67939e-21)
(-0.022131 0.0140436 0)
(-2.24357e-05 -0.000130166 1.56527e-23)
(0.0087719 0.0153975 -1.3804e-22)
(0.0165803 -0.0647471 1.88843e-20)
(0.000491825 3.65504e-05 3.7129e-21)
(0.0582779 0.0258755 0)
(0.301155 0.233926 0)
(0.0117035 0.0267934 2.91746e-21)
(0.000402049 0.000120132 0)
(0.00484792 0.00310833 3.89532e-21)
(0.00470123 0.0225188 0)
(0.000397111 -0.000416944 7.23395e-21)
(0.00130876 0.00396038 0)
(0.00281541 0.00449836 0)
(4.10971e-05 -7.87491e-05 -1.05261e-24)
(0.00010195 0.000189936 0)
(4.42939e-05 4.56523e-05 5.02945e-22)
(4.53466e-05 3.47421e-05 0)
(-0.0403726 -0.0136428 2.71206e-20)
(0.00369847 0.00176487 2.17276e-22)
(4.78077e-05 3.58038e-05 1.33764e-22)
(-0.110413 -0.159127 1.07421e-20)
(0.000137799 0.000166475 4.32162e-22)
(-0.00010733 0.000128763 7.71199e-22)
(4.24372e-05 -7.59794e-05 9.99999e-23)
(-0.205025 -0.101706 -3.43158e-22)
(-0.0689199 -0.145907 0)
(-0.00200557 -0.00756934 -1.86318e-20)
(0.0190678 0.159367 6.62697e-20)
(0.00139369 -0.00157066 -5.8398e-22)
(0.0222784 -0.017535 0)
(8.34284e-05 0.000171532 -2.30081e-23)
(0.0316322 -0.0732449 0)
(6.04675e-05 0.000125559 -4.19689e-22)
(-5.24039e-05 -0.00299967 1.20647e-20)
(0.000231452 -7.44716e-06 0)
(0.00161401 -0.00133903 1.17664e-21)
(0.205356 0.0186418 2.26481e-22)
(6.35941e-05 1.26936e-05 8.37138e-23)
(-6.81673e-06 -9.77687e-05 1.24686e-21)
(0.000453714 -0.00024295 9.55221e-22)
(-0.0382763 -0.0613635 -1.94341e-20)
(0.185124 -0.185495 5.89783e-20)
(0.0540593 0.112686 -1.31386e-20)
(-0.16907 0.205298 5.70518e-21)
(0.295977 0.25208 0)
(0.0380859 -0.0162579 -2.95869e-21)
(-0.0238375 0.0398802 2.57327e-21)
(-0.0880022 -0.303904 1.19025e-20)
(-0.00325928 0.115868 5.03725e-20)
(-0.000316547 0.000262887 -2.5362e-23)
(0.000443158 -0.000166296 -9.97762e-22)
(0.00723639 -0.0028817 3.39311e-21)
(0.000100233 2.74621e-05 0)
(0.000230786 -3.09122e-06 8.20878e-22)
(0.000176274 0.000120316 1.0395e-21)
(0.000135819 0.000159732 -4.49873e-22)
(0.0021576 -0.00330069 5.42741e-20)
(0.00226418 0.109698 -4.56963e-20)
(-0.0311652 -0.204854 1.2162e-19)
(-0.00113472 0.0320993 2.99903e-21)
(0.000339739 5.97961e-05 -2.65078e-21)
(8.90337e-05 1.83146e-05 0)
(0.000166468 3.09637e-06 0)
(-0.066242 0.0839274 1.08588e-20)
(0.00841364 0.00209745 -1.98082e-21)
(-0.00696629 0.0804951 6.8697e-21)
(0.000384252 0.000129558 -1.33218e-21)
(0.000480254 0.0140334 1.33325e-21)
(-0.0436346 -0.198822 0)
(4.196e-05 1.19255e-05 0)
(0.0272057 -0.00124232 8.25271e-21)
(0.00104158 0.000594624 0)
(5.25945e-05 -1.55755e-05 1.25067e-21)
(9.80475e-05 -9.54379e-06 0)
(0.0100693 -0.0152706 0)
(8.02893e-05 -7.16074e-05 0)
(-0.000949236 -0.00494692 4.63519e-22)
(0.000174957 0.000327227 -8.5139e-22)
(0.0350403 0.0618381 0)
(-0.00281124 0.00198668 1.92039e-21)
(-0.125807 -0.310401 3.44425e-20)
(-0.141419 -0.421049 -3.91513e-20)
(-6.87361e-06 -2.40068e-05 -4.66462e-22)
(-0.120148 -0.166318 -8.21367e-21)
(-0.00174401 -0.00452339 0)
(6.72661e-05 1.84292e-05 0)
(4.71906e-06 -6.20322e-06 0)
(0.000216286 -1.02178e-06 -5.82233e-22)
(0.000653099 0.00906096 -4.53955e-22)
(9.07422e-05 -4.23338e-06 0)
(0.0508073 0.179449 -4.07094e-22)
(0.000627553 -0.000164566 0)
(-0.03447 -0.0482237 -1.20981e-20)
(-0.0313277 0.0209226 1.74235e-21)
(-2.62527e-05 -0.000332031 0)
(0.000225137 -2.06494e-05 -9.04398e-22)
(-0.127704 0.0550102 4.92222e-21)
(0.0483676 0.0152171 -2.17119e-20)
(6.73826e-05 6.80576e-06 -8.94515e-23)
(0.0720972 -0.0578229 1.55925e-20)
(3.80161e-05 -7.30251e-05 0)
(-0.0109499 0.0173183 1.48761e-22)
(-0.0133863 0.0812062 2.62549e-21)
(0.225228 -0.0956608 2.07861e-20)
(0.0321898 -0.0177914 8.70014e-21)
(-0.00122604 0.0187759 2.23991e-21)
(0.244864 -0.0638318 0)
(-0.0214625 -0.177704 -4.28779e-20)
(0.000873786 0.000583645 0)
(0.00194498 -0.000695241 1.40745e-21)
(-0.012234 0.0131706 -1.49018e-21)
(9.3187e-05 -4.87976e-05 2.50118e-22)
(6.57668e-05 1.01595e-05 5.05584e-21)
(0.000206879 -0.000147033 -1.39947e-21)
(0.0499161 0.17846 2.21058e-21)
(-0.0324683 -0.0644308 1.93257e-20)
(6.87682e-05 0.000164811 2.00178e-23)
(-0.000407217 0.000205191 2.82815e-21)
(0.00916122 0.149198 -7.41037e-21)
(4.74757e-05 0.000101623 4.98966e-22)
(0.0560572 -0.0046683 2.60836e-21)
(0.0315436 0.0462695 0)
(0.00910361 0.00230973 0)
(-0.00125903 -0.00127702 0)
(-0.102988 -0.188168 -3.87029e-20)
(0.011184 -0.0707875 5.7887e-21)
(2.83054e-05 -4.35692e-05 1.82438e-21)
(0.00046586 -0.00029433 3.59717e-22)
(4.45915e-05 0.000131123 1.72941e-23)
(0.0769088 -0.0390823 1.84663e-20)
(7.56214e-05 1.24899e-05 0)
(0.000238684 9.91087e-06 -6.98994e-22)
(4.13916e-05 -4.71766e-06 -7.75908e-23)
(0.0455839 0.00840699 -2.03668e-20)
(0.000621651 -0.000637423 -3.1295e-21)
(2.96381e-05 1.59281e-05 8.12811e-23)
(-0.104732 -0.149927 3.48192e-20)
(-0.0532491 -0.236139 -6.25431e-20)
(0.0587303 -0.0137708 -9.22612e-21)
(-0.0313365 -0.202326 -3.05172e-20)
(2.73172e-05 7.26871e-05 -8.03644e-24)
(0.00196103 -2.7056e-05 0)
(0.000429654 0.000439009 0)
(0.0417476 -0.147873 3.26317e-20)
(0.0534836 0.00915198 -3.44194e-22)
(0.133917 -0.109669 0)
(3.92e-05 0.000120278 6.28506e-25)
(-0.0996471 -0.168434 1.65767e-20)
(0.000318975 0.000129988 0)
(0.000462579 0.00529698 0)
(4.18567e-05 9.25642e-06 0)
(-0.00040298 -0.0298927 1.25846e-20)
(0.000113357 8.32991e-06 7.32229e-21)
(-0.105649 -0.209751 -1.59229e-20)
(-0.0814876 -0.0433461 1.2553e-20)
(-0.00394036 0.0629593 4.88196e-21)
(0.00105336 0.00100351 -1.07758e-21)
(0.0410819 -0.0817939 3.23274e-21)
(7.16976e-05 -6.92926e-05 0)
(-0.00222766 0.00267754 -1.82672e-21)
(0.00024148 -0.000232013 2.01427e-21)
(0.0401596 -0.0973367 -2.79393e-20)
(0.000223822 -0.000145433 6.58761e-22)
(0.000124771 0.000467263 -5.44681e-23)
(0.00421274 -0.00157584 2.7461e-22)
(0.0197309 0.0557411 0)
(0.126793 0.0555745 6.4315e-20)
(6.12176e-05 -2.76636e-05 3.9454e-23)
(0.0020511 0.00074401 0)
(0.00349427 0.0375355 3.523e-21)
(5.06947e-05 -6.64607e-06 0)
(0.00204385 0.00224411 -7.82566e-22)
(6.50008e-05 0.000164669 0)
(4.99547e-05 9.37908e-05 1.97512e-21)
(0.000289658 0.000203899 0)
(0.038245 0.00931743 2.1029e-20)
(-0.00169753 -0.0153886 -1.97824e-20)
(0.000228165 -0.00022628 -2.31131e-21)
(0.0245975 -0.000406249 -2.00218e-20)
(0.000103526 1.3126e-05 -3.5484e-21)
(0.240499 0.0488468 -5.64399e-21)
(0.000141833 1.0425e-05 -2.48476e-21)
(0.0361756 0.0544698 0)
(-0.0544346 -0.0464507 1.74111e-20)
(0.00234853 0.00018017 0)
(0.00182731 0.000197945 0)
(-0.142471 -0.185884 0)
(-0.0023567 0.00261403 3.68438e-22)
(-0.171178 0.152426 1.04539e-20)
(0.189551 0.0404219 -2.36968e-21)
(0.000291944 0.000120383 -1.69014e-21)
(-0.00795276 0.00342624 3.14445e-21)
(0.000139665 1.4645e-05 -3.30823e-21)
(0.238135 0.00518617 2.72331e-21)
(-0.116966 -0.489073 9.85784e-20)
(0.000473643 -0.00109678 2.01294e-21)
(0.0589573 0.0116518 2.76575e-21)
(-0.0961327 -0.30166 -4.0814e-22)
(0.000259589 -1.73982e-05 -2.73694e-21)
(0.00219313 0.152215 -3.60899e-20)
(9.28467e-05 8.88904e-06 0)
(-0.157512 -0.357368 1.78013e-20)
(-0.113138 -0.522255 -8.71027e-20)
(0.00142988 0.00104519 0)
(0.262204 0.340404 -9.91035e-20)
(1.78485e-05 -0.000112555 -1.24189e-22)
(0.0141075 -0.0868735 -6.61452e-19)
(0.0179363 0.00729989 4.29616e-21)
(0.131642 0.0877159 1.0828e-20)
(0.000572132 -0.000455709 -6.8321e-22)
(0.0172262 0.202902 -4.01739e-20)
(-0.000463749 0.000152983 3.28762e-21)
(9.01426e-05 8.46848e-05 -3.91325e-22)
(3.00562e-05 1.00366e-05 0)
(0.0146842 0.0469129 1.40077e-20)
(0.0150134 0.00959701 9.29753e-22)
(0.000222304 -9.90425e-06 -2.00677e-21)
(1.84856e-05 5.74443e-05 0)
(2.60293e-05 7.52462e-05 -6.93622e-23)
(0.182566 0.610477 1.06061e-19)
(0.234949 0.0758348 -2.30714e-20)
(0.00224231 0.000151766 2.30638e-21)
(-0.137295 -0.337711 -2.19334e-20)
(0.00537774 -0.127884 0)
(0.00112383 0.000973797 -6.00113e-22)
(0.000241789 7.79084e-05 -2.90087e-21)
(4.71115e-05 2.80783e-06 7.75545e-23)
(-0.00216205 0.178072 2.69986e-20)
(0.000269119 -0.000110894 -1.65968e-21)
(-0.000470543 0.000292415 -1.3257e-20)
(-0.00576402 0.0219443 -4.46414e-22)
(-0.101805 -0.53991 -3.09578e-20)
(0.0945036 -0.0554791 0)
(8.00555e-05 8.10683e-05 0)
(0.000774061 0.00960794 -3.07871e-21)
(-0.0133033 0.0042003 3.08883e-21)
(0.0235125 -0.130211 0)
(6.4383e-05 -4.7656e-07 -4.84598e-23)
(-0.194906 -0.0901349 4.92347e-20)
(0.000234774 9.35384e-05 2.98951e-21)
(-0.000297461 0.000171528 -1.50795e-22)
(0.000487898 -0.00707839 -1.03414e-20)
(0.0592976 0.0291098 1.55073e-19)
(0.00014328 -1.04448e-05 1.74061e-22)
(-0.0172083 0.198255 -1.3095e-20)
(0.000285676 6.57409e-05 0)
(0.000224954 -0.000139815 -7.28847e-22)
(0.0032519 -0.0107301 9.01788e-21)
(5.78311e-05 -9.19572e-06 -4.81631e-22)
(0.000119224 3.3039e-05 -3.16611e-21)
(4.98835e-05 8.86761e-06 0)
(0.0358977 0.159165 1.76948e-21)
(0.0884984 0.135838 -8.90506e-21)
(0.0937824 0.0472887 0)
(0.00286595 0.0136631 0)
(0.000219266 0.000351922 -2.82184e-21)
(1.72017e-05 5.60301e-05 -5.56645e-24)
(0.00507362 -0.0069301 -5.23692e-22)
(-0.114813 -0.471777 0)
(0.000175293 -1.36372e-05 1.11786e-21)
(0.00124555 0.11747 0)
(-0.000126183 -0.000177858 0)
(-0.10334 0.118141 -5.52368e-21)
(0.00331986 0.00122745 -1.4723e-20)
(3.88941e-05 5.45457e-06 -1.71677e-22)
(-0.0413979 0.0437444 0)
(-0.0979228 -0.32885 0)
(0.0184889 -0.000960525 0)
(5.14605e-05 -6.1845e-05 0)
(0.00136054 -0.0114858 -6.1485e-21)
(0.0483903 0.104834 5.26421e-21)
(-0.00823826 0.0495392 0)
(7.36009e-05 -5.99459e-05 1.06933e-21)
(0.0189262 -0.0242996 0)
(0.000392518 1.07263e-05 -6.23449e-21)
(-0.000304032 0.000566987 -1.20367e-22)
(0.000234595 7.66555e-05 3.06976e-21)
(0.0184893 -0.217512 0)
(0.00931708 0.0600932 -4.30198e-21)
(7.45903e-05 1.96822e-05 -2.72405e-21)
(-0.128298 -0.289484 2.85771e-20)
(-0.104682 -0.204219 0)
(-0.126182 -0.446139 2.20269e-20)
(-0.0263576 0.00940121 -4.13921e-21)
(3.33875e-05 0.00582555 -5.30367e-21)
(0.0202665 -0.18611 -1.04723e-20)
(0.00627628 0.00380247 1.2066e-20)
(0.000304516 -5.55505e-05 -2.85227e-22)
(-0.198954 -0.148378 0)
(-0.100835 -0.496198 0)
(0.0181128 0.0447584 -1.32835e-20)
(0.0241354 -0.0149303 -7.29565e-20)
(0.016212 -0.00690322 7.32158e-22)
(-0.000551401 0.000121328 -6.41139e-21)
(0.00044021 -0.000383658 3.6781e-23)
(0.0385107 -0.00871222 1.15237e-19)
(0.0320603 -0.00528022 -9.21545e-20)
(0.000137402 1.79465e-05 0)
(-0.000149211 0.00116037 -1.27821e-21)
(-0.0477497 0.0473301 1.93043e-21)
(0.000538547 0.00515435 0)
(-0.00816663 0.00829732 -2.19551e-21)
(0.0001069 2.14915e-05 0)
(-0.0276284 -0.0105735 -3.2436e-22)
(0.000651848 -0.000165464 0)
(-0.0104224 0.0426973 2.68402e-22)
(0.000964161 -0.000987403 0)
(0.000229336 -3.56833e-05 -4.7026e-23)
(0.0669441 0.049632 4.06594e-21)
(0.000260928 4.46888e-05 -1.37562e-23)
(0.000534096 -0.000218462 1.22769e-21)
(0.13336 0.0565784 1.18536e-19)
(0.000215824 -0.000120923 2.05106e-21)
(-0.10608 -0.193072 4.03341e-20)
(0.123597 -0.00416618 0)
(0.0271741 0.210306 0)
(0.0206567 0.0177061 -4.47994e-21)
(-0.0141157 0.0024992 4.21683e-22)
(-0.174732 0.0256313 -1.2024e-20)
(-8.41839e-05 0.000116519 7.96281e-21)
(5.41232e-05 4.6178e-05 0)
(-0.0106713 0.0293983 -1.57612e-21)
(-0.00206735 0.0112262 -1.60223e-21)
(0.000103155 4.40783e-05 1.10235e-22)
(0.299802 0.0111763 0)
(-0.00261103 -0.026127 0)
(0.000607485 -0.00030221 0)
(0.000249179 7.87006e-06 -2.1666e-22)
(0.000261125 0.00056858 -4.003e-21)
(-0.00280273 0.00678239 1.28945e-21)
(9.24458e-05 6.26179e-06 0)
(0.0104855 0.0135618 0)
(0.000965054 0.003216 -7.53472e-21)
(-0.185029 -0.401776 1.0125e-19)
(0.00120199 0.00495453 0)
(0.030629 0.0721007 3.05061e-21)
(-0.0038334 -0.000480732 -5.91825e-21)
(-0.134214 -0.29616 1.26832e-20)
(6.94402e-05 5.04605e-07 0)
(-0.000447262 0.00112648 2.37962e-22)
(0.0470276 0.259862 -3.7781e-21)
(0.0035078 0.00281695 1.10015e-20)
(0.048276 0.147544 -1.70131e-21)
(6.99784e-05 -1.1925e-05 -6.80681e-23)
(0.0275337 0.115233 3.95038e-21)
(-0.00638157 -0.0218044 -8.64522e-21)
(0.000486492 0.00025188 -1.51797e-23)
(0.000786333 0.000331428 3.82424e-22)
(0.0238404 -0.0196663 5.85686e-21)
(0.000463235 0.000102442 0)
(0.000143475 0.00011958 1.3563e-21)
(-2.1122e-06 -9.82229e-06 6.34567e-25)
(-0.000307307 0.000453336 -3.30108e-23)
(-0.0795109 -0.159846 -1.69642e-20)
(0.00205606 -0.0197046 -3.16056e-21)
(8.09527e-06 -0.000108544 -2.04239e-22)
(0.142602 -0.137213 2.32245e-20)
(0.161262 0.0388532 -1.30759e-20)
(-0.00461006 0.000147918 -5.35656e-21)
(0.250905 -0.00763048 0)
(0.000539115 0.000377676 6.70979e-22)
(0.000284098 -5.69733e-05 0)
(0.0103805 0.0269943 -4.91902e-21)
(0.000581153 -0.000352442 6.54553e-23)
(0.00267063 0.00110474 -3.83278e-21)
(0.175452 0.00379673 -1.2768e-20)
(0.000307035 9.05241e-05 -2.36679e-22)
(0.00342347 -0.09747 1.71512e-20)
(0.00130128 -0.000689547 -3.38875e-21)
(0.0325991 -0.0872139 3.66813e-20)
(0.0122614 -0.136176 3.20833e-20)
(0.000102526 2.15209e-05 -3.43169e-22)
(1.30923e-05 3.924e-05 8.80838e-23)
(0.00025657 -4.83624e-05 2.19662e-21)
(-0.130005 -0.0679143 -7.75699e-21)
(-0.00551242 -0.00362132 5.71188e-21)
(-0.151489 -0.430015 7.05699e-20)
(0.000291146 0.000168852 2.91079e-21)
(6.70453e-05 1.10142e-05 -7.32583e-23)
(0.000575939 -7.92018e-06 2.71822e-23)
(5.96443e-05 1.10503e-05 2.59843e-22)
(6.94713e-05 -2.90572e-06 0)
(6.16213e-05 1.18392e-05 2.60882e-22)
(0.000159673 -1.21406e-05 1.41794e-21)
(0.0565967 0.0101539 -7.63332e-22)
(-0.0768933 -0.272837 -2.29667e-19)
(5.55316e-05 -1.44407e-05 0)
(-0.00425379 -0.000558398 8.70669e-21)
(-0.113596 0.098815 0)
(0.000518463 0.000246114 8.51019e-22)
(3.25166e-05 1.28698e-05 -2.59745e-23)
(0.0308852 -0.121962 0)
(-0.0102836 0.0196374 5.61443e-23)
(0.000239776 -9.54415e-06 2.32292e-22)
(0.000233995 7.34139e-05 2.93042e-21)
(0.000135943 5.03297e-06 -2.35421e-21)
(-0.0732815 0.0473066 3.24606e-20)
(0.000437028 -0.000125643 0)
(0.00970185 0.131881 -4.41115e-20)
(-0.000422054 0.00466584 8.99503e-21)
(0.000319906 -0.000277678 1.11856e-21)
(0.00764357 -0.00999248 0)
(0.111636 -4.3507e-05 0)
(0.000435638 -0.000422626 9.15672e-23)
(-0.0869528 -0.171026 0)
(0.0274206 0.0900574 5.58426e-20)
(-0.103578 -0.181571 -1.23379e-22)
(0.0599817 -0.00151784 -2.56434e-21)
(0.000274782 -3.92082e-05 -1.5613e-21)
(0.0107488 0.0186685 3.89376e-21)
(0.249041 -0.0709698 -2.26251e-21)
(1.88795e-05 -1.60106e-06 4.80344e-23)
(0.0150404 0.0150835 -6.2289e-22)
(5.2586e-05 -8.40156e-05 0)
(0.00449752 -0.00366323 8.9882e-21)
(0.0213688 0.0608111 -1.06606e-20)
(0.0485113 -0.120644 -1.81316e-21)
(1.20036e-05 3.82406e-05 -5.73349e-23)
(-0.147795 0.00728719 -1.18705e-20)
(0.000328882 0.000173152 1.8159e-21)
(-0.0176658 0.218498 0)
(0.000207668 8.4745e-05 -2.66069e-22)
(0.0131063 -0.00957243 -4.89516e-21)
(0.0109975 0.0204008 0)
(0.0453943 0.0719297 0)
(-0.199192 -0.113978 9.02859e-20)
(0.114553 0.0672144 8.09475e-20)
(6.85102e-05 -7.87826e-05 4.28012e-23)
(0.277722 -0.0677252 3.33165e-20)
(0.000480329 -5.85811e-05 0)
(-0.112228 -0.15495 -1.19345e-20)
(0.00058062 -0.000687627 4.02512e-22)
(-0.0140758 0.0293764 5.37612e-22)
(0.000525606 -0.00045247 0)
(0.000651606 -0.000739941 -3.09014e-22)
(0.000171852 0.00190411 -4.06837e-22)
(0.00473845 0.000401799 8.70441e-22)
(0.00026645 0.000131439 -8.38522e-21)
(0.00020585 -2.07076e-06 9.72809e-22)
(7.19312e-05 -2.63002e-06 -1.08848e-22)
(-6.10248e-05 0.000281474 0)
(4.60678e-05 2.98242e-06 -9.31588e-23)
(-0.000157188 0.000248391 0)
(-0.00167403 -0.00760029 4.33574e-21)
(6.86267e-05 -6.69729e-05 -1.2431e-22)
(5.31793e-05 -8.02483e-05 0)
(-0.0306308 0.0955693 -9.78046e-21)
(5.62501e-05 3.51098e-06 7.452e-23)
(0.0367744 0.00762041 5.46588e-21)
(0.000113123 1.73317e-05 0)
(0.00109115 0.000715017 4.21681e-22)
(8.40619e-05 -4.19127e-05 0)
(0.0342007 -0.0175993 4.87329e-20)
(8.48268e-05 -4.33149e-05 -6.49595e-23)
(-0.074184 0.0748366 0)
(-0.00585677 0.00263984 1.78413e-21)
(-0.150825 -0.146569 1.49275e-20)
(-0.002136 0.0386016 0)
(0.000307045 -0.000289455 0)
(6.95619e-05 7.56115e-07 1.3804e-25)
(9.10384e-05 -2.98365e-06 0)
(-4.04025e-05 0.000285643 1.55875e-23)
(0.000389028 3.35594e-05 3.78327e-21)
(0.000262779 -3.24861e-06 -7.71676e-22)
(0.000332422 -3.69328e-05 0)
(0.311572 0.12273 8.27574e-21)
(-2.1969e-05 -0.00012437 0)
(-0.126284 -0.414329 8.81068e-21)
(-0.0251224 0.389387 1.06999e-20)
(0.0156883 0.058001 0)
(9.42606e-05 -4.43787e-05 5.26692e-23)
(8.78293e-05 -6.28781e-06 1.88675e-21)
(0.200773 0.0804663 2.43721e-22)
(-0.0204393 -0.262321 6.85283e-20)
(-0.0908166 -0.184211 0)
(0.138991 0.00370652 7.59293e-20)
(-0.0193303 0.0682761 2.63247e-21)
(-0.126647 -0.385645 0)
(0.0371933 -0.140522 -4.82691e-20)
(-0.00765825 0.00176144 0)
(-0.11956 -0.412022 0)
(0.000272869 -3.79305e-05 1.82306e-21)
(9.23791e-05 -1.12081e-05 0)
(5.49105e-05 -6.05831e-05 -2.10446e-23)
(0.0785768 0.00514684 3.42506e-21)
(0.000543552 0.000215924 0)
(0.000487718 -0.000393156 2.69464e-21)
(0.0162259 0.0163319 -2.22997e-21)
(0.00183882 0.000356419 -1.69113e-21)
(-0.126674 -0.123064 7.80073e-21)
(0.000122167 0.000101231 1.42093e-23)
(0.00364356 0.0356697 -2.22213e-21)
(0.0385118 0.014995 9.78915e-22)
(-0.122357 -0.101512 -1.47441e-20)
(0.078606 -0.0459947 1.10328e-20)
(0.00235838 0.0502427 2.40431e-21)
(0.0265035 0.129942 1.28175e-20)
(0.00107126 -0.00804444 4.90886e-21)
(0.000270474 -3.32525e-05 -6.1486e-21)
(0.000460598 0.000205979 4.16902e-23)
(0.00619451 0.00197378 0)
(-0.112864 -0.234994 2.40716e-20)
(0.170669 0.107052 0)
(5.77575e-05 1.11724e-06 6.83781e-23)
(0.00010053 3.47726e-05 4.52586e-22)
(-0.0509509 0.221255 8.85046e-21)
(-0.00275748 0.0131127 -2.07492e-22)
(-0.0050801 0.0689174 -4.54992e-21)
(0.000412052 3.07481e-05 -1.98797e-22)
(-0.00234522 0.0452308 0)
(0.000368108 -0.000126899 -1.00335e-21)
(-0.0131826 -0.175608 0)
(0.000407732 -0.000435869 -4.37814e-21)
(2.65249e-05 5.55721e-06 1.38496e-22)
(2.23505e-05 -3.25247e-06 0)
(1.51293e-05 -0.000136742 0)
(-0.000192149 0.000209176 0)
(0.000252048 -1.15303e-05 3.35292e-21)
(0.000399385 -0.000449503 4.13005e-21)
(-0.148283 -0.180271 6.49494e-21)
(-0.112096 -0.230059 0)
(2.22868e-05 6.78401e-06 0)
(-0.19793 -0.134568 -1.69411e-19)
(-0.000327025 0.00151458 -1.26011e-21)
(-0.176733 0.00339349 1.15857e-20)
(0.0904563 -0.054295 -3.45541e-20)
(-0.0137586 -0.180655 2.40558e-20)
(3.35218e-05 1.60914e-05 0)
(-0.00187922 -0.0105844 2.81708e-21)
(0.253152 -0.070404 0)
(3.9753e-05 3.98127e-06 -2.3321e-22)
(-0.162224 -0.14677 -8.97852e-22)
(0.000249863 -5.58429e-05 1.12652e-21)
(-0.000286914 5.56387e-05 0)
(-0.00252739 -0.00229056 -5.52766e-21)
(6.78091e-05 3.52917e-06 1.93721e-22)
(0.150764 0.0910861 1.03744e-19)
(0.000422618 7.56745e-05 0)
(-8.29828e-06 -5.83623e-05 -2.39682e-23)
(0.0799078 -0.00265238 1.70594e-20)
(0.000205084 -5.26677e-05 -1.84331e-23)
(0.00958571 -0.00114523 -5.24196e-21)
(0.000244033 1.68958e-05 -3.34684e-21)
(0.367209 0.294523 3.17722e-20)
(7.09424e-05 8.12441e-06 0)
(-0.00012807 0.000366087 -6.69485e-21)
(0.00534547 -0.00243961 -5.23149e-22)
(0.000341664 -9.9304e-05 0)
(0.00486821 -0.00379697 -3.8536e-22)
(0.00200434 0.000320541 0)
(0.000495537 1.23342e-05 -9.81815e-22)
(0.000267983 0.000359406 2.90611e-23)
(0.156318 0.127001 -1.37211e-21)
(0.000572847 0.00390484 1.29367e-21)
(9.05426e-05 5.35195e-05 0)
(-0.000196551 6.1808e-05 0)
(0.000108079 3.86582e-05 -1.51132e-21)
(0.000278565 -4.01157e-05 1.44692e-21)
(-0.0508116 -0.00528672 -2.47591e-21)
(0.0107337 0.0151016 0)
(-0.102622 -0.163914 -1.87011e-20)
(0.000303655 -6.1035e-05 1.9418e-21)
(0.000231827 -1.44663e-05 9.83198e-22)
(-0.00323304 0.0976392 -2.88907e-21)
(0.000239677 7.87216e-05 -6.30172e-21)
(-0.152996 -0.00907744 -1.38131e-20)
(0.0250196 0.0153426 0)
(8.93808e-05 5.53135e-05 -5.24568e-24)
(0.000205011 7.17708e-05 8.86456e-21)
(0.150385 0.0411188 1.14204e-20)
(-0.0020402 2.11021e-05 0)
(0.00234199 -0.000806325 3.53405e-21)
(0.000112801 -4.51065e-05 1.82448e-21)
(0.000256421 1.06638e-05 -3.67454e-21)
(0.000508565 -0.000477625 0)
(0.000880379 0.000714832 5.79929e-21)
(0.156716 0.0634348 -1.00615e-19)
(-0.0027071 0.00275456 1.69321e-21)
(0.00741918 0.00425614 0)
(0.000247466 0.000110202 -6.15304e-21)
(0.141501 0.0812788 9.23201e-20)
(0.0270129 -0.0224637 -1.79253e-19)
(-0.0123594 0.00443305 -6.86163e-23)
(0.000248813 -0.000102072 5.47388e-21)
(0.00198938 0.0738431 3.37235e-21)
(0.00427014 0.000687337 -2.18613e-22)
(-0.0367274 -0.0774962 -4.65797e-20)
(0.000502977 0.000854211 0)
(0.000298977 2.72584e-05 0)
(0.12976 0.178829 7.18971e-22)
(0.000362243 -6.27221e-05 0)
(0.171842 0.0598416 -1.51374e-19)
(0.00553771 0.0101907 0)
(0.145606 0.050947 0)
(0.000233008 9.43465e-06 -3.216e-24)
(6.65019e-05 2.93954e-06 8.75414e-23)
(-1.23359e-05 -0.000143056 9.87482e-24)
(0.00212924 0.00156441 -9.41444e-23)