/*--------------------------------*- C++ -*----------------------------------*\
| =========                 |                                                 |
| \\      /  F ield         | OpenFOAM: The Open Source CFD Toolbox           |
|  \\    /   O peration     | Version:  v2012                                 |
|   \\  /    A nd           | Website:  www.openfoam.com                      |
|    \\/     M anipulation  |                                                 |
\*---------------------------------------------------------------------------*/
FoamFile
{
    version     2.0;
    format      ascii;
    class       surfaceScalarField;
    location    "400";
    object      ddtCorrDdt0(phi);
}
// * * * * * * * * * * * * * * * * * * * * * * * * * * * * * * * * * * * * * //

dimensions      [0 3 -2 0 0 0 0];
oriented        oriented;


internalField   nonuniform List<scalar> 
27663
(
0.0153257
-0.00648696
-0.00883873
-0.00512832
0.0163733
-0.011245
-4.33632e-05
5.38475e-05
-1.04838e-05
-0.127459
0.128856
-0.00139739
-4.9314e-05
-3.54598e-05
8.47703e-05
-0.0131078
0.0202093
-0.00710152
0.000352863
0.000740488
-0.0149965
0.00986818
-0.00188864
0.000546447
0.00134219
-8.1348e-05
8.20366e-05
-6.55343e-07
-0.000550833
0.000187282
0.00036354
5.06359e-06
-4.84254e-05
-0.125169
-0.00228992
7.60629e-05
0.000278657
-0.000354721
3.75849e-05
-8.69004e-05
3.98344e-05
-2.31225e-05
-1.67138e-05
-1.22821e-07
2.92252e-05
-2.91057e-05
-0.0445245
0.0165483
0.0279761
1.65401e-05
-1.0628e-05
-5.91573e-06
0.0015088
-8.41327e-05
-0.00142465
-0.0145552
0.00144742
-9.34743e-05
0.000125504
-3.20305e-05
2.10634e-05
1.87697e-05
0.00252731
-0.00507712
0.0025498
-0.000118261
0.000118942
-6.79082e-07
-0.00331536
-0.00609977
0.00941514
0.00423294
0.0110928
1.97916e-05
-1.89002e-05
-8.85112e-07
3.30893e-05
-3.91882e-05
6.09931e-06
4.01479e-05
4.93513e-05
-8.95036e-05
-0.000118105
0.000116439
1.64761e-06
-0.000366564
0.000585678
-0.000219125
0.000149882
-6.74464e-05
-8.24308e-05
-0.015074
0.00657678
0.00849714
0.00513081
-0.0311098
0.000110545
2.01673e-05
-0.000130713
4.53551e-05
7.25693e-05
-0.000117922
-0.00841262
-0.0157677
0.0241803
0.000122697
-0.000877233
0.00075453
9.03141e-05
-5.01676e-05
0.0424149
-0.0358415
-0.00657334
0.0111332
-0.00690024
4.59342e-05
-7.74825e-05
3.15481e-05
0.00862686
-0.0304748
0.021848
-0.00110084
-0.000787806
3.10469e-05
0.000200059
-0.000231121
-0.00459874
3.53076e-05
-2.57423e-05
-9.56568e-06
-0.0111294
0.000685893
0.0104435
-0.00102986
0.0497902
-0.0487603
1.32412e-05
6.54773e-06
6.46178e-05
1.96384e-05
-8.42603e-05
-0.0615419
0.0149713
0.0465705
0.0355506
0.00686422
-2.71325e-05
2.69721e-05
1.51603e-07
0.131342
-0.148427
0.0170852
-0.000328551
0.000404608
0.00078068
0.00072811
-0.00762621
-0.00744777
-0.00126808
0.000640671
0.000627422
-2.17974e-05
8.25373e-05
-6.07461e-05
-2.17325e-05
8.60011e-06
1.31241e-05
0.00143051
-0.00151463
-6.68816e-05
0.000133731
-6.68577e-05
-0.017506
0.00444584
0.0130601
-0.00527223
-0.0251132
0.0303854
-2.30254e-05
4.3488e-05
-2.04639e-05
-0.000952781
0.000682805
0.000269954
-3.46476e-06
-3.86896e-07
3.84874e-06
0.0547817
-0.0224236
-0.0323581
-0.000265558
-0.000285273
0.0033498
-0.00871274
0.00536293
-0.00279378
0.00361421
-0.000820404
-0.0064251
0.00644202
-1.69338e-05
-0.000141859
7.01185e-05
7.17108e-05
-0.00116623
0.00092462
0.000241593
-0.0225015
0.0113624
0.0111391
-0.0497948
0.0487649
-4.05016e-06
5.83073e-07
-0.0255257
0.0225542
0.0029716
-0.0115936
0.0130455
0.0492374
-0.0184233
-0.0308142
-0.0087206
0.00229551
-7.97111e-05
-1.11737e-05
9.08988e-05
7.59228e-05
7.39418e-05
-1.49212e-05
6.08565e-05
-0.00263209
-0.00272697
0.00535905
-2.8964e-05
-5.24021e-05
0.00328325
-0.00301203
-0.00027123
-0.0333848
-0.0111398
-0.00277199
-2.17655e-05
-0.0139844
0.0235637
-0.00957926
-0.0333528
0.0419796
-0.00996188
-0.0125397
0.0231056
-0.00837267
-0.0147329
-0.000478713
-0.000687529
5.92371e-05
-0.000116679
5.74557e-05
0.00474466
0.0384494
-0.043194
0.0005382
-0.000259543
-3.89218e-05
4.39848e-05
0.0183115
0.00479408
-8.74437e-05
2.05575e-05
0.0154376
-0.0178397
0.00240213
0.00036296
-0.000729523
9.79157e-05
-9.79249e-05
-0.026623
0.0425231
-0.0159002
-2.03307e-05
-6.80436e-06
-2.94063e-06
3.36968e-05
-3.07571e-05
0.00181528
-0.0193213
-2.30102e-06
-2.36665e-05
2.59663e-05
0.0244591
0.019237
-0.0436962
-3.31887e-05
5.96439e-05
-2.6457e-05
0.00020776
-0.000106172
-0.000101563
4.52231e-05
-1.33094e-05
-3.19108e-05
-1.59347e-05
5.46817e-05
-3.87463e-05
-4.78362e-05
8.9123e-06
-3.3366e-05
1.03401e-05
-0.0185422
0.0160648
0.00247739
1.55657e-05
-0.000100397
8.48254e-05
-0.00843938
0.000431271
0.00800809
-0.0388619
0.0436066
0.000111005
9.67554e-05
0.12248
0.00886186
0.0246943
0.024543
0.0103322
-0.0168192
-0.0012312
0.013538
-0.0123068
-0.031786
0.033628
-0.00184202
-0.0192486
0.018263
0.000985653
-0.00019438
-0.000406451
0.00060085
0.00268186
-0.000519666
0.000663596
-0.00439532
0.00373174
-6.31407e-05
2.99504e-05
0.0431614
-0.0397179
-0.00344358
0.0126461
0.00592321
-0.0185693
3.5087e-05
-5.10269e-05
4.04e-05
9.64558e-06
-5.00485e-05
2.58577e-05
-5.55386e-05
2.96815e-05
0.000105492
-0.000103457
-2.0464e-06
0.0355013
-0.0146812
-0.0208201
2.7413e-05
-1.10889e-05
-1.6325e-05
-0.000104289
6.287e-06
9.79978e-05
-2.87805e-05
1.19574e-05
1.6822e-05
-1.91152e-05
-2.62051e-06
0.000115352
-5.61041e-05
4.2943e-05
-4.69314e-05
3.98973e-06
0.00492161
-0.00823696
-6.33479e-05
0.000108713
1.06605e-05
2.57567e-06
0.00438589
-0.0310089
-0.000383614
-0.000685925
0.0010695
-0.000200132
-0.000128421
-0.002744
-0.0157983
0.00416057
0.0313407
-2.60638e-05
-4.72126e-05
4.49722e-05
2.24262e-06
0.0152128
-0.0227109
0.00749811
-0.0337968
0.029805
0.00399184
0.000939232
-0.0247268
0.0237875
1.84465e-05
0.00507421
-0.00509267
4.37013e-05
-2.7921e-05
-1.57802e-05
-3.78514e-05
1.17642e-05
2.60887e-05
0.0611213
0.00178194
-0.0629033
0.000113039
-7.53411e-06
0.0168533
0.000660269
-0.0175135
2.46547e-05
2.19825e-05
-4.66382e-05
-0.0110507
-0.0278112
-4.02704e-05
-6.94233e-06
-1.1535e-05
2.5666e-05
-1.41312e-05
-0.0138488
0.00225517
-5.78909e-05
0.000193798
-0.00013587
-9.87938e-05
-4.30946e-05
5.01501e-05
-3.33503e-05
-1.68028e-05
0.00386233
-0.00319874
-0.00065624
-0.00142429
0.00208054
-0.0309741
0.0315839
-0.000609862
0.00109386
-0.000816483
-0.000277394
-0.0149062
0.00974693
0.00515921
-0.0199999
0.0007513
3.96829e-05
1.04637e-05
4.23262e-06
-4.62397e-06
0.0013557
0.000316207
-0.00167203
-0.00136236
0.000706022
-1.56376e-05
0.000126182
7.09067e-05
3.02913e-05
-0.000101194
0.00376457
2.73565e-05
-2.00237e-05
-7.3313e-06
0.00107046
-0.00106849
-1.95931e-06
-0.00114766
0.00250334
-0.00950735
-0.0053988
0.00313178
0.0170776
9.55361e-05
-1.77719e-05
-7.77578e-05
-0.000186702
-0.00296513
0.00315191
0.0269858
-0.0260466
1.21424e-05
1.52692e-05
0.017203
-0.00790475
-0.00929825
0.00673381
-0.00451954
-0.00221425
0.00149129
-0.00117513
-0.013522
-0.00598829
0.0195103
6.37146e-06
-8.60817e-05
0.00603361
0.0272106
-0.0332442
0.00716873
-0.0254063
0.0182376
0.022323
0.0137577
-0.00114539
0.000207285
-0.000278607
7.12991e-05
0.0122774
-0.0149184
0.00264093
0.0006721
-0.0144112
0.0137391
0.00799985
0.0224217
-0.0304216
0.0235205
-0.00803911
-0.0154815
6.31125e-05
-0.000165594
0.000102501
0.00602127
-0.0397325
0.0337112
0.0186132
-0.00596714
-3.61151e-05
2.78713e-05
8.24279e-06
-0.0111388
0.0293314
-0.0181926
-0.0230429
0.00359496
0.0194479
4.84776e-05
2.24326e-05
0.000103104
-0.00011874
0.00123964
0.00570264
-0.00694225
-0.00157142
-0.00016406
-0.0116688
0.00052991
-1.42939e-05
0.000169743
-0.000155451
-0.000114323
-0.000152714
0.000267044
1.28601e-05
1.4495e-05
0.000137195
-0.00456787
0.00443066
0.0038868
-0.00160054
-0.00228627
-0.000173003
-0.00156046
0.00173348
0.000110708
-0.000125007
-1.81096e-05
4.27619e-05
-0.035505
0.00404262
0.00347455
-0.00751717
0.00159395
0.00442731
-0.00247277
0.0193261
-0.000108583
4.28072e-06
0.000141082
-9.03871e-05
-2.77121e-05
0.00264165
4.02136e-05
-0.000102907
0.000743575
-0.00194879
0.00211868
-0.000169878
0.000133398
-0.0132021
0.0167404
-0.00353831
0.00156919
-0.000224718
-0.00134444
-0.000259566
0.000444902
-0.000185327
0.000102244
0.000231428
0.00305182
0.00906743
0.00924405
-2.15534e-05
8.61654e-05
0.00499453
-0.00246723
0.0100616
-0.00825058
-0.00181105
-3.44789e-05
-1.63692e-06
-0.000434774
0.000240391
-0.0615005
-4.1384e-05
-0.00663323
0.0142873
-0.00765408
0.000292457
-8.51757e-05
-0.0128642
0.04034
-0.0274758
0.000135171
-0.000165425
3.02604e-05
1.38765e-05
2.03807e-05
-3.42573e-05
-0.000166385
0.000265095
-9.87078e-05
-0.00586376
0.0058822
5.86425e-06
5.08785e-05
-5.67509e-05
0.00416458
-0.001517
-0.00264762
0.00748333
-0.00734611
-3.12217e-05
-0.00303605
0.0184737
0.0836362
-0.0462376
-0.0373987
0.00183398
-0.00846722
7.97536e-06
-0.000140979
0.000132988
0.000379239
0.000832381
-0.0079976
0.000140294
0.000124794
0.000727987
-0.000354379
-0.000373539
0.000108143
4.64664e-05
-3.04009e-05
-1.60674e-05
2.26206e-05
6.76807e-05
1.51392e-05
-3.40359e-05
-2.41205e-05
2.37373e-05
3.82948e-07
-0.0191805
0.00704681
0.0121337
-0.0017034
0.00164224
6.11711e-05
1.11861e-05
0.0121202
-0.0151309
0.00301065
6.91306e-05
-4.65154e-05
-4.6815e-05
-6.75132e-05
3.19537e-05
1.45137e-05
0.0247817
-0.0376459
-0.000569618
0.0106312
-0.0016381
0.00146509
0.0589605
-0.0104016
-0.0485589
0.00120025
-0.000974908
-0.000225338
-0.00163384
0.00655544
-9.23035e-05
-1.1708e-06
0.0143969
-0.0296972
0.0153003
4.77371e-05
-7.33675e-06
0.000165281
-0.00104251
-1.63856e-05
0.000108503
-9.21243e-05
0.000622945
0.000577297
-0.0150649
-0.018732
4.24409e-06
2.88451e-05
-4.4558e-05
4.44318e-05
-0.000206648
8.72085e-05
0.000119434
-0.0327026
0.0207765
0.0315411
0.0232406
-0.0622752
-0.033252
0.0955271
0.050945
0.0326913
0.0075861
-0.00285889
-0.00472723
0.00911683
0.0291717
-0.0231381
0.0519154
-0.0126693
-0.0392461
1.80388e-05
9.97929e-05
-0.000117835
-9.56294e-05
-0.00161103
9.85277e-06
-3.43869e-05
2.45288e-05
9.71937e-05
7.18942e-07
-2.01837e-05
-5.60426e-05
7.61984e-05
4.73353e-05
0.000458229
-0.000841887
0.0117742
0.0401412
-0.0374283
-0.00230412
-0.00466623
-0.00988903
0.000106607
-9.86444e-05
-3.84033e-05
4.83077e-05
-9.91116e-06
7.92908e-05
-7.92731e-05
0.0190183
0.000209316
-0.001357
-0.0357597
0.0230904
-5.53106e-05
0.000114604
-5.93257e-05
0.00660546
0.000128353
-0.0599732
0.0539849
1.98209e-05
3.91445e-06
0.00496345
0.00262262
-0.000168764
-0.000328528
0.000497305
-2.15424e-05
1.0007e-05
2.27172e-05
2.251e-05
0.00015159
-0.00158395
0.00143243
-3.85562e-05
4.8406e-05
0.00233969
-0.00197975
-0.000359941
-6.17598e-05
6.44523e-06
0.0152907
-0.0199034
0.00461268
-0.000639425
-0.00130935
0.0253702
-0.04403
0.0186597
-0.0172699
0.0458285
-0.0285587
1.73178e-05
7.20004e-07
-1.80418e-05
0.0132275
-0.0162825
0.00305495
0.00123885
-2.0929e-07
3.0246e-05
-3.00394e-05
2.18414e-06
2.04602e-06
-9.62222e-05
-1.69732e-06
0.000437946
0.0037176
-0.00415554
4.23449e-05
-3.64249e-06
-3.8704e-05
-0.0868358
0.0580008
0.028835
-0.000102322
-0.0289015
0.0141746
0.0147269
0.00357693
-0.00944072
-6.69925e-05
2.59103e-05
-8.5949e-05
6.00308e-05
-0.0196697
-0.0113044
0.00728899
-0.00619262
-0.00109643
-1.88972e-05
3.27736e-05
0.0065711
0.00473784
-0.011309
1.32998e-05
-0.00105362
-0.00356202
0.00461563
0.024864
0.00322321
-0.0280872
0.0365159
-0.0323553
-0.008913
0.00330178
0.00561121
0.00619261
-0.00575468
-0.0022321
0.038748
-0.00551727
0.0742893
-0.068772
0.000240633
-0.000409395
0.00046242
0.0124692
-0.00574636
-0.00672285
3.44249e-05
8.51782e-06
-3.56277e-05
3.40663e-05
1.56092e-06
9.7223e-05
1.58209e-05
-0.0438768
-0.042959
-0.0144612
-0.0144403
9.74344e-05
2.80696e-05
-0.000153769
0.00017179
0.00810319
-0.0628964
0.0547932
2.32242e-05
-5.57885e-05
3.25706e-05
0.0204633
-0.0018501
0.0221845
-0.0150157
0.002557
-0.00232557
0.000326109
-0.0194481
0.00977397
0.00967406
0.00981288
-0.0373752
0.0275624
2.11392e-05
-4.60347e-06
4.16158e-05
-0.000215435
0.000173848
-4.44991e-05
5.60681e-05
-1.15744e-05
-0.00590719
0.0124783
-4.3197e-06
-3.35312e-05
0.000103721
-7.78189e-05
-1.53554e-05
-1.53506e-06
1.68892e-05
0.0153931
-0.0192698
0.0038767
-0.000197567
0.000228602
-1.34253e-05
-1.93148e-06
-0.00279818
0.0134578
-0.0972938
0.083836
0.000330442
-0.00876978
-0.0230147
-0.00251098
1.74332e-05
-3.55442e-05
0.000903299
-0.000551884
-0.000351418
0.000117038
-7.54061e-05
-0.0637727
0.0358765
0.0278963
0.00216404
0.0182993
-0.011527
-0.0102618
0.0217887
-5.6705e-05
1.22034e-05
-0.00719066
-0.00953995
0.0167305
-3.6309e-05
0.000147017
0.00109241
-0.000772847
-0.000319556
-1.76396e-05
2.11249e-05
-3.48634e-06
0.00605601
-0.00212712
-0.00392891
4.04818e-07
3.46813e-05
0.0209318
-0.00557077
-0.0153611
-0.0144648
0.0161888
-0.00172399
0.00471682
-0.0221884
0.0174716
-0.000462087
0.000647299
-0.000185197
-0.00254299
-0.00636998
-4.45383e-06
-3.27906e-05
3.72502e-05
-0.000956336
0.000912653
4.37205e-05
-0.000119421
0.000109361
1.00498e-05
-0.0507934
0.0253322
0.0254611
0.000110304
-1.30832e-05
4.80483e-05
1.72249e-05
-6.52765e-05
-0.00208348
0.000380078
-0.0296923
-0.00581279
0.031138
-0.0378661
0.00672796
-2.78411e-05
2.55399e-05
0.00025272
0.000650576
0.0112339
-0.012465
2.61314e-05
-1.21351e-05
-1.39973e-05
0.000510466
-0.000293908
-0.000216519
-1.7583e-05
-4.68326e-05
6.44153e-05
3.5295e-05
-4.86748e-05
1.33885e-05
7.9428e-05
-0.000115744
-0.00275171
-0.0112327
0.00130136
0.00475465
-0.000117263
-2.13253e-06
-0.00167356
-0.00272175
-3.39845e-05
-0.0277546
0.0321405
-6.92588e-05
4.06131e-05
2.86423e-05
0.0137719
-0.0111041
-0.0033607
0.000690749
0.000291943
-0.00098269
0.000816698
-0.000125956
-0.0179118
0.0163785
0.00153331
-0.000183278
-0.00077304
-0.0666189
0.00434374
0.0196172
-0.0315849
0.0119677
1.43137e-05
7.66836e-05
-9.10038e-05
0.00232438
-0.000103812
-0.00222057
-2.91886e-05
-4.00734e-05
-0.025946
0.000786381
0.0251597
0.0809791
-0.122279
0.0412998
-0.000307485
0.000353105
-4.5614e-05
0.00258637
0.00470259
0.0388436
-0.0134734
-0.000105101
-1.31555e-05
0.06455
-0.00469413
-0.0598559
-3.83886e-05
4.14969e-05
-3.10509e-06
0.0247381
0.115992
-0.0350134
-0.000293345
1.47137e-05
0.0925966
-0.049753
-0.0428437
-4.01406e-05
5.17585e-05
-1.16317e-05
0.011522
-0.00212305
-0.00939897
-0.00364022
0.0028194
0.000820838
0.0213596
-0.000645145
-0.0207144
6.9795e-06
0.000174253
-0.000181192
0.0731286
-0.0650253
-6.40342e-05
-8.97439e-05
4.03668e-05
1.02678e-05
-5.0637e-05
3.66448e-07
-1.09941e-05
-0.0170597
0.00129197
-0.00283687
-0.000485243
0.00332216
-8.95242e-05
7.31279e-05
1.56013e-05
1.17275e-05
-2.73296e-05
3.30311e-05
0.0742039
0.0183927
0.0387396
-0.0191224
0.000338689
0.000731764
0.0370995
-0.0205511
0.00719029
0.0043317
-0.000311066
1.77194e-05
1.22425e-06
8.19372e-05
-8.31678e-05
2.42797e-05
-1.78459e-05
-6.4343e-06
0.0690674
-0.00451742
0.000112336
-3.97695e-05
-0.000102325
0.00045516
-0.00613179
0.00948159
0.115585
0.00689514
0.0163958
-0.0123469
-0.00404893
-1.35494e-05
5.39154e-05
-0.00485438
0.000334851
-0.0004574
0.0024759
-0.00201852
-0.0131229
-0.0506498
-2.78791e-05
3.12222e-05
-3.3439e-06
-0.00728194
0.00795397
8.13186e-06
-8.78586e-05
7.97217e-05
-0.000169051
0.000174925
-5.87348e-06
0.00049206
-0.00227799
0.00178593
0.0121651
-0.0105712
-5.81707e-05
5.91933e-05
-1.0315e-06
-0.0625178
0.0514671
3.77472e-05
6.92105e-05
-0.000106963
-8.85344e-05
0.0001131
-2.45462e-05
0.00179915
0.00208764
1.9242e-05
6.88818e-06
4.78375e-05
-2.19811e-05
-2.04041e-05
2.76213e-06
-0.0678603
-0.00112456
-0.0263788
0.050838
0.0119786
0.00441718
0.00495724
-1.31413e-05
-3.42929e-05
4.74312e-05
-1.04621e-05
2.21847e-05
0.00334734
0.00012081
-0.00346817
0.0948827
0.0211097
8.56701e-05
-0.0193118
0.0509453
-0.0316334
-4.91676e-05
-3.68864e-05
8.60574e-05
0.0217136
-8.23367e-05
0.000875309
-0.000792947
5.26415e-06
-1.98811e-05
1.46169e-05
0.0109643
-0.0073874
-0.0296372
0.037637
-0.00583539
0.00420155
-1.3408e-05
3.29995e-05
-1.95923e-05
0.00429327
-0.00380123
-0.0119442
0.0338789
-0.0219346
0.0264658
-0.00814185
-0.0183239
3.83376e-05
-4.2789e-05
-0.00328817
-0.000109143
0.00339738
-0.000156884
0.000112097
4.47652e-05
-9.57571e-06
0.000234198
-0.000224623
-8.44738e-05
8.56924e-05
0.0189475
0.00360674
-0.0122249
0.00338139
0.00884345
-3.11806e-05
-4.44819e-06
-0.0324966
0.0232494
0.00924724
0.00246432
0.0184675
0.100523
-0.00564056
-0.00621305
0.00944367
-0.00323063
0.00180446
-0.000286495
-0.00151797
0.0396229
-0.0172999
0.00125533
-9.26812e-05
4.85051e-05
4.41451e-05
-0.0492415
-0.00256299
0.0518045
-0.00669382
-0.00352164
0.0020347
-0.00370822
-0.00281354
0.00014591
-0.000209951
-4.51016e-05
-0.000125182
0.000170273
-0.000787643
0.00635781
-0.00557017
-0.00590587
0.00511824
5.80139e-05
1.08482e-05
-6.88501e-05
-0.000241055
-0.0004013
0.000642354
0.0108792
-0.0064334
0.000122947
0.000969454
0.000538386
0.00178599
9.43581e-06
0.00796159
-0.000163057
-2.08315e-05
0.000183895
0.0224466
-0.00723374
-1.22578e-05
0.000280309
-0.000268019
-2.75526e-05
-5.12985e-05
7.882e-05
0.0116942
-0.00056695
-0.0111273
-5.58061e-05
9.35485e-05
-0.000173519
6.12362e-06
0.000167395
-0.0283278
-0.00460231
0.0329302
2.17736e-05
-0.0169838
0.0253765
0.00125104
-0.0266275
-0.0827511
0.0834059
-0.000654784
0.00132322
-0.00268832
0.00223091
-0.0134606
0.00580519
0.00765531
3.38404e-05
6.17005e-05
-2.19536e-05
3.97076e-05
-1.77474e-05
0.00236244
-0.00457018
0.00232491
0.0022453
-5.51781e-05
3.59682e-05
1.92094e-05
0.0236748
0.0161193
-0.0187215
0.0026023
-0.000166548
-5.37605e-05
0.000105119
-5.13814e-05
4.76183e-05
-0.00245149
-1.00258e-06
-3.7388e-05
0.00245662
0.00170796
0.00143769
-0.000343409
-0.00109428
-0.028271
-0.0114468
-3.96216e-05
-0.00136306
0.0014027
-0.0282516
0.000373152
-0.001222
0.000848841
-0.0273124
-0.00518431
-2.68914e-05
-9.88207e-07
-0.000613283
0.000162009
0.000451275
-0.0852353
-0.00967648
0.0949118
-0.000947361
0.000865036
-0.00673898
3.34387e-05
-3.5022e-05
1.58219e-06
0.00087302
-0.0159834
0.0151104
-0.00592394
0.00197939
0.00394454
0.000182942
-0.00013489
-0.000179589
0.000119448
6.01748e-05
-0.00948613
-0.00371601
-6.96292e-05
0.000208066
-0.000138431
2.45332e-05
4.80934e-05
-7.26223e-05
-9.98955e-06
9.27705e-06
7.09349e-07
0.000151471
-0.000161048
-0.00584675
0.00528228
0.00356515
-0.00884742
1.44083e-05
-5.4559e-05
-0.0195661
-0.00306626
-0.0199767
-0.00146262
-0.00013745
0.00160005
0.0133454
0.015986
-0.00019183
5.20134e-05
-0.00527572
0.00313941
0.0021363
4.2261e-05
0.000155039
-0.000197302
-3.39106e-05
-0.000505326
0.000539235
-0.00767485
-0.0182713
0.000166698
-5.48857e-05
-0.000111806
0.0196205
-0.00522356
-0.000151731
-0.000202651
-0.00783763
0.0114674
-0.00362978
0.00914802
-3.46351e-05
-2.05431e-05
7.61433e-06
-1.80791e-05
2.69082e-05
-0.0569
0.049249
0.007651
0.000144351
-0.00160698
-0.0415045
0.0242347
-3.09226e-05
0.000110359
-1.67162e-05
-2.24727e-05
-0.00027341
0.000203782
2.95951e-05
-7.4673e-06
-2.21272e-05
-2.24191e-05
3.9582e-05
-1.71607e-05
1.39526e-05
1.56397e-05
-9.81923e-06
-0.0100038
-0.00783598
-0.0199972
0.0986395
-0.0786423
-2.72308e-05
1.94504e-05
7.77782e-06
0.0015457
-0.00117256
-0.0296794
0.00456623
0.000194836
-2.7394e-05
-0.000167451
-9.46232e-06
1.47266e-05
0.00891417
-0.0167518
0.00258416
-0.00363775
-8.99871e-05
3.62151e-05
-6.89117e-05
6.97751e-05
-5.02661e-05
-1.95051e-05
0.0267675
-0.0391092
0.0123417
-0.0001592
4.62961e-05
0.000112923
0.0542664
0.000254399
0.00155006
-0.000116878
0.000137308
-2.04289e-05
0.000351794
0.00121744
-0.00850985
0.0338863
-0.000178934
0.000133826
0.0108747
-0.0167215
-0.0375429
0.0419351
-0.0043922
0.0182047
-0.00843083
-0.00516086
-0.00338462
0.00854549
-8.68003e-05
-2.82028e-05
0.000114987
-0.00250131
-0.00277438
-0.0182395
-3.96995e-06
-5.57847e-06
9.54756e-06
-0.00487909
0.00280412
0.00207494
4.82493e-05
-1.62984e-05
0.00199888
-0.000199721
0.0200699
0.00349381
-0.0179528
0.006284
-8.69511e-06
1.63064e-05
-0.0115708
0.00611858
0.00545218
0.000120919
0.0619984
-0.0813102
-7.59273e-05
-1.89608e-05
9.4885e-05
-0.00100302
0.00364466
-0.00173967
-0.0112701
0.0265608
-0.0104912
0.0148926
-0.00440144
-0.00588952
0.0370275
4.55789e-05
-5.90111e-06
-0.0342408
-0.0117248
0.0459657
-0.000136498
0.000228849
-9.23477e-05
-0.00190349
-0.000171589
5.20512e-05
0.000119538
-0.00585969
0.00313272
2.27318e-05
0.000182832
-0.000227235
0.000233346
-2.58518e-06
-0.00040031
0.000402869
-0.00235808
0.00187349
0.000484611
7.74808e-05
-0.000108412
-9.62237e-05
3.78279e-06
-2.86358e-05
2.48511e-05
-0.0001665
4.9369e-05
0.00011713
1.31903e-05
0.000100591
-2.05872e-05
-8.00049e-05
0.0010065
-0.00264461
4.11877e-05
4.38831e-06
1.48979e-05
-0.0243816
0.0511491
-7.47255e-06
-2.13082e-05
0.0157619
-0.00669445
-8.87101e-06
-4.66658e-05
0.000215249
0.00029521
2.50298e-05
0.00587574
-0.0119755
3.89376e-05
-4.23036e-05
3.36565e-06
0.032036
-0.00549952
-0.0265365
-0.00281841
0.000804506
0.00201389
0.00855437
0.0325276
-0.0410821
0.017724
-0.0123039
-0.00542008
-0.000140731
2.38583e-05
-2.21403e-05
-1.02674e-05
-3.7175e-05
6.18039e-06
3.09925e-05
-9.97398e-05
-6.67603e-05
-0.000156334
0.000143193
2.26143e-05
-0.00010941
8.82055e-05
-0.000150232
6.20173e-05
0.00503444
0.0374887
-3.86983e-05
0.02815
-0.0441847
0.0160347
-0.0293556
-0.111549
0.0117075
-0.0108345
4.06463e-05
-1.70958e-06
-2.18543e-06
-3.4989e-05
0.00292924
0.0268758
-0.0853812
0.00562294
0.0797583
-0.0748341
0.0286196
0.0462146
-0.0345905
0.0343076
0.0443223
-0.0153592
-0.0289631
-0.0149169
-0.000810002
-0.000976814
0.00178683
0.0440129
-0.015863
0.000117949
-7.92723e-05
-3.86981e-05
4.23428e-05
2.31016e-05
-3.65114e-05
-0.000165663
-0.0133996
0.0135653
1.45102e-05
0.000180323
-0.000179099
2.24069e-06
0.000176837
0.000356831
-0.00319368
0.000795302
-0.00045661
-0.0361477
-0.0207524
-3.9069e-05
6.36026e-05
0.0159507
-0.00660619
0.00693662
-0.0190479
0.0276022
-0.0150728
0.00916563
-0.00966991
-0.00255496
0.048168
-0.046386
-0.00108944
0.00209593
8.25861e-05
3.53512e-05
-7.13317e-05
0.000279388
-0.00242608
0.00283838
-0.000412291
0.0097508
0.0138849
-0.0236356
-0.0248253
3.44029e-05
-1.27306e-05
-2.16741e-05
5.58073e-05
-3.30853e-05
-0.0350714
-0.0543697
0.0894411
-0.00340773
0.00266916
0.000738564
-0.0268473
-0.00891238
-2.1485e-05
4.19888e-05
-2.05131e-05
0.0141071
0.00361692
-3.02804e-05
2.76733e-05
0.00461714
0.0641874
5.10998e-05
-0.000176285
-1.19791e-05
4.62013e-06
7.35683e-06
-6.86816e-06
5.33158e-06
1.17241e-05
-5.66452e-05
4.49247e-05
-2.20823e-05
0.000121875
-7.76796e-05
0.000100293
-0.000129499
0.00018058
0.000351209
0.0208195
-0.0110688
-1.10686e-05
-9.10134e-07
-0.0210889
0.0105977
0.000297142
-0.00836526
-0.0050953
-0.00561476
-0.00945804
-0.0654904
8.92828e-06
-1.5796e-05
0.000106015
0.00369141
-0.00379744
-0.0364729
1.01162e-05
9.70708e-06
0.0579223
-0.0253947
-0.000103023
1.70711e-05
0.000120032
-0.000157995
3.79632e-05
-0.00107581
0.00037496
0.000700854
2.03224e-05
1.40802e-05
0.00320488
0.0198548
-0.0230597
-0.000123161
9.20141e-05
3.11438e-05
1.67444e-06
1.56386e-05
0.0153721
-0.0155378
-4.7584e-05
-5.54362e-05
-0.0017439
0.00124733
0.000496546
-9.92745e-05
2.16089e-05
-0.0166569
0.0676019
3.343e-05
-1.30504e-05
-6.49857e-05
0.000165576
0.00126385
-7.19748e-05
-0.000803703
0.000117774
-0.000437253
8.83806e-05
0.000348879
-0.000191637
-4.90949e-05
-2.78374e-05
7.69704e-05
-0.0234587
-0.0378986
0.0613572
-0.000667066
0.000669223
-2.17042e-06
5.0784e-05
-7.45301e-06
-4.33299e-05
3.14978e-05
-6.38577e-05
3.2357e-05
2.24181e-05
3.33971e-05
6.92604e-05
3.20989e-05
-0.00010135
0.0138122
-0.0116229
-0.00218931
-0.0018462
0.00399
-0.00214372
0.00828672
-0.0154774
-0.000119324
5.15582e-05
6.77448e-05
-9.62167e-05
6.86578e-05
-0.0333114
0.0464617
-0.0131504
9.00689e-05
-0.00797466
-0.00359611
0.0060443
-0.00383092
-0.00221335
4.02869e-05
1.04974e-05
-5.75198e-07
7.08802e-05
-7.03098e-05
-0.0182231
0.0218181
0.000418889
-0.000760229
0.000341329
0.000451084
-0.000484998
-2.71992e-05
-1.77321e-05
4.49263e-05
7.93604e-05
3.959e-05
-0.000197351
-5.34608e-05
0.000489227
-0.00043577
0.0206806
-0.0174757
-0.00102835
0.000845084
-0.000426471
0.00298346
-1.40233e-05
9.15057e-05
0.00259899
-0.0366916
0.0340926
0.00179562
0.00501551
-0.00681107
0.00433063
-0.00136087
-0.0029698
-7.6727e-05
-2.72762e-05
0.000104
-0.0345178
0.00767043
-0.000170348
0.00181261
0.0201804
-0.00767971
-0.0125006
0.000294177
-0.000414552
0.000120379
-9.49269e-05
-2.43994e-05
-0.0495161
0.0260574
4.01647e-05
7.68661e-05
0.00314721
-0.0417882
0.038641
0.00227233
8.24345e-05
-0.00235475
0.0173975
-0.0123631
-9.27914e-05
1.68615e-05
-3.31009e-05
1.42032e-05
5.12225e-05
-3.457e-07
-0.000323811
-8.26468e-05
3.17869e-05
-3.92055e-06
-0.000135166
-5.22741e-07
0.000135676
-0.0110603
0.0672249
-0.0561647
0.0416506
-0.0583075
-0.000171655
-1.6926e-05
0.000188589
-0.00508579
-0.00362695
0.061749
-0.0485679
-0.0131813
0.031283
-0.0410443
0.0097613
-0.104043
0.0151304
0.088913
-0.00429116
0.0113544
-0.0134962
0.00214178
1.03987e-05
4.1074e-05
-5.14699e-05
-0.0836238
0.0679884
0.0156354
-4.90202e-05
-0.00833512
-0.000672661
0.00900778
0.00237679
-0.000104476
0.0300711
0.0278512
-2.61961e-06
1.27348e-05
7.75792e-05
-8.33242e-06
-0.000182732
0.000111415
2.36601e-05
5.97507e-05
-8.34109e-05
-0.0257941
-0.00872366
0.00115119
0.0416454
-0.0615487
0.0199034
-7.12105e-06
-1.27927e-05
1.99102e-05
-0.00167931
-0.00172843
-0.000485701
0.0160265
-0.0155408
-0.000445917
0.000698632
3.83621e-05
0.000986151
-0.00101047
2.4304e-05
0.0776134
-0.0580712
-0.0195422
-0.00206788
-0.043477
0.0455449
-0.0873374
0.00195626
-0.0060253
0.00926572
-0.0032404
3.56137e-05
-0.0136906
0.0132049
6.70555e-05
-8.10843e-05
0.00780297
-0.0149491
0.00264523
0.0175572
-0.00298193
-0.00362425
-0.000984464
0.0140087
-0.0130242
0.0148195
0.00565975
-0.0204793
-0.01102
-0.0116909
1.95712e-05
-7.61338e-06
0.00174805
0.00429625
-0.00814948
0.0166359
-0.00848649
-0.026324
0.0377377
-0.0114137
-0.00438951
-0.00405132
0.00844087
0.166698
-0.0495048
-0.117193
-0.00427954
-0.0997637
-0.0111037
0.0101193
-0.019854
0.0171624
0.00269167
0.0137216
0.00645868
-0.00049938
2.82372e-05
-0.000494322
0.000466111
0.000186673
-0.000164626
-2.20586e-05
0.0747408
-0.085801
-0.00762189
0.0102916
0.00865587
-0.000238524
0.000286587
-4.80756e-05
0.00476179
0.0065926
2.43983e-05
-2.06165e-05
-8.27586e-05
-4.79914e-05
7.16518e-05
-0.000529524
0.000731194
-0.000201644
1.73876e-06
-0.000100475
9.87358e-05
0.0110592
-0.00800425
-0.00305508
-0.000190421
1.87663e-05
0.0387363
0.0116069
-0.0503432
1.43268e-06
9.207e-05
3.19283e-05
3.78434e-05
-9.59851e-05
7.53951e-05
0.0160662
0.00133127
0.0120251
0.00471535
-0.000291833
0.000140152
-0.0257288
3.32616e-05
0.000153401
-8.05179e-05
-0.0374624
6.64816e-05
-8.46841e-06
-0.0147334
-0.00171395
0.0164474
-6.33552e-05
0.000552576
2.98708e-06
-3.33173e-05
3.03226e-05
-9.57571e-06
-5.62867e-05
6.58559e-05
-0.00054494
-0.000298601
0.000843559
0.0578077
0.00394127
-4.45843e-05
5.49805e-05
0.000307458
-0.000155989
0.00929069
0.0277954
-0.0370861
-0.0285165
0.0469286
-0.0184122
-0.00367581
-0.0110576
-0.000169125
0.000125889
-9.43901e-05
-0.0798882
0.0301352
5.49998e-06
-2.792e-05
-0.000155308
0.00553733
1.02937e-05
-0.000106281
0.00920025
-0.00293865
-0.00626157
-3.17813e-05
7.72976e-06
2.40464e-05
-0.000156111
-0.000117799
0.000273896
0.00626955
-0.00193893
0.0479092
-0.0166262
-0.000131425
0.000166661
-0.000224308
5.76486e-05
0.00325918
-0.00900554
0.129497
0.0372003
0.000128237
-9.23396e-05
-3.59055e-05
-1.93434e-05
-1.24403e-05
-0.000924821
0.000379876
-0.000151349
4.14406e-05
0.000109905
-0.00881119
-5.2396e-05
4.28224e-05
0.00710539
0.0222208
-0.0293262
-2.40294e-05
2.70156e-05
-0.00540843
-0.00954062
-0.0230253
0.00602779
0.0169976
3.39637e-05
0.00126431
-0.00129826
0.000443128
0.000171548
-0.000614687
5.66771e-05
-4.49568e-05
-3.38175e-05
1.65309e-05
1.72873e-05
-0.00268998
-0.0156256
0.0543618
0.0158058
0.00618596
-0.00462259
-1.78145e-05
-0.000931432
-9.69171e-05
-9.33074e-05
-1.61506e-06
0.000119572
5.57957e-05
-0.000175379
0.0024521
-0.00847741
-6.1206e-05
6.35958e-05
-2.39277e-06
0.0152533
-0.0238606
0.00860731
4.33188e-05
5.02315e-05
-9.35399e-05
-5.58221e-05
-5.38492e-06
-0.0139243
-0.00592971
-5.20631e-05
3.14769e-05
2.05902e-05
-5.70188e-05
0.000100336
-0.0124805
-0.0105448
7.15648e-05
-9.29511e-05
2.13868e-05
-0.000469009
-0.000144273
9.34645e-05
-0.000555565
6.49534e-05
0.00318299
0.00209928
-8.60027e-05
0.000529127
-0.000328338
0.000264984
-0.0116076
0.00644668
-4.00052e-05
1.2803e-05
-0.0158499
0.00629724
0.00955264
0.0599422
-0.0383231
1.02163e-05
9.2341e-06
-1.94479e-05
0.0881986
-0.00146753
0.000859277
0.00060826
-0.000124185
6.12967e-05
6.28651e-05
-0.011536
-0.00836742
0.000671698
-0.00252947
-0.00298653
0.000236476
-0.000564997
-7.67673e-05
-8.12272e-05
0.00289166
-0.00277085
3.16964e-05
-3.19059e-05
5.86085e-05
-0.000181767
-0.000129069
-0.000178402
1.69582e-05
-5.58587e-05
3.88841e-05
-0.0100179
0.00161156
0.00840635
0.0537324
-0.0558003
0.000854941
-0.000178291
-0.000676636
-3.79186e-05
-1.8789e-05
-0.00207913
0.00203951
-0.0038713
-2.0458e-05
0.0273311
-0.0429566
-0.000655799
0.00103284
-0.000377017
-0.00262721
-0.00444165
0.00706883
-6.95301e-05
0.000112728
-4.32082e-05
-1.48174e-05
-7.84894e-05
0.00308844
-0.00529682
0.00220844
-0.00723049
-0.00573161
0.012962
0.000536611
0.000318331
7.24448e-08
4.81505e-06
-2.26611e-05
-0.000108468
-4.84138e-05
-0.0588783
0.0103104
2.97293e-05
-5.05744e-07
0.000629071
-0.000438349
0.000134758
-0.000790564
7.02931e-05
0.000237164
0.0067835
-0.0049879
-9.24229e-05
-7.07514e-05
0.000163169
1.1027e-05
0.000416135
-0.000387912
3.75435e-05
1.85252e-05
-0.0266929
0.0359836
-0.00790381
1.19584e-05
-0.000148454
-0.0233317
0.0191941
0.00413761
-4.36355e-05
-0.00821056
0.0106627
-0.00169705
-0.00112138
0.000129427
7.06223e-05
0.000288139
6.49652e-05
-0.0447726
0.00941425
0.0353583
-4.12744e-06
1.98594e-05
-1.57335e-05
1.76204e-05
-2.17493e-05
0.00151173
0.000487144
6.35683e-05
-0.000219675
0.00308339
-0.0118961
0.00881277
-1.10153e-05
-1.62165e-05
0.0161019
-0.0050427
-9.02777e-05
0.000100571
-0.000344456
1.61181e-05
-4.10757e-05
-0.000110257
0.0126701
-0.0302791
-4.76187e-05
9.69497e-06
-0.00378585
-0.0365635
0.0403493
-0.000234282
0.000203998
0.0152873
-0.013597
-0.00169029