/*--------------------------------*- C++ -*----------------------------------*\
| =========                 |                                                 |
| \\      /  F ield         | OpenFOAM: The Open Source CFD Toolbox           |
|  \\    /   O peration     | Version:  v2012                                 |
|   \\  /    A nd           | Website:  www.openfoam.com                      |
|    \\/     M anipulation  |                                                 |
\*---------------------------------------------------------------------------*/
FoamFile
{
    version     2.0;
    format      ascii;
    class       volScalarField;
    location    "100";
    object      ddt0(k);
}
// * * * * * * * * * * * * * * * * * * * * * * * * * * * * * * * * * * * * * //

dimensions      [0 2 -3 0 0 0 0];


internalField   nonuniform List<scalar> 
18232
(
0.00234498
2.28301e-07
5.40045e-09
-8.49416e-08
1.1814e-06
3.59494e-06
-2.65126e-08
-2.73937e-09
7.78019e-07
1.29271e-06
-9.76115e-09
-1.46927e-06
2.12763e-07
0.0011828
-1.17751e-06
5.53319e-06
-2.89092e-09
3.52347e-10
4.70895e-08
3.37145e-06
-2.55473e-05
-2.11537e-07
9.35073e-09
2.10663e-07
-6.74704e-07
-9.56345e-08
-1.0283e-08
1.16153e-05
2.33505e-10
9.83548e-08
7.55851e-10
-0.000923328
3.09663e-08
-0.0303715
0.00166237
-2.91486e-05
-0.00013566
6.50655e-09
-2.52359e-05
1.11061e-08
-0.0211151
-1.13474e-06
-7.46258e-06
0.00146233
1.83212e-09
8.52206e-05
1.43858e-07
-9.1862e-07
-4.65388e-07
3.40442e-08
-1.7807e-08
-1.45248e-10
0.0107571
2.08776e-07
-3.84037e-07
3.1131e-06
3.06595e-08
6.48402e-08
0.000110971
2.04459e-08
-1.46879e-06
3.77391e-09
-1.01561e-06
-8.45781e-08
-2.05033e-06
2.61154e-07
0.00725273
-0.00436255
1.00171e-08
-2.33502e-06
3.67658e-08
-2.63074e-08
-0.000618422
-1.56194e-06
-9.48017e-06
-9.58866e-06
-7.74362e-08
3.86221e-08
0.000416432
2.31429e-08
-0.00744339
-2.26739e-07
-1.86548e-06
6.10195e-07
0.00139843
2.44414e-06
-4.65223e-08
-1.63155e-08
6.2668e-07
-8.85537e-08
-4.90214e-08
5.61445e-08
1.71901e-09
-3.79515e-06
-3.63594e-08
-1.79943e-06
-4.6624e-08
1.68395e-07
6.386e-05
2.77584e-07
-4.73892e-07
4.68836e-07
-9.92428e-06
2.75557e-07
-5.02773e-05
-7.46677e-07
1.36669e-07
-2.91099e-06
8.12487e-11
-1.81198e-06
2.8312e-07
6.06737e-06
1.39583e-07
-3.5592e-08
-3.18542e-09
1.32132e-06
1.38198e-06
0.000212417
-5.56299e-07
2.44269e-07
2.98121e-08
6.08418e-10
-1.14056e-05
5.70807e-05
-0.000677504
-7.28199e-06
-5.46795e-06
5.26172e-08
-5.93681e-05
4.55535e-06
1.55944e-07
1.25884e-08
-1.01217e-06
8.58419e-08
0.012376
-2.58232e-06
1.60855e-06
2.41246e-08
1.03232e-07
0.000696057
3.21624e-07
1.95521e-07
-0.00963071
4.46422e-10
-1.31556e-07
-2.31878e-07
-1.6046e-06
-7.14307e-10
0.00243151
-4.85936e-06
4.28362e-05
-1.40037e-06
-1.36794e-06
-3.20498e-08
-1.12405e-06
-0.0319966
-6.37272e-06
-1.28906e-06
-1.89707e-07
1.08596e-07
4.39755e-08
5.78224e-08
2.59625e-08
0.0080187
0.00222225
3.25156e-08
-2.75571e-08
-0.0098873
5.73895e-07
0.00121017
1.79858e-07
-9.35915e-10
-5.49469e-08
-9.67509e-08
1.83302e-10
0.000818491
5.82733e-07
8.90744e-11
0.000277336
4.56414e-09
1.25865e-05
-6.74186e-05
-1.89791e-08
-7.29873e-06
0.00082816
-9.69824e-10
2.23446e-07
0.000415414
9.68597e-09
0.000757425
7.72039e-08
-5.94669e-08
1.27478e-06
0.00163933
3.66943e-09
8.99022e-08
1.01602e-07
-4.00992e-08
-1.17998e-08
1.31102e-07
1.6545e-10
2.38206e-06
7.2495e-07
8.49985e-06
-3.81354e-06
8.40723e-05
-1.16563e-06
-0.00474973
7.27504e-06
-2.01756e-06
6.92241e-08
-7.1046e-07
-3.92791e-07
-3.63671e-05
7.59251e-05
1.29143e-06
-1.72711e-06
6.94471e-08
1.07232e-07
1.11329e-07
0.00114444
-7.30772e-09
-0.000528006
5.05418e-07
-9.79448e-09
2.81095e-07
-5.2785e-07
1.67614e-07
1.93545e-08
4.08044e-08
3.6524e-08
2.10262e-07
-0.00138985
-4.96936e-07
2.95886e-08
9.78481e-05
2.58356e-07
-5.89135e-06
2.1977e-08
-4.71718e-10
5.43723e-08
-0.000570208
1.8206e-06
-1.85186e-07
0.0010981
-1.85186e-05
9.1639e-12
-0.00150945
-0.00369469
2.46371e-07
-3.00738e-06
2.78797e-07
2.6836e-07
7.23283e-06
6.24853e-08
9.05162e-06
4.82582e-06
7.69957e-05
0.000389476
1.11456e-05
2.9864e-07
-9.79017e-07
6.91199e-06
7.08734e-10
1.91038e-07
1.26473e-10
0.000836846
7.324e-07
1.92961e-06
1.20849e-05
7.77882e-08
-0.0284291
-6.2135e-07
-1.11501e-10
2.43761e-07
-0.000690169
-5.71673e-07
1.28216e-08
-6.14482e-10
3.98771e-05
0.00283876
5.34716e-07
4.64042e-07
0.00203884
-3.35527e-06
1.56185e-07
-1.94262e-07
0.00180653
-1.36177e-06
5.47946e-07
-7.96302e-08
1.21367e-07
0.00111396
-8.97351e-07
-1.36103e-06
4.09491e-06
0.00202529
-7.39968e-09
9.24507e-10
9.94851e-07
8.17923e-08
-9.53193e-11
0.00163592
-2.82774e-06
-5.1933e-11
5.53817e-08
-4.79948e-06
-7.0686e-07
-2.94271e-09
0.000827114
7.90091e-08
2.14249e-08
-5.90863e-06
5.15836e-08
4.59432e-07
-3.74704e-07
0.00210684
8.25412e-08
0.000114759
-3.74954e-09
-0.000418794
5.60596e-07
-4.68928e-06
-2.32235e-06
4.16579e-07
-9.73155e-08
-4.48038e-06
5.57612e-08
-8.13459e-07
-2.0832e-06
-2.15907e-06
-8.74366e-08
1.42561e-08
0.000278015
2.76436e-06
0.0109665
1.96017e-05
0.00187794
-7.33217e-08
-1.9636e-06
3.05603e-08
-6.50048e-06
7.41512e-12
-1.78532e-11
9.76824e-08
-2.51692e-06
0.000917184
7.34204e-07
-4.29834e-06
2.55836e-07
1.35688e-05
5.53252e-07
-1.68481e-07
1.91607e-07
-2.89763e-06
6.93702e-07
-1.85594e-06
0.00105235
3.52424e-09
2.40838e-08
2.12592e-07
-7.08552e-06
0.000159939
3.11273e-07
0.00606847
4.95382e-07
4.48431e-07
0.000720866
-5.38549e-07
0.00851879
2.96669e-05
-1.70239e-05
3.1915e-08
-0.0916528
1.31319e-07
2.84118e-07
7.52856e-08
-5.33404e-09
7.74707e-06
-0.00243029
6.99573e-07
-2.68307e-06
1.67418e-09
-1.49926e-07
-0.00444465
-1.25716e-06
4.83177e-08
-3.23803e-09
4.13221e-08
-1.87805e-07
1.65459e-07
-5.50905e-07
0.00266693
-1.79762e-06
-0.000287761
3.61618e-07
5.73483e-06
-2.58461e-08
-2.0686e-06
-6.05877e-09
1.05113e-05
2.93139e-05
-1.69905e-06
1.91232e-05
-3.9658e-06
5.58577e-09
2.48092e-06
-1.89923e-10
-8.15102e-08
-2.59594e-05
-0.000349971
-0.0735793
2.13186e-07
-3.16279e-07
7.44518e-05
1.04836e-05
4.53436e-09
1.80341e-09
0.000547001
6.6714e-08
-9.05874e-08
8.68131e-07
-3.18739e-06
2.08313e-07
-0.000591581
4.08184e-07
-1.10959e-05
-7.70286e-07
5.02136e-07
3.12544e-06
6.32778e-08
3.26754e-06
0.000881345
1.67716e-08
1.29116e-07
2.22982e-08
-3.49239e-09
5.88422e-08
-2.46551e-07
3.93243e-08
7.60992e-07
-2.26579e-06
0.00190752
-3.93812e-06
-1.05462e-08
-1.90447e-06
6.0596e-07
-1.15293e-07
9.98509e-07
-5.63946e-07
0.0025499
-5.05633e-08
5.49693e-08
1.69328e-08
2.51143e-05
-5.65663e-08
-0.0158529
1.6384e-09
1.62927e-06
1.81133e-07
2.69326e-07
6.37137e-06
3.74212e-07
5.30979e-06
7.88783e-08
9.47579e-08
1.43761e-07
-5.28174e-07
-4.00729e-07
2.53678e-07
5.87755e-09
0.00140039
-3.87937e-06
-1.94015e-06
-5.24581e-07
-4.34801e-07
-1.86412e-07
3.86821e-06
0.011512
-4.62252e-08
-3.97657e-06
-8.75774e-08
2.49111e-08
-2.60366e-06
2.64783e-08
6.189e-07
-3.97514e-08
5.42514e-07
0.00197083
-1.14512e-06
2.56167e-08
-1.59357e-05
-4.75515e-08
-8.11915e-07
-4.96995e-06
-1.75798e-06
4.52472e-08
4.71084e-05
-1.21125e-05
-3.47503e-09
8.14503e-09
3.99678e-08
5.46351e-08
1.24497e-06
0.000988598
-7.52682e-07
9.15553e-10
9.31493e-08
-1.19057e-08
-1.3323e-07
0.00027154
6.77839e-08
-7.68154e-07
-0.000215404
5.11377e-08
3.54152e-09
1.06071e-07
-7.12487e-06
-1.58725e-07
2.25019e-07
-4.35374e-08
2.09288e-07
-5.57434e-07
-0.00281646
0.00478899
5.96065e-07
2.48623e-07
6.93675e-09
2.96177e-07
0.000838568
2.43503e-08
-6.62297e-06
4.52643e-07
-4.14012e-06
0.00588084
-2.30655e-08
-4.52273e-06
1.27133e-08
-0.0229402
-2.51144e-06
1.73427e-08
5.46803e-07
-7.35547e-09
5.50645e-08
-3.2233e-09
-8.3322e-07
0.0022227
-3.36358e-07
-5.7318e-08
2.4876e-06
-6.61805e-06
8.74579e-08
-1.95606e-07
2.71021e-08
0.00162767
0.00648491
3.35836e-07
-2.90765e-07
-5.09355e-09
-4.38538e-06
3.68434e-05
1.27958e-11
1.92153e-08
4.87607e-11
2.38549e-06
1.24322e-08
3.90874e-08
7.77068e-06
4.21002e-06
-7.68669e-06
-2.92324e-09
1.19513e-08
0.000702656
1.02009e-07
1.84021e-07
-1.43338e-07
-0.0114909
-6.96367e-07
-1.47484e-05
-4.39454e-08
1.4541e-06
-1.50813e-08
0.000220548
-1.25996e-06
1.98342e-10
-5.93679e-06
-1.44769e-08
-1.21721e-06
-0.00418246
0.00417988
9.16113e-08
-1.06357e-10
6.53459e-06
-3.91665e-08
0.00060222
2.33183e-07
-1.13251e-07
-0.0160641
0.000998719
1.8838e-07
2.79568e-07
1.60917e-08
-0.00532292
-7.65937e-07
4.67667e-08
-6.62269e-07
2.05013e-08
0.000978187
-1.96467e-10
4.24412e-06
1.44128e-07
-5.60878e-08
-1.12084e-07
-1.02898e-06
5.41424e-07
5.15557e-09
1.54852e-08
0.00349753
3.53325e-09
4.83754e-08
1.26377e-08
8.15989e-10
-5.99439e-05
0.00346126
-2.32836e-06
3.58937e-06
1.65619e-06
0.0256614
4.14378e-08
-6.77995e-08
-4.27299e-09
-1.13479e-07
-1.06202e-07
-2.40156e-08
0.000101412
0.00434178
0.00136735
0.00073813
0.00183696
-1.81445e-06
-2.12247e-06
-1.44995e-06
3.0116e-11
-2.18477e-08
3.10274e-07
6.52134e-06
1.69334e-06
0.0261379
9.12533e-08
-2.29662e-08
0.00381516
-1.91634e-07
9.59158e-07
-2.43907e-07
-0.000288271
-3.82618e-06
4.71277e-08
-1.59557e-05
-1.27155e-06
-6.87163e-06
4.59323e-08
1.4963e-07
-1.23528e-07
-4.05289e-06
2.63415e-07
-5.13592e-06
9.49268e-07
-6.62746e-08
1.56905e-07
1.63432e-07
3.00151e-09
-0.00349054
-1.98136e-05
1.57151e-07
0.000812372
5.63404e-06
0.00106964
-4.24729e-06
-9.2484e-09
0.0325416
-5.77813e-07
6.60155e-08
0.00237774
-4.83926e-08
5.00032e-08
-0.000445417
-2.0778e-06
-9.56259e-08
9.91671e-07
2.89515e-05
-1.02476e-07
-2.98964e-08
-1.09436e-05
-2.98196e-05
-6.7414e-07
-7.88096e-06
0.00164471
3.76566e-07
-1.51882e-06
-0.000621293
-5.67707e-07
0.00243015
-1.93557e-06
-0.00134275
-1.6081e-06
-4.45157e-08
0.00274784
-3.47515e-10
2.51152e-09
-5.35717e-08
-0.00353488
1.65313e-07
1.6716e-08
-0.000479543
4.86818e-09
-4.23451e-07
-2.14839e-06
0.0059674
-2.44864e-06
2.82569e-06
2.32496e-08
1.48773e-07
-3.58235e-08
0.0124299
-1.46232e-06
0.000506112
2.36356e-10
3.27399e-06
1.61094e-11
-9.2541e-11
6.50637e-07
-8.03456e-09
2.24361e-07
1.41989e-07
6.03195e-07
-3.17374e-08
-0.00355175
-8.16711e-09
-5.7947e-07
0.000869505
-1.62401e-06
0.00580843
1.64738e-07
1.27776e-05
-0.034
7.22707e-08
-0.00266745
3.15565e-06
-0.00193158
-6.83238e-06
-0.000113125
3.50217e-09
-9.6203e-08
2.12127e-07
2.83128e-06
0.00125048
3.13255e-05
2.15489e-07
1.90554e-08
0.00117033
-0.0156962
4.85474e-05
1.00913e-08
-6.17392e-07
-1.34435e-07
3.19529e-07
0.0117598
6.41899e-07
0.00270976
-1.6238e-07
6.60691e-07
-0.00662472
7.61612e-05
-1.44627e-07
-3.62477e-08
-2.09787e-06
-0.000672063
-1.06172e-06
7.3165e-08
-1.61604e-06
3.02283e-06
-8.85012e-07
-2.50566e-07
-4.45437e-06
4.21374e-10
5.42633e-10
-5.5186e-06
1.31339e-06
0.00150887
6.00681e-06
1.74768e-06
-5.34083e-06
-0.000162782
6.01527e-08
-1.72224e-06
1.07224e-06
-0.000170691
1.96088e-07
-1.40219e-06
0.00350545
1.71428e-07
-0.000137681
-3.63176e-08
4.86008e-10
1.92279e-07
-8.84321e-08
9.45818e-08
0.000640196
-9.94124e-07
-3.39748e-07
-0.000567484
-1.17843e-06
0.000295575
0.00581723
-1.86135e-06
-1.28534e-05
1.36307e-05
6.22633e-08
-6.83816e-10
2.31391e-06
0.0114709
-1.11486e-06
-1.52505e-06
-8.05627e-06
-1.99929e-07
1.05307e-07
2.34794e-08
0.00882928
-7.41899e-09
-1.77629e-05
-1.35777e-06
4.91524e-09
-0.00232384
-1.38706e-06
-0.00506357
-5.78352e-08
2.82979e-07
-6.05384e-08
-9.89738e-06
1.40434e-08
-1.01484e-06
-5.34366e-09
0.0323908
-1.32581e-08
7.1034e-06
-3.66851e-06
4.25456e-08
-1.04372e-08
5.74058e-08
1.33472e-06
9.21076e-08
7.34854e-08
-0.00011409
0.00506691
-1.75546e-07
-1.23987e-05
-2.50782e-09
-4.19349e-08
-1.55117e-07
1.75048e-08
3.58407e-07
1.23614e-06
-4.61255e-07
1.27554e-06
3.20793e-10
3.92598e-07
-1.20402e-06
1.52516e-08
0.00030377
3.01956e-06
-5.81108e-11
4.07833e-09
7.79953e-06
0.00393534
1.13452e-07
-0.00140463
3.06453e-05
6.78246e-08
-7.67002e-10
0.00226299
6.72267e-05
-1.50457e-06
-5.20842e-06
-6.82403e-06
-2.859e-08
-7.04801e-05
-0.00207111
-0.0013589
3.14447e-07
-3.50578e-07
2.48243e-05
2.8727e-06
3.6401e-09
-1.49977e-06
-6.61219e-06
1.79375e-05
5.09384e-08
1.52829e-08
-3.82049e-07
-6.8719e-08
6.3821e-10
-2.28654e-05
-4.47575e-06
-7.63335e-09
6.25028e-08
-0.00438899
-8.64472e-08
-0.0136276
-3.19112e-09
5.88185e-08
-1.35024e-06
-1.04127e-07
-8.15883e-08
9.11169e-08
8.49037e-09
-3.27754e-08
-5.92388e-10
-0.0391323
-1.27422e-09
-2.82758e-09
3.11727e-08
-4.76338e-08
0.0122765
4.43061e-07
5.25198e-07
6.42853e-08
3.27757e-06
-7.42916e-07
1.25648e-07
-8.28319e-06
-0.00196824
-4.44884e-08
1.29976e-08
-4.55599e-07
3.11465e-07
-8.65337e-09
-1.74337e-08
1.02432e-08
1.21413e-06
5.83526e-07
3.87657e-08
5.77332e-07
4.23961e-06
1.32147e-08
7.98375e-09
0.000768262
-0.000543566
-9.32728e-07
-9.46548e-07
-5.50739e-05
-2.1589e-08
-1.23378e-09
0.00217519
0.00523496
-1.97054e-07
-6.11344e-09
-2.11938e-06
-0.00385392
-1.90803e-08
-7.63713e-07
-0.0176079
0.000498312
-3.78209e-07
1.4503e-07
-1.23591e-07
0.000459724
-1.57092e-10
-2.85779e-13
-7.11699e-06
0.000798313
0.00691144
2.52082e-06
2.22713e-07
3.61636e-07
1.81312e-07
-2.76165e-09
-1.22506e-06
4.1481e-05
-5.13192e-09
-0.00597065
-4.86215e-08
-9.87209e-06
0.00333856
2.58934e-08
3.98997e-07
-4.37664e-08
-1.28369e-07
-3.60752e-08
1.82869e-06
9.81269e-11
-3.47908e-08
-2.47487e-06
-0.00131375
1.56302e-06
0.00123703
-1.13049e-10
3.40895e-07
-9.98827e-07
2.54458e-06
7.41847e-07
-0.00135832
-5.29507e-08
-4.01983e-06
-1.52898e-08
-0.000280557
-0.000280758
-2.04398e-06
-9.60164e-07
-0.000404652
-4.70498e-10
-0.00570335
-2.33192e-07
1.01315e-07
9.50405e-06
0.00210803
-0.0590018
4.65832e-07
-2.33374e-07
2.01544e-05
9.85476e-11
7.78146e-07
8.0258e-08
0.000696406
5.71388e-08
-5.58498e-07
3.44112e-07
-7.26482e-07
9.49809e-10
1.22207e-07
3.68392e-06
1.0822e-07
1.53393e-07
0.00629256
3.49538e-09
-3.96798e-08
1.52728e-07
-1.15155e-06
-1.52661e-06
2.55744e-07
3.14101e-07
3.98131e-07
5.01511e-08
-1.25735e-07
6.52823e-07
-3.65414e-07
5.53172e-07
2.37995e-07
-0.0169712
-3.53412e-08
-4.22663e-08
2.53584e-05
0.00413874
-0.00401665
-0.00099106
-0.0133545
5.96467e-07
5.94031e-09
8.4517e-10
-8.90674e-09
-2.78883e-08
1.62198e-05
0.00719128
-8.58448e-07
8.59623e-09
2.23557e-07
0.00443389
2.78399e-05
3.58844e-09
-1.18979e-07
0.00149597
-9.48326e-07
-9.48879e-07
4.60991e-07
1.91071e-09
1.09912e-08
5.64154e-07
0.00138744
2.89899e-08
-0.00481662
6.56051e-08
1.90268e-07
0.0099209
6.43227e-07
-3.72794e-07
5.82269e-09
-7.26667e-07
-3.17606e-06
-1.11271e-06
-8.17003e-07
2.49231e-08
1.39092e-07
-5.91625e-08
-0.000806777
1.49616e-06
2.07778e-07
-6.89773e-06
3.72948e-07
-3.46276e-08
2.82875e-08
4.68202e-08
-9.52725e-07
-2.81634e-08
-8.37863e-08
-1.15251e-07
1.69577e-10
-2.08607e-08
-3.20857e-08
4.56864e-08
-2.02244e-08
-6.98635e-07
1.45094e-08
-7.66336e-06
-1.17126e-07
-1.62797e-06
-6.90621e-07
-2.33775e-07
2.03264e-08
-0.00109193
2.85403e-07
-0.0030891
1.50339e-07
2.40725e-07
-1.76943e-06
1.98756e-08
-0.00432041
1.81842e-07
-7.0351e-06
0.00696907
-8.45906e-05
-1.11264e-06
-5.50769e-07
-3.1849e-08
0.0245134
5.24108e-06
6.38018e-08
6.25713e-08
-7.46463e-08
0.0178592
2.20806e-07
-0.00303113
0.00202936
3.95314e-08
5.22766e-08
9.20607e-10
0.0306112
-2.04887e-06
-1.60668e-06
1.72243e-06
-2.50272e-06
0.000132949
-8.75683e-09
-5.11049e-05
0.00941431
0.00168479
2.32269e-11
6.73205e-10
-2.30597e-05
-0.0018982
-7.11855e-06
-4.25672e-06
1.26107e-07
6.25906e-07
-2.1614e-08
-1.98903e-08
1.35067e-06
-0.0114521
3.51458e-10
-3.59666e-08
2.06061e-08
8.26287e-09
-1.79905e-05
1.23762e-07
-4.44631e-06
7.9492e-08
4.73161e-07
-1.42042e-05
4.13399e-09
-6.27953e-08
-3.13709e-06
-5.16929e-08
-1.83093e-07
1.86312e-07
0.0013529
-4.97011e-07
2.68769e-08
-1.6081e-06
-1.07501e-05
-2.88119e-09
-2.32542e-06
0.000837214
-0.000739935
-3.79303e-07
-3.4666e-07
-5.27845e-06
-7.01985e-08
-1.34906e-06
-2.85568e-08
2.15368e-08
4.1848e-09
1.41492e-07
1.56601e-07
5.5329e-07
-3.14482e-06
0.000397275
6.1915e-12
1.12747e-05
5.39739e-07
4.48957e-08
-5.17003e-07
1.17727e-08
7.15595e-07
-6.10149e-08
-6.86402e-05
-3.6071e-06
4.93748e-08
-1.17443e-07
6.33784e-07
-6.03555e-07
-4.38057e-08
-0.00405337
-4.06954e-08
-2.02878e-08
7.99987e-08
1.02003e-05
8.13749e-08
-4.52209e-08
-8.14737e-06
5.00113e-07
2.04019e-08
5.6777e-07
1.05792e-07
-2.13153e-06
-3.3389e-08
-6.63908e-07
0.00739111
-4.7326e-07
-8.33499e-07
5.00853e-08
-6.44989e-07
4.77839e-08
-4.31851e-08
3.93193e-06
-3.02072e-08
1.20828e-07
-8.4748e-06
0.0109442
-0.000269273
-4.95106e-07
4.9561e-07
-2.42326e-06
0.0058877
-4.93925e-08
1.21283e-07
-1.62775e-06
-7.81405e-06
4.12853e-09
0.00045416
-1.43057e-08
0.00317182
0.0114866
-0.000109597
0.000521858
-0.00387795
1.66626e-06
2.22631e-06
5.68981e-08
-7.07379e-08
3.66017e-07
-7.09664e-06
-1.76408e-06
-1.1913e-05
6.34947e-06
6.82178e-08
5.91063e-08
-1.14557e-09
-9.71383e-06
-1.31087e-08
-3.81827e-07
0.0033038
5.89201e-06
0.001281
2.18533e-08
-8.89288e-09
0.0100291
-0.00113145
3.43387e-07
5.18797e-08
-2.15e-05
3.65434e-06
-9.12231e-06
4.52356e-07
2.44263e-07
-1.25423e-06
5.92675e-09
1.67934e-08
0.00218929
-2.07103e-06
3.24917e-08
-0.00392642
-9.37295e-10
1.31246e-07
6.45781e-06
2.70444e-06
-4.53553e-08
-1.71795e-05
-1.44145e-07
7.09369e-07
1.24543e-08
5.03336e-05
-7.47854e-08
6.73329e-07
4.45264e-08
-7.3621e-06
-6.13458e-06
3.22939e-08
-3.8762e-08
-4.81029e-08
-1.82425e-05
-1.39251e-05
-1.64668e-06
-2.31533e-09
8.86994e-11
0.000618102
2.89682e-08
-1.04061e-06
4.86206e-07
-2.4382e-06
-5.52282e-08
5.09016e-08
-9.88667e-07
0.00102762
1.9207e-05
-1.10196e-05
1.28403e-07
-0.000523146
1.56441e-08
0.00160576
-3.13696e-06
6.15727e-09
-1.67754e-06
8.88286e-07
-2.07764e-08
-0.000147934
2.48062e-07
-8.21827e-08
-2.11827e-09
-1.31633e-07
0.00920706
-2.32472e-08
-5.2068e-06
3.80088e-07
-7.48424e-07
-2.29794e-10
3.54783e-05
1.56089e-06
-2.65184e-07
2.72512e-06
-7.14199e-06
0.000568194
-0.0119275
-2.02208e-08
0.00182388
1.51575e-07
-4.63062e-09
1.07996e-08
-1.27157e-05
8.30131e-08
-0.000326708
3.69294e-06
4.87473e-07
-0.0204117
1.28887e-07
2.06326e-07
1.02832e-07
1.81213e-05
-3.23028e-06
-3.54765e-10
1.13305e-06
5.51147e-08
2.25285e-07
5.84576e-08
1.29401e-07
6.18138e-07
1.24308e-07
-0.0757052
0.00110272
4.644e-08
2.01359e-06
-9.5445e-06
4.41112e-05
-2.14278e-09
-9.16613e-08
-1.71923e-10
-1.25815e-06
6.86243e-09
-7.83688e-06
-4.08134e-08
1.90915e-07
-5.08984e-12
-3.45572e-08
3.20886e-11
-1.34009e-07
4.51308e-08
-3.91159e-07
-2.16039e-06
2.69313e-07
-1.85534e-06
4.36467e-07
-1.52529e-06
0.00125954
1.79371e-06
4.81941e-07
-2.0306e-05
1.61541e-07
-0.000353469
-0.0334816
5.53322e-05
-1.58287e-07
3.38819e-07
2.27802e-08
6.58751e-07
-3.55087e-09
9.92082e-08
-7.87616e-08
6.53862e-07
-0.0206977
-8.92923e-07
5.96224e-08
0.00260401
8.1811e-05
-7.52963e-07
-1.53502e-05
-1.19579e-06
2.02885e-07
-1.58326e-06
-2.12393e-05
-1.14389e-06
3.23962e-07
2.79125e-07
-7.59901e-07
-5.42714e-07
1.85186e-05
3.80008e-07
3.64188e-13
6.65728e-09
7.22953e-08
-0.0461225
1.07037e-07
9.48049e-09
-2.79741e-08
0.000448158
8.84509e-10
4.52831e-07
-0.00122846
3.68855e-09
-6.56352e-08
-0.00130244
-3.29747e-06
9.86627e-06
7.62876e-11
-6.89719e-10
1.17054e-08
1.16093e-05
0.000332463
-6.82918e-07
-2.2503e-08
8.92058e-08
3.25826e-06
0.00365425
-1.85257e-07
-2.52586e-10
-4.47884e-06
0.000247937
2.02418e-07
-1.22644e-05
-2.20696e-06
-1.54709e-07
-8.83618e-08
0.000247085
0.0102026
2.90996e-08
4.14253e-07
-0.00162097
5.10589e-07
-0.000312159
-1.33417e-06
0.0106646
0.033127
6.20476e-07
1.0226e-08
-0.00466158
0.0014659
-1.68924e-07
-0.00473883
-3.81445e-05
-5.28559e-05
1.07008e-07
7.52721e-09
-4.64538e-08
-6.35374e-06
1.35338e-06
1.20648e-07
-4.52692e-06
-0.0298596
4.77014e-07
-0.0310105
4.00852e-07
2.60905e-07
3.1994e-09
-0.000242208
-7.99766e-05
-4.27941e-08
2.629e-07
1.62703e-06
-3.1461e-07
3.86109e-07
6.93274e-08
2.84306e-09
-3.60929e-05
1.73932e-07
4.55463e-08
-2.33677e-09
-1.54367e-09
1.56758e-07
-8.7458e-06
-2.31178e-06
-1.03531e-08
1.20121e-08
6.92655e-09
5.4546e-08
-1.36085e-08
1.26607e-07
1.15475e-06
1.9879e-07
1.08418e-08
0.002961
-4.25106e-06
3.92909e-07
2.27453e-08
2.52304e-05
-1.17456e-06
-1.88531e-05
-2.36961e-06
-1.82721e-06
-2.7138e-06
9.29375e-08
-5.62459e-08
-2.26643e-09
-1.82293e-08
-5.76712e-08
-0.0047872
-9.71937e-05
-6.96325e-08
2.81628e-08
8.28898e-08
8.88303e-08
2.7599e-07
-1.27109e-07
4.43207e-06
0.000111914
4.33532e-08
-0.000616721
-5.87844e-08
-4.16454e-06
-1.04187e-05
-2.74017e-06
3.6318e-08
-3.27144e-07
-8.56351e-07
1.13882e-08
2.48445e-05
-2.45793e-07
0.000833465
-1.14963e-06
2.71008e-07
0.00439486
3.26438e-08
0.000860509
-0.00438927
-1.0191e-05
2.69989e-07
-1.84682e-09
-1.03887e-07
0.00103903
-1.93007e-06
-3.94954e-07
0.00779483
-1.40085e-05
-1.22914e-06
-2.95691e-08
1.19591e-07
5.1942e-09
3.0979e-07
5.17647e-09
-1.63799e-06
-5.92778e-07
-2.3575e-06
-2.74086e-07
-1.0973e-08
0.0122747
-1.7677e-08
1.59513e-08
3.12895e-08
-5.81047e-07
-0.00146661
0.00337996
-2.90621e-07
-1.52745e-07
-3.90729e-06
1.54388e-06
2.60723e-07
0.0048836
-1.74152e-07
2.54278e-06
3.40597e-08
0.00036168
-1.79742e-06
5.60977e-10
-4.03181e-06
-2.81329e-09
3.91027e-05
1.55242e-07
3.62787e-08
-1.88135e-07
-1.02616e-12
-2.84616e-08
1.09921e-06
-2.76271e-07
1.49748e-07
1.28691e-06
-1.50778e-07
-2.56155e-09
1.98581e-07
3.62294e-06
5.50934e-07
-2.1692e-06
-3.2576e-06
0.00014754
-0.0178658
4.68208e-07
-5.96664e-05
-0.00029661
7.657e-08
1.14158e-07
-8.97722e-07
7.56489e-09
0.00296132
4.42471e-06
1.96754e-07
-4.58802e-06
2.7381e-08
-1.35182e-05
-1.95275e-06
5.05935e-09
-4.87742e-08
-8.94056e-07
-0.0122361
2.25501e-08
-0.00049991
5.47334e-07
-0.0234676
-0.000105023
6.65259e-07
0.000499901
-1.73426e-06
1.86814e-05
3.51165e-08
9.79854e-06
0.0194779
4.43674e-08
-4.79918e-08
9.85513e-07
2.57545e-07
3.00434e-07
2.19274e-07
-5.53786e-07
2.51258e-06
-7.23855e-06
5.91594e-07
4.6781e-07
7.43422e-09
-0.00601866
-1.31448e-05
1.24736e-07
-0.000250464
-3.72601e-06
-0.000396849
9.10588e-06
-9.53688e-08
-1.08389e-06
2.28837e-08
-1.93899e-07
3.98143e-05
-1.73751e-06
2.48668e-08
-3.63444e-06
-5.91824e-06
-2.64226e-08
-4.97397e-07
-4.19084e-07
-3.70651e-07
-2.88093e-09
1.61097e-08
-5.70791e-06
1.71119e-08
4.1002e-09
3.41462e-06
-2.87253e-09
4.98386e-07
2.07172e-07
-4.45975e-06
1.21056e-07
-7.33771e-09
1.18307e-05
-1.06055e-05
5.19733e-06
3.86746e-05
5.05471e-09
1.88166e-08
-0.00158601
1.43472e-07
-6.62409e-07
-8.12818e-06
1.9861e-07
5.2529e-07
2.36245e-08
-6.16507e-06
-4.27445e-08
6.13048e-07
7.98865e-06
-1.23775e-06
1.24949e-07
-3.48932e-07
-0.000222771
-2.13843e-07
5.88594e-07
0.0111534
-7.81121e-07
-4.40847e-06
3.30521e-08
2.14205e-05
7.21e-07
-0.000145465
7.96045e-09
4.87421e-08
-5.43508e-06
2.06006e-07
5.63169e-08
-0.00487541
-1.15475e-06
-9.07567e-06
1.60907e-07
-5.6747e-10
-4.78112e-05
-1.55859e-06
1.94662e-07
-0.00951493
1.05466e-07
1.09068e-06
-6.41599e-07
6.12696e-06
0.0101169
4.02418e-10
2.01966e-08
-8.64385e-08
5.63746e-09
-1.53769e-06
-2.79542e-06
0.00295044
2.82508e-08
-1.9753e-09
-3.29195e-05
4.88505e-07
5.11512e-08
-1.96895e-05
0.0039032
4.9015e-05
-1.16369e-08
1.92596e-08
3.01575e-07
5.77907e-08
-1.58349e-06
-3.12567e-06
-2.05807e-05
8.93741e-07
-0.000207554
-0.000146166
2.12069e-07
-0.0626066
2.70291e-08
5.48067e-07
-2.47874e-07
1.36635e-06
4.22258e-08
1.38293e-07
-2.14656e-06
2.85532e-06
-4.69833e-06
1.85332e-07
-1.19088e-06
7.03931e-07
-0.00197411
4.38384e-08
3.21682e-08
-0.0157775
-7.59342e-07
-9.29682e-06
1.35819e-07
4.00198e-12
0.00452094
-3.49471e-06
-0.000534686
-0.000271294
-2.27302e-07
-3.43915e-08
-5.40326e-06
2.64159e-07
-4.81351e-07
0.000151109
-3.97075e-07
4.2035e-08
1.44836e-07
-7.54766e-08
3.39333e-07
1.22219e-05
7.31329e-07
9.28654e-08
1.20833e-06
-8.9395e-07
2.33085e-07
3.06773e-06
-2.20539e-07
1.69609e-06
0.00018638
1.17275e-08
2.45806e-06
3.51664e-06
1.2441e-05
-0.00547502
2.49288e-05
0.00232374
-1.63603e-05
2.04433e-07
-0.0050046
8.13939e-08
-0.0117491
-4.81827e-06
4.78446e-07
1.02936e-08
8.89103e-09
0.00241618
-9.97082e-09
2.45765e-07
-1.31905e-08
1.81555e-07
7.1227e-07
-8.41294e-09
-1.81251e-09
-6.11212e-07
8.87506e-08
-0.00368666
-0.00103002
-2.21569e-05
5.66132e-06
1.47615e-05
-0.00122983
0.00028357
-1.22889e-07
-0.00415858
-3.60244e-05
-0.000350843
-1.34279e-08
9.36453e-07
-1.35144e-05
1.73208e-08
-0.000899536
-1.05127e-07
-0.00375498
-9.849e-07
1.09156e-07
3.77569e-06
1.40679e-08
-2.09829e-07
-3.33707e-07
-3.45836e-07
-0.000178457
1.18846e-08
1.98247e-07
-9.32767e-07
-2.19314e-07
-3.38278e-05
-1.55182e-05
-8.76651e-07
-0.000785002
1.65956e-05
6.71507e-09
0.0120821
-1.50255e-05
-0.00122045
3.37854e-08
2.14657e-06
-1.88029e-08
3.34583e-10
2.51407e-08
-5.7432e-07
5.5915e-06
3.44932e-07
1.04987e-08
-3.14968e-05
-3.52453e-07
6.41029e-07
-4.65468e-06
-5.02738e-07
-3.1281e-07
-7.46519e-06
-1.00756e-08
-2.03531e-09
-1.51738e-07
3.51665e-07
-2.63824e-06
-0.003123
-0.00186255
-4.65922e-07
4.51861e-07
0.000146975
0.0229988
-4.15682e-08
-0.0480538
3.84352e-05
1.05824e-11
4.14834e-06
3.11096e-06
0.00349422
3.06547e-07
6.66934e-09
0.0018859
-0.000144495
3.44432e-08
-0.000385335
1.74665e-06
2.0251e-07
0.000139695
7.16349e-07
-0.00414237
-2.79103e-07
5.8024e-06
-1.44001e-07
4.40402e-10
-5.40358e-08
-4.37844e-06
1.41803e-06
-1.55272e-05
-3.16034e-06
0.00738059
-3.17664e-06
0.000951407
6.28192e-06
-1.64999e-07
2.17659e-07
0.0101246
3.84008e-08
-0.00130879
3.83098e-08
0.000203275
2.86996e-06
2.80167e-06
3.08554e-06
-0.000746159
1.34123e-10
-0.000244725
9.92094e-07
1.75924e-06
1.27598e-05
-7.84659e-07
-1.58936e-05
0.00134449
-1.46455e-08
2.36997e-09
6.33652e-08
-6.38204e-08
3.9343e-05
-0.00450968
5.14106e-12
-6.2685e-06
2.3818e-06
-0.00587838
1.11646e-08
1.6557e-08
-1.46412e-07
1.07165e-06
0.000127137
-9.8764e-07
-2.06868e-05
-4.17424e-08
-4.6779e-08
-3.55702e-05
4.33687e-08
4.22267e-08
3.01052e-08
-1.85266e-06
-2.14e-09
3.3475e-07
1.37045e-07
5.54883e-09
1.92246e-06
-0.0242655
8.55944e-06
-4.2611e-09
0.0100022
-6.01602e-09
5.05557e-07
2.16922e-07
-1.30301e-06
0.000192071
-9.36435e-08
-0.0101046
3.46734e-07
-6.80381e-06
8.54812e-07
4.59647e-08
1.21548e-07
-2.04682e-06
-1.51483e-09
3.10159e-06
1.35021e-06
1.19022e-07
-1.03178e-07
1.12848e-08
0.00121877
-3.20261e-07
-9.8283e-05
-0.0078886
1.27381e-06
-9.63708e-05
-1.36097e-07
-4.90288e-07
2.03927e-07
-3.01706e-06
-0.000117314
3.71126e-08
-3.66289e-06
-2.47604e-07
-7.30572e-08
1.13092e-08
-1.32702e-05
-2.34525e-06
-8.51328e-08
4.17456e-08
-3.21071e-07
-1.99941e-07
9.07914e-08
-5.0938e-09
1.38255e-07
2.2473e-08
3.28034e-09
-1.41795e-06
-2.70269e-06
0.0020268
-5.71687e-09
2.89143e-05
1.10549e-08
5.8136e-07
-3.17236e-09
-2.21973e-06
-2.31239e-07
-6.16015e-06
0.00638586
-3.9114e-07
-1.26009e-08
-4.26224e-07
0.00172722
-4.0892e-06
1.12924e-06
-1.83723e-05
1.89881e-08
-0.00014404
-0.0184231
6.62508e-08
-7.06711e-08
-0.00835261
-1.14496e-06
2.05208e-07
-7.66009e-06
1.21145e-06
-0.0089278
1.25842e-08
-2.04424e-06
7.03784e-08
-3.48977e-08
-0.000189676
0.0011066
-3.41347e-08
4.57771e-08
-6.76434e-06
-0.00227211
0.000122371
-6.99605e-08
5.59822e-06
1.89455e-06
1.87877e-05
1.80038e-07
-0.00020525
-1.74524e-06
1.09735e-07
-1.667e-08
-7.41288e-07
-0.00531991
8.07824e-09
-7.01642e-06
-0.0533891
-8.74348e-07
-6.16578e-07
-1.93195e-06
7.46599e-07
5.00649e-07
-0.000265853
1.87833e-07
-1.43055e-06
1.52101e-08
-2.95479e-08
4.86755e-05
-2.43898e-06
-4.00934e-05
-0.00219356
-7.18756e-10
-0.0498238
4.78894e-08
0.00317475
-7.85529e-07
2.60421e-07
4.82277e-07
-0.0199807
1.17402e-07
-9.39154e-08
3.68301e-07
-0.0025199
3.18915e-07
-9.15488e-08
-8.55967e-06
3.39257e-07
4.60599e-08
1.63122e-07
9.05809e-08
0.00359297
5.03735e-08
-1.14001e-07
0.000579312
-8.47814e-08
-0.00232635
1.11681e-07
3.2405e-08
0.000115798
3.03961e-07
-5.03581e-06
1.43279e-08
-4.19503e-07
9.93971e-09
1.09332e-06
6.28132e-05
-4.35909e-08
1.1994e-06
2.23413e-09
-0.00615197
1.71689e-06
-1.49255e-07
4.78573e-08
-8.20786e-07
-3.03594e-08
-5.44469e-06
-2.44265e-07
-1.07854e-05
8.49847e-09
-0.00623516
3.05831e-07
-6.0806e-08
1.00188e-09
0.00304438
-8.95006e-07
1.28338e-05
-9.15628e-08
5.2684e-08
6.27296e-07
0.00134545
-0.00481487
0.00194167
-5.53128e-09
6.39244e-10
3.57506e-07
-0.000544887
-3.18182e-06
-6.86049e-05
-1.75348e-07
-1.32024e-05
1.69059e-06
-0.000478787
1.64389e-06
-3.70365e-07
0.00185094
1.73512e-07
-0.000344061
-5.97327e-07
2.41684e-08
3.02146e-07
-1.52086e-07
-4.54949e-06
0.00252731
-1.51324e-06
1.50447e-07
3.20703e-07
-0.000208006
0.000141367
-2.81794e-08
2.09681e-07
-0.00190641
1.63061e-09
1.60048e-07
0.000111825
3.03259e-05
-4.32924e-07
0.00194915
2.8561e-07
9.12756e-08
-0.000357233
-5.65053e-06
1.28683e-07
2.94131e-08
6.54874e-08
3.19839e-07
-2.1063e-07
1.04059e-07
5.10979e-08
3.86904e-08
-1.476e-06
6.62151e-07
-1.44788e-05
-4.43462e-07
-0.00634053
-4.71111e-06
-2.61846e-06
3.15897e-06
0.000571641
-4.16891e-06
7.2677e-07
3.42866e-08
5.41046e-09
-1.71702e-08
-2.48499e-07
5.71926e-08
0.000664775
9.92559e-05
8.50622e-08
-0.00203346
7.33271e-07
-3.71833e-06
-0.00597514
-0.000313142
-1.72365e-09
3.03732e-06
-0.0166262
-0.000861077
0.000515575
-2.72234e-07
2.01999e-07
1.19908e-07
-1.25158e-07
1.02777e-06
1.85994e-07
-0.00149857
-6.8838e-06
-4.29008e-06
8.66612e-08
-6.27736e-07
-5.62314e-06
2.08042e-05
3.50363e-08
2.0198e-09
-0.000500088
-5.15646e-05
2.88259e-08
1.65364e-07
5.73974e-08
-1.32311e-06
4.40153e-07
-1.67024e-06
2.08487e-08
-0.00107505
-3.32643e-08
-0.000312909
1.05836e-10
-2.69205e-06
-8.00784e-08
2.1697e-08
9.118e-07
2.14775e-08
-2.41777e-06
3.45346e-07
1.31059e-05
-5.21647e-05
0.00145862
-8.56937e-07
2.83712e-08
-0.00787607
4.51984e-06
-0.000441627
-7.23512e-08
-2.32494e-06
-8.87651e-07
2.753e-06
-0.00250276
1.77001e-07
2.80657e-07
-1.34745e-05
-0.00354579
5.07072e-09
6.27132e-09
-1.68102e-07
-5.16318e-07
-3.13055e-06
7.31306e-07
2.63326e-08
4.87252e-08
1.65038e-06
5.59256e-07
1.72347e-11
2.32643e-08
-8.44932e-08
4.32946e-11
-1.49268e-05
3.88722e-08
-3.78401e-08
-2.89083e-06
-5.17605e-10
0.00227723
5.55467e-07
2.93601e-08
5.22921e-08
1.22647e-05
1.67514e-07
-2.1804e-05
-0.00680234
3.59135e-07
6.51291e-05
-1.37509e-07
2.73147e-08
-6.42705e-06
-5.34945e-08
-6.09458e-06
-1.0731e-06
3.83204e-07
-5.18392e-07
-5.77659e-05
-6.91876e-08
-0.000194004
-3.5246e-06
-9.70642e-07
-2.14988e-06
-0.000403872
-6.97108e-07
1.48562e-07
-2.31933e-08
2.80121e-08
-0.00394891
4.85155e-10
-1.13825e-08
-1.16363e-06
-9.05603e-05
-0.000294
0.00465807
-3.30187e-08
3.0957e-07
0.00209684
2.24411e-05
-0.00682933
0.000574562
-6.77772e-05
3.54466e-07
-7.25755e-06
1.64433e-09
6.03431e-08
-0.000506841
-0.00236662
0.0022533
-0.0052445