/*--------------------------------*- C++ -*----------------------------------*\
| =========                 |                                                 |
| \\      /  F ield         | OpenFOAM: The Open Source CFD Toolbox           |
|  \\    /   O peration     | Version:  v2012                                 |
|   \\  /    A nd           | Website:  www.openfoam.com                      |
|    \\/     M anipulation  |                                                 |
\*---------------------------------------------------------------------------*/
FoamFile
{
    version     2.0;
    format      ascii;
    class       volScalarField;
    location    "100";
    object      ddt0(omega);
}
// * * * * * * * * * * * * * * * * * * * * * * * * * * * * * * * * * * * * * //

dimensions      [0 0 -2 0 0 0 0];


internalField   nonuniform List<scalar> 
18232
(
2.34611
0.000125568
5.03197e-07
-1.50077e-05
-0.0030993
-0.11241
-8.05196e-06
-1.90316e-07
0.00293865
0.0006305
1.6264e-05
-0.00229472
0.0017449
-50.7045
1.8257e-05
0.11843
-2.12306e-07
2.27452e-08
6.22555e-06
0.0102079
-0.130736
-4.01111e-05
2.16733e-05
4.41351e-05
-0.000170899
0.0024367
-7.98718e-07
-0.0341307
1.52743e-08
6.83788e-06
4.92613e-08
-1.45057
2.017e-06
-1.41512
2.04761
-0.164598
-0.174823
4.29187e-07
-0.0984815
7.43817e-07
11.547
-0.00171239
-0.0326319
-0.0339558
1.13853e-07
0.288623
2.86596e-05
-0.00131341
-0.00384559
6.88364e-06
-1.30434e-06
-1.11434e-08
2.70469
0.000578859
-0.00146663
0.0181857
2.00544e-06
4.36161e-06
0.515397
1.28031e-05
-0.00199589
2.51152e-07
-0.000630969
-2.09919e-05
-0.00530675
0.000117852
-1.8566
-1.32053
-5.44278e-07
-0.00216462
2.44763e-06
-1.71875e-06
-1.30963
-0.00589864
-0.0152506
-0.119579
-3.69607e-05
2.1556e-05
0.546242
3.49839e-05
-1.10546
-9.38935e-05
-0.00254328
0.000227794
-2.80401
0.0239849
-3.04723e-06
4.10522e-07
0.00118436
-0.00115525
-1.6195e-06
4.45242e-06
1.12667e-07
-0.0185398
-1.73374e-06
-0.00208712
-2.71403e-06
8.98094e-05
1.00492
2.72889e-05
-0.00208175
0.000690964
0.247649
0.00297872
-0.318863
-0.00131477
8.97788e-06
-0.00142114
5.58335e-09
-0.00185648
0.000135913
0.182838
2.68638e-05
-1.04884e-05
-2.82715e-07
0.0011144
0.00232913
0.664376
-0.000888782
0.00018438
1.95162e-06
3.45786e-08
-0.34118
0.359426
-1.61738
-0.0251374
-0.00142758
3.44072e-06
-0.534978
0.147345
9.88049e-06
-3.39911e-06
-0.00127458
5.56341e-06
3.84393
-0.107043
0.00711141
1.59403e-06
3.76141e-05
0.174083
0.000392345
0.000114201
-0.262964
1.14735e-07
-0.000202468
-0.000415223
-0.0029498
-4.99177e-08
0.85262
-0.0221794
0.971971
-0.00195758
-4.26128e-05
-0.000133321
-0.00257365
15.2228
0.00435337
-0.0035684
-0.00188338
4.02455e-05
8.83386e-06
3.64783e-06
3.76513e-06
-0.921482
0.560587
7.60243e-06
0.00982154
-0.193111
0.00064452
-1.70019
1.71346e-05
-6.82034e-08
-3.65498e-06
-4.57707e-05
2.76636e-06
1.78333
0.000241837
5.425e-09
1.22368
-1.01933e-06
0.0468243
-0.0374842
-1.21329e-06
0.236364
1.35473
-6.59993e-08
6.62463e-05
0.489419
6.3384e-07
-0.641195
0.000333524
-2.75713e-06
0.00209279
1.0129
2.86484e-07
2.52571e-05
1.86409e-05
-1.46367e-05
-2.01148e-06
9.01377e-06
1.07596e-08
0.00275207
-0.00245244
0.164962
-0.00278846
0.686662
0.013518
0.126735
0.0558172
-0.00300581
5.76353e-06
-0.00137518
-0.000540352
0.747328
-0.0919313
0.00155778
0.000443397
6.44418e-06
7.06853e-06
7.0342e-05
0.7444
1.88185e-06
-13.3859
0.000406047
-7.39259e-06
2.83902e-05
0.0250432
3.02976e-05
1.74801e-06
2.60111e-06
3.69429e-06
0.000260929
-0.248558
0.0450082
1.96022e-06
0.990457
5.87255e-05
-0.00824477
4.19906e-06
-3.36724e-08
7.73132e-06
-0.341233
-0.0163832
-0.00120516
0.0465593
-1.2807
5.64679e-10
-0.900573
-1.44124
0.000188913
-0.00738332
0.0118939
2.65618e-05
0.0498984
1.70434e-05
-0.0013075
-0.161659
0.280505
-2.50369
0.0266141
0.000128469
-0.000743312
0.0163201
4.57098e-08
1.78272e-05
8.29665e-09
0.463482
0.00274227
0.0173412
0.195894
3.71501e-05
-1.25597
-0.0117077
4.79909e-08
2.60719e-05
-0.967828
-0.000886887
-4.14547e-05
-4.20879e-08
-0.741094
-1.15127
0.000434331
0.000162792
-0.294753
-0.0203254
-2.08993e-05
0.000426297
0.198928
-0.00195696
0.000766745
-5.30254e-06
0.000362041
-0.356662
-0.000405326
-0.00176235
0.137323
-0.253983
9.00161e-06
7.84179e-08
0.00105868
9.05942e-05
-7.44383e-09
2.82589
-0.0133112
-4.66672e-09
7.79607e-06
-0.00997407
-0.000825369
-2.21797e-07
0.476415
0.000903572
1.39494e-06
-0.00740872
5.19741e-05
0.000167392
-0.00033881
-0.236998
6.84236e-06
-0.257462
-2.26333e-07
-0.469076
0.000422114
-0.00766785
-0.124635
0.00164189
-4.0278e-05
-0.0106145
2.93431e-05
-0.00113969
-0.00262613
-0.00243994
-7.09442e-06
0.00134014
2.21321
-0.00342645
3.32142
0.17447
-10.0214
-5.38331e-06
-0.00269741
1.92272e-06
-0.0911563
4.94632e-10
-2.82511e-07
6.31816e-06
0.00386908
-1.7647
0.00154076
-0.0092753
8.98278e-05
-0.224248
0.00272078
-0.000419364
2.05709e-05
-0.00424287
0.00114172
-0.0128045
-1.98617
2.21505e-07
1.59249e-06
-0.113419
-0.0237674
-0.290129
6.66622e-05
-2.3033
0.000648004
0.00199296
-1.81941
-0.000899625
-5.06028
0.248318
-0.118929
1.82e-05
-1.45868
8.92271e-06
3.42411e-05
1.56004e-05
-3.49972e-07
0.366519
-0.970806
0.00155644
-0.00349232
1.11841e-07
-4.73968e-05
-1.23866
-0.00167158
-1.16415e-05
-2.02866e-07
2.77542e-06
-0.000159824
0.00226682
-0.000515513
0.830864
-0.0023423
-0.19591
0.000364302
0.253047
-1.70373e-06
-0.278168
-4.01135e-07
0.113046
-0.0454526
-0.00697029
-2.82483
-0.00570964
3.50799e-07
0.00295751
-1.42377e-08
-4.76718e-06
-0.104577
-0.308663
17.5452
0.000270163
-0.000316472
15.4157
0.0747465
2.70292e-07
1.1812e-07
0.234141
8.7478e-05
-0.000681728
0.00355776
-0.00604552
1.38353e-05
-0.336254
-0.00519156
-0.0162947
-0.00166715
0.0120332
-0.000310071
4.33336e-06
0.0160834
-1.90984
-4.12389e-05
0.00326652
1.45871e-06
-2.6979e-07
3.88926e-06
-0.000171166
4.62116e-06
-0.00131035
-0.00502275
2.47738
-0.0134556
-3.08526e-05
-0.0071131
0.000505744
-2.13989e-05
0.00303033
-0.00536458
1.59681
-1.63675e-05
3.64619e-06
1.09978e-06
0.0470837
-3.27779e-06
-2.84767
1.08067e-07
0.00856135
0.000918164
1.84223e-05
0.0779176
0.000269405
0.0644622
3.17283e-06
3.10921e-05
9.98813e-06
-0.000695568
-0.0023299
0.00215712
3.56016e-07
1.37663
-0.00308761
-0.00507462
0.00194952
-0.0196588
-6.03836e-05
0.0548311
3.48539
-0.000121044
-0.0500149
-9.89157e-05
1.61836e-06
-0.00528837
1.74251e-06
0.0145841
-7.8834e-05
0.000264245
0.0794596
-0.00141548
1.66714e-06
-0.0226036
-2.74391e-06
-0.000777576
-0.0481046
-0.0104253
2.95526e-06
0.454471
0.00700952
-3.25579e-07
1.06405e-05
-4.17826e-05
1.76765e-05
-0.0167771
-1.93156
-0.0135135
3.406e-07
6.78608e-05
-7.8233e-07
-6.52725e-05
1.26584
6.94069e-05
-0.000745667
-0.236513
3.2902e-06
-1.59021e-07
1.90783e-05
-0.0207994
-0.000177885
2.85496e-05
-8.5259e-05
7.89919e-05
-0.000234738
-0.290664
1.88221
0.000172223
2.71437e-05
3.33974e-07
0.000219007
-1.89636
1.57629e-06
-0.00996186
0.0225361
-0.0226866
-1.15283
-1.5245e-06
0.0456106
8.22844e-07
1.05829
0.00521902
-1.9655e-05
0.00123319
-4.68744e-07
3.62482e-06
-1.82337e-07
-0.00681412
-1.06442
-1.19066e-06
-3.70439e-06
-0.012627
-0.0242262
6.10563e-06
-0.000161648
1.76235e-06
-0.385463
0.591339
7.59447e-05
-0.000160695
8.99117e-06
-0.00999953
0.486284
8.45822e-10
0.00669178
-1.04218e-09
0.00159688
8.87739e-07
2.52135e-06
-0.216581
0.124566
-0.055898
-1.86493e-07
1.66599e-05
-0.278856
1.72378e-05
2.20038e-05
-4.82378e-05
-1.03771
-0.000581939
-1.4778
-2.71768e-06
-0.782269
-1.02705e-06
-1.44606
-0.00482854
6.39353e-08
-0.0203254
-1.0088e-06
-0.00182332
-1.00234
-0.525239
6.63985e-06
-2.5281e-08
0.0797038
-2.25451e-06
16.2153
9.32483e-05
-8.7152e-05
-2.22096
0.718894
0.000205999
0.000102342
1.01906e-06
-0.160555
-0.0024319
3.12711e-06
-0.00446444
1.31895e-06
-0.626714
-2.97615e-08
0.0201613
2.85388e-05
-6.35516e-05
0.00021719
-0.0104824
0.00193112
3.17299e-07
9.18717e-07
0.453378
2.08691e-07
3.91718e-06
3.61919e-06
5.42826e-08
-1.05443
0.054111
-0.00321393
0.0219238
0.00342501
4.06491
-4.81081e-05
-7.73261e-05
-2.60731e-07
-1.58332e-05
-7.04429e-06
-2.75838e-07
-0.0653606
0.0896223
-0.0242434
0.398517
1.81065
-0.00248165
-0.0128907
-0.0398181
1.97168e-09
-0.0284097
9.58185e-05
0.0189705
0.00157211
3.74373
4.40628e-05
2.06785e-05
0.00363578
-4.92729e-05
0.000945522
-0.000107963
-0.197701
0.0171154
1.56469e-05
-0.0103508
-0.00247381
0.113431
1.9144e-05
1.57129e-05
-0.000143058
-0.00699045
3.51976e-05
-0.0103649
0.00852879
-5.28397e-06
-1.36623e-05
3.59957e-05
1.93203e-07
-1.12008
-0.142676
6.44045e-05
-0.263015
0.0477004
0.135823
-0.00828716
-5.43935e-07
3.08742
-0.000620284
-0.000242919
-1.82039
-3.40164e-06
5.37554e-06
-1.11467
-0.0559337
4.66499e-06
0.00128278
0.545115
-5.50044e-05
-1.92203e-06
0.432886
1.43783
0.00430981
-0.0531401
-0.557094
0.000670809
-0.00240118
2.21765
0.00937698
-1.33606
-0.00311543
-0.41137
-0.00234549
-2.97555e-06
5.46895
-2.34372e-08
1.4079e-07
-3.28776e-06
0.0212976
0.033656
1.10318e-06
-0.167918
3.2523e-07
-0.000194258
-0.00280978
-2.61306
-0.00412533
0.0091882
5.91398e-06
9.35036e-06
1.44731e-07
3.31079
0.0019764
0.29335
1.53373e-08
-0.000173835
-1.72425e-10
-1.05381e-08
0.000810819
-1.04294e-06
6.82542e-05
0.000312877
0.000549223
-2.16262e-06
-1.20315
-5.42131e-07
-0.00124084
1.37963
-0.00255356
0.869211
1.09711e-05
0.172748
1.74607
4.47415e-06
-0.789234
0.0126083
0.0563327
-0.0268933
-0.168123
2.31752e-07
-0.000113806
7.26975e-05
0.0159529
0.655205
0.283053
8.1019e-05
1.25471e-06
-0.546306
-0.965187
0.147713
5.63165e-07
-0.0287768
-7.83825e-06
0.000386408
2.56529
0.00158497
-0.0385521
-5.09822e-05
0.000593969
-0.200975
0.228408
-0.000117902
-2.42256e-06
-0.00247847
0.724906
-0.0014987
4.75864e-06
-0.00284099
-0.00536335
1.00727e-05
-0.000155482
-0.00222081
2.53424e-08
3.54696e-08
0.478878
0.000453975
-0.247288
0.00219825
0.0123563
-0.0246808
-0.178381
3.65239e-05
-0.00237596
0.00582354
-0.101514
7.48651e-05
-0.00221218
0.508743
-0.000118753
-5.08777
-2.4164e-06
2.89795e-08
7.45179e-05
0.000824644
2.31628e-05
11.77
-0.000838969
-0.000176959
-5.86064
-0.00242454
2.748
-0.502456
-0.0306132
0.112276
0.1187
4.28818e-05
-4.06407e-08
-0.0045934
-4.27313
-0.00429973
-0.00217542
-0.0487441
-0.00013976
5.83948e-05
1.70402e-05
-1.28028
-5.00747e-06
-0.0703303
0.00893309
4.23628e-07
-1.21115
-0.000313636
-0.949092
-1.25898e-05
2.80799e-05
-4.35655e-06
-0.0439867
1.39324e-06
-0.00117949
-3.94016e-07
3.33686
9.22125e-07
-0.0842566
-0.00667393
6.65177e-06
-7.04803e-07
-5.16807e-05
0.0305896
1.89096e-05
0.000116628
-2.63278
0.0938938
0.00119793
-0.0655319
-1.76687e-07
-2.63014e-06
-0.00031576
1.1507e-06
0.000245221
0.00811542
-0.00113699
0.00140325
1.91886e-08
0.00120375
-0.0048936
9.97404e-07
2.78013
0.0210912
-4.48864e-09
2.78043e-07
0.000976701
1.70717
7.98446e-06
2.76016
-0.280989
4.40674e-06
-6.92259e-08
2.49214
2.64757
0.000933046
-0.0101526
-0.00546991
-1.82314e-06
0.0734439
1.91605
-2.0665
0.000403183
-0.000361547
0.0426492
0.0165999
2.57373e-07
-0.00230828
-0.00959052
0.194087
3.38445e-06
1.00614e-06
-0.000223762
-4.55432e-06
4.23964e-08
-0.270811
-0.0992803
-7.65458e-07
4.0037e-06
-0.951442
-7.41197e-05
-0.615711
-1.49307e-07
1.89197e-06
0.312371
-7.07793e-05
-8.67556e-06
1.51231e-05
5.10024e-07
-2.14864e-06
-3.91132e-08
14.2138
-1.07392e-07
-2.0021e-07
1.97107e-06
-3.98534e-06
3.76091
7.55907e-05
0.000552997
9.04297e-06
0.0167724
-0.00419714
2.25869e-05
0.638034
-1.17199
-2.9472e-06
8.53813e-07
-0.000435893
6.61585e-05
-5.21084e-07
-1.23245e-07
6.92896e-07
0.00480642
0.00112131
-1.83665e-05
-0.0054464
0.0100521
8.67363e-07
4.6088e-07
-2.69144
-0.50336
-0.0238067
-0.00375301
-0.328567
1.57971e-05
-9.21953e-08
-0.238211
0.171607
-0.000237772
-4.09413e-07
0.0278812
-1.35671
-1.24692e-06
-0.00192465
-0.857651
-0.313035
-0.00055076
0.00190824
1.22381e-05
-0.577502
-1.16324e-08
-1.78805e-11
-0.147031
-1.27677
-1.19854
0.00598407
0.00843717
0.000138122
1.32727e-05
-1.6966e-07
-0.00114007
0.248551
-3.47511e-07
2.13046
-0.00017973
-0.00191638
-0.146094
2.26855e-06
0.0488849
-2.65592e-05
-9.23862e-05
-2.37776e-06
0.0217569
6.42678e-09
-3.44849e-06
-0.00297874
1.11136
0.00195081
0.881399
-2.16971e-08
0.000166427
-0.000666338
0.0137114
0.001612
1.41955
0.00340412
-0.0283216
-1.50211e-06
-0.206838
-0.0215514
-0.110057
-0.00782805
-0.984914
-4.72947e-08
1.65846
-0.000441255
8.22451e-06
0.0220775
0.591867
20.9368
0.000215383
-0.000258255
0.208127
6.15489e-09
0.0179943
5.99076e-06
-0.127636
3.76816e-06
-0.00964859
0.000850534
0.0829311
6.23562e-08
2.63228e-05
-0.0158777
6.86899e-06
0.0485353
-1.13021
2.19128e-07
-1.95974e-05
1.0116e-05
-0.00104068
-0.00281421
0.000241393
0.000152108
0.00386935
3.43462e-06
-2.39067
0.000499406
0.00183339
0.000360248
7.78385e-05
0.695178
-0.000364755
-2.80969e-06
0.229378
2.0058
0.173294
-0.0988794
-2.50033
0.00146113
2.93486e-07
5.49635e-08
-0.000186621
-8.38815e-07
0.139043
-0.456658
0.0180906
5.54725e-07
0.000990044
-1.28687
-0.899131
2.12581e-07
-0.000153661
-0.230932
-0.042364
-0.00140143
-0.00233607
3.40964e-06
-2.95303e-05
0.000800712
2.36252
1.88838e-06
1.46821
1.51548e-05
8.09349e-05
-3.38659
0.223637
-9.40282e-05
3.7025e-06
-0.000799678
-0.00485053
-0.00213853
-0.00438321
6.81147e-06
2.60813e-05
3.40522e-06
-0.996697
0.0100177
-0.00307389
-0.151945
0.000122162
-2.27904e-06
1.11195e-05
0.00335139
0.0254481
-1.9061e-06
-0.00027241
1.66474e-05
1.12512e-08
-1.35211e-06
-1.83012e-06
2.72062e-06
-1.32088e-06
-0.00232346
9.57422e-07
-0.104029
-8.49975e-05
-0.00172702
-0.00965199
-0.00018462
1.6917e-06
-1.25634
9.32367e-05
-0.868794
0.000106487
0.000195682
-0.00789126
1.34853e-06
-1.42229
1.73786e-05
-0.00083162
-1.41753
-0.0653117
-0.0013802
0.00144888
-7.09022e-06
3.5589
0.0972748
3.70536e-06
2.52081e-05
-8.358e-06
1.35738
0.00022372
-0.826396
-0.26476
1.29388e-05
1.13389e-05
6.02097e-08
2.75387
-0.0031849
-0.000598431
0.0148533
-0.030553
-0.495464
-3.16618e-06
-0.383434
-1.40231
-1.05861
-1.68917e-08
4.42317e-08
-0.105731
1.79025
-0.0114245
-0.0320969
3.98458e-05
0.00146666
-1.4993e-06
-1.32851e-06
0.00182247
-2.29025
2.27599e-08
-2.14847e-06
1.3416e-06
5.20336e-07
0.0435679
8.36274e-06
-0.0251033
5.38487e-06
0.000428763
0.198423
2.07139e-07
-3.23053e-06
-0.0041245
-9.68997e-06
-0.000106994
0.000217828
-2.92298
-0.00433211
1.74649e-06
-0.00202919
-0.223123
-2.10112e-07
-0.00280928
1.22748
0.762338
0.000319346
-0.000416864
-0.0125903
9.02626e-05
-0.00313032
-1.87294e-06
1.41348e-06
2.44613e-07
0.000921607
5.61202e-05
0.00190342
-0.00361222
6.50073
3.45388e-10
0.106231
0.000107957
2.95478e-06
-0.000718942
7.56691e-07
0.00132796
-6.14698e-06
2.48753
-0.0135263
2.34067e-06
-0.0120181
-0.00239135
-0.000810078
-1.86758e-05
-0.574943
-4.54716e-06
-1.33016e-06
-3.86788e-05
0.0513121
2.05385e-05
-1.69322e-05
0.140373
0.000102927
1.34354e-06
0.000153679
9.24348e-06
-0.00331637
1.88405e-05
-0.000752744
-3.58869
-0.0089054
-0.00646971
3.24183e-06
-0.000543288
3.25386e-06
-2.85143e-06
0.00826512
0.00125099
2.6918e-05
-0.0535741
-3.25119
-0.0452978
-0.000473324
0.00811365
-0.0041014
8.96764
-0.000207112
-1.60494e-05
-0.00197252
-0.0270979
2.73761e-07
-0.471912
-9.45126e-07
0.129206
2.92861
-0.196141
16.5996
-0.334888
0.00220119
0.00439851
1.69179e-05
-4.9709e-06
7.64193e-05
-0.0122434
-0.00545575
0.0205451
-0.0219707
4.38932e-06
3.90011e-06
-1.14246e-07
0.00726577
-8.95386e-07
-0.000544839
2.47331
0.0759345
1.01933
1.43755e-06
-5.95816e-07
2.8373
1.10383
0.000343849
3.00565e-06
-0.0333062
0.18716
-0.0476567
8.86534e-05
4.64948e-05
-0.00206428
3.79144e-07
1.08169e-06
-9.05739
0.0022774
2.1423e-06
-1.084
-6.36227e-08
2.31619e-05
0.0181951
0.0127536
6.20763e-06
0.0532701
-0.000814128
0.00151623
7.6858e-07
0.350337
-5.0593e-06
0.000552131
2.87665e-06
-0.0369914
-0.18028
-0.00165206
-2.54291e-06
-3.46086e-06
-0.21215
3.94112
-0.00216017
-1.17913e-07
6.03344e-09
0.283445
1.73266e-06
-0.00260464
0.000237164
0.0039552
-1.15291e-05
3.29236e-06
-0.000718382
1.16887
0.0942892
-0.0444833
5.83929e-05
-0.014051
1.01057e-06
-2.44616
-0.00725855
3.67042e-07
-0.00205175
0.00268735
-7.05255e-06
-2.52474
5.11258e-05
-0.000119256
2.46071e-06
-3.29856e-05
5.65308
2.62977e-05
-0.0164499
0.000127787
-0.00638883
-1.63018e-08
0.021734
0.00258823
-0.000383963
0.0243055
-0.0888921
3.87052
-0.629505
1.65047e-06
1.86589
0.00019748
-3.04281e-07
6.90857e-07
-0.098329
2.64261e-05
2.23499
0.0677755
0.00021013
-0.5975
1.25697e-05
3.2161e-05
1.75593e-05
0.109217
-0.0089892
-2.57807e-08
0.00224906
0.00440728
1.44217e-05
3.85854e-06
1.84466e-05
0.00364733
5.30946e-05
22.7932
-0.441789
2.97599e-06
0.351668
-0.116365
-7.22495
-1.04498e-07
-6.89262e-06
9.59924e-10
-0.00139219
4.42051e-07
-0.0542409
-7.98742e-05
0.000226128
-3.02681e-09
-3.81447e-06
-1.95942e-08
0.00152998
2.91794e-06
-0.000332311
-0.00240959
-0.000112234
0.00991742
7.34545e-05
-0.00177073
0.128735
0.00251846
0.000654823
-0.286866
2.2687e-05
0.0725522
-1.32016
-0.648719
-0.000106044
0.000128862
9.73909e-06
0.000221151
-2.264e-07
-1.34273e-05
3.22794e-06
-0.000980078
-0.640088
-0.00343336
4.58743e-06
1.60529
0.319714
-0.00288284
-0.184806
-0.00686661
3.15803e-05
0.00222689
-0.211007
-0.00361697
7.242e-05
0.00213117
-5.97195e-05
-0.00148071
-1.94136
8.63147e-05
2.56792e-11
4.12212e-07
1.58246e-05
6.51126
0.000445809
6.16915e-07
-3.10747e-06
-0.0830766
7.4129e-08
0.00059763
0.624021
2.4312e-07
-0.000360287
-0.939898
-0.00709511
0.191498
4.85276e-09
8.18742e-06
7.46429e-07
0.396283
3.46651
-0.00254433
-1.51954e-06
2.82198e-05
-0.000450226
7.24107
-0.000119602
1.09655e-05
-0.181658
0.170341
1.67833e-05
-0.131656
-0.00252366
0.000447115
-7.42046e-06
1.55747
-4.04119
1.91676e-06
0.130953
2.37451
0.000330735
-0.224995
-0.00213793
-3.59355
3.02643
0.000464151
6.4928e-07
-1.28958
-0.187977
-9.78285e-05
2.16021
-0.641736
0.295808
-0.00275449
5.06151e-07
-2.32262e-05
-0.0198064
0.00259525
9.45844e-05
-0.00693636
0.803324
0.000377599
8.82552
6.49258e-05
6.59324e-05
2.04283e-07
-0.896893
0.920586
-2.5652e-06
4.33074e-05
0.109398
-0.000666247
0.00103004
7.79461e-06
2.3702e-07
-1.27989
-0.000493363
2.82976e-06
-1.61506e-07
-9.61284e-08
1.1558e-05
-0.0697022
-0.0114653
-7.719e-05
7.89756e-07
4.6138e-07
-4.89896e-05
4.81865e-06
8.98686e-06
0.00452389
5.35738e-05
7.11515e-07
-0.287523
-0.080541
9.29291e-05
0.00330016
0.0915801
-0.00106382
0.14139
-0.00330726
-0.0341786
-0.0258919
5.67471e-06
1.11409e-06
-1.61251e-07
-1.14947e-06
-2.52358e-05
14.9226
-0.275341
-4.79535e-06
2.07444e-06
6.75092e-05
3.1937e-05
0.000402339
-0.000172265
0.0695293
-0.241742
2.96956e-06
-1.1102
-3.44727e-06
-0.00718433
0.0149813
-0.00369963
2.46787e-06
-0.000344468
-0.00132943
7.48039e-07
0.265264
2.78315e-05
-0.190459
-0.0100307
5.19945e-05
2.28362
8.65741e-06
1.96099
-0.368604
-0.431913
7.46786e-05
-1.29321e-07
-2.6659e-05
-0.983222
-0.00218194
-0.00486849
0.258142
-0.159417
-0.249544
-1.94739e-06
2.58542e-05
3.41652e-07
0.000183528
-6.09472e-07
0.00219265
-0.00260647
0.00155787
-0.00032676
-7.67957e-07
-4.15666
9.93518e-07
1.01715e-06
2.73697e-05
-0.00106513
-1.05637
0.181575
-0.000513538
-7.34999e-05
-0.00295033
0.0115204
0.000140596
-0.00308989
5.85408e-05
0.00540385
-0.00411027
-0.0399737
-0.00206766
9.493e-08
-0.0113344
-1.79638e-07
0.0178598
1.31152e-05
1.41311e-06
-0.000142273
-6.18597e-11
-2.12751e-06
0.00202078
-0.00607891
0.0243176
-0.0798864
0.00446477
-1.75649e-07
2.14129e-05
0.0188524
0.00105997
-0.00623246
-0.0115871
-0.143157
-0.468877
0.00108649
-0.287687
-5.95539
0.00255532
-0.00389694
-0.00407724
0.000634204
-1.47576
0.0170716
0.000230021
0.000363727
1.83296e-06
0.0748148
-0.00518789
3.34084e-07
2.5388e-05
0.000291686
-0.925163
9.12032e-07
-0.307054
-0.0022131
-8.67352
-0.707032
-0.000106836
0.367123
-0.035744
0.0677273
2.27572e-06
-0.105304
1.27292
2.83507e-06
-0.00215324
0.000973416
0.493975
-0.00293936
9.09384e-05
-0.00231201
-0.0195859
-0.0378572
0.000230789
8.03992e-05
1.58579e-05
-0.800395
-0.053375
9.18758e-05
-0.300577
-0.00674586
-0.563386
0.0605953
-0.000264031
0.00748303
1.75853e-06
0.000946501
-0.231522
-0.00242988
1.87875e-06
-0.00661962
-0.0119859
-1.69599e-06
0.00623608
-0.000461211
-0.00042038
-1.9724e-07
1.05926e-06
-0.103019
1.12148e-06
2.71607e-07
-0.11402
-2.39761e-07
0.000110537
2.14125e-05
-0.0431577
3.66573e-05
-4.83771e-07
-0.11287
-0.0489188
-0.00840377
-0.22605
2.66737e-07
1.52701e-06
-0.56962
0.00020675
-0.00088841
0.0202847
1.27178e-05
0.000117749
1.56973e-06
-0.0084339
-6.0291e-05
0.000520656
0.101879
-0.00157778
4.6561e-05
-0.00130575
-0.233282
-0.000561973
0.000373796
3.36667
-0.00441987
-0.013709
1.10573e-05
0.0335174
-0.59774
5.74089
5.09247e-07
2.97489e-06
-0.0581248
4.53475e-05
-1.80349e-05
-0.59531
-0.00172466
-0.0797411
0.000601204
-5.35399e-08
-0.445613
-0.00170366
2.66898e-05
-1.07968
-3.79288e-06
0.00574094
-0.00168224
-0.0837093
-2.01824
1.8943e-08
1.33751e-06
-4.9663e-06
3.74262e-07
-0.0026477
-0.000759453
-0.712639
1.84537e-06
-1.26576e-07
-0.258535
0.000169723
3.36981e-06
-0.158304
-2.78686
0.062747
-8.48595e-07
1.23762e-06
0.000315172
3.66784e-06
-0.00185905
-0.00828495
-0.075722
0.00185499
1.04165
-0.347854
-0.000369633
25.2915
1.15347e-05
0.00101618
-0.000225097
0.0373695
9.32876e-06
1.44248e-05
0.181665
0.209096
-0.00811544
8.15113e-05
0.0632931
0.000386261
3.80237
-0.000450735
-0.000159403
-0.805066
-0.00221635
-0.0450979
1.99781e-05
2.69948e-10
-0.656334
0.0186265
-0.35903
-0.278523
-0.00153991
-3.5775e-06
-0.00888793
0.000101113
-0.000831041
-0.138897
0.00245599
2.70067e-06
0.000102951
0.00642593
5.35432e-05
0.30975
-0.00635417
6.31359e-06
0.00148662
-0.000981297
1.98101e-05
0.221041
-0.000167625
0.0622917
0.0113988
-0.000571035
0.0101448
0.0413819
0.114663
-1.39343
0.443821
3.10155
0.0287633
5.07453e-05
-2.36053
3.70282e-05
-2.30893
-0.122763
0.000375025
6.52773e-07
1.76542e-08
0.0942181
-6.59745e-07
5.78134e-05
-8.67245e-07
7.83296e-05
0.00239552
2.33897e-06
0.0045285
-0.000665596
6.15736e-06
1.46411
1.24158
-0.438412
0.00716812
-0.473138
1.55847
0.276085
-9.11898e-06
0.816385
-0.168162
-0.23302
2.79541e-06
0.00177249
-0.109888
1.13296e-06
-0.999204
-6.35801e-06
0.147246
-0.00268426
1.24881e-05
0.00706445
1.65799e-06
-0.000160516
-0.00443989
-0.000676559
-1.54789
7.67059e-07
-1.19892e-05
-0.00301948
0.00138425
-0.303829
0.0447762
0.0138227
-3.12601
0.258422
4.46667e-07
3.67929
-0.305563
-1.7797
2.3004e-06
0.00357882
-6.35029e-05
2.16622e-08
1.66484e-06
-0.000549515
0.0927202
6.61213e-05
6.88384e-07
0.0723865
-0.00333416
0.00679828
-0.0808074
0.000492234
-0.00054635
0.0541033
-6.71784e-07
3.50208e-07
-0.000113939
-0.00109933
-0.00612923
-0.625129
-12.6323
-0.0113837
0.00590708
-0.29424
2.45445
-2.74941e-06
1.30181
0.0873746
3.92098e-10
0.00413407
0.0177357
10.3742
0.0030097
4.51182e-07
0.38915
-0.116522
2.20774e-06
-0.297001
0.00428369
0.00019183
-0.56009
0.000553044
-1.07176
-0.000402715
0.104835
-0.000118331
2.87074e-08
-3.61307e-06
-0.0053157
-0.00336498
-0.0221592
-0.00975573
5.22797
-0.00190836
0.390919
-0.0622557
0.00435975
1.7682e-05
1.42598
-6.55178e-05
0.123161
3.12076e-06
6.17222
0.00587241
0.133561
0.0162982
-1.94721
1.36721e-05
-0.154348
0.0360339
0.0150141
0.177083
-0.00287318
-0.132082
1.87418
-1.32121e-06
2.63805e-05
-8.48932e-06
-4.5124e-06
0.422921
0.767055
3.55221e-10
-0.00325988
0.00253929
-1.1337
7.6486e-07
1.07196e-06
-6.10112e-05
0.00104314
-0.51389
-0.0228126
-0.0127153
-2.94361e-06
-3.69892e-06
-0.500296
2.87014e-06
3.83732e-07
1.92877e-06
-0.00479356
-1.28684e-07
0.000109985
4.97562e-06
-2.42059e-08
0.00313161
-0.81283
0.131049
-2.79055e-07
-1.77397
-3.91958e-07
0.0105
5.11374e-05
-0.0015241
0.10088
-6.76253e-06
-0.402337
0.000115524
-0.0040986
0.000760152
2.96862e-06
5.86319e-05
-0.0290509
-1.13342e-07
0.0163066
0.00146868
0.00273524
-4.3929e-05
7.43639e-07
0.428338
-0.00212317
-0.233609
-0.259921
0.00139402
-2.73682
-0.0126104
-0.000485965
4.21408e-05
-0.00829508
-0.14143
2.36949e-06
-0.0142555
-0.000517926
-0.000156972
1.22956e-06
-0.262666
-0.00251434
-9.90689e-05
2.85982e-06
-9.27735e-05
0.00113398
0.000691859
-1.83639e-06
9.00641e-06
2.48118e-06
2.30204e-07
-0.00234923
-0.00307274
-0.791015
-3.58516e-07
0.190851
7.27748e-07
0.00169219
-1.75276e-07
-0.00397481
-0.000160826
-0.0164057
-0.069046
-0.00966218
4.54195e-05
0.00969085
-1.33041
-0.125724
0.00123595
-0.0866195
3.3545e-06
-0.280059
-0.762964
-0.0142186
-0.000643307
-0.13168
-0.0011332
0.000149272
-0.046928
0.00117553
-0.940062
8.14838e-07
-0.00388035
4.01923e-05
-3.00965e-06
-0.871341
0.405207
3.01241e-05
2.96393e-06
-0.172173
-1.06095
2.96187
-5.09145e-06
0.0343574
0.0023104
-0.224743
0.000104882
-0.102067
-0.00958197
4.21638e-06
1.33157e-07
-0.00373697
-4.19359
5.05115e-07
-0.00812533
1.47299
-0.000918149
-0.00157262
-0.00408007
0.000964888
-0.00231464
-0.0806367
4.56339e-05
-0.00314684
7.98669e-07
-1.96141e-06
0.461779
-0.00561916
0.123722
-1.47673
-5.16727e-08
21.7232
3.06279e-06
-2.87509
-0.000661706
2.71226e-05
0.000110968
-0.553337
7.79388e-06
-0.00011977
0.000443386
0.413785
0.000235201
-0.000137203
-0.0838167
0.000231896
6.60147e-06
7.44927e-06
-3.27806e-05
0.322484
6.60145e-06
-0.00590358
0.669614
-6.42109e-06
-1.16185
8.06107e-06
1.97869e-06
-4.10479
-0.000763306
-0.00542028
9.49697e-07
-0.000338399
6.71898e-07
0.00284131
-0.657221
-7.05046e-05
0.00058681
1.46625e-07
-0.901541
0.00225917
-0.00132719
3.01998e-06
-0.000771509
-2.03436e-06
-0.00636097
-0.000349282
-0.0109856
5.56799e-07
-0.963274
0.017394
-4.71464e-05
5.36366e-08
-1.67733
-0.00132967
0.166724
-4.53175e-05
3.65976e-06
0.00138582
-1.53857
-0.88783
0.618682
-4.09868e-07
2.98172e-08
0.000244469
-0.462508
-0.0200403
-0.464885
-8.58493e-05
0.0134642
0.0181436
-0.14355
0.00174424
-0.000502209
-0.477794
6.53104e-05
1.30794
0.0199909
1.57876e-06
0.00255275
-0.000482646
-0.00578248
-0.0257059
-0.00377149
0.0064057
0.00320856
0.284878
1.40528
-1.82666e-06
1.91861e-05
11.8115
4.84316e-07
7.97746e-05
2.14759
-0.81064
-0.00674728
0.317565
3.18806e-05
2.44456e-05
4.18392
-0.0501772
-0.00994419
1.85947e-06
6.19472e-06
-0.0354809
-0.000114097
8.52534e-06
3.51043e-05
2.60167e-06
-0.00285439
0.000525038
-0.497416
-0.000975568
-0.830669
-0.0141136
-0.0170537
0.0174532
0.220899
-0.0247777
0.000478602
2.15457e-06
-0.00106058
-4.83344e-06
-0.000240492
3.85295e-06
0.116455
0.114982
1.59737e-05
0.336698
0.00308224
-0.000729493
-0.0713689
-0.144003
1.32389e-05
0.00181653
-0.741052
0.058792
1.56196
-6.79992e-05
0.00021631
0.114786
-9.20342e-05
0.00054829
0.000698494
0.0872363
-0.0789145
0.353053
5.78317e-06
-0.00140923
-0.0193951
-1.03052
2.32104e-06
1.13957e-07
-11.98
-0.254647
1.94638e-06
1.14128e-05
3.54194e-06
-0.00164795
0.000495391
-0.0474079
-7.39138e-06
-1.65125
-0.000160146
0.251035
6.76357e-09
-0.130758
-8.40116e-05
3.71526e-07
-0.0021227
5.45928e-06
-0.00502594
0.000433922
0.081012
-1.20208
2.56976
0.216145
1.86762e-06
-1.84919
0.0238643
-2.29092
-0.00849108
0.00299634
-0.00149845
0.068931
2.47774
0.00299384
3.64029e-05
-0.0781379
-1.11965
3.27056e-07
4.01703e-07
-3.24109e-05
-0.000721383
-0.103163
0.000821156
1.73876e-06
8.61419e-05
0.00291709
0.00112027
9.62716e-10
1.54984e-06
-0.000284385
2.35472e-09
-0.131801
2.489e-06
-2.52678e-06
-0.00413272
-5.23336e-08
0.160524
0.000899272
1.91784e-06
3.41881e-06
0.180787
1.158e-05
-0.0112665
-0.310754
6.1695e-05
-0.0993032
-3.77264e-05
1.76549e-06
-0.00579419
-1.98486e-05
-0.144937
-0.0122333
0.00306566
0.000734294
1.49415
-1.20496e-05
-0.246467
-0.0279014
-0.00217155
-0.141952
-0.272108
-0.000917393
1.07438e-05
-1.79297e-06
1.88444e-06
-1.25339
2.22388e-08
-7.59885e-07
0.00974594
-0.558984
-0.186696
0.131947
-2.23142e-06
0.000339058
0.21488
0.318858
-0.815487
0.341566
0.121624
7.49477e-05
-0.0742225
-3.92787e-07
3.58635e-05
-0.150872
2.46586
1.22296
-1.48323
-0.0631333
-0.329727
9.25888e-05
-7.01891e-06
-5.57956
2.17335e-06
0.00105973
-0.0186975
2.45898e-06
-0.725567
2.19754e-05
0.000285141
0.00248175
-1.92236
1.23883e-05
2.99225e-05
-0.00428402
-9.56591e-09
-0.702131
6.5003e-06
-6.52843e-05
-1.54782e-06
0.00389078
-4.25366e-06
-0.00065065
-0.0823762
-0.0289585
0.0767619
7.75068
-0.939359
-0.097655
0.125602
0.291652
2.64665e-07
5.18524
0.398994
-0.039232
4.71375e-06
0.000292601
-0.00662603
0.00125264
-0.00175887
3.38491e-07
3.89111e-05
0.0232789
-0.228297
2.01469
-0.00107683
-0.011139
-0.240076
-0.00705597
3.55337e-06
-0.00265222
0.138802
0.203375
0.0023194
-0.432608
-6.28676e-06
-0.00171191
-0.876953
0.00877388
-0.0885053
4.35375e-06
-9.74268e-05
4.40703e-05
0.0193614
2.34786e-10
-8.49603e-05
2.0357e-06
6.34394e-05
-5.6849e-06
-0.00226706
-3.47206e-05
5.9619e-05
-1.53719
7.08413e-06
-0.00943564
-6.79452e-05
3.80143
0.00628551
-7.47931
-0.000553087
7.01508e-06
0.000570407
9.34422e-06
1.72052e-06
5.66163e-05
0.00158553
-0.00926428
0.00137602
0.00564272
2.12361e-06
-0.000106866
1.96466e-06
0.0393116
-0.000690367
-0.242572
0.00920381
0.18638
0.117006
0.0997009
-0.00277669
0.00998164
0.233326
-1.84889e-06
6.30405e-05
0.164289
-0.918244
-0.336695
0.398513
0.360879
0.00010932
-0.00629309
3.96696e-07
4.92175e-07
0.0103659
0.0124873
1.05109e-06
0.18243
0.00478033
7.47988
-0.101476
0.51759
2.44967e-06
0.000909702
-3.33587e-09
5.36079e-05
-0.0279713
0.000304361
1.98811
-0.273236
-0.299063
3.94171e-06
-0.129982
-1.32616
0.830024
3.70965e-05
-0.697347
3.96299e-07
-1.62812e-07
0.00835835
-4.01679e-05
-0.503259
-6.21029e-06
0.145725
-0.00837016
-0.67314
2.11034e-06
-1.48185e-05
-0.00219327
-0.0129657
6.51359e-07
0.625468
0.0078063
3.6713e-07
1.68205
8.72742
4.23188e-07
-3.20974
2.49944e-06
0.000827669
0.00209778
-0.331917
-0.00693507
-0.000415926
3.24269e-05
0.383222
0.00937665
0.261924
-0.734809
-0.0983147
-3.25336e-06
-2.62692e-05
-1.9403e-05
-0.00257274
0.0157914
12.7442
-0.0480155
-1.008e-06
0.00644734
-5.32437e-07
0.0797879
-0.00319218
-0.308622
-1.11108
1.44148
0.000208878
-0.0034892
6.48361e-07
-0.433264
-0.0795759
0.560896
-0.000671052
4.69555e-07
-2.664
0.00111421
-1.00131
0.00846085
0.128989
0.235746
-0.0034377
-0.00534537
4.97922e-05
-0.000148432
1.85722e-07
-0.0705034
-7.19424e-06
0.00123437
0.31794
2.06903e-06
-0.0013054
-4.68988e-07
-2.98099e-05
5.9768e-05
-8.28842e-05
-0.193823
-0.000562917
-0.000690056
-0.535837
1.65573
-0.00796647
-4.42592e-06
0.00175787
0.0743105
0.33633
0.287047
0.262782
0.000124163
-0.412775
-3.75378
-0.01178
1.30335e-05
0.00129848
-0.0103212
-1.26113