/*--------------------------------*- C++ -*----------------------------------*\
| =========                 |                                                 |
| \\      /  F ield         | OpenFOAM: The Open Source CFD Toolbox           |
|  \\    /   O peration     | Version:  v2012                                 |
|   \\  /    A nd           | Website:  www.openfoam.com                      |
|    \\/     M anipulation  |                                                 |
\*---------------------------------------------------------------------------*/
FoamFile
{
    version     2.0;
    format      ascii;
    class       volScalarField;
    location    "100";
    object      omega_0;
}
// * * * * * * * * * * * * * * * * * * * * * * * * * * * * * * * * * * * * * //

dimensions      [0 0 -1 0 0 0 0];


internalField   nonuniform List<scalar> 
18232
(
44.9637
0.02244
0.0217271
0.0221072
0.0407584
0.135025
0.0220915
0.0221375
0.0394193
0.0403446
0.0221309
0.0408654
0.036343
7.98816
0.0296907
0.210167
0.0220152
0.0222187
0.0219505
0.0692281
0.187992
0.022297
0.0220976
0.0225206
0.0276404
0.0279469
0.021785
0.135989
0.0222168
0.0217335
0.0222757
4.21587
0.0221002
9.4123
4.54855
0.150772
9.58457
0.0221304
3.5311
0.022275
26.5814
0.0364812
0.0496833
8.15376
0.0218877
1.21119
0.0217567
0.0370838
0.0792707
0.0216611
0.022003
0.0221841
17.1587
0.0327487
0.0403884
0.083104
0.0220287
0.0220603
14.2075
0.0218539
0.0294975
0.021881
0.0255157
0.0221074
0.0509612
0.0226525
7.79314
4.1963
0.0217776
0.0255859
0.0220289
0.0217925
4.11135
0.309152
0.0504383
0.190397
0.023495
0.0224967
32.3158
0.0222685
4.07339
0.0452476
0.034023
0.0226913
1.238
0.0819842
0.0217442
0.0219534
0.044839
0.0396832
0.0219488
0.0217834
0.0222667
0.0772057
0.0219493
0.0254677
0.0219059
0.0221587
0.915875
0.0217786
0.032937
0.0324895
0.288053
0.0352176
0.134414
0.0261227
0.0217394
0.0720757
0.022211
0.0250369
0.0226086
0.210973
0.0216827
0.0220673
0.0220059
0.0256895
0.0451173
1.70336
0.0376496
0.0257801
0.0220025
0.022123
0.491164
0.173476
8.74672
0.0466988
0.0924515
0.0215452
0.187922
0.20911
0.0217393
0.0222833
0.0376926
0.0215565
13.5669
0.185769
0.081559
0.0222443
0.0218784
3.18165
0.0394852
0.0259711
3.92687
0.0219255
0.0340481
0.031172
0.0285026
0.0222864
7.43132
0.0582825
1.01586
0.0357107
0.046784
0.02353
0.038802
25.3884
0.137134
0.0497075
0.0790434
0.0218887
0.022447
0.0215511
0.0217894
5.85065
8.88464
0.0220665
0.0442766
4.08772
0.0238054
1.33706
0.0217789
0.0221469
0.0217407
0.0223178
0.0225261
27.1643
0.0227113
0.0222776
3.27568
0.0220196
0.0755012
2.62824
0.0217995
0.281317
27.3245
0.0222934
0.0222894
1.96351
0.0222662
13.108
0.0245004
0.0218587
0.0395463
4.91418
0.0219252
0.0220672
0.0216655
0.0222311
0.0217117
0.0216536
0.0222759
0.0276483
0.0326604
0.150776
0.0690828
3.85542
0.238715
4.02516
0.059509
0.0335927
0.0217891
0.0283948
0.0320628
0.634258
0.233703
0.0274989
0.047925
0.0217893
0.0217465
0.0221667
5.44645
0.0218611
4.29801
0.0242572
0.0218636
0.0217756
0.0598849
0.022511
0.0220255
0.0221279
0.0220045
0.02386
3.11225
0.129982
0.0220961
1.93563
0.0225898
0.104954
0.0216736
0.022161
0.022014
3.4637
0.108015
0.0337783
11.9095
1.95856
0.022258
14.52
14.1366
0.024514
0.0902513
0.0891415
0.0217342
0.0616138
0.0220524
0.383962
0.305189
3.79251
1.00479
0.0790607
0.0235498
0.0324566
0.0671083
0.0222704
0.0216796
0.0222453
9.69304
0.0787193
0.0886886
0.177495
0.0223266
7.24759
0.0812764
0.0217899
0.0217349
14.0801
0.0333085
0.0223768
0.0221553
21.9189
10.0199
0.0257456
0.0221178
12.4716
0.0844469
0.0225889
0.0335208
8.18337
0.0257255
0.0438748
0.0218568
0.0359159
11.5946
0.0416131
0.0364757
0.165343
11.2411
0.0219888
0.0218757
0.0253125
0.0248018
0.0221821
2.9381
0.0884421
0.0221921
0.0220574
0.0596115
0.0289237
0.0220248
3.19382
0.0342195
0.0219813
0.0658406
0.0230656
0.0221736
0.0341365
12.0782
0.0215663
1.23178
0.0220195
6.0852
0.0258039
0.0511677
0.138081
0.031639
0.0225388
0.0783308
0.0256648
0.0324731
0.0260709
0.032038
0.0219034
0.046638
3.40495
0.0725984
7.4553
0.194092
5.80406
0.0217759
0.0327846
0.0221343
0.197415
0.0222689
0.0214856
0.0215674
0.0675742
10.2572
0.0328582
0.0600377
0.0225357
0.26184
0.0312882
0.030809
0.0216985
0.0349192
0.033221
0.0814062
12.3561
0.0221074
0.0219933
0.272406
0.047691
14.3895
0.0225478
28.6777
0.0247125
0.0431769
11.9157
0.0256607
5.42866
0.199287
0.155934
0.0224917
64.8716
0.0216574
0.021779
0.0218347
0.0217915
0.220263
3.08438
0.0331699
0.0354455
0.0222786
0.022288
13.6371
0.0322327
0.0221024
0.021786
0.0220076
0.0276495
0.042176
0.0531434
8.20485
0.032986
5.80882
0.0247316
0.408529
0.021805
0.17582
0.0218063
0.160618
0.240465
0.0692353
4.93562
0.0350155
0.0221134
0.0350777
0.0221759
0.022043
0.113029
7.6602
10.0912
0.0286275
0.025712
7.06926
0.083424
0.0219364
0.0222422
3.77054
0.0222995
0.0292173
0.045095
0.0463176
0.0216925
3.79721
0.0569745
0.0512111
0.0425673
0.0435692
0.0680896
0.0215749
0.0793583
9.40103
0.0223181
0.0458957
0.0219958
0.0220156
0.0221222
0.0253432
0.0221055
0.0328276
0.0792473
3.63374
0.0456508
0.0222531
0.043621
0.0244902
0.0222716
0.0476494
0.0427695
4.43334
0.0227391
0.0215375
0.0219833
0.283215
0.0218326
9.45734
0.0222494
0.0773989
0.0311223
0.0216997
0.101798
0.0243137
0.190068
0.0217211
0.0220693
0.0216686
0.0267821
0.0359223
0.0314791
0.0219418
2.64578
0.0568175
0.0922234
0.058556
0.0487568
0.0221007
0.13777
8.74765
0.0236304
0.064362
0.0257049
0.0219979
0.0473412
0.0222508
0.0440406
0.0239987
0.0234618
7.9457
0.0329453
0.0220278
0.124503
0.0218342
0.0254723
0.0520264
0.0552404
0.0216519
0.18111
0.256992
0.0220346
0.0220955
0.0237474
0.0237284
0.102163
9.78404
0.077021
0.0219627
0.0226581
0.0218252
0.0219778
2.18869
0.0228519
0.0255107
6.76076
0.0215627
0.0219614
0.02208
0.0495704
0.0226909
0.0217586
0.0234898
0.0226174
0.025561
13.6678
22.0654
0.0219878
0.02169
0.0219136
0.0240647
11.0415
0.0220357
0.0874637
0.106593
0.0545552
4.32663
0.0218119
0.193105
0.0219101
3.42037
0.0961207
0.0225307
0.0413506
0.0218199
0.0215394
0.0220444
0.0649346
14.1685
0.0371319
0.0218247
0.0702853
0.0458543
0.0216457
0.0227801
0.0220272
13.4413
14.3529
0.0220155
0.0238218
0.0220776
0.190037
1.62608
0.0222765
0.0629766
0.0221972
0.170762
0.0219501
0.0216491
0.267798
0.308771
0.0634181
0.0220304
0.0219457
8.03069
0.0238782
0.0217644
0.0221105
23.8679
0.0286125
0.763041
0.0217793
12.7366
0.0219242
0.894517
0.0475039
0.0218384
0.0510243
0.0219218
0.0373085
2.96538
6.54478
0.0216411
0.0220581
0.108353
0.0217501
3.37115
0.0222495
0.0253591
7.36497
4.69025
0.0253794
0.022242
0.0216457
5.21187
0.0467024
0.0215397
0.0335645
0.0220435
18.2851
0.0220652
0.0430791
0.0216932
0.0219357
0.0375656
0.0454533
0.0319215
0.022002
0.021778
10.0349
0.0220008
0.022015
0.0218912
0.0222037
0.630104
6.38223
0.0336067
0.0676395
0.0633042
6.16754
0.0233988
0.0222337
0.0219717
0.0219546
0.0220985
0.0217951
4.11108
12.1843
9.81652
12.8101
2.70077
0.0349544
0.0868539
0.19254
0.0222711
0.172302
0.0220089
0.0439089
0.0455104
5.67036
0.0251031
0.0222738
12.1695
0.0221541
0.0252504
0.0236171
5.20879
0.0659717
0.0218937
0.168269
0.0486999
0.270393
0.023914
0.0218046
0.0240399
0.0439797
0.021901
0.0573382
0.0453201
0.0217337
0.0221659
0.0218116
0.0218644
13.7629
6.89679
0.0220787
8.21332
0.0551391
6.11675
0.0610319
0.0220407
5.00903
0.0268045
0.0275336
12.6373
0.0221022
0.0249731
3.38519
0.102453
0.0219657
0.0275042
3.28807
0.0223938
0.0218386
0.327939
1.57188
0.0352548
0.059931
14.9361
0.0295942
0.0362446
23.7289
0.0611905
9.70711
0.0389123
13.3798
0.0341154
0.0219016
28.361
0.0221607
0.0219884
0.0217984
5.30865
0.0760615
0.0220359
3.04043
0.0222725
0.0356633
0.0299138
14.6957
0.0406728
0.0546963
0.0220328
0.0216702
0.0219037
5.52572
0.0691301
2.97222
0.0222701
0.146875
0.0221788
0.0221594
0.0278767
0.0217435
0.0233183
0.0251581
0.0314193
0.0222747
2.82558
0.0218015
0.0337181
21.4067
0.0357276
11.5734
0.0216636
0.185281
7.32944
0.0215752
13.763
0.0463904
13.594
0.149399
10.0919
0.0218612
0.0240034
0.0221008
0.0830993
6.53917
0.154998
0.0221503
0.0221954
14.1871
4.71426
0.197042
0.021845
0.0775223
0.0217337
0.0331538
4.56376
0.0315202
2.99531
0.0228561
0.0251541
3.88992
3.91563
0.0240761
0.0218499
0.0380735
3.46967
0.0298124
0.0216291
0.0434301
0.090819
0.0612691
0.0235241
0.069718
0.0221917
0.0222669
2.8867
0.046433
11.5121
0.751744
0.0541677
0.0734823
7.11306
0.0220918
0.0264059
0.0413657
1.30951
0.0226911
0.0362417
9.81903
0.0307538
4.01349
0.0218445
0.0221976
0.0220677
0.035082
0.0220757
5.02002
0.0381383
0.0232689
6.1884
0.0374532
43.4726
5.64519
0.0772051
0.304553
0.172422
0.0224158
0.0218349
0.0792563
7.08589
0.036011
0.0327213
0.528591
0.0235209
0.0241653
0.0221738
4.8164
0.0220345
0.32129
0.0554104
0.0219113
2.19459
0.0355053
13.675
0.0221641
0.0217888
0.0217935
0.169003
0.0217807
0.0336386
0.0219352
5.31329
0.0224826
0.212348
0.0581072
0.0251032
0.0218479
0.023281
0.0682166
0.0218886
0.0233074
1.24843
2.90464
0.02971
0.34966
0.0221324
0.0217686
0.0252935
0.0221892
0.0251953
0.0439737
0.0349543
0.0286252
0.0222715
0.0323013
0.0342012
0.0222555
19.6397
0.073233
0.0222034
0.0218584
0.319163
8.12141
0.0216322
4.03639
0.347098
0.0217838
0.0220512
46.8563
0.818887
0.0755211
0.0627024
0.148216
0.0220169
1.91909
24.2755
17.1889
0.0264574
0.0252879
0.255199
0.0556725
0.0222757
0.0482119
0.0630913
0.160953
0.0216628
0.0220801
0.0232633
0.0218286
0.022278
8.44288
0.138919
0.0217916
0.0216335
13.3966
0.0242235
3.81619
0.0220241
0.0220656
0.37761
0.0242343
0.0359661
0.0220932
0.0216514
0.0219494
0.0221542
32.87
0.022046
0.0221308
0.0216599
0.0219204
8.98747
0.0218893
0.0288236
0.021655
0.0689804
0.0803555
0.0221258
0.469001
2.07448
0.0218049
0.022201
0.025508
0.0218809
0.0219412
0.0215192
0.0222808
0.0879639
0.0355619
0.0252013
0.0523319
0.0549092
0.022194
0.0219682
30.7995
0.958568
0.0872778
0.0373129
0.170106
0.0223235
0.0221266
2.92379
2.89983
0.0284833
0.0218904
0.111111
13.3819
0.0218563
0.0335852
4.61801
8.38139
0.0317016
0.0352035
0.0249435
25.6389
0.0221825
0.0222939
0.148776
7.63425
7.42262
0.0605806
0.0661489
0.0221916
0.0217457
0.0219648
0.0275225
0.235369
0.0218944
5.17229
0.0238119
0.241487
35.3806
0.0217839
0.115152
0.0221548
0.0233251
0.0219666
0.0499028
0.0222552
0.0219195
0.0268673
3.71458
0.0259792
3.13144
0.022078
0.0225643
0.0388605
0.0544288
0.0311314
9.52279
0.0352846
0.076847
0.0220292
4.3017
3.53841
0.204979
0.0615414
4.00321
0.0220696
4.94241
0.0331155
0.0216523
0.11188
6.34762
30.317
0.0233989
0.0253521
0.175149
0.0222706
0.153488
0.021784
25.6563
0.0215426
0.053629
0.0272817
0.207043
0.0222588
0.0226479
0.0684924
0.0221525
0.0808849
4.54507
0.0218804
0.0220599
0.0216661
0.0273426
0.0381427
0.0246725
0.0233232
0.0635573
0.0230089
0.807253
0.033576
0.0468547
0.0234376
0.0230859
7.95559
0.0379348
0.0218088
0.438532
7.43346
4.09755
13.6649
21.9582
0.0335313
0.0218374
0.0222701
0.0232091
0.0218903
0.149279
6.05527
0.0804676
0.0219223
0.0372469
4.1505
1.49971
0.02199
0.0240144
9.10234
0.168426
0.0339483
0.0343981
0.0219835
0.0221543
0.0278041
21.7255
0.0216649
4.72502
0.0217896
0.0220955
7.56205
0.198327
0.0228503
0.0217218
0.0277401
0.0417012
0.0435078
0.0709828
0.0219128
0.0217715
0.0219566
21.0044
0.0444054
0.0333669
0.343351
0.0238042
0.0218266
0.021837
0.0450478
0.126295
0.0217351
0.0311643
0.0263257
0.0222377
0.0217358
0.0217766
0.021691
0.0217404
0.0499449
0.0219234
0.212401
0.0246567
0.028337
0.0434599
0.0247806
0.02189
14.5162
0.0225698
13.9872
0.0222666
0.0242578
0.0549333
0.0221386
15.3387
0.0217274
0.0680932
4.30235
3.34817
0.0278982
0.0307382
0.0218237
5.34009
0.140955
0.0217707
0.0219076
0.0220247
6.44116
0.0266531
3.0004
11.353
0.0219056
0.0221404
0.0222857
4.8724
0.0437103
0.0499827
0.056292
0.0654089
5.14643
0.0220533
0.123359
4.62945
15.0935
0.022031
0.0222727
0.218292
17.602
0.0517281
0.0832573
0.021947
0.0667588
0.0218723
0.0218777
0.0348358
7.02888
0.022284
0.0217827
0.0216665
0.0219282
0.264967
0.0216283
0.0833857
0.0216605
0.0266999
0.452634
0.0222672
0.0217323
0.0409016
0.0220594
0.0243296
0.0313405
20.5045
0.0596344
0.0221598
0.0399299
0.11527
0.0214729
0.0271618
3.82807
3.57858
0.0463391
0.0337835
0.0450128
0.0228954
0.0355016
0.0217708
0.0222381
0.0218781
0.0292339
0.0219726
0.0304898
0.156775
46.2716
0.0222531
0.211109
0.0219518
0.0221932
0.0320089
0.0219442
0.0352846
0.021908
1.17686
0.0538859
0.0222968
0.102994
0.0475475
0.0288919
0.0224448
14.1113
0.022019
0.0217759
0.0315902
0.0766479
0.0218117
0.0220412
0.219587
0.0219259
0.0221979
0.0221743
0.0226656
0.0343789
0.0217183
0.0280433
30.2559
0.0425365
0.0465479
0.0215522
0.0246639
0.0215437
0.0217439
0.036737
0.0299575
0.0217789
0.0812586
9.28039
1.96047
0.0255192
0.0441611
0.0427869
14.5251
0.0260567
0.0221321
0.0395949
0.0998362
0.0222873
2.55841
0.0218102
2.99778
5.10116
7.74876
10.2664
15.5188
0.0473071
0.0481559
0.0221347
0.0220428
0.0219914
0.0485366
0.0690182
0.222957
0.200659
0.0216838
0.0216804
0.022034
0.191381
0.02147
0.0247455
4.76596
0.156029
4.83719
0.0222029
0.0219205
17.9675
15.4009
0.0244651
0.0216952
0.27511
0.134131
0.0770693
0.0219534
0.0220378
0.0413316
0.0222643
0.0216573
7.31648
0.0546177
0.0221756
13.9608
0.0222785
0.0227676
0.0452031
0.0447002
0.0216163
0.171567
0.0259839
0.0333481
0.0216572
1.51767
0.0217257
0.0237706
0.0215248
0.0736367
0.235041
0.0305214
0.0217515
0.0217683
0.136122
0.789299
0.0313146
0.0218287
0.0222799
3.56045
0.0216535
0.0334804
0.0232362
0.0704083
0.0219213
0.0215548
0.0337758
4.74518
0.339659
0.249623
0.0224117
3.36758
0.0220855
15.2626
0.0544665
0.0221004
0.0289033
0.0372333
0.0225735
1.70542
0.0220438
0.0254624
0.0217218
0.0221055
15.4311
0.0227786
0.0663163
0.023428
0.0794197
0.0222117
0.214945
0.0345962
0.0268871
0.0756009
0.153068
0.926408
3.79302
0.0219534
2.88142
0.0279518
0.0218288
0.0219541
0.223806
0.0219479
17.9515
0.248364
0.0401353
4.69497
0.0217863
0.0218447
0.0220027
0.0828614
0.0477611
0.0221573
0.0335502
0.0511532
0.0217144
0.0216697
0.0218018
0.0562995
0.0223015
38.291
14.5298
0.0215662
0.424845
0.198571
3.42458
0.0217168
0.0220422
0.0218447
0.0297556
0.0219367
0.0573766
0.0225946
0.0256352
0.0222727
0.0217675
0.0219317
0.0465393
0.0215321
0.0288333
0.0296911
0.0356999
0.0690075
0.0218575
0.0265542
11.1965
0.0561893
0.0305143
0.396027
0.0218326
2.45126
9.10043
0.939511
0.0225984
0.0225227
0.0220952
0.0221508
0.0218751
0.0221317
0.0227331
0.0300966
4.75762
0.0360255
0.0216393
5.60184
4.54957
0.0322773
0.201436
0.0587953
0.0234091
0.0640371
0.152212
0.0336407
0.0220549
0.0422469
0.0353544
0.0255338
0.820793
0.0219958
0.0222877
0.0219396
0.0217422
14.4454
0.0302296
0.0219321
0.0220261
2.30261
0.0218725
0.0286255
14.8346
0.0218579
0.0244292
13.4732
0.0528098
0.230342
0.0222407
0.0221627
0.0219665
0.144607
32.7152
0.0451813
0.022268
0.021939
0.054213
18.0219
0.0239959
0.0223543
0.176428
2.45855
0.0216585
0.127326
0.0318381
0.0485322
0.0217486
8.68588
7.89687
0.0219968
0.205202
3.53914
0.0235967
4.62802
0.0304967
5.70694
5.23332
0.0413666
0.021961
13.8105
10.7518
0.0232568
5.15203
0.310794
0.558501
0.0336593
0.0218843
0.0222489
0.180035
0.068857
0.0237341
0.0376541
9.22907
0.0239632
2.04584
0.0226655
0.0224654
0.0218909
0.682539
0.849076
0.0217745
0.0226595
0.202134
0.0333739
0.0358661
0.0216618
0.0217186
4.09583
0.0324102
0.0218845
0.0221539
0.0218516
0.0219533
0.122172
0.0773557
0.0251724
0.0222056
0.0218712
0.0265183
0.0219211
0.0217065
0.0319045
0.0218953
0.0221986
12.4175
0.134018
0.0220476
0.0316768
0.242966
0.0250772
0.258266
0.0418622
0.0634549
0.0633589
0.0217106
0.0251704
0.0220972
0.0217893
0.0224918
8.39289
0.983024
0.0217883
0.0215301
0.0226911
0.0223971
0.0250747
0.0253735
0.121412
3.36597
0.0215088
1.52541
0.0218846
0.0434341
0.131031
0.0302971
0.0220534
0.024553
0.0293827
0.0222097
0.142249
0.0341885
6.87595
0.0456589
0.0220103
7.33029
0.0216177
1.9361
18.7506
0.303818
0.021896
0.0221254
0.0223461
4.01836
0.028638
0.165064
5.75797
0.134285
0.465047
0.0218326
0.0219801
0.0218855
0.0237435
0.0214533
0.0592311
0.0321747
0.0584937
0.0236293
0.0222685
6.38458
0.0219878
0.0219877
0.023369
0.0282717
1.66247
10.4891
0.0362227
0.0235239
0.0491963
0.196389
0.0308713
2.82095
0.025242
0.0588182
0.032993
1.33396
0.0296755
0.0219212
0.0684176
0.0218549
0.226187
0.0216971
0.0218002
0.0231735
0.0222776
0.0220443
0.037939
0.0953288
0.0818572
0.165157
0.0675651
0.022087
0.0217086
0.0592506
0.0276468
0.0483343
0.0419653
1.60265
4.79384
0.0336646
0.453862
4.23564
0.0320283
0.0523042
0.0357107
0.039793
4.2205
0.0625431
0.023251
0.0963142
0.0220434
0.289217
0.0773978
0.0218678
0.033552
0.0468034
4.05484
0.0217641
3.36379
0.0752454
13.1751
2.92021
0.0309298
2.55916
0.0567285
0.357755
0.0215127
0.175759
5.45248
0.0215051
0.0326471
0.025771
1.33488
0.0631409
0.0222918
0.0384712
0.135945
0.0774457
0.0409852
0.0218653
0.0225762
16.6353
0.148474
0.0232931
8.41417
0.0690738
2.88096
0.129128
0.0282904
0.0735435
0.0220588
0.04209
0.237464
0.0411624
0.0215322
0.0387699
0.046059
0.021938
0.0566075
0.025808
0.0262645
0.0221323
0.0219371
0.135709
0.0221472
0.021868
0.204247
0.0222625
0.0219483
0.021723
0.100142
0.0237044
0.0218603
0.432615
0.11725
0.215465
0.401501
0.0220901
0.0220533
3.0239
0.0232913
0.0307336
0.141531
0.0217091
0.0218778
0.0221518
0.0636328
0.0340153
0.0239362
0.124719
0.0408144
0.02222
0.0251261
7.73499
0.0339576
0.0233918
6.35175
0.033942
0.115516
0.0218765
0.205794
0.384151
0.866534
0.0219244
0.0217131
0.0853195
0.0221067
0.0219729
16.2607
0.035522
0.0768442
0.0347589
0.0218869
0.246533
0.0285644
0.021811
4.13801
0.0219564
0.0633314
0.0424719
2.39245
4.56445
0.0219118
0.0222623
0.0220127
0.0219336
0.0371475
0.0742573
13.1366
0.0222162
0.0218702
0.176332
0.0223421
0.0215336
0.180103
18.2226
4.64571
0.0216643
0.0219961
0.0256866
0.0215407
0.0292226
0.0608482
0.168478
0.0384885
1.04173
3.20948
0.0403039
24.5978
0.0221968
0.0350564
0.0352008
0.157892
0.0221065
0.0232921
0.19772
0.326062
0.068279
0.0226426
0.112255
0.0233313
7.28181
0.0256787
0.0303391
4.06714
0.0307377
0.112276
0.0218616
0.022273
15.3725
0.175337
2.93012
2.37961
0.02949
0.0223612
0.0460884
0.0235155
0.024981
1.93141
0.058818
0.0215649
0.0223398
0.0413787
0.0218121
0.155881
0.0884368
0.0216167
0.0290146
0.0269145
0.0217514
0.139221
0.023353
0.128487
2.05442
0.0348668
0.0974435
0.0448671
0.135431
15.6518
0.141844
16.1106
0.15057
0.0219374
22.3521
0.0246964
9.47441
0.0950264
0.0232496
0.0219627
0.0218831
8.55667
0.021816
0.0218239
0.0217992
0.0222749
0.0312503
0.0220061
0.0396029
0.0290862
0.0216205
4.78168
6.02979
0.339276
0.0560577
0.31576
3.05963
2.39012
0.0220385
18.2571
0.188771
6.12366
0.0219534
0.0338068
0.164016
0.0221344
12.9261
0.0220386
6.17521
0.0303889
0.0218682
0.0361706
0.0219538
0.0248241
0.0426954
0.044848
1.96312
0.0219633
0.0245819
0.0415884
0.0389279
0.185853
0.201321
0.0937286
4.02266
0.180423
0.0219379
6.30272
0.584455
14.3088
0.0220461
0.0357639
0.0227485
0.0222744
0.0220326
0.0247028
0.132418
0.0218975
0.0222026
1.86345
0.0414561
0.0438686
0.0812108
0.0301329
0.0244154
0.188002
0.0218622
0.0221001
0.0262041
0.0406893
0.0588564
13.4514
5.17877
0.0611588
0.0618144
11.153
4.37482
0.0218194
15.7621
0.190236
0.0222143
0.092733
0.065075
2.30552
0.0455179
0.0221193
7.68985
1.72425
0.0214947
2.90411
0.0659016
0.0264997
0.507969
0.0237272
13.8533
0.0237123
0.130954
0.0242156
0.0222776
0.0218446
0.0659476
0.0490409
0.260637
0.0429203
23.7766
0.0506862
10.3337
0.158548
0.0645723
0.0216556
13.1855
0.0228703
2.61846
0.0221784
1.11574
0.095458
0.311828
0.0776408
0.78504
0.0220606
5.19787
0.130252
0.0621929
0.125022
0.0317252
0.108566
28.6164
0.0215541
0.022382
0.0225107
0.0218789
0.204361
5.94597
0.022268
0.0962392
0.0314109
15.2851
0.0218755
0.02197
0.0280769
0.0271726
1.8385
0.178095
0.360217
0.0217854
0.0220305
0.571374
0.0221872
0.0217982
0.0221477
0.0489475
0.0220084
0.0223897
0.0216352
0.0215559
0.0362302
5.91916
0.143122
0.0218679
4.4804
0.0217802
0.0410939
0.0232682
0.0292599
2.14276
0.0217928
7.76987
0.0221753
0.0903362
0.0449684
0.0215374
0.0224081
0.1643
0.0219071
0.057459
0.0292936
0.0401147
0.0220934
0.0222138
9.88329
0.058892
18.4732
3.85653
0.0236548
0.679151
0.0635924
0.0303124
0.0221233
0.0373103
21.47
0.0214976
0.0466904
0.0243366
0.0240273
0.0219532
0.835735
0.0424947
0.0233858
0.0220932
0.0274224
0.0304783
0.0307788
0.0219592
0.0216255
0.0215582
0.0219321
0.0414033
0.0271542
11.0257
0.0217065
0.185605
0.0222065
0.0387249
0.0217085
0.0392945
0.0272609
0.0629154
13.2927
0.0414032
0.0225113
0.0649033
14.2328
0.208601
0.0252804
0.0756773
0.0219523
2.29728
4.40236
0.173449
0.0329255
4.24918
0.0394175
0.024335
0.105463
0.023513
3.93455
0.0219571
0.039391
0.0228499
0.021723
1.89364
4.46972
0.0235924
0.0215544
0.127116
3.40183
2.72066
0.02201
0.163308
0.0367867
0.234931
0.0242774
2.92424
0.0770156
0.0217471
0.0220701
0.057071
37.5082
0.021958
0.0608711
14.0657
0.0284164
0.0255434
0.0466794
0.0344753
0.0344807
5.90429
0.0217991
0.0274089
0.0220047
0.0218308
0.249201
0.0482038
0.375321
7.51893
0.0221506
19.6342
0.0215499
6.12418
0.0328928
0.0217603
0.0218982
4.8469
0.0216905
0.0236553
0.0234174
15.1802
0.0269576
0.0247847
0.082416
0.024068
0.0221527
0.0216552
0.0227319
10.7456
0.0220121
0.0544553
2.17018
0.021792
7.17145
0.0216672
0.0216803
4.32366
0.0477515
0.0658791
0.0219415
0.0259575
0.0222797
0.0399381
0.915482
0.0244191
0.0424173
0.0222338
14.5968
0.0295456
0.0297282
0.0215628
0.0277582
0.021828
0.0455782
0.0257571
0.167565
0.0222185
14.9158
0.0788514
0.0263128
0.0218841
13.6587
0.0306681
0.162044
0.0222665
0.0221089
0.0397089
10.6324
18.597
5.81101
0.0219669
0.0221048
0.0341756
4.44346
0.0535171
0.154489
0.0222633
0.104746
0.0731436
2.93241
0.0281028
0.0325311
12.0267
0.0225648
1.52037
0.0834665
0.0219881
0.0304927
0.0312216
0.0444558
9.84934
0.03499
0.0436984
0.0436607
3.34147
0.825394
0.0218171
0.0217622
13.6991
0.0220839
0.0223766
0.855537
0.700384
0.0651918
6.98439
0.0217523
0.0220441
4.39942
0.0870666
0.0646675
0.0215861
0.0217348
0.154339
0.0235665
0.0216405
0.0227193
0.0214929
0.064463
0.0242916
0.278031
0.0348219
17.1851
0.0661369
0.0427657
0.0462739
3.15909
0.0806288
0.0432159
0.0221383
0.0323606
0.0218273
0.0264842
0.0221134
3.31832
0.252364
0.0216678
3.47316
0.0310778
0.071436
4.00882
3.55442
0.0248089
0.0522329
3.97684
1.97601
21.6181
0.0222141
0.0233445
0.169119
0.0221214
0.0417586
0.0292995
6.09206
0.32651
0.22782
0.0216554
0.0309689
0.0425441
0.388927
0.0214872
0.0219298
12.3976
0.85442
0.0220633
0.0216509
0.0215695
0.0539578
0.0323308
0.163606
0.0224021
2.83218
0.0285994
4.85764
0.022278
0.123818
0.0248745
0.0218062
0.057737
0.0221412
0.0521714
0.026704
0.0850042
1.6533
2.20241
0.207949
0.0220305
23.9409
0.0536329
5.52325
0.0569379
0.0879969
0.0347301
0.143954
21.8465
0.0622235
0.0218674
0.377871
16.4463
0.0219007
0.0219131
0.0220227
0.0246601
0.168268
0.0284199
0.0217102
0.0248597
0.0867581
0.0262805
0.0222168
0.0221471
0.0266304
0.0221965
0.15423
0.0215489
0.0218162
0.0446082
0.0220983
8.43691
0.033895
0.0220121
0.0215261
0.142905
0.0216565
0.150995
3.43494
0.0220497
6.3187
0.0248931
0.0218478
0.0673366
0.0221097
1.19763
0.087314
0.0320569
0.0578705
1.06438
0.0219714
0.572368
0.0655911
0.0374552
0.16124
5.37154
0.033662
0.0216915
0.0220213
0.0221321
14.1181
0.0220909
0.0216956
0.0827693
1.38286
5.03098
7.04267
0.0217257
0.024619
7.3655
0.294045
16.9804
13.0927
1.81216
0.0220218
0.129565
0.0221392
0.0220368
5.08995
20.561
5.27992
15.9579
0.0963011
0.443119
0.024478
0.0220145
4.97725
0.0222102
0.0459049
0.0411241
0.0220371
12.7677
0.0221563
0.0238018
0.0427918
1.57397
0.0233503
0.0237667
0.0487001
0.02166
4.16178
0.021648
0.0225327
0.0217121
0.0422087
0.0217292
0.0244167
5.7408
0.179879
0.16385
12.0648
13.917
0.464984
0.109709
20.8873
0.0219358
4.03816
11.5358
0.0724492
0.0215786
0.024366
0.0455051
0.0544229
0.0265057
0.0218785
0.0220785
0.112805
0.104095
1.34263
0.0316585
0.14763
25.3063
0.0527406
0.0216628
0.0349178
0.129245
1.84872
0.0429903
4.62078
0.0218664
0.0508274
13.7504
5.65819
0.11074
0.0216732
0.02386
0.0224482
0.123702
0.0222122
0.0227094
0.0221787
0.0226995
0.0218981
0.0515356
0.0222904
0.0217912
6.06809
0.0220144
0.0474215
0.0227782
4.29245
0.0715302
11.3524
0.0298676
0.0220692
0.0236283
0.0216381
0.0219518
0.0220576
0.0266186
0.0689713
0.0456887
0.0559931
0.0216282
0.022174
0.0222073
0.101912
0.0328627
1.60936
0.102953
5.55751
0.125033
0.106915
0.0655979
0.0733046
13.3703
0.0218403
0.0228639
0.270352
16.6276
3.97509
0.410148
8.03151
0.0300779
0.0413487
0.022125
0.021705
0.054468
0.0758895
0.0219728
5.49547
0.0562391
9.66001
0.100695
3.87065
0.0215197
0.0328794
0.0218297
0.0230838
0.0491768
0.0226196
18.7827
1.67555
2.96385
0.0215324
0.28452
14.7339
3.60934
0.0236401
12.445
0.021692
0.0220953
0.081114
0.0345876
15.5506
0.0219127
0.130222
0.0459609
14.8685
0.0220163
0.022123
0.0280431
4.6804
0.0219392
0.53928
0.125235
0.0219034
1.19133
11.1641
0.0219729
0.630712
0.0220336
0.0564016
0.0265456
20.1857
0.0467629
0.0236283
0.0219458
0.184699
0.0404682
7.24557
0.710875
2.52807
0.0218791
0.022358
0.0224891
0.0374245
0.041884
13.078
0.0691695
0.0218837
0.0536064
0.0220591
6.66517
0.051698
0.234897
14.9628
2.38027
0.0230549
0.0295016
0.0218214
0.147809
5.45093
18.6187
0.0371187
0.0217559
4.5038
0.148534
9.41776
0.0895465
0.186914
4.82835
0.0343093
0.0435718
0.0218784
0.0228105
0.0219201
0.228938
0.0220399
0.0306181
6.87381
0.0220011
0.0451336
0.0217434
0.0235577
0.0237395
0.0241112
4.03911
0.0345976
0.0390021
1.20452
3.26135
0.0770723
0.0217912
0.0272118
0.174209
6.28595
9.73014
0.7413
0.0239342
0.394723
8.66118
0.069188
0.0216334
0.0361951
0.0962902
1.11219
0.0262114
0.029542
0.0218395
5.47359
5.09252
0.0215716
0.0712091
0.0234638
0.021698
0.0215608
0.0228149
0.0278419
0.0221072
0.0222846
0.0500571
0.022201
0.106964
0.0343003
0.0263441
0.021674
10.6089
0.0219949
9.78666
0.0229246
0.0589307
0.0233628
0.0251576
10.362
2.82106
0.0218904
8.00692
0.0216837
0.0220897
0.0576794
0.0220011
3.16555
0.0564931
0.0226322
0.0326581
2.98865
0.0432959
0.1543
0.0424316
12.4696
0.0233628
0.041853
5.45763
0.0280057
0.0310033
0.346573
0.0218715
0.612248
0.0793477
0.0259586
0.0290783
0.0709205
0.0239236
0.0217222
0.0641634
0.0392576
0.125195
3.9723
0.0226898
5.40541
0.0226031
0.0218628
0.0232056
0.0243658
21.5555
0.0243066
0.0221345
0.106775
0.0222234
0.052378
0.0737619
4.11674
0.0228395
0.0257606
7.27179
0.0241209
3.90991
0.0321758
7.10564
0.0217156
0.0393707
0.0220674
11.6751
1.16397
0.0222946
0.116469
0.0640625
13.8901
0.021758
0.0232282
0.105135
0.022063
0.021701
0.0216609
6.8246
18.8976
0.0218067
0.0228732
0.0226904
15.475
0.0219087
0.0218502
7.37912
0.0584966
0.589306
0.0983005
0.0220625
0.0219155
0.0219093
0.0299131
0.408653
0.168249
0.0781472
3.92163
4.05249
0.021862
0.0621131
0.022027
0.0231983
0.0219542
0.14672
0.0231415
0.0405435
0.022513
0.0218228
7.28329
7.02775
0.0723221
0.156288
0.259911
0.0352918
0.021678
0.0247673
0.0692539
0.0382851
0.0222805
0.0348006
0.0215632
0.0278826
0.0311608
0.0219689
0.0369041
2.29187
0.0216732
0.023922
4.95263
0.0364108
7.61891
0.0221756
7.09409
0.0908868
0.0242605
0.0227512
5.70243
0.0216459
6.45166
0.0342168
0.0217462
0.0218678
0.0218162
0.0233607
0.0219633
0.394007
0.110088
0.0225657
0.0380622
0.0218758
0.0507225
9.14053
10.2928
0.0340805
0.0334971
0.0239049
0.0220151
0.0263232
0.0219496
23.0476
0.0220271
0.0234485
0.0225849
0.0221883
0.0219324
0.0219859
0.928078
0.0217663
0.0286612
0.0219178
0.219921
0.0220219
0.1797
7.60561
9.20417
0.0225841
0.0225035
0.176891
4.74298
5.15888
5.88414
0.062413
0.0224555
0.0953941
4.77923
0.513223
0.0216437
0.0538571
6.43766
0.0241418
0.0337972
0.0286821
0.0222028
6.87535
0.0218011
0.0218751
18.5861
0.138539
0.023215
0.120883
0.0468525
0.0250228
0.0246763
2.28178
0.0216467
0.0214573
0.0349366
0.0221602
0.319303
0.0220538
0.0322314
21.3918
26.6128
0.861434
0.125643
0.0219387
0.147218
0.0359302
4.98864
0.0438418
0.0221435
18.8775
12.901
0.0224071
0.0232035
0.0409871
6.22171
0.280536
23.6001
3.5508
0.0498267
0.0615553
0.0491174
0.109723
0.0215769
0.0300658
0.12002
0.78141
0.0219421
0.0258153
0.281876
0.0217978
0.0484245
0.0315587
4.21281
0.245267
0.0218799
0.0222108
0.0220715
0.0220564
0.0219366
1.72139
0.282305
0.370605
0.120022
0.0222904
0.0260503
0.0228219
0.049452
0.0261393
0.0333835
1.33465
22.0145
0.0910774
1.95032
4.34514
0.338782
0.0256067
3.22672
0.0535827
0.0367112
1.47622
0.0326259
0.0525501
0.0218164
0.0219548
0.0598518
5.9614
0.066908
7.07549
8.32428
0.920382
0.280182
0.146635
0.0319692
0.0326454
0.0219139
0.0700452
0.0221218
0.022225
0.0218836
0.0312818
0.21058
0.0222799
0.0218222
10.693
0.0219239
0.0221473
0.0456278
8.42455
0.0233364
0.0217017
0.0224513
0.0216168
0.0226829
0.309161
0.0500297
0.291157
12.3872
0.0241373
1.29529
13.4775
0.0216478
0.071302
0.0272242
0.791717
15.9785
3.64288
4.6941
1.14181
0.136453
14.4816
0.228048
0.0423994
0.0313636
5.46608
0.0361024
0.375267
0.23795
5.98241
0.0218579
1.77461
0.0384422
0.205877
0.0222047
0.0219808
1.23489
0.0215809
0.0466528
0.0547936
5.19693
0.0508061
0.0221144
0.185631
6.30359
4.94334
17.5371
0.0305227
0.0308279
0.0274122
0.805435
0.0450779
0.0218523
17.4526
27.8259
0.0263499
0.0229901
0.0321085
0.705593
0.0221521
1.1355
0.0276401
0.0460873
2.26146
0.0220262
0.0216317
21.8223
8.55321
0.0392472
0.0220288
0.0215452
16.3504
0.0244073
0.0664638
1.99498
2.92925
0.11418
0.021843
0.0223815
0.0700847
0.248523
0.0355043
0.0220127
2.96602
0.0221201
0.0260684
0.0326107
4.73441
0.0221344
0.0664539
2.38112
0.244755
0.0552372
0.168755
0.0288635
13.889
0.0505017
4.35334
0.0290764
0.0216228
0.0223148
0.0224611
0.0385992
3.59676
0.0219726
0.0235718
0.0238986
0.0221865
0.223095
0.046351
0.021757
0.0652644
0.0235034
1.04684
0.0217569
0.027009
0.0218711
0.0257219
0.0224035
0.0227089
0.14236
0.0656407
2.46103
0.0225867
0.161286
0.967919
0.0215775
0.0301657
0.0215898
0.0220721
0.0220235
2.0304
0.0269602
0.0306544
8.74328
6.78466
0.0217971
0.0264497
15.5743
0.0222297
0.116807
0.0221236
0.0214616
4.89984
0.0980048
0.335097
0.112086
1.87929
0.022288
2.06014
0.0242201
0.338198
0.0272993
1.9258
0.0253994
13.6451
0.0229833
0.804788
0.220511
0.0217861
0.0225958
14.4903
0.02232
0.0255233
0.462788
0.703622
4.23089
0.0217154
0.0218453
0.0220904
0.0222475
0.0668811