/*--------------------------------*- C++ -*----------------------------------*\
| =========                 |                                                 |
| \\      /  F ield         | OpenFOAM: The Open Source CFD Toolbox           |
|  \\    /   O peration     | Version:  v2012                                 |
|   \\  /    A nd           | Website:  www.openfoam.com                      |
|    \\/     M anipulation  |                                                 |
\*---------------------------------------------------------------------------*/
FoamFile
{
    version     2.0;
    format      ascii;
    class       surfaceScalarField;
    location    "100";
    object      phi;
}
// * * * * * * * * * * * * * * * * * * * * * * * * * * * * * * * * * * * * * //

dimensions      [0 3 -1 0 0 0 0];
oriented        oriented;


internalField   nonuniform List<scalar> 
27055
(
-0.0238806
0.0238806
-0.258714
-0.457855
0.334815
0.12304
-0.356169
0.166045
0.190125
-0.0297476
-0.0545982
0.0843458
0.0807656
-0.0379481
-0.0428175
-0.186878
-0.07714
0.264018
-0.433283
0.373978
0.0593046
0.108112
-0.0214691
-0.0866432
-0.0916821
0.0619345
0.0144165
0.200402
-0.214818
0.122268
-0.145359
0.0230909
-0.110398
0.00917988
0.101218
-0.039971
0.0387909
0.00118011
-0.102383
0.118999
-0.0166156
-0.0610555
0.0845543
-0.0234988
-0.478497
0.476593
0.00190417
0.0820085
0.324662
-0.40667
-0.364567
0.219731
0.144836
0.0906972
-0.0799157
-0.0107815
0.0354553
-0.0653302
0.0298749
-0.0581766
0.228277
-0.1701
-0.209794
0.22421
0.238849
-0.228389
-0.0104605
0.127214
-0.0493601
-0.0778535
0.0502672
0.0769465
0.0839653
0.247576
-0.331541
0.0484149
0.0323507
-0.345803
0.427811
-0.167219
-0.290636
0.342202
0.205316
-0.547518
0.00331774
-0.00740046
0.00408272
0.261798
0.140537
-0.402334
-0.00802664
0.0224023
-0.0143757
0.0407301
-0.0428692
0.00213909
-0.0505994
0.0725591
-0.0219597
0.0342355
-0.0342191
-1.64142e-05
0.481324
-0.177903
-0.303421
0.0217267
0.0250302
-0.0467569
0.548143
-0.285729
-0.262414
-0.0242479
0.00214934
0.0220986
0.124666
-0.14005
0.0153845
0.00606683
-0.076684
0.0706172
0.0241057
0.00787696
-0.0319826
0.275071
0.160664
-0.435735
0.0281573
-0.0504017
0.0222444
-0.256499
-0.103486
0.135995
-0.0113296
-0.0835741
0.0633464
0.0202277
0.18676
-0.288485
0.101725
-0.37239
0.324874
0.0475155
0.39176
0.0664124
-0.458172
0.0148262
-0.0202912
0.00546503
0.116213
-0.120492
0.00427934
0.0367291
0.0559762
-0.0927052
0.0894867
-0.0430738
-0.0464129
0.00792296
-0.314557
0.306634
0.395674
-0.227483
-0.168191
0.0042845
0.000140736
-0.00442524
0.18529
-0.283574
0.098284
-0.126224
0.0238405
0.445737
-0.170666
-0.0867456
-0.0340689
0.120815
-0.160388
-0.195782
-0.0820631
-0.0262702
0.108333
-0.122605
0.202467
-0.079862
-0.00629222
0.00603964
0.000252585
-0.00178904
0.00510677
-0.234188
0.318154
-0.205847
0.119101
-0.276941
0.284864
-0.445994
0.340591
0.105403
-0.00128681
-0.00611364
0.0294169
0.0241981
-0.053615
0.134116
-0.0550418
-0.0790742
0.0566345
-0.00135235
-0.0552821
0.107389
0.0578687
-0.165257
0.19085
-0.236231
0.0453807
-0.0152072
0.0152072
-0.173328
0.242095
-0.0687669
0.0052617
-0.00705074
0.0999691
-0.0121959
-0.0877732
0.0153837
-0.1241
0.108716
0.13991
0.0972159
-0.237126
0.0486265
0.013816
-0.0624425
0.0510649
0.0384218
-0.429602
0.328974
0.100627
-0.170169
-0.194398
0.0921977
0.00777131
-0.084447
-0.0237323
0.108179
-0.376456
0.206287
-0.327205
0.231242
0.0959623
-0.0738983
0.4161
-0.0352731
0.0854593
-0.0501862
-0.171419
-0.205037
-0.0775295
-0.128317
0.0972628
-0.33494
0.237678
-0.286885
0.192412
0.0944723
0.0082477
0.0431594
-0.0514071
-0.33076
0.178003
0.152757
-0.0837671
0.104416
-0.0206484
-0.00481172
0.121025
0.0615001
-0.0361422
-0.0253578
-0.0933967
0.0141768
0.0792198
-0.0677149
0.0171154
-0.10733
-0.0155434
0.122874
-0.380946
0.213727
0.0356034
0.0428427
-0.0784461
-0.513419
0.513419
0.125871
-0.15994
-0.224532
0.101928
0.0630231
-0.0449886
-0.0180345
0.102379
0.177755
-0.280134
-0.271951
0.0850731
-0.319793
-0.052597
0.137122
-0.151499
0.0143773
0.017253
-0.106792
0.0895393
0.0463079
-0.0181506
0.114222
-0.0976768
-0.0165453
-0.146352
0.141671
0.00468116
0.130843
0.255395
-0.386238
0.261332
0.219991
-0.0289212
0.0201513
0.00876991
0.0691896
-0.0232303
-0.0459593
-0.00368673
0.0318924
-0.0282057
0.0896744
-0.0836076
-0.0215608
-0.0687571
0.0903179
0.288325
-0.464829
0.176504
-0.0243631
0.0598184
0.0123778
0.0506453
-0.366231
0.316013
0.0502182
0.243836
-0.0612966
-0.18254
0.0168668
0.0973553
0.347653
-0.0369219
-0.310731
-0.00761142
0.0224376
0.0457108
0.0109237
-0.0797039
-0.00387023
-0.258201
0.507333
-0.249132
-0.280048
0.191987
0.088061
0.0235232
0.0243944
-0.0479176
-0.069762
0.106491
-0.151108
0.0437772
0.00621455
0.0124541
-0.0186687
-0.173954
0.347603
-0.173649
0.132462
-0.0527434
-0.0797191
-0.0108566
-0.100229
0.111085
-0.122512
-0.0037117
-0.238901
0.498056
-0.259155
0.00378165
-0.0319165
0.0281348
-0.0917636
0.079314
0.0124496
-0.0134223
0.011303
0.116039
-0.131686
0.0156467
-0.0153292
0.0977408
-0.0824116
-0.0514056
0.158794
-0.104875
0.0204278
-0.0201208
-0.00412712
0.0938905
-0.0672548
-0.0266357
-0.101706
0.0196426
-0.0440769
0.0540706
-0.00999372
-0.0947577
-0.148018
-0.110696
0.3167
0.0309535
-0.0796291
-0.00391635
-0.00237587
-0.0514442
0.0148168
0.0366274
0.335507
-0.197327
-0.13818
-0.0775813
0.0915108
-0.0139295
0.019784
-0.0135694
-0.172545
0.0222855
0.150259
-0.0566023
0.00719455
0.0494077
-0.0289473
-0.190383
0.21933
-0.334791
-0.0984915
-0.0293981
-0.336833
0.18566
-0.161765
-0.0307152
0.192481
-0.0231639
0.0231639
0.209726
-0.0698166
0.366734
0.0503033
-0.417037
0.0409548
-0.000224716
-0.239077
-0.0926978
0.331775
-0.0824227
0.0655108
0.0169119
-0.0299237
0.0516504
-0.374353
-0.0716406
0.0245511
0.036949
0.0219267
-0.0219267
0.237289
-0.156796
0.239824
-0.0830286
-0.0013472
0.0499737
0.376878
0.171265
0.0142735
-0.0157427
0.00146917
0.165328
-0.0564236
-0.108905
0.348211
-0.152774
-0.195437
0.0164303
0.00623612
-0.0389938
0.0327577
0.142036
-0.31599
0.00626992
-0.201347
0.195077
-0.192942
0.295321
-0.0148797
-0.19046
0.20534
0.427113
-0.0185768
-0.408536
-0.101156
0.328827
-0.227671
0.254441
0.222856
-0.477298
-0.130886
0.14836
-0.0174744
-0.108109
0.0331837
0.0749252
0.0519098
-0.0310038
-0.020906
-0.0617599
0.0973633
-0.00382006
-0.00275114
0.0065712
0.0177347
0.0529223
-0.070657
0.00135159
0.00714558
-0.00849717
0.0814235
-0.0625346
-0.0188889
0.0257858
-0.126932
0.101146
-0.199117
0.346685
-0.147568
0.00827331
-0.130785
-0.103458
0.0196906
0.0583808
-0.0501331
0.0603113
0.00168324
-0.0619945
-0.145514
0.0146284
-0.092008
0.0766788
0.314304
-0.0830621
-0.284026
-0.0969204
-0.162687
-0.124198
0.0420139
-0.0382323
-0.0824732
-0.201101
-0.00825195
0.0128854
-0.00463342
-0.00714211
-0.131762
0.138904
-0.0331489
0.460262
0.236085
-0.265032
-0.0103401
0.199193
0.0396565
0.135227
-0.374305
-0.40151
0.343296
0.0582141
0.338084
-0.146663
-0.191421
0.0055636
-0.178109
0.0182991
0.0260331
0.0678574
-0.17073
0.432527
0.0158131
-0.0496989
0.0338858
-0.141857
-0.0354699
0.177327
0.102569
-0.0374224
-0.0651463
0.297587
-0.110827
0.138535
-0.514211
0.375676
0.204836
0.133247
0.0181884
-0.0492126
0.0310242
0.0885392
0.0140295
0.114835
-0.0249237
-0.0899115
0.0295358
-0.00543011
-0.0466819
-0.00992041
-0.514456
0.204085
0.310371
0.00472544
-0.00423386
-0.000491579
-8.80233e-05
0.000409513
-0.00032149
0.142471
0.0143285
-0.156799
-0.00762571
0.0654491
-0.0578234
0.0811584
-0.0494151
-0.0317433
0.317297
-0.166121
-0.151176
-0.0855217
0.022987
0.22169
-0.215421
-0.0201327
0.0246185
-0.00448576
0.0258226
-0.0523884
0.0265658
-0.0105458
0.00229381
-0.0425774
0.0563935
-0.0834898
0.00106708
0.192386
-0.142987
-0.0493997
-0.0852259
-0.0352664
0.0691995
-0.0833904
0.0141909
-0.0574575
0.424192
-0.0770145
0.280025
-0.203011
-0.522153
0.403274
0.118879
0.0253072
-0.0300896
0.00478241
-0.048166
0.00408912
0.0380846
0.0621438
-0.06019
-0.00195371
0.149752
-0.211049
-0.0197924
0.0117658
0.0349333
-0.0698232
0.0348899
-0.448224
0.450733
-0.00250938
0.212806
0.104492
0.0111507
-0.0112773
0.000126604
0.132464
-0.11708
-0.159026
-0.0646032
0.223629
-0.272267
0.410802
-0.0268992
0.0232124
0.0183701
0.00684261
-0.0252127
-0.00923047
-0.09572
0.254763
-0.159043
0.0256546
-0.0162979
-0.00935667
0.0799268
-0.0165804
0.076996
-0.218853
-0.0683622
-0.0149537
0.0833159
-0.0311021
-0.00304503
0.0341472
0.192113
-0.121307
-0.0708064
0.103731
-0.0864782
0.149739
0.198472
-0.0748779
0.115493
-0.0406154
0.00156913
0.0127044
0.000369011
0.121899
-0.0240113
-0.00510637
0.0672501
0.00923949
0.0164151
0.275907
-0.193058
-0.0828492
0.289002
0.156735
-0.17622
0.162294
0.0139263
-0.180059
0.193873
-0.0138133
-0.484431
0.0602072
0.424223
0.0316373
-0.0478452
0.0162078
-0.0788623
0.0149296
0.0639328
-0.43141
-0.0530208
0.144963
0.250711
-0.132132
0.0240884
-0.0983065
0.143292
-0.0449853
-0.401933
-0.0765641
0.0458842
-0.039648
0.0654076
0.0494275
-0.113508
-0.249069
0.362577
0.00810851
-0.0815455
0.073437
0.0868126
0.116843
-0.203655
-0.259818
0.164098
0.0641003
0.0169857
-0.0196026
0.00261685
-0.209155
-0.112362
0.321517
0.0488189
-0.0330059
0.413148
-0.14458
-0.268568
-0.0388488
0.0131923
0.0256565
-0.14731
-0.00418958
-0.0967103
0.123917
-0.0272072
-0.0133299
-0.0367774
-0.0578812
0.0946586
0.141639
-0.220201
0.0785619
-0.0747031
-0.164806
0.0174961
0.145799
-0.157557
0.0117574
0.114583
-0.127624
0.0423985
0.238088
0.0542184
-0.292307
-0.0676934
0.0888168
-0.0211234
0.0136949
-0.0195442
0.00584926
-0.0742606
-0.00327294
0.0775336
-0.0181392
-0.00783453
0.0259737
-0.0564515
0.0692016
-0.0127501
0.0680173
-0.0332806
-0.0347367
-0.33047
0.0962817
0.122372
-0.096586
-0.153144
-0.248366
-0.0501569
0.0678917
-0.0882915
-0.426165
-0.347243
0.509875
-0.162632
-0.325631
0.116475
-0.0764213
0.0712536
0.00516776
-0.0186282
-0.00309398
0.0217222
-0.11394
0.0989859
-0.105108
-0.0270239
0.104993
0.0931265
-0.19812
0.0701681
-0.0382036
-0.0319644
0.116536
-0.0449618
-0.0715744
0.0678028
-0.10458
0.286096
-0.293893
0.00779695
0.110085
-0.116601
0.00651609
0.103158
-0.116355
0.0131972
0.0210701
-0.0563433
-0.0202128
0.0204926
-0.00027979
-0.457989
0.0611852
0.396804
-0.0799508
0.367868
-0.287918
0.0677421
-0.0148198
0.020069
0.0696055
-0.00023171
0.00451621
0.181989
-0.0209416
-0.00293897
0.0849414
0.0803869
-0.0980637
0.0696367
0.028427
-0.0208451
0.00221688
-0.136973
0.121429
0.0388639
0.0291534
0.0650471
-0.0183174
-0.0467297
0.046413
-0.0654644
0.0190513
0.0417478
-0.189766
-0.0092892
-0.0293993
0.0386885
-0.309543
0.208387
-0.222002
-0.108759
-0.219057
0.295555
-0.0764975
0.272926
-0.452708
0.179782
-0.0717365
0.010681
0.0699272
-0.0270969
-0.0428303
-0.00126329
0.0963924
-0.0951291
-0.11816
0.0432819
0.296701
-0.480014
0.183313
-0.307097
0.158409
0.148689
0.000700499
-0.000788522
0.144918
0.000881713
-0.221301
0.0113939
0.209907
0.422003
-0.149077
0.343874
-0.199164
-0.144709
-0.133557
0.124452
0.00910518
-0.0474642
0.0866482
-0.039184
0.0691443
0.000326357
-0.0694707
-0.035671
0.00375447
0.159795
-0.0148773
-0.0326034
-0.00505183
0.0376552
0.163242
-0.0207716
-0.0207431
-0.00817808
-0.431671
0.0573176
0.0203159
0.0315939
0.3231
-0.446107
0.123007
0.0600195
-0.0136065
0.0767572
-0.0164459
-0.0544382
0.129574
-0.0751358
-0.0105708
0.0242657
-0.00807462
-0.372389
-0.0856003
0.127524
-0.1066
-0.0209241
0.525033
-0.133274
0.326545
-0.0905341
-0.236011
-0.00515077
-0.0549247
0.0600755
-0.0168442
-0.0220047
0.0224461
-0.0317353
-0.143656
0.0453494
-0.145733
-0.0190727
-0.0123857
-0.0275853
0.0729364
-0.0633973
-0.00953911
-0.47846
0.119708
0.358752
-0.467379
0.447714
0.0196651
0.042899
-0.0193758
-0.137214
0.122334
0.136258
-0.120676
-0.0155817
0.0964114
-0.0778217
-0.0185897
0.109349
0.0325005
-0.141849
-0.090729
-0.197191
0.28792
0.0412181
-0.0230297
-0.0834511
0.0901377
-0.00668666
0.076921
0.0571949
0.106068
-0.133091
0.0270226
-0.0279681
-0.0700956
0.0402517
0.0504455
0.224819
0.103984
-0.328804
-0.035851
-0.0438528
-0.00155212
-0.0186607
-0.221905
0.0628792
-0.091473
0.0237797
-0.340881
0.26093
0.209601
0.203547
0.243113
0.100183
-0.196113
0.0454932
0.15062
-0.299508
0.13912
-0.089309
-0.0187999
0.0135028
-0.0738956
0.0603929
-0.0112319
-0.0718235
0.0987729
-0.0269494
-0.245971
0.0891753
-0.0971968
0.0253734
0.0678038
0.0915049
-0.159309
-0.246386
0.0730585
0.100428
-0.113574
0.0131466
-0.0889146
0.0113332
0.00799189
-0.0432358
0.0352439
0.168124
-0.2257
0.0575764
-0.25359
0.390792
-0.137203
0.254361
-0.0328349
0.0586575
-0.0146194
0.27587
-0.26125
-0.0161464
0.00089324
0.0152531
-0.39273
-0.074649
0.0805042
-0.0455709
-0.101278
0.0904215
-0.274101
0.183372
0.0679645
-0.0708437
0.00287922
0.177167
-0.109364
-0.0316662
0.0558751
-0.0242089
0.0295994
-0.294772
0.265173
0.137575
0.197932
0.0456379
0.250505
-0.296143
0.0577863
-0.13543
0.0776433
-0.110846
0.000448088
-0.102541
-0.11261
-0.36585
0.0456602
-0.0376683
-0.0613901
-0.0189846
0.0803747
-0.0946915
0.0814648
0.0132267
0.0188504
0.0502939
-0.0706896
-0.0105345
0.0812241
-0.245275
0.188431
0.0568449
0.0429055
0.0145697
-0.0574752
-0.0264099
0.00827074
0.143341
0.0490456
-0.094491
0.0772854
0.0172056
-0.146611
0.159065
-0.0124539
-0.230591
0.361434
0.137441
-0.0280925
0.267821
-0.526022
0.0944994
-0.0672706
-0.0272288
-0.145273
0.16079
-0.0155171
0.0402167
-0.183203
-0.0345391
0.00343695
0.140836
0.018959
-0.0157148
-0.342824
0.358539
-0.0566055
0.0514547
-0.231819
0.217199
-0.152601
0.00686768
0.0819793
-0.0839523
0.00197297
-0.0144604
-0.0689906
0.132909
0.217767
-0.350676
0.0419938
0.0230533
0.0226357
-0.058778
-0.423299
0.0213659
-0.0949315
-0.204576
0.122685
0.0561307
-0.178816
-0.139794
0.145358
-0.0770634
0.056447
0.0206164
0.0192004
0.00129223
-0.0365647
-0.0469251
0.372242
-0.162872
-0.20937
0.201998
-0.214833
0.0128349
0.310255
0.0805585
-0.390814
-0.0862926
0.211912
-0.125619
0.045303
0.00100495
-0.013467
0.181591
-0.15992
0.0073196
0.00986823
0.0243672
0.406183
-0.280291
-0.125893
0.175953
0.196289
-0.251226
0.0299255
-0.0199605
0.0818698
-0.0619093
0.175609
-0.239924
0.0643154
-0.146091
-0.161881
0.307973
-0.164779
0.0249846
-0.0828926
0.00410006
0.000995296
-0.000368537
-0.000626759
-0.00841335
0.0110727
-0.0026593
-0.252324
0.196825
0.0554995
0.209082
0.245176
-0.339429
0.0942532
-0.162864
0.155722
-0.00164471
-0.405595
0.20428
0.201314
0.0594273
-0.0809881
-0.00909893
0.0853965
-0.00341724
0.00202989
0.00488317
-0.00691305
-0.112475
-0.319196
0.0718589
-0.0423563
-0.0295027
-0.0848564
0.330032
0.0375167
-0.0585494
0.0509237
0.190406
0.000443779
-0.0884883
0.0410241
-0.0854604
0.395716
-0.157946
0.446271
-0.0459187
-0.37738
0.0863093
-0.0654967
-0.0208125
0.0223978
-0.00402773
-0.0970672
-0.000609571
-0.0801204
-0.223994
0.304115
-0.0130679
-0.0611927
-0.0718486
0.0919175
0.108482
0.220346
0.203705
-0.0280962
0.264469
-0.280184
-0.0228813
0.0235484
-0.000667147
0.028177
-0.00507248
-0.0231046
0.133849
0.112256
-0.246105
-0.0596755
0.162436
-0.10276
0.243695
0.0438634
-0.287559
0.0452989
0.0265601
0.0484334
-0.0506308
0.00219732
0.350273
-0.447053
0.0967799
0.00767537
-0.0610117
0.0533364
-0.475605
0.0417214
0.433883
-0.0567533
0.0250871
-0.494148
0.282546
0.211602
0.342246
-0.209338
0.0454698
0.0246983
0.00871196
-0.0288447
-0.015177
0.397825
-0.298686
-0.0991383
-0.066102
-0.206812
0.272914
0.0262658
0.00457058
-0.0308364
-0.153023
0.00774992
-0.225701
0.0796098
-0.219347
-0.0259289
-0.00630025
-0.0237852
0.0300854
-0.0282026
-0.0675022
0.0957048
-0.0519728
0.00230422
0.0496686
-0.237155
-0.0933156
0.000249176
0.0109015
0.0294675
0.242181
-0.271648
0.00175155
-0.0552724
0.0890012
-0.0337288
0.424461
-0.304139
-0.120322
0.058704
-0.0786645
0.342868
-0.3134
0.0425783
0.0934171
-0.0855571
-0.0039342
0.00361481
0.000319393
0.33551
-0.227028
-0.528017
0.248365
0.279652
-0.0720127
0.00116899
-0.246493
-0.183109
0.00645878
-0.0114394
0.00498065
0.167862
0.0188671
-0.186729
-0.0105597
-0.185553
-0.0130192
-0.00312714
0.00900509
0.0330088
-0.150112
-0.0261082
-0.0240644
0.191926
-0.341597
-0.0620863
0.403683
0.0321476
-0.00941551
-0.0227321
0.0335444
-0.319443
0.227145
0.0922976
-0.00247199
-0.0975929
0.100065
-0.144125
-0.26147
-0.00616343
-0.00904381
-0.210279
-0.317737
0.0290371
0.0654623
-0.103457
0.281212
-0.20614
0.119847
-0.099937
0.00286979
0.00745175
0.0679464
-0.0753982
0.112511
0.000415502
-0.112927
0.0728862
0.302666
-0.375552
-0.336964
0.0998097
0.0374378
-0.0112756
-0.0261621
0.377112
-0.304225
0.197211
-0.311364
0.133941
0.177423
-0.368176
-0.107428
0.0324361
-0.0160609
-0.0163752
0.00324839
-0.0344463
0.0311979
-0.013
-0.113932
-0.0209463
-0.0589694
-0.0714321
-0.0140895
0.0293986
0.00449946
-0.0338981
-0.096756
-0.0758989
0.172655
-0.164199
-0.0817718
0.376394
-0.114415
-0.261979
-0.0374947
0.254436
-0.216941
-0.337832
0.292502
-0.408302
-0.0399214
-0.0176774
0.0427077
0.0223702
-0.0157965
-0.00657363
-0.00772127
-0.0437229
0.0275381
-0.00223089
-0.0586001
0.0293365
0.0292636
0.11039
-0.134309
0.0239188
-0.0577922
0.00863435
-0.0561022
0.0474679
-0.138791
0.489064
0.0606235
-0.0519891
-0.0404124
0.0786151
-0.0956649
0.0170499
-0.0145946
-0.00473116
0.0341298
-0.146366
0.158588
-0.0122212
-0.110582
-0.196515
0.00987905
0.0124911
-0.254525
0.181149
0.0733763
-0.126536
0.145632
-0.0190964
-0.176172
0.116497
0.00995472
-0.0425581
-0.0822463
0.0692434
0.013003
-0.1043
-0.207065
-0.0650621
0.0149051
0.00130267
0.0337217
-0.0551735
0.0214518
0.182157
-0.059472
0.344079
-0.238641
-0.105439
-0.202087
0.140581
0.0615066
-0.131169
0.0688653
0.0623035
-0.210021
-0.0284446
0.238465
-0.108065
0.00295701
0.0609753
0.0354361
-0.34114
0.311742
-0.248653
0.084454
0.0305138
-0.249571
0.128351
0.310925
-0.439276
0.00235569
0.000488883
-0.00284457
-0.00951251
0.0344055
-0.024893
0.336062
-0.145283
-0.190779
0.0295142
-0.0488436
0.0830257
-0.0341821
0.00657584
-0.0410222
-0.0238575
0.0930832
-0.0692257
-0.298677
0.390159
-0.0914821
0.030073
-0.0364145
-0.0890072
0.146794
-0.101352
0.0731496
-0.0241015
-3.38324e-05
0.0241353
-0.321818
-0.0160145
-0.154087
0.00772059
-0.0172494
0.0450566
-0.0278072
-0.0427917
-0.00315497
0.0459467
0.211761
-0.249256
0.117946
-0.128527
0.0105803
-0.00696947
0.00314941
0.174645
-0.240744
0.0660992
-0.428612
0.329259
0.0993527
-0.0376963
-0.0197233
0.0574196
0.0405269
0.00477608
0.100596
-0.0718139
-0.080623
0.00919084
0.0185867
-0.00160096
0.0151316
-0.107064
0.0919325
-0.158529
0.141721
0.0168078
-0.00203716
0.0139412
-0.0119041
0.0242167
-0.0839333
0.0597166
-0.0236871
-0.000414397
-0.086316
-0.0185589
0.00124583
0.0034796
-0.0163545
-0.107746
0.338877
-0.241614
-0.00841335
-0.0985713
0.47423
-0.375659
-0.101864
-0.306209
0.408073
0.248068
-0.355854
0.107786
0.0114706
0.020677
0.0778868
-0.0303734
-0.0475134
0.307443
-0.404908
0.0974644
-0.0519525
0.0347031
-0.214227
0.510928
0.128774
-0.112133
-0.0166408
-0.132288
0.0611148
0.0711727
0.00233506
0.00873759
-0.0776833
-0.0676761
0.0365529
0.199279
0.0726178
-0.271896
0.0714232
0.209602
-0.281025
-0.0562847
0.294373
0.02553
0.00183083
-0.0273608
-0.0887677
0.027073
0.0616947
-0.0361061
0.0451112
0.519207
-0.264766
0.0629241
-0.0200186
-0.453211
0.414847
-0.015611
-0.0469173
0.375892
0.0908411
-0.187597
0.122795
-0.0114553
-0.111339
-0.00361093
0.0823812
-0.0787702
0.526932
-0.269135
-0.257797
-0.0353862
-0.0501708
-0.129608
0.0339245
0.070491
0.0152318
0.00669484
-0.0212957
0.0115127
0.0166643
0.27979
-0.208367
-0.00292631
-0.0535252
0.0199664
-0.0351483
0.015182
-0.100811
0.00478472
-0.00378942
0.0365205
-0.09005
0.0535295
-0.00396686
-0.000267001
-0.073383
0.0150628
0.0583203
0.0346962
-0.0350318
0.000335608
-0.326301
0.454652
0.131981
0.0288091
0.165704
0.0890581
-0.0658219
0.0812462
-0.0154242
0.0517253
-0.0435662
-0.00815916
0.0526754
0.0165142
-0.261886
0.185925
0.0759612
0.411455
-0.0105783
-0.400877
-0.0128508
0.0139253
-0.00107457
0.00809424
-0.0109023
0.00280805
0.0252851
-0.0485154
0.381963
0.0689659
-0.450929
0.0427595
0.0351273
-0.010633
-0.330507
-0.118985
0.0983153
0.0206697
-0.000236107
0.0224766
0.0940597
0.0207642
-0.0186315
-0.00213267
0.240032
-0.0891215
-0.150911
0.0130251
-0.139561
-0.00558592
0.00693751
-6.81773e-05
0.00423093
-0.00416276
0.169047
-0.0370662
0.324431
-0.399815
0.0753839
0.0119116
-0.0982276
-0.0517352
0.0160789
0.0356563
-0.0596582
-0.0726294
-0.230954
-0.114075
0.345028
-0.0251008
-0.0333832
-0.0613084
-0.0750799
0.00388423
0.0711957
-0.206879
0.0307064
-0.0752911
-0.00113024
-0.47834
0.158537
0.319803
0.445559
-0.0527355
-0.392823
-0.0158154
-0.00372881
0.0121973
-0.0828868
0.00606872
-0.0189195
-0.00889799
-0.00726605
0.016164
-0.087514
0.0627971
0.0247168
-0.0814392
0.0591872
0.022252
-0.0269533
-0.00726573
0.298108
-0.191517
-0.10659
0.114898
0.0171698
-0.132068
0.0853646
-0.106834
0.0278558
-0.0527489
0.0248932
0.0183735
0.184093
-0.115951
0.00792915
0.0295086
-0.0949684
0.0913575
-0.0107777
0.0437089
-0.0329312
-0.10418
-0.436619
0.134715
0.0966772
-0.0903599
-0.00631726
0.00544142
0.238254
-0.0111077
0.0175664
0.0706071
0.0281254
-0.0987325
-0.165826
0.145278
0.0205485
-0.037981
0.00922349
0.0287575
-0.0200146
0.109124
-0.0891097
-0.0154875
0.0119219
0.00356563
-0.00300162
-0.000932588
0.00422674
0.0518586
-0.0560853
-0.0538951
0.0161988
0.0403692
-0.0594755
0.0191063
-0.0717955
-0.164435
0.30855
-0.450379
0.141829
-0.0690949
-0.00867313
0.00371719
0.00495594
-5.268e-05
0.0891266
-0.0890739
0.0997138
0.022658
-0.00106496
0.0212162
-0.177379
-0.0294994
-0.163172
0.147712
0.0154596
-0.261216
0.214588
0.0466285
-0.00319299
-0.00247224
0.00566524
-0.0505314
0.235499
-0.184968
0.0467822
-0.0173653
-0.0873854
0.0259953
-0.258011
-0.0769289
-0.0918252
0.056439
0.0283981
0.00380773
-0.000904063
-0.00290367
-0.0734554
-0.125758
0.303761
0.312815
-0.0647472
0.0222527
0.0369602
-0.0592128
0.401066
0.0447891
-0.445855
-0.134852
0.117056
0.0177952
0.109352
0.246138
-0.35549
0.0377162
-0.0076432
0.039604
-0.201369
0.0545274
0.0300269
-0.103045
-0.00501986
0.127105
0.0314831
-0.335534
-0.0768665
0.4124
0.166778
-0.185755
0.0189768
-0.0130468
0.35493
-0.152605
-0.202325
0.070305
-0.177105
0.1068
0.00218905
-0.0338338
0.0316447
0.0214057
-0.00440592
-0.0169998
0.0378334
0.0811653
0.0489538
-0.00217166
0.0149387
0.409523
-0.424462
-0.384348
0.256094
0.128253
-0.117439
-0.0424809
0.117937
0.293518
0.0281924
-0.0185818
-0.100264
0.00686713
-0.126246
-0.0174095
-0.406147
0.332248
0.100328
0.0121828
-0.105158
0.0333438
-0.479127
0.0224107
0.456716
0.000347278
-0.00238444
-0.0769962
0.0620599
0.0149362
-0.322812
0.413852
-0.0910398
0.350667
-0.467041
0.116374
0.0463987
0.00255517
-0.0396139
0.00427997
0.0353339
0.117003
-0.347957
0.0138598
-0.0421689
0.0283091
0.0318098
-0.0562026
0.0243928
-0.249281
-0.0876828
0.508815
-0.26045
-0.0209416
0.0134134
0.0190227
0.0725706
-0.0590679
-0.0863459
0.0624884
-0.0562085
-0.0171745
-0.0751226
-0.184236
0.259359
-0.049615
0.0196913
0.00764098
-0.0163249
-0.00683901
0.00743255
-0.129321
0.121889
-0.152312
0.146994
0.00531783
0.0204221
-0.053257
-0.0745181
-0.0129959
-0.275924
-0.187687
0.463612
-0.0120379
0.112466
-0.0782374
0.0570932
0.231782
-0.378381
0.146599
-0.252332
-0.0954667
0.347799
-0.171656
0.00582926
0.195749
0.0759022
-0.482049
-0.0302322
0.0207197
0.0332017
-0.0588187
0.025617
0.422998
-0.021932
0.221435
-0.00239592
-0.000695608
0.00309153
0.00587584
0.00317411
-0.00779067
0.00461656
0.253245
0.130685
-0.358168
-0.0236824
0.0554922
0.130415
-0.173746
0.0433314
0.0432901
0.0591906
-0.102481
0.265762
-0.254368
-0.414242
0.0726449
-0.377518
0.446511
-0.068993
0.381142
0.0930885
-0.0213483
0.00122749
0.31966
0.189155
0.388917
0.364201
-0.132419
-0.362132
0.235543
0.126589
-0.0197407
-0.00666921
0.0636013
-0.273622
-0.140848
0.0146017
-0.285821
0.0928788
-0.0683519
-0.0106491
0.0790011
0.0703514
-0.0507967
-0.0195546
0.079414
0.186348
-0.024819
0.0471579
-0.0223389
-0.0500302
-0.041795
-0.276053
-0.0798009
0.424575
-0.00846037
-0.416114
-0.158289
0.0263044
0.131984
0.221454
0.133477
-0.381973
0.00445481
0.0994164
-0.44666
-0.464701
0.188777
-0.0655782
-0.0083572
0.0739354
-0.0580928
0.101383
0.166638
-0.0395337
0.0539367
-0.0837298
0.0297931
0.0660737
-0.0868766
0.0208029
0.413996
0.213522
-0.000127093
-0.017445
0.0175721
0.0226492
-0.0859199
0.0632707
0.0112789
0.0861645
-0.0862172
-0.0653589
0.0166995
0.0486594
0.251548
-0.178632
-0.0729157
0.0956951
0.313828
-0.00445579
0.0180139
0.0142817
-0.0415809
0.142989
-0.101408
-0.129031
0.310032
-0.181001
0.0478486
-0.0046589
-0.0431897
-0.000575039
0.00293073
-0.0817915
-0.318024
-0.0462063
0.112859
-0.0666525
-0.001811
0.00990524
-0.00893509
0.0290181
-0.020083
0.119757
-0.148444
0.0286876
-0.0879351
0.102112
0.109646
0.0845717
-0.194217
0.000471667
0.0126646
-0.0131363
0.465646
-0.399234
0.298638
0.177552
0.0588497
-0.0256479
0.00936111
-0.0105746
-0.00535959
0.00144324
-0.064417
-0.0197988
0.0842158
-0.0521977
0.0588788
-0.00668111
-0.0738936
-0.325849
0.255908
0.0699408
-0.359305
-0.134843
-0.118627
0.138511
-0.0198841
-0.0413102
0.0617322
0.1982
-0.327231
0.00798992
-0.00350912
-0.0044808
-0.164627
0.0213562
0.143271
0.0219262
0.035808
-0.0577342
0.0188081
-0.34722
0.0979383
0.0331521
0.0146965
-0.0888205
-0.0891343
0.159439
-0.0994273
0.0674055
-0.07794
-0.191287
-0.330866
-0.250571
-0.111561
0.129325
-0.0144265
-0.0363837
0.0502435
-0.00809861
-0.119321
0.12742
-0.0183182
-0.0402819
0.491959
-0.344197
-0.147761
0.0753536
-0.19533
0.119976
0.0941503
-0.0235433
-0.0801639
0.00564581
-0.107037
0.107453
-0.00495427
0.0368467
0.0257902
0.070887
0.0677862
0.0176731
-0.266779
0.191657
0.0272418
-0.0414613
0.0142196
-0.0457605
0.0435732
0.0021873
0.0659503
-0.04879
-0.0171604
-0.0619332
0.00973553
-0.0372364
-0.00678643
0.0440228
0.28168
0.00686506
0.00112486
0.114839
0.0176252
0.0936529
0.191935
-0.285588
0.0133317
0.0575099
-0.0708416
-0.0342661
-0.00648221
0.0407483
-0.00213957
-0.0192087
0.117922
0.0750691
-0.192991
0.0143266
-0.0198209
0.439706
-0.21685
0.0330175
0.0155736
-0.0485911
0.115187
0.00272018
0.0124871
-0.411535
0.0815832
-0.0276465
0.112085
0.0142409
-0.126326
-0.0441749
0.0018186
0.0528286
0.194684
0.0073145
-0.006105
-0.0314149
-0.179784
0.211198
0.039978
0.00735997
-0.00533009
0.468487
-0.328004
-0.140484
0.171159
-0.263905
-0.145705
0.0270783
0.0845711
-0.104586
-0.131478
0.172224
0.0022385
-0.174462
-0.0341948
0.0418702
-0.130997
0.21781
-0.0578329
0.0152554
-0.00358722
0.106745
0.0631849
-0.0794653
0.0162804
0.171875
-0.0218386
-0.150036
0.105127
0.0914222
-0.196549
-0.0159692
0.0359356
0.135524
-0.0421072
-0.385032
0.108979
0.0227561
-0.0475751
-0.0374748
-0.000462119
0.0076077
-0.000459241
0.00469229
-0.00423305
-0.0370269
0.0132418
0.0992286
-0.117471
0.0182425
-0.126117
0.50808
-0.306511
0.511827
-0.0758615
0.192704
0.242136
0.0662751
-0.308411
-0.00436044
0.0614537
-0.00146074
-0.00389885
-0.00884014
-0.0509938
0.0598339
-0.35386
0.340841
0.0130187
-0.0666466
0.0758265
0.000820107
-0.00614652
0.00532641
0.0319674
-0.0474666
0.0154991
0.275247
-0.0996798
-0.102407
-0.0311264
0.00919035
0.0219361
0.0504922
-0.0174747
0.0901623
-0.112812
0.0226495
0.0939388
0.00929503
-0.103234
0.108266
0.167641
-0.190272
0.158857
-0.0134628
-0.115064
0.018907
0.00425694
-0.0436688
-0.230049
0.273718
-0.00726588
0.00375676
-0.229572
0.260086
0.152825
-0.00691686
-0.00170944
0.0086263
-0.0284096
-0.0444199
0.0728295
0.11686
0.123172
-0.553206
0.234141
0.319065
-0.122326
-0.0231879
-0.0754997
0.0927869
-0.0172872
0.0904068
0.0133244
-0.103008
0.0485696
0.274493
-0.188264
-0.0862296
0.293442
-0.207281
-0.0861608
0.188334
0.0274848
0.0104815
-0.0379664
-0.0746275
0.0868248
0.0886976
-0.0911696
0.0102506
-0.0309937
-0.153976
-0.0106514
0.395739
-0.28332
-0.112419
-0.223841
-0.0378378
0.261679
-0.0999062
0.0803515
0.0195546
0.0212813
-0.085898
0.0646166
0.108072
-0.306617
0.198545
0.133699
-0.140877
0.00717781
0.0366942
-0.125701
0.0453868
0.357887
-0.449757
0.239481
0.210276
-0.395989
0.279936
0.116053
0.359868
-0.123312
-0.236556
-0.277648
-0.172109
-0.0768535
-0.0248522
0.0358445
0.311759
-0.0392321
0.0378798
-0.0446811
-0.135378
-0.112099
0.131705
-0.019606
0.0138951
0.0697518
-0.0836469
0.0568846
0.136988
0.309503
-0.0673671
-0.0219882
0.049473
-0.0174129
0.170488
-0.153075
-0.000149319
0.00413115
-0.00398183
0.164774
-0.22078
0.0560065
-0.159851
0.0117494
0.148101
-0.0557441
0.0785944
-0.0228503
0.239888
-0.426148
0.18626
0.00446776
-0.000660033
0.192504
-0.162905
0.0876895
-0.0184461
0.00570327
-0.022978
-0.0227825
0.0155882
-0.127687
0.130711
-0.0914238
-0.0392872
-0.284807
-0.142051
0.426857
-0.0296508
0.0321684
-0.00984341
0.0574189
-0.0475755
0.135606
0.157836
-0.0634817
0.255468
-0.0636036
0.24963
-0.186027
-0.0221642
-0.0143276
0.0364918
0.129938
0.0121683
-0.142106
0.0512651
0.0186622
-0.00619689
-0.0166844
0.19202
-0.187124
-0.0600048
0.247129
0.0110342
0.317351
-0.328385
0.0313047
0.00526292
-0.0365676
-0.114279
0.127974
-0.0136955
-0.108748
-0.0213117
0.0323736
0.0539357
-0.0016241
0.00155592
-0.0726724
-0.0532272
-0.0144876
0.00416698
-0.0196276
0.00086019
0.0187674
-0.0649498
0.372393
-0.440607
0.383149
-0.0308642
0.0527904
-4.38484e-05
-0.00444078
0.00448463
0.0688757
0.010192
-0.0757703
-0.256539
0.00829439
-0.0766463
-0.361716
0.333719
0.0279968
-0.292522
-0.0691932
0.0747811
0.0134931
-0.00237308
-0.01112
-0.316851
0.327885
-0.296505
-0.0994838
0.238074
-0.281743
-0.00497322
-0.348886
0.00612459
0.0393452
0.347846
-0.230842
0.023635
0.0562918
-0.34205
0.121923
0.220126
-0.102391
0.109824
-0.0150053
-0.0454276
0.060433
0.18436
0.342571
0.297756
-0.189684
0.0140829
-0.0895826
-0.282988
0.0856615
0.157052
-0.0266377
-0.0965837
0.108688
-0.0121047
-0.00464283
-0.0172839
0.00438903
-0.0654008
0.414213
-0.208873
-0.20534
0.0786813
0.0214178
-0.100099
0.0633997
-0.0407356
-0.022664
0.251155
0.0833253
-0.33448
-0.139646
0.0173203
-0.0463846
0.0386784
0.00770627
-0.00667866
0.0855449
-0.0200129
-0.0193213
-0.0805849
-0.0453175
-0.111903
0.157221
-0.00795217
-0.0884102
0.0963624
-0.14235
0.346721
-0.204371
0.350838
0.156494
0.11041
0.316806
-0.427216
0.0946767
0.143567
0.0954245
-0.238991
-0.109153
0.00211555
-0.0466355
0.0156317
-0.00411427
-0.0113732
-0.159005
0.36309
-0.0425349
-0.0353826