/*--------------------------------*- C++ -*----------------------------------*\
| =========                 |                                                 |
| \\      /  F ield         | OpenFOAM: The Open Source CFD Toolbox           |
|  \\    /   O peration     | Version:  v2012                                 |
|   \\  /    A nd           | Website:  www.openfoam.com                      |
|    \\/     M anipulation  |                                                 |
\*---------------------------------------------------------------------------*/
FoamFile
{
    version     2.0;
    format      ascii;
    class       surfaceScalarField;
    location    "100";
    object      phi_0;
}
// * * * * * * * * * * * * * * * * * * * * * * * * * * * * * * * * * * * * * //

dimensions      [0 3 -1 0 0 0 0];
oriented        oriented;


internalField   nonuniform List<scalar> 
27055
(
-0.0240444
0.0240444
-0.258708
-0.457861
0.334819
0.123042
-0.356177
0.166043
0.190134
-0.0297461
-0.0546062
0.0843524
0.0807732
-0.0379549
-0.0428183
-0.186875
-0.0771476
0.264023
-0.433285
0.373976
0.0593092
0.108127
-0.0214708
-0.0866557
-0.0916946
0.0619485
0.0144251
0.200402
-0.214827
0.122308
-0.145395
0.0230866
-0.110404
0.00917602
0.101228
-0.0399571
0.0387806
0.00117657
-0.102396
0.119003
-0.0166071
-0.0610376
0.0845699
-0.0235324
-0.478499
0.476595
0.00190438
0.0820095
0.324661
-0.406671
-0.364571
0.219736
0.144835
0.0907039
-0.0799247
-0.0107792
0.0354639
-0.0653364
0.0298725
-0.058188
0.228288
-0.1701
-0.209793
0.224219
0.23886
-0.228398
-0.0104626
0.127213
-0.0493691
-0.077844
0.0502788
0.0769343
0.0839691
0.247578
-0.331547
0.0484189
0.0323544
-0.345802
0.427812
-0.167222
-0.290639
0.342202
0.205316
-0.547518
0.00322291
-0.00722096
0.00399804
0.261808
0.140528
-0.402335
-0.00807232
0.0223353
-0.014263
0.0407343
-0.0428703
0.00213603
-0.0506209
0.0725692
-0.0219483
0.0342368
-0.0342201
-1.67182e-05
0.481326
-0.177909
-0.303417
0.0217331
0.0250309
-0.046764
0.548142
-0.285729
-0.262413
-0.0244903
0.00212105
0.0223692
0.124713
-0.140077
0.0153639
0.00610348
-0.0767195
0.070616
0.0241185
0.00788164
-0.0320002
0.275073
0.160664
-0.435737
0.0281573
-0.0504093
0.022252
-0.256502
-0.103473
0.136026
-0.0113132
-0.0835803
0.0633524
0.0202279
0.186769
-0.288485
0.101716
-0.37239
0.324878
0.0475115
0.391759
0.0664127
-0.458172
0.0149842
-0.0204803
0.00549612
0.116225
-0.120512
0.00428654
0.0367309
0.0559832
-0.092714
0.0894967
-0.0430829
-0.0464137
0.00791656
-0.314555
0.306639
0.395673
-0.227476
-0.168198
0.00428574
0.000147143
-0.00443289
0.185299
-0.283573
0.098274
-0.126225
0.0238297
0.44574
-0.170667
-0.0867585
-0.0340624
0.120821
-0.160397
-0.19578
-0.0820776
-0.0262802
0.108358
-0.122619
0.202478
-0.0798584
-0.00630338
0.00606628
0.000237106
-0.00178056
0.00500347
-0.23419
0.318159
-0.205867
0.119109
-0.276946
0.284863
-0.445997
0.340593
0.105404
-0.00122655
-0.00599441
0.0294177
0.0241951
-0.0536128
0.13417
-0.0550616
-0.0791084
0.0566475
-0.00135706
-0.0552904
0.107399
0.0578652
-0.165264
0.190846
-0.236237
0.0453909
-0.0152381
0.0152381
-0.173339
0.242102
-0.0687629
0.00512816
-0.00690872
0.0999884
-0.0121967
-0.0877917
0.0153725
-0.124116
0.108743
0.139919
0.0972198
-0.237139
0.0486541
0.0138355
-0.0624896
0.051074
0.0384226
-0.429608
0.328978
0.10063
-0.170175
-0.194396
0.0922167
0.00777176
-0.0844627
-0.0237344
0.108197
-0.376461
0.206286
-0.32721
0.231245
0.095965
-0.0738983
0.4161
-0.0352799
0.0854706
-0.0501906
-0.171425
-0.205037
-0.0775399
-0.128328
0.0972654
-0.334944
0.237679
-0.286893
0.192414
0.094479
0.00825128
0.043184
-0.0514353
-0.330769
0.178011
0.152758
-0.083763
0.104414
-0.0206514
-0.00482195
0.121047
0.0615077
-0.036146
-0.0253617
-0.0934132
0.0141871
0.0792261
-0.0677204
0.0170995
-0.107341
-0.0155311
0.122872
-0.380952
0.21373
0.035621
0.0428428
-0.0784638
-0.513419
0.513419
0.125887
-0.159949
-0.224542
0.101923
0.0630309
-0.0449916
-0.0180393
0.102371
0.177763
-0.280134
-0.271956
0.0850804
-0.319796
-0.0525933
0.137135
-0.151508
0.0143728
0.017257
-0.106814
0.0895566
0.0463138
-0.0181565
0.114234
-0.0976866
-0.0165475
-0.146359
0.141684
0.00467494
0.130848
0.255394
-0.386242
0.261338
0.219988
-0.0289269
0.0201821
0.00874481
0.069196
-0.0232382
-0.0459578
-0.00369033
0.0318702
-0.0281799
0.0897081
-0.0836046
-0.0215596
-0.0688234
0.0903829
0.288328
-0.46483
0.176502
-0.0243694
0.0598333
0.0123823
0.0506486
-0.366236
0.316018
0.0502177
0.243848
-0.0613064
-0.182542
0.0168671
0.097367
0.347651
-0.0369169
-0.310734
-0.00760811
0.0225923
0.0457147
0.0109328
-0.0797099
-0.00387044
-0.2582
0.507332
-0.249133
-0.280046
0.191996
0.0880504
0.0235202
0.0244024
-0.0479226
-0.069769
0.1065
-0.151114
0.0437729
0.00642749
0.0122009
-0.0186284
-0.173954
0.347606
-0.173652
0.132474
-0.0527496
-0.0797241
-0.0108597
-0.100237
0.111097
-0.122522
-0.00370372
-0.238902
0.498056
-0.259155
0.00379105
-0.0319386
0.0281476
-0.0917753
0.0793293
0.012446
-0.0134356
0.0112999
0.116076
-0.131705
0.0156289
-0.0153319
0.0977583
-0.0824264
-0.0514032
0.158802
-0.104889
0.0204265
-0.0203753
-0.00411494
0.093922
-0.0672612
-0.0266608
-0.101727
0.0196491
-0.0440949
0.0540665
-0.00997156
-0.0947473
-0.148
-0.110708
0.316701
0.0309496
-0.0796323
-0.00395038
-0.002353
-0.0514543
0.0148154
0.0366389
0.335507
-0.197325
-0.138182
-0.0775766
0.0914998
-0.0139231
0.01977
-0.0133425
-0.172532
0.0222627
0.150269
-0.0565918
0.00717188
0.0494199
-0.0289474
-0.190388
0.219335
-0.334788
-0.0984963
-0.0293969
-0.336839
0.18566
-0.161762
-0.0307255
0.192488
-0.0231832
0.0231832
0.209734
-0.0698148
0.366734
0.0503031
-0.417037
0.0409567
-0.000222436
-0.239072
-0.0927038
0.331776
-0.0824288
0.0655118
0.016917
-0.0299255
0.0516587
-0.374356
-0.0716414
0.0245517
0.036956
0.0219491
-0.0219491
0.237289
-0.156805
0.239835
-0.0830297
-0.0013415
0.0499956
0.376878
0.171265
0.0143054
-0.0157773
0.00147184
0.165333
-0.0564392
-0.108894
0.348217
-0.152779
-0.195438
0.0164319
0.00623912
-0.0390032
0.032764
0.142039
-0.315993
0.00627549
-0.201355
0.19508
-0.19295
0.295321
-0.0148884
-0.190458
0.205346
0.427115
-0.0185767
-0.408538
-0.101154
0.32883
-0.227676
0.254441
0.222856
-0.477298
-0.1309
0.14837
-0.0174704
-0.108104
0.0331796
0.0749244
0.0519065
-0.0310134
-0.0208932
-0.0617655
0.0973865
-0.00382625
-0.00274203
0.00656828
0.0177089
0.0529673
-0.0706762
0.00119946
0.00700113
-0.00820059
0.0814347
-0.0625596
-0.0188751
0.0257881
-0.126947
0.101159
-0.199121
0.346693
-0.147572
0.00826697
-0.130789
-0.103469
0.019706
0.0584045
-0.0501533
0.0603582
0.00163934
-0.0619975
-0.145528
0.0146279
-0.0920261
0.0766942
0.314312
-0.0830661
-0.284029
-0.0969229
-0.162686
-0.124207
0.0420302
-0.0382392
-0.0824635
-0.20111
-0.00826378
0.0128617
-0.00459797
-0.00713779
-0.13177
0.138908
-0.0331492
0.460264
0.236089
-0.265037
-0.0103406
0.199202
0.0396584
0.135233
-0.374306
-0.401511
0.343291
0.05822
0.338086
-0.146667
-0.191419
0.00557973
-0.178112
0.0183775
0.0260643
0.0678576
-0.170722
0.432529
0.0158174
-0.0497057
0.0338883
-0.141866
-0.0354624
0.177328
0.102609
-0.0374042
-0.0652044
0.297589
-0.11082
0.138534
-0.514211
0.375677
0.204841
0.133245
0.0181828
-0.0492095
0.0310268
0.0886182
0.0139904
0.114838
-0.0249357
-0.0899026
0.0295521
-0.00543352
-0.0466958
-0.00989604
-0.514456
0.204085
0.310371
0.00474359
-0.0042466
-0.000496983
-0.000105313
0.000408185
-0.000302872
0.142475
0.0143376
-0.156813
-0.00763235
0.0654585
-0.0578262
0.0811684
-0.0494231
-0.0317453
0.317303
-0.166121
-0.151183
-0.0855242
0.0229646
0.221699
-0.215423
-0.0201386
0.024597
-0.00445846
0.025811
-0.0523845
0.0265735
-0.0105584
0.00229458
-0.0425935
0.056429
-0.0834952
0.0010664
0.192399
-0.142998
-0.0494002
-0.0852409
-0.0352709
0.0692034
-0.0833982
0.0141948
-0.0574574
0.424192
-0.0770085
0.280027
-0.203018
-0.522153
0.403274
0.118879
0.0253227
-0.0301092
0.00478653
-0.0481583
0.00406333
0.0380854
0.062148
-0.060191
-0.00195698
0.149753
-0.21106
-0.0196903
0.011618
0.0349302
-0.0698437
0.0349135
-0.448226
0.450735
-0.00250936
0.212806
0.104498
0.011175
-0.0113026
0.000127552
0.132481
-0.117108
-0.159021
-0.0646113
0.223633
-0.272268
0.410802
-0.026874
0.0231836
0.0183827
0.00684893
-0.0252316
-0.00922413
-0.0957068
0.254761
-0.159054
0.0256853
-0.0163145
-0.00937086
0.079932
-0.0165796
0.0769876
-0.218853
-0.0683665
-0.01496
0.0833264
-0.0311185
-0.00304736
0.0341658
0.192128
-0.121318
-0.0708103
0.103751
-0.086494
0.149744
0.198473
-0.0748927
0.115511
-0.0406185
0.00157495
0.0127305
0.000384396
0.121924
-0.0240011
-0.00510638
0.0672544
0.00925229
0.016433
0.275904
-0.193067
-0.0828371
0.289003
0.156736
-0.176237
0.162303
0.0139339
-0.18008
0.193879
-0.0137994
-0.484431
0.0602073
0.424223
0.0316365
-0.0478387
0.0162023
-0.0788726
0.0149338
0.0639387
-0.43141
-0.053021
0.144957
0.250716
-0.132194
0.0240747
-0.0983291
0.143312
-0.0449833
-0.401934
-0.0765648
0.045888
-0.0396489
0.0654068
0.0494315
-0.113512
-0.249068
0.362581
0.00812354
-0.0815765
0.073453
0.0868247
0.11684
-0.203665
-0.259817
0.16411
0.0641071
0.0170081
-0.019633
0.00262487
-0.209162
-0.112358
0.32152
0.0488247
-0.0330073
0.413151
-0.144586
-0.268565
-0.0388397
0.0131906
0.0256491
-0.147324
-0.0041844
-0.0967407
0.123963
-0.0272222
-0.0132995
-0.0367673
-0.0578863
0.0946536
0.141653
-0.22021
0.0785575
-0.0747565
-0.164817
0.0174936
0.145796
-0.157583
0.0117876
0.114588
-0.127643
0.0424017
0.238089
0.054223
-0.292312
-0.067701
0.0888298
-0.0211288
0.0135846
-0.0196034
0.0060188
-0.0742639
-0.00327599
0.0775398
-0.0182355
-0.00781921
0.0260547
-0.0564468
0.0692056
-0.0127588
0.0680336
-0.0332817
-0.0347518
-0.330476
0.0962853
0.122385
-0.0965973
-0.153151
-0.24836
-0.0502292
0.0679381
-0.0882915
-0.426165
-0.347244
0.509875
-0.162631
-0.325632
0.116471
-0.0764376
0.0712624
0.00517519
-0.0186583
-0.00308795
0.0217462
-0.113952
0.0989922
-0.105172
-0.0270223
0.105003
0.0931197
-0.198123
0.070175
-0.0382001
-0.031975
0.116546
-0.0449737
-0.0715724
0.067808
-0.104575
0.286097
-0.293901
0.00780313
0.110099
-0.116617
0.00651806
0.103164
-0.116365
0.0132008
0.0210714
-0.0563514
-0.020241
0.0205267
-0.000285702
-0.457987
0.0611798
0.396807
-0.0799559
0.367873
-0.287917
0.0677645
-0.0147972
0.0200931
0.0696149
-0.00023495
0.00452069
0.181991
-0.0211058
-0.00293867
0.0849462
0.0803872
-0.0980449
0.0696357
0.0284092
-0.0208755
0.00221726
-0.13697
0.121439
0.0388751
0.0291584
0.0650414
-0.0182977
-0.0467438
0.0464145
-0.065463
0.0190485
0.0417621
-0.189762
-0.00866329
-0.0297684
0.0384317
-0.309545
0.208391
-0.222005
-0.108763
-0.219067
0.295555
-0.076488
0.272928
-0.45271
0.179783
-0.0717549
0.0107174
0.0699197
-0.0271782
-0.0427416
-0.0012621
0.0964021
-0.09514
-0.11818
0.0432874
0.296701
-0.480013
0.183313
-0.307108
0.15842
0.148688
0.000686285
-0.000791598
0.144946
0.00085008
-0.221299
0.0113903
0.209909
0.422005
-0.149078
0.343876
-0.199162
-0.144714
-0.133566
0.124462
0.00910389
-0.0474686
0.0866564
-0.0391878
0.069151
0.0003143
-0.0694653
-0.035692
0.00375341
0.159795
-0.0148493
-0.0326003
-0.00505222
0.0376525
0.163252
-0.0207771
-0.0207258
-0.00820112
-0.431674
0.0573183
0.0202402
0.0316664
0.323102
-0.44611
0.123007
0.0600196
-0.0136051
0.0767618
-0.0164036
-0.0544676
0.129658
-0.0751906
-0.0105496
0.0241342
-0.00808091
-0.372392
-0.0855953
0.127535
-0.106607
-0.0209277
0.525034
-0.133274
0.326547
-0.0905398
-0.236008
-0.00514665
-0.0549317
0.0600784
-0.0168408
-0.0219989
0.0226184
-0.0312817
-0.143671
0.0453422
-0.145746
-0.0190708
-0.0123807
-0.0275764
0.0729396
-0.0633977
-0.00954193
-0.478464
0.119708
0.358755
-0.467379
0.447714
0.0196655
0.0429025
-0.0193823
-0.137221
0.122333
0.136273
-0.120684
-0.0155883
0.0964197
-0.0778161
-0.0186036
0.10943
0.0324665
-0.141897
-0.0907281
-0.197195
0.287923
0.041212
-0.0230293
-0.0834606
0.090151
-0.00669041
0.0769501
0.0572199
0.106115
-0.133124
0.0270088
-0.0279464
-0.0700985
0.0402542
0.0504497
0.224825
0.10398
-0.328805
-0.0358533
-0.0438565
-0.00154431
-0.0186967
-0.221909
0.0628874
-0.0914863
0.0237853
-0.340886
0.26093
0.209598
0.203553
0.243116
0.100175
-0.196109
0.0454691
0.15064
-0.299515
0.139118
-0.0893272
-0.0187769
0.0135079
-0.0739065
0.0603986
-0.0112339
-0.0718349
0.0987876
-0.0269527
-0.245981
0.0891757
-0.0972002
0.0253653
0.0678147
0.091501
-0.159316
-0.246394
0.0730546
0.100459
-0.113606
0.0131467
-0.0889444
0.0113678
0.00799955
-0.0432493
0.0352497
0.168122
-0.225711
0.0575888
-0.253594
0.390793
-0.1372
0.25436
-0.0328423
0.0586533
-0.0146229
0.275875
-0.261252
-0.0160166
0.000889427
0.0151272
-0.39273
-0.0746493
0.0805057
-0.0455754
-0.101288
0.0904281
-0.274104
0.183376
0.0679874
-0.0708429
0.00285551
0.177177
-0.109362
-0.0316669
0.0558802
-0.0242133
0.0296001
-0.294778
0.265178
0.137571
0.197937
0.045636
0.250509
-0.296145
0.0577994
-0.135439
0.0776393
-0.11086
0.000456432
-0.10255
-0.11261
-0.365854
0.0456662
-0.0376667
-0.061396
-0.0189898
0.0803858
-0.0947194
0.0815154
0.013204
0.0188549
0.0502961
-0.0707099
-0.0105519
0.0812618
-0.245274
0.188441
0.056833
0.0429111
0.0145714
-0.0574826
-0.0265267
0.00829127
0.143351
0.0490475
-0.094509
0.0772899
0.0172191
-0.146632
0.159061
-0.0124295
-0.23059
0.361437
0.137497
-0.0280666
0.267823
-0.526022
0.0945044
-0.0672839
-0.0272205
-0.145284
0.1608
-0.0155153
0.0402163
-0.183215
-0.0345581
0.00343958
0.140868
0.0189273
-0.0157197
-0.342823
0.358543
-0.0566149
0.0514682
-0.231825
0.217202
-0.152611
0.00686478
0.0820328
-0.083963
0.00193023
-0.0144606
-0.069
0.132909
0.21777
-0.350679
0.0419968
0.0230446
0.0226409
-0.0587869
-0.423301
0.0213663
-0.0949404
-0.204574
0.122703
0.0561239
-0.178827
-0.139783
0.145362
-0.0770711
0.0564586
0.0206126
0.0192237
0.00130305
-0.03657
-0.0469252
0.372245
-0.162876
-0.20937
0.202009
-0.214841
0.0128314
0.310258
0.0805589
-0.390817
-0.0862982
0.21192
-0.125622
0.0453111
0.0010027
-0.0134772
0.181599
-0.159932
0.00732087
0.00986926
0.0243676
0.406184
-0.280294
-0.125891
0.175953
0.196293
-0.251229
0.0299302
-0.0199624
0.0818766
-0.0619142
0.175623
-0.239936
0.0643132
-0.146089
-0.161889
0.307978
-0.164781
0.024998
-0.0828892
0.00410091
0.000998285
-0.000349948
-0.000648338
-0.00844208
0.0110885
-0.00264646
-0.252331
0.196835
0.0554967
0.209089
0.245178
-0.339433
0.0942556
-0.16287
0.155732
-0.00165184
-0.405598
0.204286
0.201312
0.0594814
-0.081041
-0.00908377
0.0854216
-0.00338882
0.00202752
0.00476767
-0.0067952
-0.112476
-0.319198
0.0718671
-0.0423619
-0.0295052
-0.0848583
0.330036
0.0375336
-0.0585604
0.0509281
0.19041
0.000435859
-0.0884968
0.0410282
-0.0854604
0.395718
-0.157943
0.446271
-0.0459194
-0.377381
0.0863138
-0.0654967
-0.0208171
0.0224148
-0.00403215
-0.0970756
-0.000610959
-0.0801246
-0.223996
0.304121
-0.0130671
-0.0611968
-0.071849
0.0919421
0.10848
0.22035
0.203714
-0.0280915
0.264468
-0.280188
-0.0229056
0.0235749
-0.000669224
0.0283038
-0.00511402
-0.0231898
0.133861
0.11225
-0.246111
-0.0597003
0.162452
-0.102751
0.243691
0.0438672
-0.287559
0.0453064
0.0265607
0.0484197
-0.0506366
0.00221693
0.350273
-0.447053
0.0967799
0.00767075
-0.0610051
0.0533344
-0.475604
0.0417196
0.433884
-0.0567594
0.0250925
-0.49415
0.282547
0.211603
0.342249
-0.20934
0.0454799
0.0246951
0.00872682
-0.0288654
-0.0151797
0.397828
-0.298683
-0.0991447
-0.0661083
-0.206812
0.27292
0.0262747
0.00457097
-0.0308457
-0.153032
0.00774757
-0.225705
0.079616
-0.219354
-0.0259201
-0.00629567
-0.0237522
0.0300479
-0.0281959
-0.0675086
0.0957046
-0.0519688
0.00228523
0.0496836
-0.237157
-0.0933189
0.000247281
0.0109277
0.0294699
0.242182
-0.271652
0.00172392
-0.0552788
0.0890152
-0.0337365
0.424463
-0.304141
-0.120322
0.0587085
-0.0786709
0.342872
-0.313402
0.0425647
0.0934618
-0.0855522
-0.00393896
0.00365427
0.000284686
0.335512
-0.227033
-0.528018
0.248367
0.279651
-0.0720263
0.00118347
-0.246496
-0.183112
0.00642175
-0.0114719
0.00505012
0.167872
0.0188635
-0.186735
-0.0105378
-0.185571
-0.0129056
-0.00311102
0.00901479
0.0330154
-0.150122
-0.0261155
-0.0240603
0.191932
-0.3416
-0.0620859
0.403686
0.0319356
-0.00924335
-0.0226922
0.033551
-0.319446
0.227143
0.0923031
-0.00248976
-0.0975932
0.100083
-0.14413
-0.261468
-0.00617326
-0.00906481
-0.210282
-0.317737
0.0290307
0.0654737
-0.103449
0.281211
-0.206146
0.119848
-0.0999472
0.00287159
0.00743224
0.067963
-0.0753952
0.112519
0.000421244
-0.11294
0.0728879
0.302667
-0.375555
-0.33697
0.0998132
0.03747
-0.0112909
-0.0261791
0.377114
-0.304226
0.197209
-0.311372
0.133947
0.177425
-0.368177
-0.107427
0.0325015
-0.016205
-0.0162965
0.00324706
-0.0344543
0.0312072
-0.0130013
-0.113945
-0.0209544
-0.0589703
-0.0714354
-0.0140888
0.029321
0.00452679
-0.0338478
-0.0967607
-0.0759046
0.172665
-0.164209
-0.0817721
0.376397
-0.114418
-0.261979
-0.0375024
0.254443
-0.216941
-0.337827
0.292504
-0.408304
-0.0399216
-0.0176829
0.0427138
0.0224044
-0.0158164
-0.00658802
-0.00771853
-0.0437358
0.0275549
-0.00223224
-0.0585941
0.0293169
0.0292772
0.110427
-0.134329
0.0239019
-0.0578011
0.00864184
-0.0561115
0.0474697
-0.138791
0.489064
0.0606334
-0.0519916
-0.0404112
0.0786216
-0.0956743
0.0170526
-0.014597
-0.00475892
0.0340799
-0.146385
0.158599
-0.0122142
-0.110591
-0.196517
0.00989681
0.0125076
-0.254524
0.181161
0.0733636
-0.126547
0.145641
-0.0190943
-0.176185
0.116485
0.00995542
-0.0425557
-0.0822543
0.0692596
0.0129947
-0.104305
-0.207067
-0.0650441
0.014815
0.00133464
0.0337191
-0.0551742
0.0214551
0.182168
-0.0594656
0.344087
-0.238644
-0.105443
-0.202099
0.140601
0.0614978
-0.131202
0.0688631
0.0623391
-0.210031
-0.0284402
0.238471
-0.10811
0.00293815
0.0609736
0.0354461
-0.341144
0.311747
-0.248662
0.0844533
0.0305044
-0.249571
0.128352
0.310927
-0.439278
0.00233899
0.000491717
-0.00283071
-0.00951535
0.03441
-0.0248946
0.336072
-0.145291
-0.19078
0.0295218
-0.0488781
0.0830342
-0.0341561
0.00658084
-0.0410351
-0.0238804
0.093124
-0.0692436
-0.298672
0.39016
-0.0914887
0.0300501
-0.0362793
-0.0890067
0.146806
-0.101352
0.0731558
-0.0241585
-4.15134e-05
0.0242
-0.32182
-0.0160072
-0.154097
0.00771236
-0.0172399
0.0450453
-0.0278054
-0.0427735
-0.00315087
0.0459244
0.211762
-0.249264
0.117957
-0.128537
0.01058
-0.00696695
0.0031407
0.174642
-0.240752
0.0661098
-0.428617
0.329263
0.0993541
-0.0376944
-0.0197255
0.0574198
0.040531
0.00478003
0.100619
-0.0717988
-0.0806506
0.00921516
0.0186136
-0.00160556
0.0151229
-0.107069
0.0919459
-0.158555
0.141773
0.0167814
-0.00203586
0.0139023
-0.0118665
0.0242254
-0.0839462
0.0597208
-0.0237576
-0.000400913
-0.08633
-0.0185592
0.00125835
0.00348524
-0.0163462
-0.107769
0.338881
-0.241615
-0.00844208
-0.0985713
0.474231
-0.375659
-0.101866
-0.30621
0.408076
0.24807
-0.355858
0.107788
0.0112535
0.0206821
0.0779035
-0.0303651
-0.0475385
0.30744
-0.404911
0.0974712
-0.0519434
0.0347035
-0.214227
0.510928
0.128795
-0.112162
-0.0166336
-0.1323
0.0611188
0.0711814
0.00234763
0.00874091
-0.0777123
-0.0676823
0.0365435
0.199276
0.0726253
-0.271902
0.0714197
0.209608
-0.281028
-0.0562881
0.294377
0.0255792
0.00179393
-0.0273731
-0.088785
0.0270815
0.0617035
-0.036107
0.0451218
0.519207
-0.264766
0.0629303
-0.0200192
-0.453212
0.414848
-0.0156086
-0.0469189
0.375897
0.0908443
-0.187605
0.122799
-0.0114419
-0.111357
-0.00360007
0.0823803
-0.0787803
0.526931
-0.269135
-0.257796
-0.0352948
-0.0502575
-0.129608
0.0339198
0.0704946
0.0152434
0.00670577
-0.021278
0.0115738
0.01673
0.279792
-0.208372
-0.00292013
-0.0535266
0.0196335
-0.0353
0.0156664
-0.100808
0.00480709
-0.0038088
0.0365013
-0.0900314
0.0535302
-0.00398851
-0.000258095
-0.0733952
0.0150719
0.0583232
0.0346955
-0.0350306
0.000335132
-0.326302
0.454654
0.131994
0.0288062
0.165715
0.0890463
-0.0658252
0.0812522
-0.015427
0.0517309
-0.0435856
-0.00814524
0.0526636
0.0165324
-0.261885
0.185935
0.07595
0.411453
-0.0105746
-0.400878
-0.0128724
0.0139514
-0.00107899
0.00797579
-0.0107554
0.00277956
0.0252801
-0.0485183
0.381965
0.0689662
-0.450931
0.0427951
0.0351085
-0.0106323
-0.330512
-0.118999
0.0983297
0.0206691
-0.000269662
0.0224976
0.0940486
0.0206303
-0.0187272
-0.00190306
0.240043
-0.0891292
-0.150914
0.0130235
-0.13957
-0.00549679
0.00669626
-6.56537e-05
0.00422534
-0.00415968
0.16906
-0.037066
0.324434
-0.399819
0.0753854
0.0119103
-0.0982402
-0.0517256
0.0160821
0.0356435
-0.0596662
-0.0726341
-0.230958
-0.114072
0.34503
-0.0250868
-0.0333782
-0.0613412
-0.0750631
0.00383588
0.0712272
-0.206873
0.0306883
-0.0753027
-0.00113484
-0.478339
0.158535
0.319804
0.445559
-0.0527356
-0.392823
-0.0158494
-0.003754
0.0121602
-0.0828701
0.00608241
-0.0189548
-0.00887484
-0.00727237
0.0161472
-0.0875216
0.0628026
0.024719
-0.0814434
0.059193
0.0222503
-0.0269546
-0.00726554
0.298118
-0.191518
-0.1066
0.114909
0.0171672
-0.132076
0.0853807
-0.106851
0.0278556
-0.0527542
0.0248986
0.018381
0.184097
-0.11599
0.00793932
0.0295306
-0.0949649
0.0913648
-0.0107816
0.0436956
-0.032914
-0.104183
-0.43662
0.134716
0.0966941
-0.090354
-0.00634012
0.00543508
0.238256
-0.0111063
0.017528
0.0706143
0.0281267
-0.098741
-0.165834
0.145289
0.0205444
-0.0379639
0.00922511
0.0287388
-0.0200111
0.109143
-0.0891323
-0.0155022
0.0119327
0.00356951
-0.00303401
-0.000904947
0.00419588
0.0518938
-0.0560897
-0.053898
0.0162036
0.0403698
-0.0594763
0.0191065
-0.0718059
-0.164431
0.308552
-0.450382
0.14183
-0.0691012
-0.00865627
0.00372329
0.00493298
-6.07995e-05
0.0891403
-0.0890795
0.0997259
0.0226594
-0.00103963
0.0212217
-0.17739
-0.0294831
-0.16318
0.147724
0.0154556
-0.261225
0.214589
0.0466363
-0.00316926
-0.00245546
0.00562472
-0.0505374
0.235508
-0.18497
0.0467827
-0.0173651
-0.0873951
0.0259991
-0.258014
-0.0769308
-0.0918715
0.0565768
0.028427
0.00383029
-0.000909017
-0.00292128
-0.0734441
-0.125757
0.303768
0.312818
-0.0647485
0.022257
0.0369632
-0.0592202
0.401068
0.0447894
-0.445858
-0.134871
0.117085
0.0177856
0.109355
0.246139
-0.355493
0.0376172
-0.00756711
0.0396135
-0.201376
0.0545779
0.0299921
-0.103096
-0.00501389
0.127123
0.0314759
-0.335536
-0.0768669
0.412402
0.166787
-0.185767
0.0189806
-0.0130509
0.354939
-0.152606
-0.202333
0.0703157
-0.177111
0.106796
0.00200204
-0.0337319
0.0317298
0.0213323
-0.0042066
-0.0171257
0.0378438
0.0811589
0.0489535
-0.0021708
0.0149435
0.409521
-0.424464
-0.384353
0.256096
0.128256
-0.117451
-0.0424814
0.117933
0.29352
0.0281905
-0.0185786
-0.100266
0.00685322
-0.126246
-0.017425
-0.406147
0.332248
0.100331
0.0121875
-0.105135
0.0333364
-0.479127
0.0224115
0.456715
0.000337679
-0.00237354
-0.0770082
0.0620649
0.0149433
-0.322812
0.413853
-0.0910411
0.350669
-0.467043
0.116374
0.0464003
0.00255325
-0.0396293
0.00427668
0.0353526
0.117001
-0.347959
0.0138623
-0.0421507
0.0282884
0.031811
-0.0562107
0.0243997
-0.249284
-0.0876862
0.508817
-0.26045
-0.0211058
0.0133221
0.0191794
0.0725831
-0.0590752
-0.0863806
0.0625003
-0.0562124
-0.0171828
-0.0751304
-0.184234
0.259364
-0.0496219
0.0196964
0.00760667
-0.0163392
-0.00684397
0.00744019
-0.129337
0.121897
-0.152315
0.14701
0.00530518
0.0204078
-0.05325
-0.0745244
-0.0129972
-0.275924
-0.187687
0.463612
-0.0120397
0.112499
-0.0782571
0.0570995
0.231785
-0.378384
0.146599
-0.252326
-0.0954754
0.347801
-0.171666
0.00583248
0.195751
0.0759021
-0.482049
-0.0302364
0.0207211
0.0332007
-0.0588224
0.0256217
0.423001
-0.0219324
0.22144
-0.00241236
-0.000705499
0.00311786
0.00587975
0.00321925
-0.00765604
0.00443679
0.253242
0.130693
-0.358169
-0.0236884
0.0554994
0.130437
-0.173757
0.04332
0.0432929
0.0591969
-0.10249
0.265761
-0.254371
-0.414245
0.0726448
-0.37752
0.446513
-0.0689933
0.381142
0.0930883
-0.0215748
0.00119949
0.319663
0.189154
0.388919
0.364204
-0.132419
-0.362136
0.235548
0.126588
-0.0198008
-0.00672598
0.063598
-0.273629
-0.140862
0.0146159
-0.28582
0.0928707
-0.0683594
-0.0106537
0.0790131
0.0703615
-0.0507794
-0.019582
0.079409
0.186352
-0.024807
0.0471574
-0.0223504
-0.0499736
-0.0418979
-0.276055
-0.0798027
0.424572
-0.00845706
-0.416115
-0.158297
0.0262961
0.132001
0.22146
0.133478
-0.381975
0.00445481
0.099416
-0.44666
-0.464701
0.188776
-0.0655839
-0.00835487
0.0739387
-0.0580999
0.101393
0.166652
-0.0395285
0.0539394
-0.0837381
0.0297987
0.066078
-0.0868862
0.0208083
0.413997
0.213522
-0.000121671
-0.0174974
0.0176191
0.0225486
-0.0859564
0.0634078
0.011293
0.0861701
-0.0862309
-0.0653686
0.0166995
0.0486691
0.251556
-0.178629
-0.0729263
0.09569
0.313831
-0.00473519
0.0181094
0.0143802
-0.0415893
0.143005
-0.101415
-0.129032
0.310035
-0.181002
0.0478502
-0.00466405
-0.0431862
-0.000581494
0.00292049
-0.0817926
-0.318027
-0.0462207
0.112869
-0.0666488
-0.00181395
0.00978974
-0.00893421
0.0290213
-0.0200871
0.119798
-0.148463
0.0286657
-0.0879338
0.102121
0.109617
0.0846024
-0.194219
0.000473281
0.0126789
-0.0131522
0.465647
-0.399234
0.298638
0.177552
0.0588564
-0.0256556
0.00936694
-0.010589
-0.00538784
0.00143746
-0.0644237
-0.0198078
0.0842315
-0.0521959
0.0588927
-0.00669678
-0.0738818
-0.325854
0.255914
0.06994
-0.359307
-0.134843
-0.118654
0.138527
-0.0198734
-0.0413205
0.0617283
0.198201
-0.327234
0.00777212
-0.00342239
-0.00434972
-0.164636
0.0213577
0.143278
0.0219234
0.0358095
-0.0577329
0.0189304
-0.347225
0.0979414
0.0331486
0.0147016
-0.0888096
-0.0891282
0.159444
-0.0994277
0.0674028
-0.0779547
-0.191287
-0.330866
-0.250576
-0.11156
0.129339
-0.0144303
-0.0363623
0.0502245
-0.00810321
-0.11933
0.127433
-0.0182992
-0.0402948
0.491961
-0.344197
-0.147764
0.075363
-0.195333
0.11997
0.09416
-0.0235457
-0.080171
0.00564668
-0.10704
0.107461
-0.00494291
0.0368132
0.0258002
0.0708939
0.067794
0.0176766
-0.266785
0.191654
0.0272397
-0.0414607
0.0142209
-0.045767
0.0435806
0.00218638
0.0659566
-0.0487623
-0.0171943
-0.0619296
0.0097337
-0.0372239
-0.00678755
0.0440114
0.281679
0.00665658
0.00111553
0.114864
0.0176168
0.093646
0.191942
-0.285588
0.013335
0.057514
-0.0708489
-0.034278
-0.00648532
0.0407633
-0.00213868
-0.0194361
0.117936
0.0750664
-0.193002
0.0143368
-0.0198212
0.439706
-0.21685
0.03301
0.0155793
-0.0485892
0.115191
0.00272724
0.0125108
-0.411536
0.0815903
-0.0276509
0.112091
0.0142467
-0.126337
-0.0441798
0.00181789
0.0528287
0.194693
0.00731614
-0.00610839
-0.031421
-0.17978
0.211201
0.0399964
0.00727146
-0.00524394
0.46849
-0.328006
-0.140484
0.171161
-0.263909
-0.145715
0.0270613
0.0845914
-0.104603
-0.131498
0.172229
0.00224569
-0.174475
-0.0341972
0.0418679
-0.130998
0.217823
-0.0578474
0.0152539
-0.00358962
0.106754
0.0631844
-0.0794899
0.0163055
0.171886
-0.0218401
-0.150046
0.105138
0.0914208
-0.196559
-0.0161112
0.0357447
0.135556
-0.0420942
-0.385036
0.108981
0.0227676
-0.0475746
-0.0374933
-0.000395328
0.00739645
-0.000457505
0.00469861
-0.00424111
-0.0370053
0.013253
0.0992426
-0.117484
0.0182414
-0.126117
0.508082
-0.306511
0.511827
-0.0758731
0.192714
0.242137
0.0662795
-0.308417
-0.00435701
0.0614565
-0.00149959
-0.00388825
-0.00889731
-0.0509921
0.0598894
-0.353862
0.340843
0.0130188
-0.0666553
0.0758313
0.000834947
-0.00602259
0.00518764
0.0319727
-0.0474771
0.0155044
0.275248
-0.0996954
-0.102404
-0.0311448
0.00919631
0.0219484
0.0504602
-0.0174502
0.090179
-0.112826
0.0226469
0.0939473
0.00929223
-0.10324
0.108255
0.16765
-0.190274
0.158853
-0.0134625
-0.115074
0.0189226
0.00426061
-0.0436696
-0.230051
0.27372
-0.00698837
0.00356598
-0.229581
0.260086
0.152827
-0.00688851
-0.00167147
0.00855998
-0.0284236
-0.0444173
0.0728409
0.116859
0.123184
-0.553209
0.234142
0.319066
-0.122339
-0.0231885
-0.0755158
0.0928045
-0.0172886
0.0904271
0.0133239
-0.103073
0.0486053
0.274493
-0.188274
-0.0862196
0.293446
-0.207291
-0.0861543
0.188335
0.0274506
0.0104496
-0.0379002
-0.0746559
0.0868161
0.0886923
-0.0911821
0.0102689
-0.0309946
-0.153986
-0.0106504
0.395743
-0.283322
-0.112421
-0.223849
-0.0378239
0.261673
-0.0999213
0.0803665
0.0195548
0.0212585
-0.0859163
0.0646578
0.108072
-0.30662
0.198548
0.133738
-0.140889
0.00715168
0.0367057
-0.125712
0.0453866
0.357887
-0.449759
0.239483
0.210277
-0.395993
0.279938
0.116055
0.359872
-0.123313
-0.236559
-0.27765
-0.17211
-0.0768671
-0.0248595
0.0358434
0.311763
-0.0392407
0.0378836
-0.0446983
-0.135382
-0.112117
0.13172
-0.0196023
0.0139065
0.0697452
-0.0836517
0.0568728
0.137006
0.309508
-0.0673708
-0.0219388
0.0493894
-0.0174111
0.170494
-0.153083
-0.000144798
0.00414899
-0.00400419
0.16477
-0.220784
0.0560143
-0.159858
0.0117442
0.148114
-0.0557487
0.0786006
-0.0228519
0.239882
-0.426148
0.186266
0.00449271
-0.000662413
0.192508
-0.162908
0.0877009
-0.0184413
0.00560262
-0.0229791
-0.0227878
0.01558
-0.127697
0.13071
-0.091412
-0.0392983
-0.284808
-0.142051
0.42686
-0.0295947
0.0321232
-0.00984776
0.0574271
-0.0475793
0.135603
0.157843
-0.06347
0.255466
-0.0636106
0.249639
-0.186029
-0.0222279
-0.0141122
0.0363401
0.129958
0.0121537
-0.142112
0.0511762
0.0187436
-0.00620141
-0.0167042
0.19203
-0.187121
-0.060013
0.247134
0.0110342
0.317351
-0.328386
0.0312798
0.00513645
-0.0364162
-0.114319
0.12801
-0.0136905
-0.10878
-0.0213171
0.0323937
0.0539201
-0.00162089
0.00155523
-0.0726792
-0.0532258
-0.0144946
0.0041022
-0.0196606
0.000872493
0.0187881
-0.0649564
0.372396
-0.440607
0.383149
-0.0308665
0.0527899
-4.80904e-05
-0.00441482
0.00446291
0.0689013
0.0101887
-0.0757726
-0.256537
0.00829834
-0.0766577
-0.361719
0.333722
0.0279973
-0.292525
-0.0691942
0.0747853
0.0133731
-0.00234751
-0.0110256
-0.316851
0.327886
-0.296507
-0.0994861
0.238075
-0.281745
-0.0049735
-0.348889
0.00613723
0.0393426
0.347848
-0.230847
0.0236365
0.0562955
-0.342053
0.121922
0.220131
-0.102397
0.109837
-0.0149945
-0.0454319
0.0604264
0.184359
0.342572
0.297758
-0.189686
0.0140821
-0.0895979
-0.282989
0.0856636
0.157064
-0.0266273
-0.096579
0.108706
-0.0121268
-0.0046432
-0.017306
0.00441635
-0.0654215
0.414213
-0.208867
-0.205346
0.0786917
0.0214289
-0.100121
0.0634617
-0.0407449
-0.0227168
0.251157
0.0833221
-0.334479
-0.139658
0.0173194
-0.0463943
0.0386828
0.00771149
-0.00668028
0.0855615
-0.0200067
-0.0193318
-0.0805895
-0.0453092
-0.111912
0.157221
-0.00796067
-0.0884159
0.0963765
-0.14235
0.346723
-0.204373
0.35084
0.156493
0.11041
0.316808
-0.427218
0.0946833
0.143554
0.0954336
-0.238987
-0.109167
0.00212727
-0.0466611
0.0156477
-0.00413667
-0.0113656
-0.159005
0.36309
-0.0425578
-0.0353644
0.0779222
0.188513
-0.283906
0.0953928