/*--------------------------------*- C++ -*----------------------------------*\
| =========                 |                                                 |
| \\      /  F ield         | OpenFOAM: The Open Source CFD Toolbox           |
|  \\    /   O peration     | Version:  v2012                                 |
|   \\  /    A nd           | Website:  www.openfoam.com                      |
|    \\/     M anipulation  |                                                 |
\*---------------------------------------------------------------------------*/
FoamFile
{
    version     2.0;
    format      ascii;
    class       volScalarField;
    location    "300";
    object      epsilon;
}
// * * * * * * * * * * * * * * * * * * * * * * * * * * * * * * * * * * * * * //

dimensions      [0 2 -3 0 0 0 0];


internalField   nonuniform List<scalar> 
18232
(
7.9081e-07
1.77742e-06
0.0109694
3.26863e-06
8.77699e-07
0.0207777
0.000687194
7.09542e-07
4.33162e-07
0.000876191
8.88785e-07
1.40551e-06
0.000510837
0.000765775
1.93247e-06
0.000345202
2.18124e-06
0.004476
1.19693e-06
0.0016544
0.0219066
0.000638839
0.000439588
1.3184e-06
7.86635e-07
9.6003e-07
1.41311e-06
0.00040064
6.39589e-07
1.95826e-06
9.55245e-07
0.00213733
1.49283e-06
1.64022e-06
3.04404e-06
7.07591e-07
0.0215748
0.000594757
0.00210047
1.2017e-06
2.09247e-06
1.31991e-06
0.0110132
1.3109e-06
2.22531e-06
1.57117e-06
0.0115478
1.42638e-06
1.89714e-06
0.0206417
2.16888e-06
1.86501e-06
8.26391e-07
4.70568e-05
8.35236e-07
4.30852e-07
0.000169098
0.00883992
1.48027e-06
1.83707e-06
3.60665e-06
0.00700768
0.00322661
0.000984955
1.04467e-06
9.44027e-07
0.0014478
1.57141e-06
1.04111e-06
1.48012e-06
1.60578e-06
4.10369e-07
0.000328074
1.32801e-06
3.52368e-06
1.31503e-06
1.40576e-06
0.00133445
0.00284709
1.18646e-06
8.10868e-06
3.03777e-06
1.72973e-05
1.30901e-06
4.16919e-07
0.000959675
8.84359e-07
1.31754e-06
0.000132131
0.0130782
1.85164e-06
1.18507e-06
3.38712e-06
0.00412762
1.04467e-06
1.30777e-06
8.98678e-07
1.17888e-06
8.96062e-07
1.69607e-06
0.0264686
0.00482702
9.80626e-07
6.38121e-07
1.59739e-06
0.000436815
1.50355e-06
0.000761686
0.00461027
0.00117649
0.000423739
1.39768e-06
3.2183e-06
0.000802323
6.40253e-07
1.52565e-06
1.68626e-06
0.000336035
0.00633289
9.40048e-07
4.15733e-07
0.000176298
9.00257e-07
2.09965e-05
1.30297e-06
1.07913e-06
1.71848e-06
0.0124477
4.96319e-06
1.88865e-06
1.29406e-06
3.0276e-06
8.27791e-07
1.11668e-06
1.57778e-06
6.44069e-07
3.29603e-06
2.23692e-06
0.0206085
0.0233828
6.44197e-07
0.0116357
0.0108148
1.57843e-05
1.13381e-06
1.56613e-06
1.70812e-06
6.64553e-06
1.18516e-06
8.97504e-07
6.50667e-06
8.23096e-07
0.0254307
1.80966e-06
0.0100407
5.71776e-06
0.0108966
2.30474e-06
1.27831e-06
0.0119293
1.27023e-06
0.00958343
0.0100205
0.000634951
0.00106606
1.13035e-06
3.57043e-06
0.000594833
1.58196e-06
5.68946e-06
1.38457e-06
0.000159578
5.01658e-06
1.3358e-06
5.6396e-07
7.89837e-07
6.18177e-05
1.55765e-06
6.39619e-07
7.91398e-07
8.20382e-07
0.00616443
1.72459e-06
5.70063e-05
5.86898e-07
8.36382e-07
7.93169e-07
0.021591
1.74922e-06
3.02081e-06
1.57567e-06
0.00914022
5.13815e-07
5.16138e-07
1.3846e-06
5.09116e-07
3.45836e-06
1.56464e-06
1.71773e-06
1.30064e-06
8.38553e-07
8.29215e-07
1.46539e-06
5.54964e-07
1.5567e-06
1.29715e-06
1.69824e-06
4.36763e-07
1.42307e-06
5.78839e-07
6.57274e-07
9.21372e-07
8.8417e-07
1.3561e-06
1.45938e-06
1.59558e-05
1.39112e-06
1.59248e-06
0.000156875
8.10301e-06
1.82776e-06
1.38903e-06
0.000281564
0.000263377
1.02949e-06
8.29356e-07
9.12376e-07
1.0043e-06
1.79504e-06
3.08393e-06
2.49202e-05
6.62112e-07
5.66432e-07
8.09932e-07
1.03597e-06
6.41622e-07
1.03755e-06
5.28901e-06
1.4617e-06
1.02864e-06
0.0114022
7.7826e-07
9.99703e-07
7.98935e-07
0.00589047
6.36387e-07
2.16147e-06
1.44989e-06
8.2976e-07
5.57305e-07
0.0115226
2.06801e-06
0.0205491
2.28837e-06
3.04366e-06
2.11087e-05
1.5657e-06
0.000109477
5.11474e-07
1.133e-06
9.35344e-05
9.01781e-07
0.00974506
1.13615e-06
1.26748e-06
4.86302e-06
1.56764e-05
1.03708e-06
7.82725e-07
0.00969684
6.3615e-07
1.02325e-06
6.4702e-06
0.0185162
2.30895e-05
1.35052e-06
1.86405e-05
1.27409e-06
8.23649e-07
1.85443e-05
0.00107966
0.00164724
0.000162321
5.42952e-07
1.04764e-06
9.39176e-07
1.02594e-06
1.22206e-06
0.0141965
1.48707e-05
0.0149719
0.00357027
6.49096e-07
7.39287e-07
1.02472e-06
2.21935e-06
8.23258e-07
6.64232e-07
8.40529e-07
0.000352421
7.32691e-07
1.16068e-05
0.0209665
8.11988e-07
5.45189e-07
1.19746e-06
1.63093e-06
1.97782e-06
9.09843e-07
7.58793e-07
8.94123e-07
4.47766e-06
0.000145283
8.30695e-07
9.17207e-07
2.60237e-05
1.27552e-06
7.38793e-07
1.21888e-06
4.16939e-07
1.17069e-06
0.00646281
3.95441e-06
1.11984e-06
4.41972e-06
0.01103
1.4076e-06
1.17812e-06
9.07019e-07
1.19212e-06
1.40538e-06
3.67704e-06
2.88772e-05
1.63851e-06
2.09384e-06
3.94221e-06
9.75662e-07
1.34691e-06
1.51082e-06
6.10542e-05
6.54689e-06
1.3806e-05
1.40679e-06
5.86736e-06
1.18286e-06
1.97953e-06
0.00758485
9.34611e-07
1.54952e-06
5.77855e-07
1.23074e-06
2.1789e-06
1.76947e-06
8.36411e-07
1.62994e-06
5.77086e-07
0.00048608
1.6173e-06
1.0738e-06
1.59107e-06
9.17937e-07
1.3383e-05
2.16788e-06
8.06256e-07
1.16369e-06
1.21323e-06
5.7066e-07
1.59738e-06
1.89474e-06
9.4534e-07
6.31617e-07
1.41297e-06
0.0100943
8.38692e-07
1.02254e-06
1.40912e-06
0.0158466
4.15505e-07
8.75299e-07
0.00572031
0.000895927
1.27434e-06
1.55357e-06
2.23191e-06
4.17636e-07
4.16734e-07
1.55121e-06
1.40492e-06
1.46227e-06
8.73629e-07
7.67861e-07
0.00013486
8.34657e-07
7.6152e-07
1.01608e-06
1.64701e-06
0.00124347
9.39444e-07
0.00643151
1.70559e-06
5.67275e-06
7.63873e-07
1.54966e-06
1.70241e-06
0.000145286
2.16434e-06
1.45412e-06
1.02209e-05
2.99056e-06
7.53783e-07
0.000171493
1.45566e-06
8.34646e-05
1.59288e-06
1.07984e-06
8.72692e-07
1.63218e-06
0.000105489
7.58121e-07
1.01193e-06
7.32884e-07
0.00907288
0.000145811
1.14468e-06
1.83362e-06
1.3933e-06
3.90436e-06
1.647e-06
1.58823e-06
0.0171481
1.96551e-05
1.57319e-06
1.59698e-06
1.19088e-06
7.65265e-07
5.22281e-07
4.52644e-06
1.99474e-06
7.58358e-07
1.83228e-06
9.29185e-07
1.16902e-06
0.000312436
9.453e-07
1.34774e-06
1.50494e-06
1.97352e-06
2.70909e-05
8.81972e-07
1.63729e-06
0.000488194
9.77353e-07
3.81793e-06
1.39059e-06
1.27124e-06
1.27691e-06
1.16572e-06
0.000277446
1.4849e-06
1.38128e-06
1.4004e-06
9.57265e-07
7.66419e-07
1.41384e-06
1.65877e-06
7.81802e-07
1.19568e-06
7.92835e-05
4.13695e-07
4.13815e-07
0.0161031
1.64905e-06
0.0134166
0.0109077
0.000293892
6.58137e-07
6.53108e-07
1.5836e-06
8.63505e-05
7.55494e-07
4.2471e-07
1.5498e-06
0.00456673
7.5475e-07
8.2517e-07
8.26876e-07
4.25769e-06
0.00462269
2.92336e-05
1.53289e-06
1.42173e-06
0.0248896
0.00895713
7.46727e-07
0.000258786
1.36709e-06
0.0110623
1.3278e-06
7.57042e-07
6.67257e-07
0.000141981
7.14129e-07
5.13784e-07
1.14407e-06
0.0203907
5.75281e-07
1.48076e-06
5.06761e-07
0.0229201
9.32923e-07
1.8127e-06
4.29537e-07
9.65922e-07
4.5803e-07
0.00546089
1.54269e-06
5.27761e-07
1.55673e-06
1.59e-06
8.5828e-07
6.54305e-07
8.88234e-07
8.27535e-07
1.32071e-06
1.26916e-06
1.16234e-06
2.54369e-06
0.00167207
1.33814e-06
1.99903e-06
1.14474e-06
0.0113641
0.000222273
8.23646e-07
6.43062e-06
1.55002e-06
0.000863656
8.21463e-07
0.000153601
1.44867e-06
7.37899e-07
0.0167152
9.27825e-07
1.5597e-06
0.00151849
4.5544e-07
9.93508e-07
7.47866e-07
0.021289
9.00685e-07
1.80402e-06
1.55964e-06
2.39074e-06
8.53566e-07
5.72013e-06
1.63757e-06
5.70657e-07
1.21878e-06
1.22374e-06
1.58591e-06
1.73027e-06
9.41413e-07
4.7896e-07
0.000209753
0.0278287
0.000102784
1.66072e-06
1.33849e-06
1.71192e-05
4.26558e-06
6.31739e-07
0.00669819
7.35032e-07
7.54269e-07
6.31623e-07
4.66195e-07
5.73453e-07
2.25198e-06
4.23056e-07
0.0005453
9.77763e-07
7.28779e-07
0.000135769
0.00512317
0.000215709
6.24691e-07
7.76388e-06
1.17384e-06
1.56305e-06
4.10515e-07
4.45834e-07
6.5552e-07
0.0280678
1.1195e-06
9.72005e-07
0.0232357
8.65153e-07
2.30627e-06
0.00364438
6.73935e-07
1.5866e-06
0.000476367
0.000101769
1.15871e-06
7.32313e-07
8.2209e-07
8.44061e-07
7.45201e-07
0.0115302
1.01518e-06
0.000178588
1.17641e-06
1.54214e-06
0.00257251
8.48497e-07
0.0242888
0.0113327
1.06038e-06
8.87155e-07
5.1334e-07
5.26571e-07
8.59277e-07
3.32178e-05
0.00766349
1.48007e-06
1.64264e-05
4.11715e-05
2.26697e-06
1.68213e-06
1.38342e-06
4.37488e-06
1.64686e-06
8.62046e-07
3.36202e-06
0.000290597
1.98229e-06
1.85806e-06
1.0898e-06
8.2236e-07
1.13673e-06
0.000756483
5.92414e-06
5.83894e-07
1.15069e-06
0.000286101
1.37155e-06
0.000635978
1.12654e-06
1.0328e-06
5.69513e-07
2.02064e-06
5.89559e-07
2.45981e-06
3.23922e-05
1.03893e-06
5.76399e-07
1.20908e-06
6.32985e-06
1.13151e-06
8.45729e-07
2.08476e-06
1.61359e-06
1.3477e-06
5.78937e-07
1.8552e-06
6.48562e-06
2.04899e-06
1.51908e-06
4.17794e-07
6.25938e-07
0.0162007
8.84768e-07
1.12109e-06
0.000240041
1.20745e-06
1.51441e-06
1.84735e-06
1.55131e-06
6.35252e-07
1.14612e-06
6.58162e-07
1.09167e-06
7.30347e-06
1.68044e-06
7.31222e-07
1.4151e-06
0.0111358
1.00706e-06
1.58621e-06
6.50912e-07
1.11429e-06
9.51517e-07
6.26229e-07
0.0208992
1.0557e-06
7.40128e-07
5.14421e-07
1.35123e-06
0.000145229
1.66471e-06
0.000278587
9.92697e-07
1.35379e-06
7.3332e-07
1.74619e-05
7.47595e-07
2.33966e-06
2.04219e-06
1.03651e-06
1.53338e-06
6.54731e-07
1.0079e-06
1.66038e-06
1.40814e-06
0.0182313
1.64951e-06
1.05747e-06
2.11811e-06
1.17682e-06
0.0161783
1.57144e-06
0.0189188
5.0921e-07
1.13594e-06
1.52382e-06
1.36803e-06
1.4119e-06
1.12777e-06
9.22452e-06
6.68813e-07
1.43077e-06
3.7439e-07
1.12473e-06
1.47045e-06
0.000296016
1.63222e-06
1.36084e-06
9.75792e-07
0.0011691
1.62137e-06
5.10283e-06
0.000259696
9.92218e-07
9.86989e-06
0.0207653
0.00538087
1.42302e-06
1.32674e-05
1.68436e-06
0.0124539
1.53249e-06
8.34671e-07
1.74583e-06
1.34309e-06
0.00820777
0.0183419
1.34747e-06
4.42939e-06
9.72221e-07
0.00144432
8.85904e-07
5.73212e-07
6.29927e-06
0.0126074
6.05894e-07
1.44238e-06
5.59083e-06
9.20147e-07
1.21772e-06
8.10473e-06
2.80933e-06
1.19381e-06
0.0072773
1.15624e-06
1.45043e-06
1.09282e-06
1.19376e-06
2.70578e-06
1.66373e-05
1.44252e-06
0.00030817
9.87729e-07
1.75614e-06
9.8072e-07
1.62425e-06
0.000888738
1.58326e-06
7.30646e-05
6.40685e-07
7.73236e-07
8.65418e-06
3.3678e-06
5.01861e-07
1.32105e-06
1.1206e-06
9.36632e-07
5.82875e-07
1.70313e-06
1.1848e-06
0.000470263
3.14401e-06
8.01893e-07
1.85249e-06
1.47288e-06
1.84649e-06
1.05435e-06
1.22016e-06
1.6717e-06
1.09471e-06
7.54703e-07
2.66733e-05
1.50789e-06
0.0208132
0.000243958
9.61705e-07
1.04577e-06
1.11932e-06
0.00806405
6.17815e-07
8.11169e-07
9.56718e-07
1.48832e-06
8.06389e-07
6.47046e-06
8.35064e-07
0.000340027
4.15921e-07
1.44927e-06
1.45266e-06
5.06176e-07
5.3378e-07
1.46897e-06
6.41649e-07
1.78296e-06
7.74917e-07
1.63684e-06
3.76014e-06
0.0104929
3.52755e-06
9.25596e-07
4.81294e-06
1.75325e-06
1.40937e-06
2.67076e-06
1.57977e-06
4.47754e-06
0.000354472
0.0128233
0.00114813
9.3036e-07
1.40033e-06
1.71625e-06
4.12141e-07
1.59672e-06
1.11492e-06
6.08228e-05
3.40148e-06
0.0106204
1.44476e-06
1.1264e-06
1.71488e-06
9.223e-07
0.0190777
9.56714e-07
0.000306735
1.32163e-06
7.42555e-07
0.000152147
1.4636e-06
1.78831e-06
1.49462e-06
1.76161e-05
3.35321e-06
1.25274e-06
1.4366e-06
5.52834e-07
1.42085e-06
1.27362e-06
0.00185321
6.67175e-06
2.65124e-06
1.19168e-06
6.39227e-07
0.000451682
0.00261968
1.56987e-06
1.73679e-06
0.000700058
0.00388042
1.8131e-06
4.9982e-07
1.11182e-06
1.52619e-06
1.49035e-06
1.42233e-06
6.24698e-07
1.26303e-06
1.55658e-06
6.62385e-06
4.97308e-07
8.37902e-07
1.07156e-06
1.06838e-06
0.00326411
8.41795e-07
7.98859e-07
6.0231e-07
6.43473e-07
1.17087e-06
1.14317e-06
1.91311e-06
6.27773e-07
3.57713e-06
0.019953
0.00050805
1.56237e-06
0.0206805
6.37567e-06
5.83578e-05
1.06709e-06
3.93105e-06
0.000517956
8.54756e-07
1.71826e-06
9.63166e-07
1.0147e-06
2.95505e-06
1.81959e-06
8.97774e-07
0.00114692
1.16539e-06
9.06804e-07
1.56718e-06
6.53054e-07
6.27889e-07
6.54306e-07
0.00044418
0.000431486
2.76754e-06
1.34702e-06
1.17964e-06
8.31602e-07
2.86927e-06
1.02477e-06
1.21577e-06
8.40081e-05
8.38845e-07
0.00237237
9.52558e-07
5.24367e-07
0.0105379
5.29586e-07
1.46232e-06
0.0116736
2.28902e-06
5.08353e-07
5.97236e-07
5.03979e-06
0.000320827
0.000881755
0.000123064
1.9508e-06
6.72777e-07
1.00438e-06
0.00106539
1.65373e-06
5.61135e-07
1.51347e-06
1.04561e-06
6.18844e-07
2.1809e-05
0.0102701
0.0110105
1.70769e-06
0.0012544
6.39503e-06
0.000357274
1.50337e-06
1.104e-06
6.0586e-07
0.000435776
5.80916e-07
1.51003e-06
0.000327421
2.15624e-06
1.16686e-06
1.76682e-06
5.52196e-07
1.76425e-06
1.70587e-06
1.43896e-06
1.42697e-06
9.50942e-07
1.54416e-06
0.0194971
1.01746e-06
4.30482e-06
1.67173e-06
8.23414e-07
1.00129e-06
9.99071e-07
1.21043e-06
6.97432e-05
7.2204e-07
0.0114162
1.65649e-06
0.000520017
6.7467e-07
1.90282e-06
8.3449e-07
5.55707e-07
5.48697e-07
5.55489e-07
1.12509e-06
1.74669e-06
5.9843e-07
1.29686e-06
1.60969e-06
4.20769e-06
0.013655
8.34713e-07
1.3543e-06
6.40488e-07
1.51357e-06
1.12375e-06
1.12097e-06
0.014985
1.19892e-06
1.70406e-06
1.18444e-06
1.52838e-05
0.000504867
1.658e-06
1.22209e-06
1.2506e-06
5.51348e-07
3.90789e-06
7.1898e-07
1.16293e-06
0.000273451
6.33758e-06
8.03549e-07
6.63089e-07
0.000285166
1.36745e-06
1.25354e-06
0.00342457
1.64429e-06
1.52092e-06
1.94026e-06
0.000360873
8.69451e-07
1.74344e-05
1.62855e-06
6.71274e-07
1.6911e-06
6.02208e-07
0.00887409
1.50393e-06
1.00713e-06
0.0012623
1.30417e-06
1.13402e-06
8.52056e-07
7.0104e-07
5.40059e-07
1.63076e-06
6.61876e-07
4.39767e-06
1.61728e-06
8.86614e-05
8.64895e-07
1.23541e-05
4.14206e-05
1.83742e-06
0.000222509
6.4188e-07
1.51569e-05
1.01941e-06
0.000304655
5.36833e-07
0.0169852
2.58692e-05
0.000402303
1.73325e-06
0.0117598
0.000122246
0.00182104
1.67745e-06
1.26038e-06
1.11284e-06
1.69314e-05
0.000503846
1.70313e-06
1.55805e-06
3.8274e-06
1.19111e-06
0.000148064
5.82248e-07
9.83533e-07
0.00037006
5.39575e-07
6.3811e-07
1.4843e-06
9.22675e-07
6.55334e-07
3.83741e-05
6.36784e-07
1.12813e-05
1.44016e-06
0.00918162
0.000261778
1.13734e-06
1.40016e-06
8.11188e-07
1.13021e-06
0.00149073
9.45729e-07
0.000497172
6.72105e-07
0.00608985
1.29626e-06
1.06102e-06
5.99685e-07
1.22483e-06
6.48904e-07
0.0147114
5.60233e-07
1.40876e-06
1.0122e-06
0.00176448
1.26448e-06
1.67463e-06
1.09897e-05
1.36229e-06
8.40375e-07
4.3241e-06
5.32613e-07
1.35222e-06
1.15728e-06
3.60307e-06
5.85458e-07
0.0112299
5.19612e-07
7.93407e-07
2.1732e-06
8.39138e-07
5.35124e-07
9.02407e-05
5.88227e-06
1.44901e-05
0.000109942
1.57565e-06
1.35613e-06
9.43958e-07
1.49785e-06
1.87724e-06
0.000510095
0.0012396
9.76223e-07
0.000299405
0.0013531
1.50935e-06
5.32156e-07
1.64355e-06
4.22855e-05
1.08326e-05
1.37007e-06
1.65407e-06
7.14477e-07
9.22698e-07
1.43272e-06
6.49615e-06
5.39713e-07
3.53948e-06
5.47944e-07
9.86378e-07
0.000263769
1.53759e-06
1.13904e-06
0.00023627
5.75835e-07
5.22323e-05
5.1683e-07
5.14039e-07
0.000215765
6.50577e-07
9.29971e-07
0.000180786
5.19324e-07
9.03817e-07
7.11529e-07
1.87124e-06
5.7023e-07
0.0010641
4.93244e-07
1.66499e-06
1.97152e-06
4.26929e-07
2.30777e-06
1.47784e-06
5.56929e-07
1.43356e-06
1.42937e-06
0.000516472
1.72655e-06
1.51568e-06
1.53743e-06
0.000313546
1.62515e-06
5.08059e-06
1.18801e-06
8.47516e-07
1.40039e-06
9.07705e-07
1.27803e-06
1.90444e-06
2.87189e-05
0.000347077
0.00017957
9.80088e-07
2.71074e-06
0.000402
1.47088e-06
9.42828e-07
9.65564e-07
1.36082e-06
4.13358e-07
5.02162e-07
3.05768e-05
4.13583e-07
0.000448166
1.41406e-06
1.40104e-06
1.7426e-06
6.85642e-07
0.0144514
6.85703e-07
0.000145863
1.13719e-06
7.89819e-07
1.789e-06
1.37634e-06
0.000489241
1.19442e-06
0.000391786
1.50453e-06
1.75709e-06
5.88372e-06
1.51357e-06
0.00041203
5.83384e-07
8.52655e-07
5.29256e-07
1.17501e-06
5.1653e-07
0.0109074
4.17389e-07
1.40536e-06
1.42382e-06
0.00136839
0.00045321
1.49007e-06
4.80661e-06
7.06826e-07
7.10579e-07
1.24741e-06
1.33427e-06
6.24331e-07
1.50941e-06
5.69889e-07
7.58904e-07
6.39955e-06
1.63623e-06
5.24407e-07
1.47193e-06
1.25597e-06
0.0113584
0.0158511
2.25728e-06
1.47616e-06
0.00511395
1.57549e-06
3.1073e-06
1.53371e-06
1.55997e-06
0.0117884
1.09737e-06
6.79526e-07
1.38563e-06
9.52118e-07
0.00030294
1.25448e-06
1.45778e-06
8.32914e-07
5.0434e-07
0.000158663
0.0159394
1.24876e-06
2.83414e-06
1.91793e-06
0.0115755
0.0128719
1.81014e-06
2.42552e-06
2.08537e-06
1.58234e-06
7.88397e-07
2.92275e-05
7.48251e-07
1.48434e-06
3.58751e-05
2.17676e-06
6.23229e-07
1.57957e-06
1.48779e-06
1.6475e-06
9.68275e-07
8.02916e-07
0.000617423
5.32412e-07
5.42436e-07
1.07908e-06
0.00155304
6.1636e-07
0.00028606
6.57095e-07
5.12643e-06
1.1518e-06
1.65982e-06
1.35323e-06
1.50676e-06
1.03361e-06
1.66433e-06
5.35142e-07
6.42437e-05
5.1158e-07
2.29237e-06
1.87059e-06
1.74911e-06
1.13785e-06
0.00536947
1.0904e-06
1.50336e-06
0.0133116
1.43867e-06
0.00336034
1.62126e-06
4.65785e-06
1.56601e-06
8.30744e-07
0.000194214
1.1148e-06
1.54893e-06
6.05859e-05
9.50231e-07
0.0127922
0.000297892
1.56616e-06
4.15371e-07
1.7339e-06
1.06794e-05
1.51444e-06
9.90275e-05
1.27428e-06
1.69426e-06
0.000289687
0.000775312
9.3459e-07
0.00894544
0.000127703
1.05335e-06
5.58507e-07
4.07061e-06
5.05615e-06
1.13158e-06
7.59466e-06
0.000548145
0.000360546
1.55882e-06
1.74335e-06
2.26171e-06
1.39425e-06
6.75582e-07
0.00501053
0.000376473
5.04558e-07
0.0194288
7.04087e-07
8.28775e-07
0.00407036
0.000391742
1.39813e-06
1.40059e-06
9.0237e-06
0.000571618
1.648e-06
1.66342e-06
9.14935e-07
0.00119569
0.0148265
1.67056e-06
1.58264e-06
6.28874e-06
8.15825e-07
8.42127e-05
1.65475e-06
1.53591e-06
1.28452e-06
1.61563e-06
1.11929e-06
1.2185e-06
1.644e-06
0.000372891
0.0153839
8.66598e-07
0.0138642
2.71624e-06
0.000897068
1.467e-06
0.00844907
1.51513e-06
1.46162e-06
5.04825e-07
6.00183e-07
1.63598e-06
1.98194e-06
1.23973e-06
5.02335e-07
0.000339826
1.95801e-06
0.0121275
1.63749e-06
0.000142525
1.2547e-06
2.17386e-06
0.0178046
1.82959e-06
9.09142e-07
1.36234e-06
1.28272e-06
0.0106527
1.52642e-06
2.50844e-06
2.20786e-06
4.94907e-07
0.000292182
0.0112901
0.00577594
6.11691e-07
0.00313141
0.000320471
0.00099073
5.58526e-07
0.000322083
0.000334904
0.000259103
0.000346729
9.17992e-07
0.000105049
6.0326e-07
8.21388e-07
4.50473e-06
8.74026e-05
2.11611e-05
0.000381915
1.54076e-06
0.000339336
0.0177739
0.0108347
1.53016e-06
5.6114e-07
1.24025e-06
0.00140917
1.91972e-06
0.000947159
8.47431e-07
0.0275452
0.0108968
0.00734799
1.48649e-06
0.00197775
6.24175e-07
1.24892e-06
6.05042e-07
0.000385619
5.24702e-07
1.63512e-06
1.59904e-06
0.000761889
8.71044e-07
2.09831e-06
5.82486e-07
0.0073787
0.00449124
5.63452e-06
1.77141e-05
0.000371553
1.57285e-06
1.56857e-06
1.19119e-05
8.64955e-06
0.00237676
2.71695e-06
1.4635e-06
0.000301017
1.06013e-06
1.95e-06
0.0126778
6.05675e-07
9.19708e-07
1.70137e-06
0.00123284
5.36397e-07
0.00122488
0.000354938
1.96823e-06
1.06206e-06
1.91111e-05
0.0195314
9.94757e-07
0.000500175
1.06673e-06
1.39417e-06
1.12224e-05
6.11453e-07
4.82507e-07
1.37422e-06
2.22422e-06
6.12089e-07
4.8566e-07
4.6195e-06
1.89208e-06
6.41446e-05
1.34101e-06
1.94795e-06
0.000131585
8.6831e-05
0.00160235
6.00971e-07
0.0187507
5.0196e-07
5.9846e-05
8.77971e-07
1.34414e-06
0.00277529
0.000285225
1.46067e-06
1.56104e-06
7.86195e-07
0.0134092
5.71522e-07
1.51502e-06
8.60749e-07
8.80071e-07
6.57812e-05
0.00647876
1.56654e-06
1.27613e-06
0.00484384
0.0108722
0.0127115
6.99388e-06
7.91038e-07
5.16147e-07
1.35056e-06
8.44753e-07
1.35506e-06
0.000246464
5.4834e-06
1.21919e-06
6.50598e-07
8.37885e-07
5.19779e-07
0.000192504
8.63233e-07
1.10598e-05
1.26398e-06
1.47196e-06
1.23272e-06
6.22652e-06
1.33852e-06
1.12689e-06
6.41518e-06
3.56644e-05
1.42834e-06
1.12932e-06
0.0125403
0.0174632
2.77998e-06
1.35339e-06
0.00559982
0.0145627
1.81215e-06
4.90398e-05
2.11607e-06
9.55363e-07
0.0145729
1.59459e-06
0.00963185
1.07734e-06
2.61772e-06
5.0934e-07
7.05373e-05
1.35429e-06
1.27703e-06
1.72512e-06
5.097e-07
1.42399e-06
4.7364e-06
1.43667e-06
1.6459e-06
1.36468e-06
1.88046e-06
1.05727e-06
0.0115503
8.72485e-07
2.31279e-06
8.17544e-07
1.95717e-06
1.80373e-06
1.61465e-06
1.01619e-06
1.52665e-06
9.28549e-06
7.70871e-06
0.0160558
2.02496e-06
8.33857e-07
0.0128949
5.90798e-07
0.0209693
6.09398e-07
1.40878e-06
0.0133164
1.23046e-06
0.000265888
1.55009e-06
8.39957e-07
1.55058e-06
1.7154e-06
7.81865e-07
5.61419e-07
3.54807e-06
5.6772e-07
9.39814e-07
0.000127942
5.98972e-07
0.000468171
6.22784e-07
2.84583e-06
1.43744e-06
1.39233e-06
1.23348e-05
4.11922e-05
7.98517e-07
9.19169e-07
1.00548e-06
1.34026e-06
7.97974e-07
1.19357e-06
0.0185907
0.000259426
1.75743e-06
1.48994e-06
1.14965e-06
3.55815e-06
3.24443e-06
0.012979
5.64215e-07
7.76961e-07
0.000732463
5.50754e-06
0.000999794
6.11948e-07
0.000233751
0.0104878
1.94876e-06
9.41184e-07
2.12506e-06
0.000103016
1.19633e-06
9.13203e-07
1.34789e-06
9.12237e-07
1.06065e-06
6.45481e-07
1.30288e-06
1.10432e-06
9.9434e-07
2.81727e-06
1.06753e-06
6.28427e-06
0.00424819
1.55874e-06
1.41936e-06
5.34384e-05
1.11083e-06
0.00034056
8.13125e-07
1.46219e-06
1.54299e-06
5.81623e-05
4.87469e-07
6.60078e-07
4.86388e-07
3.8942e-05
2.61584e-06
0.00018178
0.0112534
2.247e-06
1.04935e-06
6.08111e-07
4.95652e-07
1.62801e-06
4.17014e-07
0.000558726
1.28038e-06
1.15455e-06
0.0138744
1.01296e-06
4.6199e-07
0.000352922
1.63055e-06
1.18293e-06
0.0174745
2.84552e-06
0.0135448
0.000257621
5.44724e-07
1.06081e-06
1.58496e-05
0.023295
9.16968e-07
9.09448e-06
1.13458e-05
0.00134281
0.0107937
8.93787e-06
7.27083e-07
2.93758e-06
4.57044e-07
7.08186e-06
7.57248e-06
2.44e-06
0.000466308
1.99259e-06
7.7432e-06
7.30029e-07
1.85476e-06
1.25527e-05
8.01863e-07
3.29129e-06
5.47341e-07
1.84057e-06
1.36775e-06
0.000243494
0.0016837
1.32338e-05
0.00838504
2.36379e-06
1.64173e-06
1.01603e-06
7.20909e-07
8.29317e-07
1.54756e-06
2.27769e-06
6.54065e-05
4.20772e-07
1.4536e-06
4.56217e-07
1.14353e-06
5.72004e-07
9.2879e-06
0.000198232
1.08176e-06
1.48625e-06
8.9944e-08
1.81657e-06
1.55673e-06
0.0103104
1.27412e-06
8.65592e-07
1.14518e-06
2.89436e-06
6.2802e-06
6.52118e-06
0.000160632
0.0128903
6.67455e-07
0.000155045
7.89912e-05
0.0268942
1.19166e-06
0.000217614
6.2698e-07
0.00689605
5.06951e-07
6.14941e-05
5.34771e-07
1.4684e-06
5.58862e-07
0.0004031
0.000134761
1.67872e-06
7.67728e-07
1.10733e-06
1.34605e-06
0.0100406
7.81199e-06
1.58985e-06
1.46888e-06
5.8396e-07
1.11005e-06
0.000572858
0.00102534
6.11175e-07
1.32278e-06
1.57818e-06
3.05522e-06
1.14435e-06
3.02928e-06
7.72616e-07
1.48198e-06
1.59154e-06
0.0053238
4.30168e-05
2.81551e-06
2.03299e-05
9.49161e-07
1.33956e-06
1.39361e-06
4.41036e-07
1.29769e-06
0.000370564
1.38622e-06
9.55985e-06
1.01427e-06
8.67182e-07
9.64761e-08
9.12134e-07
0.000200887
0.0125641
3.92286e-06
0.000262836
1.11448e-06
6.77016e-05
1.91005e-06
6.12998e-07
0.0125409
0.00556932
1.4408e-06
8.91503e-07
1.53304e-06
1.41932e-06
0.00942699
7.75634e-06
5.50017e-07
1.23689e-06
1.94816e-06
9.0197e-05
1.41143e-07
7.8431e-07
1.5835e-06
1.41477e-05
1.68683e-06
0.00170816
0.000866061
0.016876
9.33761e-07
1.06153e-06
1.29941e-06
1.81026e-06
5.48365e-05
9.7544e-07
1.71392e-06
2.55086e-06
8.98443e-07
7.39089e-07
0.0178443
0.0149934
2.19257e-06
3.17319e-06
1.53349e-06
5.16175e-07
2.62453e-06
8.38136e-07
0.000984916
0.00126291
7.93097e-07
0.020373
5.89668e-07
4.08032e-05
7.17769e-07
8.11524e-07
1.23556e-06
0.0225327
1.83407e-06
0.00861433
1.01318e-06
6.97422e-07
1.68274e-06
1.69496e-05
8.23111e-05
4.09314e-05
0.0123565
9.85424e-07
1.49325e-06
9.06227e-07
0.00150455
7.63354e-07
6.49104e-07
1.60659e-06
0.000455714
1.14957e-06
6.67534e-07
1.76263e-06
2.8906e-05
1.32659e-06
0.0120033
4.94614e-07
8.08945e-07
6.59786e-07
1.7139e-05
2.78712e-06
1.52532e-06
1.53414e-06
1.53581e-06
9.81125e-07
1.32702e-06
1.98434e-06
5.64507e-07
1.96415e-05
1.36319e-06
2.47306e-06
0.0110397
1.57624e-06
1.00865e-06
6.37954e-07
1.25014e-06
0.000430022
9.62641e-07
1.53583e-06
0.00372058
1.36833e-06
2.88762e-06
1.62206e-06
4.80687e-07
4.34077e-07
1.62112e-06
2.44862e-05
5.42843e-06
2.68877e-05
1.05683e-05
1.63861e-06
1.52892e-06
1.51686e-06
2.49258e-06
1.47016e-06
1.17135e-06
0.0150175
0.000920844
7.5868e-07
1.56881e-06
6.02364e-05
7.12592e-07
1.28463e-06
4.87141e-07
1.35327e-06
0.00022322
5.78605e-05
5.87539e-07
1.78687e-06
1.13134e-06
7.97538e-07
4.19153e-07
9.21769e-07
0.0132205
1.14401e-06
7.95854e-07
0.0134787
1.06462e-06
0.0101985
5.27264e-07
1.09493e-06
0.016528
1.81336e-06
1.24111e-06
0.000361555
0.0229828
0.00748622
8.25714e-07
0.000119559
1.51834e-06
0.000139916
0.0189091
7.94024e-07
0.000119391
6.90306e-07
1.33233e-06
1.57583e-06
3.75112e-05
1.56821e-06
9.15812e-07
8.11569e-07
0.019466
1.2624e-06
2.7157e-06
6.71074e-07
4.15803e-07
0.000115313
1.10001e-06
1.73994e-05
0.00945376
0.0209096
5.47254e-07
1.06722e-06
1.67875e-06
5.67384e-07
1.93197e-06
0.00341967
6.82434e-05
4.5933e-07
0.0109051
2.22285e-06
1.25488e-06
1.2471e-06
5.51949e-07
0.0178974
1.20657e-06
0.000315696
4.88082e-05
8.89891e-06
4.65788e-07
2.20024e-06
2.6599e-06
7.54337e-07
0.0162954
2.33517e-05
1.1345e-06
0.000308168
1.27998e-06
0.00156066
8.90122e-07
4.56302e-07
1.48064e-06
4.58413e-07
4.54067e-07
1.63814e-06
6.75755e-07
4.58303e-07
1.52373e-06
9.05496e-07
1.33596e-06
7.07479e-07
9.41651e-05
1.4821e-06
5.86316e-07
1.39881e-06
2.88038e-06
5.28045e-07
1.39964e-06
7.49798e-07
1.21319e-05
0.0115052
1.65674e-05
4.91705e-07
6.67279e-07
1.45061e-06
2.7011e-06
1.27048e-06
0.000166626
8.1367e-06
7.21274e-05
0.000167301
1.3654e-06
0.000430269
0.000950298
7.24232e-06
5.5579e-07
7.45014e-06
0.0142372
1.89392e-06
7.44211e-07
6.79783e-07
5.40206e-07
5.30804e-07
6.96629e-06
1.99732e-06
1.28555e-06
0.000113955
1.3048e-06
1.30597e-06
5.37008e-07
1.41397e-06
4.57332e-07
2.12256e-06
5.44854e-06
7.04533e-06
1.73914e-06
4.39068e-06
0.00178087
0.00410708
1.8188e-06
5.2736e-07
1.53515e-06
1.5281e-06
2.83576e-06
1.11821e-06
1.27526e-06
9.00127e-07
1.53003e-06
1.33391e-06
5.02883e-07
0.0191541
1.2385e-06
6.52607e-07
0.000318767
7.80362e-07
2.37695e-06
5.49972e-07
1.33777e-06
1.45171e-06
1.32531e-05
1.95696e-06
4.04304e-08
5.23776e-07
1.2913e-06
1.44751e-06
1.41757e-06
1.33658e-06
0.000655081
0.0128555
6.25686e-07
4.15255e-05
1.2752e-06
2.08457e-06
0.0236108
1.53414e-06
1.23572e-05
0.000708179
8.85897e-06
5.37157e-07
7.78416e-07
1.5811e-06
0.00346387
0.000571674
8.2287e-07
7.609e-06
8.19022e-07
2.55958e-05
0.00415114
7.41105e-07
8.2789e-07
5.05493e-05
1.31805e-06
0.000449459
7.13584e-07
0.0148318
1.48502e-06
0.000485173
9.69852e-07
1.04264e-06
1.35887e-06
8.93241e-06
0.000243669
0.000256273
4.70728e-07
1.64827e-06
1.79511e-06
1.48857e-06
5.72261e-05
0.0191196
7.79581e-07
0.000309228
1.46516e-06
1.46146e-06
0.0117879
5.86783e-07
1.29263e-06
1.52777e-06
2.03675e-06
1.51156e-06
1.6198e-06
1.51491e-06
0.0150176
8.32609e-07
0.0219579
8.18848e-07
9.22696e-06
1.58964e-06
5.08492e-07
1.15952e-06
8.24737e-07
6.69497e-07
5.22039e-07
3.73618e-05
2.09053e-06
3.81613e-06
1.32076e-06
1.42175e-06
6.82482e-06
1.46689e-06
5.51307e-07
0.0154976
1.53949e-06
1.40247e-06
1.23044e-06
0.000135448
6.65917e-07
1.48123e-06
7.53732e-07
1.45698e-06
0.0170753
8.76789e-05
2.7592e-06
0.000174384
2.42117e-05
1.34712e-06
0.00389872
1.39361e-06
0.000294217
6.33463e-07
1.50936e-06
8.05851e-07
9.05589e-06
5.82184e-07
6.45072e-07
1.68656e-06
7.16986e-07
7.11832e-07
1.28732e-06
4.53237e-07
4.87564e-05
1.02278e-06
1.46054e-06
6.77588e-07
1.40997e-06
2.54336e-05
0.000163991
1.36593e-06
4.24295e-06
2.82395e-06
0.000268856
2.2588e-06
7.82536e-06
1.39126e-05
3.7509e-05
1.6244e-06
6.34424e-07
1.39743e-06
2.70856e-06
1.42483e-06
1.29454e-06
1.24758e-06
8.72086e-07
1.19179e-06
5.27187e-07
7.73073e-07
0.00389789
0.0131068
1.04833e-06
1.04819e-06
6.3154e-07
0.0215662
1.14946e-06
1.63145e-06
6.94118e-07
8.20247e-07
7.02933e-05
2.12666e-06
1.03688e-06
0.0086637
4.74062e-07
0.000493801
9.45531e-07
5.40235e-06
1.93657e-06
1.15391e-06
5.29718e-07
0.0134746
7.57144e-07
1.4744e-06
1.55702e-06
0.000223373
1.37705e-06
1.34032e-06
1.25105e-05
5.8227e-05
8.23293e-07
1.05536e-05
7.97468e-06
9.55043e-07
6.41435e-07
1.67847e-06
6.88402e-07
1.37879e-06
0.000147614
0.00139889
0.000346054
8.17381e-07
1.27924e-06
1.5507e-06
1.54312e-06
2.1203e-06
2.40682e-06
5.98954e-07
2.62441e-06
8.12592e-07
5.29865e-07
4.82519e-07
1.61557e-06
2.22712e-06
5.46072e-07
1.52575e-06
1.10179e-06
5.38437e-07
1.57801e-06
0.0003467
0.000378082
1.32072e-06
0.0114237
5.58316e-07
0.000223027
1.77407e-06
1.43249e-06
1.47243e-06
1.60628e-06
0.010371
1.34774e-06
4.59223e-07
1.15855e-06
1.4546e-06
1.2234e-06
0.0138133
0.000167348
1.21478e-06
0.000196744
0.00143523
1.64412e-06
8.28226e-07
1.18617e-06
1.6997e-06
0.0151696
1.66572e-06
6.82044e-07
0.00856702
2.09909e-05
1.6147e-06
9.86731e-07
1.39778e-06
0.00857538
7.08566e-06
1.97956e-06
3.33085e-06
4.57843e-07
5.26387e-07
1.63126e-06
3.2048e-06
2.16303e-06
0.000234418
3.70978e-06
0.000303701
1.61504e-06
1.61824e-06
1.21269e-06
1.77306e-06
1.53904e-06
2.68951e-06
9.74037e-07
1.74231e-06
4.59168e-07
0.0127272
1.22078e-06
1.11682e-06
1.80657e-06
1.33802e-06
5.3784e-07
0.000188256
1.31207e-06
1.9397e-06
1.20669e-06
9.01793e-07
1.71419e-06
0.000618641
3.73997e-06
1.52567e-06
2.6011e-06
9.3343e-07
1.52322e-06
4.52104e-07
0.000222427
1.275e-06
1.79365e-06
1.74403e-05
1.5897e-06
1.14634e-06
0.0243537
5.84309e-06
3.29974e-05
5.01652e-06
1.20521e-06
1.69462e-06
0.000305476
6.21494e-05
6.26683e-07
1.41388e-05
1.66238e-06
0.000135286
1.29938e-06
1.51755e-06
1.45537e-05
0.000288915
9.32605e-07
2.68444e-07
1.80477e-06
0.000714421
1.12019e-06
0.000266296
1.52154e-06
8.80345e-07
1.66747e-06
5.223e-06
0.00255274
0.00939306
3.11775e-06
4.87245e-07
2.01333e-06
1.29697e-06
1.59455e-06
3.5021e-06
0.0101849
0.000133179
1.14076e-06
4.15437e-07
2.10574e-06
1.05428e-06
1.37764e-06
0.00713326
1.53517e-06
0.000453337
1.14089e-06
8.1549e-07
9.73947e-07
2.25612e-06
2.233e-06
2.31272e-06
0.000641452
0.00263911
5.29473e-07
5.2862e-07
4.50263e-07
1.77069e-06
1.10724e-06
0.00318589
1.29205e-06
1.21057e-06
1.61887e-06
0.000975363
8.21269e-07
7.82473e-07
1.73249e-05
2.36519e-06
3.13443e-06
6.04485e-07
0.00894334
1.6069e-06
1.1459e-06
0.00029232
7.67346e-07
1.60627e-06
1.53079e-06
1.34412e-06
1.53432e-06
1.34899e-06
1.55912e-06
7.90709e-07
1.0649e-06
1.51876e-06
5.30112e-07
3.28152e-06
0.00023049
7.75723e-07
0.0108829
0.000384253
1.5251e-06
1.2466e-06
1.44301e-06
1.4174e-06
5.25118e-07
1.62363e-06