/*--------------------------------*- C++ -*----------------------------------*\
| =========                 |                                                 |
| \\      /  F ield         | OpenFOAM: The Open Source CFD Toolbox           |
|  \\    /   O peration     | Version:  v2012                                 |
|   \\  /    A nd           | Website:  www.openfoam.com                      |
|    \\/     M anipulation  |                                                 |
\*---------------------------------------------------------------------------*/
FoamFile
{
    version     2.0;
    format      ascii;
    class       volScalarField;
    location    "300";
    object      epsilon_0;
}
// * * * * * * * * * * * * * * * * * * * * * * * * * * * * * * * * * * * * * //

dimensions      [0 2 -3 0 0 0 0];


internalField   nonuniform List<scalar> 
18232
(
7.90814e-07
1.79249e-06
0.0109529
3.27058e-06
8.77676e-07
0.0207897
0.000694251
7.09541e-07
4.33183e-07
0.000883338
8.88767e-07
1.40552e-06
0.000509043
0.000773356
1.93134e-06
0.000336464
2.18151e-06
0.00442426
1.19693e-06
0.00167585
0.0218764
0.000645963
0.00043671
1.31841e-06
7.86639e-07
9.60038e-07
1.41317e-06
0.000398752
6.39589e-07
1.99585e-06
9.55252e-07
0.0021557
1.49584e-06
1.64021e-06
3.0456e-06
7.0759e-07
0.021543
0.000581373
0.00206617
1.2017e-06
2.09018e-06
1.31991e-06
0.0109958
1.31092e-06
2.22383e-06
1.57116e-06
0.011426
1.42712e-06
1.89603e-06
0.020655
2.16912e-06
1.86407e-06
8.2639e-07
4.68185e-05
8.35235e-07
4.30855e-07
0.000165259
0.00870538
1.48027e-06
1.83622e-06
3.60842e-06
0.00694944
0.00317392
0.000991861
1.04474e-06
9.44034e-07
0.00142046
1.57139e-06
1.04112e-06
1.48013e-06
1.60577e-06
4.1037e-07
0.000327844
1.32801e-06
3.52519e-06
1.31503e-06
1.40586e-06
0.00128881
0.00279374
1.20348e-06
8.1188e-06
3.03924e-06
1.73057e-05
1.30847e-06
4.16919e-07
0.000992077
8.84337e-07
1.31754e-06
0.000131697
0.0130636
1.85166e-06
1.18506e-06
3.38877e-06
0.00405852
1.04474e-06
1.3076e-06
8.9867e-07
1.17887e-06
8.9605e-07
1.69604e-06
0.0264591
0.00476758
9.80628e-07
6.38121e-07
1.59739e-06
0.000434971
1.50356e-06
0.000769317
0.00456357
0.00117723
0.000420774
1.39777e-06
3.2195e-06
0.00080726
6.40253e-07
1.52562e-06
1.68623e-06
0.000335687
0.00635793
9.40054e-07
4.15734e-07
0.000174768
9.00258e-07
2.07605e-05
1.30297e-06
1.07911e-06
1.71844e-06
0.0124333
4.96695e-06
1.88976e-06
1.29411e-06
3.02913e-06
8.27789e-07
1.11668e-06
1.57777e-06
6.4407e-07
3.298e-06
2.23707e-06
0.0205765
0.0233882
6.44197e-07
0.0116158
0.0107971
1.57968e-05
1.13382e-06
1.56613e-06
1.70808e-06
6.6448e-06
1.18515e-06
8.97481e-07
6.5146e-06
8.23094e-07
0.0254253
1.80962e-06
0.0100294
5.72432e-06
0.0108778
2.30506e-06
1.27836e-06
0.0119099
1.27023e-06
0.00952165
0.0100098
0.00066342
0.00106563
1.13035e-06
3.56893e-06
0.000582889
1.58195e-06
5.69611e-06
1.38458e-06
0.000169519
5.02029e-06
1.3358e-06
5.63959e-07
7.89837e-07
6.53139e-05
1.55765e-06
6.3962e-07
7.91399e-07
8.20382e-07
0.00619181
1.72455e-06
5.8451e-05
5.86898e-07
8.36381e-07
7.9317e-07
0.0215602
1.74842e-06
3.02232e-06
1.57566e-06
0.00914405
5.13817e-07
5.1614e-07
1.38461e-06
5.09119e-07
3.45687e-06
1.56465e-06
1.71768e-06
1.30064e-06
8.38542e-07
8.29214e-07
1.46539e-06
5.54964e-07
1.5567e-06
1.29721e-06
1.69778e-06
4.36785e-07
1.42308e-06
5.78839e-07
6.57275e-07
9.21369e-07
8.8417e-07
1.36022e-06
1.45938e-06
1.60209e-05
1.39122e-06
1.59248e-06
0.000160051
8.1133e-06
1.82773e-06
1.39357e-06
0.00028115
0.00027539
1.02976e-06
8.29355e-07
9.12356e-07
1.00433e-06
1.79434e-06
3.08544e-06
2.5481e-05
6.62112e-07
5.66431e-07
8.09933e-07
1.03604e-06
6.41622e-07
1.03762e-06
5.29457e-06
1.46185e-06
1.02866e-06
0.0113809
7.78264e-07
9.99735e-07
7.99755e-07
0.00577154
6.36387e-07
2.16158e-06
1.45004e-06
8.29758e-07
5.57304e-07
0.011502
2.0678e-06
0.0205226
2.28866e-06
3.04521e-06
2.14874e-05
1.56569e-06
0.000106494
5.11475e-07
1.133e-06
9.38106e-05
9.01781e-07
0.00973492
1.13615e-06
1.26749e-06
4.8678e-06
1.55564e-05
1.03711e-06
7.82728e-07
0.00968637
6.3615e-07
1.02333e-06
6.47804e-06
0.0184855
2.31028e-05
1.35053e-06
1.87342e-05
1.27411e-06
8.23648e-07
1.85631e-05
0.00104384
0.00165838
0.000157139
5.42952e-07
1.07214e-06
9.39178e-07
1.02592e-06
1.22205e-06
0.0141824
1.48536e-05
0.0149649
0.00359065
6.49096e-07
7.39239e-07
1.02475e-06
2.21936e-06
8.23257e-07
6.64232e-07
8.40518e-07
0.000351935
7.3265e-07
1.16163e-05
0.0209399
8.11988e-07
5.45189e-07
1.19746e-06
1.63093e-06
1.97727e-06
9.09837e-07
7.58796e-07
8.94119e-07
4.48066e-06
0.000144718
8.30695e-07
9.17232e-07
2.60541e-05
1.27552e-06
7.38832e-07
1.21854e-06
4.16939e-07
1.17068e-06
0.00646187
3.95669e-06
1.11984e-06
4.42275e-06
0.0109886
1.40761e-06
1.17811e-06
9.07011e-07
1.19213e-06
1.41205e-06
3.67761e-06
2.89195e-05
1.63851e-06
2.09369e-06
3.94439e-06
9.75663e-07
1.34693e-06
1.51124e-06
6.07643e-05
6.5485e-06
1.38127e-05
1.40686e-06
5.86877e-06
1.1823e-06
1.97897e-06
0.0078324
9.34612e-07
1.54952e-06
5.77854e-07
1.23073e-06
2.1777e-06
1.77043e-06
8.36405e-07
1.62993e-06
5.77086e-07
0.000477867
1.61729e-06
1.07379e-06
1.59107e-06
9.17933e-07
1.34024e-05
2.16699e-06
8.06255e-07
1.16367e-06
1.21322e-06
5.7066e-07
1.59738e-06
1.8959e-06
9.45343e-07
6.31616e-07
1.41306e-06
0.0103402
8.38683e-07
1.02261e-06
1.40912e-06
0.0158391
4.15505e-07
8.7529e-07
0.00568406
0.000903912
1.27434e-06
1.55357e-06
2.23208e-06
4.17636e-07
4.16734e-07
1.55111e-06
1.40262e-06
1.46227e-06
8.73622e-07
7.67565e-07
0.000133534
8.34656e-07
7.6152e-07
1.01611e-06
1.64699e-06
0.00124625
9.39446e-07
0.00643553
1.70556e-06
5.67744e-06
7.63873e-07
1.5496e-06
1.70238e-06
0.000151082
2.16342e-06
1.45413e-06
1.02407e-05
2.99154e-06
7.54357e-07
0.000169783
1.45567e-06
8.31311e-05
1.59288e-06
1.07983e-06
8.7267e-07
1.63216e-06
0.000114173
7.58121e-07
1.01197e-06
7.32885e-07
0.00907221
0.000144066
1.14512e-06
1.83363e-06
1.39347e-06
3.90292e-06
1.64701e-06
1.58823e-06
0.017139
1.95616e-05
1.57318e-06
1.59698e-06
1.19088e-06
7.65265e-07
5.22282e-07
4.52736e-06
1.99477e-06
7.58358e-07
1.83149e-06
9.29186e-07
1.16902e-06
0.00031207
9.453e-07
1.34776e-06
1.50494e-06
1.97221e-06
2.61725e-05
8.81972e-07
1.63729e-06
0.00048115
9.77415e-07
3.81591e-06
1.39058e-06
1.27124e-06
1.27691e-06
1.16571e-06
0.000276993
1.48507e-06
1.38128e-06
1.4004e-06
9.57261e-07
7.66599e-07
1.41385e-06
1.65869e-06
7.81229e-07
1.19568e-06
8.07894e-05
4.13695e-07
4.13816e-07
0.0162281
1.64898e-06
0.0134027
0.0108885
0.000284907
6.58138e-07
6.53109e-07
1.5836e-06
8.59918e-05
7.55496e-07
4.24709e-07
1.5498e-06
0.00458407
7.54751e-07
8.2517e-07
8.26875e-07
4.25844e-06
0.00457816
2.92488e-05
1.53285e-06
1.42179e-06
0.0248666
0.00895243
7.46727e-07
0.000257297
1.3671e-06
0.0110417
1.32781e-06
7.57563e-07
6.67257e-07
0.000141503
7.14129e-07
5.13787e-07
1.14405e-06
0.0203595
5.75281e-07
1.48098e-06
5.06763e-07
0.0229033
9.32926e-07
1.81206e-06
4.29533e-07
9.66102e-07
4.58031e-07
0.00546272
1.54264e-06
5.27761e-07
1.55672e-06
1.59e-06
8.58279e-07
6.54305e-07
8.88233e-07
8.27533e-07
1.32072e-06
1.26916e-06
1.16234e-06
2.5441e-06
0.00169992
1.33814e-06
1.9977e-06
1.14474e-06
0.0113437
0.000220609
8.23644e-07
6.43334e-06
1.54997e-06
0.00086211
8.21463e-07
0.000155396
1.44866e-06
7.379e-07
0.0167965
9.28129e-07
1.55959e-06
0.00155151
4.55435e-07
9.93545e-07
7.47866e-07
0.0212775
9.00685e-07
1.80485e-06
1.55962e-06
2.39119e-06
8.53567e-07
5.72475e-06
1.6373e-06
5.70656e-07
1.21878e-06
1.22374e-06
1.58574e-06
1.73021e-06
9.41414e-07
4.7896e-07
0.000207907
0.0278139
0.000101492
1.66039e-06
1.3599e-06
1.70764e-05
4.17147e-06
6.31741e-07
0.00664557
7.35032e-07
7.46305e-07
6.31626e-07
4.66196e-07
5.73453e-07
2.252e-06
4.23056e-07
0.000532548
9.77799e-07
7.28778e-07
0.000136317
0.00513168
0.000205278
6.24695e-07
7.76623e-06
1.17383e-06
1.56303e-06
4.10515e-07
4.45896e-07
6.5552e-07
0.0280518
1.11943e-06
9.72006e-07
0.0232181
8.65144e-07
2.30662e-06
0.00365395
6.73936e-07
1.58641e-06
0.000478458
9.96455e-05
1.15869e-06
7.32121e-07
8.2209e-07
8.44061e-07
7.45203e-07
0.0114733
1.01542e-06
0.000169793
1.1764e-06
1.54211e-06
0.00251537
8.48497e-07
0.0242645
0.0112745
1.06082e-06
8.87144e-07
5.13341e-07
5.26572e-07
8.59276e-07
3.30421e-05
0.00768124
1.48044e-06
1.64406e-05
4.08074e-05
2.26575e-06
1.68175e-06
1.38351e-06
4.32062e-06
1.64686e-06
8.62036e-07
3.3372e-06
0.000290702
1.98164e-06
1.85909e-06
1.0898e-06
8.22359e-07
1.13667e-06
0.000783178
5.84538e-06
5.83894e-07
1.15067e-06
0.000285947
1.37174e-06
0.000643463
1.12647e-06
1.034e-06
5.69512e-07
2.02069e-06
5.89559e-07
2.45997e-06
3.24275e-05
1.03893e-06
5.76398e-07
1.20918e-06
6.21181e-06
1.13151e-06
8.45712e-07
2.08298e-06
1.6133e-06
1.34772e-06
5.78935e-07
1.85448e-06
6.48585e-06
2.04735e-06
1.51908e-06
4.17794e-07
6.25979e-07
0.0161923
8.84757e-07
1.12103e-06
0.000242378
1.20745e-06
1.51441e-06
1.84736e-06
1.55119e-06
6.35254e-07
1.14609e-06
6.58198e-07
1.09167e-06
7.31275e-06
1.68043e-06
7.31208e-07
1.41511e-06
0.0111168
1.00713e-06
1.58622e-06
6.50916e-07
1.11452e-06
9.51516e-07
6.26228e-07
0.0209058
1.05597e-06
7.39931e-07
5.14421e-07
1.35123e-06
0.000143606
1.66455e-06
0.000278367
9.92727e-07
1.35381e-06
7.33173e-07
1.74772e-05
7.47709e-07
2.34005e-06
2.04149e-06
1.03651e-06
1.53334e-06
6.54729e-07
1.00796e-06
1.66038e-06
1.40814e-06
0.0182085
1.6495e-06
1.05786e-06
2.11822e-06
1.17681e-06
0.0161571
1.57127e-06
0.0189031
5.02783e-07
1.13578e-06
1.52382e-06
1.36812e-06
1.41191e-06
1.1277e-06
9.23701e-06
6.68813e-07
1.43079e-06
3.7038e-07
1.12471e-06
1.47045e-06
0.000295928
1.63222e-06
1.361e-06
9.75817e-07
0.00117294
1.62136e-06
5.10387e-06
0.000258402
9.92285e-07
9.83034e-06
0.020771
0.00534716
1.42303e-06
1.32158e-05
1.68402e-06
0.012399
1.53244e-06
8.34665e-07
1.74687e-06
1.3431e-06
0.00819768
0.0183177
1.34747e-06
4.43157e-06
9.73005e-07
0.00145123
8.85903e-07
5.7321e-07
6.30259e-06
0.012589
6.05894e-07
1.44247e-06
5.59187e-06
9.20134e-07
1.21772e-06
8.55154e-06
2.81024e-06
1.19478e-06
0.00722996
1.15624e-06
1.45055e-06
1.09282e-06
1.19106e-06
2.70634e-06
1.67068e-05
1.44253e-06
0.000301411
9.87759e-07
1.75706e-06
9.80746e-07
1.62424e-06
0.000896622
1.58322e-06
7.19548e-05
6.40685e-07
7.73239e-07
8.65702e-06
3.36829e-06
5.01863e-07
1.32114e-06
1.12053e-06
9.36632e-07
5.82875e-07
1.70394e-06
1.18516e-06
0.000468704
3.14534e-06
8.01887e-07
1.85251e-06
1.47288e-06
1.84651e-06
1.05478e-06
1.21413e-06
1.67154e-06
1.09471e-06
7.54704e-07
2.54265e-05
1.50785e-06
0.0208024
0.000253017
9.61718e-07
1.04665e-06
1.1193e-06
0.00805081
6.17816e-07
8.11168e-07
9.56723e-07
1.48831e-06
8.06392e-07
6.47347e-06
8.35063e-07
0.000339604
4.15921e-07
1.44935e-06
1.45275e-06
5.06176e-07
5.33779e-07
1.46897e-06
6.41649e-07
1.78244e-06
7.74921e-07
1.63654e-06
3.76044e-06
0.010485
3.52919e-06
9.25594e-07
4.69891e-06
1.75324e-06
1.40938e-06
2.67077e-06
1.57976e-06
4.47991e-06
0.000354006
0.0127689
0.00115367
9.30359e-07
1.40035e-06
1.71623e-06
4.12142e-07
1.59653e-06
1.11493e-06
5.80871e-05
3.37377e-06
0.0106087
1.44477e-06
1.12637e-06
1.71482e-06
9.2231e-07
0.0190536
9.56724e-07
0.000302625
1.32172e-06
7.42555e-07
0.00015171
1.46359e-06
1.78929e-06
1.49462e-06
1.75013e-05
3.35469e-06
1.25274e-06
1.4366e-06
5.52832e-07
1.42085e-06
1.27364e-06
0.00182446
6.67751e-06
2.65193e-06
1.19167e-06
6.39228e-07
0.000453918
0.00264966
1.56985e-06
1.73673e-06
0.000696397
0.0038899
1.81389e-06
4.99817e-07
1.1121e-06
1.52615e-06
1.4907e-06
1.42237e-06
6.24701e-07
1.26305e-06
1.55657e-06
6.62974e-06
4.97306e-07
8.37912e-07
1.07155e-06
1.06837e-06
0.00322252
8.41787e-07
7.9886e-07
6.02309e-07
6.43474e-07
1.17087e-06
1.14317e-06
1.91268e-06
6.27776e-07
3.57953e-06
0.0199282
0.000508492
1.56237e-06
0.0206645
6.37922e-06
5.7714e-05
1.06706e-06
3.9169e-06
0.000518168
8.54746e-07
1.71825e-06
9.63199e-07
1.01494e-06
2.95619e-06
1.819e-06
8.97646e-07
0.00115483
1.16539e-06
9.06804e-07
1.56715e-06
6.53054e-07
6.27892e-07
6.54307e-07
0.000443666
0.000430983
2.76841e-06
1.34704e-06
1.17964e-06
8.31597e-07
2.86173e-06
1.02477e-06
1.21577e-06
8.60822e-05
8.38845e-07
0.00240399
9.52568e-07
5.24368e-07
0.0105176
5.29587e-07
1.46261e-06
0.0116643
2.28902e-06
5.08353e-07
5.97144e-07
5.04258e-06
0.000319213
0.000887277
0.000116853
1.95036e-06
6.72777e-07
1.00439e-06
0.00106966
1.65359e-06
5.61134e-07
1.51348e-06
1.04569e-06
6.18844e-07
2.07622e-05
0.0102527
0.0109978
1.70767e-06
0.00126179
6.40138e-06
0.000358275
1.50336e-06
1.10395e-06
6.0586e-07
0.00043517
5.80916e-07
1.51003e-06
0.000326014
2.15634e-06
1.16686e-06
1.76853e-06
5.52195e-07
1.76521e-06
1.70586e-06
1.43899e-06
1.42699e-06
9.50947e-07
1.5441e-06
0.0194719
1.01746e-06
4.30369e-06
1.67162e-06
8.23414e-07
1.00129e-06
9.99074e-07
1.21045e-06
6.9942e-05
7.22039e-07
0.0113933
1.65639e-06
0.000519669
6.74667e-07
1.90284e-06
8.34323e-07
5.55708e-07
5.48697e-07
5.55487e-07
1.12502e-06
1.74626e-06
5.9843e-07
1.28991e-06
1.60948e-06
4.21121e-06
0.0138557
8.34711e-07
1.35431e-06
6.40489e-07
1.51352e-06
1.12371e-06
1.12094e-06
0.0149676
1.19892e-06
1.70403e-06
1.18442e-06
1.52327e-05
0.000507394
1.63593e-06
1.22209e-06
1.25061e-06
5.51348e-07
3.91093e-06
7.1898e-07
1.16293e-06
0.000273179
6.34489e-06
8.0355e-07
6.63937e-07
0.000285125
1.36746e-06
1.25354e-06
0.00339685
1.64428e-06
1.52093e-06
1.94328e-06
0.000360014
8.6945e-07
1.76765e-05
1.62851e-06
6.71271e-07
1.69086e-06
6.02208e-07
0.00886909
1.50393e-06
1.00713e-06
0.00126495
1.30417e-06
1.13398e-06
8.52046e-07
7.01039e-07
5.40059e-07
1.63074e-06
6.61946e-07
4.39717e-06
1.61728e-06
4.94133e-05
8.64895e-07
1.23597e-05
4.14509e-05
1.83715e-06
0.000225849
6.41881e-07
1.52781e-05
1.01941e-06
0.000303147
5.36833e-07
0.0169716
2.68767e-05
0.000402198
1.73323e-06
0.0117416
0.000122668
0.0018531
1.67741e-06
1.26039e-06
1.11407e-06
1.76813e-05
0.000481931
1.70311e-06
1.55861e-06
3.82944e-06
1.19112e-06
0.000151297
5.82247e-07
9.83682e-07
0.000366539
5.39575e-07
6.38112e-07
1.48429e-06
9.22674e-07
6.55334e-07
3.6501e-05
6.36785e-07
1.12967e-05
1.44017e-06
0.00917647
0.000261332
1.13734e-06
1.40017e-06
8.1119e-07
1.13018e-06
0.00146837
9.46247e-07
0.000498256
6.722e-07
0.00611169
1.29626e-06
1.06102e-06
5.99685e-07
1.22483e-06
6.48904e-07
0.0147058
5.60232e-07
1.40876e-06
1.0122e-06
0.00176351
1.26451e-06
1.6746e-06
1.11364e-05
1.36239e-06
8.40375e-07
4.32788e-06
5.32613e-07
1.35222e-06
1.15728e-06
3.60492e-06
5.85457e-07
0.0112085
5.19613e-07
7.93408e-07
2.17851e-06
8.39138e-07
5.35124e-07
9.21284e-05
5.88777e-06
1.44324e-05
0.000108431
1.57563e-06
1.35613e-06
9.43961e-07
1.49784e-06
1.87788e-06
0.00050951
0.00122306
9.76225e-07
0.000284813
0.00146706
1.50935e-06
5.32157e-07
1.64355e-06
4.37733e-05
1.04343e-05
1.37007e-06
1.65407e-06
7.14477e-07
9.23034e-07
1.43273e-06
6.50397e-06
5.39715e-07
3.54184e-06
5.47944e-07
9.86379e-07
0.000262587
1.53811e-06
1.13902e-06
0.000238186
5.75835e-07
4.96807e-05
5.16831e-07
5.14041e-07
0.000212293
6.50581e-07
9.29971e-07
0.000182948
5.19325e-07
9.03798e-07
7.11527e-07
1.87094e-06
5.7023e-07
0.00106558
4.93243e-07
1.66488e-06
1.9726e-06
4.26924e-07
2.30811e-06
1.47784e-06
5.56928e-07
1.43356e-06
1.4294e-06
0.000517186
1.7262e-06
1.51568e-06
1.53743e-06
0.000315644
1.62515e-06
5.08386e-06
1.18799e-06
8.47501e-07
1.40044e-06
9.07705e-07
1.27806e-06
1.90545e-06
2.85427e-05
0.000348956
0.000178044
9.80192e-07
2.71163e-06
0.000400739
1.47088e-06
9.42916e-07
9.65565e-07
1.36083e-06
4.13359e-07
5.0216e-07
3.22129e-05
4.13583e-07
0.000438246
1.4141e-06
1.40103e-06
1.74258e-06
6.85642e-07
0.0144391
6.85703e-07
0.000148921
1.13718e-06
7.89805e-07
1.78851e-06
1.37642e-06
0.000489718
1.1944e-06
0.000394845
1.50452e-06
1.757e-06
5.88898e-06
1.51357e-06
0.000411078
5.83383e-07
8.52636e-07
5.29257e-07
1.17501e-06
5.16532e-07
0.0108993
4.1739e-07
1.40536e-06
1.42385e-06
0.00134452
0.000453108
1.49008e-06
4.81144e-06
7.06825e-07
7.10578e-07
1.24741e-06
1.33427e-06
6.2433e-07
1.50942e-06
5.69888e-07
7.58905e-07
6.40585e-06
1.63619e-06
5.24408e-07
1.47193e-06
1.25598e-06
0.011336
0.0158416
2.26091e-06
1.47616e-06
0.00511034
1.57532e-06
3.10322e-06
1.53372e-06
1.56041e-06
0.011771
1.09737e-06
6.79527e-07
1.38563e-06
9.52154e-07
0.000316596
1.25448e-06
1.45777e-06
8.32908e-07
5.04342e-07
0.000161473
0.0159261
1.24877e-06
2.83631e-06
1.91797e-06
0.0115563
0.0128214
1.81016e-06
2.42549e-06
2.08453e-06
1.58235e-06
7.8834e-07
2.95297e-05
7.47156e-07
1.48434e-06
3.56806e-05
2.17652e-06
6.23196e-07
1.57529e-06
1.48779e-06
1.6472e-06
9.68294e-07
8.02922e-07
0.000624747
5.32416e-07
5.42438e-07
1.07948e-06
0.00156721
6.16361e-07
0.000285351
6.57095e-07
5.12599e-06
1.1518e-06
1.65982e-06
1.35333e-06
1.50673e-06
1.03384e-06
1.6642e-06
5.35144e-07
6.1352e-05
5.11581e-07
2.29275e-06
1.87027e-06
1.74904e-06
1.13785e-06
0.00533409
1.0904e-06
1.50335e-06
0.013261
1.43867e-06
0.00339015
1.62126e-06
4.66212e-06
1.56598e-06
8.30744e-07
0.000192876
1.1148e-06
1.54665e-06
6.23439e-05
9.50231e-07
0.0127467
0.000298128
1.56612e-06
4.15371e-07
1.73479e-06
1.06938e-05
1.5144e-06
9.67982e-05
1.27431e-06
1.69424e-06
0.000291423
0.000783057
9.3459e-07
0.00897073
0.000126671
1.05336e-06
5.58508e-07
4.07303e-06
5.0555e-06
1.13155e-06
7.60194e-06
0.000547177
0.000361199
1.55877e-06
1.74328e-06
2.26172e-06
1.39426e-06
6.75581e-07
0.00496724
0.000372506
5.04559e-07
0.0194134
7.04086e-07
8.28772e-07
0.00407201
0.000393312
1.39813e-06
1.4006e-06
9.03588e-06
0.000565699
1.64797e-06
1.66333e-06
9.14934e-07
0.00121813
0.0150026
1.67034e-06
1.58263e-06
6.3543e-06
8.15825e-07
8.3364e-05
1.65471e-06
1.53591e-06
1.28451e-06
1.61563e-06
1.11929e-06
1.2185e-06
1.64399e-06
0.000372561
0.0153713
8.66597e-07
0.0137771
2.71682e-06
0.000884802
1.46718e-06
0.00844806
1.51556e-06
1.46163e-06
5.04825e-07
6.00184e-07
1.63597e-06
1.982e-06
1.23973e-06
5.0233e-07
0.000341188
1.95925e-06
0.0121088
1.63721e-06
0.000142116
1.2547e-06
2.17365e-06
0.0177956
1.83046e-06
9.09189e-07
1.36243e-06
1.28273e-06
0.0106409
1.52643e-06
2.50897e-06
2.20594e-06
4.94911e-07
0.000293488
0.0112695
0.00573898
6.11027e-07
0.00316207
0.000321961
0.000993247
5.58523e-07
0.000321944
0.000338153
0.000261004
0.000346423
9.17992e-07
0.000103942
6.03262e-07
8.21386e-07
4.45799e-06
8.72844e-05
2.0825e-05
0.000381774
1.54122e-06
0.000338649
0.0177495
0.0108249
1.53017e-06
5.61138e-07
1.24025e-06
0.00141468
1.92003e-06
0.000977773
8.47439e-07
0.0275334
0.0109576
0.00735881
1.48683e-06
0.00215279
6.24271e-07
1.24892e-06
6.05248e-07
0.000384477
5.24702e-07
1.63512e-06
1.59902e-06
0.000749214
8.71071e-07
2.09754e-06
5.82487e-07
0.00738544
0.0045127
5.62798e-06
1.82538e-05
0.000374735
1.57286e-06
1.56854e-06
1.19168e-05
8.65632e-06
0.00240987
2.83432e-06
1.4635e-06
0.000300825
1.06013e-06
1.95001e-06
0.0126509
6.05675e-07
9.19707e-07
1.70224e-06
0.0012353
5.36398e-07
0.00122891
0.000338814
1.96916e-06
1.06206e-06
1.93701e-05
0.0195151
9.95254e-07
0.00050006
1.06672e-06
1.39438e-06
1.12326e-05
6.11952e-07
4.82349e-07
1.37438e-06
2.22235e-06
6.12675e-07
4.8541e-07
4.5235e-06
1.89287e-06
6.34346e-05
1.34101e-06
1.94801e-06
0.000130773
8.61278e-05
0.001577
6.00753e-07
0.0187275
5.01963e-07
5.98015e-05
8.77997e-07
1.34415e-06
0.00272225
0.000285397
1.46067e-06
1.56102e-06
7.86208e-07
0.0133807
5.70491e-07
1.51497e-06
8.60643e-07
8.80071e-07
6.89414e-05
0.00644406
1.56638e-06
1.27613e-06
0.00479682
0.0110574
0.0126961
6.99933e-06
7.91051e-07
5.16121e-07
1.35056e-06
8.44745e-07
1.35506e-06
0.000249678
5.4893e-06
1.21919e-06
6.50598e-07
8.37881e-07
5.19739e-07
0.000194859
8.63127e-07
1.10692e-05
1.26398e-06
1.47212e-06
1.23272e-06
6.22833e-06
1.33852e-06
1.12688e-06
6.42129e-06
3.5444e-05
1.42836e-06
1.12926e-06
0.0125237
0.0174442
2.7809e-06
1.35339e-06
0.00557546
0.0145454
1.81192e-06
4.93556e-05
2.11617e-06
9.55367e-07
0.0145594
1.59439e-06
0.00964841
1.07734e-06
2.61837e-06
5.09346e-07
7.13313e-05
1.3543e-06
1.27704e-06
1.7251e-06
5.09752e-07
1.42422e-06
4.74105e-06
1.43668e-06
1.64589e-06
1.36468e-06
1.8812e-06
1.05727e-06
0.0114984
8.72484e-07
2.30898e-06
8.17545e-07
1.95724e-06
1.8037e-06
1.6144e-06
1.01619e-06
1.52663e-06
9.59e-06
7.7117e-06
0.0161279
2.0268e-06
8.33855e-07
0.0128763
5.90772e-07
0.0209536
6.09503e-07
1.40882e-06
0.0132708
1.23046e-06
0.00026152
1.54996e-06
8.39957e-07
1.55051e-06
1.71539e-06
7.81879e-07
5.61416e-07
3.54806e-06
5.67718e-07
9.39818e-07
0.000143042
5.98972e-07
0.00046791
6.22784e-07
2.84701e-06
1.43744e-06
1.39238e-06
1.23298e-05
4.11327e-05
7.98525e-07
9.19165e-07
1.00548e-06
1.34027e-06
7.97975e-07
1.19357e-06
0.0185771
0.000258872
1.75702e-06
1.48994e-06
1.14952e-06
3.61793e-06
3.24633e-06
0.0129608
5.64212e-07
7.76973e-07
0.000731845
5.61898e-06
0.00100085
6.12142e-07
0.000233184
0.0104776
1.94882e-06
9.41185e-07
2.12621e-06
0.00010337
1.1963e-06
9.13198e-07
1.3479e-06
9.12237e-07
1.06065e-06
6.46728e-07
1.32235e-06
1.10432e-06
9.9434e-07
2.8194e-06
1.06753e-06
6.51829e-06
0.00424096
1.55873e-06
1.42026e-06
5.31846e-05
1.1108e-06
0.000343552
8.13124e-07
1.46219e-06
1.54295e-06
5.93768e-05
4.87439e-07
6.60535e-07
4.86761e-07
3.88314e-05
2.61738e-06
0.000181349
0.0112347
2.24733e-06
1.04936e-06
6.08421e-07
4.95655e-07
1.628e-06
4.17014e-07
0.000568074
1.28038e-06
1.15458e-06
0.0138465
1.01296e-06
4.62061e-07
0.000347997
1.63055e-06
1.18293e-06
0.0174613
2.90193e-06
0.0135281
0.000254556
5.44724e-07
1.06081e-06
1.58461e-05
0.0232729
9.17036e-07
9.09816e-06
1.13554e-05
0.0013492
0.0107843
8.94421e-06
7.27083e-07
2.94014e-06
4.57046e-07
7.09859e-06
7.58205e-06
2.43998e-06
0.000465648
1.99256e-06
7.70557e-06
7.30028e-07
1.85573e-06
1.27701e-05
8.01869e-07
3.29016e-06
5.4734e-07
1.84128e-06
1.36775e-06
0.00024791
0.00168223
1.3255e-05
0.00837312
2.31145e-06
1.64169e-06
1.01603e-06
7.21082e-07
8.29316e-07
1.54755e-06
2.27787e-06
6.50519e-05
4.20773e-07
1.4536e-06
4.56217e-07
1.14348e-06
5.72003e-07
9.28317e-06
0.000199426
1.08176e-06
1.48626e-06
8.77521e-08
1.81655e-06
1.55672e-06
0.010299
1.27413e-06
8.65593e-07
1.14518e-06
2.89554e-06
6.31476e-06
6.52377e-06
0.000160107
0.0128738
6.67499e-07
0.000154467
8.04292e-05
0.0268773
1.19164e-06
0.000217035
6.2698e-07
0.00684747
5.05275e-07
6.35489e-05
5.34772e-07
1.4684e-06
5.59016e-07
0.000405315
0.000134366
1.67852e-06
7.67738e-07
1.10733e-06
1.34606e-06
0.0100276
8.20195e-06
1.58985e-06
1.46888e-06
5.84387e-07
1.11004e-06
0.000594447
0.00103337
6.0786e-07
1.32284e-06
1.57877e-06
3.05675e-06
1.14435e-06
3.03078e-06
7.72628e-07
1.48199e-06
1.59152e-06
0.00533606
4.30451e-05
2.81628e-06
2.0606e-05
9.49166e-07
1.33957e-06
1.39365e-06
4.41036e-07
1.2977e-06
0.00036991
1.38623e-06
9.31702e-06
1.01427e-06
8.68205e-07
9.56719e-08
9.12129e-07
0.000200495
0.0125459
3.9252e-06
0.000264054
1.11444e-06
6.45929e-05
1.90967e-06
6.10235e-07
0.0125634
0.00555223
1.4408e-06
8.91503e-07
1.53296e-06
1.41934e-06
0.00943967
7.76589e-06
5.50015e-07
1.23689e-06
1.9482e-06
9.10757e-05
1.39456e-07
7.84314e-07
1.58348e-06
1.47287e-05
1.68681e-06
0.00171247
0.000875578
0.0168658
9.3376e-07
1.06153e-06
1.29943e-06
1.80967e-06
5.63253e-05
9.7544e-07
1.71386e-06
2.59003e-06
8.9823e-07
7.39214e-07
0.0178158
0.0150116
2.19273e-06
3.21695e-06
1.53346e-06
5.16177e-07
2.6253e-06
8.38136e-07
0.000994594
0.00126609
7.93107e-07
0.0203441
5.89667e-07
4.07711e-05
7.17769e-07
8.11433e-07
1.23555e-06
0.0225152
1.83408e-06
0.00861049
1.03021e-06
6.97419e-07
1.68271e-06
1.71617e-05
8.41207e-05
3.90709e-05
0.0123749
9.85424e-07
1.49324e-06
9.06222e-07
0.00151658
7.63363e-07
6.49102e-07
1.60659e-06
0.000454526
1.14957e-06
6.67528e-07
1.76255e-06
2.74892e-05
1.3266e-06
0.0119932
4.94661e-07
8.08925e-07
6.59785e-07
1.73484e-05
2.78787e-06
1.52525e-06
1.53411e-06
1.53581e-06
9.81126e-07
1.32702e-06
1.98436e-06
5.64505e-07
1.91913e-05
1.36319e-06
2.47341e-06
0.0109881
1.57621e-06
1.00865e-06
6.37956e-07
1.25014e-06
0.000428373
9.62642e-07
1.53582e-06
0.00369221
1.36843e-06
2.88875e-06
1.62206e-06
4.8046e-07
4.34078e-07
1.62105e-06
2.45543e-05
5.43448e-06
2.64525e-05
1.05779e-05
1.6386e-06
1.52892e-06
1.51686e-06
2.49312e-06
1.47016e-06
1.17135e-06
0.0149999
0.000937425
7.58687e-07
1.56881e-06
6.05555e-05
7.1259e-07
1.30824e-06
4.87302e-07
1.3534e-06
0.00021378
5.81875e-05
5.8754e-07
1.78665e-06
1.13134e-06
7.97546e-07
4.19153e-07
9.21768e-07
0.0132037
1.14401e-06
7.95862e-07
0.0134634
1.06462e-06
0.0101875
5.27279e-07
1.09493e-06
0.0165061
1.81271e-06
1.24111e-06
0.000357502
0.0229644
0.00743372
8.25714e-07
0.000118877
1.51834e-06
0.000133799
0.0188925
7.94025e-07
0.000119477
6.86214e-07
1.3324e-06
1.57579e-06
3.891e-05
1.56821e-06
9.15811e-07
8.1145e-07
0.0194488
1.2624e-06
2.71663e-06
6.71074e-07
4.15803e-07
0.000115477
1.1e-06
1.74404e-05
0.00944636
0.0208779
5.47252e-07
1.06722e-06
1.67873e-06
5.67382e-07
1.93202e-06
0.00341848
6.80763e-05
4.59333e-07
0.0108721
2.21954e-06
1.25488e-06
1.2471e-06
5.51831e-07
0.0178779
1.20657e-06
0.000318853
4.84512e-05
8.90845e-06
4.65828e-07
2.19998e-06
2.65991e-06
7.54343e-07
0.0162763
2.28625e-05
1.1344e-06
0.000308167
1.27998e-06
0.0015614
8.90123e-07
4.56302e-07
1.48064e-06
4.58412e-07
4.54066e-07
1.63814e-06
6.75754e-07
4.58303e-07
1.52407e-06
9.05492e-07
1.33606e-06
7.07478e-07
9.39259e-05
1.4821e-06
5.86315e-07
1.39886e-06
2.87942e-06
5.28047e-07
1.39964e-06
7.49802e-07
1.27851e-05
0.0115672
1.66809e-05
4.91742e-07
6.67279e-07
1.45061e-06
2.70203e-06
1.27048e-06
0.000166484
8.18422e-06
7.25554e-05
0.000167103
1.3654e-06
0.000425699
0.000987663
6.98888e-06
5.5579e-07
7.45869e-06
0.0141705
1.86444e-06
7.44239e-07
6.79784e-07
5.40205e-07
5.30806e-07
6.96806e-06
2.0214e-06
1.28558e-06
0.000114828
1.30472e-06
1.306e-06
5.3701e-07
1.41397e-06
4.57331e-07
2.1227e-06
5.45161e-06
7.05415e-06
1.73905e-06
4.39155e-06
0.00181357
0.00413044
1.81881e-06
5.2736e-07
1.53505e-06
1.5281e-06
2.83578e-06
1.11821e-06
1.27528e-06
9.00123e-07
1.53002e-06
1.3339e-06
5.02882e-07
0.0191191
1.2385e-06
6.52605e-07
0.000321874
7.81774e-07
2.37367e-06
5.49971e-07
1.33786e-06
1.45172e-06
1.30953e-05
1.95703e-06
3.98309e-08
5.23777e-07
1.29132e-06
1.44752e-06
1.41758e-06
1.3367e-06
0.000650544
0.0128375
6.25073e-07
4.12056e-05
1.2752e-06
2.08425e-06
0.023589
1.5033e-06
1.21099e-05
0.000713526
8.80834e-06
5.37157e-07
7.78416e-07
1.5811e-06
0.00341291
0.000580121
8.23535e-07
7.805e-06
8.19022e-07
2.57416e-05
0.00418138
7.41126e-07
8.27892e-07
5.26542e-05
1.3181e-06
0.000452565
7.08378e-07
0.0147777
1.48502e-06
0.000483914
9.69851e-07
1.04264e-06
1.35887e-06
8.94353e-06
0.000244113
0.00025459
4.69829e-07
1.64827e-06
1.79511e-06
1.48857e-06
5.92451e-05
0.0191061
7.79582e-07
0.000309981
1.46517e-06
1.46181e-06
0.0117594
5.86782e-07
1.29263e-06
1.52776e-06
2.03673e-06
1.51156e-06
1.61971e-06
1.51487e-06
0.0151299
8.32551e-07
0.0219419
8.18847e-07
9.23841e-06
1.58963e-06
5.08491e-07
1.15952e-06
8.24736e-07
6.69342e-07
5.22039e-07
3.71201e-05
2.09422e-06
3.81898e-06
1.32077e-06
1.42176e-06
6.83212e-06
1.46689e-06
5.50578e-07
0.0154838
1.5395e-06
1.40248e-06
1.23044e-06
0.000134652
6.65749e-07
1.48123e-06
7.53746e-07
1.45698e-06
0.017053
8.81497e-05
2.79609e-06
0.000170993
2.39257e-05
1.3472e-06
0.00392696
1.3936e-06
0.000322736
6.33464e-07
1.50931e-06
8.05852e-07
9.06746e-06
5.82183e-07
6.45076e-07
1.68637e-06
7.16985e-07
7.1183e-07
1.28732e-06
4.53192e-07
5.1596e-05
1.02278e-06
1.46054e-06
6.77586e-07
1.40999e-06
2.53801e-05
0.000165152
1.36593e-06
4.24659e-06
2.82509e-06
0.00026835
2.25912e-06
7.89049e-06
1.39098e-05
3.7545e-05
1.62437e-06
6.34424e-07
1.39743e-06
2.70974e-06
1.42507e-06
1.29458e-06
1.24758e-06
8.72086e-07
1.19179e-06
5.27193e-07
7.73174e-07
0.00390533
0.0130906
1.04833e-06
1.04819e-06
6.31542e-07
0.0215552
1.1494e-06
1.63135e-06
6.94117e-07
8.20246e-07
7.55049e-05
2.12671e-06
1.03702e-06
0.0086159
4.74061e-07
0.000495274
9.45539e-07
5.40798e-06
1.93639e-06
1.15391e-06
5.29722e-07
0.0134568
7.57295e-07
1.47476e-06
1.5994e-06
0.000222788
1.37715e-06
1.34033e-06
1.24857e-05
5.83413e-05
8.23293e-07
1.05886e-05
7.98149e-06
9.55049e-07
6.41439e-07
1.67845e-06
6.88397e-07
1.37891e-06
0.000140551
0.00140332
0.000341518
8.17381e-07
1.27924e-06
1.55068e-06
1.5431e-06
2.12052e-06
2.40568e-06
5.99551e-07
2.62516e-06
8.12595e-07
5.29872e-07
4.82349e-07
1.61546e-06
2.22741e-06
5.46073e-07
1.52609e-06
1.10179e-06
5.38436e-07
1.57796e-06
0.00034743
0.000378527
1.32073e-06
0.0113908
5.58314e-07
0.000223781
1.77395e-06
1.43249e-06
1.47243e-06
1.6062e-06
0.0103111
1.34783e-06
4.59223e-07
1.15854e-06
1.4546e-06
1.2234e-06
0.0139256
0.000166868
1.21478e-06
0.00019623
0.00143709
1.64412e-06
8.2818e-07
1.18617e-06
1.69947e-06
0.01516
1.66558e-06
6.82045e-07
0.00858625
2.10011e-05
1.61467e-06
9.86741e-07
1.39779e-06
0.00857403
7.04332e-06
1.97935e-06
3.33124e-06
4.57842e-07
5.26384e-07
1.63126e-06
3.2066e-06
2.1632e-06
0.000233821
3.71031e-06
0.000303411
1.61502e-06
1.61818e-06
1.21268e-06
1.7725e-06
1.53899e-06
2.69046e-06
9.74036e-07
1.74196e-06
4.59182e-07
0.0127015
1.22078e-06
1.11678e-06
1.80657e-06
1.3381e-06
5.37843e-07
0.000187723
1.31211e-06
1.93975e-06
1.20669e-06
9.01793e-07
1.71418e-06
0.000620109
3.74265e-06
1.52561e-06
2.60155e-06
9.33431e-07
1.52323e-06
4.52104e-07
0.000221828
1.27501e-06
1.79364e-06
1.77865e-05
1.58969e-06
1.14633e-06
0.0243352
5.82048e-06
3.15598e-05
5.02324e-06
1.20521e-06
1.69457e-06
0.000305222
6.03641e-05
6.26683e-07
1.41566e-05
1.66215e-06
0.000134851
1.29938e-06
1.5175e-06
1.41168e-05
0.000287704
9.32605e-07
2.65464e-07
1.80477e-06
0.000717908
1.12019e-06
0.000266828
1.52146e-06
8.80344e-07
1.66747e-06
5.22615e-06
0.00252144
0.00935662
3.13617e-06
4.87513e-07
2.01336e-06
1.29701e-06
1.59432e-06
3.50448e-06
0.0101751
0.00012974
1.14076e-06
4.15438e-07
2.10594e-06
1.05428e-06
1.37765e-06
0.00715343
1.53515e-06
0.000454082
1.14089e-06
8.1549e-07
9.82446e-07
2.25396e-06
2.22959e-06
2.3121e-06
0.000632554
0.00267174
5.29476e-07
5.2862e-07
4.50263e-07
1.77034e-06
1.10724e-06
0.00321345
1.29205e-06
1.21057e-06
1.61886e-06
0.000993559
8.21268e-07
7.82473e-07
1.81487e-05
2.37002e-06
3.13319e-06
6.04486e-07
0.00893764
1.6069e-06
1.1459e-06
0.000292514
7.67346e-07
1.60615e-06
1.53079e-06
1.34425e-06
1.53432e-06
1.34898e-06
1.55968e-06
7.90718e-07
1.0649e-06
1.51875e-06
5.30113e-07
3.29033e-06
0.000229875
7.75723e-07
0.010755
0.00036846
1.5251e-06
1.2466e-06
1.44302e-06
1.4174e-06
5.25119e-07