/*--------------------------------*- C++ -*----------------------------------*\
| =========                 |                                                 |
| \\      /  F ield         | OpenFOAM: The Open Source CFD Toolbox           |
|  \\    /   O peration     | Version:  v2012                                 |
|   \\  /    A nd           | Website:  www.openfoam.com                      |
|    \\/     M anipulation  |                                                 |
\*---------------------------------------------------------------------------*/
FoamFile
{
    version     2.0;
    format      ascii;
    class       volScalarField;
    location    "200";
    object      ddt0(gammaInt);
}
// * * * * * * * * * * * * * * * * * * * * * * * * * * * * * * * * * * * * * //

dimensions      [0 0 -1 0 0 0 0];


internalField   nonuniform List<scalar> 
18355
(
1.57034e-06
5.51734e-14
-1.07856e-11
5.01393e-15
-0.000103949
-6.91563e-11
-3.9187e-11
5.08318e-05
-4.47813e-16
-1.58323e-11
-4.18638e-15
1.88855e-14
4.01244e-14
4.23454e-11
-7.95234e-15
1.97235e-12
3.75377e-15
3.18628e-14
3.33311e-08
5.5468e-07
-3.23489e-06
1.13791e-15
7.4067e-16
-1.39069e-10
-2.90153e-14
1.24489e-13
5.32814e-13
-3.68732e-14
6.83656e-15
-2.35587e-14
-1.88834e-12
-7.90121e-10
4.69663e-10
-6.87129e-12
-2.03045e-14
-1.01553e-10
1.25771e-14
3.41869e-11
-3.98415e-16
-1.54995e-15
2.95657e-14
1.57768e-14
-1.19676e-11
-7.54122e-14
-4.98052e-14
1.08171e-08
2.10211e-16
-2.52723e-14
7.80312e-14
8.45647e-10
2.38152e-14
1.2801e-09
7.38138e-10
-3.88324e-07
3.87655e-14
-1.95846e-07
-2.01702e-16
2.62639e-06
1.36578e-13
0.00130668
-1.31582e-11
-8.40622e-15
1.72065e-06
-7.26441e-08
-1.92361e-08
-1.71187e-15
-5.62605e-16
-2.54888e-14
1.25859e-12
-2.4567e-08
2.99776e-11
3.16324e-14
1.58557e-11
8.66609e-13
-3.10696e-09
4.21279e-12
-4.34857e-08
6.11129e-12
1.40484e-11
-4.62686e-09
6.04815e-15
5.68625e-09
2.19008e-12
-6.02992e-15
-1.34611e-13
4.95515e-15
6.91399e-15
7.86461e-15
-1.05187e-15
-3.54476e-14
3.20423e-11
7.80314e-07
5.55281e-09
7.54113e-10
-2.08156e-15
-2.9327e-07
3.10063e-14
2.56078e-07
1.19514e-12
-5.73691e-15
5.95957e-14
-7.72811e-12
9.24293e-11
6.53623e-13
8.01607e-15
-5.19787e-12
1.30244e-08
7.13089e-16
-5.90827e-15
1.6543e-11
-7.84553e-15
-1.04979e-14
-5.03145e-14
3.08669e-14
-6.96081e-10
2.06579e-14
-3.89116e-12
-9.70888e-10
3.54512e-15
2.77176e-14
-2.01537e-06
-7.97802e-12
-8.42384e-12
1.66884e-14
4.42355e-11
3.49304e-08
-4.34241e-11
-2.46081e-14
1.32082e-07
-1.14406e-14
3.66526e-14
3.61251e-10
-6.23911e-15
6.30621e-14
6.91679e-06
9.44602e-15
-3.87026e-09
7.57589e-12
2.79215e-14
-1.9294e-07
3.04447e-14
-5.37904e-08
2.74853e-14
6.42529e-15
6.40029e-06
1.72856e-14
2.34483e-05
1.33862e-10
-4.00983e-14
1.56608e-11
-5.6141e-15
3.58154e-14
3.55004e-10
9.29715e-10
-1.62356e-11
1.04744e-15
1.93105e-14
3.03508e-14
5.01302e-14
-4.44038e-15
1.7502e-14
1.79621e-15
1.34087e-11
-2.04694e-08
1.20394e-13
-3.72666e-10
-1.19277e-05
3.30758e-08
1.37304e-12
-3.15326e-14
-1.63575e-16
1.53648e-14
8.76181e-15
1.20282e-13
1.03695e-14
-9.33456e-15
2.6265e-15
1.53525e-13
-2.22322e-14
3.76737e-15
3.05767e-14
-6.63063e-10
-1.08782e-15
-3.46268e-14
1.20392e-06
-7.47386e-11
2.41588e-14
7.03766e-15
-4.78805e-14
4.90212e-11
1.27422e-08
6.11059e-13
1.03343e-13
-7.9341e-12
3.75369e-14
9.91328e-11
4.06181e-15
-1.13345e-10
6.98727e-14
2.06428e-11
-3.61563e-10
-2.06103e-13
3.51803e-16
3.74293e-14
-3.30788e-08
-2.18132e-14
1.60873e-11
1.41682e-14
4.04984e-09
2.60958e-09
-2.73392e-14
-6.50467e-09
-3.0794e-08
-3.15334e-09
9.91199e-10
1.50844e-14
3.41698e-14
1.40506e-14
1.77989e-15
-2.56511e-14
1.54016e-15
1.25262e-10
-3.58263e-14
-2.10126e-05
6.02617e-06
-2.17772e-07
9.57853e-11
4.38429e-11
7.53405e-05
1.20738e-12
-4.79706e-09
3.48622e-15
-2.63274e-11
1.06244e-10
-1.33742e-08
3.89829e-06
-3.91289e-14
-1.51314e-11
3.65741e-14
6.08493e-09
-2.46044e-13
-1.31679e-14
4.58476e-09
-6.21445e-14
8.95718e-15
-2.54767e-14
1.12149e-15
1.31479e-08
7.3164e-10
-7.77944e-12
6.68747e-08
-5.66139e-09
8.63305e-15
-2.59663e-05
1.01259e-11
-1.12022e-06
-2.53647e-15
-4.11586e-14
-8.64378e-07
5.77908e-15
-1.23316e-10
-5.2286e-07
3.38776e-14
3.30671e-14
-2.78671e-14
-3.68602e-09
3.73491e-07
2.11495e-11
1.05596e-15
-8.36639e-16
1.77941e-09
-1.80174e-11
-1.96313e-13
2.59029e-14
-5.60798e-15
-1.59669e-14
1.82318e-08
-3.16224e-14
1.25895e-08
-7.52617e-14
-3.99387e-09
3.55257e-14
-9.34885e-15
-6.77833e-12
-7.91691e-15
1.58553e-16
1.55377e-17
3.3326e-15
-2.75353e-15
4.41828e-14
3.79696e-09
-5.58459e-15
-1.59254e-14
-3.22896e-06
1.13923e-06
3.35243e-14
-8.97219e-12
-2.92678e-09
7.45343e-15
7.22316e-08
2.04844e-14
-6.05907e-05
6.85562e-15
1.64913e-13
-2.20335e-14
-7.75432e-08
3.53662e-10
-6.66604e-15
5.87926e-15
5.75952e-16
-2.21716e-10
6.12415e-09
-2.87942e-16
-6.72918e-09
2.28353e-07
2.77598e-14
3.63445e-14
-1.53292e-15
1.60062e-14
-7.15695e-15
1.29395e-08
9.62991e-06
-4.04839e-10
1.87293e-08
-3.38573e-15
4.61536e-07
-1.81512e-10
-9.25679e-15
-2.21108e-15
3.76997e-14
5.07735e-13
1.30659e-14
3.25521e-11
-7.51515e-13
3.46328e-10
6.13897e-15
2.27946e-14
5.67072e-13
-1.53626e-14
-1.12019e-09
1.2305e-13
-7.43627e-09
-4.12612e-15
-3.01063e-14
-2.00135e-14
-3.20601e-07
1.02046e-12
-4.18217e-15
3.78485e-16
-5.60695e-08
1.43019e-15
3.03116e-14
3.13186e-14
3.84039e-07
-2.06272e-14
-5.11508e-11
3.07179e-14
-6.98275e-15
2.68312e-14
1.08831e-09
7.32017e-16
4.52839e-14
6.41857e-05
-2.2216e-09
-1.03787e-08
-1.06446e-14
4.48798e-06
-3.35154e-15
4.06117e-14
-1.30272e-07
-1.42402e-09
-8.89656e-09
-9.26731e-16
-7.60355e-15
2.93818e-14
-8.68876e-07
-3.52462e-06
-3.94048e-15
-1.09029e-09
-3.46913e-06
-7.092e-05
2.74544e-14
5.06504e-15
-3.42705e-15
1.05354e-14
2.01651e-11
3.40958e-14
3.88955e-14
1.86274e-09
-3.05873e-14
-4.66603e-15
2.99185e-14
9.96616e-14
5.27779e-12
1.17308e-14
1.04111e-05
-5.41999e-10
-5.57991e-08
-8.40868e-15
-2.52894e-07
3.61173e-15
-7.00088e-14
1.69903e-15
3.21226e-14
2.1075e-07
-4.1644e-12
4.97406e-12
2.32273e-07
4.05022e-06
2.29745e-08
-3.39939e-11
2.89706e-13
2.33928e-13
-7.58833e-15
-3.94474e-14
-8.17588e-06
-5.23752e-15
-2.16243e-07
6.97499e-08
-2.82067e-08
1.12969e-14
-4.11807e-14
9.74504e-15
4.81977e-15
-6.17576e-15
1.8917e-12
2.24338e-14
1.89592e-16
-9.40087e-12
-9.85667e-12
-1.16496e-06
-2.8171e-15
5.48817e-15
-1.83685e-14
1.62089e-13
1.58353e-15
7.07172e-15
-4.89933e-09
-4.9302e-15
4.75753e-16
3.59292e-10
-1.36188e-14
2.44397e-15
-1.50904e-09
4.07217e-11
9.66479e-06
1.48209e-06
-1.16225e-09
1.4819e-15
-3.31243e-15
6.55059e-15
-2.6789e-05
-3.26405e-10
1.9626e-06
-9.82803e-15
-1.0841e-14
-2.79714e-10
1.79476e-14
1.69427e-14
-2.78226e-14
5.66015e-15
-2.63615e-14
2.45974e-06
-8.40656e-10
6.75831e-14
2.06707e-15
-1.16493e-09
2.27426e-14
2.1474e-14
1.20725e-13
2.23602e-11
-1.10296e-14
-3.52168e-12
4.80336e-15
-4.10458e-14
-1.4251e-14
-2.49858e-15
1.94544e-14
-3.63502e-10
-1.30766e-14
-6.14664e-10
-1.52182e-14
-0.000876388
-4.50785e-08
-1.00963e-13
9.26297e-15
3.66796e-14
-2.2339e-08
1.54452e-14
2.10843e-07
-4.06593e-08
5.85376e-15
2.57053e-15
-1.69133e-13
3.22325e-07
-1.47406e-11
4.61761e-12
1.52873e-06
-3.12711e-14
-5.5369e-15
9.03642e-15
-3.82743e-14
-3.50799e-10
-2.30811e-09
-2.61181e-09
2.0074e-15
-1.81708e-10
5.44018e-16
-2.53229e-14
3.99548e-05
-5.86588e-15
1.87682e-11
1.62649e-14
-5.60533e-15
2.81789e-09
1.14107e-13
3.6695e-14
6.00036e-15
2.33884e-05
2.50276e-15
6.15923e-14
-3.55931e-10
4.88723e-14
4.16952e-14
2.1587e-15
3.07708e-14
1.80062e-12
3.23001e-07
6.94305e-13
-2.61022e-13
-1.29227e-13
3.79198e-14
2.37184e-14
7.90098e-15
5.87231e-09
-7.59757e-06
2.09969e-14
0.00505028
8.28657e-08
-1.33751e-08
-5.46673e-11
2.56962e-14
7.52678e-16
-1.39949e-15
6.61911e-08
-5.69898e-10
-9.35741e-16
-2.24451e-14
-5.01965e-11
2.22091e-15
1.14335e-06
-7.67629e-09
-3.72936e-14
1.64594e-14
-5.45948e-15
4.46418e-16
6.44708e-09
2.81342e-14
-0.00190737
-6.03235e-15
-3.95675e-08
-3.48769e-14
-1.31647e-15
4.58743e-14
-1.68051e-11
2.327e-11
-1.57645e-14
1.56634e-13
2.79729e-14
-7.47714e-16
9.07165e-15
3.49802e-14
8.36473e-14
6.38338e-15
6.33255e-09
2.5662e-14
9.97838e-16
-4.15648e-14
-9.94912e-09
-9.91063e-06
-4.35273e-15
-3.97133e-14
-4.01788e-06
8.5048e-11
-4.92205e-06
8.76845e-16
-1.53397e-05
-2.90346e-14
-5.83485e-15
-2.40254e-14
-1.41202e-15
4.13838e-11
-5.06514e-16
-6.44976e-10
-7.92049e-15
1.32822e-14
-3.6984e-15
2.50718e-09
-1.49838e-06
-9.25987e-07
-5.4767e-08
2.31258e-14
-6.43994e-15
-3.78528e-11
-1.74041e-14
4.81685e-13
-3.36866e-14
-2.10142e-11
4.82809e-11
2.44788e-14
-3.88756e-14
-1.50687e-11
1.08457e-12
-4.19062e-14
-3.0745e-08
-0.0001639
-8.53419e-11
6.65411e-15
-2.71484e-09
5.21211e-09
-2.30789e-14
-1.62507e-13
-2.78236e-09
3.27911e-05
-7.98054e-14
-5.30293e-09
-3.8833e-15
-8.61719e-16
-1.65027e-08
5.93316e-11
5.91987e-11
-1.38247e-11
6.6279e-14
1.82784e-07
5.30535e-16
-1.65877e-14
7.76642e-15
-1.7882e-05
2.54376e-14
4.72299e-15
-5.17675e-11
1.19108e-14
5.68502e-11
-6.8198e-12
-3.73817e-05
-4.01362e-11
3.44322e-14
-1.8409e-06
-2.90867e-14
3.68218e-15
4.29748e-14
4.90702e-11
3.6249e-10
-3.82388e-15
2.21984e-15
0.000995114
1.9823e-15
1.74773e-14
-5.99558e-11
2.84357e-14
2.84789e-14
6.90938e-06
5.44864e-09
-3.02226e-14
-5.36612e-15
2.01093e-15
-2.45672e-15
1.14602e-10
9.68212e-07
-4.46165e-14
-6.93337e-07
2.97464e-14
-9.77506e-15
1.72149e-15
-8.20514e-15
3.73696e-15
-1.50098e-10
1.09487e-09
-1.41104e-15
-1.12239e-10
-2.99359e-10
-2.83997e-12
-3.36011e-14
8.25498e-08
-2.34132e-13
-1.49104e-15
-1.50054e-08
3.14401e-14
1.41627e-14
1.47138e-10
-4.11483e-14
1.08914e-11
1.4302e-15
4.31249e-15
-9.07996e-15
-4.13649e-14
-7.90966e-09
1.22528e-14
0.00160964
-2.77249e-10
-2.1454e-10
4.09955e-15
-5.7153e-16
1.40231e-14
6.54915e-16
1.47125e-07
3.24315e-14
-1.93066e-15
1.5419e-11
8.3925e-11
1.66479e-14
8.06764e-16
1.93354e-13
-2.66884e-14
4.87548e-15
-3.23668e-08
-6.7835e-09
3.21617e-14
2.41453e-07
-3.41809e-07
-1.10206e-13
4.18647e-14
1.20084e-13
1.39145e-11
4.01821e-15
7.11008e-11
7.41743e-15
-6.00419e-09
-2.57982e-14
-7.66006e-11
-3.18674e-16
-3.69738e-09
2.9616e-14
-5.04616e-15
2.86246e-09
-4.28117e-15
-1.25408e-15
-1.58679e-12
5.94423e-06
1.47445e-08
-4.89569e-15
-1.07586e-11
-1.36237e-14
-1.92093e-05
-2.99777e-14
2.93254e-15
6.4806e-11
-1.47983e-14
2.82028e-14
-3.23695e-15
1.15522e-14
5.78067e-10
1.64989e-07
2.94615e-14
-7.00424e-12
3.73482e-14
-3.98651e-14
-7.9968e-07
-2.6398e-14
3.51093e-09
-6.9834e-14
-1.47861e-14
-7.22625e-15
-2.85294e-09
-5.95984e-15
-1.16662e-08
8.15996e-14
1.00504e-15
-3.36725e-15
-1.84744e-14
-1.60533e-10
3.95762e-07
4.44901e-11
5.66454e-08
-1.64611e-15
2.73737e-14
3.41108e-15
3.95545e-13
-1.78281e-12
2.53204e-07
3.37377e-09
1.28364e-15
9.15735e-08
3.60216e-10
3.66584e-14
4.14952e-13
5.10593e-13
-1.08804e-11
1.07068e-15
-1.0827e-14
3.50445e-14
1.11767e-14
9.19835e-12
1.68051e-16
3.80879e-14
-2.58074e-14
1.01668e-08
1.76572e-13
-2.35053e-14
-2.28918e-15
1.85952e-07
-8.11921e-09
4.6548e-08
-0.0013168
5.76799e-15
6.75063e-13
-2.90324e-14
2.06938e-07
2.42666e-11
2.05574e-09
5.25182e-08
2.35199e-14
-3.33615e-08
-2.27652e-16
-9.38895e-06
1.45254e-15
1.76174e-11
1.71856e-14
3.39551e-14
3.33627e-14
1.19392e-15
2.65931e-15
1.1097e-12
1.43725e-11
4.40253e-15
-7.87115e-15
-4.37467e-13
-2.57244e-14
-3.10796e-15
3.15421e-13
2.1912e-14
4.19483e-14
-9.67489e-07
3.00627e-07
-3.27598e-14
2.63267e-14
-2.05905e-14
-2.52277e-14
-4.36364e-16
-1.81862e-15
-3.8127e-15
-4.22326e-14
0.00065892
-3.28864e-13
4.61731e-15
-7.24196e-13
-5.61671e-15
4.30873e-14
1.04418e-09
4.62455e-14
3.24138e-14
-2.62375e-10
2.2853e-14
-4.44502e-12
2.14397e-12
-0.0300234
-1.1369e-06
1.08614e-11
-2.22216e-08
5.13228e-15
4.14922e-14
-2.81474e-17
-7.9388e-10
-2.1165e-12
-2.15148e-08
1.97987e-11
-7.2728e-11
-4.72016e-16
-1.05944e-14
-3.2754e-15
-3.21362e-10
-4.32793e-15
1.50798e-08
2.00873e-10
-2.42099e-07
-1.00499e-13
2.0085e-13
7.2376e-05
9.48427e-07
-6.36591e-14
-4.43252e-14
9.9364e-14
-3.16661e-14
2.63955e-14
-3.23019e-15
6.36335e-06
3.2869e-14
-1.05904e-12
3.20175e-06
-2.48672e-14
-9.97367e-12
1.98747e-14
-3.21887e-06
-1.02044e-09
-2.75844e-15
4.3562e-15
-6.97992e-10
-3.57477e-14
-3.15076e-14
-1.29212e-11
1.43888e-15
3.2548e-11
-6.24235e-15
3.11613e-06
-6.80487e-14
5.1015e-11
7.72295e-12
-9.5151e-12
9.95681e-08
1.53799e-08
-3.08058e-09
1.62115e-15
3.72976e-08
-2.02329e-09
6.26732e-07
3.45514e-07
2.48053e-14
-3.13058e-12
-1.63806e-14
-9.03306e-12
1.67768e-11
4.3185e-05
6.80404e-11
-1.41661e-12
-2.48496e-14
1.96068e-14
-2.67687e-14
2.59902e-14
-1.33269e-10
-1.97339e-07
3.05725e-09
3.29179e-07
8.0749e-11
-6.39563e-13
-6.38635e-15
4.63799e-14
1.4414e-12
2.9359e-12
4.52818e-08
1.12475e-07
8.59527e-11
7.48001e-16
6.80126e-15
-4.59823e-08
-7.35025e-12
-6.62455e-15
-8.65876e-15
9.52203e-11
9.82956e-16
3.22588e-14
3.17569e-14
1.1163e-09
-3.09516e-11
-2.16746e-15
-2.74499e-14
7.77127e-07
-6.1999e-12
-7.3348e-15
4.68917e-15
3.57744e-14
-1.85164e-07
-2.25898e-14
-5.14191e-12
8.52978e-15
2.10605e-15
1.12854e-09
-1.38e-15
6.25653e-15
4.24716e-14
8.77681e-12
-7.10682e-16
-2.87166e-08
-3.05066e-14
-4.02017e-11
-5.02561e-16
-2.82727e-10
6.74224e-14
1.02878e-05
2.31152e-10
-5.22519e-10
-3.54565e-10
-3.80794e-15
2.90615e-15
6.05193e-15
1.43078e-11
-1.48497e-09
-4.61367e-10
1.23676e-15
7.61792e-15
2.38172e-13
-5.61813e-10
3.69525e-13
2.07459e-15
-1.00583e-10
7.50106e-15
-2.76552e-10
-5.36742e-15
-3.39378e-14
1.07978e-14
2.52806e-14
4.18431e-13
3.26122e-14
9.76646e-15
4.47416e-13
-1.04187e-10
1.50208e-12
2.66816e-15
-2.77149e-12
2.47588e-14
4.78048e-15
5.02238e-15
1.8732e-12
3.87125e-15
-1.53995e-05
9.62153e-15
-4.36092e-11
-1.55049e-14
1.16457e-08
2.26606e-08
1.57541e-14
3.16773e-16
-9.7325e-10
-2.70757e-14
-3.99319e-06
-1.17983e-14
-3.37968e-15
4.03252e-15
-9.13979e-14
-2.52316e-14
-8.58664e-15
-1.26179e-08
-4.90927e-12
-2.09522e-06
3.04472e-14
-2.05713e-14
2.37879e-06
-3.92364e-15
3.64722e-14
-1.11541e-14
1.46667e-10
3.76099e-11
-7.26991e-15
-1.14534e-15
-6.45484e-12
-4.13401e-08
3.4427e-07
-4.74217e-07
3.51755e-14
3.65106e-14
-1.33016e-15
-7.398e-11
-1.98204e-10
1.72313e-14
1.5755e-07
-4.44669e-12
-1.79008e-15
-1.69196e-10
3.07637e-11
-2.91369e-14
-9.76516e-09
1.81727e-15
-7.11867e-12
1.98264e-10
-2.23533e-14
1.51269e-10
-2.05221e-14
9.71322e-11
-2.76328e-09
-3.41951e-14
2.66955e-10
1.12282e-14
-3.11303e-10
1.56938e-07
-2.29754e-14
5.85428e-06
-7.6018e-14
-5.77511e-15
3.34215e-14
1.38846e-14
1.24034e-14
-3.8162e-15
2.15008e-14
-5.91055e-15
4.86981e-14
-7.18643e-14
7.7763e-15
-3.67314e-14
-5.85008e-15
4.66494e-06
8.94268e-08
-1.2201e-06
-1.03704e-14
-1.65537e-14
-2.74847e-14
7.66229e-09
1.32075e-09
1.81028e-07
4.3344e-16
3.85289e-14
3.51286e-14
3.55455e-15
3.38316e-14
-7.66207e-09
-3.84722e-10
2.42492e-14
-1.18963e-11
4.12051e-10
5.12636e-13
-7.52933e-07
-1.14638e-06
-3.49475e-14
-1.18247e-12
1.04172e-10
1.73632e-08
6.72214e-16
-1.13121e-11
-3.97504e-14
2.85239e-14
-8.68206e-07
5.5549e-09
2.19163e-06
-3.29956e-14
-7.40283e-09
3.37673e-13
1.53594e-07
-2.90767e-07
7.21236e-09
1.81241e-15
2.53369e-08
-2.09079e-10
1.20923e-09
1.98668e-13
1.81297e-14
1.62356e-15
1.1227e-08
5.46539e-15
-4.75811e-15
8.67908e-12
-6.43911e-06
-7.99381e-08
-2.57006e-16
3.6979e-14
2.05106e-14
2.8098e-14
-1.53744e-07
-3.54985e-14
4.88428e-08
-1.36187e-14
2.40633e-08
3.26947e-15
-1.04637e-14
5.21353e-13
9.02694e-10
1.51845e-15
-9.77775e-08
-4.25817e-15
-1.41696e-05
-1.90689e-14
2.85711e-15
6.45004e-15
-3.25924e-14
3.66184e-12
7.88333e-09
3.20659e-09
-7.44557e-13
-4.04615e-11
-1.3572e-09
5.68338e-15
1.57686e-09
-3.45064e-07
6.0557e-13
9.55936e-09
-1.39454e-06
-4.37073e-06
-1.26903e-08
-3.18366e-14
-1.63674e-09
1.17918e-13
2.75099e-14
-3.82864e-15
-4.93289e-15
9.31492e-15
-1.79761e-09
6.16337e-15
-4.2505e-14
-2.7635e-15
-4.98802e-15
1.38507e-15
-1.22091e-10
7.924e-05
-9.55072e-14
2.25932e-05
-3.14909e-12
-1.03954e-10
-1.07314e-08
3.3116e-10
5.86477e-09
5.94022e-11
-2.40332e-13
-6.3672e-15
4.225e-16
3.82809e-14
3.50234e-13
7.77893e-06
-3.41662e-15
-3.98522e-15
-1.25044e-13
-6.08933e-09
1.0461e-15
5.83709e-05
-8.61862e-15
7.85487e-10
2.02872e-12
2.00631e-08
-3.74742e-09
-3.25199e-14
1.0984e-14
-3.87431e-15
1.83734e-15
1.18916e-14
2.24159e-09
-3.75377e-14
-3.3402e-14
-8.00691e-11
2.52365e-15
-2.06732e-15
-4.44075e-15
-8.67665e-09
-2.51775e-14
4.93726e-15
-1.18781e-15
5.95677e-09
9.23171e-09
-4.66881e-16
-6.886e-15
2.90192e-15
5.76733e-15
-4.33547e-13
2.12094e-10
-3.51389e-13
2.34937e-11
-3.3528e-14
2.51752e-15
3.02217e-08
-3.32684e-10
-3.76665e-14
-2.32845e-14
4.23298e-14
3.40543e-14
6.27787e-10
2.79727e-08
2.69101e-14
-3.34013e-09
-3.9721e-14
1.16764e-14
-1.77819e-10
-2.80707e-12
4.92674e-06
-1.99675e-08
4.82784e-15
-1.93474e-11
6.29688e-11
9.64454e-06
3.13455e-14
1.26268e-11
-4.76883e-15
1.11091e-14
-7.27019e-10
-7.46002e-15
-9.8791e-09
-4.41928e-11
-5.59437e-12
-2.70663e-07
-4.42508e-10
1.73749e-14
0.0015319
-2.32543e-11
-8.07588e-11
3.19669e-14
-3.13589e-14
6.6509e-14
3.07665e-14
3.00181e-06
1.29748e-14
-2.87373e-14
4.96906e-14
2.5887e-13
-3.91984e-15
-2.60082e-14
-3.49905e-14
-6.15617e-15
6.67415e-09
-2.45996e-10
-5.03032e-15
2.52173e-09
-2.91765e-08
-1.04146e-14
-4.09362e-14
9.25178e-12
-2.17763e-15
-1.16963e-12
6.41314e-15
4.55359e-15
0.000127069
1.17764e-05
-3.28469e-14
2.34695e-14
1.97848e-16
7.33057e-15
3.60458e-10
1.04592e-15
-5.04431e-11
-5.2124e-13
8.73957e-14
4.44757e-08
2.21184e-06
1.01908e-06
1.19642e-08
-7.00133e-14
-1.63517e-15
-1.42676e-07
1.19391e-15
-1.54527e-10
-3.29565e-08
-1.68855e-14
1.72923e-15
-1.20002e-14
-1.52106e-08
4.89121e-12
5.43553e-12
-2.91052e-13
9.68632e-08
-3.23589e-10
5.09828e-15
-1.10659e-08
5.55928e-13
-2.88642e-15
3.07245e-15
3.13567e-12
-4.72029e-12
7.29437e-10
-3.64143e-07
6.47722e-07
7.9664e-13
4.31774e-15
1.84401e-14
2.93522e-06
1.42703e-09
1.10872e-15
-5.33312e-13
-3.69436e-09
-8.16447e-12
2.46205e-14
-4.18717e-14
-9.85297e-10
-8.434e-15
2.59232e-15
-9.2651e-12
2.20554e-14
7.29589e-11
-0.000159965
4.10693e-14
-3.62925e-09
-1.54534e-14
-1.04184e-15
5.06595e-15
-7.97662e-07
1.1577e-08
-1.05595e-15
1.00833e-15
-1.93992e-14
1.56512e-16
3.98346e-15
6.64423e-11
-4.61598e-15
1.21536e-10
1.20436e-10
0.000111787
-6.82132e-14
-4.31187e-14
-4.44353e-10
4.24532e-14
-1.0168e-14
-1.35866e-15
-1.15039e-07
-7.45464e-06
-3.51256e-14
-1.97528e-11
-1.20364e-06
-2.6958e-15
1.45967e-07
2.63109e-14
4.88376e-13
-2.52454e-08
-1.80682e-06
3.55927e-10
2.9754e-15
1.14521e-15
-1.63464e-13
0.000123859
-3.63926e-15
4.79463e-11
-1.9466e-13
2.15671e-08
-1.16036e-11
-5.07707e-15
3.96342e-16
-2.44763e-14
-7.52575e-08
1.09386e-16
-2.19728e-14
-1.05237e-13
-8.17919e-14
-3.15068e-15
5.23557e-10
-4.87433e-16
-3.97086e-15
7.7951e-16
-5.02029e-16
3.33848e-14
1.08686e-15
-4.6736e-15
2.39147e-11
2.4367e-10
1.77677e-13
4.10403e-15
-7.88989e-11
-2.87105e-14
-1.98048e-14
3.83599e-14
-4.42899e-16
2.12119e-15
2.22849e-10
2.10534e-05
-3.24492e-15
-1.96109e-14
2.48404e-10
1.20537e-09
4.49125e-08
-2.47713e-07
4.59735e-09
8.98813e-14
1.76777e-08
6.09086e-12
3.19755e-15
-2.56862e-08
3.73228e-12
1.67498e-12
8.63243e-15
1.93546e-14
-3.0466e-14
4.47733e-11
-1.09471e-07
-1.24772e-06
-3.75518e-11
2.62036e-11
-5.39115e-14
-2.6149e-14
7.59613e-13
2.40844e-15
3.9468e-17
3.72537e-14
3.18591e-14
-4.64588e-07
-4.13054e-15
-1.65169e-14
1.08775e-11
-1.99536e-08
7.60324e-09
-5.75893e-15
-8.82676e-15
-7.85204e-08
3.72336e-09
1.58388e-08
-2.50779e-10
-5.97453e-10
3.02356e-16
-4.28141e-14
-4.78895e-15
-2.52166e-06
-1.15155e-06
1.27346e-14
-8.05421e-14
3.32278e-14
0.000150163
1.71099e-06
3.05407e-14
2.46954e-15
1.02658e-14
-5.74924e-16
3.08117e-14
-1.31587e-14
-8.50069e-14
0.000155517
1.44585e-07
-3.23577e-08
-2.71245e-12
-3.33112e-14
6.18604e-15
-9.81245e-09
-2.01462e-14
-1.81324e-15
1.26102e-07
4.01286e-14
1.37242e-09
1.37834e-10
3.5089e-14
-9.264e-16
2.94859e-05
-8.27139e-15
3.5447e-14
4.68281e-12
-1.3475e-10
-3.25972e-09
2.43556e-06
-2.81069e-14
3.72039e-09
-7.04091e-13
-8.66141e-08
4.32209e-09
-3.87381e-14
-2.23221e-07
-1.89512e-06
1.95186e-14
-0.000159394
3.55732e-06
-1.02345e-13
-2.4999e-15
4.92201e-08
-5.02143e-16
-7.99155e-15
9.59979e-07
3.92753e-15
1.50076e-09
1.34413e-14
-3.59283e-14
9.62935e-15
1.32783e-05
2.85184e-10
1.14335e-05
-1.02639e-08
-7.02795e-15
4.16273e-12
3.94344e-16
5.4033e-15
-4.09053e-15
1.55899e-14
1.48946e-15
1.48912e-15
-2.4728e-16
9.57936e-07
-8.47047e-09
-5.68476e-08
3.23707e-15
3.27246e-15
-2.65195e-15
-2.12712e-07
-3.18027e-06
-5.74832e-06
-4.4136e-15
1.95872e-15
6.17891e-09
6.00155e-08
-1.13854e-08
-2.12087e-13
-9.55116e-12
5.82889e-15
-1.34972e-15
3.41132e-10
-1.92082e-09
-1.15634e-10
6.4909e-05
-7.14192e-05
5.51856e-07
-1.17563e-08
-3.97396e-15
3.07668e-14
-2.9684e-14
-1.22028e-14
-4.00323e-14
-3.02977e-15
1.68311e-11
3.178e-13
3.02697e-14
4.34415e-08
-9.61168e-14
2.87778e-14
-0.000108163
-1.27752e-09
-6.29019e-08
-1.55667e-09
3.53273e-15
-3.0111e-14
2.85313e-08
-7.36825e-16
2.24528e-10
-3.31611e-14
-4.23791e-14
3.64929e-14
-6.3276e-15
1.96426e-11
1.13164e-14
-3.50652e-14
2.73203e-14
1.90511e-14
2.17563e-09
3.83574e-14
-4.88868e-06
5.94099e-12
3.77979e-14
1.23238e-15
4.19823e-14
3.0375e-09
-1.75946e-06
-2.27892e-09
-9.96746e-06
3.41697e-15
-2.68609e-14
-1.62258e-14
2.22668e-08
9.34624e-14
-4.34973e-15
4.76496e-10
-4.48663e-13
3.20929e-11
-3.8519e-14
2.15574e-14
-5.78308e-06
8.86308e-15
7.1753e-16
6.64264e-15
2.19131e-06
9.07606e-14
2.49479e-15
-1.97935e-14
1.39977e-06
-3.26914e-14
5.29639e-16
2.03517e-10
-2.07641e-07
-1.4336e-07
-1.30694e-15
1.0954e-07
-1.04884e-14
-1.64897e-15
0.000915239
-4.68747e-07
-2.94089e-15
1.7515e-14
9.94204e-08
1.3706e-09
2.89286e-10
1.84448e-06
2.43078e-15
-5.11679e-15
1.13224e-14
-5.50022e-15
7.23842e-11
3.45123e-14
6.15115e-07
-1.17147e-14
4.37487e-14
-1.74719e-15
-2.79964e-08
3.91737e-13
-2.25084e-15
2.67413e-06
-1.37967e-11
-1.03914e-10
-1.56309e-12
-8.46304e-12
-1.94558e-15
-1.50354e-08
3.44187e-14
6.78536e-15
-1.26606e-15
6.11932e-16
1.10992e-05
5.96404e-15
9.39062e-05
2.76549e-11
1.15934e-14
-7.29277e-06
2.58245e-14
-3.48132e-14
2.02716e-14
-1.44184e-08
-2.09567e-14
3.45647e-14
-8.06256e-15
4.24721e-10
-4.26086e-06
4.78142e-10
4.32912e-16
-5.22028e-06
-1.01857e-11
-3.56745e-14
2.16457e-14
2.67527e-14
-5.74807e-13
1.24366e-09
-8.37274e-16
1.02905e-07
5.48097e-09
-1.4327e-15
3.28987e-14
-1.62542e-14
1.90063e-11
-5.05394e-12
-4.93344e-10
1.27715e-14
7.68809e-08
-3.06275e-11
4.73318e-15
-5.1057e-15
1.09386e-07
1.02267e-08
-1.72175e-15
1.90965e-14
2.96543e-14
1.6952e-14
3.10467e-14
1.41451e-14
4.20473e-07
-1.59758e-07
4.07792e-12
-2.80395e-14
-9.6143e-06
-6.09607e-07
-2.20023e-08
7.49645e-08
1.67016e-14
-5.00214e-06
8.42286e-15
-1.66134e-16
1.73822e-15
-3.8958e-14
3.56131e-16
1.34228e-06
2.9774e-15
-2.18915e-11
-4.25556e-13
8.58498e-08
-3.7748e-11
-3.46644e-09
-2.37932e-05
-6.47921e-07
-3.01727e-14
2.47066e-14
3.87574e-17
-4.43236e-06
3.66174e-09
1.41319e-14
-1.34519e-10
-6.0183e-15
3.80997e-11
-2.02688e-15
-2.94253e-10
2.93544e-10
-1.90517e-14
-5.08704e-15
2.95541e-15
2.43503e-14
6.90943e-15
-5.40117e-15
1.39208e-14
2.66581e-07
5.29119e-15
3.51621e-05
-3.70594e-14
1.04179e-14
-8.86057e-15
-5.34246e-16
3.21378e-12
3.06901e-14
-3.80075e-14
-3.11844e-14
5.12922e-15
-1.48858e-13
3.46617e-14
1.59485e-14
-3.68089e-14
3.93191e-14
-3.79082e-14
-3.94593e-08
3.81817e-11
-3.38981e-13
3.99321e-15
0.119913
3.2997e-14
-2.77445e-14
2.24191e-11
1.9061e-14
-9.57364e-11
-8.03271e-08
2.72873e-14
1.49908e-09
6.47647e-15
-2.82333e-07
4.75142e-14
2.72699e-06
-3.31871e-09
-9.11092e-11
1.21421e-07
2.84289e-07
1.1467e-05
-2.31504e-11
-1.80452e-12
-1.59518e-07
3.79529e-14
-1.05718e-05
-1.34265e-11
-5.34433e-10
-2.45007e-15
-3.52729e-17
-4.19722e-14
-3.70057e-08
-5.36292e-07
2.41249e-14
-2.11145e-08
8.36205e-16
8.09064e-14
-1.24405e-12
3.35862e-14
5.40092e-15
7.62135e-15
7.98385e-08
-8.98676e-15
5.46778e-08
-4.59203e-15
4.24024e-13
-5.72478e-08
3.0848e-10
3.41972e-14
1.86458e-15
7.03876e-15
1.15692e-15
3.51798e-14
-1.31803e-07
-6.40333e-08
-2.90499e-12
3.44645e-12
-1.95226e-16
-1.11199e-07
-4.61871e-08
-1.48798e-15
1.79672e-11
7.30513e-13
2.82668e-16
0.000389777
-1.83309e-15
3.12471e-14
3.43897e-14
-6.50939e-06
-2.65357e-07
7.80842e-14
5.69281e-13
1.50803e-15
-1.70469e-15
1.53443e-11
-1.11208e-10
-2.90902e-10
-8.37923e-14
1.9968e-14
-2.3801e-15
-3.93653e-14
-1.85546e-15
2.7355e-14
-5.4504e-07
-2.54044e-10
1.99134e-08
2.19584e-14
-2.94698e-14
2.86299e-14
-9.90988e-10
2.55747e-06
9.18831e-10
3.03135e-14
1.12337e-11
-2.11757e-08
3.88644e-15
1.565e-08
-2.99918e-14
4.9405e-12
-9.8765e-16
-8.88901e-15
-1.42569e-07
-2.66124e-14
5.924e-13
1.38134e-08
-8.75827e-16
-4.17855e-10
1.61831e-13
-8.80601e-16
-1.68116e-07
-7.20291e-12
-2.55083e-14
2.48867e-09
1.49327e-10
-3.25768e-08
-1.01469e-09
1.97343e-12
8.11133e-08
7.69089e-10
-4.29735e-09
6.18364e-08
4.7721e-12
-5.66649e-10
7.68289e-15
1.84876e-12
3.92269e-15
6.5023e-14
-1.29089e-11
-2.08495e-10
1.09011e-14
-2.81262e-10
-4.32976e-15
-3.30829e-15
1.5254e-15
9.24393e-08
4.67566e-14
-2.69284e-13
-3.85245e-14
4.10595e-11
3.96445e-06
-8.59776e-11
2.43556e-14
8.30917e-10
1.51889e-14
2.19801e-15
-3.96059e-16
1.81851e-13
2.45055e-16
4.28569e-15
-3.34614e-10
3.42118e-14
-1.93478e-14
1.88923e-12
-3.5268e-14
-2.80259e-15
4.1709e-14
1.35865e-10
-2.55112e-14
-5.68127e-16
-1.34845e-14
-5.56781e-11
-1.17601e-14
-1.8859e-14
2.74858e-12
-9.25599e-15
-3.04792e-16
2.73484e-15
-1.60589e-10
5.333e-10
-1.07087e-08
2.2274e-14
2.32298e-13
-3.16868e-14
-7.43413e-14
1.48492e-09
-1.39998e-15
3.1948e-14
-3.90921e-15
6.61919e-07
1.85385e-14
-2.52368e-09
2.21356e-08
-4.3575e-15
-1.4232e-14
8.19305e-08
-2.85028e-15
-1.57518e-14
-8.96712e-14
1.92009e-06
6.18664e-15
2.43287e-08
-7.45e-08
-1.26341e-14
3.75142e-14
-7.0601e-15
3.64966e-14
-5.5057e-05
-1.90462e-09
-3.77938e-14
-2.64062e-07
2.58379e-07
-5.8653e-15
7.11725e-15
-1.53599e-14
4.15151e-14
6.72759e-08
1.58615e-09
2.34714e-14
5.3154e-06
6.71309e-08
-5.24229e-10
2.06382e-09
-1.28855e-07
-2.21732e-15
-8.96354e-11
-5.13666e-15
-3.90146e-12
-2.6753e-15
-1.98177e-07
-3.28149e-14
1.11588e-13
1.19529e-07
1.28245e-06
-5.50188e-15
4.7749e-14
-3.6122e-15
9.7736e-07
-1.2088e-06
3.18954e-14
2.71516e-14
1.22409e-11
5.47433e-06
-1.90716e-14
2.78493e-14
-3.98044e-16
2.44645e-15
-6.63968e-11
1.94949e-14
-2.05994e-14
-9.89756e-10
3.89823e-12
-3.07487e-08
3.51029e-14
4.06287e-14
2.82468e-15
-6.33468e-13
-6.48573e-11
-4.81926e-14
-3.25876e-14
-2.21746e-12
1.52945e-05
2.59678e-14
3.57346e-09
2.94649e-09
2.38281e-15
1.44501e-14
-4.90512e-15
8.70451e-15
1.11129e-07
2.3862e-14
-3.88133e-05
2.62999e-15
1.17652e-14
1.78312e-15
-8.77299e-07
-3.67418e-15
-8.33114e-15
5.71753e-14
-1.21645e-13
8.29171e-06
-7.57983e-16
-2.38217e-14
7.25321e-14
-6.80089e-12
1.02015e-13
2.45314e-06
3.37925e-14
-1.81571e-06
2.94844e-15
1.55136e-09
2.59499e-06
1.0592e-08
-7.6026e-11
4.79174e-14
5.03759e-15
6.40732e-15
-1.90817e-12
1.11284e-13
-2.22579e-14
4.2597e-14
2.805e-15
6.15536e-10
7.08136e-11
2.61798e-06
6.844e-12
-3.07277e-09
8.56532e-15
-1.80576e-14
-4.24966e-10
3.5763e-14
3.51143e-05
7.89014e-16
-2.59052e-09
-7.30213e-09
-1.09758e-14
-1.04306e-10
-8.13192e-12
-3.11748e-12
-3.33024e-14
-6.45901e-15
-2.28344e-14
2.36632e-15
8.5132e-16
2.53227e-14
3.33463e-14
8.42485e-15
-9.82644e-16
-3.07077e-14
-7.46947e-09
-6.86157e-15
1.40394e-14
1.31529e-14
-2.06122e-14
4.46737e-06
5.97317e-15
-2.42099e-07
-4.118e-14
-2.49641e-13
-3.29184e-14
4.67613e-15
2.48521e-15
-9.6079e-15
1.49254e-08
-6.05613e-15
-4.23726e-15
2.15174e-14
-2.56505e-15
-5.29814e-15
2.054e-05
-6.54828e-17
-2.71237e-14
5.35264e-15
2.34728e-15
-2.90569e-14
-9.88363e-09
-5.84915e-12
7.30488e-06
1.12128e-14
4.41267e-08
9.81087e-15
-8.04259e-06
-1.63669e-08
-8.96512e-13
5.38982e-10
5.48329e-12
9.28935e-15
2.77775e-14
-5.20628e-15
3.63251e-14
-7.99848e-06
-3.07531e-14
2.90753e-14
-2.97233e-09
-3.77721e-10
1.60623e-10
6.91247e-12
-2.62679e-05
-4.90903e-08
4.95007e-13
-1.67243e-11
-1.4342e-14
-3.25261e-14
5.01897e-08
-5.77141e-13
2.11206e-11
-2.03502e-15
-3.18373e-05
-5.3915e-11
3.55895e-09
-1.71114e-11
1.01462e-14
3.24102e-15
3.16328e-11
1.94455e-13
4.33415e-14
-1.17128e-11
2.43592e-08
-1.05918e-14
-3.56167e-15
2.11294e-10
-3.42411e-09
1.13549e-14
1.35855e-14
3.39322e-14
-5.40898e-15
2.49363e-08
1.06412e-08
-1.16058e-07
-7.39552e-15
-1.55253e-14
-0.000133348
4.4944e-15
-1.61411e-14
-3.11514e-14
2.29136e-14
-4.10296e-09
-4.67719e-15
-6.60812e-07
-1.78803e-13
-2.68427e-15
-3.3237e-15
-2.47384e-15
2.87331e-15
-2.00873e-10
2.20178e-09
-1.48592e-12
7.3274e-15
-3.27732e-14
1.66941e-14
2.69081e-15
5.50751e-15
3.58808e-15
8.8821e-08
3.34895e-14
6.95212e-15
-3.54441e-14
6.70589e-12
-1.09555e-11
-7.7415e-12
-2.34294e-13
-2.95951e-14
1.83385e-14
3.8498e-14
2.91036e-08
4.08401e-06
6.46746e-15
-3.57822e-06
-3.13625e-14
-6.05216e-15
-4.48631e-08
-5.75931e-08
-6.52655e-15
-1.55462e-07
-3.99279e-15
-3.42622e-08
-1.09744e-14
-1.65255e-14
1.0842e-11
-3.22669e-10
1.09121e-14
2.64327e-15
-3.16363e-14
9.04813e-07
-6.87751e-06
-9.02727e-15
7.2359e-08
-3.07081e-14
6.04286e-06
1.24382e-14
-9.86671e-16
5.53094e-12
-7.48968e-06
5.15756e-14
3.36191e-14
1.14961e-09
4.81536e-16
7.08915e-16
2.76632e-06
1.59744e-10
3.36956e-06
-1.67761e-06
-1.77784e-14
1.09496e-12
1.80526e-15
-1.29438e-08
7.84909e-12
-5.05645e-15
5.47947e-16
-4.65396e-14
8.37265e-07
-1.71963e-06
-1.59711e-08
3.24584e-11
-2.80286e-14
1.09201e-15
-2.98414e-13
1.6438e-14
5.36282e-15
-2.02308e-10
2.0858e-07
-1.12767e-10
4.0549e-06
-3.73344e-14
-3.69706e-14
-2.25338e-15
-2.70483e-06
1.22879e-15
-2.57746e-14
-5.79623e-14
-1.67586e-14
-5.61744e-15
-3.41367e-14
3.49364e-15
-0.000174224
-4.31735e-15
-8.84624e-16
-1.38523e-14
6.23728e-12
-1.14674e-10
-5.08974e-05
-8.4697e-13
5.57195e-15
-5.55928e-13
1.12664e-08
-5.17486e-16
1.20519e-15
3.22876e-09
-1.40361e-14
-1.62315e-09
-2.66178e-15
5.10967e-16
-1.00296e-13
2.52836e-15
-3.77631e-08
-6.42115e-09
5.88996e-12
-6.89919e-15
-4.07685e-15
2.03415e-14
-3.74479e-14
3.21387e-11
-2.08241e-15
-1.83598e-15
6.48605e-15
8.82912e-10
1.17206e-15
-5.51202e-15
-3.09746e-15
-2.88931e-14
-3.28364e-14
-2.29528e-15
-6.46594e-15
-1.50123e-06
6.08582e-10
-3.94859e-14
-2.41273e-15
-5.58036e-14
-6.35671e-15
-1.31378e-11
-2.03121e-08
1.47589e-12
-3.06769e-05
1.10002e-15
7.50704e-09
-2.86867e-16
-5.51156e-06
-2.18207e-15
-9.19717e-13
-2.48726e-12
-2.59992e-14
3.31189e-10
4.94772e-15
-1.83792e-14
-1.86585e-10
-1.43329e-14
3.53503e-15
-1.13818e-06
-1.28306e-06