/*--------------------------------*- C++ -*----------------------------------*\
| =========                 |                                                 |
| \\      /  F ield         | OpenFOAM: The Open Source CFD Toolbox           |
|  \\    /   O peration     | Version:  v2012                                 |
|   \\  /    A nd           | Website:  www.openfoam.com                      |
|    \\/     M anipulation  |                                                 |
\*---------------------------------------------------------------------------*/
FoamFile
{
    version     2.0;
    format      ascii;
    class       surfaceScalarField;
    location    "200";
    object      phi;
}
// * * * * * * * * * * * * * * * * * * * * * * * * * * * * * * * * * * * * * //

dimensions      [0 3 -1 0 0 0 0];
oriented        oriented;


internalField   nonuniform List<scalar> 
27284
(
-0.154918
-0.0198406
0.174759
-0.130391
-0.337828
0.468219
-0.10177
0.120982
-0.0192117
0.450374
-0.0638628
-0.386511
-0.528911
0.324311
0.2046
0.357048
-0.334965
-0.0220829
-0.398583
0.064504
0.334079
-0.262462
-0.26645
0.356807
0.110995
-0.467802
-0.300006
-0.10778
0.407786
0.0792339
-0.272729
0.193495
0.0323221
-0.110296
0.0779744
0.101197
-0.0688748
0.336696
-0.30314
-0.0335564
-0.194732
-0.270251
0.464983
-0.444725
-0.0334977
0.478223
0.0318578
0.418516
-0.322999
0.140884
0.182115
-0.12501
0.127064
-0.00205338
0.410379
-0.408639
-0.00174008
0.225386
-0.0591827
-0.166203
-0.337246
0.200602
0.136643
-0.530264
0.0592285
0.471035
0.331941
0.025107
-0.461689
-0.0685744
-0.306546
-0.0996768
0.406222
0.453193
-0.329361
-0.123832
0.262846
-0.451136
0.18829
-0.0622152
0.419022
0.081334
-0.243858
0.162524
0.360368
-0.253049
-0.107319
0.236104
-0.0806864
-0.155418
0.317797
-0.472429
0.154632
-0.371954
0.552336
-0.180383
0.479539
-0.49341
0.0138711
0.291425
0.0106888
-0.302114
0.184061
-0.15577
-0.0282915
0.356058
-0.0646327
0.230946
-0.149612
-0.171629
-0.131452
0.303081
-0.468902
0.480287
-0.0113842
-0.164624
0.506311
-0.347661
-0.15865
-0.323196
-0.126811
0.450007
-0.453587
0.088657
-0.0116391
-0.0770178
0.245682
-0.444584
0.198902
0.441156
-0.195474
0.228781
-0.292477
0.430884
-0.138407
0.012623
-0.395365
0.382742
0.210382
-0.0310333
-0.179348
0.135711
-0.428188
0.173691
-0.0729591
-0.100732
0.0976594
-0.385449
0.28779
0.408393
0.00198558
0.014387
-0.40227
0.387883
-0.123248
0.017356
-0.323902
-0.0439616
0.0855715
-0.0416099
0.134358
0.146926
-0.1232
-0.0237265
0.0208752
0.152816
0.147602
-0.442161
0.294559
0.296589
-0.13105
-0.165539
-0.155475
-0.313753
0.469228
0.294373
-0.199953
-0.0944199
0.170242
0.0138198
-0.345683
0.525654
-0.179971
-0.012127
-0.30605
0.318177
0.311017
0.103329
-0.414347
0.316122
-0.218463
-0.268486
0.124319
0.144167
0.126939
-0.311263
0.184324
0.529804
-0.234793
-0.295011
-0.382794
0.507225
-0.124431
0.0876865
-0.210934
-0.554367
0.171573
-0.117206
0.428223
0.32304
0.206764
0.14931
0.145064
0.410744
0.00183365
-0.412578
0.161543
0.128967
-0.24262
0.113654
-0.012551
-0.136351
0.148902
0.43555
-0.485702
0.0501524
0.0472477
-0.442391
0.395143
0.199065
-0.055187
-0.143878
-0.345221
0.478898
-0.133677
0.126922
0.0721421
0.361025
-0.177824
0.0850777
0.153872
-0.238949
0.399593
0.0111507
0.289325
0.141559
0.0661038
-0.368155
0.302051
-0.141978
0.450956
-0.308978
0.164455
-0.464535
0.30008
-0.459417
0.317439
-0.194685
0.0711257
0.123559
0.183438
-0.29915
0.115712
0.13986
-0.152411
0.32333
-0.440536
0.431799
-0.142474
0.403057
0.0694766
-0.472534
-0.259538
0.127718
0.13182
0.099077
-0.543802
0.149582
0.147007
0.360944
-0.29484
-0.0153485
0.153127
-0.137779
-0.622808
0.225508
0.397301
-0.366154
0.380541
0.45925
0.00685741
-0.466107
0.334522
-0.138274
-0.196248
0.253102
-0.124135
0.0790898
0.00139258
-0.0804824
0.0890843
-0.238501
0.149416
-0.0962205
0.41955
0.535272
-0.212231
-0.27995
0.128058
0.151892
-0.0440845
-0.155869
0.298591
-0.310718
-0.100726
-0.00104472
0.235741
-0.0542258
0.198127
-0.143901
0.288461
0.24681
-0.070539
-0.0238146
0.0943536
0.0546106
0.478332
-0.446474
-0.00862203
-0.146296
-0.124782
-0.141882
0.266664
0.451523
-0.287068
0.0612112
0.149171
0.121537
0.221373
-0.34291
-0.000138426
-0.101983
0.102121
0.207135
-0.0824375
-0.124697
0.302316
-0.4775
0.175185
-0.0329825
-0.092028
0.323483
-0.348549
0.0250656
0.378699
-0.524655
0.145956
-0.168027
0.253105
0.230469
-0.121742
-0.108727
-0.496915
0.32182
0.175094
-0.324381
-0.110949
0.43533
-0.133388
0.11464
0.138927
0.0682079
-0.0438216
-0.280682
0.324503
-0.07351
0.0771114
-0.00360135
0.130193
-0.486765
0.356572
0.184169
0.150353
0.363455
0.034311
-0.397766
-0.196674
0.45952
-0.190354
0.14627
0.152087
-0.451521
0.299434
0.470199
-0.332022
-0.138177
0.126836
-0.474498
-0.00715389
0.34479
-0.337636
0.479775
-0.00144265
0.404571
0.0309795
-0.343253
0.0188722
-0.409417
0.402263
-0.134321
0.308374
-0.174053
0.320356
-0.198819
-0.296621
-0.326187
0.437878
-0.31522
-0.122657
-0.136975
0.309121
-0.172146
0.303015
0.0796377
-0.382653
-0.0813051
0.00779504
-0.173582
0.00810082
0.165481
0.167717
-0.203568
0.0358514
0.0889009
0.141568
0.522853
-0.497835
-0.0250183
-0.122288
0.12215
0.529699
-0.51656
-0.0131384
0.384298
-0.155517
-0.468876
0.470956
-0.00207941
-0.402031
0.35821
0.39672
0.0625302
-0.332046
0.454441
-0.122395
-0.0137612
-0.177642
0.191403
0.283095
-0.184794
-0.0983017
-0.478069
0.463454
0.014615
-0.120596
0.423611
-0.193617
0.311918
-0.118301
0.482768
-0.225806
-0.256962
0.136484
0.296507
-0.432991
0.262955
0.168844
-0.521031
0.347042
0.173988
-0.210925
0.0830745
0.12785
0.165212
-0.414877
0.249665
0.138234
-0.467596
-0.0922142
0.0216752
-0.100107
-0.0945777
0.131655
0.320623
-0.452277
0.345779
-0.534432
0.188654
0.455397
-0.0106767
-0.444721
-0.0788444
-0.0272705
0.106115
-0.383782
0.396405
-0.155803
0.037001
0.118802
-0.461084
0.123256
0.0436803
0.293016
0.445074
-0.182118
0.313431
-0.217828
-0.0956032
0.0566654
0.17428
0.370337
-0.517192
0.146855
0.00147243
-0.175054
0.28365
-0.107785
-0.175865
0.250768
-0.0830516
0.314451
0.168317
-0.3261
-0.123939
0.450039
0.147345
-0.44712
0.299775
-0.190504
-0.124659
0.315163
0.326374
0.0189484
-0.345322
-0.146372
0.448382
-0.302011
-0.446327
0.299956
-0.379802
0.509995
0.212721
0.171578
0.18294
0.100156
-0.117728
-0.059002
0.17673
-0.114351
0.275169
-0.160818
-0.153943
0.433861
-0.279918
-0.16699
0.151642
-0.34706
0.516889
-0.169829
-0.157498
0.202529
-0.045031
-0.522226
0.26555
0.256676
-0.214029
-0.133366
0.347395
0.527357
-0.211003
-0.316354
0.503709
-0.367108
-0.1366
0.319511
0.00397185
-0.178524
0.00414586
0.174378
-0.253012
0.120719
0.132293
-0.270005
-0.16999
0.439995
-0.110228
-0.476491
0.325745
0.150746
0.156649
0.325661
0.112216
0.164208
-0.378237
0.0795211
-0.253405
0.173884
-0.0035572
0.207594
-0.0728411
-0.134753
-0.158328
-0.287999
0.0886363
-0.428818
0.340181
0.159086
-0.172847
-0.447997
0.289669
0.13782
-0.283745
0.145924
0.169299
0.159906
-0.397231
0.237325
-0.461649
0.198459
0.26319
-0.00245299
0.328827
0.318299
-0.0509064
-0.267392
-0.180441
-0.23911
0.419551
0.45586
-0.308258
0.337247
0.0989184
0.000753598
-0.099672
-0.299682
-0.222544
0.201989
-0.534036
-0.601867
0.302352
0.299515
0.108551
0.099043
-0.294236
-0.136126
0.430363
0.323702
0.203655
0.44317
-0.301543
-0.141627
-0.108569
0.472024
-0.136775
0.433938
-0.297163
-0.0207992
-0.10321
0.124009
0.007946
0.105629
-0.113575
-0.162436
0.219101
0.402812
-0.269075
-0.133737
-0.493656
0.199694
0.293962
-0.176999
0.143776
0.0332225
0.311666
0.131504
-0.225543
-0.461894
0.199255
0.262639
0.331354
-0.501362
0.170007
0.210635
0.102796
0.0469245
-0.164652
0.453274
-0.310996
-0.142278
0.329744
-0.148851
-0.180893
0.0700716
-0.267507
0.197436
0.458242
-0.155927
-0.00250251
-0.142829
0.145332
-0.0559944
0.298445
0.0622413
-0.285997
0.223756
-0.317227
0.126723
0.0589683
-0.227089
0.16812
-0.149934
0.481289
-0.0138687
-0.183516
0.197384
-0.192922
0.307737
-0.114815
-0.0108401
0.18111
-0.17027
-0.129486
-0.339416
0.1721
0.208664
-0.495576
0.461591
-0.143795
0.188239
-0.0997116
-0.0885277
-0.183992
-0.093312
0.277304
-0.165454
0.460347
-0.294893
-0.268848
-0.224808
-0.471026
0.276295
0.498545
-0.152767
-0.149278
0.146775
0.12448
0.205264
-0.29722
0.181169
-0.0466121
-0.134557
-0.0149367
-0.193804
0.0572503
0.136553
-0.120906
-0.330596
0.13785
0.192746
0.257841
-0.187769
-0.309945
-0.117055
0.427001
-0.144059
0.189258
-0.0451999
-0.131591
0.139537
0.0727949
0.115444
0.491389
-0.352526
-0.138863
-0.10205
0.0590687
0.0429817
-0.0428584
-0.234473
0.277332
0.239643
-0.365096
0.125453
-0.152827
0.00574889
0.147078
0.195258
-0.13629
-0.3418
0.298942
0.182791
0.258366
-0.482111
0.22957
0.252541
0.110183
-0.134108
0.023925
-0.0423315
-0.0597188
-0.0806043
0.0952964
-0.0146922
0.334667
0.156722
-0.205266
0.24722
-0.158153
-0.0890666
-0.450877
0.211497
0.23938
0.15912
0.313892
-0.473012
0.18923
-0.297015
0.125478
0.210063
-0.354317
0.144254
-0.115191
0.371143
0.108396
0.220885
-0.380207
0.159322
-0.494253
0.344536
0.149717
-0.0558008
0.344262
-0.330801
-0.121191
0.451991
-0.324384
0.152755
-0.332156
0.226464
0.105692
0.0448842
-0.118055
0.0731712
0.166386
-0.157874
-0.00851255
-0.143553
-0.140191
0.499218
-0.164551
0.17154
0.139251
-0.310791
0.118521
-0.463742
0.354879
-0.144816
-0.254726
-0.163261
0.417987
-0.457046
0.15704
-0.468729
0.214968
0.25376
0.422869
0.0193696
-0.442238
-0.158205
0.502281
-0.344076
0.310465
-0.197968
-0.112497
-0.468541
0.320625
0.147915
0.0744464
0.0241134
-0.0985598
0.0991388
-0.353865
-0.46432
0.220019
0.244301
-0.186957
0.453973
-0.267015
0.288834
-0.107724
-0.0268864
0.391339
-0.364452
0.149938
0.138896
0.317238
-0.491386
0.174148
0.383618
0.0392512
-0.119946
0.303384
-0.0739254
0.0299638
-0.543703
0.254085
0.289618
0.520154
-0.202916
-0.32075
0.472871
-0.152121
-0.257641
-0.176873
0.434514
-0.320662
-0.161449
0.355666
0.138198
-0.493864
-0.415301
0.192965
0.222336
-0.280094
-0.263608
0.0242516
0.233589
-0.213502
-0.142562
0.356065
0.226038
-0.146517
0.0257588
0.0754381
0.156297
-0.468886
0.312589
-0.25265
-0.349217
0.0335384
-0.177597
0.354414
0.119092
-0.473507
0.0963239
-0.353965
0.399863
-0.077954
-0.321909
-0.203773
0.315934
-0.112161
0.498397
-0.307134
-0.191263
-0.182625
-0.140375
0.424705
0.0214322
-0.446138
0.257958
-0.395233
0.137275
0.405592
0.0498052
-0.133163
-0.100264
0.233427
-0.29591
0.0571168
-0.20499
0.147873
-0.466659
0.311184
-0.23475
-0.0993184
0.309954
-0.455891
0.313211
0.14268
0.168695
-0.0925491
-0.0761461
-0.0884636
0.0712579
0.0172057
0.561247
-0.307163
0.493085
-0.348137
-0.144949
-0.0162416
0.11516
-0.446119
0.169025
0.277094
-0.405384
0.0745832
-0.323298
-0.15604
-0.0216942
-0.105756
0.12745
0.416632
-0.25142
0.221468
-0.197216
-0.269121
0.333625
-0.142957
0.326531
-0.183574
-0.306932
-0.143946
-0.27271
-0.0927954
0.365505
0.170127
-0.00374059
0.155073
-0.140755
-0.0143175
-0.0996415
0.502699
0.0568374
-0.0322995
-0.0245379
-0.105709
-0.19344
0.297689
0.155585
0.0756972
0.149689
0.337064
-0.458255
0.457007
-0.360684
-0.132049
0.433971
-0.301923
0.278758
-0.129176
-0.0256382
0.362702
-0.019222
-0.103066
0.173376
0.235074
-0.40845
-0.004077
-0.120659
0.124736
0.115151
0.213748
-0.328898
-0.0626776
-0.303145
0.365823
-0.107287
-0.148586
-0.131364
-0.309376
0.450852
-0.141476
-0.413966
0.306187
0.29874
-0.435515
0.453539
-0.15585
-0.121406
0.083598
0.0850973
-0.408679
0.346001
0.126015
-0.279405
0.15339
-0.288064
0.14451
0.111972
-0.222975
0.111003
-0.012334
-0.129139
0.141473
0.20795
0.102515
0.056402
-0.366347
-0.12149
-0.0163315
0.137822
0.504658
-0.288833
-0.215825
-0.343684
0.482774
-0.13909
0.315064
-0.502021
-0.406076
-0.0203821
-0.0680815
0.486785
-0.132371
-0.0132391
0.387952
-0.374713
-0.379178
0.388382
-0.00920389
-0.0561859
0.10107
0.36113
0.0387335
-0.492392
0.342494
0.149899
0.0910454
0.365962
-0.171367
0.262576
0.00850128
-0.271077
-0.088595
0.00975059
0.0999412
0.0469851
0.0801869
-0.273803
0.374181
0.0505243
-0.145982
0.133648
-0.0922314
0.109733
-0.0175013
0.231789
-0.277031
0.0452413
-0.356136
0.5104
-0.154264
-0.076572
0.152138
-0.0755661
-0.0566061
0.435306
0.130649
-0.185607
0.157952
0.0276546
-0.136327
0.275365
-0.139038
-0.22647
0.0933069
-0.145076
-0.123409
-0.133237
-0.155704
0.282644
-0.217519
-0.119727
-0.0267786
0.101225
0.278003
-0.149945
0.0187959
-0.144613
0.125817
0.321055
-0.144972
-0.176083
-0.329426
0.492918
-0.163492
-0.0667473
0.224135
-0.157388
0.180974
-0.124556
0.0331171
0.091439
0.0831634
-0.0119055
0.146114
0.132644
-0.165288
0.306172
-0.0975534
0.288152
-0.190599
0.123087
0.454787
-0.307442
-0.12017
-0.210426
0.446615
-0.287845
-0.158771
0.489456
-0.337674
-0.151782
0.428975
-0.217829
-0.211147
0.00164252
-0.185158
-0.320042
0.304374
0.142242
0.0169841
-0.0978577
0.0808736
-0.051747
-0.104056
-0.131951
0.138957
-0.26374
0.318689
-0.331928
-0.138126
0.280789
0.345474
-0.454043
0.0837946
-0.116157
0.0323626
0.390286
-0.150643
-0.248832
0.112652
0.13618
-0.198949
0.294344
-0.0953949
0.166174
-0.257406
0.0912326
0.0951531
-0.229033
0.13388
0.0762514
-0.0131323
-0.0631191
0.232983
-0.149321
-0.0836621
-0.308515
-0.0958918
0.404407
-0.301729
0.432442
-0.130713
-0.32737
0.374618
-0.149773
0.0275581
0.0292793
-0.051448
-0.0960975
0.147546
-0.133134
0.25915
0.00246612
0.0737853
0.16128
-0.472275
-0.126309
0.107087
0.205989
0.0301156
0.356758
-0.489293
0.132535
0.105472
0.172531
-0.259651
0.192903
0.219548
-0.344797
0.125249
0.34486
0.0959898
-0.44085
0.250634
0.512695
-0.155937
0.170714
0.265657
-0.43637
0.0971536
-0.314981
0.33829
-0.118743
-0.130277
-0.112344
-0.15882
-0.238411
-0.237947
0.358126
-0.120179
-0.22721
0.311561
-0.0988409
0.0919756
-0.00881217
0.219008
-0.207953
-0.0110554
0.0834627
-0.303735
0.220272
0.165239
-0.245925
0.31794
-0.133771
-0.267484
-0.1771
-0.446615
0.176865
0.26975
0.311921
-0.228459
-0.218
-0.0878402
0.305841
0.12215
-0.315072
-0.399149
0.24033
0.270734
-0.326535
0.445523
-0.287325
-0.158197
-0.00530083
0.224309
-0.243375
0.327682
-0.0843068
0.130961
-0.0384769
-0.0924839
-0.0666631
0.0924219
-0.216846
-0.229769
0.106819
0.146283
0.138053
-0.146675
0.268784
0.160192
-0.0962668
0.0492427
0.0470241
0.163157
0.33524
0.0990857
-0.235394
0.136308
0.14102
0.0919635
0.388865
0.0914211
0.175725
0.142214
-0.105873
0.134472
0.0206004
-0.0630682
0.433405
-0.529298
0.218558
0.310741
-0.132378
0.155155
-0.0227773
-0.162041
0.110593
0.104578
0.0263828
0.163932
0.254353
-0.418285
-0.102851
-0.0203491
0.307864
0.137659
0.109773
-0.0259789
-0.449634
0.126336
-0.180843
0.395925
-0.215082
-0.127887
0.0474905
0.080396
-0.459317
0.324132
0.135185
-0.199149
0.363357
-0.16047
-0.308406
0.108824
-0.251975
0.143151
0.16295
-0.47738
0.31443
0.394345
-0.17346
-0.0180728
-0.0625314
-0.047986
0.166316
-0.11833
0.53493
-0.26938
0.34171
0.15488
-0.49659
-0.138004
-0.312174
0.128453
0.183721
-0.18351
0.135524
0.0572359
-0.0693714
0.0121355
0.151093
-0.449288
0.298196
0.224119
0.337128
-0.185449
-0.123938
0.309387
0.114922
0.407931
0.221546
-0.0902681
-0.131277
0.463978
-0.118504
0.446538
-0.290241
-0.0680645
-0.135241
0.203306
0.437077
-0.29232
-0.144757
0.149541
-0.00789684
-0.141644
0.151449
-0.391072
0.239623
-0.327646
-0.24163
-0.0384265
0.136451
-0.0980244
-0.0840023
-0.0731612
0.0901453
-0.112353
0.253367
-0.141013
0.176104
-0.308229
0.132124
0.150645
-0.394427
0.243782
0.436165
-0.332836
-0.190136
-0.121127
0.295591
-0.0779225
-0.217669
0.354929
-0.486978
-0.225698
0.061348
0.16435
-0.079485
-0.132845
0.21233
0.189825
-0.370668
-0.21946
0.119022
0.100438
-0.107488
-0.187771
0.251306
-0.0635356
-0.113727
0.0416147
0.0721125
-0.525893
0.182209
0.185686
-0.205527
-0.519427
0.205068
0.314359
0.402363
-0.429803
0.02744
-0.228855
0.380304
0.00188758
0.127739
-0.129627
0.0926398
-0.0829737
-0.00966604
0.266975
0.127371
0.299487
-0.451046
0.151559
0.255724
0.136495
0.393204
0.438472
-0.301988
0.138019
-0.0278366
-0.0856958
-0.21394
0.299636
0.0969101
0.157917
-0.254827
-0.165483
-0.0602142
0.206208
-0.103868
0.433662
-0.297376
-0.136286
-0.135363
0.0138725
0.0793472
-0.0598991
-0.0194481
-0.100852
0.445711
-0.316285
0.455559
-0.139274
0.364721
-0.465573
-0.106591
0.189666
-0.112366
0.200052
-0.142014
-0.31323
0.436452
-0.123223
-0.125353
-0.112267
0.23762
0.402603
-0.135628
0.165177
0.305022
0.13636
-0.119137
-0.0172226
0.309034
-0.193884
-0.00229945
-0.176224
-0.431152
0.0519741
0.103768
0.19398
-0.297748
-0.0925455
0.0688665
0.023679
-0.0715402
0.427206
0.115187
-0.240541
-0.376022
0.134449
-0.202514
-0.203261
0.362752
-0.159491
-0.364157
0.277139
0.0870182
-0.158572
0.208642
-0.0500708
0.249588
-0.140764
-0.504404
0.204172
0.300232
0.497735
-0.355368
-0.142367
-0.310951
0.165416
0.145535
-0.114259
0.0412995
-0.0763804
-0.12861
-0.0734704
0.40811
-0.33464
0.133656
-0.187882
-0.217696
0.318885
0.0380497
-0.356935
0.487134
-0.122413
-0.00950522
-0.0822209
-0.111514
-0.015101
0.126614
-0.494209
0.195423
0.298786
0.0391281
0.0818539
0.428907
-0.146669
-0.282237
-0.0661151
0.500086
-0.0696986
-0.058188
-0.256526
0.1043
0.152226
-0.103888
-0.119088
-0.217116
0.140736
-0.0832805
-0.280877
0.00477917
-0.116293
0.279647
0.14926
0.373339
-0.523273
0.328352
-0.355239
-0.46773
0.1545
0.248502
-0.133315
0.147342
-0.00675711
0.176884
0.457808
-0.00622604
-0.451582
-0.0413732
-0.0548936
-0.258933
0.384067
-0.125134
0.366053
0.121081
0.206188
-0.262182
-0.222336
-0.0570696
0.141376
-0.139323
0.367635
-0.523856
0.156221
0.0802561
-0.113085
0.0328293
0.254097
0.0778507
-0.331948
0.375643
0.113844
-0.489487
-0.328005
0.494111
-0.166106
0.223339
0.424173
-0.155389
0.0345705
-0.103074
0.0685039
-0.302263
0.162598
-0.0898028
-0.217122
-0.191517
-0.104093
-0.261003
0.146457
-0.280778
-0.459055
0.332221
0.126834
0.123541
0.310397
-0.297163
-0.0246149
0.0180183
0.180108
0.139317
-0.506425
0.0811744
0.230387
0.0515353
0.0278119
-0.379721
0.000757403
0.378963
-0.324024
-0.137621
0.461645
0.510411
-0.211635
-0.298775
-0.200972
-0.275519
0.0360826
0.113458
-0.100698
0.503061
-0.148709
0.124528
-0.236795
0.483258
-0.117204
-0.434141
0.0544205
0.174334
-0.0100943
-0.16424
0.127851
0.302161
-0.430012
-0.000956299
0.151816
-0.15086
0.319838
-0.322291
0.288034
0.136139
0.478162
-0.184538
-0.293625
0.0913998
0.0260548
-0.117455
0.189832
-0.247865
0.411797
0.0325129
0.139857
-0.17237
-0.15754
0.457027
0.201237
0.107825
-0.309062
-0.351697
0.0783733
0.273324
-0.162063
-0.331347
-0.428397
0.301586
0.159234
-0.260839
0.351884
0.430039
0.0320931
-0.462132
0.263096
0.28924
0.292853
0.170554
-0.463407
0.140497
-0.319116
0.178619
-0.173332
0.172376
0.115663
-0.0242632
0.135491
0.143574
0.106014
0.109868
-0.301313
0.191445
-0.292899
0.195346
0.144776
-0.414781
-0.431699
0.275705
0.127107
-0.584429
0.256734
0.327695
0.442752
-0.303254
-0.139498
-0.297509
-0.223522
-0.126099
0.265057
-0.215566
0.329998
-0.114432
0.475374
-0.334105
-0.141269
0.0768209
-0.0754283
0.252957
0.0169147
0.149402
-0.309713
-0.154822
0.00132396
-0.0935553
0.502479
-0.321333
0.341224
0.13415
-0.0747888
0.394627
0.125749
0.495533
-0.154309
0.473838
-0.338187
-0.135651
-0.140461
0.118986
0.234841
0.290813
-0.231572
0.326879
-0.0953066
-0.142462
0.396559
-0.323719
0.101919
-0.363884
0.261965
-0.143577
0.17609
-0.351282
0.257952
0.09333
0.301724
0.134729
0.0484216
0.178988
-0.227409
0.124107
0.380551
-0.0949612
0.0619787
-0.140723
-0.348569
-0.0650795
-0.095716
0.160795
0.198257
0.0973337
-0.132748
-0.313371
0.091468
-0.334843
-0.383378
0.26379
0.119588
-0.0816686
0.0685363
-0.139708
-0.338361
0.158581
0.354114
-0.169097
0.275216
-0.0907924
-0.184423
-0.282256
0.374085
-0.0918297
-0.453335
0.329396
-0.51704
0.359217
0.157823
-0.349969
-0.0181859
0.154655
0.334801
0.0874841
-0.152564
0.28228
-0.0729527
0.0970661
0.289558
0.0224129
0.373525
-0.395938
0.274597
-0.348067
0.361869
-0.511428
0.149558
0.436312
-0.117427
-0.112795
-0.0403617
0.116411
-0.0760495
-0.163076
-0.217132
-0.146095
-0.0188928
0.164988
0.0121294
0.217789
-0.229919
-0.559205
0.220873
0.338331
0.00808927
-0.45048
0.128797
-0.383823
0.255027
0.120277
-0.4092
0.288923
0.227026
-0.016393
-0.210633
0.0923012
0.0702965
-0.424099
-0.203804
0.233419
-0.221289
-0.210619
-0.15058
0.361199
-0.135225
-0.248504
0.0535468
-0.0167131
-0.129382
0.099207
-0.205798
-0.0945296
0.11821
-0.0236809
0.046273
0.0392986
0.270052
-0.117599
-0.152453
0.318412
-0.472355
-0.324364
0.0985625
-0.271201
0.172639
0.0672459
-0.363569
0.296323
0.0505191
-0.356569
-0.111653
-0.0224966
0.13415
0.115938
-0.035682
-0.473781
0.173935
0.299846
0.149069
0.38904
-0.131082
0.393498
-0.273221
-0.0649757
-0.0166929
-0.441629
0.125344
-0.297633
0.149461
-0.487135
-0.0920192
0.419515
-0.327496
-0.249778
-0.303544
-0.165185
0.283983
-0.0693569
0.0912746
-0.0219178
-0.355108
0.51355
-0.158442
-0.297826
-0.292016
-0.181765
0.484395
-0.326266
-0.158128
-0.263427
-0.117288
0.318525
-0.272912
0.0739633
0.179092
0.305303
-0.140163
-0.319154
0.145833
-0.479432
0.321226
-0.0662367
-0.194307
0.367157
0.0159453
-0.383102
-0.450496
0.285042
-0.104802
-0.158816
0.263618
-0.035557
0.119155
0.314617
-0.44755
0.132933
0.0941453
-0.319691
0.477837
-0.158147
-0.246421
-0.215269
0.446119
-0.154733
-0.291386
-0.116577
0.46362
0.15287
0.117182
-0.133674
0.430181
0.11671
-0.313848
0.197138
0.124024
-0.36257
0.238546
0.154238
0.228739
0.156928
0.118288
0.153893
0.345325
0.431857
-0.426811
-0.00504581
0.444836
0.0336245
-0.47846
0.0926487
-0.310649
-0.109116
-0.0846874
-0.404665
0.261715
0.14295
-0.00367841
-0.137077
-0.447048
0.176796
0.193462
0.323427
-0.141239
-0.0683512
-0.210941
0.279292
0.415457
-0.244744
-0.117328
0.443073
0.0203478
-0.0897047
-0.553749
0.232295
0.321454
-0.358915
0.462036
-0.103121
-0.283939
0.136961
0.146979
0.0846005
-0.301643
0.217042
0.257712
0.1786
-0.137825
0.142715
0.247571
-0.125693
0.0173465
0.108346
-0.279939
0.211588
0.400038
-0.107185
-0.309711
-0.244038
-0.364471
0.16121
0.296517
-0.0131878
-0.283329
-0.302137
0.274361
-0.334329
0.483385
-0.332204
-0.15118
0.314761
-0.198051
0.223
-0.0514602
0.0194954
0.1201
-0.139596
0.380724
-0.0384512
-0.342272
-0.328115
0.475868
-0.147753
-0.272432
-0.14057
0.413002
-0.309977
-0.151917
-0.133877
-0.28822
0.422097
-0.469854
-0.0475936
-0.0884934
0.136087
-0.0965888
-0.0229052
0.119494
0.373289
-0.306043
-0.28344
-0.210813
-0.134647
0.507986
0.498484
-0.343007
-0.155477
-0.317472
-0.141583
0.0905915
-0.422613
-0.186376
-0.291124
-0.306678
0.481281
-0.174604
0.282082
0.144157
0.334005
0.124745
0.316981
-0.441725
0.157966
-0.391895
0.233929
-0.0156185
0.150091
-0.253572
0.470958
-0.167086
-0.303872
0.317533
-0.337916
0.0203828
-0.124863
0.253271
-0.128408
0.443613
-0.356042
0.145423
-0.314404
0.439149
-0.499795
0.350964
0.148831
-0.0252123
0.403005
-0.377793
-0.209314
0.0738884
0.135425
-0.103891
0.0771122
0.38573
-0.227764
0.0123813
0.114683
0.149659
-0.166755
0.0170953
0.0134258
-0.081911
0.0684852
0.0113047
-0.124355
0.11305
-0.451183
0.290039
0.161143
0.291836
-0.207235
-0.443982
0.281173
0.16281
-0.332787
0.402093
-0.0693055
-0.308846
0.456261
-0.147415
0.276977
-0.389225
0.112248
-0.366527
0.115266
-0.430486
0.0253993
0.403668
-0.30427
-0.0993983
0.0744497
-0.110007
-0.256636
-0.0879553
-0.144783
0.301598
-0.156814
0.226125
-0.337126
0.111001
-0.316828
-0.174558
0.216588
-0.0975658
-0.123984
-0.0848876
0.208871
0.445469
0.0351853
-0.480654
0.158641
-0.472394
0.103984
-0.0694132
-0.220192
0.140707
0.149162
-0.155919
0.40965
-0.0408494
-0.3688
0.0833259
0.0440316
-0.127358
-0.360846
0.457705
-0.133573
-0.183601
0.272901
-0.0892998
0.272036
-0.184142
-0.0878939
0.130107
-0.115102
0.151185
-0.492376
0.291403
-0.305353
0.207453
0.0979
0.0915433
0.0410305
-0.228801
-0.0179378
-0.0614596
0.174309
0.206414
0.432219
-0.0905091
0.122955
-0.432331
-0.0711287
-0.0238283
0.094957
0.323618
-0.259063
0.127611
0.177102
0.226566
-0.0959028
-0.113411
-0.304424
0.140159
0.164265
0.174382
0.0976534
-0.300619
0.33493
0.405511
-0.374783
-0.0307284
0.255352
-0.098424
0.106186
0.151572
-0.257758
-0.559476
0.231594
0.327882
0.373623
0.060238
0.327693
0.137336
-0.465029
-0.22927
-0.330206
0.439146
0.146676
0.169258
-0.0770291
-0.307397
0.481899
-0.174502
0.153691
0.10166
0.127755
-0.174367
0.10236
0.17611
-0.27847
0.281816
-0.373836
0.0191874
-0.107681
0.386327
-0.128615
0.115545
-0.303445
0.1879
0.096539
-0.444676
-0.204718
-0.0483301
0.149241
-0.294024
-0.151054
0.185007
-0.308481
0.123474
0.0374448
-0.100753
0.0633086
0.0311348
0.374376
-0.128356
0.31411
-0.129103
0.162702
-0.0135401
-0.250977
0.0673752
-0.218381
-0.208726
-0.141925
0.204536
-0.0626111
0.135982
0.31487
0.437087
-0.111405
0.219196
-0.107791
-0.321336
-0.120293
-0.472287
0.375389
0.0968987
0.41243
-0.0948973
-0.150683
0.142786
0.0675566
-0.0103207
-0.302578
-0.177669
0.480247
0.12002
0.0369802
-0.157
-0.41977
0.020422
0.399348
-0.298662
0.292522
-0.146463
-0.345929
0.451446
-0.11786
0.224046
0.193375
0.326779
-0.139009
-0.133245
0.253964
0.38787
-0.245155
0.0280911
-0.104596
0.0765054
0.0787902
0.137798
0.239814
-0.0736404
-0.507743
0.323205
0.547309
-0.315715
-0.038881
-0.0742045
0.0598292
0.0328106
0.0765391
-0.0757856
0.481811
0.287203
0.149873
-0.123539
-0.18903
0.31257
-0.0628372
0.0711096
0.399846
0.374014
0.0560249
0.116443
-0.206023
0.119251
0.188486
-0.44871
0.312584
-0.0957158
0.247288
0.249333
-0.328566
0.0792338
-0.0245526
0.0521107
-0.44082
0.266488
0.0212483
-0.126618
0.10537
0.13817
0.0764836
0.057642
-0.231893
0.174251
0.517096
-0.481472
0.324092
0.15738
0.0979716
0.190181
0.1928
-0.31634
-0.152345
0.249255
-0.343507
0.10556
-0.0677733
0.0561341
-0.485885
0.183604
0.095041
-0.278645
-0.114999
0.121264
-0.306714
0.016465
0.210561
-0.0941947
-0.0564883
0.0039639
-0.0750926
-0.268257
0.140637
0.211313
-0.35195
0.194552
-0.0675825
0.0586085
0.00897395
0.138596
0.264007
0.176231
-0.327753
-0.13673
0.464483
-0.150478
0.0353761
0.0884252
-0.0749994
-0.164176
-0.308253
-0.107672
-0.225263
-0.08009
0.399223
-0.122246
0.160043
-0.242231
0.0821878
-0.351915
-0.0170728
0.368988
0.0373547
-0.292225
0.25487
-0.509285
0.303498
0.205787
-0.0981762
0.0609344
0.0372417
-0.105702
0.289306
-0.306596
0.487045
-0.180449
-0.497519
0.356795
-0.245985
0.41501
-0.450696
0.153164
0.297532
0.199393
-0.535777
0.336383
0.0135323
-0.197524
-0.526569
0.297299
0.350588
-0.451286
-0.498892
0.205937
0.292955
0.19525
0.118497
-0.313747
-0.173076
-0.121318
0.294394
0.279747
-0.309892
-0.165498
0.152729
-0.032709
0.0949589
-0.275154
0.438104
-0.317466
-0.134659
0.452125
0.127127
-0.267502
-0.235087
0.428315
-0.216004
-0.212311
-0.186553
0.284525
0.304168
-0.266813
-0.403753
-0.112807
-0.362385
-0.111165
-0.503306
0.170025
0.33328
-0.271065
-0.126786
0.397851
0.245551
-0.394401
0.148851
0.297278
-0.177254
-0.321638
-0.381298
0.061402
0.319896
0.456881
-0.33334
-0.116238
-0.287244
0.403482
-0.0607314
0.128492
0.026663
0.0951975
0.368256
-0.161088
0.124997
-0.242858
0.40445
-0.329035
-0.0754144
-0.138588
0.369745
-0.231158
0.227165
0.320144
0.144693
0.338692
0.352082
0.339114
-0.241501
-0.097613
-0.334243
-0.113312
-0.308425
0.0133174
0.339462
-0.352779
-0.341478
0.496419
-0.154941
-0.507105
0.165627
0.26658
-0.129619
-0.110771
-0.0690834
0.11611
0.512443
-0.160184
-0.352259
-0.354771
0.259717
0.0950548
-0.22104
0.125137
0.332574
-0.368813
0.036239
-0.277304
-0.299385
0.442146
-0.142761
0.36035
-0.0442281
0.0525644
0.133341
-0.185905
-0.109355
-0.204703
-0.0264428
0.231146
0.379164
0.0526936
-0.0514041
-0.0411414
-0.297379
0.17699
0.120389
0.100391
0.283375
-0.0919251
-0.19145
0.348615
-0.455168
0.106553
-0.141883
0.241175
-0.0992924
-0.318323
0.488765
-0.170442
0.0265739
0.0831996
0.107926
-0.232788
0.349726
-0.496084
0.146358
-0.259923
-0.0948488
0.373876
0.0357738
0.230681
-0.179878
-0.0508022
-0.0243095
-0.0937459
0.131748
0.25892
-0.390668
-0.453727
0.132391
0.117404
-0.257059
0.139656
-0.229639
-0.346137
0.24646
-0.075215
-0.290404
0.365619
0.383849
-0.157625
-0.226224
-0.250719
0.0859561
0.164763
-0.136503
0.385836
0.122417
-0.460604
0.338864
0.0655859
0.340125
-0.326807
0.483695
-0.333718
-0.149977
0.161629
-0.26643
0.017322
-0.119696
0.102374
-0.471856
0.290896
0.180961
0.0017791
0.39961
0.126779
0.446042
-0.131425
-0.387302
0.300663
-0.507322
0.354344
0.152978
-0.118283
0.213436
-0.3888
0.246338
0.0336378
0.197043
0.317876
0.048705
0.246325
-0.29503
0.0252401
0.0995586
-0.124799
0.145744
-0.249859
0.104115
0.254033
-0.488564
0.338217
0.150347
-0.451761
0.162208
0.289552
-0.259211
0.100395
-0.076997
0.121029
-0.183031
-0.218499
-0.0994815
0.31798
0.15429
0.23358
0.486475
-0.206219
-0.280256
-0.36036
0.12136
0.239
0.266161
0.145891
-0.412052
0.171064
-0.40151
0.230446
0.0750387
0.216797
0.109536
0.157043
-0.0489223
0.223362
-0.17444
0.40582
-0.130424
-0.275396
0.290623
-0.241918
-0.14675
-0.325537
-0.0557467
0.406334
-0.333195
-0.231698
0.416253
-0.107033
-0.331434
0.182583
-0.110895
-0.192245
0.129006
0.267398
-0.396403
-0.346711
-0.123032
0.469743
0.0784922
-0.0633928
-0.0150994
0.0235874
0.112773
-0.310941
0.140098
0.13437
-0.481081
0.328154
0.0776658
-0.250629
-0.220616
0.159595
-0.325805
-0.140705
0.46651
0.112983
-0.0333634
-0.0796199
-0.465438
0.158843
-0.207821
-0.286388
-0.156186
-0.280119
0.436305
-0.13282
-0.241807
0.0999244
-0.185768
-0.228512
0.0467378
0.181775
-0.308653
-0.452375
0.124261
0.357624
0.0444693
-0.0996501
0.032987
-0.404951
-0.0928843
0.267175
0.109832
-0.377007
-0.504931
0.210848
0.294083
0.14594
0.153088
0.242343
-0.395432
0.200579
-0.317867
0.133808
0.27584
-0.409649
-0.324618
0.207208
0.117409
0.190823
0.153465
0.304777
0.228732
-0.101605
-0.202543
-0.333233
0.276728
-0.339417
0.0626887
-0.105061
0.204081
0.317617
-0.521698
0.218312
0.150051
-0.368363
0.0555277
0.115324
-0.170852
-0.170778
-0.296952
0.369756
-0.24075
0.0309966
-0.254306
0.386054
-0.165605
0.134433
0.0311716
0.200353
-0.0918022
0.384183
-0.164964
-0.219219
0.239988
0.144195
0.287523
-0.111419
-0.0253916
-0.0913752
0.116767
0.0823324
0.0306509
-0.0635125
0.396086
-0.204957
-0.122068
0.0254791
-0.321332
0.105766
0.185856
-0.140797
-0.479627
0.168985
0.310642
0.460333
-0.150787
-0.309546
0.129821
-0.463926
0.195821
-0.492926
0.297105
0.159888
-0.134648
-0.164443
-0.287317
-0.399993
-0.114556
0.514549
-0.304223
-0.113343
0.339468
-0.476468
0.158145
-0.017095
-0.0932015