/*--------------------------------*- C++ -*----------------------------------*\
| =========                 |                                                 |
| \\      /  F ield         | OpenFOAM: The Open Source CFD Toolbox           |
|  \\    /   O peration     | Version:  v2012                                 |
|   \\  /    A nd           | Website:  www.openfoam.com                      |
|    \\/     M anipulation  |                                                 |
\*---------------------------------------------------------------------------*/
FoamFile
{
    version     2.0;
    format      ascii;
    class       volScalarField;
    location    "350";
    object      ddt0(omega);
}
// * * * * * * * * * * * * * * * * * * * * * * * * * * * * * * * * * * * * * //

dimensions      [0 0 -2 0 0 0 0];


internalField   nonuniform List<scalar> 
18166
(
0.119292
-2.90923e-06
-0.0174221
0.0107174
-0.703233
-0.0111459
2.10178e-06
2.27876e-05
0.000819418
0.132249
-4.08934e-06
0.00267771
0.000207171
0.00194778
0.000125643
-2.55047e-05
-0.66258
-1.00103e-05
5.24226e-05
0.0786734
6.58803e-05
1.23952e-06
-4.10057e-05
2.04363e-05
0.0978317
-0.0931379
2.44274e-05
-0.0140418
2.01905e-06
-1.53912e-06
-7.23085e-07
-0.0107227
-0.00452063
0.0606126
-0.0876501
2.68457e-07
-2.44926e-07
1.01296e-06
-0.000353623
0.00352764
0.00092841
-8.31493e-06
-9.37603e-07
0.000111419
0.192101
4.81118e-07
1.09072e-06
2.24724
-1.6905e-07
0.286175
-0.0519857
-0.742832
-3.37321e-07
-4.50043e-06
2.74355e-07
7.04121e-07
-0.066634
5.26204e-07
-0.170944
-2.36483e-07
4.66976e-05
2.67509e-08
-1.25523e-06
-9.08659e-07
-3.46766e-06
-6.23275e-07
7.41961e-07
-1.95366e-05
2.54098
2.24295e-06
0.000103951
0.0281649
0.0103382
0.000590809
2.23942e-06
0.00302316
0.474181
-0.282398
0.0523718
0.000590774
5.88175e-05
0.000299078
-0.441799
2.17555e-07
5.34722e-06
3.25356e-05
-0.00012363
-1.35651e-06
-1.39555e-06
0.109477
4.6079e-08
2.19884e-05
-8.71707e-05
-1.41918e-06
0.000641948
-1.10548e-06
-0.0383782
3.59947e-07
-0.126426
0.0164525
7.33085e-06
-1.5706e-05
-1.49612e-06
-0.020236
1.40783e-06
-0.064308
9.86822e-07
1.00178e-07
-2.26134e-05
2.18753e-06
-0.458265
-0.695364
-0.649745
2.85296
3.62588e-05
-0.0380926
-0.286933
-6.99969e-05
7.4147e-06
-1.49029e-06
-2.36899e-05
-1.60298e-06
-8.35667e-05
-3.57104e-06
-1.0208e-06
0.000173365
0.000103162
-0.000257072
4.0988e-07
-7.87698e-07
2.11529e-06
-1.91275e-06
-0.0505309
-1.20178e-05
0.0018586
-0.0228038
5.03358e-06
0.0965114
1.65495e-06
-0.0853272
-2.02132e-05
-2.45627e-05
4.5854e-05
-0.0701975
-4.45066e-07
0.0315416
-0.0996453
-2.48521e-07
-3.13431e-06
-0.152442
-0.00145788
1.42798e-05
0.026028
-0.125619
-0.0352493
-7.4338e-06
2.3197e-05
-8.04221e-05
-0.0431889
2.52607e-05
2.49261e-05
-0.000138118
0.0737394
-1.86811e-05
-1.70924e-06
-0.000301082
-0.00110592
1.93976e-05
-0.0111909
2.12841e-05
-0.000246126
-0.0247327
3.66229e-06
-0.0888056
1.27278e-06
-0.0916272
1.68434e-05
-0.0273273
1.75868e-06
-1.91877e-05
-2.09174e-06
2.37414e-05
-0.0180668
-2.98156
6.22161e-06
2.41887e-06
1.18504e-05
1.09789e-05
-1.15469e-05
2.88459e-06
-7.39826e-05
2.61474e-05
-1.606
3.14815e-07
8.37747e-07
0.0273711
0.00543216
0.432534
-1.67416e-05
8.80975e-07
-7.60943e-05
-0.100362
0.00914852
4.5245e-05
9.36609e-07
-0.00589648
-2.78262e-05
-0.0066866
-0.00108701
0.000801277
3.52874e-06
-0.00747916
0.00171292
-3.552e-05
0.00030285
-1.75121e-05
2.63119
-3.20673e-06
-7.62443e-05
2.45246e-06
4.7147e-05
-0.0182626
0.00191478
-1.36517e-06
1.15945e-06
-0.123643
5.01528e-08
3.98202e-06
-0.00142077
-1.87065e-06
9.75323e-07
-6.34222e-07
0.0295714
-4.95232e-07
-0.18763
0.030728
0.0647448
1.63557e-07
-0.00019394
0.000329539
-5.80732e-07
0.00144514
-1.12534e-06
-0.102617
-8.71854e-07
-1.75771e-06
0.00808421
-1.70268e-06
0.000690776
-0.0110424
-0.0368567
2.74062e-06
1.83816e-05
8.84317e-05
-2.93816e-05
3.74784e-06
-1.09263e-05
2.52691e-06
1.83778e-05
2.89673e-06
0.000173706
0.00174707
1.18876e-05
-2.28277e-06
2.88096e-06
-0.000353049
-1.73635
1.72939e-05
1.36366e-06
-0.163787
8.43256e-07
2.04691e-06
-0.00149474
-0.0128937
0.00343852
1.8903e-07
-0.0509824
2.42619e-06
-3.13559e-06
-0.0245308
2.25399e-06
0.000460921
-0.00151462
-3.50899e-07
-1.05076e-06
0.000130889
0.00372708
0.00100649
4.44691e-08
-8.08303e-05
-0.000178826
-0.0421392
6.96018e-07
-1.05241e-05
-1.28458e-06
-6.05982e-08
-1.94153e-06
-0.10416
-1.14447e-06
-1.5358
0.000742699
0.0158669
2.74743
-0.000102455
-1.98997e-06
-0.000575755
0.00574337
5.8625e-06
-1.45292e-05
-6.55816e-05
-3.02038e-06
-1.1303e-06
1.33974e-06
1.51594e-05
2.18322e-06
2.7322e-06
1.11321e-06
-0.023197
-0.0170632
7.4115e-07
0.00751359
9.14239e-06
-0.112897
-1.31477e-06
-4.6993e-08
1.06951e-06
-2.87487e-06
-0.0185852
-1.12373e-06
0.00167653
1.1963e-06
-5.67047e-06
-1.6233e-06
-4.52541e-06
-0.00262358
-1.47903e-07
-0.00399942
0.00448467
-7.27233e-06
-2.57846e-07
0.00688785
6.83521e-06
-0.0209343
-9.93596e-07
9.13829e-05
-8.87811e-07
0.0137036
2.45167e-06
2.81585e-07
1.5606e-06
-0.00255455
-3.86268e-06
-0.000887787
3.1726e-07
-0.377589
3.11765e-05
2.26148e-05
9.11882e-06
0.0140806
0.00774008
2.22316e-05
5.02895e-06
-9.4633e-07
9.90943e-05
0.469975
-9.65828e-07
-2.13223e-07
-6.5162e-07
1.79107e-06
-0.000247065
-1.2296e-06
-2.07824e-05
4.28221e-06
0.314386
-2.12777e-07
5.73944e-07
-9.08273e-06
-0.000593532
-1.51094e-06
2.4634e-06
-2.04217e-06
1.73526e-06
-0.000476678
-0.0158195
-2.00353e-06
-3.14037e-06
0.00186619
0.011817
8.08441e-06
0.0313183
-1.9857e-06
0.820426
0.000561851
5.29865e-05
-0.00910406
-0.0281562
1.19071e-06
-1.63579e-06
-9.4715e-07
-0.00164477
-1.47633e-06
-9.50115e-07
-6.9273e-06
2.98173e-07
5.21735e-05
1.46326e-06
3.54854e-06
0.0142072
0.00388427
2.11925e-07
-1.13784e-05
0.00564889
-0.0136936
-3.55303e-06
-4.04176e-07
1.21387
1.78623e-06
1.50271e-06
1.10208e-06
-1.21923e-05
-9.41801e-07
-2.82625e-07
-0.117155
-0.0827995
1.46496e-06
2.8349e-06
2.05793e-06
-4.90356e-07
-5.06951e-07
-0.000735192
5.5479e-05
1.37264e-06
-2.11733e-06
-0.00947638
2.55097e-06
1.74716e-06
2.67062e-06
-0.00722159
-0.0227121
-0.0279727
-0.158513
-0.00943313
0.000875685
0.00958495
-1.95167e-06
-0.00264604
-0.00475306
-2.94961e-05
0.00203042
-0.00175017
-0.00103399
1.2123e-05
1.52432e-06
1.332e-06
-3.64898e-07
-8.10896e-05
0.00173822
1.07439e-07
1.42898e-06
-2.04297e-05
-1.02948e-06
-1.1415e-06
-1.86811e-06
-8.51974e-05
8.95292e-05
0.00253142
-5.75381e-06
-8.98375e-07
-0.00103528
-9.06132e-06
-0.00399448
-5.15145e-07
-0.000129479
-2.89663e-05
0.00525906
1.13118e-06
-7.31538e-05
-3.0175e-06
1.42759e-05
-0.408753
-0.000537265
-4.48037e-05
-0.0677577
5.5962e-06
0.00356599
0.000621295
-0.00998642
1.16482e-06
-0.000115337
-3.88237e-06
-6.94546e-08
-1.23347e-05
-1.86583e-06
-0.00244861
-0.059962
-0.000485086
9.0305e-06
-3.40827e-05
2.28287e-06
2.50538e-06
5.43787e-06
6.15573e-07
5.76603e-05
-0.147655
0.000430062
9.6721e-07
-1.4381e-05
3.98718e-07
0.000638352
-0.139974
-8.69999e-06
-5.15583e-06
7.8643e-07
9.31563e-07
-0.0124277
0.0246124
-0.0617475
-1.60521e-06
0.00262075
1.9362e-06
-6.02401e-05
-1.05909
-0.0610542
0.00257358
-0.191075
0.00047426
5.98047e-07
-5.81155e-07
8.50132e-07
-1.78299e-07
-0.005187
0.000322031
-0.0293009
0.465316
0.00375001
0.0178936
8.44246e-07
-3.26779e-06
0.000289523
-2.16491e-05
-0.00125033
0.000642409
0.0014173
0.016002
1.33758e-06
-6.36002e-05
-4.33404e-06
-1.88903e-06
0.76408
1.46576e-05
0.000183143
1.64571e-05
-2.15699e-08
0.00240504
-4.20568e-07
-1.75342e-06
0.0106784
-0.0207503
1.5229e-06
-0.128526
-2.32777e-06
0.000354016
0.000587098
4.81039e-07
2.24164e-06
0.245266
-1.77938e-05
-0.000455183
-1.26743e-06
3.70538e-06
-0.000113096
-1.15746e-06
0.0232449
2.93664e-06
-0.00284899
-0.0030556
0.000144903
-1.70862e-06
4.03762e-05
3.23343e-06
-1.41043e-05
-0.0042365
-0.000253755
1.95976e-05
0.0336156
4.63472e-07
-1.03278e-06
7.30274e-07
0.00349066
3.34634e-06
-0.0597362
3.70119e-07
-0.0211579
0.000860177
8.91802e-07
-3.83748e-06
-5.87682e-06
-0.00143217
0.00425178
-1.00438
5.31722e-07
0.000525298
-1.38448e-06
-2.49824e-06
-0.001741
1.07477e-06
0.00868936
-0.082679
-0.00409318
-2.97973e-05
-1.6849e-06
-0.0242703
-1.0009e-05
3.16969e-08
1.02604e-05
1.32653e-07
0.00267997
-2.56928e-05
-0.000980675
0.00945243
0.00331106
-1.27773e-06
-0.135288
1.35581
1.054e-06
0.0270893
-9.68104e-07
2.24631e-06
0.0353834
-0.000245774
-8.97572e-05
-1.60398e-05
-1.56334e-05
2.24028
-0.0024805
0.00065283
5.28386e-05
0.000726171
1.37028e-07
-0.0210399
-1.54207e-06
-2.23446e-07
-0.00567526
-8.43478e-07
1.39095e-06
-4.86901e-08
-0.0339151
-0.000692912
-2.48133e-05
-9.47671e-05
0.00207556
-1.56562e-06
2.47327e-06
0.00695653
0.00183367
-0.143207
4.63169e-05
3.65245e-06
3.83078e-07
2.18647e-05
1.32303e-05
0.000124173
3.49687e-06
-1.45248e-07
-2.78013e-07
-0.0104646
-8.61053e-07
0.00498545
-2.70761e-06
-0.0332247
-0.0372667
-2.46215e-05
-2.0078e-05
0.019366
-0.0185616
-0.0891397
-0.000723254
2.85885e-06
2.18383e-05
2.51526e-06
1.12459e-06
-7.98603e-06
7.92315e-07
0.0125549
-0.00587124
-0.858369
-0.0132275
0.050836
0.167002
3.53923e-06
0.000306565
6.59714e-07
-8.04761e-06
-0.00367221
-0.0312905
-0.00673313
0.00117934
0.00336428
2.85584e-06
-1.88499e-06
0.00336736
0.12911
4.40332e-06
-0.290033
0.000311494
4.75971e-06
0.000149439
-1.60186e-06
-9.02604e-06
-0.000183322
-0.257881
0.0227784
0.00561113
-0.00274654
-0.0276285
0.000728836
0.000137814
-1.92598e-06
3.02887e-06
0.000880773
1.10958
2.46748e-06
-0.0577938
-0.000332196
0.00209794
-1.21319e-05
-0.00472203
-0.000399326
0.00260506
-0.29529
0.0284433
-0.000598107
0.000237659
-0.00410164
6.99748e-05
2.2708e-05
6.01152e-05
0.0133068
-0.0002399
0.115737
0.101175
-0.0629403
1.65355e-06
-6.78973e-06
-2.05661e-06
-9.37611e-07
0.000357275
0.00451331
-0.000240442
4.50147e-06
-2.04219e-06
-0.000644665
1.12753e-05
-3.73987e-06
1.21634
-5.17488e-07
0.00254111
1.09553e-06
-5.01938e-06
0.0034875
0.00322093
-6.20588e-06
0.00112877
0.00633964
0.000156675
1.31796e-05
0.000139421
-0.00027082
0.0208387
-1.23082e-06
-1.2879e-06
-1.82302e-06
-1.22832e-06
-3.48482e-07
-5.64897e-06
0.0020054
-0.0251333
-0.0191888
-0.000658986
0.00327034
-0.176329
0.000715225
-0.00132759
3.7985e-05
-0.0207396
6.73691e-05
-3.3949e-05
-1.87153e-06
-0.000402273
-0.0209838
1.70292e-05
-4.00284e-06
2.17211e-06
-0.00010741
-0.0736003
-1.08224e-07
-1.24325e-06
0.000459668
-4.73425e-08
-4.00575e-05
2.04798e-06
7.97893e-08
8.02683e-08
0.0275019
4.49092e-06
-9.14789e-07
0.00841622
-0.0481733
2.50261e-05
1.23439
1.66131e-07
-0.0482037
1.80059e-06
9.71858e-07
-0.0524309
-6.85678e-05
-0.121805
-0.00911821
-3.93601e-06
-7.66538e-07
-0.000197832
4.42794e-05
-2.11762e-05
5.38177e-07
5.29373e-07
0.94302
-7.27184e-06
-0.00257471
3.33228e-07
-7.66817e-05
1.34442e-05
-1.71848e-05
-0.00010846
9.21152e-06
-1.59573e-05
-1.08984e-06
5.305e-07
0.000228673
-7.77708e-05
0.00572745
0.0520042
-4.03425e-07
0.0275228
0.0260299
-6.81459e-05
-4.69059e-07
-0.0294346
-3.53904e-05
1.11963e-06
0.000234133
0.00252536
-7.80066e-07
-0.001765
-1.16909e-06
0.00221244
-2.9589e-05
0.129085
0.00697961
-1.03874e-06
0.000103391
1.78807e-07
-0.000121941
-0.00326125
-2.1495e-06
0.022777
-1.16003e-06
-1.73462e-06
0.00689338
-0.127367
0.00998009
-3.43017e-07
0.00127122
-2.61602e-06
0.354226
1.86828e-06
0.0888617
-0.00505143
-0.0660809
1.44984e-06
3.1298e-06
-7.41657e-06
2.32169
1.33396e-05
0.483377
6.38597e-07
-0.271092
-0.00894695
-0.000299498
-2.98327e-05
-0.0382554
-0.00287597
0.0174837
-6.13532e-05
-1.47062e-07
-0.00125499
-1.05443e-05
0.00115353
-0.0163087
-0.00284074
-3.11444e-06
7.01529e-07
-6.53682e-06
-1.11262e-06
8.94365e-07
1.11149e-05
0.715929
-1.30353e-06
0.00340514
-0.721605
-0.000591936
0.00657117
-3.55834e-08
9.8753e-08
1.59891
1.24641
0.369036
-0.00478212
-0.783483
7.8828e-08
-9.69196e-07
0.376156
-0.420464
0.17262
-7.84367e-06
0.000288378
-0.0205154
9.11522e-07
5.12281e-06
2.21506e-06
2.34498e-06
-0.000201825
-2.79357e-06
-0.00132065
-1.6917e-06
-0.213969
5.34145e-06
0.00948223
-0.0510702
1.32777
0.0138084
-0.00805533
0.316018
0.602893
-8.95601e-05
-0.00121504
-3.12952e-06
-3.64489e-05
-4.72727e-05
-0.00561548
0.0007067
0.01728
0.000179518
-0.00389944
0.000159605
1.28171e-06
0.0173779
-8.54504e-07
-0.000208791
-0.0145147
3.00709e-07
-0.000231441
-0.167835
0.00702204
-0.141507
0.0043142
-1.35098e-06
-0.034605
-3.61283e-06
2.35936e-06
0.00061179
7.86872e-05
-0.0795898
-7.86464e-05
2.24641e-06
-9.34216e-05
3.17421e-07
-1.52147e-05
1.31825e-06
9.70954e-06
-3.79847e-05
-0.00290878
-7.73824e-05
-0.000105407
0.0223966
1.5286e-05
0.00981733
-0.0578774
-0.001557
-7.34889e-06
0.000177939
0.812111
0.157733
-0.145911
4.99099e-05
-7.22796e-07
0.000345166
-0.132232
2.18969e-06
0.00743968
0.000833712
0.000987185
4.17506e-06
-0.00233369
0.362055
-7.53092e-06
-5.24732e-07
-1.68347e-06
-2.1099e-05
-2.61028e-08
0.0308064
2.66247e-07
0.0327915
0.0228943
7.87433e-06
2.73133
-1.46444e-06
-5.01246e-07
1.11455e-06
0.000327603
-0.00721154
1.61589e-05
0.0128477
-9.08464e-07
-2.26381e-05
-4.4961e-06
-0.0157626
-0.0030741
-3.16955e-07
-0.00413817
-1.20404e-05
0.000396901
-0.270172
-0.138101
0.00019255
-9.7459e-06
-4.66404e-06
5.94312e-05
8.99985e-05
-0.00294149
0.0135287
0.0104133
0.0195912
0.000605557
-0.000406846
-0.000200685
-0.211317
6.81484e-06
0.33312
0.00125142
0.189066
2.62921e-05
-0.0115632
-3.23978e-06
1.12466e-06
0.000109182
-3.47771e-07
-2.58506e-05
0.00559092
-4.98486e-06
-0.0178209
0.189038
0.0604118
3.13332e-07
4.61051e-06
0.000155453
0.022767
2.50385
1.85951e-05
-0.00533667
-8.17885e-06
-0.000112039
0.000291567
1.37938e-06
-8.3359e-05
1.12406e-06
-0.000110533
-0.000743945
-0.0104863
0.0342639
-3.34747e-05
0.0548902
0.0110683
-0.0198015
-0.00262271
6.63329e-06
-6.66724e-06
-0.387807
-2.90018e-07
1.03547e-06
-0.0234022
-5.92467e-06
-0.666671
-5.32512e-05
0.232443
0.00029218
-1.47034e-06
-1.50695e-06
2.08984e-06
0.00143897
5.75843e-06
0.399657
-1.41391e-06
-8.81909e-08
1.50821e-05
0.000157794
4.63407e-06
0.00117965
5.98664e-06
1.52524
-7.13205e-06
5.77358e-07
-1.64001e-06
-0.0293887
-5.07655e-05
3.45738e-06
-0.000562864
-1.15968e-06
-1.4381e-06
0.000210149
-4.81922e-07
1.60585e-07
2.17621e-07
-5.24675e-05
1.92614
1.3466
0.000103995
-6.38353e-06
-0.00220483
-0.000278236
0.000594662
-2.91611e-06
-0.000231566
0.00498452
-0.688149
0.000483449
1.00274e-06
0.00220322
-1.2295e-05
-0.46446
-0.000161654
-5.48462e-05
0.00412283
-0.44329
0.000422828
-5.77762e-07
-1.48667e-06
-0.00367285
0.0029183
-8.74324e-07
0.000157638
-8.39519e-06
0.00010238
-3.34845e-06
-0.723531
-5.95886e-07
-0.0419088
-0.0399761
-1.64519e-05
-0.00362366
-0.00186796
-0.00632942
-0.00188457
-0.00641821
3.21454e-06
1.51061e-06
-0.455673
3.95917e-06
-6.95638e-05
-0.000484038
8.38908e-07
6.94758e-05
0.00717745
0.00362221
0.00222717
-1.61692e-05
-7.03634e-07
-0.00368561
2.5254
2.90382e-08
4.70925e-05
-0.0317006
1.96009e-07
6.08191e-06
-3.51998e-07
-0.00182695
0.00446579
-8.83391e-06
-1.01647e-05
1.44754e-05
-1.20711e-05
0.00154583
-5.37806e-05
7.39422e-07
-0.0241782
-0.732968
0.103178
0.000172281
-3.31161e-07
-0.00258992
0.0620364
0.000349474
-7.09727e-07
0.000181654
-0.00803333
0.000563091
-8.1646e-06
0.00220998
0.000512554
-0.00134397
-2.83125e-06
9.32711e-05
-0.0326636
-0.822867
-5.34446e-07
-4.51166e-05
4.77329e-05
0.400389
-1.87047e-06
-0.0285149
-4.21685e-07
3.55152e-06
-1.94543e-06
0.000101631
-5.48129e-06
-2.12477e-05
-1.15978e-06
-0.0015845
-0.046668
0.000405494
1.92088e-06
-9.70053e-06
-0.00455216
1.71033e-06
-0.0324288
-3.38598e-07
-3.57497e-05
0.409477
9.80097e-07
0.000172231
0.0257876
-0.0292958
0.252153
1.5756e-05
-6.59457e-05
3.03991e-06
-2.35874e-06
-0.00312862
-3.69638e-06
0.000247665
-7.3008e-07
-0.000626766
-0.038413
0.000668333
5.39857e-07
-1.35307e-06
-7.6783e-06
1.47452e-06
-0.0503469
-2.26734e-05
-0.116813
5.30799e-05
-7.16443e-06
-0.000257314
-1.43151e-06
0.00719379
1.71993e-06
-1.05067
9.44324e-07
0.00771131
3.10867
1.83018e-06
2.69332e-06
2.33547e-06
-9.71567e-06
2.13243e-06
1.39914e-06
-0.00010678
0.00397018
-0.000316433
0.0127225
-3.73897e-05
1.1279e-06
1.52446e-06
-0.0503571
2.0863e-05
3.31649e-06
-1.68975e-05
-0.79145
1.6898e-06
-3.84446e-07
4.13906e-05
-1.53772e-06
-1.28162e-06
1.11768e-07
0.000706107
2.62135e-06
9.70959e-07
-0.0142857
-1.05985e-05
-0.0166888
-5.06639e-08
-0.706241
-0.140199
1.23594e-06
0.000701783
2.86646e-06
-0.000514319
-3.95538e-06
0.000705433
-0.00551029
-8.02765e-06
-0.000131729
-4.58859e-06
0.000516743
-2.28677e-06
-8.37371e-06
-5.12703e-07
-0.858936
0.0484198
0.000180784
-1.12046e-05
1.11838e-06
7.17772e-05
9.17569e-05
-3.71822e-07
-0.000202992
-2.15058e-05
-1.76607e-06
-6.94021e-07
-0.0245642
1.29509e-07
3.23058e-06
-3.50382e-06
-3.15746e-06
-3.75253e-07
-0.00399328
-1.3635e-06
0.000628373
-0.00194274
0.0210932
1.99323e-06
0.00708809
-6.04351e-06
2.33357e-06
0.0667187
0.00647065
-6.78834e-05
6.97097e-05
2.12665e-06
-0.024321
-0.0211005
-3.25514e-06
9.34886e-05
-1.41802e-06
0.000669187
0.164909
-0.409651
5.44885e-07
-2.17001e-06
-1.11441e-06
-0.00307791
6.36711e-06
-6.18278e-07
-2.05016e-07
-0.000432826
-0.000186901
1.70872e-08
-5.79677e-08
3.79615e-05
5.73219e-06
0.241486
0.00246746
9.15614e-07
-0.00440217
0.116465
-6.67583e-07
-0.00139632
0.00502736
0.00028
0.00028182
1.29744
0.00553739
1.91336e-05
-0.65644
-0.0119885
9.192e-05
-3.70314e-06
-3.446e-08
1.34609e-05
-5.92499e-06
-0.0293546
-0.0436159
8.21354e-06
-5.81952e-05
-5.59202e-06
0.00168644
-0.0625725
9.70285e-07
7.65124e-06
-1.66008e-06
-5.62019e-07
7.44189e-06
4.77467e-06
-5.34374e-05
-0.0406685
6.79835e-07
0.231173
-0.10569
4.79815e-07
-1.15684e-07
-2.73771e-06
7.49496e-05
5.59568e-05
-1.04447e-06
0.00965563
-0.483933
-0.0491032
-7.61613e-06
-0.172143
4.02504e-05
-0.541476
-5.67013e-07
0.0067035
-7.50685e-05
-0.0231868
2.1627e-05
6.6364e-06
2.18279e-06
0.0508072
-0.00216484
0.000162246
-3.67358e-06
1.7268e-06
-0.030615
-1.133e-05
-0.528186
-0.0483006
0.000266537
1.37964e-05
1.69073e-06
-1.48025e-06
-1.29884e-06
1.01938e-06
0.000636892
1.0522e-06
0.0519907
2.0049e-06
-2.41043e-06
1.15742e-07
0.00301741
-4.73582e-05
1.54191e-05
3.83003e-06
-1.52209e-06
2.92281e-05
-4.50969e-05
1.33489e-06
1.49838e-07
-0.00239443
0.184715
5.35221e-05
-2.83836e-06
1.38615e-06
2.73157e-06
0.000438937
2.26208e-05
-0.000818627
0.205624
0.011707
2.57048e-06
0.000276203
1.02298e-06
-5.43963e-06
8.9725e-07
-4.03454e-06
-0.0160048
6.01046e-06
0.433867
-3.37379e-07
3.64244e-06
0.00409987
-0.000464667
3.78356e-06
-0.062271
-0.0206703
-6.37306e-05
-9.33877e-05
-1.31337e-05
-2.5213e-06
0.00603054
0.0119041
-0.41993
0.00621324
-0.000931705
0.265096
-0.00232359
0.0112064
-4.03637e-05
-0.00930173
0.00142292
-0.016955
8.47738e-07
0.000250675
-0.0140376
0.179232
-4.05764e-05
0.0121434
0.00394493
-6.43514e-05
8.18418e-05
3.35183e-06
-4.75128e-07
1.57958e-06
2.71816e-06
-1.27803e-06
-2.85264e-06
5.17728e-07
0.352811
0.423832
-3.12962e-06
0.000199987
5.15423e-06
-0.0233232
0.00225528
-2.77874e-05
-0.0320525
0.000123041
-0.372503
0.00424909
0.0135558
-4.67203e-05
-0.00151081
-6.67967e-06
6.74677e-07
0.00148494
6.34156e-07
5.82543e-05
0.0063999
0.00257699
-1.15729e-05
7.03121e-07
-6.96509e-06
-2.92133e-06
2.59318
-0.185848
1.29335e-05
-8.7742e-05
-0.0368292
-2.38121
3.20129e-05
5.24945e-05
3.33591e-06
1.95527e-06
-1.02516e-06
-0.0906103
-0.25342
0.0307192
5.22123e-05
-1.06783e-06
-0.00819355
-1.08452e-05
-0.0340016
0.000375703
0.735129
-1.68149e-06
4.54617e-06
0.00433708
-1.74936e-05
-0.0142176
1.35221e-06
5.70843e-08
3.35285e-05
0.00134607
-8.45699e-05
0.00601766
1.79724e-05
2.37248e-05
-5.8215e-06
1.13636e-06
-6.02138e-07
-3.4088e-06
-2.8196e-06
-0.00070543
9.46659e-06
-3.8169e-05
-5.80435e-06
-0.188051
-6.34612e-06
0.00454339
-0.00465755
-0.00278587
-0.114855
2.59068e-06
5.94171e-06
-2.793e-06
-4.8266e-07
0.000191111
8.60949e-05
0.735368
1.00621
-0.00286284
-8.30397e-07
-0.00014391
0.0223191
0.0647679
0.515859
2.00577e-05
9.62358e-05
0.000520793
2.83733e-06
-0.000798738
2.00638e-06
0.000147909
-0.000169808
0.00242018
-0.670758
-0.00198803
-3.07866e-05
4.77531e-05
-1.16413e-06
-0.623192
-0.0672637
5.29587e-05
-0.00274786
-0.764558
0.0285389
-0.481602
-0.00175001
7.89522e-07
-2.88294e-05
-0.0640264
0.000584189
-0.000855183
0.0728651
4.50921e-07
0.0026737
-8.36028e-07
-1.2185e-06
-4.60842e-06
1.32008e-05
-0.0199311
-8.80576e-06
-0.000100968
-0.0145123
8.93539e-07
0.366066
9.30825e-07
1.78429e-06
-0.13468
-3.13059e-07
-4.83648e-07
0.119337
-2.35135e-06
1.53678e-05
1.83441e-06
1.77893e-06
-0.0594081
-3.40848e-05
-3.34758e-06
-0.00266412
2.56431e-05
4.92397e-05
4.86182e-05
1.90324e-05
0.00329135
2.01234e-05
-0.0287331
0.000449863
-5.42576e-06
-3.75738e-07
-1.59669e-06
-5.90758e-05
-0.201781
-2.24912e-06
-0.0164853
-3.77161e-05
-0.8696
0.000110221
-0.00305681
-0.0519744
2.67572e-06
0.313944
8.81281e-06
-0.00507979
-2.10083e-07
-3.14674e-05
2.11142e-06
-2.7861e-06
4.47414e-05
-6.51727e-08
0.0033718
-0.000310342
-0.717423
-4.92856e-07
-7.24261e-05
0.138728
-0.0852652
0.698999
-0.0179026
0.0628124
0.00035473
-0.15256
1.06783e-06
-1.43915e-06
-0.10764
3.68491e-07
-0.070268
-0.00171124
-0.000154774
0.000246956
-7.32231e-07
-3.12302e-06
0.000136635
-0.00097501
6.42149e-07
1.00919
4.64132e-06
9.95247e-07
-0.0894488
-3.2544e-08
-1.74468e-06
3.44663e-07
-0.000146421
2.71043e-05
-0.214394
3.82635e-05
-4.03657e-06
-4.03667e-05
-0.0161056
0.257455
0.0148871
1.51541
2.32408e-07
-2.9283e-05
-8.54845e-07
0.0368008
6.34158e-06
1.7944e-07
2.47755e-06
-0.142624
0.106908
1.29721e-06
-5.48912e-05
0.00923524
-2.19207e-07
0.00083114
0.0171872
2.24741e-06
-2.91134e-06
0.00499667
-0.0191703
0.000120757
-4.53114e-06
-0.102486
-4.29105e-06
0.226915
-1.66219e-06
-1.86404e-06
-8.63424e-06
-1.40798e-05
0.000192004
2.75017e-06
-1.91848e-06
-5.43689e-06
1.72661e-06
0.0247048
0.404506
-4.09032e-05
-4.8948e-07
1.98915e-06
0.0190317
-0.000120539
-1.68448e-06
0.14573
-0.00809672
-2.04562e-06
4.00593e-05
2.24975e-06
0.0372679
-0.000134163
0.0715908
0.000200096
-0.144515
1.51524
8.842e-05
-1.06506e-05
-0.30086
1.80996
-2.57793e-06
-6.165e-06
4.2048e-06
-6.73223e-07
-7.60948e-06
-0.0568997
-0.000238273
0.000310619
0.000805784
0.0119858
-1.79475e-06
-0.0149073
1.90683e-06
1.19369e-06
-9.1278e-07
-0.0462881
6.94718e-06
-0.0223332
-1.19736e-06
-5.91726e-08
2.23044e-05
-1.09696e-06
1.10401e-05
1.4903e-06
-2.70333e-06
-2.16413
0.000178729
-4.36381e-05
-8.58368e-07
-5.81783e-06
0.0082737
-5.44513e-07
9.54065e-08
-5.52299e-06
-1.48385e-05
-0.00137704
-9.74011e-06
-0.152575
-0.1152
0.000659795
-4.17792e-06
-1.01248
0.00935923
0.000678164
-6.84044e-07
-1.49239e-06
-0.00044731
0.0335151
9.83346e-08
0.168311
-0.0205592
1.94173e-05
1.23339e-05
1.28012e-05
-0.158225
3.60215e-06
0.182173
0.000525579
0.0001002
0.00348558
-0.0254029
5.9039e-05
1.3512e-06
-0.0068255
-0.347913
-0.0174483
2.83183e-06
0.000682851
-0.0204806
-7.23239e-06
0.000207234
-1.47365e-05
0.000387125
2.12701e-05
2.38498e-06
-0.286887
0.0107975
0.000227774
-0.000287064
-0.00153065
-0.000367496
-1.01871e-07
-0.0291449
-0.00792552
0.00180778
9.60926e-05
-0.013653
0.00874742
-0.03439
5.38807e-06
-0.0457607
1.28628e-06
-4.2422e-05
0.1987
7.79331e-05
-0.0054791
2.32704e-06
-6.86956e-05
0.00149143
0.000589117
9.27019e-07
-1.83574e-05
0.0161457
-0.0104509
-0.231586
0.080074
0.000539451
7.26106e-05
-4.09391e-06
-2.06239e-07
2.63019e-06
4.95964e-05
1.29359e-05
-0.248481
-0.00318848
-1.07998e-06
-7.40161e-07
0.00224408
3.06335
-0.0234675
-2.1923e-06
-1.91109e-06
-0.00135071
3.14256e-05
1.20903e-06
-0.22284
-4.93936e-05
0.000524391
7.2609e-05
-0.0141946
5.60818e-07
0.00632118
-0.0392998
1.65857e-06
-3.58497e-05
2.28885e-05
-1.30062e-06
3.27823e-06
0.0179094
1.59055
-2.99109e-06
-0.000136118
-8.95132e-07
-0.0350994
0.00365546
-0.00519475
-0.838542
0.000221317
-0.00132869
-0.10844
-6.19317e-06
1.24491e-06
3.36696e-06
-0.000419739
-0.000103191
-0.000382034
-1.14525e-05
-0.00781294
-8.23426e-07
-0.00253598
1.2532e-07
-2.37357e-05
1.45416
-0.0578776
0.000271057
-0.0783192
-6.81902e-07
-1.54317e-05
-0.00353006
-0.0265067
0.00557613
-7.17272e-06
0.000126057
1.4595e-06
-1.7008e-05
-0.0331521
6.25599e-05
-1.12343e-05
-0.0336453
0.00382634
-3.18671e-05
-1.18057e-06
9.02356e-05
0.000122435
-0.0227136
-0.111108
1.3319e-06
0.000596816
-0.193001
-1.30735e-07
-0.00837527
1.27367e-05
-4.7712e-05
-3.52886e-06
0.000279156
0.000127711
-2.67193e-06
4.3527e-07
0.000673938
2.6049
-1.65835e-06
9.56186e-07
-0.0731474
2.26031e-05
-3.36165e-06
-0.0143772
-0.000263718
4.97731e-06
-9.1416e-06
-0.0177942
7.2734e-07
1.11248e-06
0.000435578
-0.105441
-0.00120179
-2.02301e-07
-2.55351e-05
5.76416e-07
-0.00197426
3.26799e-05
4.04981e-05
-0.240858
-2.72125e-05
-6.4614e-05
0.00130339
2.74592e-06
-0.00165694
5.6782e-06
0.00016043
0.231086
-0.0241062
-1.28575e-06
-0.0154668
2.09044e-05
1.35421e-05
0.00200306
-3.30659e-05
-5.2687e-05
0.000484857
2.6317e-06
-2.41004e-05
5.59056e-08
2.92907e-05
1.17252e-05
0.0028169
0.0436447
-0.0318819
-0.181725
2.9176e-06
-0.0375797
2.77151e-05
1.47222e-05
-5.18499e-05
-1.75379e-06
-2.84069e-07
8.17066e-05
0.20327
2.46132e-07
0.00114921
2.89074e-07
-2.37047e-06
0.0286815
0.0623341
-1.77037e-06
-7.35969e-06
-0.00279097
-1.17937e-05
1.11829e-05
-0.615107
-0.098723
9.69654e-07
3.93335e-05
4.76146e-07
-0.777657
-8.41634e-08
1.62513e-06
-0.0200664
-0.0275737
-2.45164e-07
0.882654
2.22564e-07
-2.25678e-07
-6.48799e-06
-7.99379e-07
-0.0659326
3.81234e-06
-1.15634e-06
2.73532
-2.55295e-06
6.14693e-07
-1.11858e-06
-0.000156252
0.122192
-0.0260966
-0.000226676
-1.34352e-06
-0.00277509
-3.583e-06
-2.07555e-06
-1.63927e-05
-2.16903e-07
0.000105787
-1.29183e-07
-2.00904e-05
2.741e-06
0.00163999
0.0714579
-0.0818228
-0.0102131
0.00118765
0.00616792
-3.09263e-06
0.0028743
-9.77871e-07
7.80307e-07
-0.00218206
5.81944e-07
4.81459e-06
6.84315e-09
-3.5282e-07
-0.000115062
-0.324904
0.000497288
1.04683e-06
1.84081e-06
-2.90047e-06
-7.54661e-06
3.27487e-06
0.000113922
-0.0175669
-0.0498546
0.000275013
1.82484
1.33177e-06
-6.71519e-07
2.05141e-06
1.5826e-06
-3.21721e-07
-7.2011e-06
-9.8246e-06
-0.0461723
0.0594577
2.44292
-0.170228
-0.103182
0.00128325
-0.0596774
-3.9753e-06
0.000236238
-2.66076e-05
-3.98639e-06
4.80929e-07
-0.00499813
3.097e-07
-0.0793587
9.53554e-08
1.18729e-06
-9.81178e-07
1.80073e-07
0.0207132
-3.11829e-06
0.0202612
-0.00215302
0.00139128
-0.351351
-4.30031e-06
-0.00846978
-1.59108e-05
-3.93772e-05
0.00150708
5.0061e-06
3.82167e-07
0.00198134
0.000457966
-1.04126e-06
-1.06003e-06
-1.76815e-06
0.0739855
-3.38351
-5.10902e-07
-1.56615e-06
2.47001e-06
1.25064e-06
8.81058e-05
-0.0536909
4.56055e-07
-0.0170388
-0.139734
-7.61889e-07
3.07178e-05
-0.730297
4.26962e-06
0.019249
-0.75999
-9.77711e-07
4.22451e-06
0.000475918
0.0028422
0.0025993
-0.127368
0.00012332
1.03694e-06
0.00120209
-2.18768e-05
0.00282837
0.000517119
-1.42911e-06
-1.29084e-05
-0.00147016
4.03118e-06
0.169577
-2.55665e-06
-0.133214
0.00101578
-0.00360214
-3.78932e-06
0.00128815
0.000465569
0.00852177
-3.19749e-06
1.60006e-06
-0.0638071
-0.0430977
-3.29346e-05
0.0245694
0.111479
9.14216e-07
6.5037e-06
-4.08911e-05
4.88635e-07
-0.012702
-6.42187e-06
-0.00664274
4.93796e-05
0.0144829
-0.346509
-0.015878
0.0775742
-2.25625e-06
-0.000180565
-0.664077
0.00941682
-0.0168206
7.01957e-07
3.24815e-07
-0.0271654
-0.00111215
-1.40701e-05
-0.220572
2.08778e-06
0.0390243
-0.000135625
0.000103864
-6.23872e-06
0.00193482
-2.50039e-05
-0.0018715
-5.9799e-06
3.58249e-06
1.43001e-06
-8.33248e-06
-0.597617
1.55483e-05
9.96047e-07
5.0194e-07
0.353825
0.0124551
0.00291341
-0.000761427
0.000473551
0.0190769
2.14718e-06
2.02675e-05
1.11488e-05
-0.000220492
-1.05981e-05
1.18999
-0.000192945
9.55324e-06
1.68741
-0.00879635
-1.69997e-07
-9.13676e-06
3.0354e-07
-4.6879e-05
-3.04812e-06
1.92973e-05
-0.240394
6.02085e-06
4.00276e-07
-0.000182693
-3.74851e-05
0.00345093
0.0015272
0.00897597
2.05598e-06
-1.18743e-06
-0.0709202
2.18651e-06
-7.29781e-05
-0.0429818
-1.37034e-05
-1.08307e-05
-5.65353e-06
-2.33588e-08
4.14496e-07
3.88577e-07
-0.00800515
0.0836686
-0.493383
0.00126111
0.313239
8.31576e-06
0.00010083
0.129893
1.00199e-06
-0.0994543
-2.49482e-06
0.119829
7.88166e-07
-0.115302
-0.0403633
-4.47932e-05
1.88099e-07
8.32961e-07
0.000108137
-1.90208e-07
1.22204
-1.11979e-06
9.73756e-05
0.000140295
0.00380415
-6.84925e-08
-0.0993748
2.09243e-06
2.27547e-07
-4.95131e-07
-0.000499021
-3.5973e-05
0.033019
-7.21533e-07
-0.357044
0.0177148
0.00193553
-2.00583e-06
-0.000108448
1.44833e-06
-2.2471e-05
5.70016e-07
-2.24151e-05
0.363741
-1.46348e-07
0.259213
-8.4085e-07
-0.000970003
0.00183601
-4.92749e-06
0.326228
2.44149e-06
-1.55887e-05
0.000181996
-0.0715029
-0.000501003
1.87638e-06
-4.63749e-05
0.000623348
0.0100312
0.000451306
-0.00268785
1.11881e-05
-6.16154e-05
-5.82799e-07
1.31308e-06
-2.27962e-05
-0.000660145
5.4212e-05
-0.000248497
2.54499e-06
0.0552013
-0.317904
-4.31258e-05
8.49136e-06
-0.0877017
0.00225533
-1.17703e-05
-0.00034155
-6.28512e-05
-1.8825e-05
-2.92359e-05
0.000128249
-8.59941e-07
7.8338e-07
0.0366461
2.26014e-06
-3.4574e-05
0.00410731
-8.30639e-06
-0.0289867
0.00131362
0.000194792
-9.43275e-07
1.99025
-0.00124755
0.00260146
5.8792e-05
-0.0508577
0.000698608
-0.75012
6.50409e-07
-0.000265839
-0.000908774
1.79465e-06
-9.65998e-06
0.00064648
-9.72344e-07
6.77407e-07
-0.00118148
2.19331e-06
0.00043318
-0.229892
-2.08743e-06
5.16167e-07
0.0315265
-3.67177e-05
0.0825947
-3.63546e-06
0.266129
2.63331e-05
-1.9646e-05
1.84686e-07
0.000851954
-0.185427
1.12337e-06
0.00946727
0.00183505
-0.205194
-0.577335
-1.32798e-07
0.0067039
2.10173
-0.00611374
-7.1266e-07
-0.0293408
0.00165602
0.395255
-7.02024e-06
-3.30403e-06
0.045142
-0.000997464
-0.000273293
0.0470294
7.34124e-05
-0.123675
-1.67071e-06
9.62529e-06
-0.000972428
-0.000335816
-3.41166e-06
0.0779961
-0.0304369
0.00119707
-2.21842e-06
1.29159e-06
3.89397e-06
-0.0021051
-6.34879e-08
2.46755e-06
0.0285291
-0.1312
-0.0260301
-1.49639e-06
-7.23494e-07
-1.05143e-07
-0.0121566
7.13893e-08
0.000383841
-1.04131e-06
-4.54904e-06
0.00109136
-0.066861
0.000172525
-2.47383e-06
-0.0027149
2.63639
-2.19243e-05
8.01598e-07
0.00979626
-0.00273541
0.000124569
0.0472011
0.000151235
-0.111721
0.151044
1.43253
-6.80253e-05
0.116245
0.580018
7.12637e-05
-0.0198571
-0.00150435
3.12364e-05
-0.0193228
0.201403
2.30845
2.68708
-0.14885
7.23509e-07
0.00416264
0.549488
0.00310437
-0.870084
-0.905361
1.24671e-06