/*--------------------------------*- C++ -*----------------------------------*\
| =========                 |                                                 |
| \\      /  F ield         | OpenFOAM: The Open Source CFD Toolbox           |
|  \\    /   O peration     | Version:  v2012                                 |
|   \\  /    A nd           | Website:  www.openfoam.com                      |
|    \\/     M anipulation  |                                                 |
\*---------------------------------------------------------------------------*/
FoamFile
{
    version     2.0;
    format      ascii;
    class       volVectorField;
    location    "350";
    object      ddtCorrDdt0(U);
}
// * * * * * * * * * * * * * * * * * * * * * * * * * * * * * * * * * * * * * //

dimensions      [0 1 -2 0 0 0 0];


internalField   nonuniform List<vector> 
18166
(
(-0.0915806 -0.144005 -4.84126e-21)
(1.84382e-05 1.69863e-05 2.38026e-20)
(0.0750022 -0.0566003 4.67969e-22)
(0.0460019 0.0283739 5.12411e-21)
(0.0803747 -0.0364469 0)
(0.0132767 0.0211184 -5.44661e-20)
(0.000218402 3.84485e-05 -4.54188e-21)
(0.000628364 -0.00120637 1.81562e-20)
(-0.000834888 -0.01323 0)
(-0.0958061 -0.138297 4.86517e-21)
(1.21492e-05 -4.2146e-05 0)
(0.0299741 -0.0384904 0)
(0.00590182 0.00294284 -4.98307e-22)
(0.000872409 -0.0190664 4.40101e-20)
(0.00690918 -0.000466375 -2.66904e-20)
(-0.000165961 0.000701372 0)
(-0.195106 0.0186777 0)
(0.000339624 0.000418809 1.45096e-21)
(0.00250033 0.00077556 -5.72263e-20)
(-0.0149821 0.118104 3.28505e-20)
(0.00126757 0.000193616 -4.2918e-20)
(6.82331e-05 1.02221e-06 0)
(0.00273102 0.00159132 -1.52515e-20)
(-0.00011995 -0.001526 0)
(0.0415692 0.0187144 3.34949e-21)
(0.0258863 -0.0480045 1.17377e-21)
(0.00066961 -0.000528123 -1.13703e-20)
(-0.0493033 -0.0807899 2.51914e-22)
(0.000315116 -2.76291e-05 0)
(0.000192997 -3.59082e-05 -2.43869e-20)
(2.23485e-05 -5.07361e-05 0)
(0.0298145 0.0350324 -2.24749e-23)
(-0.00214919 -0.0187202 5.42661e-21)
(0.0394559 0.0330341 0)
(0.0820194 -0.041073 2.24554e-21)
(0.00027504 0.000291914 -3.15868e-20)
(9.45495e-05 -8.73376e-05 -1.14722e-22)
(2.67803e-05 1.45917e-05 -3.77917e-24)
(0.00287853 -0.0101163 8.55211e-21)
(0.027099 -0.0410116 0)
(-0.00234619 -0.0139561 3.13559e-20)
(0.0033567 0.00303225 0)
(1.58628e-05 -4.60251e-06 9.67095e-22)
(0.00231326 0.001248 -2.71132e-20)
(0.0696836 -0.0753765 0)
(8.99545e-05 -9.53221e-05 4.57003e-21)
(0.000163952 3.98337e-06 -4.16397e-21)
(0.118874 0.199586 7.38099e-20)
(4.43331e-05 -6.48364e-05 7.81465e-23)
(0.0250395 0.10047 1.41747e-20)
(-0.0547588 0.135709 3.85549e-21)
(-0.203448 0.0242429 6.79456e-20)
(4.23149e-05 -6.72046e-05 -1.09499e-22)
(0.00118777 0.000434925 -1.54779e-20)
(8.78266e-05 -0.000108361 -1.48064e-20)
(0.000232817 0.000198598 -6.6065e-20)
(-0.0688853 0.01623 0)
(0.000119825 3.07452e-05 0)
(0.0743669 -0.0694757 1.68413e-21)
(0.000239538 0.000199896 3.5494e-20)
(0.00108531 -0.000606784 -5.68231e-21)
(0.000108406 -2.1491e-05 -2.14618e-20)
(5.82593e-05 1.73513e-07 9.70499e-21)
(0.000234118 0.000270001 2.51719e-20)
(0.000160772 -3.04509e-07 1.66075e-20)
(0.00011906 -4.72703e-05 0)
(0.000184801 -2.16982e-05 0)
(-5.35966e-05 0.000588801 -1.18609e-20)
(0.053305 0.295567 1.61181e-19)
(1.42293e-05 6.085e-06 6.92559e-21)
(0.00629378 0.00368871 0)
(0.0448579 0.0116229 -4.14773e-20)
(0.0495881 0.0261743 0)
(-0.00126958 -0.0137756 0)
(1.49709e-05 7.68104e-06 -4.64609e-21)
(-0.00892342 -0.0209153 -1.01664e-20)
(0.124076 -0.121671 0)
(-0.0841334 -0.0644408 -1.307e-20)
(0.0278223 0.0888424 -3.73609e-20)
(-0.00860165 -0.00228629 0)
(0.00131137 0.000343058 -1.81327e-20)
(0.0053842 -0.00220671 0)
(0.0798432 -0.029364 -2.71738e-22)
(6.91958e-05 -4.54579e-05 0)
(0.000120158 9.03627e-06 1.06544e-20)
(0.0012255 -0.000837016 -7.90708e-23)
(0.00244975 -0.00188815 -7.26394e-22)
(0.000185254 0.000318885 -1.5783e-20)
(0.000188308 -3.11953e-05 4.06562e-20)
(0.112557 -0.114734 0)
(6.98389e-05 -5.06334e-05 3.1377e-21)
(-1.00132e-05 -0.000534767 0)
(0.00317143 0.00262541 0)
(0.000181032 -2.39381e-05 -4.01484e-20)
(-0.00150448 -0.0137445 0)
(0.000699706 5.03343e-05 0)
(0.0464325 0.0462213 0)
(0.000107839 3.93147e-05 0)
(-0.11391 -0.090177 0)
(-0.137857 0.372284 1.08211e-20)
(8.74629e-06 0.00394126 -1.35693e-21)
(0.000725044 0.000410479 6.6614e-21)
(0.000200229 7.26199e-06 0)
(-0.0613302 -0.0573003 -1.58916e-21)
(5.82835e-05 -2.39725e-05 -1.0126e-21)
(-0.0691816 0.0796716 -1.30963e-21)
(7.62465e-05 9.86502e-08 7.68144e-21)
(0.000171179 -1.42636e-06 -2.55041e-20)
(0.000431592 0.000253895 1.56505e-22)
(0.000294179 5.81809e-05 0)
(-0.195434 0.0285894 6.50598e-20)
(0.0943176 -0.00299217 0)
(-0.193273 0.0203626 0)
(-0.02428 0.109179 0)
(0.000298333 -0.00200254 1.65258e-20)
(-0.0597216 -0.0317167 4.64243e-21)
(-0.0947346 -0.0346273 -2.63962e-20)
(-0.00891201 0.00180374 3.74211e-20)
(-5.91511e-05 -0.00134424 0)
(3.1362e-05 -8.45318e-05 -2.10777e-22)
(-0.000252925 0.000232872 -3.08256e-20)
(2.84263e-05 -7.97315e-05 0)
(-0.00791032 0.00186819 -2.2942e-20)
(9.83971e-05 7.85413e-06 -1.68029e-20)
(0.000189282 -8.57104e-05 -2.53537e-20)
(0.00316737 -0.00151 -4.30094e-22)
(0.00258597 -0.00184992 0)
(0.00238337 0.00352921 1.56107e-20)
(6.80726e-05 8.4283e-06 3.62173e-21)
(0.000206001 0.000275032 -2.97503e-21)
(0.000224893 6.47924e-05 -2.37586e-21)
(0.000257486 0.00030161 2.96834e-21)
(-0.0242473 0.0202189 2.82685e-21)
(0.000566037 0.00273281 0)
(-0.00222116 -0.0206465 -9.77703e-22)
(-0.0692768 -0.0157533 -3.30399e-21)
(2.50865e-05 -0.000289676 0)
(0.0280326 0.0663127 2.15344e-20)
(6.95191e-05 1.04589e-05 4.74656e-21)
(0.0276291 -0.0691601 -7.51422e-21)
(0.0006725 0.000249981 -1.41373e-20)
(-0.000197561 0.000340106 5.08641e-20)
(0.00380071 0.000276034 -3.56541e-20)
(-0.0828508 -0.076172 -9.9439e-21)
(7.15232e-05 -9.59884e-05 -3.80598e-23)
(0.0733299 -0.0747105 0)
(-0.097745 -0.0270068 2.17747e-20)
(9.51884e-05 -9.30919e-05 7.87237e-21)
(0.000909795 -0.000238389 1.49963e-21)
(-0.172155 0.370594 0)
(-0.00292597 -0.0055285 -1.15537e-20)
(0.00141504 0.00115489 2.03309e-20)
(0.0376468 -0.0466603 0)
(-0.131263 0.043314 0)
(0.00353272 0.0250908 0)
(0.000935844 -2.5349e-05 -1.53476e-21)
(0.00146017 -0.000548594 5.65881e-21)
(0.00192937 0.00227128 8.96652e-21)
(0.00396691 0.0338011 0)
(0.000346209 -0.00172391 2.66576e-20)
(6.27257e-05 -0.00098498 6.82321e-21)
(0.00322542 -0.00189966 2.67187e-21)
(-0.241596 0.198249 -7.10924e-20)
(1.6755e-05 -8.80127e-08 -7.30106e-22)
(0.000210927 0.000227955 -5.36642e-20)
(-0.00108011 -0.00429083 -5.26304e-21)
(0.0364425 0.0400454 1.66536e-20)
(0.000563921 -0.00051133 2.9437e-21)
(-0.122625 0.0428588 -9.19392e-20)
(0.00147931 -0.000557607 -5.92363e-21)
(-0.0103334 -0.00163247 6.87357e-21)
(-0.0421795 0.0723344 -1.11022e-21)
(0.000121686 -0.000355006 0)
(-0.118419 -0.111075 0)
(3.04173e-05 -4.28778e-06 8.68648e-22)
(0.00392377 0.0956687 -6.86117e-20)
(0.000783472 -0.000600114 4.34601e-21)
(-0.0577451 -0.057166 -1.66614e-21)
(0.00023132 0.000168843 2.84352e-20)
(0.000909379 0.000613741 0)
(0.000107199 1.97162e-05 8.68481e-21)
(7.29051e-05 -0.000488073 -1.6255e-21)
(-0.0686716 -0.0259533 1.60234e-21)
(0.165833 -0.0172351 2.82949e-21)
(-0.00343983 -0.0018758 -2.82192e-21)
(7.14916e-05 -8.23772e-06 0)
(0.000326776 -0.000492185 -1.11807e-20)
(0.000762858 0.000439398 4.94402e-20)
(-0.00137691 -0.000866997 4.74363e-21)
(7.54087e-05 -1.34692e-06 -6.68426e-21)
(0.00181574 0.00185597 -9.22584e-21)
(-0.00321003 -0.0017455 2.93614e-20)
(0.189327 -0.011405 -1.26657e-20)
(0.000155325 2.36309e-05 0)
(0.00279586 -0.00164324 4.45547e-21)
(-0.00774228 0.0564179 -3.49503e-20)
(-0.00912514 0.0558105 -2.97647e-20)
(0.00374892 0.0398984 -6.53061e-22)
(0.000435633 0.00080216 -1.10471e-20)
(0.00019063 -2.00578e-05 -2.18978e-21)
(0.00237311 -0.00614931 -4.81594e-21)
(-0.0855606 -0.107539 0)
(-0.119065 0.0411742 -3.11034e-20)
(0.000438986 -0.00205656 1.65512e-20)
(0.000221383 0.000162094 0)
(0.0183701 0.0283946 3.34769e-20)
(-0.00019713 0.000481681 0)
(0.0452712 0.0228462 0)
(0.0170914 0.0282757 -2.08443e-20)
(0.00209489 0.00286247 0)
(6.91096e-05 -0.000296531 0)
(0.0194621 0.0210318 -2.77906e-20)
(0.016233 0.0292833 2.34563e-20)
(0.00158622 0.00220665 1.20158e-21)
(0.00410005 0.00144999 -6.00089e-20)
(0.000780502 0.00113471 0)
(0.140943 0.11713 4.11788e-20)
(0.00109549 0.000474074 0)
(0.00253075 0.00183133 -1.87084e-20)
(0.000427451 5.65897e-05 -9.40445e-22)
(0.00504145 -0.00100107 -1.08792e-20)
(-0.00654609 -0.159272 0)
(0.00620166 -0.0238457 1.97271e-20)
(0.000112025 7.33256e-06 -7.32806e-21)
(0.000161578 5.27436e-06 0)
(-0.0844021 -0.0534388 -7.90712e-21)
(0.000106694 -1.71108e-05 1.2522e-20)
(0.000249516 -9.70757e-05 0)
(0.000746032 0.00206744 0)
(0.00010718 1.01013e-05 5.10987e-21)
(0.000112062 -6.58088e-06 -6.84929e-21)
(2.90642e-05 -8.77253e-05 -2.32261e-22)
(0.0320365 -0.0029202 2.51333e-20)
(2.81191e-05 -8.45794e-05 2.27573e-22)
(-0.139292 0.0410949 0)
(-0.0221731 -0.136727 -1.13325e-20)
(-0.0149422 -0.127279 -1.22775e-21)
(3.59174e-05 6.6912e-07 1.0895e-21)
(-0.000726622 -0.00281949 0)
(0.0264367 -0.042095 3.01868e-20)
(0.000120379 -4.2464e-05 7.01208e-21)
(0.000446095 -0.0174269 -4.1532e-20)
(0.000107412 1.58042e-06 0)
(-0.0859846 -0.00633802 0)
(0.00011189 -6.79059e-06 3.13772e-20)
(3.32029e-05 -6.60405e-05 0)
(0.0942592 0.0536958 -2.2853e-21)
(3.60033e-05 -7.57062e-05 0)
(-0.0101007 -0.00388851 -4.94898e-22)
(0.0110737 0.0216924 0)
(0.0033793 -0.029208 2.65684e-20)
(0.000425372 4.97509e-05 8.26468e-22)
(0.000353382 -0.000990688 2.55057e-20)
(0.0302027 -0.0274356 5.40613e-22)
(-0.000241788 0.000380823 -2.69127e-20)
(0.000167225 -1.62142e-06 8.03527e-21)
(0.000812149 0.000277667 1.73064e-20)
(0.000236226 0.000265525 0)
(0.000200755 -0.00118359 -4.95711e-21)
(0.000712137 7.55295e-05 0)
(-0.0318673 0.0127502 2.46046e-20)
(-0.0309055 0.0185027 0)
(0.00072101 0.00034537 -2.15024e-20)
(3.89753e-05 -1.19839e-05 0)
(0.000163583 1.67903e-06 -2.96574e-20)
(0.00976076 -0.00224188 8.50935e-21)
(-0.0225099 -0.0862723 4.70784e-20)
(0.000444966 -0.000474395 4.99346e-21)
(7.23523e-05 -7.33365e-06 -4.80162e-21)
(-0.00493471 -0.0320467 -8.21505e-21)
(0.000189425 3.57272e-07 -1.7896e-20)
(0.000207666 0.000158822 0)
(0.0407537 0.0347662 5.48997e-21)
(0.0345822 0.0370512 1.52379e-21)
(-0.00769894 0.00357168 -6.20607e-21)
(0.00018033 -5.82857e-05 -7.75989e-21)
(-0.0419762 0.0959905 -5.23366e-22)
(0.000115872 8.56575e-06 1.10918e-20)
(0.000182499 -5.67433e-05 -3.26834e-20)
(0.0408206 0.0496273 -3.81361e-20)
(0.000229063 4.84987e-05 2.32172e-21)
(0.00329246 -0.000582278 2.11385e-22)
(0.0068195 0.0101418 8.41672e-22)
(0.000228678 0.000194321 0)
(0.000181316 0.000311864 -6.63087e-21)
(0.00209123 0.0029098 -1.28608e-20)
(0.00964199 0.0415004 0)
(0.026748 -0.0325806 2.74278e-20)
(0.000181375 -1.8469e-05 0)
(0.00128464 0.002154 0)
(0.00043271 0.000286193 -1.47712e-22)
(-0.0488676 -0.00283258 -1.86875e-21)
(0.00027388 0.000303178 3.22322e-20)
(-0.00174601 -0.00154437 3.69759e-20)
(2.81293e-05 -8.36847e-05 9.27238e-23)
(7.60844e-05 -1.84986e-06 -3.46937e-21)
(1.79491e-05 9.43437e-06 1.00492e-22)
(-0.0748579 0.033837 0)
(2.8005e-05 -8.68798e-05 -1.16793e-22)
(-0.00220704 -0.0949808 -4.50454e-20)
(0.00499783 -0.0126138 6.1483e-20)
(-0.0144202 -0.0251322 -3.40213e-21)
(0.0437195 0.14999 2.78537e-19)
(0.00255419 -0.0117962 -9.35546e-21)
(0.000208861 -2.28041e-05 -6.77359e-21)
(-0.00726761 0.00268113 0)
(-0.00893044 -0.00718375 5.2227e-21)
(0.000274679 -0.000110686 -1.65707e-20)
(0.000661413 0.000371145 -6.41173e-21)
(0.00129959 0.00183322 9.99673e-21)
(0.000195527 7.23946e-05 -1.10732e-20)
(0.000192679 -6.7165e-05 3.04401e-20)
(0.000314806 -0.000483406 1.00712e-20)
(-5.97628e-05 -0.000474187 1.84934e-20)
(0.000214678 2.68648e-05 -2.32221e-21)
(4.58674e-05 1.61672e-06 1.41739e-21)
(7.34473e-05 2.26602e-05 -4.11813e-21)
(0.0241759 0.0228306 -3.00702e-20)
(0.00869562 0.0314086 0)
(0.000200192 1.27918e-05 8.70659e-21)
(-0.0203565 -0.16607 6.30088e-20)
(-0.00275847 -0.00219707 0)
(-0.125004 0.0383333 4.73089e-20)
(-0.00292476 -0.00219827 0)
(8.29492e-05 -0.000114191 1.28264e-22)
(7.31802e-05 2.84247e-05 4.06096e-21)
(0.000135935 9.9685e-06 1.04023e-20)
(0.0783016 -0.0509711 2.54249e-20)
(0.000203767 -8.71511e-05 1.3374e-20)
(0.0141234 0.0257769 0)
(7.62976e-05 -8.60991e-08 -9.28325e-21)
(4.38203e-05 -5.29518e-06 2.70456e-22)
(0.000155542 -3.10667e-05 0)
(0.000922399 0.000581446 1.64259e-20)
(0.00780825 0.0117812 5.08312e-20)
(0.000201932 -9.8743e-06 0)
(0.0146806 0.0303938 0)
(-0.0288045 0.0337546 0)
(0.0018798 -0.00088262 6.95056e-21)
(0.000210954 5.60528e-05 -1.29134e-20)
(-0.0166994 -0.0229749 -6.42453e-21)
(0.000316328 -0.000382033 -1.34485e-20)
(0.0243894 0.0394182 -2.67104e-20)
(0.000188535 -3.85624e-05 2.3662e-20)
(0.00248226 -0.00136764 1.85334e-20)
(0.000348367 4.54198e-05 0)
(0.0384994 0.0912154 -5.82716e-20)
(0.000190156 -8.67401e-05 1.57897e-20)
(0.00012682 2.19038e-05 -1.05563e-20)
(5.71871e-05 -1.4154e-05 8.71977e-22)
(0.0437737 0.0301459 0)
(1.76034e-05 9.62329e-07 0)
(0.0236867 -0.0399192 1.83325e-21)
(0.000333922 -0.000519677 0)
(0.00701957 -0.105467 0)
(0.00327648 0.00134511 -3.34339e-20)
(0.00015681 -0.00158595 -7.24651e-21)
(0.00156133 -0.000598571 -1.14173e-20)
(-0.0869127 -0.0883076 2.32384e-20)
(-0.00605061 -0.0308674 -3.42434e-21)
(-3.46474e-06 -0.000899302 2.50838e-21)
(0.000462982 -7.02707e-07 -1.52142e-20)
(2.04584e-05 -8.47567e-05 -3.56938e-22)
(0.00261677 -0.000951038 1.95962e-20)
(0.00997809 0.0587732 2.92948e-24)
(2.78822e-05 -9.41679e-05 3.28091e-22)
(8.0599e-05 -0.000118164 0)
(0.000163295 -1.48026e-05 4.78804e-21)
(4.10174e-05 2.99354e-06 -1.80673e-20)
(-0.00603415 0.00512307 1.25872e-20)
(0.00010025 2.5789e-07 0)
(0.000423012 0.000603332 0)
(0.000271107 -5.56671e-05 1.28777e-20)
(-0.0316574 0.0559933 3.82996e-20)
(0.000211253 7.82339e-05 2.05094e-20)
(3.60422e-05 4.04949e-06 0)
(0.000216317 0.000610862 0)
(-0.0042662 0.0041947 -1.42629e-20)
(9.9815e-05 -6.30974e-07 -9.15376e-21)
(0.000281017 -5.12338e-05 0)
(3.19006e-05 -4.64059e-05 1.04178e-22)
(0.000216349 0.000101079 5.92478e-20)
(0.0212125 0.0118664 0)
(-0.0645231 0.217721 -2.81977e-21)
(3.6958e-05 -5.74418e-05 -1.21423e-22)
(0.00037419 2.19837e-05 4.12898e-20)
(0.00556649 -0.0062495 0)
(0.0285119 0.0174012 -1.00821e-20)
(0.00121879 0.00022046 3.81924e-20)
(0.0432884 0.07884 -3.57931e-20)
(2.65561e-05 -2.67048e-05 7.89734e-23)
(-0.163621 0.236729 -3.37879e-20)
(-0.000365157 -0.00996328 1.6316e-20)
(0.00139681 -0.00109115 0)
(0.0231508 0.0614851 -1.62723e-21)
(0.0398309 0.0334463 8.56152e-21)
(0.00015258 -4.47749e-06 0)
(1.13283e-05 -3.14275e-06 2.63419e-23)
(0.000165048 3.51703e-05 1.78088e-20)
(0.0478715 -0.0248396 5.71314e-20)
(9.37605e-06 1.32685e-05 -2.82867e-22)
(1.20061e-06 3.33658e-05 1.4853e-22)
(0.000869542 0.000464941 1.70286e-20)
(2.87722e-05 5.33127e-05 -3.83601e-23)
(0.00108198 -0.000852447 7.07754e-20)
(0.000174478 -1.06493e-05 2.38873e-20)
(7.80203e-05 1.83733e-06 5.88487e-21)
(0.0446725 0.0419815 -6.31019e-20)
(-0.0273124 0.0460166 0)
(2.80804e-05 5.00138e-05 8.9988e-22)
(0.000374922 0.000380222 -7.53051e-21)
(-0.00134844 0.0489596 -1.77417e-22)
(-0.0219154 -0.00661572 0)
(1.79634e-05 2.06339e-07 2.16306e-22)
(3.66337e-05 -3.34255e-05 0)
(-0.0381322 0.0767486 -1.11487e-19)
(0.000771722 -3.11911e-05 1.14314e-20)
(0.000168723 0.000156525 0)
(0.000112494 -2.90032e-06 9.42847e-21)
(-0.00141159 -0.00156635 1.02979e-20)
(0.000157597 -2.77435e-05 0)
(4.0232e-05 -5.29606e-05 2.70046e-23)
(-0.0148421 -0.0530204 0)
(-0.0502534 -0.0447361 2.82125e-20)
(0.000364195 -0.00394405 -1.16564e-20)
(0.000153704 -4.09094e-06 1.06876e-20)
(0.000244394 -8.67977e-05 -1.93614e-20)
(3.25281e-05 -6.29855e-05 0)
(3.80836e-05 -4.91855e-05 0)
(0.0133523 -0.00135931 0)
(0.0012687 -0.000245037 4.22918e-20)
(4.31369e-05 -1.67472e-06 0)
(0.000216888 -1.25908e-06 0)
(-0.022868 0.00965309 1.65365e-20)
(0.000121297 -3.46054e-06 0)
(0.000415011 7.42856e-05 -6.83109e-21)
(-1.64939e-05 -0.00017069 2.27448e-20)
(0.0410165 -0.0390814 -4.84979e-20)
(0.126043 -0.0772447 0)
(0.0321497 -0.00366744 0)
(-0.151903 0.0385766 0)
(0.0852733 -0.0543928 0)
(-0.107891 0.0175846 0)
(-0.0901692 -0.00472614 -1.91119e-20)
(0.000347058 0.0001605 1.57726e-20)
(-0.00955111 -0.00381582 1.23511e-22)
(-0.0249534 -0.153585 0)
(-0.000234848 0.000544525 0)
(0.00245916 -0.0267739 0)
(0.000729894 0.00181971 2.54292e-23)
(0.0130753 -0.000961784 3.90166e-21)
(0.00044269 -0.000519014 0)
(0.000214413 9.28937e-05 -4.97559e-20)
(4.57481e-05 -7.52928e-06 0)
(2.45375e-05 -1.0188e-05 -5.41687e-24)
(-0.0052693 0.00151628 0)
(-0.00224327 0.00721498 -4.01638e-21)
(0.000194086 5.64026e-05 2.63751e-21)
(0.000431133 8.81873e-05 8.14285e-21)
(0.000389354 0.000610507 6.0887e-21)
(1.89729e-05 3.10656e-06 0)
(4.16356e-05 2.68141e-06 -2.94067e-21)
(8.37978e-05 -1.85601e-05 0)
(0.0027684 0.00111299 3.54701e-20)
(0.00649836 -0.0020271 4.13121e-20)
(-0.00350506 0.00457054 0)
(-0.00124288 -0.00149065 0)
(0.000199581 -7.00957e-05 -1.54457e-20)
(0.0188937 0.00152031 -3.39588e-21)
(0.000409202 0.000448315 0)
(0.0110798 -0.00504862 1.73013e-21)
(0.000179444 1.34061e-06 -1.37563e-20)
(-0.00591716 0.00206557 0)
(0.000913036 -0.00100426 -8.80743e-23)
(0.110187 -0.012312 0)
(0.000162715 -4.07946e-06 5.1069e-21)
(5.23163e-05 -0.00370701 1.24232e-20)
(2.95952e-05 -2.79765e-06 9.21439e-23)
(4.30397e-05 -0.000976765 -7.99939e-21)
(0.0627634 -0.190233 -1.32351e-20)
(0.0046914 0.0115234 -2.36141e-20)
(-0.000160254 0.00323245 0)
(-0.070452 0.17895 1.44232e-21)
(0.000265874 -0.000119494 2.02211e-20)
(-0.00788926 -0.0164002 0)
(-0.00519158 -0.00696939 5.8216e-21)
(0.0466262 -0.0323629 2.23629e-20)
(2.34712e-05 -3.6004e-05 1.5206e-21)
(0.0011157 0.003299 2.57104e-20)
(9.37761e-05 -4.58269e-06 -1.53484e-20)
(0.000178516 -1.57229e-05 -2.42443e-21)
(1.15102e-05 0.000323652 0)
(0.00020637 -3.789e-05 -2.4438e-20)
(-0.00296563 -0.0520236 3.91134e-20)
(0.0061159 -0.0754325 -4.5111e-20)
(0.00487523 0.0121953 2.19711e-20)
(-0.000353628 -0.000667995 0)
(0.00248682 0.00277421 -6.6086e-20)
(0.000182079 0.00025388 -4.14205e-21)
(0.000224813 0.000111508 -9.72928e-21)
(0.00342655 0.00168191 5.02805e-20)
(0.000155787 0.000181381 -1.61057e-20)
(0.00131019 0.000664569 0)
(0.0807167 -0.02935 0)
(-0.00102749 -0.00366886 0)
(0.000311549 0.000265605 0)
(-3.16178e-06 0.000472137 0)
(0.00018773 -5.35398e-05 -7.90305e-21)
(-0.000861416 -0.00360056 1.09357e-20)
(-0.0188227 -0.0331026 0)
(0.00123667 0.000596208 -1.84761e-20)
(0.000162782 7.81092e-06 -3.67654e-20)
(0.000185905 -5.69156e-06 -2.64187e-20)
(7.3763e-05 -1.1507e-06 0)
(0.0530655 -0.0539278 -1.31778e-20)
(0.0169095 0.0394364 1.56389e-20)
(0.0381 -0.0154525 -7.98765e-21)
(0.000370499 7.43673e-05 -2.41309e-20)
(0.102476 -0.0679342 -1.06526e-20)
(0.00024364 0.000261575 2.5941e-20)
(0.00249024 0.00231326 1.74161e-20)
(0.080257 -0.0573165 -9.98902e-22)
(-0.0241503 0.0141287 -3.79702e-20)
(-0.0044802 -0.050693 -7.84593e-20)
(-0.132414 0.0368222 0)
(0.00158196 0.0029145 -7.75593e-21)
(0.000162103 0.000144925 2.10965e-20)
(0.000168739 -9.08934e-05 1.39024e-20)
(3.34266e-05 1.19151e-05 3.61938e-24)
(0.000185475 -9.92805e-06 0)
(0.0549658 -0.00653489 -3.0781e-20)
(-0.00651547 -0.0041191 9.98217e-21)
(0.107242 -0.10718 1.10254e-20)
(-0.157446 0.137628 0)
(0.00121342 0.00678691 0)
(0.110092 -0.0575394 1.17468e-20)
(2.61453e-05 1.28615e-05 0)
(4.30116e-05 -9.8815e-06 -2.73759e-21)
(-0.00551994 -0.00526906 -4.97122e-21)
(0.000152333 0.000880951 0)
(-0.00194059 -0.00543039 -5.37635e-21)
(0.0211435 0.0318335 0)
(-0.00541423 -0.0101857 -4.31253e-22)
(0.015363 0.0297095 -1.6358e-20)
(0.000294413 0.000309002 0)
(0.00276472 0.0022831 6.06598e-20)
(3.21329e-05 -8.4481e-07 9.6321e-23)
(2.04255e-05 -1.40783e-05 0)
(-0.160692 0.149497 2.70203e-21)
(6.24547e-05 -0.000733709 9.18228e-21)
(0.00654775 -0.0035099 -6.63611e-20)
(0.000552653 -0.00147275 0)
(0.000168941 -8.62403e-05 3.74166e-21)
(-0.0376546 0.0287106 2.15244e-20)
(7.24285e-05 -8.53095e-05 0)
(1.54961e-05 -1.83213e-05 0)
(0.0337971 0.020216 4.11127e-20)
(0.032428 0.0120538 2.98534e-20)
(0.000113027 -0.000230312 -3.75487e-21)
(0.0162137 -0.088431 -2.20235e-21)
(0.000136383 -6.35534e-05 0)
(0.00710401 -0.00920744 2.74552e-20)
(0.0342854 0.0309114 -6.8725e-21)
(5.76768e-05 -1.62999e-05 -3.40548e-21)
(0.000207386 9.25103e-07 4.54286e-21)
(-0.224636 0.194955 2.47274e-20)
(2.85972e-05 0.000683067 -2.34985e-20)
(0.0026021 0.00572861 0)
(5.01219e-06 2.57761e-05 1.74438e-22)
(0.000628612 5.1927e-05 -3.09009e-20)
(0.00186886 -0.00582544 0)
(3.61781e-06 2.15696e-05 1.29475e-22)
(-0.0646171 -0.0568245 -2.42563e-21)
(0.000262663 3.7816e-06 0)
(0.0165662 0.073113 0)
(0.0109835 0.0572143 0)
(0.00418618 0.00236244 1.00264e-19)
(0.000273296 5.30695e-05 -2.93436e-20)
(0.0013336 0.000849315 0)
(-4.83741e-05 -0.000223749 0)
(-0.000799778 0.000339625 0)
(0.0290421 0.028131 0)
(-0.00485216 0.00481533 -8.36851e-21)
(0.000263544 -0.000782592 0)
(0.00648179 0.00588135 -7.58275e-22)
(8.08959e-06 -4.3175e-07 3.1876e-22)
(0.000165183 -6.08685e-05 5.9282e-20)
(0.00010559 9.21893e-06 1.02699e-20)
(-0.0560295 -0.0178804 2.28931e-20)
(0.000321904 1.9675e-05 2.4878e-20)
(0.0476622 -0.043414 9.0045e-21)
(6.52242e-05 6.16951e-06 -7.06702e-21)
(-0.0136851 -0.0295883 -3.47076e-21)
(-0.00481265 -0.0133778 2.76696e-20)
(0.000281981 0.000337564 -2.76742e-20)
(0.000159616 1.09661e-05 0)
(0.000164989 5.47456e-06 0)
(0.0391741 -0.0239133 0)
(0.000158263 0.0288051 -2.1474e-21)
(0.0995839 -0.0220844 4.44961e-22)
(0.000117723 -3.3434e-05 4.94798e-23)
(-0.00884294 -0.00458726 -1.56317e-20)
(0.000149314 -6.61846e-06 0)
(0.000218831 -6.73523e-05 3.00314e-20)
(-0.012947 0.00695724 0)
(2.71872e-05 -3.37843e-05 -8.07303e-22)
(-0.0013984 -0.013409 -2.90893e-21)
(0.00353421 -0.10021 5.21899e-20)
(0.0231013 -0.0756721 0)
(0.00190728 0.00113545 1.12942e-20)
(5.50014e-05 -2.27718e-07 -5.86316e-25)
(-0.00764511 -0.0157104 0)
(0.00202011 0.000702057 4.22557e-21)
(0.000143987 -1.73913e-05 0)
(0.000491489 0.00157662 -1.04044e-20)
(0.000177628 -3.65637e-06 2.72967e-20)
(0.0210045 0.00354254 3.72636e-20)
(0.0015694 0.00109897 -1.12405e-20)
(-0.00206086 -0.00433353 0)
(-0.00455872 0.0607285 1.66256e-20)
(-0.0593997 -0.0124528 0)
(0.00020623 -2.17044e-05 -2.74402e-21)
(-0.110381 -0.0966258 0)
(-0.0568488 0.0729354 9.50601e-21)
(0.000192869 1.02754e-05 0)
(-0.00297607 -0.0126098 2.54582e-21)
(0.00016485 -4.25206e-05 -4.47681e-20)
(0.000211518 1.58389e-05 2.52849e-21)
(-0.149664 0.362354 -2.60346e-20)
(0.00530932 -0.00596651 0)
(0.00169944 0.0023698 -1.43018e-20)
(0.00224614 0.00107064 0)
(-0.000864405 0.000327287 -1.50439e-20)
(0.12677 -0.0583017 -4.09099e-21)
(-0.0170574 -0.052032 1.27443e-20)
(0.000410269 -0.0104499 0)
(0.000295002 -0.000547615 3.70414e-21)
(-0.00565592 -0.00437638 6.08475e-21)
(0.000153038 -7.49682e-06 -2.08197e-23)
(-0.032626 0.0064103 0)
(0.000291097 0.000152899 1.42815e-20)
(3.68347e-05 -4.10777e-05 -3.50342e-23)
(0.0496643 0.00314007 2.86179e-20)
(0.000137722 3.26005e-05 1.84927e-20)
(0.000164186 0.000139849 3.08326e-20)
(0.000105425 1.8109e-06 1.46322e-20)
(-0.0422334 0.0509012 -1.2764e-22)
(0.00479584 -0.00132903 4.92374e-21)
(0.000605971 0.000751085 1.20282e-20)
(0.000382777 3.29734e-05 0)
(-0.00263485 -0.0322453 0)
(5.12931e-05 -2.65856e-06 1.2476e-21)
(8.15385e-05 -1.31225e-05 0)
(0.000770461 0.0480003 3.02864e-22)
(-0.00578674 -0.000198169 -1.24155e-20)
(-0.159191 0.0298599 0)
(0.00142292 0.000985222 0)
(0.000270998 -0.00022827 -2.41158e-20)
(0.00011527 -4.89487e-05 0)
(0.000294683 0.00152421 4.65872e-21)
(0.000130471 -0.000620382 0)
(0.00228816 -0.0017543 4.32872e-20)
(0.00064578 0.000520274 2.55141e-22)
(0.000195565 -6.65346e-06 0)
(2.86492e-05 -6.06573e-06 0)
(-0.0122584 -0.0224501 1.55185e-20)
(9.33433e-05 -3.41302e-06 1.19365e-20)
(-0.00598068 0.0617202 0)
(0.000238603 -8.19815e-06 -3.03957e-20)
(0.00212546 0.0321999 -2.05993e-20)
(-0.0204947 0.0148088 -5.24651e-21)
(0.00206267 0.00138882 0)
(3.43275e-05 0.000736532 0)
(0.0724903 -0.0230428 0)
(-0.080781 0.00304573 -4.76179e-21)
(0.0131068 0.171267 -2.63444e-20)
(0.0175737 -0.00197877 1.87612e-21)
(0.000251343 1.88757e-05 2.8175e-20)
(0.00198902 0.00138459 -5.62788e-20)
(6.01988e-05 -6.77338e-06 0)
(6.97189e-05 1.809e-05 8.93138e-21)
(0.000509647 0.000207375 -3.39536e-21)
(8.57721e-05 -0.000106523 1.63441e-20)
(0.0121788 0.033112 0)
(0.015538 0.022928 1.03528e-19)
(0.0180797 -0.0982846 0)
(-0.0662635 -0.130118 -5.45895e-20)
(-0.0522001 -0.110093 4.20858e-21)
(0.0335355 -0.0229646 -3.7857e-21)
(0.00014687 -0.000170799 0)
(-0.00872578 -0.00302023 -2.17244e-20)
(0.000179853 -2.34929e-05 -2.6867e-20)
(0.0010157 0.000269647 0)
(0.0108486 0.0107322 -5.50353e-20)
(-0.00666538 0.0566208 2.93083e-20)
(0.100624 -0.0247795 -3.66844e-20)
(0.0125384 0.000543593 6.14726e-20)
(0.0538634 0.0508577 3.86507e-21)
(0.00020154 0.000176201 -2.91354e-20)
(0.000208326 -1.67317e-05 1.86144e-20)
(-0.0336742 -0.0106862 0)
(-0.0100529 0.0371996 5.73733e-21)
(0.000242195 -0.000185936 0)
(-0.045854 -0.300899 -4.62188e-20)
(-0.00244522 -0.00112597 1.83199e-21)
(3.68823e-05 -0.000328094 -1.67993e-20)
(-0.00433349 -0.00184392 -2.28286e-21)
(0.000193325 -2.83376e-05 3.37421e-20)
(4.06444e-05 -2.72544e-06 0)
(-0.00599023 0.00317064 0)
(-0.0920968 -0.39149 6.47446e-21)
(0.0259021 0.0641183 -1.54843e-20)
(-0.0389023 0.00834347 0)
(-0.0266251 -0.0289446 -6.61789e-21)
(-0.0487232 0.116011 -1.3325e-21)
(-0.00751361 -0.017566 0)
(0.00252899 -0.000105934 -2.07635e-20)
(0.000122809 -3.3041e-05 0)
(0.00011967 2.2073e-05 0)
(-0.00430425 -0.0144645 4.00973e-21)
(0.0138531 0.129836 -1.97076e-20)
(0.000226478 0.000114826 -4.87272e-21)
(-0.00905529 0.0348643 1.52918e-20)
(0.000268859 0.0089917 -1.42008e-20)
(-0.000814983 0.0070962 1.2217e-20)
(0.00051238 0.0004134 6.67292e-21)
(0.0319961 -0.0326669 -2.19828e-20)
(0.0119578 0.00140117 -9.72904e-21)
(0.00214332 -0.0257153 1.95201e-20)
(0.0269231 -0.202757 1.01082e-20)
(-0.0197123 -0.0212646 0)
(0.00633172 -0.00285069 0)
(0.0102048 0.00114057 5.16175e-20)
(0.00883527 0.0246327 -3.124e-20)
(0.000187654 -0.000655799 -1.93271e-21)
(-5.90462e-05 -0.000636525 0)
(0.00119183 -0.000556419 0)
(0.0793542 0.0212226 3.36609e-20)
(-0.00473493 0.00388517 0)
(-0.00226903 0.0594999 -2.00156e-21)
(-0.191211 -0.438015 0)
(0.0257442 0.11454 1.10979e-20)
(1.61219e-05 8.77206e-06 -2.98025e-23)
(-0.00068042 0.000107682 1.52709e-22)
(4.06834e-05 -9.67874e-06 9.48138e-23)
(0.000171856 2.54286e-05 1.30195e-20)
(-0.00632738 -0.0186333 -5.03595e-20)
(-0.0135344 0.00663628 0)
(-0.00384683 0.00371681 0)
(0.000281653 4.6255e-05 -1.55891e-20)
(0.00034698 0.00010291 -1.5388e-20)
(0.00674229 0.0136223 5.70067e-21)
(4.55364e-05 -0.000571568 9.44316e-21)
(0.000157483 -1.54453e-06 3.49359e-20)
(0.0880903 0.12162 0)
(0.000273391 0.000310571 0)
(-0.0235951 0.0424795 0)
(7.8157e-05 1.73897e-05 -2.54966e-21)
(0.000144798 -1.17195e-05 -1.06173e-20)
(-0.0332135 -0.0290087 -1.35967e-20)
(-0.000280571 0.00982508 0)
(7.76239e-05 -4.89047e-06 -4.0122e-22)
(0.0125552 0.000633743 -1.85578e-20)
(-0.000542945 -0.039243 -3.83885e-20)
(0.00346075 -0.000301043 3.12361e-20)
(0.00136372 -0.000545625 0)
(-0.00456979 -0.00292268 0)
(0.00012777 0.00801283 0)
(-0.00417523 0.0870552 -5.39427e-20)
(0.000190565 -4.4473e-05 -2.72485e-20)
(0.000345331 5.38379e-05 8.47998e-21)
(0.000115316 -0.000104178 1.48356e-20)
(0.000120518 -0.000111102 -1.50526e-20)
(3.22555e-05 -3.64009e-05 3.03106e-23)
(7.37033e-05 -8.23712e-06 1.47337e-21)
(0.0359477 -0.0292098 -4.37566e-21)
(0.042626 0.0776223 -7.38103e-21)
(-0.0873898 -0.0715099 0)
(-0.0254928 -0.0379188 -5.42036e-21)
(0.0400511 -0.0373258 3.16124e-20)
(-0.141861 0.0335805 4.3105e-20)
(-0.0176862 -0.00545444 0)
(0.0546168 0.00525562 1.70726e-21)
(0.0165215 -0.0401453 0)
(0.0354251 0.093494 0)
(0.00169778 -0.000809228 -2.76591e-20)
(0.000177754 0.000975604 0)
(0.000114437 -0.000102167 -8.33169e-21)
(0.00117864 0.0100244 1.36902e-20)
(-0.0565742 0.0154447 3.73709e-22)
(-5.1523e-05 -0.000654538 -2.92237e-20)
(7.79564e-06 -7.53289e-07 4.48804e-22)
(0.00022328 9.97622e-05 0)
(0.00132497 0.00304533 0)
(-0.0229531 0.0566964 -4.25848e-20)
(0.000201022 6.8982e-05 0)
(0.000211658 -9.09215e-05 -1.58975e-20)
(-0.0159611 -0.00345505 -3.74269e-21)
(0.000130722 1.56332e-05 0)
(0.000309201 0.00103831 0)
(0.000227719 0.00015467 2.4711e-20)
(0.000148129 0.000299409 0)
(0.000171199 -3.70428e-05 -1.54454e-24)
(0.012413 0.0367177 0)
(0.00117064 -0.000516752 5.75632e-21)
(0.000167736 2.40003e-05 -2.68762e-20)
(-0.00785234 0.00507226 0)
(-0.0086368 -0.0198172 0)
(-0.0037949 -0.00206723 2.5534e-21)
(0.146605 -0.0185236 -2.76295e-20)
(0.000229801 4.48325e-06 0)
(-0.0607019 -0.00702282 1.48177e-21)
(5.32212e-05 1.4995e-05 -4.22948e-21)
(3.08801e-05 -4.19712e-06 0)
(0.0085868 0.0758431 -1.31417e-20)
(0.000336848 0.000181578 -3.92633e-23)
(0.0101466 -0.0852841 -3.61978e-20)
(-0.000235802 0.0413898 -2.99001e-20)
(2.48745e-05 1.07381e-08 0)
(0.000105778 -3.39432e-05 0)
(-0.00639344 0.0039599 4.35865e-21)
(-0.00311587 -0.00106934 1.66232e-20)
(0.00509224 6.29059e-05 7.73855e-21)
(0.000111205 1.62086e-06 1.05045e-20)
(0.000146595 -3.50278e-05 0)
(-0.00895948 0.0942468 2.68531e-20)
(0.000348944 -5.25246e-05 0)
(-0.00875258 0.0336855 0)
(0.000166693 7.50967e-07 3.20149e-20)
(0.019418 -0.00408669 -1.82432e-20)
(-9.39457e-05 -0.00061292 -1.80441e-20)
(1.58668e-05 -2.87705e-07 -2.88779e-22)
(-0.00516272 0.00240504 0)
(4.28142e-05 -0.000424737 -8.12328e-23)
(-0.00327283 0.000921064 0)
(6.83888e-05 -0.000122566 0)
(0.000289796 0.000304996 0)
(-0.000585946 -0.00392474 -5.10142e-21)
(-0.0003758 0.00224519 -2.95625e-23)
(-0.0339709 0.0332832 -2.23395e-20)
(-0.0549429 -0.0384516 -2.43477e-21)
(0.000168248 0.000251668 0)
(0.0336235 0.039273 -1.8275e-20)
(0.00186893 0.0045274 5.99435e-22)
(0.00112565 0.00244658 -5.96617e-21)
(0.000102891 -3.40283e-05 -3.61279e-21)
(0.0283514 -0.00895411 0)
(-0.00682274 0.00250301 0)
(0.000113133 -1.16991e-05 0)
(-0.00121881 -0.00351243 0)
(0.00578715 0.0128018 0)
(0.000215109 2.71375e-05 -2.1032e-20)
(0.0013681 0.00156714 5.02722e-23)
(0.000667519 7.83905e-05 0)
(0.0424005 -0.0357302 -4.54083e-20)
(0.000576403 0.000764391 0)