/*--------------------------------*- C++ -*----------------------------------*\
| =========                 |                                                 |
| \\      /  F ield         | OpenFOAM: The Open Source CFD Toolbox           |
|  \\    /   O peration     | Version:  v2012                                 |
|   \\  /    A nd           | Website:  www.openfoam.com                      |
|    \\/     M anipulation  |                                                 |
\*---------------------------------------------------------------------------*/
FoamFile
{
    version     2.0;
    format      ascii;
    class       volScalarField;
    location    "350";
    object      p;
}
// * * * * * * * * * * * * * * * * * * * * * * * * * * * * * * * * * * * * * //

dimensions      [0 2 -2 0 0 0 0];


internalField   nonuniform List<scalar> 
18166
(
0.00260221
0.00543899
0.00167373
-0.0288313
0.00332069
-0.0370183
0.00688413
0.00889843
0.00926643
0.00257019
0.0052585
0.00605416
-0.0191968
0.0116873
-0.00706044
0.00728276
-0.0775973
0.0055235
-0.0141264
-0.0136563
-0.00770718
0.00459246
-0.0139756
0.00213843
0.00173559
0.00460572
0.00899213
-0.00751411
0.00166034
0.00590105
2.93302e-05
-0.00380329
0.0137273
0.000637542
0.000633446
0.00133433
0.00569549
0.00223602
0.0113672
0.00787005
0.0101588
-0.0168567
0.00281162
-0.0137467
-0.000680789
0.00590751
0.00545889
-0.029065
0.000141165
-0.00489417
-0.0140721
-0.0825367
0.000102089
0.00863603
0.00587428
0.00351658
-0.0290034
0.00542712
0.00205758
0.00334631
0.00502745
0.00627061
0.00506713
0.00192688
0.00597033
0.00630844
0.00643099
0.00721229
-0.143519
0.00465277
-0.01859
-0.0278302
0.00678053
0.00813527
0.00460967
0.0125467
-0.0381733
-0.0033212
-0.0795065
0.0106553
-0.00731229
0.00777234
0.00157719
0.00443816
0.0059415
0.00505984
0.00370122
0.00213638
0.00578161
-0.032997
0.0043911
0.00477741
-0.0172971
0.00572047
0.00746477
-0.00191977
-0.0551432
0.00539988
0.00873439
-0.240103
0.0082874
0.00537159
0.00598151
-0.00726905
0.00450134
-0.0290841
0.00467132
0.0061969
0.000131586
0.00196047
-0.0725665
-0.00364066
-0.0704767
-0.134236
0.00150521
-0.011098
-0.0105965
0.0128577
0.0019436
0.00282584
0.00631784
0.00279469
0.012304
0.00614481
0.00532423
-0.00486416
-0.0048266
0.00510361
0.00486328
0.00235142
0.00687119
0.00153901
0.00494114
0.00823226
0.0131181
-0.0118959
0.00810701
-0.080067
0.00482825
0.00453512
0.00779223
0.00650276
-0.00850839
-0.00397454
0.000123764
-0.00113464
-0.00890672
0.00569412
0.00516742
-0.24309
0.00700406
-0.00831014
0.00509113
-0.0630794
-0.0487788
0.00521451
0.00738093
0.00996521
-0.0492329
0.00116138
0.00898257
0.00522491
-0.152235
0.00278599
0.00144592
0.00730467
0.00973141
0.00870291
-0.0614831
0.00733929
0.0066934
-0.0254031
0.00792187
0.0172185
0.00301563
-0.0322016
0.00506571
0.00270117
0.00359133
-0.00421937
0.00611524
0.004813
0.000920237
0.0224217
0.00780963
0.00455016
0.00846088
-0.00421793
0.00540094
0.00466546
0.00978201
0.00744494
0.0202201
0.0054091
0.00519434
-0.0637231
-0.0621676
0.00405501
0.0076741
0.00644388
0.00751794
0.00935627
-0.0592187
0.00146696
0.00337145
-0.0445816
0.00688417
-0.0326103
-0.0446314
0.00350257
0.00780351
-0.0434412
-0.0453288
0.0036078
-0.0145051
0.00798564
-0.0291358
0.00851899
0.00988375
0.00742748
0.00770412
7.8322e-05
0.00836644
0.00618091
0.00540277
-0.0142527
0.00624994
0.00743882
0.000356638
0.00615203
0.00571642
0.00292862
0.00567311
0.00297359
-0.064442
0.000833772
0.00165288
0.00371875
0.00707935
0.0126263
0.0062983
0.0101618
0.00569294
-0.0175782
0.00619725
0.00275025
-0.0575707
0.00278114
0.0111339
-0.0374973
0.00108412
0.00747922
0.00883882
0.0056877
0.00672828
0.00547982
0.00806917
0.00251192
0.00884638
-0.00186695
0.020665
0.02003
-0.00393246
0.00415866
0.00541686
0.0115287
0.040344
0.00863289
0.00455506
0.00684197
0.00633614
0.0032949
0.00952353
-0.00519915
0.00560451
0.0064761
-0.017851
0.00597244
0.00546707
-0.051499
0.0069343
0.00368764
-0.030794
0.00326403
0.00218093
0.00489371
-0.0492967
0.00626299
0.00631651
0.00951804
0.000193169
0.00171032
0.00124867
0.00545884
0.00283956
0.00455312
0.00105739
-0.0227136
0.00287383
0.0399096
0.00215448
0.0125534
-0.152548
0.0114536
0.00590626
0.00526089
0.0236753
0.00768549
0.00536187
0.00942187
0.00559609
0.00528932
0.00110944
0.00862662
0.00689865
0.00337641
0.00472502
-0.045214
-0.0495555
0.00634939
0.02686
0.0066351
-0.0600773
0.00700945
0.0058321
0.0047648
0.00549807
-0.0011982
0.00548657
-0.044462
0.00467376
0.00319516
0.00628716
0.00835047
-0.0296571
0.00512148
-0.0433953
0.0195875
0.00749388
0.00635224
0.0122809
0.00105872
-0.0448236
0.0054109
-0.00529606
0.00173476
-0.0842879
0.00215808
0.00659343
0.00455866
0.0099639
0.00134505
0.0137802
0.000826301
0.0368496
-0.0147961
0.00898755
0.00740575
0.00292888
0.0225948
0.00685399
0.00781554
0.00290012
-0.00544214
0.00416792
0.00290251
0.0057979
0.00546368
0.00786808
0.0123723
0.00617572
0.00777111
0.00740518
-0.0635529
0.00634144
0.00370621
0.00556624
0.00564711
0.0061653
0.00188892
0.00268637
0.00415378
-0.033287
-0.0498401
0.00270762
0.00124151
0.0076501
-0.0328876
-0.00760016
-0.0840245
0.00265024
0.000579806
0.00602639
-0.00295709
-0.0084247
-0.0329409
0.00575118
0.00260783
0.00545669
-0.00648742
0.00257078
0.00252795
0.00826845
0.00360744
-0.00305001
0.00625384
0.00470737
0.00729234
-0.0152928
0.00361957
0.00545313
-0.0124484
0.00598746
0.00130571
9.89258e-05
-0.0682117
-0.00234378
0.00432892
0.00601271
0.00530433
0.0062854
0.000133002
0.00583985
0.00390483
0.00728163
0.00576043
0.00234805
5.8687e-05
5.91041e-05
0.00751232
-0.00332577
0.00194763
0.00595497
0.00593029
0.00589002
0.00731908
0.00793312
0.00789965
-0.0202253
0.00744892
-0.0660025
0.00165883
0.0307407
0.0288027
0.00669306
0.0065708
0.0266573
0.0071227
0.00673888
0.000396141
0.00776104
0.00844007
0.00425229
0.00191056
0.000108115
0.0105625
0.00526949
0.00637507
0.00726192
0.00784033
0.00100998
0.00376175
0.00556707
-0.013713
-0.00772676
0.00545384
0.0046836
0.00527864
0.00723824
0.00732143
0.00480669
0.00521073
0.0113923
0.0051189
-0.0507146
0.00544182
0.00727951
0.00181874
0.00684588
-0.0142562
0.0130513
0.00376943
-0.038112
0.00769929
0.012529
0.00706464
0.0101372
0.00315242
0.0100187
0.00562147
0.00631305
0.00782247
0.00589502
0.0220948
0.00426653
0.0129146
0.00874434
-0.0187265
0.00331722
0.00380532
-0.00905538
0.00364323
-0.00666374
-0.00426816
0.00710342
0.000817026
0.00786555
0.00649714
0.00726043
0.00683115
0.00855305
0.00596348
0.00624593
0.00464231
0.0151083
-0.0503391
0.00564847
0.00146325
-0.00651235
0.00233138
0.00979712
0.00291375
0.00565135
0.0233782
-0.0618563
0.00509555
0.00351993
0.00525156
0.00218618
0.00621972
-0.00914299
0.0104674
-0.01723
0.00636965
0.00476537
-0.0131083
0.00225899
0.00422667
0.0107138
0.00781646
0.00720409
-0.0373173
0.00715078
-0.050506
0.000920152
-0.0178416
0.00177028
0.002625
0.0176733
0.00673784
-0.00617115
0.00704622
0.00651348
0.0199974
0.000156717
0.00263499
-0.0302972
-0.0327703
0.00770149
0.00439321
0.00523678
0.00249177
0.00884924
0.00435375
0.0069031
-0.147094
0.00740414
0.00520905
0.0025439
-0.000930897
0.00736904
0.00255428
0.00075627
0.00720199
-0.0173074
-0.0141072
-0.0155139
0.0065943
-0.0072079
0.00810651
0.00840677
-0.00240818
0.0120089
0.00695986
5.62962e-05
0.00265232
0.00561323
0.00615458
0.0284713
0.00165004
-0.0290847
0.00502373
0.0125859
0.0117292
0.000879709
0.0055284
0.00566732
0.00498989
-0.0540663
0.000116698
0.00587879
0.0126884
0.00565073
0.00584498
0.016062
0.00316279
0.00532322
0.00332497
0.0184616
0.00769698
0.00510079
0.00584057
0.00942016
0.00625676
0.00547348
0.00625901
-0.0120639
0.00768496
0.00703377
-0.00749436
0.0275807
0.00520257
0.0221269
-0.0688991
0.00629374
0.00502369
0.00558059
0.00693841
-0.242494
0.00551201
0.00992973
0.00950346
0.00849283
-0.0866076
0.026759
0.00636281
0.00492751
0.00655372
0.00574433
0.00318328
0.00660017
0.000152396
-0.0215875
0.00542363
0.00424117
0.00622549
-0.0191708
0.00762261
0.00774769
0.000147716
0.0164691
0.00332766
0.00496678
-0.011171
0.00653574
-0.0643683
-0.00809995
0.000808955
0.00584548
0.00550142
0.00673928
-0.00575943
-0.00377607
0.00510125
0.000152083
0.012815
0.00565493
-0.00930651
0.00593908
-0.049039
0.00527213
0.00943769
0.00763449
-0.0514162
0.000842911
-0.0256818
0.00755378
0.00713972
-0.012253
0.00493509
0.00470391
0.00536141
0.0059496
-0.0515798
-0.0356793
0.0390988
0.00156762
-0.00514299
0.00140702
0.00782938
0.0124608
0.00626028
0.00522938
-0.0314176
-0.061483
-0.00714472
-0.0159812
0.00770838
0.00339674
0.00592753
0.0239434
0.00178966
0.00782365
0.00418075
0.00454181
0.00802093
0.0100716
0.00586926
0.00316219
0.011619
0.00568147
-0.0569305
0.020606
0.011623
-0.02883
0.0136395
-0.00590596
0.00531471
0.00548102
0.0110854
0.0109998
0.00360686
-0.060411
0.0125062
0.00520539
0.00542836
0.0164029
-0.015685
0.0152555
-0.0171929
0.0121769
0.00538511
-0.0168015
-0.0431343
0.0048924
0.00884554
-0.00341322
-0.0475526
0.0115227
0.000761371
-0.00211902
-0.0223738
0.00240798
0.0083866
0.00422722
0.00600487
0.0128468
0.00557659
0.0112878
0.00191084
0.00668026
0.0126681
0.00666601
0.00587831
-0.117312
0.00134995
-0.0119181
0.00466038
0.0062517
0.0253734
0.00499739
0.00542653
-0.0154474
0.0262682
-0.00856865
0.007282
0.0102505
0.0119234
-0.0856311
0.00534834
0.00688791
0.0068362
0.00671592
0.000128723
0.00539609
0.00486257
-0.017359
0.000729947
0.025306
0.00270936
-0.0629148
0.0114203
-0.0326732
0.0132265
-0.0192746
-0.00605689
0.00803734
0.00687799
0.0127269
-0.0164395
0.00872982
0.00265533
0.00393323
0.0100615
-0.0628529
0.00638786
0.00544776
0.0111223
0.00664624
0.00817188
0.00351854
0.00340475
0.00512488
-0.0516841
0.00722549
0.0059777
0.00533021
0.00584676
0.0100037
-0.0214969
0.00376963
0.00208975
0.00465462
0.00305782
-0.0242503
0.000174679
0.00475138
-0.0535669
0.00142836
0.00639574
0.0121817
0.00945327
0.0107599
0.00608617
0.00509811
-0.0897373
0.00746992
0.0153412
0.00618681
0.0128996
0.00864024
0.00274247
0.0108632
0.00666516
0.00439274
0.00565141
0.00117584
0.0105534
0.00388566
0.0191429
-0.00155507
0.00327749
-0.0589329
0.000341808
0.00801849
0.00564749
0.00797355
0.0114926
0.00602047
0.0106709
0.006908
0.00618407
0.000270351
-0.00154636
0.00438293
0.00779274
-0.0035024
-0.0222125
0.00611598
-0.00718193
0.000967067
0.00791732
-0.00592205
0.000838683
-0.0173821
0.00561861
0.00698087
0.0245782
-0.0686317
-0.00470708
0.00618943
0.00963748
0.00656217
-6.50582e-05
0.00591613
0.00158305
0.0215594
0.0125235
0.00446525
0.00545577
0.00672947
-0.154906
0.00857889
-0.207357
0.00622729
-0.0257486
0.0133992
0.0122192
0.00876097
-0.0101426
-0.028754
-0.0248854
0.00919356
0.00378316
0.0131585
0.00565158
0.0051443
0.00100037
-0.00875157
0.00862728
0.00609131
0.00747006
0.00547423
0.000926103
0.00889839
-0.0695332
0.00674363
-0.0340118
-0.103574
0.0127966
-0.0454589
0.00351688
0.00551994
-0.00215634
0.00281222
-0.000304476
-0.0281252
0.0337085
0.00653625
0.00576862
-0.000136538
-0.0478354
-0.000322514
-0.00796617
0.00514269
-0.0520364
0.00620144
0.00774633
0.00689918
0.0047146
0.0107022
0.00154008
-0.0268146
0.00545451
-0.0263167
0.00891268
-0.00321023
0.0291591
0.0115258
-0.0652049
-0.00783687
0.00503774
-0.197388
0.0112226
0.0124053
0.00412922
0.00814751
0.00866571
0.0198022
0.00511626
-0.0515337
-0.00705587
-0.00886391
0.0282753
0.00350176
-0.0308383
0.005656
0.0108952
0.00172454
0.00362479
0.0076014
-0.0898588
-0.00321783
-0.036916
-0.00431256
0.00380023
-0.0459661
0.00139678
0.00473714
-0.00363162
-0.00664887
-0.0267088
0.0110578
0.00695959
0.0200164
-0.000980884
0.00270605
0.00522124
-0.00406882
0.00956611
-0.0490181
0.0113537
0.0114115
-0.00975179
0.00874422
-0.00358561
0.00395981
0.0121956
0.00846486
-0.00744805
-0.0343264
0.00125558
0.0099706
-0.00596591
0.00570019
0.0104989
-0.0901736
0.00779032
0.00569306
0.0122238
0.0118838
0.00134367
-0.0146424
-0.00120397
0.000178272
0.00574294
0.00548665
0.00515021
0.00624215
0.0105
0.00240188
0.000382129
0.0014209
0.00659364
-0.139575
0.00682933
0.0038133
0.00186081
0.00965586
0.00290211
0.00975188
-0.0236182
0.00296686
0.00858449
0.00142961
-0.0107903
0.00245291
0.00674974
0.00484737
0.00261821
0.0120002
-0.0666112
-0.0296182
0.00447901
0.00498418
0.0056179
-0.0064383
0.00177967
-0.052533
0.000274892
-0.0299937
0.012146
0.00454732
0.00786784
0.00788122
0.0299808
0.00660259
0.000551909
0.00505748
-0.132127
0.00346107
0.00233428
0.00409569
0.00481415
0.00604652
0.00014716
0.00344768
0.0212682
0.00732136
-0.025286
-0.00207653
0.023178
0.00431622
0.00881496
-0.000762981
-0.0283275
-0.0344551
0.000820056
0.0292195
0.00579543
0.0116509
0.0102385
-0.00128032
0.00973986
0.00433147
0.00853569
-0.0127677
-0.0116388
-0.00654268
0.00852412
-0.0145931
-0.0453022
-0.0148115
-0.0438663
0.0100042
0.00459054
-0.0245912
0.00352907
0.00481954
0.00805362
0.00658868
-0.0855493
0.00807001
-0.168362
0.00427044
0.00673249
0.00669683
0.00357686
0.0117962
0.00653187
-0.000645632
0.00557229
0.00628521
0.00515981
-0.00016095
0.00776827
-0.0290265
0.0108259
-0.177799
0.00582376
0.00500397
0.00128967
-0.0145174
0.00886663
0.00782602
-0.0228604
0.000590625
0.00110178
0.0119778
0.00366273
0.00306625
0.00307458
0.00763584
-0.0237566
0.0103356
0.00596616
0.00675852
0.00437019
0.0116634
0.00497589
0.00279708
0.00765634
-0.0325683
-0.0919448
-0.00362697
0.00632024
0.00733101
0.00511239
0.0367146
0.0144741
0.00861448
0.0274899
-0.0262207
0.0120183
0.00658294
0.00553755
-0.0463225
0.00491481
0.00517689
-0.00631233
0.00469391
-0.00653553
0.00497545
0.0376204
0.00653081
-0.0287075
-0.0538232
0.00757849
-0.0605102
0.0119124
0.0024808
-0.00154401
0.00540911
0.00591072
0.00448597
-0.0459083
0.007651
0.00714182
0.00556505
0.00423059
-0.00351203
-0.000577686
-0.047551
-0.00710203
0.00263276
0.00580781
0.0283738
-0.127967
0.00296627
0.00950747
0.0154056
0.00237789
0.00779868
0.00244529
-0.037431
0.0057196
0.00528635
0.00483511
0.0088189
0.00520099
0.00719781
0.0108934
0.00456999
0.00805214
-0.110072
-0.0584804
-0.0149389
0.0024129
0.00693633
-0.000211948
0.00167866
0.00248094
-0.00873578
-0.0088353
-0.0111092
0.00653328
0.00721288
0.00189841
-0.0285003
0.00404323
-0.0117068
-0.0952601
0.0082314
0.00387417
0.00761638
-0.00836602
0.00471837
0.00418608
-0.0111797
0.00632056
0.00488214
0.0039785
-0.0168815
0.00660103
0.00592743
0.00652631
-0.0123566
-0.230422
0.00320055
0.00541189
0.00537871
-0.0551847
0.00547
-0.0923201
0.00653454
0.0046176
-0.0315975
0.00617463
0.00969003
-0.046267
-0.0614611
0.000706931
0.00905685
0.00907358
0.00225425
0.00545498
0.0004892
0.00714698
-0.0155167
0.00563756
0.0042425
-0.0537578
-0.0220462
0.002288
0.00562904
0.00673017
0.000970301
-0.0370483
-0.00576441
0.00181504
-0.0171485
0.00530856
0.0112799
0.00115231
-0.0175025
-0.000846812
0.00562185
0.00451483
-0.00121924
-0.139787
0.00501996
0.00488441
0.00233596
0.0070231
0.004477
0.0061776
0.0152037
0.0179898
0.00408464
-0.00266718
0.00252932
0.00614767
0.00504744
-0.0212014
0.0097604
0.0060434
0.00582652
0.0358906
0.00237057
0.00630194
0.00553913
0.00677293
0.00669256
0.00181393
0.0128241
0.00485901
0.00448654
0.0280531
0.00217389
0.0105399
0.00384037
-0.00108813
-0.0955073
0.0035131
-0.0117838
0.000581226
0.0126053
0.00688612
-0.0366171
0.0321972
0.00220818
0.00190516
0.00777604
0.00396585
0.00534696
0.00772349
0.00383401
0.0351552
-0.232718
0.00983201
0.00568515
0.00526796
0.00181365
0.00632384
0.0063204
0.0112037
0.00566416
0.00626696
0.00249091
-0.04249
0.00438569
0.00327382
0.00752832
0.0050699
0.00368393
-0.0104911
0.00229468
-0.0201486
-0.0333863
-0.0480305
0.00716603
-0.0334587
0.000127579
0.00487434
-0.163782
-0.0231353
0.00803743
0.00589232
0.00683793
-0.0125097
0.00673208
0.00774099
0.00460395
0.00565696
0.0221335
0.00122175
-0.0544887
0.00644583
0.00534274
0.00521283
-0.0220411
0.00221433
0.00636513
0.00630635
0.0234409
0.0111525
0.00232887
0.00143455
0.0104416
0.0071298
-0.0322941
-0.00881338
-0.00110051
0.00165563
-0.0027591
0.00556101
-0.0292845
-0.00970011
0.0124452
0.00188971
-0.00208386
-0.0318976
0.00213399
0.00805854
-0.0458432
0.00270517
0.00766123
0.00480948
0.00908829
0.00783784
-0.0157198
-0.0203257
0.00224823
0.00205239
0.00676213
0.0155344
-0.0926855
0.006228
0.00216787
0.0039629
0.00107058
0.00209329
0.00291356
0.00208594
-0.0247616
0.00356635
-0.175429
0.0110983
-0.00789852
0.00486011
0.00705531
-0.00355712
-0.00278001
0.00650107
-0.00598024
0.00735999
-0.0209816
0.00744686
-0.0958478
-0.013079
0.0058904
0.00274272
-0.0369644
0.010774
0.00842517
-0.00524214
0.00592094
0.00550807
-0.0010952
0.00481476
-0.0139531
0.00728433
0.00460576
-0.0237841
-0.00559042
0.0354254
-0.0941771
0.00359869
0.00212726
0.00466469
0.00273145
0.00600659
0.00467864
0.00360215
0.0036334
-0.00391423
-0.00280155
0.00666645
0.00650666
-0.0306952
0.00694635
0.00201279
0.00759713
0.00276306
0.00197266
0.00467052
0.00447657
0.00440248
-0.0251092
0.000572954
0.00200812
0.00704565
0.00244626
0.000502838
0.00499947
0.00895425
0.00993354
0.00109445
-0.00209427
0.00087171
0.0061784
0.00534343
0.00204435
0.00355351
0.00882213
0.0320696
0.00148624
-0.114065
0.00678539
0.00337008
-0.00605552
0.0114693
0.00793215
-0.0231591
-0.0157287
-0.0425942
0.00194443
0.00949997
0.0069971
-0.000555831
-0.0475768
0.0373169
-0.0620594
-0.0127744
0.00671785
-0.0229136
0.000971565
0.00498428
0.0233405
0.0098676
0.00148245
0.00837852
-0.00928651
0.011114
-0.137366
0.00193874
0.00103959
-0.0301448
0.00198431
0.00447619
0.00512341
0.00265259
0.00832
0.00292028
0.00524535
0.00706764
0.00255899
-0.00454848
0.0209218
0.00558016
-0.00891109
0.00653242
-0.0556931
-8.20022e-05
0.00643711
0.0134917
-0.00950422
-0.052606
0.0258626
-2.85673e-05
0.00845437
0.0109965
-0.00379504
0.00444892
-0.0643778
0.00497201
0.00443352
-0.00175205
0.00550377
0.00754796
0.00624008
0.00757081
0.00676405
-0.0356631
0.0120105
0.000910685
0.0117004
0.0376934
0.0362832
-0.00693033
0.00964347
0.00314148
0.00362457
0.00583635
0.0265368
-0.0340855
0.00829199
0.00952663
0.0064734
0.0247106
0.00716623
0.00827489
0.00357103
-0.0630255
0.00697552
-0.0070447
-0.00567881
0.00588141
-0.0296433
0.00444221
0.00158682
0.0107784
0.0100765
0.0139312
-0.0107684
0.00833402
-0.00569157
0.00737469
0.00547755
0.00559432
0.00560514
0.00836389
0.0125263
0.00857107
0.00670228
0.00152545
0.00497897
0.00156459
0.00627916
-0.0434994
0.0043012
-0.027901
0.0060134
-0.0033568
0.00624951
0.00655702
0.00194882
0.00497057
-0.195755
-0.114329
-0.0283479
0.00574207
0.0103459
-0.0475185
-0.107692
-0.211988
0.00995045
0.00190457
0.00662625
0.00987806
0.0131045
0.00969253
0.00190023
0.0103248
-0.0262381
-0.0286602
0.00109525
0.0121763
-0.00365189
0.00621185
-0.0845801
-0.0319979
-0.0173699
0.00843223
0.010515
2.96854e-05
-0.0177402
0.0128373
0.00433689
0.00513635
0.00332747
0.0130835
-0.00754434
-0.00344215
0.00233642
-0.0355404
0.00541912
0.00556693
0.00727617
0.00863878
0.02598
0.00782318
0.0036966
-0.00201803
0.00464728
-0.00225346
0.00342271
0.00326242
-0.0684295
0.000113325
0.00166855
0.020542
0.00656957
0.00516391
0.00477346
0.00327106
-0.0267967
0.00370419
0.00760294
-0.00721545
0.00246418
0.00976616
-0.00375501
0.0093028
0.00400622
0.00957111
0.00826813
0.00720225
0.00690223
0.000124005
0.00680534
0.00864042
0.00159695
0.0032592
0.00175967
0.00249509
0.0056369
0.00187748
0.00443217
0.00252955
0.00634446
-0.00014387
0.00865465
0.0063612
0.0039021
0.00377116
0.00398819
0.00551151
0.00991974
0.00243704
0.00921798
0.00774211
0.012036
0.00535265
0.00797191
0.0032001
0.00203401
-0.198245
0.00217505
0.00220083
0.00232947
-0.103372
0.00535783
0.00582899
0.0025155
0.00646149
0.00603517
0.0116898
0.0036266
0.00385907
0.00397562
0.00567528
-0.00221467
0.0102625
0.00500995
-0.184962
0.00810656
0.00460533
0.0030482
0.00032787
0.00540543
0.0044011
0.00515947
0.00187677
0.0249986
0.009895
0.00751274
0.00569533
-0.0326654
-0.000288203
0.00659623
-0.0252453
0.00365826
-0.0160852
0.00400009
0.0173609
0.0077298
0.00367379
0.00753335
0.00748243
0.000869497
0.0046296
0.0140764
0.00260305
0.00017508
0.0173754
-0.0557724
0.00260616
0.00505406
-0.046716
0.00811141
-0.00258566
0.00427024
-0.0869194
0.00826077
-0.00317197
0.00537468
0.00552162
0.00668537
-0.00644629
-0.0173186
0.00468043
0.005462
0.00703613
0.00680837
0.0026722
-0.0639787
0.00574196
0.0051499
0.000622151
-0.0810707
0.00966036
0.00623133
-0.0608623
0.00443755
0.00116538
-0.0099515
0.00693358
0.0168297
0.00748596
0.00207551
-0.0298239
0.00496799
-0.0269806
0.00292813
0.00786737
-0.0435732
-0.165091
0.00130155
0.00168854
0.00816013
0.00543902
0.00734505
-0.0616969
0.00756019
-0.00988511
0.00189071
-0.00518842
0.00613704
-0.0174579
0.00674225
0.00467721
0.00569807
-0.0597187
0.00885332
0.00339614
0.00550281
0.00630084
0.0105901
0.00655729
0.00126987
0.00618115
0.0056841
0.0377692
-0.0225526
0.0024307
0.00622444
0.00734528
-0.0348425
0.00635015
0.00353439
0.0026785
0.00768644
0.0124043
0.00747541
0.00567519
-0.0825505
0.00368143
0.00539256
0.000331763
0.000785621
0.00366412
0.00391682
-8.54524e-05
0.0129831
-0.0701333
0.00649031
0.00566832
0.0127863
0.00968401
-0.000152643
0.00856313
0.00776352
0.00323264
-0.111671
0.00945095
0.0106762
0.00714534
-0.063623
-0.00307671
0.00452182
0.0334817
-0.0582195
0.029295
0.000823165
0.00190188
-0.0600166
0.00194526
-0.00735489
0.00533367
0.00360124
0.00140368
0.00373296
0.0108531
0.0258321
0.00359961
0.00187942
0.0352162
0.0114925
0.00573326
-0.0584809
-0.0416114
0.011423
-0.0110686
-0.00106471
-2.97247e-06
-0.040507
-0.00319611
-0.0164563
0.00466746
0.00122136
0.000236537
0.0153343
-0.0434447
0.00311625
0.00746018
0.0129652
0.00365523
0.00506355
-0.00412918
-0.0587735
0.0260863
-0.0570836
0.00236847
0.0107299
-0.00802235
0.00559063
0.0063053
0.00088794
0.00437097
0.00940047
-0.0543792
0.0172294
0.00389151
0.00676704
-0.0232508
-0.127157
0.00753408
0.0062808
0.00273961
0.0123256
0.0043418
0.00460438
0.0280588
0.00231417
0.00194801
-0.00754315
0.011381
0.00273172
-0.0314258
-0.0564445
0.00594715
0.00824001
-0.00199702
0.00309957
0.00304262
0.00751868
-0.0453021
0.00533407
0.0131518
0.00659127
-0.0167293
0.019952
0.0050065
-0.11327
-0.0118811
-0.0224781
0.00418152
0.00522402
0.00635672
0.00344176
0.00494787
0.0152928
0.00194909
0.00378695
-0.000252578
0.00576057
0.00122781
0.00626803
0.00375406
-0.120032
0.00132333
0.0072413
-0.0174983
0.00642093
0.00259519
0.00525342
-0.00894187
-0.0317146
0.0065611
-0.00291759
0.00660837
0.00363562
-0.00490738
0.0046291
0.0077078
0.000979938
-0.00850682
0.00180246
0.00177535
-0.000335287
0.000166425
0.00118603
0.00772403
0.00631201
-0.0198425
-0.0595881
0.00475332
-0.000856154
-0.000174994
0.00186575
0.00663796
0.00074773
0.00362983
0.00552565
0.00447518
-0.0289303
-0.106346
0.00269067
0.00450128
-0.0159879
0.00916286
0.00531925
-0.0314514
0.0116794
-0.00178131
0.00381008
-0.0574311
0.00497417
0.00553413
0.00961388
-0.0738119
-0.0685506
0.00532582
0.0076139
0.00523023
-0.00787958
0.00256695
-0.0127445
0.00836451
0.00765949
0.00928017
-0.0225234
0.00634755
0.0122493
0.00134156
-0.0101786
-0.0224612
-0.0372411
0.00583067
0.0108459
0.00428359
0.00425658
0.00791791
0.00184199
0.00807737
0.00191027
0.00372249
0.00617682
0.00657278
-0.00388021
-0.000401984
-0.0424484
-0.00706123
0.000702508
0.00256293
0.00258068
-0.0106911
0.00472845
0.00259169
0.0018339
0.00552772
0.00432556
0.0104718
0.00652821
0.00239531
0.00507932
0.00518543
0.00121984
-0.102366
0.00877804
0.00612124
0.00750182
0.0158765
0.00493344
0.00175114
0.00146638
-0.0964814
0.00638813
-0.00239483
0.00494264
-0.106259
0.00516397
0.00623566
-0.0666595
0.0264684
0.006224
-0.0188935
0.00458593
0.00427733
0.00380161
0.00641556
-0.0692282
0.00597127
0.00577749
-0.126552
0.00399633
0.00826201
0.0027219
0.0101751
-0.000892436
-0.0317852
0.0112896
0.00854966
0.0156775
0.00651938
0.00549717
0.00625385
0.0038665
-0.010452
0.00508937
-0.00461678
0.00610085
0.0138089
0.00192595
-0.0743211
0.0305231
-0.0282736
-0.041367
0.00523725
-0.0247946
0.00550478
0.00455459
0.0123554
0.00436839
-0.001613
0.00582167
0.0063081
-0.0108199
0.00396178
0.00697989
0.00442565
0.00236336
0.00499807
0.00581863
0.0079611
0.0121944
0.00814861
-0.0229958
0.00186708
-0.0737975
0.00451157
0.00639977
0.000685474
0.00618002
0.00483638
0.00403641
0.00403039
0.0183577
0.00128494
-0.103348
0.0213572
0.00221942
-0.0292859
-0.0829999
0.00744354
0.0019472
0.0138001
0.00372964
0.00358039
-0.0233069
0.00617629
-0.0245032
0.00510285
0.00468149
0.00290949
0.00509066
0.00878573
0.00723232
0.00122559
0.00132976
0.0146677
-0.0616773
0.0056354
-0.0379053
0.00508897
0.00810223
0.0139815
0.0041963
0.0064018
0.011778
0.0034703
0.00659739
0.00376192
0.00547063
-0.0677321
0.0131819
0.00191788
0.00672347
-0.00257105
0.00486467
0.00235614
0.0284964
0.00588161
0.0266378
-0.0718975
-0.000339591
0.00249463
0.0131921
0.00172976
0.0267387
0.0358865
0.00644987
0.00623324
0.0145158
0.000257689
-0.0198259
-0.0785456
-0.0123134
0.000676139
0.0192708
0.00680543
0.00192841
0.00904458
0.00286927
0.00553476
0.0028117
0.00790618
0.000660729
0.00532627
0.00484247
0.011985
-0.0232189
0.00396423
0.0137408
0.00600498
-0.0804453
0.00732409
0.00417485
-0.038112
0.00324287
0.00843692
-0.0575106
-0.000413668
0.00460225
0.00161135
0.0113959
0.00633439
-0.0461475
0.00780584
-0.030184
0.00239543
-0.0292306
0.011659
0.0320826
-0.0647563
0.00527676
0.00122079
-0.0943928
-0.00446065
0.00801277
0.00430454
0.00506874
0.00821476
0.00115322
0.00559373
0.011557
0.00680342
0.00462868
0.0121801
-0.00689148
0.00440889
0.0173805
0.00623815
-0.0199646
0.00165628
0.00552503
0.00662392
0.00689674
-0.0196217
0.0086903
0.00452051
0.0061945
-0.0030224
0.000307601
0.00651901
0.00459566
0.0012223
0.0170905
0.00702777
0.00338229
0.00243531
0.0110589
0.00266478
-0.0856309
0.0109664
-0.000444159
-0.0831622
0.00801592
0.0054722
0.00749508
0.00506729
0.00127856
0.00508487
0.000105626
-0.0359714
0.000516288
0.00617397
0.0204782
0.000748458
0.0274509
0.00910789
0.0139129
0.00698893
0.00528142
-0.0274953
0.00255576
0.0018168
-0.0336552
0.00378935
0.00757069
0.00163583
0.0058127
0.00575117
0.00621686
-0.0443385
0.00113883
-0.0620824
0.0235614
-0.229914
0.00596464
0.00336817
-0.0167311
0.00468748
0.0125141
0.00319032
0.000257726
0.00494174
0.0139673
0.00817639
0.00988217
0.00364784
0.00186331
-0.016826
0.00683969
-0.00245893
0.00274949
0.010646
-0.0023375
0.0255911
0.00530077
0.00211704
0.00478845
0.00584572
0.00640554
0.0043143
0.00137621
-0.000540677
0.00643
-0.0494697
0.0125281
0.00223301
0.00534685
0.011708
0.00627897
0.00628788
0.00616174
0.00625295
-0.0132164
0.00620059
0.00914865
0.00538127
0.012412
0.0165949
0.00382948
-0.223554
0.00374974
0.0056717
0.00810914
-0.0661855
0.0118768
0.00761742
0.00239691
0.00608598
0.0096126
0.00579382
0.00448295
0.00329669
0.00742119
0.00539445
0.00516444
-0.0117607
0.0122996
0.00369393
0.0114298
0.00481029
0.000407035
-0.215143
0.00829561
0.00731399
0.00206152
0.00604991
0.0077936
0.00507624
0.00759968
0.00754429
0.00333404
0.0053265
0.00645248
0.00464888
-0.00160583
0.00466725
0.00456596
0.00110375
0.00405333
0.00533978
-0.00281027
0.0018653
0.00248612
-0.171636
0.00802565
-0.0444178
-0.00311999
0.00425116
0.0101051
-0.0940378
0.00493663
0.00506377
0.00529758
0.0041047
0.00624033
-0.0151427
0.00678235
0.00440049
-0.0291349
0.00441387
-0.00287021
0.00846077
0.00295356
0.00466559
0.00566418
0.00834984
0.0254533
0.00376948
0.00218488
-0.00343752
0.00661143
0.00368391
-0.0174065
0.00826774
0.00477374
-0.0715575
-0.00144796
-0.0198991
-0.101577
0.00518348
-0.0356541
-0.0219771
-0.0170428
0.00515541
0.0139718
-0.0356253
-0.0650411
0.00432548
-0.0110177
-0.0649899
0.00263749
0.00491993
0.000774921
-0.0120228
-0.0737448
0.00688454
0.00851804
0.00232576
0.0192263
0.0052385
0.0240374
-0.0692697
0.0109898
0.00268298
0.00462518
0.00736108
-0.0274567
0.00504839
0.00373732
0.00434782
-0.070864
0.00461162
0.00306491
0.00667863
0.00648245
-0.0144569
-0.00120295
0.00689223
0.00524732
0.000165338
-0.0341761
-0.0792282
0.00803225
0.00538039
0.00828123
-0.153094
-0.00626622
0.0059658
0.00786952
0.00708365
0.00238724
0.00398437
0.000150398
-0.0751083
-0.118844
-0.170313
0.00757415
-0.0667948
-0.0111176
0.00338552
-0.00684156
0.0125895
-0.00197233
-0.0082005
0.00147748
-0.121406
-0.153174
-0.0733175
0.00663369
-0.0267755
-0.111439
0.00802335
-0.123769
-0.110207
0.00432276
-0.0442604
0.00624692
0.00502088
-0.0843178
0.00126144
0.00301807
0.0074782
-0.00327566
-0.173952
-0.0055527
0.00403968
0.00838636
-0.069194
0.00623585
0.00118172
0.00557765
-0.0620135
0.00854004
8.24118e-05
0.00344325
0.00777022
0.00643289
0.00219198
0.0062583
0.005141
0.0114836
0.00782543
0.00342209
0.00551899
0.00454713
0.00200475
-0.0200962
-0.00126921
0.00401204
0.0035779
0.000363683
0.00395219
0.00548157
-0.0764396
0.00652133
-0.0267532
0.00224467
-0.109596
-0.0276496
-0.0653654
0.00531074
-0.120773
0.0098986
0.00514033
-0.062957
0.00410097
-0.105719
0.00792246
0.00478284
-0.01563
-0.0760781
0.00662017
-0.00225123
0.00359452
0.00441541
0.00423536
0.00888661
-0.0590301
0.00792627
0.00739187
-0.0994898
-0.00412027
0.00691628
-0.00236151
0.00366753
0.00379618
-0.0836178
0.00631889
0.0059774
-0.093545
-0.0894054
0.00334487
0.0106328
0.0360148
0.00646192
0.00782121
0.00408348
0.015001
0.0142112
0.00478739
-0.00909364
0.00775247
0.00644526
0.00431195
0.0203007
0.00394297
0.00208656
-0.0089213
0.00507629
-0.000404571
0.00435484
0.0298157
-0.0645607
0.0099325
0.00672134
-0.0360282
0.00539552
-0.0492601
0.00302805
-0.0311177
0.00249
0.000951857
-0.144113
0.0057346
-0.00459995
-0.01131
0.0091511
0.00633438
0.00925421
-0.0479808
0.010444
0.00832872
-0.0139779
0.0066098
0.00642912
0.00256272
0.0129039
0.0121319
0.00436397
-0.0473019
0.00353986
0.00737601
0.00372323
0.0051526
-0.164329
0.00216044
0.0230708
0.00605424
-0.0344951
0.00477061
0.00645489
0.014088
-0.0617882
0.00525346
0.00457332
-0.0678876
0.00792473
0.00476333
0.01046
-0.00465231
0.0149418
0.00385676
0.0278838
0.00944872
0.00195683
-0.116278
0.00409259
-0.0609819
0.00233133
0.00667862
-0.079366
0.00783379
0.00425707
0.0074542
0.00655339
0.0182385
0.00166838
-0.0810069
0.00835307
0.00152213
0.00217485
-0.0679962
0.00246853
-0.0173047
-0.0794737
0.0092729
0.00772755
0.00340646
0.00551527
0.00446321
-0.0685864
0.00590131
0.00115122
-0.014699