/*--------------------------------*- C++ -*----------------------------------*\
| =========                 |                                                 |
| \\      /  F ield         | OpenFOAM: The Open Source CFD Toolbox           |
|  \\    /   O peration     | Version:  v2012                                 |
|   \\  /    A nd           | Website:  www.openfoam.com                      |
|    \\/     M anipulation  |                                                 |
\*---------------------------------------------------------------------------*/
FoamFile
{
    version     2.0;
    format      ascii;
    class       surfaceScalarField;
    location    "350";
    object      phi_0;
}
// * * * * * * * * * * * * * * * * * * * * * * * * * * * * * * * * * * * * * //

dimensions      [0 3 -1 0 0 0 0];
oriented        oriented;


internalField   nonuniform List<scalar> 
26997
(
0.426831
-0.201751
-0.22508
-0.322324
0.154978
0.167346
-0.148516
0.0489341
0.0995818
0.153544
-0.129172
-0.0243722
-0.173662
0.280731
-0.107069
0.0720888
0.0614521
-0.133541
0.297884
0.0554067
-0.353291
-0.353979
-0.0304562
0.384435
0.245864
-0.147433
-0.0984303
0.209352
0.217479
-0.0857784
-0.236545
0.154642
-0.0666599
-0.0879824
0.00801714
0.121725
-0.129742
-0.201277
0.189539
0.0117382
-0.186184
0.173168
0.0130163
0.207856
-0.341095
0.133239
0.0491748
-0.0207807
-0.0283941
-0.405511
0.538256
-0.132745
-0.0824025
0.190312
-0.107909
0.19723
0.207481
-0.404711
-0.0459067
0.194293
-0.148386
0.551612
-0.551612
-0.105645
-0.0771264
0.182772
-0.0920363
-0.127489
0.219525
-0.576817
0.356499
0.220318
-0.151775
-0.287246
0.439022
-0.32636
-0.0276187
0.335535
-0.389543
0.0540089
0.301037
-0.127894
-0.173144
0.419303
-0.319824
-0.0994784
-0.191528
-0.29223
0.160093
0.333055
-0.493148
0.370202
-0.219572
-0.15063
-0.381607
-0.19521
0.367041
-0.135072
-0.231969
-0.355249
0.16676
0.188489
0.120991
-0.427751
0.306761
0.527487
-0.217243
-0.310245
0.382216
-0.277428
-0.104788
0.0227852
0.131857
0.113903
0.13196
-0.230978
0.10811
0.122867
0.326914
-0.499317
0.172404
0.112859
-0.195262
-0.351253
0.199869
0.151384
0.277332
-0.4474
0.170068
0.0332063
0.38646
-0.419666
0.35213
-0.224123
-0.128006
0.485893
-0.49671
0.0108167
-0.251251
0.448481
-0.32789
0.48797
-0.16008
0.0126909
0.0364839
0.0334614
0.452432
0.236214
-0.382212
0.145998
0.464101
-0.186769
-0.237363
0.383246
-0.145883
0.368581
-0.467449
0.0988682
-0.0517581
0.417707
-0.365949
0.222695
0.144346
-0.420559
0.183196
-0.477728
0.363196
0.114533
0.31814
-0.496705
0.178564
0.378311
-0.526322
0.148012
0.169324
0.124305
-0.293629
0.348957
-0.518604
0.169647
-0.152946
0.461849
-0.308903
-0.267908
0.462685
-0.194777
0.317707
-0.109851
-0.141057
0.132939
0.00811756
0.471408
-0.134742
-0.336666
0.159866
-0.151848
0.105575
0.0479689
-0.346096
0.237259
0.108838
-0.00739469
-0.140039
0.360761
0.110647
-0.403756
0.166348
0.237408
0.0296156
0.104186
-0.133802
0.223106
-0.0108809
-0.212225
0.147667
-0.0513592
-0.0963078
-0.291054
-0.0678492
0.358903
-0.214511
0.168605
0.443347
-0.32442
-0.118926
0.0855078
-0.25917
0.561884
-0.219443
-0.342441
-0.489318
0.432701
0.0566172
-0.171926
-0.305802
0.146928
-0.446741
0.299813
0.325509
-0.156186
-0.39029
0.388425
0.00186524
0.128552
-0.0989364
0.305845
0.256039
-0.388246
0.48112
-0.0928739
-0.0972016
-0.388596
-0.00169447
-0.159967
0.152572
-0.0971485
-0.157438
0.254586
0.0407195
-0.117275
0.0765554
-0.324686
0.272928
-0.197702
0.204985
-0.00728258
-0.112754
0.0898467
0.0229069
0.247442
-0.380304
0.132862
0.305568
-0.473172
0.167604
0.301121
0.118182
0.4395
-0.103965
-0.517383
0.241098
0.276285
0.426071
-0.0574898
-0.519399
0.405237
0.114162
0.508985
-0.227989
-0.280995
-0.330553
-0.147961
0.478514
-0.324602
0.144407
0.180195
-0.0126186
-0.0389808
0.0515994
-0.315135
0.182771
0.132363
-0.0333993
-0.119474
-0.0215829
-0.1191
-0.055656
0.174756
0.36911
0.0703897
0.183308
0.0397976
-0.0459325
0.208576
-0.162644
-0.214199
0.122163
0.610998
-0.30279
-0.308209
0.337945
-0.229766
-0.108179
0.294798
0.3162
0.174589
-0.220521
0.516669
-0.380673
-0.135996
0.0604909
0.3102
-0.370691
-0.0659372
0.187259
-0.121322
-0.199938
0.134001
-0.360895
0.518308
-0.157413
0.38833
-0.365577
-0.0227533
-0.19782
0.333172
-0.135352
0.40912
-0.111235
-0.377704
0.169691
0.208013
-0.463513
0.346947
0.116567
0.424446
-0.177004
0.162666
0.207537
0.453176
-0.0840658
0.372419
-0.134504
-0.237915
0.0920603
0.0556067
0.452108
-0.0637779
-0.541973
0.282151
0.259822
-0.400663
0.214553
0.18611
0.186702
0.151243
-0.207116
0.0895871
0.117529
0.449001
-0.232568
-0.216433
-0.2827
-0.196728
0.479427
-0.128558
0.176143
0.272858
0.429362
-0.308371
-0.463402
0.178031
0.285371
-0.0784913
0.167345
-0.432863
0.265518
0.218904
-0.0801659
-0.138738
-0.258727
-0.283247
-0.0690521
0.0185394
0.0505127
-0.131621
0.0843112
0.0473096
-0.290461
-0.172941
0.265837
-0.380277
0.11444
0.2393
-0.366556
0.127256
-0.102764
-0.0288566
0.11457
-0.23367
-0.396702
0.275429
0.121274
0.476553
-0.35513
-0.121423
-0.0304637
0.0876722
-0.0572085
0.442183
-0.115269
-0.133549
-0.244155
-0.165471
0.438048
-0.272578
0.296407
-0.215564
-0.0808434
0.281212
-0.311669
-0.0800105
0.0298199
0.0501906
0.382439
-0.116601
-0.470837
0.183125
0.287712
-0.487872
0.446952
0.0409201
0.250353
-0.42387
0.173517
-0.0212894
-0.164315
0.185604
-0.48476
0.462872
0.0218881
0.347012
-0.426842
0.0798295
-0.510816
0.33889
0.50987
-0.43827
-0.0715999
0.125843
0.257402
0.244397
-0.217519
-0.0268783
0.452718
0.0639506
-0.0381011
-0.350145
0.378445
0.131425
0.0841128
0.0283405
-0.112453
-0.26353
0.102317
0.161213
-0.133749
0.397809
-0.26406
-0.348481
0.117263
0.231218
-0.0670375
-0.15444
0.221478
-0.1803
-0.0796655
0.259965
-0.471727
0.527608
-0.055881
0.311811
-0.0725117
-0.129176
-0.134355
0.123439
-0.039326
0.434559
0.0105956
-0.445155
0.190223
0.28633
-0.0410504
0.101647
-0.0605962
-0.110189
0.0691387
0.138594
0.233189
-0.371783
-0.257663
-0.143
-0.421086
0.153177
0.420914
-0.293194
-0.127721
-0.0367696
-0.160932
-0.0468302
-0.0331803
0.15037
-0.206026
-0.437611
0.199428
0.238183
0.169193
-0.108485
-0.060708
-0.354079
0.166516
0.187563
-0.0115822
-0.11759
0.0448259
-0.117866
0.0730405
-0.0846708
-0.332562
0.417233
0.380529
-0.130176
0.102296
0.0668968
-0.063659
-0.441867
0.357196
-0.160851
0.00288613
0.157965
0.404532
-0.189979
0.207529
0.144601
0.338945
-0.102732
0.215948
0.0958631
0.404702
-0.197895
-0.206807
0.325532
0.117815
0.233348
-0.522448
0.2891
0.193628
-0.0420427
-0.151585
-0.456211
0.408626
0.0475858
0.382928
0.0516316
0.503187
-0.327043
0.383634
-0.0654935
-0.384652
0.200619
0.184032
-0.392768
0.537271
-0.144502
-0.45938
-0.00267351
0.462054
0.440491
-0.415886
-0.0246047
-0.636389
0.379649
0.25674
0.289066
-0.440841
-0.274302
-0.362087
-0.062224
0.0136242
0.0485998
0.515606
-0.282257
0.309075
0.20653
0.336312
-0.47146
0.135148
0.168474
-0.44911
0.280637
0.0995148
0.024384
-0.123899
-0.360852
0.207906
-0.15232
-0.0489573
0.392587
0.047904
0.133715
0.369472
-0.431585
-0.0246263
-0.604416
0.284362
0.320054
0.060953
-0.15855
0.0975969
-0.309618
0.00818495
-0.299239
-0.0709009
0.14299
-0.242681
-0.279767
0.181367
0.223334
0.428148
-0.254312
-0.173837
0.0365028
0.117412
-0.153915
-0.167377
-0.507748
0.34703
0.160719
0.207216
0.197316
-0.19337
0.339324
-0.145954
0.170425
0.257723
0.159349
-0.256498
0.270337
-0.162872
-0.107465
0.125792
0.144545
-0.236929
0.169892
0.344152
-0.542226
0.198074
-0.309188
-0.198561
-0.067365
-0.210325
0.27769
0.203452
-0.151857
-0.0515951
0.39079
-0.109577
-0.381569
0.24782
0.441166
-0.178795
-0.262371
0.432596
-0.401158
-0.0314377
-0.217195
-0.220416
0.204325
0.0920824
-0.305678
0.465771
0.446369
-0.356129
-0.0902403
-0.286259
0.452865
-0.166605
0.105685
-0.433575
-0.322227
-0.167091
-0.163611
0.318589
0.132032
-0.0913124
0.278599
0.13052
0.428131
-0.281203
0.123428
0.0105406
-0.133969
-0.221131
0.127689
-0.452863
0.0919678
-0.137238
0.0699866
0.0672511
-0.0887965
0.125299
-0.392523
0.462211
-0.0696882
0.202897
0.0646598
-0.267556
0.181972
-0.512525
-0.364329
0.499844
-0.135515
-0.192407
-0.162842
0.0204186
-0.221948
0.201529
-0.615831
0.313041
0.4163
0.135312
0.466084
-0.391747
-0.0743374
-0.333734
-0.372397
-0.243433
0.027347
0.176105
0.080183
-0.193767
0.113584
0.218363
-0.335763
0.117399
-0.156949
0.0633703
0.0935789
0.266237
0.115978
0.355043
-0.360432
0.0053891
0.321209
0.12516
-0.182694
0.0167216
0.165973
0.408307
-0.19803
-0.210278
-0.164427
0.469995
-0.0951119
0.298008
-0.0636038
-0.232203
0.295807
0.319275
-0.258784
0.0460676
-0.238613
0.192546
-0.269318
0.384321
-0.115003
0.403393
-0.124793
0.473343
0.00553775
-0.478881
-0.469576
0.215402
0.254174
0.165191
-0.0628949
-0.0529266
0.106734
0.325861
0.130465
-0.129522
-0.000943749
0.275824
-0.15082
-0.125004
-0.0392322
0.146649
0.313606
0.150495
-0.269492
-0.200084
-0.30093
0.237327
-0.031465
-0.117051
-0.445224
0.235316
0.209908
-0.0558433
-0.0620231
-0.332674
-0.186725
0.360078
-0.508596
0.148518
-0.41937
0.419475
-0.000105631
-0.405622
0.196254
0.209368
-0.0144324
0.137861
0.136348
-0.391498
0.25515
-0.124907
0.069064
-0.261799
0.106789
0.15501
0.206831
-0.364907
0.158076
0.213331
-0.37675
0.163419
0.358458
-0.140094
0.192311
-0.146243
0.0906675
0.0745234
-0.135024
0.0757645
-0.200584
0.124819
-0.193492
-0.13111
-0.144945
0.0868525
0.058092
-0.207552
0.29711
-0.0895583
-0.318476
-0.107388
0.425864
-0.303228
-0.214155
0.307418
-0.103093
0.440742
-0.498004
0.0572614
0.14277
-0.0432552
0.0862032
-0.247308
0.161105
-0.153464
0.139943
0.0135203
0.0705684
-0.176214
-0.226277
-0.173446
-0.457772
0.306383
0.151388
-0.0240522
-0.158642
-0.16297
-0.254343
0.417312
0.244684
-0.382891
0.138207
-0.000770682
0.38042
-0.124173
-0.261221
0.399816
-0.373168
-0.15878
0.472386
-0.0496275
-0.346796
0.396424
-0.270668
-0.110346
0.381014
0.179802
-0.276851
0.0970493
0.446369
-0.0929459
-0.353423
-0.460203
0.260614
0.19959
-0.161592
-0.223059
-0.0315921
-0.0578061
0.0893982
0.391972
-0.178642
0.43575
-0.0994382
0.022609
-0.42812
0.441738
-0.320877
-0.120861
-0.0507546
0.0934854
-0.376398
0.48872
-0.112322
0.248709
0.0979642
-0.346674
0.147811
-0.0125853
-0.135226
-0.412984
0.340315
0.0726695
-0.554413
0.178015
0.308618
-0.136244
-0.172374
-0.207596
0.0731337
0.134463
0.112873
0.0349375
0.00398198
0.190311
-0.0528842
0.351246
0.137474
-0.258217
0.204609
0.0536077
0.0381432
-0.180139
0.141996
0.0362935
-0.206063
0.169769
-0.534277
0.21913
0.315147
-0.0827098
0.150045
-0.0673353
-0.395883
0.46618
-0.0702971
0.47381
-0.35571
-0.118101
-0.329445
0.279817
-0.153352
0.0395762
0.113776
0.348587
0.125223
-0.349319
0.503036
-0.153717
-0.198405
-0.114685
0.427512
-0.312826
-0.131233
0.167527
-0.436604
0.455969
-0.019365
8.52398e-07
-0.471727
-0.163315
-0.182782
-0.491442
0.41181
0.0796325
0.305677
-0.420362
0.220958
0.317297
0.519503
-0.196342
-0.323161
0.495714
-0.284261
-0.211453
0.0327206
0.408022
-0.382349
0.41581
0.0254414
0.0673105
-0.0927518
0.102272
-0.25971
0.121516
0.263799
-0.385314
0.1284
-0.437048
0.308648
-0.238277
0.0579772
0.0366584
-0.456028
0.0978638
-0.480213
0.450779
-0.201157
-0.249622
0.181154
0.269625
0.463114
-0.311317
-0.151797
-0.486633
0.0907498
0.266561
0.0305492
0.314259
-0.505787
-0.545347
0.253117
0.338217
0.0273527
-0.36557
0.0698369
0.15066
-0.220497
0.411559
0.0360056
-0.447565
-0.0234423
0.378485
0.191639
0.304074
-0.424888
0.496483
-0.0715948
-0.397413
0.199518
-0.393159
0.12249
0.151178
-0.0382475
-0.11293
0.136735
-0.134381
-0.00235419
-0.0888924
0.318014
-0.229121
0.00948139
-0.0553814
0.0459
0.142098
-0.0931639
0.0664764
0.129533
-0.19601
-0.138866
0.205343
-0.100196
-0.228174
0.328369
-0.206516
-0.264321
0.130927
-0.000461798
-0.174578
-0.0805355
-0.127061
-0.456913
0.0641447
-0.0576425
0.39586
-0.229286
-0.119195
0.341098
-0.0923887
0.368034
0.0435254
-0.357546
0.463197
-0.105651
0.288579
-0.206228
-0.0823513
-0.311734
0.465043
-0.153308
-0.262066
-0.150157
0.412223
-0.268543
-0.12887
-0.282629
-0.177574
0.402594
0.06349
-0.497486
0.19452
0.302966
0.462875
-0.132211
-0.330664
0.113185
-0.146908
-0.0392768
0.130003
0.0718618
0.164358
-0.23622
-0.252565
-0.118126
0.328176
-0.383599
0.0554222
0.039086
-0.275805
0.236719
-0.464507
0.342606
0.121901
0.0642766
-0.307418
0.243141
0.293059
-0.132892
-0.160167
-0.207366
-0.30345
0.148262
-0.0873091
-0.31359
0.319173
0.143941
0.293434
-0.470586
0.177152
0.214984
-0.377954
0.281928
-0.166897
-0.115031
0.340248
-0.216052
-0.124196
-0.107321
-0.301939
0.409261
0.0378402
0.388231
0.263501
0.144806
-0.124566
-0.27919
-0.260264
0.427609
0.124653
0.0265246
-0.13836
-0.293158
0.431517
0.304289
-0.140255
-0.164035
-0.435509
-0.00846549
0.443974
-0.0360276
-0.356495
0.0812326
-0.348487
0.267255
0.35324
-0.376682
0.220135
-0.14238
-0.0777551
-0.527625
0.284944
0.202146
0.138102
-0.367313
0.133723
0.23359
0.19827
-0.18578
-0.0124897
0.443046
-0.253244
-0.189802
0.249388
-0.368584
0.119196
-0.148667
-0.0584488
0.131185
-0.347946
0.216762
-0.15525
0.230857
-0.0756065
-0.115266
-0.237351
0.405824
-0.195382
-0.0390805
0.234463
0.34376
-0.262527
-0.437213
0.150953
-0.402821
0.240009
-0.185958
-0.100928
0.449885
0.00761682
-0.444221
-0.135366
-0.416246
-0.119551
-0.0285481
0.148099
-0.130544
0.0687001
0.0618437
-0.319713
0.230821
0.115126
-0.148931
0.112608
0.0363232
-0.333051
0.139682
-0.0996962
0.315645
0.163733
0.116997
-0.271874
0.0659456
0.15419
-0.0436846
-0.346369
-0.106493
0.290392
-0.159208
-0.249741
0.314018
0.389029
0.138458
0.383191
0.125793
-0.01831
-0.135042
-0.281792
-0.0455685
0.32736
-0.00216338
0.138898
-0.0380627
-0.220154
-0.459227
0.323833
0.135394
-0.119033
-0.0298975
0.168606
-0.385849
-0.0403473
-0.385818
0.426165
-0.338811
0.0570193
-0.340366
0.155286
0.18508
0.289161
0.148887
0.0770531
0.0578362
-0.134889
-0.161054
0.430861
-0.269808
-0.0605572
0.13619
-0.331573
0.0498809
0.148389
0.413844
-0.12041
-0.131452
0.482698
0.259198
-0.201834
-0.057364
-0.213741
0.428726
0.0485672
0.124601
0.253092
-0.390013
0.136921
-0.287787
-0.158247
0.446034
-0.136007
0.256082
-0.538782
-0.487161
-0.131934
0.0259446
0.10599
0.0326451
-0.115355
-0.264076
-0.110139
0.374215
0.510764
-0.228613
0.104481
-0.308996
0.204514
0.144639
-0.0644564
0.0705528
-0.286117
0.520617
-0.21546
-0.305158
-0.258767
0.393421
-0.134654
-0.0870835
0.0566198
0.11791
0.199797
0.251364
0.266944
-0.145083
0.493671
-0.162482
-0.0968127
0.259295
0.109597
-0.494402
0.468651
-0.406291
-0.0623602
0.0181654
0.245818
-0.263984
-0.36403
-0.0311123
0.395143
0.340718
0.178785
-0.189017
0.0281662
0.246844
-0.347039
0.0699215
-0.225172
0.119857
0.252561
0.0128318
-0.31881
0.305978
0.542267
-0.209212
-0.0805275
0.260329
0.391644
-0.138552
-0.30622
-0.181965
0.488185
-0.523042
0.368186
0.154856
-0.406163
0.0570978
0.349065
0.0656958
0.257786
-0.151094
-0.106691
0.160604
-0.288498
-0.239579
-0.00506639
0.466026
-0.0877148
-0.127663
-0.208099
-0.233102
0.102949
0.130153
0.348079
-0.160102
-0.187977
0.58031
-0.343983
-0.236327
0.225339
0.354972
-0.473276
0.18603
0.0577504
0.0354724
0.268279
0.426077
-0.279534
-0.146543
0.159548
-0.221453
0.0619048
0.527152
-0.302145
-0.225007
0.327834
-0.130639
-0.197196
0.175665
0.0746172
-0.250282
-0.414211
0.275851
0.348007
-0.0207065
-0.327301
-0.241975
-0.285651
-0.174773
0.0569415
0.117831
0.0929486
0.240549
-0.333498
-0.273275
-0.253048
-0.302
0.443895
-0.141895
-0.217834
0.331121
-0.113288
0.468288
-0.0573497
-0.410938
-0.443963
0.0428079
0.401155
0.446032
-0.455517
0.00948458
-0.17658
0.146581
0.0299983
-0.250664
0.343613
-0.143702
0.205707
-0.551725
0.346017
0.145746
0.11204
0.340856
0.133679
-0.474535
0.167572
-0.188861
-0.0648972
0.0903386
0.125183
0.296066
-0.421249
0.455491
-0.107484
-0.345055
-0.0611083
0.144626
0.0668098
-0.476465
0.117225
0.35924
-0.169125
-0.19743
-0.317199
0.0993657
0.26272
-0.249888
0.0245051
-0.134056
0.0149655
-0.144503
0.129537
-0.121823
0.423044
-0.369143
-0.0539006
0.397611
-0.145293
-0.252319
0.218261
0.308891
0.454012
-0.330463
-0.12355
0.359953
-0.11311
0.177257
0.30361
-0.480867
0.12476
0.0105421
-0.135302
0.435083
-0.0173763
0.355689
-0.234173
-0.498138
0.371338
0.1268
-0.114218
-0.373655
-0.413931
0.113097
0.300835
-0.0738282
0.334442
-0.307294
0.489266
0.0136803
0.124222
-0.137902
0.397349
0.0759943
0.29407
-0.429711
0.13564
-0.561316
0.364974
0.150561
0.247051
0.0476386
-0.0381572
0.14459
0.074314
-0.15241
0.309457
0.116619
-0.138038
-0.305925
0.194089
-0.407831
0.0780443
-0.193415
0.115371
0.0863434
0.14932
0.388867
-0.252519
0.0559272
-0.413473
-0.2016
0.367948
-0.0429217
-0.355609
0.131178
0.196656
-0.0271148
-0.0756494
-0.0586573
0.405604
-0.221164
-0.0960359
-0.222456
0.0755288
-0.123049
0.0475202
-0.106052
0.484497
0.0808569
-0.324396
0.243539
0.355529
-0.232703
0.250868
0.187792
-0.0051217
0.431059
-0.136989
0.51952
-0.304118
-0.300156
0.441945
-0.14179
-0.0444819
-0.402918
-0.127967
0.0658001
0.0621667
0.123221
-0.0617688
-0.126117
-0.276618
-0.301356
-0.0881871
-0.430167
0.467349
-0.0371823
-0.447206
0.224443
0.222763
0.22017
-0.0606225
0.453649
-0.48826
0.197799
-0.120104
0.130645
-0.0510703
-0.0591189
0.308782
-0.176276
-0.132506
0.0204623
0.105177
-0.125639
0.307812
0.225851
-0.0336369
0.386877
0.0419928
-0.193445
0.151452
0.155301
-0.478804
0.323502
-0.194791
-0.252415
0.147366
-0.0665264
-0.0808398
0.13855
-0.436642
0.298092
0.26728
-0.401784
-0.30158
-0.0584544
0.360034
-0.353461
-0.0771417
0.43722
0.107076
0.185983
0.0457936
0.101573
0.0578297
-0.121051
0.0632211
0.163989
-0.255259
0.0912695
-0.335662
0.113971
0.22169
0.0169582
0.429994
-0.2278
0.0928447
0.134955
-0.122539
-0.196449
0.0428954
-0.405318
0.362423
-0.119198
-0.214984
0.295459
-0.0804751
-0.372557
0.245998
0.126559
-0.107493
0.056423
0.0663695
-0.253452
0.187082
0.151423
0.313619
-0.252213
-0.0958233
-0.0789496
-0.187961
0.0941414
0.09382
-0.145599
0.15928
0.139222
0.142706
0.117713
0.240745
-0.356482
-0.119982
-0.0917428
-0.0962186
0.0599284
-0.126911
0.0669828
0.108474
0.31457
-0.0888398
0.364269
-0.136226
-0.0585977
0.134126
0.181885
-0.262412
0.460917
-0.305616
0.138392
-0.23032
0.311177
-0.474986
0.457179
0.0178069
0.100404
-0.355316
0.254913
0.306926
-0.347273
0.0851075
-0.324879
0.239772
-0.124851
0.384571
-0.443228
-0.0722108
0.254095
0.305012
-0.327512
0.0993381
-0.0324105
0.234556
-0.220329
0.414418
-0.288847
-0.229756
-0.0645517
0.144737
-0.0801854
0.353642
-0.183951
-0.10229
-0.389152
0.351232
0.168288
0.475565
-0.00727755
0.18875
-0.146757
-0.307803
0.438526
0.00864061
-0.447166
0.138171
-0.117709
-0.204635
0.0518029
0.152832
-0.0579492
0.147536
0.250653
0.131786
-0.347149
-0.179783
-0.0765144
0.256297
0.0508463
0.0543123
-0.105159
0.445337
-0.126062
0.0926067
0.224161
-0.316768
-0.0706119
0.34033
-0.269718
0.098936
0.254903
-0.353839
-0.36809
0.0358073
0.402718
-0.113274
0.0466138
-0.48505
0.215485
0.269565
0.0417869
-0.274355
-0.13676
0.151725
0.172717
-0.0846732
-0.0880443
-0.0417572
0.412586
-0.251277
-0.161309
0.153853
-0.0989334
-0.05492
0.159269
-0.134885
-0.21369
-0.271361
-0.147965
0.209351
-0.0613853
0.303428
-0.148141
0.228068
-0.29868
0.246932
-0.180562
0.338958
-0.358158
-0.293886
-0.229156
-0.100439
0.349828
0.135164
0.054355
0.129906
0.177093
0.268244
0.246495
0.166091
-0.387637
0.0691607
0.177697
0.12573
-0.246714
-0.117991
-0.177357
0.295347
0.28749
-0.428633
0.141143
-0.0592668
0.389851
-0.139198
-0.227976
0.313083
-0.0360255
0.420596
0.153491
0.265488
-0.323942
-0.318174
0.13996
0.178213
-0.359584
0.225397
0.134187
-0.470381
0.475506
-0.161816
-0.31369
-0.157771
-0.32699
-0.439806
0.224715
0.215091
-0.505409
0.198115
0.26879
-0.0450151
0.102765
-0.00116643
0.36968
-0.368513
0.321242
0.109124
-0.430365
-0.169775
-0.350278
0.112724
0.237554
0.309519
-0.2294
-0.080119
0.00262364
-0.380771
0.378147
0.428333
-0.140843
0.102295
-0.0514487
-0.218577
-0.0778214
0.253486
-0.381702
0.153713
0.28864
-0.248975
-0.0396648
0.132419
0.251902
0.403154
0.0390297
0.155687
0.190509
-0.410837
-0.435268
0.14425
0.291018
0.30564
0.146208
-0.451849
0.302951
0.349238
-0.249386
-0.0998524
-0.449908
0.342586
0.262782
-0.0987927
-0.37384
0.470972
-0.097132
0.122043
-0.240034
-0.0552258
0.113055
-0.26773
-0.223919
0.491649
0.392947
-0.14841
-0.244537
-0.0606118
-0.357711
0.418322
0.393826
-0.277379
-0.116448
0.169582
-0.228605
0.0590235
0.422483
-0.294083
0.228012
0.121226
0.406038
-0.278598
-0.127441
-0.457355
0.194414
0.262941
0.303519
0.233751
0.258035
-0.0986851
0.128096
0.0446217
0.256339
-0.330167
-0.179321
0.473453
-0.294133
0.196146
-0.413638
-0.240468
-0.216887
0.151887
-0.192147
0.0402602
0.437256
-0.0346622
0.249497
0.14345
0.368907
0.035448
-0.404355
-0.178121
-0.0986384
0.27676
0.421781
-0.225635
0.445588
-0.139948
-0.212466
0.305073
-0.138689
0.001434
0.0462046
-0.166248
-0.385477
-0.485109
0.392163
0.0413076
0.107359
0.225936
-0.333295
0.181997
-0.456516
0.274519
-0.453638
0.0287503
-0.329604
-0.1492
-0.181281
0.0478423
0.133439
-0.0258935
-0.0948911
0.120785
-0.216477
0.456713
-0.240235
-0.323053
-0.09427
-0.204313
0.298583
-0.0830348
-0.0739145
-0.216953
0.334216
-0.0872132
0.127928
-0.0407152
0.140892
0.28676
-0.427652
0.258882
-0.11966
-0.150708
0.0311565
0.0778666
-0.25765
-0.259774
0.154005
0.105769
-0.333086
-0.019408
0.352494
-0.13883
0.124398
0.0324114
0.0814438
-0.113855
-0.288229
0.193117
-0.584405
0.138044
0.446361
0.261114
0.027526
0.175397
-0.154979
-0.346184
-0.100336
0.44652
0.174724
0.32512
-0.19356
0.117803
0.221142
0.335633
-0.333009
-0.111811
0.315896
-0.204085
-0.0291229
0.415583
0.378159
0.0590978
-0.323491
0.218392
0.105098
-0.0354828
0.102793
0.318688
-0.219752
0.160636
-0.0516811
-0.108955
0.0421064
-0.0336737
0.196689
-0.2291
-0.147782
0.0805346
0.0672475
0.338608
-0.0482157
0.394553
0.0683215
-0.300482
0.109495
0.190987
-0.0874653
0.292074
0.44871
-0.21172
-0.23699
0.115519
0.0291149
-0.144634
0.00243103
-0.119638
0.117207
-0.434531
0.146744
0.456554
-0.446607
0.192605
0.254002
-0.0279348
-0.00291911
0.0308539
0.304818
0.156099
0.143575
-0.369542
0.0233574
-0.12621
0.0663691
0.0598413
0.136822
0.287512
-0.424334
0.354782
-0.110098
-0.142178
-0.248404
0.390582
-0.249228
0.374721
-0.125493
-0.176923
-0.078799
0.255722
-0.149589
-0.144813
0.294402
0.14386
-0.0283415
-0.31366
0.435514
-0.121854
0.121948
0.136934
0.21904
-0.340424
0.121384
-0.383179
0.482167
-0.0989884
-0.125538
-0.00398341
0.221135
-0.0446153
-0.113935
-0.447216
-0.037237
0.484453
0.400872
-0.167683
0.00925658
-0.0964698
0.238028
0.0624944
-0.300522
0.326644
-0.129955
0.470412
-0.12626
0.169325
0.0879706
-0.257296
-0.111394
0.283478
-0.172085
-0.12434
-0.24379
0.434013
0.0617377
0.0661786
-0.127916
-0.0434775
-0.109637
0.153114
0.0231721
-0.470388
-0.0494692
0.195215
-0.114753
-0.288633
0.403386
-0.019061
-0.34587
0.285258
-0.249133
-0.265065
-0.0246216
0.289687
0.215578
0.12303
-0.0883996
0.133893
-0.0470409
-0.454213
-0.0694362
0.523649
0.0226161
-0.49145
-0.228283
-0.269203
-0.375144
-0.327106
-0.170898
0.144326
-0.393554
-0.0175702
-0.128505
0.146075
-0.0552469
0.207134
0.381062
0.0417149
-0.422777
-0.0701941
0.308222
-0.240216
0.295623
-0.00532972
-0.157542
0.0983042
-0.260617
0.162313
0.384986
0.0181672
-0.467592
0.480602
-0.01301
-0.32086
0.418457
-0.0781426
-0.0411953
0.210777
-0.268565
0.2012
-0.497192
0.394901
-0.234894
-0.452615
0.0701435
-0.405959
0.335815
0.12981
0.196834
-0.218406
0.108727
-0.152204
-0.0479269
-0.38224
-0.0924199
-0.149451
0.235038
-0.085587
-0.450485
0.301172
0.149313
-0.017143
0.303996
-0.286853
0.0773508
0.0565426
-0.374422
-0.392154
0.286416
-0.115186
-0.17123
0.178184
0.108231
0.0939291
-0.214771
0.120842
-0.0342958
0.446106
-0.26461
0.399304
0.0748231
-0.474127
-0.146814
-0.303671
-0.442993
0.129333
0.489359
-0.192532
-0.296827
-0.318073
-0.180065
0.228558
-0.245701
-0.501939
0.320782
0.181157
0.0282952
0.440356
0.124408
-0.212353
0.402862
-0.0846636
0.148034
-0.142264
-0.265225
0.407488
-0.346904
-0.237501
0.47597
-0.400776
-0.0751942
-0.0339441
-0.141534
0.175478
0.529984
-0.120911
-0.409073
0.369561
-0.104073
-0.0763083
0.10872
-0.155267
-0.0881833
0.24345
0.399763
-0.194831
-0.204931
-0.328272
-0.29295
0.512079
0.0995894
0.430395
0.122075
0.259109
-0.381184
-0.188338
-0.276169
-0.317613
0.49326
-0.175646
0.131317
0.0582218
-0.0375468
-0.306935
-0.119907
-0.296718
-0.150086
0.411429
-0.47495
0.0635206
0.0814057
0.0411661
-0.16191
0.120743
-0.0604103
-0.493015
0.225285
0.0578117
0.102824
-0.217949
0.0615247
-0.188673
0.127148
-0.341635
0.308354
0.0332805
-0.399277
0.108832
-0.106401
0.191609
-0.403962
0.260822
0.187888
0.114495
-0.460865
0.0305691
0.0563716
-0.0869407
0.125069
-0.376269
0.2512
-0.336147
0.383565
0.0868471
-0.0217748
0.36054
-0.338765
0.430065
-0.178237
-0.251828
-0.402558
0.205831
0.351216
-0.226146
-0.167234
-0.0880248
0.199292
-0.311103
-0.208943
0.265303
-0.444624
-0.0192844
0.150212
0.149953
0.370664
-0.104451
0.208955
-0.0520341
-0.156921
4.7823e-05
0.105527
-0.328484
0.169639
0.158845
0.0809683
0.14925
-0.230218
-0.192013
0.0411501
0.150862
0.20549
0.119831
-0.325321
0.195475
0.072605
-0.26808
-0.166949
0.133005
0.0955521
-0.132771
0.144086
-0.387394
0.243308
-0.399527
0.164489
0.235038
-0.0600858
-0.116494
-0.447041
0.470213
-0.124841
-0.372351
0.166866
0.232897
0.200945
-0.135982
0.0619273
0.0740547
-0.365591
-0.064979
-0.328052
0.219165
0.108886
0.0924504
0.169655
-0.262105
-0.161798
-0.0837512
0.245549
-0.15385
0.378344
-0.224495
-0.339421
0.317646
-0.265519
0.389374
-0.123854
0.222441
-0.316711
0.0426891
-0.0299982
-0.0782556
0.247581
-0.0699994
0.0946064
-0.024607
-0.0836131
0.192457
-0.108844
-0.00847003
0.327158
0.249569
0.110385
0.499846
-0.217648
-0.282197
-0.288897
0.188184
0.100713
-0.214274
0.405882
-0.250979
0.443584
0.306087
0.139501
-0.218931
-0.277774
0.477791
-0.29976
0.169321
0.0396344
-0.176363
-0.206528
-0.083976
0.168216
-0.0842404
0.213412
0.0961075
-0.0399761
0.132024
-0.0920484
0.306653
-0.101163
0.133038
-0.39434
0.261302
-0.285833
-0.350706
0.419069
-0.0683636
0.0969723
0.189982
-0.286954
0.125879
0.25465
0.154681
-0.0194204
-0.13526
0.117732
-0.295853
-0.484164
-0.0195608
0.503725
0.305757
-0.0963729
-0.209384
-0.371608
0.217758
-0.218469
-0.253714
0.472182
-0.46433
0.245861
-0.16522
0.249007
-0.0837872
-0.110645
-0.302449
0.134297
0.295768
-0.327814
0.22347
0.104344
0.430156
-0.285906
-0.271682
0.0613565
-0.118615
0.062427
-0.217694
-0.428796
0.298067
0.130729
-0.0416673
0.127559
-0.0858913
0.00429943
0.0383897
0.146128
-0.163698
-0.270281
0.395464
0.133116
-0.175158
0.170493
-0.250159
0.223409
-0.0966315
-0.126778
-0.0550412
-0.161416
0.216457
-0.228895
-0.170633
-0.14021
-0.233119
0.103722
0.202035
0.324451
-0.41348
0.0890285
-0.136906
-0.0571146
0.438328
-0.0877772
-0.0728584
-0.120557
-0.158681
0.251131
-0.203212
0.207998
0.106065
-0.314063
0.0951975
0.128212
-0.288402
-0.150572
0.438975
-0.202993
-0.236813
-0.124181
0.0647334
0.059448
-0.105458
0.407499
-0.30204
-0.150199
0.0896929
0.0605065
-0.17903
-0.109866
-0.409975
0.176218
-0.109812
-0.0664064
-0.125414
0.446623
0.306301
0.190181
0.124798
-0.341275
0.000350461
-0.0282852
-0.39143
0.215067
-0.129938
-0.446291
0.378238
-0.234152
-0.103888
0.213325
-0.109437
0.524518
-0.349794
-0.13942
0.033476
0.105945
-0.0599792
0.428886
-0.474479
0.156866
-0.485584
0.310158
0.175426
0.139377
-0.188846
-0.149215
0.385083
0.0777897
-0.239453
-0.110826
7.28891e-06
-0.164322
-0.532058
0.231101
0.300958
0.233587
0.121194
-0.509742
0.203869
0.305873
-0.0683183
0.145371
-0.164814
0.125212
0.0396011
-0.187946
-0.300314
-0.0739186
-0.0992965
0.317689
-0.0844686
0.254962
-0.421317
-0.299594
0.136129
-0.384542
0.248412
0.124275
-0.389794
0.00526921
0.0368372
0.00139933
-0.199431
0.0915218
-0.329775
-0.202283
0.161137
0.269724
-0.0447837
-0.336823
-0.346496
0.461442
-0.114945
-0.175449
-0.334293
0.192322
-0.187944
-0.0043778
-0.149679
0.123819
0.0258599
-0.167348
0.142229
0.0251186
0.100304
0.201457
-0.30176
-0.388426
0.123302
0.265124
0.342744
-0.50519
0.162446
0.015504
-0.141973
0.126469
0.376433
0.00713207
0.12195
-0.199068
0.077118
-0.338713
0.254779
0.263948
-0.164469
-0.0994788
-0.501666
0.35842
0.143246
-0.243475
0.170646
-0.210275
0.0396289
-0.125447
0.394051
-0.268605
-0.2353
0.152839
-0.485925
-0.176032
0.433993
-0.257961
0.0414038
0.354616
-0.39602
0.50307
-0.294824
-0.208246
0.0168115
-0.156639
0.139827
-0.105373
-0.299246
0.127841
0.171405
-0.143956
-0.291024
0.43498
-0.481337
0.117361
-0.0599745
-0.0573868
0.0674025
-0.190695
0.123292
0.0737398
-0.464583
-0.107434
-0.0319862
-0.0726366
-0.0194682
-0.319245
0.447217
-0.122766
-0.316411
0.452209
-0.135798
0.153134
0.083427
-0.236561
0.426076
-0.138759
-0.287317
-0.380816
0.139994
0.240822
-0.0554474
-0.0519641
-0.0982352
-0.47095
0.178796
0.292154
-0.350221
0.134189
0.216032
-0.191256
-0.550477
0.227535
0.322942
0.112987
0.219576
-0.332563
0.104765
0.0714534
0.124522
-0.327344
0.202822
-0.0337705
0.102823
-0.387623
0.2848
-0.136195
-0.308926
0.445122
-0.0578123
-0.0100635
-0.125928
0.135992
-0.238441
-0.312036
0.390791
-0.287968
-0.300094
0.0957807
0.155672
-0.462066
0.205458
0.256609
0.236961
-0.155877
-0.0810836
0.454051
-0.211203
-0.242848
0.157991
0.167101
0.274845
-0.18807
-0.102077
0.290147
-0.156864
-0.3273
-0.0243724
0.149132
-0.257404
0.160591
-0.100854
0.264587
0.368524
-0.232394
-0.249281
-0.245675
0.0499044
-0.290399
-0.139312
0.28601
0.145049
-0.558246
0.239668
0.318577
0.0877686
0.203221
-0.290989
0.438276
-0.0404669
-0.14131
0.389997
-0.248687
0.152974
-0.208016
0.0838332
0.178949
0.436444
-0.299012
-0.137431
0.35827
0.351777
-0.493025
0.141248
0.304997
0.121079
0.137934
-0.182185
-0.26574
0.447925
0.139172
-0.343909
0.204737
-0.200904
0.481388
-0.280484
0.167807
0.0921583
0.149949
-0.165867
0.0159181
-0.327145
0.390986
0.0708632
0.0440224
-0.186093
0.14207
-0.274506
0.266036
-0.119014
0.368582
0.0629123
0.413058
-0.268056
0.13919
0.128866
0.409839
-0.123829
-0.171152
0.421799
-0.250648
0.132996
-0.158879
0.0258829
-0.554651
0.232489
0.322162
-0.151872
0.0688642
0.0830079
-0.329553
0.47396
-0.144406
-0.269583
0.156209
0.113374
0.135587
-0.0582364
-0.412368
0.297614
-0.0326098
-0.134738
0.403252
-0.462399
0.0591466
0.0299396
0.216992
-0.120774
-0.209657
0.330431
0.0746143
0.0344612
-0.142674
0.180936
-0.0382621
-0.234968