/*--------------------------------*- C++ -*----------------------------------*\
| =========                 |                                                 |
| \\      /  F ield         | OpenFOAM: The Open Source CFD Toolbox           |
|  \\    /   O peration     | Version:  v2012                                 |
|   \\  /    A nd           | Website:  www.openfoam.com                      |
|    \\/     M anipulation  |                                                 |
\*---------------------------------------------------------------------------*/
FoamFile
{
    version     2.0;
    format      ascii;
    class       volScalarField;
    location    "250";
    object      k;
}
// * * * * * * * * * * * * * * * * * * * * * * * * * * * * * * * * * * * * * //

dimensions      [0 2 -2 0 0 0 0];


internalField   nonuniform List<scalar> 
18598
(
0.000107076
7.73329e-05
0.000149268
0.000152524
9.65284e-05
9.92876e-05
0.000112991
0.000136545
0.00491159
0.0256341
0.000114005
0.0644623
9.33609e-05
0.0693738
0.000134172
0.000147752
0.0391627
9.90092e-05
0.000102543
0.0867838
0.000106877
0.000101423
0.066311
9.82695e-05
9.8494e-05
0.0398783
0.00389847
0.0001213
0.00408017
0.000105663
0.0205785
0.000137243
9.90106e-05
0.000119198
0.000112931
0.00448736
0.000100264
0.00011384
9.61771e-05
0.0424076
0.000163288
0.00430447
0.000349654
0.0663697
0.000106968
0.000102182
9.96947e-05
0.0169789
9.05943e-05
9.90123e-05
0.000109521
0.0147332
0.000233791
0.000181475
0.000101147
0.000111146
0.000122263
0.000134776
8.99972e-05
0.000107175
0.018672
0.00013639
0.000121138
9.84504e-05
0.000280319
0.0164752
9.02638e-05
9.34751e-05
0.0439278
9.77952e-05
9.40793e-05
0.000109372
0.0186493
0.000229224
0.000128956
0.000157136
0.000130763
0.000110536
0.000128955
9.41816e-05
0.0844595
0.000102144
0.000116141
0.0398512
9.91302e-05
0.0213366
9.78461e-05
0.10651
0.0001204
0.000105514
0.00010556
0.000177324
0.000106935
0.000273336
0.0753201
9.5655e-05
0.0374251
0.000114473
0.0843328
0.00012167
0.000120742
0.000133514
0.000101464
9.6507e-05
0.000124508
9.57048e-05
0.000130802
0.019387
0.000120164
0.000298144
0.000109574
0.0207639
0.000132389
0.000101601
0.000169649
0.000108593
0.0836799
0.000106604
9.53124e-05
0.000100495
0.0625018
9.62047e-05
9.523e-05
0.000110063
0.0403963
9.55019e-05
9.40704e-05
0.000107012
0.00441014
9.69576e-05
9.324e-05
0.000142989
0.0520031
0.000105738
0.0385297
0.000109417
0.000126993
0.000120573
9.96045e-05
0.000257999
0.00567323
0.000107363
0.000121728
0.051233
0.000114045
0.000102689
0.00658112
0.000168264
0.000114348
0.000109548
9.58132e-05
9.37532e-05
0.000110321
0.0310709
9.54865e-05
0.000114358
0.0340973
9.56422e-05
9.30299e-05
0.000100361
0.000117139
0.000280468
9.05478e-05
9.50616e-05
9.66538e-05
0.0481016
0.00126554
0.000137541
0.000132615
0.000116561
0.000128548
0.000117013
0.0605958
0.000223555
9.78608e-05
0.000101693
0.0779913
0.000108418
9.72846e-05
0.0418908
0.000109977
0.010262
0.000139856
9.93648e-05
0.0210961
0.000109489
0.0333665
0.0400266
0.000124239
0.000246059
9.07992e-05
9.65362e-05
0.000138282
0.0324767
0.000100854
9.8245e-05
0.0700598
0.0173755
0.000115657
0.000349572
0.0277361
0.000110551
0.000116592
0.00014851
0.000105294
0.101109
0.00143486
0.000110467
9.52309e-05
0.000101439
0.000108626
0.0372946
0.000103984
0.000130838
0.000168907
0.000101464
0.000168681
0.000103706
0.000133627
0.000144525
9.21117e-05
0.000115447
0.000102889
0.000124863
0.000108773
0.000103756
9.54295e-05
0.000117128
0.0552226
9.51176e-05
0.0517964
0.0323459
0.000114166
0.000106751
0.000444695
0.0888414
9.94574e-05
0.00010962
9.82528e-05
0.000105509
9.48435e-05
0.000108149
0.0181587
9.06297e-05
0.000294034
0.000101959
0.000117514
0.000107739
0.000101704
9.80476e-05
0.0278354
0.000538802
0.104333
0.0549617
0.000110492
0.0684834
0.000121392
0.0116484
0.000122196
0.0397376
9.71767e-05
0.000111065
0.0233005
0.0668805
0.00563133
0.000105911
9.16495e-05
0.0239417
0.000158984
9.73636e-05
0.000103064
9.28437e-05
0.000108366
0.0001098
0.00933539
0.0968952
0.046315
0.0396606
0.000161248
0.000112352
0.000107231
0.129808
0.000102654
0.00866701
0.0408596
0.00010905
0.000152314
0.000143294
9.91972e-05
0.0334801
0.000160379
0.0114445
0.0231753
0.0131234
0.0884391
9.91252e-05
9.07917e-05
0.000440117
0.000123431
0.000108486
0.0821812
0.0256187
0.000117249
0.0396205
9.79271e-05
0.000137861
0.0468832
0.000109732
0.0206631
0.000865557
0.068271
9.62147e-05
0.000497252
0.0238592
0.0001154
0.000106122
0.000121321
9.60674e-05
0.000122565
0.00989782
9.34781e-05
0.0558347
9.48471e-05
0.000106916
0.000103008
0.0403898
0.000131593
0.000196427
0.000101125
0.000102174
9.49375e-05
9.07238e-05
0.0149109
0.0379465
0.0001019
0.000323578
0.00010724
0.0200891
0.000157541
0.000106058
0.000107424
0.000104817
0.00022588
0.0328301
0.000109924
0.026022
0.0351564
0.026934
0.00788869
0.0499313
0.000106132
9.37495e-05
9.39067e-05
0.000312297
0.000172303
0.000103287
0.000153219
0.0309658
0.000160844
9.85127e-05
0.00011958
0.0368738
0.000128808
0.000102536
9.31059e-05
0.000102037
0.013714
0.0219014
0.000113845
0.0852753
0.000104385
0.010108
0.000105376
0.0466366
0.000133611
0.013393
0.0396417
0.000103187
0.000121591
0.0431014
0.0864335
0.000127712
9.88377e-05
0.000111935
9.45963e-05
0.0212866
0.000117457
0.000146439
9.2627e-05
0.000109525
0.000389494
0.000106537
0.000112691
0.000111843
0.0770873
0.000103177
0.000101495
0.000119955
0.000317952
0.000104646
9.44202e-05
0.000122316
9.75312e-05
0.000146194
0.0302877
0.039817
0.0146609
0.0426444
0.0356078
0.000130761
0.000127063
0.0267341
0.000115945
0.00010652
0.000148354
0.000108885
0.000109375
0.000105208
0.0933834
0.000104439
0.000105721
0.000115454
0.000129629
0.0141261
9.39855e-05
9.73208e-05
9.39584e-05
0.000107585
0.000111672
0.0169313
9.84227e-05
0.0109089
9.74199e-05
0.000300108
0.000191699
0.0243315
9.0926e-05
0.000127914
0.00031963
0.000113148
0.0742664
0.0155051
0.000136631
9.49472e-05
0.000110449
0.0268626
0.0376884
0.0544999
0.000102538
0.00055815
9.10821e-05
0.0374799
0.0153381
0.000147528
0.0970256
0.000103344
0.000104799
0.000127605
9.92296e-05
0.0001273
0.00384436
0.000137175
0.000146217
0.0962332
0.000150551
0.000117841
0.0121883
0.000122728
0.0225062
9.23294e-05
9.54514e-05
0.000104167
9.95024e-05
0.0833445
0.000115288
9.77801e-05
0.00011342
9.85635e-05
0.029343
0.000123273
9.08505e-05
0.00937948
0.000138986
9.79702e-05
0.000137263
9.6107e-05
0.000133642
0.00013402
0.000101397
0.000114065
0.000102154
0.000169185
0.000108611
0.000204674
0.0216905
0.00010568
0.000146805
0.000147301
0.0850079
0.000102827
0.053872
0.000374238
0.000110134
0.0231945
9.31514e-05
0.000104249
0.060428
0.000109135
0.00011149
0.0196323
9.76525e-05
9.53716e-05
9.55271e-05
9.72978e-05
0.000112369
0.00010767
9.56422e-05
0.0295989
0.0212438
0.000106372
0.000106471
0.037918
9.91494e-05
9.74408e-05
9.46749e-05
0.0742591
9.86612e-05
0.000114743
0.098927
0.0387147
9.61009e-05
0.000156905
0.000111653
9.53915e-05
0.000375768
0.0536221
0.00842423
9.14984e-05
0.000103332
0.00636385
9.88178e-05
0.00970466
9.60082e-05
0.000111958
0.000110492
0.0628455
0.000111928
0.000159602
9.4801e-05
0.00464023
0.0261764
0.0667346
0.00191887
0.000114596
0.0635346
9.40226e-05
0.0364343
0.0176576
9.13766e-05
0.000146829
0.0271143
0.000121364
0.000105535
0.000100435
0.000105633
0.0718208
0.000113145
0.0282804
0.000111693
9.50933e-05
9.55625e-05
0.000384317
0.00012097
0.000103493
0.0247551
0.069689
0.00011464
0.000112665
0.00011504
9.2219e-05
0.000482968
0.000161788
0.0583405
9.10113e-05
0.109428
0.0597172
0.000108282
0.00277385
0.000122081
0.0987562
0.00167169
9.64093e-05
0.0729893
0.00012764
0.000351241
0.0320938
0.000115461
0.000107422
0.000135888
0.000109633
0.000106545
9.12091e-05
9.60446e-05
0.000101204
9.18107e-05
0.0241636
0.000103396
0.000104526
0.000147466
0.000108045
0.0211979
0.0560054
0.0162052
0.000103603
0.0753771
0.000110054
9.63803e-05
0.000105641
9.11134e-05
0.0672904
0.0361763
0.000109368
0.000103199
0.000119167
9.40782e-05
9.09907e-05
0.000237088
0.000119886
0.000137655
9.4089e-05
0.000119569
9.25893e-05
0.000116772
0.000430286
9.63091e-05
0.000115528
0.000150042
0.000106162
0.0199701
0.00655709
0.000103417
0.000128145
9.64921e-05
0.000141176
0.000115249
0.000107598
9.26253e-05
0.000147091
0.0311112
0.0585183
0.000105757
0.000132494
9.83123e-05
0.000103704
9.24953e-05
0.0231974
0.0370465
0.000336647
0.000106308
0.00021178
9.68762e-05
0.000109668
0.0001015
0.000137875
0.000122023
0.0344302
0.000114805
0.000125093
0.02181
0.000112929
9.5667e-05
0.0689461
9.18054e-05
0.0277266
0.000102282
0.00014487
9.5575e-05
0.000127253
0.000548666
0.095228
0.000108193
0.000104139
0.000106325
0.00012258
0.000107698
0.11478
0.000107189
0.0057369
0.00013689
0.000112487
9.07609e-05
0.000103452
0.000103803
0.000116547
0.00011219
0.00576368
0.0152362
0.000120977
0.00011044
9.08859e-05
0.0001477
0.000121174
0.000121386
0.0254364
0.000111622
9.3047e-05
0.000135783
0.00012084
0.0413438
0.000101137
0.0604292
0.000132222
0.0338785
0.00010598
0.0334444
0.000115945
0.0241982
0.000101273
0.000145905
9.89543e-05
0.000101757
0.000119762
0.0354673
0.0690078
9.51284e-05
9.87911e-05
0.000103948
0.000340208
0.000109337
0.000102021
0.00435997
0.00010662
0.000347987
0.0254699
0.000101466
8.80889e-05
0.000136264
0.000125826
0.00335895
0.000121702
0.00014684
0.000512356
0.000132915
0.000108491
0.00487091
0.0660268
0.0197017
0.0236387
0.0405235
9.63933e-05
0.000423153
0.000130315
9.86515e-05
0.0569688
0.0125805
0.000103502
0.000108206
0.0308198
0.0400975
0.0837387
0.00571383
0.0255119
0.000105884
0.000116069
0.000191148
0.000113285
0.0276897
0.000108481
9.61775e-05
0.00172635
9.62304e-05
9.07461e-05
0.000103297
0.000101734
0.000146922
0.000109446
0.00376468
0.000102384
0.000112772
0.0292225
0.000122303
0.000135823
0.000113964
0.0284556
9.55982e-05
0.0340655
9.40637e-05
9.28462e-05
9.88709e-05
0.0574995
0.000107063
0.000113229
0.000125997
0.000146973
0.000109769
0.000122448
0.112019
0.000384859
0.029794
0.0479689
9.09606e-05
0.000204049
0.00346189
0.000119657
9.50763e-05
0.000115682
0.000109194
0.104767
0.000132777
9.89908e-05
9.94618e-05
0.000197965
9.82452e-05
0.0295765
0.0266266
0.000108305
0.00010626
0.00010785
0.000122365
0.0111757
0.000147579
0.000106945
9.04012e-05
0.000122755
9.46018e-05
0.000124832
0.0800862
0.067697
0.000111999
0.000102325
0.000797306
0.0119964
9.07256e-05
0.000100931
9.26623e-05
0.000101001
0.0305294
0.0011204
0.000157157
0.0552711
0.000105269
0.000137221
0.00011662
9.54288e-05
0.000106938
0.0122328
0.026151
0.000104813
0.0244665
9.4624e-05
0.000107459
0.00010897
0.000112767
0.000110435
0.000137878
0.000107109
0.000107781
0.000115817
0.0408988
0.000413398
0.0025684
0.000139648
0.000126793
0.000108451
9.66865e-05
0.00012585
0.0623519
0.0177914
0.000142226
0.000104995
0.000116545
0.00429298
0.000132623
0.0984635
0.000124563
0.000107504
0.00242646
9.95005e-05
9.44305e-05
0.000386641
9.59239e-05
0.000146282
0.000109924
9.45367e-05
0.00022396
0.0747305
0.0241736
9.68071e-05
9.93991e-05
0.000125891
0.0270512
0.000412538
9.12903e-05
9.29929e-05
0.000110865
0.000106586
0.000125648
9.1557e-05
0.0437141
0.000136352
0.000146789
0.0202999
0.000153212
0.000114364
0.041146
0.000132222
9.45724e-05
0.102231
0.0138648
9.42755e-05
0.00327237
0.000100602
0.0069198
0.000136729
0.000106474
9.11803e-05
9.46325e-05
0.000103142
0.000111089
0.000101652
9.14386e-05
0.00810418
0.0103705
0.000142283
0.000121062
0.0224302
0.000148958
0.000147426
0.000132769
0.000106311
0.0171373
0.00010749
0.000101628
0.00011027
0.000959418
9.35887e-05
0.000107068
0.000120766
0.00010118
0.0397487
0.000127562
0.000100099
9.78894e-05
0.00014721
0.000115673
0.000144319
0.000143772
0.000165204
0.000111851
0.000102105
0.000111585
9.80852e-05
9.13126e-05
0.00011571
0.00619713
0.000111725
0.0497826
9.97502e-05
0.000120873
0.0290332
0.0135268
0.000114519
0.0794568
9.03877e-05
0.108134
9.94012e-05
0.0252028
0.00013744
0.000127621
9.96969e-05
0.0173808
0.0212043
0.000221311
0.000109373
0.0679621
0.000104547
9.80623e-05
0.00155468
0.000123117
8.97252e-05
9.73848e-05
9.18487e-05
0.000144037
0.000108331
9.97815e-05
0.0016448
0.000110148
0.000154089
0.00956911
0.000108752
0.0311555
0.0819177
0.000136133
0.0848359
0.000121597
0.000105134
0.00328694
0.0262136
0.0913211
0.0202706
0.000115358
9.43104e-05
9.83853e-05
0.000101385
0.000144582
0.00239497
0.00466015
0.0001046
0.00010845
0.000123432
9.84695e-05
0.000164871
0.000126675
9.96892e-05
0.000104614
0.000115339
0.000384092
0.0659191
0.0232119
9.2384e-05
9.55009e-05
0.000103646
9.21709e-05
9.16815e-05
9.92991e-05
9.92706e-05
0.0282503
0.00010513
0.000130571
0.000388345
9.67158e-05
0.0209787
0.0415071
0.000113454
0.00369759
0.000108456
9.28569e-05
9.1791e-05
0.00013247
0.000138175
0.0317258
0.0193028
0.000102075
0.0663627
0.000100545
9.78608e-05
0.0583152
0.000118002
0.000107794
0.000100027
0.0001245
0.000102603
9.52113e-05
0.026505
0.000101885
9.69414e-05
0.0103468
0.000100329
0.000387443
0.00010769
0.000106324
0.0232952
0.00013082
0.000100114
0.0654428
0.000100087
0.000102419
0.0639005
8.99959e-05
0.037978
0.000112145
0.0366066
0.000108777
0.01962
0.00010611
0.0803895
0.000106258
0.0809108
9.93452e-05
0.0212349
9.72622e-05
0.000116077
0.000106728
0.000115692
0.000160073
0.00163575
0.000118373
0.0699256
0.000107631
0.0347713
9.15155e-05
0.000104093
0.000108293
0.000107959
0.0230772
0.000116366
0.0189094
0.0454306
0.0501243
0.00010069
0.038962
9.96924e-05
0.00011622
0.000116842
0.0352195
0.000106206
9.78136e-05
0.00732436
0.0216155
0.0001272
0.0283508
0.0339587
0.000117732
9.39241e-05
0.00010602
0.0177367
0.000319775
0.000108104
0.000117077
0.000107179
0.000102724
9.11359e-05
0.000217062
0.000146113
0.000125309
0.000116146
0.000110513
0.000120897
0.0001072
0.0441688
0.101024
9.95629e-05
0.045678
0.000106169
0.00770178
9.92488e-05
9.86415e-05
0.000107123
0.000108476
0.000106428
0.0113515
0.00014873
0.000113515
0.000105235
0.000138711
0.000112852
0.000106756
0.00430691
0.0112803
0.000170529
0.000103909
9.92528e-05
0.000103813
0.000137758
9.58531e-05
0.049167
0.00309901
0.0180404
0.000126785
0.000104913
9.67721e-05
0.0791304
0.000100353
0.0406611
0.000118169
0.0028665
0.0727253
9.47657e-05
0.000117976
9.16708e-05
0.000139686
0.000113859
0.000117836
9.75804e-05
0.000117251
0.00092278
0.011265
0.000196962
0.000105095
0.000105685
0.00286538
0.000117783
0.00560661
0.0261653
0.000103444
0.000110852
9.97356e-05
9.65272e-05
0.000107052
0.00010664
9.22771e-05
0.000100744
9.70149e-05
0.0806067
0.000114466
9.41124e-05
0.000102579
0.035825
0.00012798
0.0122466
9.10919e-05
9.16707e-05
0.000109192
0.0682531
9.94621e-05
0.000114128
0.000101882
0.00010901
0.000113284
0.000151331
0.00017584
0.0395507
9.01415e-05
0.000135732
0.000102667
0.000105803
0.000106446
0.000159467
0.00014605
8.9966e-05
0.000152164
0.000102231
0.000107164
0.000110346
0.000138674
0.0277427
9.84608e-05
0.0153065
9.70562e-05
0.0321995
9.73418e-05
0.046163
0.000215435
0.000135907
0.000110355
0.000101717
0.140211
0.000105429
0.000109074
0.000167965
0.11384
0.0379178
9.80379e-05
0.0366161
0.00154895
0.015328
0.000665189
0.054718
0.0389006
9.2456e-05
0.000127497
0.000111977
0.000112895
9.72163e-05
0.000120633
9.09158e-05
9.92415e-05
0.000119535
0.0265613
0.000402693
9.55723e-05
0.000534752
0.000104723
0.00361512
0.000122766
0.00539242
0.000122067
0.000111803
0.000136305
9.49023e-05
0.0189335
9.58027e-05
0.000100154
0.000115425
0.0277858
0.000147639
0.000145706
0.00335019
0.0341037
0.0204376
9.10434e-05
9.78854e-05
0.000121118
0.0001078
0.000112584
0.000102497
9.28252e-05
0.000127536
0.0256468
0.0138247
0.000117189
0.000112104
9.24513e-05
9.16184e-05
0.00014808
0.046159
0.000110156
0.000106884
0.000102898
0.0287869
0.000252564
0.000126243
0.000197143
9.45427e-05
0.0152298
9.79783e-05
0.000107205
0.00010873
0.000141657
0.040141
0.000115371
0.000119691
0.000106839
0.000117256
0.000110229
0.000120582
0.000106537
0.000105043
0.0928851
9.83487e-05
9.9872e-05
0.0247821
0.0926859
0.00672461
9.44374e-05
0.000102448
0.000138254
0.000132449
0.000108818
0.000106453
0.000100434
0.000147946
0.000142313
0.000147594
0.0415976
0.0562634
0.000101847
0.000150355
9.69586e-05
9.27634e-05
0.0525091
0.000102839
0.000108113
0.0452451
0.000614774
0.0058257
9.38376e-05
0.000106664
9.87278e-05
0.0887495
9.46642e-05
0.000122588
0.0001181
0.000282776
9.38019e-05
0.0134908
0.00435375
0.000107073
0.0334326
0.000106975
0.0641791
0.011616
0.000112685
9.52081e-05
9.3776e-05
0.000176661
0.000117483
0.000109725
9.92692e-05
0.000104645
0.000145915
0.000158867
0.0356007
0.000101425
0.000127719
0.00013513
0.000117985
0.00982147
0.000104048
0.0588633
0.0001384
0.000114768
9.19885e-05
0.000149758
0.000108799
0.00011184
0.000190363
0.000107909
0.000100321
0.0278206
0.000102377
9.3721e-05
0.000101864
9.90397e-05
0.000158306
0.000141586
0.000115856
0.000229913
9.36357e-05
0.00012093
0.0385284
0.0756821
9.73402e-05
0.045555
0.000123377
0.00572102
0.081128
0.0137961
9.22092e-05
0.000108567
0.000122398
0.000119999
0.00343976
0.000118089
0.00016762
0.000108568
0.000138173
9.2576e-05
0.000111608
0.039034
0.0198988
0.00363517
0.000111593
0.037362
9.8717e-05
0.00013839
0.000109335
0.000354013
0.000103345
0.000113349
0.0867626
0.000208789
0.000109442
0.00520011
0.000139657
0.0726259
0.000108699
0.0265016
0.000195919
0.000104746
0.00011439
0.00574949
9.81783e-05
0.000117596
0.00595882
0.000102476
0.000111555
0.123122
0.000110476
0.000379337
0.0124957
0.000119161
9.89895e-05
0.00367598
0.000109605
9.46755e-05
0.0579932
0.000162996
0.000115908
0.0711118
0.000116309
0.000121708
0.00787858
0.000121137
0.000107931
0.000118024
0.000110163
0.000108146
0.000107154
0.000204615
0.0066236
0.000107187
0.000131368
0.000146927
0.000102249
0.00010012
0.0400281
0.000101074
0.000113612
0.00232035
0.000128375
0.000152726
0.000109156
9.66046e-05
0.000102737
0.000106377
0.000108305
9.47194e-05
0.000114565
0.0110216
0.000111541
0.00013581
0.000121896
0.000120138
0.0858167
0.0290184
9.70255e-05
9.54506e-05
0.000112972
0.000101963
0.000105138
0.0729999
0.0527944
0.000117864
0.000147416
9.08959e-05
0.000102814
0.000139545
0.00012488
0.000144596
0.00570788
0.000149502
0.000124254
0.00014586
0.000101812
0.000106394
0.0436293
9.56546e-05
0.000141998
0.000161495
0.000106808
0.00437016
0.000117111
0.000261877
0.000113992
0.000138827
0.000124843
0.000107379
0.000101758
0.00014701
0.000128843
0.000107057
0.0759074
0.0893133
0.0951353
9.725e-05
0.000114803
9.96152e-05
0.000104233
0.000107737
9.11195e-05
0.000113625
0.000108675
0.0231364
0.000117427
0.000108806
0.000118353
0.0983839
0.084226
9.81345e-05
0.000122522
0.0590218
0.00869547
0.00011138
0.0226685
0.0806969
9.28334e-05
0.0796931
0.000105252
9.55866e-05
0.000239073
0.000100726
0.000100544
0.0954996
9.63148e-05
0.000150304
9.795e-05
0.0341156
0.000115351
0.000351656
0.0174545
0.000244259
0.00416165
0.000109125
9.76572e-05
0.000107739
0.000107696
0.000228827
0.000115338
0.000110815
0.0439321
9.86963e-05
0.0238018
0.0127786
0.000120421
0.000103422
0.000102159
0.0719903
0.000101066
0.000113616
9.20738e-05
0.000100739
0.000100139
0.0229667
9.31544e-05
9.21482e-05
0.0347745
0.0148888
0.000235462
0.000137961
0.000103249
0.10898
0.064244
9.79017e-05
0.0636384
0.00053094
0.0721488
9.60583e-05
0.000124379
0.000135617
0.000107495
0.00011501
0.0101277
0.000119547
0.000180987
0.00011537
9.96649e-05
0.000107036
0.000128106
0.0722286
0.000106938
0.000106614
0.00012381
0.000103246
0.000103149
0.000126992
9.99204e-05
0.000106346
0.000113474
9.39794e-05
9.50636e-05
0.0990952
0.000108036
0.0437456
9.83256e-05
0.0342798
9.43936e-05
0.0208929
9.20987e-05
0.000111426
0.000103301
9.88949e-05
0.0280515
9.94052e-05
0.000108356
0.000147452
0.000109905
0.000146338
0.000205352
0.000106805
0.00013983
0.000111457
0.000132667
0.000102672
0.000106353
0.000109594
0.000109391
0.000142011
0.000118887
9.73207e-05
9.91344e-05
0.000177347
0.000379349
0.000111048
9.96933e-05
0.02848
0.0271006
0.000186477
0.00010046
0.000156309
0.000148025
0.000106867
0.000122944
0.000116378
0.0401117
9.82752e-05
0.000104539
0.00011141
0.000120515
0.0281799
0.000323665
0.000127233
0.000128705
9.72433e-05
0.0221592
0.000170757
9.4458e-05
0.000121498
0.00625104
0.000487847
0.000105028
0.000119011
0.0245205
0.0361027
0.0302551
0.00050839
0.000137173
0.000134997
0.0670171
0.013903
9.72412e-05
0.000147048
0.0890191
0.0825454
0.000110339
0.0571104
0.000122826
0.0217976
0.000117547
0.000258192
0.000136529
0.000104986
0.0699932
0.000111436
0.00010413
0.0058689
0.000119797
0.00160436
0.000116786
0.00011927
0.00012824
0.0490881
9.20399e-05
0.000107775
9.60507e-05
0.0928955
0.0446567
0.000147566
0.00010032
0.0338704
0.000105257
0.000100752
0.0366523
9.41324e-05
0.000103345
0.000126089
0.000110988
0.000330885
9.35915e-05
0.000112108
0.000112789
0.000112539
0.000127186
0.0373654
0.000107015
9.43459e-05
0.000101895
0.000146957
0.00011385
0.000121739
0.000105549
0.000128119
0.000130166
0.0485403
0.0394226
0.0781222
0.000112085
0.063642
0.000109916
0.0583717
0.0374671
0.130539
9.99178e-05
0.000110099
0.000112885
9.54584e-05
0.0275652
9.9067e-05
0.000314192
9.81367e-05
0.000330877
0.000104708
0.000102149
0.0236706
0.000102562
0.000108288
0.0379535
0.0516397
0.000105377
0.000100677
0.000107125
0.000230869
0.000107146
0.000284801
0.0210718
9.09374e-05
0.00330745
0.000105558
9.89398e-05
0.000113654
0.103745
9.79774e-05
0.000129913
0.0392605
9.45937e-05
0.000112453
0.000103225
0.000146159
0.000108509
0.0379051
9.47158e-05
9.4634e-05
0.000147596
9.33901e-05
0.000227386
0.0523973
9.68632e-05
0.0889601
0.0164981
0.000102264
0.0183512
0.000148783
0.000108967
0.000109983
0.000105389
9.6662e-05
0.000207577
9.20186e-05
0.0330581
0.000240996
0.00216102
0.0395315
0.0137542
0.000100655
0.0176454
0.000143488
0.000186185
0.0703973
0.000105684
0.0254212
0.00715391
0.0474858
0.00970754
0.0277288
0.000502925
9.92511e-05
0.000128312
0.00304244
0.0014575
0.00010075
0.000106002
0.000105794
0.000135108
0.0465284
0.000104641
0.000107101
0.000100866
0.000168344
0.0270235
9.3357e-05
0.000141488
0.000106027
0.0166477
0.000111039
0.00590757
0.000111188
9.64593e-05
0.000105092
0.000102754
0.000119445
0.000134849
0.0452714
0.000108921
0.0282364
0.000108745
0.000137106
0.000117727
0.000141189
9.74201e-05
0.0135586
0.0983497
0.000100835
0.000133145
0.00218243
0.000606333
0.000101453
0.000124134
0.000104389
0.000131947
0.108249
0.000119451
0.000100621
9.11374e-05
0.0383467
0.0199592
0.000114833
0.00031224
0.0286702
0.000105399
0.0490623
0.0373169
0.0247969
0.000129433
0.000190338
9.691e-05
9.79423e-05
0.00294663
0.0290105
0.00014218
0.000127261
0.0266218
9.80041e-05
0.000112448
0.000517459
0.000113509
0.000263473
0.000117294
0.000145205
0.0757949
0.0042334
9.18564e-05
0.000102059
0.00011271
0.00200107
0.0202732
0.00405217
0.000556357
0.000104309
9.78208e-05
0.000106759
0.00011076
0.0137757
0.0648455
0.0456103
0.000165949
0.0212007
9.54793e-05
0.000104113
9.87939e-05
9.37742e-05
0.000134746
0.000102023
0.000116989
0.000111263
0.000114216
9.71743e-05
0.000103483
0.116831
0.000109799
0.000106685
0.000227025
0.000104333
0.000108077
0.000112086
0.000144445
0.000113681
0.000104975
0.00014514
9.70863e-05
0.0361903
0.030402
0.000102168
0.0600741
0.000546714
0.00011816
9.35246e-05
0.000112135
0.000101179
0.000104177
0.000104949
0.000116321
0.000148849
0.0581995
0.0708519
0.000866084
0.000110826
0.000106031
0.000104693
0.000106546
0.000212981
0.000105382
0.0303807
0.000694072
9.83942e-05
9.8323e-05
0.0304219
0.00010628
0.00339545
0.0322207
0.0726531
9.32407e-05
0.0129534
0.0228338
0.0104034
9.61879e-05
0.000127682
0.00010572
0.000112181
0.0202265
0.0629124
0.000353181
0.000107738
9.71711e-05
9.9664e-05
0.000124309
0.0937891
0.000105536
0.000111651
0.0745958
0.0835173
0.000100028
0.000122395
0.000132303
0.00333689
0.000102561
0.000106729
9.72139e-05
0.000111002
0.000118923
0.0026541
0.000125413
9.65404e-05
0.000136877
0.0666916
0.000106367
0.000322072
0.000100302
0.000112666
0.0554592
0.000142151
0.0498744
0.000137182
0.0136054
0.000111885
9.62436e-05
0.000107706
9.96276e-05
0.00010198
0.000121199
9.7028e-05
0.000135291
0.0632303
9.90768e-05
0.0103709
9.58975e-05
0.000112881
0.000609582
0.000106995
0.000100285
0.000130042
0.000136456
0.000138855
0.0230848
0.000112424
0.000148044
0.000143226
0.0759291
9.8468e-05
0.00010398
9.78889e-05
0.000100363
0.000109197
0.000113913
0.000118035
0.000106313
9.99872e-05
0.0776398
0.0320951
0.000102546
0.00012139
9.42801e-05
0.082659
0.000107161
0.000101218
9.82406e-05
0.126656
0.0872981
0.000102034
0.069358
0.000122178
0.000112903
0.0926546
0.000290225
0.000114423
0.000204551
0.000104996
9.94609e-05
0.00014744
0.000302677
0.000117305
0.00010679
0.00130575
0.0654327
0.000103104
0.000101114
0.00816899
0.000103044
0.00010711
0.000101209
0.000145319
0.067749
0.000213497
9.16339e-05
0.00254465
9.70257e-05
0.00413008
0.000480352
0.000108551
0.000128754
0.000118448
0.000108265
0.080838
0.000471321
0.000106823
9.75661e-05
0.000102344
0.000107315
0.000102525
0.0397319
0.000156123
0.0358908
9.05972e-05
0.000101898
0.0141538
9.96399e-05
0.109718
9.80915e-05
0.000128516
0.000112039
0.00010269
9.79619e-05
0.000635699
0.0298345
0.0637132
9.90032e-05
0.000134923
9.35286e-05
0.000117064
0.000106643
0.000458322
0.000120965
0.0103673
0.0365913
0.000140834
9.79612e-05
0.0553072
0.000127613
9.75169e-05
9.88931e-05
0.0116068
0.000108133
0.000490564
0.000112863
0.00110199
9.63744e-05
0.0178006
0.000102133
0.000111664
0.000101214
0.0624851
0.00170316
0.000352722
0.000182124
9.86973e-05
0.000133886
0.0431519
0.0596006
0.000109089
0.00010165
0.000124293
9.78039e-05
9.3867e-05
0.00939594
0.00010585
9.34903e-05
0.000104886
0.000292232
9.65552e-05
9.31055e-05
0.102727
0.000106849
0.000115753
0.000223664
0.000107288
0.000101257
0.000113935
0.000116076
0.0158829
9.12169e-05
9.50707e-05
0.000805097
0.000126458
0.000100266
0.000752024
0.000439193
0.0204879
0.0742347
0.000103356
0.00530795
9.89038e-05
0.000101189
0.000101572
0.000104056
0.000108984
0.000127754
0.000101757
0.0478531
0.000112666
0.000123945
0.0200216
0.000113472
0.00011061
0.00365979
9.08506e-05
0.000110631
0.000113257
9.9344e-05
0.0113266
9.3808e-05
0.000100309
0.0181737
9.04995e-05
0.000113224
0.00298097
0.000110697
0.000181593
0.000515149
0.0131819
9.26174e-05
0.000130462
0.0583562
0.00010459
0.0266813
0.0029638
0.125332
9.91138e-05
0.000126127
9.06718e-05
0.000142882
0.000127131
0.000112647
0.000108507
0.0579886
9.41631e-05
0.0227895
0.000127141
0.0480749
0.000120878
0.000216779
0.00677124
0.000100039
0.000126302
9.97057e-05
0.000109485
0.00010205
0.00413901
0.000137092
0.130262
0.000107425
9.83829e-05
9.53651e-05
9.2213e-05
0.00011541
0.00010696
9.99329e-05
0.00014777
0.0623662
0.000419654
9.91702e-05
0.000421107
9.76089e-05
0.000122296
0.000129786
0.000107338
0.000114964
0.000136792
0.000137628
0.000105838
0.0261195
9.52758e-05
0.000406139
0.000115903
0.0731478
9.94737e-05
0.0222195
0.000147649
0.0287181
0.000104601
9.37387e-05
9.84048e-05
0.00649732
9.4564e-05
0.0601847
0.000121154
0.000101626
9.36823e-05
0.000338802
0.0791998
0.0438357
0.00386635
0.000160368
0.000106158
0.00474864
0.000118272
0.00010718
0.000328381
0.000132594
0.000142404
0.0273336
9.8515e-05
0.0764934
9.77008e-05
0.000155984
0.00010386
0.00013166
0.000186471
0.000118162
0.0233586
0.000106875
0.000146931
9.91833e-05
0.000100544
0.000124876
9.73792e-05
0.000118056
0.000110879
0.000480612
0.0804125
0.000129495
0.0679617
0.107545
0.000102627
9.51134e-05
0.00222492
0.000108262
0.00013361
0.000115941
0.000107158
0.0224485
0.000103899
0.00377467
0.000131718
0.000474466
0.000113471
0.000109042
9.25305e-05
0.000113636
0.000129097
9.62003e-05
0.000106722
0.000165218
0.0001206
0.000106347
0.000108317
0.000104209
0.00244811
0.0228987
0.0348233
0.000182014
0.000115099
0.000106453
0.000104191
0.000104429
0.000178006
0.0333794
0.0179447
0.0231151
0.000219687
0.00921553
0.000112764
9.68588e-05
9.66955e-05
9.71907e-05
9.80792e-05
0.0287199
0.0402039
0.000789159
0.000110472
0.0539098
0.000104283
0.000105259
0.000101995
0.00322097
0.000122233
9.10526e-05
0.000106911
0.000105811
0.000416862
0.103061
0.0718126
0.000262582
0.000108788
0.00014569
0.000246093
0.114918
0.0334089
0.0389579
9.44371e-05
0.038914
0.00016616
0.000134296
0.00011384
0.0293896
0.000101175
0.0501382
0.0267796
0.000184424
0.000137071
0.0801058
0.0694301
0.000107127
0.000108623
0.00181471
0.0464201
9.9906e-05
0.000127621
9.81812e-05
0.0285274
0.0357267
0.000105399
0.038264
0.000100413
9.78838e-05
0.000372294
0.00010053
9.65979e-05
0.000139145
0.0744027
0.00306668
0.101109
0.000133497
0.000147946
0.000347501
0.000158344
0.000121603
0.00784724
0.000118345
9.13117e-05
0.000126907
0.00013267
0.000103722
0.0500444
0.0701142
0.0132609
0.000126001
0.000100248
0.0192494
9.31973e-05
0.0209664
0.000102681
0.000118035
0.0292127
0.000109098
0.000117483
0.000113722
9.26324e-05
0.000300002
0.000176831
0.0388808
0.0561753
0.00113283
9.71134e-05
0.00211376
0.00195437
0.000137896
0.000370027
0.00010916
0.0395103
0.000117822
0.0676107
9.93433e-05
9.18198e-05
0.000116153
0.000107547
0.0766911
0.0332684
0.0217469
0.061601
0.000279312
0.000101246
0.00013975
0.0769805
9.33342e-05
9.34722e-05
0.0695483
9.93512e-05
0.000119164
0.000272097
0.000401307
0.000128311
9.56098e-05
0.00011018
0.000523729
0.0684839
0.000145349
0.0454312
0.000121749
9.89769e-05
0.000131829
0.000127293
0.00110092
0.000114773
0.000101733
0.000137595
0.000107073
0.0403202
0.000198292
0.0109193
0.0388118
0.0535887
9.57294e-05
0.000123734
0.00399655
0.000750254
0.000106723
0.0593837
0.000125337
0.000111903
0.0162452
0.0714695
0.00550852
0.0702891
0.0665721
9.10252e-05
0.0001005
0.0700192
0.052895
0.00011376
0.00058215
0.006157
0.00955366
0.0733392
0.00426293
0.000149461
0.074418
9.21134e-05
0.000146106
0.000214353
0.000105793
0.0762396
0.000122489
9.94674e-05
0.000407694
0.000148701
0.000104971
0.000109355
0.0751965
0.000106017
0.0683668
0.000130701
0.000135216
9.27767e-05
0.000117162
0.0508661
0.0484063
0.000135188
0.0484583
0.00010356
0.00302622
0.00213147
0.0503641
0.07756
0.000138183
0.0315011
0.00013696
9.37055e-05
0.0528232
0.00962475
0.000108891
0.000138633
0.0303302
0.0807287
0.0155671
0.000113753
0.000115237
0.031436
0.000354137