/*--------------------------------*- C++ -*----------------------------------*\
| =========                 |                                                 |
| \\      /  F ield         | OpenFOAM: The Open Source CFD Toolbox           |
|  \\    /   O peration     | Version:  v2012                                 |
|   \\  /    A nd           | Website:  www.openfoam.com                      |
|    \\/     M anipulation  |                                                 |
\*---------------------------------------------------------------------------*/
FoamFile
{
    version     2.0;
    format      ascii;
    class       volScalarField;
    location    "250";
    object      k_0;
}
// * * * * * * * * * * * * * * * * * * * * * * * * * * * * * * * * * * * * * //

dimensions      [0 2 -2 0 0 0 0];


internalField   nonuniform List<scalar> 
18598
(
0.000107088
6.44411e-05
0.000149268
0.000152519
9.65283e-05
9.92875e-05
0.00011299
0.000136546
0.00486666
0.0255959
0.000114005
0.064512
9.33608e-05
0.0694302
0.000134173
0.000147763
0.0392386
9.90091e-05
0.000102543
0.0869042
0.000106877
0.000101421
0.0662614
9.82692e-05
9.8494e-05
0.0399642
0.00382426
0.000121301
0.00400579
0.000105668
0.0205121
0.000137243
9.90101e-05
0.000119197
0.000112931
0.00450998
0.000100264
0.00011384
9.61773e-05
0.0423508
0.000163414
0.00433914
0.000349288
0.0664264
0.000106968
0.000102183
9.96948e-05
0.0169623
9.05945e-05
9.90122e-05
0.000109521
0.0147039
0.000233711
0.00017937
0.000101148
0.000111146
0.000122262
0.000134776
8.99969e-05
0.000107174
0.0186612
0.000129146
0.000121138
9.84497e-05
0.000279212
0.0166994
9.02637e-05
9.34752e-05
0.0439856
9.77949e-05
9.40798e-05
0.000109372
0.0186118
0.00022915
0.000128957
0.000157262
0.000130763
0.000110536
0.000128953
9.41821e-05
0.0845778
0.000102144
0.000116143
0.03994
9.91299e-05
0.0212669
9.78461e-05
0.106541
0.0001204
0.000105514
0.00010556
0.000176149
0.000106935
0.000273203
0.0753219
9.56556e-05
0.0375042
0.000114474
0.0844687
0.000121674
0.000120744
0.000133514
0.000101464
9.65064e-05
0.000124508
9.57048e-05
0.00013083
0.0193728
0.000120164
0.000293194
0.000109573
0.0207516
0.00013239
0.000101602
0.000169961
0.000108594
0.0838175
0.000106603
9.53117e-05
0.000100496
0.0625349
9.62052e-05
9.52296e-05
0.000110061
0.0404804
9.55023e-05
9.40705e-05
0.000107015
0.00444688
9.6958e-05
9.32399e-05
0.000142985
0.051859
0.000105737
0.0386153
0.000109417
0.000126997
0.000120574
9.96047e-05
0.000257793
0.00562052
0.000107363
0.000121727
0.0512676
0.000114045
0.000102689
0.00654737
0.000168183
0.000114348
0.000109547
9.58133e-05
9.37538e-05
0.000110322
0.0310054
9.54872e-05
0.000114358
0.0340128
9.56425e-05
9.30302e-05
0.000100361
0.000117136
0.00028042
9.05486e-05
9.50622e-05
9.66535e-05
0.0480515
0.0011985
0.000137541
0.000132614
0.000116563
0.000128548
0.000117013
0.0606356
0.00022348
9.78612e-05
0.000101693
0.0780413
0.000108419
9.72844e-05
0.0417969
0.000110006
0.0101342
0.000139855
9.93647e-05
0.0211009
0.000109489
0.0333368
0.0400148
0.000124239
0.000245919
9.07994e-05
9.65374e-05
0.000138281
0.0324702
0.000100853
9.82454e-05
0.0699881
0.0173639
0.000115654
0.00034915
0.0277066
0.000110551
0.000116592
0.00014851
0.000105295
0.101159
0.00137569
0.000110467
9.52312e-05
0.000101439
0.000108614
0.0373566
0.000103984
0.000130843
0.000168929
0.000101464
0.000168704
0.000103705
0.000133627
0.000144522
9.21119e-05
0.000115447
0.000102889
0.000124865
0.000108773
0.000103755
9.54297e-05
0.00011713
0.0552527
9.51178e-05
0.0516474
0.0323975
0.000114164
0.000106751
0.000446532
0.0888919
9.94574e-05
0.00010962
9.82509e-05
0.00010551
9.48436e-05
0.000108155
0.0181488
9.063e-05
0.000293893
0.00010196
0.000117514
0.000107739
0.000101704
9.80478e-05
0.0278155
0.000543158
0.104363
0.0548154
0.000110493
0.0684178
0.000121393
0.0118073
0.000122196
0.0398224
9.71765e-05
0.000111065
0.0234466
0.0668803
0.00564642
0.000105911
9.16496e-05
0.0238817
0.000159053
9.73634e-05
0.000103064
9.28437e-05
0.000108363
0.0001098
0.00933783
0.0969487
0.0462846
0.0397454
0.000161248
0.000112351
0.000107235
0.129719
0.000102653
0.00866765
0.0409268
0.000109051
0.000152323
0.000143302
9.91973e-05
0.0334554
0.000160382
0.0112932
0.0231826
0.0131659
0.0883854
9.91247e-05
9.07921e-05
0.000440132
0.000123433
0.00010849
0.0822349
0.0255741
0.00011725
0.0397047
9.79275e-05
0.000138105
0.0467742
0.000109731
0.0206521
0.000848496
0.0682572
9.62143e-05
0.000496407
0.0238471
0.000115399
0.00010612
0.000121321
9.60672e-05
0.000122564
0.0100061
9.34784e-05
0.055686
9.48476e-05
0.000106916
0.000103009
0.0404337
0.000131593
0.000196439
0.000101124
0.000102173
9.49374e-05
9.0724e-05
0.0148759
0.0378632
0.0001019
0.000323372
0.00010724
0.0200769
0.000157584
0.000106057
0.000107421
0.000148224
0.000225815
0.0328291
0.000109925
0.0260029
0.0352063
0.0269072
0.00781064
0.0498454
0.000106132
9.37501e-05
9.39075e-05
0.00031237
0.000172701
0.000103287
0.000153213
0.0309065
0.000160847
9.85133e-05
0.00011958
0.036883
0.000128808
0.000102536
9.31059e-05
0.000102037
0.0136914
0.0218825
0.000113844
0.085322
0.000104389
0.0102574
0.000105377
0.046596
0.00013361
0.0132207
0.0395632
0.000103187
0.000121591
0.0430394
0.0865607
0.000127712
9.88373e-05
0.000111974
9.45965e-05
0.0213594
0.000117458
0.000146439
9.26271e-05
0.000109525
0.000389845
0.000106537
0.000112691
0.000111843
0.0770784
0.000103177
0.000101495
0.000119956
0.000324072
0.000104646
9.44207e-05
0.000122313
9.75307e-05
0.000146194
0.03021
0.0399
0.0145955
0.0426114
0.03566
0.00013076
0.000127064
0.026733
0.00011595
0.000106521
0.000148365
0.000108884
0.000109376
0.000105208
0.0933059
0.000104439
0.000105721
0.000115453
0.000129629
0.0141034
9.39858e-05
9.73206e-05
9.39588e-05
0.000107584
0.000111673
0.0168707
9.84218e-05
0.0108249
9.74192e-05
0.000305251
0.000191704
0.0242808
9.09251e-05
0.000127914
0.000319572
0.000113148
0.0742159
0.015493
0.000136631
9.49475e-05
0.000110448
0.0269999
0.0375907
0.0544577
0.000102539
0.000830032
9.10818e-05
0.0375572
0.0153288
0.000147528
0.0970667
0.000103344
0.000104799
0.000127605
9.92294e-05
0.000127298
0.00380575
0.000137175
0.000146217
0.0962722
0.000150562
0.000117841
0.0122206
0.000122727
0.0225465
9.23291e-05
9.54518e-05
0.000104166
9.95035e-05
0.0831855
0.000115287
9.77794e-05
0.000113422
9.85639e-05
0.0294908
0.000123273
9.08502e-05
0.00937691
0.000138898
9.79699e-05
0.000137263
9.61073e-05
0.000133643
0.00013402
0.000101397
0.000114066
0.000102154
0.000169439
0.000108611
0.000204624
0.0216279
0.000105679
0.000146814
0.00014731
0.0851405
0.000102827
0.0537278
0.00037429
0.000110134
0.023176
9.31513e-05
0.000104249
0.0604813
0.000109135
0.00011149
0.0196183
9.76521e-05
9.5372e-05
9.55271e-05
9.72974e-05
0.00011237
0.00010767
9.56423e-05
0.029649
0.0212852
0.000106371
0.000106471
0.0379817
9.91492e-05
9.74402e-05
9.46749e-05
0.0742441
9.86605e-05
0.000114744
0.0989624
0.038627
9.61003e-05
0.000156915
0.000111652
9.53914e-05
0.000376302
0.0534767
0.00834352
9.14984e-05
0.000103332
0.00628849
9.88171e-05
0.00964592
9.60084e-05
0.000111957
0.000110492
0.0628827
0.000111928
0.000159232
9.48009e-05
0.00467854
0.026146
0.0665915
0.00181763
0.000114596
0.0635446
9.40232e-05
0.0365097
0.017646
9.13759e-05
0.000146829
0.0272701
0.000121358
0.000105535
0.000100434
0.000105633
0.0719287
0.000113147
0.0281415
0.000111692
9.50934e-05
9.5563e-05
0.000384252
0.000120969
0.00010349
0.024746
0.0697861
0.000114639
0.000112667
0.000115039
9.22186e-05
0.000482953
0.00016133
0.05839
9.10113e-05
0.109396
0.0597694
0.000108282
0.00274268
0.000122083
0.098803
0.00157845
9.64094e-05
0.0730818
0.00012764
0.000350936
0.0320821
0.000115463
0.000107422
0.000135888
0.000109633
0.000106546
9.12092e-05
9.60447e-05
0.000101203
9.18105e-05
0.0242118
0.000103395
0.000104525
0.000147466
0.000108044
0.0212411
0.0559246
0.0162196
0.000103603
0.0754778
0.000110055
9.63797e-05
0.000105641
9.11134e-05
0.0672762
0.0361034
0.000109369
0.000103199
0.000119163
9.40784e-05
9.09908e-05
0.000236361
0.000119887
0.000137656
9.40891e-05
0.00011957
9.25891e-05
0.000116774
0.000430649
9.63093e-05
0.000115529
0.000150034
0.000106162
0.0199941
0.00653311
0.000103417
0.000128145
9.64915e-05
0.000141172
0.00011525
0.000107598
9.26255e-05
0.00014709
0.0311018
0.0583765
0.000105757
0.000132494
9.8312e-05
0.000103704
9.24949e-05
0.0232453
0.0370482
0.000335249
0.000106308
0.000211839
9.68755e-05
0.000109666
0.000101501
0.000137873
0.000122028
0.0344748
0.000114805
0.000125093
0.021839
0.000112929
9.56667e-05
0.0689992
9.18049e-05
0.0277776
0.000102282
0.00014487
9.5575e-05
0.000127253
0.000548728
0.0952762
0.00010819
0.000104139
0.000106326
0.000122581
0.000107698
0.114804
0.000107189
0.00569286
0.00013689
0.000112487
9.07613e-05
0.000103452
0.000103803
0.000116547
0.00011219
0.005756
0.0154356
0.000120972
0.000110441
9.08858e-05
0.0001477
0.000121177
0.000121385
0.0254795
0.000111622
9.30466e-05
0.00013578
0.000120836
0.0413173
0.000101137
0.0604675
0.000132223
0.0337909
0.00010598
0.0334718
0.000115945
0.0241443
0.000101273
0.000145905
9.89536e-05
0.000101757
0.000119759
0.0354701
0.0689211
9.51278e-05
9.87907e-05
0.000103947
0.000330759
0.000109337
0.000102021
0.00440049
0.00010662
0.000346986
0.0254128
0.000101466
0.000130442
0.000136263
0.000125826
0.00330832
0.000121705
0.00014684
0.000511559
0.000132916
0.000108488
0.0048193
0.0660891
0.0196881
0.0236871
0.0406004
9.63925e-05
0.000423195
0.000130315
9.86509e-05
0.0569826
0.0125885
0.000103502
0.000108203
0.0308083
0.040198
0.0836405
0.0057504
0.0254969
0.000105884
0.000116069
0.000191168
0.000113285
0.0276286
0.000108482
9.61777e-05
0.00172695
9.62297e-05
9.07466e-05
0.000103297
0.000101735
0.000146922
0.000109446
0.00374539
0.000102385
0.000112772
0.0292706
0.000122304
0.000135825
0.000113963
0.0285729
9.55982e-05
0.0340809
9.40641e-05
9.28462e-05
9.88704e-05
0.057363
0.000107063
0.000113229
0.000125997
0.000146973
0.000109769
0.000122448
0.111924
0.000384797
0.0297588
0.048007
9.09607e-05
0.00020409
0.00382046
0.000119658
9.50761e-05
0.000115684
0.000109194
0.104647
0.000132777
9.89907e-05
9.94615e-05
0.000197972
9.82461e-05
0.0296334
0.0267909
0.000108305
0.000106261
0.000107851
0.000122365
0.011074
0.000147579
0.000106944
9.04015e-05
0.000122756
9.46017e-05
0.000124833
0.0799018
0.067686
0.000112
0.000102325
0.000790945
0.0121341
9.07255e-05
0.000100931
9.26622e-05
0.000101001
0.0304915
0.00106946
0.000157146
0.0553021
0.000105269
0.00013723
0.00011662
9.54281e-05
0.000106939
0.0121218
0.0261019
0.000104813
0.0244487
9.46231e-05
0.000107459
0.000108969
0.000112767
0.000110435
0.000137877
0.000107107
0.000107779
0.000115811
0.0409605
0.00041447
0.00253796
0.000139657
0.000126793
0.000108451
9.66858e-05
0.00012585
0.0622258
0.01778
0.000142234
0.000104996
0.000116547
0.00425906
0.000132623
0.0985054
0.000124564
0.000107505
0.00231316
9.95004e-05
9.44309e-05
0.000386275
9.59243e-05
0.000146282
0.000109925
9.45366e-05
0.000223433
0.0747847
0.0241523
9.68071e-05
9.93988e-05
0.000125892
0.0269234
0.00041257
9.12902e-05
9.29929e-05
0.000110864
0.000106586
0.000125861
9.15566e-05
0.0436652
0.000135937
0.000146789
0.0202878
0.000153401
0.000114365
0.0412046
0.000132221
9.45724e-05
0.102263
0.0138369
9.42756e-05
0.00357544
0.000100602
0.00702788
0.000136728
0.000106474
9.11802e-05
9.46324e-05
0.000103142
0.000111089
0.000101652
9.1438e-05
0.00806442
0.0102553
0.000142277
0.000121062
0.022365
0.00014895
0.000147499
0.000132767
0.000106311
0.0172077
0.000107492
0.000101627
0.000110271
0.00102889
9.35896e-05
0.000107069
0.000120765
0.000101181
0.0396828
0.000127563
0.000100099
9.78897e-05
0.000147224
0.000115673
0.000144319
0.000143771
0.00016522
0.00011185
0.000102105
0.000111585
9.80848e-05
9.13124e-05
0.000115713
0.00630262
0.000111724
0.0498232
9.97504e-05
0.000120872
0.028954
0.0134237
0.000114515
0.0795633
9.03879e-05
0.108169
9.94015e-05
0.0251412
0.000137441
0.000127621
9.96972e-05
0.0171955
0.0212394
0.000221263
0.000109372
0.0680465
0.000104547
9.80632e-05
0.00155494
0.000123116
8.97256e-05
9.73848e-05
9.18482e-05
0.000144037
0.000108331
9.97817e-05
0.00187725
0.000110154
0.000154098
0.00938423
0.000108752
0.0311178
0.0820625
0.000136132
0.0848616
0.000121596
0.000105134
0.00330496
0.0261594
0.0911681
0.0202772
0.000115358
9.43108e-05
9.83852e-05
0.000101385
0.000144582
0.00244961
0.00467904
0.0001046
0.00010845
0.000123429
9.84689e-05
0.000164889
0.000126676
9.96892e-05
0.000104614
0.00011534
0.000369868
0.065812
0.023196
9.23837e-05
9.55011e-05
0.000103645
9.21703e-05
9.16815e-05
9.92984e-05
9.92706e-05
0.028395
0.000105131
0.000130571
0.000388351
9.67159e-05
0.0209929
0.0414704
0.000113454
0.00366631
0.000108455
9.28569e-05
9.1791e-05
0.000132473
0.000138175
0.0317209
0.0192856
0.000102075
0.0662536
0.000100546
9.78617e-05
0.0583458
0.000118002
0.000107794
0.000100027
0.000124504
0.000102603
9.52112e-05
0.026676
0.000101885
9.69413e-05
0.0102392
0.000100329
0.000391148
0.000107689
0.000106324
0.0232752
0.000130819
0.000100114
0.0654124
0.000100088
0.000102419
0.0638851
8.99963e-05
0.0379137
0.000112146
0.0366822
0.000108777
0.0196071
0.00010611
0.0805344
0.000106257
0.0809933
9.93456e-05
0.0212766
9.72611e-05
0.000116077
0.000106729
0.000115692
0.00016007
0.00157303
0.000118373
0.0698673
0.000107632
0.0347749
9.15161e-05
0.000104093
0.000108293
0.000107959
0.0230873
0.000116366
0.018909
0.0453696
0.049975
0.00010069
0.0390201
9.96925e-05
0.000116219
0.000116843
0.035194
0.000106204
9.78123e-05
0.00751396
0.0215995
0.000127199
0.0283169
0.0338657
0.000117732
9.39248e-05
0.000106019
0.0177258
0.000319697
0.000108102
0.000117079
0.000107179
0.000102724
9.11361e-05
0.000217112
0.000146113
0.00012531
0.000116146
0.000110514
0.000120898
0.0001072
0.0441062
0.10095
9.95623e-05
0.045593
0.000106167
0.00766425
9.92499e-05
9.8642e-05
0.000107122
0.000108477
0.000106427
0.0112387
0.00014873
0.000113515
0.000105235
0.000138711
0.000112851
0.000106756
0.004286
0.0113628
0.000170736
0.000103909
9.92528e-05
0.000103813
0.000137757
9.58535e-05
0.0492071
0.00327647
0.0180306
0.000126785
0.000104913
9.67716e-05
0.0791701
0.000100353
0.0407378
0.000118167
0.0028198
0.0728006
9.47656e-05
0.000117976
9.16712e-05
0.000139686
0.000113859
0.000117834
9.75804e-05
0.000117251
0.000903256
0.0111513
0.000196407
0.000105096
0.000105685
0.00324992
0.00011778
0.00557527
0.0261475
0.000103443
0.000110853
9.97357e-05
9.65261e-05
0.000107053
0.000106638
9.22769e-05
0.000100743
9.70136e-05
0.080721
0.000114466
9.41127e-05
0.000102579
0.0358063
0.000127948
0.0122409
9.10912e-05
9.16706e-05
0.000109192
0.0682241
9.94622e-05
0.000114126
0.000101883
0.00010901
0.000113272
0.000151344
0.000175569
0.0396212
9.01418e-05
0.000135732
0.000102668
0.000105806
0.000106446
0.000159269
0.000146049
8.99655e-05
0.000151539
0.000102231
0.000107165
0.000110345
0.000138722
0.0278875
9.84603e-05
0.0155528
9.70558e-05
0.0321763
9.7342e-05
0.046202
0.000213648
0.000135904
0.000110355
0.000101717
0.140101
0.000105429
0.000109073
0.000166712
0.113715
0.0379505
9.80386e-05
0.0366181
0.00153206
0.015144
0.000732466
0.0547603
0.0389848
9.24561e-05
0.000127497
0.000111977
0.000112895
9.72154e-05
0.000120633
9.09163e-05
9.92422e-05
0.000119535
0.0266918
0.000402466
9.55724e-05
0.000534271
0.000104724
0.00379341
0.000122767
0.00530969
0.000122067
0.000111803
0.000136292
9.49022e-05
0.0188732
9.58028e-05
0.000100153
0.000115426
0.0277994
0.000147639
0.000145706
0.00333071
0.034063
0.0204169
9.10427e-05
9.78856e-05
0.000121116
0.000107801
0.000112583
0.000102497
9.28252e-05
0.000127536
0.0256033
0.0137483
0.00011719
0.000112104
9.2451e-05
9.16181e-05
0.00014808
0.0460846
0.000110158
0.000106885
0.000102899
0.0287024
0.000252401
0.000126244
0.000194807
9.45424e-05
0.0152857
9.79783e-05
0.00010721
0.000108731
0.000141651
0.0402424
0.000115371
0.000119686
0.000106838
0.000117256
0.000110229
0.000120582
0.000106537
0.000105043
0.0929281
9.83492e-05
9.98721e-05
0.0247694
0.0926885
0.00694864
9.44372e-05
0.000102449
0.000138256
0.000132449
0.000108817
0.000106453
0.000100434
0.000147946
0.000142312
0.000147594
0.0415266
0.056174
0.000101847
0.000150453
9.69588e-05
9.27632e-05
0.0523681
0.000102838
0.000108112
0.045167
0.000614431
0.00575652
9.38385e-05
0.000106664
9.87266e-05
0.0887822
9.4664e-05
0.000122589
0.000118101
0.000281761
9.38018e-05
0.0136715
0.00428925
0.000107073
0.0333568
0.000106974
0.064062
0.0114856
0.00011268
9.52079e-05
9.37762e-05
0.000176642
0.000117484
0.000109726
9.92694e-05
0.000104645
0.000145925
0.000158883
0.0355527
0.000101425
0.000127938
0.00013513
0.000117983
0.00973372
0.000104048
0.0587722
0.000138409
0.000114768
9.19879e-05
0.000149793
0.0001088
0.00011184
0.000190375
0.000107908
0.000100321
0.0277966
0.000102376
9.37216e-05
0.000101864
9.90408e-05
0.000157432
0.000141594
0.000115855
0.000230259
9.36358e-05
0.000120926
0.038558
0.0757236
9.734e-05
0.0455335
0.000123377
0.00564206
0.0810088
0.0137346
9.22088e-05
0.000108567
0.000122398
0.00012
0.00340142
0.000118084
0.000167628
0.000108569
0.000138173
9.25758e-05
0.000111608
0.0391146
0.0199166
0.00361618
0.000111593
0.0373711
9.87167e-05
0.000138387
0.000109334
0.000354043
0.000103345
0.000113348
0.0868857
0.000208815
0.000109442
0.00519997
0.000139656
0.072668
0.0001087
0.0264425
0.000195938
0.000104747
0.00011439
0.00570648
9.81785e-05
0.000117597
0.00590864
0.000102476
0.000111551
0.123069
0.000110476
0.000379393
0.0124032
0.000119163
9.89897e-05
0.00368213
0.000109604
9.46752e-05
0.0579634
0.000162077
0.000115908
0.0711937
0.000116309
0.000121708
0.00796888
0.000121138
0.000107931
0.000118024
0.000110164
0.000108146
0.000107154
0.000204658
0.00660576
0.000107187
0.000131367
0.000146927
0.00010225
0.00010012
0.040125
0.000101074
0.000113612
0.00236322
0.000128379
0.000152739
0.000109162
9.66047e-05
0.000102738
0.000106378
0.000108305
9.47195e-05
0.000114564
0.0109968
0.000111541
0.000135811
0.000121898
0.000120137
0.0859089
0.0291733
9.70257e-05
9.54509e-05
0.00011297
0.000101964
0.000105138
0.0728224
0.0527441
0.000117864
0.000147419
9.08961e-05
0.000102813
0.000139547
0.000124882
0.000144592
0.00570549
0.000149497
0.000124254
0.00014586
0.000101812
0.000106395
0.0435913
9.56543e-05
0.000141997
0.000161502
0.000106807
0.00434109
0.000117111
0.000220692
0.000113992
0.000138819
0.000124843
0.000107379
0.000101758
0.00014701
0.000128861
0.000107056
0.0759318
0.0893716
0.0951867
9.72496e-05
0.000114805
9.96154e-05
0.000104233
0.000107736
9.11193e-05
0.000113625
0.000108674
0.0231815
0.000117428
0.000108807
0.000118353
0.098279
0.0843619
9.81343e-05
0.00012252
0.05894
0.00871457
0.000111379
0.0227065
0.0807995
9.28334e-05
0.0797864
0.000105252
9.55866e-05
0.000238899
0.000100725
0.000100544
0.0953514
9.63148e-05
0.000150428
9.79493e-05
0.0341583
0.00011535
0.000351713
0.0174445
0.000244887
0.00426261
0.000109126
9.76574e-05
0.000107738
0.000107696
0.000228753
0.000115337
0.000110815
0.043919
9.86975e-05
0.0239061
0.0127703
0.000120421
0.000103422
0.000102158
0.0718824
0.000101066
0.000113616
9.20734e-05
0.000100738
0.000100138
0.0229802
9.31546e-05
9.21478e-05
0.0346817
0.0148742
0.000237252
0.000137968
0.000103249
0.10887
0.0642175
9.7902e-05
0.0636916
0.000871426
0.0721877
9.60584e-05
0.000124379
0.000135617
0.000107495
0.00011501
0.0100732
0.000119547
0.000181012
0.00011537
9.96644e-05
0.000107036
0.000128107
0.0722887
0.00010694
0.000106614
0.00012381
0.000103246
0.000103149
0.000126996
9.99202e-05
0.000106346
0.000113474
9.39798e-05
9.50644e-05
0.0991258
0.000108036
0.0437072
9.83256e-05
0.0342764
9.43939e-05
0.0208851
9.20986e-05
0.000111425
0.000103301
9.88954e-05
0.0280521
9.94052e-05
0.000108355
0.000147451
0.000109906
0.000146347
0.000205374
0.000106806
0.00013983
0.000111445
0.000132667
0.000102672
0.000106352
0.000109594
0.00010939
0.000142011
0.000118886
9.73214e-05
9.91344e-05
0.000177284
0.000379257
0.000111049
9.9693e-05
0.0286416
0.0269604
0.000186491
0.00010046
0.000156382
0.000148026
0.000106868
0.000122943
0.000116376
0.0402114
9.82749e-05
0.000104538
0.000111411
0.000120542
0.0281497
0.000323851
0.000127235
0.000128705
9.72437e-05
0.0221816
0.000170767
9.4458e-05
0.000121301
0.00619614
0.000488507
0.000105028
0.000119008
0.0245655
0.0360804
0.0301734
0.000505943
0.000137171
0.000134997
0.0669931
0.0138884
9.72423e-05
0.000147051
0.0890614
0.0826854
0.00011034
0.0569997
0.000122829
0.0216479
0.000117547
0.00025385
0.000136529
0.000104986
0.0698611
0.000111435
0.000104129
0.00580516
0.000119797
0.00158948
0.000116785
0.000119256
0.00012824
0.0489724
9.20404e-05
0.000107774
9.60512e-05
0.0929445
0.0445999
0.000147566
0.00010032
0.0338694
0.000105256
0.000100752
0.0367037
9.41328e-05
0.000103345
0.000126088
0.000110989
0.000329583
9.35916e-05
0.000112108
0.000112789
0.000112539
0.000127188
0.0374024
0.000107015
9.43458e-05
0.000101895
0.000146957
0.00011385
0.000121739
0.000105548
0.000128119
0.000130165
0.0483913
0.0394924
0.0782213
0.000112084
0.0635587
0.000109917
0.0583599
0.0375468
0.130417
9.99175e-05
0.000110099
0.000112886
9.54585e-05
0.0275733
9.90673e-05
0.000304909
9.81375e-05
0.000330829
0.000104708
0.000102148
0.023659
0.000102561
0.000108291
0.0379421
0.0516833
0.000105378
0.000100677
0.000107125
0.000220984
0.000107145
0.000284811
0.0209306
9.09374e-05
0.00331979
0.000105558
9.89403e-05
0.000113655
0.103777
9.79777e-05
0.000129917
0.0393171
9.45939e-05
0.000112452
0.000103224
0.000146159
0.000108509
0.0379136
9.47158e-05
9.46339e-05
0.000147596
9.33896e-05
0.00022757
0.0524281
9.68637e-05
0.089044
0.0164332
0.000102264
0.0183447
0.000148783
0.000108967
0.000109983
0.000105389
9.66614e-05
0.000206443
9.20188e-05
0.0330245
0.000241025
0.00213673
0.0395741
0.0137308
0.000100656
0.0175779
0.000143488
0.000184997
0.0704623
0.000105683
0.0254604
0.00710566
0.047394
0.0096305
0.0276856
0.000502137
9.92517e-05
0.000128312
0.00315272
0.00144559
0.00010075
0.000106006
0.000105794
0.000135106
0.0464495
0.000104641
0.000107102
0.000100865
0.000168438
0.0270737
9.33569e-05
0.000141486
0.000106026
0.0168938
0.00011104
0.00585388
0.000111187
9.64592e-05
0.000105092
0.000102754
0.000119444
0.000134849
0.0451809
0.00010892
0.0282023
0.000108746
0.000137106
0.000117724
0.000141189
9.74204e-05
0.0136405
0.0983885
0.000100836
0.000133146
0.00218173
0.00059308
0.000101452
0.000124134
0.000104389
0.000131947
0.108414
0.00011945
0.000100621
9.11373e-05
0.0383667
0.0199237
0.000114834
0.000312438
0.0286854
0.000105399
0.0489466
0.0373482
0.0247773
0.000129433
0.000190412
9.69101e-05
9.79416e-05
0.00296263
0.0288857
0.000142174
0.000127261
0.0266411
9.8004e-05
0.000112449
0.000516642
0.000113511
0.000259045
0.000117294
0.000145206
0.0758815
0.00424022
9.18565e-05
0.000102059
0.000112709
0.00212395
0.0202669
0.00407023
0.000553663
0.000104309
9.78209e-05
0.000106759
0.00011076
0.0137742
0.0647272
0.0455036
0.000165937
0.0213788
9.54794e-05
0.000104112
9.87932e-05
9.37746e-05
0.000134747
0.000102024
0.000116988
0.000111261
0.000114216
9.71742e-05
0.000103483
0.116722
0.000109799
0.000106684
0.000227074
0.000104333
0.000108081
0.000112086
0.00014444
0.000113681
0.000104975
0.00014514
9.70862e-05
0.0362345
0.0302673
0.000102168
0.0601087
0.000547876
0.00011816
9.35254e-05
0.000112134
0.000101179
0.000104177
0.000104949
0.000116322
0.000148842
0.05806
0.070886
0.000849399
0.000110826
0.000106031
0.000104694
0.000106546
0.000213062
0.000105382
0.0303455
0.000688508
9.83941e-05
9.83234e-05
0.0304676
0.00010628
0.00330657
0.0322837
0.072758
9.3241e-05
0.0130583
0.0228203
0.0105179
9.61881e-05
0.000127682
0.00010572
0.000112181
0.0202172
0.0629162
0.000353132
0.000107739
9.71701e-05
9.96647e-05
0.00012431
0.0938033
0.000105536
0.000111651
0.074643
0.0836248
0.000100028
0.000122394
0.000132303
0.00327463
0.000102562
0.000106729
9.72142e-05
0.000111002
0.000118923
0.00254384
0.000125413
9.65402e-05
0.000136877
0.0666783
0.000106367
0.000321984
0.000100302
0.000112666
0.0553344
0.000142149
0.0497397
0.000137182
0.0135073
0.000111885
9.62429e-05
0.000107707
9.96274e-05
0.000101981
0.000121195
9.70279e-05
0.000135291
0.0631036
9.90764e-05
0.010538
9.5898e-05
0.00011288
0.000616204
0.000106995
0.000100285
0.000130042
0.000136679
0.000138855
0.0231891
0.000112425
0.000148044
0.000143255
0.0760838
9.84684e-05
0.00010398
9.78896e-05
0.000100363
0.000109198
0.000113913
0.000118035
0.000106312
9.99876e-05
0.077685
0.0320539
0.000102545
0.000121392
9.42808e-05
0.0827207
0.000107161
0.000101218
9.8241e-05
0.126545
0.0873781
0.000102034
0.0693662
0.000122179
0.000112903
0.0927034
0.000250644
0.000114422
0.000204495
0.000104997
9.94609e-05
0.00014744
0.000302663
0.000117304
0.00010679
0.00126907
0.0653485
0.000103103
0.000101113
0.00798319
0.000103044
0.00010711
0.000101208
0.000145319
0.0677914
0.000213513
9.16336e-05
0.00255727
9.70254e-05
0.00410162
0.000478701
0.000108552
0.000128753
0.000118447
0.000108264
0.0808139
0.00047075
0.000106823
9.75664e-05
0.000102344
0.000107312
0.000102526
0.0398404
0.000156112
0.0359573
9.05976e-05
0.000101898
0.0141538
9.96402e-05
0.109695
9.80912e-05
0.000128518
0.000112041
0.00010269
9.79625e-05
0.000629133
0.0298076
0.0637523
9.90035e-05
0.000134923
9.35286e-05
0.000117064
0.00010664
0.000460653
0.000120963
0.0102035
0.036576
0.000140834
9.79619e-05
0.0551682
0.000127612
9.75171e-05
9.88934e-05
0.0115294
0.000108133
0.000481832
0.000112863
0.00141589
9.63737e-05
0.0177932
0.000102134
0.000111648
0.000101215
0.0623131
0.00180882
0.000352359
0.000182134
9.86974e-05
0.000133885
0.0431757
0.0594792
0.00010909
0.00010165
0.000124295
9.78041e-05
9.3868e-05
0.00943375
0.00010585
9.34898e-05
0.000104888
0.000294863
9.65554e-05
9.3105e-05
0.102609
0.000106849
0.000115751
0.000223706
0.000107288
0.000101257
0.000113935
0.000116076
0.0158628
9.12171e-05
9.5071e-05
0.000791681
0.000126459
0.000100266
0.000737665
0.000438936
0.0204696
0.0743065
0.000103355
0.00533476
9.89039e-05
0.000101189
0.000101572
0.000104056
0.000108984
0.000127754
0.000101758
0.0477564
0.000112666
0.000123941
0.0199038
0.000113473
0.000110617
0.0036251
9.08511e-05
0.000110631
0.000113255
9.9344e-05
0.011313
9.38082e-05
0.000100309
0.0180293
9.04997e-05
0.000113203
0.00300481
0.000110698
0.000179688
0.000514283
0.013106
9.26167e-05
0.000130462
0.05814
0.00010459
0.0266958
0.00294929
0.125332
9.91143e-05
0.00012613
9.06717e-05
0.000142882
0.000127131
0.000112647
0.000108507
0.0579468
9.41628e-05
0.0229667
0.00012714
0.0481041
0.000120877
0.000216725
0.00682229
0.000100039
0.000126303
9.97064e-05
0.000109486
0.00010205
0.00411362
0.000137094
0.130137
0.000107425
9.83826e-05
9.53652e-05
9.22128e-05
0.000115414
0.00010696
9.99327e-05
0.00014777
0.0623372
0.00041991
9.91702e-05
0.000422142
9.76092e-05
0.000122296
0.000129786
0.000107338
0.000114964
0.000136795
0.000137627
0.000105839
0.026107
9.52753e-05
0.0004047
0.000115904
0.0731921
9.9474e-05
0.0222453
0.000147649
0.0286851
0.000104602
9.37388e-05
9.84051e-05
0.00642677
9.45639e-05
0.0602964
0.000121154
0.000101626
9.36812e-05
0.000338665
0.0792505
0.0437861
0.00377803
0.000160281
0.00010616
0.00478756
0.000118275
0.000107179
0.000328389
0.000132597
0.000142413
0.0273014
9.85142e-05
0.0766418
9.7701e-05
0.000155905
0.00010386
0.000131662
0.000186486
0.000118162
0.0232339
0.000106876
0.000146931
9.91832e-05
0.000100544
0.000124875
9.73801e-05
0.000118055
0.00011088
0.000480789
0.0804694
0.000129494
0.0679284
0.107579
0.000102628
9.51137e-05
0.00223711
0.000108263
0.000133609
0.00011594
0.000107156
0.0224303
0.000103901
0.00370706
0.000131718
0.000471064
0.00011347
0.000109041
9.25303e-05
0.000113637
0.000129096
9.62009e-05
0.000106723
0.00016523
0.0001206
0.000106347
0.000108322
0.000104209
0.0024638
0.0228824
0.0348513
0.000182042
0.000115098
0.000106453
0.000104192
0.00010443
0.00017842
0.0333346
0.0179385
0.0229815
0.000219674
0.00913404
0.000112763
9.68595e-05
9.6695e-05
9.71913e-05
9.80797e-05
0.0287322
0.0403046
0.000816539
0.000110472
0.0538883
0.000104284
0.000105258
0.000101996
0.0031896
0.000122233
9.10526e-05
0.000106915
0.000105811
0.000417039
0.103108
0.0718739
0.000262456
0.000108788
0.000145691
0.000240136
0.114945
0.033473
0.0390444
9.44374e-05
0.0389576
0.000166147
0.000134296
0.000113841
0.0294349
0.000101175
0.0501565
0.0267435
0.000184409
0.000137066
0.0802473
0.0695547
0.000107127
0.000108622
0.00188719
0.046328
9.99056e-05
0.000127622
9.81813e-05
0.0285046
0.0356999
0.000105398
0.0382593
0.000100412
9.7884e-05
0.000331715
0.00010053
9.65983e-05
0.000139147
0.0744822
0.00303101
0.101149
0.000133495
0.000147946
0.000347448
0.000158353
0.000121602
0.00776204
0.000118346
9.13118e-05
0.000126907
0.000132669
0.000103721
0.0499073
0.0701031
0.013205
0.000126001
0.000100249
0.0194377
9.3198e-05
0.0208503
0.00010268
0.000118034
0.0291712
0.000109097
0.000117481
0.000113722
9.26328e-05
0.000299877
0.000176784
0.0389672
0.0560709
0.00110504
9.71133e-05
0.00209653
0.00197351
0.000137903
0.000510697
0.00010916
0.0396185
0.000117821
0.0675227
9.93437e-05
9.18198e-05
0.000116153
0.000107546
0.0767758
0.033209
0.021729
0.061483
0.000279287
0.000101246
0.00013975
0.0770577
9.33345e-05
9.3473e-05
0.0696989
9.93518e-05
0.000119165
0.000271682
0.000401786
0.000128311
9.56093e-05
0.00011018
0.000531013
0.0685299
0.00014535
0.0453166
0.000121749
9.89763e-05
0.00013183
0.000127293
0.0011016
0.000114771
0.000101733
0.000137595
0.000107076
0.040302
0.000198255
0.0109375
0.0388568
0.0534634
9.57291e-05
0.000123742
0.00393141
0.00074313
0.000106723
0.0592857
0.000125337
0.000111904
0.0162265
0.0714626
0.00556166
0.070434
0.0665707
9.10248e-05
0.0001005
0.0700833
0.0527688
0.00011376
0.000583932
0.00608135
0.00955137
0.0733782
0.00431801
0.000149461
0.0743963
9.21132e-05
0.000146106
0.000214234
0.000105792
0.0762928
0.000122387
9.94664e-05
0.000369562
0.000148701
0.000104972
0.000109355
0.0752762
0.000106018
0.0682899
0.0001307
0.000134999
9.27768e-05
0.000117162
0.0507532
0.0483046
0.000135188
0.0483562
0.00010356
0.00331934
0.00208959
0.0502707
0.0776476
0.000138192
0.0315523
0.00013695
9.37056e-05
0.0526799
0.00953857
0.000108889
0.000138633
0.0303347
0.0807654
0.0154982
0.000113753
0.000115236
0.0314542
0.000354167