/*--------------------------------*- C++ -*----------------------------------*\
| =========                 |                                                 |
| \\      /  F ield         | OpenFOAM: The Open Source CFD Toolbox           |
|  \\    /   O peration     | Version:  v2012                                 |
|   \\  /    A nd           | Website:  www.openfoam.com                      |
|    \\/     M anipulation  |                                                 |
\*---------------------------------------------------------------------------*/
FoamFile
{
    version     2.0;
    format      ascii;
    class       volScalarField;
    location    "400";
    object      p;
}
// * * * * * * * * * * * * * * * * * * * * * * * * * * * * * * * * * * * * * //

dimensions      [0 2 -2 0 0 0 0];


internalField   nonuniform List<scalar> 
18540
(
-0.289631
0.0165084
-0.00357729
-0.315569
-0.0620304
-0.0773712
-0.0622005
-0.180431
0.331967
0.0309175
0.0709583
0.0438255
-0.30893
0.034965
-0.295186
-0.278928
-0.106623
0.127591
-0.29406
-0.365183
0.249121
-0.233432
0.0134711
-0.342964
-0.17439
-0.0368058
-0.376324
-0.175002
-0.0834522
-0.293175
0.0162449
0.0371537
-0.229657
-0.297558
0.0151213
-0.318851
-0.240777
0.00760205
-0.0162045
0.208898
0.0151685
0.030626
-0.494858
-0.293137
-0.171612
-0.0388569
-0.287153
-0.00313909
0.242095
-0.102347
0.0357235
0.508368
-0.372089
0.0120869
-0.0341423
-0.0798576
-0.309627
-0.51186
-0.459577
-0.0181724
-0.322577
-0.0751334
-0.0319576
-0.241823
-0.292471
-0.00770709
0.115523
0.0100732
-0.472394
-0.0161566
-0.076725
0.168359
-0.238915
-0.512893
-0.116655
-0.195889
-0.100422
0.0090528
0.121726
-0.27399
0.0107655
-0.501191
0.00728948
-0.218433
-0.323844
-0.282438
0.0282451
0.0139192
-0.0430039
-0.281798
-0.347156
-0.275072
-0.0515398
-0.00900178
-0.0700961
0.0317716
-0.0188355
-0.132464
-0.252133
-0.284374
-0.029362
0.00733763
-0.259409
-0.281547
-0.309649
-0.226964
-0.0303353
-0.497447
-0.0265635
0.103031
-0.26351
-0.324597
0.00932116
-0.0183407
-0.512458
-0.0188956
-0.00688681
-0.129658
0.0135374
-0.0798456
-0.295789
-0.508664
-0.344372
-0.487814
0.0108505
-0.0802293
-0.0982888
0.101111
-0.494523
-0.185483
-0.359834
-0.0266788
-0.114744
-0.289908
-0.00236926
-0.00423861
0.0682478
-0.0627585
0.0623663
-0.00831254
-0.290255
-0.242773
-0.117534
-0.286006
-0.0127795
-0.0060967
-0.0952509
-0.287546
-0.0623522
-0.511152
-0.00198554
0.0681413
-0.00769606
-0.511041
0.243043
0.319528
-0.509279
-0.0130352
0.0138377
-0.497784
-0.170983
-0.11956
0.0310641
-0.0020825
-0.293
0.0438081
-0.290545
0.101962
-0.295562
-0.0215386
0.014267
-0.0847715
-0.0326821
-0.0436009
0.0139705
-0.498426
-0.0724147
-0.349672
0.218814
-0.17354
-0.0393731
0.0694273
-0.121389
-0.269581
0.109498
-0.316878
0.0553705
-0.062618
-0.371037
-0.00305805
-0.0833035
0.0105147
-0.382437
0.0113368
0.270152
0.0143378
-0.0942716
-0.313196
-0.222093
-0.023653
-0.0471263
-0.283971
0.0782987
-0.0984749
-0.284225
-0.314217
0.0459825
-0.317939
-0.469064
-0.119254
0.0368937
-0.506811
-0.354365
0.0159138
-0.0492315
-0.125549
-0.488737
-0.0900184
-0.364112
-0.284994
-0.506106
-0.188501
-0.276697
0.320605
-0.275098
-0.293182
-0.112688
-0.117462
-0.474239
-0.148111
-0.0225047
-0.338678
-0.241091
-0.0177459
0.031051
-0.0718151
0.0355354
0.159183
-0.168471
0.0843876
0.466787
-0.271485
-0.316032
-0.110786
-0.283285
-0.492237
0.0154101
-0.00548128
-0.107014
0.0448177
-0.113294
-0.465939
-0.505315
0.0706769
0.113199
-0.235223
-0.346135
0.368742
0.043209
-0.343604
-0.21896
-0.339412
0.0633793
-0.183041
-0.313922
-0.108052
-0.439692
-0.438369
0.0072068
0.0160553
-0.511104
-0.31591
-0.306118
-0.0366414
-0.251939
-0.296157
-0.00771077
-0.155985
-0.350894
0.0164919
0.026204
-0.294892
-0.0592962
0.0351095
0.330069
-0.0166477
0.412994
-0.145638
-0.323544
-0.247283
-0.507823
-0.28381
-0.00646929
0.00692055
-0.511597
-0.116299
-0.308518
-0.0451712
-0.462884
0.280207
0.0460841
-0.440528
-0.252172
0.198484
0.0793788
0.0253924
0.472251
-0.00152881
0.355861
0.0362586
-0.31593
-0.0374763
-0.299479
-0.0967187
-0.440685
0.444206
-0.292791
0.0422784
-0.275337
-0.502391
-0.340934
0.274859
0.0431582
-0.457957
-0.057402
-0.0271859
-0.119255
-0.0136882
0.0256925
0.012638
-0.00600458
-0.238311
0.296931
0.153051
-0.348378
-0.166225
-0.0225577
0.0188471
-0.307261
0.189691
-0.122468
-0.119301
-0.0573962
0.105699
-0.350905
0.277406
0.0161146
-0.193464
-0.0642418
-0.180571
0.000145579
0.0182189
-0.509926
0.0251955
0.0252263
-0.48961
0.0171611
-0.00830831
0.00998118
-0.340093
-0.119902
-0.00138874
0.0256485
-0.0357217
-0.51398
0.0113688
-0.0170662
0.0305989
-0.0216331
0.0107571
-0.305473
-0.00471158
-0.332489
0.0355258
0.0184045
-0.253355
0.0360697
-0.27268
-0.0578625
-0.395227
-0.499956
-0.00116868
-0.126321
-0.346462
0.0745255
-0.00661332
0.363487
-0.290979
0.0109397
-0.480302
-0.485514
-0.000717266
-0.047202
-0.44414
-0.307012
0.0228978
-0.506813
-0.318733
0.011058
0.398436
-0.494593
-0.290608
-0.0625968
0.0354921
-0.122604
-0.00971858
-0.301129
-0.343702
0.0454515
-0.136072
-0.344097
-0.505099
-0.209019
-0.00113106
-0.125051
0.450397
0.0190584
-0.0820572
-0.329168
0.315627
0.12575
-0.294067
0.0106351
0.50362
-0.00472394
-0.127052
-0.00506874
0.322088
0.0620213
-0.00812392
0.0133015
-0.330385
-0.128175
-0.446694
-0.011809
-0.724137
0.0137597
-0.00880744
-0.513214
0.0382459
0.37292
0.0988497
0.33124
-0.319839
0.0369367
-0.0300375
0.0542806
-0.319594
0.0433368
-0.017319
-0.518948
-0.506372
-0.00377697
-0.00972959
-0.0271884
0.059952
-0.0915696
0.0361676
-0.317874
-0.380721
-0.0583825
0.0141196
-0.121738
-0.0469609
0.0145643
-0.0406038
-0.500648
-0.0637972
-0.299176
-0.246444
-0.0852282
0.0899874
-0.510619
-0.506489
0.272542
-0.0150121
-0.331818
0.00769437
-0.270356
-0.0087776
-0.160499
-0.0140195
-0.446429
0.0452609
-0.065121
0.017838
-0.117603
-0.503465
0.0407901
-0.0383132
0.425795
-0.168672
0.197712
-0.329917
-0.3224
0.295521
-0.0118638
-0.34131
-0.287264
0.0680856
0.284336
0.0425149
-0.0174843
-0.0705191
0.0305136
-0.0593979
0.00937171
-0.0357847
0.194845
-0.345124
0.04599
0.0593511
0.0311703
-0.134598
-0.291272
0.0317004
-0.0792888
0.00480686
-0.32621
0.00981861
-0.292566
0.0339028
-0.153604
-0.466786
-0.11587
-0.014686
0.0218311
-0.32289
0.00516148
0.0269469
-0.515076
-0.265621
-0.0174578
0.0136571
0.0130883
-0.036232
-0.403523
-0.177217
0.00597717
0.0290926
0.0170377
0.182576
-0.343097
-0.159795
-0.0623858
-0.0145044
-0.510636
-0.399315
0.0906852
-0.106006
0.129527
-0.000465248
-0.245317
-0.441518
-0.0137767
-0.0931073
-0.304437
-0.496037
-0.319411
0.00410209
-0.0243489
-0.00772509
-0.00660668
0.125521
-0.0449511
-0.307171
-0.000182843
0.0311065
0.125269
0.0714912
-0.0143015
0.0306431
-0.118843
-0.0363909
0.161243
-0.5081
-0.0226703
-0.0195609
-0.0276041
-0.00564213
-0.271161
0.0155586
-0.521257
-0.439601
-0.469596
0.173594
0.0298616
0.0409732
-0.0563161
-0.354034
-0.104001
-0.011301
0.0333989
0.0439651
-0.508672
0.0429707
-0.0231172
-0.492108
-0.0416989
-0.0163789
-0.504387
-0.177084
-0.0258954
0.106106
-0.496247
0.0693891
-0.0399156
0.0357958
0.0374719
-0.182631
-0.0630859
-0.332108
-0.495862
-0.49071
0.00969388
-0.396127
0.0093008
0.0187492
-0.311667
-0.0289788
-0.322299
-0.310261
-0.00168654
-0.471354
-0.275343
-0.317014
-0.139027
-0.0601157
0.456542
-0.33556
-0.0826866
-0.309299
-0.512411
-0.494346
0.0121872
-0.0351744
0.0930201
-0.346719
-0.0146847
-0.0850392
-0.318834
-0.305939
0.0617272
-0.09564
-0.486534
0.294163
0.013575
-0.0394833
0.0371921
0.0662754
-0.394508
0.0140374
0.0361659
-0.0233647
0.160999
-0.298167
-0.0253238
-0.296395
-0.0276946
-0.348538
0.0146739
-0.306454
0.0517126
-0.0721802
-0.512115
-0.157258
0.0540385
-0.312055
-0.302817
0.2291
0.0045515
0.428312
-0.321798
0.177213
-0.377997
0.0535972
-0.307369
-0.318353
-0.0190222
0.0329481
0.0286912
-0.00477418
-0.344819
-0.0784493
-0.0305894
-0.0849399
-0.430499
-0.0418093
-0.0624412
0.0895105
-0.00214018
-0.395727
0.313613
-0.512332
-0.0873222
-0.307398
-0.0100206
-0.126599
-0.0607597
-0.510506
0.0434103
-0.0156108
-0.0403794
-0.0275363
-0.00923139
-0.00734818
0.411298
0.0172015
0.297106
-0.393711
-0.0175729
-0.0341233
-0.312628
-0.394373
-0.300661
0.0294683
0.0153559
0.1626
-0.000584045
-0.103691
-0.292896
0.0658844
0.0117162
0.0144937
-0.0550814
0.098475
0.246525
0.0379178
0.0247473
-0.0495214
-0.115895
0.0965056
-0.0806525
-0.140007
-0.346404
0.0164305
-0.00689536
-0.326508
-0.278487
-0.116111
0.00453766
-0.226579
-0.497045
-0.18497
-0.0879978
-0.0900946
-0.512479
-0.0171243
-0.478749
-0.25198
-0.310585
0.00958971
0.00942048
-0.00686955
0.00277659
-0.232719
-0.0589362
0.187584
-0.00437684
-0.0306366
-0.309629
0.0150312
-0.00422291
0.000756101
0.373892
-0.349285
-0.00714746
0.0942888
-0.253251
-0.108877
0.00348291
0.29211
-0.214869
-0.206727
0.00407349
-0.264522
0.00888844
-0.289414
0.219422
-0.000320186
-0.169373
-0.289623
0.0340291
-0.498747
-0.0841482
-0.194486
0.0272744
-0.260404
-0.246006
0.252119
0.104973
-0.0943852
-0.304296
0.0256131
-0.0502465
-0.433937
-0.069854
0.00622305
0.276263
-0.128648
-0.0786805
-0.0773511
-0.30054
0.0869317
-0.0263817
-0.290553
-0.010271
-0.00379235
0.436517
0.00298806
-0.0241432
0.00962864
-0.170805
-0.503815
-0.0274249
-0.0608279
-0.503224
0.000485097
-0.383368
0.026416
-0.306323
-0.000377907
-0.0276638
-0.0447679
-0.347255
-0.0312755
0.235577
0.0657607
0.1688
-0.00904558
-0.0487408
-0.29591
-0.368639
0.0377314
0.442243
-0.231166
0.170565
-0.307675
0.0385372
-0.0284157
0.0498959
-0.486718
-0.25157
0.00880937
-0.0109758
-0.00420117
-0.386011
0.00687344
-0.0275284
0.127525
0.0468586
-0.0290857
-0.352345
0.456307
-0.0595001
-0.00349732
-0.31193
0.0121516
-0.0722077
-0.281203
-0.260733
-0.300615
-0.021493
-0.264684
0.00838117
-0.0588161
-0.000735182
0.0593275
-0.393815
0.310144
-0.0220966
-0.506502
0.00558829
0.10345
-0.493583
0.0131154
0.309967
0.463318
-0.0668974
-0.489406
0.0169876
-0.295571
0.0525946
-0.461391
-0.14155
0.0112955
-0.340222
-0.0461916
-0.0265141
-0.306488
0.0101917
-0.02618
-0.331014
-0.0342336
-0.180685
0.0266633
-0.00168908
-0.162625
-0.330129
-0.0123412
-0.503972
0.0213994
0.0249412
0.0931579
0.0112443
0.454477
-0.310561
0.0450835
-0.290987
-0.297146
0.0107713
0.0108022
0.0224201
-0.218283
0.0591332
-0.11635
-0.512898
0.0326502
-0.475869
-0.11975
-0.295492
0.391782
0.0252973
-0.512852
-0.498162
-0.289702
-0.313334
0.0258574
-0.00293414
-0.301396
0.112269
-0.281892
-0.30328
-0.0112547
-0.0672404
0.0101449
-0.0624842
-0.226367
0.0100537
-0.290875
-0.0830049
-0.175261
0.285616
-0.276415
-0.00716653
0.0444806
0.215413
-0.304996
-0.0589355
-0.0900252
-0.474151
-0.307021
-0.0455056
-0.44063
0.042806
-0.253908
0.031205
-0.0170505
-0.506362
-0.423326
-0.314229
-0.407578
-0.00586703
-0.139719
0.00893879
-0.279991
-0.0110784
-0.509009
-0.0552314
0.00701821
-0.0110758
-0.0108937
-0.481451
-0.335372
0.0260767
-0.00396333
0.0302677
0.0116316
-0.327041
-0.246158
0.0269191
-0.31855
-0.306612
-0.0111935
0.0221041
-0.429331
-0.251559
-0.308124
-0.425193
-0.13559
-0.0106051
0.00670771
-0.303732
-0.503651
-0.244928
-0.320647
-0.0968567
-0.514146
-0.0128032
-0.314693
0.013235
-0.0172368
0.00697653
-0.0326591
-0.270594
-0.027081
-0.517853
-0.00557348
-0.511007
-0.0646424
-0.109772
0.3421
-0.307929
-0.123675
0.41473
0.438723
-0.0483524
0.0426958
-0.285496
-0.318494
-0.451982
0.00197379
-0.0762642
0.0259574
0.172797
0.0452462
-0.0176858
-0.313468
-0.327225
0.0356931
-0.295321
0.0250047
-0.42978
0.0535131
0.0123287
0.021996
-0.495407
0.0257035
-0.308634
0.0354987
-0.0125934
-0.27307
-0.0438407
-0.335591
-0.240535
0.0297842
0.0210276
-0.461431
-0.10204
-0.35125
-0.0223181
-0.147642
0.0625048
0.170001
-0.0322811
-0.0110854
-0.125463
-0.0075035
-0.363378
-0.0195201
-0.00550144
-0.0133136
-0.0237209
-0.330916
-0.357508
-0.144964
0.00524536
0.0105099
-0.0469113
-0.286388
0.0311681
0.0216165
-0.1708
-0.315332
0.00419091
-0.0174759
-0.069447
0.0410114
0.254361
-0.291654
-0.151073
-0.0288093
0.0582124
-0.0107406
0.0799619
-0.0335431
0.319664
0.0251759
0.444855
-0.279305
-0.298648
-0.0907519
-0.313508
-0.296729
0.16474
-0.0167119
-0.0964547
-0.0103011
-0.453345
-0.0131076
0.284623
-0.106666
-0.003329
-0.0535134
-0.513032
-0.338637
0.0643192
0.108186
-0.288396
-0.51597
-0.315679
-0.00207128
-0.346933
-0.27133
0.1758
-0.310074
0.0356602
0.0554555
-0.472363
-0.498847
0.179494
0.010083
-0.495402
-0.287085
-0.336466
0.243686
-0.309341
0.0247083
-0.354653
0.244156
0.0143593
-0.10134
-0.484749
-0.455443
0.0288757
-0.316853
-0.0111297
0.12976
-0.288886
-0.0309047
0.115654
-0.0893106
-0.371596
-0.0964906
-0.0126169
0.0457828
0.0246182
-0.406408
-0.232303
-0.304055
-0.00992257
0.0891631
-0.00820199
0.0168719
-0.0251019
-0.251276
-0.289063
-0.0301808
-0.257794
0.211868
-0.290071
-0.0224743
-0.246289
-0.263594
-0.171336
0.0150053
-0.318142
0.0149047
-0.00180964
0.018472
-0.0070177
-0.336808
0.517204
0.0244962
0.0210019
-0.51124
-0.01945
-0.122188
0.0158673
-0.00668435
-0.00210822
0.0541497
-0.298586
-0.0197671
-0.00501147
-0.290881
0.0585318
-0.074432
0.023235
0.017117
-0.174924
0.0306503
0.0242017
0.420651
0.0190695
-0.0322448
-0.0357349
0.0508765
-0.0200861
-0.0440479
-0.501021
-0.175083
-0.291317
0.0366339
-0.280293
0.313904
-0.496407
-0.502745
-0.503425
-0.263801
-0.182849
-0.502458
-0.484313
-0.338834
-0.510342
-0.277938
-0.0159755
0.0443505
-0.00721278
-0.276137
-0.00279782
0.0206274
-0.019155
-0.0136472
-0.00628204
-0.016883
-0.284221
-0.308498
0.0166808
-0.392177
0.300212
-0.0608741
-0.283512
-0.0097713
0.0653182
-0.515252
0.287073
0.0298273
-0.311531
0.016656
-0.11291
0.0155313
-0.293101
-0.348099
-0.516047
-0.493804
0.0741175
0.456719
-0.0100603
-0.495002
-0.0450902
-0.493232
0.191758
-0.354634
-0.0238724
-0.132616
0.0146002
-0.31135
-0.0519931
-0.282933
-0.449462
0.00740472
0.487522
-0.491885
-0.017264
-0.00777415
0.0107361
-0.265338
-0.00935859
-0.373565
0.178687
-0.0824786
-0.339451
-0.250253
-0.266125
-0.0116078
-0.44524
0.0011608
-0.172606
0.00698368
0.017215
0.505096
-0.458534
0.00161097
0.310037
0.0302504
0.00881681
-0.0541397
-0.0126239
0.0937739
-0.126115
-0.284085
-0.487072
-0.0185413
-0.306426
-0.298697
-0.491935
-0.510371
0.0430674
-0.00902476
0.148493
-0.0459372
-0.144454
-0.47988
0.00435124
-0.252528
0.499121
-0.0189196
0.0250233
-0.315447
-0.511629
-0.293822
-0.122889
-0.0187928
-0.139712
-0.0127837
0.352262
-0.0493907
-0.0127873
-0.0182739
-0.504571
0.1426
0.0375392
-0.281808
0.0175661
-0.0176672
-0.289346
-0.000267728
-0.0139296
-0.00694272
-0.00856074
-0.305762
-0.513381
-0.324072
0.171615
-0.0296698
-0.512735
-0.414365
-0.495842
-0.0129806
0.365366
-0.494201
-0.246916
-0.275336
-0.00989542
-0.29484
-0.0307248
0.00100378
-0.479186
0.0650282
0.00418422
-0.309896
-0.290613
-0.0653775
0.0792846
0.353209
-0.29366
0.006295
0.020422
0.485167
-0.0649229
0.0196821
-0.0813957
-0.427637
-0.00931449
-0.512857
0.292108
-0.307623
0.130991
-0.509567
-0.0114869
-0.0188717
-0.289931
0.24184
-0.311615
-0.0111533
-0.0103662
0.0130309
0.00415246
-0.511268
-0.360773
-0.253811
-0.502933
0.136141
0.00178448
-0.281335
-0.0167728
0.135666
0.303647
-0.0765387
-0.0583295
-0.00768038
-0.0644024
-0.0460224
-0.125744
-0.276982
0.0431139
-0.304256
0.0435134
0.0965411
-0.0985638
0.0449029
-0.303158
0.0258728
-0.220514
-0.514922
-0.277546
0.105739
-0.0641178
0.0246977
-0.00649662
-0.338218
-0.515189
-0.326579
-0.00846693
0.0305753
-0.495881
0.45047
0.0464947
-0.00251985
0.0192683
-0.0133252
-0.385481
-0.295245
-0.360337
-0.301843
-0.116959
0.00139991
-0.392363
-0.307233
0.0363435
-0.140663
-0.0887193
-0.0178139
-0.00603942
0.225923
-0.511196
-0.271667
-0.312549
-0.255502
-0.008021
0.0166723
-0.324479
-0.156031
-0.287188
-0.511556
0.00994078
0.0622559
-0.505663
-0.280999
0.132919
-0.0076825
-0.32738
0.0124447
0.0113731
-0.350465
-0.135683
-0.0468502
-0.115139
-0.330059
-0.46728
0.0128895
-0.0129723
0.0422205
-0.0784895
-0.0319189
0.0286932
0.010324
-0.0807605
0.425026
0.0149677
-0.036116
0.00812537
-0.505051
-0.278105
0.0357611
0.0109741
0.0345844
-0.046636
0.0177989
-0.017578
-0.0570844
-0.518178
-0.0306071
-0.0644738
-0.259789
0.200312
-0.288173
-0.288463
-0.0767043
0.295237
-0.506835
-0.305617
-0.360319
-0.00127908
0.0238613
-0.294773
-0.462457
-0.491634
-0.312286
-0.0110372
-0.286353
-0.328619
-0.320022
0.0766375
0.298593
-0.294105
-0.410678
-0.134733
-0.280426
-0.274871
-0.00703894
0.00437584
-0.0458067
-0.241501
-0.234179
0.197566
0.431452
-0.518956
0.459403
-0.308116
0.130554
-0.0110954
-0.306697
-0.285779
-0.289538
-0.0319267
-0.501696
-0.00923524
-0.223362
0.0376461
-0.292564
-0.0147668
0.0807399
-0.00430637
-0.321677
0.00231723
-0.00773685
0.103743
-0.369059
-0.291062
-0.0304673
-0.204989
-0.0574469
0.0179572
-0.294152
-0.515773
0.0344722
-0.0329283
-0.283102
0.131211
0.00790354
0.0354336
0.0327229
-0.226616
0.230186
0.0390592
0.0302107
-0.497964
-0.36904
-0.503554
-0.0758558
-0.514767
0.0158144
-0.0230758
-0.0326577
-0.286787
0.00246202
0.0292727
-0.352759
0.135456
-0.0300147
-0.249485
-0.0578211
-0.0007234
0.449397
0.371147
-0.0172709
-0.106603
-0.391927
0.0344472
0.00194456
-0.408451
0.0392836
-0.183408
-0.0934145
0.00611605
-0.0954629
-0.320695
0.0107309
0.202903
-0.4274
-0.0145605
0.0225614
-0.446619
0.0393128
-0.29163
-0.22142
-0.0138917
-0.329774
-0.16063
0.0245994
0.522893
-0.318234
0.0353563
-0.106793
-0.289341
0.26799
-0.506496
-0.0120207
-0.495848
-0.0741168
-0.0590335
-0.0423353
0.0106604
0.381044
0.51981
0.0576577
-0.0132397
-0.011793
0.0108806
0.0367578
-0.22624
-0.0784999
-0.272886
-0.0768683
0.0638437
-0.444653
-0.304149
0.0281111
-0.0319184
0.442828
-0.297562
-0.514277
-0.11991
0.035566
-0.0204304
0.330997
-0.277369
0.285842
-0.512745
0.4416
0.445169
-0.0881333
-0.232685
-0.00227473
-0.200224
0.176046
-0.0218051
-0.0177017
0.0297288
-0.512322
-0.277682
-0.320602
0.0857462
-0.180327
-0.0201746
-0.0247334
-0.0113174
0.0249675
-0.0230327
0.00161324
0.121625
-0.511875
0.0500745
0.222505
-0.359074
-0.305244
0.0222101
-0.0300658
-0.00806421
-0.307373
0.00290672
-0.0553842
-0.118504
0.132326
0.139825
0.276211
-0.0344088
-0.0466461
-0.313447
-0.35809
-0.260056
0.0532463
-0.287879
-0.00730227
-0.0701265
-0.0278932
-0.307709
0.267764
-0.0320853
0.0189777
-0.301957
0.0223446
-0.0536568
0.0990516
-0.0284901
-0.00393087
0.0104592
-0.487241
-0.0406419
-0.304957
0.0263469
-0.436369
-0.0944539
-0.30581
0.0963565
-0.103083
0.220908
0.055394
-0.0324734
-0.464735
-0.117825
-0.265114
0.0403426
-0.21234
0.208281
-0.184418
-0.224205
0.477931
-0.289043
0.000176329
-0.297146
-0.169509
-0.0220675
-0.289244
-0.109734
0.203485
-0.308033
0.13416
-0.167723
0.131602
0.107724
-0.246272
-0.0762788
0.0252646
-0.00451036
-0.381502
-0.504778
-0.23621
-0.506778
-0.191438
0.00137802
-0.310981
-0.295071
0.250029
-0.494561
-0.380034
-0.25216
0.125688
0.0375686
0.00398035
-0.0581667
-0.0369744
-0.0171792
0.269369
-0.0111706
0.000847815
-0.32386
-0.0386239
-0.316389
0.0307473
-0.434567
-0.507038
0.269708
-0.310902
0.125502
-0.107393
-0.399676
-0.244558
-0.0174891
0.0200751
-0.276346
-0.287955
3.43018e-06
-0.36006
0.0327807
-0.0170246
-0.173179
-0.512509
-0.300515
-0.49277
0.00068919
0.0377813
-0.0181363
-0.0100077
-0.000694847
0.256697
-0.305206
-0.469817
-0.0662964
0.0729298
-0.366028
0.0101737
-0.0122571
-0.146841
-0.0799476
-0.305861
-0.391656
-0.118504
-0.311288
0.0138155
-0.363505
-0.306733
-0.0275596
-0.0977238
0.125748
-0.382703
0.0433695
0.00125057
-0.00724785
-0.119777
-0.305978
-0.154965
0.0124261
0.0275524
0.0328949
0.00989022
-0.30861
-0.513001
-0.265753
-0.159386
-0.494869
0.493573
-0.0150655
-0.138737
-0.0357223
-0.437803
0.322034
-0.0859244
-0.320825
-0.274663
-0.0244286
-0.0725796
0.317743
0.00863657
-0.00291573
-0.470341
-0.017068
0.0261308
-0.0105763
-0.51091
-0.319245
0.0147241
0.246711
-0.173836
-0.450095
0.0313516
-0.304174
0.177219
-0.311997
-0.305658
-0.512916
0.512793
-0.0014272
0.0145246
0.041681
-0.404732
0.330224
0.0421022
-0.321454
-0.317177
-0.28845
0.480566
0.0138617
-0.394711
-0.506936
0.0565426
0.129496
-0.285906
-0.0954073
-0.473361
0.0213642
-0.513739
0.0280748
0.211422
-0.363102
-0.16016
-0.0243913
-0.015303
-0.436812
-0.00617391
-0.00514457
-0.226259
0.0207103
-0.303852
-0.292576
0.374667
-0.0243174
0.2456
-0.22772
-0.0070399
-0.207193
0.000649547
0.137475
0.0175067
-0.244463
-0.290378
0.00599109
-0.307961
0.0262711
-0.304231
-0.308416
0.520623
-0.0209553
-0.438311
-0.406446
-0.271873
-0.309389
0.0370743
-0.467836
-0.499918
0.00853194
-0.511112
0.211908
-0.173707
-0.247061
0.202728
-0.367602
0.392785
0.161916
-0.0637545
-0.311732
-0.45518
0.0553652
-0.238427
-0.314344
0.486348
0.215909
-0.294443
-0.0764802
0.000232734
0.0149909
-0.480418
0.0310584
0.0193988
-0.139906
-0.0367958
0.0119887
-0.30127
0.0311017
-0.273964
-0.314478
-0.0747298
-0.257714
-0.301602
-0.00619134
-0.267245
0.00701319
-0.0203767
0.33325
-0.364129
-0.01223
-0.267325
0.178753
0.00416677
-0.0438337
-0.0240756
-0.00281423
-0.00505798
-0.11271
0.118899
-0.172099
-0.171004
-0.119842
-0.0793132
-0.227428
-0.0459558
-0.499218
-0.293337
0.0234001
-0.0286408
0.277774
-0.237275
-0.507346
0.384646
-0.267952
-0.143033
-0.0523423
-0.485149
0.0114818
-0.162862
-0.291461
0.0230971
-0.493575
-0.0248584
0.0358637
0.23608
2.72241e-05
-0.0650833
0.0872324
-0.497808
-0.169721
-0.45334
-0.50252
-0.0399135
0.133536
0.145686
-0.0247073
-0.00504595
-0.0112215
-0.234379
0.0107838
0.0140196
0.458328
-0.314315
-0.0106647
0.0435588
-0.0143299
0.0373881
-0.0133975
0.00825524
-0.0129836
-0.0917828
-0.441611
0.198705
-0.413348
-0.254636
0.0553635
0.292624
0.0137423
0.0155427
-0.0836797
-0.304268
-0.306754
-0.066177
-0.0671295
-0.0167889
0.107153
-0.302378
0.0312228
-0.110182
0.0302786
0.0329379
-0.293561
-0.307159
-0.0226404
0.012451
-0.00517956
-0.314809
-0.308124
0.08609
0.0133087
-0.0964984
-0.182173
-0.28177
-0.344238
0.0350025
0.0127926
0.0230771
-0.159623
-0.0109782
-0.281066
0.336439
-0.247523
-0.0825466
-0.0311688
0.0348718
0.369822
0.016322
-0.511436
-0.0064451
0.0293992
0.266453
-0.00199425
0.166105
-0.0660707
-0.0147754
-0.47864
-0.00240882
-0.0992464
0.02389
-0.37403
0.00449101
0.341387
-0.00547051
-0.0239881
0.0301679
-0.0557433
0.0313537
-0.00262719
-0.509356
-0.00326864
-0.304341
-0.492433
-0.163426
-0.465123
-0.223534
-0.243423
-0.256056
-0.396198
-0.391136
0.0235184
-0.00651575
0.0328852
-0.306553
-0.313621
0.478423
-0.393595
-0.452831
0.0885594
-0.28153
-0.263797
-0.436139
-0.481405
0.320971
-0.493825
0.0161177
-7.37335e-05
-0.22995
-0.233645
-0.331527
0.0554374
-0.0363377
-0.320693
0.00245474
-0.488247
-0.237839
0.0353427
0.0299304
0.00677204
-0.497967
0.0112605
0.0536414
-0.315343
-0.0759561
-0.305192
0.511492
-0.0566046
0.0339325
-0.057505
0.149901
0.521135
-0.330272
-0.160526
-0.2363
-0.177881
-0.0136014
0.421597
0.0192027
0.268891
-0.00255375
-0.00263288
-0.231067
0.182306
0.0148262
-0.178854
0.257029
-0.422071
-0.508194
0.0283878
0.0131995
-0.292921
0.031358
0.423214
-0.276804
-0.514486
-0.0530693
-0.286283
-0.498385
-0.279363
-0.0156816
-0.284198
-0.289865
-0.469369
0.37126
0.0114496
-0.479856
-0.352029
-0.306031
-0.321163
0.0871451
-0.289029
-0.426916
0.0174632
-0.0148507
-0.0962295
0.0187888
-0.281604
-0.509567
-0.22127
0.0923391
0.0198908
0.00476694
-0.00272311
-0.445366
-0.343644
-0.293048
-0.0714341
-0.294603
0.51738
-0.0682156
-0.125698
0.209559
0.439749
0.0374271
0.18725
0.0116026
-0.00979049
-0.277888
-0.472362
-0.138048
-0.152059
-0.146024
0.0143774
-0.00373796
-0.00847164
0.155207
0.455946
0.147639
0.206173
-0.0121002
-0.0330684
-0.0225105
-0.0305523
-0.0397562
-0.500537
-0.224109
0.168286
0.287044
-0.342152
-0.14732
-0.119528
0.28632
0.000925063
0.434103
-0.294492
-0.102554
0.0817503
0.0260943
-0.509774
-0.411824
0.00221247
-0.267824
-0.0669644
-0.37018
0.206133
0.000613877
-0.395058
-0.512261
0.0130745
-0.312015
-0.506079
0.327939
-0.0460118
-0.276026
-0.269418
-0.507423
-0.474677
-0.499539
-0.497987
0.0149818
0.037823
-0.363749
0.00920536
-0.503587
-0.508709
0.00948721
-0.0376709
-0.00330663
-0.318284
-0.395804
0.0194633
0.019468
-0.0111563
-0.118938
-0.47287
-0.184014
-0.247517
-0.0191631
-0.234473
0.208881
-0.0164346
-0.137489
-0.0992595
-0.513837
-0.364895
-0.354156
0.0103634
-0.330591
-0.0781174
-0.309777
-0.01362
0.0378406
-0.007738
0.454229
-0.0751964
-0.30002
-0.29022
-0.0958958
0.0379936
-0.00356457
-0.30507
-0.277641
0.0203668
-0.0603424
0.419302
-0.0110859
-0.370649
-0.329082
-0.489107
-0.505333
0.021843
-0.0118074
0.0431142
0.00985544
0.367898
-0.416432
-0.317633
-0.198367
-0.0119832
0.141485
-0.00197953
0.0125571
-0.169188
-0.315551
-0.058959
-0.311303
-0.510101
-0.330532
-0.229838
-0.337217
-0.275239
-0.306421
0.0202646
0.0993123
-0.44107
0.0367138
0.00240994
0.0656441
-0.512325
-0.223775
-0.503138
0.433723
-0.0748568
-0.00405207
-0.218994
-0.299575
-0.252312
-0.0428784
-0.328259
0.0110672
-0.50013
-0.302342
-0.324429
0.0457807
-0.297106
-0.291827
0.150385
-0.28888
-0.104192
-0.341
0.0138353
-0.283033
0.0437985
0.0344695
-0.178566
-0.493344
0.179274
-0.248843
-0.00452936
-0.236316
-0.464286
-0.065265
-0.493275
-0.0312938
-0.332214
0.00874866
-0.0020521
-0.344391
0.00323055
-0.21801
-0.163606
-0.241985
-0.0527291
-0.297459
-0.495826
-0.304471
-0.0092658
-0.341217
-0.296069
-0.484904
-0.0552862
-0.33126
-0.307995
-0.508966
-0.0342519
0.450917
-0.0102778
0.0378568
-0.353443
-0.004392
-0.143565
-0.283138
-0.340505
-0.0516169
-0.509364
0.0360329
-0.307837
-0.306526
-0.0108946
-0.336275
-0.515621
0.00433432
0.508995
0.0170461
-0.0559445
-0.151268
-0.072068
0.0225297
0.496428
0.0563275
-0.308306
-0.454531
-0.32106
-0.246842
0.0014725
0.175799
-0.454091
0.027148
-0.159104
0.269233
0.363329
-0.219194
-0.43401
-0.226642
-0.0471376
-0.344932
-0.29359
-0.308506
-0.248084
0.013621
0.0131495
0.0130362
0.0167106
-0.296114
0.0208449
-0.495741
-0.44109
-0.478874
-0.423407
0.00785582
0.293311
-0.0175987
-0.291649
0.0169048
0.0383793
-0.427296
-0.0476497
0.351061
-0.0507022
0.0157902
-0.48969
0.478537
-0.302849
-0.351692
-0.122343
-0.503505
0.411987
0.221556
-0.207351
-0.293839
-0.0278305
-0.04128
0.0317569
-0.154781
-0.314697
-0.496469
-0.487647
-0.287581
-0.384653
-0.00836035
0.48018
-0.514522
-0.332376
-0.121574
0.0420238
-0.294801
-0.0195145
-0.338498
-0.280999
0.0361134
-0.279969
-0.272181
-0.497658
0.0333667
-0.00651418
-0.00724412
-0.300731
-0.187616
0.00635771
-0.466915
-0.361964
0.0067876
-0.28651
0.0703809
-0.0264282
-0.0665438
0.00234957
0.00631907
-0.302465
-0.459549
0.30791
-0.331884
0.022257
-0.238836
-0.304247
-0.0145561
-0.286239
0.349499
-0.00109725
-0.220178
-0.138892
-0.259914
-0.0884152
0.0913604
0.00409659
-0.299537
-0.117691
-0.507927
0.0296511
-0.258556
0.216127
0.0362452
-0.225567
-0.0509822
0.0540019
0.0208376
-0.328667
0.169619
-0.160349
-0.0604838
-0.496981
-0.114042
-0.340231
-0.21483
-0.306853
0.0298235
-0.50731
0.0428795
0.162105
0.0236748
-0.327082
-0.0934838
-0.00750946
0.0162836
-0.308186
-0.0246116
-0.0612862
-0.469094
-0.334884
-0.327951
-0.27175
-0.506333
-0.303698
-0.369133
-0.293645
-0.226897
0.0210427
-0.0765984
0.0247051
0.00498624
-0.150738
-0.322828
0.00619215
-0.332083
0.396346
-0.0285085
-0.298584
-0.0562379
-0.30528
0.0168815
0.0228458
-0.305232
-0.319535
-0.280557
-0.0109737
-0.315334
0.0171994
-0.317415
-0.00261742
0.226001
-0.225304
-0.499122
-0.305168
0.0350951
-0.0107576
-0.00855283
0.0349711
0.0751407
-0.388557
-0.0758809
-0.0955234
-0.0975548
-0.00590956
-0.00975822
-0.212385
-0.0986275
0.0093988
-0.278887
-0.465443
0.0345913
0.0333018
0.0427042
-0.278115
0.110448
-0.484876
0.00717499
-0.341331
-0.138438
-0.292059
-0.296195
-0.0780688
-0.418935
-0.00907193
-0.282306
0.432473
-0.0619453
0.00786483
0.0978578
0.0293467
-0.0214379
0.0301871
-0.387231
-0.278859
0.285483
-0.0615963
-0.493097
0.0129702
0.0333537
0.175319
-0.305066
-0.00926696
-0.00105551
-0.00176983
-0.0526482
0.264206
-0.497065
-0.227907
-0.054959
-0.170108
-0.339315
-0.22159
-0.0382354
-0.0116002
-0.253764
-0.131496
-0.306597
-0.346798
-0.283058
-0.0265478
-0.409442
-0.320072
-0.159218
-0.370944
-0.30471
-0.00902178
-0.00688376
-0.327272
-0.0728576
-0.467881
-0.332978
-0.508992
0.0225776
-0.301402
-0.00382755
0.0639061
0.00760665
-0.436086
-0.0564037
-0.422961
-0.0203423
0.347095
-0.309172
-0.421509
-0.40359
0.136941
-0.331434
0.0412185
0.044469
0.0159242
-0.0119986
-0.204077
-0.286016
3.41987e-05
-0.511736
-0.349695
-0.280973
-0.146713
-0.224999
-0.281792
0.213969
-0.361649
-0.33679
-0.0907655
-0.218504
0.170668
-0.276275
-0.00151697
-0.0560791
-0.363612
0.130925
0.0346725
0.0166507
-0.369371
-0.0344537
-0.214596
-0.00396217
-0.304202
-0.0940674
0.202353
0.0921607
-0.321553
-0.159762
-0.311975
-0.0691721
-0.00302326
-0.00956266
-0.30807
-0.410084
-0.42838
-0.288204
0.12007
-0.430925
-0.0724535
0.43809
-0.156223
-0.33876
-0.383221
0.0115632
-0.322706
-0.479037
-0.507186
-0.119502
-0.343574
-0.315108
-0.0650634
-0.288281
-0.150632
-0.238827
-0.498199
-0.053961
0.141837
0.234879
-0.062592
0.00237054
0.285772
0.370147
-0.310259
-0.0379337
-0.295246
-0.0704375
0.0502812
-0.0756048
-0.0289172
0.0323584
0.511447
-0.290095
-0.48751
-0.0433588
-0.019864
-0.0262446
0.0547853
0.130377
-0.0354027
-0.515901
-0.36158
-0.473056
-0.316291
0.0126768
-0.225982
-0.506871
-0.0467621
-0.287986
-0.330187
-0.326843
0.0158206
-0.0311762
-0.504296
-0.382945
0.245989
-0.147869
0.0115996
-0.312314
-0.0437176
-0.081971
-0.131184
-0.280604
-0.00583488
0.00861745
-0.428295
-0.182951
-0.329888
-0.499412
0.413883
0.411393
-0.0056325
0.432377
-0.511071
0.167191
-0.515405
-0.258076
0.155559
-0.50318
-0.304771
-0.0348749
-0.104567
-0.0891714
0.016459
-0.272455
-0.160021
-0.449762
-0.285693
-0.24425
0.0841039
0.222541
0.305138
-0.0115223
-0.158474
-0.0684567
-0.00105259
-0.106623
-0.00519828
-0.103673
-0.17604
-0.46763
-0.501923
-0.247104
-0.316778
-0.221974
-0.034901
0.00300465
-0.385274
-0.0165008
-0.310979
-0.215314
-0.403249
-0.0795457
-0.351156
-0.140786
-0.509715
0.0230556
-0.415438
-0.378049
-0.0108712
-0.366668
-0.502368
-0.315118
0.469337
-0.459163
-0.0994562
-0.329832
-0.501029
-0.449566
0.0303197
-0.352541
-0.00892303
-0.347889
-0.309206
0.10636
0.319643
-0.164768
-0.511386
-0.1659
0.013583
0.00793408
-0.00688726
-0.292916
-0.368721
0.0408078
-0.166988
0.0120074
-0.496448
0.15873
-0.0405932
-0.412193
-0.0256756