/*--------------------------------*- C++ -*----------------------------------*\
| =========                 |                                                 |
| \\      /  F ield         | OpenFOAM: The Open Source CFD Toolbox           |
|  \\    /   O peration     | Version:  v2012                                 |
|   \\  /    A nd           | Website:  www.openfoam.com                      |
|    \\/     M anipulation  |                                                 |
\*---------------------------------------------------------------------------*/
FoamFile
{
    version     2.0;
    format      ascii;
    class       volScalarField;
    location    "200";
    object      nut;
}
// * * * * * * * * * * * * * * * * * * * * * * * * * * * * * * * * * * * * * //

dimensions      [0 2 -1 0 0 0 0];


internalField   nonuniform List<scalar> 
18355
(
0.000424544
0.00631891
0.00670603
0.00672158
0.00305724
0.00104631
0.00672
0.000571693
0.00126168
0.0070807
0.00673508
0.00581318
0.000360422
0.0053282
0.00245972
0.000945763
0.00232206
0.00672771
0.00335598
0.0132044
0.000677284
0.00129366
0.0121318
0.0042443
0.00197052
0.00672362
0.00672236
0.0015514
0.00865749
0.00317088
0.00399405
0.00261787
0.00672677
0.00673993
0.000190485
0.000450947
0.00149541
0.000103766
0.00105666
0.00673687
0.00481786
9.19735e-05
0.00632687
0.00418606
0.00676923
9.73025e-05
0.000445141
0.000943872
0.000423663
0.00672774
0.00672536
0.00674696
0.00672587
0.012292
0.00672263
0.00672192
0.00131614
0.00476193
6.5374e-05
0.000198817
0.00672799
0.00102517
0.00672815
0.000394903
0.0069884
0.000708964
0.00105116
0.000229078
0.00672239
0.00129065
0.00029275
0.0067253
0.000164814
0.00672452
0.000605478
0.00671979
0.00646677
0.00235298
0.00160109
0.00663717
0.00672001
0.000249359
0.000531742
0.000275931
0.00672354
0.000364493
0.00568234
0.0132944
0.00834319
0.0118061
0.000470752
0.00676077
0.00672305
0.00672225
0.000279452
0.0121832
0.0046466
0.001809
0.0123417
0.0017804
0.00228129
0.00190001
0.00023513
0.000523825
0.00355869
0.000935808
0.00231316
9.68805e-05
0.000694075
2.11795e-05
0.00430715
0.000862648
0.00672333
0.00119056
0.0123676
0.0067193
0.000127065
0.00686499
7.77276e-05
0.000300594
0.00803568
0.000461964
0.00227039
0.000383125
0.00489845
9.65316e-05
0.00467703
0.00672552
0.000540918
0.00672148
0.00672548
0.000944878
0.000752521
0.00146224
0.000189312
0.00672539
0.00317467
0.00673515
0.00546727
0.000145973
0.0034371
0.00812906
0.0021053
0.00583337
3.75239e-05
0.00172147
0.000528144
0.00363394
0.0015951
0.00327139
0.00352507
0.00187088
0.000233167
4.16939e-05
0.0023524
0.00672568
0.000962185
7.62377e-05
0.00672562
0.000927484
0.000517328
0.000895375
0.0003426
0.00145014
0.00082765
1.6443e-05
0.00598174
0.000400753
0.000367967
0.00672616
0.00799238
0.0120231
0.00672997
0.00673284
0.00100824
0.00342186
0.00138305
0.00672302
0.000250089
0.00195188
5.46015e-05
0.000360519
0.00139213
0.00671905
0.000854394
0.00381058
0.0114666
0.000539514
0.00089818
0.00148696
0.00112657
0.00674088
0.0019689
0.00106608
0.00016674
0.00164426
0.000857298
0.00135175
0.000988463
0.00673197
0.00224012
0.000763359
0.00345256
0.0101098
0.000574739
0.000540184
9.11512e-05
0.0118114
0.0118585
0.000949706
0.00261313
0.00284305
0.0130546
0.00167495
0.00672571
0.000306788
0.00785863
0.0130215
0.00672339
0.00160915
0.000363514
0.00673145
0.000222499
0.00466899
0.00623661
0.0020724
0.0105017
0.003635
6.62713e-05
0.0038854
0.00672574
0.00166875
0.00069401
0.010857
0.00131554
0.00672342
0.0067231
0.00010104
0.000355679
0.000230885
0.000756861
0.000236824
0.00467395
0.00672562
0.00158037
0.00220256
0.00218022
0.000134287
0.00223542
0.000556196
0.00268903
3.10503e-05
0.00121548
0.012824
0.00248806
0.00698138
0.0117727
0.000608054
0.00321828
0.0067414
0.000625366
0.000214134
0.00315072
0.000781992
0.00671898
0.00672448
0.00672567
0.000385681
0.000156704
3.94865e-05
0.00141148
0.00228879
0.000594056
0.000612941
0.00238697
0.00111645
0.00641344
0.00672311
3.63836e-05
0.00671888
0.00671967
0.000415172
0.00672558
0.00326847
0.00126745
0.000881334
0.0067332
0.000534092
0.00690374
0.00252494
0.00672116
0.00623757
0.000710944
0.0109021
0.00672563
0.00672586
0.00820443
0.000453892
0.00259762
2.83658e-05
0.00672292
0.000227334
0.00139712
0.00672564
2.98562e-05
0.000821534
0.000199661
0.000689467
0.00672162
5.80615e-05
0.00353186
0.00288766
0.00114107
0.00520187
0.000358622
7.10519e-05
0.00672301
0.00672038
0.000306522
0.000388538
0.0120548
0.00243038
0.000350569
0.00338253
0.00677524
0.000379908
0.00126488
0.000293164
0.000407221
0.00672072
3.10718e-05
0.00418524
0.000132789
0.00672211
0.00266269
0.0071467
0.00672567
0.00166467
0.000816726
0.00672276
0.000405774
0.000697603
0.00130883
0.0123728
0.000472772
0.00281622
0.00672788
0.0121143
9.34857e-05
0.00672321
0.00222143
0.000723018
0.000841769
1.84885e-05
0.0123687
0.00672293
0.00220743
0.000134672
0.00422082
0.00230083
0.0003171
0.00115509
0.00202953
0.000622957
0.00672584
0.000120952
0.000371022
0.000130126
0.00672034
0.00353834
0.00672708
0.00502743
0.000120617
0.00605057
0.000378304
0.00672677
0.00106088
0.00672308
0.00069458
0.00429322
0.00249709
0.00658406
0.0060553
0.00103091
5.05267e-05
0.00597457
0.0035654
0.00250844
0.000315425
0.0061601
0.00103588
0.000354962
0.00174188
0.00179804
0.00134669
0.00671914
0.00672334
0.00672291
0.0122282
0.00120292
0.00675568
0.000700621
0.000309894
0.00496894
0.00677576
0.0107903
0.00272865
0.00514936
5.28523e-05
0.00672323
0.000103135
0.00120634
0.000429787
0.000597043
0.00322758
0.00861987
0.00672502
0.00672589
3.08074e-05
0.00672567
0.00672914
0.00165612
0.00672463
0.0079817
0.00141746
0.00174312
0.00193784
0.00150745
0.00672497
0.00581135
0.00147838
0.00755739
0.000858522
0.00672528
0.00671911
0.00164094
0.00605314
0.000179955
0.0021496
0.00672581
0.00194665
0.000137554
9.04694e-05
0.000654686
0.00200355
0.0067258
0.00108375
0.000706201
0.0113259
0.00722094
0.00306426
0.000109384
0.000112052
0.00606011
0.00415016
0.00672039
0.00672982
0.00405549
8.96411e-05
0.00672259
0.00675842
0.00122182
9.78112e-05
0.000418589
0.011503
8.63469e-05
0.00235706
0.00432347
0.00436707
0.00498761
0.00671987
0.00672599
0.00672593
0.00672287
0.00915
0.00228527
0.0067213
0.000248613
0.000212881
0.00672028
0.00275089
0.000106593
8.36693e-05
0.00123621
0.00531375
0.00101928
0.000759574
0.003889
0.00151121
0.00582736
0.00144267
0.000265301
0.00672438
0.0128186
0.00564984
0.00881977
0.00496799
0.00557202
0.000607135
0.00117188
0.00290159
0.00286271
0.00493351
0.00176875
0.000384989
0.0067229
0.00137775
0.00777933
0.0121904
0.0128383
0.00229813
0.000560334
0.000681543
0.0100128
0.00195253
0.000652154
0.00229016
0.0035787
0.00672298
0.000139653
0.00672277
0.00514307
0.00048491
0.0125534
0.00359366
0.00255564
0.00672935
0.00027675
0.000300302
0.000693633
0.00672233
0.000860165
3.87614e-05
0.00149191
0.00371374
0.000931005
0.00162311
0.00672577
0.000764275
0.00101525
0.0014421
0.0001631
0.00151661
0.00672409
0.00672873
0.00672589
0.00042809
0.00185824
0.000900716
0.00489706
0.00330015
0.00379969
0.00671992
0.000388571
0.00111843
0.000125689
0.000455097
0.0124016
0.00245859
0.000299343
0.000466083
0.000944439
0.0121261
0.00370839
0.00555505
0.00147766
0.00114227
0.00555992
0.0062838
0.00197852
0.000432251
0.000415858
0.000119705
0.00852209
0.000990255
0.00672293
0.0121807
0.00172254
0.00230361
0.00576694
0.00028908
0.011196
0.000606045
0.00672454
7.29288e-05
0.000179476
0.000274315
0.000290334
5.05071e-05
0.00158177
0.000630677
0.00282822
0.000579793
0.00142354
0.000125974
0.000140824
0.00143443
0.00672139
0.0025107
0.00418393
4.03215e-05
3.0168e-05
0.00504461
3.93523e-05
0.00940587
0.00171349
0.000128663
0.000901362
0.00372493
0.0073634
0.00673696
5.16543e-05
0.00205115
0.00333778
0.000412479
0.00672023
0.00147611
0.00197503
0.00165903
0.000356112
0.0067369
0.000286216
0.000817217
0.000649655
0.0105308
0.00496707
0.00048731
0.0126858
0.00672403
0.00166048
0.0126371
0.0067179
0.000669399
0.0067209
0.00305443
0.00162588
0.00147043
0.000320611
0.000822232
0.000740017
0.000921291
0.00339516
0.00261226
0.00429328
0.00326673
0.00172058
3.59539e-05
0.00268806
0.000236915
0.000590724
0.00518894
0.00672504
0.00486939
0.000934983
0.000888667
0.00672502
0.00138157
0.00264378
0.00689335
0.00057714
0.00135978
0.000127475
0.000909502
0.00672129
0.00672474
0.000641934
9.81358e-05
0.00675848
0.00410763
0.000355205
0.000290582
0.00677163
0.0128032
0.0106856
0.00318891
0.00673542
0.00194766
0.00672516
0.00672542
0.00329953
5.61682e-05
0.00146159
0.00672906
0.0015048
0.000469465
0.00175401
0.000100368
0.00380121
0.0090077
0.00105412
0.00218317
2.60912e-05
0.0120262
0.00671963
0.00653561
0.00672161
0.00672381
0.00132982
0.000266272
0.0102744
0.000599548
0.00369897
0.000298936
0.0115362
0.000143414
0.00121349
0.00857674
0.00301335
0.00752874
0.00256564
0.00392131
0.00643827
0.00214426
3.75482e-05
0.000724293
0.000673265
0.00666051
3.79598e-05
0.0096786
0.00672216
0.0123875
0.00454547
0.00469366
0.00324603
0.000391603
0.00150028
0.0067272
0.00672738
0.0010717
0.0012155
0.00273643
0.00671918
4.02673e-05
0.001113
0.00672705
0.00672299
0.000372148
0.000608806
0.00772414
0.000662168
0.00676954
0.000858778
0.0119442
0.000727828
0.00474381
0.00672819
0.000459151
0.000892819
0.00123647
0.00486056
0.000142936
0.00016278
0.00104937
0.00859561
0.00124042
0.00671831
0.00152057
0.00421582
0.00209715
0.00134551
0.00317774
0.0067187
0.00551004
0.00676035
0.00738689
0.000853906
0.00556855
0.00047968
0.000600045
0.0109774
0.00370141
0.00672117
0.00567802
0.0113648
0.00243841
0.0129075
0.008019
0.0111995
4.90189e-05
4.66422e-05
0.00317605
0.00122837
0.00672352
0.00672526
0.00332977
0.00169406
0.00672305
0.00173871
0.00750984
0.000578479
0.00320039
5.32135e-05
0.00671794
0.00128904
0.000386038
0.00672251
0.000859108
0.00152822
2.96623e-05
7.58697e-05
0.000340777
0.0107296
0.000110445
0.00120134
9.4798e-05
0.0124478
0.0130762
0.00101287
7.69801e-05
0.000902061
0.00290596
0.0053595
0.00672583
0.00671965
0.00152598
0.0133313
0.00672551
0.00672581
0.000272942
0.00671756
0.000204261
0.000288472
0.00672432
0.00288591
0.00479844
0.00525315
0.00133305
0.00672501
0.000166894
3.40486e-05
0.0024862
0.00288313
0.00672611
9.76397e-05
0.00671905
0.00123881
0.000106991
0.0060368
0.0110264
0.00317119
0.0122963
0.00218756
0.00189745
0.00672234
0.00270198
0.000390182
0.00672361
0.00241477
0.0124127
0.00593329
0.00228158
0.00304348
0.00116672
0.00672129
0.00672236
0.00672491
0.00367146
0.00672744
0.0120892
0.000765058
0.000259169
0.00552047
0.00674062
0.00664589
0.0121412
0.0129398
0.000280161
0.00672099
0.00587733
0.00672517
0.00268475
0.000130877
2.90075e-05
0.000974869
0.00289785
6.05282e-05
0.00680836
0.000212852
0.0034231
0.00294721
0.00857502
0.000508231
0.00672206
0.00199838
0.012394
0.00672267
0.00369133
0.000113192
0.00672526
0.00039439
0.00674891
0.00116324
0.000738168
0.00671748
0.0067185
0.00256501
0.00490434
0.00672448
0.00144118
0.00537688
0.00302251
0.00672417
0.00012832
0.0061859
0.00105795
0.0123179
0.00139556
0.0067246
0.00113997
0.00235513
5.25904e-05
4.55288e-05
0.00676358
0.000258098
0.00370411
0.0118637
0.00674225
0.00269198
0.00013145
0.00447483
0.00672374
0.00671831
4.08787e-05
0.0064309
0.00359927
0.0042768
3.82288e-05
0.00672541
0.00672436
0.000702901
9.14928e-05
0.00508649
0.000777043
0.0023888
0.00172326
0.00472745
0.00675886
0.00672598
0.000338662
0.0024195
0.0124214
0.00118506
0.0126242
0.00500237
0.0067253
0.000160294
0.0125733
0.00598441
0.00197583
0.0066652
0.00463892
0.000873756
0.00138087
0.000239272
0.0064465
0.00736108
0.0067333
0.000892252
0.00672267
0.00530384
0.0067255
0.0126031
0.000129855
0.00807556
0.000260052
0.001698
0.00105146
0.00671991
0.00671987
0.00671804
0.000955159
0.000216581
0.00340111
0.000682732
0.000229158
0.00672088
0.000812903
0.000449372
0.00193727
0.000977391
0.000952414
0.00025469
0.0049708
0.00127991
0.00666162
0.00149614
0.00261987
5.26111e-05
0.00673179
0.00616776
0.000299087
0.000188102
0.00535188
0.000912401
0.000346793
0.00396824
0.00161278
4.00663e-05
0.000420347
0.000442377
0.000485002
0.00672255
3.71367e-05
0.00387535
0.00129575
0.00275775
0.0067226
0.0126247
0.00108305
0.00189131
0.00685999
0.00540083
5.79538e-05
0.00259766
0.00673001
0.000135432
0.00371371
0.00125213
0.00517539
0.00416026
0.00176789
0.00132388
0.00261826
0.0125689
0.00265948
0.000583966
0.00565726
0.00673076
0.00121121
0.00184909
0.00138158
0.000375124
0.00192925
0.00671786
0.00672419
0.00123381
0.00673505
0.00672188
0.00739288
0.00672573
0.00191152
0.00672061
7.89383e-05
0.00672342
4.6249e-05
2.93676e-05
0.00312192
0.0101255
0.00671925
0.00157199
0.00543519
0.00890517
0.000372609
0.00671776
0.00672125
0.00332265
0.00554339
0.000406236
0.0103525
0.00331094
0.00522751
0.00672396
0.00192153
0.00248597
0.00174392
0.00674178
2.85309e-05
0.00899256
0.00192059
0.00313293
0.004431
0.00672456
0.00672389
0.00940673
0.00139203
0.00733216
0.000945252
0.00424171
0.00934951
0.00221169
0.000125159
0.00672454
0.00160696
0.0055431
0.000357328
0.00026756
0.00119656
0.00672283
0.0047128
0.00126854
0.00671777
0.00673938
0.00296872
0.00563549
0.0032325
0.00699837
0.0016163
0.00164377
0.00227207
0.00122752
0.0130849
0.00671745
5.0261e-05
0.000932946
0.00671767
0.000922696
0.00220186
0.00672222
0.00523042
0.0067228
0.0048684
0.000986425
0.00672233
0.00158536
0.000350634
0.00672272
0.000329317
0.00121691
0.0106957
0.00336159
0.00624524
0.000600429
0.000416409
0.00852991
0.0129676
0.00676971
0.00186726
0.00672152
4.32499e-05
0.0110167
0.000209005
0.000780936
0.00672443
0.00418695
0.00672299
0.00182005
0.00144064
0.00315925
0.00118578
0.000594768
0.00672299
0.00672475
0.00672339
0.00554966
0.00049533
0.00502325
7.95223e-05
0.00672171
0.000746046
0.00335127
0.000210805
0.000812474
0.000353191
0.00101291
4.58473e-05
0.00674206
0.00671803
0.000205755
0.00672198
0.00672134
0.00106664
0.000869138
0.00672281
0.000106477
0.00672166
0.00642116
0.00672304
0.00600634
0.00428001
0.000389673
0.00135053
0.00341384
0.00941029
4.42839e-05
0.00672266
0.000274685
0.000946048
0.0043734
5.69348e-05
0.0116092
0.000256809
0.00132661
0.000819395
0.000692811
0.000125753
0.00748011
0.00671951
0.00672289
0.00555502
3.97335e-05
0.00203247
0.00269907
0.00460522
0.00198157
0.0127563
0.00044466
0.00157173
7.7041e-05
0.00671948
0.00104862
0.000232177
5.61863e-05
0.00672302
0.000327228
0.000248351
0.000870802
0.0125106
0.00672551
0.00632809
0.00672078
0.000128499
0.00671875
0.00671868
0.00668258
0.000151045
0.00115629
0.0045816
0.00998285
0.000808365
0.00190741
0.00389228
0.0067257
0.00673699
0.000812854
0.00606819
0.000116462
0.00137053
0.000305492
0.000716894
0.00564121
0.00267963
0.00531211
0.00370179
0.000968647
0.000153045
0.00850089
0.000718978
0.000997513
0.006336
0.00672018
0.00486264
0.000231619
0.000123159
0.0067238
0.00672536
0.0067228
0.00671824
0.00671874
0.000564367
0.000150077
0.0122593
0.00068737
0.000426606
0.00196966
0.000656956
0.00970661
0.00248343
0.00155724
0.00671639
0.00521042
0.00884562
0.000221738
0.00127709
0.00499894
0.00269034
0.00170822
0.000625321
0.00130448
0.000170236
0.00674303
0.00189635
0.0107988
0.00672589
0.00057616
0.00309092
0.0118837
0.00057658
0.000450243
0.000465147
0.000129392
0.00011605
0.00741933
0.0050446
0.000297423
0.00677819
0.00672516
0.00786836
0.00258148
0.0124423
0.00672296
0.00677328
0.0115882
0.00462343
0.00496765
0.00160245
2.68703e-05
0.00190084
0.00672357
0.0119945
0.00207364
0.00173022
0.00671877
0.00510163
0.00093265
4.06187e-05
0.00672275
0.000420984
0.000262412
0.0016762
6.83657e-05
0.00672547
0.00672286
0.00672112
0.00673238
0.00161537
9.37719e-05
0.006721
0.0108767
0.0067329
0.00672241
0.000447788
0.00572406
9.99823e-05
0.00151346
0.00671803
0.00359678
0.000354355
5.00217e-05
0.000143698
0.00355835
0.00188137
0.000334537
0.00092956
0.00474207
0.00025545
0.00943676
0.00671864
0.000254564
0.00480474
0.00057569
0.000688885
0.0129904
0.00120539
0.00267889
0.000676861
0.000641372
0.00147788
0.000130248
0.00452944
0.000336296
0.00674335
0.00298059
0.00112845
0.00182644
0.000265406
0.00671926
0.000410035
0.00456648
9.07351e-05
0.00501147
0.00654396
0.00678972
0.0067451
0.000122811
0.000279175
0.00618592
0.00555016
0.00513212
0.00671852
0.00265068
0.00388654
0.0127496
0.00198049
0.00672528
0.0123633
0.00672266
0.00314642
0.00673972
0.00607573
0.000127291
9.12958e-05
0.000964232
0.00545221
0.00672228
0.00673102
0.000410789
7.82407e-05
0.00672217
0.00103806
0.00495293
0.0131029
0.00128493
0.0124006
0.00499902
0.00394884
0.00405618
0.0067197
0.000923922
0.0067251
0.00223615
0.00423468
0.000314887
0.00124558
0.00092407
0.000200187
0.0101708
3.61642e-05
8.99487e-05
0.00831221
0.00672017
0.000241897
0.00217344
0.00672056
0.000761631
0.00280602
0.000273289
0.00587403
0.0117969
6.2563e-05
0.00722932
0.000885762
0.000924553
0.000105827
0.00164968
0.00491036
0.0067189
0.00606414
0.000290596
3.97265e-05
0.000340523
0.00671901
0.00103324
0.000307405
0.00671385
0.00138745
0.000554842
0.00238136
0.00672432
0.00672576
0.000190662
0.0067202
0.000190519
0.00239037
0.00671966
0.00672026
0.000755808
0.00671519
0.0001607
0.00160617
0.000179392
5.96243e-05
0.00507149
0.00155038
0.00147682
0.00019235
0.000911455
0.00124851
5.72371e-05
2.91495e-05
0.000396183
0.00742112
7.02991e-05
0.00292838
0.000483174
0.0129843
0.002023
0.00671783
0.00672258
4.06875e-05
0.00280392
0.00640376
4.4354e-05
0.00109295
0.0104346
0.00157052
0.00040982
0.0124145
0.00302969
0.00672231
0.00672234
0.00671904
8.00572e-05
0.000444139
0.00159672
0.000322761
0.00038183
0.000473604
0.00289904
0.00197919
0.000235894
0.00672195
0.00672015
0.000503485
0.00272737
6.55393e-05
0.00672191
0.00672008
0.0067257
9.31863e-05
0.000191727
0.000577204
0.00262785
0.00225461
0.0127096
0.00761229
6.41605e-05
0.00016189
0.000718336
0.00234943
0.0119206
0.000338867
0.00266625
5.97003e-05
0.00673504
0.000450161
0.000450147
0.00210383
0.00671783
6.03776e-05
0.00255599
0.00914757
0.000292449
0.000596089
0.00252291
0.00127983
0.00447541
0.00175331
0.0021975
0.000971654
0.000121407
0.00673953
0.0113887
0.00255853
0.00671973
0.0009031
0.00201979
0.000266249
0.00521728
0.00179216
0.00672014
5.82346e-05
0.000301683
0.00228583
0.00242351
0.00355619
0.00213007
0.00672493
0.000489462
8.09149e-05
0.0120474
0.000602936
0.0067242
0.011193
0.000104635
0.00673818
0.000164412
0.00646199
0.0011431
0.00671939
0.000134762
0.000962018
0.000527933
0.000436805
0.00673956
0.00526596
0.0067232
0.00158463
0.00164132
0.00150549
0.00671784
0.00443266
0.00108943
0.00672601
0.00095083
0.00672294
0.00143392
6.54757e-05
0.0106526
0.00117238
0.00113573
0.0125168
0.00671825
0.00672342
0.00038717
0.00176381
0.00354059
0.000711406
0.000531757
0.00121713
0.0116317
0.00338276
0.00529582
0.00227539
0.000168273
0.00672091
0.00122685
0.0131943
0.0079004
0.00203606
0.00143361
0.00673754
5.94523e-05
0.000341651
2.807e-05
0.00672514
0.000180459
0.00165851
0.00232266
0.00176232
0.000681553
0.00243964
0.0100649
0.00161609
0.00673842
0.00832342
8.77499e-05
0.00672286
0.00672238
3.85144e-05
0.00180715
0.000488842
5.62763e-05
0.00672274
0.00152782
0.00105179
0.00145351
0.00266284
0.00671358
0.000263146
0.00170013
0.000321895
0.00673209
0.0027701
0.00332825
0.00255652
0.00672245
0.000184588
0.00568463
0.000692752
0.0127446
0.00720774
0.00387354
0.00624649
0.000101729
0.00211962
0.00223368
0.000632947
0.00129149
0.00671808
0.000789242
0.00260165
0.000132832
0.00393451
0.0029537
0.00541649
0.00310863
0.0120829
0.00675609
0.00290947
0.00671982
0.00185811
0.00629288
0.000649315
0.000197664
0.00672344
0.000110877
0.0016301
0.000406235
0.00084588
0.00216843
0.000221696
0.0127243
0.000333689
0.0067589
0.00023805
0.00109682
0.000180967
0.000660076
0.0052543
0.00198028
0.000538518
3.8455e-05
0.000163012
0.00177481
0.0030122
0.0128873
0.00235438
0.00673831
0.000509835
0.000178011
0.0108477
0.00723322
0.004956
3.14503e-05
0.000245783
5.02091e-05
0.000157718
0.000969024
0.00672293
0.00152618
0.000127554
0.00413269
0.000115478
0.000807331
5.05964e-05
0.00938652
0.00672223
0.00044115
0.00154712
0.000700775
0.000207446
0.00672352
0.000283533
0.000569525
0.000879309
0.00672348
0.00189583
0.000475088
0.0046027
0.00140737
0.00374837
0.00672544
0.00672034
0.00119685
0.00011833
0.00309321
0.00672304
0.00139684
0.00166563
0.000812021
0.00450094
0.0067262
0.00452649
4.59739e-05
0.00672111
0.00672133
0.000609711
0.011516
0.00508985
0.00672556
0.00148774
0.00156889
5.85939e-05
0.00261475
0.00728344
0.00671783
0.00119391
0.00101829
0.0128621
0.00232081
4.2762e-05
0.00106348
0.0112599
0.00937205
0.00304285
0.00441028
0.00111427
0.00410267
0.00673394
0.000175565
0.00673397
0.00559738
0.00676556
5.89978e-05
0.00468684
0.00430143
0.00127501
0.0116073
0.00447546
0.0118596
0.00384061
0.00062701
0.00672446
0.000967405
0.000207786
0.000311217
0.00235668
0.0067224
0.0014211
0.0121308
0.00672008
0.00112839
0.00672375
0.000375429
0.00231912
3.97741e-05
7.92933e-05
0.000366051
0.000702298
0.00210963
0.00944876
0.00125428
0.0067178
0.0121312
0.0101344
0.0053792
0.00673286
0.000412561
0.000751131
0.000436201
0.00671942
0.0059401
0.000313407
0.000397032
0.00674405
0.00671894
0.00150351
0.00357942
0.000424408
0.00269516
0.000567038
0.00418061
0.000213768
0.00268703
0.00386263
6.49489e-05
0.00671955
0.000603174
0.000176481
0.000981845
0.000280439
0.00458149
0.00104005
0.0092552
0.00134247
0.00671914
0.000153372
0.00672014
0.0119702
0.00672386
0.0112699
0.00531783
0.00515716
0.0053073
0.000559191
0.00755446
0.00619326
0.000525284
0.00091708
0.000133256
0.00672062
0.000277743
0.00671938
0.0115881
0.000454395
0.010752
0.00673221
0.00672546
0.000148294
0.0023385
0.000213119
0.0052181
8.403e-05
0.000824451
0.00455954
0.00648941
0.00278017
0.00672154
0.0026779
0.00258983
0.010175
0.000385703
0.00671891
0.00728113
0.000141446
2.6023e-05
0.0067916
0.00021288
8.65015e-05
0.00430459
0.00123066
0.00220535
0.00672245
0.00671929
0.00420208
0.000741974
0.00152114
0.0118192
3.21774e-05
5.39457e-05
0.00672588
0.00672117
0.0132205
0.00159815
0.00672205
0.00274188
0.00384655
0.0128533
0.00390625
0.0111102
0.000278376
3.51078e-05
0.00672589
0.0111183
0.00671813
0.00297286
0.00672212
0.00671781
0.000713744
0.00594595
0.00672335
0.0117997
0.00023444
4.96615e-05
0.00127403
0.0067224
0.00336706
0.0122967
0.000174732
5.10007e-05
0.00672612
0.00185438
0.00215464
0.0130838
0.0074442
0.00954096
0.00673465
0.0127407
0.00400837
0.0124531
5.10262e-05
0.000529574
0.000110967
0.00553508
0.000516328
0.0119313
0.00155565
0.0101731
0.00671768
0.00672286
7.96363e-05
0.000821614
0.000219029
0.000427884
0.00671968
0.00619355
0.00119351
9.69476e-05
0.00671682
0.000404812
4.13795e-05
0.00672314
0.00108107
0.000557074
0.000836304
0.00676193
0.00672013
0.0106874
0.00912732
0.000729917
0.00749015
0.000212036
0.00672103
0.00753947
0.00238826
0.0067227
0.000361027
0.00672503
0.0067393
0.000983396
0.0101138
0.00232845
0.00794692
0.00114639
0.00476063
0.00341799
0.00305385
0.00176913
0.00671827
5.57769e-05
0.00672261
0.0035743
0.00674401
8.27271e-05
0.00486991
0.000454028
4.37766e-05
0.0129284
9.5116e-05
0.00450003
0.00139112
0.0123066
0.00769192
0.00888472
0.00672093
0.00223749
0.00743464
0.004525
0.00073876
0.0013942
0.00672276
0.00440724
6.66463e-05
0.0044037
0.00346859
0.000384354
0.0067249
0.00401477
0.0012526
0.00575977
0.00378302
0.00672473
0.00118181
0.00673851
0.00136228
0.00673824
0.000138057
0.000243393
0.00915012
0.0067193
0.0054364
0.012887
0.00413947
0.0067251
0.00057785
0.00082013
0.00211035
0.00141889
0.00915367
0.0131168
0.000282725
0.00637683
0.00605562
0.000938525
0.00671802
0.00671976
0.00126552
0.00671934
0.00023517
0.00429371
0.00926383
0.00672213
0.00164505
0.00256303
0.000393088
0.00753495
6.92544e-05
7.83259e-05
0.00250483
0.000284399
0.0116236
0.000342343
0.00982482
0.00105785
0.00298127
0.011778
0.00780486
0.0013369
0.00672411
0.00150502
0.000417568
0.000439356
0.00657884
0.0022407
0.00672494
0.00671567
0.00672308
0.0107722
0.00112436
0.00671981
0.00301506
0.00672247
0.0076394
0.000585672
0.00808975
0.00068555
0.00671952
0.0129628
4.75267e-05
3.82176e-05
0.00139477
0.0013919
0.00672119
0.000796812
0.00311093
0.00154077
0.000188099
0.00234967
0.00671913
4.78361e-05
0.00140444
0.00672259
0.00054664
0.00672147
0.0108899
0.00671988
0.00894746
0.00386607
0.000761501
0.00671969
0.0041269
0.00672063
0.00677888
1.8923e-05
0.000928181
0.00106763
0.000204405
4.07986e-05
0.0129787
0.000365466
0.000860672
0.00226346
0.0103731
0.00889773
0.00677542
0.00158117
0.00584749
0.0058126
0.00133
0.00675512
7.45153e-05
0.00145455
0.00275338
0.00311218
0.0067229
0.00531171
0.00460787
0.00672578
4.09302e-05
0.00653873
0.00634532
0.000155198
0.00302235
3.48086e-05
0.00107835
0.0053798
0.00443691
0.00426763
0.0067223
0.00678871
8.24894e-05
0.00127378
0.000138576
0.000273799
0.0073466
0.00672216
0.00620856
0.0117848
0.00671881
0.0015629
0.000333091
0.0027392
0.00138133
0.0131229
0.0067254
0.00133693
0.00393006
3.87677e-05
5.55644e-05
0.00175652
0.00804417
0.000323413
0.0102447
0.00671818
6.47383e-05
0.00724193
0.00671866
0.0011762
0.00637619
0.00052385
0.00229475
0.00527059
8.75746e-05
0.0031954
0.00230122
0.00160838
0.00823762
0.000577811
0.00205699
0.0022067
0.0102351
0.00523216
0.00219591
0.000128888
3.59606e-05
0.00126875
5.60359e-05
0.000152644
0.00672134
0.00135756
0.00324875
0.00672771
0.00156669
0.00672179
0.00155228
0.0120691
0.000726055
0.00672488
0.00400325
0.00494091
5.02267e-05
0.00232375
0.0012506
0.00211109
0.0085522
0.00160566
0.000518599
0.000213167
0.000131343
0.00456649
0.00674296
0.0067223
0.00013571
0.00711168
0.0127277
0.0122144
0.0067176
0.00049315
0.000253695
7.57209e-05
0.00953208
0.00672235
0.0127469
0.0017961
0.00307993
0.00675846
0.00768836
0.0011162
0.00439148
0.00380152
0.000668432
0.010968
7.84832e-05
0.00671901
6.1027e-05
0.00257256
0.00425544
0.00111941
0.00153344
0.00671915
0.00257348
0.000980132
0.00672611
0.00105317
0.00672524
0.000598023
0.00672418
0.0119918
0.00672445
0.00909348
0.00673341
0.00148021
0.00611479
0.000976323
0.000825877
0.00672131
0.000754334
0.0018769
0.00672387
0.00475362
3.53109e-05
0.000114964
0.00674047
0.000592693
0.00581868
0.0130044
0.00118117
0.000242331
0.000468652
0.00483547
0.000824876
0.00308696
0.00104124
0.000139634
0.00672263
0.000171667
0.00676487
0.00672164
0.0119973
0.000393498
0.0061776
0.00672786
0.00370734
0.00672589
0.0121198
6.52464e-05
0.00672564
0.00502791
0.000334908
0.00163198
0.0016309
0.000720631
0.00672307
0.000347079
0.0133704
0.00672329
0.000328389
0.00292288
0.00146829
3.55676e-05
0.00929307
0.0102952
0.00203761
0.000421569
0.00730538
0.00171167
0.00963128
0.000140383
0.00121953
0.000311843
0.00137744
0.00672711
0.000134337
0.00672458
0.00634919
0.000821306
0.00458568
0.000265113
3.02182e-05
0.00123589
0.000548989
0.00672154
0.000741826
0.00672251
0.00672142
0.000728669
0.0116568
0.00624975
0.00761282
3.59421e-05
0.0018617
0.00362279
0.00293751
0.000468552
0.00417819
0.000176205
0.00372627
3.09307e-05
0.00559704
0.00672238
0.00672497
2.2809e-05
0.00522175
0.000800557
0.00672261
0.00686753
0.00568705
0.00175577
0.00672502
0.000351879
0.0106829
0.00192024
3.88908e-05
0.000244364
0.00673064
0.00164887
0.0067257
0.0113247
0.00671991
0.00788752
0.0105484
0.0124143
0.000709651
0.000322322
0.00558822
0.00672193
0.00538552
0.00672563
0.00361711
0.0126035
0.000158482
0.00671851
0.00673769
3.04014e-05
4.59953e-05
9.8977e-05
0.00877378
0.000341189
0.000745516
0.00235221
0.011776
3.0305e-05
0.0016413
2.77094e-05
0.0124455
0.00813748
0.00250313
0.000956119
0.00672671
0.00077336
0.000467555
2.20012e-05
0.00672716
0.000368575
0.00672313
0.000152011
0.011426
0.00312513
0.00105668
0.00800107
0.00832965
0.00317276
0.00926117
0.00465435
0.000241957
0.0067245
0.0127802
0.00672353
0.00184515
0.00672312
0.00278943
0.00672393
0.00347867
0.00341411
0.000324995
0.00673636
0.0100336
0.00401067
0.00671524
0.0067364
0.000189124
0.000112981
0.00207825
0.000249303
0.00120985
0.0105484
0.0112676
0.0121923
0.00204205
0.000864763
0.00137765
0.000189534
0.00414937
0.00651504
0.00559357
0.00199294
0.0014411
0.00139716
0.00372795
0.000118106
0.00018422
0.00672358
0.000880744
0.00518837
0.00672281
0.000502073
2.76172e-05
0.00139177
0.000737277
0.00299467
0.00158804
0.0104089
2.93384e-05
0.0067454
0.000494104
0.00380419
0.000408383
0.00149346
5.45733e-05
0.00544815
0.000517249
0.00072775
0.00937146
0.0012639
0.0087935
0.00206707
0.0068289
0.00672298
0.00672016
0.00673638
0.00629935
0.00687304
0.0100266
0.0091611
0.000199689
0.000749406
0.000818075
0.00805102
0.00486381
0.00672075
0.00091401
0.000328414
0.000176482
0.00568261
0.00119743
6.71414e-05
0.00768994
0.00456727
0.000709353
0.00675062
4.05947e-05
0.000227397
0.000758737
0.0063817
0.00850421
0.00824228
6.16692e-05
0.000864165
0.00430199
0.00261031
0.00151439
0.000297749
0.00505108
0.00737568
0.00369662
0.000149197
0.00673142
0.000633814
0.000797551
0.0118487
0.00672275
0.00152147
0.000232881
0.00692533
0.00672206
0.00544756
0.000141911
0.00238228
0.000444796
0.00654097
0.0093857
0.00528821
0.00672621
0.000305072
0.0100103
0.00249131
0.000677751
0.00264244
0.00175409
0.00672541
0.0127859
0.000563696
2.90628e-05
0.00144469
0.00820568
0.00674206
0.00671537
0.00672807
0.00672088
0.00671935
0.0086679
2.59941e-05
0.00768952
0.00672411
0.00543695
0.00971615
0.00133386
0.00777861
0.00207022
0.00678307
3.27241e-05
0.000196508
0.00123074
0.00742592
0.00160052
0.000599714
3.30426e-05
0.000355734
0.00672142
3.14117e-05
0.00671761
2.93487e-05
0.0033266
0.000715874
0.00673323
0.00458215
3.38795e-05
0.00672299
0.0102545
0.00672276
0.00699933
0.0124223
0.000400618
0.000534012
9.12627e-05
0.000795507
0.00680504
0.00676441
0.00540327
0.00027646
0.000653795
6.57664e-05
2.1461e-05
0.00268758
0.000575618
0.000137668
0.00275311
0.000978423
0.00727248
0.000362133
0.00551365
0.0020899
0.00672466
0.00218512
0.000180442
0.00847293
0.00672055
0.00168418
8.71687e-05
0.00610252
0.00312425
0.00672254
4.51632e-05
0.00751402
0.00277381
0.00672608
4.949e-05
0.0123062
0.00115649
0.000311197
5.9695e-05
0.0095666
0.0010056
0.000951413
3.45198e-05
0.000607483
0.000917998
0.00075876
0.00672249
0.000117892
0.0121457
0.000104132
0.00115023
0.00387576
0.00130107
0.00673558
0.000564743