/*--------------------------------*- C++ -*----------------------------------*\
| =========                 |                                                 |
| \\      /  F ield         | OpenFOAM: The Open Source CFD Toolbox           |
|  \\    /   O peration     | Version:  v2012                                 |
|   \\  /    A nd           | Website:  www.openfoam.com                      |
|    \\/     M anipulation  |                                                 |
\*---------------------------------------------------------------------------*/
FoamFile
{
    version     2.0;
    format      ascii;
    class       surfaceScalarField;
    location    "200";
    object      phi_0;
}
// * * * * * * * * * * * * * * * * * * * * * * * * * * * * * * * * * * * * * //

dimensions      [0 3 -1 0 0 0 0];
oriented        oriented;


internalField   nonuniform List<scalar> 
27274
(
0.13089
0.0316754
-0.162566
0.011213
-0.00596196
-0.00525105
0.228705
-0.309661
0.080956
-0.319723
0.517215
-0.197491
0.290164
-0.243887
-0.0462773
0.135288
-0.121904
-0.0133836
0.360585
-0.417453
0.0568678
-0.164898
0.0794191
0.0854792
-0.143892
0.153424
-0.0056803
0.000666819
0.00501348
0.433857
-0.212471
-0.221386
-0.0125656
0.0146054
-0.00203981
-0.0372518
0.0935529
-0.0563011
0.217723
0.0935138
-0.311237
-0.0584969
0.283475
-0.224978
0.0346228
0.147276
-0.181899
-0.00797096
-0.00249594
0.0104669
0.0413612
0.247487
-0.288848
-0.295533
0.248908
0.0466249
0.03942
-0.0255946
-0.0138255
-0.11825
0.164458
-0.0462073
-0.0376763
-0.143777
0.181454
0.000688008
-0.00697571
0.0062877
0.256888
0.0332762
-0.224972
-0.0260226
0.372828
0.0384149
-0.411243
-0.422288
0.171518
-0.156952
0.165277
-0.00832504
0.00584659
-0.00172407
-0.00412252
-0.215123
-0.0582176
0.27334
0.140234
-0.269135
0.128901
-0.273664
0.111043
0.162621
-0.291571
0.332932
0.209141
-0.529288
0.320148
-0.0507881
-0.0798095
0.130598
0.165735
-0.0348448
-0.215848
0.082237
0.0643018
-0.109095
0.0447928
-0.199747
0.0427951
0.420142
-0.309887
-0.110255
-0.0239473
0.241671
-0.0958927
0.0704742
0.0254185
0.308581
-0.0798767
-0.00142558
-0.000167658
0.00159324
-0.524946
0.363176
0.16177
0.081571
-0.0172692
-0.126519
0.151098
-0.0245783
0.0623208
0.106698
-0.169018
0.128495
-0.153584
0.0250885
-0.478967
0.210387
0.26858
-0.416483
0.0847383
0.331744
0.188809
0.128186
-0.316994
0.286616
0.171119
-0.457736
0.00823464
-0.0191394
0.0109047
-0.0806198
0.384289
-0.303669
-0.461093
0.486885
-0.0257921
0.0872645
-0.130499
0.0432347
-0.19696
0.138463
-0.0225458
0.0150212
0.00752464
-0.0479408
0.118751
-0.0708101
-0.240712
-0.238255
0.14238
-0.153906
0.0115263
0.0623246
-0.355052
0.292727
-0.00484774
-0.117234
0.122082
0.000188135
-0.0127537
-0.141181
0.172856
0.00276808
-0.00247792
-0.00029016
-0.119271
0.123086
-0.00381496
-0.237572
0.161626
-0.199303
-0.137526
0.104459
0.0330665
0.560121
-0.320305
-0.239816
-0.105785
0.0578438
0.40026
-0.283377
-0.116883
-0.0853824
-0.079516
0.0625686
0.298016
0.0437394
-0.0219057
-0.0218337
0.286203
-0.24615
-0.0400532
0.0278971
0.159128
-0.187025
0.18234
0.156864
-0.339204
-0.338605
-0.078848
0.0713184
0.0134878
-0.0848062
-0.170978
0.0527275
-0.125295
0.0108256
0.114469
0.0557162
0.317112
-0.0912363
0.0539845
0.000930998
0.010978
-0.011909
0.0186723
0.0207477
0.00542767
0.000418918
0.0103653
0.00692671
-0.017292
-0.0555903
0.103338
-0.0477474
-0.441083
-0.0838635
0.480266
-0.165444
-0.314821
-0.297856
-0.119719
0.417575
0.00809225
-0.00809225
-0.00359654
0.00428455
-0.360366
0.245567
0.114799
0.214869
-0.216753
0.00188405
0.016826
-0.00859137
-0.00705986
0.00824888
-0.00118902
0.00353482
-0.00451408
0.000979255
0.0101273
-0.00778415
-0.00234311
-0.175039
0.12076
0.054279
-0.0865944
0.0512857
0.0353087
0.30429
-0.223257
-0.0810335
-0.0625803
0.112703
-0.0501229
-0.0147977
0.015312
-0.000514293
-0.027097
-0.0617645
0.0888615
-0.00295755
-0.117797
0.120754
-0.0378707
0.017127
-0.317012
0.112661
0.20435
0.159833
-0.207381
0.0475477
-0.435447
0.0648217
0.370626
-0.0136405
0.173473
0.012671
0.00480552
-0.0174766
-0.411381
0.549342
-0.137961
-0.0114471
0.0127271
-0.00128
0.0235883
0.0201511
-0.0144828
0.0134242
0.00105856
-0.145461
-0.0295784
-0.000802871
-0.00487743
0.0430941
0.0455665
-0.0886606
0.211127
0.0750763
-0.102155
-0.0353706
-0.141694
-0.218671
-0.0886564
0.0615594
-0.153408
0.342216
0.28055
0.194799
-0.475349
0.0409375
-0.079761
0.0388235
-0.413939
0.116083
-0.307053
-0.109429
0.0785787
-0.0720413
-0.00653749
-0.0239658
0.129469
-0.105503
0.192434
0.0224355
0.0790415
-0.108793
0.0297511
-0.171661
0.452211
-0.193243
0.00906545
0.184177
0.274938
0.158919
-0.217254
-0.0489658
0.26622
0.0586087
-0.121922
0.063313
-0.000945072
0.0044799
-0.00665917
0.00166315
0.00499602
-0.215214
-0.0396831
0.254897
-0.267015
-0.0499963
-0.0251556
0.0215915
0.00356404
0.258119
-0.107783
-0.150336
-0.157238
0.0423211
0.114917
0.0116296
-0.00169898
-0.00993058
-0.129693
0.209212
-0.0795192
0.00947352
0.00215604
-0.14128
-0.121416
0.262696
0.114342
0.0415137
-0.0923019
-0.0149744
-0.00757142
0.114937
-0.132852
0.0179156
0.0351078
0.424927
-0.460035
0.0686019
0.00997689
-0.0048041
-0.00967869
0.350192
-0.315084
-0.146328
0.0409662
0.105362
0.00585517
-0.122537
0.116682
-0.0308435
0.190797
-0.159953
-0.138411
0.0184511
0.119959
0.221421
-0.028987
-0.059095
0.0993284
-0.0402334
0.0293508
0.00840394
-0.0377548
-0.00533464
0.010055
-0.0047204
-0.175115
0.14467
0.0304452
0.112567
-0.0493433
-0.0632239
-0.344872
0.320872
0.0240003
-0.00207434
0.000992078
0.00108226
-0.00235527
-0.00023194
0.00258721
3.40628e-05
-0.380922
0.380888
-0.369125
-0.0193098
0.388435
-0.157814
0.192437
-0.000466612
0.00763245
-0.00716583
0.140335
-0.154688
0.0143529
-0.361766
0.0234247
0.338341
0.0906946
-0.0497571
-0.0106435
-0.0134924
0.0241359
0.042759
0.0135614
-0.0563204
0.0591237
0.0534435
0.200178
-0.200471
0.000292723
-0.442652
0.369877
0.0727748
0.0917901
-0.035814
-0.0559761
-0.00584299
0.0104401
-0.00459715
-0.00171019
0.0149729
-0.0132628
-0.0341168
0.0989904
-0.0648736
-0.0308487
-0.135607
0.166456
-0.0107751
0.0028041
-0.0250105
-0.184811
-0.140142
0.324953
0.190222
0.0311987
-0.0337335
-0.0342161
0.0679496
0.109686
-0.0741999
-0.0354856
-0.283743
0.128149
0.155594
-0.102302
0.0406366
0.0616654
0.177292
0.0228866
0.170385
-0.152585
-0.0178
-0.369091
-0.273587
0.108544
0.165043
-0.181514
0.0337195
0.147795
-0.00262392
0.00634594
-0.00372202
-0.00917914
0.00746895
-0.0166876
0.00329104
0.0133965
0.16918
-0.198697
0.0295169
8.06128e-05
-0.0115277
-0.000372192
0.00450853
-0.00413633
0.00186388
-0.00423084
0.00236696
0.148678
0.0217072
-0.384797
0.191555
0.0827843
-0.224064
-0.0335396
0.0174286
0.016111
-0.24335
0.0281366
0.0854662
-0.430338
0.0946045
-0.0232861
0.00620403
-0.0570703
0.0508663
-0.0148673
-0.366011
-0.0694364
0.0854506
-0.215144
-0.0434765
-0.0480897
0.0915662
-0.0280532
-0.27408
0.302133
0.011685
-0.13698
0.234097
-0.225031
-0.000694733
-0.00463991
0.120581
-0.259731
0.139151
0.00383425
-0.00581968
0.00198543
-0.00606705
-0.00537795
0.011445
-0.0432662
0.0364938
0.00677247
-0.16082
-0.223978
-0.189405
0.476021
-0.168953
0.19685
-0.151723
-0.0138972
0.165621
0.00446483
-0.000630582
-0.144142
-0.0640012
0.208143
0.339743
0.0733027
-0.413046
0.0283756
-0.390141
-0.0503127
-0.0339905
0.0843032
-0.101919
0.0618234
0.0400961
-0.0166876
0.154604
-0.157562
0.0724649
-0.116184
0.0437187
-0.0355122
-0.241049
-0.415987
0.156492
0.259496
0.118013
-0.24012
0.122107
-0.0089375
0.00287045
-0.0437774
0.081182
-0.0374046
-0.00350064
-0.0032878
0.00678844
0.131632
-0.0166952
-0.139803
0.145658
-0.149594
-0.123993
-0.0243949
-0.00682781
0.0312227
0.205394
-0.0281022
0.00288844
-0.00102456
-0.285526
0.0622391
0.223287
-0.0110079
0.00461008
0.00639787
-0.0536766
0.0236957
0.0299809
-0.077373
-0.068955
0.128846
0.124399
-0.253245
-0.488804
0.443894
0.0449097
-0.162081
0.0208998
-0.0254531
0.106384
-0.0809308
-0.0154522
0.0128282
0.101013
-0.124979
0.129557
-0.416
0.286443
0.279984
-0.381452
0.101469
0.076977
-0.352615
0.275638
-0.112661
0.0633174
0.0663013
0.0177358
-0.0840371
-0.0476123
0.0435302
0.00408211
-0.234564
0.212737
0.0218274
0.00579945
-0.00680249
0.00100305
-0.0884896
0.0543728
-0.100902
0.0383222
-0.241774
0.0145467
0.227228
-0.0542575
-0.0480445
-0.160573
0.342913
-0.436333
0.157166
0.279167
-0.0560959
-0.0117958
0.0678917
-0.574883
0.313229
0.261654
0.30777
-0.245201
-0.130846
0.0758565
0.0549891
-0.264661
-0.048116
0.312777
0.000808864
-0.00728879
0.00647993
0.17264
0.0327543
-0.177336
0.130367
0.0469693
-0.296193
-0.27869
-0.135717
-0.0393976
-0.00513847
-0.00989038
0.0150288
-0.0625367
0.0936962
-0.41342
-0.127849
0.283431
-0.155581
0.0552902
-0.104887
0.0495968
0.0109951
-0.011744
0.000748921
-0.34567
0.422647
0.400854
-0.462228
0.061374
0.0394842
-0.0332802
-0.158596
0.0882871
0.070309
-0.092888
0.130012
-0.0371239
-0.0591683
0.0377582
0.0214101
-0.253313
-0.18302
0.079006
-0.0407829
-0.161607
0.202389
-0.000891015
0.401745
-0.0225808
-0.0365874
-0.0989849
0.0398899
0.0227497
-0.0872412
0.0644915
0.106371
-0.0510807
-0.299287
-0.114652
-0.0156717
0.0584307
-0.127139
-0.179723
-0.0892292
-0.206303
-0.087493
0.0437156
0.338944
-0.112608
-0.226336
-0.0401957
-0.0663721
-0.0295207
0.241375
0.23889
-0.398765
0.122906
0.275859
-0.0817745
-0.0344092
0.0097726
0.000191599
-0.0099642
-0.00240703
0.00203484
0.255375
-0.0138853
-0.241489
-0.001108
-0.137303
-0.00179587
0.000370296
0.34747
-0.139771
-0.207699
-0.0537387
-0.0481808
0.1747
-0.191787
0.0170868
0.134349
-0.0410576
-0.093291
-0.0910758
0.0373371
-0.419106
0.119819
0.042635
-0.0132842
0.179828
0.0992892
-0.279117
-0.0360883
0.11513
0.533224
-0.357524
-0.1757
0.0387438
0.0101715
0.000374205
-0.0105457
-0.390567
-0.0138175
0.404385
0.000919802
-0.0115633
-0.156989
0.181123
-0.0241342
-0.388533
0.23601
0.152523
0.013877
-0.140396
0.0216508
0.120729
0.0870031
-0.0502833
-0.0367198
-0.00743827
0.0212184
-0.0137801
-0.0740486
0.0403151
-0.058618
-0.226908
0.257856
-0.195531
-0.00247574
0.0028751
-0.000399359
-0.0793067
0.0473707
0.031936
0.404609
-0.251762
-0.152846
0.169888
0.0302683
-0.200156
-0.0551866
0.0779363
0.0678743
0.0239158
-0.0335607
0.00916586
0.0036015
-0.00607724
-0.253419
-0.0361084
0.289527
0.238797
-0.207547
-0.0312506
0.00392593
-0.00628936
0.00236343
0.303819
-0.191158
-0.204763
0.0606207
0.0876742
-0.0243975
-0.0632766
-0.155043
0.1364
0.0186433
0.255301
-0.0339238
-0.221378
0.00956675
0.000205851
0.266879
0.211064
-0.477943
0.0828709
-0.0934449
0.0105741
0.0437717
-0.0872482
-0.0147037
0.0147037
-0.305114
0.39881
0.270185
-0.163811
-0.106374
-0.350828
0.29041
0.0604179
0.370688
-0.199271
-0.171417
-0.0888318
0.0663814
0.0224504
0.220333
0.150355
-0.0986867
0.14876
-0.0500729
-0.23345
-0.117377
0.0521353
0.134917
-0.187052
0.136338
-0.389757
0.0361834
-0.180076
-0.120435
0.26752
-0.147086
0.0174782
-0.21791
0.200432
0.308655
-0.265824
-0.042831
0.284561
0.0240943
-0.0242202
-0.16457
0.188791
-0.0484615
0.0121443
0.0363172
-0.00494923
0.00820476
-0.00325553
0.0813663
0.152731
-0.0532861
0.0630498
-0.00976372
-0.133696
0.0457728
0.0879231
-0.00773799
0.00278877
-0.146512
-0.0295514
0.176064
0.133948
-0.0786936
-0.055254
-0.0972649
0.215278
-0.0489955
0.0822681
-0.0332727
-0.123985
-0.437229
0.0258484
-0.016817
0.35656
0.38283
-0.155345
-0.227485
-0.0155711
0.00813282
0.00135156
-0.18383
0.182478
0.458476
-0.0952999
-0.0167706
-0.114813
0.131584
-0.147037
0.0483505
0.130124
0.173696
0.180522
0.166948
-0.00321578
0.000518125
0.00269766
-0.122117
-0.313981
-0.0272746
0.281829
-0.383353
0.101525
-0.00508843
0.00158779
0.0063825
-0.00915507
0.00277257
0.0504868
0.0371874
-0.0207495
-0.136489
0.177151
0.00679447
-0.0119329
0.271059
0.289062
-0.235378
-0.106706
0.342084
-0.0140411
-0.0195197
-0.36672
-0.0869091
0.453629
-0.329634
-0.0512881
-0.00357306
-0.00720199
0.298313
0.101948
-0.000610714
0.0107823
0.142544
-0.128096
-0.0144485
-0.140421
0.149731
-0.00931022
-0.00302987
0.00941237
0.0160065
0.179471
-0.195477
-0.335609
0.100231
0.0172763
-0.0393153
0.022039
0.118296
0.0169922
-0.0014924
-0.0457594
-0.0408351
0.346877
-0.209334
-0.137543
-0.343731
-0.0989208
-0.265366
0.157583
-0.0131756
-0.0371695
0.0503451
0.0515503
0.0615288
-0.113079
0.0122303
0.236677
-0.443912
0.388553
0.0553594
-0.222658
-0.0206929
0.0178614
0.0650095
-0.00375007
0.007676
0.203785
-0.148226
-0.0555595
-0.141119
-0.124247
-0.285735
0.398181
-0.112445
-0.175811
0.0292991
0.0978184
-0.0653173
-0.0325012
-0.000941781
0.0119369
-0.00870753
-0.00230042
-0.0672949
0.0655769
0.00171802
0.0594587
-0.075909
0.0164503
0.0663039
0.0178505
-0.0841545
-0.00278996
0.0026223
-0.192689
-0.0663303
0.25902
-0.405147
0.275671
0.129476
-0.270791
-0.192276
0.273642
-0.0843191
0.0558916
0.0284274
0.369161
-0.219911
-0.14925
0.181285
-0.00894649
0.00188663
-0.035503
0.0533643
0.142372
0.0226404
-0.0122751
0.0700822
-0.0106236
-0.00850654
0.00266355
-0.210159
-0.0738615
0.284021
0.164126
0.127494
0.183167
-0.310662
0.110046
-0.448651
0.0117076
-0.45562
-0.47514
-0.406426
0.153114
0.00237342
-0.00720676
0.00483334
0.0564201
0.198955
0.396398
-0.281486
-0.114912
-0.0489225
0.0920167
0.123279
-0.0848989
-0.03838
-0.319004
-0.0861434
0.154202
-0.236742
0.0825399
-0.0976268
0.0220658
0.0755609
0.00759497
-0.0636909
0.0234727
-0.181287
0.0575105
0.2143
-0.27181
0.0412438
-0.196514
0.0150001
-0.00337544
-0.000876249
0.00425169
-0.0369534
-0.400752
0.201481
8.02284e-05
0.00628701
-0.00636724
0.0688186
0.0544604
0.106905
0.266135
-0.37304
-0.00130725
0.000852792
0.000454454
0.00580597
-0.00155588
-0.00425009
0.000178234
0.00197898
-0.00215721
-0.195754
-0.204998
0.267309
-0.209799
0.00421239
-0.155936
-0.0943404
0.106506
-0.0121657
-0.135885
-0.0811182
0.217003
0.00534526
0.000454192
-0.0579626
0.044787
0.0200694
-0.0733554
-0.0305572
0.088754
-0.0581969
0.137319
0.245511
0.0192363
0.123308
-0.00842516
-0.00223881
0.010664
-0.00595181
0.0140919
-0.0259157
0.0118238
0.211974
-0.277104
0.0651295
0.125515
0.0368829
-0.162398
0.0330453
-0.155582
0.00132309
-0.00278595
0.00146286
0.00562398
0.00450329
-0.0812139
0.0256236
-0.124764
0.245345
0.0243691
-0.241623
0.376932
-0.0867431
-0.290189
-0.0488789
0.100429
-0.228394
-0.178032
-0.033187
0.0504633
-0.106136
0.139182
-0.00854916
0.0212202
-0.294889
0.228102
0.0667864
-0.274675
0.0520178
-0.425883
-0.0629215
-0.118648
-0.000622398
-0.0237563
-0.118366
0.142122
0.0591431
0.0386754
-0.268929
0.381292
-0.112363
0.119195
-0.0638293
-0.0553661
0.0127736
0.0345178
-0.0472914
-0.156099
0.177751
-0.0216519
0.302963
-0.174118
0.211113
-0.12651
-0.0846027
0.186784
-0.168533
-0.0182518
0.487292
-0.249904
-0.237388
0.129767
-0.163725
0.0339586
-0.00636497
-0.174593
0.0184937
-0.0425854
-0.0478242
0.0904096
-0.0348749
-0.2938
0.400705
-0.19712
-0.500399
0.109832
-0.14759
0.0118726
0.187605
0.0676964
-0.11294
0.0894825
-0.299642
0.134864
0.122023
0.0135605
0.266571
0.142575
-0.409146
0.0190381
0.0796322
-0.0986703
0.186546
-0.196566
0.0100199
-0.0570769
-0.042369
0.099446
-0.171537
-0.00579891
-0.0183954
0.00282433
-0.262858
0.0884549
0.174404
0.000721084
-0.000721084
0.131968
0.0283287
-0.160297
-0.0909609
0.153282
-0.0364282
-0.0172484
-0.00460305
-0.0337835
-0.0256542
0.0594377
0.13817
0.0395816
0.193392
-0.192041
-0.394937
0.199183
0.210895
0.111671
-0.322566
-0.132002
0.0827168
0.0492853
0.151854
-0.127168
-0.0246856
-0.0439435
0.132146
-0.0882028
-0.105938
0.0703951
0.0355432
-0.00428575
-0.0582719
0.102634
-0.0443622
-0.355955
0.505856
-0.149901
-0.000389392
0.000273741
0.000115651
-0.0129815
0.0559335
-0.042952
0.142252
-0.228846
0.0865946
0.238414
-0.0275185
-0.0590648
0.0781028
0.0134743
-0.00654754
-0.13392
-0.028161
-0.276549
-0.137537
0.414087
-0.0819697
0.0248918
0.0570778
-0.0966875
0.0541021
-0.143516
0.0637068
0.102322
0.011643
-0.113965
-0.0391115
-0.00958333
0.0486949
-0.162672
-0.0540814
0.0621061
0.0335996
-0.0957057
0.00661959
-0.0067937
0.000174111
-0.0548166
-0.0362592
-0.0419266
0.0978227
-0.0568489
-0.0409738
0.0324324
-0.082745
0.145559
-0.18492
0.0393606
-0.402001
-0.0590923
-0.103899
-0.318824
0.103702
-0.00228802
-0.0228675
0.0202645
0.0150214
-0.0352859
0.00727106
-0.00773767
-0.0110503
-0.0374112
-0.0098464
0.0122447
-0.00239831
-0.00934582
0.00923992
0.000105904
-0.0704009
-0.0115688
-0.0350692
0.182346
-0.00473307
-0.00391151
0.00864458
0.00512792
0.0284562
-0.0335841
0.207671
0.0240444
-0.0480645
0.0240201
-0.000223063
-0.00236255
0.00258562
0.053526
0.0192098
-0.0727358
0.0824648
0.12132
-0.108859
0.402652
-0.293793
-0.194284
0.0316123
-0.214731
0.184079
0.0306521
0.156892
0.0298926
-0.0628733
-0.0583583
0.121232
0.0782236
0.26072
-0.00142926
0.00142926
-0.19004
0.16582
0.142772
0.0173389
-0.16011
-0.00133946
0.00266255
-0.217529
-0.0974634
0.314992
-0.147831
0.124075
0.0278824
-0.0137905
-0.238446
-0.0971624
0.0259378
0.183262
-0.2092
-0.00334448
0.000281509
0.00306297
-0.114795
0.416665
-0.30187
0.0403198
0.0788756
-0.152535
0.00990837
-0.00631063
-0.00359774
0.18762
-0.0494505
0.127125
-0.143139
0.0160142
0.0904051
-0.193996
0.0483049
0.145691
0.0143387
-0.108679
-0.110926
0.00618867
0.104737
0.00581954
0.00365398
0.106568
-0.123919
0.0173514
0.148128
-0.272305
0.124177
0.00544759
-0.00590741
0.000459818
0.148233
-0.0211076
0.00352347
0.013585
-0.00512419
-0.0084608
0.042986
-0.0919086
0.0380205
-0.0806948
-0.18632
0.138885
0.230331
-0.369215
0.00515816
0.000647813
0.104408
0.106705
-0.0280781
0.157845
0.44277
-0.305427
-0.137343
-0.054912
-0.00556141
-0.0617335
-0.0225846
-0.0147622
0.0373468
0.00116953
-0.000436017
0.0011571
-0.0326629
-0.0516562
0.135559
-0.185839
0.0502797
-0.382276
0.273417
0.166221
-0.127894
0.111123
0.109666
-0.0433648
0.328949
-0.200831
-0.128118
0.0343338
-0.0681173
0.135907
0.0332736
-0.0378362
-0.454569
0.442284
0.0122849
0.00158119
0.00124905
0.180818
-0.239036
-0.329197
-0.12478
0.0181921
0.106588
0.169247
-0.474674
-0.106558
0.372693
0.00774242
0.00125763
-0.00900005
0.0361887
-0.226143
0.177069
0.0490735
-0.252366
0.364037
-0.0624733
0.11261
-0.050137
-0.034323
-0.119261
-0.0254318
0.18456
-0.0217358
-0.0575709
-0.213422
0.2309
0.00624395
-0.0146691
-0.127586
0.0210822
0.106504
0.102912
0.153918
-0.256831
0.0303893
-0.0166617
-0.0137276
-0.00240482
0.00217288
0.255333
-0.402385
0.147052
-0.0426569
0.0200723
0.236241
0.280974
-0.331584
0.0931374
-0.244359
0.108474
-0.0847358
-0.0163466
0.101082
0.000225472
-0.00346875
0.00324328
-0.0335215
-0.123467
0.00184899
0.0047706
0.0328555
0.108024
-0.140879
0.00392237
-0.0181213
0.014199
-0.0745868
0.0440297
-0.160503
-0.0244169
-0.00965826
0.109954
0.160231
0.0154407
-0.0272875
0.0118468
-0.0746438
0.00972472
-0.00879373
0.00637497
0.00483804
0.0759344
0.170651
-0.246585
-0.0146436
0.0263174
-0.0116738
0.16571
-0.193255
0.0275445
0.00212331
0.129845
-0.0238412
0.0517301
-0.0278889
0.0201337
-0.0612669
0.0411332
-0.0041761
0.0109706
-0.392591
0.287199
0.105392
-0.0114378
-0.00695762
-0.144147
0.319685
-0.175538
-0.00720266
0.0130222
0.0419957
0.165474
-0.20747
-0.211608
0.105471
-0.176007
0.00747473
-0.344304
0.188714
0.15559
0.198477
-0.499004
0.300527
-0.0295424
-0.10613
0.135672
0.0713551
-0.0279139
0.0814399
-0.44252
0.0987892
0.00848891
-0.00780699
-0.000681921
-0.184708
0.0242054
-0.23965
-0.104653
0.110145
0.266787
0.0637839
0.0740117
-0.137796
0.0529341
0.0514476
-0.104382
0.0191738
-0.043015
0.112238
-0.145759
-0.157655
0.366796
0.135737
-0.170784
0.0350471
-0.00887403
0.0136796
-0.129143
-0.328876
0.216268
0.337191
-0.148477
-0.0364575
0.172194
-0.0183081
-0.145679
0.163987
-0.000679186
-0.000750079
-0.31754
0.100011
-0.0490672
0.0717426
-0.0226755
0.0482622
0.0614233
0.0478643
-0.0608458
0.000714739
-0.000536505
0.00121414
0.00155395
-0.113191
-0.284276
0.397467
0.0217428
-0.153426
0.131683
0.12377
0.235831
-0.197821
-0.0380101
-0.196085
0.170525
0.02556
-0.0032646
0.00304153
-0.315204
-0.0671954
0.3824
-0.165211
-0.229726
-0.498641
0.214843
0.283798
0.0346145
0.111396
0.0526042
-0.164
0.250096
-0.101968
0.10234
0.0396567
-0.141996
0.02838
-0.1623
-0.00604434
0.0180865
-0.0120421
-0.00303884
-0.0117588
0.366028
-0.227579
-0.138449
0.170169
0.130858
-0.301027
0.0089286
-0.156819
0.00254323
0.00147885
-0.00402208
0.00402694
-0.0099889
-3.38249e-05
0.00355143
-0.00351761
-0.0609573
0.0383765
-0.0411777
-0.0181846
0.0593623
0.0757249
-0.0340765
-0.0416484
0.0116129
-0.418994
0.052983
-0.117675
0.275446
-0.0956185
0.167299
0.0510869
-0.218386
0.145722
0.258887
-0.0588434
0.025013
0.0297863
-0.0547993
0.000973596
0.00711865
-0.241983
0.000208932
-0.0172573
-0.0358791
0.0531364
0.100322
0.317173
-0.417496
-0.0681033
0.203662
-0.120485
-0.0265524
0.298424
-0.379044
-0.0282062
-0.141192
0.167129
0.00682417
0.0147674
-0.00867858
0.00539078
0.0920721
-0.142494
0.0504222
0.00552081
-0.00969691
0.084609
-0.018305
0.00130146
-0.00377939
-0.0617619
0.0794977
0.0298931
-0.0124646
0.00297275
-0.000721251
-0.0022515
-0.118952
-0.00863481
0.054368
-0.0415944
-0.0979292
0.0396573
0.0068876
0.00669739
0.219764
-0.301867
0.0821023
0.113426
0.332441
-0.449114
0.116673
-0.0245085
0.0297222
-0.0225866
-0.00713565
0.36545
-0.47656
0.0928096
0.38375
0.095977
-0.00380543
-0.0921716
-0.233444
0.398109
-0.164666
-0.0866098
0.0817621
0.0165679
-0.133802
-0.534001
0.310344
0.223657
-0.0661989
0.0557519
0.0104469
0.190037
-0.281792
0.0917554
0.263682
-0.110488
0.0480145
-0.267954
-0.101406
0.369361
-0.0492869
0.0886985
-0.0394116
-0.0135727
0.0338372
0.283335
-0.109679
-0.173656
-0.244194
0.170096
0.0740981
-0.35043
0.110779
-0.10092
0.0673292
0.0335904
-0.270751
0.400308
0.0620598
0.149401
-0.211461
0.0322191
0.056729
-0.088948
-0.137144
-0.156919
0.294063
-0.00454495
0.00204616
0.00249879
-0.201413
-0.0647774
0.26619
-0.000757145
0.00435865
0.239175
-0.0216524
-0.217522
0.0911854
-0.127358
0.0361722
-0.236397
0.329043
-0.0926451
-0.00657914
-0.11153
0.118109
-0.149981
0.0294961
-0.349683
-0.069311
0.169626
0.113709
-0.00368347
-0.000861481
0.23473
-0.262783
-0.00726312
-0.00525638
0.0125195
-0.00952667
0.0127215
-0.00319479
-0.168547
-0.0660169
0.296223
0.237001
0.30195
0.0823385
0.388461
-0.0625204
-0.32594
-0.000722232
0.00846465
0.104064
-0.35643
0.00668796
-0.0074451
-0.00523739
-0.00285486
-0.0136737
0.101961
0.00214947
-0.00200541
-0.00014406
-0.39791
-0.131378
0.226578
0.0843217
-0.3109
-0.00279642
-0.00204822
0.00502097
0.0653572
-0.176283
0.132933
0.22357
-0.356502
-0.145865
0.273359
-0.273847
0.0736953
-0.242805
0.169109
0.0755315
-0.100683
0.0251513
-0.00548717
-0.0171646
0.0226518
0.166925
-0.16585
-0.00107471
0.00196982
0.010619
-0.00213013
0.0187499
-0.0663275
0.0475776
0.122407
-0.0423342
-0.0800725
-0.277804
0.248314
0.0294904
-0.00935217
0.000127677
0.0092245
0.00150657
-0.0386126
0.140952
-0.325553
0.0891552
-0.276405
0.109511
0.166895
0.00203166
-0.000397397
-0.00163426
0.140767
0.002097
0.00781138
-0.0329402
-0.525308
0.341152
0.184156
-0.0598122
0.123596
0.188134
0.176417
-0.364551
-0.051226
0.163464
-0.217462
0.122682
0.0947794
-0.400732
0.167288
-0.105879
-0.28088
0.386759
0.256644
-0.182949
0.00133124
-0.000248909
-0.00108233
-0.0918963
-0.306635
0.398531
0.00420041
0.00325051
-0.00258369
-0.0966311
-0.179774
0.0599572
-0.324618
-0.0722985
-0.0211465
0.00387789
-7.34223e-05
-0.00380447
0.144535
-0.171455
0.0269199
0.000140016
0.00407727
-0.00421728
-0.236308
0.112322
0.0814071
0.124374
-0.155223
-0.00690202
0.00216894
0.0200115
0.0103778
0.0108168
-0.00529167
-0.00552518
-0.444928
0.0470183
-0.0163265
-0.188192
0.287481
-0.00413277
0.00427279
-0.353316
0.130256
0.22306
-0.0501701
-0.0160288
0.0933821
-0.00873349
0.00801126
-0.103092
-0.291561
0.394654
0.138143
0.310824
-0.448967
-0.0586102
0.0174325
-0.327441
0.0613745
0.266066
0.000946655
0.000384586
0.0700251
-0.262714
0.00901835
-0.0236619
-0.175116
-0.111612
-0.26984
-0.0285289
0.135227
-0.084057
0.0349898
-0.00912336
0.00312088
0.00600248
0.150659
-0.164556
0.164267
0.079619
-0.243886
-0.170549
0.186556
-0.0822683
0.216455
0.112494
-0.0589234
-0.417636
-0.109527
0.0732481
0.0362789
0.279811
-0.130683
-0.149128
0.00674044
0.0144528
-0.0211932
0.00926856
-0.162795
0.153527
-0.00380661
0.00634984
0.21447
0.0787594
-0.293229
-0.290292
0.394667
-0.104375
-0.0419262
0.0893164
-0.0473902
0.000525607
0.00290809
-0.0034337
0.0249811
-0.0466165
0.0216355
-0.193865
-0.0195951
0.21346
0.0126036
-0.00162562
-0.0635322
0.278002
-0.00434519
0.00165921
0.00268598
0.138688
0.0662399
0.0241949
-0.0904347
-0.17043
0.327294
-0.00166018
0.00237492
0.0907593
0.230328
-0.321087
-0.11489
-0.102572
-0.215413
-0.17312
0.332779
-0.235313
-0.0974666
0.277923
0.209369
0.0130119
-0.0215611
0.0435392
0.0358182
-0.0793574
-0.00560006
-0.00797788
0.0135779
0.0658708
0.0565358
-0.195549
0.169023
0.0265254
0.147204
-0.178047
-0.469719
0.150494
0.319225
-0.409957
0.104843
-0.424531
0.309736
-0.166567
0.0375457
-0.0868326
0.251616
-0.20962
0.00673706
-0.00409426
-0.0026428
-0.0556433
-0.0590612
0.114704
0.348649
-0.215716
0.15602
0.0305268
-0.00216443
-0.00218076
-0.0691695
-0.0628326
-0.0566306
0.168026
0.146727
0.0440695
0.110033
-0.124291
0.0142586
-0.00175006
-0.00746997
0.00922004
0.088851
-0.118393
0.0209733
-0.0158453
-0.0270977
-0.12759
0.110122
-0.120324
0.0102024
-0.0377324
-0.0232249
0.146286
0.221139
0.101639
-0.322778
-0.10855
0.045677
-0.0847872
-0.0240053
0.298524
-0.0740677
0.0250723
0.0424134
0.0868578
-0.129271
0.00607511
-0.00697084
0.000895723
0.147296
0.132515
-0.0228494
-0.103056
0.0183204
-0.119647
0.0166266
0.10302
0.167895
-0.0423799
0.388464
-0.199273
-0.18919
0.0468279
-0.25088
0.209362
0.0415183
0.00211147
0.0046256
0.22081
-0.223591
0.00278167
0.173051
-0.00519668
0.000965836
-0.0312763
0.168923
-0.196015
0.0270925
0.0260759
0.214272
-0.308308
0.0940356
-0.00175824
-0.045854
-0.00490091
0.00537884
-0.000477927
0.0899572
0.0585324
-0.0828109
0.0242785
-0.000639428
-0.00426148
0.168956
0.0277854
-0.196741
-0.0964003
-0.210235
-0.0406451
0.0324789
0.151537
-0.184016
-0.154939
0.211521
-0.0565814
-0.0262847
-0.0441426
0.0159523
0.0281903
-0.0791136
-0.163691
-0.0226248
-0.139248
0.161873
0.0109046
-0.322315
-0.137237
0.459552
0.000774545
-0.0085587
0.187226
0.0519483
-0.144783
0.206843
0.0337057
0.0498275
-0.0835333
0.00534939
-0.00526916
-0.109959
0.427457
-0.317499
0.341786
-0.217053
0.0621136
0.0854176
0.254719
-0.340137
0.477337
-0.170848
-0.306489
0.0136772
-0.0449105
0.0312333
-0.239499
0.506379
-0.188986
0.0200333
-0.284479
-0.114286
-0.0661183
0.0722953
-0.00617702
-0.392412
0.0986116
-0.00067053
-0.0425957
-0.0301787
0.0246916
-0.153746
-0.0904483
-0.00551516
0.00870315
-0.00318799
-0.326335
-0.116185
-0.178028
-0.0250443
0.203072
-0.0640807
-0.209565
0.273646
0.0027342
-0.00471971
0.0019855
-0.0773768
-0.400296
0.400346
-5.00196e-05
0.123433
0.226186
-0.349618
-0.24023
0.191002
0.0492278
-0.0851499
-0.22721
0.31236
-0.0815444
-0.0493012
0.00117992
-0.000954445
0.00434049
0.0109715
-0.00166454
0.00381401
0.071458
0.278829
-0.350287
0.042547
-0.213096
-0.115216
0.108637
0.209106
0.00286862
-0.266341
-0.0869745
-0.039279
0.0476829
0.000892605
-0.00188825
0.000995647
-0.132725
0.141993
-0.0734131
-0.136822
-0.00221759
-0.00713458
-0.325703
-0.208298
-0.304254
0.375712
-0.0148229
0.00922281
-0.00648487
-0.0383205
0.0296695
0.00948748
-0.287292
0.00817101
-0.00878173
-0.0711597
-0.140518
0.211677
-0.127523
0.0422762
0.0852466
-0.378957
0.287061
0.155405
-0.176493
0.0210887
-0.287379
0.146402
0.140977
0.0875193
0.0464283
0.117816
-0.0515757
0.10756
0.0406728
0.34788
0.0770179
-0.424898
-0.00482912
0.00685838
-0.00202926
-0.083184
-0.124197
-0.411501
0.0112054
-0.426792
0.426792
0.0195707
0.201239
-0.217309
-0.110132
0.0767408
-0.278154
-0.047442
0.00812666
0.0217005
-0.215566
0.0319848
-0.261172
0.0682134
0.192958
-0.0234451
0.00225432
-0.00172871
0.174425
-0.386976
0.212551
0.00332977
0.0531779
-0.0565076
-0.0234384
-0.134787
0.158226
0.383815
-0.20939
0.097235
-0.188196
-0.111654
-0.00938733
0.121041
-0.401504
0.13476
0.266744
0.385016
-0.219303
-0.165713
-0.0928784
0.388775
-0.295897
-0.136662
-0.158227
-0.0999204
0.119616
-0.0196951
0.42793
-0.146854
-0.281076
0.0963393
-0.24011
0.143771
-0.122732
0.121624
-0.0709705
0.41885
-0.114975
0.00352643
-0.0107896
-0.0101164
0.0140388
0.0255548
-0.0358706
0.0495478
-0.025046
-0.0909121
-0.0287346
0.0155775
-0.0425989
0.0270214
-0.0165231
0.0317712
-0.0152481
-0.00805304
0.409286
-0.401233
-0.188777
0.239864
0.165036
-0.399656
0.23462
0.013058
0.0288852
-0.0419432
-0.0243612
0.0419315
-0.0175703
-0.137395
0.105905
0.0314899
0.169923
-0.362636
0.0723444
-0.270771
0.20669
-0.10107
-0.304456
0.405526
0.155697
0.0831007
-0.0453297
0.0318373
-0.00769906
-0.00775309
-0.00757691
-0.00157816
0.0141391
0.0801394
-0.0942784
0.374639
-0.351215
-0.387378
0.516148
-0.12877
-0.0926395
-0.288102
0.380742
-0.0129292
-0.0551504
0.0873695
-0.31092
0.201426
0.109494
-0.00583748
0.0044724
0.00136508
0.279846
-0.13923
-0.0244954
0.255408
-0.144365
0.105759
-0.130689
0.0249306
0.0220468
-0.161277
0.0845661
-0.0508604
-0.150625
0.127187
0.0428596
-0.412894
0.090579
-0.403023
0.281558
0.121464
0.0961184
-0.0375097
0.099605
-0.368534
0.325124
0.161761
-0.121002
0.0210815
0.0369021
-0.0965688
0.0596667
0.288288
-0.381166
0.0186738
-0.0794987
0.060825
0.270463
-0.37402
0.103557
0.203904
-0.227852
-0.381101
0.0908025
0.290298
-0.247658
0.198693
0.0572927
-0.0313146
-0.0259781
0.11828
0.0318775
-0.150157
-0.195368
0.0307981
-0.177987
0.106827
-0.00631803
-0.0409287
0.0102427
0.030686
-0.398119
0.191052
0.207067
-0.104654
-0.0228689
0.136296
0.00710287
-0.00102776
0.0215789
0.0480777
-0.0696565
0.00117468
-0.00246212
0.00128744
-0.0575796
-0.134482
-0.096494
0.110833
0.102237
-0.0493026
0.0401931
0.0694731
0.00859177
-0.0105508
0.00195908
-0.285768
0.408673
-0.119782
-0.263572
-0.120477
-0.208398
0.0331373
0.00335645
-0.0862017
-3.92503e-06
-0.0148492
0.0148532
-0.170674
-0.0951503
-0.161937
0.237871
-0.00117806
-0.00401862
0.0200792
0.0812158
-0.101295
0.204324
-0.0272548
0.0586029
-0.0450414
0.371823
-0.11649
0.137531
-0.151172
0.0370176
0.0489838
-0.0860014
-0.0330941
0.0719645
-0.0388704
-0.224067
-0.107517
-0.0439168
-0.0475126
0.0914294
-0.110278
0.0816371
0.0286412
-0.0160625