/*--------------------------------*- C++ -*----------------------------------*\
| =========                 |                                                 |
| \\      /  F ield         | OpenFOAM: The Open Source CFD Toolbox           |
|  \\    /   O peration     | Version:  v2012                                 |
|   \\  /    A nd           | Website:  www.openfoam.com                      |
|    \\/     M anipulation  |                                                 |
\*---------------------------------------------------------------------------*/
FoamFile
{
    version     2.0;
    format      ascii;
    class       surfaceScalarField;
    location    "300";
    object      ddtCorrDdt0(phi);
}
// * * * * * * * * * * * * * * * * * * * * * * * * * * * * * * * * * * * * * //

dimensions      [0 3 -2 0 0 0 0];
oriented        oriented;


internalField   nonuniform List<scalar> 
26940
(
-0.000603266
-0.00125464
0.00185794
4.84768e-05
-1.6279e-05
-3.22007e-05
6.64069e-05
-1.66919e-05
-4.97216e-05
-8.07415e-05
0.00142929
-0.00134853
-0.00166344
0.00280391
-0.00114048
2.28956e-05
0.00128384
-0.00130677
-9.49668e-05
7.82945e-05
1.6672e-05
0.000527969
-0.000527935
-0.0013194
-0.000466689
0.00178609
9.22057e-05
-0.000323725
0.000231521
-2.03632e-05
-6.74191e-05
8.77893e-05
0.000141584
0.000120472
-0.000262064
-0.000156911
0.000875578
-0.000718656
-0.00243735
-0.00115695
0.00359429
0.00315287
-0.00129216
-0.00186072
-0.00201707
-0.000420269
-0.000346468
0.000288379
5.80809e-05
0.00821145
0.00550308
-0.0137145
3.04417e-05
0.000181857
-0.000212298
0.000336148
0.00171935
-0.0020555
0.00073846
-0.000672908
-6.55248e-05
-0.000132853
-0.000213618
0.000457509
0.000280932
-5.09849e-05
-0.000124101
0.000175106
-3.85303e-05
-6.03476e-05
9.88861e-05
2.27186e-05
-0.000117686
-0.0016616
-0.000907155
0.00256873
-0.000476014
0.000110292
0.000365732
-0.00033101
2.64714e-05
0.000304548
0.000648646
-0.000729381
0.00450141
-0.000994625
-0.00350682
1.79893e-05
-3.25513e-05
1.45482e-05
0.000125981
-0.000214125
8.81405e-05
0.000114203
-1.57166e-05
-9.84877e-05
-7.4229e-06
-5.26356e-05
6.00599e-05
-0.00011511
7.93278e-05
3.57807e-05
0.000265747
-0.00158515
-0.000113885
-1.21221e-06
-0.000166509
7.75586e-05
8.8949e-05
-0.001302
0.00139418
5.00617e-06
-3.04633e-06
-1.96205e-06
-0.00228575
0.000695215
0.00159053
0.000310796
-0.000184816
0.000216792
0.00015185
-0.000368625
0.000365685
-0.000164875
-0.000200812
-0.000107391
-0.000238006
0.000345423
-0.00112871
0.00362238
-0.00249367
0.00450141
0.00368664
-0.00543616
0.00174949
0.00179592
-0.00052889
-0.00126701
-0.00149547
0.00116521
0.000330281
0.000858067
-0.000684399
-0.000173654
-4.16317e-05
0.000489743
-0.000448104
2.59723e-05
-1.54672e-05
-1.05079e-05
-0.000120041
9.96748e-05
0.000556853
0.000263905
-0.000820759
-0.00164575
-0.000640005
-8.87583e-05
0.000524507
-0.000435724
0.00017184
-0.000615442
0.000443611
-0.00068641
0.000260868
0.000425534
0.0016927
0.000262525
-0.00195523
0.000162799
-0.000495567
0.000332789
-0.00104508
0.000726312
0.00031877
-0.00177819
0.000281867
0.00149633
-0.00265431
0.0049945
-0.00234022
-0.000222341
5.47051e-05
0.000167656
0.00234754
-0.00284674
0.000499194
4.34226e-05
-0.000592518
0.000549091
0.00176329
0.000334986
-0.00209829
0.00014731
-0.000473503
0.000326198
2.87864e-05
-3.62207e-05
7.00822e-05
-0.00014783
7.77695e-05
-0.000190971
0.000556667
8.48354e-05
0.000609954
-0.000694797
-0.00224391
0.00224389
-0.00743044
-0.00446894
0.0118993
0.00189336
-0.000135301
-0.0017581
0.000601369
0.00116193
0.00106087
-0.000665633
-0.000395237
-0.000181499
0.000145424
3.60826e-05
5.87092e-05
-9.71052e-05
3.83932e-05
-0.00128219
-0.00100992
0.00229213
0.000164161
-4.11993e-05
0.00012271
-8.1485e-05
-5.68975e-06
-1.97369e-05
2.54574e-05
0.000215697
0.000244057
-0.000459796
7.52441e-05
-0.000292948
0.000217697
-6.57566e-05
8.01082e-05
-1.4353e-05
-0.000275555
0.00141174
-0.00113616
-0.000103083
-6.34575e-05
-0.00175261
0.00169344
5.91689e-05
-0.000375045
-0.000801474
0.00117647
-0.000384173
-4.84824e-05
0.000432655
6.49052e-05
-6.65223e-05
1.61442e-06
1.30681e-05
-8.06313e-06
0.000471973
-0.000256292
-2.08078e-05
2.33744e-05
-2.59061e-06
0.000366219
-0.000206394
-0.000159813
-0.000593533
0.000821022
-0.000227467
0.000245498
-0.000250026
4.53777e-06
5.00183e-05
-4.89812e-05
-1.03227e-06
-9.65783e-05
0.000252023
-0.00015546
0.0011691
0.00198377
-0.00154026
-0.000237921
0.000216188
-6.88683e-05
0.000167674
-0.000264265
-0.00191832
0.000260862
0.00165743
-8.75941e-05
-0.00025192
0.000339404
0.00064642
-0.0002904
-0.000356043
3.20239e-05
-0.000138029
0.000106001
0.000423301
-0.000512065
-0.00123951
0.0019454
-0.000705893
0.00152402
-0.000555047
-0.000968977
0.00265828
-0.00231012
-0.000348167
-0.000194137
0.000166254
2.78805e-05
-0.000103836
1.92282e-05
8.46215e-05
-0.00119783
0.000747617
0.000450219
-0.00236595
0.0037661
0.000254154
-0.000185692
-6.84728e-05
-0.00796177
0.00300529
0.0196649
-0.00738835
-0.000276074
-5.49329e-05
0.00077945
-8.86906e-05
-0.000690759
-0.00386083
0.00220144
0.00165941
-0.000203591
-0.0011832
0.00138678
-0.000204219
0.00024208
-3.7859e-05
-0.000294214
-1.51183e-05
0.000309353
0.000617299
-5.4894e-05
-0.000562385
-0.000307358
-0.000304589
0.000611942
-0.000449088
0.000188543
0.000260569
0.000916027
-6.06822e-05
-0.000855343
-0.000417773
0.00210543
-0.00168768
0.000336625
6.80135e-06
-0.000343421
-0.00538812
0.0011966
0.00419151
-0.000706713
-2.17692e-05
0.000728481
-0.00334141
0.0022127
-0.000130039
1.61587e-05
-2.35617e-07
5.81314e-05
-5.79009e-05
0.000348237
-1.1615e-05
0.00234359
0.00280977
-0.00515336
0.000441146
0.000620719
-0.00106186
0.00233355
-0.00498787
-0.00309388
-0.00309654
0.00619042
-0.00704336
0.00195204
0.000560318
8.60972e-05
-0.00286426
-0.00196084
0.00482511
0.00201348
-0.00201348
0.00237713
-0.00339112
0.00101399
0.000112019
4.4545e-05
-0.000156549
5.43216e-06
0.000405259
-0.000410702
-3.1903e-05
1.10901e-05
0.000133146
-0.00389329
0.00376012
-0.0019183
-0.000841457
0.00063786
-0.000115685
8.93607e-05
2.6333e-05
-8.76592e-05
0.000119683
-0.000299729
0.000141457
0.00015827
-0.00100304
-4.20512e-05
8.52761e-06
-0.000138567
0.000460383
-2.72787e-05
2.86451e-05
-1.36736e-06
-0.000667653
0.00127696
-0.000609301
7.84461e-05
-0.000333496
0.000255031
-5.7582e-05
3.9313e-06
5.36678e-05
0.000582509
-0.000361181
0.000572834
-0.000211694
-0.000354369
0.000156938
0.000197425
-0.00361489
-0.00342849
-0.000627316
-0.00178998
0.0024173
0.000180227
-0.000146124
-3.41083e-05
0.0010746
-0.000921444
-0.000153147
0.00276852
-0.000110242
-0.000922192
0.000473088
0.000569876
-0.000526456
0.00137963
-0.000720604
-0.000658987
-0.00022201
0.000296293
-7.42861e-05
0.00883696
0.00345552
-0.0122925
-0.00090752
-0.000278141
0.00118566
-2.05928e-05
-2.64614e-05
4.70633e-05
-6.57922e-05
2.58234e-08
-0.000107992
-8.61488e-05
0.0017353
-0.00116033
-0.000574991
-0.00131441
0.00111638
0.000198018
0.0119244
-0.00308721
9.18345e-05
0.000318755
-0.000410557
-2.16957e-05
5.29753e-05
-3.12614e-05
-0.000504009
-0.00232223
0.00282628
-0.0014912
0.000165961
0.00132525
-4.10011e-05
-3.28012e-05
7.38188e-05
-2.20271e-05
-8.18227e-05
0.00155217
0.000140551
0.000219321
-0.000188864
0.00172578
-0.000965398
-0.000760359
2.47918e-05
-6.59944e-05
-0.000729554
0.000645662
8.39037e-05
-0.00428448
-0.000114671
0.00439917
-0.000272292
0.000295194
-0.00152143
0.000791888
0.00321568
2.84592e-05
-0.000116154
0.00089689
0.000177701
0.000465177
-0.00266451
0.00219933
-4.64825e-05
-8.02182e-05
0.000126694
0.0029708
-0.000593678
-0.000159971
0.000171643
-1.16669e-05
-0.000952344
0.000267932
0.00117931
-0.00246148
0.000726872
-0.000170018
-0.00302904
-0.00356836
0.0065974
-0.000572044
0.000572044
-0.00114372
-0.000519722
0.0012224
-0.000781256
2.78877e-05
-0.000341809
9.03763e-05
0.00025144
-0.000793649
5.69799e-05
0.000736662
-0.000421579
4.65152e-05
0.00404766
-0.00543371
0.00138602
-0.000831584
0.00196863
-0.00259595
-0.00232133
0.00131142
-0.00070592
0.000641328
6.46036e-05
-7.67157e-05
0.000136609
-5.98904e-05
-4.93382e-05
2.76565e-05
0.000287023
-0.00189285
0.00160586
0.000325649
-0.000336956
1.13111e-05
-0.000102047
0.000106689
-4.62314e-06
-0.0011392
0.000932819
5.27645e-05
-3.61438e-05
-1.66337e-05
-0.000246509
-2.85734e-06
0.000249371
0.000202771
-0.000249252
-0.00222653
0.00228218
-5.56363e-05
-0.00142915
0.00150139
-7.22416e-05
-0.000263455
0.000351885
-8.84855e-05
0.00228361
-0.00655974
0.0042761
-4.99293e-05
6.46263e-05
-1.47073e-05
-0.000253896
0.000259993
-6.10853e-06
-0.000591911
-0.000201738
-0.00208258
0.000967577
0.00111502
0.000106678
0.000490268
-0.000596947
0.00253567
-0.00539992
0.00109765
0.000628136
0.00251277
-0.00229417
-0.0002186
-0.00199318
-0.000102852
0.00209604
-0.000509291
-0.000177116
0.00386426
-0.00474304
0.000878783
0.000295165
4.41934e-05
-6.19147e-05
0.000310062
0.00220272
-0.00444614
0.00106209
0.00338405
0.000185363
-0.000577589
0.000392223
-0.00244176
0.0018385
-5.37287e-05
-0.000240478
-0.000336818
0.000176845
-0.00024491
-6.2449e-05
0.00442214
-0.00428899
-0.000133509
-2.51717e-05
0.000158743
0.000212406
-9.93736e-05
-0.000113041
0.00290385
-0.000210598
-0.00269325
0.000145174
3.50561e-05
-5.14396e-05
-6.14095e-06
-0.00026946
7.43836e-05
0.000195079
0.00602533
-0.00374174
-0.00224135
0.00014111
0.00210024
-0.000263584
0.00395022
-0.00225913
0.0023443
-8.51864e-05
0.000100711
-0.00199093
0.00189022
-0.000424878
0.000474116
-4.92618e-05
-4.38351e-05
0.000128672
5.66224e-05
2.08362e-06
0.00016903
7.64742e-05
0.000134319
-0.000112623
-0.000229188
5.05317e-05
-7.87926e-05
2.82593e-05
0.00347967
-0.00050797
-0.00297169
0.000453151
0.000958601
6.03299e-05
-0.0029303
0.00286997
-0.00129805
0.000390524
2.88265e-05
2.39452e-05
-0.00587184
-0.00155853
-1.39191e-05
3.56442e-05
0.000903455
-0.000939124
-0.000146857
0.00249439
0.000182163
-0.00022599
8.34033e-05
0.000187674
-0.000271034
-0.000493457
-0.000212446
-0.00136015
0.000328603
0.00103154
0.000419591
-0.000256781
9.23293e-05
0.00026021
-0.00035254
0.00132062
-0.00105487
-0.000212689
0.000104695
0.000111249
-0.000587252
-0.001133
-0.00220841
0.000807119
-0.000219426
-0.000587697
6.85701e-05
0.000143834
-0.000255351
0.000437527
-0.000677448
-0.00360704
-0.000102876
3.01751e-05
7.27039e-05
-0.000385497
0.000272889
-5.80929e-06
-9.62288e-05
0.00487959
-0.00101532
0.00144904
-0.000273347
-0.00117568
-0.000134189
-4.73152e-05
-0.000343507
0.000243236
0.000100286
-1.37105e-05
6.42492e-05
-0.00091407
-0.00142523
0.0023393
-0.000352597
-2.38674e-05
0.000376472
0.000289258
0.000437613
-0.000735468
0.00316193
-0.00242646
-0.000100539
0.000317325
9.3973e-06
0.000101492
-0.00011089
0.000236963
-2.69047e-05
-0.00021007
-8.23693e-05
0.0017748
-0.00169249
0.00150796
-0.00117182
-0.000643472
0.000322373
0.000321082
-0.000120668
-9.20247e-05
-0.000894617
-0.000727354
0.00162192
-0.000995785
0.000361152
0.000634574
-0.000816997
0.00162412
-0.000179082
-0.00063301
0.00218098
-0.00154796
-0.000127884
0.000147237
-1.93614e-05
-0.000368584
-0.000224967
-0.00237566
0.00284083
4.22061e-05
-0.00228356
0.00072991
0.000407916
-0.00113784
0.000698531
-0.00122734
-0.000279884
0.000372227
-0.000444084
9.14895e-05
-4.72147e-05
-4.32677e-05
9.05067e-05
-0.00188739
-0.0014333
0.0033207
-6.23878e-05
6.21492e-05
-0.00343609
0.000224294
0.000201037
-0.000145986
-5.50416e-05
-0.0459387
0.0195705
0.0263679
-0.00107576
0.000266958
0.00080881
-0.00183983
0.00151227
0.000327556
0.000690143
0.00221371
-0.00140562
-0.000346983
-0.00318409
0.000658149
0.00252593
-2.92778e-05
0.000141301
-0.00023722
0.000110695
0.000126535
-0.00363742
0.00300441
-0.000771653
0.00555644
-0.0047848
3.10161e-05
-0.000284901
3.0686e-06
-4.55543e-05
4.24768e-05
0.000106402
-1.67847e-05
-8.9593e-05
0.000231908
-0.000875447
0.000314954
-0.000244864
-0.00196119
-0.00012142
-2.57739e-05
0.000197628
-0.00325105
0.00211806
-0.000142933
-0.000242556
3.0492e-05
-5.50862e-05
2.46192e-05
-7.4485e-05
0.000310364
-0.000235975
0.000355225
-0.000279979
-0.000733182
-0.000262575
0.00170584
-0.000589193
-0.00111663
-0.000116973
3.81976e-05
-8.53891e-05
-6.56004e-05
-1.83818e-07
0.0013466
-0.00124589
0.0044952
-0.00320841
-0.00128678
0.000149939
-8.13784e-05
6.44278e-05
-7.8982e-05
1.45634e-05
-4.76459e-05
9.17029e-05
-4.40599e-05
5.45433e-05
-7.13e-05
1.67536e-05
0.00158552
-2.92792e-06
-0.00158259
-1.97353e-07
-1.89197e-05
1.91149e-05
-0.000271145
0.000632646
-0.000361496
-0.00222635
0.0104378
-8.27854e-05
6.65653e-05
1.6204e-05
-0.000100188
-2.76996e-05
0.00269258
0.000745626
-0.00343821
-0.0019933
0.00267417
-0.000680863
-0.0336283
-0.0123103
-0.00392188
0.00315023
-5.38255e-05
-7.92263e-05
0.000133042
0.000740455
-0.0014656
-0.000374227
0.000120815
0.00531609
-0.00297252
-0.0013652
0.00599301
-0.00462781
-6.16795e-05
6.71092e-05
-4.56804e-05
-0.000575297
0.000620989
-0.000108924
0.000138035
-2.90993e-05
-0.000147952
-4.60885e-06
4.81745e-06
-2.10851e-07
0.000926034
-0.000819357
-0.0002426
0.00013367
5.33883e-06
-4.89148e-05
4.35537e-05
0.000472015
-0.000213004
-0.000259017
-0.000178786
8.57626e-05
9.30501e-05
-0.00397256
0.00335363
0.000618932
0.000139437
0.0014899
-0.00162934
0.000139875
-7.72169e-05
-6.26594e-05
-0.00025032
-0.000478953
9.47709e-05
3.84534e-05
-9.77178e-05
5.92489e-05
2.4689e-05
-8.77158e-05
6.30137e-05
0.000136564
-0.000280487
0.000143916
-0.0010636
0.00175635
-0.000692769
-0.000968042
-0.00010771
2.27364e-05
4.21675e-05
4.62987e-05
4.55375e-05
0.000360746
1.75475e-05
-0.000378324
5.15366e-05
0.000151232
0.00103483
0.0021606
-0.00319543
0.00263395
-0.00159913
-0.000170702
0.000159714
1.10147e-05
0.0020451
-0.00295913
-0.000290962
-0.000414447
0.00047396
-5.9496e-05
0.00360341
-0.00138523
-0.00221816
-9.80368e-05
0.000259835
-0.000161816
-4.29606e-05
-0.000207076
-0.000773607
-0.000586545
-0.00035394
0.00711893
-0.006765
3.6331e-05
4.95327e-05
-2.99602e-05
0.000184077
-0.000154119
0.000121729
9.28228e-05
-0.000214574
-7.40737e-05
-0.000130142
0.000496008
-0.000857233
-0.000518561
6.6692e-05
0.000451874
0.00573397
0.000988566
-0.00672255
4.50819e-05
2.13146e-05
-0.000306196
0.00108565
0.000180406
-6.61926e-05
0.00130162
0.00319357
-0.000464286
0.000464304
-0.000303139
0.000262218
4.09041e-05
0.0020181
-0.000332596
-0.00168562
-0.000286143
0.00101604
0.000381953
-0.00119529
-0.000300182
-0.00383842
-0.00013414
-0.000607306
0.00426885
-0.00366155
9.67191e-06
-1.40139e-05
4.33885e-06
-0.000328845
5.77045e-05
-0.000249597
0.000439507
-0.00018991
-0.000119737
0.000119313
4.12302e-07
-0.00252593
-0.00133491
0.00252479
-0.00267165
7.63093e-05
-0.000153022
-0.00194213
0.00127448
-0.000132973
-0.000104227
0.000129663
-0.000217326
0.000485718
-0.000485651
0.00280948
-0.00122395
9.66283e-05
-4.50993e-05
2.76006e-05
0.00025942
0.00314957
0.000330097
0.00114487
0.000234733
-0.000192885
0.00135809
-0.00324954
0.000376557
-0.00127116
-0.00363662
0.00377606
0.00140125
-0.000394388
-0.00100686
-7.8546e-05
-0.000100234
-0.000455822
0.000400926
0.00027052
-8.86447e-05
0.000222535
-0.000396606
0.000174073
0.00174754
0.000270545
0.00323235
0.000371063
0.00042691
-0.000146786
-0.000280125
-0.000265838
9.51351e-05
-2.69598e-06
-0.000246889
-9.47365e-05
-3.32468e-06
-6.28204e-05
0.000357991
6.22611e-05
4.41521e-05
2.19869e-05
-2.76764e-05
0.00180919
-0.00426987
0.00246073
-0.000332995
0.000377435
-4.44377e-05
-6.29205e-05
-2.69066e-06
0.00232216
-0.00228651
-5.55562e-07
5.50978e-05
0.000580401
0.000827232
-0.00140763
-0.000196543
0.00016658
-5.54945e-05
5.57279e-06
-0.00191287
-0.00443027
0.00634315
0.000243314
-0.000144568
-9.87535e-05
0.000873203
0.000404671
-0.00127785
0.00138853
-0.00129741
-9.11216e-05
-7.02745e-05
-1.15567e-05
8.18216e-05
8.95731e-05
-2.04245e-05
-6.91534e-05
-0.000320007
-0.00200132
0.000664117
-0.00338822
0.00272411
0.000578991
0.000388582
3.55121e-05
0.000161135
-0.000196675
0.00901574
-0.0064979
-0.00251786
-0.000895956
-0.000418427
9.26876e-05
-0.000155447
6.27558e-05
-6.77602e-05
-0.0002866
-5.06362e-05
-3.1908e-06
-0.000181396
-5.57003e-05
0.000237092
0.00134461
-0.00323201
0.0021037
-0.000629293
-0.0014744
0.000509095
0.000275221
-0.000784326
-0.000256467
-0.000138995
0.000395442
-0.000103562
-0.000396443
0.000499994
2.82107e-05
-0.000314919
0.000286696
0.000996091
-0.000124551
-0.000871537
3.41293e-05
-0.000274302
0.000237892
3.64345e-05
-0.0139634
0.000394179
-2.5678e-05
0.000291169
-0.000265463
-0.000114477
0.000152242
-3.77807e-05
-0.000137171
0.000117287
1.98928e-05
0.000892082
-4.23382e-05
-0.000849742
-0.0041726
-0.00248695
0.00665948
-0.00739885
-0.00119981
0.00859864
0.00113891
-0.00149286
0.000153951
-0.00144709
0.000342305
0.00110478
-8.2627e-05
4.40984e-05
9.99282e-06
-9.38239e-06
-6.13978e-07
3.16717e-06
7.14689e-05
-7.46338e-05
-0.00964661
0.00312028
0.00652632
0.001452
-0.00195601
-0.00131146
0.00204657
-0.000735101
0.000287328
0.00123669
0.000130225
0.000113094
0.00224861
-0.000144902
0.000739109
0.00115425
0.000435827
0.001234
-0.00166983
-0.00146243
0.00015271
0.00130972
0.00380449
-0.000182113
-0.0019321
-0.000294431
6.41192e-05
7.74546e-05
-0.000807556
-0.000314664
0.000500032
3.92704e-05
-0.000264573
0.000225326
-0.00159819
0.00149456
-0.00550242
0.00240853
0.000188229
-0.000803668
0.000843957
0.000966986
-0.00181093
0.0020947
-0.00183993
-0.000254774
0.000455563
-0.000690386
0.00023479
-6.98643e-05
-4.58074e-05
0.000352712
-0.000269839
-8.28858e-05
-0.012757
0.0031104
-0.0012897
0.000554915
0.000734794
0.000175227
0.0012133
4.04285e-05
-5.04688e-05
1.00468e-05
0.0015789
-0.000734947
-0.000932531
0.000436896
0.000495608
5.81759e-05
-9.54092e-05
3.72168e-05
0.000482329
-0.000121625
-7.03207e-05
2.26759e-05
-0.000102661
0.000415093
-0.000312404
-0.000629858
0.000212082
-0.000167723
0.000591032
1.14024e-05
1.45697e-05
-0.000993303
0.00217261
-4.13864e-05
0.000259291
-0.000217909
-0.00254319
0.00360528
0.000540894
0.000519974
8.10659e-05
-0.000159062
7.8013e-05
7.71761e-05
0.000678616
-0.000755814
0.000319019
-0.000290821
-0.000122428
0.000131825
4.16198e-05
-7.98608e-05
3.82472e-05
-0.000470665
0.000137682
-0.0020935
0.00146422
-0.000730885
0.00144973
-0.000718848
-0.00222201
-8.18968e-05
0.000117449
-0.000145282
1.10997e-05
-0.000217736
-8.81944e-05
0.00030591
-0.00303543
0.006194
-0.00315859
-0.000393588
-0.000663485
0.00105706
-0.00541362
0.00295281
0.0024608
0.000229412
-0.00109813
0.00086872
-0.0109269
0.00352801
0.000652097
-0.00238156
0.00172947
-0.00106532
0.000473411
0.000524519
-8.45479e-05
-0.00018974
0.000313113
1.25339e-05
0.00012575
-0.000111809
-1.39082e-05
-0.00112455
0.000228588
0.000256427
0.00134796
-0.00160437
-0.0015865
-0.00142647
0.003013
0.000243764
-0.000359141
-0.00282494
0.000202849
0.000111144
-0.000313999
1.62485e-05
-6.31154e-05
4.68758e-05
0.000607533
-0.00110738
0.000499854
0.000219762
-4.20355e-07
3.22012e-06
-1.86895e-05
0.000996092
0.00279182
-0.00213453
-0.000657286
4.78556e-05
9.20132e-05
-8.49227e-05
0.000214582
-1.50598e-05
-1.22178e-05
0.000236271
-0.00326533
-0.00108811
0.000653109
0.000434992
-3.21445e-05
7.37722e-05
-0.000406561
0.00106036
-0.000653802
-0.00025986
0.000214179
3.39258e-05
0.000159402
-0.000193297
2.39949e-05
-9.42716e-05
-0.00010583
-0.000192025
0.000297841
-0.000920247
-0.00052685
6.05855e-05
1.78586e-05
-0.00192022
0.00225519
4.55207e-05
0.000104414
-1.88505e-05
0.00015099
0.000519018
8.97011e-06
0.000498646
-0.0024926
0.00199395
-0.00148096
1.85338e-05
0.000284007
1.55451e-05
-0.000299565
-0.00052161
0.000391352
0.000130286
0.000807346
6.82168e-05
-0.00128434
0.00194845
0.000324477
0.00027173
-0.000596179
0.00273723
-0.00662337
0.00388614
-0.00109015
0.00100654
8.36294e-05
-9.39686e-05
-0.000571662
0.00128652
-0.000567511
-0.000718971
-0.00178997
-0.00204846
0.000423153
-0.000726335
0.000417853
0.000983414
0.00015051
-0.000441522
0.000290999
-0.000781464
0.000414025
0.000367453
-0.000125182
5.6821e-05
-4.05693e-05
0.000587884
-0.00138129
0.000793403
-4.15654e-05
0.000933649
-0.000995584
0.00194703
-0.000951466
0.000813106
4.67865e-05
-0.000125311
0.000348436
-8.21705e-05
-0.000266253
-0.0033324
0.00297706
0.000355333
-1.76072e-05
-6.22597e-05
-0.000225654
0.000184268
-0.000323428
0.00103654
-0.000713109
0.000126211
-9.61377e-06
-0.000116602
0.000841512
0.000221614
0.00102018
-0.000104149
-0.000427014
0.000681153
0.000812311
-0.000415648
-0.000396657
-4.55958e-05
8.37969e-05
-0.00218112
0.00244198
-0.00201103
1.78477e-05
-0.00205231
-0.00315572
0.00520784
5.6888e-05
9.36249e-05
-0.00216252
9.18772e-05
0.00207065
0.00138053
0.000868086
-0.000738745
-0.000385848
0.000174678
-1.64289e-05
-0.000158232
-0.000396792
-0.000892905
0.000321604
-0.000122098
-0.00400334
-0.00123962
-8.27948e-05
0.000107594
-0.00234687
0.00100611
0.00134073
-0.000262435
0.0019402
-0.00167774
-0.00372347
0.000515065
-0.000526798
0.000643259
0.000401898
-0.00104514
0.000350835
0.000575199
7.39822e-05
-3.99997e-05
-0.000143232
0.000314992
-0.000171763
1.56589e-05
3.43633e-05
-0.000544383
0.000370587
0.000173828
0.00051112
-0.000186663
-4.49177e-05
-0.000116488
0.000161402
-6.38355e-05
3.35013e-05
3.03452e-05
-0.0010195
0.000190792
0.000828708
-0.0014615
0.00187885
-0.000417357
0.000274188
-0.000302197
2.79894e-05
0.000971331
-0.00196462
-0.00135816
0.000966462
0.000391715
-0.000683681
0.00176991
-0.00108629
2.136e-05
0.000389527
-0.0010028
0.000613251
5.98775e-05
-3.2586e-06
-4.91577e-05
8.76099e-05
-2.90821e-05
-0.000108065
8.21195e-06
-0.000230225
0.0013832
-0.00555584
-2.85673e-05
0.000105742
-0.00148217
0.000359234
0.00112293
0.000304434
0.00011517
-0.000419601
0.000222488
0.000503824
0.000523708
-0.000219273
0.00636273
0.00146781
-0.00783053
0.00015627
-0.000487716
0.000331445
0.000230535
-0.000245639
-0.0017394
0.00147699
8.50411e-05
-2.69143e-05
-0.00073134
-0.000181957
0.000913295
-0.000197685
0.00331889
-0.0031212
-6.31461e-06
-0.000113437
-0.00190396
-0.000494864
0.00239882
-0.00186047
-0.00183154
0.00369201
-0.00233672
0.000676508
0.00166021
-0.00120009
-0.000111362
0.00118674
-0.00037443
0.000292129
-7.50544e-05
-9.70261e-05
0.000172078
-0.00440212
0.000508819
-0.000527073
0.000383841
7.53699e-06
-0.000107677
0.000100144
-0.00204717
0.000957026
-0.00171969
0.00286458
-0.000491826
-0.0017796
-0.000267541
0.00552744
-0.00369291
-0.00183453
-0.00309798
0.00321789
-0.000119905
0.00832238
-0.00195967
7.80159e-05
0.000914795
0.00136738
0.00148371
-0.000580267
0.000231434
-0.00169293
0.00112079
-0.000769952
0.000138218
-3.39789e-05
-0.000104234
-0.00289929
0.000697445
0.00220183
-0.000387375
-0.00119913
4.1495e-05
9.67236e-05
0.00786508
-0.00548571
-0.00237938
-0.00339776
0.00279046
0.00433908
0.00118835
-0.000318485
-0.000106399
0.00180591
-0.000748339
-0.00105756
0.000200383
-0.000374834
0.000174458
-4.17198e-05
-2.21199e-05
0.00912827
-0.000112542
-0.00919267
0.00975761
-0.000564956
-2.49602e-05
-0.000681789
-0.000327366
0.000194393
2.66021e-06
-0.000217602
0.000214935
0.00242368
-0.00177159
-0.00176342
0.000523911
0.000170399
-0.000536617
0.000366233
0.000224674
-0.00051509
3.21407e-05
-9.09523e-05
5.88083e-05
0.000439817
0.000250781
-0.00069062
6.33276e-06
5.35427e-05
0.000665198
-0.00202336
0.00261868
0.000138339
-0.00275703
-0.000382804
0.000130879
-2.45662e-05
0.000145445
-0.000103947
7.47444e-05
-0.000149802
-0.000248297
-0.00284969
-0.00065854
0.000275692
-0.000201225
-0.00105342
-0.000587993
0.00119553
0.00155298
-0.00149307
-5.98982e-05
0.00198782
-0.0027084
9.6665e-05
-0.000179455
-3.5616e-05
1.08831e-05
2.47325e-05
0.00165469
-0.00254898
0.000894295
0.000615102
-0.000188174
0.00247975
-0.00463945
0.00215969
0.000559993
0.00301426
0.00202918
-0.00504345
0.00150445
0.00254318
0.000597974
-0.000462786
-0.000135204
0.00176668
-8.4287e-05
-0.0016824
-0.0021276
0.00172326
0.000404336
0.0117204
0.000204227
-0.000486763
0.000223315
4.52362e-05
-4.56717e-05
4.13135e-07
0.000192201
8.19969e-05
-8.27119e-05
-0.000187389
0.000270104
0.00222871
-0.0029419
0.000713186
0.000372075
0.000188243
2.82717e-05
0.000115187
-0.00014348
0.00618657
0.0016785
0.000359281
-0.000521462
0.000162162
0.00159048
-0.00462591
-0.00327328
3.74447e-05
0.0032358
-0.000700602
-3.17965e-05
-5.09893e-05
-0.00368449
0.00189452
0.000108175
-8.89528e-05
-0.000324814
0.000495212
0.00203242
0.00599025
-0.00355624
0.00120932
-6.38005e-05
4.33724e-05
-0.00800112
0.00472784
-0.00136374
-0.000972977
-0.00012263
-5.68029e-05
0.000179462
3.89642e-05
-0.000153444
0.000141942
-2.14726e-05
5.64215e-05
-0.000740095
-0.00348216
-0.000241334
-7.31452e-05
-0.00274821
0.00330508
-0.000556881
-2.49912e-05
2.47945e-05
0.000757322
-0.000296937
0.00013011
0.00104497
-0.00117508
-0.00260386
-0.00142651
0.00464222
-0.000265985
0.000155024
4.53736e-05
0.00221845
-0.0023009
-4.48087e-06
-4.44991e-05
0.00213659
0.000834214
5.86808e-05
-0.000181298
-5.7958e-05
4.82188e-05
9.73834e-06
-5.96546e-05
-1.64367e-05
7.60836e-05
0.000146738
-8.244e-05
-6.43137e-05
-0.00214736
0.00381359
-0.00166624
0.000151219
-0.000226792
7.55601e-05
6.07106e-05
-7.83189e-05
-0.000435139
9.16391e-05
-9.90681e-05
0.000127343
0.000209205
0.0127221
-0.0129313
0.000528014
-0.000217911
-0.000310087
5.51532e-07
0.000318464
-6.86077e-05
9.25921e-05
0.000169907
-0.000252629
2.40207e-05
-0.000508748
-0.00161885
0.00124347
0.000770007
-0.00860787
0.00397719
0.00175677
-4.80417e-05
-9.92232e-06
-0.00114183
0.00219375
0.000598071
1.79947e-05
-0.000199386
8.1971e-05
2.4831e-05
-0.000106809
-0.0024625
0.0016521
0.000810392
0.00185259
-0.00127219
0.000284897
-0.000298452
1.35591e-05
0.000119295
0.00131588
-0.00143517
-0.00323527
-0.000309349
0.00354462
0.000231055
0.00157816
5.22978e-05
0.000122379
0.00141436
-0.0013498
-6.4576e-05
-0.00109258
0.00031112
-0.000161266
0.00157564
-0.00191673
0.00160717
0.000309564
0.0004665
-0.000336402
-7.534e-05
6.87171e-05
6.63922e-06
-0.000422289
7.36926e-05
0.000348595
7.43356e-05
7.11084e-05
-0.00142562
-0.00139468
0.0028203
-0.00122352
0.00145496
-0.000555507
-0.00140564
-0.000287525
-0.00162538
0.0020029
-0.000377527
-0.00318589
0.000437679
-0.00475084
0.0030984
0.00165245
2.82456e-05
-0.00226967
-0.000981367
-5.82347e-05
0.000105048
-0.000304585
-8.92938e-05
2.61809e-05
0.00190098
-0.00106413
-0.000836851
-0.000109643
-7.34732e-05
0.000183106
-5.74579e-05
9.49239e-05
-3.74593e-05
0.00431509
-0.00130084
0.000121886
-0.000640447
-0.000209754
0.000201787
7.95193e-06
0.000276534
-0.00162865
0.00135214
-0.000119093
-8.11815e-06
0.000127206
0.0013786
-0.00112216
-0.000304273
0.000414567
-0.00383848
0.00189975
0.00193872
0.00020678
-7.78553e-05
-0.000128929
0.00179705
-0.000307155
0.00181218
-0.00315957
0.00134736
0.000112487
0.000589602
0.00133429
0.00335661
-0.0046909
-8.56988e-05
0.000282523
-5.19786e-05
0.00111353
-0.000292497
0.000984358
-0.00111968
-0.00114181
0.000769522
0.000372289
8.26365e-05
-6.72726e-07
-0.000116164
-0.000183571
-0.000400356
0.000289115
0.000111199
-0.000988278
0.00157616
3.36528e-05
1.63158e-05
-4.99523e-05
-0.000875787
0.00132223
-0.000446454
0.00189945
0.000329258
0.000393368
0.000134643
1.33002e-05
2.74307e-05
-4.06997e-05
-1.93137e-05
-1.63042e-05
6.80952e-05
-8.59424e-06
-5.94933e-05
-0.000843319
0.00109715
-0.000253835
0.000119886
-0.0106139
0.0108231
-0.000389719
0.000233387
0.000156334
-7.77753e-05
2.43349e-06
0.000269418
-0.000135617
-0.000133779
-0.000426327
-0.00173619
-5.98109e-05
-5.78654e-05
0.00011766
-0.000319737
0.000495159
-0.000175421
-7.30337e-05
-0.000116314
2.70214e-05
0.000127681
2.44028e-05
-0.000152081
0.00225114
-0.00538458
0.00313344
0.00248016
-0.00521835
0.00330548
0.000459111
-8.10805e-06
-0.000450998
0.000456075
0.000141888
-0.000355258
6.44426e-05
0.000100427
0.000183561
-0.000159871
-0.0013223
0.00138934
-0.00177428
0.000384955
-0.000587647
0.000194075
-0.00313877
2.08327e-05
-8.94411e-05
-0.000792307
-0.00111165
-0.000282927
0.000283479
-0.00177323
0.000147852
0.000406136
0.00211866
6.62177e-05
-0.000185319
0.000829449
0.000982757
-0.00209116
-0.000365703
5.47684e-05
0.000600712
-0.00108684
0.000486133
-0.000106913
1.86058e-05
8.82913e-05
-0.00147728
-0.000120954
-0.00015143
4.87627e-05
-0.000732425
0.00146641
-0.000733843
0.000317089
-0.00184425
0.00152716
0.00523426
-0.00728655
8.71422e-05
-0.00190426
0.000404542
0.00149972
-1.71896e-06
-2.89116e-06
0.000161679
-5.79406e-05
-0.000103725
-0.000151748
-0.000175619
6.91996e-07
-6.92109e-07
0.000142139
0.000206306
-0.000925035
-0.0013341
0.00286914
-0.00473562
0.00186651
5.43791e-05
-0.00130196
0.000282452
0.00400869
-0.00208759
-0.00192107
0.000116322
-0.000138356
0.0106682
-0.00669105
5.17537e-05
-3.84522e-05
-0.00117388
-0.00368161
0.00485551
-3.71703e-06
-0.00036717
0.00037088
0.000325216
-0.000727646
-0.000574315
-0.000172929
8.42444e-05
-0.00572417
0.0021558
6.23591e-05
-2.19348e-05
-0.000163813
5.41527e-05
0.000219371
-0.000144029
-7.53496e-05
-2.40302e-05
6.69982e-05
-4.29746e-05
-2.42821e-05
-2.84409e-05
5.27376e-05
1.11148e-05
-0.000504577
0.00197232
-0.00115364
-0.000818674
0.000646262
0.00163131
-0.00227757
4.42964e-05
0.00016017
-0.000204487
0.000950099
-0.00372609
0.00277599
0.000401064
5.84537e-05
-0.000459543
0.000493886
-0.000766188
6.50607e-05
2.287e-05
-8.79393e-05
0.000499347
-4.02369e-05
0.000203864
0.00156282
-0.000120041
-0.00044236
0.0010424
-0.000441688
-0.000170575
0.00106141
-0.000890831
-4.55603e-05
-0.000164204
0.0001105
0.000342669
-0.00257179
-0.00256792
0.00513971
0.000200385
5.94483e-05
0.0011779
-0.0022415
0.0042864
-0.00180664
0.000405571
-0.00027084
-0.000134722
-0.0027593
0.000779145
0.00198016
0.000195507
4.69622e-05
-0.00010678
8.83859e-05
-0.000183136
1.69121e-05
-7.12626e-05
5.43497e-05
-0.000738455
-0.000257128
0.000822382
-0.000545832
7.89631e-05
-0.000386872
0.00103013
-8.59068e-05
0.000152129
-2.5515e-05
8.81785e-06
0.000157369
-7.86679e-05
-7.86796e-05
-0.000471848
0.000185313
0.000286541
-0.00579546
9.25966e-05
-7.17698e-05
-0.000340136
-0.000122671
-0.000236811
-6.01576e-05
0.000296969
8.57592e-05
-0.000101465
0.00179689
-0.0014798
1.44912e-05
-0.00018245
0.000167915
-0.000317765
0.000103643
-0.000376276
0.00203095
-0.000133293
-0.00163009
-0.000832412
-0.000765208
0.00114176
-0.00273786
0.00074456
0.00305776
-0.00316454
0.000106763
-0.000169865
0.000118551
5.13156e-05
-0.000417167
0.00197013
1.29521e-06