/*--------------------------------*- C++ -*----------------------------------*\
| =========                 |                                                 |
| \\      /  F ield         | OpenFOAM: The Open Source CFD Toolbox           |
|  \\    /   O peration     | Version:  v2012                                 |
|   \\  /    A nd           | Website:  www.openfoam.com                      |
|    \\/     M anipulation  |                                                 |
\*---------------------------------------------------------------------------*/
FoamFile
{
    version     2.0;
    format      ascii;
    class       volScalarField;
    location    "300";
    object      k;
}
// * * * * * * * * * * * * * * * * * * * * * * * * * * * * * * * * * * * * * //

dimensions      [0 2 -2 0 0 0 0];


internalField   nonuniform List<scalar> 
18166
(
0.000158206
0.000147294
0.000149797
0.000189104
0.000537255
0.000160513
0.000146602
0.00645844
0.0448379
0.000379159
0.000148226
0.000147919
0.0126942
0.000212591
0.086502
0.000215695
0.000148725
0.000416921
0.000148022
0.0221708
0.000188345
0.000148729
0.00018776
0.000148383
0.000147192
0.000146621
0.000157031
0.000158895
0.000148337
0.000190398
0.00868641
0.00014466
0.000147989
0.000147828
0.000144249
0.000148173
0.047288
0.000148208
0.000146752
0.000359008
0.00014971
0.0170764
0.000148034
0.000148357
0.000158369
0.000148818
0.000191658
0.00545824
0.00022618
0.000156574
0.000172672
0.000171493
0.000192727
0.000149529
0.000148268
0.0301957
0.0182955
0.00266212
0.000151269
0.000155572
0.000171988
0.000157236
0.0302052
0.000160001
0.000230853
0.000148457
0.0410907
0.0550675
0.0538868
0.000161213
0.000144267
0.000149698
0.000158083
0.000153112
0.000605976
0.000217099
0.000191136
0.0443565
0.000154878
0.000148387
0.000149682
0.0613984
0.000148424
0.000148221
0.000145172
0.000152335
0.000155914
0.000147419
0.000171876
0.000146637
0.0160615
0.000160337
0.00724719
0.000149834
0.000149659
0.000152568
0.000145019
0.000165801
0.000152582
0.000158849
0.000147859
0.000148846
0.0835924
0.000160025
0.000161297
0.000148905
0.00147779
0.000417138
0.000152581
0.000148397
0.00534257
0.0509359
0.0562488
0.0417984
0.000148922
0.000147114
0.000166483
0.0123184
0.000149074
0.0344418
0.000316405
0.000148398
0.000243336
0.0773784
0.00019698
0.000148011
0.000148951
0.0114876
0.000156284
0.000160948
0.000201765
0.0237251
0.000154987
0.0429383
0.000155452
0.000190803
0.000148244
0.000147065
0.000155224
0.0158318
0.0392455
0.000233626
0.000160586
0.04141
0.000152444
0.0591943
0.0101169
0.0750904
0.000148537
0.000156938
0.000144997
0.0429908
0.00105337
0.000196583
0.000149645
0.000148435
0.000149879
0.0248422
0.000148284
0.0111862
0.000145503
0.053728
0.000154943
0.000146551
0.000172258
0.000198041
0.000148927
0.0402955
0.0647239
0.00307237
0.000210966
0.0363819
0.000160648
0.0551322
0.0156846
0.000147936
0.000182036
0.0517505
0.000147169
0.000147451
0.000148929
0.000160429
0.000173679
0.000181181
0.0533725
0.000146927
0.000165036
0.000188028
0.000148136
0.000146917
0.000173304
0.000148018
0.000170862
0.000148244
0.00016015
0.01329
0.000160031
0.000159899
0.0138852
0.000421746
0.000209815
0.0502926
0.000148085
0.0738727
0.000148588
0.00017175
0.0648104
0.0256251
0.000489112
0.00521555
0.000493849
0.0412346
0.000147235
0.000148602
0.000173301
0.000159929
0.000262279
0.000166177
0.0681685
0.0582917
0.000154457
0.000147673
0.000146958
0.000161329
0.0110545
0.000146627
0.000165409
0.000146802
0.000151339
0.000148026
0.0186715
0.0568522
0.000152967
0.0271763
0.000147949
0.000152055
0.000172511
0.000169791
0.0484638
0.0460134
0.000170907
0.056808
0.0248945
0.000155238
0.0535426
0.0001488
0.000189555
0.0554415
0.045017
0.00015113
0.000158497
0.000148924
0.000148495
0.000156056
0.0407354
0.00606492
0.000148638
0.0616691
0.00355505
0.000146506
0.000148523
0.0261511
0.000171376
0.000225862
0.00165826
0.0640034
0.0477931
0.00015306
0.000149741
0.000159367
0.000156824
0.000148618
0.000147255
0.0809304
0.000172537
0.031923
0.0480409
0.00014671
0.000205894
0.000144809
0.000188519
0.0441956
0.00015301
0.000150037
0.00015393
0.000173599
0.000157424
0.000150242
0.0497468
0.000149005
0.000158963
0.000189117
0.000153788
0.000148621
0.000152857
0.0148228
0.000146545
0.000148695
0.000146574
0.0455645
0.0419688
0.000148397
0.000149246
0.000147221
0.0708002
0.000148018
0.0296249
0.000202175
0.000148432
0.000146982
0.000154595
0.000208514
0.0271514
0.000155043
0.000149003
0.000460054
0.000165893
0.000153873
0.000148537
0.000278093
0.000147572
0.000152349
0.0537395
0.000170887
0.000159689
0.000156241
0.0001503
0.000148013
0.000145877
0.0566584
0.000147043
0.0414741
0.000150119
0.00014815
0.000740382
0.0456365
0.000219135
0.0639901
0.0190194
0.0614875
0.000148671
0.0413025
0.000280172
0.0234589
0.000151838
0.000148318
0.000146647
0.000155202
0.000149904
0.000168932
0.000151549
0.000188649
0.000148706
0.000147053
0.000164936
0.000156018
0.000165442
0.000170576
0.000148303
0.000145841
0.000147519
0.0620225
0.0100986
0.000148668
0.000146577
0.000148108
0.00014978
0.000172368
0.000149798
0.0516037
0.000369487
0.000147295
0.000147574
0.00045513
0.052624
0.000468822
0.0223391
0.000149616
0.000171143
0.00022293
0.000148172
0.0176976
2.90917e-05
0.000157034
0.000152773
0.000148091
0.000148469
0.000149821
0.0501533
0.000148061
0.000144353
0.00015677
0.000146319
0.0505083
0.000233328
0.000149578
0.000148787
0.00601432
0.000146725
0.000146785
0.000149222
0.000215302
0.0471908
0.000149792
0.0631043
0.000151658
0.000148003
0.0308776
0.0364038
0.00014963
0.0626484
0.00629029
0.000160785
0.0551215
0.000154473
0.000158335
0.00017289
0.000180537
0.000143952
0.000148566
0.000150253
0.000148011
0.000225355
0.000152602
0.00021111
0.000149776
0.000231181
0.000147804
0.0110002
0.00803233
0.000153922
0.000195295
0.000160141
0.0001503
0.000171581
0.0483727
0.0625864
0.000149273
0.046165
0.000166316
0.000146055
0.0778145
0.0483398
0.000147664
0.0527961
0.0438162
0.000148496
0.00763594
0.000173407
0.00014792
0.000160984
0.0797559
0.00844801
0.000173362
0.0431764
0.000445026
0.000263106
0.000181616
0.000146218
0.00994313
0.000148001
0.000148359
0.000202431
0.0517183
0.000150787
0.000149502
0.000165988
0.000154288
0.000148743
0.000146639
0.000145204
0.000165524
0.0335298
0.000147556
0.000188593
0.000149846
0.0345929
0.000148601
0.000147957
0.000179191
0.0870944
0.000164688
0.0650976
0.000147817
0.000147904
0.0577369
0.0527867
0.000170117
0.000150589
0.000177051
0.000175034
0.000149245
0.000148959
0.000149553
0.000151268
0.0573994
0.0580442
0.000148331
0.000150223
0.000168322
0.0143502
0.00745634
0.000144345
0.000150671
0.000413308
0.000148466
0.000148926
0.000148456
0.000146067
0.000174186
0.000187635
0.000263064
0.000182765
0.000148324
0.000204333
0.000147197
0.000149828
0.0452647
0.000306843
0.00016444
0.0624293
0.0578796
0.0844762
0.0559333
0.00019306
0.057928
0.0236656
0.000193
0.021964
0.000147934
0.000165421
0.000151167
0.000152601
0.000167405
0.000107535
0.000151086
0.000273466
0.069219
0.000169767
0.000149667
0.000148276
0.000333493
0.0491404
0.0677506
0.000144794
0.00024873
0.0110821
0.000149649
0.000151606
0.000148101
0.000153145
0.0304943
0.00642101
0.000149515
0.0675612
0.000148699
0.0456247
0.000155559
0.000148901
0.000157457
0.0121528
0.000147145
0.000148194
0.036231
0.0616219
0.000175851
0.0798049
0.000150474
0.000148466
0.000149181
0.0278117
0.00016846
0.0142896
0.00015978
0.000274116
0.068448
0.000172379
0.00209788
0.000150528
0.0130755
0.000145927
0.000174438
0.0594136
0.000167819
0.000154894
0.0601118
0.0104093
0.000148202
0.0499676
0.000148011
0.000149605
0.00511887
0.0540627
0.000149545
0.000148533
0.000145188
0.000534852
0.0489014
0.00014815
0.000213099
0.000153157
0.000149816
0.000147849
0.000176641
0.000206701
0.000155381
0.0582261
0.000148655
0.000147033
0.0467922
0.0096297
0.00025026
0.020345
0.000341009
0.000148992
0.0127428
0.0591017
0.000152464
0.000526083
0.00016791
0.000154624
0.000164207
0.0482813
0.000154275
0.000180183
0.000150843
0.000159994
0.010995
0.000148223
0.0621416
0.000174901
0.000163674
0.000160743
0.000146162
0.000150954
0.032165
0.000148266
0.000148737
0.000189364
0.000146036
0.000171615
0.000149975
0.000201337
0.000148969
0.000160526
0.000145886
0.00678085
0.0202701
0.00049965
0.000150959
0.0168213
0.0565142
0.000173082
0.000148124
0.0521628
0.000149225
0.00938904
0.000148279
0.000167109
0.0436212
0.0116705
0.00955517
0.00174861
0.0543012
0.000144154
0.0203775
0.000147398
0.000155509
0.000152316
0.000148048
0.000148263
0.0371481
0.000185591
0.000150258
0.0708121
0.0337822
0.000162753
0.000144208
0.000154433
0.000149739
0.000146697
0.000146018
0.000147957
0.000192936
0.000156837
0.0842345
0.0257684
0.0279263
0.0217396
0.000177665
0.000154079
0.000149023
0.0545905
0.00014706
0.0366937
0.0441927
0.000146019
0.000161087
0.0523731
0.0749158
0.0611277
0.000160962
0.000153837
0.000147103
0.0414858
0.0252607
0.0744875
0.000167691
0.00166978
0.0108124
0.00016714
0.0292278
0.0285281
0.00017622
0.000147846
0.0213809
0.000189786
0.000183969
0.0561254
0.000146918
0.000204342
0.000167247
0.000146919
0.000244997
0.0673002
0.0318649
0.0514917
0.000157311
0.000159429
0.000148321
0.000174448
0.00027229
0.000155101
0.0431789
0.000147614
0.0720881
0.0540937
0.000156796
0.000152549
0.000149784
0.000159301
0.000149695
0.0445432
0.000198923
0.000504996
0.000146557
0.000146858
0.000147096
0.0490634
0.000505736
0.000157937
0.0397532
0.000187878
0.0348234
0.00014831
0.000148902
0.000217967
0.000150938
0.000161889
0.000567734
0.000166261
0.000284928
0.000149469
0.036118
0.0691568
0.000176772
0.000152947
0.000146144
0.000150664
0.000148968
0.000217644
0.00015264
0.000146501
0.000255923
0.000150794
0.0267536
0.000178487
0.000160382
0.000147346
0.0500507
0.000147273
0.000156863
0.0275167
0.000168299
0.000147914
0.000179853
0.0723995
0.000147416
0.000148522
0.0001479
0.000163035
0.0105177
0.000148181
0.027406
0.000149728
0.00939529
0.0435573
0.0139039
0.0151435
0.000165209
0.000159787
0.000207084
0.000147444
0.0678713
0.000147403
0.000146654
0.000144992
0.000148751
0.0446976
0.000147753
0.000148314
0.000149104
0.000146478
0.000209991
0.000150819
0.0105764
0.000147827
0.000149035
0.000148151
0.068846
0.0122862
0.0149546
0.000206122
0.000146693
0.0555191
0.0528623
0.000151173
0.000147948
0.031122
0.039335
0.000154099
0.000204022
0.0771582
0.00016573
0.000148149
0.000179209
0.000159882
0.000179435
0.0758081
0.0356159
0.000145745
0.0291493
0.00014687
0.000282141
0.00018361
0.000168696
0.000148048
0.0175163
0.0317301
0.0550959
0.000149139
0.000187255
0.000146141
0.0235832
0.000148271
0.000170078
0.000150667
0.000147127
0.00016681
0.00015237
0.000148475
0.000241889
0.000148562
0.0563176
0.000158804
0.000209413
0.000147946
0.000228372
0.000167216
0.000148354
0.00876695
0.000231257
0.0795714
0.000149056
0.00015292
0.000191513
0.0896688
0.000147929
0.000149856
0.000153828
0.064222
0.000145163
0.000183638
0.000220526
0.000150789
0.000144571
0.000148972
0.000147278
0.000166635
0.000146062
0.000193187
0.000163918
0.000145669
0.000152211
0.0198017
0.000147511
0.000153653
0.000146767
0.000148311
0.000173207
0.000232188
0.000574449
0.000310153
0.000151886
0.00014968
0.0112705
0.000375033
0.0829671
0.0152652
0.000169327
0.000265322
0.000147872
0.000160219
0.00820515
0.0218102
0.0508131
0.000148631
0.000167355
0.000165643
0.0150275
0.0271648
0.00014819
0.00016657
0.000153319
0.00039102
0.0240089
0.000452518
0.000146577
0.00458146
0.000149785
0.000148249
0.0456263
0.000149955
0.000151211
0.00143698
0.0185924
0.000147256
0.0324299
0.000169183
0.000146758
0.000195363
0.000144583
0.00349988
0.0274003
0.000190221
0.0322385
0.00024498
0.000552646
0.000144858
0.000150684
0.000147735
0.000145068
0.00014502
0.000153597
0.0522388
0.0642893
0.000147784
0.0125027
0.000162953
0.000159739
0.000147946
0.000152131
0.0388601
0.0131414
0.023554
0.0417364
0.000148509
0.00017216
0.019251
0.000154897
0.000210182
0.000194997
0.0196139
0.0502991
0.000147803
0.000147502
0.000153911
0.000148338
0.000163378
0.000250211
0.000150844
0.00404009
0.000148683
0.000149867
0.000147045
0.00504574
9.40404e-05
0.00014785
0.000149328
0.00993382
0.000147831
0.0186938
0.000445556
0.000147945
0.000214846
0.00014805
0.0313277
0.000465165
0.0498903
0.000200379
0.000148634
0.000189689
0.000217281
0.000151172
0.0107961
0.020512
0.0440576
0.000149939
0.00017131
0.00015238
0.00014988
0.0759489
0.000335994
0.000169123
0.000193533
0.000145015
0.000204409
0.000165058
0.00014954
0.000165688
0.0122218
0.0300928
0.000340052
0.000159529
0.000192691
0.0188393
0.000145114
0.000151609
0.000149769
0.000168673
0.000168885
0.000152452
0.000163172
0.000162478
0.000156594
0.000188014
0.00014829
0.00016751
0.0603759
0.0514004
0.0495977
0.00644352
0.000146626
0.000149683
0.0390671
0.000165889
0.000146573
0.000147879
0.0126258
0.000157259
0.000198007
0.000148871
0.000152271
0.0230754
0.0286246
0.00483869
0.000148211
0.0670576
0.000151341
0.000239097
0.0688171
0.000149051
0.000173528
0.000167362
0.0226449
0.0315945
0.000153458
0.000560797
0.0527187
0.00112439
0.000170067
0.0548163
0.000157272
0.0011404
0.000149788
0.000149699
0.000147874
0.000147881
0.00015321
0.000173309
0.000147619
0.000175262
0.00014737
0.000150933
0.0372975
0.000148305
0.000194388
0.0250523
0.0168187
0.00397472
0.000148837
0.000148464
0.000146831
0.000149843
0.0496259
0.000268388
0.000201602
0.015368
0.0249138
0.000149301
0.00016005
0.000152419
0.000149787
0.00016042
0.000149416
0.000157557
0.00014466
0.000148599
0.000150087
0.00014865
0.000203609
0.000190716
0.000154946
0.000498459
0.000147925
0.000148732
0.0586918
0.000160144
0.041497
0.000201736
0.000194522
0.000204753
0.00675971
0.0180513
0.000148672
0.0495792
0.000154111
0.000467962
0.000165961
0.0680327
0.0429536
0.036581
0.000159699
0.032297
0.000148308
0.0001493
0.000147435
0.0495444
0.000173299
0.0547592
0.0600103
0.036096
0.000146561
0.000533852
0.0401019
0.000147238
0.000151399
0.000164228
0.000150472
0.0886703
0.000160148
0.000157013
0.000410577
0.000148439
0.0156613
0.000150861
0.00014979
0.000466217
0.000152057
0.0150868
0.000150104
0.073726
0.000148408
0.0197775
0.000149701
0.000149418
0.000534307
0.000221226
0.000145955
0.000146877
0.000295246
0.000144716
0.000147235
0.031566
0.000149633
0.0328566
0.000316771
0.000149383
0.0207474
0.0678571
0.000180079
0.000193783
0.000149313
0.0261821
0.000148528
0.000204545
0.000145472
0.000161677
0.000149948
0.000148585
0.000238236
0.00014885
0.0169318
0.0320991
0.0583212
0.000151745
0.000147626
0.000149429
0.000145241
0.000174907
0.00014827
0.0171933
0.00241886
0.0339372
0.0722318
0.000247189
0.0421509
0.000219639
0.000145639
0.000163761
0.000154556
0.000200412
0.000167013
0.00015198
0.0264669
0.000148488
0.00029175
0.000154797
0.0102975
0.0522855
0.000145135
0.0372837
0.0314432
0.000179117
0.000171152
0.000166514
0.0190371
0.000249841
0.0130608
0.000148754
0.019593
0.000164889
0.0383049
0.0142938
0.000274151
0.00019507
0.00148955
0.000197633
0.0097689
0.00014687
0.0623217
0.000145228
0.000151535
0.000151281
0.000148264
0.000147827
0.000144935
0.000146847
0.000148711
0.0328545
0.0508608
0.000114255
0.00166336
0.000145624
0.000149669
0.000153541
0.00022291
0.000249637
0.000147134
0.000375378
0.000147703
0.000147436
0.000182139
0.0571682
0.000155441
0.054939
0.000152465
0.0287121
0.000147825
0.000182664
0.000154495
0.000272553
0.000148801
0.000148699
0.000162466
0.000533647
0.000147787
0.000147256
0.000161169
0.0427916
0.000169743
0.000149494
0.000175694
0.0569958
0.000160733
0.000180475
0.000155723
0.0001639
0.0673046
0.000146183
0.0107275
0.000147925
0.0270626
0.000150217
0.000492583
0.000149212
0.000406413
0.000147967
0.000146453
0.000155551
0.000148692
0.000164907
0.000147263
0.000149845
0.000255094
0.000148059
0.000149214
0.0267425
0.000156945
0.00775385
0.000177436
0.0543314
0.00955269
0.0619666
0.000147717
0.000211751
0.00325621
0.000146229
0.0194101
0.000158128
0.000148165
0.000223004
0.000147448
0.0449023
0.000145884
0.000199131
0.0460948
0.000215079
0.000151865
0.0555955
0.000149588
0.000204778
0.000165706
0.000149345
0.0166811
0.0176599
0.0002299
0.0355269
0.0295552
0.000171613
0.00361847
0.000231452
0.00018971
0.000145307
0.023804
0.000155678
0.021288
0.0267403
0.000202334
0.000167567
0.000160805
0.000145592
0.050006
0.000146989
0.000399326
0.0155421
0.0357551
0.000146471
0.000166377
0.0605442
0.00014731
0.000200362
0.0284222
0.000149546
0.0461992
0.000148749
0.000144988
0.000148405
0.00824673
0.000186681
0.0573632
0.0697057
0.0118245
0.0198328
0.000188604
0.000148137
0.0295768
0.000218114
0.000148296
0.000150312
0.000145848
0.000175339
0.0126011
0.0483833
0.000178412
0.00804571
0.000172666
0.000149725
0.000154546
0.000153803
0.0167326
0.00791979
0.0793422
0.000268414
0.000166044
0.000152675
0.0477073
0.000147581
0.000153118
0.000151915
0.0414527
0.000148959
0.00014857
0.0358625
0.0549897
0.0307489
0.000153673
0.04681
0.000147344
0.000148131
0.04234
0.000276218
0.000149616
0.0253084
0.0108351
0.000208879
0.000147532
0.0282457
0.00014991
0.0347721
0.000165746
0.0819768
0.0554264
0.000186301
0.0636531
0.0627027
0.000152631
0.0279146
0.000156082
0.0322284
0.00014667
0.04653
0.0384073
0.00102794
0.000174314
0.015549
0.000566581
0.0481045
0.000161284
0.000149684
0.000208638
0.0127118
0.000156681
0.000166107
0.00021901
0.00014814
0.0283146
0.000147476
0.00017105
0.0452195
0.000164785
0.000149129
0.0532644
0.000149111
0.000150055
0.0417855
0.000145146
0.000175639
0.000171485
0.000146432
0.0774247
0.00018291
0.000146644
0.0719634
0.000146397
0.000322797
0.0721484
0.000148435
0.000147809
0.000149162
0.0256823
0.0222153
0.000188463
0.0359693
0.0146471
0.0107335
0.0452458
0.0201414
0.000146607
0.000164388
0.000258483
0.000298865
0.000147978
0.0397048
0.000153701
0.000199377
0.0323928
0.000149734
0.000148567
0.000154318
0.000148553
0.000148414
0.0179478
0.0464392
0.000178344
0.0323184
0.000151912
0.0655528
0.0297444
0.025592
0.000177845
0.0754648
0.000148308
0.000148115
0.0501947
0.0316847
0.000179277
0.000147513
0.000154055
0.000148016
0.0626095
0.0701688
0.000148766
0.000176759
0.0002253
0.000148127
0.057733
0.0772119
0.000163754
0.000165937
0.000147356
0.00014793
0.0295084
0.000147793
0.000149806
0.00015681
0.00014764
0.00015267
0.000145883
0.000170131
0.0788765
0.00469967
0.0336622
0.000148587
0.000148819
0.000147285
0.0381678
0.000148641
0.0614161
0.00014792
0.000182293
0.0272822
0.000149041
0.000146651
0.000148456
0.000146512
0.000150089
0.000225532
0.000839375
0.000162004
0.0270156
0.000182175
0.000184758
0.00014805
0.000155875
0.000152363
0.00675158
0.000152214
0.066343
0.000159327
0.0551238
0.000165775
0.000162886
0.0394034
0.0410802
0.000153432
0.000170145
0.000165256
0.000145559
0.000148049
0.000149276
0.000148943
0.0194066
0.000146981
0.021206
0.00014854
0.0749935
0.000147443
0.00014896
0.000231902
0.00173985
0.000155199
0.000146811
0.0611356
0.000231722
0.000144982
0.000148453
0.000201567
0.000154047
0.000147925
0.000149142
0.000147413
0.000183718
0.000159593
0.0247762
0.000147546
0.000172672
0.000148121
0.000204712
0.044132
0.000155815
0.000315633
0.000159745
0.000151509
0.00016646
0.000228589
0.000148352
0.000147978
0.0332301
0.000169726
0.000146784
0.000193698
0.060549
0.000146026
0.0189781
0.000147857
0.0494656
0.000192078
0.000155688
0.000302386
0.000165656
0.000186365
0.000183738
0.0658169
0.000149745
0.000149781
0.0497563
0.00119157
0.00014852
0.000239962
0.000150152
0.00200241
0.000147356
0.000145125
0.000147266
0.0732443
0.000149116
0.00016447
0.0412283
0.000164865
0.000164052
0.000229301
0.000150324
0.000160123
0.00028909
0.0100159
0.000146672
0.000147766
0.00014719
0.000236309
0.000150853
0.0173261
0.000206077
0.0144854
0.000149736
0.000195265
0.0186147
0.000203063
0.00867428
0.000149855
0.00015182
0.000166169
0.0563541
0.000151484
0.00014858
0.000149783
0.000326634
0.0310999
0.0342915
0.0525532
0.0495988
0.000153179
0.0480492
0.000146277
0.00014974
0.000148082
0.000159754
0.000150062
0.0757877
0.0305078
0.000148583
0.0541763
0.0246377
0.000287255
0.0535488
0.000147038
0.0435557
0.0167674
0.000156742
0.000145413
0.000147381
0.0479733
0.000163094
0.000149925
0.000186671
0.0662141
0.0236424
0.0615761
0.0233126
0.000151344
0.000150246
0.0379353
0.000148264
0.000144932
0.0563105
0.000152011
0.000152113
0.000173524
0.000160991
0.000149253
0.000171082
0.0109065
0.0582935
0.000161433
0.0509403
0.000394142
0.0507498
0.0453568
0.000148854
0.000147363
0.000991048
0.0136252
0.000175018
0.0619464
0.000935137
0.000153844
0.000147744
0.0177107
0.00023822
0.000193423
0.000146368
0.00024678
0.000182109
0.000148323
0.00023553
0.00015079
0.000148871
0.00014841
0.000146395
0.0303622
0.000224006
0.000166994
0.000153869
0.000158647
0.000147897
0.000149084
0.0433833
0.0536228
0.000149689
0.016032
0.000148107
0.0722134
0.000217338
0.02336
0.000186126
0.000145854
0.0104444
0.000147291
0.02516
0.0709947
0.0397092
0.0179142
0.000148376
0.000149442
0.000147149
0.000147719
0.000171976
0.000145936
0.000153794
0.00015181
0.000215584
0.000148084
0.00014787
0.0713689
0.000148769
0.00016555
0.000146264
0.000148621
0.000465142
0.000148074
0.000155124
0.000148761
0.000276756
0.00615651
0.000147213
0.00014738
0.000153933
0.000295776
0.000152383
0.0380518
0.0419516
0.0443361
0.000150012
0.0191305
0.000146011
0.000240116
0.000146483
0.0319538
0.000192858
0.000181612
0.000169197
0.000147703
0.000147505
0.000146625
0.0240199
0.000184702
0.0624005
0.000303256
0.000147863
0.0186812
0.000145302
0.000159631
0.00014951
0.0248004
0.000145433
0.000152695
0.000193554
0.000149793
0.0128214
0.000149763
0.000154644
0.000147212
0.000145666
0.000147625
0.000149554
0.00636801
0.000168637
0.0709818
0.000148092
0.00015238
0.0892924
0.000293961
0.000156203
0.0717393
0.000160398
0.000144683
0.000148259
0.000166584
0.00014981
0.0733082
0.000199684
0.0179046
0.000148066
0.000210508
0.000148816
0.000147948
0.0595853
0.000145056
0.000148349
0.0167566
0.000149543
0.000152162
0.000149307
0.000169998
0.0227437
0.000268015
0.0324801
0.000162044
0.000148398
0.000150819
0.00415256
0.000149828
0.000147439
0.00014701
0.000154907
0.00631258
0.000149034
0.000148637
0.000172041
0.000148066
0.00029468
0.0220065
0.000153332
0.0469814
0.000258286
0.000169914
0.000147693
0.000186169
0.000163781
0.000498847
0.000190013
0.000145587
0.000148489
0.000148884
0.000150305
0.000148603
0.0001464
0.000149582
0.0110691
0.000164498
0.000146199
0.000148946
0.0572182
0.0159887
0.000155579
0.000185352
0.000148013
0.000150794
0.000181007
0.000211973
0.000174358
0.00247021
0.0685397
0.000151228
0.000150384
0.00396763
0.000148021
0.00014794
0.000149216
0.000152659
0.000178288
0.0305069
0.000164358
0.0200469
0.0164006
0.000147768
0.000160807
0.000160295
0.0489374
0.0452436
0.000148414
0.000200232
0.000231965
0.0432343
0.000180255
0.000146725
0.000149349
0.00872264
0.000151508
0.00016811
0.0628745
0.0460297
0.000201535
0.000148358
0.0587172
0.000148018
0.000149688
0.0746491
0.0497812
0.000206371
0.00931091
0.0360598
0.000186062
0.000145317
0.000149162
0.000147462
0.000148252
0.0429398
0.0280735
0.000147676
0.000144661
0.000149527
0.00015263
0.0410753
0.000161622
0.000145904
0.000143599
0.0399629
0.000169391
0.0123208
0.000144772
0.000153485
0.000152947
0.000145748
0.000146602
0.000160258
0.00016898
0.00019785
0.0613479
0.000197163
0.048129
0.000190985
0.0496978
0.000183
0.000181671
0.000285622
0.000147286
0.000147436
0.0236345
0.0486813
0.000313836
0.0543612
0.035549
0.00758602
0.0312489
0.0158282
0.000148494
0.000147976
0.000208809
0.000151792
0.000147517
0.000199308
0.000169443
0.0401343
0.000208105
0.0900084
0.0241762
0.000150135
0.000206934
0.00015931
0.000147349
0.000148073
0.000181786
0.0331791
0.0118582
0.0189168
0.000146607
0.000149796
0.000163062
0.000148282
0.0832482
0.000216866
0.00314208
0.000201991
0.000147705
0.000153105
0.000163873
0.0147836
0.000150893
0.0015339
0.000150336
0.000158463
0.000207057
0.055479
0.000169513
0.000174369
0.0318114
0.000173137
0.000145863
0.0198192
0.000148264
0.0319398
0.000147419
0.000163494
0.000163971
0.000193403
0.000167953
0.000148457
0.0552429
0.000166502
0.028742
0.0417766
0.000604471
0.00014865
0.000169297
0.00132181
0.000151771
0.000150842
0.056294
0.0112262
0.000148608
0.000149094
0.000149365
0.021535
0.000148703
0.0412626
0.000221708
0.0133134
0.000168897
0.000201444
0.000149836
0.000168187
0.000146054
0.0588387
0.000163253
0.000149496
0.000148495
0.0348445
0.0648275
0.000148643
0.0179689
0.00014871
0.000148767
0.000163558
0.0781
0.000154754
0.00016418
0.000153193
0.000154555
0.000247029
0.0296497
0.026897
0.000177688
0.000150603
0.000185022
0.000105138
0.0313884
0.0785438
0.00018143
0.000174123
0.000148646
0.000178803
0.0123918
0.000148513
0.000156116
0.000197115
0.000148869
0.000148403
0.000204909
0.000162788
0.000148339
0.00015492
0.000152792
0.0129404
0.000147013
0.000145001
0.00016032
0.000228052
0.000231216
0.000152146
0.00676898
0.000148067
0.000147859
0.055146
0.0315903
0.012989
0.000184659
0.000214804
0.0124117
0.000164059
0.000149103
0.000148528
0.000181442
0.000163922
0.000149286
0.000156702
0.000148383
0.000153948
0.0635847
0.0724875
0.0003089
0.0529575
0.000149497
0.000169292
0.0127524
0.000146579
0.000371602
0.00014862
0.000145506
0.000164663
0.00014608
0.000149492
0.000154094
0.000148841
0.000163531
0.000231856
0.000147815
0.000187699
0.00288503
0.0324765
0.019438
0.00014815
0.000149109
0.0454246
0.0299069
0.000191692
0.000173845
0.0609702
0.000204728
0.0769522
0.00014797
0.000159026
0.0396959
0.000148387
0.000174844
0.000185721
0.000189989
0.000164265
0.000147446
0.00014577
0.00014851
0.000154272
0.0275613
0.0316822
0.000150515
0.0580635
0.00797123
0.00014732
0.000156243
0.0442777
0.0568856
0.000148578
0.0615183
0.000168834
0.0477398
0.000152769
0.000151632
0.0289562
0.00015965
0.0261422
0.000197377
0.00018727
0.000224667
0.0797847
0.000224663
0.00014819
0.075695
0.0622986
0.000150337
0.000160508
0.000151363
0.000227075
0.000149736
0.000147322
0.00014873
0.000160634
0.000156343
0.000265388
0.000160964
0.0134479
0.00560961
0.0640883
0.0585292
0.000147725
0.000159918
0.00014803
0.000163612
0.000146839
0.000148956
0.0476014
0.0168859
0.000147344
0.000148377
0.00022622
0.0282681
0.000149487
0.000181785
0.000148275
0.00015311
0.000148023
0.0437275
0.000151222
0.000147117
0.000147679
0.068839
0.021274
0.000179757
0.000161489
0.000149325
0.0344581
0.000155098
0.0716007
0.0481869
0.00617212
0.000175528
0.000147425
0.0389735
0.000161033
0.000150233
0.000146744
0.000148993
0.0216453
0.000146534
0.000148039
0.000149781
0.000164278
0.000147631
0.0285193
0.00015873
0.0415267
0.000173752
0.0377404
0.0270625
0.0890774
0.000148209
0.000151285
0.0198618
0.0736986
0.000334411
0.0112892
0.000170584
0.000155051
0.000152522
0.0154752
0.000146546
0.000205033
0.0217541
0.000147999
0.0670378
0.000491223
0.0143391
0.000149845
0.000159236
0.000171047
0.000147357
0.000161258
0.000145938
0.000147879
0.0465631
0.0294564
0.0198698
0.000149855
0.000146045
0.000147966
0.0587176
0.000144864
0.0377101
0.0342935
0.0222768
0.000146969
0.00015916
0.000148884
0.000147915
0.000146035
0.0396465
0.000147351
0.0397985
0.000180431
0.0265975
0.000146484
0.00016262
0.000267874
0.000155508
0.0629795
0.000797776
0.0482373
0.000148017
0.0350494
0.0244831
0.000147589
0.0456905
0.0085225
0.00014786
0.0280409
0.0395117
0.0670897
0.000182775
0.000148155
0.000166721
0.0114414
0.000194985
0.000148085
0.0250568
0.000179867
0.000164383
0.0329617
0.000212195
0.0348418
0.000149841
0.000154188
0.000215639
0.0455681
0.0344575
0.0355755
0.000167638
0.0361263
0.00020785
0.000210347
0.000152392
0.000146848
0.000151546
0.0270925
4.37257e-05
0.0270875
0.00949659
0.000164496
0.000158434
0.0514121
0.000208073
0.000147026
0.00283035
0.000146226
0.000163543
0.000147834
0.000163349
0.000311869
0.000150736
0.000588587
0.000177371
0.000149929
0.000151702
0.000188958
0.000149631
0.000147239
0.0732418
0.000148328
0.000219209
0.0263025
0.000169672
0.000147412
0.0567382
0.000146728
0.0299535
0.00020675
0.000148236
0.000149853
0.000149296
0.000149048
0.00014836
0.000150014
0.000150616
0.000149226
0.0297288
0.000151927
0.000146888
0.000149028
0.000146028
0.0559317
0.072013
0.000197088
0.000148414
0.000151561
0.0132755
0.000191868
0.000159845
0.000148185
0.000149065
0.000145967
0.0723241
0.0356101
0.000162548
0.0348765
0.0326712
0.000281045
0.0568238
0.0316372
0.000147341
0.0178142
0.0278353
0.000166227
0.000147809
0.0231382
0.000148503
0.00941727
0.000163762
0.000177139
0.000157565
0.031612
0.0456932
0.000170465
0.0360535
0.000181157
0.000147922
0.000194419
0.000187392
0.000203167
0.000149506
0.000165963
0.000153334
0.0164475
0.000286911
0.000147513
0.000145661
0.000212157
0.000144415
0.000160397
0.000410875
0.000201449
0.0721484
0.0425564
0.000147983
0.0609706
0.000152873
0.0565863
0.000153059
0.00017764
0.000152106
0.000147371
0.000148436
0.000176125
0.000246562
0.000146898
0.000262932
0.000150933
0.0842214
0.046219
0.000196509
0.0521687
0.0191644
0.0748359
0.0168824
0.000167308
0.00016255
0.000160081
0.000148538
0.000144866
0.0625152
0.0720451
0.000148527
0.000145859
0.000147082
0.000148437
0.000184649
0.0250169
0.000148715
0.000172297
0.00022809
0.000157888
0.0201491
0.0236846
0.000361959
0.000153979
0.000161013
0.000149769
0.000145061
0.000148161
0.000166495
0.000147704
0.000155053
0.000153034
0.00022126
0.000148543
0.000149068
0.000152146
0.000146788
0.000147663
0.000186818
0.000170312
0.000169023
0.0483849
0.000146713
0.000190337
0.000204085
0.000146429
0.00021154
0.0691613
0.000149179
0.013229
0.0462497
0.00014637
0.000194976
0.000190413
0.000164532
0.000148353
0.000327915
0.000146805
0.0659787
0.00020769
0.0891418
0.0159644
0.000226092
0.000168406
0.000147469
0.0330728
0.000218811
0.0581261
0.0383459
0.0574043
0.0201295
0.0461163
0.000150023
0.000172176
0.0146271
0.0660686
0.000168544
0.000157595
0.0376281
0.000146026
0.0597168
0.0138033
0.000189955
0.000148149
0.0001701
0.00184844
0.0805565
0.000146036
0.0303272
0.000151372
0.000145319
0.0687797
0.0543334
0.000161679
0.000148024
0.000154704
0.000340752
0.000155912
0.00377402
0.0677011
0.0447233
0.000148685
0.000148596
0.00556461
0.0211109
0.000168234
0.000159825