/*--------------------------------*- C++ -*----------------------------------*\
| =========                 |                                                 |
| \\      /  F ield         | OpenFOAM: The Open Source CFD Toolbox           |
|  \\    /   O peration     | Version:  v2012                                 |
|   \\  /    A nd           | Website:  www.openfoam.com                      |
|    \\/     M anipulation  |                                                 |
\*---------------------------------------------------------------------------*/
FoamFile
{
    version     2.0;
    format      ascii;
    class       volScalarField;
    location    "300";
    object      k_0;
}
// * * * * * * * * * * * * * * * * * * * * * * * * * * * * * * * * * * * * * //

dimensions      [0 2 -2 0 0 0 0];


internalField   nonuniform List<scalar> 
18166
(
0.0001582
0.000147294
0.000149797
0.000189119
0.000537345
0.000160514
0.000146603
0.00646133
0.0448531
0.000378881
0.000148226
0.000147918
0.0126914
0.000213598
0.0864821
0.000217279
0.000148725
0.000438906
0.00014802
0.0221868
0.000188304
0.000148729
0.00018772
0.000148383
0.000147192
0.000146621
0.000157022
0.00015888
0.000148337
0.000190431
0.00870902
0.00014466
0.000147989
0.000147827
0.000144249
0.000148174
0.0473039
0.000148209
0.000146752
0.00035847
0.00014971
0.0170409
0.000148033
0.000148358
0.000158381
0.000148818
0.000191542
0.00545569
0.000226052
0.000156571
0.000172664
0.000171517
0.000192787
0.000149529
0.000148268
0.0302077
0.0182726
0.00266159
0.000151271
0.000155572
0.000171999
0.000157231
0.0302212
0.000159952
0.000231158
0.000148457
0.0411056
0.0550509
0.0538427
0.000161223
0.000144267
0.000149706
0.000158093
0.000153095
0.00060438
0.000218167
0.00019114
0.044309
0.000154884
0.000148387
0.000149682
0.0614214
0.000148424
0.000148221
0.000145172
0.00015233
0.000155919
0.000147418
0.000171875
0.000146637
0.016068
0.000160339
0.00724637
0.000149834
0.000149659
0.000152564
0.000145019
0.000165792
0.000152584
0.000158844
0.000147859
0.000148846
0.0835628
0.000160007
0.000161312
0.000148905
2.77238e-05
0.000417117
0.000152578
0.000148397
0.00534184
0.0509518
0.056242
0.0416087
0.000148921
0.000147114
0.000166473
0.0123389
0.000149076
0.0345233
0.000348303
0.000148398
0.000247416
0.0773736
0.000197024
0.00014801
0.000148951
0.0114857
0.000156287
0.000160944
0.000201805
0.0236406
0.000154985
0.0429695
0.00015545
0.000190778
0.000148245
0.000147065
0.000155224
0.0158489
0.0392557
0.000233734
0.000158663
0.0414585
0.000152445
0.0593372
0.0101288
0.0750416
0.000148539
0.000156948
0.000144997
0.0429549
0.000866005
0.000196656
0.000149645
0.000148435
0.000149875
0.0248589
0.000148284
0.0111844
0.000145503
0.0536924
0.000154949
0.000146551
0.000172267
0.000198122
0.000148927
0.0403496
0.0647476
0.00307198
0.000210335
0.0361879
0.000160643
0.0551112
0.0158094
0.000147936
0.000181747
0.0517336
0.000147169
0.000147451
0.000148929
0.000160426
0.00017371
0.00018142
0.0534506
0.000146927
0.00016505
0.000188069
0.000148136
0.000146918
0.0001733
0.000148016
0.000170826
0.000148244
0.000160161
0.0133107
0.000160034
0.000159907
0.013906
0.000421908
0.000209569
0.0502811
0.000148085
0.0738283
0.000148588
0.000171774
0.0648355
0.0256387
0.000489777
0.0052159
0.000492882
0.0412455
0.000147235
0.000148602
0.000173286
0.000159929
0.000260404
0.00016617
0.0681953
0.0583128
0.000154465
0.000147672
0.000146957
0.000161321
0.0110525
0.000146627
0.0001654
0.000146802
0.000151341
0.000148025
0.018685
0.0568461
0.000152968
0.0272086
0.000147949
0.000152058
0.000172524
0.000169828
0.0484679
0.0462021
0.000170904
0.0568278
0.0249119
0.00015523
0.053393
0.000148801
0.000189581
0.0554602
0.0450265
0.000151127
0.000158491
0.000148924
0.000148495
0.000156058
0.0407043
0.00606476
0.000148638
0.0616872
0.00355472
0.000146506
0.000148523
0.0261837
0.000171375
0.000225576
0.0016607
0.0639794
0.0477872
0.000153045
0.000149741
0.000159369
0.000156808
0.000148618
0.000147255
0.0808413
0.000172527
0.0319158
0.0480137
0.00014671
0.000205844
0.000144809
0.000188554
0.0442099
0.000153002
0.000150037
0.000153928
0.000173616
0.00015742
0.000150244
0.0497637
0.000149005
0.000158943
0.000189108
0.000153783
0.000148622
0.000152865
0.0148441
0.000146545
0.000148695
0.000146574
0.0454035
0.0419026
0.000148397
0.000149248
0.00014722
0.0708498
0.000148018
0.0296386
0.000202275
0.000148432
0.000146981
0.000154589
0.000208403
0.0271678
0.000155038
0.000149003
0.000460812
0.000165886
0.000153876
0.000148537
0.000278833
0.000147572
0.000152349
0.0537256
0.000170876
0.00015969
0.00015624
0.000150306
0.000148012
0.000145877
0.0566108
0.000147043
0.0415151
0.000150118
0.000148149
0.000765516
0.0456402
0.000220201
0.0640092
0.0190267
0.0614446
0.000148672
0.0412996
0.000281378
0.0234785
0.000151838
0.000148319
0.000146648
0.000155197
0.000149911
0.000168922
0.000151548
0.000188688
0.000148706
0.000147053
0.000164933
0.00015602
0.000165438
0.000170562
0.000148304
0.000145841
0.000147519
0.062004
0.0101113
0.000148669
0.000146577
0.000148109
0.00014978
0.000172338
0.000149798
0.0515795
0.000360398
0.000147295
0.000147574
0.000335458
0.0526428
0.00109268
0.0223589
0.000149616
0.000171126
0.00022333
0.000148172
0.0177162
7.21731e-05
0.000157041
0.000152764
0.000148092
0.000148469
0.000149821
0.0501557
0.00014806
0.000144353
0.000156764
0.000146319
0.050472
0.000230859
0.000149578
0.000148787
0.00601366
0.000146725
0.000146784
0.000149225
0.000213758
0.0471931
0.000149792
0.0631708
0.000151665
0.000148002
0.0308748
0.036398
0.00014963
0.0627149
0.00629032
0.000160782
0.0550749
0.000154475
0.000158331
0.000172912
0.000180285
0.000143952
0.000148566
0.000150253
0.000148011
0.000225816
0.000152599
0.000211935
0.000149776
0.000233336
0.000147802
0.0110124
0.00803594
0.00015392
0.000195196
0.000160139
0.000150302
0.000171579
0.0483356
0.0624843
0.000149273
0.0461457
0.000166308
0.000146055
0.0778176
0.0483539
0.000147663
0.0527659
0.0438115
0.000148496
0.00763797
0.000173319
0.000147919
0.000160974
0.0796565
0.0085318
0.000173331
0.0431956
0.000446906
0.000262113
0.000181727
0.000146218
0.00994182
0.000148
0.000148364
0.00020203
0.0516822
0.000150792
0.000149502
0.00016597
0.000154287
0.000148744
0.000146639
0.000145204
0.000165531
0.0335315
0.000147556
0.000188684
0.000149846
0.0346082
0.000148601
0.000147957
0.000181455
0.0871152
0.000164687
0.0650811
0.000147817
0.000147904
0.0577576
0.0527844
0.000170132
0.000150585
0.000177001
0.000175091
0.000149245
0.000148959
0.000149552
0.000151267
0.0573503
0.0580652
0.000148328
0.000150219
0.000168302
0.0143494
0.00745688
0.000144345
0.000150675
0.000421486
0.000148473
0.000148926
0.000148456
0.000146068
0.000174179
0.000188043
0.000266286
0.000182647
0.000148325
0.000204564
0.000147197
0.000149828
0.0452561
0.000278984
0.000164449
0.0623122
0.0578712
0.0844975
0.055953
0.000192972
0.0579441
0.0236831
0.000192893
0.0219785
0.000147933
0.000165416
0.00015117
0.000152606
0.000167404
0.000124275
0.00015109
0.000271742
0.0692086
0.000169745
0.000149667
0.000148275
0.000336123
0.0491439
0.0677295
0.000144793
0.000245117
0.0110804
0.000149648
0.00015161
0.000148101
0.000153149
0.0304648
0.00642026
0.000149515
0.0675877
0.000148699
0.0456229
0.00015557
0.000148911
0.000157469
0.0121521
0.000147145
0.000148195
0.0362325
0.0616452
0.000175863
0.0797621
0.000150473
0.000148466
0.000149181
0.0278498
0.000168444
0.0143043
0.000159793
0.000271817
0.0684636
0.00017243
0.00209732
0.000150532
0.0130737
0.000145927
0.000174489
0.0594214
0.000167844
0.000154889
0.0600693
0.0104085
0.000148202
0.0499494
0.000148011
0.000149605
0.00512075
0.0540821
0.000149545
0.000148533
0.000145188
0.000536362
0.0488988
0.00014815
0.000213775
0.000153166
0.000149818
0.000147849
0.000176605
0.000206785
0.000155391
0.0581843
0.000148655
0.000147032
0.0467469
0.00963316
0.000254945
0.0203619
0.000340879
0.000148992
0.0127398
0.0590667
0.000152464
0.000521757
0.00016791
0.000154629
0.000164232
0.0482386
0.000154274
0.0001803
0.00015085
0.00016
0.010993
0.000148224
0.0620722
0.000174896
0.000163669
0.000160742
0.000146162
0.000150947
0.0321554
0.000148266
0.000148737
0.00018938
0.000146036
0.000171674
0.000149976
0.00020131
0.000148969
0.000160531
0.000145886
0.00699591
0.0202865
0.000499382
0.000150966
0.0168304
0.0565341
0.000173086
0.000148124
0.0521642
0.000149224
0.00944013
0.000148279
0.000167147
0.0437057
0.0116854
0.00955836
0.00177501
0.0543002
0.000144154
0.0203933
0.000147398
0.00015551
0.000152319
0.000148047
0.000148263
0.0371617
0.000185613
0.00015026
0.0708404
0.0337437
0.000162755
0.000144208
0.000154433
0.000149739
0.000146697
0.000146018
0.000147957
0.000193085
0.000156867
0.0842813
0.0257715
0.0279426
0.0217413
0.000177605
0.00015409
0.000149023
0.0546583
0.00014706
0.0367068
0.0441742
0.000146019
0.000161106
0.0523198
0.0749137
0.0610128
0.000160953
0.000153843
0.000147103
0.0414605
0.0252769
0.0745318
0.000167687
0.00182479
0.010817
0.000167133
0.029265
0.0284532
0.000176267
0.000147846
0.0213956
0.000189804
0.000183996
0.0561223
0.000146918
0.000204229
0.000167275
0.000146919
0.000243735
0.0672124
0.0318887
0.0514818
0.000157309
0.000159431
0.000148321
0.000174446
0.00026345
0.000155098
0.0431754
0.000147613
0.0721067
0.0541102
0.000156795
0.000152549
0.000149784
0.000159299
0.000149695
0.0444944
0.000198896
0.000505164
0.000146557
0.000146858
0.000147097
0.049035
0.000506036
0.000157931
0.0397204
0.000187886
0.0349354
0.00014831
0.000148902
0.000219002
0.00015094
0.000156679
0.00056677
0.000166272
0.000282368
0.000149473
0.0361332
0.069054
0.000176835
0.000152945
0.000146144
0.000150671
0.000148968
0.000217662
0.000152647
0.000146501
0.000254883
0.00015079
0.0267905
0.000178361
0.00016038
0.000147346
0.0500027
0.000147272
0.000156863
0.0275138
0.000168314
0.000147914
0.000179628
0.0723992
0.000147415
0.000148522
0.000147898
0.000163028
0.0105321
0.000148182
0.0273972
0.000149728
0.00939384
0.0435365
0.013919
0.0151656
0.000165201
0.000159782
0.000206782
0.000147444
0.0678218
0.000147402
0.000146654
0.000144992
0.000148749
0.0446855
0.000147754
0.000148314
0.000149108
0.000146479
0.000209814
0.00015082
0.0105757
0.000147827
0.000149035
0.000148152
0.068751
0.0122983
0.014939
0.000206474
0.000146693
0.055514
0.0528809
0.00015117
0.000147948
0.031121
0.0393485
0.000154101
0.000204061
0.0770463
0.000165734
0.000148149
0.0001792
0.000159875
0.000179413
0.0758014
0.0356044
0.000145744
0.0291632
0.00014687
0.000289528
0.000183687
0.000168719
0.000148046
0.0175316
0.0317201
0.0550086
0.000149139
0.000187283
0.000146141
0.0235996
0.000148271
0.000170052
0.00015066
0.000147126
0.000166811
0.000152364
0.000148475
0.000242359
0.000148562
0.0563256
0.000158799
0.000211256
0.000147946
0.000228494
0.000167225
0.000148356
0.00876576
0.000229872
0.0794711
0.000149056
0.000152925
0.000191633
0.0896898
0.000147929
0.000149852
0.000153836
0.0641562
0.000145163
0.000183684
0.000220547
0.00015079
0.000144571
0.000148972
0.000147278
0.00016665
0.000146062
0.000194038
0.000163937
0.000145668
0.00015222
0.0198116
0.000147511
0.000153652
0.000146767
0.000148311
0.000173242
0.000232594
0.000574163
0.000309826
0.000151884
0.000149685
0.0112698
0.000375201
0.0830157
0.0152761
0.000169343
0.000270669
0.000147872
0.00016021
0.00820439
0.0218268
0.0508274
0.00014863
0.000167371
0.000165648
0.0150302
0.027171
0.00014819
0.000166575
0.000153317
0.000390886
0.02402
0.000453089
0.000146577
0.00474406
0.000149785
0.00014825
0.0456205
0.000149955
0.000151205
0.0014385
0.018611
0.000147256
0.0324453
0.000169197
0.000146758
0.000195187
0.000144583
0.0037038
0.0274001
0.000190232
0.0322541
0.000246374
0.000552913
0.000144858
0.000150679
0.000147734
0.000145068
0.00014502
0.000153601
0.0522559
0.0642624
0.000147785
0.0125373
0.000162928
0.000159742
0.000147946
0.000152128
0.0388744
0.0131387
0.0235593
0.0415713
0.000148509
0.000172133
0.0193043
0.000154897
0.000209508
0.00019089
0.0196139
0.0502734
0.000147804
0.000147502
0.000153918
0.000148338
0.000163375
0.000250445
0.000150839
0.00409469
0.000148683
0.000149867
0.000147045
0.00504515
9.72034e-05
0.00014785
0.000149332
0.00993282
0.000147831
0.0187027
0.000445765
0.000147944
0.000216226
0.000148048
0.0313285
0.000463096
0.049908
0.000200752
0.000148634
0.000189704
0.000217503
0.000151174
0.0108076
0.0205117
0.0440559
0.000149945
0.000171308
0.000152377
0.000149886
0.0758752
0.000336076
0.000169133
0.000193575
0.000145015
0.000204713
0.000165047
0.000149541
0.000165681
0.0122212
0.030101
0.000339889
0.000159528
0.00019219
0.0188511
0.000145114
0.000151607
0.000149769
0.000168659
0.000168904
0.000152461
0.000163186
0.000162477
0.000156591
0.000187967
0.00014829
0.000167487
0.0603929
0.0514186
0.0496037
0.00644273
0.000146626
0.000149681
0.0390229
0.000165871
0.000146573
0.00014788
0.0126363
0.000157258
0.000198037
0.000148871
0.000152278
0.0230922
0.028636
0.00525105
0.000148211
0.0670645
0.000151343
0.000238373
0.0687908
0.000149056
0.000173557
0.000167373
0.0226797
0.0315857
0.000153463
0.000560993
0.0525417
0.00100979
0.000170058
0.0548316
0.000157276
0.00113532
0.000149788
0.000149699
0.000147874
0.000147881
0.000153214
0.000173287
0.000147619
0.000180179
0.00014737
0.00015093
0.0372884
0.000148306
0.00019436
0.0250633
0.0168412
0.00399073
0.000148834
0.000148464
0.000146831
0.000149843
0.0496428
0.000267273
0.000201645
0.0153674
0.024914
0.0001493
0.000160044
0.000152417
0.000149787
0.000160434
0.000149416
0.000157547
0.00014466
0.000148599
0.000150087
0.00014865
0.000203535
0.000190769
0.000154946
0.000496535
0.000147925
0.000148734
0.0585998
0.000160094
0.0415087
0.000201162
0.000194551
0.000203667
0.00675883
0.0180706
0.000148668
0.0495667
0.000154117
0.000467105
0.000165952
0.0680546
0.0429666
0.0366302
0.000159699
0.0323604
0.000148307
0.0001493
0.000147433
0.049491
0.000173282
0.0547752
0.0600002
0.0361175
0.000146561
0.000534397
0.0400862
0.000147238
0.000151394
0.000164241
0.000150468
0.0886968
0.00016013
0.000157009
0.000410543
0.000148439
0.0156643
0.000150858
0.000149789
0.000513544
0.000152067
0.0151026
0.000150101
0.0737211
0.000148408
0.0197967
0.000149701
0.000149417
0.000535044
0.000223133
0.000145955
0.000146878
0.000296224
0.000144716
0.000147235
0.0315825
0.000149631
0.0328717
0.000316339
0.000149382
0.0207607
0.0678617
0.000179998
0.000193741
0.000149311
0.0261803
0.000148529
0.000204466
0.000145472
0.000161677
0.000149952
0.000148582
0.000238327
0.00014885
0.0169315
0.0321409
0.0583183
0.00015175
0.000147625
0.000149429
0.000145241
0.000174927
0.000148271
0.0168284
0.0023942
0.0339624
0.0722133
0.000244388
0.0419916
0.000214396
0.000145639
0.000163754
0.000154565
0.000200409
0.000167007
0.000151988
0.0264923
0.000148488
0.000291706
0.000154795
0.0102621
0.0522798
0.000145135
0.037221
0.0314595
0.000179029
0.000171141
0.000166531
0.0190421
0.000248404
0.0130577
0.000148754
0.0196139
0.00016489
0.0383579
0.0142983
0.000273809
0.000195102
0.00148681
0.000197752
0.00976778
0.000146871
0.0622827
0.000145228
0.000151532
0.000151284
0.000148265
0.000147826
0.000144934
0.000146847
0.000148711
0.0328681
0.0508776
0.000137834
0.00148197
0.000145624
0.000149667
0.000153563
0.000267057
0.000252555
0.000147134
0.000399756
0.000147703
0.000147435
0.000182178
0.057154
0.00015545
0.0549396
0.000152468
0.0287062
0.000147825
0.000182412
0.000154498
0.00035301
0.000148801
0.000148699
0.000162464
0.000512851
0.000147787
0.000147256
0.000161173
0.0428488
0.000169758
0.000149501
0.000175685
0.0569721
0.000160735
0.000180413
0.000155724
0.000163907
0.067359
0.000146183
0.0107298
0.000147924
0.0270577
0.000150217
0.000385136
0.000149215
0.000405835
0.000147967
0.000146453
0.00015555
0.000148693
0.000164935
0.000147263
0.000149845
0.000255384
0.000148058
0.000149214
0.026743
0.000156941
0.00775275
0.000177414
0.0543501
0.00955487
0.0619884
0.000147716
0.000211369
0.00325576
0.000146229
0.0194327
0.000158137
0.000148164
0.0002228
0.000147449
0.0449329
0.000145885
0.000199163
0.0460768
0.000215887
0.000151863
0.0556152
0.000149589
0.000205037
0.000165692
0.000149345
0.0166865
0.0176588
0.0002299
0.035542
0.0295545
0.000171601
0.00361789
0.000229553
0.000189792
0.000145307
0.0238215
0.000155677
0.021308
0.0267486
0.000202461
0.000167548
0.000160793
0.000145592
0.0500221
0.000146989
0.000399091
0.0155817
0.0357522
0.00014647
0.000166357
0.0605377
0.00014731
0.000200391
0.0284363
0.000149546
0.0460374
0.000148749
0.000146213
0.000148404
0.00824589
0.000186628
0.0573493
0.0697285
0.0118252
0.0198328
0.000188508
0.000148136
0.0295751
0.000218316
0.000148296
0.000150307
0.000145848
0.000175376
0.0125999
0.0483627
0.000178423
0.00804751
0.00017264
0.000149725
0.000154546
0.000153812
0.0167439
0.00784408
0.079243
0.000269997
0.000166054
0.000152669
0.047717
0.00014758
0.000153113
0.000151915
0.0414674
0.000148958
0.00014857
0.035912
0.0549753
0.0307565
0.000153681
0.0468213
0.000147343
0.000148131
0.042352
0.000278707
0.000149616
0.0253224
0.010842
0.000209624
0.000147533
0.0282866
0.00014991
0.0347854
0.000165757
0.0820058
0.0554096
0.000186398
0.0636705
0.0626576
0.000152623
0.0279094
0.000156086
0.0322439
0.00014667
0.0465406
0.0384202
0.0010159
0.000174319
0.0155548
0.000563738
0.0479368
0.000161289
0.000149684
0.000209539
0.0127106
0.000156685
0.000166106
0.000218906
0.00014814
0.028309
0.000147476
0.000171026
0.0452159
0.000164784
0.000149129
0.0532097
0.000149111
0.000150052
0.0417938
0.000145146
0.00017579
0.00017148
0.000146432
0.0774592
0.000183056
0.000146645
0.0719298
0.000146397
0.000322183
0.072131
0.000148436
0.000147808
0.00014916
0.0256956
0.0222356
0.000188525
0.0359761
0.0146467
0.0107323
0.045326
0.0201627
0.000146608
0.000164379
0.000258518
0.000285271
0.000147978
0.0397949
0.000153698
0.000199422
0.0323904
0.000149733
0.000148567
0.000154325
0.000148553
0.000148414
0.0179624
0.0463927
0.000178296
0.0323077
0.000151915
0.0655584
0.0297613
0.025618
0.000177887
0.0755189
0.000148307
0.000148115
0.0502032
0.0317008
0.000179335
0.000147513
0.000154058
0.000148015
0.0625877
0.0701512
0.000148773
0.000176748
0.00022544
0.000148127
0.057719
0.0772374
0.000163761
0.000165951
0.000147356
0.00014793
0.0295513
0.000147793
0.000149802
0.000156803
0.00014764
0.00015267
0.000145883
0.000170143
0.078777
0.00469646
0.0336665
0.000148587
0.000148819
0.000147285
0.0381583
0.000148641
0.0613895
0.00014792
0.000182283
0.027295
0.000149048
0.000146651
0.000148456
0.000146512
0.000150091
0.000229127
0.000574486
0.000162003
0.0270304
0.000182054
0.000184743
0.00014805
0.000155892
0.00015236
0.00675075
0.000152217
0.0663462
0.000159329
0.0550065
0.000165756
0.000162862
0.039415
0.0410768
0.000153435
0.000170134
0.000165259
0.000145559
0.000148049
0.000149275
0.000148941
0.0194061
0.000146981
0.0212295
0.00014854
0.0749804
0.000152908
0.00014896
0.000232524
0.00173961
0.000155196
0.00014681
0.0610982
0.00023736
0.000144982
0.000148453
0.000201109
0.000154047
0.000147925
0.000149142
0.000147413
0.000183608
0.000159588
0.0245871
0.000147546
0.000172621
0.000148121
0.000205265
0.0441341
0.000155814
0.000316744
0.000159741
0.000151514
0.000166457
0.000227765
0.000148352
0.000147977
0.0332263
0.000169737
0.000146784
0.000193419
0.060532
0.000146026
0.0189943
0.000147856
0.0494424
0.000192111
0.000155693
0.000300782
0.000165667
0.000186422
0.00018387
0.0658315
0.000149743
0.000149783
0.0497871
0.00118707
0.00014852
0.000240349
0.000150148
0.00200207
0.000147356
0.000145125
0.000147266
0.073274
0.000149116
0.000164473
0.0412382
0.000164873
0.000164048
0.000230159
0.000150327
0.00016011
0.000292492
0.0100146
0.000146672
0.000147766
0.00014719
0.000232593
0.000150858
0.0173257
0.000206931
0.0144848
0.000149736
0.000195223
0.0186227
0.000203095
0.0086972
0.000149856
0.000151822
0.000166167
0.0563018
0.000151481
0.00014858
0.000149783
0.000320101
0.0311406
0.0343291
0.0525418
0.049578
0.000153176
0.0479094
0.000146277
0.000149743
0.000148082
0.000159751
0.000150067
0.0758261
0.0303135
0.000148585
0.0541489
0.0246382
0.000287064
0.0533722
0.000147038
0.0437494
0.0167661
0.000156735
0.000145413
0.00014738
0.0479259
0.000163096
0.000149925
0.000186737
0.0662331
0.0236789
0.0614464
0.0233131
0.000151344
0.000150243
0.0379388
0.000148265
0.000144932
0.0563177
0.000152014
0.00015212
0.000173531
0.000160997
0.000149252
0.000171066
0.0109206
0.0582671
0.000161485
0.0509485
0.000353499
0.0507601
0.0453683
0.000148852
0.000147362
0.000990673
0.0136246
0.000175016
0.0618851
0.000442383
0.000153848
0.000147744
0.0177235
0.000236742
0.000193462
0.000146368
0.000244521
0.0001819
0.000148323
0.000235577
0.00015473
0.00014887
0.000148411
0.000146396
0.0303763
0.000223089
0.000167006
0.000153873
0.000158643
0.000147898
0.000149084
0.0433547
0.0536417
0.000149689
0.0160311
0.000148107
0.0721293
0.000217208
0.0233731
0.000186131
0.000145854
0.0104025
0.000147291
0.02518
0.070946
0.0397129
0.0179251
0.000148377
0.00014944
0.000147149
0.000147719
0.000171965
0.000145937
0.0001538
0.000151806
0.000218029
0.000148083
0.00014787
0.0713232
0.00014877
0.000165557
0.000146264
0.000148621
0.000466252
0.000148074
0.000155126
0.000148762
0.000275505
0.00615428
0.000147213
0.00014738
0.00015393
0.000295385
0.000152385
0.0380647
0.0419639
0.0443489
0.000150015
0.0191648
0.000146011
0.000237267
0.000146483
0.0317897
0.000192917
0.000181638
0.000169198
0.000147703
0.000147503
0.000146625
0.0240399
0.000184407
0.0623554
0.000303316
0.000147863
0.0187058
0.000145302
0.000159629
0.00014951
0.0248082
0.000145432
0.000152684
0.000193462
0.000149793
0.0128206
0.000149763
0.000154647
0.000147212
0.000145666
0.000147625
0.000149554
0.0063677
0.000168635
0.0710103
0.000148092
0.000152377
0.089312
0.000293693
0.000156202
0.071684
0.000160395
0.000144683
0.000148259
0.000166592
0.000149809
0.0732689
0.000199481
0.0179038
0.000148067
0.000210437
0.000148816
0.000147948
0.0595258
0.000145056
0.000148349
0.0167595
0.000149545
0.000152165
0.000149303
0.000169952
0.0227606
0.000281242
0.0324947
0.000162044
0.000148398
0.00015082
0.00415186
0.000149826
0.000147438
0.00014701
0.000154907
0.00631047
0.000149034
0.000148638
0.000172059
0.000148066
0.000294483
0.0220502
0.000153328
0.046977
0.00025861
0.000169926
0.000147692
0.000186151
0.000163766
0.000561475
0.000190041
0.000145587
0.000148489
0.000148884
0.0001503
0.000148603
0.0001464
0.000149582
0.011068
0.000164484
0.000146199
0.000148946
0.0572339
0.016035
0.000155577
0.000185326
0.000148012
0.000150801
0.000180869
0.000214519
0.000174349
0.00247164
0.0685039
0.000151223
0.000150389
0.00396773
0.000148021
0.000147941
0.000149215
0.000152665
0.00017831
0.0305162
0.000164358
0.0200859
0.0165887
0.000147768
0.000160809
0.00016029
0.049123
0.0452526
0.000148414
0.000200304
0.000233423
0.0432456
0.000180241
0.000146725
0.000149347
0.00872143
0.000151509
0.000168128
0.0628973
0.0459494
0.000201925
0.000148358
0.0587272
0.000148018
0.000149688
0.0746683
0.049804
0.000207264
0.00930963
0.0360859
0.000186053
0.000145316
0.000149164
0.000147462
0.000148255
0.0429367
0.0280775
0.000147676
0.000144661
0.000149525
0.00015263
0.0410864
0.000161631
0.000145904
0.000132508
0.039791
0.000169357
0.0123187
0.000144772
0.000153482
0.000152945
0.000145748
0.000146602
0.000160263
0.000168969
0.000197835
0.0613584
0.000197215
0.048215
0.00019122
0.0496776
0.000183125
0.000181646
0.000284522
0.000147286
0.000147435
0.0236542
0.0484982
0.000314215
0.0543806
0.0355613
0.00758683
0.0312657
0.0158276
0.000148494
0.000147976
0.000209319
0.000151796
0.000147517
0.000198867
0.000169437
0.0401917
0.000209156
0.0900201
0.0241957
0.000150129
0.000207007
0.000159309
0.000147348
0.000148073
0.000181865
0.0332994
0.0120329
0.0189159
0.000146607
0.000149802
0.000163061
0.000148281
0.0832876
0.000216417
0.00318618
0.00020214
0.000147705
0.000153107
0.000163875
0.0147796
0.000150894
0.00464946
0.000150336
0.000158466
0.000207007
0.0555564
0.000169467
0.000174382
0.0318135
0.00017314
0.000145863
0.0198412
0.000148264
0.031949
0.000147419
0.000163495
0.00016396
0.000193318
0.000167937
0.000148454
0.0551989
0.000166479
0.0287426
0.0418771
0.000609468
0.00014865
0.000169291
0.00136871
0.00015178
0.000150841
0.0563146
0.0112262
0.00014861
0.000149094
0.000149365
0.0215316
0.000148703
0.0412756
0.000223105
0.0131606
0.000168885
0.000201388
0.000149836
0.00016817
0.000146054
0.0589256
0.000163245
0.000149501
0.000148495
0.0348858
0.064907
0.00014864
0.0179724
0.00014871
0.000148767
0.000163542
0.0780974
0.000154752
0.000164171
0.000153179
0.000154549
0.000252151
0.0296495
0.0268982
0.000177624
0.000150606
0.000184919
0.000100606
0.0314037
0.0784403
0.000181527
0.000174119
0.000148647
0.000178736
0.0124091
0.000148513
0.000161159
0.000197112
0.000148869
0.000148403
0.00020476
0.000162793
0.00014834
0.000154915
0.000152793
0.012965
0.000147013
0.000145001
0.000160324
0.000230126
0.000226038
0.000152145
0.00676828
0.000148067
0.000147858
0.0550821
0.031593
0.0129871
0.000184782
0.000214896
0.012414
0.000164078
0.000149099
0.000148528
0.000181394
0.000163891
0.00014929
0.000156702
0.000148383
0.000153946
0.063518
0.072516
0.000311119
0.0529646
0.000149499
0.000169315
0.0127518
0.000146579
0.000371946
0.000148619
0.000145506
0.000164663
0.00014608
0.000149492
0.000154097
0.000148842
0.000163493
0.000230927
0.000147815
0.000187868
0.0028857
0.0323266
0.0193945
0.00014815
0.000149111
0.0454371
0.0299117
0.000191615
0.00017398
0.0609541
0.000204748
0.0769352
0.000147969
0.000159029
0.0395849
0.000148387
0.000174912
0.000185695
0.000190077
0.000164268
0.000147446
0.00014577
0.00014851
0.000154268
0.0275877
0.0316962
0.000150518
0.0580534
0.00797038
0.00014732
0.00015623
0.0443046
0.0568693
0.000148578
0.0614738
0.000168861
0.0477238
0.000152768
0.000120984
0.0289864
0.000159613
0.0261597
0.000198364
0.000187242
0.00022437
0.0796918
0.000224508
0.000148193
0.075706
0.0622846
0.000150338
0.000160511
0.000151361
0.000226367
0.000149736
0.000147322
0.000148731
0.000160636
0.000156337
0.000152033
0.00016096
0.0134451
0.00561108
0.0641126
0.0585078
0.000147725
0.000159915
0.00014803
0.000163603
0.000146839
0.000148956
0.0475904
0.0169888
0.000147344
0.000148377
0.000226043
0.0282743
0.000149488
0.000181849
0.000148275
0.000153112
0.000148023
0.0437358
0.00015122
0.000147116
0.000147679
0.0689031
0.0213247
0.000179673
0.000161471
0.000149329
0.0344741
0.000155107
0.0715898
0.0481757
0.00613239
0.000175515
0.000147425
0.0387769
0.000161038
0.000150231
0.000146744
0.000148993
0.0216618
0.000146534
0.000148039
0.000149781
0.000164282
0.000147631
0.0285322
0.000158736
0.0415266
0.000173776
0.0377557
0.0270677
0.0890987
0.000148209
0.000151284
0.0198612
0.073615
0.000291872
0.0112936
0.000170583
0.000155062
0.00015251
0.015434
0.000146546
0.000205022
0.0217733
0.000147998
0.0670052
0.000476718
0.0143392
0.000149845
0.000159237
0.000171075
0.000147354
0.000161266
0.000145939
0.000147879
0.0465633
0.0294544
0.0198685
0.000149857
0.000146045
0.000147967
0.058696
0.000144863
0.0376965
0.0343093
0.0223004
0.000146969
0.000159166
0.000148884
0.000147914
0.000146035
0.0394713
0.000147351
0.0397983
0.000180375
0.0265982
0.000146483
0.000162622
0.000270712
0.000155511
0.0629849
0.000731136
0.0482493
0.000148017
0.0350594
0.0245024
0.000147588
0.0456999
0.00852173
0.00014786
0.0280561
0.039511
0.0670543
0.000182823
0.000148153
0.000166735
0.0114451
0.000194741
0.000148085
0.025071
0.000179824
0.000164375
0.0329643
0.000212221
0.034838
0.000149841
0.000154188
0.000215463
0.045484
0.0342784
0.03559
0.000167628
0.0361418
0.000206733
0.000209536
0.000152392
0.000146848
0.000151543
0.0270965
4.02573e-05
0.0270448
0.00949543
0.000164502
0.000158439
0.051357
0.000208995
0.000147026
0.0028301
0.000146226
0.000163543
0.000147834
0.000163353
0.000314694
0.000150738
0.000587145
0.000177477
0.000149927
0.000151699
0.000188932
0.000149628
0.000147241
0.0732624
0.000148325
0.000219532
0.0263129
0.00016969
0.000147412
0.0567063
0.000146728
0.0300379
0.000206873
0.000148236
0.000149853
0.000149295
0.000149048
0.00014836
0.000150017
0.000150616
0.00014923
0.029741
0.000151937
0.000146888
0.000149024
0.000146028
0.0559421
0.0719984
0.000197095
0.000148414
0.000151562
0.0132777
0.000191899
0.000159845
0.000148185
0.000149065
0.000145967
0.0722718
0.0356241
0.000162548
0.034892
0.0326847
0.000278038
0.0567943
0.0315575
0.000147339
0.017854
0.027864
0.000166222
0.000147809
0.0231385
0.000148504
0.00941666
0.000163757
0.000177142
0.000157564
0.0316541
0.0456918
0.000170489
0.0360687
0.000181188
0.000147922
0.000194255
0.000187374
0.000203101
0.000149504
0.000165965
0.000153336
0.0164458
0.000286223
0.000147512
0.000145661
0.000213195
0.000144415
0.000160372
0.000410934
0.0002015
0.0721578
0.0425618
0.000147983
0.0609283
0.000152874
0.0565708
0.000153053
0.000177585
0.000152104
0.000147371
0.000148436
0.000176109
0.00024677
0.000146898
0.000263292
0.000150937
0.0842732
0.0461227
0.000196576
0.0521558
0.0191847
0.0748669
0.0169047
0.00016727
0.000162534
0.000160056
0.000148537
0.000144865
0.0624681
0.0720161
0.000148527
0.000145859
0.000147082
0.000148437
0.000184705
0.0250162
0.000148716
0.000172287
0.000231201
0.000157878
0.0199712
0.0237284
0.000353817
0.000153973
0.000161016
0.000149769
0.000145061
0.000148161
0.000166475
0.000147706
0.000155043
0.000153034
0.000223179
0.000148543
0.000149068
0.000152149
0.000146788
0.000147662
0.000186881
0.000170292
0.000169042
0.0483349
0.000146713
0.0001903
0.000203894
0.000146429
0.000211817
0.0691889
0.000149179
0.0132269
0.0460651
0.00014637
0.000194983
0.000190421
0.000164527
0.000148354
0.000329022
0.000146804
0.0659875
0.000207757
0.0891585
0.0159636
0.000225701
0.000168401
0.000147467
0.0330781
0.000218771
0.0580765
0.0383469
0.057396
0.0201551
0.046125
0.000150023
0.000172198
0.014626
0.0660926
0.000168521
0.000157602
0.0374757
0.000146026
0.0596261
0.01382
0.000190036
0.00014815
0.000170103
0.00184647
0.0804947
0.000146037
0.0303861
0.000151378
0.000145319
0.0686837
0.0543281
0.000161656
0.000148024
0.000154706
0.00034063
0.000155906
0.0037739
0.0677266
0.0448032
0.000148686
0.000148596
0.00556267
0.0211452
0.000168185
0.000159809
0.000163408
0.0269829
0.000230803