/*--------------------------------*- C++ -*----------------------------------*\
| =========                 |                                                 |
| \\      /  F ield         | OpenFOAM: The Open Source CFD Toolbox           |
|  \\    /   O peration     | Version:  v2012                                 |
|   \\  /    A nd           | Website:  www.openfoam.com                      |
|    \\/     M anipulation  |                                                 |
\*---------------------------------------------------------------------------*/
FoamFile
{
    version     2.0;
    format      ascii;
    class       volScalarField;
    location    "300";
    object      nut;
}
// * * * * * * * * * * * * * * * * * * * * * * * * * * * * * * * * * * * * * //

dimensions      [0 2 -1 0 0 0 0];


internalField   nonuniform List<scalar> 
18166
(
0.000214833
0.00671895
0.00672588
0.000310258
4.80926e-05
0.000217541
0.00672685
0.000111123
0.0124951
5.49252e-05
0.00672411
0.00544198
0.00350111
0.000489519
0.0116758
0.000450105
0.00672281
1.71028e-05
0.00485228
0.00286353
0.000249268
0.00672273
0.000257962
0.00672249
0.00672327
0.00672613
0.000215627
0.000873757
0.00302924
0.000302059
0.000712403
0.00672424
0.00343861
0.0067336
0.00672074
0.00672241
0.0132052
0.00672231
0.00676127
3.78126e-05
0.00672551
0.00133845
0.00396593
0.00336299
0.000230519
0.00672274
0.000513523
0.0002469
0.000309994
0.000219997
0.000696344
0.000581534
0.000467369
0.00672482
0.00672416
0.00503789
0.00150487
0.00023867
0.00119666
0.000936993
0.000312836
0.00111336
0.00526115
0.000752867
0.00047511
0.00672263
0.0101222
0.011763
0.00322258
0.000973322
0.00672044
0.00190811
0.000213198
0.000920539
1.0059e-05
2.9598e-05
0.000363646
0.00325118
0.00106341
0.00672236
0.00672566
0.0147548
0.00672242
0.00672365
0.00671976
0.00289587
0.00163224
0.0067207
0.000640342
0.00675847
0.00188466
0.00021728
0.00150631
0.00672603
0.00672534
0.0027353
0.00671914
9.49893e-05
0.000696763
0.000605901
0.00672974
0.00672287
0.0130454
0.000508492
0.00102298
0.006723
1.85727e-05
6.98514e-05
0.000695111
0.00672281
0.000900839
0.014139
0.0141331
0.00777304
0.00672327
0.00678764
0.000108316
0.0032284
0.00189669
0.00784629
3.2142e-05
0.00298431
0.00038546
0.00982929
0.000345874
0.00673248
0.00672301
0.00326014
0.000532402
0.000201248
0.000295717
0.000824369
0.00131922
0.0151377
0.000414074
0.000420228
0.00672246
0.0067222
0.00193798
0.00497916
0.0111167
0.000503714
0.000232105
0.0156698
0.000774802
0.00621881
0.000216098
0.0127178
0.00392946
0.0015129
0.00671878
0.0125097
6.63897e-06
0.000362014
0.00672534
0.0067228
0.00157646
0.00246322
0.00672229
0.00316786
0.00671908
0.013024
0.000820462
0.00672174
0.000640109
3.68716e-05
0.00672293
0.0158004
0.01603
0.000490504
0.000361744
0.00753776
0.000249742
0.0105524
0.00230846
0.00420452
2.04645e-05
0.00877241
0.00671883
0.00672051
0.00672332
0.000284816
4.76739e-05
3.15163e-05
0.00778668
0.00671998
0.000190401
0.000308343
0.00672154
0.00678339
0.000347637
0.00617237
0.000819416
0.00672331
0.000296376
0.00230757
0.000149981
0.000285156
0.00401105
5.54688e-05
0.000325422
0.0128031
0.00563094
0.0126254
0.00245237
0.000573917
0.0163511
0.00277553
7.3291e-05
0.000117742
4.31525e-05
0.0117342
0.0067188
0.00672238
0.000773897
0.000169621
0.000536509
0.000159077
0.0167288
0.0155057
0.000898673
0.0067276
0.00671983
0.000201966
0.00151112
0.00673365
0.000194285
0.00671928
0.00107013
0.00554605
0.00208844
0.0142548
0.00201895
0.0137915
0.00672152
0.00264459
0.000641744
0.000279748
0.0122841
0.00468666
0.00123301
0.0150943
0.00316381
0.00121266
0.0101375
0.0031306
0.000335206
0.0147713
0.0146057
0.00120911
0.000279633
0.00672297
0.00218932
0.000467982
0.0113965
0.00066121
0.00672274
0.0157917
0.0007157
0.00671876
0.00672243
0.0129475
0.000235217
0.000242565
0.000161439
0.0147783
0.0110583
0.00115415
0.0067258
0.000645202
0.000429633
0.00672242
0.00672104
0.0122866
0.000590187
0.00499969
0.00833985
0.00671845
2.30601e-05
0.00671942
0.000380433
0.0113213
0.00092792
0.00373097
0.00139847
0.000203361
0.0021149
0.00201839
0.013842
0.00672352
0.000855545
0.000443671
0.00081431
0.00672279
0.000770363
0.00320126
0.00672788
0.00672245
0.00673158
0.00865728
0.00739835
0.00672234
0.00251653
0.00672115
0.00917205
0.00324166
0.00450901
0.000324746
0.00288267
0.00678788
0.00136706
3.77474e-05
0.00446896
0.000358396
0.00672354
3.84304e-05
3.92089e-05
0.000779719
0.00672242
0.000503375
0.00672792
0.000555183
0.0136583
0.000241983
0.0001831
0.000622445
0.00265551
0.004364
0.00674553
0.0139416
0.00672232
0.0153403
0.00435449
0.00679643
3.01614e-05
0.012682
0.000341507
0.0161008
0.00296714
0.0124342
0.00467952
0.0102753
0.000533956
0.0123643
0.00267092
0.00672323
0.00672853
0.000374352
0.001948
0.00029118
0.00100797
0.000551343
0.00672261
0.00671983
7.33767e-05
0.000894451
7.89298e-05
0.00070653
0.00672355
0.00674366
0.00672056
0.0147074
0.00234601
0.00672276
0.0067247
0.00672636
0.00672572
0.000145734
0.00672583
0.00524099
1.17124e-05
0.00672048
0.00672756
0.000150226
0.0142907
2.70792e-05
0.0115028
0.00672541
0.000635899
0.000431443
0.00550773
0.00653868
4.11338e-05
0.00156397
0.00122605
0.00417771
0.00672252
0.00672582
0.0127825
0.00460593
0.00672024
0.00132205
0.00674557
0.0132591
0.000321185
0.00672534
0.00672272
0.000935659
0.00672479
0.00672398
0.00186756
0.000476252
0.0127979
0.00672586
0.00937756
0.00300419
0.00551734
0.00463949
0.00698732
0.00150413
0.00791678
0.000805558
0.000250403
0.00915118
0.00140963
0.000862075
0.000202042
7.00992e-05
0.00672503
0.00672264
0.00231095
0.00673158
3.05395e-05
0.000958917
3.42511e-05
0.00672583
0.000382201
0.00639899
0.00269674
0.000142994
0.000517577
3.15414e-05
0.000216725
0.00223624
0.00085871
0.0127403
0.0111086
0.00672395
0.00598991
0.000817192
0.00673997
0.00834226
0.0127236
0.00672745
0.0131237
0.0103163
0.00672265
0.000174845
7.7173e-05
0.00610713
0.000106083
0.0118181
0.00152045
0.000747755
0.0148423
5.99497e-05
0.00049355
0.000281672
0.00674283
0.00266809
0.00454491
0.00351684
3.57332e-05
0.00851665
0.00103761
0.00171856
0.000732649
0.00139508
0.00238617
0.00672943
0.00671933
0.000108097
0.00970235
0.00672045
0.000401114
0.00672595
0.00692776
0.00672276
0.00671956
0.000141455
0.0106669
0.000190802
0.0138144
0.00672274
0.00672294
0.0154139
0.00280851
0.000460304
0.00326119
3.87959e-05
4.03587e-05
0.00672421
0.00672307
0.00672521
0.00151239
0.0132169
0.0147375
0.00355196
0.0014004
7.1598e-05
0.00395063
0.000444201
0.00672066
0.00096604
2.34937e-05
0.00239611
0.00672292
0.00672256
0.00672963
0.00048652
3.36047e-05
2.99337e-05
4.75264e-05
0.00672221
0.000312693
0.00672371
0.00672587
0.008932
3.08296e-05
0.000138579
0.0110393
0.014402
0.0117896
0.0151096
0.000230137
0.0150391
0.00305253
0.00040195
0.00327705
0.00632075
7.29731e-05
0.00167186
0.00255002
5.76466e-05
0.00017763
0.000937581
0.000412479
0.0113424
0.000669255
0.00672538
0.00477202
4.33882e-05
0.0132074
0.0152676
0.00672677
0.000461477
0.00295883
0.00117878
0.00288877
0.00672686
0.000604062
0.00108355
0.00130851
0.00672476
0.0162412
0.00672262
0.0143878
0.000963715
0.00223884
0.000704184
0.00303842
0.00679211
0.00672122
0.0103791
0.0159313
0.000200087
0.0122188
0.00326557
0.00672249
0.00672363
0.0133989
6.97508e-05
0.00355525
0.00068365
2.53106e-05
0.0164253
0.000663167
7.13513e-05
0.00129184
0.00241637
0.00672794
4.16119e-05
0.0136975
5.57281e-05
0.00140965
0.0137852
0.00196998
0.00672155
0.00253409
0.00543358
0.00672508
0.000109509
0.0145876
0.00672518
0.00672273
0.00672015
5.24096e-05
0.0124398
0.0067212
0.000322987
0.00114146
0.00402558
0.00672226
0.000238311
0.000376097
0.000767807
0.00333409
0.00672288
0.00672005
0.00794848
0.000458998
0.000435517
0.00195357
5.40175e-05
0.00183682
0.00338179
0.00362001
0.000676822
1.61842e-05
0.000154026
0.00084615
0.000290634
0.0124974
0.000443098
0.000334199
0.0013597
0.000530802
0.00304709
0.00672163
0.0103564
0.000334724
0.000113743
0.000175558
0.00674227
0.00305299
0.00510997
0.00672134
0.00672274
0.000316512
0.00673604
0.000354286
0.00423721
0.00029702
0.00174572
0.000581844
0.00674346
0.000117525
0.00193122
3.10988e-05
0.00164754
0.00190769
0.0152035
4.66202e-05
0.00498575
0.0133217
0.00244809
0.000218906
0.00672333
6.30086e-05
0.00555399
0.00336392
0.000475045
0.000710006
0.0138228
0.00672066
0.00177182
0.00672112
0.000454196
0.000668502
0.00543627
0.00672075
0.00805709
0.000442416
0.00186234
0.0166514
0.00255265
0.000107962
0.00672097
0.000629696
0.00672574
0.00672466
0.00672845
0.00462916
3.22034e-05
0.000741126
0.0095888
0.00627124
0.00416654
0.00451211
3.97542e-05
0.000279656
0.00672317
0.00706387
0.00672252
0.00769995
0.0108305
0.00673784
0.000522083
0.0138424
0.0155154
0.00913323
0.000636352
0.000388017
0.0067485
0.0125352
0.00306368
0.0113741
0.000164643
0.000577831
0.000498488
0.00017159
0.00847363
0.00128059
3.41382e-05
0.00672313
0.00291997
0.000554983
0.000484511
0.014174
0.00673413
0.00044489
5.92885e-05
0.00673522
0.00040858
0.0119044
0.00934818
0.0105737
0.000338258
0.000771603
0.0067209
3.31874e-05
0.000111705
0.000524094
0.0106195
0.00651056
0.0167184
0.0146924
0.00109596
0.000771192
0.00672591
0.00033091
0.00672561
0.0028849
0.000311243
6.47986e-05
0.00672712
0.00673445
0.00674727
0.00201204
6.06791e-05
0.000190184
0.00259139
0.000509197
0.00437319
0.00672306
0.00672258
0.000192149
0.00149091
8.03402e-05
6.45771e-05
7.24421e-05
0.000472967
0.00285282
0.00777129
0.0111202
3.62444e-05
0.00263789
0.0067207
0.00157111
0.00672318
0.000349932
0.000947197
0.00674595
0.000341542
0.00129751
0.0127833
8.70359e-05
0.000214756
0.00672059
0.0133251
0.00679157
0.00141331
0.00826145
7.32677e-05
0.00672307
4.03345e-05
0.0156329
0.0055883
0.00672269
0.00646226
8.02769e-05
0.0027975
0.00672132
0.00327383
0.00672559
0.0024589
0.00409842
0.00345609
0.00527303
0.000122402
0.000716576
3.34653e-05
0.00671968
0.0110965
0.00592667
0.00671991
0.00672964
0.00287078
0.014231
0.00531111
0.00672142
0.00179169
0.00674642
3.19155e-05
0.00145723
0.00247536
0.00672212
0.00672335
0.00672166
0.0114183
0.000726479
0.000218274
2.03783e-05
0.0067199
0.0140107
0.0142676
0.00119046
0.00672673
0.00485717
0.00900039
0.0010169
0.000393052
0.0120832
0.000182036
0.005712
0.000764422
0.000723272
0.000388018
0.0156763
0.00351668
0.00674453
0.00437025
0.00673541
0.000412203
0.0005769
0.000334323
0.00495118
0.00155166
0.00498958
0.00947337
0.00672352
0.000499751
0.00674244
0.0027226
0.00672151
0.0008732
0.002066
0.00672333
7.19601e-05
0.00114968
0.00672278
3.36324e-05
0.00672211
0.0142095
0.000758051
0.000105343
0.00427775
0.000351284
9.27042e-05
0.00306976
0.00227974
0.000513232
0.012095
0.00672328
0.000585287
0.000345645
0.0139524
0.00672727
0.00134635
0.00162028
0.0104472
0.00672593
0.000313367
0.000423521
0.00115789
0.00672203
0.00672282
0.00672083
0.000582603
0.00673763
2.69666e-05
0.000520124
0.00674225
0.00141214
0.00295757
0.00672814
0.000903361
0.00672429
0.00672167
0.000419878
0.000300367
5.00817e-05
0.000268891
0.00216293
0.00230189
0.00259582
4.86212e-05
0.0104162
0.0013509
6.19055e-05
0.000508421
0.00672207
0.000359886
0.00156937
0.00264484
0.0134474
0.0067223
0.000111917
0.000251039
0.00133104
0.00650483
0.0067251
4.5433e-05
0.000595526
3.03702e-05
0.0043993
2.08209e-05
0.00672567
0.00133884
0.0067257
0.00572405
0.0106254
0.00672629
0.00290825
0.00011924
0.0082209
0.00672127
0.00547646
5.56603e-05
0.00677888
3.90045e-05
0.00672154
0.000340176
0.00792731
0.000361668
0.00559766
0.000379142
4.64061e-05
0.00672812
0.0025536
0.0060258
0.00672635
0.00672755
0.00154886
0.0144047
0.0147042
0.00576435
0.00190766
0.000486885
0.000183603
0.00672604
0.00278998
0.00893332
0.0037489
0.00500714
0.00801155
0.00672276
0.00057489
0.00378615
0.00144736
0.000498699
0.000121249
0.00543216
0.0136331
0.00465612
0.00672689
0.00162986
0.00672138
0.000147924
5.28997e-05
0.00296107
0.00100798
0.00672249
0.00672609
0.00673428
0.00102921
6.49051e-05
0.00672193
0.00278944
0.0015332
0.00500455
0.00263008
4.76086e-05
0.0045743
0.000204424
0.00382073
0.00482435
3.62314e-05
0.0135959
0.000148514
0.00672278
0.000426054
2.99896e-05
0.00100988
0.000469311
0.00527875
0.0144157
0.00154303
0.000515431
0.00137571
0.00139428
0.0122535
5.49818e-05
6.90411e-05
0.000310222
0.00672671
0.000376735
0.000435812
0.00296379
9.33989e-05
0.00292839
0.00452806
5.74064e-05
0.000236783
2.99757e-05
0.00241609
0.00672672
0.00212089
0.0067259
5.27991e-05
0.000684184
0.000966939
0.000503375
8.94351e-05
0.00108478
0.000304318
0.00672132
7.11686e-05
0.0152381
0.013948
0.0131763
0.000355114
0.00672456
0.0020668
0.00308574
8.69141e-05
0.00672832
0.00464912
0.00288993
0.000309156
0.000247314
0.00672283
0.00261986
0.00288484
0.0038949
8.651e-05
0.00672548
0.0160766
0.000930454
0.000367266
0.0152622
0.00248506
0.000416198
0.000261883
0.00938509
0.00497
0.00147363
0.000124532
0.00985032
0.000623361
0.000642456
0.0144806
0.000206942
7.72466e-05
0.00672581
0.00672551
0.00672282
0.00672546
0.00181813
0.00116356
0.00672048
0.00011347
0.00672068
0.00162164
0.00743843
0.00672416
0.000426189
0.00271717
0.00633245
0.000442525
0.00300165
0.00369339
0.00672367
0.00672599
0.0128191
0.000405846
0.000411569
0.00232678
0.00723557
0.0021155
0.00030878
0.00157084
0.00672573
0.000607218
0.00314524
0.000278863
0.00672507
0.0067227
0.00141754
0.00672281
0.000288681
0.000270993
0.000978956
2.89257e-05
0.00672522
0.00285018
0.0101647
0.000547789
0.00991962
0.000177062
0.000370643
0.000469411
0.000425253
0.00672598
0.00345102
0.00859359
0.000556861
7.44714e-05
0.000775073
0.01657
0.0105944
0.017029
0.000232141
0.007354
0.0033125
0.00672445
0.0067398
0.0134254
0.000784729
0.0147434
0.0146927
0.0126267
0.00673302
8.4878e-05
0.00891911
0.0067232
0.00282141
0.000354187
0.00135423
0.0139975
0.000550421
0.00104504
5.31649e-05
0.00672248
0.00192407
0.0011083
0.00206624
0.00011614
0.0010629
0.0045642
0.00200953
0.0162334
0.00672152
0.0092386
0.00672571
0.00404032
4.12143e-05
0.000261349
0.00672855
0.00674036
2.36634e-05
0.00672628
0.00672249
0.00584352
0.00127509
0.00740586
0.000492341
0.00672465
0.00293365
0.016078
0.000290274
0.0003444
0.00221486
0.00735806
0.00259676
0.000257055
0.00671926
0.000122513
0.00152831
0.00372741
0.000344871
0.00672275
0.00462552
0.0120104
0.0132022
0.00139066
0.00591825
0.0067248
0.00672542
0.000213947
0.00575273
0.000208436
0.000122753
0.0114828
0.014839
0.000461171
0.0079992
0.000502018
0.00673657
0.000204314
0.00106038
0.000355429
0.000122257
0.00269655
0.0140634
0.00672252
0.00046734
0.000486347
0.000608009
0.0123391
0.00671964
0.00727657
0.0056222
0.000510831
0.000750549
0.000330061
0.00180195
0.000356604
0.00275424
0.00672273
0.00814144
7.88042e-05
0.00722229
0.00149056
9.38157e-05
0.000306667
0.00011558
0.000368993
0.0025174
0.00673925
0.0135527
0.00672599
0.00312183
0.00304179
0.00672437
0.00673008
0.00673057
0.00671958
0.00672278
0.00582519
0.0141217
0.000148992
0.000738038
0.00673528
0.00188812
0.00115517
0.000274423
0.000449546
0.00672326
1.35507e-05
0.0067206
0.0067225
0.00052435
0.00951372
0.000412721
0.0134448
0.00108675
0.0036182
0.00589217
0.00010412
0.000476552
0.000323257
0.00672276
0.0067228
0.000117794
0.000216031
0.00672186
0.00672584
0.00109543
0.00805745
0.000600242
0.00144173
0.000324087
0.00721726
0.000204371
0.000259546
0.000433434
0.000210938
0.0102217
0.00672097
0.00115316
0.00570222
0.00319659
0.00335208
0.000231643
0.00273154
2.6792e-05
0.0067228
0.00672017
0.000368837
0.00672271
0.000306888
0.00672072
0.00672605
3.03284e-05
0.00672864
0.00672365
0.00781351
0.000850296
0.000888213
0.000242348
0.0145688
0.000600684
0.0159706
0.00603682
0.000453028
0.000309556
0.006721
0.00848682
0.000814862
0.00392033
0.000367976
0.00652541
0.00230942
0.00672517
0.000484319
0.0115775
0.000383023
0.00224981
0.0148851
0.00425801
0.000366363
0.000283877
0.00672409
0.00225007
0.00390486
2.65481e-05
0.00848651
0.00840574
0.000759861
0.000261153
0.000111562
3.55026e-05
0.00672487
0.00296247
0.000419278
0.0106702
0.0032105
0.000265268
7.83166e-05
0.000189599
0.00674134
0.013946
0.0067344
8.08842e-05
0.00295021
0.0101126
0.00671989
0.000880742
0.00976204
0.00672253
0.000362776
0.00408892
0.00205954
0.00746319
0.00672275
0.000315816
0.0033961
0.00105203
2.79374e-05
0.0115239
0.0166916
0.000221475
0.00557998
2.46834e-05
0.00432255
0.00419232
3.03337e-05
0.00290415
0.00141508
0.00674179
3.56978e-05
0.00258423
0.0139781
0.000281563
0.000391989
0.00110995
0.00269531
0.00052219
0.000711203
0.00168986
0.000507114
0.0127594
2.46787e-05
0.000658942
0.0014139
0.0122131
0.00587366
0.000962502
0.00278164
0.0103165
0.00308096
0.00672274
0.0166703
0.00510917
0.00497692
0.00145089
0.01196
0.00672487
0.00672567
0.0120175
0.000276538
0.00263152
0.00278184
0.00189853
0.000272021
0.00559117
0.0132037
0.00672614
0.0067477
0.000725305
0.0114608
0.0139598
0.000260594
0.0152056
0.0124777
0.00135325
0.00338998
0.00077383
0.00873325
0.00677482
0.0117828
0.00853812
0.000134525
0.000299703
0.0017796
2.63134e-05
0.00917699
0.000716357
0.0067256
0.000266906
0.0014664
0.000314586
0.000882737
0.000437234
0.00672523
0.00350278
0.00672665
0.000813626
0.0110541
7.01443e-05
0.00672352
0.0139149
0.00277081
0.0015773
0.00294587
0.0067263
6.68977e-05
0.00045939
0.00673204
0.0122667
2.897e-05
0.00676176
0.015324
0.00674511
4.45156e-05
0.0119748
0.00672274
0.00673028
0.00181821
0.00471017
0.0113218
0.000304552
0.00704193
0.00363449
0.00175124
0.00666582
0.00858808
0.00674697
7.55911e-05
0.000425686
9.00711e-05
0.00672293
0.00193786
0.00100359
0.000325206
0.00863005
0.00675607
0.00672266
0.000567046
0.00672251
0.00672315
0.00168859
0.0133483
0.000545102
0.00515947
0.00276272
0.0158898
0.00503612
0.0133427
0.000106058
0.0105427
0.00275726
0.00568047
0.0129727
0.00561247
9.90651e-05
0.00569124
0.000586349
0.00530105
0.0146885
0.0156629
0.00203853
0.000304031
0.000402464
0.00672601
0.00484241
0.00906903
0.000829324
0.000396305
0.00671961
0.00672659
0.0138058
0.00671962
0.00147347
0.00124189
0.00672055
0.00676096
0.00672614
0.000807447
0.0123269
0.000201522
0.00604876
0.00672277
0.00672271
0.00672544
0.0115323
0.00672269
0.00629815
0.00511541
0.000368175
0.00547697
0.00239189
0.00672557
0.00672158
0.00673239
0.00307088
9.97792e-05
0.000246612
0.000160657
0.00353763
0.000423102
0.000532342
0.0067284
0.00139599
0.00133289
0.0011265
0.00118276
0.0159007
0.000249835
0.00972211
0.000400926
0.000642726
0.00881131
0.00929391
0.00163694
0.000388523
6.32123e-05
0.00674109
0.00672901
0.00183863
0.00485135
0.00555165
0.00673529
0.00942203
0.0057209
0.016093
0.000371473
0.00672303
2.73266e-05
0.000186685
0.00051847
0.00677893
0.0138979
0.000314417
0.00672362
0.00672287
4.22256e-05
0.00252315
0.00672289
0.00676562
0.00672613
8.31561e-05
0.000239766
0.00548627
0.00672866
0.000297921
0.00460405
0.000169586
0.0106469
0.000380009
3.24168e-05
0.000296332
0.00288005
0.000897933
0.00031445
0.00672256
0.00393139
0.00238748
0.000910999
0.00676079
3.6275e-05
0.0105104
0.00671905
0.00168228
0.00450442
0.00680764
0.000352623
0.00122686
5.13293e-05
8.14551e-05
0.000276637
0.000294892
0.016175
0.00161544
0.00409151
0.00251072
9.98227e-05
0.00672263
4.21629e-05
0.00180646
0.000171269
0.00672239
0.00672012
0.00672039
0.0156337
0.00672368
0.000107663
0.00959316
0.000167018
0.00018223
0.000298498
0.00113891
0.00087573
2.47341e-05
0.00134951
0.0067614
0.00672173
0.00671855
8.32793e-05
0.00275279
0.00484578
0.000282756
0.00345084
0.00672552
0.000165393
0.00275957
0.000217061
0.000841486
0.00137765
0.000694592
0.00049228
0.0137187
0.00340561
0.00672225
0.00672587
1.91727e-05
0.0110335
0.0129936
0.00987956
0.012785
0.000764387
0.00853667
0.00672029
0.00130415
0.00672738
0.00024303
0.00162379
0.00912149
0.00650695
0.00249143
0.00562383
0.00712323
0.000273859
0.0105317
0.00673521
0.0045947
0.00356316
0.00122938
0.00673196
0.00672248
0.0137316
0.000141
0.00672627
0.000499955
0.0145065
0.0100677
0.00927827
0.00640878
0.00290365
0.00285898
0.00794932
0.00313462
0.00672852
0.00895782
0.000845811
0.00130337
4.80475e-05
0.000153736
0.00423014
4.79069e-05
0.00311593
0.00418945
0.000529108
0.0137659
0.000143221
0.0131945
0.01142
0.0021976
0.00672506
0.000151368
0.00313979
0.000296805
0.0104022
0.000659078
0.00163552
0.00672054
0.00180287
0.000376084
0.000301421
0.00672054
2.66845e-05
3.54239e-05
0.00390357
0.000401941
0.000152708
0.00393792
0.00672279
0.00674576
0.00651947
0.000350855
0.000303409
0.00090502
0.000764318
0.00406399
0.00672353
0.0132823
0.0146173
0.00672536
0.00453555
0.00672691
0.0129497
0.000293754
0.00388718
0.000441029
0.00672237
0.000378802
0.00671959
0.0135667
0.0146817
0.00879936
0.00213744
0.00672315
0.00248053
0.00672427
0.00673062
3.95645e-05
0.00672692
0.00159377
0.00306096
0.000303462
0.00467571
0.00672362
0.0148625
0.0067227
6.45254e-05
0.00672068
0.00672277
5.52107e-05
0.00672857
0.000447497
0.0067228
0.000246356
0.000476538
0.00672038
0.00672659
0.00068581
4.54523e-05
0.000757308
0.0102856
0.0100449
0.0111531
0.0014234
0.00575829
0.00672124
0.000377299
0.00673303
0.00617489
0.000299066
0.000106575
0.000457617
0.00555555
0.00673308
0.00672053
0.0127653
3.11264e-05
0.0125207
7.35652e-05
0.00672592
0.00636533
0.00672554
0.00112988
0.00672505
0.00281722
0.00674752
0.000875059
4.05479e-05
0.00672577
0.00266924
0.00672562
0.000571047
0.00672296
0.00673491
0.0067221
0.00672525
0.00178657
0.000936489
0.0162906
0.0067263
0.00321634
0.0122507
0.000498791
0.00109173
0.0136356
0.000102447
0.00672153
0.00376499
0.000405682
0.00672601
0.0148373
3.14831e-05
0.00509104
0.00672801
0.000486508
0.00672299
0.00672419
0.00975786
0.00674306
0.00672179
0.00183402
0.00298743
0.00101121
0.00224494
5.06666e-05
0.00232555
2.97953e-05
0.0058883
0.000131649
0.00672195
0.0011133
0.000617705
0.00243386
0.00672527
0.00672237
0.00049978
0.000352716
0.00672319
0.00672293
0.000480297
0.00672212
0.00048955
0.0068926
0.000987462
0.0117088
3.69859e-05
0.000136105
0.00672614
0.000310285
0.000213531
0.000296126
3.80952e-05
0.00673208
0.00672162
0.0067228
0.00270842
0.00672278
0.00672037
0.00423285
0.00244008
0.000381012
0.00672067
0.00672314
0.0149921
0.0027598
0.000394475
0.000310479
0.00557764
0.00271183
3.96331e-05
0.000214843
0.000746918
0.00073324
0.0149037
0.00186884
0.00229827
0.000936169
0.00672663
0.00672461
0.00227239
0.00132477
4.703e-05
0.0076913
0.000299644
0.00591335
0.00209993
0.00672042
0.00164152
0.000203011
0.00512478
0.0112314
0.00672118
3.81932e-05
0.000247128
0.0106374
0.000215451
0.00672248
0.00169912
0.00103063
0.000930229
8.62786e-05
0.015995
0.00773291
0.000358949
0.00672327
0.0144707
0.00673008
0.00672541
0.0162776
0.0121408
0.000461178
0.00252765
0.0131881
0.000551203
0.00674496
0.00310268
0.0067227
0.00331563
0.0101144
0.00727903
0.00672199
0.00672195
0.00294507
0.00281324
0.00957139
0.000101154
0.0067222
0.00027457
0.00775601
9.99457e-05
0.00172061
0.00672142
0.000729561
0.000799809
0.00672259
0.00676292
0.00047773
0.00066638
0.000344135
0.0140464
0.000386534
0.00693343
8.74116e-05
0.00412653
0.00060228
0.000375483
3.21539e-05
0.00672245
0.00672631
0.0123651
0.00949735
0.000458376
0.0147475
0.00933969
0.00182325
0.00573003
0.00441123
0.00421656
0.00672121
0.000488292
0.0014986
0.00673411
3.49814e-05
0.00114011
0.0160883
0.000328036
0.0116577
0.0128357
0.00219398
0.000391584
0.000194507
0.00672446
0.00676847
0.000431934
0.00278884
0.00122309
0.0040419
0.0067376
0.00156366
0.000123312
0.00406614
0.0128285
0.00061111
0.000893204
0.000335305
0.00673062
0.00151944
0.000315957
0.00393705
0.00111629
0.000153987
0.00139596
0.00038336
0.000267617
0.00699424
0.000103441
0.000312461
0.00910213
0.000251368
0.00674013
0.00813219
0.00354932
0.00831823
0.00634045
0.000192535
8.89093e-05
0.000411992
0.00107819
0.00410032
0.00359379
0.000489189
0.00839414
0.00522362
3.34149e-05
0.00672208
0.000381422
0.000597399
0.00131355
0.0012725
0.0151228
0.00211136
0.00258567
0.00445142
0.00672457
0.0004745
0.00672222
0.00983736
0.00038925
0.00330972
0.000639041
0.000343121
0.00672594
0.00113878
0.00673437
0.0058319
8.65213e-05
0.00172414
0.00672285
0.0137233
0.00784038
0.00258333
0.00282642
0.00672212
0.00672228
0.000515598
0.00904335
0.0017517
0.000213053
0.00068243
0.000870455
0.000395624
0.0041921
0.00780955
0.000551344
0.000976802
2.98701e-05
0.000119214
0.00662252
0.011381
3.36926e-05
0.000362335
0.00280011
0.000244439
0.00406071
0.00672242
0.000321071
0.000310582
0.00672293
0.005556
0.000323394
0.000213683
0.00672303
0.000868945
0.000463776
0.00205488
0.00673273
0.00673095
0.0011703
2.37385e-05
0.000122364
0.00131359
0.00171707
0.0067288
0.0038464
0.00922071
0.00521041
0.00227683
0.00034362
3.39081e-05
0.00163685
0.000492092
0.00297454
0.00672229
0.000342667
0.000704802
0.00251399
0.00130903
0.00584191
0.00057947
0.0108578
0.0161505
0.000576467
0.013893
0.00342934
0.000285674
0.00290807
0.00673227
5.55364e-05
0.0042131
0.00675016
0.000104101
0.00673582
0.00672473
0.00224276
0.00219737
0.000609752
1.87849e-05
0.00563312
0.000110386
0.000687801
0.00704041
0.00056397
0.0044094
0.00274601
0.0128947
0.00794669
0.000373393
5.54674e-05
0.00799074
0.000299365
0.0154628
0.00392351
0.000305583
0.0069119
0.00289054
2.93797e-05
0.000316776
0.000579371
8.17767e-05
0.00672716
0.00672281
0.00672278
0.000959499
0.0146795
0.0071106
0.00142849
0.014396
0.00214656
0.0059459
0.000960354
0.00698187
0.00472298
0.00672187
0.0127747
0.000370408
0.00480879
0.0015802
8.16756e-05
0.01516
0.000534676
0.0035792
2.84198e-05
0.000350219
0.000318626
0.0125057
0.000346397
0.00329599
0.0167103
0.0149274
0.00205342
0.000202576
0.00236735
0.000378568
0.00672577
0.0067196
0.00672277
0.000769557
0.000381067
4.02118e-05
0.000139539
0.00239512
0.000722861
0.0161889
0.00590855
0.00672046
0.00127879
0.00672851
0.000398519
0.00678672
0.00672318
0.0141115
0.00111295
0.00672126
0.00672322
0.000277823
0.00704338
0.00520294
3.15103e-05
0.00339258
0.00132215
0.00673095
0.0106161
0.00344916
0.00671862
0.00579594
0.0102777
0.00504477
0.000477545
0.000334849
0.00223925
0.0074987
0.00212886
0.0159573
0.0121671
0.000554052
0.000280334
0.00672699
0.00780858
0.00146529
0.00254055
0.00676614
0.00672328
0.00204869
0.00675475
0.00672844
0.00672581
0.000169818
0.00672755
0.00605053
0.00025657
0.00952292
0.000284833
0.00876753
0.00659779
0.0131413
0.00367263
0.00322888
0.00451394
0.0121712
0.000294867
0.000596439
0.000371264
0.000662222
0.00118893
0.000783437
0.00674478
0.000173641
0.000669726
0.0067329
0.0148444
0.000103438
0.00164125
0.00672606
0.000506103
0.000592306
0.00674014
0.00014985
0.00672516
0.00672048
0.0115654
0.00407735
0.00548984
0.00143877
0.00672154
0.00672673
0.0143148
0.00672128
0.00772883
0.00732604
0.0105858
0.00672903
0.000731125
0.0067232
0.00383543
0.00672474
0.00762702
0.00672626
0.0108119
3.15125e-05
0.00776647
0.00676643
0.000106551
0.000259371
0.00210372
0.0139704
0.000296485
0.0125008
0.00665289
0.00954833
0.0127852
0.0067229
0.0114425
0.00144401
0.00672039
0.00535899
0.00862352
0.0147093
0.00030055
0.00484495
0.000321796
0.000441963
3.42057e-05
0.0067281
0.00271187
0.000251604
9.33037e-05
0.00944555
3.22073e-05
0.00879962
0.00672602
0.000692871
0.000360638
0.00174536
0.00734061
0.00868732
0.000233051
0.00824601
0.000501553
0.000277679
0.00052998
0.00672329
0.00107522
0.00679351
8.95208e-05
0.00124207
0.0026306
0.000805974
0.000171273
0.0138562
0.000351889
0.00673184
0.000553033
0.00672654
0.000121829
0.00672049
0.000197376
0.000130925
0.0011331
1.83256e-05
0.000427738
0.00247322
0.000874263
0.000384312
0.00289856
0.00625521
0.0166222
0.00418504
0.000291544
0.00546605
0.000210083
0.006725
0.00388538
0.00674795
0.00450761
0.000238501
0.00672449
0.00672605
0.00312875
0.00672345
0.00672302
0.00270144
0.00114962
0.00164681
0.00669131
0.000627029
0.00672061
0.00284382
0.0067255
0.0145153
0.0158805
0.000346681
0.0067226
0.0016124
0.00108163
0.000349593
0.000169443
0.00672256
0.00672349
0.00673484
0.0138494
0.00740432
0.000187285
0.00780344
0.00770355
0.000423344
0.00569787
0.00647374
0.00608198
0.00411818
0.0146353
0.000292658
0.0067206
0.00586508
0.0043881
0.0025684
0.000176008
0.000496266
0.000368191
0.00288819
0.0112288
0.000664606
0.00848627
0.000286355
0.00672452
0.000542071
0.000296068
0.000305782
0.00571921
0.000104462
0.000647143
0.00461279
3.8079e-05
0.00672268
0.00672227
0.0004059
0.00673016
0.000704762
5.38265e-05
0.000278729
0.0165214
0.00998715
0.00672693
0.0115397
0.00682996
0.00758918
0.000759749
0.000115091
0.000694512
0.00672468
0.00672313
0.000369362
2.21972e-05
0.00672285
0.000334661
0.00192245
0.0108962
0.00791849
0.000383819
0.00892423
0.0073567
0.0154894
0.00485989
0.000162367
0.000756828
0.000808738
0.00672268
0.00672927
0.0110931
0.0154568
0.00672224
0.00673386
0.00674982
0.00672152
3.6885e-05
0.00253174
0.0021903
9.61297e-05
0.000401193
0.000279824
0.00466331
0.00826303
2.10995e-05
0.000579991
0.00146443
0.00672577
0.00673014
0.00675708
0.00010531
0.0045834
0.000570314
0.00152973
0.000530113
0.00672224
0.00672358
0.00107913
0.00674844
0.00672634
0.000542056
0.000945973
0.000198159
0.0130417
0.00674581
3.09096e-05
0.000327975
0.0067527
0.000320512
0.0168225
0.00672368
0.00219003
0.00916569
0.00673202
0.000386545
0.000344205
0.000219053
0.00672333
0.000469712
0.00678654
0.0160313
0.000424363
0.0138034
0.00369332
0.000291566
0.00105137
0.00673233
0.00920962
0.000355617
0.0130877
0.0108336
0.0124356
0.00783385
0.0130171
0.00193291
5.56321e-05
0.00411057
0.0161682
0.00109779
0.000212543
0.00670512
0.00672167
0.00995445
0.00476109
0.00013775
0.00339282
5.8232e-05
0.000339801
0.010049
0.00672084
0.00419477
0.00084633
0.006747
0.0124603
0.0126521
0.000614952
0.00672621
0.00136466
4.53974e-05
0.00145187
0.000703109
0.0162663
0.00214592
0.00672283
0.00672262
0.00110589
0.00762408
8.72374e-05
0.000802559
0.000791462
0.0139517
3.90568e-05
0.00640441
0.0104236
0.00251852
0.000157618
0.00368131
0.00466584
0.000276344
0.000922652
0.00606091
0.00789571
0.00166137
0.0118456
0.00922618
0.00742471
0.006741
0.000101182
0.000495006
0.000377554
0.000163885
0.000695667
0.00247631
0.00672736
0.000129805
0.000310336
0.00640743
0.00129758
2.9882e-05
0.0169273
0.00783692
0.0144235
0.00255442
0.00195566
2.16127e-05
0.001835
0.00801254
0.00673049
0.0123008
0.0162993
0.00201091
0.00122778
0.000825806
0.0138383
0.0155732