/*--------------------------------*- C++ -*----------------------------------*\
| =========                 |                                                 |
| \\      /  F ield         | OpenFOAM: The Open Source CFD Toolbox           |
|  \\    /   O peration     | Version:  v2012                                 |
|   \\  /    A nd           | Website:  www.openfoam.com                      |
|    \\/     M anipulation  |                                                 |
\*---------------------------------------------------------------------------*/
FoamFile
{
    version     2.0;
    format      ascii;
    class       volScalarField;
    location    "300";
    object      p;
}
// * * * * * * * * * * * * * * * * * * * * * * * * * * * * * * * * * * * * * //

dimensions      [0 2 -2 0 0 0 0];


internalField   nonuniform List<scalar> 
18166
(
0.172693
-0.00391303
0.01934
-0.231424
0.43276
0.165503
-0.0101802
-0.398412
-0.401566
0.49315
0.0153766
0.0205998
-0.449516
-0.324406
-0.413359
-0.327287
0.00889881
0.117423
0.0261827
-0.411671
-0.273506
0.0092754
-0.268698
0.0263688
-0.00249315
-0.0097578
0.152653
-0.0989823
0.0293327
-0.238455
-0.14925
-0.0160636
0.0126109
0.018336
-0.0181788
0.00715993
-0.401248
0.00739531
-0.0245221
0.485156
0.00422569
-0.409539
0.013238
0.0384178
0.172231
0.0237308
-0.124279
-0.151808
-0.181064
0.144796
-0.109295
-0.138057
-0.284024
0.00281516
0.0150397
-0.35954
-0.420823
-0.45042
0.0237445
-0.0802453
-0.179727
-0.0780489
-0.395929
-0.0875504
-0.329509
0.0243005
-0.411928
-0.186566
-0.442421
-0.105618
-0.0180613
-0.0174002
0.166511
-0.0257065
0.422274
0.401211
-0.280061
-0.445176
-0.0678112
0.00814837
0.0100984
-0.404841
0.0260117
0.0267151
-0.0157221
-0.0478254
-0.0838212
-0.00224287
-0.135296
-0.0240565
-0.404772
0.132588
-0.449767
0.00841269
0.00404981
-0.0483126
-0.0161318
-0.0132668
0.0947755
-0.0978343
-0.00355257
0.0193062
-0.410944
-0.0834607
-0.104275
0.0192958
-0.36811
0.511564
0.030252
0.0141933
-0.450183
-0.400776
-0.33666
-0.288837
0.0095297
-0.0279624
-0.0346533
-0.0627054
0.0430861
-0.156287
0.0240546
0.0304099
-0.338605
-0.393355
-0.259848
0.0231467
0.0229122
-0.4497
0.0638282
0.0572178
-0.268982
-0.418296
-0.0747745
-0.163006
0.0751715
-0.118389
0.00790303
-0.0043344
-0.0763668
-0.102733
-0.404634
-0.33415
-0.237482
-0.158213
0.0272347
-0.387278
-0.411423
-0.407654
-0.0359518
-0.0854093
-0.0160253
-0.183726
-0.864713
-0.26202
0.0209618
0.0139381
0.00295428
-0.396903
0.00813795
-0.449666
-0.0135981
-0.178749
-0.0759768
-0.00840909
-0.13854
0.465302
0.022223
-0.15543
-0.411604
-0.447629
-0.312681
-0.288584
0.0532522
-0.181675
-0.371603
0.0215198
0.268191
-0.197122
-0.00437138
-0.00211292
0.00990474
0.0403444
0.380539
0.288054
-0.388703
-0.005688
-0.0549637
-0.223031
0.00270827
-0.0273514
-0.187386
0.026693
-0.121483
0.026408
-0.0311212
-0.138495
0.159442
-0.0235289
-0.0620471
0.509041
-0.307544
-0.271126
-0.0327105
-0.407925
0.0158563
-0.14193
-0.402678
-0.362816
0.388717
-0.411515
0.44664
-0.403933
-0.00422915
0.024012
-0.119426
0.129109
-0.339044
-0.026491
-0.410258
-0.406113
-0.0730715
0.00903111
-0.00556407
0.233502
-0.436683
-0.0129091
-0.00735739
-0.00653488
0.0356181
-0.0322003
-0.410085
-0.346179
-0.0561642
-0.126246
-0.00142898
-0.0483266
-0.118391
-0.165091
-0.364889
-0.384195
-0.121927
-0.409618
-0.411247
-0.078114
-0.361514
0.0515402
-0.229573
-0.409893
-0.167801
-0.0319559
0.179595
0.0232044
0.0147246
0.0649344
-0.18499
-0.397931
0.0133887
-0.413318
-0.447075
-0.00802315
0.0241614
-0.128233
-0.176956
-0.172394
-0.440862
-0.310314
-0.422225
-0.0231561
0.00989349
-0.10122
0.1498
0.024122
-0.00304725
-0.359192
-0.136226
-0.257135
-0.197921
-0.00694129
0.393639
-0.0161406
-0.147958
-0.411538
-0.0206284
-0.037697
-0.07062
-0.181421
-0.0781562
-0.0452106
-0.403524
0.0101517
-0.0979651
-0.117253
-0.0343358
0.0129803
-0.0177301
-0.136259
-0.011062
0.0238549
-0.0126298
-0.357522
-0.201759
0.00861164
-0.0050512
-0.00342974
-0.386494
0.00997472
-0.365412
-0.259449
0.0389257
-0.027253
-0.073119
0.457835
-0.411396
0.108748
0.0105559
0.451851
0.308155
-0.0383149
0.024293
-0.305654
0.00683652
0.090787
-0.273588
-0.16983
0.0693985
0.144752
-0.0464825
0.0109143
-0.0222909
-0.211718
-0.00432713
-0.161082
-0.0380978
-0.0320209
-0.349888
-0.406254
-0.310776
-0.414742
-0.404582
-0.227705
-0.0368219
-0.429137
-0.304524
-0.0898542
-0.0468537
0.0145646
-0.0104219
0.113876
-0.0163138
-0.156583
0.0247565
-0.11254
0.0239976
-0.00501914
0.287094
-0.0829915
0.298317
-0.124969
0.0150022
-0.0218016
-0.00170934
-0.315944
-0.0829865
0.0127275
-0.00952088
0.0281113
0.0219713
-0.0959305
0.00504637
-0.438284
0.185724
-0.00327333
0.00759844
-0.368491
-0.406831
-0.104287
-0.0891399
0.0122568
-0.125376
-0.314469
-0.032547
-0.104444
-0.258333
-0.085321
-0.0345881
0.0333812
0.024438
0.00244961
-0.361785
0.0325605
-0.0179753
-0.0859832
-0.0207348
-0.217269
-0.281575
0.0151158
0.0239803
-0.449843
-0.00791434
-0.00714581
-0.0115797
-0.322208
-0.407085
0.00808116
-0.391856
-0.0485151
-0.0323692
-0.266052
-0.26838
0.036105
-0.382475
-0.396389
0.0755811
-0.395491
-0.0735382
-0.0948955
-0.173454
-0.058394
-0.0170343
0.017702
-0.0446557
0.0229022
0.472109
0.00373791
0.345945
0.0190126
-0.326888
0.0182926
-0.0850311
-0.391877
0.110157
0.451785
0.0684106
-0.0459241
-0.106746
-0.212807
-0.396413
0.00185339
-0.444257
-0.118024
-0.0198835
-0.39436
-0.411003
0.00977794
-0.178105
-0.426891
0.0139294
-0.405411
-0.10101
-0.0319208
0.224329
-0.362233
-0.368883
-0.113259
-0.165496
0.458539
-0.289445
-0.221149
-0.0203965
-0.44982
0.0250898
0.0178616
0.461381
-0.396897
0.0124201
0.0364014
-0.115203
-0.0713741
0.0506065
-0.0109983
-0.0154552
-0.0429551
-0.423702
-0.00159766
-0.143065
0.0218009
-0.403776
0.0176206
-0.00124
-0.241779
-0.407593
0.0100589
-0.349979
0.00378244
0.0046277
-0.404174
-0.432578
-0.169392
-0.0453902
0.288459
0.389898
0.0108655
0.0224276
0.012551
-0.0290099
-0.208318
-0.402949
0.0201262
0.00590859
0.319627
-0.449099
-0.406895
-0.018085
0.0503549
-0.00240667
0.0172433
0.0235326
0.0100077
-0.0154721
-0.191337
0.378833
0.0200088
-0.0807587
0.0079206
-0.299546
-0.00225578
0.00348258
-0.432101
-0.173975
-0.0439414
-0.258792
-0.340147
-0.409149
-0.401833
-0.284474
-0.400666
-0.409297
-0.127245
-0.409641
0.0212766
0.29761
-0.0340192
-0.0512648
0.311087
-0.245451
0.0259308
-0.347329
-0.403817
-0.139486
0.0211807
0.0405198
-0.119263
-0.407815
-0.353368
-0.0191272
-0.341707
-0.450118
0.0606146
-0.0493857
0.0286069
0.0978609
-0.4286
-0.45
0.00268282
-0.40407
0.0185563
-0.169058
-0.0701615
-0.00621223
-0.0713374
-0.448981
-0.0276042
0.00234409
-0.424449
-0.404866
-0.197441
-0.408706
-0.0448704
0.00884812
0.0231868
-0.136165
0.230209
-0.108128
-0.0988964
0.010531
-0.413296
-0.12089
-0.45046
0.051624
-0.437294
-0.0156345
0.390799
-0.40045
0.261021
-0.074761
-0.220767
-0.447236
0.00351915
-0.444933
0.0263415
0.00292977
-0.407189
-0.407358
0.0147352
0.0135591
-0.0137067
0.404969
-0.412251
0.00234791
-0.322066
-0.0354255
-0.03793
0.00373546
-0.209438
-0.304069
-0.0794739
-0.439501
0.0122418
-0.0051624
-0.202588
-0.397572
-0.31051
-0.409766
0.498284
0.0533147
-0.449634
-0.441037
0.0778018
0.298235
-0.0773736
-0.0642554
-0.0895852
-0.211631
0.11479
-0.214415
-0.0239593
-0.0915935
-0.45024
0.00323432
-0.236286
-0.194942
0.0900805
0.0443131
-0.0204708
-0.0473947
-0.229514
0.00266177
0.0185266
-0.240995
-0.0185079
-0.176246
-0.0384063
-0.263415
0.0411404
-0.103242
-0.0216688
-0.353823
-0.411692
0.39372
-0.025812
-0.405939
-0.40353
0.382055
-0.0316444
-0.406682
0.0590596
-0.457735
0.0259838
0.302905
-0.381116
-0.0812098
-0.399069
-0.361333
-0.362986
-0.01798
-0.388284
-0.00385332
0.10749
0.0744955
0.0318011
-0.000242299
-0.398714
-0.142537
-0.0442409
-0.40412
-0.449522
0.213145
-0.0181334
0.0675058
0.00939239
-0.00811434
-0.015359
0.0224925
0.37238
-0.0682815
-0.390159
-0.413622
-0.392575
-0.413045
0.143931
0.114091
0.0227679
-0.382675
-0.0046052
-0.392981
-0.231955
-0.0193427
-0.0976911
-0.203352
-0.399717
-0.256691
-0.106851
0.109637
-0.0156937
-0.179862
-0.389927
-0.400407
-0.0692384
-0.363027
-0.39197
-0.0569156
-0.166618
-0.434914
0.122753
0.00420935
-0.410585
-0.151476
-0.14041
-0.360995
-0.00942134
-0.168548
0.248931
-0.0101223
-0.265611
-0.400118
-0.170146
-0.422194
0.15537
-0.0973469
1.29045e-05
0.28211
-0.21901
0.0740378
-0.426287
0.0094925
-0.414379
-0.400985
-0.0814411
0.0320066
0.0168909
0.130555
0.00915774
-0.443678
-0.197186
0.513627
-0.0106834
-0.0104767
-0.0150303
-0.445178
0.514366
0.165656
-0.448047
-0.134006
-0.376734
0.0256945
0.00136209
-0.315938
0.0132861
-0.277487
0.43404
0.184468
-0.342591
-0.0349156
-0.409397
-0.282185
0.284315
-0.0554094
-0.0105801
-0.0454752
0.0183012
-0.319103
0.0248733
-0.0201267
-0.264172
0.067604
-0.134546
-0.0716472
0.0756712
-0.00289133
-0.207565
-0.0283721
-0.0835214
-0.0468736
0.315313
0.00497825
-0.0768437
-0.404737
-0.0252537
0.0102153
0.0196605
0.223914
-0.0796094
0.0026801
-0.24011
0.00505893
-0.449985
-0.445561
-0.104681
-0.0643397
0.00345249
-0.100303
0.447638
-0.00322342
-0.404625
-0.0246243
-0.00782231
-0.019672
-0.0351076
-0.173534
-0.0191241
0.00265834
-0.00383765
-0.0205204
-0.0937488
0.0480939
-0.44922
0.00330926
0.0182861
0.00298062
-0.276523
-0.410612
-0.450721
0.34185
-0.00745531
-0.343842
-0.407923
-0.028385
0.0134144
-0.305896
-0.40519
-0.0594302
-0.235676
-0.364759
-0.0541773
-0.0322488
-0.167214
-0.0905568
-0.165132
-0.396729
-0.44716
-0.0222219
-0.370711
-0.0112385
-0.356477
-0.13612
-0.153789
0.0325137
-0.411606
-0.237704
-0.395076
0.02344
-0.111131
-0.0208498
-0.391896
0.00389977
-0.105535
-0.0495803
-0.00321211
0.184774
0.00546816
0.0219881
0.485176
0.00632525
-0.403954
-0.0968839
-0.232633
0.0154408
-0.27457
0.0339379
0.0194353
-0.449986
-0.340171
-0.366319
0.0225504
0.0978775
-0.281925
-0.417537
0.013727
0.00549627
-0.0610384
-0.241931
-0.01807
-0.225943
-0.317818
0.046713
-0.0181421
0.00152104
-0.00318662
-0.12605
-0.0190137
-0.0557792
-0.124159
-0.0218164
-0.0127547
-0.405446
0.00548648
-0.0640957
-0.00737935
0.00412558
-0.187925
-0.268339
0.405782
-0.237864
-0.0564385
-0.0364144
-0.448923
0.502332
-0.389574
-0.408403
0.245649
-0.31169
0.00328116
-0.0923686
-0.449407
-0.411639
-0.412763
0.00660712
0.020616
-0.0580051
-0.406192
-0.406827
0.0189744
0.295171
0.100506
0.497175
-0.405166
0.366776
-0.0098941
-0.369544
0.00252615
-0.0314361
-0.424518
0.00226673
-0.0488242
-0.441428
-0.0919256
-0.00344903
-0.398952
0.281561
-0.0269486
0.357049
-0.017973
-0.447034
-0.439885
-0.243053
-0.400031
-0.34554
0.377108
-0.0193455
-0.0492039
0.0134922
-0.0185085
-0.0190254
-0.0688785
-0.401661
-0.301878
-0.0184761
-0.161234
-0.118061
0.160558
0.0124564
-0.0575693
-0.409039
-0.449467
-0.407229
-0.252789
0.0221696
-0.132574
-0.164702
-0.0753166
-0.318913
-0.269468
-0.442825
-0.174922
-0.019186
0.00541022
-0.0695899
0.00236705
0.0832883
0.49061
-0.0467415
-0.364822
0.0064649
0.0194191
-0.00728087
-0.449816
-0.252109
0.00288064
-0.0346255
-0.445607
0.0175188
-0.405315
0.504136
0.0133564
-0.305975
0.0123985
-0.302064
0.47582
-0.406395
-0.280932
0.0101451
-0.135977
0.474959
0.0380935
-0.410742
-0.429803
-0.170701
0.0290512
-0.167107
-0.0537904
0.0269061
-0.404975
0.508452
0.270675
-0.247898
-0.018726
-0.304433
-0.100162
-0.0428447
0.244756
-0.448783
-0.337461
0.493821
0.0762568
0.350348
-0.40815
-0.0185525
-0.055199
0.0149872
0.221842
-0.130229
-0.0142335
-0.120279
0.219181
-0.0850821
-0.272432
0.0023617
0.201714
-0.399693
-0.407585
-0.167061
-0.411511
-0.00900246
0.0338402
-0.443613
0.308974
-0.0109625
-0.0185471
-0.0983763
0.160261
-0.264603
0.0237296
-0.0507217
-0.4116
-0.350768
-0.31405
0.0194179
-0.406959
0.0332559
-0.178804
-0.345782
0.0441702
-0.189657
-0.129664
-0.137342
-0.248069
-0.0680068
0.512936
-0.318512
-0.359912
-0.138546
-0.413102
0.155314
-0.386795
0.0204962
0.020754
0.00536284
0.0105424
-0.0577841
-0.115205
-0.00122346
-0.235203
-0.00265147
-0.0296492
-0.257991
0.0191422
-0.12516
-0.352954
-0.0640597
-0.37387
-0.0364013
0.0401881
-0.00652186
0.0203291
-0.163641
-0.272233
-0.259494
-0.414521
-0.438951
-0.013587
0.0445412
-0.0560343
0.00331001
-0.102519
-0.0419036
0.160183
-0.0189128
0.013708
0.0647284
0.0106014
-0.245422
-0.278083
-0.0752305
0.362037
0.010913
-0.00671032
-0.394342
-0.0837098
-0.39878
-0.289296
-0.11949
-0.332408
-0.410793
-0.10848
-0.0361426
-0.432864
0.00192495
0.496578
-0.111975
-0.415284
-0.409459
-0.135457
0.134806
-0.159174
0.0407929
0.010636
-0.000810511
-0.200508
-0.117564
-0.401551
-0.347422
-0.167855
-0.0134418
0.511954
-0.229687
-0.00221997
-0.0495074
-0.0886499
0.0584708
-0.416384
-0.0802354
-0.0878268
0.500502
0.00955701
-0.406789
0.0695223
0.00162327
-0.393619
-0.00956619
-0.0999475
-0.0398471
-0.398477
0.0026479
-0.0936438
0.0148367
-0.0381412
0.484474
-0.290481
-0.0157338
-0.0138536
0.207922
-0.019164
-0.00234324
-0.408906
0.0572324
-0.408596
-0.238174
0.0108029
-0.408776
-0.405065
-0.233978
-0.205808
-0.00439861
-0.0458105
0.0407562
-0.174274
-0.0139357
0.236272
0.0633174
-0.0349312
-0.1291
0.023411
-0.446861
-0.161675
-0.404522
-0.00799531
0.00969677
0.0105576
-0.0176193
-0.190233
-0.0319284
-0.337883
-0.360092
-0.167882
-0.374908
-0.34488
-0.359537
-0.328836
-0.0202484
-0.0265171
-0.0626479
-0.199309
-0.0481544
-0.0491794
-0.112437
0.00930564
-0.298944
0.0688887
-0.404934
-0.413439
-0.016008
-0.195391
-0.402747
-0.158432
-0.107825
-0.125972
-0.400306
-0.183101
-0.450342
0.00671183
-0.110063
0.284716
-0.166707
-0.405026
-0.214324
-0.212714
-0.443406
-0.294371
-0.449906
-0.0132149
-0.235272
-0.0179302
-0.0446842
-0.0450506
0.01905
0.0184809
-0.0199159
-0.00619922
0.010764
-0.381497
-0.400076
-0.349693
-0.364782
-0.0198645
0.0337396
-0.0311294
-0.255661
-0.346792
-0.00295812
-0.380407
-0.000601141
-0.000123897
-0.133413
-0.422265
0.0530953
-0.405008
-0.0254846
-0.224271
-0.0314046
-0.178022
0.0775843
-0.35426
0.00656429
0.0119647
0.227867
-0.317929
0.00249634
-0.000243821
-0.109747
-0.16693
-0.134242
-0.0242126
-0.206838
-0.431837
0.162959
-0.228352
0.111953
0.0278287
-0.39657
-0.0110754
-0.406543
-0.0319056
-0.243892
-0.0436399
-0.364044
-0.0228189
0.249099
0.00568498
-0.00896613
0.0842952
0.00863116
-0.0965655
-0.00340723
0.0165861
0.0682048
0.0280834
0.00176257
-0.437197
-0.0877235
-0.445297
-0.209959
-0.409035
-0.404812
-0.413823
0.0126358
-0.355872
-0.449846
-0.0107698
-0.0669501
-0.0910386
0.0380056
-0.204467
-0.00119023
-0.428344
-0.0147379
-0.122677
-0.236603
-0.320211
-0.0564375
-0.408605
-0.0380727
-0.302471
-0.114596
0.00195432
-0.405019
-0.430507
0.483861
-0.408105
-0.438525
-0.0868552
-0.450002
-0.258692
0.438281
-0.0171634
-0.407815
0.080051
-0.084195
-0.326909
-0.253292
0.199579
0.218498
-0.0216662
-0.401783
-0.00834739
0.494367
-0.16172
-0.17611
-0.00871436
-0.1144
-0.399618
-0.00147959
-0.268039
-0.375674
0.0603214
-0.252696
0.0221327
-0.348867
0.00429126
-0.44777
0.376828
-0.4125
-0.416544
-0.321692
-0.443331
0.390993
0.0347651
-0.285156
0.465183
0.0414778
0.0570907
-0.0212401
0.117548
-0.443101
-0.173678
-0.217173
-0.404544
-0.0880715
-0.0438952
0.0999991
0.00572099
-0.408865
-0.404438
-0.37351
0.21618
-0.12401
-0.0570895
-0.402106
-0.0300193
-0.0288675
-0.0517284
-0.410833
0.0534053
0.00994432
-0.137345
-0.441679
-0.330253
-0.069599
-0.407831
0.000803113
0.0284163
-0.403255
-0.323458
-0.0429092
-0.36806
-0.0993704
-0.328845
0.000787386
-0.140513
0.00225084
-0.384359
-0.120035
-0.40388
-0.269203
-0.242042
-0.399203
-0.229064
-0.0279056
-0.252215
-0.061456
-0.172494
-0.0267065
-0.404295
-0.395714
-0.406101
-0.191005
-0.404956
0.339651
-0.348045
-0.10985
0.0123374
-0.306979
-0.413928
0.0678926
-0.109418
-0.14647
0.027894
-0.231743
0.00478093
-0.127911
-0.423113
0.234163
0.0208046
-0.200998
-0.0331234
0.00680371
-0.417851
-0.0183764
-0.0520611
-0.167147
-0.0140774
-0.402437
0.341306
-0.0249934
-0.347872
-0.0203196
0.504098
-0.406373
0.0163481
0.0180338
0.0390394
-0.407108
-0.0807396
-0.234847
-0.339235
-0.446732
-0.444224
-0.387213
-0.0628196
-0.0198737
0.273527
-0.273322
-0.118152
0.00532904
-0.42598
0.0287465
-0.24316
-0.438685
-0.0169775
0.0116124
0.0704949
0.00757663
0.015425
-0.411586
-0.187193
-0.154121
-0.221995
-0.0509501
-0.4056
-0.408195
-0.11507
-0.16305
-0.396944
0.0371894
0.0342908
-0.401282
-0.401995
-0.171723
0.00141944
0.0754265
0.0276374
-0.30511
-0.3696
-0.00437322
-0.211844
-0.201357
0.0205785
-0.443171
-0.393916
-0.116175
-0.137697
-0.0037562
0.0127355
-0.14156
-0.00172853
0.0627032
-0.0759368
-0.000964649
-0.0169382
-0.0151277
-0.101572
-0.375299
-0.115744
-0.322288
0.0120486
0.0189196
0.000229406
-0.176061
0.0178679
-0.428976
0.0206279
-0.187466
-0.40554
-0.0101539
-0.00908224
0.00264527
-0.0134874
-0.0431473
-0.252908
-0.342741
0.24296
-0.380557
-0.221113
-0.11209
-0.00236417
-0.0705123
-0.0528797
-0.449984
-0.0434263
-0.403164
0.0434911
-0.393739
-0.139721
-0.122502
-0.385365
-0.293059
-0.0678356
-0.157432
0.29534
-0.0218566
0.0286647
-0.00064581
-0.0380827
-0.447178
-0.00905846
-0.115716
-0.0316249
-0.388891
-0.351949
0.0232853
0.471625
-0.448139
0.108351
-0.0271256
-0.231043
-0.343052
-0.0151633
0.0167684
0.462856
-0.05665
0.00568004
-0.0168444
0.00295579
-0.173566
0.0902035
-0.267183
0.00616815
-0.184178
0.0335389
-0.294657
-0.331256
0.0885664
0.405859
0.039996
-0.0463561
-0.112038
-0.267105
0.026735
0.0147317
-0.416744
-0.0981995
-0.0243732
0.449008
-0.409586
-0.0109365
-0.412215
0.00637289
-0.437902
-0.241587
-0.0809818
0.465641
0.288422
-0.237011
-0.231236
-0.413179
-0.0313404
-0.0385817
-0.43107
-0.297059
0.00722589
0.423285
0.0564898
-0.448724
-0.000985922
-0.0151786
-0.00349187
-0.404283
0.0172732
0.0218233
-0.375576
-0.0326067
-0.00653454
-0.275397
0.0462472
-0.0910916
0.423865
-0.443698
-0.024853
0.00210716
-0.00420019
-0.191622
-0.0484109
-0.447021
-0.30198
-0.446019
0.00260115
-0.276865
-0.405081
-0.231373
-0.118718
-0.0336555
0.087162
-0.140922
-0.20086
-0.0438457
0.0251663
0.00879973
0.058487
-0.162677
-0.161816
-0.423542
-0.238403
0.0509858
-0.387338
-0.0101964
0.0302871
0.0271124
0.0834063
0.0565377
-0.391385
-0.274272
0.0335346
-0.436734
-0.438667
-0.242688
-0.313515
-0.00799375
-0.380583
-0.430964
-0.0862067
-0.0194343
-0.000578818
-0.18634
0.0675216
0.0179905
-0.136337
-0.398598
-0.139231
-0.265065
-0.429856
-0.0486928
-0.047252
-0.324431
-0.0155597
-0.0193864
-0.397453
0.0886362
-0.0258282
0.132414
0.105853
-0.0370855
0.356994
-0.0779138
-0.443205
-0.10144
-0.400653
-0.363598
-0.408424
-0.406681
0.051766
0.00129049
-0.443385
-0.446352
-0.203538
-0.230241
-0.359907
-0.0595459
-0.000501969
-0.409618
-0.317197
-0.251329
-0.0098161
-0.0387359
0.044985
0.0374407
-0.134489
-0.224982
-0.0373051
0.0245627
-0.0207531
-0.407078
-0.284378
-0.132672
-0.0330126
-0.094179
0.0147737
0.0179466
-0.179551
-0.405219
0.00261165
-0.448523
0.0267106
-0.400834
-0.137092
-0.407296
-0.218504
-0.0134906
-0.44649
-0.00386685
-0.0950101
-0.311932
-0.329676
-0.407224
0.0192766
-0.0283254
-0.00556264
0.0123651
0.36716
-0.0151828
-0.0696002
-0.04593
-0.319207
0.0267526
-0.00211292
-0.32179
0.018875
0.170852
-0.0103827
0.0113411
0.420587
0.0212408
0.103365
0.0121257
-0.327119
-0.429046
-0.00383773
0.0023679
0.0274608
0.476387
0.0705518
-0.404318
-0.403408
-0.410085
0.0233763
-0.14797
-0.0120784
-0.307162
-0.0140688
-0.35385
-0.215494
-0.186488
-0.153475
-0.0307594
0.00683342
-0.00760672
-0.09377
0.0496456
-0.223868
0.469138
0.0107784
-0.127149
-0.0174647
-0.0910078
0.0106841
-0.316479
-0.0226352
-0.0311921
0.405568
0.00364021
-0.445573
0.00237106
0.0752121
-0.00251969
-0.0161336
0.00125249
0.010411
-0.448
-0.0959114
-0.411551
0.0207999
-0.0488271
-0.42137
-0.130579
-0.0788311
-0.307529
0.20874
-0.0177649
0.0388047
-0.131309
0.0119903
-0.344204
0.436465
-0.448087
0.0205883
-0.322496
0.0118334
0.00978334
-0.227075
-0.0215457
0.00447406
-0.406293
-0.0278323
0.0888119
-0.00255624
0.344904
-0.403693
-0.0808997
-0.392087
0.183063
0.00471947
0.00937737
-0.450008
-0.0440765
0.00236671
-0.00505302
0.103772
-0.428486
0.0223556
0.0182744
-0.156679
-0.000934857
-0.229729
-0.155426
-0.0330482
-0.300124
0.483793
-0.0477204
0.00820127
-0.262324
-0.0656994
-0.360259
0.428077
-0.0149037
0.0023798
0.0223027
-0.0475194
0.0108806
-0.00943012
-0.0386685
-0.450737
-0.102512
-0.0102683
0.0189981
-0.412477
-0.164454
0.118552
-0.256235
0.0281009
-0.0488486
0.335725
-0.298543
-0.109266
-0.442706
-0.319249
-0.0378514
-0.0462129
-0.442779
0.0305592
0.0106293
0.0407041
0.0327733
0.196177
-0.405719
-0.0339194
-0.154308
-0.373873
-0.000646957
-0.0767825
0.0581763
-0.383265
-0.389021
0.000346122
0.40822
-0.327646
-0.401231
-0.227747
-0.00741616
0.0549255
-0.444972
0.0843591
0.00712993
-0.401635
-0.394845
-0.301832
0.0246669
-0.401166
0.0262275
0.00394234
-0.414744
-0.162196
-0.312805
-0.450036
-0.165333
-0.114146
-0.0222388
-0.0400002
0.000282293
0.00543513
-0.298376
-0.41228
0.00168486
-0.0179487
-0.042444
-0.0502571
-0.388025
0.217879
-0.0132005
-0.351962
-0.344339
-0.022848
-0.429109
-0.0175172
0.0514634
0.00543084
-0.0140901
-0.0252818
-0.0462903
-0.151557
-0.291788
-0.400305
-0.118527
-0.387094
-0.240306
-0.44361
-0.230167
-0.182315
0.446042
-0.00184853
0.00355652
-0.0820904
-0.306953
-0.168466
-0.404557
-0.405426
-0.448343
-0.411227
-0.448108
-0.0357838
0.00162814
-0.319235
-0.0498644
0.0070146
0.454925
-0.102567
-0.153482
-0.316702
-0.421686
-0.0863196
-0.0405855
-0.302642
0.153373
0.000413911
-0.0148962
-0.226289
-0.40641
-0.399596
-0.423472
-0.0151495
0.0225694
0.209639
0.0398035
-0.396174
-0.323503
-0.362929
-0.298522
0.0117042
-0.0658363
-0.0962484
-0.449307
-0.0206007
-0.143682
0.00715494
-0.0200266
-0.303014
-0.381775
-0.0128738
-0.195041
-0.418556
-0.182087
-0.0206691
-0.113931
0.0368628
-0.405195
-0.0244564
0.000426881
0.259557
-0.202084
-0.088469
-0.0342045
-0.442307
-0.144161
-0.435614
-0.378438
0.136727
0.00312573
-0.155573
-0.360312
-0.0237519
0.0176478
-0.406646
-0.450707
0.0421429
-0.0366296
0.0113899
-0.452077
0.00309295
-0.406119
-0.33108
-0.252153
-0.153021
-0.298484
0.00530193
-0.0928391
-0.017681
-0.393763
0.253685
0.00439355
0.0215927
-0.160458
-0.38405
-0.00579147
-0.407091
0.00185504
0.00188832
-0.121844
-0.397499
-0.0742648
-0.0676227
-0.0295282
-0.0543879
-0.318059
-0.293216
-0.431522
-0.150496
0.0482637
0.358326
-0.231914
-0.409674
-0.347301
0.0886784
-0.169533
0.0341047
-0.219895
-0.0766631
0.00696791
-0.349083
-0.189413
0.00677957
-0.0317769
-0.294789
0.0156262
0.0252476
-0.0576788
0.0941947
-0.148911
-0.00694417
-0.0199558
-0.0935026
0.067237
-0.279035
-0.0525025
-0.44986
0.0273195
0.00737085
-0.400626
-0.318601
-0.436095
-0.228513
0.470615
-0.405878
-0.12708
-0.0320444
0.0254296
-0.217768
-0.12763
-0.0270104
-0.0832187
-0.0313079
0.0774023
-0.402141
-0.41256
-0.342299
-0.401674
-0.0409641
-0.158211
-0.44695
-0.012792
0.506578
-0.0366494
-0.0229105
0.167734
-0.0181661
0.00375082
-0.0621182
0.0441519
-0.125723
0.388943
-0.0313468
-0.225658
-0.442938
-0.230296
-0.437821
0.0391624
-0.0392509
-0.403165
-0.410641
-0.196884
-0.0485161
-0.419684
-0.233983
-0.386861
0.00782731
-0.0225778
-0.388802
0.00539236
0.20711
-0.260909
-0.140495
0.277844
0.00422457
-0.0141498
0.0169014
-0.0492025
-0.114122
-0.40629
0.0719243
-0.335153
-0.449857
-0.0146302
-0.0626263
-0.392214
-0.442871
0.00288838
-0.216834
-0.154847
-0.442177
-0.0630096
-0.314143
-0.120587
-0.0865302
-0.404507
0.378147
-0.267446
-0.262297
-0.353685
-0.214553
0.00648437
-0.411125
-0.345169
-0.045279
0.105039
-0.0540921
-0.322786
0.012008
-0.00381696
0.0111915
-0.103588
0.140077
-0.283485
0.066604
-0.450534
-0.44242
-0.402536
-0.436451
-0.000753513
-0.084896
0.0261726
-0.113608
-0.0266906
0.00738447
-0.170968
-0.416593
-0.00226037
0.0157573
-0.292889
-0.407675
-0.0414547
0.383527
0.0321819
-0.0619526
0.0324087
-0.37342
-0.042706
-0.00476628
-0.0306906
-0.393261
-0.163058
-0.161485
-0.0681367
-0.0165104
-0.411001
-0.0566132
-0.386341
-0.266084
-0.400881
-0.203758
0.0035834
-0.319307
-0.0698464
-0.046068
-0.0257721
0.00686295
-0.410948
-0.0233479
0.0245263
0.00684152
0.00477329
0.00848718
-0.405397
0.182578
-0.314624
-0.192048
-0.411057
-0.408839
-0.413725
-0.0183023
-0.0442857
-0.424962
-0.396869
-0.268992
-0.376554
-0.165122
0.0535926
-0.035678
-0.423409
-0.0192732
-0.291018
-0.43017
0.0226321
-0.312315
-0.394145
-0.411567
0.0145414
-0.0299651
-0.119661
-0.0037928
0.208707
-0.0143835
-0.000202499
-0.328593
-0.275115
-0.448133
0.0323067
-0.0119307
0.0146702
-0.270547
-0.0172222
-0.232627
-0.411219
-0.113659
-0.00598913
-0.0960038
0.0119762
0.00649877
-0.0136341
-0.2569
0.00179207
-0.425414
0.366612
-0.436494
-0.0259978
0.243177
-0.312027
-0.0550376
-0.398873
-0.386651
-0.410653
0.0328931
-0.404867
-0.0787233
0.00158734
-0.395067
-0.44863
-0.000433911
-0.409752
-0.310093
-0.303985
-0.219404
0.0267663
-0.132966
-0.375175
0.439871
0.0269063
-0.372985
-0.227193
0.269711
-0.418193
0.455205
-0.437685
0.0187133
-0.00201169
-0.138703
-0.441524
-0.255986
-0.406035
-0.0938546
-0.41133
-0.316996
-0.311595
0.0877653
-0.0071014
-0.00468877
-0.411199
-0.356524
-0.425623
-0.450214
-0.118469
0.176289
-0.195486
-0.309669
-0.00622826
-0.44556
-0.013124
0.0725823
-0.000302483
0.00948786
-0.378541
-0.018231
0.224999
-0.204395
-0.0451415
0.027438
-0.216807
-0.0432947
-0.014048
-0.415186
-0.0338645
-0.210669
-0.403992
-0.126052
0.00183559
-0.442787
-0.0169036
-0.381728
-0.303806
0.019457
0.0179856
-0.0408455
0.0067245
0.0144997
-0.0447864
0.0169759
0.004784
-0.404483
0.0851084
-0.00615304
-0.030712
-0.0140102
-0.410127
-0.380982
-0.236549
0.0213034
-0.0380812
-0.407186
-0.24936
0.169236
-0.000772828
0.0175883
-0.0183388
-0.317752
-0.397303
0.071938
-0.410426
-0.40509
-0.348793
-0.434274
-0.195095
-0.00430377
-0.159787
-0.118808
-0.121834
-0.000149315
-0.425197
-0.0358829
-0.450175
-0.0171503
-0.177964
-0.0082324
-0.397739
-0.316541
-0.133887
-0.409355
-0.238503
0.0100265
-0.131799
-0.268728
-0.160422
-0.0283841
0.0501919
0.041866
-0.448923
0.294182
0.000727211
-0.0143765
-0.30341
-0.0169429
-0.1066
0.507025
-0.194495
-0.409382
-0.345377
0.0152436
-0.212925
-0.00868318
-0.426508
-0.0252697
-0.16753
0.0896113
0.000863344
0.0215203
-0.201293
0.186389
-0.00576534
-0.352192
-0.0340754
-0.397173
-0.392506
-0.292123
-0.428001
-0.0595443
-0.405825
-0.12598
0.0658054
-0.106397
-0.103736
0.0106955
-0.0196291
-0.224365
-0.356254
0.00646524
-0.0184376
-0.0170919
0.00237494
0.429521
-0.277748
0.0428697
-0.105462
-0.340975
0.166142
-0.253282
-0.153813
0.242168
0.108819
-0.0763201
0.00711091
-0.0196976
-0.0162842
0.153662
-0.011492
0.01176
-0.0651421
-0.325415
0.00688875
0.0161096
-0.000160024
-0.019211
0.00834233
-0.14071
-0.0870778
-0.119471
-0.203167
-0.0185813
0.441656
-0.292585
-0.0230074
-0.301053
-0.410567
0.0205352
-0.429643
-0.322371
-0.0145573
-0.18828
-0.222518
-0.0974694
0.0197352
-0.132879
-0.0264083
-0.408952
-0.146939
-0.41178
-0.440725
-0.269244
-0.0870438
0.00600764
-0.410506
-0.121405
-0.202845
-0.422469
-0.407338
-0.125658
-0.401353
-0.0384513
0.121061
-0.449
-0.401429
-0.0916028
0.160559
-0.381714
-0.0121017
-0.238203
-0.0817643
-0.234141
0.02262
0.1199
-0.4414
-0.405023
-0.0117641
-0.377184
0.0802047
-0.0223389
-0.392869
-0.408263
-0.0654369
0.030474
-0.0667206
0.50265
-0.0807281
-0.44844
-0.401971
-0.429636
0.0114988
0.0149904
-0.0737185
-0.143818
0.116513
-0.100571
-0.112782
-0.121415
0.430428
-0.405849
-0.396303
-0.414471
-0.275255
0.023571
-0.38157
-0.24567
-0.0365185
-0.446578
-0.102402
-0.0699678
-0.17314
-0.411205
-0.236988
-0.0199783
0.199096
-0.332727
-0.134745
-0.00566535
0.00787712
-0.244936
-0.0134318
0.0976127
-0.246825
-0.145015
-0.432087
0.427502
-0.415779
-0.4083
-0.399207
-0.281332
0.00319427
0.115882
-0.068476
-0.408614
0.00510256
-0.405819
-0.413758
-0.371517
-0.439599
0.0735838
-0.404995
-0.388507
-0.413987
-0.399875
-0.0813733
0.399788
0.0149316
-0.0282005
-0.238696
-0.114768
-0.26614
-0.408597
0.000668481
0.00112371
-0.441784
-0.00602893
-0.396063
-0.00824941
-0.400631
0.0152029
-0.0849932
-0.415665
-0.00551364
-0.404642
-0.408591
-0.412852
0.0326866
-0.125701
-0.327686
-0.309997
-0.307899
-0.443884
-0.266868
-0.0786737
-0.012664
0.00101851
-0.261178
-0.0553613
-0.375151
-0.413922
-0.359756
0.0915276
-0.359101
-0.0176438
-0.26049
0.431244
0.0261455
0.00137788
-0.400336
0.00258024
0.0264687
0.425057
-0.00590311
-0.366306
-0.411112
-0.420088
-0.426884
0.160415
-0.380615
-0.00238142
-0.312293
-0.00874223
0.0387497
0.0143246
-0.163352
0.0129659
0.00599251
-0.43056
-0.0148588
0.0231862
-0.0483985
0.252708
-0.215
-0.399979
-0.216628
-0.104898
0.000733523
-0.419555
-0.148853
0.0444817
-0.0672766
-0.394208
-0.410332
0.00170906
-0.432901
-0.439573
-0.106434
-0.413794
-0.0873752
0.0281902
-0.402824
-0.425479
-0.408958
0.421774
-0.176561
0.063989
0.122208
-0.0661296
0.0219594
-0.319069
-0.279526
0.0125427
-0.0278635
-0.442736
-0.431274
-0.404763
0.137699
-0.409927
0.192579
-0.0774555
0.0410072
-0.024183
-0.378305
-0.194627
-0.409389
-0.35652
0.15475
-0.174874
-0.340076
-0.40079
-0.118653
-0.243273
0.261612
-0.0158998
-0.190327
0.0576291
-0.0217121
-0.0114334
-0.443058
0.00722181
-0.0201225
0.0558136
-0.337874
-0.0424482
0.106943
0.0219003
0.451189
-0.0955623
0.116022
0.0116341
-0.221508
-0.243998
0.104723
-0.0129914
-0.000328827
-0.371756
-0.279476
0.0196784
0.0585852
0.453717
-0.0198329
-0.213
0.17882
-0.377182
0.0110422
-0.0546343
-0.0151864
0.0576641
-0.035038
0.430294
-0.409993
0.433133
0.447491
-0.0376419
0.321455
-0.12851
-0.164146
-0.0111004
0.018645
0.0824739
-0.411312
-0.412581
-0.0562885
-0.0146686
0.228013
0.415247
-0.346351
-0.026829
-0.413767
0.0300367
0.0220827
0.0138736
0.455792
-0.0263803
-0.0523226
0.00309762
-0.401182
-0.0731055
-0.0104653
-0.399175
-0.289284
0.00157326
-0.394724
-0.0887308
0.21538
-0.314033
0.468601
-0.0093429
-0.440781
-0.33
-0.449932
-0.0208279
-0.153802
-0.0445359
-0.103418
-0.287033
-0.0443859
0.483762
-0.127381
-0.135425
-0.399197
-0.0180666
-0.299801
-0.34374
-0.339047
0.017311
-0.277882
-0.189221
-0.104361
-0.417761
0.127794
-0.394346
-0.180137
-0.154736
-0.146978
-0.0203139
0.0250812
0.130996
0.340541
-0.118175
-0.0149697
-0.0640488
0.0257764
-0.342754
-0.0180006
-0.405668
0.0135021
-0.254171
-0.184833
0.177471
0.00263003
-0.166201
-0.145217
-0.0104666
-0.336333
-0.0959562
-0.160379
-0.0647711