/*--------------------------------*- C++ -*----------------------------------*\
| =========                 |                                                 |
| \\      /  F ield         | OpenFOAM: The Open Source CFD Toolbox           |
|  \\    /   O peration     | Version:  v2012                                 |
|   \\  /    A nd           | Website:  www.openfoam.com                      |
|    \\/     M anipulation  |                                                 |
\*---------------------------------------------------------------------------*/
FoamFile
{
    version     2.0;
    format      ascii;
    class       volScalarField;
    location    "150";
    object      ddt0(omega);
}
// * * * * * * * * * * * * * * * * * * * * * * * * * * * * * * * * * * * * * //

dimensions      [0 0 -2 0 0 0 0];


internalField   nonuniform List<scalar> 
18649
(
-0.167374
3.65527e-06
-0.127038
0.00393776
-1.26025e-05
-0.980992
-4.20687e-06
-1.75819e-05
0.0446445
-1.30874
8.36568e-06
1.78736e-06
-2.85477e-05
-1.6099e-05
-1.81855
1.61069e-05
0.000408082
-4.31863e-06
-0.75745
2.78088e-06
1.04854e-06
-0.415412
0.18047
0.00080764
-2.31879
0.322976
0.0705297
0.0462497
-2.10106e-06
-0.749737
0.000304618
-0.000985307
0.000242282
0.00148705
2.12542e-06
0.00386596
2.73479
0.00281752
9.44129e-06
-1.22597e-05
0.0159906
1.11091e-05
0.0124346
0.0395986
-0.0303738
-0.258115
-0.201632
0.00152519
-5.84329e-06
0.0180373
0.00508048
0.315775
2.87828e-05
0.0637825
0.000389967
0.0245183
-3.10117
-6.10253e-06
-0.000172049
0.152031
-2.61354e-05
-0.00808508
-5.6118e-06
-0.669671
-0.66981
-0.0219655
0.129936
0.000240773
-0.0357422
-0.434541
0.0654761
0.00201222
-4.28432e-06
-6.04081e-06
-0.0073215
0.0289861
0.000164052
1.98669e-06
-0.713269
-0.0110293
-0.00615114
0.00459479
0.0617746
-0.963919
8.14021e-06
0.0414291
-0.00101367
0.000208026
-0.00923473
-0.223392
-1.85321
-0.0265412
-0.00715677
-0.4033
-0.000230551
1.92346e-05
0.00187724
0.00986944
-0.00147911
-3.43384e-05
-0.122831
2.06669e-05
0.808387
-3.28281e-06
0.0495636
0.0482441
-0.507968
-0.68572
-0.00559725
-4.02357e-06
4.07879e-06
-0.00114187
0.00110795
7.18894e-06
-0.000234402
0.156877
0.000472804
0.00133
-4.73115e-06
-0.000386582
-7.18716e-05
-0.00249814
-0.190141
6.66222e-06
5.07019e-05
0.000210904
-1.2851
-2.1385e-05
-4.9595e-05
-7.64834e-05
-1.04867e-05
-0.663456
0.00659764
0.0348946
1.16412e-06
-0.856129
0.0513556
-0.254642
0.0455042
-0.0341967
-0.000360482
3.06262e-06
-2.41053e-05
-9.93133e-06
0.0228235
-5.77415e-05
8.54168e-06
-0.0287083
0.0552939
-1.36532e-05
0.029025
-0.00339169
2.08234e-06
-3.47118e-06
-0.00233441
0.822292
-1.61573e-05
0.000270704
7.12207e-06
-0.216546
-1.01408
-0.0208179
-1.16736e-05
0.0264533
0.0141045
1.47582e-06
-0.115298
0.0547004
3.1652e-05
-3.57231e-05
-0.00145603
-3.25331e-06
3.54951e-06
-0.00051157
0.0149002
-0.0106525
-0.0305207
-1.79192e-05
0.0546298
-1.29433
-5.94115e-06
-0.0438936
0.00386641
0.000196717
6.12537e-05
-0.00639694
0.000257543
-0.00423314
-5.16867e-05
2.31554e-05
0.00025534
0.0390673
-0.00574009
-0.00211662
-0.0103514
2.8274e-06
0.0128649
-0.00251165
0.0279114
0.00175518
-4.09363e-06
-9.60045e-06
-0.138894
-3.83725e-06
1.58033e-06
-2.03732e-06
0.0259727
0.185868
0.000121811
5.01342e-06
-4.76664e-05
0.000557146
1.27727e-05
0.000535423
-1.16432
0.00236135
-1.06058e-05
5.11071e-05
0.000138017
-0.206027
-0.502232
-0.00754942
-0.520259
-0.120491
-0.0483594
-0.0367239
-0.00413038
0.0931098
-5.82633e-06
-0.720627
2.50835e-05
-0.00786937
-0.00139066
4.19447e-06
0.191462
-6.89874e-06
0.000232138
4.22579e-05
3.17843e-06
-9.40115e-06
-3.63856e-05
-0.104441
-0.00606043
-0.665121
-0.0841219
-0.00385971
-0.00229666
-2.48587e-06
-0.7138
-0.00818547
-0.00482143
0.101599
-0.000185539
-0.0125511
0.000588389
2.68067e-06
-1.99987e-06
-3.79469e-05
-0.655788
-0.000160812
0.874364
1.7425e-05
-3.2533e-05
-0.00170679
2.23604e-05
-0.00757784
5.27719e-05
-0.153735
-1.09564e-05
9.43807e-05
-1.90803
4.13482
0.00191011
2.56294e-05
-0.741723
-0.00463055
-2.61881e-05
0.000108829
0.00855062
-0.0215563
0.0899349
4.49266e-05
0.157562
-9.60371e-06
-0.00010512
0.0418995
-0.0053311
-4.56975e-07
0.0411312
3.73138e-05
-3.40582e-06
-1.22824
-7.7545e-06
-4.61077e-05
-2.73092
-0.695873
-1.59291
-0.265575
-0.000891962
-5.08328e-05
-0.000292605
0.0242567
-0.0378605
-2.39372
0.051588
0.000490858
-0.290586
-0.00876372
-0.00132267
0.0197137
-2.38037e-06
0.57095
-0.000314418
-0.000702557
1.065e-05
0.00283764
0.00061204
-0.00894895
-0.0201868
5.30809e-05
-0.52081
-1.90992e-05
-6.20457e-05
5.06837e-06
-0.149051
0.000658479
-2.85292
-0.107747
-0.00018873
-6.67311e-06
4.85727e-07
-0.0145403
0.0780039
6.02265e-05
-0.164817
-6.63308e-06
0.110132
0.0258891
-0.00134786
0.00953958
-0.00200311
0.177125
-0.057815
-0.04311
-2.00253
-0.029132
-0.00137604
1.1657e-05
-0.237253
0.159049
0.000190069
-0.477593
1.65577e-05
6.74243e-05
0.000604667
0.00769368
0.000444647
0.0109258
0.0138953
0.000147643
0.00133473
-0.330056
-0.199749
2.94584e-05
-0.0874915
0.0647188
-0.000256376
5.79262e-06
0.150249
1.10599e-05
-0.000696139
0.410334
-0.0191555
3.7644e-06
-0.407246
-1.17966e-05
-0.503434
0.0932422
0.0387133
-0.0013746
0.0248271
0.000345509
0.000832821
5.63063
0.0536673
0.000192732
0.00233749
2.10683e-05
3.5199e-06
5.08356e-06
0.0761343
-0.00276159
0.0158158
-0.000104877
0.0413937
0.640235
-0.0121205
1.2049e-05
-2.936e-06
1.08485e-05
0.032495
1.27044
0.00015117
-0.00430733
-0.100821
4.34592e-05
2.06496e-05
0.102916
0.00102187
-0.00407423
-2.3045e-05
-0.00063373
-0.0194458
-1.34145e-05
0.110797
-0.000250632
0.00933609
0.000318528
1.81262e-05
7.85072e-05
-0.00104304
0.0144638
0.0175845
-0.0322846
-0.303445
-7.98024e-07
-0.12877
-0.322417
0.000727315
0.652319
-1.57384
-6.44396e-05
-0.000142841
3.038e-05
0.188049
7.22082e-06
-2.11803e-05
0.249416
1.05429e-05
0.00981638
-5.62671e-05
-1.10735e-05
-8.28276e-06
0.00560621
-1.42676e-05
-0.000162085
5.68127e-06
-0.0171701
-0.660186
0.00149538
-8.14016e-06
-2.0362
-1.15181e-05
-0.0191097
0.0027789
-1.37699e-05
3.46314e-06
1.44464e-05
0.0181633
0.0178062
3.953e-05
-2.16529
7.40205e-06
-0.0172587
0.458047
0.0011526
-9.53074e-06
0.00115393
-1.32161e-05
0.000251588
-0.00250573
-2.90286e-05
3.41977e-05
0.527331
-0.00926105
0.00265505
-3.38438e-06
-0.00010997
0.00258366
-0.0131385
5.737e-05
-0.791592
0.000141942
-3.37331e-05
-0.00253193
-0.295119
-9.24643e-06
-0.541575
-0.26811
-7.64114e-06
-0.00544172
0.280317
0.00832533
-0.0467579
6.80867e-06
0.0342071
-0.062946
5.9464e-06
8.73998e-06
1.57081e-06
-0.00844009
5.04263e-05
2.28645e-05
0.000417812
0.408967
0.0793176
-0.306048
5.24344e-05
1.99885e-05
-0.810724
-0.00247277
-5.86752e-06
-3.29855e-05
0.00125059
0.00327122
0.00150565
0.0473072
1.59456e-08
0.00928309
1.65142e-05
8.96518e-06
-0.000273799
-4.16527e-06
-0.50198
8.65931e-06
0.016239
2.8705
-0.0823548
0.00569853
0.00089935
1.44371e-06
0.483588
-6.68879e-05
6.31012e-06
-0.0015132
-3.97676e-06
-3.75995e-05
0.00206484
0.529068
-3.5363e-06
-0.46707
-0.000388289
-0.065843
-6.1902e-06
0.00759487
-1.27834
-0.142187
0.000289028
0.00566821
-8.28415e-06
0.000450604
-0.252623
0.0334113
0.00580308
-5.47972e-06
-0.412245
-0.109474
-0.32914
-5.52059e-06
-2.71099e-05
1.03999
-0.537666
0.0190962
0.000661042
-1.99702e-05
0.000619057
0.296314
0.0136276
-0.000460326
0.000282144
0.000233299
-0.00406944
0.00940741
-2.33576e-05
-1.053
1.74111e-05
0.0533266
8.47276e-05
-1.39816
-6.42612e-06
2.27356e-05
-6.98326e-06
-1.92948
0.000386894
7.1807e-06
0.000109991
-6.14816e-06
-0.0828193
-0.143919
-6.30595e-07
-5.44212e-06
-0.000162102
0.473918
-0.00760279
-0.376592
-1.28376e-05
-2.78837e-06
-0.182332
-2.66045e-06
0.0183173
3.98943e-05
1.22227
4.57649e-05
-9.19116e-05
4.45228e-06
-0.884083
2.00969e-05
-0.0554038
-3.9915e-06
0.0489206
-1.17523e-05
-0.196824
-0.00184262
-5.45288e-06
0.0122883
-1.78495e-05
-2.4835e-05
-2.97992e-06
-0.196936
-0.00924464
8.32365e-06
-0.0191745
0.00421677
-3.6685e-05
0.00209966
0.00153681
-0.740872
-0.391631
-0.00183804
0.249518
-7.38422e-06
-0.0497392
-1.98638
2.78145e-06
-0.138144
-0.658661
0.00118551
-2.00766
-2.46027e-07
-0.0891465
-6.10799e-06
-0.150454
0.0608306
-2.31045e-05
-0.134639
-1.98736e-05
-0.000368986
-6.50868e-05
0.000397204
0.372324
6.1304e-05
-0.183945
-0.0409388
-0.055974
-4.5116e-06
-0.86127
-0.00109602
-0.000243823
-0.499333
-9.77024e-05
1.12352e-06
0.00264187
5.19057e-05
0.00139505
-0.0491454
6.36205e-06
0.0245978
-0.0161897
0.000197559
5.90064e-05
-0.0161376
0.00108052
-5.34057e-06
-2.32623e-06
-0.0747673
0.730264
-0.0095609
0.00704474
0.585147
0.0185307
4.41592e-06
-0.174451
-1.33626
-5.52018e-06
-0.00993096
-5.2159e-06
0.00155335
-4.17341e-06
-9.37792e-06
-7.81361e-06
-2.97404e-05
-5.35841e-06
-0.849669
-0.688209
0.525809
0.00014223
-0.00603754
0.021185
3.87735e-06
0.0375108
0.00293665
0.0746645
0.000207668
0.0309532
3.03098e-05
0.163818
-0.00712692
0.0197065
-1.22904e-05
7.0386
-0.44262
-0.00193047
-0.128838
-1.17508e-06
0.80451
3.64631e-06
-0.00279821
0.373754
-3.58445e-05
4.0969e-05
8.26151e-06
-2.63913e-05
-0.00201573
7.5081
7.14203e-06
-0.185146
0.70569
-0.567674
-2.8462e-05
-0.00825346
-3.8887e-05
6.97284e-06
0.0223785
-0.0537412
0.00326181
-0.000722678
0.000532911
0.019261
-2.70101e-05
-0.000137496
0.134236
0.0402021
-0.000131791
-0.0165475
-0.00790805
-5.50305e-06
3.73682e-06
2.63589e-05
-0.17328
-0.000288215
2.23689e-05
6.65321e-05
-0.586532
-0.0931938
-0.00380275
-0.098616
0.000490577
-0.0870304
-7.07038e-07
1.22998e-05
-5.35212e-05
-0.00165673
-0.0210054
-2.62068e-06
-8.07704e-05
4.64435e-05
-0.927882
-0.000278118
-0.342239
-0.471477
3.78635e-06
-0.00188211
-0.496255
-2.02128e-05
6.07321e-06
1.5886e-05
2.22809e-05
-0.264447
0.000715563
0.683208
0.000837694
0.00527326
4.38282e-05
-4.4917e-06
2.41697e-05
-4.01098e-05
0.017386
-0.837231
0.00643218
0.131744
-0.88469
-0.331907
-5.19185e-06
-5.31933e-06
-2.23529
-0.00151643
-1.14355
0.0014886
-0.00431959
0.0166128
0.0404857
0.039725
0.0442372
2.38579e-05
1.3253e-05
0.000103976
-3.05363e-06
0.167964
-0.518473
0.000216152
-1.3655e-05
0.00385868
0.000359826
-0.727074
-0.27719
-1.33077
4.36009e-06
9.62505
6.95931e-06
6.14456e-06
0.00153533
-3.29429e-05
0.000321948
-0.0882955
-3.30593e-06
-0.0176668
0.000391999
4.19989e-06
-1.51679e-05
-0.00174453
0.259243
-0.152334
-0.00422132
0.458509
3.88504e-05
-0.00220843
-0.0105263
-0.0333508
-0.000168173
0.000242264
-8.62426e-06
-0.0319422
0.000192734
-3.43348e-05
2.25918e-05
-4.64653e-05
1.28733e-05
-0.904441
-0.000822139
-0.0012007
-0.520142
7.9668e-06
-0.00193693
-0.167951
-0.290806
5.54307e-05
-5.86793e-07
-3.12115e-06
0.000364364
-1.34519e-05
-2.28681
0.000665723
-0.0198401
0.000470201
-0.000712959
8.74896e-06
4.22989e-06
-0.12046
2.36886e-05
0.000316458
-0.0201205
0.0727934
-0.121482
-0.48877
-0.00138402
-6.7406e-06
4.86025e-05
-0.865283
1.70578e-05
0.847345
0.0107027
-0.766606
2.24832e-05
0.259861
-2.12624
-1.03628e-05
-0.00139654
-0.0550292
-0.437254
-4.60533e-06
-4.84248e-05
-1.81312e-06
-0.266408
-1.00982
0.00103163
-0.293271
4.91618e-05
1.15503e-05
0.000583985
2.50922e-06
0.000120156
1.84537e-05
-0.293824
-0.289578
-2.36694e-05
6.66832e-06
-2.49549e-06
0.001495
8.78701e-07
-0.651421
0.109583
-0.00290799
2.58539e-05
7.89212e-05
-2.71732e-05
-1.59594
-0.09745
0.288451
-0.530574
0.000172964
0.0187992
-0.716318
1.22936
2.40546e-05
1.40793e-05
-0.00556877
0.00136638
-0.405718
-1.67313e-06
0.00046193
3.25025e-05
0.00725401
0.00138942
-7.94599e-05
-0.000208131
-0.361349
-1.75944e-05
-0.0106271
-0.143112
0.034531
0.00364538
0.062152
-6.69531e-06
-0.00785592
0.0129152
-4.51972e-05
-7.45138e-06
-0.0284352
0.0045897
-0.0846139
5.78498
3.69856e-06
1.65605e-05
0.00456745
8.92165e-05
0.320016
-0.929853
2.71564e-06
1.5166e-05
9.9337e-05
-6.62558e-06
-0.399813
0.000141512
8.02832
0.595894
0.00221708
-0.0212376
0.00102964
0.0104263
0.000520097
0.05886
-0.0250866
0.000533737
0.0249785
-0.235507
-5.46792e-06
4.36361e-06
-7.28961e-06
0.588416
-3.05196
-1.17466
3.88562e-05
-0.580114
-0.0160842
-2.52797e-06
-1.52838e-05
-5.52963e-06
-0.0151375
-5.99497e-05
-0.0331848
3.62263
-0.877651
-4.22224e-06
0.140367
-3.3426e-05
-0.010562
-5.15478e-05
-0.318632
-0.547582
-2.85404
-0.284948
1.73902e-05
-3.40228e-06
-0.5609
-9.30613e-07
0.000414794
0.293841
-2.796
-1.775e-05
0.000136896
4.26618e-06
-0.127486
0.257533
-0.218686
-0.00258238
-0.00172244
0.00321138
-4.60534e-05
-0.55498
-0.00227782
0.35337
-0.0019681
-0.000517403
-0.0614934
0.0618372
-0.127838
-0.00260813
8.02868
1.29263e-05
-0.000588063
-1.52051
-0.0236472
-0.0174674
0.000116484
-1.20844e-05
-0.0816048
-9.33174e-05
-0.383224
-1.64162e-05
-0.0591594
6.69139e-06
-0.0554239
0.0190205
0.232356
3.40432e-07
5.69921e-05
-0.0896654
-0.000109685
6.49153e-06
-0.299872
-0.0191813
0.00185899
0.000234865
-0.371993
-0.00303346
-2.78896
5.76983e-06
-0.0695387
0.000629305
-3.64703e-05
-3.29437e-06
-0.0144289
-7.6676e-05
9.18878e-06
2.75259e-05
-0.0794324
-0.550722
-5.39784e-06
-6.63604e-06
0.000641055
-0.0633176
5.98996e-05
8.59088e-06
-2.84358
-0.201257
-1.24848
-1.24067e-05
2.70945e-05
-2.13399
3.58136e-05
0.0396475
1.50818
-2.39153e-05
-6.04738e-05
-1.55102e-05
-0.00374733
-2.65835
-0.126311
2.35154e-05
-2.11548e-05
0.0152772
-0.00509717
0.0051047
-0.515759
4.75171
0.0192683
-4.91475e-06
-0.598013
4.11885e-05
1.19496e-05
3.42813e-05
1.14695e-06
3.48528
0.00063719
-0.00565556
-0.000142983
-1.13643
-0.0936861
-1.32029e-05
-0.000114742
0.00462444
-2.91439
-1.27214e-05
0.00745484
0.000818609
0.000518336
-0.734563
-0.0112572
-0.915038
-0.0442011
0.0268688
-0.229424
8.03142e-06
9.36045e-05
0.0138678
-0.00648526
-2.40349e-05
1.70925e-05
0.0179913
0.00173387
0.0536243
-0.0318435
4.10254e-05
-0.0832531
-0.135414
-2.25778e-05
-2.76713e-05
-0.338587
-0.000620205
4.4103
-0.12931
-1.69121e-05
-7.45719e-05
0.0307264
-0.0875995
0.0806121
5.75751e-06
7.44293e-06
2.45766e-05
0.000236415
-5.1451e-06
-1.58838
-8.23794e-06
-0.0734788
-1.39851
-9.65997e-05
0.000445143
0.000160812
-0.140574
-0.000137137
-2.15993
0.000971314
-0.109856
7.39616e-06
-0.00336011
-7.80691e-06
0.00657238
0.00116162
-0.316984
-5.20177e-05
-4.20313e-06
3.74832e-05
3.1287e-06
1.06076e-05
-6.76144e-05
-7.50326e-05
-5.69528e-06
0.0883941
-0.4334
7.76913e-06
-0.0333848
0.000590764
0.000258427
0.00922989
-4.61167e-06
1.33398e-05
0.0850801
2.51624e-05
0.00954362
-0.0894157
-0.00635255
-0.0773431
-0.238206
-8.09957e-06
0.0171703
1.68643e-05
0.0139178
-1.85813
0.000317567
-2.39467e-06
-3.07291e-05
-0.0014185
0.000118637
-7.13065e-05
0.0108499
-0.000119927
-0.0329936
6.28252
0.00391872
-0.0020549
-1.79992
0.000526056
-5.31926e-06
-0.000719933
-6.77796e-06
0.0415509
-3.21954e-05
1.0364e-05
-0.0020733
-0.41425
-7.5803e-06
-6.14865e-06
1.9741e-05
6.43458e-06
-0.00264784
-0.0133156
-0.00437359
-2.53117e-05
-0.133496
0.0290848
1.02932
0.0207046
-1.12582
0.000299968
-7.53254e-05
-1.3949e-05
2.56629e-05
0.0651222
1.28963e-07
-0.134798
-3.98166e-06
-0.00749388
1.93446e-05
1.44968e-05
-0.482318
0.000176206
-0.204854
-0.00760395
-0.0770186
-1.33467e-05
2.82826e-06
-0.000631221
0.0116494
0.000447473
0.0451499
-0.0358678
1.40398e-05
-3.37495e-05
0.000977696
-2.3285
-6.71649e-06
-4.2938e-06
0.00359786
-3.687e-05
0.056035
-0.232573
-0.303486
-0.181673
0.0798287
-0.0176942
-0.363325
-0.194257
-1.02377
-0.108619
-4.85131e-06
-5.07936e-06
-0.0952747
0.00674623
-1.29711e-05
3.67743e-05
0.0482507
-0.175675
0.00376866
-2.31891e-05
0.000765437
-0.17224
8.53748e-06
-5.25563e-06
-8.81177e-06
0.0561036
0.0012568
0.126268
-1.00703e-05
0.00889527
0.00402194
-3.50581e-05
0.0705187
3.22675e-06
5.06706e-06
5.64711e-06
-0.000154818
0.000705367
-0.0531947
-0.321133
-2.04678e-05
-2.52876e-05
-8.39472e-06
6.73038e-06
0.0306673
-3.71032e-05
-7.75994e-06
-6.7053e-05
3.11794e-10
0.000281058
-3.65682e-06
-0.000150265
-0.258117
0.176571
0.069108
0.000177588
2.75694e-05
2.62054e-05
-1.17087e-05
-0.112074
-0.00775166
8.43371e-05
-0.000397357
1.49663e-05
-0.42103
0.000260103
-0.167986
1.33949e-05
-0.773717
-2.40112e-06
2.54335e-05
-0.0603326
-0.0480123
-0.0962376
-0.0172167
1.03053
-6.15062e-06
-0.0173487
-1.78233e-06
-1.76173
-0.778773
8.94508e-05
-2.3931
4.0935e-05
2.40591e-05
0.114971
1.42882e-05
-8.48278e-06
-0.00382246
0.00492748
-1.76598e-05
-0.000512972
-0.000431591
5.61317e-06
-0.036533
-4.32459e-06
-1.64879e-05
0.280098
-5.9124e-06
-0.0477423
-5.43585e-05
-7.20589e-06
4.45315e-05
5.6111e-06
-2.36258
-6.44096e-05
-0.183715
0.0450375
-0.00468845
-5.58471e-06
9.81519e-06
-1.44125e-06
0.0752616
-0.000179519
-5.76844e-06
0.000616904
-5.36012e-06
0.104974
-0.179943
9.58267e-06
-0.481303
3.52326e-07
-0.0338517
5.0641e-05
-3.5117e-06
-0.00495398
0.0165741
-2.4323e-05
0.00381496
0.0213677
-0.24439
-9.10605e-06
0.020473
-0.515123
-1.99374e-05
0.0577448
1.26599e-05
-0.161103
2.1908e-05
-0.895145
-0.838955
-0.00272177
-3.81654e-05
-0.00530671
7.10307e-06
3.76364e-06
-0.000995345
0.00317399
-3.94013e-06
-0.0474221
-0.0225075
-2.82813e-06
1.16043e-06
-3.55544e-05
-0.000433578
-0.0143345
8.54917e-06
8.09798e-05
-5.20294e-06
7.72624e-06
-0.000419978
0.0439095
-7.60886e-07
5.95554e-06
-0.000225387
0.0343984
0.406102
-1.2905e-05
-0.0365946
-0.306842
-0.314154
-2.48944
-0.000393719
-4.03596e-05
-3.59338e-05
2.0478e-06
4.06482e-06
-0.732766
0.000291101
-1.96955e-05
7.78179e-06
-6.21406e-06
-0.0474987
0.000368135
2.78613
0.000145254
-0.648338
4.75337e-05
-0.293083
6.53811e-06
0.00759489
0.000197546
2.00774e-05
0.00120349
1.86342e-06
-1.78001
0.00154119
-4.641e-06
-2.37708e-05
0.473065
-0.726363
-6.27812e-06
-6.48533e-05
0.108609
-0.0290479
0.0851262
4.22726e-05
-1.7411e-05
-0.0408049
-6.11387e-05
-0.0349942
-2.12078
-2.92265e-05
0.000303336
-0.187068
6.71192e-06
-2.17522e-06
1.97626e-06
-0.167092
-0.00238851
0.0253124
-0.065985
-1.86435
-1.93011
2.04817
-0.260167
5.80598e-06
-4.09034e-06
3.92837e-05
-0.000811574
5.24103e-05
1.09848
-3.2868e-07
-0.192792
0.000100959
-1.06934
-0.0507853
0.0219557
0.000127806
-1.37296e-05
0.0223593
-1.9596e-05
4.56441e-06
0.000863769
-0.17108
0.0858614
4.68279e-06
2.94877e-06
0.000431312
-1.50178e-05
-1.07628e-05
-0.000187424
1.276
0.000548125
-0.73629
-0.00159711
0.0359218
0.00504074
-0.0903484
-0.0488062
0.000714059
0.0361726
0.00016626
5.5594e-06
3.91609e-06
-1.19212e-06
-0.0241775
-6.36643e-05
0.0257163
0.00159516
-0.0768079
-2.91224e-06
-0.00246346
0.000771728
-0.208015
0.113892
-0.0160679
5.43835e-06
-8.78808e-06
-3.81721e-06
0.00171831
-3.98383e-06
-0.0683866
0.000167836
-0.470898
-0.613968
-3.34619e-05
5.61824e-06
6.55477e-06
-2.32987
0.684035
1.34491
-0.000321762
-3.06894e-06
-1.27891
-0.0508247
-6.7331e-06
1.23298e-06
0.737016
0.93061
-0.000119498
2.0888
-0.0414654
9.32324e-05
0.0771889
-3.94154e-05
2.1856e-05
0.00376876
-1.25007e-05
-1.20371e-05
-0.00255034
0.000892211
1.63735e-05
4.28029e-06
2.42523e-05
0.000141564
8.22995e-05
7.15607e-05
-4.45733e-05
7.87064e-05
-0.000340813
-4.73962e-06
-0.00741967
0.000237495
-0.533229
1.5494e-05
-0.859114
-1.27871e-05
-1.83771
-3.9953e-05
0.0149634
0.000466462
-6.48989e-06
2.35644e-06
1.49211e-05
0.0079079
0.000554281
0.0726016
0.000209209
-3.75354e-06
-0.344209
0.000513455
-0.213184
-0.261202
0.377761
-0.786335
0.00235903
0.00229765
-3.37038e-05
0.000786966
-4.74391e-06
3.90813e-05
-1.37079e-05
0.000177409
-0.553278
0.0115401
0.000339365
3.30076e-05
-0.000660286
0.46631
8.45799e-05
-3.28983e-06
0.0174729
-4.20482e-05
7.25459e-06
-0.48077
-0.000260218
-0.197889
0.000105756
-0.00224879
0.00262552
0.0832188
0.000157134
-0.235081
-0.393452
-0.165199
0.170747
9.80054e-05
-1.02984e-05
-4.98745e-05
-0.000169899
-4.44024e-06
-0.371335
-2.57641e-05
0.00429375
2.06839e-05
-0.00233224
-1.951e-05
-1.39544e-05
-0.000938294
-0.520651
0.417447
-1.13622e-05
-2.44779e-05
0.116112
-1.6718
4.38716e-06
0.0117528
6.90538e-06
0.000449148
-8.37228e-05
-5.72372e-06
0.129663
0.0806089
-0.000258305
1.911e-05
0.0683772
5.17181e-06
-3.932e-06
0.768415
-2.36966e-06
0.013634
-0.0677623
-7.47543e-06
0.00421366
2.49169e-05
-0.976501
5.1179
-0.00341964
-1.19649e-05
0.000642007
1.14187e-05
-0.0327854
-0.00518102
0.0493649
0.00158528
-2.36567
-0.468475
0.0077007
-0.791856
-0.0157403
-3.65133e-05
-0.378877
-0.749549
-0.000470217
-0.108042
-0.00241935
-0.0294515
-0.00396967
-0.000314866
0.0775512
-0.401495
-0.00301433
-0.172873
-0.0771873
-4.64232e-06
-0.000458561
-0.931173
0.0973902
0.0115039
-0.0142578
-0.00127653
-0.0137076
0.000170753
0.0020751
0.194611
-0.0448007
-8.10212e-06
5.28283
0.00029567
-0.024641
-1.11574
0.00182493
0.0275775
-0.0128379
-2.02345e-05
-0.342652
0.00299044
-0.00037623
-4.37597e-06
-0.178776
-0.74978
0.000304688
9.61087e-06
0.00127145
0.593031
-2.13002
-0.23092
-0.00152207
5.31321
0.000337888
-1.021e-05
-0.0250225
0.140116
0.000437776
-2.59742
-0.0379855
-0.0948059
-1.97464e-05
-2.54538e-05
0.140137
-0.136605
0.00719771
-0.000148507
-0.162977
-0.725502
-0.0500088
-1.94607e-05
2.34488e-05
2.41239e-05
-2.91711e-05
0.00010304
-3.87463e-05
-3.21924e-05
0.00289779
-0.199376
0.00113411
7.78871e-05
-1.64396e-07
-0.0795169
0.00219828
0.00183157
-2.51618
1.0173e-06
0.00234204
0.0456054
3.96551e-05
2.30838e-06
0.0126575
-6.12305e-06
-0.00858557
0.000137722
-0.0150171
-8.35827e-06
0.0225325
0.258175
-0.000129715
6.09829e-06
0.138316
2.8709
-0.00213613
0.00647206
-0.256917
-0.812439
0.0638768
-0.468268
0.010349
0.143173
0.00270535
0.251035
-1.23364e-05
-5.398e-06
-2.10844e-06
9.11018e-06
0.00112375
-4.84349e-05
-0.408203
-1.14086
-0.000946128
-0.479575
0.291092
-0.420412
-0.608394
6.88799e-05
0.0153929
0.0795861
-8.28392e-05
-0.00140213
4.83843e-06
-8.24287e-06
0.836556
0.00245518
-0.710687
0.000182645
0.610075
-0.0139443
-0.000145984
-0.242879
-3.92805e-05
-0.00180561
2.31294e-07
1.92695e-05
0.00856029
-0.137211
-5.31349e-06
0.29335
5.30719e-06
9.36442e-06
0.0771353
5.88446e-07
9.39606e-06
0.000237074
-0.0112918
-0.00202613
0.00253154
0.022587
0.000131317
-0.0805405
4.37422e-06
1.47314e-05
-1.26934
-0.136609
-2.46317
0.000590424
2.13967e-05
1.24858e-05
-0.0920827
0.0018785
0.00112941
0.000612926
-7.89104e-06
-3.55886e-06
-6.67681e-06
0.000993255
-0.00176515
-0.908136
-0.0772761
0.0048663
-4.49506e-05
0.00185387
-0.0143227
-0.230618
-0.00388272
-0.000793107
0.0437088
-3.77644e-05
-0.00901319
1.77476
-0.293596
-3.41531e-05
0.000520881
1.68634e-05
0.0209772
-0.599005
-1.1337
-0.497636
-0.0493768
-0.00055935
9.7396e-06
-0.0214411
0.000218979
-0.836201
-0.00172816
8.7678e-06
0.00711249
-2.10718
1.03923e-05
1.60445e-05
-6.45905e-06
0.00334384
-7.2853e-07
-0.00251985
-0.325523
-0.00449895
-0.350101
2.59105e-07
0.000570299
1.76067
-2.18506
0.000376068
6.50335e-05
0.216893
0.00108479
-0.416221
-0.192648
-4.10492e-06
-1.3454e-05
2.52166e-05
-0.157609
-0.194592
-2.22418e-05
6.07401
-0.409804
-0.28979
-6.91848e-07
1.26944e-06
0.000185786
-2.51374e-06
-0.84697
0.0432561
-0.0631145
-0.200393
3.04629e-05
-2.77417e-05
-0.0242677
-1.25404e-05
0.118252
-0.551435
-0.000380877
-1.0634
4.33748
3.47383e-05
0.00301507
-4.17688e-07
1.10131
-1.13163
-0.21199
-5.18246e-06
-2.48837e-07
-1.9249
0.0811502
4.7759e-06
-1.61419e-05
0.000886654
0.000698118
-0.0210311
1.01878
0.000620908
-0.00603092
-0.417553
-0.0370291
0.123939
0.269836
0.030437
0.344424
-0.00920865
-0.969133
5.47774e-06
0.211233
-0.0266028
-2.44384e-06
0.00705543
-3.89973e-06
-6.61347e-05
-2.35515e-05
-0.164172
0.0961909
0.000128013
-3.736e-06
-0.149506
-0.00742457
0.000411439
0.0117322
0.00118807
-0.13925
0.0508538
-0.202243
0.000100034
0.567054
0.00105531
0.000260605
0.000138093
2.28155e-05
5.3718e-06
-0.980321
-2.61504e-05
-0.0190122
-1.22638e-05
-0.0016049
-0.000259481
-0.00121278
0.000619886
-5.07588e-06
-0.0255092
-5.3982e-06
-0.106778
1.01141e-05
-0.306808
-0.00680137
0.462199
-0.0170311
0.0614003
-0.0628794
0.0010019
0.0533346
0.427007
0.0296065
-0.0425562
0.00646149
-6.08593e-06
0.000860065
-0.00491217
1.17949
-0.651862
0.00616985
-0.00117095
-0.0123101
2.25949e-06
-2.72728
-0.0751316
-0.967719
0.000127058
9.65354e-06
0.00224809
-2.39693
-7.71462e-06
0.00363406
0.118689
-4.61843e-06
0.0350508
1.7729e-05
-0.425196
0.27533
0.173208
0.00794053
-5.61099e-07
9.12874e-05
-0.0228672
-1.1482e-05
0.000350371
-0.601739
0.00109134
9.51262e-06
-0.0176258
-0.0141808
0.00136484
-4.97083e-06
-0.0217843
-0.00931661
-1.53104e-05
0.000976826
0.0876963
-0.146979
0.0166656
0.0208167
0.481778
9.7207e-05
-2.98553e-06
0.00160403
1.53701e-06
-0.000602796
-0.00933578
0.0095942
1.59357e-05
-7.81649e-06
-1.83091e-06
0.0389231
0.809047
0.000119541
-0.412342
-0.000101556
-0.00947672
0.00163687
-0.127717
-0.560865
-0.0315793
0.0629431
0.0557943
0.000659443
-1.02329e-05
0.117979
8.57237e-05
-0.0968938
1.23029e-05
0.000342526
0.000324762
0.000229785
0.000354038
2.1741
9.94797e-07
0.00263001
3.9205
-2.10269e-05
2.2531
-3.97759e-05
-0.0208073
-0.503037
-0.0436059
0.0516297
-2.76863e-05
0.244989
-0.000765241
-1.51964e-06
-0.00271802
-6.58272e-05
0.00164275
0.00321917
1.06672e-05
-1.23271e-05
1.50651e-06
0.0228815
0.00957325
0.0747513
0.0211506
4.9173e-06
0.022735
1.11673e-05
-0.000746743
-0.200098
-4.76535e-05
1.27739e-05
-0.0746127
5.6144e-06
0.166999
0.0772846
-0.00371965
-1.20082
-0.0850203
-0.00155107
-0.000251994
0.00345932
-4.05033e-06
0.000860462
0.0633594
9.69245e-06
-2.52634e-06
-0.6791
0.0141545
-0.114162
-0.4584
0.059282
0.019519
0.0183756
0.521494
0.000151349
-3.76239e-05
0.00272237
0.105761
-0.109488
0.000137928
-1.58313e-05
-0.00140063
0.0281014
-0.0163557
0.00031635
-1.24085e-06
1.12853e-05
-0.349354
0.00177439
0.000858885
0.00769666
1.48171e-05
-2.9947
-1.5847e-06
0.00147822
-0.614008
-0.57199
0.124279
0.000703205
0.00116008
-0.0193005
1.13187e-07
8.33881e-05
-0.332605
0.047248
-0.37203
-0.262646
-0.023052
2.2456e-06
4.93176e-06
-2.8197e-05
1.21714
-0.0209356
0.00586202
0.000313776
1.0633e-05
-0.00332519
2.20479
2.38165e-06
-0.0502072
0.00294881
-0.608069
-0.110733
7.52088e-06
-0.0922689
-1.77147e-05
0.000141366
-0.200114
-1.56796e-05
0.00106671
-0.034492
0.000502031
3.40886e-06
0.000911785
0.0117491
-1.33132e-05
-0.0409363
-3.43136e-05
0.175799
-0.140345
-0.427495
-5.22309e-07
-0.0218449
0.00636338
0.00094826
-0.0298713
-1.30714e-05
-0.301349
-0.000495715
-3.15871e-05
0.238565
-0.0144407
-0.00097368
-2.36304e-06
3.1861e-06
6.76518e-05
3.71957e-05
-0.257977
0.000226882
0.000536663
-0.00956335
1.36099
-0.169071
0.00162095
-0.417231
-0.17966
0.000112579
0.00286219
1.25536
-1.31162e-05
-0.360695
-5.01183e-06
-2.47607e-05
-5.76362e-06
0.0080495
-0.0306454
0.0110636
2.85499e-05
0.84248
-2.41805
-0.0275982
0.00353438
0.023295
0.000272252
0.000227446
-2.02103
1.12021e-05
-5.22388e-06
6.86063e-05
5.0023e-05
9.86081e-06
-1.93698e-07
0.00408564
2.06042e-05
-0.0127174
0.678004
0.00176547
0.00944091
0.00109967
-0.00375946
-0.128411
9.6002e-06
0.000251695
-0.020385
-0.0196965
-2.48318e-05
-7.62017e-06
-0.129271
-1.13508e-05
0.00613042
1.51262
0.0122921
-0.0999785
-0.00060699
0.00164499
-0.672101
-0.589694
5.93074e-05
-0.0203171
0.250702
-0.142147
-1.71741e-05
-0.461772
-6.72678e-06
-1.45587e-05
-0.508384
0.0586154
-1.65835e-05
2.67802e-05
0.434346
-3.18684e-05
-0.0296754
-0.000407186
0.0273066
-0.0028077
8.44305e-05
-1.20555e-05
-0.000636629
-3.44889e-06
-5.15039e-06
-0.111072
-2.26207
-1.15927e-05
-0.0710604
-0.00437401
-0.670358
4.27725e-05
0.510829
8.16183e-06
-5.26567e-06
-0.721553
0.310997
0.0436086
-8.4371e-05
1.32469e-05
-4.92314e-06
0.0107423
0.0887571
-0.327255
-1.05571e-05
0.00325869
-0.984133
-0.90431
-1.21644e-05
1.27319e-05
-1.73647e-05
-3.64536e-06
0.0376852
-0.914853
-1.36927e-06
-0.1474
0.000321005
-0.449332
-0.0432347
0.868612
-0.452685
-3.65465e-06
0.492419
0.000456905
-0.00112894
-0.199856
-0.00588096
0.0166149
-9.0833e-07
2.78507e-06
-0.451873
-1.75084
-0.00284501
-1.15051
0.000456418
1.61631e-05
9.03017e-06
-2.05224e-05
0.0698959
0.178947
-0.00049407
-0.000793437
6.53143e-06
-0.261857
0.014724
1.01149e-05
-0.00656907
0.0632792
-0.740458
0.000772827
2.70606e-05
-1.42981e-05
-2.04484
0.922678
0.00140039
-0.858718
4.55614e-05
-6.84875e-06
0.143398
2.15168e-05
0.0528687
-0.00724695
0.000138449
-5.32388e-06
-0.179493
-1.56059e-05
-0.483356
-0.000246025
-0.000853253
-2.16979e-06
-3.40863e-06
-6.46678e-07
-0.0792721
-0.080613
0.000105762
-0.00963512
-3.22156e-06
2.22883e-05
0.171503
-0.345023
-1.69807
-1.10653e-05
-4.99855e-06
-3.04092e-05
-0.717432
-7.97252e-06
0.000469266
-1.45801e-05
-1.41235
-8.02537e-05
0.0570832
-0.37682
-0.0018118
3.52847e-06
0.00186638
-1.74667e-05
0.0455164
-0.000652179
9.76151e-06
-7.4736e-06
0.0795508
1.06269
-1.05444
0.0637537
-1.23348e-05
-0.398209
-3.1869e-05
0.534669
0.00208995
5.05648e-06
4.66238e-07
0.0189324
0.0512007
0.115838
-1.09376e-05
-0.405986
-3.77116e-07
-1.30156e-06
-1.7661e-05
0.141846
0.201285
-1.63603
0.00028913
-1.00948e-05
-0.0435376
-2.07364e-05
5.25882
0.00862727
-6.22984e-06
-4.61293e-05
-1.13706
0.242508
-1.01893e-05
0.0231035
0.000968492
0.000512356
-2.7714e-06
-1.06009
1.02186e-05
-8.04112e-06
-0.024452
8.38017e-06
0.00804298
-0.942301
-0.00245645
0.0105575
-0.526515
-3.33443e-05
-1.17333e-05
1.15301e-05
-0.000115994
-1.12031e-06
-9.81357e-06
0.0309148
0.0564013
0.000419575
2.32651e-05
-1.2628e-05
-0.267367
2.08752e-06
-5.36091e-05
-1.43098e-05
-0.353929
-0.00465106
8.33953e-06
-6.81784e-06
0.00139548
-9.01705e-06
0.00168428
0.000323191
7.61929e-06
1.23633
-4.8332e-06
0.000191032
-0.153379
1.64243e-06
0.000156859
-0.0186151
-9.3329e-06
-0.848478
1.51167e-06
0.854421
-0.00677256
0.550718
-0.000506614
-0.0335158
-0.00873958
1.18233
0.753832
1.49397e-06
-0.758232
-0.0282822
0.00202042
5.82057e-05
9.12703e-06
2.09206
-7.4314e-05
0.00326065
-0.00191236
-0.0664074
0.000816631
0.000223845
0.00268436
-0.00369173
-1.44727
-0.432737
-0.663257
0.00554413
0.0316842
-0.942481
-0.363386
0.000439663
0.0285908
-0.0926449
0.000100417
-0.0570141
-0.417389
-0.315335
-0.0106024
5.47894e-06
-0.453007
0.00015076
-0.378754
0.000638467
1.10994e-05
0.000125751
-0.0595674
-0.0555637
-0.606232
0.00120459
-0.710628
2.00883
-2.32546e-06
-0.00236345
-0.0181236
0.00310518
0.0254337
-0.229959
-1.64462e-05
-1.45729
-0.296249
0.200608
0.012233
-0.821576
-0.0284327
-0.253782
-0.461047
6.38242e-06
0.880251
2.82452e-05
-0.0023396
-0.0964882
0.310155
0.0383394
-0.0285808
8.93379e-05
-1.38346
0.00606837
0.168302
-0.567845
-1.04649
-0.140359
0.882533
0.113283
-0.00731734
-0.0161904
4.3139e-06
-0.115843
-1.04846e-05
0.272083
0.218627