/*--------------------------------*- C++ -*----------------------------------*\
| =========                 |                                                 |
| \\      /  F ield         | OpenFOAM: The Open Source CFD Toolbox           |
|  \\    /   O peration     | Version:  v2012                                 |
|   \\  /    A nd           | Website:  www.openfoam.com                      |
|    \\/     M anipulation  |                                                 |
\*---------------------------------------------------------------------------*/
FoamFile
{
    version     2.0;
    format      ascii;
    class       volVectorField;
    location    "150";
    object      U_0;
}
// * * * * * * * * * * * * * * * * * * * * * * * * * * * * * * * * * * * * * //

dimensions      [0 1 -1 0 0 0 0];


internalField   nonuniform List<vector> 
18649
(
(0.82071 -0.161501 5.29975e-21)
(1.02094 0.00416472 1.29668e-20)
(0.820607 -0.119183 -4.44441e-21)
(1.19493 -0.155862 5.51441e-21)
(1.03945 0.00059423 8.31625e-21)
(0.832626 -0.478377 0)
(1.01873 0.0056162 0)
(1.05041 -0.00128021 4.19795e-24)
(0.735446 -0.0830671 -8.7573e-21)
(0.767933 0.61913 4.33846e-20)
(1.02322 0.00711862 2.47571e-20)
(1.02462 0.0043342 -5.41962e-21)
(1.0388 0.00085364 -7.34877e-21)
(1.01863 0.00360109 -1.46567e-20)
(0.480315 -0.788224 6.06302e-20)
(1.04141 0.000596157 0)
(1.03675 0.00903514 8.2015e-21)
(1.0187 0.00550701 0)
(0.781268 0.444485 -1.53186e-20)
(1.02096 0.00406962 0)
(1.02475 0.00425602 9.97647e-21)
(-0.312107 0.731409 -4.46155e-20)
(0.996515 -0.0476534 -3.08692e-21)
(1.1778 -0.107891 0)
(0.756853 0.62981 -7.51995e-20)
(1.00815 -0.0302505 3.19683e-21)
(0.714189 0.0441075 -4.18063e-22)
(0.730175 -0.0048408 -6.29481e-21)
(1.02764 0.0136666 1.91989e-20)
(0.324195 0.329768 -5.38115e-21)
(1.03034 -0.0120911 0)
(1.02848 -0.0105764 0)
(1.03668 0.0092259 2.31291e-22)
(1.07143 -0.0442842 2.05259e-21)
(1.02322 0.000457077 -1.16107e-20)
(0.947402 0.00711112 0)
(0.634353 -0.953857 1.57757e-19)
(1.09989 -0.0613859 1.14357e-20)
(1.02327 0.00691484 -2.44874e-20)
(1.01882 0.00387702 2.93591e-21)
(1.03925 -0.426667 1.5409e-20)
(1.02792 -0.000994159 -7.8718e-21)
(1.37916 -0.0278028 4.40147e-20)
(0.767525 0.0628144 -1.25121e-20)
(1.02308 -0.132585 2.96825e-21)
(-0.302026 0.442429 -7.73335e-20)
(1.00507 0.00893214 -2.72545e-21)
(1.09107 -0.0101251 0)
(1.01764 0.00467852 7.68208e-21)
(1.08824 -0.188065 -3.10383e-21)
(1.19215 -0.134172 0)
(0.983782 -0.0921528 2.78635e-21)
(1.03504 0.0148106 8.95867e-21)
(1.03295 -0.389888 6.39665e-21)
(1.06302 0.00511919 5.24079e-22)
(1.31816 -0.264905 0)
(0.690012 -0.407689 0)
(1.01738 0.00478432 -7.61844e-21)
(1.03346 -0.000415622 -7.26045e-25)
(0.871413 0.265045 -1.27156e-21)
(1.04954 0.00557205 0)
(1.19332 0.117721 -1.39115e-21)
(1.01682 0.00567265 0)
(0.720522 -0.43932 1.37371e-20)
(0.278888 0.328966 2.12824e-22)
(1.00745 -0.155195 -1.87424e-21)
(0.896187 0.271027 1.20728e-21)
(1.04237 -0.0117436 0)
(1.00847 -0.141735 -2.89343e-21)
(-0.327748 0.74321 -8.74267e-20)
(0.700901 0.0373804 0)
(1.07273 -0.0436159 -4.38581e-21)
(1.01892 0.00546124 0)
(1.01695 0.00572824 0)
(1.00583 -0.00547697 0)
(0.76476 0.092422 5.70095e-21)
(0.780019 -0.19333 -5.3007e-21)
(1.02275 0.000438106 1.3483e-20)
(0.0332614 0.450615 -1.58127e-20)
(1.01952 -0.0226169 -1.58871e-27)
(1.00859 0.00282205 0)
(1.10166 -0.0774218 -1.33974e-20)
(0.884061 -0.44507 0)
(0.785142 0.412763 1.70262e-20)
(1.04827 -0.00121197 8.39915e-24)
(1.32549 -0.259172 6.53983e-20)
(0.986126 0.028475 1.17853e-20)
(1.0048 0.0576345 -1.42573e-20)
(1.0211 -0.0219627 2.42023e-24)
(0.558758 -0.41219 0)
(0.59219 -0.832065 -5.75183e-20)
(1.29973 0.00281247 0)
(1.17821 -0.118729 -6.3799e-21)
(0.796634 0.0419364 3.41898e-20)
(1.03279 0.00959676 -2.94841e-21)
(1.03575 0.0139907 -8.53247e-22)
(0.948187 -0.0017702 -4.00297e-23)
(1.17799 -0.0529511 0)
(1.00603 -0.134172 -4.74299e-22)
(1.04986 0.00581485 -1.93264e-21)
(0.844365 -0.481395 3.39404e-20)
(1.04189 0.000501253 -3.9249e-21)
(1.10233 -0.150656 0)
(1.0502 -0.00119958 -3.2753e-24)
(0.710031 -0.0814172 -4.0215e-21)
(0.705429 -0.0531979 4.08706e-21)
(0.867812 -0.444011 -1.55679e-20)
(1.33439 -0.539666 1.36589e-19)
(1.29539 -0.293878 -1.09072e-20)
(1.01893 0.00534689 0)
(1.02297 0.000797062 4.94329e-23)
(1.09655 -0.0223579 -3.02548e-22)
(0.996404 0.0683907 1.4221e-20)
(1.03177 0.00472547 1.61434e-20)
(1.03347 0.0100648 0)
(1.1821 -0.0462894 -4.88214e-21)
(1.04102 -0.0125353 5.24755e-21)
(1.09827 -0.0300939 -7.98969e-22)
(1.03659 0.000747845 8.99074e-21)
(0.989492 0.0306646 3.44571e-21)
(1.05065 0.00701395 1.85985e-21)
(1.15828 -0.0707865 2.67284e-21)
(1.03569 -0.355837 9.59958e-20)
(1.03161 0.00442135 -1.00823e-20)
(1.047 -0.000759086 -5.86788e-24)
(1.03121 0.000129529 0)
(0.689336 -0.525368 0)
(1.02084 0.00614419 0)
(1.02741 0.0143503 2.32975e-23)
(1.06038 -0.00601986 6.81326e-23)
(1.01933 0.00705512 2.28511e-20)
(0.713213 -0.459127 -1.54175e-20)
(1.23357 0.140039 0)
(1.25076 0.153309 -1.79957e-20)
(1.02382 0.000471937 -2.16716e-20)
(-0.432128 0.362719 -7.3246e-20)
(0.733811 -0.0685775 1.13871e-20)
(1.33756 -0.564929 -1.00624e-19)
(0.736485 -0.107512 -1.20373e-20)
(0.997806 -0.145953 -1.22413e-21)
(1.08612 -0.00437493 -7.42815e-21)
(1.03364 0.000522985 4.84784e-21)
(1.04312 0.0001679 5.99748e-24)
(1.02479 0.00283194 7.22222e-21)
(0.685351 0.0362885 -1.54747e-21)
(1.05228 0.00631201 -1.62928e-21)
(1.02501 0.0081639 -7.08733e-21)
(1.22563 0.159297 -5.24812e-21)
(0.690315 -0.0359489 6.68853e-21)
(1.02056 0.00667657 5.68894e-23)
(0.8299 -0.147117 5.98294e-21)
(0.895973 -0.272579 8.67066e-22)
(1.03279 0.000586295 1.52934e-22)
(1.01876 0.00498399 1.76244e-20)
(1.14006 -0.0565251 0)
(1.21675 -0.016828 1.00782e-21)
(1.02054 0.00658885 7.03117e-21)
(1.0397 0.010034 6.33681e-21)
(1.03462 0.0042807 -5.15654e-21)
(0.924468 -0.0201896 -6.53924e-21)
(0.84572 -0.491273 0)
(0.795681 -0.265803 -4.03085e-20)
(1.02048 0.006899 -2.36806e-20)
(0.750394 -0.168359 1.00615e-21)
(1.06281 -0.468177 -2.08378e-20)
(1.03525 0.00105021 4.96697e-21)
(1.05642 0.0115821 9.82852e-22)
(0.675879 -0.0603546 -8.55282e-21)
(1.04914 -0.000124288 -1.02572e-21)
(1.05074 0.00536129 0)
(0.982663 0.0263752 2.48917e-22)
(1.02975 0.00123257 -9.6315e-21)
(1.03633 0.00617977 3.27111e-21)
(1.04489 0.00877378 -6.64534e-21)
(1.08155 -0.176158 3.33404e-21)
(1.05882 -0.078709 3.68155e-22)
(0.726908 0.0775348 2.52148e-22)
(1.02032 0.00657522 0)
(0.678675 -0.0770562 0)
(0.841692 -0.49306 -1.91974e-20)
(1.02571 0.00418975 0)
(0.969937 -0.162089 2.9786e-21)
(1.06891 0.0112687 0)
(1.03884 0.0111775 -6.66979e-21)
(1.02822 0.00351886 7.98339e-21)
(1.06811 0.0127813 0)
(1.0625 0.00423602 3.69946e-23)
(1.14856 -0.0559304 5.63664e-22)
(1.05065 0.00630968 8.67085e-22)
(1.05274 -0.0104296 0)
(1.02929 -0.0150252 0)
(0.8229 -0.0876385 1.86357e-20)
(0.878483 -0.248379 3.53479e-21)
(0.976643 0.0421081 -1.07237e-20)
(1.05693 0.100239 0)
(1.03628 0.00603194 -2.72425e-21)
(1.07089 0.0081922 -5.80955e-23)
(1.06904 0.00963797 3.99907e-22)
(1.05052 -0.458006 1.45924e-20)
(1.09275 -0.0093125 -2.12446e-22)
(1.0534 -0.0108617 0)
(1.03926 0.00101118 1.97885e-21)
(0.913911 0.00911681 0)
(1.01874 0.00512557 3.65363e-21)
(1.02428 0.00187687 -1.37069e-20)
(1.02955 0.00100258 1.39159e-20)
(1.26662 0.14004 1.3164e-20)
(0.83201 0.217475 0)
(1.03822 0.00468518 -4.8587e-21)
(1.036 0.0136834 0)
(1.0506 0.00574863 -4.56264e-22)
(0.999455 0.00822353 0)
(1.05651 0.0028979 -4.9756e-22)
(0.985192 -0.05108 -2.77647e-22)
(0.785244 0.410872 -3.5377e-20)
(0.978693 -0.0581224 -1.66584e-20)
(1.0182 0.000704051 -2.06663e-20)
(1.02741 -0.0159904 -3.38853e-21)
(1.03976 0.00981058 1.17514e-20)
(1.017 0.00842842 0)
(0.902408 -0.0152841 0)
(1.0712 -0.0118613 2.2498e-21)
(-0.420998 0.34658 0)
(0.827853 0.0780984 0)
(0.792389 -0.314565 2.04036e-20)
(1.05511 0.00788896 -9.10523e-22)
(0.915013 -0.256024 -7.41354e-21)
(1.11039 0.782605 1.73697e-19)
(1.01921 0.000139319 0)
(0.889327 -0.00890151 -2.546e-21)
(1.05234 -0.0102972 3.41313e-22)
(1.01435 -0.0112509 5.13466e-21)
(1.09223 -0.0163501 0)
(1.02404 0.00404182 3.40372e-22)
(0.721678 0.44137 0)
(1.02591 0.00425174 -9.69918e-21)
(1.0238 -0.00613048 -9.71221e-21)
(1.02781 0.00314908 1.54269e-20)
(1.05654 0.00408009 5.12632e-22)
(1.05019 0.00072509 4.50302e-24)
(1.02636 0.10893 -3.69101e-21)
(0.852477 0.0505475 0)
(1.1066 0.383892 0)
(0.040295 0.485882 0)
(0.803615 -0.359753 0)
(0.994437 -0.00540803 -1.01182e-20)
(0.977587 0.0442099 3.18994e-21)
(1.02355 0.000592326 1.44306e-20)
(-0.393305 0.95526 -9.9377e-20)
(1.15164 -0.0660969 -5.61707e-21)
(0.991822 -0.0117688 1.07069e-20)
(1.06731 0.80975 -4.64596e-20)
(1.02263 0.00444932 4.41074e-21)
(1.00734 -0.00709027 -5.46907e-21)
(1.06262 -0.0272609 -1.86893e-21)
(1.03514 0.000902866 1.3927e-21)
(1.03648 0.0132299 0)
(1.05031 0.00568169 -1.85219e-21)
(0.876267 0.00333297 6.03114e-21)
(1.04963 -0.000192265 0)
(0.578737 -0.914651 -2.88238e-19)
(1.05741 -0.000292138 -3.03756e-22)
(1.06025 -0.00181991 0)
(1.03071 0.079342 1.27689e-20)
(1.0572 0.00238808 4.29398e-22)
(0.897261 -0.235545 2.87303e-21)
(1.04104 -0.000708949 0)
(1.03951 0.0100715 1.37697e-21)
(1.04489 0.000383077 0)
(1.04707 0.0165715 1.01462e-21)
(0.690836 -0.109604 -5.48011e-22)
(1.53338 0.0725348 1.23745e-19)
(0.989189 -0.043195 -1.69518e-22)
(1.04784 0.0162401 0)
(0.563697 -0.890935 6.34505e-20)
(1.16322 -0.0676191 -1.14205e-20)
(1.01532 0.00586223 -6.37509e-21)
(1.05841 0.00319556 1.03635e-20)
(1.0368 0.0943282 0)
(1.20274 0.111164 1.35062e-21)
(1.36012 -0.277906 4.75473e-20)
(1.02922 -0.00442952 -1.61151e-20)
(0.806826 0.210929 0)
(1.01836 0.00056621 7.61804e-22)
(1.0601 -0.00638703 4.91955e-22)
(1.32536 -0.219542 -4.67399e-20)
(0.90032 0.0301478 0)
(1.02434 0.000748899 0)
(0.727491 -0.0403787 0)
(1.04832 -0.00091843 2.91301e-23)
(1.02546 0.00413633 4.27765e-21)
(0.841485 -0.488598 2.04531e-20)
(1.01944 0.00727972 9.43887e-21)
(1.02369 0.00415738 0)
(0.683062 -0.522122 1.52983e-20)
(-0.39473 0.972246 0)
(0.708516 -0.409051 1.06625e-20)
(-0.189071 0.895876 -1.32521e-19)
(1.08438 -0.00210127 0)
(1.04063 0.00876828 -6.7737e-21)
(1.03391 0.0111448 0)
(0.757602 -0.19011 8.38057e-21)
(0.84631 0.0769711 0)
(0.671982 -0.0970455 1.10799e-20)
(1.44504 -0.0924093 -5.05737e-20)
(1.05808 0.00671518 0)
(1.03474 0.0115631 0)
(1.22154 0.00736498 -1.81513e-20)
(1.09061 -0.00477768 -3.91459e-21)
(1.10786 -0.203367 2.37323e-20)
(1.02521 0.00420436 4.50714e-21)
(1.06482 -0.164506 3.8536e-23)
(1.03328 -0.00325904 -1.75891e-24)
(1.06691 0.00409967 6.88738e-22)
(1.01524 0.00352113 -1.78948e-20)
(1.00816 0.00409117 0)
(1.02767 -0.019847 1.05223e-21)
(0.362467 -0.175661 1.24806e-19)
(0.779103 -0.25704 2.91881e-20)
(1.06639 0.00485223 -9.18374e-22)
(-0.067642 0.455664 1.4205e-20)
(1.04866 0.0114543 3.00443e-21)
(1.05051 0.00639055 -9.30102e-22)
(1.02233 0.000740535 1.18404e-20)
(-0.148605 0.878043 1.5693e-19)
(1.04046 -0.00788962 1.08594e-22)
(0.689435 -0.507986 -1.99946e-20)
(0.926223 0.0516365 3.70299e-21)
(1.04343 0.0103456 9.35617e-21)
(1.01752 0.00435365 1.20124e-20)
(1.0204 0.00239173 8.03374e-21)
(0.826941 0.144301 1.80988e-20)
(1.19888 0.196034 0)
(1.04584 0.000341458 -2.51912e-21)
(1.08364 -0.28249 -9.75663e-20)
(1.02577 0.00464311 0)
(1.04707 -0.156463 1.38591e-21)
(1.05736 0.00443852 3.98457e-25)
(1.09966 -0.10912 2.72399e-21)
(1.24299 0.145543 0)
(1.02057 -0.0503368 5.01887e-21)
(0.914263 0.331471 0)
(0.349882 -0.131982 -1.16539e-19)
(0.766049 0.226643 3.95074e-21)
(0.703356 0.658784 -8.35945e-21)
(1.20851 -0.132489 1.3077e-20)
(1.16088 -0.00300763 7.83721e-22)
(1.02389 0.00660924 -7.19228e-21)
(-0.14824 0.944178 -9.091e-20)
(0.813527 0.449414 0)
(1.02295 -0.00616433 1.49735e-20)
(1.09735 0.422733 1.55544e-21)
(1.05721 -0.000153133 0)
(0.998525 0.00175405 1.52163e-20)
(1.05955 -0.0248131 -2.07206e-21)
(1.12807 -0.0352133 7.74148e-21)
(1.03874 -0.00555133 0)
(0.780494 0.481642 0)
(1.00832 0.0151956 4.95627e-21)
(1.06195 0.00349533 6.49377e-22)
(0.999836 0.0557309 1.56354e-20)
(0.693571 -0.615063 8.47925e-20)
(0.996113 0.0361832 -1.97707e-21)
(1.04073 0.0150989 -6.33695e-21)
(0.958376 -0.130456 4.76697e-21)
(0.858142 0.183799 1.05585e-22)
(1.03433 0.011761 -9.3913e-21)
(1.04798 -0.00120307 -8.26174e-24)
(0.906277 0.389358 4.90717e-22)
(1.05661 0.00328363 0)
(1.13107 -0.0468327 2.86258e-21)
(0.667356 0.499463 -4.52519e-20)
(1.06905 -0.0106873 -2.1851e-21)
(1.03144 0.000985805 1.54049e-24)
(0.621365 -0.898633 6.34184e-20)
(1.01946 0.00706155 0)
(1.04599 0.445549 0)
(0.921159 0.433091 -1.00265e-20)
(0.768897 0.449812 0)
(1.2013 0.175947 8.44491e-22)
(1.1849 0.188241 -3.76278e-21)
(1.06622 0.00556427 4.09397e-22)
(1.00173 0.00566623 -1.21331e-20)
(1.55929 0.0154902 -1.5331e-19)
(0.816113 0.445175 1.95212e-20)
(1.00208 0.00471177 1.2588e-20)
(1.0148 -0.0598068 0)
(1.03541 0.00674088 -6.74174e-21)
(1.02021 0.00279437 0)
(1.02216 0.000842173 -3.05667e-20)
(1.20971 0.202074 0)
(1.01606 -0.0120735 0)
(1.0595 0.00346862 -3.9037e-25)
(1.00223 0.00375554 -1.12564e-22)
(0.751868 -0.13101 -1.55248e-21)
(1.08618 -0.138381 -9.98548e-22)
(1.00787 0.0321442 6.99063e-21)
(1.05573 -0.0116034 -4.63384e-22)
(1.04705 0.000671402 -1.12246e-21)
(1.04761 0.0128463 -1.07339e-22)
(1.45118 -0.0838663 0)
(0.833722 0.472242 0)
(1.03771 0.0056348 0)
(0.933782 -0.211124 0)
(1.02151 -0.049203 -5.67846e-23)
(1.0403 -0.000696883 0)
(1.03528 0.00662171 0)
(0.980904 -0.0839945 0)
(1.0654 0.00612731 0)
(1.15743 0.0018462 2.32424e-21)
(1.03052 -8.85258e-06 4.83974e-21)
(0.938681 -0.221354 0)
(1.31004 -0.0192775 2.41592e-20)
(1.01924 0.00699625 0)
(1.39949 -0.283102 -1.05664e-19)
(1.06222 -0.0135542 -6.28849e-21)
(0.777255 0.141058 1.15448e-20)
(1.01872 0.0604691 3.73301e-20)
(1.01693 0.00259116 2.02173e-20)
(1.02905 -0.000867951 1.42158e-20)
(1.07585 -0.0509432 -4.29395e-21)
(1.05881 0.00183592 -2.26075e-22)
(1.09867 -0.190404 0)
(0.684792 0.443179 -2.49999e-20)
(0.92191 -0.0371496 1.23352e-20)
(1.05046 0.00086657 0)
(1.00237 0.0682902 2.98946e-21)
(0.968506 0.00465629 -4.09351e-21)
(1.0562 0.00210814 9.44973e-21)
(0.185311 0.939262 0)
(0.651805 0.66868 5.55717e-20)
(1.05241 0.00699183 4.15481e-22)
(1.02219 0.0424066 1.33586e-20)
(1.02024 0.0422882 0)
(0.0841142 0.190966 0)
(1.02268 0.00731268 1.50363e-20)
(1.02546 0.00688007 1.13763e-20)
(0.639768 -0.403345 -1.74347e-20)
(1.02375 0.00678503 0)
(1.01847 0.0279009 6.87379e-21)
(1.05289 0.00671734 -3.7395e-22)
(1.04732 0.00077329 7.12365e-24)
(1.01943 0.00727874 1.08121e-20)
(1.10932 -0.0962038 -3.5142e-21)
(1.01944 0.00702935 -4.91745e-21)
(1.02218 0.00457496 0)
(1.01665 0.00297175 0)
(1.31744 -0.0473395 -4.77669e-20)
(0.835478 -0.463233 0)
(1.00398 0.00979121 1.93123e-20)
(1.02097 0.0072313 1.85073e-21)
(0.683549 -0.521138 0)
(1.02081 0.00748212 7.1724e-21)
(1.04806 -0.0855146 -5.44964e-22)
(1.07701 -0.0524689 4.34766e-21)
(1.03401 0.000315073 -5.95369e-21)
(1.02412 0.00428276 6.02687e-21)
(1.04755 0.00955627 -1.76459e-23)
(1.02994 -0.501648 3.24816e-20)
(1.36081 -0.233135 -7.83545e-20)
(1.03748 0.00483046 2.47656e-23)
(1.37758 -0.466337 -1.86695e-19)
(1.02282 0.00721696 -2.15216e-20)
(0.748237 0.065618 0)
(0.900605 0.667262 -4.82345e-20)
(1.04488 0.0124276 -3.77585e-21)
(1.04725 0.00150801 -1.25816e-23)
(1.03009 -0.00522817 2.02547e-23)
(1.02114 0.0076782 0)
(1.00353 0.00799338 0)
(0.977439 -0.0184394 -2.93464e-23)
(1.06003 -0.00168618 -1.44415e-22)
(0.979118 -0.0440444 0)
(1.21485 -0.0356924 1.7766e-21)
(0.88734 -0.152007 5.74862e-21)
(1.21355 0.0275586 -1.48737e-20)
(1.01931 0.00603609 0)
(1.02101 0.00566028 0)
(1.04597 -0.0913247 4.33644e-22)
(1.02166 -0.517267 2.00347e-20)
(1.08481 -0.0720514 1.44415e-22)
(0.0406522 0.420794 1.28175e-20)
(0.993702 0.0323123 0)
(1.04996 0.00555145 0)
(1.06221 -0.000246893 0)
(0.909177 -0.397865 9.42361e-21)
(1.02576 0.00560366 -5.58211e-21)
(0.937845 -0.0726877 0)
(-0.213553 0.554601 0)
(1.02511 0.000550427 6.86921e-21)
(0.981608 -0.0167 -7.08673e-21)
(0.61999 -0.367334 1.65806e-20)
(1.02384 -0.00922809 -5.59077e-23)
(0.921473 0.190385 0)
(1.03465 0.00389734 5.40651e-21)
(0.9349 0.21834 -5.47249e-21)
(1.24953 0.361769 -4.20595e-21)
(1.0333 0.00097504 5.8234e-21)
(1.05676 -0.000527679 -7.93435e-22)
(1.03102 0.0209619 0)
(0.876521 -0.139183 6.15897e-21)
(1.02785 -0.0024971 1.26881e-20)
(1.0137 0.00419766 -6.03943e-21)
(1.03605 -0.00668215 3.82703e-21)
(0.999572 -0.0644563 0)
(0.995017 -0.125071 2.26021e-21)
(0.675118 -0.611984 -8.72697e-20)
(1.05177 -0.00976707 -1.6432e-22)
(1.03566 0.0066792 0)
(0.745999 0.406984 -1.5728e-20)
(1.02574 0.0368065 4.19912e-21)
(1.01959 0.0074421 9.69953e-21)
(1.04399 -0.00102487 -1.66036e-22)
(1.37589 -0.0490799 -3.30963e-20)
(1.2493 0.122568 -6.34372e-21)
(0.98956 0.0710654 -8.08407e-21)
(0.747945 0.00437429 -5.33789e-21)
(1.02485 0.00438548 0)
(1.0281 -0.262676 1.00612e-20)
(1.03586 0.0067601 -3.44416e-21)
(1.03343 0.00423604 6.46582e-21)
(1.01244 0.044982 0)
(1.0163 0.00104106 -2.06413e-20)
(-0.381914 0.44994 -1.1819e-19)
(1.03368 0.00396889 -4.07226e-23)
(0.760235 0.14267 3.92835e-22)
(1.25068 0.283393 3.80057e-20)
(1.29936 -0.498868 0)
(0.717153 0.117009 8.84465e-22)
(1.05569 0.0696973 0)
(1.04691 0.00115268 0)
(1.30338 0.220474 -3.0382e-20)
(1.05313 0.00739541 3.72521e-22)
(1.04696 0.00110671 -1.68897e-21)
(1.28389 -0.248289 9.76885e-20)
(1.0152 0.00505994 -2.00013e-20)
(1.04252 0.00147336 -1.41669e-23)
(1.00166 -0.048125 0)
(0.098144 -0.596392 0)
(1.01633 0.00297565 1.29306e-20)
(1.18275 0.450335 1.54551e-21)
(1.02376 -0.0140895 0)
(-0.192633 0.97026 8.80838e-20)
(1.02567 0.00533354 0)
(1.18387 -0.0908906 1.38176e-20)
(0.616648 -0.121411 -1.71527e-22)
(0.735512 0.462239 -6.92264e-21)
(1.03479 -0.00763675 3.76705e-21)
(0.958814 0.132126 1.13524e-20)
(1.02098 0.000148421 0)
(1.0334 -0.0106269 0)
(0.828694 -0.203579 -5.09487e-21)
(1.00366 0.0109403 -5.13491e-21)
(1.02025 -0.246966 -7.0759e-21)
(1.01966 0.0076299 1.15483e-20)
(0.805178 -0.104199 6.87662e-22)
(1.01704 -0.0450146 0)
(0.903202 -0.0766148 1.13694e-21)
(1.02555 0.00509926 0)
(1.02249 0.00763458 1.0597e-20)
(0.906305 0.712686 8.80269e-20)
(0.865998 0.0111779 -4.6689e-21)
(1.38235 -0.0988357 0)
(1.04214 -0.0830709 -4.66522e-21)
(1.04828 0.0116985 3.1135e-21)
(1.04312 0.0143599 -1.85333e-21)
(0.043045 0.161725 0)
(1.12063 -0.204392 -2.49549e-20)
(0.975966 -0.0532847 1.76777e-22)
(1.14792 0.0385512 7.42496e-22)
(1.00141 -0.0340608 0)
(1.1846 -0.0896079 0)
(1.02474 -0.012087 -7.63829e-23)
(1.03715 0.0067909 5.13544e-21)
(0.581141 0.638916 4.19879e-20)
(1.04897 -0.00348612 4.82331e-23)
(0.737578 0.0339327 4.96043e-21)
(1.00493 0.010197 6.13266e-21)
(0.640386 0.629101 -2.59823e-20)
(1.01704 0.00549418 0)
(1.03004 0.0192529 0)
(1.02597 0.00415181 -4.80655e-21)
(1.3745 -0.391921 1.30063e-19)
(1.06038 0.0011288 -5.59822e-22)
(1.05577 -0.000148038 0)
(1.03039 -0.00111125 0)
(1.0177 0.00450549 -1.65425e-20)
(1.46932 -0.147925 0)
(-0.250049 0.460419 -1.42328e-20)
(1.02505 0.00444947 5.78624e-21)
(1.02842 0.0059338 1.14388e-20)
(1.03668 0.0161877 4.30116e-21)
(1.31073 0.214812 1.05631e-20)
(1.06658 0.0165224 0)
(0.95147 -0.0970504 4.53578e-21)
(1.02703 0.000554364 -6.2385e-21)
(1.01609 0.00306503 0)
(1.50158 -0.120799 6.82521e-20)
(1.04178 0.000459532 0)
(0.716036 -0.153466 3.72137e-21)
(1.06206 -0.00148689 -2.83626e-22)
(0.301563 0.84588 0)
(1.04928 0.00547602 1.3647e-21)
(1.05835 -0.00606529 -1.06946e-22)
(1.03529 0.00446172 6.16464e-21)
(0.776047 0.0729137 -2.47429e-20)
(1.03872 -0.000490809 1.23586e-23)
(1.02252 -0.173198 -1.50573e-21)
(1.01642 0.00295869 6.79219e-21)
(0.686052 -0.00384433 -5.61101e-21)
(1.01932 0.00702892 -5.21549e-21)
(-0.205684 0.514748 -3.30606e-20)
(1.06012 0.000202633 5.57259e-22)
(1.02569 0.0043617 4.92282e-21)
(1.35357 -0.0908595 -3.18167e-20)
(1.01823 0.011545 -2.07009e-20)
(1.03713 0.00666329 0)
(1.04461 0.000926876 0)
(1.47887 0.145067 -2.43736e-20)
(0.899042 -0.138381 -3.2392e-21)
(1.03321 0.00386086 -3.41698e-21)
(1.04195 0.00184761 -1.16529e-21)
(0.991541 -0.325338 0)
(1.02205 0.00651944 0)
(0.962906 0.108403 0)
(1.06995 -0.0386217 5.47226e-21)
(0.840916 -0.473902 -9.8868e-21)
(-0.371013 0.46069 2.552e-19)
(0.695055 -0.642555 -6.30689e-20)
(0.104773 -0.636197 -4.50086e-21)
(1.01727 0.00499576 -1.12477e-20)
(0.811535 -0.325628 -8.45069e-22)
(0.682717 -0.511943 2.20182e-20)
(1.02123 0.000487912 0)
(0.815287 0.0499466 -1.55828e-21)
(0.84856 -0.435069 0)
(1.0014 0.0699467 7.33041e-21)
(0.642525 -0.128841 0)
(1.02074 0.000498387 0)
(0.836858 0.590972 0)
(1.01699 0.00531863 0)
(1.26088 -0.498027 0)
(0.85661 0.123909 0)
(1.02523 0.0068454 -1.17929e-20)
(1.43527 0.154994 3.92713e-20)
(1.04373 0.000695223 -7.56975e-22)
(1.00985 0.0542885 0)
(1.05368 0.00695282 -3.74343e-22)
(1.00132 0.0106957 0)
(0.831996 0.399979 1.6245e-20)
(1.0618 -0.00143225 -6.50772e-22)
(1.39142 0.191509 -2.04958e-20)
(0.832258 0.214549 0)
(0.795683 -0.0823118 0)
(1.01934 0.00662366 0)
(0.24473 0.510228 0)
(1.10749 -0.0438984 -8.19695e-22)
(1.02085 0.00180657 0)
(0.848316 -0.455052 -1.08533e-20)
(1.02353 0.00429766 -5.24566e-21)
(1.03123 0.000655008 0)
(0.803633 0.116079 -3.12206e-20)
(1.04442 -0.000793453 5.95373e-24)
(1.05123 0.0752317 -1.26982e-20)
(0.807839 -0.0619439 -1.02434e-20)
(1.03449 0.00343073 -6.06283e-21)
(1.00979 0.0190073 -4.61307e-21)
(1.04699 0.111391 0)
(1.03594 0.00525778 0)
(1.04799 0.00815927 -1.99206e-23)
(1.10009 0.363325 2.14875e-22)
(1.06579 -0.0360465 -5.07356e-21)
(1.02837 0.0048883 0)
(1.03658 0.00607227 0)
(1.29542 0.231548 2.57096e-21)
(0.672814 -0.4002 1.29983e-20)
(0.897427 -0.123776 -6.63712e-21)
(1.25769 -0.281267 -3.48985e-22)
(0.827369 0.475355 0)
(0.716643 -0.15261 0)
(1.02207 0.00771677 0)
(1.0334 0.841261 -1.03187e-20)
(0.705525 -0.514233 5.34173e-21)
(1.01855 0.0057554 0)
(1.22684 -0.00219854 2.08049e-20)
(1.03675 0.00610047 -6.47683e-21)
(1.08806 -0.0840433 2.34012e-21)
(1.0194 0.00680576 0)
(1.03548 0.000526787 1.00564e-20)
(1.02567 0.00535504 -6.09941e-21)
(1.03737 0.00691449 0)
(1.01687 0.00436996 -3.86731e-21)
(0.840107 -0.492546 -3.42407e-20)
(0.112357 -0.425448 1.66569e-19)
(0.703384 -0.394602 1.45321e-21)
(0.978118 -0.0392314 1.22104e-20)
(1.06774 0.0157598 -1.37485e-22)
(0.93355 -0.567122 -4.15055e-21)
(1.05596 -0.000352602 -9.42679e-22)
(0.590334 0.0812604 -1.83782e-20)
(1.0768 -0.0722143 -6.0815e-22)
(0.788382 0.091822 0)
(1.03783 -0.0108067 -1.33622e-20)
(0.967739 -0.556126 -1.93575e-20)
(1.04674 0.0116589 8.38135e-22)
(0.816465 0.569601 -1.54765e-20)
(1.00476 0.0259453 -2.36862e-21)
(0.61668 0.046607 -2.06658e-20)
(1.02393 0.00357965 0)
(1.57374 0.0147857 2.73851e-20)
(0.823859 0.628094 1.94798e-20)
(0.974803 -0.0506166 -9.24553e-21)
(1.29628 -0.0170421 0)
(1.04672 0.000754331 -4.03344e-21)
(0.608865 0.797027 0)
(1.0385 -1.24273e-05 0)
(0.933841 -0.114123 0)
(0.930631 -0.30494 1.62417e-21)
(1.05039 0.00555641 2.05445e-21)
(1.05376 -0.0125346 -2.69403e-22)
(1.03294 0.00400914 0)
(1.04775 -0.00121408 -1.26042e-22)
(0.996435 -0.305542 0)
(1.18307 -0.849728 1.27272e-19)
(1.02361 0.0044908 -6.36661e-21)
(0.907622 -0.0265279 0)
(0.812588 0.728104 2.17495e-20)
(0.711424 0.434503 4.64661e-21)
(1.03744 0.00672936 0)
(0.828204 -0.174443 -9.5664e-23)
(1.05084 0.00582366 4.76824e-22)
(1.0235 0.00424506 5.05352e-21)
(0.786459 -0.170404 0)
(0.718772 0.0997308 1.1772e-20)
(1.08567 -0.0695792 0)
(0.959892 -0.170307 -1.15604e-21)
(1.02567 -0.018276 -3.91158e-21)
(0.807195 -0.184276 6.00663e-21)
(1.0455 0.000365989 2.3081e-21)
(1.03448 0.00237903 0)
(0.972442 -0.133297 0)
(1.40331 -0.0141377 -9.88302e-21)
(1.05912 -0.00658181 2.3833e-22)
(0.886905 0.0397999 -1.05378e-20)
(1.28204 -0.0232094 9.10545e-21)
(1.01686 0.00429354 -2.16579e-20)
(1.03717 0.00457545 4.42963e-21)
(1.05022 -0.00557323 1.06973e-22)
(0.495336 -0.353131 0)
(1.13824 -0.0481528 0)
(1.05702 0.00196136 4.6959e-22)
(1.03018 0.0119282 0)
(-0.433239 0.955211 -3.73007e-19)
(1.26565 0.187378 0)
(0.965426 -0.183826 8.27523e-22)
(1.4863 0.0735803 2.5947e-20)
(1.03848 -0.0126307 1.83138e-20)
(0.597531 0.4377 3.33206e-20)
(1.0155 0.00301803 0)
(1.05719 0.00373497 0)
(1.05749 -0.00539553 0)
(1.03536 0.0750227 -7.2079e-21)
(1.23127 -0.154917 -6.35565e-20)
(1.01588 0.00289141 0)
(1.05396 0.00771704 3.5985e-22)
(1.04919 0.00559755 0)
(0.771277 0.119224 -5.79088e-21)
(1.03346 0.00143522 4.03732e-21)
(0.664941 0.427527 -4.61346e-21)
(0.575722 0.783013 0)
(1.02197 0.00747618 1.10999e-21)
(0.935077 -0.097123 1.71107e-20)
(0.849322 0.650188 -1.53394e-21)
(1.0258 0.00792431 1.03518e-20)
(1.05643 -0.000508849 -1.30641e-21)
(1.05595 4.45586e-05 0)
(1.04756 -0.00420031 -2.67099e-23)
(0.852926 0.117835 0)
(1.04685 -0.000325222 1.69058e-21)
(0.474825 0.840228 0)
(1.04248 -0.0618515 -8.04268e-21)
(1.06764 -0.0721066 0)
(1.04428 -0.000824443 0)
(1.01853 0.00565357 -1.47299e-20)
(1.03822 -0.00700667 9.89689e-21)
(1.04607 -0.00113587 1.08696e-22)
(1.04618 0.00567748 -1.3011e-21)
(0.424019 0.225241 1.74183e-20)
(0.833393 -0.482668 0)
(0.642023 -0.566929 -2.45769e-20)
(0.26324 0.422688 0)
(0.800218 -0.102294 2.84969e-21)
(1.03736 0.00109419 -9.39026e-21)
(1.01799 0.00515391 -9.23866e-21)
(0.797849 0.80659 0)
(1.12657 -0.0530198 3.34201e-21)
(0.943582 0.22415 -9.95623e-21)
(0.974886 0.00931647 2.25999e-21)
(1.21365 -0.163758 2.95154e-20)
(0.684815 0.0464552 7.154e-21)
(0.849345 -0.0456542 -1.91772e-20)
(0.740505 -0.103936 5.12712e-21)
(0.924205 -0.0271852 0)
(1.05712 0.00185809 -1.36384e-21)
(1.05174 0.000305949 2.78313e-21)
(1.00492 -0.0334772 0)
(1.02896 0.00445238 9.49797e-21)
(1.54274 -0.323336 -1.3399e-19)
(0.724576 -0.0773248 3.63518e-21)
(1.0635 -0.00438527 0)
(1.01915 0.00700537 -5.66774e-21)
(1.07911 -0.0615094 1.7432e-21)
(0.965506 0.105806 2.95648e-21)
(0.674634 -0.486708 -4.63184e-20)
(0.983565 0.0204793 -7.94949e-22)
(0.123327 -0.520474 3.06832e-19)
(1.02265 0.000759463 2.65963e-21)
(1.432 -0.596863 0)
(1.02231 0.00400467 -1.05245e-20)
(1.02321 0.00729187 0)
(1.0489 -0.0193223 1.04249e-20)
(1.05489 -0.011335 2.90231e-22)
(1.04138 0.0100795 -6.63428e-21)
(0.838987 0.0381864 -1.14854e-21)
(1.02905 0.00554927 0)
(1.19496 0.0456454 6.19742e-21)
(0.94029 0.00892146 0)
(1.02275 0.000912005 -4.52641e-21)
(1.01851 0.0125427 1.06811e-20)
(1.06204 -0.00106472 -1.8753e-23)
(0.98588 -0.11076 -6.93742e-21)
(0.471819 -0.371831 5.78172e-21)
(0.946342 -0.0281543 2.75719e-21)
(0.693952 -0.619384 6.4e-20)
(1.02508 -0.00150031 0)
(1.23273 -0.00912317 -9.96819e-23)
(0.848364 -0.159923 5.93837e-21)
(1.34042 -0.0304033 0)
(1.041 0.0176049 0)
(1.03086 0.000722487 0)
(1.05015 0.000394902 0)
(1.28624 0.292711 6.72364e-21)
(1.02135 -0.00768923 1.27416e-22)
(1.0462 0.000272926 2.43074e-21)
(1.06142 -0.00159596 -2.5943e-22)
(1.06289 -0.00455583 2.57466e-22)
(1.04686 -0.004105 2.33849e-23)
(0.71675 -0.499022 -2.50905e-20)
(1.06106 0.093977 0)
(0.944599 -0.0235813 -2.84922e-21)
(0.890406 0.0329 -1.05558e-20)
(1.03415 0.00411943 0)
(1.03431 -0.0578085 8.10318e-21)
(1.01823 0.0637913 0)
(0.802114 -0.0249136 7.58519e-21)
(1.0482 0.00647277 0)
(1.06167 -0.00158586 0)
(1.02531 0.00510028 -5.84471e-21)
(1.06239 6.0747e-05 -2.14609e-23)
(1.03867 0.000993638 -5.18186e-21)
(1.49068 -0.280518 0)
(0.974603 0.00940336 -4.67307e-21)
(0.865654 0.128135 7.48511e-22)
(1.06311 0.00564196 1.49354e-22)
(0.981594 0.0360851 1.51999e-20)
(1.0339 0.0042889 -6.50069e-21)
(1.03471 0.000831168 0)
(1.02459 0.0588845 -3.20709e-21)
(1.05009 -0.00527469 -3.06885e-23)
(1.0622 -0.000192482 4.94591e-22)
(1.19506 0.0421167 -8.63055e-21)
(1.06528 0.739005 -1.21976e-19)
(0.757364 0.232177 9.38317e-22)
(-0.347745 0.703612 2.13515e-19)
(1.07945 -0.062256 -1.79434e-21)
(1.01723 0.00485517 4.23997e-21)
(1.04817 0.00617936 -4.17727e-21)
(0.245886 0.388348 1.28623e-21)
(1.0479 -0.00549524 0)
(0.842184 0.459743 0)
(0.736725 -0.100248 4.50298e-21)
(0.991868 -0.502208 -2.04893e-19)
(1.05693 0.00144077 0)
(0.659796 0.406559 0)
(0.722733 0.743544 0)
(1.01939 0.00707929 -1.51781e-20)
(1.00424 0.0413987 -1.06726e-20)
(1.24308 0.331201 -1.36667e-21)
(-0.0890295 0.450123 -7.15239e-21)
(1.02075 0.000149672 0)
(1.09051 -0.0790443 -1.38187e-21)
(1.01848 0.0010699 1.59009e-20)
(0.581925 -0.502999 -9.52217e-20)
(0.065479 0.829847 0)
(1.06485 -0.00500726 2.58826e-22)
(0.678519 -0.550632 1.14873e-19)
(1.03652 -0.00606683 -4.62785e-21)
(1.04352 0.000872574 -4.66349e-21)
(1.04227 0.0117476 -6.73853e-21)
(1.03109 0.00116177 0)
(1.03101 0.0115652 -2.4197e-21)
(1.0498 -0.00448694 -5.94156e-23)
(0.794636 -0.0367734 3.32107e-21)
(0.793534 -0.0563701 0)
(1.05712 -0.00348988 3.49489e-23)
(1.02281 0.00431629 -1.23723e-20)
(1.02526 0.00506182 -2.96297e-21)
(1.00176 0.00666086 -6.96024e-21)
(1.03582 0.00410065 6.18739e-21)
(-0.41261 0.963706 5.07487e-20)
(0.648324 -0.563133 0)
(1.26854 -0.0307064 -1.08461e-20)
(1.05052 -0.00611794 3.64893e-23)
(1.0508 -0.00912361 -7.91422e-23)
(1.04384 0.000432259 -2.0155e-23)
(-0.400422 0.679773 7.35797e-20)
(0.434211 -0.310579 0)
(1.44764 0.0819487 -1.12203e-19)
(1.12761 0.481895 -3.31074e-21)
(1.06121 0.00432962 6.55578e-22)
(0.881062 -0.463105 1.36282e-20)
(0.845219 -0.455768 3.83283e-20)
(1.17292 -0.785962 -1.36645e-19)
(1.0511 -0.00686147 0)
(1.06126 -0.00161571 0)
(0.838907 -0.288181 2.81641e-21)
(0.989071 0.00713765 7.31397e-21)
(0.343024 0.8291 -5.28162e-20)
(1.02938 0.00608783 9.09231e-21)
(1.04853 -0.000374172 -1.9448e-21)
(1.0537 3.65668e-05 0)
(1.09146 -0.1203 -2.44456e-21)
(1.11931 -0.0426989 3.13614e-21)
(1.05805 -0.00606705 0)
(1.03553 0.0273281 3.06507e-21)
(1.01043 0.0115909 -7.41158e-22)
(1.03862 0.00069139 2.40845e-21)
(0.834278 -0.0452322 0)
(0.909607 -0.27103 0)
(0.714713 -0.120688 0)
(1.21992 0.011589 1.65109e-20)
(0.679279 -0.0277397 1.10366e-20)
(1.01715 0.00524706 0)
(1.1824 0.0701288 6.87514e-21)
(0.978575 -0.075764 1.19568e-20)
(1.04921 -0.00115653 -1.85183e-22)
(1.03447 0.000605744 -5.10142e-21)
(0.781502 0.204154 0)
(0.754321 0.03422 8.82708e-21)
(0.387871 0.804262 7.36002e-20)
(0.855882 -0.944844 0)
(1.03139 0.0236377 0)
(1.06103 -0.0015811 2.35642e-22)
(1.04041 0.0877993 0)
(1.02136 -0.00833609 5.37156e-21)
(0.82719 0.665664 2.66511e-20)
(0.791731 0.100395 0)
(1.0558 -0.000199604 -1.4603e-21)
(1.04498 -0.000961995 2.86469e-24)
(0.976447 -0.532787 1.69084e-20)
(1.01954 0.00885994 -5.16492e-21)
(0.856784 0.035638 -8.40886e-21)