/*--------------------------------*- C++ -*----------------------------------*\
| =========                 |                                                 |
| \\      /  F ield         | OpenFOAM: The Open Source CFD Toolbox           |
|  \\    /   O peration     | Version:  v2012                                 |
|   \\  /    A nd           | Website:  www.openfoam.com                      |
|    \\/     M anipulation  |                                                 |
\*---------------------------------------------------------------------------*/
FoamFile
{
    version     2.0;
    format      ascii;
    class       volVectorField;
    location    "50";
    object      ddt0(U);
}
// * * * * * * * * * * * * * * * * * * * * * * * * * * * * * * * * * * * * * //

dimensions      [0 1 -2 0 0 0 0];


internalField   nonuniform List<vector> 
18232
(
(0.186798 0.0386861 8.31935e-20)
(-0.0040499 0.00101748 2.93082e-22)
(-0.000648444 -0.00190946 -2.44753e-20)
(-0.000211132 -0.00157314 -3.67117e-21)
(0.00170943 0.00868526 0)
(0.00403058 -0.000453045 -4.33709e-20)
(-0.000142352 -0.00110323 1.47764e-20)
(9.33705e-05 0.000248687 0)
(-0.00688288 0.0163753 0)
(0.00348321 -0.0133967 2.26659e-20)
(-0.000100443 -0.00241981 2.8115e-20)
(2.6843e-05 -0.0108259 -2.46358e-21)
(-0.000604549 -0.00491812 -3.41743e-20)
(0.0345344 0.00435134 5.02819e-20)
(-0.000603784 -0.00318996 0)
(0.0244652 -0.133557 9.02906e-19)
(0.000116305 1.84544e-05 0)
(3.38799e-05 0.000156132 -7.99303e-21)
(2.63614e-06 -0.0013093 2.02074e-23)
(0.0061017 -0.00211702 -2.59955e-20)
(0.00231664 0.0236565 8.99115e-22)
(-0.000547847 -0.0016456 7.48591e-21)
(-9.55004e-05 -0.00262322 1.64075e-21)
(-0.000381309 -0.00480572 0)
(-0.00446504 -0.00833964 1.47146e-20)
(-0.000649594 -0.0131478 -1.54969e-20)
(-0.00064449 -0.00275155 0)
(0.00860191 0.0301616 -4.55949e-20)
(2.99535e-05 0.000147766 -7.23164e-21)
(-0.000594233 -0.00176662 1.64082e-20)
(1.20041e-05 0.000115754 1.72735e-20)
(0.0271035 0.0817425 0)
(-5.44311e-05 0.000160404 0)
(0.0456253 0.125713 3.90478e-19)
(0.0205482 0.0098278 4.80267e-20)
(-8.10503e-05 -0.00615257 1.16882e-20)
(0.0381963 0.0042048 0)
(5.81383e-05 0.000241588 -4.99607e-21)
(0.0381188 -0.00531666 0)
(-8.70106e-05 -1.36512e-05 -2.15304e-20)
(0.233394 -0.127417 -2.38433e-19)
(-0.00360643 -0.0118865 8.1807e-21)
(0.00377028 0.00354907 0)
(0.00466783 0.00390095 -1.01962e-20)
(8.10402e-05 -0.000244581 0)
(0.0129112 0.00781919 -1.91069e-20)
(-0.00250253 0.0016733 1.48027e-21)
(-0.00301303 -0.0103282 -1.54661e-20)
(0.00590325 -0.00598882 2.85402e-20)
(-0.00211357 0.000708232 -1.95241e-22)
(-1.03677e-05 3.85777e-05 7.99431e-21)
(4.53657e-05 3.91724e-05 0)
(0.276337 0.047971 2.55335e-19)
(0.00111215 -0.00527895 0)
(0.00327272 -0.00320607 -1.17604e-20)
(0.00639911 -0.00366906 -8.1077e-23)
(7.26087e-05 6.58315e-05 2.45876e-20)
(-0.000100797 0.00010148 -2.66512e-20)
(0.000134826 0.000401819 -9.12934e-20)
(-0.00241479 -0.000859929 -1.8793e-21)
(0.000110728 -0.0041974 0)
(5.88667e-05 -0.000256869 -8.62448e-21)
(0.000379485 -0.00439742 -2.42981e-20)
(-5.31351e-05 -0.00159556 3.43788e-21)
(0.00584505 -0.00389911 1.76107e-21)
(-0.00207129 -0.00255699 5.94798e-21)
(-0.00156982 0.0671448 8.7726e-20)
(0.0215537 0.084813 0)
(-0.000681697 -0.00240484 0)
(0.00138487 -0.00257228 0)
(5.64284e-05 7.74752e-05 8.77094e-22)
(-9.30637e-05 -0.000611794 -2.50656e-20)
(0.0321473 0.0809112 -1.03173e-19)
(0.00798327 -0.00540511 0)
(0.00340261 -0.0201114 0)
(0.00522943 -0.00547266 1.73801e-22)
(-0.000335864 -0.00481126 0)
(0.000154263 -0.00232002 4.42239e-20)
(0.0159257 0.00250198 1.27027e-20)
(-0.00108409 -0.00354297 7.80812e-20)
(0.022251 0.0902625 3.24277e-20)
(0.00203065 -0.00386358 -8.91335e-22)
(0.000353725 -0.00711015 5.34837e-21)
(-0.000973655 -0.00180288 -1.57891e-20)
(0.0126625 0.0101802 1.462e-21)
(0.00386138 -3.49056e-05 5.56216e-21)
(-0.000530904 -0.00133602 -8.56539e-21)
(-7.51958e-05 -0.00159193 0)
(0.00404355 -0.00834936 8.88076e-22)
(0.00687607 0.000762399 1.53082e-20)
(6.79498e-05 -0.000401742 -5.39039e-21)
(-0.000658373 -0.00194428 0)
(4.90327e-07 0.000170787 2.59082e-21)
(0.00772216 -0.00313146 0)
(-3.69177e-05 -0.00110949 5.02697e-21)
(0.000525177 -0.00623143 0)
(-2.3901e-05 -0.000572295 1.66588e-20)
(-0.000184393 -0.0029394 0)
(-0.00613313 -0.107761 0)
(-0.00147549 -0.00364357 0)
(0.000964754 0.00127487 -4.27552e-20)
(-0.000427692 -0.0081753 -5.9719e-21)
(0.0118945 -0.00592422 6.99727e-21)
(0.00114259 -0.0127427 2.0979e-19)
(0.00419934 -0.00655014 0)
(-0.000563749 0.00134027 0)
(-0.000610052 -0.00179588 1.01015e-20)
(0.0090239 -0.00454095 -1.89356e-20)
(4.46261e-05 4.87778e-06 -2.2796e-20)
(-0.000896772 -0.00391728 1.83357e-20)
(-0.00217445 -0.00383718 -1.88134e-20)
(0.00547794 -0.0108406 0)
(-0.0024765 -0.000406137 0)
(-7.66524e-05 -0.00138864 7.2821e-21)
(2.76443e-05 -1.47071e-05 8.98727e-21)
(-0.00095967 -0.00619641 0)
(0.00412123 -0.00875947 0)
(0.0125797 0.00925738 1.84586e-20)
(0.00387434 -0.00346349 0)
(-0.000593029 -0.006477 2.0634e-20)
(6.89586e-05 2.43778e-05 1.14865e-20)
(6.12672e-05 0.000253617 -6.30668e-21)
(-0.0421515 0.0252714 3.68054e-20)
(-0.00247773 0.00145518 -6.5734e-20)
(0.0623191 0.00586157 2.19678e-20)
(0.0061041 0.015074 0)
(0.00438841 -0.0405075 -9.88427e-20)
(-0.00143729 -0.000433333 -7.86302e-21)
(-0.000777232 0.0348649 -8.34781e-21)
(0.00619414 -0.00152891 0)
(-0.000801606 -0.00214826 0)
(0.000233094 -0.00320897 -3.16523e-20)
(0.00303202 -0.00543433 0)
(-0.00179657 -0.000452005 0)
(0.194138 0.068993 0)
(0.00471962 -0.00777738 1.03215e-22)
(0.00494434 0.00144546 -2.08365e-20)
(-4.28599e-05 -1.98301e-05 -2.30175e-20)
(-0.00300804 -0.000758337 -3.26518e-21)
(0.0273059 -0.0063259 0)
(0.00206052 -0.00436682 3.16976e-20)
(0.00135594 -0.00253676 0)
(-0.0877698 -0.0428653 7.69305e-20)
(7.78376e-05 -0.0006957 -1.73621e-20)
(0.00129058 -0.00465241 -4.07823e-20)
(0.000987018 -0.0019555 0)
(5.82765e-05 0.000371815 -1.75936e-21)
(-2.40407e-05 4.99179e-05 5.23367e-20)
(0.0218966 0.00450468 0)
(0.00204144 0.0208571 1.55003e-19)
(-0.0149187 -0.00556892 0)
(-0.00241841 -0.00837821 7.1704e-21)
(0.00554555 -0.00922169 0)
(-0.000269039 -0.0043688 1.97569e-20)
(0.00558235 -0.00130736 -2.17848e-20)
(0.202695 -0.0769874 7.49176e-19)
(0.0143685 -0.00571256 0)
(0.00567241 -0.00767587 -6.28685e-22)
(-0.00959166 0.0384316 -3.74966e-19)
(-0.0026121 -0.000405227 3.56146e-21)
(-0.00395134 0.00122963 -3.30428e-22)
(-0.0017177 -0.000639061 0)
(-0.000715589 -0.00252398 0)
(0.00635593 0.0637805 0)
(0.00319615 -0.0203974 0)
(-0.000263138 -0.000358885 3.24203e-20)
(0.00746276 -5.07668e-05 0)
(-0.085042 -0.0384326 -1.77884e-19)
(0.00178014 -0.00230484 5.8392e-20)
(-0.0132177 0.0108668 4.40768e-20)
(-0.00106706 -0.00267386 -1.30972e-20)
(7.53024e-05 0.000268279 1.96406e-20)
(-0.000772886 -0.00221908 8.05042e-21)
(-9.1589e-06 -0.00242515 7.0051e-21)
(0.000188164 -0.00255516 2.45993e-20)
(0.0214336 0.00394604 -1.71986e-20)
(-0.00120375 -0.00429592 4.2528e-21)
(5.54868e-06 3.41232e-05 8.12431e-21)
(0.0177851 0.00820921 -5.00694e-20)
(-6.2121e-07 -3.84274e-06 5.30493e-20)
(-0.00165011 0.0159904 0)
(0.0334537 -0.00511271 -6.05997e-21)
(-9.47803e-05 -0.000817487 3.39772e-20)
(0.0138338 -0.0110898 -1.57677e-21)
(0.0459764 0.0119705 4.59159e-20)
(-9.7955e-06 7.53831e-05 0)
(-0.00324758 -0.00447268 0)
(0.00775074 0.0131468 -3.41882e-20)
(-2.93971e-05 0.000801737 0)
(0.0172283 0.00381062 -1.44312e-20)
(0.000310007 0.00221248 1.79043e-20)
(-0.000214768 -0.00179636 0)
(-0.00415321 -0.0013208 1.55613e-20)
(0.0173053 0.00259831 0)
(4.23495e-05 -0.000249967 -8.94373e-21)
(-0.000446062 -0.00262642 0)
(-0.00244841 -0.000548739 0)
(-4.86088e-05 -0.00122131 -1.46019e-20)
(-0.000716105 -0.000152665 1.8549e-20)
(-0.00118699 -0.00183944 0)
(2.57727e-06 7.42232e-05 -1.47366e-20)
(0.00141882 0.0015176 3.37849e-20)
(0.00254413 -0.0111976 3.39205e-20)
(-0.00926789 0.0881276 2.67261e-20)
(0.00771896 -0.00675138 7.38521e-21)
(-0.0118417 -0.0141576 0)
(0.0175147 0.0172922 2.7427e-21)
(0.102708 0.0720387 0)
(-0.00775302 -0.0110618 8.59508e-20)
(0.00339889 -0.00307949 -5.26799e-21)
(-0.000532462 -0.00181039 1.29169e-20)
(0.000454262 -0.0014038 8.94425e-21)
(-0.0002984 -0.000634286 3.48741e-20)
(0.0356954 -0.0121323 -5.26931e-20)
(0.00699296 -0.0159546 -2.30717e-19)
(0.000570797 -0.00349906 -2.72038e-20)
(0.00374388 -0.0113806 0)
(-0.000172206 -0.00228307 -1.1809e-20)
(-0.000522602 -0.00153332 -2.71254e-20)
(-0.000133668 -0.0014871 -1.37917e-20)
(0.0156119 0.0021662 0)
(-0.00272591 -0.000218206 1.9407e-21)
(0.0314951 -0.007845 -3.86125e-20)
(5.29862e-05 -0.00408721 -3.7234e-20)
(-0.000699496 -0.000172306 -1.29461e-20)
(-0.000499234 -0.00232899 -1.81495e-20)
(3.48285e-05 0.00345166 -2.77251e-19)
(-0.00045945 -0.00305098 0)
(-1.90834e-05 9.08111e-06 -1.92657e-20)
(-8.98269e-05 0.000133519 2.86399e-20)
(-0.000122405 -0.000383521 2.422e-20)
(-0.00288953 0.00330584 -3.05239e-20)
(-0.0885405 -0.0611538 2.07048e-20)
(0.0170089 -0.0120212 0)
(-3.80902e-05 0.000115001 -1.21599e-20)
(0.0139459 0.0119956 0)
(0.000425069 -0.00236669 7.69897e-21)
(0.0125257 -0.0163306 0)
(-0.00182296 -0.00021339 0)
(6.20309e-05 3.51254e-05 2.17547e-21)
(-0.000116002 -0.000676624 -2.35807e-22)
(0.0389516 0.00950546 2.10758e-20)
(0.0188385 0.0101471 7.60394e-22)
(-0.000171275 0.00684018 0)
(0.00244776 0.00268111 -1.04772e-20)
(-0.0132856 0.00792679 -3.71103e-20)
(7.74482e-06 1.95548e-05 -1.36544e-20)
(-0.0146721 -0.00847673 -1.05213e-19)
(0.0267962 -0.000300335 1.79185e-20)
(0.000175852 -0.00220044 1.93921e-20)
(0.00740336 -0.00407796 8.33493e-22)
(0.00726993 -0.00401369 -3.78007e-21)
(-0.00147778 -0.00252719 1.01794e-22)
(-0.0125751 -0.0340019 -6.86387e-20)
(-0.000249269 -0.00184406 2.06805e-20)
(-0.02066 -0.00334315 4.32252e-21)
(0.00761886 0.0157708 2.02554e-21)
(0.0203598 0.00616946 3.59338e-20)
(-0.00513611 0.0187521 -5.86768e-22)
(-0.00262013 0.0248645 6.49262e-21)
(-0.000341269 -0.0014402 3.52594e-20)
(0.00183981 -0.00879566 0)
(-0.00543844 -0.00698436 0)
(5.07134e-05 0.000132236 0)
(-0.00165001 -0.00191752 -9.4025e-21)
(1.23933e-05 7.59111e-05 0)
(0.0200705 0.0065603 -1.2248e-20)
(0.0187673 -0.021241 3.7687e-19)
(0.00705217 -0.00703964 -5.46305e-21)
(0.00275786 0.00718025 0)
(0.000942878 -0.00185552 -1.8876e-20)
(0.0474282 0.0619799 -5.8076e-20)
(0.0143804 0.0322007 3.65412e-20)
(-3.809e-05 -5.53282e-05 -1.66732e-22)
(-0.00144146 -0.00242072 0)
(0.0217903 0.0066562 -7.95639e-21)
(9.32126e-05 -0.00577265 0)
(-0.000813246 -0.000957172 3.24172e-20)
(6.22382e-05 3.58587e-05 -1.36916e-20)
(0.0622295 0.00884742 0)
(0.0218426 0.00461149 0)
(-0.000491084 -0.005884 -1.29604e-20)
(-0.0030702 -0.00115395 -4.01428e-21)
(0.0168669 0.0029311 -2.1659e-20)
(0.00642915 0.000714568 -1.88904e-20)
(-0.000421699 -0.00248429 -2.02692e-20)
(0.000891528 -0.00108869 1.10047e-20)
(0.0110741 0.00731937 -2.32554e-21)
(-0.00152962 0.00109352 2.64802e-20)
(0.00400024 -0.010848 -9.42905e-22)
(-0.000228089 -0.00168391 -1.30561e-22)
(0.00136219 -0.00963315 -1.37089e-21)
(0.0169123 0.0035689 2.80548e-20)
(-0.000166929 -0.00897775 1.15829e-20)
(-0.00275707 -0.00958544 8.73704e-21)
(0.00216766 0.00838416 7.78099e-21)
(0.0163457 0.00273435 2.54586e-20)
(-0.0028567 -0.000390767 0)
(8.41418e-05 -0.000107118 -2.09125e-20)
(-0.000368005 -0.00368853 -1.2779e-21)
(-0.00194331 -0.00473429 5.19823e-22)
(4.85393e-05 1.10908e-05 0)
(0.0168082 0.00579152 1.95335e-20)
(0.00701308 -0.00207267 0)
(3.96707e-05 2.45777e-05 -1.26384e-20)
(-8.47133e-05 -1.57123e-05 -1.16131e-20)
(0.00137112 -0.0278601 4.14712e-20)
(-0.00147103 -0.00599118 -4.8374e-22)
(0.000121 3.88847e-05 0)
(0.012931 0.0041002 -6.41328e-22)
(-0.00432189 0.00632218 -3.60336e-20)
(5.9929e-05 -8.0663e-05 0)
(0.00764495 -0.0133462 -2.48005e-20)
(-0.000217462 -0.00387495 -3.00683e-20)
(-0.00314472 -0.00140864 -1.3614e-22)
(0.00089704 -0.00298868 2.45565e-20)
(0.01689 0.00304406 0)
(-0.00173175 -0.000634116 -1.56332e-20)
(0.0152688 0.0134615 -1.6893e-20)
(-6.52976e-06 1.82176e-05 -3.46245e-21)
(0.0339513 0.00622766 8.90723e-21)
(-0.000161682 -0.00503651 -1.0015e-21)
(0.00395934 -0.0130025 -4.54392e-21)
(-0.017066 -0.015631 1.8767e-20)
(0.00286986 0.00870354 0)
(-0.00140642 -0.00253962 2.75218e-21)
(0.00654174 -0.0323754 2.77467e-20)
(0.000796337 -0.00386707 2.78935e-20)
(-0.0041766 -0.00752921 0)
(-0.00143104 0.00494949 -2.3361e-20)
(-0.000718544 -0.00934992 0)
(9.05007e-05 -0.000993012 0)
(0.00514543 -0.00682781 0)
(0.389661 -0.0274356 7.78035e-19)
(0.00014692 0.000970631 0)
(0.101558 0.0590136 0)
(-1.20668e-05 -0.00144088 -4.08358e-20)
(0.00877419 -0.0426814 0)
(-0.000534787 -0.00205413 -6.61231e-21)
(0.00264516 -0.00335089 -1.7703e-21)
(-4.26118e-05 0.000246634 7.40314e-21)
(-0.00229387 -0.0594864 -3.06389e-21)
(4.46032e-06 1.83757e-05 2.9133e-20)
(-0.00129405 -2.81563e-05 0)
(-0.00167643 -0.000796168 1.64255e-20)
(0.00474209 -0.0015858 5.95709e-22)
(0.0389544 0.0139415 0)
(0.000386901 -0.00243952 -8.65662e-21)
(0.00466909 -0.0300804 -4.50017e-20)
(-0.000879659 -0.000783431 4.14895e-20)
(0.0137047 -0.00333336 -1.14762e-20)
(-0.000624252 0.000395363 1.67153e-20)
(0.00293641 0.0106414 1.77878e-20)
(-0.00171121 -0.00197632 -2.0631e-20)
(0.00300163 -0.00402218 0)
(-0.000350227 -0.00336646 6.13632e-22)
(0.00856424 -0.00255 0)
(0.0516594 0.0152491 0)
(9.08535e-05 0.00018595 -1.04763e-20)
(9.85879e-05 1.85891e-05 0)
(0.0269786 -0.0230159 0)
(0.00780542 -0.0141413 0)
(-0.00320453 0.00386257 9.19887e-20)
(-0.000737678 -0.00135102 -1.52745e-20)
(0.163134 0.0382246 0)
(-0.00183641 -0.00591388 -2.76822e-20)
(0.0250038 0.0212679 -6.59201e-20)
(0.0443299 0.0130943 4.12873e-20)
(-2.06146e-05 -0.000920612 -2.54712e-20)
(0.00549373 -0.0345818 7.17948e-20)
(0.000458667 0.0124344 9.33594e-21)
(0.00429599 0.00199034 0)
(-0.0041325 0.000937154 0)
(-4.61372 -0.111098 -2.44687e-18)
(-0.00117074 -0.00185896 9.10058e-21)
(-0.00102553 -0.0027759 0)
(-0.00240517 -0.000890148 6.28545e-21)
(-4.73165e-05 -0.000230889 1.15592e-20)
(0.0121496 0.00275945 3.0142e-20)
(0.0655611 0.00406812 4.47327e-20)
(0.000274297 -0.00310926 0)
(0.00440833 -0.00998445 0)
(2.55821e-05 0.000151319 3.14788e-20)
(-0.000175015 -0.00240271 -3.33365e-20)
(0.028104 -0.000450826 0)
(-0.00414115 -0.00824163 0)
(-0.000217313 -0.000911593 0)
(-9.25746e-05 -0.000352291 0)
(-6.68439e-05 -0.000513719 -2.33246e-20)
(0.000833049 -0.00598802 0)
(0.00456049 0.00162721 -6.46824e-21)
(-0.00506513 -0.0130501 9.2129e-21)
(0.0205819 0.00504717 -1.34173e-20)
(-0.00691968 -0.00670494 0)
(0.0437214 0.00989042 -9.65279e-21)
(0.000341167 -0.00230032 0)
(-0.00380001 -0.0630541 0)
(-3.46427e-05 -0.000751559 -2.25947e-20)
(0.0593948 -0.0189955 -2.33437e-20)
(-2.11678e-05 -0.000173099 0)
(0.00307571 0.00142092 0)
(0.00977375 0.000798783 6.68788e-20)
(0.00176836 -0.0157685 3.09808e-20)
(-0.58082 0.629374 5.05634e-19)
(0.00365738 -0.00708403 0)
(9.6029e-05 0.000227284 2.17911e-20)
(0.00156046 -0.00711964 0)
(5.0969e-05 4.02714e-05 1.49476e-21)
(-0.000175725 -9.76108e-05 2.10332e-20)
(-0.000239337 0.0105521 0)
(0.0339593 0.00636036 -1.71232e-20)
(0.715462 -0.133441 -6.279e-19)
(-0.00127497 -0.00442066 0)
(0.000744642 -0.00252981 -3.209e-20)
(0.0331078 0.00434606 -1.97486e-20)
(-0.00196559 -1.20322e-05 2.06439e-21)
(0.000108256 -0.000171567 1.99095e-20)
(3.87563e-05 0.000167809 9.45513e-21)
(0.02843 -0.00451119 0)
(-0.000320748 -0.000284456 -3.76986e-20)
(0.00221607 -0.00548865 1.93212e-20)
(-0.000968324 -0.00960341 -1.02392e-19)
(-0.00573937 -0.0155527 -1.98061e-20)
(-0.00120581 -0.00222402 0)
(0.0390328 0.00919965 0)
(0.00781998 -0.00662345 2.19578e-21)
(0.00247122 -0.00984586 -1.94221e-20)
(-0.00149315 -0.0167988 1.1196e-20)
(-0.00500259 0.0153559 1.22738e-19)
(0.00587053 -0.00910957 0)
(-0.0016492 -0.000905074 1.08987e-20)
(0.00450272 -0.000508322 2.35921e-20)
(0.0506437 0.0159759 0)
(3.61527e-05 -0.0015213 4.61729e-22)
(0.00326374 -0.00889783 0)
(6.64552e-05 1.63107e-05 -2.3885e-20)
(1.28037e-05 -1.23634e-05 4.3573e-21)
(-0.000115237 2.70564e-05 -3.40702e-20)
(-0.00511227 -0.00111545 -5.76607e-21)
(1.05809e-05 -0.00161482 0)
(-0.00626853 -0.0257669 -5.58678e-20)
(0.00586001 -0.00736162 -7.19265e-25)
(0.0185015 0.00812919 -5.33795e-20)
(0.0058004 -0.0093755 1.30845e-20)
(-0.00132225 -0.00349409 -1.69334e-22)
(0.00502329 -0.00380735 2.0839e-20)
(6.16893e-05 -0.0028002 1.05073e-20)
(-0.00127115 -0.00204355 -4.20864e-21)
(0.00423826 -0.0138228 1.30935e-20)
(0.0209512 -0.0457189 0)
(0.0112607 0.000165694 -2.16178e-20)
(0.000599378 -0.00266827 0)
(-0.00153747 -0.000542428 4.59625e-21)
(6.33185e-05 5.461e-06 0)
(0.0105985 0.00892986 1.00143e-19)
(-0.000164923 -0.00140207 0)
(-0.0158386 0.104559 -4.63982e-19)
(1.74021e-05 0.000161406 -3.29386e-20)
(0.00439297 0.0548803 -1.02155e-19)
(0.00123557 -0.00462582 2.70789e-20)
(-0.00116162 -0.0022306 -6.5991e-21)
(0.00843189 -0.0297387 -1.42833e-20)
(0.000277508 -0.00248671 0)
(0.0066643 -0.0105552 -1.21479e-21)
(-0.00113955 -0.00255314 0)
(-0.000483389 -0.000521612 -8.91191e-21)
(-0.0011181 -0.00195921 -9.10735e-21)
(0.00309272 -0.00879815 -4.13879e-20)
(-0.00115571 -0.0078642 -1.82628e-22)
(0.00179697 -0.00218614 2.19264e-20)
(8.24938e-05 -3.10742e-05 -9.85683e-21)
(0.0114122 0.00404101 0)
(0.00464097 -0.00985546 9.296e-22)
(0.0119753 -0.0124225 1.29813e-22)
(-0.00853133 0.0420392 -1.97622e-19)
(-0.000343792 0.0283197 -2.79981e-21)
(-0.00268455 -0.000876914 -5.00652e-21)
(0.00747126 -0.000563928 0)
(0.137941 0.0651679 -1.0688e-19)
(0.000535912 -0.00185998 -3.16455e-20)
(0.00655113 -0.0057136 -9.14975e-20)
(-0.00486122 -0.00302324 -6.2852e-22)
(8.61925e-05 -2.0618e-06 -4.09543e-20)
(-0.00475924 -0.0146693 2.26645e-20)
(-5.10724e-05 0.000541398 -1.58677e-21)
(0.00292009 -0.0192669 0)
(-9.10073e-05 -0.0040369 0)
(-9.73141e-05 -0.00801363 -3.14419e-20)
(0.0122451 0.00835497 1.3144e-20)
(-0.00797154 -0.00591273 0)
(0.000105589 7.75082e-05 0)
(-0.00101312 -0.00107058 3.39725e-20)
(-0.000207202 -0.00154823 0)
(0.000297492 -0.000772526 3.04915e-20)
(0.00861407 0.00690329 4.51337e-20)
(0.00730441 -0.00373261 0)
(-0.000982752 -0.00149135 -8.66618e-21)
(-0.000316541 0.0176886 0)
(0.0125529 -0.000754371 0)
(0.000112464 -1.14586e-05 0)
(-8.36785e-05 -0.00123355 2.77939e-20)
(-0.000871217 -0.00310934 -1.53882e-20)
(-0.00254022 -0.00342965 0)
(-0.0122196 0.0269923 -1.57284e-20)
(0.0455875 0.0149 -2.18536e-19)
(0.00345791 0.0167474 -1.84392e-20)
(-6.99866e-05 -0.000279524 1.76768e-20)
(-0.000348734 -0.00269961 -3.19249e-21)
(-3.37333e-05 -0.000349388 -2.17835e-20)
(-0.0016323 -0.0054814 0)
(0.0131001 0.0103078 0)
(0.000410653 -0.00461711 3.40809e-21)
(0.00096193 -0.00288274 -3.45343e-20)
(0.0401308 0.00491144 0)
(-0.00140224 -0.000796536 5.39339e-21)
(3.26431e-06 -0.000375189 0)
(-0.000302332 -0.00101719 9.36476e-21)
(0.00351664 -0.00839995 -3.9752e-21)
(-0.000348775 -0.00408395 2.14459e-22)
(-0.00146805 -0.00256225 0)
(-0.00122969 -0.000945413 0)
(-0.00182261 -0.00303239 0)
(-0.00336234 0.00476743 2.63542e-20)
(0.00434261 -0.00491214 -8.55107e-20)
(-0.00600775 0.0883208 0)
(-0.00240198 -0.00369945 0)
(-0.00173323 -0.0018154 9.9341e-21)
(-3.48043e-06 -0.0004631 1.51104e-20)
(-0.000112134 -0.00321819 0)
(0.0462769 0.0146415 2.05613e-19)
(5.85348e-05 8.96234e-05 -1.26314e-20)
(0.0102741 -0.0293359 -2.15814e-19)
(-0.00146783 0.00108593 1.77975e-20)
(3.96631e-05 -0.0101813 -5.83438e-20)
(0.0470271 0.058477 5.28951e-20)
(-5.86799e-05 -0.000658625 2.54687e-20)
(0.00194515 0.00122926 8.7173e-20)
(2.83015e-05 -0.000187924 0)
(0.00249355 0.00318782 -9.80017e-20)
(0.00463903 -0.00680792 0)
(1.26501e-05 -0.000912639 -6.59029e-20)
(0.00435699 0.000341691 -1.91613e-20)
(-1.43924e-05 -0.000312616 2.5529e-20)
(-0.00150559 -0.00036154 -3.76693e-21)
(0.000118697 2.56724e-05 1.12771e-20)
(0.00613947 0.0142756 9.12747e-20)
(0.0217748 0.00480815 -6.39597e-22)
(0.00282754 -0.00203241 2.78693e-20)
(-0.000328625 -0.0015113 2.36714e-20)
(0.00275717 -0.00392905 1.36082e-20)
(0.00460764 -0.0210594 4.82627e-20)
(-0.0012299 -0.00177184 -8.2555e-21)
(-5.99244e-05 -0.00210847 1.889e-21)
(9.35422e-05 7.4459e-05 0)
(0.0167267 0.0021 2.22931e-20)
(0.135188 0.0453146 1.96012e-20)
(-0.00215921 -0.00179918 1.19716e-20)
(-0.00273737 -0.00351605 2.17942e-21)
(-0.000417364 -0.000572672 7.03728e-21)
(0.00367598 -0.0104925 -8.12941e-21)
(-0.010756 0.00618118 -1.42807e-20)
(3.79744e-06 2.29669e-05 7.39617e-21)
(0.0241704 -0.082716 0)
(2.31321e-05 0.000224881 0)
(0.00907678 0.00475267 1.49088e-20)
(0.000124911 3.80848e-06 -1.44225e-20)
(-0.000990427 -0.00145427 -8.7505e-21)
(0.0171044 0.00311544 -1.71568e-20)
(0.011545 0.0267526 2.27625e-20)
(0.00361627 0.00615614 8.34561e-20)
(-2.2771e-05 3.27323e-05 2.19038e-20)
(-3.23968e-06 -0.00269155 -1.13014e-20)
(0.0166888 -0.000743663 4.71745e-21)
(-0.000809304 -0.00443339 1.33784e-20)
(-0.00139796 -0.00253973 1.73821e-20)
(-0.00256468 -0.000792875 7.01225e-21)
(-0.031591 0.0673073 -2.33989e-21)
(0.00056875 -0.00572262 1.85568e-20)
(-0.0106561 -0.00455995 1.37034e-20)
(-0.000464838 -0.00148158 1.71059e-20)
(0.0202494 0.00698317 -3.07243e-20)
(5.69467e-05 -0.000303249 0)
(-0.0136809 0.00704855 -2.94958e-20)
(0.0023197 0.00752043 4.89224e-21)
(4.04869e-05 -4.7655e-05 0)
(0.00262041 -0.00687202 4.10312e-21)
(5.21069e-05 -0.000353057 0)
(-0.00238844 -0.00969468 2.02549e-20)
(0.0850846 -0.0113006 6.0143e-21)
(0.00728045 0.0414594 0)
(-0.00124341 -0.0017171 -7.84301e-21)
(0.000106212 9.69934e-05 2.02351e-20)
(0.00446741 -0.0396237 8.32582e-21)
(-0.000497171 -0.001363 9.31028e-21)
(0.0172904 -0.0393992 4.93031e-19)
(-0.000217294 -0.00261725 4.77189e-21)
(-0.00492445 -0.00337037 7.37366e-21)
(-0.015125 0.103945 1.18302e-19)
(0.0178003 0.00230823 0)
(0.00113942 0.0028682 9.90767e-21)
(-0.000225791 -0.00275747 0)
(-0.000878247 -0.00105794 -5.29467e-21)
(-0.0579246 -0.0484264 -6.79308e-20)
(0.00695837 -0.00468214 0)
(-0.00189528 6.51865e-05 0)
(-0.000115784 0.00170651 0)
(7.0347e-05 7.23993e-05 0)
(0.0159872 0.00272286 4.27277e-22)
(0.000108357 1.80059e-05 -2.0587e-21)
(0.00185686 -0.00791365 0)
(-0.00258751 -0.000537867 0)
(-0.000501598 -0.00233385 8.27926e-23)
(0.00215303 -0.000413079 -3.19405e-20)
(0.00434987 -0.00368254 6.59056e-20)
(0.00166488 -0.00652278 3.18683e-20)
(0.000110083 1.04007e-05 8.26368e-21)
(-0.0005056 -0.00174955 0)
(0.0211109 0.00471327 -1.8464e-20)
(0.000110549 2.23508e-05 -8.32102e-21)
(-0.000130597 -0.000522635 -5.13137e-20)
(-0.00017115 -0.00254569 6.06152e-21)
(1.91251e-05 0.000229942 -1.02263e-20)
(0.0450159 -0.0956587 1.25659e-19)
(0.0187016 -0.00246055 9.29684e-22)
(0.00231919 -0.00401583 0)
(0.00477868 0.0010461 4.94423e-20)
(-0.00773017 -0.0179532 0)
(-0.0235512 -0.0880736 0)
(-0.000359569 -0.00403113 -1.58902e-20)
(0.000634117 -0.000440046 -7.46698e-21)
(-1.17571e-05 -0.000219858 0)
(0.000333068 -0.00115821 -2.64557e-20)
(-0.000113325 0.000150481 3.12431e-20)
(-1.19717e-05 -7.8631e-05 -2.94969e-21)
(0.0378416 -0.00326585 -1.30342e-21)
(0.0187608 0.0029421 1.62893e-20)
(0.00620621 -0.0188255 0)
(0.0190842 0.00634273 3.6778e-20)
(0.0065404 0.0178107 0)
(-0.00105948 -0.0128182 -1.2307e-19)
(0.0061002 -0.000840944 -2.81026e-21)
(0.0134994 -0.0150195 0)
(7.95519e-06 3.2965e-05 0)
(0.0137281 -0.0133599 0)
(-0.00239197 -0.00431892 0)
(-0.000868206 0.0109881 9.08307e-20)
(0.00418731 -0.00743892 0)
(-0.042071 -0.0786873 0)
(-0.0019314 -0.00497705 0)
(-9.0459e-05 -0.00214976 -4.46545e-20)
(0.0185934 0.00254193 3.41753e-20)
(-0.00312816 0.000209188 0)
(-0.000125412 -0.00522787 0)
(-0.00349499 -0.00304383 1.66356e-22)
(0.0436094 0.01008 2.36606e-21)
(0.00312104 0.000734672 -3.88906e-21)
(-0.000506324 -0.00239609 1.5551e-20)
(-0.00939155 9.26414e-05 1.50014e-21)
(-0.00723545 -0.0156975 -3.28053e-21)
(0.00577271 -0.00283001 -3.10976e-20)
(-0.000828857 -0.00347469 1.96118e-20)
(-0.000703554 -0.00139173 1.41141e-21)
(-0.0025294 -0.00274738 -1.07024e-20)
(-0.00303438 -0.0151279 1.0486e-20)
(-0.00137828 -0.00274408 -4.2593e-21)
(0.000964164 -0.0264536 2.45513e-20)
(-0.00693943 0.017408 6.77124e-20)
(-0.000792945 -0.0021667 -2.86532e-21)
(0.00120716 -0.00055418 0)
(-0.00233225 -0.000400931 -4.88917e-21)
(5.37441e-05 -0.000115301 -1.40419e-20)
(0.0389811 0.00426206 7.19977e-20)
(0.0286809 -0.000310703 2.37416e-21)
(-0.00014116 -0.00305971 2.28187e-20)
(0.0174787 -0.00107333 -5.7186e-21)
(-0.00437207 -0.0236335 -6.3601e-20)
(0.0182228 -0.00298789 1.09785e-22)
(0.0101324 -0.0146674 2.45259e-20)
(-4.36418e-05 3.54567e-05 1.90894e-21)
(-0.0418123 -0.0943104 0)
(0.00338867 0.00137078 2.84369e-20)
(8.54339e-05 -0.00333538 -1.96066e-20)
(0.0860755 0.0255192 2.85708e-19)
(-0.000122602 0.000101929 -2.04275e-20)
(-0.00161307 -0.00451683 4.12447e-22)
(0.0425262 0.00222337 -1.69873e-20)
(0.00333296 -0.0216465 -4.36669e-23)
(-0.000818021 -0.00287451 2.34984e-20)
(0.00297407 -0.00234168 0)
(-9.39884e-05 -0.00660125 -1.03838e-19)
(6.58052e-05 -0.00221217 -4.19788e-20)
(-0.000168868 -0.000781727 -3.18706e-20)
(0.0166372 -0.00235683 3.84685e-22)
(0.0147561 0.0107297 -1.15032e-20)
(-0.00900471 0.0208369 3.60716e-21)
(0.00722017 0.00823287 3.88482e-21)
(0.0168597 0.00290868 0)
(-0.000166206 0.00195038 0)
(-0.0049075 -0.00872943 5.39201e-21)
(0.029318 0.0434022 -6.75116e-20)
(0.00685482 -0.00617847 0)
(0.082782 0.0297615 -3.05852e-19)
(0.00274839 -0.00753895 4.8497e-22)
(-0.0153883 -0.00432472 0)
(0.000965888 -0.00597112 -5.61728e-21)
(4.01256e-05 -0.000407905 -1.63937e-20)
(-0.00895405 0.0788579 0)
(6.04543e-05 1.41862e-05 0)
(9.44222e-05 1.12374e-05 1.5329e-20)
(-0.000106958 -0.000955804 0)
(-0.0838903 -0.0445093 1.1125e-19)
(-0.0207858 0.0767388 -2.39961e-20)
(2.03866e-05 5.14572e-05 -2.72138e-20)
(0.0417908 0.00271232 2.67083e-20)
(2.66211e-05 -1.16246e-05 -2.41093e-20)
(-0.000659028 -0.010897 1.09888e-21)
(0.00237059 -0.0043617 1.77185e-20)
(-0.00803172 0.09093 6.85775e-20)
(-0.000117051 -0.0112258 0)
(-0.00521237 -0.0214922 3.68431e-20)
(-0.000259077 -0.00100103 3.9286e-20)
(-0.00144775 -0.00208859 -5.36835e-21)
(0.000106598 -0.0010777 9.71841e-21)
(0.0334907 0.0591778 -2.48009e-19)
(0.00558738 -0.00168459 0)
(0.0135689 -0.00250487 0)
(8.76707e-06 8.28043e-05 3.58004e-21)
(0.00962649 -0.00648698 0)
(4.67128e-05 4.76034e-06 1.20658e-20)
(5.80812e-05 6.05733e-06 1.28132e-20)
(0.00135427 -0.00227209 0)
(-0.000516006 -0.00142006 0)
(3.41148e-05 -0.00491024 0)
(0.00256539 0.00817771 9.58892e-21)
(-0.000342095 -0.0043324 2.45432e-21)
(0.000148119 0.000573503 -5.28372e-20)
(0.0780049 -0.00827408 -4.71879e-20)
(-6.42718e-06 -0.000242587 2.15494e-22)
(0.00142222 -0.00127044 0)
(0.0399958 0.00908853 0)
(-0.00166578 -0.00598641 -2.67003e-20)
(0.127503 0.0453611 0)
(-0.00146817 -0.00206175 0)
(0.00151994 -0.000524449 3.45912e-20)
(0.478211 0.0423505 4.69406e-20)
(-0.00169567 -0.000815768 -1.09948e-20)
(-0.00184847 -0.00375507 -4.47118e-20)
(-0.00218065 0.00895731 2.70806e-20)
(-0.00485482 -0.00986412 9.02201e-20)
(0.0101395 -0.00182367 0)
(0.0440018 0.00778665 -1.29121e-20)
(5.84699e-05 -0.000119429 -6.72585e-21)
(-0.000243768 -0.00424701 2.80181e-21)
(-0.0031189 -0.00101645 3.72452e-21)
(0.0020585 0.00364073 7.81407e-21)
(0.0077044 0.0183227 0)
(-0.0015104 -0.000897215 0)
(-0.00270967 -0.00134366 -6.84774e-21)
(-4.89383e-06 0.000312655 4.35893e-20)
(0.0164822 0.0024689 -6.64377e-20)
(-0.0206872 0.0880207 -2.35298e-19)
(0.000441983 -0.000627423 7.42384e-20)
(6.4652e-05 -4.06514e-05 2.55534e-20)
(0.0250888 -0.102716 1.83004e-20)
(-0.000750705 -0.00217759 0)
(0.00174855 -0.00613911 0)
(0.00570892 0.0460231 0)
(0.00462399 -0.00577627 0)
(-0.0709493 -0.0732473 9.38222e-23)
(0.000242877 -0.00482849 -2.50779e-20)
(-0.000410383 -0.00512309 -2.63215e-22)
(0.0930188 0.0820778 3.64916e-20)
(0.0027957 -0.0122344 -1.38279e-19)
(-0.000474917 -0.00467115 0)
(-0.000107298 -0.0002379 -4.90318e-21)
(0.00293815 -0.0059063 -1.00786e-22)
(0.0438914 0.000775426 -3.39242e-20)
(0.000152513 -0.00625316 -3.61899e-20)
(-0.00130742 -0.00161439 -7.34095e-21)
(-0.00160075 -0.014728 -2.06779e-20)
(0.0131323 -0.0134033 -1.0348e-20)
(-0.0408613 -0.0345207 0)
(-0.00344034 -0.00160778 2.73695e-21)
(0.0132171 -0.0102546 -1.94513e-22)
(3.44025e-05 0.000243697 9.41558e-23)
(8.67945e-06 0.000117258 -2.29204e-20)
(0.0572879 0.0315704 0)
(0.0117343 0.0226602 1.18134e-21)
(0.0166284 0.00252271 5.19883e-20)
(0.00572923 -0.033822 0)
(0.0027537 -0.00122772 -4.3725e-20)
(0.00545423 -0.00856327 3.05801e-20)
(0.0379154 0.0037668 0)
(-0.00026789 -0.0020689 2.58016e-20)
(0.000523595 -0.00237379 3.25399e-20)
(0.00672564 -0.00998389 0)
(0.0216392 0.00399669 -3.3624e-21)
(-0.0021251 -0.00252539 -1.38864e-20)
(-0.00498913 -0.009035 -1.25027e-20)
(0.0201888 0.00446366 -2.17287e-20)
(0.0054664 -0.00874287 4.3916e-20)
(0.0450718 0.00179757 -2.57934e-20)
(-0.000193445 -0.000782589 2.98605e-20)
(5.29617e-05 0.000261063 0)
(-6.69188e-06 -0.00242048 0)
(-0.000396297 -0.0195622 1.90658e-20)
(-0.000344278 -0.000502301 0)
(-0.0498712 0.0632355 -2.95742e-20)
(0.00140621 -0.00245462 -1.29732e-20)
(-0.00104619 -0.00199395 6.72262e-21)
(0.0450232 0.00456494 3.61838e-21)
(-0.000177439 -0.00721241 -4.31171e-21)
(-0.107749 -0.0441509 -1.44469e-19)
(0.0127643 0.0407758 8.21442e-20)
(0.0254861 -0.056643 -3.68544e-19)
(0.0167847 -0.00458556 -8.91598e-22)
(0.00518621 0.00437647 1.18104e-20)
(-0.000222491 -0.00319168 -2.07853e-20)
(3.36632e-05 -0.000107541 -1.03274e-20)
(0.00176826 -0.00154391 0)
(-0.0134392 0.085048 0)
(-0.000699287 -0.00317555 -8.45374e-21)
(0.00246142 -0.00422888 6.75111e-21)
(-0.0875948 0.118663 -1.25049e-19)
(-0.00224426 -0.00293523 -5.13892e-21)
(-0.000288275 -0.00408432 -1.10084e-20)
(8.86188e-05 -0.00255749 0)
(0.0327611 0.0474045 -9.85018e-20)
(0.000118084 -0.00348591 -1.90166e-20)
(0.00836928 -0.00973547 0)
(0.00566387 -0.00158574 -9.70973e-21)
(-5.26336e-07 -0.000335472 4.20064e-20)
(0.048846 -0.0108404 0)
(0.00244459 0.00684333 9.78975e-21)
(0.0043146 -0.00195805 -2.32854e-20)
(-0.00287754 -0.000928029 0)
(-0.00149143 -0.00329623 0)
(-9.48275e-05 -0.00101805 0)
(0.00763688 -0.00586083 -2.67237e-21)
(-0.000155131 -5.46894e-05 2.43255e-21)
(-0.00208769 -0.00822815 -5.2702e-21)
(9.2595e-05 -0.000132902 0)
(-0.0460908 -0.0939709 -1.71014e-19)
(0.000115045 -0.00322215 -1.20035e-20)
(0.00252632 0.0852354 0)
(-0.000403865 -0.0190567 -2.793e-20)