/*--------------------------------*- C++ -*----------------------------------*\
| =========                 |                                                 |
| \\      /  F ield         | OpenFOAM: The Open Source CFD Toolbox           |
|  \\    /   O peration     | Version:  v2012                                 |
|   \\  /    A nd           | Website:  www.openfoam.com                      |
|    \\/     M anipulation  |                                                 |
\*---------------------------------------------------------------------------*/
FoamFile
{
    version     2.0;
    format      ascii;
    class       surfaceScalarField;
    location    "50";
    object      phi_0;
}
// * * * * * * * * * * * * * * * * * * * * * * * * * * * * * * * * * * * * * //

dimensions      [0 3 -1 0 0 0 0];
oriented        oriented;


internalField   nonuniform List<scalar> 
27055
(
-0.0148943
0.0148943
-0.259921
-0.457612
0.334305
0.123307
-0.35662
0.166015
0.190604
-0.0291257
-0.0561393
0.085265
0.0818664
-0.0377923
-0.0440741
-0.186974
-0.0774175
0.264391
-0.433358
0.374146
0.0592122
0.110229
-0.0230367
-0.0871926
-0.092687
0.0635613
0.0147684
0.200486
-0.215254
0.12283
-0.143249
0.020419
-0.111319
0.00849244
0.102827
-0.0377948
0.0365175
0.00127729
-0.104053
0.119766
-0.0157128
-0.0681118
0.0899245
-0.0218126
-0.478297
0.476475
0.00182143
0.0821815
0.324591
-0.406772
-0.364829
0.219829
0.145
0.0930491
-0.0812954
-0.0117537
0.0366945
-0.0661206
0.0294262
-0.0591112
0.229134
-0.170023
-0.210029
0.224798
0.240326
-0.22878
-0.0115454
0.128108
-0.0507943
-0.0773139
0.0517826
0.0763256
0.0843127
0.247237
-0.33155
0.0497383
0.0321281
-0.345709
0.42789
-0.167411
-0.290201
0.342035
0.205504
-0.54754
-0.00252569
-0.00191442
0.00444011
0.261248
0.141077
-0.402325
-0.0081837
0.0191873
-0.0110036
0.0410989
-0.0421023
0.00100335
-0.050534
0.0739124
-0.0233784
0.0300253
-0.03007
4.46323e-05
0.481414
-0.177835
-0.303579
0.0202378
0.0231842
-0.043422
0.548195
-0.285543
-0.262652
-0.00105309
-0.00077189
0.00182498
0.124127
-0.137698
0.0135713
0.00712853
-0.0783895
0.0712609
0.0200713
0.00639899
-0.0264703
0.275268
0.159916
-0.435184
0.0282648
-0.0510144
0.0227495
-0.2557
-0.107522
0.133422
-0.00929481
-0.0859213
0.0648636
0.0210577
0.184603
-0.289837
0.105235
-0.373127
0.324523
0.0486036
0.39178
0.0664414
-0.458221
0.00282589
-0.0055378
0.00271191
0.11588
-0.120822
0.00494148
0.0380967
0.056371
-0.0944677
0.0916866
-0.043845
-0.0478416
0.00912951
-0.315236
0.306107
0.395846
-0.228246
-0.1676
0.00516999
0.00030776
-0.00547775
0.183516
-0.285152
0.101636
-0.126948
0.0228946
0.445307
-0.170039
-0.0881784
-0.0329784
0.121157
-0.16057
-0.19605
-0.0851323
-0.0245378
0.10967
-0.121079
0.202464
-0.0813855
0.00340272
-0.0045502
0.00114747
-0.00763977
0.00511409
-0.233913
0.318226
-0.207727
0.119548
-0.276357
0.285487
-0.44523
0.340225
0.105005
0.0048313
-0.00674573
0.0295448
0.0258991
-0.0554439
0.133223
-0.0510885
-0.0821346
0.0580636
-0.00110913
-0.0569545
0.108882
0.0572023
-0.166084
0.190845
-0.236931
0.0460857
-0.0125404
0.0125404
-0.174232
0.242639
-0.0684065
9.81003e-05
-0.00773787
0.100177
-0.0106512
-0.0895256
0.0143276
-0.123477
0.109149
0.139429
0.0986537
-0.238082
0.0501989
0.0134551
-0.063654
0.0520547
0.039632
-0.42925
0.328518
0.100732
-0.170169
-0.19466
0.0939732
0.00620363
-0.086297
-0.0235526
0.10985
-0.376678
0.206509
-0.327271
0.230892
0.0963797
-0.0740547
0.41609
-0.035614
0.0874008
-0.0517869
-0.171296
-0.205381
-0.0790751
-0.128652
0.0966018
-0.334723
0.238121
-0.287554
0.192429
0.0951241
0.00826412
0.0445958
-0.0528599
-0.330789
0.176658
0.154131
-0.0830947
0.105094
-0.0219991
-0.00552356
0.121404
0.0634596
-0.0374445
-0.0260151
-0.0952303
0.0160205
0.0792098
-0.0692138
0.0186798
-0.108911
-0.0143732
0.123284
-0.380763
0.213351
0.0340254
0.0459937
-0.080019
-0.513469
0.513469
0.127459
-0.160437
-0.225065
0.103986
0.0647066
-0.046555
-0.0181516
0.105423
0.175946
-0.281369
-0.272313
0.0853389
-0.319531
-0.0535957
0.137698
-0.153133
0.0154356
0.0151118
-0.106777
0.0916647
0.0459752
-0.0177104
0.116102
-0.0991546
-0.016947
-0.147956
0.142351
0.00560544
0.129643
0.256278
-0.385922
0.261216
0.220198
-0.0299366
0.022323
0.00761356
0.0705932
-0.0247457
-0.0458474
-0.00344419
0.031507
-0.0280628
0.0913308
-0.0842023
-0.0327088
-0.0608671
0.0935759
0.28745
-0.465452
0.178003
-0.0238751
0.0605696
0.012386
0.0523206
-0.365704
0.316024
0.0496793
0.244693
-0.0621216
-0.182571
0.0173233
0.0987783
0.34992
-0.0392062
-0.310714
-0.00936617
0.0121921
0.0472473
0.0108164
-0.0816454
-0.00427585
-0.257765
0.507238
-0.249473
-0.281654
0.190118
0.0915358
0.0221535
0.023089
-0.0452424
-0.0704436
0.10854
-0.151944
0.0430333
0.000333219
0.0218991
-0.0222323
-0.174739
0.347812
-0.173073
0.134267
-0.0541242
-0.0801425
-0.0120645
-0.100746
0.112811
-0.124686
-0.00226161
-0.238777
0.498034
-0.259257
0.00386544
-0.0283201
0.0244547
-0.0939707
0.0802117
0.013759
-0.0121188
0.0117822
0.115634
-0.129688
0.0140538
-0.0137848
0.098393
-0.0846082
-0.050918
0.1598
-0.106493
0.0201965
-0.00181994
0.000766848
0.0962347
-0.0710459
-0.0251887
-0.102952
0.0178197
-0.0461187
0.0547105
-0.00859176
-0.0981377
-0.151952
-0.10797
0.317022
0.0328979
-0.0800346
0.00481274
-0.00141001
-0.0520024
0.0151121
0.0368903
0.33588
-0.197831
-0.13805
-0.0777663
0.0932359
-0.0154696
0.0220284
-0.0216951
-0.172761
0.0217286
0.151033
-0.0576641
0.00875103
0.0489131
-0.02825
-0.190835
0.219085
-0.334863
-0.0984948
-0.0289133
-0.33679
0.185582
-0.161636
-0.0315628
0.193199
-0.0183622
0.0183622
0.210751
-0.0713225
0.366886
0.0501492
-0.417035
0.0398478
0.00125116
-0.240202
-0.0916816
0.331884
-0.0844215
0.0662361
0.0181854
-0.0292024
0.0494402
-0.37401
-0.0712196
0.02547
0.0379897
0.0293445
-0.0293445
0.237414
-0.155909
0.240486
-0.0845772
-0.000415909
0.0506148
0.376621
0.171574
0.0128396
-0.0139561
0.00111652
0.166055
-0.0577015
-0.108354
0.348222
-0.152679
-0.195543
0.0175423
0.00618913
-0.0359706
0.0297814
0.141395
-0.316134
0.00704981
-0.202141
0.195091
-0.191211
0.296634
-0.0153782
-0.190522
0.2059
0.426412
-0.0185721
-0.40784
-0.102473
0.32926
-0.226787
0.254551
0.222748
-0.477298
-0.131296
0.149794
-0.0184977
-0.107739
0.0315722
0.0761666
0.0534123
-0.0305949
-0.0228174
-0.0650935
0.0991189
-0.00428826
-0.00145323
0.0057415
0.0186169
0.053758
-0.0723749
-0.00400304
0.00572032
-0.00171729
0.082553
-0.0625803
-0.0199727
0.0261921
-0.128565
0.102373
-0.198554
0.346682
-0.148127
0.00672682
-0.131413
-0.104411
0.0213168
0.0599362
-0.0516721
0.0618413
0.0053795
-0.0672208
-0.147025
0.0157286
-0.0926292
0.0788444
0.314406
-0.0835139
-0.283687
-0.0970753
-0.162676
-0.124878
0.0396615
-0.035796
-0.0855964
-0.199556
-0.00795672
0.0145841
-0.00662738
-0.00594611
-0.133318
0.139265
-0.0330695
0.459481
0.236404
-0.264654
-0.0114177
0.199578
0.0407474
0.134257
-0.374459
-0.401496
0.343419
0.0580779
0.33836
-0.146481
-0.19188
0.00646956
-0.179231
0.0160505
0.0233745
0.0728602
-0.171217
0.432465
0.0156823
-0.0486959
0.0330135
-0.142633
-0.0351031
0.177736
0.109177
-0.0470746
-0.0621027
0.298316
-0.113714
0.138542
-0.51426
0.375718
0.204809
0.133552
0.0176627
-0.0464882
0.0288255
0.0856467
0.0235305
0.116588
-0.0266966
-0.0898911
0.0244452
-0.00437387
-0.0463282
-0.0113359
-0.514474
0.204114
0.31036
0.00577412
-0.00530532
-0.000468795
0.00112977
0.000535399
-0.00166516
0.142616
0.0155343
-0.15815
-0.00717769
0.0669618
-0.0597841
0.0832868
-0.0505469
-0.03274
0.317665
-0.167802
-0.149863
-0.0866679
0.0240876
0.222357
-0.215308
-0.0214228
0.0245187
-0.00309585
0.0279631
-0.0539159
0.0259527
-0.0118968
0.00394011
-0.043729
0.0571841
-0.0845574
0.000135849
0.193463
-0.142938
-0.0505253
-0.0859748
-0.0348472
0.0697568
-0.0849751
0.0152183
-0.0573191
0.424205
-0.0796238
0.281253
-0.201629
-0.522197
0.403232
0.118966
0.0206378
-0.0245003
0.00386247
-0.0484594
0.00234065
0.0394418
0.0645539
-0.0618943
-0.00265954
0.149766
-0.211888
-0.0173168
0.00913314
0.036148
-0.0712971
0.0351491
-0.447411
0.45
-0.00258944
0.214327
0.103338
0.010736
-0.0106359
-0.000100067
0.131702
-0.117374
-0.158984
-0.0651565
0.224141
-0.272301
0.410843
-0.027342
0.0238978
0.0148965
0.00559796
-0.0204945
-0.0102582
-0.099109
0.256248
-0.157139
0.0212091
-0.0134233
-0.00778587
0.0821537
-0.0172901
0.0768977
-0.21953
-0.0698182
-0.0142988
0.084117
-0.0259278
-0.00236624
0.028294
0.194055
-0.12169
-0.0723648
0.103579
-0.0884672
0.149696
0.198527
-0.076356
0.116575
-0.0402188
0.00181397
0.0110256
0.00354324
0.119287
-0.0220644
-0.00458688
0.0691408
0.0077289
0.0134802
0.277463
-0.191223
-0.0862399
0.288387
0.156921
-0.178318
0.163272
0.015046
-0.179325
0.194488
-0.0151631
-0.484483
0.0602187
0.424264
0.0301704
-0.0482525
0.0180821
-0.0812895
0.0158473
0.0654423
-0.431441
-0.053042
0.1456
0.250246
-0.123222
0.0159927
-0.0982149
0.143297
-0.0450822
-0.401879
-0.0764173
0.0448338
-0.0386447
0.0654487
0.0511391
-0.1122
-0.250038
0.362237
0.00306538
-0.0804688
0.0774034
0.0881384
0.116493
-0.204631
-0.261432
0.162323
0.0644485
0.0140399
-0.0164594
0.00241955
-0.207124
-0.11462
0.321744
0.0493171
-0.0336347
0.413138
-0.143563
-0.269575
-0.035884
0.0119029
0.0239811
-0.148122
-0.00501186
-0.0996732
0.122807
-0.0231338
-0.0115133
-0.0354617
-0.0591168
0.0945784
0.140446
-0.220933
0.0804871
-0.0769929
-0.166743
0.0186215
0.1433
-0.155134
0.0118342
0.11498
-0.127912
0.0419368
0.23839
0.0538481
-0.292239
-0.0697494
0.0904234
-0.020674
0.013315
-0.021166
0.00785099
-0.0755768
-0.00417665
0.0797534
-0.0124287
-0.010785
0.0232136
-0.0573839
0.0713913
-0.0140074
0.0696607
-0.0346714
-0.0349893
-0.330454
0.0965413
0.123757
-0.0975652
-0.153078
-0.248418
-0.0510498
0.0696667
-0.0883168
-0.426157
-0.347271
0.510418
-0.163147
-0.326076
0.118951
-0.0775033
0.0736402
0.00386302
-0.0227206
-0.00601199
0.0287326
-0.115075
0.100777
-0.104402
-0.0188198
0.105669
0.0928631
-0.198532
0.0731998
-0.0409116
-0.0322882
0.117567
-0.046579
-0.0709883
0.0691201
-0.104582
0.287728
-0.293503
0.00577514
0.110467
-0.117693
0.00722536
0.10396
-0.118208
0.0142485
0.0220393
-0.0576532
-0.025258
0.0248899
0.000368078
-0.458292
0.0615628
0.39673
-0.0785214
0.367352
-0.28883
0.069062
-0.015304
0.0212545
0.0700763
-0.000331918
0.0055019
0.182566
-0.0112034
-0.00369097
0.0860394
0.0800156
-0.0997241
0.0697078
0.0300163
-0.0262025
0.00348182
-0.137045
0.122672
0.0391329
0.0305278
0.0668432
-0.0200142
-0.046829
0.046594
-0.0672004
0.0206064
0.0382962
-0.190248
-0.00587127
-0.0251452
0.0310165
-0.310033
0.20756
-0.223107
-0.107682
-0.217542
0.29702
-0.079478
0.27265
-0.451972
0.179322
-0.0751184
0.00700653
0.0777298
-0.0273331
-0.0503966
-5.60375e-05
0.096877
-0.0968209
-0.119162
0.0428057
0.296987
-0.480026
0.183039
-0.308024
0.159349
0.148674
0.0019035
-0.000773731
0.142215
0.0010849
-0.221529
0.0113228
0.210206
0.421336
-0.148686
0.344084
-0.199639
-0.144445
-0.135299
0.125046
0.0102527
-0.0477295
0.0880694
-0.0403399
0.0702316
-0.00153475
-0.0686968
-0.0314242
0.00310409
0.156592
-0.0143772
-0.0294112
-0.00430146
0.0337127
0.164379
-0.0217639
-0.0200118
-0.00992483
-0.430965
0.0569554
0.0200784
0.0333339
0.322748
-0.445381
0.122633
0.0615138
-0.0149198
0.0838285
-0.0219871
-0.0429506
0.122064
-0.0791134
-0.0116767
0.0249917
-0.00869437
-0.372374
-0.085918
0.129508
-0.107468
-0.0220402
0.525088
-0.133309
0.326331
-0.0896358
-0.236695
-0.00601777
-0.0552859
0.0613037
-0.0154468
-0.0204371
0.0213458
-0.027217
-0.143756
0.0455414
-0.146689
-0.0200543
-0.0119349
-0.02586
0.0747641
-0.0640739
-0.0106902
-0.478717
0.120553
0.358164
-0.467517
0.447684
0.0198325
0.0395106
-0.0173571
-0.137777
0.122399
0.138055
-0.121323
-0.0167317
0.0980433
-0.0776785
-0.0203648
0.10934
0.0278737
-0.137213
-0.0920295
-0.196545
0.288574
0.0386351
-0.0209723
-0.0856235
0.0917904
-0.00616691
0.0731279
0.0600953
0.10681
-0.130045
0.0232351
-0.0296236
-0.0701005
0.0419012
0.0511479
0.223343
0.106192
-0.329535
-0.0364586
-0.0451868
-0.00355065
-0.0217074
-0.222399
0.0634152
-0.0929454
0.023196
-0.340274
0.261753
0.210437
0.202701
0.243007
0.100412
-0.196217
0.0478569
0.14836
-0.299846
0.139277
-0.0901266
-0.0176122
0.0130397
-0.0754745
0.0624348
-0.0119318
-0.0720415
0.100178
-0.0281364
-0.246628
0.0907192
-0.0988332
0.0267917
0.0693031
0.0909754
-0.160279
-0.246997
0.0727648
0.102929
-0.112259
0.00933064
-0.0906486
0.0128823
0.00890417
-0.042098
0.0331938
0.168117
-0.226731
0.0586149
-0.25244
0.391311
-0.138871
0.255152
-0.0325017
0.0604648
-0.014483
0.275784
-0.261301
-0.0110993
0.00161701
0.00948225
-0.392663
-0.0748535
0.0818972
-0.0457492
-0.103064
0.0909991
-0.274623
0.182593
0.0686884
-0.0722938
0.00360542
0.17844
-0.109137
-0.033511
0.0581773
-0.0246662
0.0284848
-0.294179
0.265694
0.13798
0.197901
0.0468782
0.249864
-0.296742
0.059621
-0.136947
0.0773255
-0.112821
0.0015019
-0.10312
-0.113445
-0.365272
0.0463826
-0.0374784
-0.0633406
-0.0190617
0.0824023
-0.0995571
0.0802979
0.0192592
0.0203564
0.0498752
-0.0710309
-0.0117776
0.0828085
-0.2474
0.187374
0.0600262
0.0439148
0.0153285
-0.0592433
-0.0205194
0.00809071
0.145013
0.0484506
-0.0963935
0.0779949
0.0183985
-0.144828
0.159016
-0.0141887
-0.231598
0.361241
0.132762
-0.0234227
0.268242
-0.526007
0.0961334
-0.0676935
-0.0284399
-0.145212
0.161891
-0.0166786
0.0416519
-0.18459
-0.0286239
0.00269618
0.13765
0.0189425
-0.014673
-0.343445
0.358118
-0.057734
0.0517162
-0.231682
0.217199
-0.154667
0.00797831
0.0838021
-0.0851846
0.00138248
-0.0154272
-0.0701963
0.133513
0.217103
-0.350616
0.0420975
0.0247457
0.0231853
-0.0606298
-0.423169
0.0212898
-0.0952008
-0.204646
0.121662
0.0578128
-0.179475
-0.13955
0.146019
-0.0785286
0.0568311
0.0216975
0.0249709
-8.09124e-05
-0.0362504
-0.048307
0.372279
-0.16218
-0.210098
0.203277
-0.215456
0.012179
0.309459
0.0807966
-0.390255
-0.0849678
0.211922
-0.126954
0.0449114
0.00106383
-0.0143327
0.182449
-0.161096
0.00642921
0.00855198
0.0214734
0.40669
-0.279457
-0.127232
0.176458
0.195821
-0.251518
0.0299884
-0.0209981
0.0837294
-0.0627313
0.175116
-0.241096
0.0659801
-0.148148
-0.160564
0.308712
-0.165576
0.0260262
-0.0846194
0.00524073
0.00157386
-0.000277166
-0.0012967
0.00410295
-0.00419576
9.28132e-05
-0.253638
0.196207
0.0574311
0.208104
0.245744
-0.33919
0.0934454
-0.163309
0.157363
-0.0012316
-0.405436
0.203435
0.202
0.0533265
-0.0860353
-0.00984021
0.0864954
-0.00269329
0.00475554
-0.00270758
-0.00204796
-0.111932
-0.319033
0.0741307
-0.0432851
-0.0308455
-0.084037
0.329781
0.038717
-0.0598434
0.0526657
0.190998
-0.000153356
-0.0899702
0.0422407
-0.0856868
0.395146
-0.159738
0.447188
-0.0458139
-0.377355
0.0882664
-0.0660784
-0.0221879
0.0181247
-0.00322821
-0.0988054
-0.000349268
-0.0800069
-0.224026
0.304033
-0.0126508
-0.0629259
-0.0723398
0.0935943
0.10984
0.219421
0.204846
-0.0297304
0.264938
-0.279611
-0.0187277
0.0193129
-0.000585276
0.0223187
-0.00246682
-0.0198519
0.132316
0.114711
-0.247026
-0.0566735
0.161158
-0.104484
0.244098
0.0436225
-0.28772
0.046439
0.0276916
0.0494919
-0.0505219
0.00102997
0.35031
-0.447054
0.096744
0.00616239
-0.061351
0.0551886
-0.47554
0.0415456
0.433994
-0.0587096
0.0251986
-0.493764
0.282272
0.211491
0.342227
-0.208713
0.04652
0.0266798
0.00684818
-0.028271
-0.0161818
0.397673
-0.299548
-0.0981251
-0.0661387
-0.207039
0.273177
0.0225182
0.00401978
-0.026538
-0.154324
0.00911191
-0.226489
0.078341
-0.21911
-0.0282907
-0.00615378
-0.0244663
0.0306201
-0.0271004
-0.0687983
0.0958987
-0.0519906
0.00207047
0.0499202
-0.236847
-0.0936078
0.000743907
0.00999206
0.0284901
0.242676
-0.271166
0.00316369
-0.0574729
0.0909436
-0.0334707
0.423777
-0.303781
-0.119996
0.0594917
-0.0804898
0.342538
-0.314048
0.0400836
0.0933382
-0.103607
0.000448089
-0.00479088
0.00434279
0.335963
-0.226123
-0.527962
0.248052
0.27991
-0.0730755
0.000781718
-0.246166
-0.183085
0.00681404
-0.012108
0.00529391
0.168833
0.0182298
-0.187062
-0.0126344
-0.183583
-0.00675647
-0.00434279
0.00924265
0.0304188
-0.150907
-0.0274113
-0.0234795
0.192312
-0.340778
-0.0625756
0.403354
0.0322667
-0.00985222
-0.0224145
0.0329505
-0.319218
0.229186
0.090032
-0.00391199
-0.0978494
0.101761
-0.143456
-0.261979
-0.00503845
-0.00750194
-0.20998
-0.317982
0.0304894
0.065644
-0.106677
0.282623
-0.206493
0.121525
-0.10151
0.00270472
0.00563903
0.0696471
-0.0752861
0.112793
0.00168402
-0.114477
0.0722733
0.302925
-0.375199
-0.336881
0.100035
0.0316185
-0.00964855
-0.02197
0.376705
-0.304432
0.197603
-0.311709
0.134399
0.17731
-0.368281
-0.107259
0.0342392
-0.0184408
-0.0157984
0.00292719
-0.0298762
0.026949
-0.0132756
-0.115289
-0.0205046
-0.0607908
-0.0718504
-0.0148175
0.0288557
0.00340696
-0.0322626
-0.0960854
-0.0771876
0.173273
-0.163374
-0.0832537
0.376336
-0.113619
-0.262717
-0.0374656
0.254606
-0.21714
-0.338119
0.292386
-0.407651
-0.0397597
-0.0157064
0.0388906
0.0190664
-0.0131129
-0.00595346
-0.00795856
-0.0440438
0.0223817
-0.00174383
-0.059201
0.0312504
0.0279506
0.1102
-0.132634
0.0224343
-0.0592503
0.00875661
-0.0577116
0.048955
-0.138767
0.489078
0.0623196
-0.053563
-0.0417167
0.0791749
-0.0973312
0.0181563
-0.0128033
-0.0047027
0.0335584
-0.146049
0.159247
-0.0131981
-0.111415
-0.196609
0.00872884
0.0103375
-0.255917
0.179174
0.0767438
-0.126683
0.146872
-0.020189
-0.175275
0.118602
0.00867443
-0.0380856
-0.0838569
0.0697102
0.0141467
-0.10474
-0.206969
-0.0665015
0.0154517
0.00502723
0.0351094
-0.0570276
0.0219182
0.182797
-0.0611349
0.344278
-0.238362
-0.105916
-0.202629
0.139508
0.0631213
-0.128008
0.0639851
0.0640225
-0.209095
-0.0300913
0.239187
-0.100113
-0.00428871
0.0608172
0.0372261
-0.340618
0.311705
-0.249398
0.086024
0.0333151
-0.250857
0.12793
0.31073
-0.43866
0.00383632
0.000359901
-0.00419622
-0.00814218
0.0299509
-0.0218088
0.336708
-0.145987
-0.190721
0.0254454
-0.0487449
0.0840337
-0.0352888
0.00555417
-0.0354304
-0.0182813
0.0915923
-0.073311
-0.29962
0.390163
-0.0905436
0.0261935
-0.0343504
-0.0888136
0.148435
-0.101448
0.0743476
-0.0252006
0.00075797
0.0244426
-0.321756
-0.0163632
-0.154997
0.00894811
-0.0176447
0.0434569
-0.0258122
-0.0417733
-0.00452594
0.0462992
0.211977
-0.249442
0.118556
-0.130225
0.0116691
-0.00643768
0.00214942
0.174613
-0.241455
0.0668419
-0.428005
0.329159
0.0988457
-0.0390028
-0.0202666
0.0592694
0.0401118
0.00479962
0.101241
-0.0706272
-0.0818213
0.0099709
0.0154455
-0.00140557
0.0137386
-0.107102
0.0933636
-0.154575
0.139206
0.0153698
-0.0020496
0.0136463
-0.0115967
0.0237989
-0.0856073
0.0618084
-0.0229619
-0.0022387
-0.0880194
-0.0184741
0.0015546
0.00421951
-0.0152095
-0.108267
0.338665
-0.242063
0.00410295
-0.0985776
0.474283
-0.375705
-0.101254
-0.306438
0.407692
0.248064
-0.355462
0.107397
0.0137314
0.0185352
0.0793016
-0.0317485
-0.0475531
0.308331
-0.404794
0.0964629
-0.0506395
0.0329948
-0.214036
0.511023
0.127268
-0.112382
-0.0148862
-0.133598
0.0611806
0.0724177
-0.00171098
-0.00248478
-0.0788073
-0.0644417
0.0377505
0.199456
0.0727854
-0.272241
0.0732248
0.208461
-0.281685
-0.0559516
0.294342
0.0223089
0.00613807
-0.028447
-0.0903784
0.0261284
0.06425
-0.0356003
0.044843
0.519236
-0.264685
0.0647602
-0.0208455
-0.453251
0.414892
-0.016743
-0.0471132
0.375631
0.0919921
-0.188077
0.122996
-0.0103243
-0.112672
-0.00226559
0.082271
-0.0800054
0.52689
-0.269264
-0.257626
-0.0510015
-0.0526055
-0.129225
0.0330676
0.0720262
0.0210427
0.00830174
-0.0194877
0.00805646
0.0142622
0.280662
-0.207438
-0.00211723
-0.0552666
0.0210307
-0.030888
0.00985723
-0.102733
0.00563861
-0.00406475
0.0383337
-0.09171
0.0533764
-0.00475076
-0.000554562
-0.0753701
0.0143745
0.0609956
0.0307295
-0.0311011
0.000371578
-0.326059
0.453989
0.131665
0.0302264
0.163794
0.0924536
-0.0668894
0.0833558
-0.0164664
0.0517536
-0.042329
-0.00942456
0.0526164
0.0179768
-0.263591
0.184596
0.0789957
0.411306
-0.010234
-0.401072
-0.0107889
0.0118448
-0.00105594
0.00168414
-0.00741908
0.00573495
0.0244778
-0.0492235
0.38149
0.0687743
-0.450264
0.0446458
0.0346558
-0.0102146
-0.330404
-0.120237
0.0994549
0.0207816
0.00416847
0.0239352
0.093632
0.0290621
-0.0148763
-0.0141858
0.241078
-0.090246
-0.150832
0.0143011
-0.140984
-0.00822292
0.00421988
0.00110105
0.00304488
-0.00414593
0.169958
-0.0382937
0.324408
-0.399163
0.0747552
0.0115864
-0.0996058
-0.0491059
0.0144643
0.0346416
-0.0596787
-0.0739195
-0.229983
-0.115564
0.345547
-0.0211981
-0.0390543
-0.0605029
-0.0754087
0.00272718
0.0726815
-0.208492
0.0332166
-0.0773722
-0.00013104
-0.478321
0.158396
0.319925
0.445624
-0.0528679
-0.392756
-0.0159147
-0.00525134
0.0138786
-0.0849094
0.00549065
-0.0162795
-0.00759985
-0.00878467
0.0163845
-0.0896939
0.0640345
0.0256593
-0.0834011
0.0598073
0.0235938
-0.0235925
-0.00647752
0.298774
-0.191538
-0.107235
0.115357
0.0183047
-0.133662
0.0856515
-0.108688
0.0280671
-0.0529214
0.0248543
0.017095
0.185369
-0.114492
0.00706539
0.0245531
-0.0948013
0.0925357
-0.00968224
0.0417729
-0.0320907
-0.103597
-0.436775
0.134567
0.0979246
-0.0901939
-0.00773068
0.00570994
0.238388
-0.011555
0.0183691
0.071291
0.0291919
-0.100483
-0.167627
0.145466
0.0221617
-0.0365484
0.00843626
0.0281122
-0.0184197
0.108542
-0.0901221
-0.0146373
0.011472
0.0031653
0.0044412
-0.00399311
0.00251237
0.0536881
-0.0562005
-0.0555914
0.0165885
0.0408283
-0.0612687
0.0204403
-0.0725187
-0.164412
0.308274
-0.449698
0.141425
-0.071066
0.00296282
-0.00288579
-7.7028e-05
-0.00118835
0.0907584
-0.08957
0.100813
0.022944
0.000647402
0.0216756
-0.176817
-0.0316749
-0.165085
0.148135
0.0169504
-0.261989
0.214769
0.0472204
-0.00483086
0.00452295
0.00030791
-0.0512836
0.236168
-0.184885
0.048245
-0.0187003
-0.0894329
0.0260923
-0.258501
-0.0762217
-0.106292
0.0552908
0.0297543
0.00389162
-0.00136877
-0.00252285
-0.0762171
-0.127159
0.303817
0.312517
-0.0644525
0.0226126
0.038319
-0.0609316
0.400345
0.0446719
-0.445017
-0.133747
0.117154
0.0165932
0.10833
0.246869
-0.3552
0.035712
-0.00951844
0.0403833
-0.20202
0.0543345
0.03559
-0.101612
0.00149887
0.126569
0.0326782
-0.335388
-0.0763573
0.411746
0.167069
-0.18721
0.0201403
-0.0141002
0.355127
-0.15226
-0.202868
0.0714576
-0.177962
0.106505
0.000735555
-0.0347678
0.0340322
0.027182
-0.0157058
-0.0114762
0.0390063
0.0807595
0.0512455
-0.00300043
0.0148094
0.40971
-0.42452
-0.383928
0.255856
0.128072
-0.117367
-0.0437298
0.117655
0.293651
0.029505
-0.0196583
-0.100928
0.00569743
-0.126565
-0.0171916
-0.406253
0.332199
0.101996
0.0107969
-0.106102
0.0354749
-0.479314
0.0227961
0.456518
-0.000239112
-0.00181049
-0.0787315
0.0641925
0.014539
-0.322757
0.413931
-0.0911744
0.350464
-0.466368
0.115905
0.0477195
0.00352597
-0.0361154
0.00308263
0.0330327
0.118285
-0.348268
0.0127039
-0.0405785
0.0278745
0.0332239
-0.0581105
0.0248866
-0.249072
-0.0878098
0.508792
-0.26074
-0.0112034
0.01534
0.0188991
0.074094
-0.0610543
-0.085288
0.0670067
-0.0583891
-0.016981
-0.0753611
-0.184407
0.259768
-0.0485464
0.019344
0.00749256
-0.0128543
-0.00550785
0.00672958
-0.129699
0.12297
-0.153594
0.147088
0.00650598
0.0223301
-0.0548318
-0.0760314
-0.0136625
-0.275761
-0.187868
0.463629
-0.00818115
0.11111
-0.0822226
0.0593966
0.231077
-0.378323
0.147246
-0.252902
-0.0948498
0.347752
-0.172326
0.00469872
0.195777
0.0757574
-0.482011
-0.0262156
0.0180734
0.0342224
-0.0605742
0.0263517
0.422206
-0.0218611
0.220399
-0.0021136
-0.00118078
0.00329438
0.00487293
0.00884765
-0.013425
0.00457738
0.25411
0.129934
-0.35818
-0.0241184
0.0573423
0.129196
-0.17423
0.0450336
0.0450497
0.0591179
-0.104168
0.266002
-0.254679
-0.413805
0.0730267
-0.377141
0.446113
-0.0689713
0.381184
0.0930988
-0.000285418
-0.00153452
0.319341
0.189451
0.388955
0.364231
-0.133154
-0.362383
0.235394
0.126989
-0.0180228
-0.00249654
0.0651082
-0.274203
-0.141126
0.0145616
-0.287319
0.0961083
-0.0705007
-0.0101246
0.0806252
0.0719602
-0.0506691
-0.0212911
0.0793365
0.186665
-0.0238914
0.0480618
-0.0241704
-0.0649353
-0.0413569
-0.276047
-0.0794147
0.424362
-0.00811391
-0.416248
-0.159214
0.0273818
0.131832
0.222037
0.133091
-0.381671
0.00452942
0.0997866
-0.447058
-0.464668
0.188907
-0.0663199
-0.00948988
0.0758098
-0.0580652
0.103115
0.16712
-0.0405512
0.0551044
-0.085612
0.0305076
0.0679571
-0.0887852
0.0208282
0.414128
0.214156
-0.000796134
-0.0175569
0.018353
0.0390204
-0.10111
0.0620896
0.0129372
0.0866676
-0.087856
-0.0669267
0.0181019
0.0488248
0.252279
-0.178658
-0.073621
0.0959004
0.31381
0.011182
0.0139627
0.00935276
-0.0428371
0.144565
-0.101728
-0.129658
0.310018
-0.180359
0.0490217
-0.00610747
-0.0429142
-0.000289821
0.00412614
-0.0812394
-0.317924
-0.0481321
0.114422
-0.0662895
-0.00551808
0.00720222
-0.00784565
0.0252265
-0.0173808
0.11814
-0.146471
0.0283309
-0.0877249
0.103745
0.112826
0.0803928
-0.193219
0.000394486
0.0099457
-0.0103402
0.465701
-0.39926
0.298641
0.177549
0.0606026
-0.0263802
0.0136636
-0.0133726
0.00437593
0.000436804
-0.0670225
-0.0186264
0.0856489
-0.0515729
0.0598927
-0.00831982
-0.0768361
-0.326306
0.255382
0.0709235
-0.359114
-0.13465
-0.117296
0.137613
-0.0203169
-0.0412526
0.0635827
0.197477
-0.327135
-0.00229678
0.000249478
0.0020473
-0.166176
0.0226303
0.143546
0.0235224
0.0362751
-0.0597976
0.0124275
-0.347115
0.0980436
0.0323945
0.0166272
-0.0921231
-0.0887403
0.160198
-0.0993985
0.0676903
-0.0794679
-0.191371
-0.330826
-0.250411
-0.111972
0.130887
-0.0155298
-0.0359961
0.0487
-0.00703304
-0.12111
0.128143
-0.0197689
-0.0394322
0.491898
-0.344428
-0.14747
0.0762179
-0.195947
0.119729
0.0958508
-0.0245598
-0.0822858
0.00625444
-0.107386
0.109071
-0.00519093
0.0366979
0.0273898
0.0705348
0.0698164
0.0175844
-0.267147
0.191786
0.0249422
-0.0375679
0.0126257
-0.0426468
0.0404449
0.00220194
0.0676538
-0.0496429
-0.018011
-0.0631811
0.0116082
-0.03567
-0.00583649
0.0415065
0.281918
-0.0028206
0.000523821
0.115054
0.0166471
0.0966673
0.190273
-0.28694
0.0142192
0.0578611
-0.0720803
-0.0302069
-0.00531732
0.0355242
0.00391641
-0.00420183
0.117156
0.0766503
-0.193807
0.013526
-0.021066
0.43967
-0.216923
0.0327904
0.017107
-0.0498974
0.115851
0.00241615
0.0101242
-0.412178
0.0834105
-0.0283061
0.112237
0.0155036
-0.127741
-0.0454541
0.00216898
0.0529612
0.195049
0.00822811
-0.00698015
-0.0316049
-0.179934
0.211539
0.0402118
0.00139316
0.00336238
0.467835
-0.327915
-0.13992
0.171074
-0.263155
-0.145211
0.0279151
0.0858162
-0.104236
-0.127524
0.172604
0.00318186
-0.175786
-0.0359026
0.042065
-0.130866
0.219004
-0.0589882
0.0152592
-0.0045162
0.108476
0.0630933
-0.0807693
0.017676
0.173314
-0.0230484
-0.150266
0.10424
0.0932174
-0.197457
-0.0112631
0.0322938
0.132869
-0.0395311
-0.384571
0.108524
0.0245937
-0.0484851
-0.035112
0.00350647
0.00221385
-0.00063617
0.00575415
-0.00511798
-0.0377424
0.0132761
0.100518
-0.118616
0.0180983
-0.125823
0.507313
-0.306379
0.511883
-0.0770675
0.193561
0.242465
0.0658712
-0.308336
-0.0034543
0.0628509
0.00453915
-0.000163219
-0.0103883
-0.0506859
0.0610742
-0.352993
0.340747
0.0122456
-0.0680439
0.0765364
0.00488372
-0.00375754
-0.00112618
0.0316501
-0.0475044
0.0158543
0.275451
-0.0986317
-0.103997
-0.025451
0.00747813
0.0179729
0.052262
-0.0194716
0.0914524
-0.113827
0.0223747
0.0943826
0.0105368
-0.104919
0.111548
0.165916
-0.190555
0.15895
-0.014564
-0.115661
0.014914
0.00344816
-0.043123
-0.230146
0.273269
0.0030615
-0.00281203
-0.228266
0.261581
0.152787
0.00112817
-0.00222222
0.00109404
-0.0279959
-0.0476206
0.0756165
0.116783
0.124295
-0.552168
0.233646
0.318522
-0.122781
-0.024244
-0.0772434
0.0936804
-0.016437
0.0922761
0.011303
-0.0992663
0.0563156
0.27596
-0.186623
-0.0893375
0.294365
-0.205872
-0.088493
0.188467
0.0291977
0.00950204
-0.0386997
-0.0749348
0.0888134
0.0889308
-0.0928428
0.0120405
-0.0320522
-0.154336
-0.0118404
0.395269
-0.283376
-0.111893
-0.222044
-0.0419292
0.263974
-0.101677
0.0808849
0.0207922
0.0275219
-0.0914913
0.0639694
0.107813
-0.306237
0.198424
0.132237
-0.139291
0.00705412
0.0382982
-0.127112
0.0452952
0.357936
-0.448982
0.239038
0.209944
-0.395516
0.279699
0.115816
0.359786
-0.123777
-0.236009
-0.277238
-0.171744
-0.0795097
-0.0234423
0.0363919
0.31142
-0.0402645
0.0391554
-0.0432795
-0.136045
-0.112277
0.13212
-0.0198433
0.0154872
0.0699879
-0.0854751
0.0585405
0.135947
0.309461
-0.0669967
-0.0216899
0.0508876
-0.0165045
0.170737
-0.154232
-0.000606897
0.00475015
-0.00414326
0.164768
-0.221236
0.0564679
-0.161502
0.0129916
0.148511
-0.0563752
0.0802097
-0.0238345
0.239954
-0.426163
0.186209
0.00433886
-0.000447242
0.192017
-0.163533
0.0891935
-0.0194832
0.00217614
-0.0219005
-0.0207463
0.0160303
-0.128307
0.131445
-0.090573
-0.0408716
-0.28431
-0.141775
0.426085
-0.028363
0.0325397
-0.00985706
0.0589752
-0.0491181
0.137707
0.156658
-0.0668362
0.256954
-0.0643722
0.250245
-0.185873
-0.0161404
-0.0174409
0.0335814
0.129009
0.0130724
-0.142081
0.0608826
0.0168471
-0.00497204
-0.0137556
0.190364
-0.187223
-0.0603587
0.247581
0.0109302
0.317415
-0.328346
0.0261222
0.00788718
-0.0340094
-0.115037
0.125194
-0.0101567
-0.107854
-0.0214758
0.0338746
0.0543917
-0.000317504
0.00141855
-0.0728567
-0.0534385
-0.0157753
-0.0034377
-0.0183474
0.000302112
0.0180453
-0.0638875
0.372218
-0.440525
0.383206
-0.03113
0.0546524
0.000442139
-0.00435082
0.00390868
0.0717186
0.011306
-0.0776259
-0.25806
0.00777888
-0.0782795
-0.361078
0.333586
0.027492
-0.292608
-0.0684701
0.0753838
0.00817175
-0.00384321
-0.00432854
-0.316884
0.327814
-0.296254
-0.0992612
0.238136
-0.281259
-0.00418341
-0.34881
0.00455881
0.0419612
0.348207
-0.229922
0.0245079
0.0576458
-0.342513
0.123269
0.219244
-0.103514
0.110244
-0.0153939
-0.0465908
0.0619847
0.184059
0.34283
0.297402
-0.189588
0.0131192
-0.0903626
-0.283172
0.0853416
0.157163
-0.0279675
-0.0965811
0.110118
-0.013537
-0.00718025
-0.0221642
0.00581883
-0.0671698
0.414228
-0.208736
-0.205492
0.0762895
0.0236372
-0.0999267
0.0648773
-0.0407163
-0.024161
0.250554
0.0852596
-0.335814
-0.141266
0.0184852
-0.0459955
0.03706
0.00893543
-0.00564896
0.0877418
-0.0186926
-0.0205587
-0.0811184
-0.0445707
-0.112787
0.157358
-0.00913748
-0.0889177
0.0980552
-0.14237
0.346253
-0.203884
0.351088
0.15615
0.110163
0.316486
-0.42665
0.095218
0.147595
0.0930842
-0.240679
-0.110753
0.00336608
-0.0479193
0.0173244
-0.0035757
-0.0110616
-0.158992
0.363105
-0.0426085
-0.0398988
0.0825074
0.189447
-0.283853
0.0944062
0.209606
-0.41191
0.202304
-0.0369946