/*--------------------------------*- C++ -*----------------------------------*\
| =========                 |                                                 |
| \\      /  F ield         | OpenFOAM: The Open Source CFD Toolbox           |
|  \\    /   O peration     | Version:  v2012                                 |
|   \\  /    A nd           | Website:  www.openfoam.com                      |
|    \\/     M anipulation  |                                                 |
\*---------------------------------------------------------------------------*/
FoamFile
{
    version     2.0;
    format      ascii;
    class       volVectorField;
    location    "50";
    object      U_0;
}
// * * * * * * * * * * * * * * * * * * * * * * * * * * * * * * * * * * * * * //

dimensions      [0 1 -1 0 0 0 0];


internalField   nonuniform List<vector> 
18232
(
(-0.29989 -0.0144858 5.25552e-20)
(1.04242 0.0370344 -8.93438e-22)
(1.00351 0.0143611 1.93973e-20)
(0.970414 0.00225494 2.6375e-21)
(0.971166 0.129716 0)
(1.02164 0.149362 1.82504e-21)
(0.971299 -0.00299714 -1.02774e-20)
(0.999028 -0.00124103 0)
(0.961216 0.127002 0)
(0.969973 0.128619 -7.47343e-21)
(0.97182 0.00721026 -2.10839e-20)
(1.07395 0.064932 1.50977e-21)
(0.972299 0.119446 1.35483e-20)
(0.827914 0.133079 -6.91977e-20)
(0.883847 0.0366109 0)
(1.18201 0.0769159 -4.58411e-20)
(1.0003 0.000106307 0)
(0.99995 1.72551e-06 4.9915e-21)
(0.981418 0.00433062 1.42315e-22)
(1.02222 0.128354 2.23808e-21)
(1.03085 0.153586 -4.06079e-22)
(0.978742 0.0281136 -5.51767e-21)
(0.972442 0.00777534 1.99324e-20)
(0.989139 0.0455151 0)
(0.891549 -0.0325869 -2.13642e-20)
(0.887755 -0.0266014 2.24883e-20)
(0.999246 0.017796 0)
(1.02129 0.150011 1.66012e-21)
(0.999947 -1.68892e-05 4.54686e-21)
(1.00299 0.0140088 -1.2853e-20)
(0.999933 -0.000275399 -9.44494e-21)
(-0.114846 0.0260064 0)
(0.996136 -0.0111781 0)
(-0.047477 -0.446646 -5.7117e-20)
(0.934928 0.114013 -6.26677e-21)
(1.02042 0.134125 -8.54721e-22)
(0.697756 0.117553 0)
(0.998431 -0.002567 2.83717e-21)
(0.926991 0.14475 0)
(0.999913 -0.00124175 7.89314e-21)
(-0.0168811 -0.0416422 -6.88128e-20)
(1.06729 0.0608861 -4.51838e-21)
(0.985838 0.140516 0)
(0.593141 0.0923758 -8.67091e-22)
(1.00005 0.00201431 0)
(1.00501 0.14482 -2.92678e-22)
(1.03572 0.0290204 -3.04317e-21)
(1.06826 0.0593238 1.06842e-20)
(1.03304 0.131522 1.6639e-21)
(1.02746 0.0301309 -4.88507e-22)
(0.99043 -0.00812647 -4.40751e-21)
(1.00004 3.65123e-05 0)
(-0.163089 0.04933 1.23564e-19)
(1.05828 0.0777771 0)
(1.02296 0.115535 1.53984e-21)
(1.0575 0.132995 -1.37618e-22)
(0.995644 -0.00309276 -1.42041e-20)
(0.993973 -0.0160826 1.13562e-20)
(-0.107919 -0.0171119 -6.41009e-20)
(1.03013 0.0364836 2.23354e-21)
(0.883595 0.029042 0)
(1.00004 0.00233415 6.14329e-21)
(0.982774 0.0778331 1.34726e-20)
(0.970847 0.00183323 -2.47004e-21)
(1.08712 0.0906305 -4.48288e-21)
(1.02347 0.0537661 -4.2516e-21)
(-0.0378832 0.111306 -2.56751e-20)
(-0.130586 0.00716296 0)
(0.999778 0.0177646 0)
(0.980866 0.0772816 0)
(0.995498 -0.00325845 -5.02334e-22)
(1.001 0.00559638 1.89939e-20)
(-0.113134 0.0312622 5.13307e-20)
(1.01917 0.134566 0)
(1.08903 0.0583387 0)
(1.06225 0.147066 6.27424e-22)
(0.958858 0.041837 0)
(0.9557 -0.00968154 -3.4801e-20)
(0.24381 0.0342385 -2.17291e-21)
(0.972637 0.020466 -1.23703e-20)
(-0.145891 -0.00776339 -1.38745e-20)
(1.07553 0.0926317 1.39162e-20)
(1.06233 0.0756936 -4.67608e-21)
(1.0007 0.0528967 1.00544e-20)
(1.09217 0.231139 9.98577e-23)
(1.06008 0.133283 1.2457e-20)
(1.00227 0.0121294 6.65728e-21)
(0.981708 0.00361476 0)
(1.07611 0.0921728 -1.46462e-20)
(1.05645 0.100681 1.15655e-20)
(0.981184 0.00239062 3.68308e-21)
(1.00002 0.0195471 0)
(0.999936 -0.000373259 -1.39985e-21)
(1.06364 0.13042 0)
(0.981478 0.00234812 -3.43502e-21)
(0.978535 0.0775375 0)
(0.991085 0.00129182 -1.07296e-20)
(0.977677 0.0220653 0)
(1.03533 0.306533 0)
(1.00784 0.0292931 0)
(0.848801 0.013724 7.77456e-20)
(1.05826 0.0774464 -1.42935e-21)
(1.03934 0.143747 2.14327e-21)
(0.868754 0.0824427 2.83412e-20)
(1.0199 0.134815 0)
(0.916247 0.0285475 0)
(1.00265 0.0141815 -7.88205e-21)
(1.10285 0.102953 3.79311e-20)
(1.00005 5.46247e-06 1.55019e-20)
(0.983012 0.0752077 -1.01346e-20)
(1.0226 0.0534702 1.28066e-20)
(1.06819 0.149097 0)
(1.02527 0.0311671 0)
(0.972571 -0.00301659 -5.0031e-21)
(0.991 -0.00796208 -4.94081e-21)
(1.01972 0.0812369 0)
(1.07844 0.0895249 0)
(0.987301 0.142674 3.13197e-22)
(1.03755 0.108787 0)
(1.02305 0.0813967 -7.2151e-21)
(0.995744 -0.00178856 -6.92684e-21)
(0.998281 -0.00238188 3.49257e-21)
(0.431948 0.183051 -3.1254e-21)
(1.02312 0.136199 3.01606e-21)
(0.934497 0.114412 -2.70766e-20)
(0.985792 0.136317 0)
(1.12042 0.0165326 5.6573e-20)
(1.01555 0.0120447 9.36486e-21)
(1.02876 0.148621 -4.80051e-22)
(1.0702 0.150464 0)
(1.00336 0.0172267 0)
(0.976378 0.0265728 2.35012e-20)
(1.03852 0.108759 0)
(1.02078 0.021178 0)
(-0.320061 0.0603313 0)
(1.06369 0.146358 -6.34759e-23)
(1.03196 0.131442 -8.11701e-22)
(0.999761 -0.00239255 1.2886e-20)
(1.03167 0.03632 4.28739e-21)
(0.941097 0.143321 0)
(1.02317 0.114726 -4.33584e-21)
(0.915445 0.0263713 0)
(-0.312455 -0.311886 -4.93781e-20)
(0.99007 -0.000526708 1.103e-20)
(1.01228 0.107864 1.01218e-20)
(0.981737 0.10239 0)
(0.887107 0.0273651 2.27002e-21)
(0.999998 -0.000331144 -1.211e-20)
(0.792324 0.102962 0)
(0.997758 0.147082 -7.61781e-21)
(0.292772 -0.0851452 0)
(1.06667 0.0632323 4.45466e-21)
(1.07603 0.0956729 0)
(0.961011 0.0440907 -1.48358e-20)
(1.05515 0.100861 -1.10883e-20)
(-0.0804114 -0.0416641 2.85737e-19)
(1.14239 0.0928462 0)
(1.08382 0.094509 1.99706e-21)
(0.666127 0.0402762 -1.24702e-19)
(1.03099 0.0369666 -4.38262e-21)
(1.04185 0.0373059 1.00695e-21)
(1.02119 0.0213564 0)
(0.999286 0.018743 0)
(-0.0401682 0.110345 0)
(1.02265 0.127588 0)
(0.983086 -0.0261851 -1.61564e-20)
(0.845701 0.11443 0)
(-0.308901 -0.317977 1.27228e-19)
(0.932258 -0.0358643 -4.95311e-20)
(1.03562 0.124827 8.61381e-23)
(1.00202 0.0229713 9.98797e-21)
(0.999131 -0.00130559 -1.13538e-20)
(1.00311 0.0167686 -6.28387e-21)
(0.976912 0.0289313 -5.21716e-21)
(0.959379 0.0137925 -1.36195e-20)
(0.377241 0.0560466 2.52353e-21)
(1.00127 0.054451 -2.64169e-21)
(0.999991 -7.19865e-05 -4.87096e-21)
(0.966604 0.120058 6.50649e-21)
(0.991351 -0.010573 -2.74806e-20)
(1.01789 0.130928 0)
(0.970244 0.150819 1.46955e-20)
(1.00071 0.0051586 -2.5563e-20)
(1.04049 0.144687 -5.10851e-22)
(-0.635457 -0.108603 5.50094e-20)
(0.999999 -0.000253003 0)
(1.00836 0.0477273 0)
(1.09274 0.226724 -1.56713e-20)
(0.99989 -0.00160312 0)
(0.299959 0.0343896 2.0472e-21)
(0.920847 -0.018774 -2.13999e-20)
(0.990949 0.0100861 0)
(0.966085 0.129135 -7.71092e-21)
(0.880365 0.122346 0)
(0.990589 -0.000359772 5.69076e-21)
(0.984073 0.0264176 0)
(1.02521 0.0306265 0)
(0.964398 -0.00208026 1.08113e-20)
(1.00736 0.000808909 -1.83877e-20)
(1.0097 0.0183093 0)
(0.999993 -5.45756e-07 8.67828e-21)
(1.01584 0.0895241 -1.14845e-20)
(0.840508 -0.0333288 -6.52539e-20)
(0.633214 0.237819 -8.55527e-20)
(1.10173 0.0991142 -1.49983e-20)
(0.0997287 -0.106226 0)
(1.01298 0.240752 -2.20715e-23)
(-0.0780595 0.036411 0)
(0.995014 0.149777 -1.36846e-20)
(1.04178 0.0983836 -9.47969e-22)
(1.00074 0.0218765 -9.43125e-21)
(0.887659 0.0263442 -1.20263e-20)
(0.856615 0.0156404 -6.34227e-20)
(1.03077 0.277366 5.06953e-21)
(1.19073 0.0660621 7.60944e-20)
(1.01429 0.0904398 8.82416e-21)
(1.07731 0.0986352 0)
(1.00006 0.0200573 5.60515e-21)
(1.00214 0.0138572 2.0927e-20)
(0.977377 0.021005 1.08202e-20)
(0.865019 0.113804 0)
(1.02951 0.0369885 -2.30635e-21)
(0.0714902 0.275633 4.33551e-20)
(0.979423 0.0673068 2.20984e-20)
(1.00748 0.0010809 1.28074e-20)
(1.00212 0.0220181 1.37777e-20)
(0.997804 0.148037 1.18405e-20)
(0.990573 0.0462292 0)
(0.991684 -0.00990659 9.93158e-21)
(0.997181 -0.0110861 -1.12056e-20)
(0.979862 -0.0110553 -1.46442e-20)
(0.934934 -0.030364 3.00681e-20)
(-0.301117 -0.276535 -5.19353e-20)
(1.14287 0.094194 0)
(0.995766 -0.0114227 5.34269e-21)
(0.98042 0.141659 0)
(0.955071 -0.0276726 -5.84072e-21)
(1.13906 0.0303201 0)
(1.02824 0.0304586 0)
(1.00006 3.34894e-05 -7.26633e-21)
(0.978856 -0.011454 1.44501e-22)
(0.970719 0.142364 -3.2582e-20)
(1.13842 0.0260933 4.28021e-20)
(0.88684 0.0797721 0)
(0.565485 0.0899417 -1.15398e-21)
(1.03384 0.125356 3.05417e-23)
(1.00001 2.35584e-05 9.00692e-21)
(-0.146965 -0.0289271 -5.54204e-20)
(0.0236125 -0.0172295 2.77119e-21)
(0.952417 0.0553609 -1.48229e-20)
(1.06885 0.132998 -4.33879e-22)
(1.0551 0.135535 -5.17088e-21)
(1.01133 0.0298498 1.6742e-23)
(0.991303 0.148193 1.00807e-20)
(0.985099 0.0247209 -1.49661e-20)
(0.40708 -0.0141191 -1.57511e-19)
(1.02151 0.130151 -6.73593e-23)
(0.15944 0.251667 -3.86654e-20)
(1.07936 0.227718 -1.20752e-22)
(1.01768 0.132245 -3.54924e-21)
(0.996469 0.0650571 -2.04777e-20)
(1.05766 0.0788978 0)
(1.00436 0.143103 0)
(0.999956 -0.000130623 0)
(1.01594 0.0292471 8.66402e-21)
(1 5.39523e-05 0)
(0.534689 0.0825674 7.65806e-22)
(0.667374 0.0461545 1.25011e-19)
(1.05713 0.135671 -1.05827e-20)
(1.023 0.135872 0)
(0.974976 0.026227 1.40409e-20)
(-0.075743 -0.436599 1.3571e-21)
(0.971575 0.186986 -5.82558e-21)
(1.00241 0.000666466 1.34091e-22)
(1.01213 0.0297272 0)
(0.245931 0.0247971 7.54762e-22)
(1.06118 0.0735043 0)
(0.958943 -0.0136188 -1.7463e-20)
(1.00006 3.95444e-05 9.18901e-21)
(0.915621 0.116272 0)
(0.512037 0.0785514 0)
(1.02155 0.0815034 4.62387e-21)
(1.03266 0.0411558 4.64624e-21)
(0.430351 0.0573556 3.59374e-21)
(1.03346 0.132109 -1.09771e-21)
(0.956162 -0.0245739 1.44207e-20)
(1.01536 0.106215 -2.4796e-21)
(0.610963 0.0919953 -6.01298e-24)
(0.974789 0.0793983 -1.50792e-20)
(1.07686 0.085817 -1.12073e-20)
(0.991135 0.0109819 1.26198e-22)
(1.0593 0.087921 -1.24782e-21)
(0.331938 0.0367554 -3.91743e-21)
(1.07523 0.0625904 -7.16105e-21)
(1.06751 0.0618061 -4.79807e-21)
(1.02404 0.136097 -4.19179e-22)
(0.438617 0.0592954 -4.27294e-21)
(1.03375 0.0379485 0)
(1.00012 0.00231147 1.51838e-20)
(0.972179 0.0736539 7.78141e-22)
(1.03991 0.0617541 -2.50489e-22)
(1.00005 1.27844e-05 0)
(0.981057 0.120063 -2.64283e-21)
(1.0682 0.132851 0)
(1.00004 2.11121e-05 8.39825e-21)
(0.993402 -0.0157962 4.84192e-21)
(1.08017 0.0345637 -2.46885e-20)
(1.05141 0.0720065 -1.2126e-21)
(1.00025 0.0001421 0)
(0.931523 0.129774 1.35788e-22)
(0.889575 0.0801344 2.78201e-20)
(0.994795 -0.00168106 0)
(1.11373 0.07046 3.39149e-20)
(0.96312 0.0369035 2.29705e-20)
(1.03293 0.0424088 -1.92655e-23)
(1.01428 0.108852 -5.45785e-21)
(0.404239 0.0527065 0)
(1.01903 0.0208385 1.78681e-20)
(1.00233 0.143814 -1.38795e-21)
(0.992393 -0.00795301 1.8744e-21)
(0.816517 0.132011 -1.3218e-20)
(1.01882 0.081073 3.68094e-22)
(1.09216 0.0626644 4.36207e-21)
(0.547723 -0.0645536 -8.26165e-20)
(0.85368 -0.0230879 0)
(1.0207 0.05265 -1.8975e-21)
(1.10056 0.0158585 -1.81784e-20)
(1.01732 0.0811467 -1.0949e-20)
(1.06098 0.0578673 0)
(0.977379 0.078848 1.32316e-20)
(1.05561 0.0783989 0)
(0.98764 0.00276355 0)
(1.06792 0.107848 0)
(0.288728 0.436472 -9.48773e-20)
(1.02422 0.129425 0)
(-0.54495 0.0114326 0)
(1.02037 0.132454 1.40465e-21)
(1.0828 0.230419 0)
(0.999769 0.0166179 4.82742e-21)
(1.04113 0.0964944 -2.21276e-22)
(0.997566 -0.0110586 -2.89407e-21)
(1.01152 0.215318 2.37758e-23)
(1.00001 2.1949e-05 -1.91778e-20)
(1.01744 0.00241052 0)
(1.01823 0.0202762 -1.87683e-20)
(1.08613 0.116021 -3.42934e-21)
(-0.661348 -0.10904 0)
(1.01486 0.106392 1.95937e-21)
(1.08409 0.0338483 3.51823e-20)
(0.956091 -0.0279386 -2.96504e-20)
(1.12197 0.1365 2.11386e-20)
(0.858853 0.00122799 -2.86753e-20)
(0.855697 -0.0108622 -3.27196e-20)
(1.01514 0.0298957 1.84125e-20)
(1.05577 0.0898798 0)
(1.00765 0.107018 -1.76668e-22)
(1.06389 0.130619 0)
(-0.65212 -0.104254 0)
(0.998206 -0.0020304 5.9532e-21)
(0.994836 -0.00226088 0)
(1.02709 0.221776 0)
(0.986889 0.135594 0)
(-0.143101 -0.0197528 6.48503e-20)
(0.955055 -0.0315242 1.07858e-20)
(-0.357353 -0.0266282 0)
(0.917389 -0.0145359 2.75986e-20)
(0.862849 0.120069 4.69999e-20)
(-0.658906 -0.108722 5.99291e-20)
(0.919655 0.0303506 2.53492e-20)
(1.087 0.233455 2.07897e-20)
(1.02159 0.133276 -9.87574e-22)
(1.02029 0.131722 0)
(1.04198 0.0383814 0)
(-0.0578779 -0.927921 1.52824e-19)
(1.00957 0.0187112 -8.01976e-21)
(1.00695 0.0294011 0)
(1.02803 0.0370567 -6.95228e-21)
(1.00233 0.00190554 -9.25701e-21)
(1.17409 0.0773372 6.86815e-20)
(1.12204 -0.00286584 -4.41894e-20)
(0.978041 0.107786 0)
(1.05723 0.0883431 0)
(0.999933 -0.00069363 -1.51038e-20)
(0.969249 0.0172807 2.33934e-20)
(0.0666198 -0.0172037 0)
(1.06031 0.0573149 0)
(0.972801 -0.0182868 0)
(1.00244 0.00213964 0)
(0.980731 -0.0131495 1.4104e-20)
(0.993999 0.0935196 0)
(1.02852 0.114438 4.98699e-22)
(0.743316 -0.0208647 -6.84779e-20)
(0.752279 0.0961778 2.11247e-21)
(1.06111 0.0557869 0)
(0.801197 0.12955 1.53081e-20)
(0.952612 0.0568101 0)
(0.441529 0.179946 0)
(1.00067 0.00479391 1.69122e-20)
(0.645972 0.245038 5.18302e-20)
(1.00207 0.00164501 0)
(1.02028 0.131661 0)
(1.1876 0.0557573 -6.0322e-20)
(1.09213 0.0259386 -1.80559e-20)
(0.096835 0.499146 -3.2403e-20)
(1.05574 0.0903185 0)
(0.998374 -0.00196148 -1.24382e-20)
(1.01034 0.110432 0)
(1.00004 3.67314e-05 -1.02297e-21)
(0.990385 -0.0191376 -9.60952e-21)
(1.01928 0.141697 0)
(0.80025 0.129731 2.56578e-20)
(-0.313424 -0.667312 -8.13079e-20)
(1.04962 0.0727888 0)
(1.01661 0.0807081 1.25953e-20)
(0.829807 0.132297 2.76488e-20)
(1.01919 0.130963 -1.09085e-22)
(0.996915 0.00121153 -1.31625e-20)
(0.999912 -0.000170401 -5.63642e-21)
(0.910635 0.138499 0)
(0.963847 -0.00264326 2.79414e-20)
(0.996836 0.0974913 -7.70424e-21)
(0.795884 0.0742627 1.01595e-19)
(1.07203 0.0487494 1.04315e-20)
(1.00901 0.0227835 0)
(0.944333 0.138824 0)
(1.06642 0.119015 8.39197e-21)
(1.08841 0.0601785 3.481e-20)
(1.07474 0.0569381 -6.50416e-21)
(0.859665 0.120594 -8.84775e-20)
(1.02293 0.128431 0)
(1.01713 0.0199827 -1.2146e-20)
(1.03108 0.131118 3.46269e-22)
(-0.652937 -0.103778 0)
(0.960211 -0.0128611 1.91652e-22)
(1.06614 0.106018 0)
(0.994759 -0.00242003 1.42097e-20)
(0.991846 -0.00752611 -2.35883e-21)
(0.997151 -0.0116725 1.49472e-20)
(1.04846 0.0531377 -1.26773e-21)
(0.970372 0.000261479 0)
(0.845813 -0.0278478 1.05652e-19)
(1.06955 0.128491 -1.04545e-20)
(0.959688 0.118632 6.73399e-21)
(1.00007 0.12693 -2.65531e-21)
(1.00721 0.0465009 1.13302e-22)
(0.997704 0.128297 -4.84809e-21)
(0.932128 0.0285407 -9.58652e-21)
(0.971885 0.0179586 3.54513e-21)
(1.08627 0.0679827 -1.29999e-20)
(0.850971 0.103936 0)
(0.9286 0.116846 3.16638e-21)
(0.960523 0.0237501 0)
(1.01672 0.013621 -5.63877e-21)
(0.994612 -0.00195199 0)
(1.02143 0.130606 -4.33621e-21)
(0.993977 0.0103175 0)
(-0.0188739 -0.230783 8.92515e-20)
(0.999941 -0.000121829 1.96583e-20)
(0.972516 0.176835 1.5271e-20)
(0.980782 0.107783 -1.07441e-20)
(1.00883 0.0230155 5.49841e-21)
(1.00589 0.172379 1.01369e-21)
(0.93464 0.0328191 0)
(1.0872 0.146394 -2.23234e-20)
(1.00749 0.0232453 0)
(0.981996 -0.0257963 4.5472e-21)
(1.00892 0.018992 7.92832e-21)
(0.950165 0.074996 4.07379e-20)
(0.969439 0.118004 6.08295e-22)
(0.97895 0.105249 -9.83581e-21)
(0.997003 0.00108738 6.51814e-21)
(0.972686 0.123551 0)
(1.06031 0.121756 1.30415e-20)
(1.13483 0.0603686 -5.31454e-22)
(0.73602 -0.0136459 1.3464e-19)
(0.926922 0.155341 1.88413e-21)
(1.02977 0.042343 4.97393e-21)
(1.02982 0.136406 0)
(-0.493294 0.021441 -6.35706e-20)
(0.997791 0.0649511 1.94244e-20)
(1.00129 0.14472 1.46855e-20)
(1.04893 0.0552041 -6.64814e-22)
(0.995837 -0.00152924 2.4767e-20)
(1.07253 0.0463576 -1.21284e-20)
(0.999759 -0.00200359 1.03029e-21)
(0.956391 0.137532 0)
(1.0097 0.0698302 0)
(0.995611 0.0638401 1.83183e-20)
(0.632073 0.0927049 5.55879e-23)
(1.0611 0.0552723 0)
(0.997619 -0.000787639 0)
(1.02063 0.142544 -1.65544e-21)
(0.993589 0.010912 0)
(1.01528 0.0807181 -1.229e-20)
(0.965266 0.147926 -1.50553e-20)
(1.06456 0.117453 0)
(1.00836 0.0129601 7.91563e-21)
(1.0213 0.132644 0)
(1.03886 0.143229 0)
(1.00023 8.13069e-05 0)
(0.97097 -0.000616566 -1.95513e-20)
(1.02804 0.0634973 8.68912e-21)
(0.934325 -0.0316129 0)
(1.00926 0.167523 6.48586e-22)
(-0.657292 -0.106751 -2.40375e-19)
(1.01693 0.133141 2.10945e-21)
(0.987304 -0.00583791 -1.05437e-20)
(0.978909 0.041339 2.2367e-21)
(1.00062 0.00370606 1.6374e-20)
(1.00743 0.0386752 0)
(0.971945 0.139784 0)
(0.959107 0.0271396 -2.76103e-21)
(1.0143 0.0805748 1.39013e-20)
(0.720782 0.120779 0)
(1.01447 0.0130166 -6.03022e-21)
(0.986797 -0.00508018 0)
(0.97368 -0.017504 -5.76956e-21)
(1.02484 0.123189 3.8781e-22)
(1.00518 0.0547707 -9.96677e-23)
(1.01131 0.0317704 0)
(0.936173 -0.0256857 0)
(1.02139 0.0536428 0)
(0.912285 -0.0506086 -3.20603e-20)
(-0.0437384 -0.0176753 -4.02856e-20)
(-0.0332188 0.0869086 0)
(1.00954 0.0407089 0)
(1.01597 0.0295548 -8.91988e-21)
(0.992442 0.000925395 -9.76979e-21)
(0.980551 0.0657289 0)
(-0.655655 -0.108026 2.27549e-19)
(0.997264 -0.0012739 7.60517e-21)
(1.11678 0.0216506 -4.01534e-20)
(1.00949 0.167741 -1.28121e-21)
(0.966253 0.154161 1.84385e-20)
(-0.0582856 0.0673009 -3.13568e-20)
(1.00042 0.00458637 -1.85291e-20)
(1.07419 0.147454 -1.92961e-20)
(0.992022 0.00112024 0)
(1.09424 0.217709 -2.56387e-20)
(1.06896 0.1348 0)
(0.953812 -0.0104555 5.18037e-20)
(1.02772 0.115905 1.41722e-21)
(1.00082 0.00391313 -1.90976e-20)
(1.0162 0.0128627 4.57093e-21)
(1.0002 0.000102071 -7.81041e-21)
(0.931422 0.190766 -2.18891e-20)
(0.481734 0.0761092 7.4813e-23)
(1.03613 0.108411 5.2951e-22)
(0.994802 0.0110076 -1.68315e-20)
(1.02334 0.12893 -1.08937e-21)
(0.987081 0.132523 -1.347e-20)
(1.01038 0.0184447 7.55536e-21)
(1.00571 0.0564857 -1.1567e-21)
(0.997527 -0.00082489 0)
(0.426611 0.0613819 -3.81872e-21)
(-0.481004 -0.023578 1.29246e-20)
(1.01584 0.043807 -9.06814e-21)
(1.0412 0.0528198 -2.0656e-21)
(0.981377 -0.0244824 -3.70556e-21)
(1.07656 0.14798 1.44675e-20)
(1.03902 0.128835 -3.4559e-22)
(1 3.03027e-05 -4.82657e-21)
(0.753878 0.122674 0)
(0.999741 -0.000414844 0)
(1.08601 0.142468 2.49761e-20)
(1.00061 0.000120817 1.04304e-20)
(1.00848 0.0127105 8.09556e-21)
(1.12601 0.139438 3.05221e-20)
(0.428623 -0.0339188 1.35866e-19)
(1.00122 0.144443 -1.37078e-20)
(0.992856 -0.00843491 -1.15272e-20)
(0.982698 0.00907394 8.19569e-21)
(0.663041 0.109484 1.90061e-20)
(1.00881 0.0695376 -6.56202e-21)
(1.01104 0.0319548 -1.38192e-20)
(1.0292 0.0428542 -6.93903e-21)
(0.640972 0.172825 -1.58541e-21)
(0.886833 0.012128 -2.5146e-20)
(1.07972 0.16858 2.53791e-21)
(0.999165 0.0161893 -9.3834e-21)
(0.27887 0.0268199 3.47995e-21)
(0.99144 -0.000106779 0)
(1.03974 0.126968 -2.55151e-22)
(1.07124 0.105446 -3.81209e-21)
(1.00166 0.000862411 0)
(1.02488 0.1238 -4.03754e-22)
(0.991756 0.000248057 0)
(1.06775 0.0582141 -1.37055e-20)
(1.15603 -0.0615862 -4.15708e-21)
(-0.0288647 0.130806 0)
(1.01051 0.0181162 7.27967e-21)
(0.999814 0.000244599 -1.35245e-20)
(1.00752 0.171973 -6.2229e-22)
(1.00177 0.01195 -7.13021e-21)
(0.00656505 0.35804 -1.86082e-19)
(0.98313 0.0322368 -3.46652e-21)
(1.04845 0.0533907 1.53716e-21)
(-0.0368996 -0.213431 -2.06796e-20)
(0.898548 0.120632 0)
(0.969427 0.0725145 -6.85753e-21)
(0.98438 0.0329175 0)
(1.00803 0.00865911 4.92757e-21)
(-0.288891 -0.446157 4.58452e-20)
(1.0693 0.104913 0)
(1.0234 0.0210067 0)
(0.908235 0.0922951 0)
(0.997388 -0.00146419 0)
(0.289783 0.044207 1.57252e-22)
(0.99981 0.00023886 1.36987e-21)
(0.961038 0.137929 0)
(1.0261 0.0321104 0)
(1.00697 0.0381688 -6.00866e-23)
(1.03528 0.108853 -6.07066e-22)
(0.822471 0.0955442 -7.20012e-20)
(0.906372 0.0833899 7.50082e-20)
(0.999872 0.000601733 -5.66378e-21)
(0.999153 0.0156807 0)
(0.628422 0.0778394 2.91636e-21)
(0.999926 0.000561706 5.70267e-21)
(0.97985 -0.0120133 3.0971e-20)
(0.992547 0.0221297 -4.454e-21)
(0.999781 -0.000349586 6.12475e-21)
(0.502063 0.298965 -7.95875e-20)
(0.728918 0.115636 3.92374e-21)
(1.04077 0.0990641 0)
(1.02156 0.128004 -4.43089e-21)
(0.988117 0.149178 0)
(-0.736767 -0.224486 0)
(0.975692 0.055187 1.05993e-20)
(1.00589 0.046358 3.92219e-21)
(0.987737 -0.00667597 0)
(0.981888 0.0076881 1.9004e-20)
(0.996522 -0.0138494 -1.19584e-20)
(1.00228 0.000654648 2.33896e-21)
(0.890675 0.140045 4.55731e-21)
(0.470258 0.0481305 -2.37502e-21)
(1.00296 0.128564 0)
(0.512434 0.0805202 -2.31662e-21)
(1.01931 0.120075 0)
(1.06578 0.066338 1.30244e-20)
(1.06571 0.134779 -7.53751e-21)
(1.04161 0.142298 0)
(1.00001 3.60871e-05 0)
(1.04197 0.141096 0)
(1.00828 0.0402963 0)
(0.994217 0.128504 -2.24614e-20)
(1.0783 0.0902013 0)
(-0.727397 -0.188209 0)
(1.03228 0.0710096 0)
(0.969138 0.0174562 3.45042e-20)
(0.472618 0.0492383 -5.05534e-21)
(1.03496 0.0405446 0)
(1.00997 0.079581 0)
(1.04005 0.0528401 -1.55506e-22)
(0.813326 0.131041 -3.7581e-21)
(1.00754 0.141422 2.16478e-22)
(0.992142 0.0215034 -1.14143e-20)
(1.00005 0.229392 -8.04609e-23)
(1.07153 0.0451639 1.58337e-21)
(1.02746 0.140968 1.50486e-22)
(1.02923 0.0643941 -1.02123e-20)
(0.999357 0.020941 -5.34455e-21)
(1.03369 0.0621738 6.83171e-21)
(1.07503 0.0535872 -7.77923e-21)
(1.00628 0.0366368 3.10361e-21)
(1.0851 0.037762 -2.06761e-20)
(0.798135 0.0649519 -6.09633e-20)
(1.00351 0.016205 2.2502e-21)
(1.00608 0.0458435 0)
(1.02725 0.0366208 7.75169e-21)
(1.00114 0.00129266 1.05613e-20)
(0.0855143 -0.00513775 4.00048e-21)
(0.721838 0.118999 -1.4547e-20)
(0.982829 0.0243233 -1.66412e-20)
(0.676178 0.111233 -2.32247e-20)
(0.973484 0.156022 1.8468e-20)
(0.741741 0.117305 3.81005e-22)
(1.10546 0.064966 -2.541e-20)
(0.992824 -0.0104891 -9.66343e-22)
(-0.634689 -0.293304 0)
(0.953048 0.0760978 -1.90558e-20)
(0.889799 0.0216645 2.65644e-20)
(-0.597364 -0.0783139 2.19648e-19)
(0.996568 -0.0137119 8.04025e-21)
(1.03093 0.0707652 -1.75284e-22)
(1.0069 0.136297 2.39219e-20)
(0.625964 0.0593329 3.54771e-22)
(0.981017 0.0064901 -1.94566e-20)
(0.99107 0.0923269 0)
(0.125016 -0.103479 1.99931e-19)
(0.963535 0.0122889 3.08834e-20)
(0.997511 0.00555314 2.26913e-20)
(1.04608 0.149243 3.66997e-22)
(0.9926 0.143729 -6.69178e-22)
(0.829852 -0.0648005 -1.02867e-20)
(0.985492 0.148822 -9.59977e-22)
(0.375838 0.0514203 0)
(0.87434 0.0186571 0)
(1.06545 0.0563383 -3.11801e-21)
(0.299964 0.0787675 -4.83703e-20)
(1.07324 0.120249 0)
(-0.599496 -0.075079 -2.38029e-19)
(1.05345 0.102977 3.65599e-22)
(-0.130173 -0.0259977 0)
(1.06223 0.0761678 4.85376e-21)
(0.991459 0.00187063 1.05589e-20)
(-0.0347942 0.0865746 0)
(1.00007 1.642e-05 0)
(1.00002 0.000615303 -1.04775e-20)
(0.999579 0.00689151 0)
(-0.310313 -0.461244 -8.24281e-20)
(0.766322 0.187811 9.39472e-20)
(0.99368 -0.00690718 1.4501e-20)
(1.03082 0.138929 -3.58937e-20)
(0.999857 -0.00102864 7.44692e-21)
(1.06726 0.0688378 5.55743e-21)
(1.0205 0.0985691 -4.00353e-21)
(-0.0313601 0.0766989 -3.10312e-20)
(1.07387 0.0652049 0)
(0.971066 0.149669 -8.12615e-21)
(0.974576 -0.00377605 -2.67136e-20)
(1.0121 0.0249833 4.71883e-21)
(0.987012 0.00356363 -6.57799e-21)
(-0.638723 0.0048096 -1.62397e-19)
(1.08987 0.114852 0)
(0.948499 0.1269 0)
(0.999988 -1.3038e-05 -2.19584e-21)
(1.03008 0.137315 0)
(1.00005 7.74471e-06 -8.25156e-21)
(1.00007 7.20564e-06 -8.56255e-21)
(0.992131 0.09325 0)
(1.00239 0.0128951 0)
(0.976303 0.0536056 0)
(0.910827 -0.010025 -1.04612e-20)
(0.884283 0.0534271 -9.13855e-23)
(0.999909 -0.00168533 1.59178e-20)
(1.15562 -0.0504124 6.08602e-20)
(1.00213 0.0017838 -1.71366e-22)
(0.845212 0.0197489 0)
(-0.645704 -0.112142 0)
(1.06669 0.0644354 -1.44074e-20)
(-0.498586 -0.0291163 0)
(1.01226 0.0245732 0)
(1.02024 0.13231 -1.11032e-21)
(-0.423437 -0.679374 9.73368e-20)
(1.01755 0.0204805 1.21671e-20)
(-0.122702 -0.0295851 -2.1128e-20)
(0.95695 0.148866 -9.65884e-21)
(-0.0996374 -0.0247033 4.75425e-20)
(1.10275 0.139745 0)
(0.71911 0.120333 2.12111e-20)
(1.00122 0.00124021 5.06909e-21)
(1.01116 0.0704682 -1.44047e-21)
(1.03338 0.0408305 -4.6225e-21)
(1.02465 0.130412 -3.67129e-22)
(0.967527 0.111206 0)
(1.02256 0.13526 0)
(1.03128 0.0423502 7.36679e-21)
(0.999165 -0.00248747 -2.19084e-20)
(0.333328 0.0435754 1.06558e-20)
(-0.13363 -0.132706 6.57084e-20)
(1.02411 0.136774 -3.13328e-21)
(1.00153 0.000436168 -1.96746e-20)
(0.774985 0.180633 -2.2103e-21)
(1.00332 0.0155787 0)
(1.04456 0.0946839 0)
(-0.649595 -0.00841824 0)
(0.855268 0.000121348 0)
(-0.28625 -0.276062 2.8188e-20)
(0.968379 0.038202 1.90289e-20)
(1.00898 0.0787002 1.18654e-22)
(-0.123715 0.0215353 -2.73676e-20)
(0.0808689 -0.0388669 2.91175e-19)
(1.0123 0.0698017 0)
(0.997472 0.00466156 3.50644e-21)
(1.05231 0.10181 -6.80796e-23)
(1.00696 0.135802 4.62481e-20)
(1.01838 0.0981544 9.12674e-21)
(1.01133 0.0178768 6.88898e-21)
(1.07572 0.0557686 1.30895e-20)
(1.13269 0.0590071 1.50459e-20)
(0.884864 0.174335 0)
(1.03863 0.0540937 -2.10029e-21)
(1.08525 0.119055 6.61745e-23)
(0.999654 -0.000528606 1.11677e-24)
(0.99997 -7.02116e-05 1.36506e-20)
(0.218779 0.37662 0)
(0.925179 0.152559 -9.17121e-22)
(0.358535 0.0435086 -8.33363e-21)
(0.332025 0.0770572 0)
(1.03094 0.124484 4.83447e-22)
(1.01949 0.130321 -2.84792e-21)
(0.716641 0.118915 0)
(0.981222 0.0221653 -1.89512e-20)
(0.984953 0.0858487 -1.6435e-20)
(0.958978 0.132102 0)
(1.0517 0.161546 5.02328e-21)
(1.02439 0.0541795 9.62752e-21)
(1.06608 0.0569486 7.14669e-21)
(0.64233 0.0788728 3.3805e-21)
(0.889104 0.060624 -5.15632e-20)
(0.972272 0.132972 3.13183e-20)
(0.997346 0.00500065 -2.13305e-20)
(0.999702 -0.000498814 0)
(0.983131 0.0239127 0)
(0.830118 0.00966093 -4.02936e-20)
(0.980793 -0.0259887 0)
(0.121368 0.36273 1.3822e-19)
(1.01987 0.112799 2.35299e-21)
(1.01448 0.0633784 -4.53427e-21)
(0.893571 0.136487 -4.30923e-21)
(1.06787 0.076656 1.96425e-21)
(0.250803 0.100741 -7.42712e-20)
(-0.0285093 0.119247 -5.35587e-20)
(0.795425 0.193814 3.86643e-20)
(1.04547 0.149187 -6.26281e-22)
(1.02251 0.135267 -6.03431e-22)
(0.957518 -0.0120439 1.55978e-20)
(1.00157 0.00147329 7.98663e-21)
(1.02403 0.130561 0)
(-0.0457957 0.0497965 0)
(0.942265 0.115632 4.95892e-21)
(1.04226 0.0953866 1.23584e-21)
(0.439071 0.229332 -1.02502e-19)
(1.0384 0.0537093 4.35399e-21)
(1.01492 0.0709699 5.38166e-21)
(0.971394 0.0126466 0)
(-0.0358126 0.0874218 6.1821e-20)
(0.986831 0.0259835 1.32337e-20)
(1.01905 0.135268 0)
(1.05927 0.121483 -1.2733e-20)
(0.991169 0.000894332 -2.6899e-20)
(1.18637 -0.0361314 0)
(0.821945 -0.0668537 -2.77723e-20)
(-0.0578714 -0.0350558 -7.75935e-21)
(1.03071 0.0427159 0)
(1.00838 0.0313256 0)
(0.99958 0.00712283 0)
(1.05915 0.146157 -1.4515e-20)
(1.00322 0.000363352 -2.0386e-21)
(1.06317 0.0707855 3.9755e-21)
(0.993559 -0.000128139 0)
(-0.672572 -0.288965 -8.26386e-20)
(0.960993 0.0119805 9.44494e-21)
(1.18229 0.070412 0)
(1.08835 0.0394558 1.92008e-20)
(1.03327 0.0704048 -6.5019e-22)
(1.00093 0.00226091 1.55614e-20)
(0.990639 0.0596752 0)
(1.00737 0.141059 -4.76158e-21)
(0.995801 0.0249729 -1.35178e-20)
(0.937144 -0.00632381 -3.41517e-20)
(0.639694 0.446052 -3.09834e-20)
(-0.269991 -0.251704 7.56022e-21)
(0.88152 0.0341506 0)
(1.01919 0.13598 -6.13974e-21)
(0.998852 -0.00152751 2.3176e-20)
(1.00058 0.00976681 0)
(1.01269 0.0798092 3.47183e-21)
(0.999133 -0.00266781 7.0131e-21)
(1.01163 0.0796629 0)
(0.996213 0.128032 1.68093e-20)
(0.868868 0.0736216 0)
(1.04822 0.0745852 2.85792e-22)
(0.999927 -0.000258681 3.39198e-21)
(0.905971 0.0843179 -4.70171e-20)
(0.835667 -0.0580652 3.63466e-20)
(0.999708 -0.0017232 1.02753e-21)
(0.0486871 0.0198095 0)
(1.07446 0.12561 0)
(0.999947 -3.24103e-06 0)
(1.00104 0.00175808 0)
(1.01947 0.137076 4.69572e-21)
(0.808365 0.0946949 0)
(1.01084 0.017015 0)
(0.979862 0.12588 3.65003e-20)
(1.08241 0.158636 0)
(0.998629 0.0145626 1.34816e-20)
(0.999846 0.000301846 1.09672e-20)
(-0.22482 -0.00219849 0)
(0.493053 0.361344 7.78635e-20)
(1.06934 0.127954 3.21999e-22)
(1.1089 0.0662314 1.45868e-20)
(1.09951 0.137359 0)
(0.974826 -0.000714458 9.42493e-21)
(1.00434 0.156573 -1.44583e-20)
(0.282882 0.0641362 1.62209e-21)
(0.412943 0.0682698 -2.79122e-21)
(1.03189 0.0801649 6.63861e-22)
(1.03636 0.0692764 4.06179e-21)
(1.02211 0.131671 1.18183e-21)
(1.03008 0.1249 -8.03481e-22)
(0.99999 -0.00106448 9.1982e-21)
(1.08801 0.064728 0)
(1.10965 0.0694526 -1.47957e-20)
(1.02045 0.132026 1.04111e-21)
(1.00793 0.0141373 0)
(0.995335 -0.00970545 7.7607e-21)
(1.0138 0.0629467 1.53696e-21)
(0.994312 0.0111724 -6.50051e-21)
(0.999964 -0.000242024 2.77951e-21)
(0.683047 0.115614 0)
(1.03932 0.138862 -2.87002e-21)
(1.00333 0.000453342 0)
(1.01121 0.0182254 -2.12948e-20)
(-0.0666336 -0.0282683 3.4258e-20)
(1.01368 0.0714203 -1.38386e-20)
(-0.216945 -0.0362335 0)
(0.992366 -0.00810475 -2.03972e-20)
(0.994094 -0.0149525 -1.66895e-20)
(1.08188 0.15877 8.92438e-21)
(1.03587 0.0614977 0)
(0.991446 0.116208 0)
(0.972624 -0.0197604 0)
(1.00767 0.00808343 -9.57353e-21)
(1.00072 0.00019415 0)
(1.00007 1.40476e-05 -6.14345e-21)
(0.0177568 -0.0530225 -2.04204e-19)
(0.999848 0.000286649 0)
(0.998905 -0.0014067 0)
(1.00829 0.0149888 0)
(0.985958 0.00103607 -1.34172e-20)
(-0.487091 0.0272901 2.18812e-19)
(1.00575 0.0352109 -3.03159e-21)
(1.04837 0.0743063 8.92824e-23)
(1.02449 0.0299882 -6.21105e-21)
(1.07083 0.124372 2.10299e-20)
(0.742914 0.171019 1.36907e-20)
(0.971528 -0.0198117 0)
(1.01999 0.129166 -7.7293e-22)
(1.18414 -0.0205551 0)
(0.999408 0.00616584 -4.18182e-21)
(0.999307 -0.00205681 -5.25079e-21)
(1.03795 0.0687249 0)
(0.996123 0.0253312 1.34292e-20)
(1.00069 0.000125084 0)
(1.0169 0.00194313 0)
(0.999978 -0.000619054 0)
(1.02051 0.130992 -1.41019e-21)
(0.99219 0.114935 0)
(1.03474 0.0699265 0)
(1.04184 0.122822 -1.14272e-21)
(1.05617 0.121864 0)
(0.999237 -0.00237286 0)
(0.987209 -0.00614161 1.10523e-20)
(-0.587242 -0.0968713 -7.24608e-20)
(1.19036 -0.0300227 0)
(0.650946 0.0572991 0)
(0.941313 0.121913 -4.61202e-20)
(1.02251 0.134287 0)
(0.967791 0.0148912 -1.41616e-20)
(0.99872 -0.00161951 -7.27593e-21)
(-0.286427 -0.267014 -2.88955e-20)
(-0.277048 -0.252848 -3.41038e-20)
(0.999094 0.0952252 -9.68318e-21)
(0.997897 0.00291674 0)
(0.60552 -0.00443465 -1.55587e-19)
(0.122884 -0.00392134 -3.51647e-21)
(0.997273 0.00437319 -8.47022e-21)
(0.880001 0.0715376 6.54489e-22)
(-0.146585 -0.151007 -8.26892e-20)
(0.680805 0.113584 -9.03456e-21)
(1.05984 0.0600255 0)
(0.877137 0.082988 0)
(1.05036 0.04608 -1.36163e-22)
(0.353366 0.0569206 6.18602e-21)
(1.00004 3.44943e-05 7.89961e-21)
(1 3.41433e-06 0)
(1.03958 0.138527 -1.43384e-21)
(-0.661754 -0.111137 1.58321e-19)
(-0.0354497 0.121906 0)
(1.08586 0.110489 0)
(0.720843 0.0818271 4.73636e-20)
(1.03227 0.0426756 -1.01291e-20)