/*--------------------------------*- C++ -*----------------------------------*\
| =========                 |                                                 |
| \\      /  F ield         | OpenFOAM: The Open Source CFD Toolbox           |
|  \\    /   O peration     | Version:  v2012                                 |
|   \\  /    A nd           | Website:  www.openfoam.com                      |
|    \\/     M anipulation  |                                                 |
\*---------------------------------------------------------------------------*/
FoamFile
{
    version     2.0;
    format      ascii;
    class       volScalarField;
    location    "200";
    object      nut;
}
// * * * * * * * * * * * * * * * * * * * * * * * * * * * * * * * * * * * * * //

dimensions      [0 2 -1 0 0 0 0];


internalField   nonuniform List<scalar> 
18166
(
0.00110861
0.000447771
0.00356353
0.000524121
0.00785109
0.000484039
0.000444806
0.000445149
0.00045659
0.000930039
0.000447942
0.000504748
0.000456405
0.000463446
0.000454811
0.000447824
0.00529254
0.000438879
0.000453057
0.00136425
0.000451655
0.000483359
0.000453117
0.000450176
0.000190985
0.0422447
0.000445172
0.0239926
0.000449487
0.000446222
0.000425929
0.000502215
0.000453352
0.000153272
0.00482763
0.000450213
0.000438892
0.000431181
0.000447799
0.000502659
0.000456333
0.000453839
0.000438377
0.000452968
0.0110532
0.000439094
0.000449828
0.0146275
0.000426121
0.000747488
0.0185637
0.00542205
0.000426097
0.000446735
0.00043922
0.000449265
0.0129152
0.000449875
0.00479355
0.000449438
0.000438076
0.000441607
0.000438549
0.000450463
0.000448775
0.000441953
0.00044386
0.000447725
0.00722659
0.000436136
0.000456107
0.000521402
0.000435127
0.0004559
0.000436115
0.000451256
0.0132406
0.0106543
0.0221731
0.000447726
0.000451541
0.000443483
0.00992161
0.00043553
0.000440221
0.000438211
0.000435407
0.000450479
0.000446372
0.012282
0.000435372
0.000437188
0.000453891
0.000446442
0.000455707
0.000450634
0.0113671
0.000449471
0.00887476
0.0155752
0.00044407
0.000438457
0.000446123
0.0220346
0.000435819
0.00885196
0.00043706
0.000445032
0.00042642
0.000449145
0.00579433
0.0171017
0.00502423
0.00650861
0.000450516
0.0231403
0.0112785
0.000452535
0.000450125
0.000431378
0.000448123
0.00043129
0.000452067
0.000440838
0.000447257
0.00045226
0.0004521
0.000440051
0.000437591
0.000450239
0.000444806
0.000450606
0.00045417
0.000443778
0.000453136
0.0213892
0.000444081
0.0238574
0.000438011
0.0485846
0.00044682
0.000448083
0.000452617
0.000349389
0.000426094
0.0104359
6.17123e-05
0.000438966
0.000438063
0.0154345
0.000442003
0.000451742
0.0426664
0.00857973
0.000534302
0.000438337
0.000442096
0.00044786
0.000544597
0.000450596
0.000444917
0.000439361
0.00877853
0.000441048
0.000450736
0.000442561
0.000467775
0.000445024
0.00887632
0.000442032
0.00044282
0.0174703
0.000444321
0.000301575
0.00044052
1.5249e-05
0.000438101
0.00397807
0.000449116
0.000450811
0.00044096
0.000437143
0.00292911
0.0149168
0.000450677
0.000438879
0.000444866
0.000450996
0.000449637
0.000444728
0.000447564
0.000450771
0.0173943
0.000451016
0.000439128
0.00402745
0.00164783
0.000455829
0.000447006
0.000443927
0.000442379
0.00996642
0.00901295
0.00045068
0.000449502
0.000533191
0.000447991
0.000525589
0.000507208
0.000435871
0.000444359
0.000540344
0.000552172
0.000435903
0.000454025
0.000446995
0.030423
0.000446574
0.000447573
0.000445472
0.000443574
0.0362555
0.000463923
0.000444012
0.000450641
0.00288293
0.000441584
0.000444627
0.000401137
0.000443341
0.000450254
0.000431661
0.0287808
0.000431693
0.00816574
0.0325857
0.0307304
0.000441428
0.00044188
0.000498383
0.000442132
0.000463293
0.000450762
0.00293103
0.000443498
0.000431133
0.00067924
0.000431206
0.000448149
0.00048763
0.0381987
0.00044533
0.000445018
0.000491382
0.000448089
0.000449215
0.000446876
0.000449909
0.000444929
0.000450533
0.000462432
0.0004624
0.000451067
0.00043647
0.000449598
0.000449201
0.000630779
0.000445063
0.000436775
0.00310016
0.000444047
0.000449561
0.000467295
0.00101376
0.000442509
0.000443514
0.0227531
0.000440156
0.000447623
0.00436704
0.000444793
0.000435581
0.000466056
0.000449547
0.000450266
0.000440254
0.000553868
0.000488757
0.00044355
0.000447716
0.000426358
0.000132417
0.00045031
0.000450041
0.000431376
0.000470807
0.000431603
0.00992662
0.000431506
0.000450248
0.000457469
0.000456001
0.00967037
0.000447683
0.000446423
0.000442151
0.000476051
0.000444667
0.000438504
0.000447498
0.000447564
0.000447252
0.000449664
0.000444693
0.000444785
0.000442303
0.000436249
0.000501401
0.000543514
0.000444077
0.00483383
0.000450606
0.00878362
0.000450646
0.00043893
0.000436319
0.00044767
0.000661151
0.000446994
0.000506861
0.000437364
0.000439195
0.000443214
0.00044684
0.00046535
0.000447954
0.000504701
0.00046437
0.000442409
0.000445207
0.000454581
0.000449655
0.000499939
0.000447127
0.000452007
0.000449248
0.0174248
0.000449138
0.000440854
0.000435937
0.000466305
0.000440568
0.000498614
0.000449667
0.000205933
0.000453424
0.000445006
0.00044225
0.00124971
0.000476201
0.000440951
0.000445304
0.000431425
0.000452107
0.000430181
0.000431446
0.000438996
0.000448235
0.000443763
0.000451236
0.000441157
0.000442787
0.000444692
0.00722909
0.000445319
0.000448905
0.000438875
0.000441152
0.00044288
0.00044944
0.000431004
0.000448702
0.000497465
0.0190237
0.000431002
0.000449433
0.000459706
0.000498211
0.000451663
0.0157095
0.000430847
0.013851
0.000455168
0.000450749
0.00121013
0.000512236
0.000447159
0.000430838
0.000447851
0.000532495
0.000430691
0.000430638
0.000446998
0.000433398
0.000450855
0.000444219
0.000446124
0.000449007
0.0176866
0.000433408
0.000438483
0.00337947
0.000446716
0.000436024
0.0004261
0.0087983
0.000450695
0.000449487
0.000439905
0.00044976
0.000443495
0.000426123
0.00110296
0.000521323
0.000442138
0.000447367
0.000449121
0.000426009
0.000426106
0.000446531
0.000450691
0.000430721
0.000446403
0.00044556
0.000445876
0.000445487
0.000443777
0.00059523
0.0109807
0.000415574
0.00761214
0.00874076
0.000517733
0.000497326
0.00044615
0.000443018
0.0029636
0.000448046
0.000459622
0.00037969
0.00044611
0.000445027
0.000448758
0.000430524
0.000429058
0.0004507
0.000440826
0.000445147
0.000445628
0.000442812
0.000431588
0.000433825
0.000439988
0.000453028
0.000454668
0.000441008
0.000449951
0.000447387
0.000447945
0.000446854
0.000437174
0.000447596
0.000450969
0.000438122
0.000626199
0.000448644
0.000442204
0.000438189
0.000440885
0.0188377
0.000452466
0.000436174
0.0124764
0.000444525
0.000451535
0.000442313
0.000553948
0.000432245
0.000448055
0.000449172
0.000443508
0.000442738
0.000446314
0.000483015
0.0433588
0.000452383
0.000444481
0.000454407
0.000449681
0.000448804
0.000452672
0.000450058
0.000451431
0.0151911
0.000441923
0.000450311
0.000442862
0.000443516
0.000442306
0.00256662
0.000446913
0.000453511
0.000444147
0.000470725
0.00047084
0.000534222
0.000291296
0.000449255
0.0118452
0.000449819
0.000447337
0.00826865
0.000452839
0.000481227
0.0083844
0.000440418
0.00045
0.000447529
0.000430933
0.000444946
0.000533118
0.000446261
0.0108626
0.00481734
0.000441133
0.0122446
0.000431765
0.000443598
0.000446667
0.000447471
0.000442476
0.000492291
0.000443232
0.000586833
0.000450214
0.000454331
0.000443018
0.00043085
0.000278685
0.000440855
0.000454649
0.000441239
0.000443096
0.000464281
0.000426143
0.000430829
0.000497764
0.000508251
0.000443747
0.0464896
0.000447614
0.000457739
0.000464524
0.000437689
0.00044436
0.00864557
0.00044748
0.000439888
0.000430682
0.000450104
0.000442447
0.000430647
0.0317616
0.00044478
0.017848
0.00328636
0.000453941
0.000446285
0.000451534
0.000443928
0.000443661
0.000826859
0.000451022
0.00044121
0.013364
0.00043697
0.000446732
0.000441198
0.000476476
0.000449401
0.0246386
0.000439605
0.000454871
0.000457048
0.000450493
0.000470325
0.000467359
0.0415462
0.000574033
0.0136541
0.000439455
0.000454148
0.00045067
0.000446867
0.000458709
0.000432233
0.000417901
0.0435501
0.000512944
0.000442816
0.000438605
0.000440299
0.000446929
0.000447432
0.000439353
0.000443813
0.000464503
0.000442788
0.000442092
0.000738823
0.000476106
0.000437698
1.6749e-05
0.00827353
0.000444281
0.000426789
0.000446707
0.000444586
0.0156904
0.000439736
0.000447826
0.00044699
0.00044379
0.0144592
0.000479084
0.000455636
0.000437517
0.00044189
0.000449942
0.000426057
0.000446226
0.000426233
0.000543921
0.000449872
0.000449321
0.000441085
0.0186706
0.000443166
0.000442576
0.000426173
0.000466805
0.000442785
0.000436964
0.00151515
0.000441838
0.0070433
0.000451686
0.000449714
0.000439258
0.000439497
0.000440798
0.000451912
0.000451273
0.000447836
0.000429828
0.000452165
0.000447864
0.00240458
0.000446681
0.000541623
0.000450539
0.000447135
0.000447639
0.000391633
0.00119301
1.62087e-07
0.000447071
0.000444761
0.000452574
0.000437089
0.000436227
0.000438443
0.000439328
0.00038299
0.000483123
0.00025897
0.00140832
0.0231704
0.000471986
0.000444318
0.00045375
0.000443824
0.000438274
0.000467647
1.67413e-05
0.00398292
0.000462345
0.000456294
0.000449629
0.000446319
0.000467528
0.000433228
0.000444318
0.0198728
0.000437434
0.000444084
0.000445724
0.00044629
0.000442339
0.000450962
0.0199379
0.0216697
0.000469127
0.000451493
0.0154842
0.000458233
0.000452015
0.000447616
0.000451577
0.000457267
0.00185182
0.000448821
0.000169859
0.000451117
0.00044089
0.000438764
0.000520973
0.000459908
0.000465965
0.0187609
0.000454824
0.000440032
0.000459961
0.000504644
0.000437498
0.00044487
0.000450674
0.000383095
0.000450702
0.000483952
0.020879
7.05387e-05
0.000434353
0.000443666
0.000438225
0.000445948
0.000458176
0.000444251
0.000450375
0.000449189
0.00044625
0.000452614
0.000440769
0.000449819
0.00395895
0.000450481
0.0196811
0.000436123
0.000450054
0.000469448
0.000441193
0.00044951
0.000461563
0.000502881
0.000452701
0.00044188
0.000446034
0.000450301
0.00859421
0.000447101
0.000446174
0.000442115
0.000442339
0.000426169
0.000445483
0.000508697
5.78499e-06
0.000350182
0.000475827
0.00052699
0.00775703
0.000448837
0.00059265
0.000490029
0.000161183
0.000451376
0.000447618
0.000442081
0.000451665
0.0225919
0.000444771
0.000438212
0.000448779
0.000448076
0.00550892
0.000445132
0.000447043
0.000448745
0.000440935
0.000447441
0.000449035
0.00045016
0.000437499
0.000448399
0.000441809
0.000445785
0.00044402
0.000432766
0.000445631
0.00721193
0.000448381
7.38976e-05
0.000436142
0.000440828
0.0239771
0.000426342
0.0486814
0.000579824
0.000459939
0.000441528
0.0004514
0.000445053
0.000447672
0.000449206
0.000437527
0.00638981
0.000446777
0.000457558
0.000446323
0.000454882
0.000444508
0.000440949
0.000450718
0.000440584
0.00043755
0.000438605
0.00045028
0.000446294
0.000436106
0.000468351
0.0347944
0.000450181
0.0252895
0.0031306
0.000443875
0.000438983
0.000474468
0.000451496
0.000439886
0.000446249
0.000448581
0.0004459
0.000404205
0.000450373
0.000525949
0.000442666
0.000263816
0.0291527
0.000445949
0.000451668
0.000431789
0.000443851
0.0228081
0.00045012
0.0308921
0.000438587
0.00044609
0.000502777
0.00691644
0.00133047
0.000441192
0.000464127
0.000446362
0.000209588
0.000448336
0.000434732
0.000508667
0.0172261
0.000435791
0.000450609
0.000447164
0.0090817
0.000444933
0.0137535
0.000440593
0.0193768
0.000632631
0.000450667
0.000450794
0.0203246
0.000464206
0.000507347
0.000447425
0.000471182
0.000455052
0.000450169
0.000438726
0.000147
0.00145455
0.000446341
0.000444183
0.000446634
0.000452544
0.000431838
0.00044605
0.00895369
0.000442326
0.00370396
0.00995847
0.00045313
0.000513088
0.000449828
0.000439773
0.0163211
0.011271
0.0088949
0.000471405
0.00190655
0.00044314
0.000470967
0.000168186
0.00492487
0.000494745
0.000451702
0.000438826
0.00129967
0.000444604
0.00044528
0.000444019
0.000436411
0.000449855
0.000449464
0.000470839
0.000438153
0.0191216
0.00044623
0.0367991
0.00165003
0.000361003
0.000752902
0.0251004
0.000456197
0.0127075
0.000448445
0.000454189
0.000438594
0.000450499
0.000447824
0.000505235
0.000439414
0.000970462
0.00045364
0.0281448
0.00047961
0.000433207
0.000495712
0.000438839
0.000450238
0.0022248
0.000449847
0.00044312
0.00800322
0.0326032
0.00038793
0.0367012
0.000433917
0.0174312
0.000436912
0.000436474
0.000455429
0.000451534
0.00302713
0.000448234
0.000444815
0.000461252
0.000450178
0.000440981
0.000438295
0.000451216
0.000447186
0.0166734
0.000451145
0.00044873
0.0248627
0.00044463
0.0419257
0.0112457
0.000453791
0.000443565
0.00045361
0.0148994
4.81212e-05
0.0188767
0.000451222
0.000438628
0.000450951
0.00952666
0.000443809
0.000442647
0.000456144
0.000456011
0.000450155
0.0167731
0.000189674
0.00042625
0.000438781
0.000438152
0.000438305
0.000441356
0.000450286
0.000430265
0.02354
0.000424579
0.000440468
0.0081889
0.000441607
0.000467379
0.000432104
0.000452728
0.000439661
0.000445367
0.00050718
0.000449623
0.000444027
0.000446318
0.000632931
0.000438714
0.000442944
0.000440806
0.000430956
0.00046316
0.00625466
5.64223e-05
0.000437608
0.000450024
0.000453451
0.000451343
0.000450879
0.00138331
0.00124358
0.00385185
0.000455562
0.000454743
0.000445108
0.000445096
0.00754046
0.0004404
0.0202314
0.00044062
0.00816611
0.000433964
0.0260024
0.000438021
0.000436492
0.000440065
0.000426111
0.000433758
0.000470845
0.000446465
0.027947
0.000534444
0.0058879
0.000437058
0.00044615
0.000452004
0.00053625
0.000952614
0.000450212
0.000448659
0.000447634
0.000449592
0.000453479
0.000450184
0.000447808
0.000449947
0.000444187
0.000464491
0.0200548
0.0268025
0.000443971
0.0318603
0.000625468
0.0184881
0.000511274
0.000447033
0.000448464
0.021103
0.000450428
0.00043644
0.000447787
0.000446936
0.00678866
0.000450146
0.00964921
0.000452303
0.000442195
0.000446026
0.000443247
0.000459899
0.000440422
0.00358334
0.000438402
0.000441796
0.000438216
0.00045191
0.000445355
0.000469275
0.00044777
0.0158886
0.000447529
0.000448411
0.000449405
0.000100292
0.000447452
0.000444114
0.000456859
0.000450011
0.000429564
0.000450286
0.000450508
0.000431891
0.000431956
0.000449686
0.0503861
0.00139579
0.000440145
0.000446789
0.000437638
0.000449386
0.000455246
0.000449596
0.000443741
0.000475001
0.00747888
0.000454917
0.000444183
0.000462363
0.000449545
0.000522345
0.000453742
0.000444244
0.000447819
0.0214672
0.000450147
0.000441148
0.000438381
0.000534825
0.00044093
0.000437714
0.000451935
0.000448496
0.000451483
0.000447839
0.000475258
0.000442737
0.0197483
0.00711978
0.000442408
0.0173041
0.000459583
0.00780975
0.000474626
0.000441918
0.000445352
0.000435768
0.00428124
0.000445315
0.000441912
0.000441387
0.000450044
0.000451192
0.000377234
0.0126962
0.0229486
0.000431069
0.000446153
0.000488381
0.0060298
0.000441307
0.00044513
0.000361508
0.000430257
0.000445112
0.000430356
0.000497999
0.000478866
0.000438491
0.000449762
0.00044611
0.000449486
0.000442616
0.000447998
0.000449049
0.000447799
0.00964606
0.00907044
0.00045321
0.000430323
0.000442989
0.000217535
0.000181293
0.000430506
0.0004531
0.000488112
0.000455871
0.000447235
0.000448275
0.000429313
0.000462611
0.000437831
0.000452558
0.0247848
0.00459325
0.000433987
0.000450067
0.000451765
0.000443237
0.000437129
0.0160096
0.000441836
0.000447111
0.000436802
0.000455593
0.000446947
0.000448464
0.000442344
0.0216475
0.0148211
0.000454359
0.000450201
0.000438325
0.0121938
0.000451579
0.0243399
0.000441123
0.000436756
0.0186216
0.00044039
0.000445517
0.000734529
0.0208467
0.000478292
0.000444609
0.000447557
0.00042997
0.000447248
0.000474546
0.000446497
0.000453223
0.000438705
0.000438063
0.00604711
0.000490674
0.000430007
0.000438661
0.000447097
0.000450441
0.00383991
0.000451411
0.0428969
0.000453943
0.000438272
0.000448702
0.000429169
0.000536898
0.000450126
0.00614297
0.00044897
0.00100284
0.00751559
0.000437316
0.000436755
0.000430095
0.00044698
0.000440027
0.000439729
0.000454061
0.000468154
0.000437512
0.000243877
0.000430731
0.000440247
0.000437257
0.00139913
0.000446925
0.000446584
0.000449588
0.000444493
0.000430186
0.000441946
0.000451583
0.000442136
0.000445951
0.000432686
0.000453986
0.000436878
0.000435749
0.0214943
0.000429881
0.00957552
0.000433899
0.0133871
0.00354767
0.000433174
0.000455798
0.000434446
0.000451669
0.000446726
0.000471154
0.000492803
0.000429939
0.0004298
0.00044305
0.000437354
0.000437891
0.000446528
0.000450711
0.000406577
0.0151747
0.000445469
0.0004499
0.000438296
0.000450752
0.000441132
0.000441471
0.000448911
0.000448664
0.000443916
0.000430489
0.000570312
0.000435347
0.000448785
0.000443082
0.00044783
0.000450714
0.000486779
0.000429952
0.00045622
0.00661765
0.0082702
0.00044162
0.00824841
0.000426194
0.000440399
0.00956005
0.0118423
0.000449724
0.000451556
0.000444145
0.00460138
0.00979013
0.00044318
0.000451527
0.000446516
0.000463958
0.00759239
0.0144487
0.00044363
0.000437782
0.000437591
0.000483834
0.000429941
0.000441545
0.00044548
0.000465261
0.000448897
0.000430043
0.000450346
0.000447113
0.00044151
0.0210387
0.000463968
0.000450324
0.000117925
0.00246791
0.000438504
0.000463858
0.000464296
0.00045045
0.000429439
0.0121256
0.000473377
0.000429809
0.01018
0.000643601
0.000450867
0.000443179
0.000447814
0.000444737
0.000443171
0.0223131
0.000589762
0.000430003
0.000429682
0.000446829
0.000459367
0.0249221
0.000444616
0.000429899
0.000436054
0.00045059
0.000429722
0.000449696
0.000429812
0.0106679
0.000433265
0.0103421
0.00823474
0.000451742
0.000447805
0.000441913
0.000451122
0.000450603
0.000442313
0.000976572
0.00399268
0.0152154
0.000442019
0.00332898
0.000452826
0.00559118
0.00044949
0.00047239
0.000450923
0.000478063
0.000451113
0.000439892
0.000475491
0.0360815
0.00043812
0.000453843
0.000446503
0.000436009
0.00180135
0.000451234
0.000456428
0.0245731
0.000434358
0.000429825
0.000436148
0.000431155
0.00044609
0.000448369
0.000454822
0.000448662
0.0337623
0.000451053
0.00044632
0.000440961
0.000472161
0.000448583
0.000429585
0.000445408
0.000431243
0.000429575
0.000436748
0.000435815
0.000435311
0.0145071
0.00272133
0.00042988
0.000442053
0.000433886
0.000431179
0.000438585
0.000444982
0.00030011
0.000467013
0.00067406
0.000436105
0.000441158
0.000448439
0.000429824
0.000433285
0.000446373
0.000523076
0.000450201
0.0049564
0.000442916
0.000448859
0.00291899
0.000447966
0.000444351
0.00319737
0.000523497
0.000496569
0.00042993
0.00044685
0.000441899
0.000208805
0.000707117
0.000445009
0.00930044
0.000463307
0.00216882
0.00049518
0.000247791
0.000438065
0.00444384
0.00046555
0.0346457
0.000446172
0.000452974
0.000474381
0.0081454
0.000429865
0.000208522
0.000470524
0.000429917
0.000436665
0.000438041
0.000431089
0.000446167
0.000448976
0.000437547
0.000442256
0.000449637
0.00740216
0.0132789
0.000439383
0.000452935
0.000440238
0.0138792
0.0397407
0.000448479
0.00800614
0.000452516
0.0158004
0.000470863
0.000258969
0.000447709
0.000459278
0.000450791
0.000450102
0.0141261
0.000448399
0.000436759
0.00428705
0.000484451
0.000442288
0.000440651
0.000446342
0.00044659
0.0012817
0.000596553
0.000450239
0.000449362
0.000494739
0.0035889
0.000451716
0.000445682
0.000448961
0.000448556
0.000439045
0.0111892
0.0198617
0.0023507
0.000445118
0.000442343
0.00903902
0.000446989
0.000446883
0.000434382
0.00766091
0.0004426
0.000451766
0.000491147
0.000449481
0.000593295
0.000449387
0.000449538
0.000447422
0.000463485
0.000453257
0.000464295
0.000450894
0.000451211
0.000442109
0.000464111
0.000438595
0.00045355
0.000443708
0.000455568
0.000446061
0.00044865
0.000436552
0.000192299
0.000439392
0.000448405
0.000503199
0.000437589
0.0175686
0.000447961
0.000451245
0.000447886
0.000442739
0.000438906
0.000451504
0.0158229
0.0082189
0.000469215
0.000446232
0.000448161
0.00617901
0.00773617
0.0154354
0.000447044
0.000429403
0.000454935
0.000446841
0.000454719
0.000446988
0.000435654
0.000449755
0.00047091
0.0208296
0.0004486
0.000450078
0.000450719
0.000444545
0.00565322
0.0113348
0.000455918
0.000452532
0.00700191
0.0100836
0.020548
0.000454168
0.000450111
0.000438257
0.000480494
0.000453608
0.00049465
0.00111071
0.000437942
0.000490883
0.000447394
0.000446716
0.000442146
0.000445986
0.0247796
0.000442938
0.000435412
0.0117443
0.000448374
0.00816992
0.000449681
0.000432458
0.00821914
0.000426251
0.000449626
0.0118685
0.000446394
0.00043821
0.000436284
0.000432426
0.00269288
0.000435281
0.000443083
0.00054999
0.000430708
0.000445569
0.000450719
0.000446265
0.000478155
0.000446519
0.000447026
0.000496958
0.000446607
0.00042613
0.000441649
0.000450601
0.00645021
0.000448663
0.000522937
0.000430607
0.00662063
0.000429321
0.000438301
5.23657e-05
0.000440063
0.000274324
0.000445991
0.0126274
0.000448358
0.000435785
0.000448799
0.000447114
0.000445925
0.000430406
0.000462634
0.000443973
0.000496225
0.000448025
0.000449433
5.79995e-05
0.0413477
0.015444
0.000498679
0.0335008
0.000454298
0.00109844
0.000448084
0.000439065
0.00112087
0.000440879
0.000443771
0.000470358
0.000435515
0.000452203
0.000434287
0.000438712
0.00045183
0.000462412
0.000448534
0.0116894
0.000446182
0.00043685
0.000534247
0.000431178
0.000437921
0.000435553
0.000439557
0.000450406
0.000284155
0.000446013
0.000442898
0.000439522
0.000489793
0.00050296
0.000443372
0.045756
0.000433482
0.000454128
0.000434245
0.000480942
0.000445083
0.000433427
0.000443864
0.00479107
0.000122462
0.000448569
0.000453406
0.000494363
0.000426211
0.000460476
0.015423
0.00044136
0.000447662
0.000559954
0.000472316
0.000451933
0.00044832
0.0246743
0.000443652
0.000191887
0.00043789
0.000447115
0.000447289
0.00045163
0.000455389
0.000444505
0.000447173
0.000446631
0.000443841
0.000431036
0.00877177
0.000439738
0.000438192
0.000450343
0.0191659
0.000450977
0.000444937
0.00896649
0.00045431
0.000427731
0.00045274
0.000444195
0.000475596
0.000442634
0.000838404
0.000467553
0.000392051
0.000815578
0.00045078
0.000442943
0.0235402
0.0158566
0.000432013
0.000440189
0.000446067
0.000447307
0.000446841
0.000818891
0.000443374
0.000456328
0.000432057
0.021487
0.00044621
0.00109409
0.000444341
0.000449546
0.000446453
0.000232875
0.000444562
0.00041128
0.000446872
0.000441112
0.000447377
0.000442402
0.000449633
0.000439665
0.000438747
0.00247198
0.000457028
0.000430484
0.000444496
0.000442031
0.000487381
0.000441448
0.000450299
0.000441483
0.000446827
0.000455005
0.00044213
0.000399496
0.0249075
0.000435247
0.00044082
0.0120994
0.000717344
0.000435247
0.000434204
0.000450801
0.000452156
0.0293537
0.000443303
0.000455493
0.000452878
0.000446718
0.000449907
0.000445935
0.0020825
0.000448938
0.00746132
0.000445821
0.000447169
0.000447995
0.0296181
0.000450987
0.000449544
0.000495736
0.00586902
0.0178912
0.0004409
0.00043247
0.000324349
0.000449597
0.000453295
0.000448381
0.00043573
0.000450363
0.00044894
0.000491165
0.000491621
0.000435819
0.000436958
0.000505807
0.000449044
0.000439029
0.000371976
0.000500556
0.000466364
0.000452338
0.00032873
0.00253966
0.00420536
0.000450953
2.2108e-05
0.000448551
0.000427839
0.0375518
0.000454802
0.0145223
0.000449534
0.000448569
0.000450766
0.000435004
0.000449507
0.00045089
0.0143676
0.017536
0.00544072
0.0435592
0.000447045
0.00045321
0.000438606
0.000441275
0.000431714
0.000436485
0.000446371
0.00451184
0.000501069
0.000434817
0.000445644
0.000578595
0.00520359
0.000478249
0.000443123
0.000431099
0.000464251
0.00043638
0.000449558
0.000235071
0.000430401
0.000438281
0.000451589
0.00064889
0.000449653
0.000589484
0.0158781
0.00044766
0.000447301
0.00045055
0.000448716
0.000449604
0.000448587
0.013515
0.000440632
0.000452643
0.000445913
0.00154395
0.000467005
0.0115391
0.00779495
0.000454658
0.000479777
0.000512083
0.000448045
0.000440462
0.000448744
0.000438094
0.000454664
0.000437529
0.000434925
0.00114664
0.000446297
0.000454801
0.000441121
0.000435181
0.00729563
0.037985
0.000442387
0.0138107
0.000441396
0.00043078
0.000396966
0.0259477
0.000501795
0.000447272
0.000452014
0.000444613
0.000435448
0.0141878
0.000437547
0.000450554
0.00343028
0.00311004
0.000429239
0.00042911
0.000451185
0.000427631
0.0353768
0.004094
0.000440414
0.000456245
0.00668531
0.000447688
0.00157895
0.000449924
0.000429453
0.00044668
0.000453606
0.000434951
0.000438285
0.000450304
0.000462223
0.00428813
0.000431118
0.000435676
0.0149268
0.000444709
0.000447548
0.000485073
0.000450051
0.000450558
0.000434788
0.00312903
0.00044853
0.000463801
0.000445873
0.0160755
0.011473
0.000448523
0.000442825
0.000449888
0.000464019
0.000430932
0.000452719
0.000368056
0.000442811
0.000450963
0.000507167
0.000440148
0.000456224
0.000428138
0.000452632
0.0243338
0.00350101
0.000446275
0.000463644
0.000436058
0.000436006
0.000448519
0.000429393
0.000443709
0.000429709
0.000448582
0.000448565
0.000440883
0.000450838
0.000449964
0.000493511
0.00346217
0.0147338
0.011304
0.000449736
0.0232578
0.000436809
0.000430994
0.000429313
0.000447025
0.000435137
0.000447108
0.0112877
0.000450119
0.000439747
0.000438152
0.000427808
0.00177174
0.00427406
0.000446116
0.000446603
0.000500607
0.000449366
0.000429082
0.0101988
0.00113281
0.000440586
0.000450638
0.000436796
0.00802326
0.000448029
0.000445301
0.00844909
0.025179
0.000443562
0.0430864
0.000450363
0.000435274
0.000434717
0.000441613
0.0209169
0.00044879
0.000450895
0.00503673
0.000437698
0.000446342
0.000431205
0.0004494
0.000526001
0.000514133
0.000449832
0.000446215
0.000512501
0.000446593
0.000448575
0.000473227
0.000433899
0.000452765
0.000437144
0.000450972
0.0004406
0.000465141
0.000423748
0.00720923
0.000559751
0.000461153
0.00049059
0.000447648
0.000470342
0.000438937
0.000449135
0.000450232
0.000439687
0.000450357
0.00045704
0.000441833
0.000456575
0.0103956
0.000441903
0.000449875
0.000433644
0.000447738
0.000439831
0.000446075
0.00045025
0.00044589
0.0275559
0.000429261
0.00803584
0.000448719
0.000441376
0.000460986
0.00047242
0.000447573
0.000435409
0.000435642
0.0155733
0.000420088
0.00479226
2.17595e-05
0.0456253
0.000467432
0.0224814
0.000442843
0.000436517
0.000453097
0.00043494
0.000433244
0.000482989
0.000445466
0.000169823
0.000448171
0.000449678
0.000448865
0.000437672
0.000450929
0.000441906
0.000418115
0.000461563
0.00045929
0.0060553
0.00045383
0.00538848
0.000448421
0.000447389
0.000457454
0.000435817
0.000440749
0.000458201
0.000457934
0.000446005
0.000434511
0.000447082
0.00950892
0.0197093
0.000449743
0.000442049
0.000451006
0.000436614
0.000430577
0.0195246
0.000439244
0.0217631
0.00802325
0.000450707
0.00043077
0.000486619
0.000449564
0.000490268
0.000422765
0.000442248
0.00044854
0.00049077
0.000470083
0.000503543
0.0136525
0.000454599
0.000454605
0.000461866
0.000447809
0.000417201
0.000454967
0.000432308
0.000439228
0.00043211
0.000446023
0.00040421
0.000447629
0.000481379
0.000457168
0.000488204
0.000436449
0.000456845
0.000453991
0.0195741
0.000442744
0.000435885
0.00837743
0.00681536
0.000447362
0.0211926
0.00360959
0.000449757
0.000449636
0.000448717
0.000444009
0.000813741
0.000442972
0.000484257
0.000430705
0.000554779
0.000489954
0.000514127
0.0110691
0.000447295
0.000428793
0.0091275
0.00298416
0.000446366
0.000449098
0.000437735
0.000404814
0.000446765
0.000449433
0.000463294
0.000444296
0.000852636
0.000451764
0.000451575
0.000448246
0.000458857
0.000474885
0.000483635
0.000445429
0.000451807
0.000444719
0.000446901
0.0232813
0.000444919
0.000449808
0.000440648
0.00483828
0.000155294
0.000477688
0.000441454
0.000427906
0.000481425
0.000443948
0.00043339
0.000430504
0.000449408
0.000431267
0.00690812
0.00044876
0.000450047
0.0240194
0.00054681
0.000465043
0.000442252
0.000448309
0.00042776
0.000447683
0.000426161
0.0114181
0.000449722
0.000447423
0.000461519
0.000415694
0.000473716
0.00046141
0.000458514
0.000443907
0.000437601
0.00904284
0.000449628
0.000429102
0.0184561
0.000434903
0.000442337
0.000428672
0.000446693
0.000446413
0.000440851
0.000642407
0.000147874
0.0100958
0.000465288
0.0156857
0.000481165
0.000433493
0.0157636
0.000449851
0.000510929
0.000448702
0.000425081
0.000436853
0.000419969
0.0105085
0.000447305
0.000433431
0.000449463
0.000456356
0.00044543
0.0202622
0.000431687
0.000447142
0.00045166
0.000471686
0.000448527
0.00103415
0.000437528
0.00043913
0.000442575
0.000438438
0.000427976
0.000258551
0.000442366
0.00982059
0.000482382
0.000430377
0.000447252
0.000451263
0.000440344
0.000449317
0.000440635
0.000449422
0.0018888
0.000441122
0.000233617
0.000447466
0.000452444
0.000460407
0.000435085
0.0156293
0.000448692
0.00044937
0.000452081
0.0246638
0.00045035
0.000443711
0.000430426
0.000473536
0.000450518
0.000454372
0.0004379
0.000442689
0.000448519
0.000447529
0.000437942
0.000452529
0.000451309
0.000435862
0.000449612
0.000436645
0.000303046
0.013735
0.000443766
0.000441877
0.0117035
0.00507258
0.000446579
0.000438694
0.000449386
0.000442599
0.000433239
0.000440148
0.000442478
0.000448926
0.00202193
0.000436225
0.00043666
0.000321769
0.000435461
0.000743924
0.000539512
0.000452422
0.000449081
0.0156877
0.000446393
0.000720733
0.000450951
0.00464669
0.000466236
0.00615457
0.000436739
0.000439267
0.000440252
0.000448724
0.000452455
0.000458442
0.000445721
0.000449302
0.00046593
0.000438582
0.000454719
0.000350409
0.000448847
0.000450259
0.000417636
0.000443683
0.000492646
0.000434513
0.0131762
0.000450845
0.000447731
0.000433453
0.0140553
0.000336993
0.000436239
0.029697
0.000470844
0.0173543
0.00634972
0.000447989
0.00048811
0.0393865
0.0175703
0.000447458
0.00045981
0.000469657
0.00860824
0.000449298
0.000452383
0.0067629
0.000513257
0.000438102
0.0387474
0.000452588
0.014612
0.000441604
0.000444404
0.000432256
0.000500565
0.000447447
0.000490942
0.00830453
0.000461595
0.000431129
0.000448708
0.000441789
0.000463819
0.000437116
0.000448533
0.00100583
0.00780194
0.0798803
0.000448966
0.000445786
0.00044307
0.00125425
0.000450295
0.000441534
0.000437587
0.000426238
0.000467699
0.00719525
0.000451786
0.000437986
0.000445495
0.0150367
0.000451473
0.000439423
0.000446975
0.000449132
0.00043109
0.070011
0.000452576
0.00767364
0.00767082
0.0153566
0.000449256
0.00847065
0.0240931
0.000450706
0.0265614
0.000452932
0.000450502
0.0204265
0.00132677
0.012765
0.0132327
0.0245339
0.000440839
0.000530992
0.00166436
0.000446181
0.00880372
0.00692119
0.000449716
0.015856
0.000440882
0.000447628
0.0111023
0.000427884
0.000449249
0.000443812
0.000450714
0.0134953