/*--------------------------------*- C++ -*----------------------------------*\
| =========                 |                                                 |
| \\      /  F ield         | OpenFOAM: The Open Source CFD Toolbox           |
|  \\    /   O peration     | Version:  v2012                                 |
|   \\  /    A nd           | Website:  www.openfoam.com                      |
|    \\/     M anipulation  |                                                 |
\*---------------------------------------------------------------------------*/
FoamFile
{
    version     2.0;
    format      ascii;
    class       volScalarField;
    location    "350";
    object      k;
}
// * * * * * * * * * * * * * * * * * * * * * * * * * * * * * * * * * * * * * //

dimensions      [0 2 -2 0 0 0 0];


internalField   nonuniform List<scalar> 
18598
(
0.000177916
0.000201664
0.000149947
0.000169055
0.000145903
0.000164367
0.000165263
0.000148997
0.000210999
0.0341428
0.000147841
0.0194458
0.000144649
0.0183835
0.000148809
0.000178711
0.0500741
0.000163886
0.000152001
0.0797615
0.000147868
0.000146674
0.0706051
0.000147014
0.00014526
0.0509861
0.000227761
0.000147867
0.000227142
0.000177432
0.00977787
0.000149047
0.000150837
0.000178654
0.000164957
0.000208797
0.000145531
0.000147839
0.000145881
0.0338049
0.000186639
0.000195729
0.000186307
0.0176389
0.000153542
0.000149496
0.000145326
9.74231e-05
0.000146207
0.00014526
0.000146365
0.000377515
0.000182423
0.000191011
0.00014668
0.000146629
0.000147756
0.000148826
0.000145756
0.000160039
0.0216243
0.000203306
0.000147895
0.000146932
0.000193593
0.000290509
0.000145722
0.000151606
0.000249342
0.000144865
0.000157631
0.000163242
0.000245398
0.000181852
0.000148381
0.000185907
0.000148559
0.000146613
0.000166033
0.000157585
0.0843437
0.000149675
0.000148069
0.0507464
0.000150699
0.0118409
0.000144843
0.0306633
0.000147624
0.000157538
0.000153556
0.000189223
0.000153266
0.000167902
0.0163216
0.000147614
0.0486354
0.00014764
0.0819432
0.000179189
0.000147648
0.000148758
0.000158473
0.000169126
0.000165344
0.000152027
0.000183744
0.0243569
0.000147821
0.00019423
0.00015847
0.0246117
0.000148656
0.000158214
0.000188845
0.000149503
0.084147
0.000159524
0.000160611
0.000145566
0.0241082
0.00014707
0.000147878
0.000158609
0.0549599
0.000154133
0.00015453
0.000175122
0.000204535
0.000145535
0.000145026
0.000166282
0.0641753
0.000153285
0.000239048
0.000146446
0.000173255
0.000147847
0.000145321
0.000166603
0.000213539
0.000147151
0.000147704
0.0230245
0.000147288
0.000151012
0.000260115
0.000188056
0.000147514
0.000157929
0.000151937
0.000161263
0.000147286
0.035288
0.000147585
0.000147315
0.0353883
0.000154302
0.000144615
0.000157307
0.000175032
0.00016812
0.000146344
0.000145451
0.00014558
0.0386046
0.000211281
0.000149075
0.000165941
0.000172643
0.000148338
0.000162438
0.0295947
0.000183724
0.000155755
0.000146604
0.0252675
0.000149606
0.000157658
0.0475145
0.000178663
8.50766e-05
0.00016611
0.000150709
0.0232615
0.000157645
0.0358657
0.0526937
0.00014793
0.000184759
0.000150584
0.000146968
0.000166574
0.0403902
0.000158515
0.000146229
0.0765908
0.0209139
0.000174198
0.000187119
0.0389227
0.00014659
0.00016227
0.000149888
0.000152952
0.0693688
0.000215733
0.000147323
0.000154188
0.000152982
0.000178629
0.0470191
0.000145888
0.000174156
0.00018329
0.000159663
0.000182443
0.000147773
0.000148762
0.0001684
0.000144289
0.000147568
0.00015099
0.000147984
0.00016283
0.000147706
0.000147873
0.000147355
0.0208634
0.000145389
0.0608527
0.0411257
0.000147626
0.000147904
0.000202838
0.0817817
0.000150495
0.000157719
0.000146851
0.00015334
0.000154526
0.000176448
0.0205512
0.000145564
0.000167298
0.000150216
0.000162286
0.000147132
0.000160603
0.000146321
0.0336527
0.000205807
0.0313783
0.0671949
0.000166643
0.0746484
0.000159834
0.00386541
0.000147942
0.0501993
0.000157532
0.000172234
0.00246487
0.00874888
0.000261278
0.000149507
0.000144285
0.0248377
0.000184802
0.000155149
0.000145747
0.000149113
0.00017412
0.000146867
0.00771613
0.0747965
0.0344218
0.051083
0.000186474
0.00017299
0.000176152
0.0498493
0.000151701
0.00745391
0.0562701
0.000157215
0.000183581
0.000176074
0.000146248
0.035458
0.000178428
0.000192586
0.0264072
0.000172167
0.00159314
0.000163926
0.000145552
0.000207891
0.000160126
0.000175851
0.0843172
0.0330295
0.00016209
0.0531661
0.000155511
0.000184837
0.0531681
0.000158051
0.0237104
0.000194812
0.0158871
0.00015395
0.000210892
0.0284097
0.000173833
0.000171042
0.000176476
0.000154087
0.000147966
0.00205938
0.000151358
0.0672895
0.000148388
0.00015264
0.000150824
0.0552378
0.000148593
0.000168053
0.000159242
0.000150021
0.000154895
0.000151437
0.0183848
0.0423837
0.000145693
0.00016885
0.000150954
0.0238269
0.000186128
0.000152383
0.000173438
0.000203746
0.000181216
0.040629
0.000148637
0.0235329
0.045492
0.0377559
5.9085e-05
0.0454452
0.000152066
0.000160943
0.000163351
0.000168768
0.000187995
0.000147678
0.000163379
0.0350774
0.000177576
0.00014622
0.000147841
0.0462854
0.000148333
0.000145716
0.000144789
0.000146589
0.0110258
0.03199
0.000173294
0.0289698
0.0001767
0.000199569
0.000153272
0.0357586
0.000148768
0.000304364
0.0470488
0.000150776
0.000147699
0.0344788
0.078577
0.000148264
0.000163529
0.000179667
0.000157351
0.0137248
0.000147623
0.000149783
0.000144337
0.000157399
0.000206078
0.000154227
0.000146825
0.000148636
0.0227111
0.000148391
0.000153465
0.000147867
0.000192647
0.00015091
0.000157211
0.000147748
0.000146259
0.000149738
0.0301806
0.0505876
0.00387413
0.0565426
0.0442809
0.000166228
0.000148239
0.0246574
0.000148089
0.000154044
0.000178104
0.000160667
0.000166956
0.000155814
0.0106698
0.000156981
0.000149664
0.000147242
0.00014845
0.000681606
0.000154586
0.00015542
0.000154857
0.000150683
0.000167308
0.00883097
0.000146741
0.000152564
0.000149777
0.000192186
0.000167802
0.0140236
0.00014526
0.000148292
0.00017287
0.000146863
0.0241076
0.020121
0.000149013
0.000148311
0.000148544
0.0164811
0.0408304
0.0449101
0.00015541
0.000159023
0.000145248
0.049018
0.0179271
0.000149824
0.00080996
0.000155783
0.000150754
0.000148303
0.000154509
0.000148279
0.000203936
0.000149054
0.000149734
0.0334298
0.000182568
0.000147627
0.000182015
0.00014778
0.0269607
0.000154385
0.00014743
0.000147727
0.000146264
0.0549737
0.000147242
0.000146344
0.000171397
0.00015517
0.026323
0.000177023
0.000145123
0.00641016
0.000183546
0.000170471
0.000149058
0.000151771
0.000148772
0.000148781
0.000158787
0.000147526
0.000151754
0.000187227
0.000160418
0.000178767
0.0106935
0.000153472
0.000176561
0.000179154
0.082883
0.000146681
0.0669107
0.000174374
0.000148611
0.0344749
0.000151727
0.000147724
0.0381821
0.000148827
0.000148028
0.0243247
0.000170798
0.000154377
0.000152147
0.000146275
0.000157692
0.000147031
0.000149914
0.0369814
0.0237346
0.000149208
0.000149428
0.0479473
0.000154788
0.00014997
0.000154362
0.000279008
0.000150921
0.000147205
0.000539027
0.04224
0.000145921
0.000183802
0.000147986
0.000152045
0.000201277
0.0657794
8.67788e-05
0.000147269
0.000147734
0.000269997
0.000151073
0.0001892
0.000151954
0.000146978
0.000148483
0.0458177
0.000148533
0.00018784
0.000145056
0.00018929
0.0373658
0.0316462
0.000215185
0.000147533
0.000349654
0.0001506
0.0467185
0.0211871
0.000146197
0.000149774
0.0218139
0.000180119
0.000157501
0.000157123
0.000146252
0.0804686
0.000147821
0.00501546
0.000148693
0.00015504
0.000147359
0.000176979
0.000147782
0.000175957
0.0292395
0.0774457
0.000147349
0.000171309
0.000147359
0.000154497
0.000178875
0.000187549
0.0323177
0.00014508
0.0441609
0.0363386
0.000146752
0.000198801
0.000147747
0.00217329
0.000216508
0.000151713
0.0813082
0.000148304
0.000169795
0.0402207
0.000172461
0.000146284
0.000148949
0.000148702
0.000153755
0.000146642
0.000156835
0.000148911
0.000147394
0.0284108
0.000146668
0.000176482
0.000149819
0.000146742
0.0243528
0.0514447
0.00670797
0.00014664
0.0837877
0.000146857
0.000153936
0.000146227
0.000150717
0.00491459
0.0387255
0.000147343
0.000145768
0.000179373
0.000145172
0.000151049
0.000192211
0.000147866
0.000149075
0.00014523
0.000147863
0.000154259
0.000147321
0.000209414
0.000151836
0.000147604
0.000163041
0.000150361
0.0216159
0.000250289
0.000150509
0.000148284
0.000153721
0.000168254
0.00014713
0.000165117
0.000144344
0.000149798
0.0385853
0.0668963
0.00014791
0.000148664
0.000150982
0.00014588
0.000154435
0.0275284
0.0466592
0.000196039
0.00015545
0.000187433
0.000149601
0.000173777
0.000157405
0.000181443
0.000159638
0.0424062
0.000147221
0.000148012
0.0245307
0.000147062
0.000145494
0.0515566
0.000147286
0.0330872
0.000151698
0.000149635
0.000145492
0.000148282
0.000180369
0.0758088
0.000172163
0.000146679
0.000150177
0.000147775
0.000167616
0.0335267
0.000151259
0.000234382
0.000149027
0.00014759
0.000150758
0.000148342
0.000145827
0.000162631
0.000148472
0.000240988
0.00921672
0.000177857
0.000149156
0.000144913
0.000149839
0.00017533
0.000147807
0.0311503
0.000157415
0.000151784
0.000167645
0.000177465
0.0286182
0.000145619
0.0425694
0.000148655
0.0337796
0.000152383
0.0316059
0.000162346
0.026971
0.000158834
0.000149763
0.000163611
0.00015912
0.000147875
0.0444214
0.0757061
0.000160331
0.000152536
0.000145843
0.000195446
0.000148864
0.000145715
0.000189473
0.000150334
0.000194534
0.0291777
0.000145663
0.00020497
0.000148981
0.000148094
0.000171589
0.000175594
0.000149778
0.000190999
0.000148701
0.00017337
0.000233855
0.0431182
0.0241133
0.0278342
0.055349
0.000169015
0.000187777
0.000148502
0.000162851
0.000237736
0.0177001
0.000156094
0.000172464
0.0382867
0.0527254
0.0662984
0.000277387
0.0395207
0.000147877
0.000147584
0.000167979
0.000147121
0.0291879
0.000165732
0.000150403
0.000182514
0.000168628
0.000151175
0.000150697
0.000145675
0.00014979
0.000146842
0.000198817
0.000155203
0.000146721
0.0362534
0.000147747
0.000165122
0.000173359
0.0190671
0.000150122
0.0335284
0.000150356
0.00014679
0.000152302
0.0622377
0.000167289
0.000146768
0.000148116
0.000149794
0.000171776
0.000147976
0.0629915
0.00017662
0.0412906
0.0218962
0.000150542
0.000185961
0.000232408
0.000147512
0.000152092
0.000147392
0.000148558
0.0679923
0.000148683
0.000145402
0.000154108
0.000168294
0.00014984
0.0360174
0.0202065
0.000159739
0.000155247
0.000146479
0.000147745
0.000278801
0.000149827
0.000150216
0.000151416
0.000148001
0.000145272
0.00014806
0.0740269
0.0722574
0.000148558
0.000150055
0.000192797
0.00522891
0.000144965
0.000146211
0.000148319
0.000158428
0.042106
0.000209737
0.000173335
0.0379141
0.000147799
0.000164841
0.000148078
0.000161156
0.000152896
0.000274223
0.0182055
0.000147766
0.0307018
0.000147221
0.000150812
0.000157042
0.000147551
0.000146578
0.000165117
0.000173581
0.000146624
0.000175852
0.0565455
0.000204534
0.000198572
0.000177115
0.00014818
0.000147822
0.00014599
0.000148059
0.0703565
0.0210333
0.000176582
0.000153351
0.000148058
0.000214237
0.000148649
0.0242321
0.000148029
0.000146446
0.000222883
0.000145578
0.000161992
0.000187927
0.000147776
0.000149739
0.000147291
0.000155227
0.000191441
0.0843611
0.0342865
0.000146189
0.000154514
0.000148076
0.00338883
0.000179336
0.000146336
0.000153645
0.000148431
0.000153935
0.000183777
0.000147182
0.0326749
0.000182887
0.000149775
0.0239018
0.000186559
0.00014775
0.0570796
0.000148628
0.000145344
0.037061
0.000731355
0.000154684
0.000228418
0.000146208
0.000269644
0.000149019
0.000146089
0.000150964
0.000144707
0.000155247
0.000146677
0.000159164
0.000147203
0.000291145
0.000110921
0.00018199
0.00014771
0.0131574
0.000172359
0.000184657
0.000148694
0.000149347
0.00022182
0.000147066
0.000146222
0.00016706
0.000191686
0.000145079
0.000153966
0.000147705
0.000170562
0.0484284
0.000148292
0.000145666
0.000145643
0.000178756
0.000147092
0.000149581
0.000149551
0.000185339
0.00014704
0.000146717
0.000146713
0.00017178
0.000150608
0.000148131
0.000265091
0.00014803
0.0255116
0.000152001
0.000147752
0.0284464
0.00403444
0.000175081
0.0839917
0.000145819
0.0275674
0.000145874
0.0269257
0.000165349
0.000148232
0.000151907
0.00317415
0.000230069
0.000182893
0.000148655
0.0745544
0.000150688
0.000165038
0.000184219
0.000165134
0.000144904
0.000145148
0.000154944
0.000149568
0.000147829
0.00015035
0.000245272
0.000178324
0.000178008
0.000497007
0.000156945
0.0425052
0.0854001
0.000148972
0.0797277
0.000165358
0.000149303
0.000192403
0.0292162
0.0730622
0.0220005
0.000162496
0.000161672
0.000145476
0.000157665
0.000149648
0.000196045
0.000216717
0.000150561
0.000153269
0.000177717
0.000151124
0.000185298
0.000148214
0.000145818
0.000147792
0.00014739
0.000195935
0.0736746
0.02863
0.000150702
0.000149774
0.000175772
0.000146193
0.000143949
0.000148575
0.000145435
0.0244368
0.000155916
0.000148519
0.000177947
0.000151593
0.0262547
0.0301697
0.00014714
0.000203379
0.000156132
0.000154208
0.000143986
0.000163196
0.000149134
0.039187
0.0260534
0.000146771
0.0744079
0.000169803
0.000164475
0.0411222
0.000147458
0.000146325
0.000145715
0.000159946
0.00017505
0.000152236
0.0191523
0.000152891
0.000149392
0.000259558
0.000151311
0.000242157
0.000147855
0.000149613
0.0330542
0.000165762
0.000157024
0.0683985
0.000169062
0.000152035
0.05372
0.00014484
0.0435584
0.000146964
0.0472531
0.000146561
0.0237271
0.000150565
0.0859373
0.000147966
0.0862686
0.000146759
0.0241586
0.000149648
0.000147272
0.000164183
0.000147975
0.000169278
0.000222034
0.000147432
0.0765689
0.000164731
0.0433397
0.000148423
0.000154587
0.000147074
0.000167326
0.0260599
0.000147767
0.000242191
0.0610489
0.0565302
0.000145206
0.0517169
0.000150575
0.000147295
0.000147575
0.0453231
0.000171054
0.000145549
0.000174985
0.00026502
0.000148196
0.0415009
0.0331804
0.00016192
0.000150194
0.000173445
0.0206221
0.000183758
0.000173942
0.000160011
0.000150044
0.000148623
0.000153468
0.000187953
0.00014972
0.000148048
0.000147612
0.00014659
0.000147739
0.000147833
0.059955
0.0671834
0.000145627
0.0407523
0.00017085
0.000288501
0.000146751
0.000155619
0.000171233
0.000166205
0.000161438
0.000106034
0.000149899
0.000147801
0.000149149
0.000149163
0.000147592
0.000150255
0.000250806
0.000184243
0.000187935
0.000146703
0.000149492
0.000145855
0.000149095
0.00014783
0.0236529
0.000234578
0.0200473
0.000148198
0.000146789
0.000153506
0.0316994
0.000151169
0.0558185
0.000147751
0.000250914
0.0487865
0.000152145
0.000147414
0.000148388
0.000149263
0.000165724
0.000160468
0.000155253
0.000160094
0.000209924
0.000272519
0.000190226
0.000153586
0.000153598
0.000222723
0.00014776
0.000262085
0.0401915
0.000149907
0.000170542
0.000157415
0.000148035
0.000148995
0.000171806
0.000147431
0.000161359
0.00014974
0.0838201
0.000147839
0.000164073
0.000154766
0.0457515
0.000183599
0.00594427
0.000147107
0.000144117
0.000148749
0.073467
0.000145275
0.000147718
0.000158658
0.00016019
0.000178948
0.0001826
0.000188715
0.0495864
0.000146202
0.000148935
0.000147031
0.000174922
0.00014795
0.000186777
0.000149715
0.000146218
0.000185395
0.000168449
0.0001464
0.000163748
0.000162953
0.000213983
0.000145525
0.000885112
0.00014618
0.00751711
0.000151354
0.0244424
0.000191171
0.000167058
0.000146562
0.000157532
0.0278988
0.000157226
0.00014865
0.000188361
0.0280321
0.047517
0.00014561
0.0461018
0.000194263
0.00178758
0.000190764
0.0267853
0.0515061
0.000147275
0.000148296
0.000146709
0.000147592
0.000150105
0.000147731
0.000153312
0.000147799
0.000147865
0.021926
0.000173423
0.000145844
0.000211807
0.000146844
0.000238483
0.000147786
0.000146142
0.0001477
0.000146693
0.000162664
0.000152246
0.00478414
0.000156892
0.000145771
0.000147156
0.0160431
0.00014983
0.000149698
0.000199048
0.00940566
0.0286422
0.000147103
0.000156633
0.000176944
0.000147217
0.000147062
0.000149893
0.000144766
0.000148265
0.0158059
0.002654
0.000178132
0.000148006
0.000150614
0.000150499
0.000149889
0.061278
0.000170349
0.000146374
0.000147004
0.0271556
0.000166895
0.000148087
0.000190244
0.000159399
0.000149339
0.000151094
0.000176363
0.000170635
0.00018389
0.053265
0.000147071
0.00017796
0.000173967
0.000147547
0.000146461
0.000147752
0.000149304
0.00014783
0.0273023
0.000155085
0.000173737
0.0384419
0.0337534
0.000206584
0.000153755
0.000147845
0.000149128
0.000148688
0.000147948
0.000150376
0.000161101
0.000149893
0.000149432
0.000149831
0.0513339
0.0533703
0.000173974
0.000185242
0.00014671
0.000154402
0.0656396
0.000149779
0.000155922
0.0609774
0.000217586
0.000236162
0.000161888
0.00014612
0.000146313
0.0191137
0.000155008
0.000147785
0.000161704
0.00019353
0.000144753
0.00344971
0.000219328
0.000146909
0.0353718
0.000152798
0.0721588
7.71203e-05
0.000174151
0.000150607
0.00016019
0.000173458
0.000147374
0.000147344
0.000148729
0.000148368
0.000181538
0.000181022
0.0431161
0.000146275
0.000184197
0.000148895
0.000160512
0.00018876
0.000148344
0.0570391
0.000177143
0.000148069
0.000155103
0.000184488
0.000149287
0.000152325
0.000168567
0.000146646
0.000145174
0.0362168
0.000168425
0.00016309
0.000153453
0.000146321
0.000186335
0.000180453
0.000162522
0.000166021
0.000145135
0.000176641
0.0472696
0.0285355
0.000155901
0.0323376
0.000147841
0.000144779
0.0685156
0.000389608
0.000150681
0.000149427
0.000147753
0.000147535
0.000198034
0.000176945
0.000179553
0.00014656
0.000181797
0.000144711
0.000147244
0.0520097
0.0208753
0.000232454
0.000148317
0.046933
0.000145168
0.000171122
0.000147517
0.000170291
0.000146001
0.000148289
0.077328
0.000165392
0.000148738
0.00033039
0.000166659
0.0370217
0.000149506
0.0306791
0.000168934
0.000148342
0.00014707
0.000219097
0.00015281
0.000147258
0.00020084
0.000154862
0.000173463
0.0249105
0.00014687
0.000171361
0.000243621
0.000147919
0.000146159
0.000210763
0.000147515
0.000159464
0.0476464
0.000188459
0.000147983
0.0787183
0.000148091
0.000147699
0.00137001
0.000147614
0.000169242
0.000162235
0.000147524
0.000146586
0.000147184
0.000191405
0.000217786
0.000146571
0.000148582
0.000149775
0.000167073
0.000150217
0.0522908
0.000148922
0.000147556
0.000195226
0.000160281
0.000180334
0.000176276
0.000151793
0.000174727
0.000150024
0.000160769
0.000147324
0.000162723
0.000220582
0.000148586
0.000148921
0.000147692
0.000147521
0.083353
0.0248921
0.000151485
0.000147212
0.000148345
0.000149476
0.000150923
0.0748628
0.0049261
0.000147351
0.000183416
0.000150999
0.000168736
0.000149222
0.000148013
0.000171915
0.000233346
0.000173879
0.000147929
0.000149702
0.000165074
0.000146319
0.0584718
0.000145921
0.000183042
0.000178981
0.000153686
0.000213295
0.000147751
0.00020474
0.000147068
0.000163671
0.000147965
0.00014791
0.00016768
0.000149789
0.000160536
0.000161866
0.0805952
0.0808784
0.0760043
0.00014694
0.000147625
0.000149127
0.000156773
0.000155149
0.000153848
0.000146987
0.000147072
0.0278837
0.000147751
0.000167987
0.000162068
0.0690581
0.082652
0.000151188
0.000159506
0.0556615
0.000363342
0.000146943
0.0273786
0.0826524
0.000153498
0.0831074
0.000147268
0.000149544
0.000194545
0.000161902
0.000145806
0.0583673
0.000163635
0.00018565
0.000145442
0.0328595
0.000162833
0.000170799
0.0199296
0.0001928
0.000237707
0.000148895
0.000151215
0.000160446
0.000147265
0.00018127
0.000147159
0.000147319
0.0301118
0.000146144
0.00159277
0.0115196
0.000147546
0.00014881
0.000168006
0.061292
0.000163484
0.000148042
0.000150908
0.000162942
0.000160255
0.0258638
0.000159355
0.000150927
0.0334071
0.0125754
0.000194031
0.00016455
0.000155215
0.0184457
0.0553805
0.000145521
0.0814975
8.12127e-05
0.0277309
0.000156352
0.000147934
0.000148936
0.000146845
0.000147587
0.000224608
0.000147801
0.000186317
0.000148009
0.000146065
0.000152821
0.00014834
0.0557744
0.000174345
0.000149062
0.000147876
0.000145787
0.000155237
0.000172645
0.00014912
0.000154747
0.000146864
0.000149952
0.000163674
0.00466804
0.000147142
0.0601334
0.000152892
0.0429051
0.000157359
0.023733
0.000146315
0.000148334
0.00015005
0.000145214
0.0333869
0.000145072
0.000160312
0.000149821
0.000171629
0.000181434
0.000192044
0.000151233
0.000149257
0.000178693
0.000148675
0.00014626
0.00014726
0.000148778
0.000147927
0.000183127
0.000178025
0.000145555
0.000147914
0.000166004
0.000185567
0.000147185
0.000153872
0.0230621
0.00301271
0.000168702
0.00015006
0.000185849
0.000149865
0.000146933
0.0001656
0.00014743
0.0528425
0.000171784
0.000145901
0.000147172
0.000179873
0.033339
0.000169595
0.000148274
0.000148308
0.000149106
0.0247229
0.000180638
0.000152229
0.000182825
0.000289885
0.000209485
0.000148827
0.000179072
0.0297297
0.0458434
0.0278869
0.000209981
0.00014905
0.000148902
0.0593298
0.00933576
0.000145373
0.000184145
0.0365075
0.0843226
0.000147486
0.0559702
0.000147782
0.00189848
0.000147318
0.000194897
0.000149005
0.000148841
0.0626634
0.000147284
0.000152429
0.000140554
0.000147781
0.000193841
0.000147759
0.000177929
0.000148298
0.0567009
0.000146066
0.000155293
0.000150382
0.0774677
0.060954
0.000149832
0.00016258
0.0101417
0.000146058
0.000152664
0.0480711
0.000150783
0.000148737
0.000148105
0.000148586
0.000197036
0.000159925
0.000147484
0.000148343
0.000165599
0.000148269
0.0470124
0.000153083
0.00015399
0.00016657
0.000149787
0.00014802
0.00014764
0.000149457
0.000148281
0.000148475
0.0495431
0.0489459
0.0869968
0.000147072
0.0626429
0.000156568
0.00151534
0.0485022
0.0101084
0.000145484
0.000146543
0.000148193
0.000147155
0.0324745
0.000147735
0.000195595
0.000149821
0.000172089
0.000145916
0.000146503
0.0366795
0.000146512
0.000175078
0.0247648
0.0288935
0.000147314
0.000152894
0.000154176
0.00019364
0.000149995
0.000168437
0.00167582
0.000152998
0.000136293
0.00014609
0.000170557
0.000147549
0.0399403
0.000156716
0.000172554
0.0493746
0.000157084
0.000148428
0.000154556
0.000149723
0.000147921
0.0474299
0.000157173
0.000153916
0.000149827
0.000148393
0.000165932
0.0223504
0.000165568
0.0630096
0.00227215
0.000165522
0.0201807
0.000149922
0.000148855
0.000146498
0.000146454
0.000153746
0.000190685
0.000144614
0.0403782
0.00016593
0.000196336
0.0529462
0.000231599
0.000169596
0.00378792
0.00014953
0.00018893
0.0425682
0.000159703
0.0312269
0.000266988
0.0626453
0.000216106
0.0214104
0.000195762
0.000169365
0.000148283
0.000226356
0.000192887
0.000147447
0.000175752
0.000154382
0.000170608
0.0621881
0.000157008
0.000148897
0.000147352
0.000187868
0.0331655
0.000151706
0.000149381
0.00015969
0.00160517
0.000147277
0.000185366
0.00014694
0.000155859
0.000172896
0.000148515
0.000147568
0.000148867
0.0560618
0.000147038
0.041363
0.000169533
0.000149039
0.000175421
0.000149358
0.000147512
0.000122664
0.0361338
0.000145612
0.000148707
0.00022777
0.000193108
0.000148793
0.000147879
0.000154643
0.000164199
0.0111622
0.000159156
0.000155142
0.000143871
0.0477201
0.0257534
0.000147939
0.00019334
0.0192262
0.00014948
0.0552944
0.0466569
0.0294037
0.000148407
0.00016663
0.000151687
0.000144912
0.000201061
0.00484585
0.000171323
0.000148203
0.0309741
0.000145071
0.00014687
0.000208666
0.000148244
0.000193359
0.000147527
0.000149658
0.0865321
0.000211689
0.000144154
0.000147363
0.000148258
0.000208157
0.0225734
0.000207696
0.000199828
0.00015297
0.000151302
0.000147223
0.000151052
0.0131289
0.0733632
0.00714378
0.000172873
0.0064911
0.000147766
0.000152887
0.000162577
0.000154058
0.000148852
0.000158486
0.000147532
0.000148757
0.000147766
0.000149299
0.000147291
0.021459
0.000151323
0.000147261
0.000188962
0.000154245
0.000175965
0.000146852
0.000172463
0.000147857
0.000150993
0.000149653
0.000145977
0.0473622
0.00682554
0.0001561
0.021663
0.000210532
0.000147327
0.000162237
0.000147038
0.00014969
0.000155278
0.000150784
0.000147952
0.000171874
0.020902
0.0578917
0.000193897
0.000146606
0.00014681
0.000155632
0.00015441
0.0001652
0.000149264
0.0416142
0.000202325
0.00014709
0.00015466
0.0365738
0.000146305
0.000229058
0.0404107
0.0862446
0.000159126
0.00771111
0.0348908
0.000114632
0.000145002
0.000148243
0.000146176
0.000146998
0.022744
0.0499777
0.00018337
0.00017016
0.000145896
0.000146349
0.000147956
0.0193985
0.000146486
0.000147226
0.0396846
0.0851521
0.000150434
0.000147777
0.000148662
0.0002075
0.000146296
0.000153407
0.000151565
0.000148389
0.000147907
0.000222688
0.00014803
0.000145571
0.000149014
0.0575099
0.000154892
0.000183123
0.000168957
0.000147034
0.023135
0.00014944
0.0370967
0.000149039
0.000311027
0.000148264
0.000148088
0.000147214
0.000154239
0.000173701
0.000147668
0.000145102
0.000148895
0.0720694
0.000152197
0.00209254
0.000164299
0.000146998
0.000206632
0.000153629
0.000145388
0.000148467
0.000182814
0.000149171
0.0163267
0.00014844
0.00014985
0.000183689
0.0865219
0.000170225
0.000149785
0.000165976
0.000150271
0.000148101
0.000166017
0.000147401
0.000171052
0.000146344
0.0410326
0.0435034
0.000169412
0.000147671
0.000144593
0.0831223
0.000147238
0.000158234
0.000167083
0.0378767
0.0590088
0.000167465
0.0748006
0.000147856
0.000146807
0.0782608
0.000212272
0.000148085
0.000177465
0.0001525
0.000149361
0.000149815
0.000180956
0.000147515
0.000163723
0.000244271
0.0658723
0.000146
0.00015835
0.000544973
0.000148422
0.000153689
0.000152383
0.000149665
0.0238749
0.000191844
0.000150688
0.000201757
0.000155563
0.000133337
0.00020704
0.000146614
0.000148354
0.000161119
0.000149799
0.000728472
0.00020644
0.000149125
0.000152834
0.000149673
0.0001731
0.000147882
0.0521346
0.000171187
0.0465672
0.00014571
0.000151717
0.0130433
0.000148933
0.0231402
0.000145313
0.00014836
0.000167255
0.000149447
0.000166587
0.000200906
0.0391227
0.0314809
0.000164894
0.000148807
0.000144384
0.000147276
0.000172397
0.000202382
0.000176591
0.000164497
0.0462729
0.000149324
0.000166143
0.0572331
0.000148266
0.000151444
0.000155504
0.000280118
0.000155359
0.000220957
0.000146745
0.000198526
0.000145053
0.018682
0.000166131
0.000178285
0.000176085
0.0611221
0.000206539
0.000190115
0.000168795
0.000164749
0.000148779
0.0257361
0.0627572
0.000146785
0.00016567
0.000147951
0.000145271
0.000145955
0.000103123
0.000173474
0.000148252
0.000174259
0.000194221
0.000146113
0.000144394
0.0677785
0.000154033
0.000160738
0.000188121
0.000149886
0.000149597
0.000147459
0.000149277
0.0108009
0.000144952
0.000146808
0.000193836
0.000148128
0.000160078
0.000216946
0.000174461
0.0283516
0.0465665
0.000154019
0.000329077
0.000148554
0.000173101
0.000156724
0.00015424
0.000149256
0.000148249
0.000157239
0.0450731
0.000146992
0.000147897
0.000590144
0.000147551
0.000177749
0.000206746
0.000146199
0.000156977
0.000147219
0.000145193
0.00655398
0.000148056
0.000149145
0.00699536
0.000143931
0.000178974
0.000193558
0.000146686
0.000188936
0.00020436
0.000118831
0.000145
0.000148492
0.067549
0.00014589
0.0146354
0.000195175
0.0444913
0.000145539
0.0001713
0.000143716
0.000149486
0.000148179
0.000146772
0.000146523
0.048797
0.000146172
0.00935749
0.000148236
0.029671
0.000147717
0.000177338
0.000261991
0.000173654
0.000148172
0.000148843
0.000165888
0.00014935
0.000207743
0.00018183
0.0393494
0.00014869
0.00015074
0.000150496
0.000153992
0.000177441
0.0001509
0.000153611
0.000149837
0.0782334
0.000204052
0.000172942
0.000208722
0.000153152
0.000147722
0.000148433
0.000148775
0.000147731
0.000162409
0.000149086
0.00015456
0.0144413
0.000146933
0.000199074
0.000147416
0.0258615
0.000157811
0.0248824
0.00014983
0.0409103
0.000155576
0.000146063
0.000170219
0.000161601
0.00015465
0.0803335
0.000147628
0.000147938
0.000144787
0.000175538
0.0437474
0.0580454
0.000234573
0.00018552
0.000153984
9.4893e-05
0.000173919
0.000150542
0.000179136
0.000161484
0.000178502
0.0190658
0.000161719
0.0869861
0.000155736
0.000186027
0.000150037
0.000148604
0.000169199
0.000147357
0.00167887
0.000151025
0.000149787
0.000147614
0.000145793
0.000148005
0.000145429
0.000147408
0.000146594
0.000178539
0.0464005
0.000148421
0.00274939
0.0285048
0.000155243
0.000154439
0.000192949
0.000147186
0.000148763
0.00014735
0.00017125
0.0290118
0.000173583
0.000223564
0.000148611
0.000201836
0.000147036
0.000147806
0.000150372
0.000176934
0.000148365
0.000164568
0.000153047
0.000183326
0.000147711
0.000154342
0.000175737
0.000172416
0.000193653
0.0284437
0.0354577
0.00018631
0.000148042
0.000151416
0.00015434
0.000145873
0.000188084
0.0398741
0.0184939
0.000974471
0.000191095
0.00026923
0.000148391
0.00014639
0.000153197
0.000144902
0.000147722
0.0341145
0.0538237
0.000204783
0.000146514
0.0417027
0.000156017
0.000149477
0.000155627
0.000202792
0.000147774
0.000152473
0.000175044
0.000146836
0.000182707
0.0640995
0.0826743
0.000166464
0.000146528
0.000149671
0.000190751
0.0320547
0.042442
0.0513676
0.000144596
0.0488517
0.000172421
0.000148816
0.000148195
0.0207482
0.00014746
0.0342877
0.022794
0.000173993
0.000170125
0.087072
0.085137
0.000153865
0.000160481
0.000205696
0.0620118
0.000162581
0.000148262
0.000145111
0.0211439
0.0122545
0.000170273
0.0498213
0.000146138
0.000169312
0.000202144
0.000153755
0.000165088
0.000149202
0.0519613
0.000236564
0.0419272
0.000148754
0.000149853
0.000183838
0.000178691
0.00014767
0.000322494
0.000147424
0.000144887
0.000148175
0.000165498
0.000145798
0.0448646
0.0761018
0.00033344
0.000148072
0.000145384
0.00900683
0.0001614
0.0101667
0.000169005
0.000147332
0.00425261
0.000158376
0.000160236
0.000147747
0.000146976
0.00017443
0.000187425
0.0473284
0.0562223
0.000228942
0.00014638
0.000200103
0.000200094
0.000178181
0.000205081
0.000149403
0.0523699
0.000147528
0.0747648
0.000157302
0.00014952
0.000147106
0.000155069
0.0536145
0.00747156
0.0319222
0.0671498
0.000176923
0.000152182
0.000149248
0.0613728
0.000159828
0.00014474
0.0850663
0.000169043
0.000147481
0.000193161
0.000204251
0.000148296
0.000144904
0.000146522
0.000203884
0.0229057
0.000149664
0.0572778
0.000147826
0.00014865
0.00014861
0.00014821
0.000188885
0.000147757
0.000151769
0.000149073
0.000174964
0.0267049
0.00017504
0.000215759
0.0518662
0.0607228
0.000159564
0.00018038
0.000247405
0.000222976
0.000158992
0.0596251
0.000148024
0.000147525
0.0119518
0.0649133
0.00026031
0.0819611
0.0559252
0.000149426
0.000154069
0.0505679
0.0613288
0.000147499
0.000215607
0.000176616
0.00788675
0.0616973
0.000261628
0.000149958
0.011039
0.000145943
0.000149721
0.000165388
0.000160806
0.0423491
0.000182223
0.000146114
0.000206596
0.000149912
0.000155782
0.000147777
0.0505982
0.00016323