/*--------------------------------*- C++ -*----------------------------------*\
| =========                 |                                                 |
| \\      /  F ield         | OpenFOAM: The Open Source CFD Toolbox           |
|  \\    /   O peration     | Version:  v2012                                 |
|   \\  /    A nd           | Website:  www.openfoam.com                      |
|    \\/     M anipulation  |                                                 |
\*---------------------------------------------------------------------------*/
FoamFile
{
    version     2.0;
    format      ascii;
    class       volScalarField;
    location    "350";
    object      omega;
}
// * * * * * * * * * * * * * * * * * * * * * * * * * * * * * * * * * * * * * //

dimensions      [0 0 -1 0 0 0 0];


internalField   nonuniform List<scalar> 
18598
(
0.0556509
0.266311
0.0222927
0.0681581
0.0216441
0.0338423
0.0450513
0.022161
0.252492
4.77992
0.0219438
8.72808
0.0215236
7.54028
0.0221351
0.0935932
5.50953
0.0332031
0.0237659
8.95782
0.0219355
0.0217524
9.20766
0.0217588
0.0216222
5.77903
0.361281
0.0219898
0.347512
0.0539139
3.95578
0.0221681
0.0229201
0.0675706
0.0443535
0.262625
0.0216558
0.0219423
0.0216398
7.84278
0.107195
0.580565
0.185078
8.51044
0.0253352
0.022433
0.0216354
0.548808
0.0216014
0.0216241
0.021794
3.58532
0.142476
0.128473
0.0217502
0.0218277
0.0219884
0.0221391
0.0215627
0.0342991
9.62269
0.246971
0.0219921
0.0217515
0.173547
1.52011
0.021563
0.0229107
1.61708
0.0215765
0.0263801
0.0385297
0.904011
0.137961
0.0220755
0.102102
0.0221005
0.0218249
0.0535255
0.0263796
9.78769
0.0225074
0.0219764
5.92471
0.0228523
4.09785
0.0215829
6.43393
0.0219661
0.0296032
0.0252048
0.120761
0.0250226
0.0944872
19.238
0.0218085
5.41265
0.0219256
9.13257
0.0697958
0.0219702
0.0221299
0.0294192
0.0381033
0.0517401
0.023234
0.0804561
6.54225
0.0219807
0.172539
0.0325296
6.8494
0.0221139
0.0291539
0.120662
0.0223757
9.54984
0.0331857
0.0290219
0.0216597
7.64679
0.021746
0.021846
0.0330285
6.11176
0.0243458
0.0243899
0.0524781
0.250416
0.021623
0.0215373
0.0578619
8.10063
0.0252294
1.24451
0.021797
0.0693589
0.0219837
0.0216335
0.0833933
0.250296
0.0218374
0.021981
9.35185
0.0218977
0.0230887
0.684062
0.114429
0.0219157
0.0323658
0.0231973
0.0291734
0.0218689
7.26667
0.0218013
0.0219015
7.59917
0.024481
0.021518
0.027813
0.0602735
0.0966913
0.0216117
0.0215986
0.0216247
6.9811
0.292629
0.0221724
0.054372
0.0577941
0.0220695
0.0413908
7.31857
0.141419
0.0258444
0.0217478
6.84762
0.0224197
0.0271713
6.12013
0.0588711
0.267813
0.0562405
0.0228699
8.73127
0.0319225
5.32427
5.87558
0.0220134
0.149529
0.0224602
0.0217353
0.0587654
4.80819
0.0288007
0.0216848
8.71722
9.55089
0.0576942
0.19011
4.56927
0.0218207
0.041257
0.0222846
0.0245401
9.23854
0.463451
0.0218732
0.0243489
0.024316
0.0576004
5.21173
0.0217154
0.0717211
0.11174
0.0304588
0.108139
0.0219148
0.0221286
0.0657621
0.0214844
0.0219276
0.023076
0.0220211
0.0383252
0.0219038
0.0218486
0.0219249
9.71761
0.0215933
8.23918
5.63249
0.0219239
0.0219409
0.274143
10.444
0.0227629
0.0321256
0.0217413
0.0250157
0.0245039
0.0551269
9.87651
0.0215557
0.0890806
0.0227225
0.0414053
0.0218378
0.0318767
0.0216899
7.19516
0.295737
6.40677
8.05504
0.0450608
9.14439
0.0385062
5.17629
0.0220006
5.90655
0.0270599
0.0525919
3.38742
15.6356
0.771105
0.0224071
0.0214822
4.64144
0.101345
0.025194
0.0216962
0.0220152
0.0538715
0.0218346
27.8168
10.5065
8.04172
5.66748
0.10669
0.0550656
0.05392
24.8842
0.023586
25.424
6.31977
0.030864
0.094791
0.0804725
0.0216959
5.33921
0.100105
0.548204
6.96992
0.333521
10.5667
0.0334581
0.0215569
0.266413
0.0393516
0.054514
11.2611
4.78921
0.0415998
5.8282
0.0256171
0.0864409
6.13466
0.0328402
7.49952
0.294229
18.3212
0.0243348
0.288769
5.90929
0.056941
0.0464074
0.0668161
0.0244132
0.0220049
3.72847
0.0228229
8.20886
0.0219384
0.0243844
0.0229924
7.04628
0.0221051
0.0792019
0.0298711
0.0226089
0.0247633
0.0227727
19.0656
6.36859
0.0216862
0.103736
0.0231651
7.14539
0.104185
0.0223345
0.0521024
0.226104
0.139974
4.84252
0.0220852
3.49976
5.5038
4.56859
0.124814
6.44675
0.0239988
0.0289118
0.0308782
0.0994873
0.112939
0.0218963
0.0559639
7.35097
0.0968899
0.0216874
0.0219761
5.08024
0.0220701
0.0216902
0.0215248
0.0217497
32.7568
5.072
0.0551024
6.17487
0.0520239
0.688504
0.0248693
7.66224
0.0221295
1.29556
7.36271
0.0229658
0.0219798
7.97631
8.6381
0.0220588
0.033193
0.0619299
0.0262905
5.29078
0.0219456
0.0222703
0.0214936
0.0310326
0.241714
0.0259221
0.0218548
0.0220865
20.983
0.0220574
0.0248575
0.0219802
0.178523
0.023138
0.0261589
0.0219882
0.0216805
0.0222641
9.59179
5.79715
3.00444
6.14977
5.08801
0.0542201
0.0220536
3.23338
0.0219776
0.0258381
0.0917111
0.0357115
0.0449755
0.0271343
20.9571
0.0287813
0.0224741
0.021904
0.0220831
2.60083
0.0244038
0.0253692
0.0245777
0.0230133
0.0470405
3.65915
0.0217312
0.366344
0.0223822
0.168955
0.0758734
4.41546
0.0215384
0.022063
0.113749
0.0218602
20.5705
9.52171
0.0221633
0.0219236
0.0220592
4.99401
7.1813
6.40055
0.0264548
0.237932
0.0215395
5.46745
11.8544
0.0222759
4.58921
0.0274006
0.0230454
0.022061
0.0252317
0.0220571
0.25617
0.0221692
0.0222637
6.13668
0.0967505
0.0219488
0.359547
0.0219928
8.69954
0.0241613
0.0217789
0.0219037
0.0217003
22.6098
0.0219043
0.0216884
0.0532163
0.0255697
5.81429
0.0691769
0.0215287
5.99786
0.088692
0.0399552
0.0221698
0.0231417
0.0221302
0.0221313
0.0294488
0.0219139
0.0235489
0.10851
0.0346931
0.1251
4.07076
0.0253102
0.0836193
0.0897433
9.35297
0.0217577
7.9464
0.138092
0.0220748
4.72944
0.0229448
0.0219033
6.74669
0.0221409
0.021964
6.6967
0.0405315
0.0244966
0.0232877
0.0216787
0.0323924
0.0218288
0.0223646
5.90976
9.14336
0.0222921
0.0223616
5.26979
0.0254538
0.0224494
0.0243699
3.18148
0.0229553
0.0218963
3.26476
6.39726
0.0216405
0.103056
0.0219565
0.0232165
0.247187
8.1216
0.357031
0.0217818
0.021906
0.827972
0.0230437
0.344645
0.0232277
0.0218585
0.0220459
6.35961
0.0220558
0.113097
0.0215579
0.426373
4.77439
20.801
0.309021
0.0219187
2.81668
0.0225504
5.32306
8.92124
0.0216097
0.0222691
5.6019
0.0719308
0.0299667
0.027787
0.0217564
9.97706
0.021937
4.44764
0.0220932
0.0248953
0.0217708
0.156405
0.0219816
0.0502936
8.46516
9.88075
0.0219063
0.0525028
0.0219097
0.0242122
0.175523
0.111466
7.41544
0.0215275
28.1773
7.05097
0.0218139
0.212034
0.0219866
7.84507
0.322104
0.0231437
9.90732
0.0220608
0.11352
4.7926
0.0567365
0.0217732
0.0221548
0.022101
0.0256458
0.0216803
0.0261999
0.0221982
0.0217348
7.23714
0.0217675
0.0517872
0.0222752
0.0218128
8.98335
6.27677
4.4997
0.0217658
9.85989
0.0218351
0.0243633
0.0217536
0.0225097
12.8481
7.04482
0.0218671
0.0216999
0.0691721
0.0215671
0.0226292
0.153038
0.0219802
0.0221728
0.0215722
0.0219781
0.0241173
0.0219194
0.263461
0.0231969
0.0219316
0.0540535
0.0227946
9.58416
0.407534
0.0228463
0.0220626
0.0242358
0.0640052
0.0218942
0.0410699
0.0214931
0.0222724
4.82152
8.57043
0.0219449
0.0221151
0.0229586
0.0217128
0.0241997
7.62632
5.14019
0.19498
0.0275248
0.154567
0.0223006
0.0516462
0.0282071
0.0855512
0.0385498
5.05332
0.0218983
0.0220248
8.07128
0.0218718
0.0216081
6.29985
0.0217214
6.09659
0.023534
0.0222499
0.021606
0.0220572
0.196971
11.0655
0.0496476
0.0217732
0.0226983
0.0219917
0.0444253
7.04224
0.0234719
0.679889
0.0221658
0.0219104
0.0225186
0.022047
0.0217087
0.0407738
0.0220418
0.381802
7.33212
0.0702287
0.0222761
0.0215143
0.0222778
0.0658731
0.0219861
7.07187
0.0318916
0.0229616
0.0617255
0.0686301
10.8962
0.0216696
6.46235
0.0221138
7.94343
0.0243411
5.41964
0.0407878
4.68544
0.0293167
0.0222676
0.0335122
0.0301455
0.0219804
4.9383
8.50958
0.0287584
0.0238651
0.0217118
0.181471
0.0221443
0.0216852
0.440383
0.0227772
0.190244
4.78106
0.0216763
0.242859
0.0221594
0.022035
0.453594
0.067876
0.0222697
0.241704
0.0221203
0.0505727
0.6511
6.40467
6.87309
7.29658
6.1402
0.037582
0.211734
0.0220912
0.032486
2.38623
15.6654
0.0274903
0.0503219
4.81006
6.07837
19.4476
0.744308
4.59891
0.0219395
0.0219333
0.0745485
0.0218791
9.49035
0.0424619
0.0225617
0.2936
0.0374407
0.022667
0.0229552
0.0216791
0.0222713
0.0218297
0.21112
0.0263153
0.0218454
6.05663
0.0219873
0.0552578
0.0561496
5.10944
0.0224368
5.43496
0.0224643
0.0216989
0.0237153
8.60938
0.0435137
0.0218526
0.022038
0.0222717
0.0514039
0.0220074
11.8991
0.145867
4.65755
10.4625
0.0224505
0.143911
0.339679
0.0219538
0.023213
0.0219172
0.0220707
13.3469
0.0221177
0.0216348
0.0249143
0.0784086
0.022438
5.6156
5.45797
0.0342363
0.0272369
0.0217906
0.0219883
0.927911
0.0222763
0.0227105
0.0227556
0.0220095
0.0215796
0.0220269
15.1788
9.35755
0.0220576
0.0226395
0.275555
5.20628
0.0215166
0.0217101
0.0219023
0.028763
4.69957
0.298531
0.0821438
7.21471
0.0219239
0.0538502
0.0219791
0.0295087
0.0246506
0.89364
4.69949
0.0219141
5.29673
0.0217428
0.0230679
0.030094
0.021908
0.0218175
0.0563362
0.0511875
0.0218002
0.0617566
6.79483
0.274706
0.20729
0.08199
0.0220472
0.0219262
0.0216523
0.0220328
8.69231
8.97886
0.081265
0.0250763
0.0219759
0.262883
0.0221145
6.48565
0.0220226
0.0217848
0.340957
0.0216517
0.02999
0.202804
0.0218403
0.0222641
0.0218665
0.0249077
0.144699
11.6963
4.67193
0.0216679
0.0252963
0.0220344
4.16304
0.173906
0.0216195
0.0238363
0.0220358
0.0257301
0.0776796
0.0217066
8.8102
0.085243
0.0222693
7.29287
0.104509
0.0219363
6.65363
0.0221116
0.0215854
6.26818
1.77
0.024502
0.437878
0.0217068
0.463489
0.0221642
0.0217475
0.0225994
0.0215217
0.0263496
0.0218322
0.0300145
0.0217078
0.800961
0.336739
0.0872507
0.0219776
4.27944
0.0760906
0.0951497
0.0221192
0.0223454
0.75178
0.0218304
0.0217174
0.0456355
0.136829
0.0215554
0.0258445
0.0219774
0.0421092
5.93497
0.0220601
0.0216633
0.0216403
0.0925853
0.0218949
0.0222424
0.0222383
0.113117
0.0218624
0.0217611
0.0218373
0.0420957
0.0224767
0.0219832
0.447253
0.0219634
9.28648
0.0236383
0.0219789
10.0166
3.80096
0.0592449
9.40137
0.0215719
6.68526
0.0216735
4.74626
0.0575642
0.0220558
0.023556
3.91212
0.875836
0.133893
0.0220974
9.76487
0.022987
0.0341112
0.337205
0.0501433
0.0215021
0.0216011
0.0244196
0.0222408
0.0219284
0.0227131
0.462616
0.0582295
0.0923413
2.18603
0.0300595
4.73313
9.74866
0.0221583
12.3912
0.049953
0.0223544
0.520228
9.46374
14.2141
9.67863
0.0401364
0.0296771
0.0216332
0.0284824
0.0222517
0.162989
0.311039
0.0229153
0.0224441
0.0702674
0.0230487
0.113221
0.0220493
0.0216706
0.0219187
0.021914
0.181102
8.74965
5.7429
0.0225376
0.0223144
0.0501888
0.0216185
0.0214525
0.0220656
0.0216389
5.77299
0.0273124
0.022095
0.157686
0.0231149
9.22558
10.1985
0.0218818
0.243796
0.0286153
0.0241089
0.0214578
0.0492846
0.0221807
4.83369
6.41788
0.0217659
8.56934
0.0406314
0.0333226
6.59328
0.0219395
0.0217782
0.0216685
0.0392762
0.048606
0.0233059
5.34975
0.0242133
0.0222338
0.878712
0.0232435
0.339323
0.0219363
0.0224515
4.79822
0.053249
0.0274052
9.22346
0.0396516
0.0237807
6.31455
0.0214989
7.21639
0.0218593
5.3637
0.0218037
7.16334
0.0229126
9.84181
0.021957
10.6262
0.0217428
9.09846
0.0223299
0.0219109
0.0393166
0.0219649
0.0702996
0.480782
0.0219379
9.072
0.0405575
4.89365
0.0219066
0.026194
0.021837
0.0443435
7.15382
0.0219495
0.909607
6.74034
8.14785
0.0216323
6.99129
0.0228208
0.0219145
0.0219382
5.01964
0.0468125
0.0216329
0.166271
1.09434
0.0220509
4.73529
8.12952
0.0416261
0.0224034
0.0504259
9.28613
0.168152
0.0521591
0.0378999
0.0226191
0.0221301
0.0236188
0.152632
0.0222618
0.0220286
0.0219371
0.0218198
0.0219779
0.0219291
7.43655
17.0071
0.0216566
6.95099
0.0462248
0.929698
0.0217405
0.0259703
0.0474018
0.0434116
0.0356715
0.377353
0.0222862
0.0219371
0.0222734
0.0221847
0.0219136
0.0227492
0.622416
0.198499
0.111816
0.0217736
0.0223481
0.021711
0.0221753
0.0218467
10.0908
0.385071
10.1694
0.0220495
0.0217882
0.0241336
6.28511
0.0231586
6.29027
0.0219595
0.481639
6.26952
0.0232132
0.0219349
0.0219018
0.0221989
0.0457487
0.038613
0.0252772
0.0377571
0.401288
0.957759
0.130586
0.0252231
0.0253182
0.307021
0.0219574
0.612332
4.67122
0.0226084
0.0507471
0.0275885
0.0218951
0.0222203
0.0483943
0.0217432
0.0318353
0.0223529
9.30751
0.021946
0.0316665
0.0259496
5.04873
0.0787281
9.87558
0.0216925
0.0214682
0.0221295
9.318
0.0216292
0.0219307
0.0296914
0.0346816
0.0624881
0.0978016
0.11839
5.75997
0.0215962
0.0221531
0.021796
0.0512743
0.0219507
0.106564
0.022261
0.0215949
0.0979474
0.0403907
0.0217793
0.0401965
0.0514287
0.840393
0.0216386
1.84822
0.0216701
5.54954
0.0230578
11.5146
0.142417
0.0595903
0.0218155
0.0283747
28.4694
0.0288505
0.0220976
0.115027
43.657
5.21846
0.0216395
5.06494
0.126942
2.87491
0.126628
7.81796
5.63669
0.0217245
0.0220603
0.0218398
0.0219159
0.0224911
0.0219756
0.0235343
0.0218903
0.0219782
5.69245
0.137086
0.0216299
0.278731
0.0217912
0.41632
0.0219938
0.522135
0.0219825
0.021837
0.0496829
0.0232813
3.35653
0.0231949
0.0216719
0.0218984
20.4486
0.0222767
0.0222584
0.190246
5.86149
5.69464
0.0216918
0.0265455
0.0669741
0.0218466
0.0218696
0.0225679
0.0215249
0.0220578
4.57358
2.49504
0.065503
0.0219613
0.0225057
0.0224477
0.0222848
6.72908
0.0497999
0.0217746
0.0217945
11.0075
0.0840472
0.0220368
0.129496
0.0278814
0.467974
0.0229804
0.0539293
0.0486842
0.0921372
6.14353
0.0218915
0.0698189
0.0518149
0.0219385
0.0218059
0.0219769
0.0223168
0.0219282
6.29491
0.025438
0.0447879
4.6005
29.2309
0.202746
0.023987
0.0219278
0.0221802
0.022118
0.0219508
0.0228129
0.0315201
0.0222853
0.0222223
0.0222769
5.96138
6.27621
0.0467768
0.0985082
0.0216967
0.0242014
7.95968
0.0225211
0.0284144
7.50396
0.313631
0.763964
0.0297249
0.0217532
0.0216957
6.54638
0.0247813
0.0219924
0.0413309
0.161728
0.0215235
3.54351
0.226246
0.0218151
7.50438
0.0246456
8.72677
0.321078
0.0561214
0.022597
0.028316
0.0876844
0.0219281
0.0218699
0.0221131
0.0220611
0.0929431
0.0996357
6.08139
0.02172
0.0799109
0.0221484
0.0389981
0.332707
0.0220537
6.38278
0.0822555
0.0219707
0.02452
0.0942839
0.0222978
0.022342
0.0790171
0.021802
0.0216256
4.7626
0.0404256
0.0306237
0.0246873
0.0216996
0.102898
0.0889758
0.0408153
0.075706
0.0215606
0.0657854
5.6087
6.57362
0.0258062
8.63054
0.0220018
0.576401
18.6002
1.22621
0.0225231
0.0223579
0.0219891
0.0219572
0.238126
0.0660239
0.103281
0.0218019
0.0876263
0.021519
0.0218764
5.69122
9.81411
0.532303
0.0220114
5.16625
0.0216145
0.068017
0.0218842
0.115225
0.0217176
0.0220033
8.53214
0.0700427
0.0221148
1.03463
0.0597301
6.23225
0.0223884
4.85182
0.0841584
0.0220514
0.021885
0.234654
0.0239248
0.0219193
0.219107
0.0259944
0.0537213
44.7174
0.0218398
0.12389
0.973681
0.0219787
0.0216879
0.252111
0.0218857
0.0279664
6.32047
0.116126
0.021966
9.8115
0.0219802
0.0219824
1.82197
0.0219702
0.046922
0.0421207
0.0218897
0.0218005
0.0218386
0.140418
0.59095
0.0217915
0.0221028
0.0222691
0.0392311
0.0226689
5.92482
0.0221958
0.0219145
0.157432
0.0421848
0.0948018
0.0557423
0.0232105
0.0483535
0.0226297
0.0363571
0.0217562
0.0409104
0.6667
0.0220658
0.0221522
0.0219808
0.0219569
9.84089
5.70094
0.0230937
0.0217516
0.0220141
0.0224195
0.02312
15.0142
9.27985
0.02193
0.0923403
0.0226069
0.0411545
0.0221932
0.0220235
0.0721295
0.374848
0.0827668
0.0220144
0.0222592
0.0367446
0.0217676
6.36718
0.021637
0.0934415
0.0994937
0.0254526
0.251445
0.021952
0.272815
0.0218837
0.0513406
0.0220193
0.0219475
0.0393166
0.0222711
0.0428496
0.0372783
12.8766
11.0703
9.88522
0.0217414
0.0219274
0.0222374
0.0280012
0.0273608
0.02382
0.0218724
0.0218399
7.9537
0.0219546
0.0457166
0.0422881
16.1924
9.18554
0.0230487
0.0380985
6.3469
0.94921
0.0218519
8.65753
9.05534
0.023753
9.18096
0.0218391
0.0222416
0.170543
0.0325972
0.0216771
22.8418
0.0319256
0.0995237
0.021627
5.50663
0.0413778
0.123754
9.87336
0.154635
0.642737
0.0221562
0.0230133
0.0353129
0.0218508
0.138429
0.0218959
0.0218756
9.19166
0.0216836
3.25795
4.56703
0.0219604
0.0219653
0.0397826
19.572
0.0342779
0.0219658
0.0225989
0.0334221
0.0302297
7.22955
0.0275276
0.0226116
8.07513
12.8023
0.171294
0.0517765
0.0267239
7.22355
6.36315
0.0216324
12.2609
0.140765
6.85575
0.0258074
0.0220149
0.0221526
0.0218163
0.0219259
0.688067
0.0219726
0.124838
0.0219671
0.0216873
0.0248274
0.0220674
6.40329
0.0513774
0.0222306
0.0220067
0.0217017
0.0266087
0.0680379
0.0222377
0.0266764
0.0218626
0.0223201
0.0315903
13.6745
0.0218416
7.26034
0.0240171
4.85839
0.0262584
7.31037
0.0216265
0.0220124
0.0226516
0.02162
5.23073
0.0216128
0.0340312
0.0222754
0.0515107
0.0938039
0.142741
0.0233311
0.0221981
0.0597455
0.0221172
0.0217301
0.0218417
0.0221187
0.0219423
0.0945372
0.0672293
0.0216283
0.0219113
0.0671689
0.185539
0.0218665
0.0247763
5.56058
4.46478
0.076482
0.0226136
0.101837
0.0222815
0.0218153
0.0516194
0.021925
5.98854
0.0421503
0.0217204
0.0218678
0.0696071
7.42494
0.104131
0.0220567
0.0220674
0.0221568
7.90807
0.10936
0.0232273
0.0739499
0.752353
0.26245
0.0221812
0.0686922
7.36803
5.18777
10.0897
0.271084
0.0221693
0.0221495
6.52449
14.8665
0.0216147
0.0946295
6.10306
9.45921
0.0218874
8.6202
0.0219936
2.99562
0.0219249
0.173049
0.0221631
0.0221655
18.581
0.0218773
0.0242247
0.873215
0.0219727
0.128128
0.0219511
0.0672022
0.0220643
6.28694
0.0216076
0.0275221
0.0225479
9.57481
7.31272
0.0222769
0.0328751
6.1196
0.0217383
0.0240775
5.54229
0.0226205
0.0219703
0.022038
0.022068
0.18879
0.0280492
0.0218975
0.0220119
0.044801
0.0220564
7.00095
0.0248954
0.0240945
0.0383069
0.0222708
0.0219648
0.0219752
0.0223846
0.0220638
0.0220886
8.01492
5.83927
10.7292
0.0218665
6.71521
0.0299189
6.57864
5.39501
18.5147
0.0216487
0.0218121
0.0219865
0.0217464
5.42061
0.0218768
0.174899
0.0224229
0.123247
0.0217233
0.021743
4.67385
0.0217472
0.0535654
13.2564
8.77584
0.0218458
0.0242062
0.026074
0.157678
0.0226057
0.0951185
2.49704
0.0233824
0.606196
0.0217425
0.0408453
0.0219161
6.36628
0.0266477
0.0689242
5.53755
0.0260894
0.022034
0.0258852
0.0222621
0.0219455
5.32542
0.0261743
0.0240839
0.0222763
0.02192
0.0749822
10.5034
0.0341674
7.03117
2.42203
0.037528
11.0631
0.0222893
0.0221499
0.0218085
0.0217677
0.0242852
0.137203
0.0215064
6.22864
0.0773187
0.149302
7.07666
0.771474
0.0404037
3.03653
0.0222356
0.119846
6.34991
0.034019
7.15012
0.848026
6.95443
0.364429
4.86809
0.271287
0.0399453
0.022064
0.547221
0.12127
0.0218431
0.0521533
0.0265292
0.0645132
6.94022
0.0288912
0.022189
0.0218286
0.114377
6.55888
0.0229388
0.0222152
0.0340896
2.89258
0.021874
1.1251
0.0218501
0.0230108
0.0484626
0.0220925
0.0219564
0.0221429
6.17326
0.0218392
4.76822
0.0481197
0.0221674
0.0614722
0.0222119
0.0218103
0.349152
6.18418
0.0216668
0.0221216
0.433881
0.145252
0.0221608
0.0220083
0.0262444
0.0498624
29.0946
0.0364238
0.0258917
0.0214418
5.4356
6.68752
0.0219578
0.168717
4.96564
0.022388
6.23364
5.13137
8.6418
0.0220793
0.071867
0.0231858
0.0215711
0.225267
4.59788
0.0718592
0.0220517
5.91701
0.021601
0.0218543
0.278897
0.0219961
0.168585
0.0219378
0.0222532
10.9624
0.277196
0.0214724
0.0218388
0.021999
0.251
8.1747
0.278304
0.301047
0.0224191
0.0230759
0.0218416
0.0221727
21.4201
8.59607
10.8169
0.0880757
4.09166
0.021832
0.0245735
0.0322562
0.0240811
0.0221413
0.0295491
0.021936
0.0221218
0.0219351
0.0222131
0.0218271
8.07119
0.0221949
0.021844
0.160941
0.0254066
0.0544121
0.0218508
0.0747445
0.021946
0.0231561
0.0222525
0.0216551
5.55382
5.27453
0.0272058
8.49875
0.279668
0.0219295
0.0298256
0.0218642
0.0224738
0.0273255
0.023027
0.021965
0.0739816
18.3485
6.48178
0.155797
0.0218225
0.0217988
0.0273767
0.0264161
0.0692262
0.0223054
4.67548
0.314129
0.0217685
0.0250195
5.36176
0.0217645
0.343795
5.45988
10.9854
0.0273589
6.72939
4.80004
0.301301
0.0215783
0.0220572
0.0217434
0.0218621
8.24407
6.33835
0.180302
0.0471668
0.0216506
0.0217079
0.0220159
6.45078
0.0217715
0.0218741
6.18225
10.0638
0.0227693
0.0219912
0.0221145
0.266847
0.0217312
0.0252405
0.0231582
0.0220234
0.0219762
0.325244
0.0220282
0.0216217
0.0221643
6.43282
0.026917
0.168831
0.040217
0.0218684
18.144
0.0222228
17.821
0.0221681
0.987084
0.0220017
0.0219008
0.0218446
0.0250948
0.0465728
0.0219749
0.0215939
0.0221474
8.58655
0.0236667
2.91123
0.0324412
0.0218671
0.294333
0.0255096
0.021646
0.0220876
0.0871067
0.022186
5.43789
0.0220312
0.0222794
0.0903701
10.3022
0.0405022
0.0225449
0.0350264
0.0227076
0.0219704
0.0460267
0.0219343
0.0468744
0.0217108
6.10409
4.85281
0.0418249
0.0219764
0.0215294
11.6577
0.021845
0.0291676
0.0362744
43.1217
6.71302
0.0394149
9.47088
0.0219948
0.021854
10.047
0.268939
0.0219733
0.117389
0.0223896
0.0223081
0.0222745
0.15773
0.0219371
0.0384287
0.470391
6.99006
0.0217156
0.0290752
1.39699
0.0220674
0.0256491
0.0238597
0.0222541
7.39554
0.145582
0.0225111
0.212857
0.0254089
0.575378
0.253132
0.021806
0.0220719
0.0400301
0.0225322
5.77846
0.263512
0.0222662
0.0238033
0.0225037
0.0517614
0.0219323
6.3238
0.0791051
5.42871
0.0215664
0.023501
13.6476
0.0221751
7.03017
0.0216188
0.0220708
0.047901
0.0224209
0.0356564
0.318016
4.68184
6.75506
0.034705
0.0221364
0.021507
0.0219188
0.0495872
0.28989
0.0667149
0.520789
5.21351
0.0222076
0.0354401
8.46857
0.0220583
0.0231236
0.0259233
1.58081
0.0280081
0.31315
0.0218474
0.277451
0.0215839
11.3471
0.0376825
0.0592298
0.0487592
18.0686
0.239137
0.213322
0.0754392
0.0345711
0.0221312
11.4868
8.73269
0.021823
0.036859
0.0220156
0.0216136
0.0216199
0.183469
0.0501829
0.0218923
0.0495988
0.162981
0.0216596
0.021502
14.9885
0.0258924
0.038749
0.149867
0.0225647
0.0224498
0.0219086
0.0220733
6.67699
0.0215207
0.0217013
0.283602
0.0220417
0.0300492
0.339413
0.146557
5.65127
6.25599
0.0253309
1.08151
0.022052
0.0452816
0.0274993
0.025483
0.0222842
0.0220581
0.028082
6.39264
0.0218654
0.0220084
1.59844
0.0219135
0.0590022
0.234758
0.0216042
0.031001
0.0218862
0.0216233
18.8541
0.0218586
0.0222549
4.51268
0.0214417
0.0619408
0.366967
0.0218249
0.119799
0.266748
0.27563
0.021539
0.022091
16.2766
0.0217206
4.6772
0.166469
11.2656
0.0216453
0.0626938
0.0214175
0.0222293
0.0220491
0.0218491
0.0217992
6.29085
0.0216386
4.45215
0.0220538
9.02208
0.0219764
0.118997
0.774567
0.0449488
0.0220434
0.0221498
0.0430609
0.022376
0.264231
0.0883599
39.4262
0.0221187
0.02281
0.0225633
0.0239636
0.0624591
0.0231387
0.0245896
0.0222778
13.7326
0.235539
0.0432509
0.238943
0.0240559
0.0219857
0.0220835
0.0221438
0.021937
0.0485078
0.0221742
0.0265113
4.65102
0.0217162
0.237083
0.0219208
6.91082
0.0280666
7.64555
0.0222767
4.62486
0.0273185
0.0216261
0.0404828
0.142065
0.0245294
11.2359
0.0219722
0.0219408
0.0215369
0.145739
6.09917
6.30297
0.363722
0.10429
0.0256779
0.744388
0.0632724
0.0228876
0.149055
0.0459832
0.086054
4.80667
0.0310271
10.4473
0.0257614
0.0975613
0.0226698
0.0221062
0.0794758
0.0219317
2.67722
0.0231976
0.0222708
0.0218554
0.0216777
0.0220235
0.0216202
0.0219344
0.0218226
0.175698
6.12779
0.0220808
9.46106
6.60324
0.0263512
0.0244977
0.145444
0.0218465
0.0221285
0.0219158
0.0473327
5.45389
0.0479282
0.317283
0.022107
0.263386
0.0218741
0.0219235
0.0224233
0.0603742
0.022074
0.0328156
0.0248298
0.111092
0.0219741
0.0263046
0.0540142
0.0466395
0.152247
5.82604
5.5409
0.126899
0.0219694
0.023488
0.0255964
0.0217176
0.113032
6.36002
10.5222
2.74297
0.144894
0.954539
0.0220226
0.021683
0.0239045
0.0215818
0.0218581
5.32971
6.1813
0.319908
0.0218123
6.79656
0.0279969
0.0224229
0.0267821
0.206661
0.0219897
0.0231669
0.0521271
0.0217992
0.192066
8.26981
12.3641
0.0821795
0.0218013
0.0222551
0.137847
7.10458
5.42656
5.61611
0.0215313
5.42267
0.0882115
0.0221361
0.0219874
5.06886
0.0218485
7.44256
4.34426
0.0964082
0.0674864
10.2349
10.9672
0.0257649
0.035054
0.229607
7.53524
0.0329213
0.0220583
0.021606
4.92687
6.6131
0.0450116
5.74938
0.0216999
0.0390739
0.215388
0.0249074
0.033554
0.0221902
6.32205
0.599683
6.3227
0.0221277
0.0222799
0.178317
0.0972453
0.0219777
0.496091
0.0219377
0.0215174
0.0220474
0.0541919
0.0217059
8.10278
9.40797
0.986558
0.0220344
0.0216443
4.5692
0.0291185
5.18336
0.0413375
0.0219292
4.47802
0.0324877
0.0383438
0.0219319
0.0216923
0.131428
0.112511
5.99724
6.3289
0.379408
0.0216854
0.196028
0.198401
0.0823166
0.227619
0.0223508
6.5279
0.0219416
8.97404
0.0273935
0.0220411
0.0218995
0.0271988
6.35822
5.76427
5.10183
8.8047
0.124439
0.0237349
0.0221967
6.68323
0.0279353
0.0215315
10.7818
0.0393277
0.0219475
0.167398
0.242794
0.0220647
0.0215652
0.0218125
0.296523
6.97071
0.0222539
7.80183
0.0219896
0.0220799
0.0221069
0.0220528
0.103718
0.0219381
0.023497
0.0221728
0.0524722
11.5516
0.0971799
0.643333
5.72832
6.56794
0.0283451
0.0719517
0.567734
0.330155
0.0328812
8.76949
0.0220281
0.0218997
12.1736
6.88473
0.680063
10.2364
6.37891
0.0221261
0.0251353
6.26072
6.61292
0.0219103
0.297045
0.537661
4.96032
6.67095
0.609737
0.0222943
16.5641
0.0216
0.0222618
0.0710445
0.0337414
6.11168
0.0722579
0.0216894
0.233576
0.0222879
0.0271505
0.0219203
6.2652
0.0368833
8.99958
0.0220949
0.0844685
0.0216766
0.0219298
6.22277
6.26021
0.0221498
6.96126
0.0217006
0.313056
0.482826
6.30823
6.44293
0.0795452
5.28087
0.0867233
0.0215161
8.28139
0.856733
0.0298657
0.0221841
6.23645
6.20651
2.30501
0.0218653
0.0219827
5.04124
0.160248
6.66882
0.155311
0.0682131
0.0219352
8.60272
0.0313867
6.51058
0.0225646
7.20248
0.0258775
0.0221691
0.269003
0.377753
0.0519625
6.45027
0.111648
0.0220118
7.77002
0.022584
0.0219772
0.240348
0.0222709
0.131136
0.0219339
0.0216448
0.0220059
0.0257372
0.0244025
6.18673
0.0283484
0.0217234
0.0218101
0.0217936
4.28897
0.0716497
4.88322
0.0261426
6.32383
0.022094
0.0224492
0.0623361
6.92991
4.94404
0.0219183
7.8094
5.12674
0.251868
0.0474321
0.0601683
0.638108
0.0924802
0.056098
10.4369
0.271692
0.021733
6.52532
6.59331
0.0765719
0.0220296
0.0218811
0.244908
5.8487
0.0287104
0.323315
0.0218873
0.02195
8.63441
0.0220133
0.141477
0.0454405
0.0219149
0.0219431
0.151682
0.0320626
0.0216062
0.0270008
6.34003
4.7723
4.11848
0.0218753
11.0636
0.0218056
0.0218708
39.6956
0.0220258
0.507931
0.0219173
0.464144
0.141594
2.86076
0.0223332
4.6381
0.088775
6.63627
0.0219293
9.28673
0.0219631
0.0237706
0.0218085
0.319511
0.383599
0.0220782
0.0248465
0.0215311
0.0220259
0.0250353
0.0220593
0.0996596
0.0297533
0.0220303
5.85743
0.0220692
0.0240398
0.0217459
0.0219824
0.0222785
0.0219143
0.022031
0.0218038
0.0223938
0.244445
7.57874
0.611779
0.022214
0.0965312
8.75882
0.0221182
0.0740197
0.0828407
0.0227363
0.025215
0.021933
6.37205
0.0218215
0.0332704
6.44945
0.0875543
0.0232931
0.0273213
0.062703
0.0218892
0.0317718
0.0221585
6.61246
0.0229903
0.0809354
0.0218243
6.65325
0.0620078
0.0835186
0.0218991
0.022277
0.0220894
0.0221887
0.0219555
0.644745
0.0217315
7.15593
0.0220545
0.0247807
4.97006
0.0639053
0.0292318
0.223201
6.43864
0.0230859
0.0216591
0.0334037
0.0220919
0.0219762
0.0229815
0.0216407
0.333603
0.0317355
0.0221045
0.0219284
0.0217089
0.026041
0.0220787
0.264842
0.243293
0.0220212
4.84936
0.0216542
0.342455
0.0218563
0.0218663
0.0429151
0.287643
0.02217
0.0293193
0.0214527
16.5503
0.0239972
0.022521
0.0261345
24.632
14.3468
0.0652488
0.0261461
0.0219567
0.0233024
6.96337
0.0218567
0.0265426
1.33333
0.021942
4.95604
0.0606904
0.0683879
0.023877
0.0228709
0.0220277
0.0222585
7.10951
0.0220644
0.0228972
0.0894741
0.0219403
0.0383076
0.0226166
0.114204
0.0218741
0.737161
0.0223883
0.0250578
0.0220465
0.749519
16.5917
0.0220441
0.0266926
8.42695
0.048619
0.0282224
12.8106
0.0221327
0.0628435
6.87429
8.37546
0.0401829
0.0220224
0.0219247
0.0222854
0.0220068
0.316064
0.0229146
0.467807
0.239483
0.0217147
0.0582773
2.95803
0.0220343
0.0734389
0.0616755
1.2133
0.0226915
0.0359759
0.0217513
0.0221297
0.0219444
6.49768
0.0933292
0.114787
0.0222964
0.0216475
0.022033
0.0215125
17.8309
0.0218189
0.0635968
0.0222722
5.71999
0.0223036
0.0220526
0.0903624
10.3836
0.0218982
0.0297883
0.212397
0.205115
0.0215709
0.0229073
0.066074
0.0220058
6.56649
5.73746
0.0245879
0.0323107
0.0219432
0.0219228
0.310585
0.0217184
4.22899
0.0218112
0.219422
0.0217995
0.0219155
5.62839
0.0238258
0.0224111
0.0217793
0.0296179
0.0261502
0.0299893
0.021834
6.55738
0.179741
0.0238268
0.0681683
0.0243898
0.0217047
0.0236549
0.0217081
0.307979
0.0564172
0.331053
0.0416911
0.021673
0.123719
0.0221629
5.03206
0.0255439
7.47813
0.0225431
0.091259
5.15846
7.99878
0.0242687
0.0372811
0.228143
0.14793
9.05231
0.0220266
0.026739
0.0228922
0.0493504
0.0242319
8.04228
0.0221668
0.0218191
0.0222071
0.0218907
0.0222299
6.41531
0.0218379
0.0219332
6.45179
0.0219764
0.0220007
0.0677678
7.60238
1.58586
0.0383474
0.0314565
0.0266976
12.3651
6.11197
0.0221053
0.0628865
6.33285
0.0214528
0.02432
0.0219909
6.30174
0.0923818
0.215076
20.4911
0.0220742
0.0219274
0.030306
0.0267715
0.0220621
4.89493
0.0370723
0.0219004
0.02192
6.24519
0.0220908
0.0309644
0.0231028
0.022036
0.0219837
4.90886
0.0272168
0.0904594
0.0227269
0.0219094
1.63055
0.0220282
0.0222452
8.81306
0.0217499
0.022119
10.26
0.0217093
0.105625
0.0236952
0.225279
0.0240772
0.217882
0.219517
0.14528
0.0222243
6.3345
0.0219137
0.0218389
4.77968
0.025646
5.0917
7.36813
0.0216279
0.0220197
0.128055
0.0864389
0.0867877
0.0219905
0.0216265
6.41569
0.0291396
0.0214866
0.021931
0.0879239
0.0220689
8.27834
0.0758265
0.0384941
0.0230794
0.0227663
19.1497
0.0220293
0.0216273
0.140414
0.031977
0.0219936
0.0219604
0.0222401
0.021725
0.0821954
0.197924
0.0219375
0.0214772
0.0224669
0.0219266
0.0530666
0.0218925
0.0220484
0.0221336
6.21095
0.0216083
6.56971
7.82992
1.64059
5.48367
0.022323
0.079328
5.24921
0.0256135
0.0218878
0.022018
0.0276068
0.0220528
0.732499
0.553574
0.0223421
0.02596
0.0221018
0.0298383
0.030692
0.243367
0.0393788
0.265789
0.0214933
0.824962
0.259978
0.0707038
0.0219469
0.950122
0.0220025
12.9391
8.77297
0.0219337
5.10085
0.0222353
0.0607202
0.0221309
0.0552649
0.061908
10.7802
0.0215043
0.102489
0.0853127
0.0475733
0.0219107
0.0217294
4.56236
0.418425
0.0224459
0.0222126
0.0269335
0.028202
0.823182
0.0217843
0.233668
0.0465883
6.74144
6.9859
35.8065
0.022409
0.0217941
0.107481
0.0215958
0.0284555
0.0219626
0.0876301
24.295
0.421707
0.0304707
4.92974
0.0219279
0.0368074
0.0879875
0.105722
11.3985
8.13734
0.021898
0.0221739
0.0790186
0.142934
7.39103
1.27218
0.0219872
0.0220074
0.0268667
0.0888631
4.68685
0.0218871
6.14318
0.0219143
7.22766
0.214755
0.0222162
15.8787
0.0221792
5.55691
38.5043
0.0254351
0.300934
0.493713
9.84515
22.059
0.0228128
10.4998
0.0275745
0.666687
0.0219981
0.28576
0.0219833
0.039557
10.3055
0.0842927