/*--------------------------------*- C++ -*----------------------------------*\
| =========                 |                                                 |
| \\      /  F ield         | OpenFOAM: The Open Source CFD Toolbox           |
|  \\    /   O peration     | Version:  v2012                                 |
|   \\  /    A nd           | Website:  www.openfoam.com                      |
|    \\/     M anipulation  |                                                 |
\*---------------------------------------------------------------------------*/
FoamFile
{
    version     2.0;
    format      ascii;
    class       volScalarField;
    location    "50";
    object      ddt0(k);
}
// * * * * * * * * * * * * * * * * * * * * * * * * * * * * * * * * * * * * * //

dimensions      [0 2 -3 0 0 0 0];


internalField   nonuniform List<scalar> 
18598
(
7.82964e-08
1.79758e-06
1.71491e-10
3.96083e-08
-1.34788e-08
1.32433e-08
6.23907e-08
3.53594e-08
3.00721e-06
0.000180556
-1.72108e-08
4.48649e-05
-4.29378e-08
4.91428e-05
-4.16716e-09
1.62139e-07
0.000111819
1.19688e-08
-8.20482e-09
9.2599e-05
2.64003e-09
8.9734e-08
0.000149155
1.60009e-08
-1.82659e-08
0.000124854
5.17761e-06
-2.11304e-08
5.87417e-06
7.7202e-08
0.000111165
1.04065e-08
2.70742e-08
1.05669e-07
6.30016e-08
2.3894e-06
-1.23457e-09
7.21955e-09
-1.91405e-08
5.61574e-06
7.66393e-08
-2.98823e-06
1.21424e-06
4.59105e-05
6.16448e-08
1.24491e-08
7.98693e-08
9.49664e-05
-1.07355e-08
-1.88031e-08
2.17403e-09
3.91265e-05
2.36736e-07
2.56477e-07
-3.90923e-08
-6.70587e-09
-1.41754e-08
-7.01386e-09
1.01298e-08
4.47239e-08
4.89686e-05
1.27286e-06
-1.24451e-09
6.33344e-08
6.19187e-07
0.000119439
9.32097e-09
-1.38299e-08
-9.60383e-06
-5.55491e-09
1.67306e-09
5.86406e-08
0.000105889
2.38915e-07
-5.48799e-08
6.97559e-08
-7.55479e-09
-3.05571e-09
1.16648e-07
-5.57293e-10
0.000121869
1.99397e-08
2.19776e-07
0.000129697
2.53605e-08
0.000119648
-1.80606e-09
6.34006e-05
-8.17579e-08
-1.9157e-08
1.00121e-08
2.95037e-07
5.65556e-08
5.65107e-06
1.22726e-05
2.06529e-09
8.94075e-05
-7.24283e-08
0.000103226
1.08353e-07
7.55567e-08
-1.48428e-08
-2.80722e-08
4.73228e-08
1.01391e-07
1.22874e-08
1.75996e-07
5.10156e-05
-9.9297e-09
6.31103e-07
4.88979e-08
5.71278e-05
2.89731e-08
-2.07801e-08
2.64945e-07
-2.89042e-08
0.000116191
4.52043e-08
3.98595e-08
9.38373e-09
2.56045e-05
-2.23485e-08
7.6778e-08
3.46677e-08
0.000109469
5.93361e-10
-4.20632e-09
9.83274e-08
2.74761e-06
1.64088e-08
1.0058e-08
-1.6346e-08
0.000118991
6.33289e-09
-6.86445e-06
-5.42451e-08
7.019e-08
6.14059e-09
1.04522e-08
1.42118e-05
6.09133e-06
-2.78487e-08
-5.0855e-08
-2.1413e-06
9.40026e-08
-3.17294e-08
7.62214e-05
2.49128e-07
1.92451e-08
6.94457e-08
4.70637e-09
-3.20815e-09
-1.64504e-08
2.5068e-05
-4.71903e-08
-1.4372e-09
2.09551e-05
1.87429e-10
-2.46595e-09
-9.65711e-09
5.53283e-08
4.3748e-06
-3.93089e-08
2.28527e-08
-2.83538e-08
4.2393e-06
3.28192e-06
3.24237e-08
1.36879e-07
4.87929e-08
-3.95228e-08
-6.34737e-09
1.17849e-06
4.54806e-07
9.96703e-09
2.7763e-08
5.50648e-05
-3.19305e-08
-3.03432e-10
3.37402e-05
6.87026e-08
8.0708e-05
6.4793e-08
2.63304e-08
5.13942e-05
6.16959e-08
0.000128379
6.6768e-05
-6.8703e-08
5.41038e-07
1.84949e-08
-6.02007e-08
8.63712e-08
8.98387e-05
-2.32386e-08
7.3348e-09
9.60065e-05
4.22664e-05
4.53528e-08
1.49673e-06
9.25849e-05
7.66513e-09
1.04969e-09
1.84142e-09
3.29004e-08
9.92638e-05
2.55932e-05
1.99482e-08
-2.20235e-09
1.84481e-08
9.60808e-08
9.89679e-05
4.95386e-09
8.30935e-08
2.29733e-07
-1.65007e-08
2.24995e-07
-1.00174e-08
-1.6253e-08
5.01377e-08
8.45185e-09
-4.02373e-08
-3.73467e-08
4.10139e-08
5.40912e-08
5.2166e-08
-2.8188e-08
1.27541e-09
2.01048e-05
-4.59599e-08
0.000133624
5.92414e-05
-7.20814e-08
2.73981e-08
7.45025e-08
0.000142254
1.77094e-08
6.44856e-08
8.42938e-08
1.46364e-08
-3.29062e-09
7.81258e-08
4.73108e-05
1.54623e-08
8.67071e-06
-1.28505e-07
8.2291e-09
3.22459e-08
-1.09121e-08
-2.52379e-08
3.2154e-05
-2.17653e-07
6.76403e-05
0.000106453
3.65075e-08
0.000127934
5.92842e-08
0.000143667
8.13147e-08
0.000131181
-2.15829e-09
9.75085e-09
0.000150494
-4.07948e-06
3.84162e-05
2.98312e-08
8.0812e-09
0.000154855
2.61684e-07
2.33824e-08
-2.65753e-09
-8.16875e-09
6.26888e-08
-2.85282e-08
-6.50069e-06
0.000116109
1.88255e-06
0.000116359
1.20239e-07
2.10807e-08
6.78177e-08
0.000144771
-2.36743e-08
-9.65306e-06
0.000111218
1.51662e-07
2.04541e-07
1.48097e-07
2.02809e-08
0.000128883
2.22179e-07
0.000104469
5.92365e-05
6.04811e-05
-5.8991e-05
6.59024e-09
1.00958e-08
1.59621e-06
2.58683e-07
1.04127e-07
0.000164755
0.000174636
8.83079e-09
0.000101423
2.28047e-08
1.78765e-07
3.91879e-05
4.24851e-08
5.5397e-05
5.88989e-06
-6.85445e-06
1.2414e-08
1.69713e-06
6.46763e-05
4.67886e-08
3.64607e-08
8.37695e-08
7.57266e-09
1.13802e-07
0.000118855
7.05598e-09
0.000110695
1.63009e-08
5.03228e-08
-3.22671e-08
0.000137156
-1.30363e-08
-1.68553e-06
-1.98486e-08
-1.12788e-07
-6.47462e-09
-1.21794e-09
1.48632e-05
2.83888e-05
-1.5777e-09
1.78189e-06
-1.0498e-07
5.40763e-05
8.69486e-08
-1.5085e-08
5.96596e-08
9.65042e-07
1.0237e-07
9.00126e-05
3.22268e-08
0.000105165
6.58393e-05
8.63028e-05
2.91394e-05
1.33299e-05
7.68018e-09
9.97001e-09
-4.67539e-08
5.59232e-07
3.07695e-07
4.83861e-08
-9.58998e-09
2.51754e-05
2.15909e-07
3.27256e-08
2.48785e-08
0.000107189
8.73549e-09
-9.47507e-09
7.82091e-09
-1.81177e-08
3.71915e-06
9.19479e-05
3.62525e-08
6.0703e-05
6.70999e-08
3.19835e-05
1.64375e-08
3.99209e-06
3.69879e-08
0.000129538
0.000157148
-3.48291e-08
-1.00846e-07
6.34483e-06
7.95413e-05
1.4735e-08
7.84459e-10
8.15075e-08
-1.56956e-08
0.000160051
7.63589e-08
-9.18774e-10
1.14608e-08
9.45517e-08
1.47238e-06
-2.35914e-08
-2.32265e-09
-6.47491e-08
2.08019e-05
2.84505e-08
1.61253e-08
-3.05059e-09
9.73329e-07
-2.80303e-08
-1.26272e-08
-9.5186e-08
1.97147e-08
1.27376e-09
1.76805e-05
0.000126685
9.63584e-05
7.4275e-05
9.15983e-05
1.18803e-07
-1.46778e-09
2.92935e-05
2.80007e-07
-2.77729e-08
1.70838e-07
3.445e-09
4.11347e-08
-6.00411e-08
-3.56045e-05
1.0112e-08
2.5326e-08
-1.27131e-08
4.11763e-08
2.32477e-05
3.09571e-09
1.31993e-08
7.27398e-09
-1.61184e-08
3.35289e-08
0.000115403
4.16682e-08
5.46712e-05
-1.3356e-09
8.59787e-07
-4.26703e-07
0.00011613
-8.42759e-09
1.12156e-08
5.02282e-06
-5.01368e-09
1.02023e-05
3.02128e-05
-1.54017e-08
1.22558e-08
1.57452e-08
0.000137723
0.000164755
6.47551e-06
1.69521e-08
3.45529e-05
-1.09532e-08
8.78282e-05
2.63014e-05
5.74055e-09
-0.000125377
1.39658e-08
-4.63867e-08
-1.28044e-08
-1.14281e-08
1.74592e-07
2.63978e-06
7.64889e-09
6.04635e-08
7.05627e-05
1.52544e-07
2.67429e-08
5.60086e-05
4.25024e-08
3.81071e-05
4.96069e-09
-7.00027e-09
-1.13346e-08
-5.83199e-08
7.27122e-05
-2.3432e-08
5.16826e-08
4.26759e-08
7.59728e-09
0.000159966
9.60148e-08
4.6292e-09
-6.69164e-05
1.40298e-07
3.46526e-08
3.69544e-09
1.56492e-10
-7.76016e-09
-1.11237e-09
-2.70594e-08
8.87144e-09
7.05737e-09
3.0474e-07
4.75338e-09
4.67268e-08
0.000111914
3.37636e-09
1.67174e-07
1.51956e-07
0.000104678
7.97829e-09
0.000103732
-2.26884e-06
3.88252e-08
9.96027e-05
-9.79461e-09
-1.43726e-08
-1.03416e-05
9.41016e-09
2.42649e-08
5.20461e-05
3.88548e-08
-3.182e-09
9.4567e-09
4.96972e-08
-1.23203e-08
9.05781e-09
3.47469e-08
5.29488e-05
4.17447e-05
7.40552e-08
1.89267e-08
0.000103104
-9.16985e-09
-9.22278e-09
-8.0098e-09
-3.4248e-05
1.60615e-08
-3.35451e-09
-0.000127753
2.77865e-05
-1.94884e-08
1.53187e-07
2.2597e-08
1.16561e-08
-1.83932e-08
0.000114073
3.52118e-05
3.10944e-09
1.87222e-09
5.43661e-05
2.19329e-08
3.7519e-05
6.51775e-09
-5.29069e-08
2.87569e-08
-2.12892e-06
6.11691e-09
9.93849e-08
7.12398e-09
-0.000133487
0.000185794
4.32359e-06
3.76084e-06
-7.65608e-09
-2.04327e-05
2.07332e-08
8.51528e-05
4.46351e-05
5.39391e-09
-7.75527e-09
0.00015846
1.14437e-07
-2.72775e-08
-7.47344e-09
-4.19805e-09
0.000172381
-6.44189e-08
0.000171128
-4.19408e-08
-1.20387e-09
3.41641e-08
9.56301e-08
-5.13296e-08
5.04875e-08
2.69274e-05
0.000177058
-9.02272e-08
3.67617e-08
-1.45149e-07
-1.0529e-09
-8.33841e-07
1.23711e-07
-1.00819e-05
4.08733e-09
0.000126375
-1.11366e-05
2.47909e-08
1.21726e-06
1.39091e-07
-0.000134677
3.75202e-06
4.58246e-10
0.00015914
2.99902e-08
-4.00404e-06
8.97681e-05
4.53971e-08
4.53443e-08
-1.995e-08
2.702e-08
2.51402e-08
6.95581e-09
2.955e-08
4.84583e-08
-6.4315e-09
5.0786e-05
7.54574e-08
5.62532e-08
4.67321e-09
2.63117e-08
4.09163e-05
1.6681e-05
0.000152209
8.60164e-08
0.000148175
-1.93319e-08
1.60952e-08
2.43036e-08
1.63953e-08
-7.4225e-06
0.000166316
2.22299e-08
2.78375e-08
1.15794e-07
1.96977e-08
1.02627e-08
3.47797e-07
-7.57789e-09
3.58773e-09
5.58716e-08
1.54494e-08
7.2995e-09
4.30529e-09
1.57484e-06
1.20654e-09
-5.51913e-08
1.18379e-07
4.3206e-09
4.43245e-05
1.27227e-05
-1.22253e-08
-4.68217e-10
2.04604e-08
4.56788e-08
-1.56461e-08
4.14476e-08
1.74352e-08
1.66669e-07
8.5258e-05
0.000126413
2.43875e-08
-1.88289e-08
-1.37093e-09
1.9115e-09
4.65584e-09
4.59325e-05
0.00011113
1.0655e-06
-2.14631e-08
4.62202e-07
2.54439e-08
8.83245e-08
-1.09018e-08
1.0506e-07
3.24469e-07
8.72884e-05
-3.23917e-08
-4.15117e-08
5.01163e-05
-6.44044e-08
-3.68896e-09
2.05743e-06
2.11974e-08
5.91265e-05
-8.37352e-09
-3.17434e-08
1.08104e-08
-9.33054e-08
4.6788e-06
0.000121534
3.81921e-08
-1.40224e-08
-3.06431e-09
-4.18657e-08
4.90154e-08
7.13499e-05
-5.18314e-08
5.88814e-05
-2.45255e-08
1.82048e-08
1.84699e-08
2.10778e-08
-3.16606e-09
-7.93444e-10
1.5427e-08
7.88451e-06
0.000178861
4.9483e-08
7.83082e-09
-1.98548e-09
-1.81421e-08
8.47469e-08
3.45765e-08
4.34706e-05
-9.24115e-09
-1.35741e-08
8.94639e-08
4.81606e-08
1.51599e-06
-3.00214e-09
-5.48073e-06
2.08222e-08
1.92006e-05
5.4029e-09
0.000133994
1.0559e-08
0.000163654
-2.70042e-08
1.02221e-09
-7.35907e-09
-2.38711e-08
1.45464e-08
0.000100379
8.73822e-05
3.24487e-08
-6.2092e-09
2.3541e-08
7.14736e-07
1.25205e-08
-1.00321e-08
-3.88028e-05
5.43813e-08
1.08073e-06
0.000160246
-5.89906e-09
1.17801e-06
7.98712e-09
2.01142e-08
4.89881e-05
8.26827e-08
-3.53502e-09
9.47031e-07
-1.56485e-09
8.45158e-08
4.42501e-05
-8.3849e-06
5.26829e-05
4.79962e-05
0.00010783
5.41795e-08
3.86692e-07
1.07478e-07
-8.275e-09
-1.64834e-05
2.03864e-05
1.33506e-08
4.17992e-08
8.51282e-05
0.000126118
8.87406e-05
2.63207e-05
0.000164484
-4.98753e-09
6.36433e-09
-1.27603e-06
-7.5605e-10
2.00954e-05
3.94804e-08
7.51884e-09
-1.53154e-05
4.77889e-08
8.36373e-09
-2.36789e-08
-6.65952e-09
-6.67501e-09
-2.36693e-08
8.20478e-07
1.53043e-08
-2.13954e-08
5.09569e-05
8.85356e-08
1.90357e-07
3.60507e-08
0.000138854
8.70826e-09
0.000134071
2.11499e-08
-5.34259e-09
4.66177e-09
0.000142177
5.08396e-08
-9.94455e-09
4.42238e-08
1.89804e-08
-1.63168e-09
4.21601e-08
0.000104861
3.18047e-07
0.000100051
-7.66972e-06
2.07838e-08
3.38884e-07
1.31208e-05
4.28586e-08
7.66324e-09
8.4245e-08
-2.1834e-08
9.67694e-05
-1.03813e-08
-1.21931e-08
1.85078e-10
-2.7929e-07
2.07857e-08
6.41711e-05
0.000154909
-1.99924e-08
-1.70254e-08
-3.60537e-08
1.66817e-08
-5.09169e-05
-2.13932e-09
5.90823e-08
1.04714e-08
3.5523e-08
2.45551e-08
4.64912e-08
7.01448e-05
0.000156012
-5.1004e-08
9.55369e-08
5.78533e-06
0.000146749
-9.77021e-09
-5.95165e-08
-1.09976e-08
-2.52811e-08
0.000104458
3.15507e-06
4.72916e-08
-7.18045e-06
2.78481e-08
7.61616e-08
-3.44614e-11
4.00462e-08
6.01686e-08
-4.00554e-05
0.000121686
8.0089e-09
6.84962e-05
2.98937e-08
-6.73369e-08
9.23018e-08
5.03392e-08
-3.56158e-09
2.7655e-07
8.51001e-08
-9.32508e-08
4.28645e-08
0.000127101
-4.52993e-07
1.14295e-06
1.17666e-07
7.30514e-08
4.22719e-09
1.52571e-08
-1.68487e-08
0.000116275
4.56209e-05
1.4023e-07
7.18586e-08
4.52465e-08
1.15784e-06
2.26227e-08
3.91772e-05
3.37435e-08
-3.24011e-08
4.69797e-06
-2.26186e-08
3.73983e-08
1.80036e-06
-1.97421e-08
-3.03951e-08
-2.17027e-08
-5.84263e-09
3.04408e-07
0.000185915
7.50604e-05
4.06833e-08
-4.57377e-09
3.72361e-08
0.000164814
2.10466e-06
-6.33246e-09
1.36854e-08
3.4813e-09
-3.54205e-08
1.33477e-07
1.42334e-08
2.75054e-06
1.48129e-07
-2.03865e-09
5.46642e-05
6.97515e-08
7.15123e-08
0.000120832
-9.3173e-08
-3.03731e-08
7.76214e-05
4.66092e-05
-7.1217e-09
3.07315e-05
3.03651e-08
2.23471e-05
-1.48218e-08
2.05889e-08
1.25813e-08
6.1103e-09
2.3178e-08
1.29058e-08
-2.46163e-08
2.42755e-08
9.79697e-05
7.48945e-05
1.38119e-07
-2.86345e-08
0.000119195
2.26814e-08
9.39146e-08
-4.16594e-08
4.29207e-08
-5.71426e-05
5.95269e-08
7.01719e-09
3.74952e-08
5.28244e-07
-1.61881e-09
7.03359e-08
-8.137e-09
4.84909e-08
4.3749e-05
-5.26318e-08
-1.24828e-08
1.16875e-08
1.65044e-07
-1.39625e-08
-2.64957e-08
1.64887e-08
1.98182e-07
-2.80003e-09
4.43106e-08
1.11134e-08
4.18718e-08
1.26398e-08
7.6511e-08
2.00986e-05
-2.24856e-08
-1.01381e-05
4.59706e-09
3.46878e-08
1.68524e-05
0.000146356
3.91816e-08
0.000125419
-5.49995e-09
4.65025e-05
2.45869e-08
0.00015235
3.48241e-07
-8.18731e-09
-1.16501e-09
0.000158379
-6.20284e-05
3.40147e-07
-1.55525e-08
0.0001827
-4.48737e-08
4.27305e-08
-1.63323e-06
1.02255e-07
1.91354e-08
2.34476e-09
-3.77835e-09
1.70115e-08
4.72533e-08
4.19039e-09
2.43024e-05
6.1691e-08
2.12599e-07
0.000128368
8.54471e-08
0.00010297
0.000116636
-3.33511e-09
0.000132017
1.0201e-07
3.91456e-09
1.39804e-05
1.96849e-05
8.69591e-05
4.90903e-05
2.6731e-08
3.86368e-08
-3.69859e-08
-2.46947e-08
-1.76823e-10
7.7041e-07
4.79134e-06
-4.42813e-08
3.26499e-09
7.48467e-08
3.75166e-09
1.90021e-07
-3.5355e-08
1.30568e-08
3.79307e-09
-4.42975e-08
7.21563e-07
0.000105116
6.4574e-05
-1.88418e-08
4.37653e-09
4.60082e-08
1.05273e-08
-2.05445e-09
-5.15313e-08
5.41547e-08
0.000162053
-5.5514e-08
-6.78847e-09
1.41951e-06
2.77401e-09
3.0043e-05
3.24142e-06
3.5291e-09
2.64286e-06
5.04629e-08
1.24665e-08
-3.93105e-09
2.67631e-08
1.70384e-08
8.6615e-05
4.69231e-05
7.96438e-09
9.35275e-05
4.0971e-08
5.03391e-08
-4.86448e-06
1.94938e-08
1.47757e-08
-1.2785e-08
7.19743e-07
4.37797e-08
7.32412e-09
0.000151868
9.23909e-09
2.36688e-08
-1.45445e-05
8.48443e-09
2.06825e-05
9.50086e-09
-7.37966e-09
7.04798e-05
1.11968e-07
-7.00646e-09
0.000161368
2.77822e-08
-4.75567e-09
1.09223e-05
8.04428e-09
0.000161026
-1.37008e-08
8.46643e-05
2.55386e-08
5.25717e-05
2.90915e-08
0.000139493
-4.30186e-08
0.000159771
-1.98907e-08
4.15328e-05
-2.22512e-08
1.10913e-09
3.54477e-08
-1.31632e-08
8.49375e-08
2.64775e-05
2.1701e-08
0.000116703
3.76967e-08
9.68298e-05
3.89754e-08
-3.45691e-08
1.71049e-08
5.0607e-08
5.6842e-05
4.04804e-08
-4.23681e-05
9.11235e-05
0.000143425
8.80674e-09
0.000145642
1.31102e-08
3.91999e-10
4.20757e-08
0.000109729
1.07076e-08
-4.02735e-08
2.57731e-05
-3.26311e-05
1.52138e-10
0.000140004
1.78255e-05
3.16551e-08
3.9782e-08
8.1767e-08
4.56255e-05
2.95754e-07
9.06922e-08
2.27089e-07
5.40915e-08
1.27353e-08
4.41241e-09
4.54433e-07
-1.93444e-10
2.47438e-08
1.62944e-08
3.95249e-09
-9.2581e-08
2.58741e-08
0.000124651
0.00011996
-5.72157e-09
1.07971e-05
3.35711e-08
8.30972e-05
-9.21837e-08
4.2858e-09
1.37902e-08
4.39831e-08
3.7308e-08
7.79238e-05
-6.1603e-09
6.03803e-09
-9.13616e-09
1.7932e-08
3.9873e-08
5.3833e-08
3.04632e-05
4.83712e-05
3.0628e-07
-1.42473e-08
-3.39267e-08
-3.31298e-09
2.3102e-08
-1.83152e-08
-7.90094e-06
9.43936e-06
4.65894e-05
7.96388e-08
-3.14667e-08
2.39867e-08
4.04674e-05
-8.48697e-09
0.000112795
3.82315e-08
3.67655e-05
-3.48169e-06
3.65083e-09
-2.21043e-08
2.95895e-08
-8.33801e-10
5.20791e-08
3.90523e-08
2.57479e-08
5.23219e-08
4.80597e-06
1.97259e-05
3.11072e-07
4.40608e-08
2.28663e-09
1.53413e-05
2.22703e-07
6.35734e-05
0.000178466
1.21277e-08
4.04516e-08
-1.52571e-08
3.16695e-08
8.92323e-09
5.04878e-08
1.92259e-08
4.35615e-08
-9.0842e-09
0.000105243
-1.14628e-07
-2.97226e-08
2.59757e-08
0.000110105
1.51141e-07
-8.57136e-05
4.51548e-08
-5.95196e-09
-1.04509e-09
0.000146133
4.35553e-08
2.04231e-08
-1.441e-08
-1.11645e-08
6.56076e-08
1.80138e-07
3.13715e-07
0.00012683
-2.46614e-08
-1.87386e-08
-2.91977e-08
8.33565e-08
-4.32504e-08
2.18562e-07
2.8355e-08
-4.16163e-08
2.13269e-07
1.19917e-08
-4.08368e-08
6.29657e-08
-1.19955e-06
2.24838e-06
-6.30365e-09
0.000118847
4.80859e-09
0.00018038
-4.76376e-09
-9.69432e-06
3.22898e-07
8.6911e-08
-8.7092e-10
-1.14093e-08
6.18966e-06
-5.83951e-09
-1.2793e-08
1.27965e-07
3.32413e-05
0.000108945
5.19542e-08
0.000107618
3.41871e-07
0.000145314
4.49651e-07
-6.65644e-06
9.76563e-05
-2.95303e-09
2.3401e-08
9.56947e-09
5.13401e-08
-9.98129e-10
-3.88669e-08
-2.20608e-08
-3.81508e-09
1.82649e-08
0.000160216
1.26304e-06
-5.50267e-08
1.69271e-06
-1.87699e-08
1.0758e-05
-2.80414e-08
5.13653e-05
1.25066e-08
-1.27036e-08
6.50475e-07
5.60351e-09
9.80181e-05
4.18085e-08
-3.93592e-09
3.48677e-09
8.08372e-06
7.00873e-09
-4.02703e-08
6.50535e-07
0.000187269
9.50792e-05
4.31573e-08
6.42232e-09
6.38659e-08
1.91777e-09
-6.90179e-08
5.94996e-08
-2.36369e-08
-7.5872e-09
0.000118806
8.69434e-05
1.20782e-07
-2.45463e-08
-3.0834e-08
-6.5822e-09
-1.10908e-08
8.63432e-05
3.0515e-08
-2.74077e-08
-1.96025e-08
1.51582e-05
4.17411e-06
-1.66182e-08
3.08618e-07
3.59666e-08
7.8161e-05
-1.02172e-08
6.37844e-08
-4.77704e-09
1.79364e-07
0.000126059
-1.3047e-08
4.54759e-08
8.79812e-08
-1.49328e-08
3.39896e-08
-2.63519e-08
4.73555e-08
2.13677e-08
6.09151e-05
7.11957e-09
4.72971e-08
0.000160903
7.84921e-05
2.69539e-05
-1.00268e-08
-4.27887e-08
-3.8159e-08
-1.60994e-08
-1.8633e-08
3.9245e-08
5.12145e-08
-1.86597e-10
-1.2343e-07
-2.37638e-09
4.86043e-05
2.0881e-05
4.05461e-08
6.78108e-08
1.35927e-08
9.74326e-09
0.000109602
-4.27684e-09
6.78479e-08
0.000120761
2.59776e-06
4.26085e-05
-1.40977e-08
-3.40897e-08
-8.42552e-09
1.24169e-05
-7.4268e-09
1.07496e-07
6.25507e-08
8.05023e-07
6.67097e-09
0.000132029
1.45175e-06
-2.6e-08
2.30554e-05
4.00592e-08
0.000110937
9.17581e-05
3.47371e-08
-4.52255e-09
2.93237e-08
8.13426e-08
3.88795e-08
-6.25975e-09
5.36151e-09
3.1444e-08
1.7698e-07
2.14439e-07
3.84794e-05
-4.08838e-08
1.45605e-07
4.82452e-10
-6.93499e-09
5.21392e-05
-7.24305e-09
2.60814e-05
1.19151e-07
-1.21176e-08
-1.50656e-08
2.30639e-07
-5.37035e-08
-6.60799e-09
-4.97843e-07
5.33915e-09
9.53379e-09
7.99714e-05
5.32802e-09
-3.59833e-08
5.8008e-09
7.783e-09
2.56185e-07
1.63684e-07
1.82072e-08
-1.69804e-05
2.16215e-08
5.85078e-08
0.000126188
4.27906e-05
-7.20239e-10
7.89234e-07
8.30527e-09
6.19997e-05
7.13472e-05
6.54271e-05
-5.36436e-09
-6.81119e-08
1.60149e-08
1.76777e-09
2.2404e-06
4.37389e-08
2.80493e-07
-1.65618e-08
9.36605e-08
2.70338e-08
-9.83733e-09
9.61096e-05
4.36137e-05
1.84738e-05
-3.38181e-08
0.000111131
-3.93011e-08
2.23965e-08
1.05042e-08
-9.98375e-06
4.07611e-08
-5.02219e-08
8.30658e-05
6.95762e-06
1.57023e-08
6.35933e-05
6.5581e-08
1.08424e-05
-4.23039e-08
0.000154973
-1.16513e-06
1.72437e-08
-4.97202e-08
6.18134e-06
-1.6568e-08
1.64979e-08
7.51771e-06
2.19731e-08
3.04541e-08
-6.10792e-06
4.28673e-09
-6.75519e-07
-5.44449e-05
1.1776e-07
2.44711e-08
2.61342e-06
-4.88938e-09
2.46229e-08
6.87693e-06
1.17664e-07
-1.17693e-08
0.000166935
-7.37922e-08
-4.00959e-10
9.29445e-05
-4.29277e-08
3.43621e-08
2.36053e-08
8.32072e-08
2.17981e-08
-8.19669e-09
3.68778e-07
5.80375e-05
-2.08081e-08
8.01273e-08
1.06617e-08
4.07749e-09
-1.31135e-08
0.000120175
4.52254e-08
6.7878e-08
7.02331e-07
-2.80165e-07
1.83965e-07
8.95605e-08
2.07388e-09
4.12014e-08
-4.48208e-08
5.16632e-09
7.97314e-09
3.93921e-08
0.000102915
-1.63849e-08
5.67959e-09
-3.93598e-08
3.40885e-08
0.00012716
0.000157279
1.4931e-10
7.20032e-09
-6.46499e-08
1.87233e-08
1.83497e-09
7.84969e-05
-3.52989e-05
-1.76025e-08
1.86846e-07
1.11983e-08
2.71629e-08
4.88521e-09
-6.05183e-09
4.06753e-08
8.38493e-06
6.1308e-08
-6.65289e-09
-1.3838e-08
5.69712e-08
-1.89372e-08
8.18307e-05
-1.91057e-08
1.10951e-07
2.42162e-07
-1.14595e-08
1.44862e-06
1.64068e-07
2.0656e-06
3.81699e-09
5.16504e-07
7.84145e-09
6.29721e-08
7.19551e-09
-1.65841e-07
1.53844e-06
4.4931e-08
0.0001357
0.000133937
0.000118985
-1.01604e-08
-6.61096e-08
-3.3375e-08
1.25336e-08
-1.44518e-08
5.86682e-08
-2.95974e-08
-3.52442e-08
4.1542e-05
1.03364e-07
4.6483e-08
5.73238e-08
0.000102069
9.31502e-05
-4.58549e-09
-2.67716e-07
2.18429e-05
-5.46821e-06
1.51631e-08
3.77801e-05
0.000100972
1.26728e-08
0.000105603
3.54801e-08
-1.94949e-08
6.74127e-07
4.56842e-08
-4.9093e-09
0.000106344
3.41363e-08
7.47693e-08
-3.7569e-09
0.000137055
3.09616e-08
-3.27166e-06
4.48032e-05
3.76642e-07
-1.41962e-05
1.06259e-08
-1.20325e-08
2.61202e-08
1.08975e-08
1.55744e-08
-1.65175e-08
-2.12131e-08
3.42699e-07
5.74205e-08
0.000151963
-7.50681e-05
-9.7695e-09
2.62973e-11
2.50283e-08
5.65848e-05
6.03417e-08
7.25335e-10
4.60722e-09
6.31537e-08
3.92412e-08
5.58981e-05
-2.82147e-10
2.67998e-09
1.79832e-05
5.44209e-05
6.67171e-07
-6.29668e-08
2.1335e-08
-2.7561e-05
1.37092e-05
2.58471e-08
0.000193364
4.80691e-05
3.69761e-05
2.81534e-08
-5.32767e-08
-3.06864e-08
5.99775e-09
-3.11356e-08
9.52601e-05
3.39642e-08
3.57401e-07
-1.75277e-08
5.25919e-08
5.85882e-08
-2.17389e-08
7.71405e-06
9.2918e-08
4.35943e-08
1.55835e-09
2.15797e-09
2.43271e-08
6.85255e-08
-3.55021e-08
1.02556e-08
-9.57175e-09
3.84172e-08
-1.72639e-09
-0.000104349
1.67592e-08
0.000119972
-1.34077e-08
9.65044e-05
-1.32962e-08
5.53902e-05
4.66558e-08
-3.16056e-08
2.52433e-08
5.26764e-08
7.38005e-05
-7.81622e-10
1.67371e-08
8.86298e-10
2.11389e-09
1.86763e-07
3.55998e-07
-7.33153e-08
1.56832e-08
6.78152e-08
-1.75478e-08
1.14119e-07
4.11411e-09
2.40417e-08
2.18455e-08
1.02604e-07
1.09496e-07
3.239e-08
-1.75357e-08
3.24623e-07
8.75622e-07
-5.53523e-08
-5.08216e-09
0.000154706
0.000169701
-2.11148e-07
-2.385e-08
5.69971e-08
-7.02354e-09
5.26751e-08
1.13511e-07
-9.05641e-09
0.000121811
3.99036e-08
-2.16339e-08
6.8414e-09
9.80124e-08
2.94474e-05
-6.30317e-06
-6.20065e-08
1.32491e-09
4.39802e-08
5.42673e-05
2.76031e-07
3.77107e-09
1.26856e-07
5.87771e-05
1.17e-06
1.60161e-08
1.16364e-07
4.28274e-05
0.000115989
1.53264e-05
1.45623e-06
-2.73396e-09
-9.09426e-10
1.8994e-05
3.26997e-05
6.20953e-08
2.07512e-07
5.12794e-05
0.000113444
6.31214e-08
0.000164506
6.92965e-08
0.000154101
-4.0693e-08
7.01147e-07
-2.28533e-09
4.78815e-09
4.083e-05
-5.89923e-08
1.41257e-08
9.93258e-05
-6.22437e-08
3.50408e-07
5.43907e-10
1.10232e-07
4.62502e-09
4.53835e-05
4.99424e-09
-5.03266e-09
3.00903e-10
0.000119638
0.000116417
-1.57844e-08
6.32006e-08
0.000187803
-2.62719e-08
2.66398e-08
7.18424e-05
1.32288e-08
3.06224e-09
3.90278e-08
4.79726e-09
1.0866e-06
2.43037e-08
-2.78932e-08
4.4726e-08
4.5921e-08
1.14363e-07
0.000154007
6.09882e-08
-1.16348e-08
1.52406e-08
-4.41825e-09
1.53445e-08
-2.88419e-08
2.59293e-08
2.11093e-08
4.57482e-09
0.000157289
0.000130264
0.000166197
-1.73153e-08
3.37862e-05
1.51456e-08
-1.23003e-05
9.17671e-05
-4.2279e-05
-1.55131e-08
5.82049e-09
-2.32168e-08
1.73319e-09
7.07041e-05
2.6636e-08
4.35405e-07
1.46704e-08
3.5813e-06
1.19192e-08
-1.37568e-07
0.000158681
-3.7883e-08
1.02873e-07
1.4428e-06
-1.09325e-05
1.37324e-08
2.67035e-08
6.12421e-08
7.42429e-07
1.47734e-08
-3.18958e-06
0.000144321
-1.82941e-08
6.45678e-05
-1.55008e-08
1.49235e-08
2.51629e-08
8.01092e-05
6.15381e-09
6.7728e-08
0.000118945
-1.37236e-08
3.4124e-08
2.0951e-08
-3.12389e-08
-1.75981e-08
0.00011772
-4.71851e-09
-9.18594e-09
-4.60755e-10
2.9306e-08
-9.31537e-06
6.20437e-06
-2.48117e-08
3.76765e-05
8.31416e-05
5.33704e-08
4.60471e-05
8.65726e-09
2.82801e-08
2.25593e-08
6.53127e-08
2.22202e-08
2.96275e-07
3.3824e-08
3.76919e-05
-4.17723e-06
4.23291e-07
0.000141904
9.28441e-05
3.45268e-08
9.55413e-05
4.74799e-10
2.97573e-07
-5.61239e-06
4.62742e-08
4.1951e-05
7.782e-05
8.98499e-05
4.64182e-05
0.000123865
2.81186e-06
2.03169e-08
2.44549e-08
-1.07249e-05
3.203e-07
-2.12788e-09
6.23261e-08
1.65715e-09
2.83202e-08
9.41769e-05
-1.43863e-09
-1.07707e-08
3.52862e-08
2.37405e-07
4.87692e-05
-1.65711e-08
3.86344e-08
4.86102e-08
0.000111982
-6.81351e-08
0.000104082
2.54276e-08
1.4922e-08
7.68323e-08
2.31821e-08
-5.35708e-08
-1.42289e-08
5.51211e-05
-3.30097e-09
0.000146097
3.51644e-08
-2.42812e-08
5.10076e-08
-4.274e-08
1.10181e-09
6.89888e-05
7.27035e-05
2.22492e-08
-2.79192e-09
5.33018e-05
3.59507e-07
2.52918e-08
-5.0124e-10
-4.16304e-08
1.09901e-07
-6.0782e-05
-8.77492e-08
1.92467e-08
-8.06827e-10
0.000120997
0.000280601
5.99826e-08
8.55715e-07
0.000126636
4.40424e-08
4.07921e-05
0.000105025
2.6677e-05
-4.45825e-08
1.892e-06
1.21699e-09
-1.5942e-08
1.45571e-06
0.000172627
1.28155e-08
4.99679e-08
6.57573e-05
3.64999e-08
-1.88654e-08
1.45651e-06
3.27502e-08
6.02025e-07
-1.03693e-07
2.42651e-08
0.000180764
3.44871e-06
8.48396e-09
4.34324e-08
1.01869e-08
1.93453e-06
5.31344e-05
3.60067e-06
-3.65187e-07
9.57653e-09
-9.57469e-09
-6.15154e-09
-9.2028e-09
3.05022e-05
9.88519e-05
-2.10952e-05
2.22346e-08
0.000123883
-4.56329e-09
2.546e-08
-4.65339e-09
5.08861e-09
-2.16105e-08
-1.36761e-08
-8.43478e-08
-5.15573e-08
7.56057e-08
2.98193e-08
1.32537e-09
-1.26949e-05
2.62883e-09
-2.58083e-08
6.93781e-07
4.05045e-09
8.14724e-08
-2.25925e-09
3.92092e-08
1.61753e-08
1.10088e-09
-1.59569e-08
-3.78761e-08
6.82051e-05
0.000178407
1.18509e-08
2.78298e-05
1.54658e-06
1.33995e-08
-4.55707e-08
-1.27376e-08
1.15909e-08
-4.77184e-08
-2.21541e-08
4.07678e-08
2.64036e-08
-1.44261e-05
1.26868e-05
3.81721e-07
2.59316e-09
2.06692e-08
-7.20886e-08
-2.82398e-08
-4.103e-06
1.80738e-08
9.73844e-05
2.25416e-06
-1.77906e-08
4.56203e-09
7.14129e-05
-7.34579e-09
6.35046e-06
6.59101e-05
0.00018775
1.45397e-08
0.000174668
0.0001444
4.4327e-05
1.30519e-09
-3.71676e-08
1.56636e-08
-3.21308e-08
5.2725e-05
5.57048e-06
2.20135e-07
-9.16736e-09
-4.07865e-09
-1.15336e-07
1.28332e-07
3.71053e-06
6.16557e-08
6.93743e-09
8.83558e-06
0.000131584
-3.39988e-09
2.71329e-08
-1.53331e-07
2.34543e-06
5.21537e-08
-2.47345e-08
-1.36686e-09
-2.19974e-08
-3.03402e-09
4.59548e-06
-4.01239e-08
-2.77985e-08
-1.16346e-07
1.53936e-05
1.55186e-09
5.15116e-07
2.09853e-08
-1.546e-08
-1.22501e-06
4.2622e-08
-8.06355e-06
-8.6802e-09
-6.67055e-05
-5.37329e-08
5.29621e-08
-9.36306e-10
3.37287e-09
4.27358e-08
-4.42574e-08
1.51083e-08
-1.8469e-09
0.000105031
1.02653e-08
0.000126041
-1.31129e-08
3.30958e-08
4.3581e-07
6.80789e-08
-2.77196e-08
2.70632e-08
1.87311e-07
1.83511e-08
0.000162967
2.34379e-08
-2.53434e-09
1.87815e-07
0.000167295
1.47342e-08
4.1216e-09
-9.46004e-09
-1.84813e-08
-2.83098e-08
5.01904e-08
-8.46037e-08
7.92299e-10
-9.04299e-08
1.40175e-05
0.000110738
4.1736e-08
7.18499e-08
3.60469e-08
0.000149896
-6.9558e-09
-2.57292e-08
1.2581e-09
3.69053e-05
2.61758e-05
3.86829e-09
0.000154073
2.84965e-08
2.28432e-09
0.000127086
1.67692e-06
-3.3648e-08
1.69666e-07
7.87811e-09
-2.9635e-08
1.33562e-08
3.15208e-07
-2.70119e-08
3.11017e-08
3.45865e-05
4.13126e-05
1.70787e-08
-3.00094e-08
0.00011299
2.49153e-08
-2.446e-08
1.78414e-08
-9.21199e-10
3.97458e-05
4.41861e-07
1.88126e-11
1.17949e-06
-6.25879e-09
5.66756e-05
1.09441e-06
6.74645e-08
-1.32871e-09
9.10988e-09
-5.85113e-08
-4.13973e-05
1.09417e-06
4.44718e-08
-2.64921e-10
8.56706e-09
5.17268e-08
4.03128e-08
0.000134006
-5.09473e-08
7.56974e-05
7.00387e-09
-3.1856e-09
2.90474e-05
-1.93559e-08
6.25763e-06
-1.14027e-08
8.57841e-09
3.69357e-08
-4.8137e-10
-1.46734e-08
-1.97051e-06
8.72182e-05
4.85457e-06
8.18244e-09
-5.93807e-09
7.73823e-09
-1.00363e-07
5.76516e-08
1.84456e-06
7.6882e-08
9.71097e-05
0.000116069
-1.38041e-09
-2.03904e-09
0.000152399
-8.60349e-08
-8.78623e-09
-2.30884e-09
6.68859e-05
5.39165e-08
3.41388e-06
3.01573e-09
4.76928e-06
-5.04806e-08
4.38165e-05
3.53208e-08
6.45576e-08
7.06571e-08
1.5364e-05
1.47034e-06
9.12191e-07
6.18407e-08
3.1527e-08
-3.65568e-08
-6.53818e-06
0.000146751
-7.78107e-09
3.53352e-08
-1.10379e-08
-3.55094e-08
-1.25727e-08
3.13676e-05
8.38202e-08
3.19252e-08
7.97765e-08
7.96846e-07
6.71398e-09
-7.17757e-09
0.000101128
-3.88722e-08
8.13112e-08
2.4552e-07
-7.69827e-09
8.26151e-09
-7.85445e-08
-6.85688e-09
-9.96429e-05
1.9045e-08
-2.4898e-08
9.26561e-06
-4.98403e-08
2.57705e-08
2.27594e-06
9.00982e-07
5.28597e-05
-2.27918e-06
7.24128e-09
7.59675e-05
5.34656e-08
4.26429e-08
-1.92108e-09
-1.40525e-09
-2.61485e-08
3.67514e-08
-1.91034e-09
1.64335e-05
3.40798e-08
-1.19839e-07
0.000128283
2.3893e-08
8.06964e-08
5.99613e-07
2.66868e-09
-1.63166e-08
-8.84733e-08
-1.14911e-09
-1.15005e-06
4.83364e-08
-7.51648e-09
0.000159198
1.98874e-09
6.40205e-08
6.65879e-05
5.90401e-10
3.08845e-07
1.50348e-06
6.78547e-05
-3.25728e-08
-1.62389e-09
3.68142e-05
1.3543e-08
0.000121545
5.60788e-07
0.000118379
-5.90219e-08
4.94875e-08
5.42385e-09
1.28231e-07
2.08827e-08
-1.02995e-08
-2.05721e-08
9.12461e-06
3.28395e-08
0.000131146
3.57784e-09
-8.56221e-06
7.92431e-08
2.95872e-07
-2.46088e-05
4.74277e-08
2.13345e-08
-3.04974e-08
3.92898e-08
1.24554e-08
3.48221e-06
8.14229e-08
6.23227e-05
-1.27572e-08
7.57597e-09
-1.46616e-08
8.21906e-09
1.25297e-07
8.01204e-09
6.1602e-09
4.2729e-09
0.000130475
4.90651e-07
4.53847e-08
6.86929e-07
2.50265e-09
-2.20985e-09
1.39125e-08
-3.28604e-08
5.60792e-08
2.85128e-07
-2.48682e-08
9.79519e-09
0.00011873
1.01468e-08
7.88643e-07
1.13046e-07
4.59032e-05
-1.92725e-08
5.17841e-05
-1.60246e-08
0.000108285
-6.82721e-08
1.85989e-08
1.54868e-08
1.43098e-05
-1.04651e-08
0.000223056
1.22104e-08
-6.17132e-08
-1.77219e-08
-6.24288e-07
1.24102e-05
7.62366e-05
8.20543e-06
2.69497e-07
4.18254e-08
7.73424e-05
5.57582e-08
2.2429e-08
3.15557e-07
1.26796e-07
1.34791e-07
0.000121373
-6.42001e-09
0.000166726
1.53644e-08
2.23199e-07
1.2461e-08
-1.04171e-07
4.18506e-08
-3.23927e-09
0.000149109
-1.3024e-08
8.42823e-09
3.47554e-09
-2.21788e-09
1.77754e-07
5.56819e-08
-8.48504e-08
9.45333e-09
7.05241e-07
1.10284e-05
1.29186e-08
-2.3297e-05
5.41775e-05
2.01584e-08
-4.99736e-09
5.06995e-07
-3.35922e-10
-1.30832e-09
-4.70847e-08
2.29807e-08
6.10097e-05
7.24334e-08
3.05823e-06
-1.25269e-08
5.99727e-07
1.13341e-08
-3.3317e-08
-2.16123e-08
1.14352e-07
3.70055e-08
-1.82966e-08
-1.95157e-08
2.06722e-07
2.0256e-08
1.65224e-08
1.00831e-07
7.11833e-08
5.81179e-07
6.34226e-05
0.000135102
3.31986e-07
-5.13286e-08
-4.14315e-09
-2.57876e-10
1.06738e-08
2.4356e-07
3.45896e-05
4.22625e-05
0.00015237
2.53295e-07
8.24187e-05
-3.52311e-08
1.03746e-08
2.023e-08
-1.02693e-08
-2.5918e-09
7.40122e-05
0.000123274
2.46099e-06
-7.56786e-09
2.73557e-06
-5.61501e-08
1.28996e-08
1.8516e-08
4.52297e-07
-3.6105e-08
-2.72771e-08
9.33232e-08
-9.89244e-09
3.2591e-07
8.73073e-05
0.000154524
1.04446e-05
-2.91344e-08
-9.87206e-08
1.99916e-07
6.97469e-05
6.83492e-05
9.97302e-05
4.59973e-08
0.000115829
1.8742e-08
-2.88577e-08
2.25703e-08
0.000130377