/*--------------------------------*- C++ -*----------------------------------*\
| =========                 |                                                 |
| \\      /  F ield         | OpenFOAM: The Open Source CFD Toolbox           |
|  \\    /   O peration     | Version:  v2012                                 |
|   \\  /    A nd           | Website:  www.openfoam.com                      |
|    \\/     M anipulation  |                                                 |
\*---------------------------------------------------------------------------*/
FoamFile
{
    version     2.0;
    format      ascii;
    class       volVectorField;
    location    "50";
    object      ddtCorrDdt0(U);
}
// * * * * * * * * * * * * * * * * * * * * * * * * * * * * * * * * * * * * * //

dimensions      [0 1 -2 0 0 0 0];


internalField   nonuniform List<vector> 
18598
(
(0.000236764 -0.000560015 1.46094e-21)
(0.00048274 5.02304e-05 0)
(6.44739e-08 7.09369e-07 -4.68644e-22)
(0.000272141 0.000265321 -1.10747e-21)
(8.7135e-05 5.33803e-05 0)
(0.00023818 -1.63173e-05 6.31049e-24)
(0.000239096 0.00020811 0)
(3.81438e-06 2.7617e-05 0)
(0.00201685 0.000184488 -1.35344e-21)
(0.00101572 0.0033 -8.53025e-22)
(2.2313e-05 9.97558e-05 1.14655e-21)
(-0.00071948 -0.000135218 -1.20947e-21)
(7.84725e-05 1.44715e-05 -2.46752e-21)
(-0.000906328 -0.000106727 9.76692e-22)
(4.27132e-06 3.497e-05 6.10583e-22)
(0.000303073 0.000187033 0)
(-0.00099298 -2.00884e-05 -1.93489e-21)
(0.000233198 -1.27737e-05 0)
(0.000122664 0.00015457 0)
(-0.000738867 0.000132336 3.1428e-24)
(6.18066e-05 7.83807e-05 1.94501e-23)
(7.46187e-05 6.47781e-05 -5.46162e-22)
(-0.00100132 1.8562e-05 1.16746e-22)
(9.15854e-05 7.55937e-05 1.06346e-22)
(6.002e-05 3.17583e-05 -7.1857e-22)
(-0.000961891 -2.20486e-05 -1.13793e-21)
(0.000571817 -2.2314e-05 0)
(5.37052e-06 5.27661e-05 -5.06866e-22)
(0.00056632 -2.04052e-05 1.78431e-21)
(0.000189741 -0.000560187 -1.50135e-21)
(0.000423348 0.00112757 0)
(2.77815e-06 2.66216e-05 0)
(0.000135203 0.000116125 -1.64259e-22)
(0.000383903 -6.88839e-05 -4.96269e-22)
(0.000237193 0.000211433 0)
(0.00109084 0.000122658 1.61022e-21)
(5.87439e-05 3.73538e-05 -2.18365e-22)
(2.3362e-05 0.000101069 0)
(8.84331e-05 5.1094e-05 6.85564e-22)
(-0.000627596 -3.41562e-06 8.48289e-22)
(0.00051314 -0.000110872 0)
(0.000623059 0.000790226 9.68516e-22)
(0.000306197 0.000211557 9.2015e-22)
(-0.000868234 -0.000100388 0)
(-1.22712e-06 0.000201451 -3.5772e-22)
(0.000103916 0.000116039 9.95162e-22)
(5.58153e-05 2.81879e-05 0)
(7.90665e-05 4.43137e-05 4.86611e-22)
(0.000110172 2.79688e-05 -9.55285e-22)
(5.87912e-05 3.03322e-05 0)
(3.10361e-05 4.18507e-06 -8.69972e-22)
(0.000201352 0.000245782 0)
(0.00028634 0.000211374 -9.489e-22)
(0.000433284 1.88832e-05 -1.1129e-21)
(7.63337e-05 6.70908e-05 6.32077e-22)
(3.17151e-05 2.42262e-05 1.32809e-21)
(1.48183e-05 3.32529e-05 9.69628e-22)
(4.30513e-06 2.16019e-06 -3.42891e-22)
(0.000108898 2.94976e-05 -1.52453e-21)
(0.000192939 0.000224344 0)
(-0.00111029 -6.24444e-06 -1.45535e-22)
(0.000473703 4.65334e-05 -1.73287e-22)
(4.53135e-06 5.2901e-05 5.42546e-22)
(9.00452e-05 7.61049e-05 -3.88562e-22)
(0.000599901 -7.03459e-05 6.34692e-22)
(2.62307e-05 7.36211e-05 -8.00277e-22)
(0.000107308 2.72561e-05 3.53497e-21)
(0.000118497 2.77766e-05 1.7091e-21)
(0.000480424 0.000485508 0)
(5.58439e-05 6.93385e-06 -1.81006e-21)
(0.000112112 -3.02124e-05 8.57691e-22)
(0.000227335 0.000207741 5.09349e-22)
(-2.42494e-05 2.76553e-05 0)
(0.000284007 0.000209104 0)
(5.70866e-06 3.35277e-05 3.93623e-22)
(0.000509195 -0.000120077 0)
(6.49674e-06 3.16222e-05 7.26883e-22)
(3.23357e-05 2.49576e-05 6.85788e-22)
(0.000245553 0.000258912 -5.24987e-22)
(0.000117478 -2.99889e-05 -8.6408e-22)
(-0.000796265 0.000142456 4.32892e-22)
(0.000105438 0.000119119 -5.32844e-22)
(-2.69524e-06 9.73902e-05 0)
(-0.000946341 -2.38222e-05 0)
(0.000132728 0.000116188 0)
(0.000418222 0.00125989 1.53385e-22)
(5.45105e-05 7.82974e-06 2.6148e-21)
(-0.000978277 -0.0001894 0)
(1.66308e-05 4.5481e-05 -1.06795e-21)
(0.000156534 0.000225231 0)
(6.79046e-05 0.000194972 -8.00654e-22)
(0.000429907 1.55883e-05 0)
(-3.25414e-07 0.000198577 3.63601e-22)
(9.96066e-05 0.000481944 0)
(0.00028735 0.000572986 0)
(0.00010623 5.95594e-05 8.16825e-22)
(-0.000988116 -4.06338e-06 7.15426e-22)
(2.60676e-05 9.09662e-05 -1.80951e-22)
(-0.000803182 0.000140039 0)
(0.000389796 -6.37401e-05 -5.02365e-22)
(1.60154e-05 4.42465e-05 1.18528e-21)
(4.75294e-06 1.95844e-06 0)
(0.000196 0.000158039 2.96935e-22)
(-2.87371e-05 -0.000259453 -2.14083e-21)
(0.00024138 0.000256963 9.99009e-22)
(0.000140482 5.39302e-05 3.38377e-21)
(0.000594062 -0.000427823 1.72985e-21)
(-0.00143021 0.000109271 -2.32913e-21)
(6.10612e-06 5.8943e-05 -5.25832e-22)
(0.000590809 -7.3908e-05 -2.15318e-21)
(0.00012477 0.000269933 0)
(-0.0011171 -9.35537e-06 -2.8565e-22)
(4.53973e-06 3.45942e-05 0)
(0.000193686 0.000161301 -1.83058e-21)
(0.000433102 8.23707e-06 1.25088e-21)
(1.87755e-05 0.000132075 0)
(-0.000819424 0.000146639 -4.37415e-22)
(0.000188646 0.000222243 -3.79999e-22)
(0.000139334 -6.70408e-05 0)
(5.8873e-05 3.81349e-05 2.18018e-22)
(-0.000391758 -9.80282e-05 -5.55681e-22)
(9.8625e-05 6.49032e-05 8.29623e-22)
(0.000109393 5.49318e-05 -1.97132e-21)
(0.000129552 0.000270209 0)
(-0.000983144 2.39669e-06 0)
(0.000149549 3.31818e-05 0)
(0.000127092 6.9209e-06 0)
(0.000332652 -0.000194821 0)
(0.00103187 0.000112331 0)
(7.94222e-05 4.86006e-05 0)
(6.74054e-05 2.57556e-06 -1.33756e-22)
(0.000247168 0.000294174 2.86844e-24)
(-0.000984377 -7.99793e-06 -1.59669e-21)
(5.90833e-05 0.000188289 -7.52938e-22)
(0.000411067 0.000395236 0)
(3.16064e-05 3.49291e-06 8.34202e-22)
(0.000281319 0.000184964 0)
(5.56949e-06 5.79165e-05 5.43287e-22)
(5.69432e-05 2.97418e-05 -1.40496e-21)
(-1.29657e-06 0.000470505 9.07619e-22)
(0.00192993 0.000320694 0)
(5.6458e-05 5.97919e-05 1.04185e-21)
(1.55008e-05 3.56028e-05 -1.39565e-21)
(-0.000169809 -1.52249e-05 0)
(3.19551e-05 7.58377e-05 -3.68872e-22)
(0.000113918 0.000144611 1.22477e-21)
(0.000318201 0.000480935 0)
(0.000430041 4.82918e-06 -1.21187e-21)
(2.89722e-05 8.57934e-05 -6.48169e-22)
(0.00010156 0.000268395 2.75428e-22)
(0.000139986 5.66081e-05 -3.10711e-21)
(2.97994e-05 -6.65196e-05 8.75172e-22)
(4.52376e-05 7.27197e-05 -9.26111e-22)
(-0.000811486 -2.29279e-05 2.1138e-22)
(0.000106097 5.68532e-05 3.48019e-22)
(3.06834e-05 7.4791e-05 3.32506e-22)
(-0.000782108 -1.8466e-05 -6.27861e-22)
(0.000152128 3.47947e-05 3.4395e-22)
(7.86544e-05 1.29351e-05 9.27464e-22)
(0.000191107 0.000139935 2.33517e-21)
(0.000331351 6.26048e-05 9.98304e-24)
(0.000137355 0.000471824 5.98154e-22)
(0.000111563 2.94134e-05 -1.9078e-21)
(8.66239e-05 3.6779e-05 -1.09725e-21)
(8.09796e-05 4.93252e-05 -1.78213e-21)
(-0.000633563 1.32757e-05 -8.2063e-22)
(0.000600536 -3.74549e-05 -7.84353e-22)
(1.01273e-06 3.22064e-05 0)
(0.000242806 0.000276567 0)
(0.000298261 0.000128585 6.68761e-22)
(6.43538e-06 3.24593e-05 0)
(0.000201616 0.000274844 -7.97654e-22)
(-0.000202082 -2.07192e-05 -6.61491e-22)
(0.000285099 0.000213093 1.05995e-21)
(0.00018116 8.2928e-05 -1.179e-21)
(7.26808e-05 6.22016e-05 3.10385e-23)
(-0.000754508 -0.000171726 7.6429e-22)
(1.94878e-05 0.000133914 -1.24151e-21)
(0.000188971 4.32454e-05 3.27188e-26)
(-0.000844304 -1.11592e-05 1.21115e-21)
(0.000351108 -0.000466627 0)
(0.00013813 9.1803e-06 9.38334e-22)
(0.000245478 0.000289346 0)
(0.000132357 0.00011891 0)
(-0.00103112 -2.83964e-05 -5.07417e-22)
(9.19028e-05 0.000268495 4.51885e-22)
(-0.000719103 0.00027303 0)
(-0.000927364 -3.47905e-06 0)
(1.23491e-05 2.94024e-05 0)
(0.000288553 0.000212203 -4.59557e-22)
(0.000117554 6.2036e-05 -1.74153e-21)
(9.72815e-05 6.4759e-05 -3.05253e-21)
(0.000248841 0.000278132 2.41665e-22)
(-0.00104162 -1.40209e-05 -2.12828e-22)
(0.000203683 0.000140216 0)
(8.34168e-05 6.54673e-05 -7.73568e-23)
(-0.000975779 2.10592e-05 -3.05118e-22)
(-0.00153638 8.31921e-05 2.62341e-21)
(0.000326595 6.14764e-05 -2.69033e-21)
(0.000307901 0.000216682 -2.01556e-22)
(-0.00161585 0.000864884 0)
(3.33762e-05 2.48776e-05 -6.97974e-22)
(0.000196533 0.000274488 7.79661e-22)
(6.92592e-08 1.25023e-06 2.77108e-22)
(7.35518e-05 0.000186433 1.08622e-21)
(-0.000514015 -0.00012564 -8.88617e-22)
(0.000118694 0.000237801 -5.49046e-22)
(4.4714e-05 7.46804e-05 9.26588e-22)
(0.00014654 2.6919e-05 0)
(0.000142558 0.000155064 -5.04507e-22)
(0.000263086 -0.000590573 3.12696e-21)
(-0.00101027 -2.14723e-05 0)
(4.57473e-05 2.08367e-05 2.88796e-21)
(0.000284614 0.000185984 0)
(0.000334395 0.000178259 -4.27478e-22)
(0.000209887 0.000144485 1.27203e-21)
(0.000329546 0.000181282 -3.94788e-22)
(7.84174e-05 7.76423e-05 7.41916e-22)
(4.25717e-06 3.42268e-05 0)
(0.000265034 0.000267434 1.02693e-21)
(7.46032e-05 7.41257e-06 0)
(2.34458e-05 8.48852e-05 -7.98592e-22)
(0.000112224 0.00014525 -1.67897e-21)
(1.1813e-05 2.83906e-05 0)
(0.000223848 0.000205967 1.52761e-21)
(7.81155e-05 7.6404e-05 -1.38835e-21)
(0.000109116 5.76761e-05 8.36978e-24)
(2.35202e-05 5.71484e-05 1.50662e-22)
(-0.000360097 -7.90951e-05 5.89626e-22)
(8.59722e-05 3.54909e-05 -1.14101e-21)
(-0.000980761 -1.01149e-05 0)
(-0.000929309 -4.84503e-06 -9.70383e-22)
(2.73408e-05 9.11099e-05 -1.28314e-23)
(6.27287e-05 7.98356e-05 0)
(0.000308252 0.000253318 4.84085e-22)
(-0.000643785 5.5221e-05 -8.82563e-22)
(0.000130042 0.000118693 -3.44388e-22)
(8.81942e-05 0.000271484 2.08549e-24)
(9.03009e-05 7.48297e-05 -1.74174e-21)
(6.91878e-05 0.000190601 0)
(0.000141337 1.65849e-05 0)
(0.000338713 -0.000274713 5.2484e-22)
(-0.00118073 -2.64314e-07 -1.71322e-22)
(0.000104722 2.37456e-05 0)
(1.31974e-06 0.00037588 5.73313e-22)
(0.000113636 0.000129951 1.89446e-21)
(0.000195314 0.000282572 -8.78647e-22)
(5.52155e-05 5.91969e-05 -1.16703e-21)
(0.00021393 0.000143636 -1.4802e-21)
(8.51665e-05 6.68181e-05 -1.28577e-21)
(-0.000830219 -1.77622e-05 1.63452e-21)
(0.000292059 0.000265843 -1.88324e-21)
(-0.000934319 -0.000200972 0)
(-0.000988751 -1.01099e-05 -2.64089e-21)
(0.000252832 0.000175461 5.09644e-22)
(-0.0010002 1.76874e-05 8.70163e-22)
(5.96924e-05 0.000334791 -5.60793e-22)
(-0.000103127 0.000149652 1.4002e-21)
(2.62959e-06 4.91702e-05 0)
(-0.000935759 -2.49824e-05 -1.52541e-21)
(0.000185851 4.14967e-05 -1.58705e-24)
(0.000307844 7.21983e-05 -8.57414e-23)
(-0.000188931 4.61092e-05 -9.17653e-22)
(0.000432168 0.000556788 7.38406e-22)
(0.000203261 0.000363698 1.33502e-22)
(6.63996e-05 0.000118179 0)
(7.57437e-05 7.74746e-06 0)
(0.000772333 0.00221085 0)
(0.000397926 5.88055e-05 -2.2337e-21)
(0.000174121 7.26292e-05 -9.84941e-22)
(4.70953e-05 2.15197e-05 -1.61629e-22)
(6.93102e-05 9.54185e-07 -1.05141e-21)
(0.00032405 -3.02862e-05 0)
(4.48556e-05 5.45758e-05 8.72756e-22)
(-0.00169785 3.53753e-05 1.50094e-21)
(-0.000515546 -0.000121436 3.8481e-22)
(-0.000572356 1.00482e-05 7.55287e-22)
(-0.000985831 -1.95357e-05 1.46738e-21)
(0.000539922 -0.000146348 7.76072e-22)
(0.000309129 7.78747e-05 1.34394e-21)
(0.000326849 -0.000280374 -1.0745e-22)
(-0.0011292 5.96922e-05 -1.44423e-22)
(0.000119284 0.00015142 3.63916e-22)
(-0.00211225 0.000146654 0)
(-0.000979399 5.78225e-06 1.34963e-21)
(8.21027e-05 0.000266545 4.47257e-22)
(0.000391934 5.89705e-05 -2.01217e-21)
(0.000292672 0.000190615 3.79437e-22)
(7.90147e-05 6.57112e-05 -1.21477e-21)
(-0.000707229 0.000233296 -1.32562e-21)
(0.000286198 0.000204928 0)
(-2.32146e-05 -4.11988e-06 0)
(-0.00104511 -2.86071e-05 0)
(0.000290315 5.69689e-05 -2.25646e-21)
(9.55897e-05 0.000770764 -4.97547e-22)
(0.000234451 -3.67189e-06 -9.08666e-22)
(0.000103309 2.23095e-05 4.15962e-22)
(0.000425983 0.000181133 0)
(6.39969e-05 0.000340528 -6.73903e-22)
(0.000344073 -0.00019923 1.62901e-21)
(-0.000661662 6.1282e-05 7.88967e-22)
(0.00075055 0.00288232 0)
(0.000189855 0.000282449 7.55754e-22)
(-0.000986684 6.50877e-07 1.47711e-21)
(0.000178864 8.67799e-05 0)
(0.000627237 -0.000423566 -1.02779e-21)
(-0.000866418 -9.59282e-06 -1.29855e-21)
(9.8704e-05 0.000272305 7.68391e-22)
(-0.00109262 -2.42413e-05 0)
(0.000497282 7.68669e-05 -2.35786e-22)
(0.000397996 0.000366482 -2.17342e-22)
(0.000155913 5.24899e-05 2.1459e-21)
(0.000436785 0.000188712 -6.11183e-22)
(-0.001085 -2.21217e-05 -5.694e-22)
(0.000323557 6.98831e-05 0)
(0.000304181 -8.03222e-06 0)
(0.000332921 8.6383e-05 -2.56074e-21)
(0.000157209 4.89061e-05 -2.72454e-21)
(2.91347e-06 4.67287e-05 0)
(5.51151e-05 0.000144312 -9.47377e-22)
(0.000118256 2.90714e-05 1.75671e-21)
(-0.000989855 -1.18137e-05 2.69468e-21)
(0.000114034 5.06676e-05 -2.05576e-23)
(4.10106e-07 0.000186058 -3.56032e-22)
(0.000108644 0.000142013 0)
(-0.000954935 4.47074e-06 0)
(5.99717e-06 3.21588e-05 -7.25716e-24)
(0.000256709 0.00039308 0)
(0.000207753 0.000140293 -1.80728e-22)
(0.000110739 0.000127299 -1.23372e-21)
(0.000143359 1.33159e-05 0)
(0.000112038 7.13018e-05 3.09395e-22)
(-0.000724874 -2.31179e-05 1.65428e-21)
(-0.000825065 -1.42789e-05 -1.11848e-21)
(5.01601e-05 2.58107e-05 1.10052e-21)
(8.04924e-05 0.000468537 0)
(1.54836e-05 0.000157128 0)
(-0.00117818 2.14898e-05 -3.94458e-23)
(0.000529366 -0.00014305 0)
(4.08557e-05 6.99494e-07 8.50737e-22)
(0.000317744 -2.89167e-05 1.44669e-21)
(0.000471925 3.93116e-05 1.5021e-21)
(0.000282584 0.000213394 -1.63437e-21)
(-0.00103892 -2.09987e-05 -4.15734e-22)
(2.8405e-05 0.000116838 0)
(-0.0101068 0.00569894 0)
(-0.000938342 -2.77426e-06 1.44269e-21)
(-0.00171304 0.000913759 0)
(0.00212302 0.00060531 -6.58452e-24)
(-0.000743876 8.58862e-06 2.56655e-21)
(4.40055e-05 0.000175754 2.66023e-22)
(4.27291e-05 -6.59093e-05 -2.36009e-21)
(-3.50263e-05 -8.88711e-05 0)
(8.47529e-05 0.000468779 0)
(0.000664894 -0.000214411 -2.56393e-21)
(8.01608e-05 7.76993e-05 -7.86069e-22)
(0.000126204 0.000384848 0)
(-0.000815512 -2.06107e-05 -2.55752e-22)
(0.000284061 0.000205612 -6.605e-22)
(8.18873e-05 6.58677e-05 1.297e-21)
(6.00285e-06 6.68069e-05 1.40182e-22)
(-0.000998818 -1.39746e-05 -1.30569e-21)
(8.89612e-06 2.66187e-05 2.45696e-23)
(4.91459e-05 2.47189e-05 3.58104e-22)
(6.73394e-05 2.51642e-06 0)
(7.09931e-05 6.00281e-05 -3.56153e-23)
(-0.00050016 -1.77947e-05 9.69472e-22)
(-0.00290933 0.00396685 1.57427e-21)
(0.000319406 7.00992e-05 1.30097e-21)
(-0.000732908 -0.000197491 2.48839e-22)
(0.000171156 -0.000524295 1.61191e-21)
(0.000550349 0.000712723 -1.19045e-21)
(7.26274e-05 0.00019129 -4.46638e-25)
(-0.000604041 1.19407e-05 3.49567e-22)
(4.38629e-06 3.73874e-05 -1.01972e-23)
(-0.000176745 -3.16045e-06 -3.57604e-24)
(-0.000911218 3.85555e-06 -3.35748e-22)
(0.000107571 0.000143102 1.90688e-22)
(1.54891e-05 3.76118e-05 0)
(-0.000642337 2.60195e-06 0)
(-0.000747081 0.000136402 1.90398e-21)
(6.0525e-06 3.16234e-05 -4.2463e-22)
(0.000228897 -7.86348e-07 -8.80691e-22)
(0.000375297 -0.000489067 0)
(0.000132854 -2.40924e-05 0)
(-0.000544187 -2.97631e-05 -1.05815e-21)
(1.69606e-05 7.69967e-05 0)
(8.62695e-08 1.53041e-06 6.3779e-22)
(7.29388e-05 7.79244e-06 -7.88102e-22)
(7.78294e-05 0.000269392 9.44212e-22)
(0.000421646 0.000167188 0)
(4.37159e-05 0.000212375 7.3307e-22)
(3.00056e-05 3.2138e-05 -6.65075e-22)
(2.26112e-06 0.000123688 -3.65511e-22)
(0.000214615 0.000412328 -4.92005e-22)
(8.84128e-05 9.34402e-05 -8.60007e-22)
(0.000146368 0.000157698 -1.24817e-21)
(5.20785e-06 6.47161e-05 -1.39498e-22)
(0.000679515 -5.56122e-05 0)
(8.27473e-05 0.000142599 2.99377e-22)
(0.000128354 -2.3594e-05 0)
(1.48742e-05 2.98028e-05 0)
(8.64135e-05 6.42061e-05 1.23406e-21)
(1.29576e-07 2.16376e-06 0)
(-0.000760604 -2.1048e-05 -4.90262e-22)
(-0.000953998 -2.41674e-05 2.10093e-21)
(0.00262607 0.00158336 -1.26079e-21)
(-0.000940862 -2.11811e-06 0)
(-0.00101853 -2.15521e-05 8.8104e-22)
(0.000245318 0.000265708 7.79678e-22)
(3.46619e-06 3.43105e-05 -4.28008e-22)
(-0.00932739 0.0072628 -1.58321e-21)
(-2.55973e-06 0.000100043 -1.89509e-22)
(4.10835e-05 0.000207631 5.64297e-22)
(0.000299742 0.000189243 1.33731e-21)
(0.000180958 0.00024535 -8.62871e-22)
(0.000253683 0.00016733 0)
(0.000132574 0.000220597 1.9014e-21)
(-5.82859e-05 0.000642333 -6.76863e-22)
(0.000157994 0.000212138 -6.31251e-22)
(6.86607e-05 0.00012101 -9.66073e-22)
(2.80584e-05 6.13365e-05 0)
(-1.42126e-06 3.53694e-05 -4.77028e-22)
(0.000224885 0.000202633 0)
(0.000124529 4.8425e-06 -1.48046e-21)
(0.000175522 6.76387e-05 -5.55773e-24)
(0.000123638 1.64132e-06 1.47003e-21)
(1.15012e-05 0.000151421 3.64849e-22)
(0.000254866 0.000178775 -6.78715e-22)
(0.00261902 0.00180832 0)
(8.87669e-05 7.33174e-05 1.29135e-21)
(0.000280528 2.04174e-05 0)
(0.000125571 8.99547e-05 -1.2013e-21)
(0.000686955 -7.11079e-05 -8.92e-22)
(0.000237234 0.000381355 0)
(-0.000130676 0.00065507 -1.15772e-21)
(0.000100032 1.98721e-05 0)
(6.31017e-06 3.19419e-05 3.94536e-22)
(0.000335952 0.000363403 -1.07393e-22)
(2.91356e-05 3.24114e-05 6.75754e-22)
(0.000245493 0.000250225 0)
(-0.00256893 0.000549425 0)
(3.76675e-06 2.71227e-05 -1.33383e-21)
(0.000113416 5.2184e-05 0)
(2.55911e-05 0.000117048 0)
(-0.000457619 -8.25144e-06 1.39935e-21)
(-0.00088633 1.478e-06 -5.96767e-22)
(-0.000659033 2.28866e-05 -6.41591e-22)
(0.000157447 0.000183575 6.21487e-22)
(0.000476903 1.31049e-05 0)
(9.8836e-05 1.89168e-05 1.83464e-22)
(-0.000984011 -2.75581e-06 0)
(-0.00239095 0.000344201 0)
(6.78603e-08 1.0628e-06 -1.153e-21)
(1.80069e-05 0.000980379 -5.65178e-22)
(0.000147919 0.000195848 1.05617e-21)
(8.14785e-05 0.000140182 5.68548e-22)
(-2.26266e-07 3.45664e-05 7.32012e-22)
(0.000170632 0.000125636 -6.50642e-23)
(-6.20892e-07 3.45164e-05 -5.97333e-22)
(0.000544735 -4.84796e-06 0)
(2.83636e-06 2.57406e-05 1.52898e-21)
(6.20569e-08 6.71453e-06 -1.13907e-21)
(-0.000757484 -0.000236092 -2.25882e-22)
(0.000362132 0.000117872 -1.75709e-21)
(1.62014e-05 7.40199e-05 0)
(0.000341718 5.52588e-05 1.35743e-21)
(1.45341e-05 2.84665e-05 0)
(-0.000889756 -2.00205e-05 3.65576e-23)
(8.88381e-05 2.52505e-05 0)
(0.000105174 5.54126e-05 1.25762e-22)
(7.73488e-05 7.67398e-05 -7.41234e-22)
(7.75264e-05 6.5297e-05 0)
(0.000124212 -9.12846e-05 -1.31072e-22)
(2.78513e-05 6.21119e-05 0)
(8.6655e-05 6.61421e-05 -2.68394e-21)
(0.000291868 0.000124469 -1.65163e-22)
(0.000177817 0.000107574 -1.16047e-21)
(-0.000664681 -3.24452e-05 -3.36745e-22)
(0.000335734 9.17315e-05 7.8767e-22)
(9.80015e-05 1.86641e-05 3.10564e-21)
(-0.00129206 -0.0012704 0)
(0.000419093 -3.8261e-05 0)
(6.23934e-05 -0.000295637 7.93807e-22)
(3.20294e-06 2.45108e-05 0)
(0.000141076 6.40121e-05 1.66728e-21)
(3.83063e-06 3.43499e-05 -1.31992e-21)
(4.02174e-06 3.36122e-05 3.48956e-22)
(0.00020092 0.000151916 -1.46583e-21)
(3.04249e-05 8.67622e-05 0)
(0.00012516 0.000150246 5.49732e-24)
(0.000692925 -0.000227231 3.42994e-21)
(0.000179443 0.000243145 0)
(0.000288232 0.000219453 -1.45165e-23)
(0.00019797 0.000945842 -2.01133e-21)
(6.1677e-05 0.000192442 1.07247e-21)
(0.000292879 0.000193519 -8.08353e-22)
(0.000318147 0.000170821 -2.39005e-21)
(-0.000794931 0.000150505 -4.48523e-22)
(4.28601e-05 2.3757e-06 2.18079e-22)
(-0.000984757 -8.95725e-06 2.94996e-22)
(0.000341233 0.000343618 0)
(2.622e-05 0.00011774 2.64868e-22)
(-0.00242431 0.0037964 0)
(0.000115251 2.72664e-05 1.0327e-21)
(7.54203e-05 7.49839e-05 1.30617e-21)
(-0.000328613 4.04264e-05 1.29878e-21)
(3.18991e-05 0.000118011 -6.89262e-22)
(3.31368e-05 0.000103366 -1.41844e-22)
(-0.00135514 7.53139e-05 0)
(4.00944e-05 -0.000299531 -6.95112e-25)
(0.000149207 2.83071e-05 0)
(0.000138578 4.91599e-05 1.75251e-21)
(8.79218e-05 6.30387e-05 -3.45576e-25)
(3.05795e-05 0.000291578 0)
(5.44218e-05 5.67199e-05 0)
(0.000124568 6.20131e-05 -1.67608e-21)
(-0.000919388 -8.67072e-06 2.40576e-24)
(-0.000954478 -3.40007e-05 5.86616e-22)
(6.21205e-05 0.000113566 -8.44008e-22)
(5.85346e-05 0.000119128 -4.3826e-22)
(-0.00100605 -2.23833e-05 0)
(0.00017339 0.000124388 3.2009e-22)
(0.000127485 9.00719e-05 -1.28805e-21)
(0.000138201 1.53895e-05 0)
(0.000292484 0.000704441 9.85113e-22)
(0.000135589 0.000112117 1.07387e-21)
(2.98714e-05 6.19032e-05 -7.67462e-22)
(3.29056e-05 0.000795858 5.08469e-22)
(-0.000821954 -1.41604e-05 4.0701e-22)
(8.96728e-05 5.03295e-05 -1.97174e-21)
(0.000367844 0.000117381 1.91181e-21)
(3.34634e-05 0.00010264 2.42021e-22)
(0.000136451 4.73988e-05 -1.86875e-21)
(0.000314335 0.000237904 1.11371e-21)
(-0.000990787 -8.9182e-06 -2.83934e-22)
(0.0022892 0.000734996 5.05717e-23)
(7.14559e-05 4.15009e-07 1.25437e-21)
(8.03002e-05 7.85462e-05 -9.02639e-22)
(0.000391287 0.000356353 0)
(0.000136361 0.000114173 -1.90313e-21)
(0.000389495 2.76549e-05 -1.03128e-21)
(0.000141871 6.09819e-05 -1.8953e-21)
(3.81136e-05 5.83527e-05 0)
(2.7012e-05 0.000115635 0)
(-0.000507715 5.40953e-05 0)
(7.72144e-06 0.000122507 -4.33055e-22)
(0.000453531 -3.95228e-05 0)
(6.45291e-05 3.90188e-06 1.73858e-21)
(0.000350522 0.00080573 0)
(0.000881408 0.00369513 -1.03188e-21)
(0.000504866 -8.52807e-06 2.59975e-22)
(0.000589454 -3.14666e-05 -8.82972e-22)
(2.76324e-05 8.61477e-05 -3.65474e-22)
(0.000332578 0.000602896 -9.88262e-22)
(0.000121334 3.63649e-05 -1.7609e-23)
(-0.000992939 -6.1365e-06 -1.89671e-21)
(-0.00140959 6.36191e-05 0)
(0.000107052 2.37909e-05 -6.7962e-24)
(9.45977e-08 1.38055e-06 0)
(-0.000613317 -3.67444e-05 -2.81102e-22)
(0.000399697 -8.95311e-05 -8.81329e-22)
(0.000152362 0.000224997 0)
(0.000189649 0.000142747 6.11662e-22)
(4.92771e-05 3.07989e-05 9.38529e-22)
(-0.000989327 9.45144e-05 -4.93865e-22)
(2.78186e-05 9.99052e-05 1.34234e-21)
(-0.00053342 -6.39702e-06 -5.73315e-22)
(2.50543e-06 0.000124614 7.83633e-22)
(0.000146777 1.44626e-05 0)
(0.000104389 5.68609e-05 4.92649e-22)
(0.000299476 0.000340882 -9.94241e-23)
(9.74143e-06 5.43618e-05 -5.51401e-22)
(0.000179782 -0.000462165 -1.47347e-21)
(-0.000818683 -1.873e-05 -1.37995e-21)
(-0.000989772 8.49986e-05 9.95396e-22)
(2.93422e-05 7.53169e-05 0)
(0.00029051 0.000120007 -1.7373e-22)
(2.85233e-05 7.36951e-05 -6.83988e-22)
(8.58224e-05 2.66371e-05 1.30018e-24)
(0.000285886 0.000343504 3.10817e-22)
(0.000448758 -3.58352e-05 0)
(-0.000228418 1.77634e-05 -3.79885e-22)
(9.68294e-05 1.78059e-05 -2.81492e-21)
(-0.000562294 0.00022605 5.9586e-22)
(-0.000311224 3.51511e-05 -3.95219e-22)
(4.88789e-05 4.86906e-05 0)
(0.000531475 -1.50771e-05 0)
(1.45756e-05 3.5484e-05 7.20276e-22)
(-2.1718e-05 0.000933148 0)
(0.000594445 -3.07386e-05 0)
(0.000141979 7.1371e-05 -1.29349e-21)
(-0.000986538 8.80767e-05 -1.0557e-21)
(-9.33705e-07 3.44725e-05 -2.83823e-22)
(4.36942e-06 0.000377368 0)
(-0.00104849 -5.04495e-06 8.77951e-22)
(0.000297038 0.000123919 -1.86571e-22)
(4.01588e-05 2.12578e-05 -1.58348e-22)
(1.84226e-06 3.46228e-05 -3.49461e-22)
(2.91421e-05 0.000117562 5.65015e-22)
(3.39746e-05 0.000202325 1.4616e-22)
(7.25027e-05 5.50312e-07 1.30074e-21)
(0.00016932 1.68383e-05 6.62432e-22)
(0.000105239 0.000107024 0)
(0.000112701 2.87168e-05 1.18507e-21)
(-0.0009729 -3.13047e-05 -1.14343e-21)
(6.66151e-05 5.35047e-05 0)
(0.00019727 -0.000490817 1.50761e-21)
(6.65575e-08 1.00998e-06 -3.72077e-23)
(4.87602e-05 4.72359e-05 0)
(-0.000938476 -2.48679e-05 2.2479e-21)
(-0.000769722 1.55617e-05 -6.28894e-22)
(-0.000427331 -3.1558e-05 0)
(6.51654e-05 5.17278e-05 -1.12135e-21)
(-0.000971796 9.5549e-05 0)
(4.39766e-05 5.3952e-05 -8.73318e-22)
(0.000158219 5.78811e-05 1.98772e-21)
(4.89664e-05 3.00155e-05 1.17297e-21)
(0.000114663 5.48103e-05 1.67242e-21)
(0.000470975 0.000695804 -4.99648e-22)
(-0.000867058 2.14614e-06 3.18597e-22)
(4.92777e-05 7.11381e-05 4.88299e-22)
(4.61234e-05 1.99701e-05 1.24807e-21)
(0.000393541 -9.55921e-05 -1.01906e-21)
(8.71158e-05 2.60225e-05 3.36952e-21)
(0.000112983 6.06721e-05 1.94541e-21)
(0.000603876 -9.66358e-05 1.811e-21)
(3.9198e-06 6.5185e-05 0)
(-3.0064e-07 3.28263e-05 0)
(8.77028e-05 2.76635e-05 -1.86104e-21)
(4.63312e-06 6.7262e-05 1.48676e-22)
(9.49141e-05 1.8471e-05 0)
(2.47799e-05 5.92683e-05 5.33901e-22)
(0.000429613 0.000173435 6.83945e-22)
(0.00014295 6.84073e-05 1.81169e-21)
(2.24449e-05 8.5114e-05 0)
(0.000114891 0.000383594 -4.29342e-24)
(5.50208e-05 0.000138561 0)
(-0.00100405 -2.82812e-05 -1.28755e-21)
(0.000527963 2.30218e-05 1.9289e-21)
(0.000102033 0.000137964 -6.03404e-22)
(9.21968e-06 2.67393e-05 -2.13063e-22)
(0.000157268 6.13021e-05 -2.87224e-21)
(0.000261288 0.000260975 0)
(2.84115e-05 5.05365e-05 -6.72903e-22)
(0.000243116 0.000171557 8.78443e-22)
(7.38804e-05 8.13843e-06 0)
(6.03424e-08 4.45261e-06 5.82613e-22)
(-0.00105381 -1.27673e-05 -2.58583e-22)
(-0.000994103 -1.19803e-05 -1.40171e-22)
(6.9029e-05 7.83854e-05 -4.42807e-22)
(5.52683e-06 3.25191e-05 0)
(0.0001379 0.000108127 1.03604e-21)
(4.66775e-05 2.20342e-05 -1.7524e-21)
(9.11757e-05 1.93945e-05 0)
(-0.000942357 -2.1394e-05 -2.51845e-21)
(-0.000986644 2.5626e-06 7.49571e-22)
(0.000620451 -5.64941e-05 3.0727e-21)
(8.23932e-05 0.000229442 8.54706e-22)
(0.00029827 0.000213953 7.04507e-24)
(0.000124268 8.24519e-05 1.43155e-21)
(0.000336645 -5.9844e-05 -8.61192e-22)
(0.000186974 0.000162862 0)
(0.000372429 6.17569e-05 -1.98396e-22)
(3.60326e-05 0.000339353 0)
(-0.00102597 -2.29326e-05 -2.04633e-21)
(2.9553e-05 6.26459e-05 1.66659e-21)
(1.13091e-05 2.85764e-05 -8.097e-22)
(-0.00101927 -2.7129e-05 0)
(3.54979e-05 6.14091e-05 6.35362e-22)
(8.4918e-05 4.24241e-05 0)
(-0.00054053 6.84769e-05 6.4154e-22)
(0.000112174 2.83213e-05 2.22214e-21)
(-0.000990714 -1.93798e-05 -1.36403e-22)
(0.000123176 0.000150081 7.44265e-22)
(3.12095e-07 3.22115e-06 -1.58342e-22)
(8.61027e-05 4.07665e-05 0)
(-1.34378e-06 3.43718e-05 -1.81431e-22)
(0.000317163 0.000349191 0)
(-0.000490904 -0.000141178 -1.50526e-21)
(0.000316751 -1.31578e-06 -7.71295e-22)
(6.38619e-05 5.05181e-05 -1.38217e-21)
(5.30774e-05 0.000135468 1.27419e-21)
(1.46868e-05 3.01622e-05 4.95547e-22)
(0.000263829 0.000137908 -7.28625e-22)
(-0.000988889 -0.000193664 0)
(1.3125e-05 0.000159206 9.98035e-22)
(0.000358126 0.000479353 0)
(1.37629e-06 3.31916e-05 -1.54619e-22)
(3.53252e-05 8.92391e-05 5.42685e-22)
(0.000116959 6.50356e-05 0)
(8.6052e-05 9.09874e-05 9.54631e-22)
(4.49718e-05 1.88331e-05 0)
(0.00020387 0.00026998 -1.32054e-21)
(5.46561e-06 0.000120144 0)
(0.000534539 2.1051e-05 -2.43999e-21)
(-0.00024316 0.000182003 -9.60103e-22)
(0.000351227 3.8059e-05 0)
(-1.16342e-05 0.000129405 1.04148e-21)
(9.48896e-05 1.69158e-05 -1.30048e-21)
(1.35323e-07 1.94181e-06 1.98891e-22)
(0.000317902 0.000117437 0)
(1.03476e-05 5.13195e-05 1.00136e-21)
(-0.000893401 -1.69593e-05 1.0507e-21)
(2.7097e-05 0.000284336 -3.50403e-22)
(0.000114775 2.66397e-05 -2.99804e-22)
(0.000255536 0.000260903 0)
(0.000348607 4.25276e-05 0)
(-0.000540987 3.02857e-06 0)
(5.60171e-05 3.47819e-05 0)
(-0.000463775 4.95982e-05 0)
(4.16709e-06 3.64512e-05 -6.83364e-22)
(-0.000768936 -1.8123e-05 1.01024e-21)
(4.72183e-05 0.000176008 0)
(-0.000652731 7.46076e-05 -2.39902e-21)
(0.000202755 0.000265042 4.06266e-22)
(0.00096479 0.00250172 -1.77878e-21)
(0.000203327 0.000148289 -1.19852e-21)
(9.32141e-08 4.74253e-06 5.42534e-22)
(0.000229596 7.10476e-06 0)
(0.000200573 0.000158769 6.66759e-22)
(2.31156e-06 6.55543e-05 2.92974e-22)
(-0.00101833 -1.41258e-05 -1.8337e-21)
(-0.000970886 1.60718e-05 0)
(0.000133959 -6.28455e-05 0)
(0.000154106 0.000118468 0)
(4.41537e-05 1.7646e-05 0)
(0.000590352 -6.47626e-05 1.55764e-21)
(2.8137e-05 0.000120144 -5.88399e-22)
(5.25083e-05 3.01948e-05 -1.55886e-21)
(0.000540085 0.000731202 -4.68028e-22)
(4.6435e-05 0.000139315 -1.04133e-21)
(0.00060881 -6.14667e-05 -2.80471e-21)
(0.000417788 0.00225066 5.30515e-22)
(5.48555e-05 3.33923e-05 0)
(0.00047915 4.41988e-05 -1.39834e-21)
(1.84467e-06 3.37054e-05 0)
(8.11149e-06 3.24314e-05 1.45154e-21)
(0.000439835 0.000180867 1.19919e-21)
(0.000316462 0.000122406 0)
(1.17409e-07 1.20668e-06 6.46433e-22)
(0.000263681 0.000212042 -2.31385e-22)
(3.72742e-06 3.43692e-05 -6.54732e-22)
(0.000329971 -6.29407e-05 0)
(0.000379045 0.00044408 6.57999e-22)
(-0.000368072 5.28052e-05 -6.53256e-22)
(-0.0012934 4.96949e-05 0)
(-0.000954442 -2.41168e-05 0)
(-0.000981817 4.67627e-06 -1.70469e-21)
(-5.83645e-05 -0.000264497 1.16679e-21)
(0.000280304 0.000201097 0)
(-1.29925e-06 3.59126e-05 -2.80138e-22)
(0.00022467 9.71979e-06 -2.36635e-22)
(0.000451574 0.000595558 3.78256e-22)
(-0.000779827 -2.07497e-05 0)
(0.00015192 0.000198511 -4.14416e-22)
(0.000316261 -6.84705e-06 -4.1988e-22)
(-0.00105464 -1.09245e-05 8.22556e-22)
(-0.000964195 -1.33547e-05 -4.38342e-23)
(6.76065e-05 -0.000174091 3.15314e-22)
(0.000216856 0.00032006 -7.33779e-22)
(-2.19456e-05 0.00533848 -1.47735e-21)
(6.74086e-05 7.73996e-05 8.96244e-22)
(2.12169e-05 8.25744e-05 0)
(0.000250947 0.000368455 -5.81168e-22)
(3.43932e-05 6.38805e-05 -6.12447e-22)
(-0.000789328 -1.93324e-05 -6.54332e-22)
(0.000247086 0.000171818 9.30896e-22)
(0.000129228 6.92213e-05 1.93271e-22)
(0.000461459 0.000571733 -5.20572e-22)
(-2.18619e-05 -0.000236617 2.14398e-21)
(0.000114232 7.00224e-05 -3.68812e-22)
(0.000104786 0.000140826 1.49642e-21)
(5.35882e-05 3.14513e-05 -8.81321e-22)
(-1.0596e-07 4.37065e-06 -1.08374e-21)
(4.62161e-05 5.34044e-05 -9.33725e-22)
(0.00164888 -5.45016e-05 0)
(0.000157071 0.000180364 -9.89034e-22)
(2.5609e-05 6.67249e-06 -5.75383e-22)
(-0.000914522 -1.15485e-05 1.13575e-21)
(1.51083e-05 3.09632e-05 -8.45967e-23)
(0.000227432 0.000305618 2.65484e-22)
(0.000316123 7.67882e-05 -1.40585e-21)
(-0.00049738 1.87993e-06 -1.10554e-21)
(0.00012587 6.034e-05 -4.06944e-22)
(-0.000683154 9.07672e-05 2.78838e-21)
(0.000121035 3.81644e-05 -2.04639e-24)
(7.03996e-05 1.45375e-06 7.79983e-22)
(0.000151578 0.000119046 0)
(-0.000988034 -1.26071e-05 1.26934e-22)
(0.000261512 0.000134001 -1.25279e-21)
(2.45856e-05 6.53962e-06 -5.32925e-22)
(7.87249e-06 3.28366e-05 -4.3785e-24)
(2.18093e-07 2.55415e-06 -7.49253e-22)
(0.00030074 7.39185e-05 8.0014e-23)
(9.47484e-07 4.49051e-05 6.01077e-22)
(-0.000525212 -0.00036441 -4.15045e-22)
(0.000305871 0.000348737 3.9886e-22)
(-0.00136879 0.000641295 0)
(-0.000161595 4.88087e-07 0)
(0.000116488 5.71819e-05 -2.5755e-21)
(0.000299668 0.000210656 0)
(0.000686235 7.5041e-05 1.5214e-21)
(1.85364e-05 3.72252e-05 -5.43789e-22)
(0.000134657 4.12995e-05 1.81334e-21)
(2.6818e-05 7.26531e-05 0)
(3.95426e-05 0.0001098 0)
(-0.000424735 -0.00036861 8.79783e-22)
(4.7416e-06 3.40362e-05 0)
(6.32943e-05 3.96676e-05 0)
(0.000167563 0.000131001 -9.66051e-22)
(0.000263917 0.000379413 -6.21216e-22)
(0.000125355 0.000100668 1.37684e-21)
(-0.000984412 -1.60395e-05 0)