/*--------------------------------*- C++ -*----------------------------------*\
| =========                 |                                                 |
| \\      /  F ield         | OpenFOAM: The Open Source CFD Toolbox           |
|  \\    /   O peration     | Version:  v2012                                 |
|   \\  /    A nd           | Website:  www.openfoam.com                      |
|    \\/     M anipulation  |                                                 |
\*---------------------------------------------------------------------------*/
FoamFile
{
    version     2.0;
    format      ascii;
    class       volScalarField;
    location    "50";
    object      k;
}
// * * * * * * * * * * * * * * * * * * * * * * * * * * * * * * * * * * * * * //

dimensions      [0 2 -2 0 0 0 0];


internalField   nonuniform List<scalar> 
18598
(
0.000105947
0.000485731
0.000149269
0.000150875
9.65179e-05
9.90824e-05
0.000112574
0.000136537
0.00108704
0.0246047
0.000114027
0.0653503
9.33338e-05
0.0712172
0.000134185
0.000146041
0.0377265
9.88186e-05
0.000102489
0.0858853
0.000106871
0.000101403
0.058304
9.82358e-05
9.84752e-05
0.0381533
0.00111956
0.000121319
0.0011921
0.000104703
0.0168457
0.000137252
9.89534e-05
0.000118235
0.000112513
0.000570509
0.000100225
0.000113862
9.61568e-05
0.038671
0.000159806
0.00423237
0.000338354
0.0679307
0.000106952
0.000102164
9.96685e-05
0.0095374
9.05428e-05
9.89775e-05
0.000109502
0.0143585
0.000229977
0.000184045
0.000101143
0.000111144
0.000122236
0.00013475
8.99574e-05
0.000106941
0.0174613
0.000424354
0.000121152
9.8404e-05
0.000283038
0.0114742
9.02203e-05
9.34007e-05
0.0363752
9.77811e-05
9.39726e-05
0.000109052
0.0109008
0.000225312
0.000128956
0.00015467
0.000130769
0.000110527
0.000128101
9.40798e-05
0.0839171
0.00010213
0.00011628
0.0380705
9.90717e-05
0.0177478
9.78308e-05
0.110184
0.000120318
0.000105342
0.00010553
0.000175239
0.000106927
0.000270215
0.0690459
9.56214e-05
0.0384208
0.000114445
0.0817908
0.000120527
0.000120709
0.000133525
0.000101299
9.61802e-05
0.000123813
9.56478e-05
0.000128175
0.0183734
0.000120155
0.000288472
0.000109366
0.0193255
0.000132346
0.000101438
0.000173497
0.000108588
0.0816358
0.000106388
9.51874e-05
0.000100457
0.0628385
9.61809e-05
9.51931e-05
0.000109854
0.0425379
9.54355e-05
9.40041e-05
0.000106366
0.000603973
9.69243e-05
9.32089e-05
0.000141782
0.0522206
0.000105711
0.0310128
0.000109392
0.000126046
0.000120568
9.95643e-05
0.000256206
0.00151496
0.000107342
0.000121744
0.0509137
0.000114071
0.000102635
0.00468177
0.000165801
0.000114346
0.00010936
9.57554e-05
9.36063e-05
0.000110321
0.0323512
9.54414e-05
0.000114373
0.0343901
9.55744e-05
9.30157e-05
0.000100239
0.000116098
0.000277038
9.04889e-05
9.50434e-05
9.66236e-05
0.0439574
0.000848411
0.000137538
0.000131684
0.0001157
0.000128546
0.000116575
0.0604558
0.000220561
9.77521e-05
0.000101697
0.0795015
0.000108408
9.71627e-05
0.0426342
0.000109012
0.00795495
0.000138703
9.93073e-05
0.0197676
0.000109318
0.0288882
0.0433598
0.000124175
0.000242662
9.07548e-05
9.65081e-05
0.000137147
0.0299832
0.000100702
9.81918e-05
0.0631269
0.0165475
0.000114672
0.000339602
0.0265044
0.000110533
0.000116169
0.000148507
0.00010527
0.103074
0.0012792
0.000110493
9.51602e-05
0.000101368
0.000107324
0.0359025
0.000103959
0.000129728
0.000165984
0.000101291
0.000165934
0.000103696
0.000133623
0.000143156
9.20753e-05
0.000115448
0.000102827
0.000124868
0.000108485
0.000103756
9.54022e-05
0.000117122
0.0553813
9.50875e-05
0.0511915
0.0345441
0.000114124
0.00010673
0.00041717
0.0902393
9.94026e-05
0.000109436
9.82031e-05
0.000105481
9.47639e-05
0.000107272
0.0170298
9.05971e-05
0.000293235
0.000101969
0.000117074
0.000107738
0.000101518
9.80314e-05
0.0301585
0.000475693
0.107714
0.0543052
0.000110061
0.0609418
0.000121151
0.0150137
0.000122204
0.0375691
9.70555e-05
0.00011033
0.0158263
0.0606499
0.00446014
0.000105897
9.16217e-05
0.0220366
0.000154753
9.72578e-05
0.000103031
9.27626e-05
0.000107777
0.000109823
0.00926357
0.0990718
0.0421214
0.0384659
0.000157227
0.000111554
0.00010636
0.128336
0.000102596
0.00859063
0.0437615
0.000108912
0.000149092
0.000141827
9.9172e-05
0.0288949
0.000158607
0.0106144
0.0216658
0.00591226
0.0812214
9.89358e-05
9.07691e-05
0.000391531
0.000123126
0.000107744
0.0837272
0.0243887
0.000116822
0.0413785
9.78247e-05
0.000132517
0.0470511
0.00010955
0.0191988
0.00068126
0.0619497
9.61495e-05
0.000422866
0.0221525
0.000114438
0.000105606
0.000120055
9.60029e-05
0.000122573
0.0129174
9.34076e-05
0.0545058
9.47985e-05
0.000106925
0.000102947
0.0439904
0.00013159
0.000193876
0.000100963
0.000102145
9.48578e-05
9.06752e-05
0.0156441
0.0388772
0.000101889
0.000321437
0.000107217
0.0188215
0.000154468
0.000105971
0.000106875
0.000377072
0.000221767
0.030343
0.000109937
0.0290323
0.0377074
0.0258347
0.00459965
0.0464641
0.00010608
9.36083e-05
9.37101e-05
0.000311066
0.000165637
0.000103298
0.000152317
0.0324162
0.000159078
9.84945e-05
0.000119534
0.0338136
0.000128807
0.000102527
9.30745e-05
0.000102051
0.0144781
0.021653
0.00011296
0.087002
0.000103624
0.00843776
0.00010533
0.0424405
0.000133572
0.0140627
0.0430923
0.000103118
0.000121488
0.039399
0.0846827
0.000127718
9.86583e-05
0.000110417
9.45023e-05
0.0254593
0.000117461
0.00014644
9.26049e-05
0.000109398
0.00035737
0.000106446
0.000112684
0.000111783
0.070676
0.000103161
0.00010142
0.000119951
0.000297976
0.000104597
9.43238e-05
0.000122291
9.75203e-05
0.000146195
0.0305981
0.0377325
0.0127045
0.0460293
0.034166
0.000129861
0.000127097
0.0298393
0.000115927
0.000106436
0.000146643
0.000108629
0.000108955
0.000105059
0.0863352
0.000104297
0.000105708
0.000115474
0.000129646
0.0135566
9.39136e-05
9.7213e-05
9.38878e-05
0.000107552
0.000111211
0.0152586
9.83758e-05
0.00575939
9.7348e-05
0.000279273
0.000189413
0.0195763
9.08852e-05
0.000127923
0.000311885
0.000113142
0.067887
0.0150323
0.000136644
9.49071e-05
0.00011047
0.0232954
0.0409867
0.0498039
0.000102442
0.00392761
9.10268e-05
0.0388812
0.0148779
0.000147527
0.088859
0.000103253
0.000104749
0.00012766
9.91546e-05
0.000127296
0.000578455
0.000137169
0.000146201
0.0984902
0.000147703
0.000117866
0.0056896
0.000122654
0.0241196
9.22465e-05
9.54097e-05
0.000104137
9.94867e-05
0.079784
0.00011528
9.77619e-05
0.000112691
9.84844e-05
0.0301456
0.000121887
9.0811e-05
0.0101167
0.00013827
9.75806e-05
0.00013724
9.60548e-05
0.000133653
0.000134021
0.000101231
0.000114061
0.000102106
0.000161256
0.00010836
0.000201497
0.0175163
0.000105653
0.000145244
0.000145363
0.0833237
0.000102806
0.0537926
0.000365552
0.000110147
0.0228656
9.30831e-05
0.000104217
0.0579256
0.000109137
0.000111496
0.0185553
9.72728e-05
9.52983e-05
9.54663e-05
9.72785e-05
0.000112235
0.000107691
9.5596e-05
0.0315866
0.0215297
0.000106366
0.000106459
0.0363765
9.90739e-05
9.73616e-05
9.46028e-05
0.0675608
9.86114e-05
0.000114765
0.0897905
0.0393827
9.60817e-05
0.000153582
0.000111657
9.53336e-05
0.000374865
0.0531923
0.00522887
9.14405e-05
0.000103335
0.00539143
9.87615e-05
0.00411034
9.59548e-05
0.000111933
0.000110511
0.0585173
0.000111922
0.000162059
9.47744e-05
0.00453684
0.0253777
0.0615684
0.000967269
0.000114604
0.0563726
9.39714e-05
0.0371189
0.0167403
9.13188e-05
0.000146827
0.0280891
0.000120535
0.000105363
0.000100311
0.000105625
0.0646211
0.000113133
0.0232231
0.000111655
9.50118e-05
9.5529e-05
0.00037433
0.000120959
0.000102729
0.0269467
0.0620024
0.000114683
0.000111943
0.000115002
9.21368e-05
0.000466749
0.000161855
0.0570142
9.09757e-05
0.104984
0.0573801
0.000108265
0.000382769
0.000122078
0.0902332
0.000986632
9.6361e-05
0.0654206
0.000127642
0.000349075
0.0296132
0.000114614
0.000107444
0.000135917
0.000109633
0.000106463
9.11655e-05
9.59386e-05
0.000101171
9.17515e-05
0.0244933
0.000103374
0.000103745
0.000147466
0.000108033
0.0218102
0.0518221
0.0216108
0.000103589
0.0682573
0.000110063
9.63111e-05
0.000105639
9.10752e-05
0.0612514
0.039755
0.000109356
0.000103191
0.000118372
9.40521e-05
9.09486e-05
0.000234496
0.000119905
0.000137624
9.40834e-05
0.000119568
9.25009e-05
0.000116744
0.000382882
9.62596e-05
0.000115516
0.000149209
0.000106133
0.0192759
0.00163434
0.000103354
0.000128141
9.64214e-05
0.000139915
0.00011523
0.00010724
9.26029e-05
0.000147136
0.0287754
0.0552226
0.000105732
0.000132484
9.82715e-05
0.000103685
9.24068e-05
0.0239855
0.0337483
0.000342116
0.000106215
0.000210091
9.68358e-05
0.000109073
0.00010135
0.000135433
0.00012182
0.0329068
0.000114835
0.000125067
0.0211189
0.00011288
9.56607e-05
0.0645468
9.1758e-05
0.027838
0.000102232
0.000144864
9.55698e-05
0.000127259
0.000534702
0.0976271
0.000107592
0.000104129
0.000106302
0.000122621
0.000107262
0.118589
0.000107175
0.00389947
0.000136899
0.000112461
9.07132e-05
0.000103438
0.000103798
0.000116112
0.000112194
0.0011328
0.018282
0.000119696
0.000110428
9.08576e-05
0.0001477
0.000120044
0.000121371
0.0273365
0.000111499
9.29843e-05
0.000134705
0.000119567
0.0374353
0.000101128
0.0564831
0.000132282
0.0338262
0.000105941
0.0285072
0.000115517
0.0226003
0.000101109
0.000145903
9.8772e-05
0.000101585
0.00011976
0.0326252
0.0626505
9.50113e-05
9.87214e-05
0.000103954
0.000309584
0.000109343
0.000101999
0.0042323
0.000106601
0.000348576
0.0236391
0.000101463
0.000412475
0.000136267
0.000125826
0.0055784
0.000120531
0.00014685
0.000482053
0.0001329
0.000107929
0.00315155
0.0635029
0.0185656
0.0242054
0.0430466
9.6071e-05
0.000407148
0.000130342
9.84762e-05
0.0498446
0.0140678
0.000103403
0.000107609
0.0284956
0.0400055
0.0819449
0.00435084
0.0251721
0.000105859
0.000116067
0.000188766
0.000113231
0.0286185
0.000108102
9.61386e-05
0.00169363
9.59271e-05
9.06993e-05
0.000103231
0.000101711
0.000146923
0.000109465
0.000390622
0.000102294
0.000112765
0.0312387
0.000122257
0.000134889
0.000113086
0.0243967
9.5556e-05
0.0291056
9.40257e-05
9.28132e-05
9.88005e-05
0.0533329
0.00010665
0.000113218
0.000125991
0.000146967
0.0001091
0.000122455
0.113629
0.000375227
0.0281703
0.0471842
9.09197e-05
0.000201427
0.00173801
0.000119688
9.50191e-05
0.000115672
0.000109172
0.106134
0.000132777
9.89943e-05
9.93839e-05
0.0001955
9.81884e-05
0.0298592
0.0269314
0.000108069
0.000106178
0.000107842
0.000122356
0.00772802
0.000147571
0.000106937
9.03465e-05
0.000122761
9.46022e-05
0.000124826
0.0815176
0.0592222
0.000111935
0.000102301
0.000667242
0.0152132
9.06936e-05
0.000100912
9.25828e-05
0.000100848
0.0287415
0.00081307
0.000155489
0.0515269
0.000105241
0.000136288
0.000116582
9.52966e-05
0.00010694
0.00865225
0.0215075
0.000104776
0.0228768
9.4605e-05
0.000107444
0.000108871
0.00011276
0.000110426
0.000136853
0.000106591
0.000107782
0.000114854
0.044178
0.000410422
0.000376185
0.000138158
0.000126828
0.000108448
9.66552e-05
0.000125852
0.0575757
0.0168186
0.000140751
0.000104936
0.000116603
0.000610974
0.000132619
0.103166
0.000124566
0.000107502
0.00115721
9.94918e-05
9.42889e-05
0.000372858
9.5894e-05
0.000146296
0.000109915
9.44611e-05
0.000219878
0.0764231
0.0234324
9.67922e-05
9.93206e-05
0.00012591
0.0216205
0.000400172
9.1246e-05
9.29177e-05
0.000110882
0.000106482
0.000122484
9.15139e-05
0.0398585
0.000134575
0.000146789
0.0189755
0.000153919
0.00011432
0.044402
0.000132204
9.45564e-05
0.104602
0.0134308
9.42028e-05
0.00349734
0.00010058
0.0024913
0.000136719
0.000106461
9.11398e-05
9.46061e-05
0.000103063
0.000111091
0.00010148
9.1399e-05
0.0067109
0.00753263
0.000139662
0.000121042
0.0185613
0.000147503
0.000144961
0.000132773
0.000106302
0.0108331
0.000107471
0.000101573
0.000109832
0.000204396
9.35633e-05
0.000107032
0.000120752
0.000100785
0.0418899
0.000127577
0.000100068
9.78581e-05
0.000145482
0.000115672
0.000144256
0.00014371
0.000161672
0.000111848
0.00010209
0.000111583
9.76698e-05
9.12756e-05
0.000115638
0.00228229
0.000111731
0.0483585
9.96841e-05
0.000120851
0.0290393
0.0196882
0.000113628
0.073024
9.03479e-05
0.113001
9.93894e-05
0.0230469
0.000136399
0.000127591
9.96317e-05
0.0208872
0.0145534
0.00021855
0.00010938
0.0598648
0.000104499
9.78218e-05
0.00151758
0.00012245
8.96853e-05
9.73648e-05
9.17817e-05
0.000144042
0.00010832
9.97329e-05
0.00284503
0.000109146
0.000152335
0.0154648
0.000108658
0.0291641
0.0790535
0.000136092
0.0877021
0.000120965
0.000105108
0.0032172
0.027454
0.0928588
0.0190236
0.000114935
9.41726e-05
9.83545e-05
0.000101226
0.000144578
0.000265186
0.000735977
0.000104552
0.000108259
0.000122004
9.84216e-05
0.00016143
0.000126681
9.96765e-05
0.000104572
0.000115264
0.000313475
0.0600373
0.0216919
9.23241e-05
9.54532e-05
0.000102886
9.21377e-05
9.16476e-05
9.9237e-05
9.92436e-05
0.0297332
0.000104987
0.000130582
0.000377678
9.66697e-05
0.0231044
0.0376097
0.000113413
0.000556605
0.000108381
9.27665e-05
9.17588e-05
0.000131804
0.000138177
0.0293418
0.0186778
0.000102066
0.0608208
0.00010017
9.76451e-05
0.0542235
0.000117994
0.000107807
0.000100003
0.000124192
0.00010192
9.51514e-05
0.0260338
0.000101824
9.69015e-05
0.00738452
0.000100285
0.00255293
0.000107689
0.0001063
0.0226515
0.000129923
9.99977e-05
0.0570408
9.97405e-05
0.000102367
0.0583777
8.99626e-05
0.0416152
0.000112133
0.0376688
0.000108794
0.0184422
0.000106075
0.0767288
0.000106247
0.0815064
9.93171e-05
0.0216193
9.72031e-05
0.00011604
0.000106407
0.000115669
0.000158232
0.00155543
0.000118298
0.0624015
0.000107287
0.0320697
9.14747e-05
0.000103997
0.000108326
0.000107528
0.0216845
0.000116347
0.0124949
0.0487785
0.0495208
0.000100674
0.0423282
9.96391e-05
0.000116179
0.000116836
0.0320529
0.00010568
9.77834e-05
0.00308411
0.0149924
0.000127198
0.0273242
0.0330257
0.000117317
9.38862e-05
0.000105533
0.0167291
0.00031067
0.000107553
0.000116771
0.000107174
0.0001027
9.10819e-05
0.000213847
0.000146111
0.000125306
0.000116143
0.000110501
0.000120875
0.0001072
0.0478092
0.100733
9.95387e-05
0.042524
0.000105651
0.00589801
9.92202e-05
9.85605e-05
0.000106557
0.000108081
0.000106192
0.00777407
0.000148733
0.00011353
0.000105207
0.000138705
0.000112843
0.00010674
0.00210086
0.00563784
0.000166395
0.000103898
9.92303e-05
0.000103785
0.000137754
9.58248e-05
0.0482591
0.00119464
0.0169011
0.000126796
0.000104915
9.66969e-05
0.0800783
0.000100302
0.0432284
0.000118146
0.00462213
0.0704523
9.47096e-05
0.000117992
9.16349e-05
0.000139686
0.000113403
0.000117537
9.74735e-05
0.000116963
0.00087895
0.00832733
0.000186971
0.000105035
0.000105657
0.00197315
0.00011777
0.00372507
0.0256891
0.000103403
0.000110237
9.96199e-05
9.65034e-05
0.000107055
0.000106111
9.22175e-05
0.000100565
9.69759e-05
0.0747029
0.000114476
9.38979e-05
0.000102505
0.0325646
0.000125167
0.0131122
9.1056e-05
9.16385e-05
0.000109207
0.0600055
9.94786e-05
0.000114114
0.000101715
0.00010876
0.000112004
0.000148515
0.000175655
0.0368181
9.0091e-05
0.00013572
0.000102628
0.000105108
0.000106421
0.00015692
0.000146095
8.99163e-05
0.000147162
0.000101885
0.000107165
0.000110002
0.000137968
0.0211198
9.84673e-05
0.011666
9.70405e-05
0.0232345
9.73015e-05
0.0439839
0.000213342
0.000134828
0.000110346
0.000101561
0.137798
0.000105257
0.00010908
0.000165494
0.107016
0.0351261
9.80426e-05
0.0334802
0.0001868
0.0180512
0.000186681
0.0540817
0.0402156
9.24016e-05
0.000127556
0.000111973
0.000112888
9.71519e-05
0.000120603
9.08575e-05
9.92307e-05
0.000119587
0.0285345
0.000393288
9.55681e-05
0.000516159
0.000104725
0.00132115
0.000122782
0.00575889
0.000122075
0.000111799
0.000135645
9.48448e-05
0.0144144
9.51769e-05
0.000100126
0.000115409
0.0246564
0.000147647
0.000145714
0.00034471
0.0249749
0.020227
9.10085e-05
9.77676e-05
0.000119823
0.000107788
0.000112566
0.000102497
9.27969e-05
0.000127568
0.0206676
0.0114841
0.000116422
0.000112098
9.23868e-05
9.15764e-05
0.000148086
0.0492054
0.000109551
0.000106881
0.000102878
0.0280345
0.000248988
0.000126253
0.000186431
9.4433e-05
0.00796184
9.79399e-05
0.000106303
0.000108129
0.000139047
0.0405709
0.000115363
0.000118498
0.000106324
0.000117233
0.000110226
0.000120586
0.000106529
0.000105012
0.0957935
9.82667e-05
9.93252e-05
0.0245446
0.0862597
0.00324127
9.43686e-05
0.000102412
0.000138255
0.000132449
0.000108825
0.000106429
0.000100263
0.000147949
0.000142256
0.000147617
0.0437948
0.0522896
0.000101238
0.00014802
9.69253e-05
9.26725e-05
0.0529034
0.000102826
0.000108033
0.0485787
0.000626949
0.00496278
9.3681e-05
0.000106653
9.86872e-05
0.0939743
9.45871e-05
0.000122585
0.0001177
0.000265048
9.37725e-05
0.0175959
0.00130458
0.000107095
0.0342818
0.00010698
0.0588178
0.00895601
0.000111874
9.51615e-05
9.36497e-05
0.000174224
0.000117491
0.000109725
9.92187e-05
0.000104633
0.000143487
0.000156571
0.0378774
0.000101415
0.000124801
0.000135128
0.000117674
0.00522862
0.00010402
0.0546272
0.000136884
0.000114782
9.1913e-05
0.000143218
0.000108757
0.000111751
0.000187861
0.000107899
0.000100311
0.0260135
0.000102028
9.35292e-05
0.000101802
9.89904e-05
0.000153708
0.000139444
0.000115425
0.000227782
9.36118e-05
0.000119648
0.034778
0.0765646
9.72299e-05
0.041402
0.000123426
0.00646897
0.0796545
0.00891785
9.21524e-05
0.000108527
0.000122378
0.000120014
0.000517868
0.000116995
0.000165619
0.000108537
0.000135786
9.25606e-05
0.000111588
0.0408025
0.0190287
0.0016909
0.000111585
0.0341331
9.87047e-05
0.00013726
0.00010933
0.000347994
0.000103349
0.000113295
0.0854943
0.000207877
0.000109444
0.00830244
0.000138495
0.0729882
0.000108695
0.0244141
0.000193197
0.000104743
0.000114381
0.00146946
9.81152e-05
0.000117584
0.00160836
0.000102398
0.000110801
0.115959
0.000110487
0.000372295
0.00853117
0.000119165
9.89974e-05
0.000520642
0.000109603
9.45651e-05
0.0529844
0.000164975
0.000115845
0.0631395
0.00011627
0.000121714
0.0106148
0.000121119
0.000107427
0.000117593
0.000110152
0.00010813
0.000107131
0.000196855
0.00257223
0.000107222
0.000131389
0.000146918
0.000101925
0.000100075
0.0395707
0.00010104
0.0001136
0.000257879
0.0001283
0.000150527
0.000108263
9.6557e-05
0.000102063
0.000106357
0.000108052
9.46692e-05
0.000114154
0.00565644
0.000111511
0.000135812
0.000121881
0.000120121
0.0861808
0.0291107
9.69818e-05
9.54133e-05
0.000112961
0.000101944
0.00010508
0.0750265
0.0469272
0.000117852
0.000144504
9.08518e-05
0.000102437
0.000139545
0.000124853
0.000143283
0.00118035
0.000148061
0.00012424
0.00014587
0.00010157
0.000106389
0.0471036
9.56502e-05
0.000139314
0.000159635
0.000106748
0.000653046
0.000117056
0.000517243
0.000113993
0.000137987
0.000124834
0.00010739
0.00010144
0.000146953
0.000128628
0.000106802
0.0790804
0.0911931
0.0968445
9.72279e-05
0.000114778
9.95898e-05
0.000104098
0.000107679
9.10791e-05
0.000113614
0.000108686
0.0245349
0.000117434
0.000108345
0.000117936
0.0982847
0.0812993
9.80929e-05
0.000122322
0.0545297
0.00695575
0.000111402
0.0244501
0.0745296
9.2757e-05
0.0729972
0.000105252
9.55309e-05
0.000265691
0.000100545
0.000100514
0.0926379
9.61204e-05
0.000150038
9.7955e-05
0.0293265
0.000114927
0.000346158
0.0164286
0.000240477
0.00298392
0.000109128
9.7619e-05
0.000107497
0.000107706
0.000224731
0.000115327
0.000110847
0.0398783
9.86782e-05
0.0158377
0.0139203
0.000120416
0.000103402
0.000101812
0.0695802
0.000100859
0.000113574
9.20226e-05
0.000100539
9.99797e-05
0.021664
9.30265e-05
9.20952e-05
0.0341385
0.0148205
0.000263652
0.000137044
0.000103188
0.11474
0.0586434
9.78636e-05
0.0659414
0.00507538
0.0728373
9.59549e-05
0.000124394
0.000135606
0.000107497
0.000115009
0.00506957
0.000119556
0.000177608
0.000115347
9.96666e-05
0.000107059
0.000128127
0.067611
0.000106359
0.000106602
0.00012384
0.000103225
0.000103077
0.000126054
9.98878e-05
0.000106277
0.000113481
9.39539e-05
9.4879e-05
0.0911504
0.000108052
0.0475796
9.82622e-05
0.0315553
9.42974e-05
0.0193779
9.20648e-05
0.000111424
0.000103262
9.88639e-05
0.0260785
9.93786e-05
0.000108106
0.000147483
0.000109243
0.000143946
0.000196474
0.000106757
0.000139868
0.000110548
0.000132699
0.000102701
0.00010635
0.000109606
0.000109363
0.000139397
0.000118094
9.72921e-05
9.91159e-05
0.000175321
0.000364814
0.000111021
9.96143e-05
0.0279607
0.0224358
0.000184031
0.000100417
0.000153445
0.000148041
0.000106895
0.000122283
0.000116404
0.040096
9.78575e-05
0.000104531
0.000111382
0.000119252
0.0303112
0.000318657
0.000127273
0.000128683
9.72209e-05
0.0211042
0.000168621
9.4401e-05
0.000119332
0.00511273
0.000448051
0.000104992
0.000118238
0.026186
0.0325776
0.0299755
0.000475494
0.000137185
0.000134996
0.0610961
0.0138585
9.72121e-05
0.000144095
0.090408
0.0789418
0.000110353
0.0507936
0.00012286
0.0192707
0.000117543
0.000278554
0.000136533
0.000104952
0.0681201
0.000111434
0.000104093
0.00790393
0.000119809
0.000187545
0.000116757
0.000118371
0.000128245
0.04914
9.19989e-05
0.000107718
9.60106e-05
0.094319
0.0482943
0.000147577
0.000100122
0.0246355
0.000105242
0.000100684
0.0393353
9.40839e-05
0.000103291
0.000126121
0.000110996
0.000339152
9.34657e-05
0.000112091
0.000112762
0.000112108
0.000127208
0.0410234
0.000107031
9.4277e-05
0.000101598
0.000146947
0.00011381
0.000121748
0.000105532
0.000128113
0.000130171
0.0470493
0.0364904
0.0783359
0.000112068
0.0585945
0.000109806
0.0524226
0.0380238
0.126989
9.98859e-05
0.000110094
0.000112885
9.5421e-05
0.0257567
9.90606e-05
0.000272735
9.80741e-05
0.000324759
0.000104695
0.000102167
0.0235932
0.00010253
0.000107646
0.0341858
0.049577
0.000105384
0.000100604
0.000107085
0.000252163
0.000107132
0.000281156
0.0177188
9.08816e-05
0.00661322
0.000105534
9.85519e-05
0.000113657
0.106023
9.7859e-05
0.000128927
0.0364992
9.44998e-05
0.000112426
0.000103168
0.000146144
0.000108519
0.0343543
9.46236e-05
9.45604e-05
0.000147596
9.33309e-05
0.000223744
0.0523591
9.66027e-05
0.0891353
0.011896
0.000102008
0.0170879
0.000148783
0.000108975
0.000109948
0.000105332
9.65873e-05
0.000203487
9.19974e-05
0.0354837
0.000238839
0.000239452
0.0431749
0.00755084
0.000100292
0.0134318
0.000143499
0.000177404
0.069303
0.00010548
0.0274695
0.00553547
0.0502024
0.0048823
0.0229851
0.000482
9.8901e-05
0.000128305
0.00211229
0.000173706
0.000100723
0.000105193
0.000105747
0.000134062
0.0496189
0.000104493
0.000107105
0.000100858
0.000166053
0.0286743
9.32897e-05
0.000141544
0.000105818
0.014618
0.000111058
0.0082292
0.000111167
9.59776e-05
0.000104625
0.00010273
0.000119516
0.000134852
0.0471486
0.000108923
0.0272303
0.000108222
0.000137123
0.000116633
0.000141213
9.73996e-05
0.00697984
0.100497
0.000100815
0.000133108
0.00535868
0.000217175
0.000101421
0.000124097
0.000104276
0.000131215
0.100643
0.000119244
0.000100522
9.11064e-05
0.0347523
0.0203314
0.000114823
0.000276945
0.0232506
0.000105392
0.0487091
0.0346807
0.0268927
0.000129418
0.000188629
9.68635e-05
9.79227e-05
0.000395537
0.0229231
0.00014093
0.000127271
0.0251576
9.80086e-05
0.000112442
0.000467033
0.000113485
0.000269802
0.000117262
0.000145196
0.0763618
0.000600644
9.18206e-05
0.000102045
0.000112711
0.000458451
0.0187983
0.000618775
0.000549112
0.000104177
9.77807e-05
0.000106743
0.000110711
0.0129479
0.0597293
0.0407958
0.000163885
0.0181011
9.54389e-05
0.000104075
9.86123e-05
9.37051e-05
0.000134688
0.000101855
0.000116968
0.000111234
0.000114209
9.71343e-05
0.000103463
0.122498
0.00010976
0.00010666
0.000224041
0.000104231
0.00010723
0.000112077
0.000143144
0.000113693
0.00010492
0.000145151
9.70554e-05
0.0390003
0.0251213
0.000102058
0.0603683
0.000500663
0.000118155
9.33502e-05
0.000112132
0.000101141
0.000104074
0.000104899
0.000116276
0.0001474
0.05304
0.065347
0.000237821
0.000110814
0.000106004
0.000104564
0.000106447
0.000211315
0.00010536
0.0285509
0.000501379
9.83547e-05
9.82454e-05
0.0296106
0.00010627
0.00130609
0.0334873
0.072856
9.31189e-05
0.0169003
0.0228438
0.00542984
9.61662e-05
0.000127698
0.000105711
0.000112172
0.0187991
0.0577046
0.000341565
0.000107185
9.71072e-05
9.9645e-05
0.000124337
0.0994825
0.000105525
0.000111617
0.0749039
0.0834101
9.99784e-05
0.00012241
0.000132305
0.000590068
0.000102528
0.000106671
9.71699e-05
0.000111008
0.00011893
0.00108173
0.000125422
9.65112e-05
0.000136965
0.0608666
0.000106291
0.000312542
9.99744e-05
0.000112653
0.0509114
0.000142168
0.0469385
0.000137208
0.00947115
0.00011187
9.62317e-05
0.000107689
9.95475e-05
0.000101382
0.000121222
9.70083e-05
0.000135301
0.0586214
9.90025e-05
0.0161563
9.56796e-05
0.000112869
0.000487101
0.000106972
0.000100261
0.000130032
0.000134352
0.000138852
0.0267764
0.000112455
0.000148048
0.000138519
0.0727543
9.80961e-05
0.000103952
9.76111e-05
0.000100316
0.000109215
0.000113451
0.00011803
0.000105784
9.99554e-05
0.0781604
0.0298518
0.000102176
0.000121345
9.42559e-05
0.0846467
0.000107137
0.000101061
9.79339e-05
0.121085
0.0874205
0.00010171
0.0608348
0.000122183
0.000112901
0.0942068
0.000483925
0.000114434
0.000201135
0.000104838
9.94343e-05
0.000147429
0.000294486
0.00011732
0.000106479
0.00371638
0.0601149
0.000103115
0.000100956
0.0131182
0.000103028
0.000107112
0.000101147
0.000145318
0.0684225
0.000204966
9.15931e-05
0.000364835
9.69224e-05
0.00746528
0.000428449
0.000108549
0.000128738
0.000118101
0.000108248
0.0738696
0.000422432
0.000106821
9.75012e-05
0.000102334
0.00010676
0.000102507
0.0399916
0.000154346
0.0378198
9.05596e-05
0.000101848
0.0133028
9.96097e-05
0.1157
9.80916e-05
0.000128524
0.000111578
0.000102684
9.76681e-05
0.000615037
0.0278001
0.0637466
9.87953e-05
0.000134913
9.34889e-05
0.000117034
0.000106117
0.000491664
0.000119705
0.010143
0.0330201
0.000140834
9.76824e-05
0.0511173
0.000127606
9.74759e-05
9.88137e-05
0.00910461
0.000108074
0.000663462
0.000112865
0.000800581
9.6364e-05
0.0165965
0.000101855
0.000110551
0.000100542
0.06075
0.000408816
0.000345037
0.000179688
9.85067e-05
0.000133891
0.0399655
0.053982
0.000109083
0.00010138
0.000124243
9.78017e-05
9.38354e-05
0.00396153
0.000105357
9.34314e-05
0.000104254
0.000262947
9.6533e-05
9.30862e-05
0.103118
0.0001068
0.000115437
0.000219287
0.000107273
0.000101226
0.000113928
0.000116062
0.0171642
9.11863e-05
9.50357e-05
0.000671812
0.000126439
0.000100111
0.000514021
0.000428607
0.0198506
0.0731443
0.000103298
0.00832803
9.88633e-05
0.00010064
0.000101431
0.000103968
0.000108961
0.00012778
0.000101609
0.0451321
0.000112684
0.000123942
0.0146099
0.000113463
0.000109603
0.000461229
9.07985e-05
0.000110518
0.000113308
9.93169e-05
0.0112462
9.37569e-05
0.000100271
0.02281
9.04575e-05
0.00011198
0.00660162
0.000110681
0.000177379
0.000439976
0.00709968
9.25497e-05
0.000130459
0.0591269
0.000104594
0.0210976
0.000275477
0.128128
9.91056e-05
0.000125271
9.0643e-05
0.000142859
0.000127138
0.00011266
0.000108508
0.0530094
9.41376e-05
0.0198818
0.000127171
0.0448859
0.000120917
0.000212846
0.00491353
9.94959e-05
0.000126318
9.9676e-05
0.000109086
0.000102026
0.000643522
0.000134885
0.125805
0.000107422
9.83417e-05
9.53153e-05
9.21363e-05
0.000114648
0.000106931
9.98536e-05
0.000147775
0.0659124
0.000354451
9.86703e-05
0.000368388
9.75382e-05
0.000122286
0.000129771
0.000107346
0.000114964
0.000136111
0.000137636
0.000105789
0.0206504
9.52368e-05
0.000386643
0.000115959
0.0740692
9.93557e-05
0.0213564
0.000147644
0.0274746
0.000104476
9.36925e-05
9.80294e-05
0.00264527
9.44868e-05
0.0606953
0.000121147
0.0001016
9.36592e-05
0.00033152
0.079659
0.0471031
0.0016093
0.000155925
0.000106113
0.00817761
0.000117326
0.000107175
0.000318973
0.000132149
0.000140605
0.0222634
9.83378e-05
0.0746243
9.75916e-05
0.000146608
0.000103829
0.000131682
0.000183976
0.000118144
0.0179506
0.000106846
0.00014694
9.91598e-05
0.000100514
0.00012491
9.73332e-05
0.000118029
0.00011088
0.000467812
0.0807657
0.000129519
0.0619033
0.111765
0.00010254
9.50355e-05
0.000224225
0.000108268
0.000133612
0.000115985
0.000106595
0.0212714
0.000103332
0.000754158
0.000131797
0.000425427
0.000113461
0.00010904
9.24618e-05
0.000112927
0.000129096
9.59679e-05
0.000106666
0.000162402
0.000120608
0.000106276
0.000107525
0.000103754
0.000238024
0.0214511
0.0300606
0.000178596
0.000115105
0.000106416
0.000104102
0.000104422
0.000166012
0.0355547
0.0167658
0.0182882
0.000219767
0.0069777
0.000112775
9.68341e-05
9.66244e-05
9.71888e-05
9.8038e-05
0.0268764
0.041122
0.000610399
0.000110461
0.0492264
0.000104162
0.000105238
0.000101899
0.000387693
0.000122231
9.09919e-05
0.000106203
0.00010578
0.000402195
0.105016
0.0743648
0.000261722
0.000108784
0.000145659
0.000201997
0.118924
0.0349689
0.039881
9.44314e-05
0.0360271
0.000164084
0.000134298
0.000113874
0.0241731
0.000101149
0.0462332
0.029848
0.000181669
0.000135965
0.0783812
0.0692142
0.00010712
0.000108362
0.000367242
0.0494368
9.97083e-05
0.00012762
9.81824e-05
0.0233401
0.0265898
0.000104911
0.0414807
0.000100401
9.7525e-05
0.000326346
0.000100448
9.63526e-05
0.000139153
0.0717285
0.00595291
0.103117
0.000133502
0.000147948
0.00033643
0.000156512
0.000121653
0.00576678
0.000118337
9.13007e-05
0.000126913
0.00013174
0.0001037
0.0455769
0.0617761
0.00817668
0.000125993
0.000100272
0.0212555
9.30415e-05
0.0253499
0.000102308
0.000118032
0.0208116
0.000108882
0.000117175
0.00011373
9.25841e-05
0.000293894
0.000166402
0.0360754
0.0528122
0.000695913
9.71004e-05
0.000311757
0.000309605
0.000136193
0.000370128
0.000109164
0.0407692
0.00011781
0.0608636
9.92277e-05
9.177e-05
0.000116132
0.000107486
0.0743812
0.024448
0.0216116
0.0560219
0.000272523
0.000101187
0.000139754
0.0724094
9.32035e-05
9.34326e-05
0.068206
9.90061e-05
0.000119195
0.000270954
0.000347955
0.000128298
9.55643e-05
0.000110216
0.000482731
0.0693167
0.000145303
0.0479423
0.000121728
9.89519e-05
0.000131819
0.000127305
0.00015514
0.000114746
0.000101682
0.0001376
0.000106443
0.0364325
0.00019499
0.00554411
0.0418651
0.0524591
9.55903e-05
0.00012216
0.00440232
0.00060761
0.000106514
0.052531
0.000125339
0.000111886
0.0162491
0.0650384
0.00349778
0.0648683
0.0608847
9.09675e-05
0.000100418
0.0662812
0.0522702
0.000113762
0.00055116
0.00768906
0.0103176
0.0675664
0.0024294
0.000149461
0.068361
9.20804e-05
0.00014615
0.000213448
0.000105577
0.0764484
0.000119339
9.94818e-05
0.000351119
0.000148702
0.000104828
0.000109356
0.073282
0.000105723
0.0612191
0.000130729
0.000129282
9.27434e-05
0.000117217
0.0490299
0.0459702
0.000135192
0.0507569
0.000103552
0.00132686
0.00474491
0.0471537
0.0747978
0.000136747
0.0308383
0.000134696
9.36591e-05
0.0491997
0.00739669
0.000108806