/*--------------------------------*- C++ -*----------------------------------*\
| =========                 |                                                 |
| \\      /  F ield         | OpenFOAM: The Open Source CFD Toolbox           |
|  \\    /   O peration     | Version:  v2012                                 |
|   \\  /    A nd           | Website:  www.openfoam.com                      |
|    \\/     M anipulation  |                                                 |
\*---------------------------------------------------------------------------*/
FoamFile
{
    version     2.0;
    format      ascii;
    class       surfaceScalarField;
    location    "100";
    object      ddtCorrDdt0(phi);
}
// * * * * * * * * * * * * * * * * * * * * * * * * * * * * * * * * * * * * * //

dimensions      [0 3 -2 0 0 0 0];
oriented        oriented;


internalField   nonuniform List<scalar> 
51027
(
-8.30196e-06
5.40239e-05
-4.57197e-05
-1.63425e-05
3.66007e-05
-2.02493e-05
-0.00795522
0.0028605
0.00509522
-0.00128759
-0.00222041
0.00350802
1.19939e-05
-1.60286e-05
4.03459e-06
0.00514513
-0.00135491
-0.00379022
2.30789e-06
-5.28981e-07
-1.77945e-06
0.00116408
-0.00398181
0.00281782
-0.000306562
0.000402155
-9.56368e-05
-0.0127555
0.0130263
-0.000270779
0.000291193
-0.000130498
-0.000160703
-0.0147503
0.0163293
-0.00157664
1.3404e-05
-2.11941e-05
7.79006e-06
5.23672e-05
-0.00019214
0.000139806
0.000124515
-6.12218e-05
-6.3295e-05
-2.40066e-06
9.71681e-07
1.42941e-06
0.000394291
-0.00124246
0.000848054
-8.00866e-05
4.10558e-05
3.90314e-05
-0.00043674
-0.00510343
0.00554017
0.00236939
-0.00293797
0.000568169
-0.0104034
0.00562116
0.00478221
-6.11772e-06
1.83862e-06
4.2797e-06
-0.0132697
0.000514273
-0.007806
0.00112034
0.00668576
-0.00564781
0.0051551
0.000493402
2.17185e-05
0.000147225
-0.000168921
0.0012965
-0.00247287
0.00117647
-0.000156743
-0.000106434
0.000263189
-0.00233503
0.00899041
-0.00665538
-1.90156e-05
-1.26279e-05
3.16438e-05
0.00150156
-0.000755535
-0.000746101
-3.10318e-06
-2.57181e-05
2.88196e-05
0.000171137
-0.000149409
-3.65094e-05
-4.35771e-05
0.000115339
-8.02595e-05
-3.50867e-05
5.87057e-05
-3.77917e-05
-2.09134e-05
2.7548e-07
2.52942e-07
-5.28468e-07
-1.62633e-05
7.47096e-06
8.79233e-06
-1.0531e-06
2.88076e-06
-1.82924e-06
-2.61634e-06
1.56335e-06
-1.41123e-05
1.0084e-05
4.02793e-06
2.033e-06
4.2903e-06
-6.32763e-06
-1.53236e-05
1.11792e-05
4.14382e-06
-4.47324e-08
-9.89782e-08
1.44333e-07
0.0015429
0.00360219
0.000114521
0.000176672
-0.000358952
0.000141916
0.00021704
7.64502e-05
4.47575e-05
-0.000121207
-1.51363e-05
9.15862e-05
-2.94811e-07
8.65901e-07
-5.70936e-07
-0.00525639
-0.00514704
-3.02296e-06
1.19052e-06
1.83037e-06
2.10726e-05
7.64411e-05
-9.75103e-05
-0.0112756
0.00015596
0.0111197
0.000420837
-0.00165611
0.00123527
0.00719441
-0.00084379
-0.00635062
-8.3692e-06
5.63023e-06
2.72373e-06
0.000285637
-0.000171115
-3.46422e-06
2.28785e-06
1.17517e-06
-1.8639e-06
-1.60069e-06
-3.40982e-06
-4.9638e-06
-3.30799e-05
4.14312e-05
-8.35126e-06
0.0108663
-0.00614924
-0.00471703
-5.88468e-06
0.00458883
-0.00458294
0.00180483
-0.0130804
-0.00429366
-0.00135446
0.000120808
0.000164829
-1.97709e-05
2.09785e-05
-1.21006e-06
0.000115011
-0.000271747
1.58713e-05
-3.87753e-06
-4.17038e-06
8.52782e-07
3.31785e-06
-0.000565559
-0.000176393
0.000741895
0.000101412
-8.03412e-05
-0.000616538
0.00623769
6.20942e-05
6.24206e-05
0.000765355
0.000477055
-0.00124239
-5.19686e-05
-0.000306996
-3.59723e-06
9.85409e-07
2.61139e-06
0.000145371
-0.000117685
-2.7686e-05
-2.23319e-06
3.09843e-06
-8.64487e-07
5.74463e-05
8.00876e-05
-0.000137535
-2.45142e-05
5.49707e-06
9.05577e-05
5.48124e-05
0.00379078
-0.00262665
-0.00538558
-0.00242036
-9.19962e-07
-1.48044e-06
-0.000112285
0.00530277
-0.00519067
-0.000597199
0.000976207
-0.000378996
1.82805e-05
4.04247e-05
1.44503e-05
-3.07902e-05
-1.48744e-06
-2.11026e-06
-0.000188538
5.48126e-05
0.000133702
-1.62534e-08
1.87467e-06
-1.86086e-06
-8.31075e-06
4.90346e-06
-0.000486054
0.000179394
0.00160496
-0.00351046
0.00190549
0.000148512
-0.000714077
-4.3233e-05
1.01514e-05
-0.00360174
0.00359586
0.0003661
0.000216304
-0.000582388
-0.000865405
-0.0004816
0.001347
0.000129914
-0.000175028
4.512e-05
-4.07161e-06
2.13771e-06
1.93276e-06
-0.00981558
0.00748055
-0.0017345
0.00162316
0.000420119
-0.00154518
0.00112507
-0.0110952
0.0129
-4.64794e-06
-3.66138e-06
-3.90601e-06
5.93315e-06
0.00444089
-0.00322903
-0.00121206
-1.37825e-05
6.57305e-06
7.20973e-06
-0.000572547
0.00088467
-0.000312121
2.74755e-05
-0.000216023
3.24087e-05
-2.82718e-05
-4.13656e-06
-2.03782e-06
0.00105396
-0.000633831
5.02464e-06
-1.54054e-05
1.03808e-05
-0.00623618
0.00561966
0.000779357
-0.0118747
2.07915e-05
-6.51891e-05
4.43893e-05
2.32183e-05
0.000155083
-0.000178312
-6.5738e-05
6.93027e-05
-3.56264e-06
-8.87671e-06
1.20945e-05
-3.21741e-06
0.000511895
-0.000206849
-0.000305035
0.0011931
-0.00205852
1.99378e-06
-3.11259e-06
1.11779e-06
-0.000101284
-4.75129e-05
0.0001488
-2.81597e-06
2.61349e-06
2.03337e-07
1.67401e-06
-2.23379e-06
5.5945e-07
-3.4859e-06
2.89304e-06
5.93024e-07
1.75433e-06
5.53346e-07
-0.00191676
0.00635781
1.99859e-05
1.24227e-05
-0.00118708
0.00060371
0.000583387
5.02326e-05
-3.19517e-05
7.17393e-05
-0.000117203
4.54648e-05
0.00118626
-0.000420902
6.84015e-05
-0.000129624
-0.00408998
0.00511851
-0.00102856
-6.95357e-05
-0.00107334
0.00114286
0.00021275
-0.00419452
2.9173e-05
-0.00019293
0.000163694
0.00152591
-0.000384574
-0.00114151
0.000437073
-0.000212667
-0.000224403
1.2356e-05
3.2742e-05
-4.50994e-05
-6.01362e-05
0.000117582
-3.4009e-06
1.16755e-06
-1.19878e-05
-2.70903e-07
1.22596e-05
-9.49209e-06
1.4295e-05
-4.80338e-06
-3.15249e-07
-3.85464e-06
-3.86135e-05
-6.36768e-05
0.000102293
0.000157652
-0.000262683
0.000105039
8.54652e-05
2.98778e-05
-0.000976812
0.000386421
0.000590431
0.000806732
-0.000665972
-0.000140773
2.76564e-06
-3.36144e-06
5.97067e-07
-0.000450602
-0.0142996
-0.000237331
-0.000173334
0.000410676
-0.00043608
0.000520497
-8.44317e-05
0.000532198
0.000969313
-0.000988137
-0.00056086
0.00154903
-0.00205861
0.000142798
0.0019158
-3.95319e-05
-1.21853e-05
0.000272663
-1.84824e-06
1.20056e-06
6.48034e-07
-3.19905e-06
3.95132e-07
2.80507e-06
-4.8917e-06
8.11468e-06
-3.22267e-06
1.9013e-05
-1.92729e-05
2.60535e-07
0.000785828
0.00108124
-0.00186709
-0.000138984
8.33672e-06
0.000130652
-2.15285e-06
1.62327e-06
1.58091e-05
-1.07842e-05
-3.54372e-05
6.0145e-05
-2.47059e-05
-0.000258127
0.000287262
0.00143451
-0.00263993
0.00120556
-0.00188841
0.000900321
-1.10632e-06
2.03169e-06
-9.25536e-07
-0.000999554
-0.00519712
0.00619669
0.00129074
0.00430577
-0.00559659
-0.00222283
-0.00759276
-0.000112681
-0.000140501
0.000253181
-0.000755883
0.000183333
2.71978e-06
-3.29397e-07
-2.39278e-06
-0.000518629
-0.000668478
3.41433e-05
1.60889e-05
7.36396e-05
0.000733086
2.82022e-06
-8.26565e-07
-0.00190798
0.00316733
-0.00125942
5.59324e-05
-6.42337e-05
1.36619e-05
-1.40907e-05
4.28629e-07
1.78543e-06
-2.02381e-07
-1.58291e-06
2.76507e-07
8.95875e-06
-9.23584e-06
-1.23699e-05
3.8312e-07
6.11036e-06
-1.21667e-05
6.05651e-06
0.00215245
-0.00344
1.2471e-07
2.59127e-06
-0.00142434
-0.000476197
0.00190053
4.17438e-05
0.000414937
-0.000456812
-8.00546e-06
-8.25753e-06
0.000310399
-0.000443922
0.000133535
0.0014585
-0.0017734
0.000314804
3.68446e-05
5.50658e-05
-9.1914e-05
8.07865e-05
-4.39419e-05
3.21385e-06
-4.48979e-07
0.000125733
-7.47622e-05
-5.09696e-05
2.44489e-07
3.10474e-08
-0.000741912
-0.00116609
0.0019383
-0.00163858
-0.00029972
1.60557e-05
0.00010439
-0.000120449
-0.000132737
5.84943e-05
7.42436e-05
-4.32827e-06
1.79899e-05
5.85228e-05
-3.77368e-05
-0.000299875
0.00455976
-0.000531386
-0.00402838
-5.26778e-06
3.46698e-06
1.8013e-06
1.4927e-06
-1.49216e-06
2.60351e-06
6.12648e-07
0.000107263
-0.000300393
0.000193133
0.000309237
0.000202661
1.12578e-06
2.0129e-06
-3.13883e-06
1.27151e-05
-6.07034e-06
-6.64385e-06
0.000673109
-0.00122407
0.000550954
-0.000256372
0.000111086
0.000145286
0.0114733
-0.00863063
-0.00284263
-2.03485e-06
-3.23289e-06
-7.90359e-06
6.03911e-06
1.8656e-06
6.1276e-06
6.58828e-06
-0.00891754
0.00969681
-2.74634e-05
8.00311e-05
-5.25653e-05
-5.19278e-06
8.40916e-06
-3.21668e-06
-0.000135563
-0.00018934
3.78918e-06
0.000185564
-5.77477e-06
0.000135702
-0.00902951
0.000111927
-0.000215907
0.00011397
0.000101938
-1.09938e-08
-3.3506e-06
3.07187e-06
-4.68469e-07
-0.000230722
9.49236e-05
0.000135795
2.13195e-05
-3.5033e-05
1.37143e-05
0.000362287
-0.000103967
-0.000258313
-0.000947616
0.000623307
0.000324293
-6.20714e-05
3.46079e-05
-0.0067155
0.00627879
-3.19111e-05
0.000103651
-0.000777451
-0.000170163
-0.000186741
0.000182065
4.67511e-06
-0.000170601
0.00222728
-0.00205665
8.06648e-06
-1.28396e-05
4.77306e-06
0.000121652
-6.9282e-05
0.000200011
-0.000102055
-9.79414e-05
0.00112183
-0.000528347
-0.000593487
-1.01802e-06
-8.29565e-07
6.7943e-05
-7.20978e-05
4.15686e-06
-4.58056e-06
7.73758e-06
-3.15723e-06
-3.2634e-07
-2.18836e-06
2.51583e-06
-1.19776e-06
3.7591e-07
8.22485e-07
0.000775744
0.00417447
-0.00495022
-1.75228e-05
3.50508e-05
-1.75289e-05
-0.000374634
0.000137309
0.000108923
-0.000201011
9.20869e-05
-0.00159838
4.26483e-05
0.00155573
-1.08859e-05
1.53742e-06
9.3488e-06
4.96594e-05
-5.26454e-05
2.98516e-06
-0.00394614
0.00472186
3.41988e-06
0.000104343
-0.000107751
9.82811e-05
0.00010173
-8.88088e-05
0.000197732
3.30141e-06
-2.12575e-06
-1.17384e-06
-1.68939e-06
2.81512e-06
-0.000581377
-0.000174508
6.1614e-06
-4.98388e-06
-1.178e-06
-0.000148582
0.000255852
-0.000694438
-0.00290729
6.9712e-06
-8.29547e-06
1.32452e-06
9.88842e-08
1.68591e-06
0.00506912
-0.00329449
-0.00177487
9.63446e-05
1.25547e-05
-0.000108903
6.63951e-07
-7.05554e-07
6.75855e-05
-0.000180266
1.30763e-05
-5.00989e-06
-1.21443e-05
1.49954e-05
-2.85106e-06
-6.85141e-06
6.78038e-06
7.19662e-08
2.9623e-07
-3.83253e-07
8.66453e-08
1.85787e-05
-3.61021e-05
0.000359084
-4.70387e-05
-0.00031205
-8.86962e-07
2.11586e-06
-1.2291e-06
-0.00211472
0.00288375
-0.000768999
0.00108588
0.00398323
-7.53124e-05
-0.000114003
-0.000669109
-0.00124746
-6.54323e-06
1.36748e-05
-7.13175e-06
-8.14741e-06
-1.85966e-05
2.67442e-05
-0.000802003
0.000843405
-4.92818e-07
2.71476e-06
-2.22343e-06
4.51268e-06
-4.36263e-06
-1.51011e-07
-0.0022292
-0.000430101
0.000214101
0.000215998
-0.00505965
0.00439065
0.00155301
-0.000256575
0.00232738
-0.00302181
0.00318083
-0.00594166
0.00276085
-0.0068368
0.00177728
-2.67825e-05
2.36809e-05
-3.473e-06
7.50396e-07
2.72286e-06
-0.000338203
-0.000230305
0.000568508
-8.56089e-05
7.71469e-05
8.45994e-06
-0.00822891
0.00335192
0.00487701
-0.000690454
-0.00614623
-9.86264e-05
-9.2059e-06
-3.16281e-06
2.24535e-06
-2.57077e-06
-2.26541e-06
-5.23829e-06
7.50346e-06
-0.000610037
2.86589e-05
0.00957832
-0.0084581
-9.40495e-05
6.58922e-05
2.81527e-05
-6.14733e-06
-5.11802e-06
1.12656e-05
-0.00365956
0.00109847
0.00256092
-3.6102e-05
-9.66307e-05
-4.39425e-05
-0.000349024
0.000392999
-3.1415e-06
-2.97983e-06
-0.000118351
5.82149e-05
0.000162233
-7.53532e-05
-8.68785e-05
-0.00312653
-0.000532966
-1.97279e-06
-1.49934e-06
4.08646e-05
0.000178181
-0.000219104
0.00192524
-0.00178245
0.000123668
-4.35803e-05
-8.4829e-05
-7.7936e-07
-2.79066e-07
-7.62366e-06
-0.00010482
-3.11746e-05
3.69702e-05
-5.79339e-06
2.71008e-06
-1.95748e-06
-0.000560348
0.00123341
-0.000138657
0.000161871
-5.50239e-05
-3.90284e-05
3.23025e-05
4.84846e-05
-6.543e-06
1.15618e-05
-5.01842e-06
7.65395e-05
6.10076e-07
-4.29216e-08
-3.27887e-07
3.70643e-07
-0.00158673
0.00137841
0.000208344
-4.43087e-05
-2.67995e-05
7.11083e-05
0.000112146
-6.72957e-06
-0.000105418
0.000753713
-0.000227651
-0.000526058
1.7819e-05
1.19421e-06
-0.000145171
0.000455575
-1.36986e-07
2.46779e-06
-2.32923e-06
1.87079e-06
-2.00742e-06
7.21901e-05
4.34628e-06
-0.00181642
0.00159653
0.000219886
0.00364061
-0.00375287
0.000222029
-0.000299097
7.70651e-05
1.80276e-05
1.45269e-06
-1.94805e-05
-0.00217411
2.90958e-05
-9.1098e-06
-0.00117511
0.00027384
0.000901225
1.58017e-06
-1.51331e-06
-6.69424e-08
-0.000403988
-0.00118272
5.94223e-05
-9.2233e-05
3.28029e-05
0.0104752
0.00585473
-5.17642e-05
-0.000190677
0.000242445
0.00167607
-0.00121032
0.00235036
-0.00114004
-3.04342e-05
-6.60808e-07
3.10948e-05
8.37207e-06
8.09263e-06
-1.64645e-05
-2.25343e-05
1.43839e-05
-0.00214195
0.00306812
-0.000926171
-0.00111713
0.000598493
-0.0010587
-0.000116458
0.00013075
-1.27766e-05
-0.000117973
-0.00103272
-0.000783711
0.00112597
-0.00159666
0.000470803
-1.08196e-05
4.27702e-06
-6.96634e-06
7.24269e-06
-9.2201e-05
2.61357e-06
8.95844e-05
-0.00131305
0.00186974
-0.000556846
-0.0016128
0.000402473
0.000153685
-0.000205449
0.00371815
-0.00242747
-0.00140236
0.00330438
-0.00190202
-0.00129441
-0.00542154
0.00868836
-0.00514324
-0.00354511
-0.0033998
-0.0048291
6.18035e-05
-0.000166806
0.000104996
-0.000107207
5.59437e-05
5.12612e-05
-0.00197653
-0.004118
0.00609453
0.00665531
0.00421093
5.22104e-05
1.99801e-05
7.55405e-05
-4.32379e-05
-9.23177e-06
3.07154e-06
4.6586e-05
1.40044e-05
1.50914e-05
-0.000335799
0.00557739
-0.0052416
0.000113595
0.000323473
-0.0002515
0.000209032
4.24704e-05
-1.27917e-05
1.24446e-05
3.46885e-07
-7.49392e-07
4.22424e-07
3.24872e-07
9.84019e-05
-3.63078e-05
6.61857e-05
-1.39743e-05
2.39904e-06
-1.07638e-06
-1.32322e-06
-1.8231e-06
-9.92689e-07
3.74399e-05
-3.43689e-05
-0.00172215
0.00617109
-0.00444896
2.35784e-06
8.66737e-06
-1.1024e-05
-7.07013e-06
9.42836e-06
-2.42196e-06
1.93078e-06
-0.000794938
-0.0003222
0.000332812
0.00078632
-0.0011192
2.78507e-06
1.18197e-05
-1.46024e-05
-2.02107e-05
7.96334e-05
0.000949717
-0.000176168
-0.000773556
-6.44812e-06
-1.42023e-05
2.06513e-05
4.01523e-06
-3.39102e-06
-6.26165e-07
0.000828118
0.000121597
-5.55015e-06
-0.000137497
0.000143049
4.75632e-05
-2.56132e-05
-2.19507e-05
0.00160749
-8.16725e-05
0.00205671
-0.00089638
-0.00116046
-5.20105e-07
6.33866e-08
4.56699e-07
0.000201507
-0.000366549
0.000165022
-0.0105544
0.005298
2.35622e-06
9.38431e-07
2.13616e-06
1.44654e-05
-1.56884e-05
1.22424e-06
-4.27196e-05
1.15443e-05
-0.00110798
0.000702023
0.000405954
-0.00541691
-0.00785283
0.00120139
0.000855249
-4.48472e-05
1.58711e-05
2.89722e-05
0.00401305
0.00284929
-0.00686238
3.29643e-05
-3.97108e-05
6.74879e-06
-7.01315e-05
-0.000165983
0.000236102
-7.85268e-06
-1.46236e-05
5.82614e-06
8.79824e-06
0.00175307
-0.000627019
-1.32813e-05
4.23652e-05
-2.90816e-05
2.89641e-06
-1.5458e-07
-2.74196e-06
-0.00560472
-0.0049497
0.000328027
-0.00107619
0.000748057
6.56555e-05
0.000296637
-2.87589e-06
3.44361e-06
-5.65272e-07
7.23721e-06
8.25842e-06
-1.54958e-05
8.4055e-05
-1.61122e-05
-0.00039848
-0.00125338
0.00165185
9.8113e-07
2.32321e-06
2.65397e-05
-0.000149081
0.000122541
-0.00094227
0.000634427
0.000307817
0.00080191
-0.000871452
-1.99166e-07
-1.44236e-05
1.25705e-06
-2.54123e-06
1.28386e-06
3.88838e-06
-2.03041e-05
1.64135e-05
-7.92998e-06
-5.41399e-05
-0.0082606
0.0119516
-0.00369099
3.14909e-06
8.64003e-07
0.00218751
0.00540765
-0.00759516
4.69646e-07
-1.32615e-05
-0.000979259
0.00137352
-0.000196776
0.000421125
-0.000224352
0.000620257
-0.000821835
0.00020157
-1.00501e-07
0.00202207
-0.00202199
0.000212126
-0.000300506
8.83826e-05
-3.24423e-06
9.34289e-07
2.30827e-06
1.94341e-06
7.71105e-07
-0.00131759
0.000476679
0.000840934
-6.90906e-06
1.41458e-05
-0.000371485
0.0010546
-0.00068312
4.65069e-06
-1.19694e-05
7.31865e-06
0.00136778
-0.000946853
-3.00146e-06
-7.88351e-06
-7.74685e-05
-0.000358617
-0.00759854
0.00440976
0.0031904
-4.13112e-05
2.70424e-05
1.42686e-05
2.45592e-06
-1.19944e-06
0.00911075
-0.00784597
-0.00126479
-3.73395e-06
-1.51131e-06
5.24462e-06
-0.000629531
0.000957548
-0.00065533
0.000504378
0.00015096
0.00224643
-0.00284363
4.32975e-06
-2.274e-06
-2.05571e-06
-4.81239e-05
2.49615e-05
2.31608e-05
2.95833e-05
-0.000130869
-1.22282e-06
-3.06786e-08
1.25316e-06
7.89991e-05
-5.92695e-05
-1.97295e-05
-4.15637e-06
1.75605e-05
-2.75146e-05
-0.000111471
5.45458e-05
-4.69077e-05
-7.63776e-06
0.00380263
0.0076707
-1.56804e-06
-9.74648e-07
1.15646e-05
0.000119186
-2.02682e-06
1.31991e-06
7.08522e-07
-5.49989e-05
0.000132248
-7.72473e-05
0.00125632
-0.00125645
-1.47199e-05
4.76854e-05
0.00105464
-0.000224951
-0.000829678
-5.24136e-06
9.89176e-06
-4.40178e-06
6.66539e-07
-1.19134e-05
-1.22248e-07
1.20358e-05
-7.31354e-07
2.40515e-06
-1.85743e-06
-7.48585e-06
9.34363e-06
3.14893e-05
2.45598e-05
-5.60496e-05
-0.000226362
-0.00146341
0.00168972
-3.34825e-09
5.30749e-08
-5.00014e-08
-5.85904e-06
3.28443e-06
-1.54287e-05
-0.00288716
0.00475918
-0.00187194
-0.0002076
3.63329e-05
0.0165104
-0.0169607
2.42688e-07
-3.10995e-07
6.84024e-08
-8.33064e-05
0.000427292
-0.000343988
0.000611788
0.00123507
-0.00184693
-1.33117e-05
6.13165e-06
7.18e-06
-0.00160164
0.00430882
-0.00270718
-1.92381e-07
2.43779e-06
0.000882416
-0.00114773
0.000265326
-2.84039e-06
-6.4474e-07
2.11856e-06
-1.12167e-06
-9.99328e-07
-9.65454e-06
1.71614e-05
-7.50706e-06
8.64067e-05
3.93266e-05
-3.95223e-05
3.15926e-05
-0.000420699
0.00147521
-0.00105447
7.96295e-06
-2.27431e-06
-5.68856e-06
-0.00681264
0.00392549
2.58975e-05
2.16647e-05
-8.93707e-05
-1.77375e-06
9.11573e-05
-7.68957e-06
-3.49367e-06
1.11836e-05
7.00972e-05
0.00229888
-0.000860796
0.000489323
1.18072e-06
9.33543e-07
0.000321841
0.000242471
-0.00056427
-1.12825e-05
7.51722e-07
1.0534e-05
0.00847654
-0.00182446
-0.00665206
0.000572942
-0.00068959
0.000116671
-0.00442023
0.00408442
-6.76768e-05
-4.04343e-05
0.000108108
9.10177e-06
-7.56413e-06
-1.00635e-05
-1.21741e-06
2.03206e-06
-1.94387e-06
-8.83512e-08
0.000376975
0.000677687
-2.8587e-05
2.55512e-05
3.03651e-06
-0.000695234
-0.000322136
0.00101738
-1.42855e-06
3.2261e-07
-0.0019687
-0.00183264
0.00380166
-2.80564e-07
-9.42246e-07
-3.32212e-06
8.7975e-06
-5.4711e-06
-7.07235e-06
-6.17524e-07
-0.000298285
0.00021498
-5.67471e-06
1.33784e-05
-7.70356e-06
8.55644e-05
-0.000153241
-1.20336e-05
1.09259e-05
1.10811e-06
0.000199516
-8.5544e-05
2.90232e-05
-0.000327309
0.00762376
-0.00501844
-0.0026053
0.000232133
-0.00106596
0.000833811
-0.000113294
7.71926e-05
-2.36583e-06
1.09895e-05
-8.62362e-06
1.72839e-06
-1.93119e-06
0.00472419
0.00634369
-0.0110683
-0.000499857
0.000193782
0.000306078
0.00109251
-0.000790328
-0.000302162
2.05346e-05
3.4011e-05
1.64899e-05
-1.06634e-05
-1.29815e-05
4.10436e-06
7.3598e-06
-1.30345e-05
1.07792e-07
-1.62872e-07
5.42619e-08
0.000268334
-0.000239311
6.67494e-06
-6.3588e-07
-0.00186197
0.00163559
0.0108966
-0.0105466
-0.000350056
0.00428778
0.00138758
-0.00567537
0.000948003
-1.71183e-08
3.95749e-07
-3.78229e-07
0.000684885
0.000341918
-0.00102681
-0.00010959
-6.81261e-06
1.21399e-05
-5.32747e-06
1.19585e-05
-1.21572e-05
-0.00254652
-0.00505171
0.000202988
0.000675713
-0.000878643
0.00303937
-0.0173377
0.0142981
0.00198731
-0.00136736
-0.000619981
0.0017141
-0.000255593
0.00900464
-0.00428074
0.00221677
-0.000546158
0.000778277
0.000531255
0.000561281
-7.96963e-06
-3.68756e-05
7.228e-06
-1.36756e-05
-1.25876e-05
6.04433e-06
-4.10555e-05
-6.16085e-05
0.000102647
1.01011e-05
-0.00354534
0.000675067
-0.00138432
0.000709089
-0.000100169
0.000301647
-2.43987e-05
4.49344e-05
2.4651e-05
-4.90503e-05
0.00520201
-0.00155779
-0.00494234
0.00322017
-4.981e-05
-2.29482e-05
7.27594e-05
0.00583175
-3.06251e-05
0.000116192
0.000581901
4.28437e-05
-0.000624562
5.46368e-05
-2.84831e-05
-2.61537e-05
-0.00527239
0.00745989
-0.00157639
-0.000851343
0.00242773
-2.29292e-05
2.50367e-05
-2.10793e-06
0.00421347
0.000988492
-0.000437733
0.00183282
-0.00139526
-0.000973104
0.00526087
1.32598e-05
-6.45597e-06
-6.80393e-06
-2.65177e-06
4.63256e-07
0.00457784
0.00081635
-0.00139903
0.000582675
6.52142e-06
-7.74049e-06
1.19987e-06
5.87591e-06
0.00385523
-6.67171e-05
3.01713e-05
3.6547e-05
-0.00142874
-0.000265215
0.00169391
-0.000994338
-0.000248141
4.42773e-05
-2.29574e-05
-2.7711e-05
3.38335e-05
-6.12339e-06
0.000249046
-0.000199083
-4.99633e-05
0.00555584
-0.00399386
-0.0015618
-1.00649e-05
7.69909e-06
1.71172e-06
0.000113313
-0.000373291
0.000259957
-0.000929263
0.00012737
0.000801829
0.000205653
-8.13294e-05
-0.000124303
-9.31312e-05
-0.000836134
0.000685144
-0.00199823
2.73077e-06
-1.47646e-05
2.50979e-06
-5.67144e-07
-0.000222478
0.000511751
-0.000289274
-0.00223454
0.00653351
-1.38365e-05
0.000125973
-0.00484741
0.00446197
0.000385636
9.89134e-06
4.47474e-05
-0.000191474
-1.61258e-05
-0.01338
-0.00235009
0.01573
5.75992e-05
2.64569e-05
2.94018e-05
-7.92112e-05
0.00111187
-0.000482203
-0.000629611
-0.00154682
0.00112619
5.62245e-05
0.000107314
-0.000163536
-5.35955e-06
-8.61568e-06
1.39745e-05
-5.83856e-05
-0.000139956
0.000352077
-7.17136e-06
-4.54738e-05
6.88368e-05
3.11333e-05
-9.99702e-05
-0.0101599
0.0077611
0.00239919
-1.05085e-05
3.69583e-06
-0.00220881
0.00066202
-7.71068e-07
4.76703e-07
-0.00155518
-0.011825
-0.00142412
-0.000399229
0.00182334
-0.0010992
0.000547374
0.000551866
-0.000406186
0.000979073
-0.0025202
0.00273928
-0.00021911
0.00197893
-0.0029766
0.00583732
-0.00044854
6.95375e-05
0.000379036
-1.02977e-06
-1.20439e-06
-0.000160824
-0.00318433
0.00334515
0.0024832
-0.000839157
-0.0016439
-1.22754e-06
-2.8442e-06
-2.34292e-05
-5.15705e-06
0.000538126
-0.00031821
-0.000219931
-1.89145e-05
-8.57611e-07
0.00200535
0.0040237
-0.00602902
0.00355638
-0.0124745
0.0089182
-0.000155679
7.02402e-05
8.54422e-05
9.62886e-05
-0.000126912
-0.000572839
0.00070683
-0.000134013
-2.90894e-05
-1.36285e-05
4.21835e-06
-9.91495e-06
5.69655e-06
-1.41935e-05
8.78446e-06
5.40891e-06
-0.00663548
-0.00352422
-8.82633e-07
0.000754591
-0.00076228
-0.00408512
-6.18964e-05
-2.29644e-05
8.48745e-05
0.000178688
-0.00123585
0.00541073
-0.00417487
-2.05341e-05
-2.64457e-06
-3.62228e-05
1.27944e-05
4.38255e-06
2.29246e-06
3.45034e-06
-3.26043e-07
-3.12734e-06
-0.00446815
0.00647352
-0.000686896
0.000114046
3.58997e-06
5.31128e-06
-8.90147e-06
-0.000291625
0.00159986
-0.000745235
-0.000854706
-0.00106192
-0.000337096
-0.000303127
0.000251132
0.00326414
-0.0053677
0.00210357
5.26495e-06
9.63278e-06
-1.48978e-05
-4.90657e-07
8.93236e-08
4.01243e-07
-0.000420064
-0.00131444
-0.00112156
-0.00569113
-0.00168651
0.000151872
0.00153468
-0.000495537
-0.00025137
0.000746885
0.000472288
-0.000870767
6.4359e-05
-5.15713e-05
-1.27871e-05
0.000572759
0.000481841
-8.53269e-07
2.32891e-06
-1.47329e-06
3.5425e-06
-6.8396e-06
3.29733e-06
-0.000567474
4.51584e-05
0.000522319
-0.00374191
0.00250605
1.00505e-06
1.50376e-06
-3.02497e-07
-4.48123e-07
-1.43225e-05
8.33816e-06
5.98447e-06
2.15878e-05
-1.62025e-05
-5.38532e-06
-0.000339508
-0.00131659
-2.4396e-06
-6.12889e-06
8.56888e-06
0.000211301
0.000199692
-0.000126612
-7.30653e-05
-0.000105847
-3.46978e-06
0.000109304
0.0107022
-0.00766506
-0.00303714
-1.46162e-06
-6.91415e-07
0.00584706
0.00485523
-0.000119107
7.80454e-05
-0.00284754
0.00640697
-0.00355946
0.00278882
-0.00682862
0.0040398
-2.46333e-07
0.00217561
-0.000741103
-9.88663e-07
-1.03792e-06
-0.00718355
0.00606195
-1.70451e-05
1.8981e-05
-1.93606e-06
0.00591356
-0.00720835
8.06597e-06
-1.05054e-05
0.000164813
6.53129e-05
-0.000229996
-1.00119e-05
-1.16827e-05
2.16946e-05
9.59455e-05
-0.000120764
2.48215e-05
-3.4964e-05
9.25642e-05
-0.00506308
-0.00610766
0.00326014
0.000443289
0.000791793
-0.00126754
-0.00167054
0.000569594
-0.00157164
0.00100202
1.59288e-06
-6.95107e-06
5.36052e-06
9.05013e-06
-2.50809e-06
9.44208e-05
1.92499e-06
-0.000301265
-0.000128834
-3.57681e-05
-1.36047e-05
8.24448e-06
-9.41558e-06
-4.3666e-06
8.17479e-06
-1.81871e-05
2.06066e-06
7.59142e-07
0.000941617
0.00625278
-2.19296e-06
9.09641e-06
-6.90335e-06
-5.34882e-06
-8.76358e-06
-9.33421e-06
7.14127e-06
1.22545e-06
9.24514e-06
-1.04705e-05
0.0060774
-0.00617362
9.62092e-05
-1.27503e-05
-9.82083e-06
2.25714e-05
0.00271646
-0.00139219
-0.00132424
0.00771841
-0.00994122
0.000147601
-6.44152e-05
-8.3174e-05
0.00210879
-0.00116509
-0.000943743
0.00150478
-0.00175894
0.000253937
-6.42243e-07
9.60383e-07
-3.17922e-07
0.000954585
0.00754581
-0.000499382
-0.00704643
-5.21434e-08
2.6664e-06
0.000772949
-0.00053893
-0.000234018
1.12147e-06
1.04225e-06
1.57521e-06
-2.61746e-06
0.000778429
-0.00272908
0.00195064
-1.34044e-05
1.61908e-05
-0.0008669
-0.00206822
0.00293512
-4.9541e-06
-6.0783e-05
-0.00438737
0.00717619
-1.73743e-08
8.83748e-07
0.000792957
-0.000460169
-0.00458638
-0.00740342
0.0119898
1.11767e-05
-1.13148e-05
1.38006e-07
-3.91941e-06
1.11479e-05
-0.00151273
0.00317175
-0.00165877
0.00617737
-9.99757e-05
7.36593e-06
-5.77186e-06
-0.00026644
-0.000445551
-1.69806e-06
3.20881e-07
1.37332e-06
8.93415e-06
1.13011e-07
8.65219e-06
4.494e-07
-0.000468356
-0.00447404
-1.78654e-06
-4.58171e-06
6.36758e-06
8.72634e-06
-5.13627e-06
2.11547e-06
-2.9681e-06
-0.0049451
1.23943e-05
-1.71156e-05
4.72207e-06
9.40826e-07
9.77085e-07
-1.91822e-06
1.13493e-05
-0.00151029
-0.000698476
0.00144851
1.08591e-06
4.94234e-07
2.39342e-06
-8.47164e-07
-1.54615e-06
-2.17163e-05
-6.29995e-06
2.8011e-05
0.00179588
-0.00041748
-0.00141128
0.00330752
-0.00189621
0.000109135
9.03821e-05
-1.15151e-05
0.000176329
-2.27327e-05
0.000246181
-4.05466e-05
-1.05315e-05
-0.000102761
0.00838661
0.000724132
-0.000168032
7.59603e-05
9.20724e-05
3.01877e-06
-0.00151223
-0.000945598
0.00245782
-0.000150109
0.000472027
-0.000112755
0.000139294
1.12084e-05
-8.4291e-06
-2.78308e-06
-0.00690164
0.00787898
-0.000977327
6.69247e-06
-1.09365e-05
-5.42634e-06
1.63627e-05
-0.000858519
0.000765403
-8.96899e-05
0.000151495
-6.64129e-07
2.5036e-06
-1.84089e-06
-8.25296e-06
1.31316e-05
-4.87863e-06
2.07581e-06
-1.89604e-06
-1.80898e-07
3.20252e-06
-8.09417e-06
-1.8597e-06
-9.28935e-08
1.95239e-06
1.32603e-07
1.63601e-07
1.40411e-05
-8.11064e-06
-5.9307e-06
-0.00398394
-0.00164283
0.00562675
0.00558204
-0.00440526
-0.00117675
0.00114496
0.00112802
-0.00227295
1.90854e-06
1.25569e-05
-7.74624e-06
8.97161e-06
-0.00269359
-0.00413503
-6.31927e-08
-4.56803e-07
-5.28028e-05
-0.00187259
0.000448243
-0.00243619
0.000923953
-0.00286143
0.00920524
2.23744e-05
-1.84884e-05
0.000136421
-0.004343
0.00293174
1.65727e-05
-8.42304e-06
-8.14957e-06
-2.12938e-06
3.95687e-05
0.00184955
-0.00158401
0.00585389
-0.00427002
-0.000199028
0.00195352
-0.00175452
0.0137109
-0.00154667
-0.0121639
-1.59249e-05
4.9883e-06
-0.000211288
8.00365e-06
3.20439e-06
2.85196e-05
-3.06487e-05
0.00013279
-0.000332404
0.000199508
-1.11661e-06
0.00118273
0.000926072
-7.01417e-05
0.00408442
-0.00401441
0.000266288
-0.000439612
1.0052e-05
-1.68463e-05
6.79392e-06
-0.000177685
4.13002e-05
0.00013638
-6.75471e-07
-4.82879e-07
1.15817e-06
4.2469e-05
-9.44809e-05
5.20101e-05
-2.82762e-06
4.66796e-06
0.000171624
-9.75447e-05
-7.40781e-05
1.37427e-06
-2.03765e-06
-0.00165225
0.0013804
0.000271935
1.04175e-07
-0.000138495
-9.22291e-05
3.01845e-06
-8.00661e-07
-2.21716e-06
-1.47685e-05
0.000111061
-3.17401e-05
0.00071663
-0.000120527
5.86185e-05
-0.000626841
9.87631e-05
0.000528146
-0.000635762
-0.00109914
0.00173492
1.28145e-05
0.00154322
-0.000175422
6.31746e-05
-0.000101788
-0.000684432
-0.000365441
0.00104988
8.85114e-05
-4.60427e-05
0.000520157
-0.00127568
0.0112748
1.08495e-06
1.30853e-06
-0.000502604
0.000551021
-4.83903e-05
0.000209969
-0.00419391
0.00538436
-0.00824569
1.17939e-06
-6.37207e-06
3.23477e-06
5.49152e-06
-0.000978977
-0.000615743
0.00159473
-5.83849e-06
-6.46691e-06
1.23062e-05
1.07328e-06
6.9084e-07
-1.76482e-06
9.05073e-05
-0.00727409
6.55132e-07
-1.54195e-06
-2.28959e-07
-2.19166e-06
2.62058e-05
-0.000474743
-1.23216e-06
4.76586e-07
7.58005e-07
1.39096e-06
1.70349e-06
-3.09441e-06
-0.00166927
-0.000810353
0.00247963
-0.00818629
0.0082768
0.000140957
5.87176e-05
-0.000801596
-5.68983e-05
0.000166369
-0.000101327
-6.49962e-05
3.67917e-06
1.02715e-05
-1.39503e-05
-0.000108446
0.000102896
-0.00261487
-0.00852187
0.00218059
0.00634128
0.0011225
0.000673366
0.000124319
3.89859e-05
-0.000163306
0.00422397
-0.000161366
-1.63112e-05
0.000164974
-0.00050318
-0.000543768
0.000499864
5.98121e-07
-1.27324e-06
-0.000560686
-0.00036688
0.000927624
-0.000261829
0.00052533
-0.000263507
6.79495e-06
4.91398e-06
-1.17084e-05
7.7049e-06
1.8902e-07
-7.89497e-06
-6.29976e-06
-8.02271e-06
2.543e-07
-2.86969e-06
-0.016649
0.0100136
-6.91155e-06
1.91193e-06
5.00018e-06
-3.6458e-05
1.07363e-05
-2.99611e-07
4.70068e-07
-1.69077e-07
-5.98141e-06
-9.29965e-07
-0.000825347
-0.000492242
0.00132115
-0.00498629
0.00366515
7.22803e-05
0.000943
-0.00101528
1.44825e-05
-6.52139e-06
-7.96124e-06
-1.14353e-05
-2.10552e-05
3.24909e-05
-0.00197063
0.000299786
0.00167085
-5.5301e-07
0.000388973
0.000383977
1.96433e-07
4.80178e-08
-2.44318e-07
8.9374e-05
-0.000104141
-5.44581e-05
-5.57237e-05
0.000110182
0.00248271
0.00140777
-0.00389044
-2.63714e-06
-5.61576e-07
0.00164318
-0.00107362
-0.0078996
0.00175368
0.00614595
0.000267468
0.00019171
-0.000459165
9.4247e-06
1.15522e-05
0.000442564
0.000679258
-6.81566e-06
0.00018244
0.000150397
-0.000332836
-1.85903e-05
-1.76307e-05
-0.00548494
0.00176469
0.00372019
-6.36366e-05
-0.0001231
-1.46691e-05
0.00249106
-0.00247642
-0.00017369
-0.000393774
-0.00371638
-0.00418323
1.14709e-06
-2.63495e-06
6.57801e-05
-0.000120238
-0.000512622
0.00168805
-0.00117541
0.000141046
-3.71737e-05
-0.000103873
0.00156651
-0.00197475
0.000408254
-0.000748667
0.00323135
0.000284191
-0.000362842
7.86592e-05
3.34573e-07
-6.35135e-07
0.00384937
0.000710393
2.27674e-06
-1.68075e-05
1.45296e-05
2.9166e-06
-1.52529e-06
0.00309993
0.00165934
1.76542e-06
-1.66626e-06
-0.000142414
-0.000484432
-0.000107447
-0.0036101
0.00371754
-2.87696e-05
1.73345e-05
-0.000138557
-0.00310817
0.00324688
0.00130189
0.00768849
-0.000234507
9.60075e-05
1.98192e-06
-6.52988e-07
-1.32919e-06
-0.00123569
0.000410322
2.80674e-06
9.00607e-08
6.62295e-07
4.10068e-07
-1.07241e-06
4.727e-06
-8.91037e-06
4.18426e-06
1.01771e-05
1.14112e-05
0.00100211
-0.00239427
-0.00494761
0.00227285
0.00267451
9.51728e-06
-4.78964e-06
1.44567e-09
-1.64565e-07
3.96138e-06
6.73507e-06
-1.06966e-05
0.00255962
0.000540315
1.59254e-05
-3.53173e-06
0.000152712
-0.000349481
-0.00250624
0.00577039
-6.10096e-07
-2.73751e-06
3.11658e-06
-1.63704e-06
-1.4792e-06
9.4175e-05
0.00274854
-0.0071359
0.000692125
-0.000619845
-0.000741543
0.00204117
-0.00129955
-0.00269846