/*--------------------------------*- C++ -*----------------------------------*\
| =========                 |                                                 |
| \\      /  F ield         | OpenFOAM: The Open Source CFD Toolbox           |
|  \\    /   O peration     | Version:  v2012                                 |
|   \\  /    A nd           | Website:  www.openfoam.com                      |
|    \\/     M anipulation  |                                                 |
\*---------------------------------------------------------------------------*/
FoamFile
{
    version     2.0;
    format      ascii;
    class       volScalarField;
    location    "100";
    object      k;
}
// * * * * * * * * * * * * * * * * * * * * * * * * * * * * * * * * * * * * * //

dimensions      [0 2 -2 0 0 0 0];


internalField   nonuniform List<scalar> 
34253
(
5.80741e-05
6.51616e-05
0.000249899
0.000149287
4.71882e-05
0.00743332
8.95149e-05
0.0166226
0.0413282
0.00676843
9.32525e-05
0.0125877
5.63058e-05
8.70392e-05
4.80362e-05
8.62897e-05
0.0169488
4.43757e-05
0.0101108
0.0489201
0.0291927
8.81298e-05
0.00676761
0.00598504
0.000104919
0.00011958
0.0122446
8.65884e-05
0.0247787
7.42251e-05
9.16571e-05
9.19919e-05
0.000119553
4.44579e-05
8.41599e-05
9.04927e-05
7.67498e-05
5.02137e-05
7.19195e-05
7.20234e-05
5.05815e-05
6.77593e-05
5.00618e-05
8.67854e-05
0.00721121
9.30064e-05
0.0366768
5.25551e-05
5.25454e-05
7.26858e-05
0.0294383
8.26568e-05
7.40872e-05
0.0138166
0.00013364
0.00610801
6.55137e-05
9.31073e-05
8.29551e-05
8.27689e-05
6.57517e-05
7.13471e-05
0.0126938
0.00956013
0.0149499
8.76824e-05
9.28916e-05
7.82272e-05
8.64303e-05
4.71299e-05
6.46687e-05
7.51699e-05
7.3874e-05
0.027185
4.80368e-05
0.0308448
0.0354461
8.22834e-05
5.22091e-05
8.51256e-05
9.67708e-05
7.41819e-05
5.21964e-05
0.0124446
0.00968614
8.61694e-05
0.0285542
0.00700237
9.05065e-05
6.52955e-05
8.22231e-05
7.93568e-05
8.20353e-05
6.59455e-05
0.0419201
0.00738529
7.4978e-05
7.12472e-05
0.0095005
0.00432906
4.7423e-05
0.000180962
8.68904e-05
0.0245315
0.0424152
0.00294518
0.0137019
6.60393e-05
6.76821e-05
0.0112829
5.10214e-05
9.01418e-05
7.91953e-05
5.64033e-05
8.25046e-05
0.00275791
4.4144e-05
0.025231
0.0145781
5.85067e-05
0.000145868
7.84824e-05
5.75407e-05
0.0434984
0.000128952
8.06939e-05
7.88658e-05
7.47357e-05
7.50978e-05
8.52273e-05
8.94225e-05
0.00938259
5.63109e-05
8.32158e-05
9.02661e-05
9.48439e-05
0.0319559
4.8181e-05
0.00446526
0.0314859
0.0206632
0.0409911
0.0380616
7.64058e-05
5.76358e-05
9.63291e-05
8.52461e-05
8.17303e-05
5.14619e-05
6.48463e-05
0.000125751
8.5815e-05
8.41552e-05
0.000102147
0.00974057
6.26504e-05
0.00843637
0.000165916
0.0341274
9.3198e-05
0.0199487
0.00158739
9.82777e-05
8.60658e-05
8.22891e-05
8.88663e-05
8.16325e-05
4.79325e-05
0.00061363
8.59997e-05
8.97853e-05
4.41313e-05
7.56671e-05
0.0405382
0.0438974
0.0247062
6.70607e-05
0.0100533
0.0108367
0.0226368
0.000365127
8.96902e-05
7.06158e-05
8.30484e-05
9.02885e-05
0.0104356
8.08951e-05
0.00527201
5.79518e-05
4.43319e-05
8.17105e-05
6.37066e-05
8.1769e-05
4.55652e-05
0.000142154
7.06829e-05
0.00548831
0.00234555
5.03325e-05
4.75584e-05
0.0357415
9.46608e-05
9.45018e-05
6.27388e-05
5.18871e-05
7.68622e-05
0.00529269
0.00100946
7.34038e-05
7.98672e-05
4.42307e-05
5.86588e-05
0.00641024
0.0324678
9.0351e-05
8.77808e-05
6.26831e-05
9.48478e-05
0.0429335
8.17179e-05
5.36494e-05
0.0332827
9.27725e-05
0.021192
9.01926e-05
7.19e-05
5.35964e-05
0.0140291
4.90236e-05
6.02416e-05
9.30937e-05
0.0433947
0.000181543
0.0152441
9.26951e-05
6.27126e-05
6.27622e-05
8.30445e-05
5.9605e-05
0.00016968
0.0298396
4.9099e-05
0.0100495
9.45533e-05
0.0295999
0.00193755
0.00170591
5.24016e-05
8.677e-05
8.36406e-05
8.79415e-05
8.16911e-05
7.4876e-05
5.88141e-05
8.1624e-05
8.7524e-05
0.030847
8.81975e-05
0.000157734
4.90204e-05
0.0447001
5.56104e-05
5.10737e-05
0.0304451
8.39057e-05
8.3608e-05
4.90639e-05
8.65564e-05
8.17083e-05
8.88351e-05
8.77375e-05
9.44252e-05
0.00942248
7.15126e-05
8.18799e-05
0.00342955
6.24421e-05
8.69424e-05
0.000346883
5.24669e-05
4.40626e-05
6.30028e-05
6.69994e-05
8.81597e-05
0.000107491
8.28768e-05
0.00465084
0.00336223
0.0432345
0.00983114
4.56132e-05
6.67966e-05
0.00202169
8.27844e-05
7.23706e-05
0.00175287
6.88817e-05
0.008397
0.0134722
0.00935183
0.00420303
0.00951399
9.19722e-05
8.78353e-05
8.48263e-05
5.1719e-05
0.00547996
0.00876865
8.38156e-05
8.15016e-05
8.17256e-05
6.34358e-05
8.83546e-05
0.00578007
6.56277e-05
9.03753e-05
8.27359e-05
7.97289e-05
0.0396699
8.80411e-05
9.57097e-05
9.81215e-05
8.1792e-05
8.77516e-05
0.0414145
0.00162678
9.71946e-05
5.16758e-05
7.17518e-05
9.30571e-05
7.07314e-05
8.77412e-05
0.0345233
0.000146427
6.54726e-05
9.46366e-05
8.12137e-05
5.15759e-05
6.65535e-05
0.0366929
9.43694e-05
0.0144001
0.0324745
4.78553e-05
4.98483e-05
6.34726e-05
6.36346e-05
5.15582e-05
0.0454983
0.0289959
7.33377e-05
4.4365e-05
0.0443431
5.63687e-05
0.0303705
7.5819e-05
0.0366884
0.00010396
0.0144757
7.5126e-05
0.00755995
0.00843423
7.3677e-05
5.75783e-05
6.68772e-05
0.00202569
8.25528e-05
0.0300173
9.05932e-05
0.0466742
0.0455961
8.11922e-05
6.36704e-05
0.000138619
0.0436103
0.00833266
7.52406e-05
0.0113919
0.00883536
0.0127382
0.0199851
0.00566768
0.000132348
7.5691e-05
0.0083183
0.012175
5.14129e-05
9.44409e-05
6.34761e-05
5.09042e-05
5.62959e-05
0.00997962
7.62723e-05
0.000115511
4.99771e-05
6.61719e-05
4.79034e-05
5.13844e-05
7.47227e-05
7.46667e-05
5.09198e-05
7.43749e-05
7.11762e-05
7.10998e-05
8.2692e-05
8.24138e-05
0.0396778
8.99204e-05
0.000104372
0.0341813
4.90299e-05
7.26589e-05
0.0350104
7.49502e-05
9.2129e-05
0.0380219
0.040605
7.71275e-05
0.0172357
0.0306048
8.1488e-05
6.27111e-05
5.59294e-05
7.05754e-05
0.00023309
0.00592093
0.0413296
9.48484e-05
0.0163556
8.55967e-05
0.000270114
5.0184e-05
5.81296e-05
0.0455093
4.87993e-05
8.47149e-05
0.0303331
0.000116757
0.000177963
8.62052e-05
5.1431e-05
7.46851e-05
0.00753741
8.6661e-05
7.38716e-05
0.0353345
0.0306924
5.7968e-05
6.25069e-05
9.01453e-05
4.89555e-05
0.00394854
7.2788e-05
0.0102717
5.00237e-05
0.0170613
9.48305e-05
8.71866e-05
6.75718e-05
7.28009e-05
8.5379e-05
8.29735e-05
0.0336377
5.1416e-05
7.39538e-05
4.54562e-05
0.000132594
5.56653e-05
0.035979
0.000135065
8.78365e-05
6.26223e-05
0.00505562
8.49765e-05
0.000116018
0.00045397
0.00729921
8.95776e-05
5.79145e-05
7.87502e-05
7.8845e-05
0.000111237
5.6179e-05
8.60246e-05
9.48473e-05
0.0225009
6.25715e-05
9.03378e-05
7.48177e-05
7.54477e-05
7.0175e-05
8.54744e-05
8.0293e-05
4.54006e-05
8.52208e-05
5.23645e-05
7.50013e-05
5.79396e-05
4.85282e-05
0.0102834
7.1121e-05
4.55643e-05
4.41154e-05
0.00869971
4.41452e-05
0.0041553
7.51758e-05
6.40233e-05
0.00819911
4.79189e-05
0.00933365
8.19302e-05
9.00221e-05
8.53409e-05
6.45172e-05
4.4402e-05
5.17592e-05
4.89684e-05
0.0408583
8.10861e-05
0.00910942
9.22742e-05
0.000104751
6.52283e-05
0.0476405
7.38747e-05
6.46017e-05
0.000176412
6.69348e-05
0.00918336
0.00335699
0.00986142
7.83569e-05
5.90375e-05
6.69505e-05
8.38788e-05
8.00405e-05
4.88689e-05
0.000100705
7.06128e-05
8.34878e-05
7.86129e-05
6.55333e-05
6.51824e-05
6.40158e-05
9.01343e-05
7.82409e-05
5.05085e-05
9.29973e-05
6.37695e-05
0.00616726
0.0442992
7.9555e-05
8.06354e-05
8.17194e-05
0.0122067
0.018963
0.000107285
9.51197e-05
5.81825e-05
5.76003e-05
9.00883e-05
7.31952e-05
6.37718e-05
7.2008e-05
0.00806423
0.0202871
0.00440919
0.00875786
6.70432e-05
0.000199783
0.000104433
5.37811e-05
5.79208e-05
0.000227239
0.041233
0.0184355
0.0494661
0.037439
0.0125376
0.00726075
0.0436344
0.000106045
9.45733e-05
4.89688e-05
4.57482e-05
0.000128255
5.79847e-05
0.000417936
0.0364986
0.0176841
9.5025e-05
9.49149e-05
0.0390808
9.30174e-05
7.56871e-05
0.00814566
7.80526e-05
0.000213475
6.74617e-05
0.0102664
0.000591742
4.42089e-05
0.0388214
0.00835056
0.00434241
9.10479e-05
8.14124e-05
0.0100561
0.000458941
6.74935e-05
9.12763e-05
0.00820583
0.000101344
0.0392921
0.0137568
5.96733e-05
6.90287e-05
7.26427e-05
9.98912e-05
8.0613e-05
8.20436e-05
0.0188153
0.0362474
0.00555975
0.0363295
0.041731
5.05401e-05
8.31178e-05
6.4288e-05
0.00863194
0.0138438
0.000129637
6.74217e-05
4.43121e-05
0.0150432
7.46188e-05
7.57508e-05
0.0329458
0.0408008
7.55595e-05
8.38791e-05
7.57611e-05
7.30115e-05
5.11161e-05
0.000339253
0.00678179
5.44284e-05
0.041167
8.1745e-05
0.0126501
0.00145886
0.0268705
0.00382202
6.80094e-05
0.00032677
0.000125733
0.000132359
7.50402e-05
0.00777086
0.000107595
8.66704e-05
4.88049e-05
0.0374303
7.81606e-05
0.00675661
0.0227903
5.62639e-05
7.79514e-05
7.5929e-05
7.04543e-05
9.00208e-05
5.11996e-05
0.00378475
0.0314783
0.000128362
0.00382364
0.0393946
0.00833177
9.28105e-05
4.87021e-05
7.21734e-05
8.54258e-05
0.00651552
7.61187e-05
5.47485e-05
0.000291308
6.96715e-05
0.000568771
0.0357436
0.00145213
5.10919e-05
7.67268e-05
0.0435073
0.00896338
0.0416793
7.57914e-05
0.00740063
7.76921e-05
7.42015e-05
8.82337e-05
8.15986e-05
0.012814
0.00834932
8.33335e-05
6.61131e-05
5.18549e-05
4.76524e-05
0.000139743
5.31138e-05
7.59044e-05
0.0141605
0.000144208
0.0105176
8.96381e-05
0.0102843
0.000128415
0.0159507
0.00761736
7.68569e-05
0.0442501
7.44399e-05
0.00949367
5.59753e-05
0.0120502
5.30695e-05
0.0138786
4.98124e-05
0.000104807
7.4412e-05
0.00457736
0.0181484
0.00793773
0.0502874
0.0487911
7.4741e-05
6.74504e-05
6.24096e-05
6.89735e-05
5.78341e-05
8.4032e-05
5.13523e-05
4.9809e-05
8.10518e-05
0.00603433
4.58387e-05
5.07201e-05
4.59605e-05
8.00881e-05
0.0113162
5.81745e-05
6.79789e-05
0.0221196
8.2101e-05
8.13558e-05
0.0397576
7.66875e-05
0.0487176
0.00628246
7.46362e-05
0.0375759
7.25122e-05
8.54628e-05
0.0500479
8.99655e-05
6.8401e-05
7.84127e-05
0.00728918
7.40549e-05
0.0388666
0.023525
5.91395e-05
4.9026e-05
8.08866e-05
0.0108227
7.44989e-05
0.0398072
0.000103549
6.98288e-05
6.72147e-05
6.04213e-05
8.25407e-05
8.83579e-05
5.46878e-05
8.85189e-05
8.54062e-05
5.56058e-05
7.5153e-05
4.89706e-05
0.0419011
0.00703442
7.59084e-05
7.85986e-05
9.2095e-05
0.0366526
0.00988758
9.26538e-05
0.0141967
0.0346818
8.78801e-05
0.00416964
7.94196e-05
0.0048375
9.26292e-05
8.78376e-05
0.00135617
0.00018119
7.36563e-05
8.66534e-05
0.0115166
7.167e-05
4.40626e-05
0.0362979
0.000133322
8.8015e-05
5.34704e-05
8.55351e-05
8.15766e-05
8.36464e-05
7.40571e-05
5.11316e-05
0.0052018
0.00880977
0.00400376
5.58081e-05
8.00481e-05
0.00787934
7.70844e-05
4.88242e-05
0.00520736
0.00153526
0.0119765
9.02474e-05
0.000357929
0.00970018
4.75325e-05
5.07478e-05
6.92663e-05
0.000713259
0.0435788
0.0147506
4.41085e-05
0.0411633
8.65626e-05
5.07519e-05
0.0402987
6.71912e-05
8.1049e-05
0.0164257
0.000163326
4.41697e-05
9.74377e-05
7.67993e-05
6.28413e-05
8.80508e-05
9.84799e-05
8.81036e-05
9.50886e-05
7.44169e-05
8.28804e-05
8.84632e-05
7.77069e-05
0.000210674
0.00470087
0.0368952
0.00101872
5.05407e-05
0.000124256
0.000125627
0.033147
6.30405e-05
9.03935e-05
0.0234165
7.86373e-05
0.0186269
0.00522966
0.0114119
6.2108e-05
5.45486e-05
0.0417476
7.88196e-05
7.43379e-05
0.00955136
8.37562e-05
8.24694e-05
0.000129393
6.50886e-05
8.08432e-05
0.00102856
0.0100691
0.0142187
0.0363123
0.0131394
5.07564e-05
7.48872e-05
0.00121517
0.0107508
0.0367498
4.78988e-05
0.00598037
9.69665e-05
8.44713e-05
0.0388477
7.70677e-05
0.0250332
0.0342204
7.06519e-05
7.55462e-05
5.20848e-05
7.19961e-05
0.00579082
6.43671e-05
9.17814e-05
6.56145e-05
6.41914e-05
0.0336972
0.0100084
0.00826114
5.10102e-05
5.04328e-05
0.00122717
7.68024e-05
0.037554
7.12326e-05
7.76604e-05
8.81123e-05
0.000109769
8.87693e-05
0.0488244
0.00713362
0.00016939
7.83698e-05
8.86218e-05
6.54359e-05
0.000145445
4.86347e-05
0.0368261
0.0014036
0.00225157
0.0120868
0.00741691
8.18734e-05
8.81467e-05
8.34114e-05
0.000123066
0.00110155
0.000103037
0.000863709
6.55249e-05
0.0339075
9.0608e-05
8.07921e-05
0.00929623
8.18068e-05
0.0357941
0.00557705
5.04323e-05
8.09388e-05
0.0264326
8.2629e-05
8.47249e-05
0.0346465
8.4793e-05
7.77857e-05
4.89345e-05
4.75703e-05
6.85082e-05
0.000110278
4.89017e-05
7.42809e-05
7.95415e-05
0.00899903
5.55493e-05
9.52471e-05
0.00228244
9.06249e-05
8.0479e-05
0.00010558
0.00731586
0.00823264
0.00114924
0.00549149
0.00552242
7.91673e-05
0.0454806
7.50497e-05
7.69498e-05
7.73664e-05
8.81375e-05
7.76428e-05
0.0324949
8.84834e-05
5.4491e-05
5.63658e-05
8.67777e-05
6.77211e-05
9.1944e-05
0.00124397
0.000121818
8.11081e-05
9.44924e-05
0.000122652
0.000910093
9.77204e-05
8.06137e-05
0.0144337
8.73286e-05
4.4237e-05
0.00107189
5.11252e-05
0.0129398
4.89685e-05
8.67284e-05
0.00324259
7.36429e-05
5.82423e-05
8.20082e-05
5.0452e-05
8.72599e-05
6.61158e-05
4.91022e-05
7.95814e-05
7.96444e-05
0.0467999
6.80498e-05
0.00547816
6.39461e-05
0.0143359
0.0122542
6.95069e-05
5.18887e-05
0.0410489
9.91924e-05
0.00416285
8.78379e-05
8.4743e-05
0.000128761
5.04009e-05
8.24026e-05
7.05594e-05
9.73469e-05
0.0407516
5.25677e-05
6.25541e-05
7.9017e-05
0.00787079
9.04857e-05
0.0126789
8.37893e-05
4.59731e-05
7.94701e-05
7.48e-05
5.10616e-05
4.64102e-05
6.81986e-05
4.78811e-05
5.28985e-05
5.00153e-05
6.42605e-05
5.57302e-05
0.0193702
4.79016e-05
8.57037e-05
4.6378e-05
0.000109554
5.16944e-05
0.0140489
0.0258629
5.43592e-05
8.18594e-05
6.88498e-05
4.74025e-05
8.89547e-05
0.000175693
0.013053
5.0729e-05
8.68147e-05
0.0188973
0.00528455
9.16378e-05
0.00838163
9.97156e-05
9.05633e-05
0.00551308
6.24602e-05
0.038432
8.05245e-05
0.00569979
8.09193e-05
0.0265255
0.00842207
4.49537e-05
5.22677e-05
5.01205e-05
0.00967389
8.60667e-05
9.30308e-05
0.0457043
4.90875e-05
8.05585e-05
6.31253e-05
0.0320708
7.13477e-05
6.28354e-05
0.0436046
5.43056e-05
8.52357e-05
0.042836
0.000102188
0.000113666
0.00533774
0.0400062
7.00423e-05
7.03516e-05
8.5172e-05
7.01622e-05
0.0398174
5.16333e-05
7.3623e-05
0.000195768
5.05853e-05
7.33379e-05
9.36304e-05
0.000227528
0.0348913
5.13433e-05
8.8874e-05
8.48934e-05
0.000145885
5.05955e-05
0.0200365
7.36033e-05
0.0419287
7.28503e-05
0.0339305
9.47101e-05
0.00581594
8.46324e-05
9.34432e-05
0.000935063
5.14149e-05
8.59845e-05
5.32342e-05
4.60365e-05
0.00580777
0.0115912
8.09033e-05
8.36111e-05
0.000151345
8.5427e-05
9.50146e-05
0.000105357
0.0144462
9.71771e-05
0.0041932
5.77774e-05
0.0354133
0.00445019
0.0210637
0.000170495
0.0110625
9.20488e-05
7.47579e-05
0.00022133
0.00250257
0.000100897
0.00462738
6.5026e-05
6.9534e-05
0.0140612
9.39799e-05
6.41276e-05
0.0257079
6.26507e-05
0.0268993
5.78507e-05
8.72139e-05
5.48081e-05
4.42649e-05
6.78811e-05
0.0354939
7.49536e-05
9.03331e-05
0.00102915
5.59908e-05
8.04692e-05
6.23258e-05
5.11559e-05
8.47616e-05
7.23537e-05
0.0039491
4.77133e-05
8.39011e-05
8.44043e-05
0.00562825
7.09375e-05
5.12767e-05
8.4456e-05
8.02373e-05
0.00208093
9.63168e-05
0.00470579
9.8249e-05
7.43046e-05
8.10245e-05
6.21697e-05
8.72681e-05
0.000960957
7.54809e-05
7.89741e-05
0.0169644
5.03042e-05
0.0103485
4.98717e-05
8.80371e-05
9.49528e-05
9.36925e-05
8.54875e-05
0.000138217
0.0227488
6.77739e-05
7.57143e-05
0.0124035
0.0185935
0.000112247
0.000112008
0.0151112
9.1408e-05
0.0149269
5.96111e-05
5.95545e-05
0.00663319
0.031336
8.51501e-05
8.34186e-05
0.000207606
0.000205463
8.63431e-05
5.02652e-05
8.06279e-05
9.46109e-05
0.000106325
0.0500461
6.85118e-05
5.00782e-05
0.00210481
5.21154e-05
0.0081122
0.000103166
8.4995e-05
8.97822e-05
0.0481533
8.58573e-05
0.0382056
5.77204e-05
5.08741e-05
4.73423e-05
6.8963e-05
9.04444e-05
5.19236e-05
7.59479e-05
8.34019e-05
4.82322e-05
5.32879e-05
9.01239e-05
7.46809e-05
0.000124344
0.00960026
8.90426e-05
0.0203632
5.00436e-05
8.09356e-05
0.00346751
0.00424562
8.77677e-05
7.53956e-05
4.39554e-05
5.18358e-05
0.0171528
8.11877e-05
0.000178494
0.0412582
0.00368244
9.34233e-05
0.00796383
0.00750951
5.97043e-05
8.73199e-05
0.0211985
8.23872e-05
0.000139808
0.047486
7.89028e-05
7.83277e-05
0.0019476
8.87982e-05
6.61901e-05
0.0101053
9.43464e-05
8.15817e-05
7.44436e-05
5.7525e-05
7.0304e-05
8.22634e-05
7.52206e-05
5.54258e-05
8.20874e-05
0.0014195
0.00825715
8.43015e-05
0.0198898
0.0404213
6.26728e-05
0.0346601
0.00480796
0.0378635
6.77713e-05
0.0171205
0.000100481
7.44685e-05
8.45808e-05
7.73569e-05
8.05444e-05
0.0358087
0.00779275
6.7674e-05
0.0393909
6.57978e-05
7.24949e-05
0.000108299
9.78183e-05
0.00551888
0.00014942
0.0160591
0.00784578
8.11023e-05
8.78222e-05
7.34273e-05
0.00868568
0.0385535
8.16716e-05
8.1391e-05
7.31963e-05
7.22083e-05
0.000843974
0.0128118
7.25307e-05
5.19565e-05
8.30227e-05
5.28108e-05
7.74097e-05
0.000110122
0.0394435
8.45557e-05
0.0019535
7.31971e-05
6.4845e-05
7.82979e-05
7.13922e-05
0.024405
0.0151267
5.81671e-05
0.000110226
8.3082e-05
0.000115102
0.0357754
7.56854e-05
4.77601e-05
8.10499e-05
0.0433681
7.33779e-05
0.000206215
8.56668e-05
8.12746e-05
7.51922e-05
5.63118e-05
8.85068e-05
9.02985e-05
0.00347941
7.18797e-05
6.99453e-05
8.3546e-05
7.94574e-05
6.47616e-05
7.46822e-05
6.00872e-05
8.23414e-05
0.0127866
7.86015e-05
6.93255e-05
8.02425e-05
7.44133e-05
7.19536e-05
0.00011556
8.09861e-05
9.74735e-05
0.0376598
6.38816e-05
0.00013559
6.98694e-05
0.038233
0.00115956
8.30823e-05
6.21985e-05
0.00407618
7.7607e-05
6.92669e-05
8.88831e-05
0.00440703
0.016515
8.27948e-05
9.08544e-05
7.55099e-05
0.00704856
0.00693214
8.40879e-05
9.29398e-05
0.015489
4.43295e-05
6.00347e-05
0.0184837
9.20996e-05
7.44997e-05
0.0156556
7.3023e-05
5.08648e-05
0.0402597
0.00486544
0.00325347
0.00653996
0.00864308
8.60041e-05
0.000345228
0.0002641
0.00324769
7.06705e-05
5.3702e-05
5.36748e-05
0.00601657
0.0093615
9.79523e-05
0.00915596
6.36777e-05
0.000116542
0.0395994
9.76778e-05
8.77316e-05
0.00647671
7.91413e-05
0.000174028
0.00495427
5.24126e-05
5.8403e-05
8.77601e-05
0.0104935
7.31043e-05
4.44389e-05
0.0153008
0.00489252
7.32424e-05
0.035094
0.00378913
0.000110809
0.00817059
8.6172e-05
5.38735e-05
5.38695e-05
6.24047e-05
0.0133526
0.00377881
0.0178262
0.00104147
0.00012412
7.74755e-05
0.00271724
6.84497e-05
0.00584152
0.011187
5.39294e-05
0.0261487
0.0148621
6.2547e-05
9.60289e-05
0.0196669
0.0164108
0.00135095
0.0065289
0.00961746
8.54036e-05
0.0291278
0.0168964
8.40781e-05
4.41203e-05
8.84961e-05
0.00692666
8.61642e-05
7.27034e-05
8.83808e-05
0.0396321
0.0350356
0.0414385
0.0116904
0.00440041
0.0317745
8.33257e-05
0.000369957
7.49573e-05
0.0218541
0.0372025
0.0428873
8.70302e-05
0.0136826
9.5123e-05
5.386e-05
0.000167345
8.96453e-05
5.81206e-05
4.84771e-05
7.51346e-05
0.0399338
4.92185e-05
0.00597885
0.0237874
8.24835e-05
8.21553e-05
8.40337e-05
0.00664276
0.0379808
0.0405999
9.10691e-05
7.51996e-05
7.29504e-05
4.77679e-05
8.14301e-05
7.86207e-05
0.015083
0.0332799
7.54251e-05
6.00823e-05
7.54992e-05
9.41988e-05
8.92693e-05
0.0433153
4.81873e-05
0.000235121
0.000824743
7.56261e-05
0.0103508
4.43282e-05
0.00307415
0.000110339
8.69451e-05
0.000154412
8.70704e-05
4.75375e-05
0.0236853
6.2278e-05
8.22978e-05
7.32538e-05
0.0407998
0.00687144
0.00847472
7.31857e-05
7.74197e-05
4.63012e-05
0.000251253
9.19021e-05
0.00988395
7.59365e-05
0.0164069
0.00455752
9.85836e-05
6.15496e-05
8.66213e-05
0.000101022
0.000613445
9.46399e-05
0.0197653
0.011709
0.0321539
8.77066e-05
8.19504e-05
6.24727e-05
4.77908e-05
0.0088892
0.0396733
4.74497e-05
0.00287086
9.22265e-05
6.30968e-05
6.8586e-05
0.033083
0.000114282
9.4069e-05
8.68968e-05
4.44898e-05
9.21866e-05
7.48429e-05
6.95272e-05
8.5453e-05
0.0177222
7.46002e-05
7.85598e-05
7.89205e-05
6.15468e-05
0.00297339
0.00253317
0.016839
7.81254e-05
5.12971e-05
8.216e-05
9.82441e-05
8.52389e-05
6.22313e-05
0.000100698
0.0329393
0.024283
9.87595e-05
0.0259158
0.0217394
8.87014e-05
8.17109e-05
0.0106788
4.9968e-05
0.00594905
6.26215e-05
0.0125775
4.99547e-05
4.85003e-05
0.030318
6.99873e-05
0.0383475
8.22199e-05
0.029774
7.54338e-05
7.4809e-05
0.00450298
4.98441e-05
9.04498e-05
0.00526439
9.75419e-05
7.08168e-05
0.000100241
0.000104838
8.87019e-05
5.06077e-05
7.92643e-05
9.10227e-05
0.000139153
0.00558826
8.23205e-05
8.14342e-05
9.29812e-05
5.76258e-05
0.0325764
0.0363261
4.73294e-05
0.0363598
0.00164606
8.53777e-05
0.0408393
0.044335
0.0127413
0.000239185
6.9891e-05
0.00406236
0.000108549
0.0362476
0.00757751
8.06195e-05
4.41128e-05
0.0347009
8.91531e-05
7.10154e-05
0.00758447
0.0349333
6.2653e-05
7.70437e-05
7.49055e-05
0.0101509
0.0392828
8.49949e-05
0.0396324
0.00143622
0.00905957
0.0424386
0.00472231
0.00788453
0.0117214
7.80755e-05
0.000215963
7.8525e-05
8.91935e-05
8.38507e-05
7.04511e-05
8.54395e-05
7.77684e-05
0.036842
8.97229e-05
0.00403983
0.00787442
5.61188e-05
5.05923e-05
0.000138942
7.98759e-05
5.15646e-05
4.8624e-05
8.98178e-05
0.0104058
8.84142e-05
0.0351892
4.77508e-05
0.000397268
0.0151255
5.60961e-05
6.9763e-05
6.85151e-05
5.07269e-05
0.0356448
5.1379e-05
7.48642e-05
6.9068e-05
0.00565357
7.91093e-05
8.05463e-05
8.13963e-05
0.0179562
0.00603679
0.0222373
8.0464e-05
8.1481e-05
8.61743e-05
5.61045e-05
6.92633e-05
0.00560722
6.1808e-05
4.97834e-05
0.00605885
9.98411e-05
0.0210726
0.00018828
0.0426209
9.00779e-05
4.95517e-05
0.0103357
0.0433628
6.89311e-05
7.99405e-05
4.74711e-05
0.0133644
9.93402e-05
0.000311664
8.35402e-05
6.38659e-05
7.52682e-05
0.00570704
0.0145891
0.00011523
0.0245764
6.91697e-05
0.0149175
9.00555e-05
0.0371943
6.29679e-05
8.93445e-05
6.24178e-05
4.96589e-05
7.42449e-05
5.5919e-05
0.0412435
0.000105458
8.85342e-05
8.99401e-05
8.42198e-05
7.89122e-05
8.04502e-05
6.32913e-05
0.0403378
0.00392328
9.88838e-05
6.28069e-05
4.87771e-05
0.0143402
0.0504254
7.63776e-05
6.31231e-05
8.14241e-05
0.00427681
4.8631e-05
4.87489e-05
4.86102e-05
5.77916e-05
0.000186406
8.06334e-05
0.0230476
8.13372e-05
0.0243665
0.000329183
9.0957e-05
0.00231868
0.000139756
8.34873e-05
0.00656073
8.88227e-05
8.50147e-05
5.33273e-05
4.44037e-05
0.0367019
8.28813e-05
6.25258e-05
0.0193641
6.33524e-05
0.000110145
0.00114245
0.00718087
7.78842e-05
8.36335e-05
0.0326593
8.51622e-05
7.5953e-05
0.000114073
6.75356e-05
0.000125402
8.59048e-05
4.41736e-05
8.38019e-05
8.34437e-05
8.57565e-05
7.42426e-05
5.10148e-05
0.00742931
6.60966e-05
5.91629e-05
9.69412e-05
5.13812e-05
0.012584
0.00692602
7.58958e-05
8.92328e-05
7.06935e-05
0.00215182
5.11829e-05
5.00983e-05
0.000517142
0.000132361
6.30442e-05
0.0339301
0.00718073
4.41567e-05
5.99606e-05
8.4795e-05
7.79788e-05
9.0532e-05
6.82635e-05
7.35439e-05
0.0115162
0.00561963
0.0069771
0.0243829
6.31853e-05
6.53785e-05
5.9898e-05
8.64105e-05
0.00423852
0.00817802
6.60214e-05
0.00471798
7.05799e-05
0.000105358
0.000200033
7.21335e-05
8.50278e-05
0.00664036
0.00883297
6.25868e-05
9.80972e-05
0.000103432
0.00896438
6.29408e-05
0.0153655
6.44605e-05
5.50535e-05
5.63082e-05
0.00677362
5.92465e-05
8.94773e-05
8.87964e-05
0.0385621
0.00999329
5.22828e-05
8.92912e-05
0.045347
8.346e-05
7.08174e-05
0.000229559
0.0375179
0.00014346
0.00163531
0.000106867
6.15877e-05
8.88576e-05
0.007353
0.00503801
7.73794e-05
0.0335395
7.9905e-05
0.00734215
6.45337e-05
7.62796e-05
0.0359649
9.5542e-05
0.000101706
7.86328e-05
0.00472254
4.73534e-05
7.56206e-05
8.22584e-05
4.98175e-05
0.000120192
0.000122819
0.00691041
0.000138566
0.0168363
0.00982511
7.06106e-05
9.03502e-05
0.000745114
0.0150152
7.78778e-05
0.000964985
0.00354563
0.0450003
5.40406e-05
6.79616e-05
0.00947969
0.00511851
7.73502e-05
6.24488e-05
0.000129549
0.0311458
0.0324426
0.000118077
0.0377332
6.17912e-05
8.83167e-05
8.86073e-05
9.21017e-05
8.47539e-05
9.03926e-05
0.000101113
0.00545208
0.0366196
8.4973e-05
8.07014e-05
0.000161853
9.03004e-05
0.0106215
6.44879e-05
0.00805155
8.53831e-05
0.0110187
7.31276e-05
0.0251707
0.000148096
0.000110134
5.7591e-05
0.00818193
7.74001e-05
0.0087376
8.0411e-05
6.87813e-05
0.000114244
7.05585e-05
0.0374029
7.82362e-05
5.54008e-05
8.03646e-05
4.77317e-05
0.0246412
0.0416524
8.55176e-05
8.5473e-05
0.0297824
9.18629e-05
0.00185375
9.42496e-05
7.47684e-05
9.40789e-05
0.0137758
8.51318e-05
0.00697205
9.80853e-05
0.000101061
0.00831015
7.23192e-05
0.0409638
0.0359585
0.000170362
0.0134077
4.76197e-05
6.58346e-05
0.0437063
0.0156363
4.95025e-05
0.0193234
6.20784e-05
8.58818e-05
8.53508e-05
0.0408617
7.1555e-05
7.29433e-05
8.12259e-05
8.41794e-05
8.47292e-05
7.22358e-05
0.00812394
8.21554e-05
0.000104276
0.0290658
6.16436e-05
7.13321e-05
0.0379073
0.000108173
0.00171416
4.81844e-05
8.03346e-05
8.16276e-05
5.83455e-05
0.00923266
7.99905e-05
4.81584e-05
7.0203e-05
8.56695e-05
0.0206098
9.37298e-05
4.7265e-05
4.79069e-05
0.0400674
8.56652e-05
5.0366e-05
0.0352752
4.66373e-05
5.40797e-05
8.92136e-05
0.0495861
0.00149327
0.0141875
8.1057e-05
6.24298e-05
6.86519e-05
0.000782792
6.25731e-05
8.48857e-05
0.000187904
0.0220371
7.26362e-05
7.86722e-05
4.58755e-05
5.65512e-05
0.0274369
0.0356855
4.61789e-05
7.10435e-05
5.83973e-05
0.0230271
6.8428e-05
0.0104229
0.00908581
0.0297637
0.00561177
8.93956e-05
0.00344259
5.17142e-05
4.86408e-05
6.58869e-05
6.46462e-05
7.88788e-05
0.0239718
0.000349236
8.98097e-05
0.0251794
8.61284e-05
8.57154e-05
4.76772e-05
0.0005168
8.411e-05
8.49365e-05
7.98882e-05
8.45953e-05
9.56685e-05
7.72155e-05
5.46413e-05
0.0364734
0.0498833
0.0268104
6.94299e-05
6.02539e-05
9.03091e-05
0.0277225
6.18422e-05
0.000100371
5.64851e-05
0.000112983
9.38636e-05
7.88433e-05
9.57492e-05
0.0411769
7.10709e-05
0.0254438
0.000907638
8.3805e-05
9.43841e-05
0.0120061
8.97918e-05
0.00138428
8.13985e-05
7.61946e-05
0.00656052
0.0285496
6.57992e-05
8.11386e-05
0.00202818
0.000111838
0.000142032
4.83335e-05
0.00664648
0.0420112
9.91638e-05
0.000101505
0.0139474
0.0373093
7.7864e-05
0.0114777
0.0263911
5.97021e-05
0.0369623
4.79203e-05
5.62569e-05
9.03332e-05
0.0018718
5.30186e-05
4.86277e-05
9.91724e-05
0.0412558
0.00010035
9.32038e-05
0.00815195
6.49724e-05
0.0130596
6.60962e-05
0.0331663
6.29506e-05
8.13333e-05
5.47439e-05
7.87972e-05
9.12267e-05
5.29794e-05
8.32897e-05
7.75677e-05
8.99506e-05
7.01032e-05
4.44357e-05
0.00263681
0.00935951
0.0137023
5.68713e-05
0.000122073
8.11335e-05
0.00488405
7.77511e-05
0.0108288
6.50255e-05
0.0285539
9.78967e-05
0.0131912
8.52316e-05
7.10904e-05
5.96937e-05
8.12573e-05
0.019215
0.0204659
0.0106606
0.0194729
0.0392315
8.16405e-05
8.23777e-05
6.11185e-05
0.0365714
0.000140525
7.72741e-05
0.0360152
4.4218e-05
7.0317e-05
8.60431e-05
0.000105678
0.0334887
0.0104664
8.20993e-05
6.18492e-05
7.62748e-05
0.0304987
0.00884867
0.0334831
0.0210496
0.000110702
8.6927e-05
8.68768e-05
0.0184275
0.000938627
9.04182e-05
8.63546e-05
7.06947e-05
0.0358234
7.73243e-05
4.90499e-05
0.000119008
7.32453e-05
4.41093e-05
0.000126112
0.0117129
0.00277567
0.00508977
0.0016364
6.99191e-05
0.000101732
4.91761e-05
0.029843
7.877e-05
8.51377e-05
0.000183671
8.40622e-05
7.50644e-05
5.68338e-05
5.94752e-05
0.00240165
0.000134834
8.64623e-05
7.11428e-05
7.2605e-05
4.76961e-05
0.0434638
0.00272887
0.0101523
8.91653e-05
0.00152985
0.00654395
0.000118482
8.09451e-05
0.00930789
8.82516e-05
6.28077e-05
8.37854e-05
5.94576e-05
6.54078e-05
0.00121786
8.67819e-05
0.000385506
0.00568269
9.28841e-05
7.71181e-05
7.11369e-05
8.50535e-05
0.0286207
5.99476e-05
0.0091378
0.0409303
0.0129789
5.42453e-05
9.56244e-05
6.25112e-05
8.60954e-05
4.61208e-05
0.005415
0.00452725
0.044799
8.52655e-05
8.56604e-05
0.0076203
8.9695e-05
8.67803e-05
7.76935e-05
8.54376e-05
0.0183732
0.00215523
9.06132e-05
7.28623e-05
8.1313e-05
9.1914e-05
8.05544e-05
4.87297e-05
0.00892147
6.20528e-05
6.27497e-05
0.0105041
0.0468947
0.00759977
7.61895e-05
0.0108179
0.00596268
4.77596e-05
7.16757e-05
0.0327714
5.46041e-05
8.37769e-05
0.00300787
0.0371773
0.0110005
0.0306548
7.00693e-05
4.77462e-05
5.55676e-05
4.9086e-05
0.0204316
0.0364873
5.1749e-05
9.68123e-05
7.61876e-05
6.2405e-05
8.09102e-05
0.000134355
0.000169842
8.22402e-05
0.0113801
7.76965e-05
0.0321616
0.00415826
0.00409176
0.00727703
0.0111761
7.96823e-05
0.00222056
4.50527e-05
7.99649e-05
0.0105316
5.45722e-05
8.16209e-05
0.0494852
0.0381367
0.00354588
0.0045501
7.65564e-05
0.00919226
0.00721212
8.38401e-05
6.04245e-05
6.22458e-05
8.42917e-05
7.70258e-05
8.3267e-05
0.00983777
8.19921e-05
0.00501919
8.17786e-05
8.08461e-05
0.0364672
4.60963e-05
7.77698e-05
0.000232498
0.0130014
9.97222e-05
0.0424932
7.87518e-05
0.0208563
0.00554074
0.006975
0.00676916
0.000120832
8.69568e-05
6.82555e-05
4.9187e-05
8.99611e-05
0.000104637
8.20339e-05
7.45482e-05
4.4516e-05
0.000180248
0.000147414
0.0102301
0.00355002
8.23461e-05
5.81229e-05
6.81673e-05
7.53896e-05
8.67921e-05
0.000404447
0.000155909
6.83999e-05
0.016158
6.06115e-05
0.0476239
0.00392669
7.76263e-05
0.000137909
0.0144875
7.70079e-05
8.52446e-05
6.66496e-05
5.42263e-05
0.0149161
0.0167819
0.000103998
6.76025e-05
9.04468e-05
0.000116292
8.39418e-05
7.43269e-05
0.017505
0.0424243
0.0173212
0.000101509
0.0143413
0.0104264
8.96592e-05
8.44837e-05
4.74778e-05
0.0405394
0.0222124
0.0309891
9.07553e-05
4.74882e-05
0.0406682
0.0309048
0.0496267
9.2302e-05
5.796e-05
8.30896e-05
8.49242e-05
7.68352e-05
8.67126e-05
7.47991e-05
6.83813e-05
0.000161573
0.00646029
0.00641287
0.0146683
0.000719908
5.99745e-05
4.77856e-05
0.0453501
8.78977e-05
8.34909e-05
0.00770889
0.020835
0.0464915
4.47998e-05
0.0324348
8.97377e-05
5.20508e-05
0.00186631
0.000113976
0.0065281
7.95962e-05
0.0297204
0.00767413
0.0377455
7.46431e-05
6.2506e-05
8.50774e-05
7.87419e-05
0.0292304
4.83938e-05
8.66064e-05
9.54184e-05
0.00665852
6.7364e-05
5.99471e-05
0.00383953
0.0339916
6.24086e-05
0.000175046
7.79707e-05
8.8403e-05
5.51701e-05
0.0163931
5.08661e-05
0.00770176
0.0272728
0.0104192
0.0023855
4.86889e-05
0.0160553
0.0381273
0.00192142
0.0304744
4.97306e-05
4.77408e-05
0.00387102
7.03521e-05
8.38312e-05
6.20837e-05
0.0151299
7.55477e-05
4.40597e-05
0.00690837
0.00549421
7.76538e-05
7.30377e-05
0.007406
4.41357e-05
6.16771e-05
0.00105136
7.01823e-05
0.000289138
7.78391e-05
0.0074457
1.73664e-05
5.52125e-05
8.20054e-05
0.000347899
0.00913795
0.000247892
7.7454e-05
0.0132002
0.0298635
9.1683e-05
6.36776e-05
7.83895e-05
9.90562e-05
8.58339e-05
7.35152e-05
5.33618e-05
0.000111127
5.89274e-05
8.44497e-05
0.00021336
0.000219337
7.16195e-05
0.0304186
0.00994934
5.32587e-05
5.15666e-05
4.4233e-05
0.00547045
0.00421537
0.0200054
9.50513e-05
0.0197792
0.0159366
9.51979e-05
6.098e-05
7.14671e-05
6.1104e-05
6.1861e-05
0.00111022
0.0386151
4.78769e-05
0.0388141
0.00400531
0.00139779
0.00499391
0.0279816
0.00449233
0.0262497
9.03715e-05
5.80565e-05
7.87861e-05
0.0369815
5.7807e-05
9.50041e-05
8.6667e-05
8.32602e-05
6.22144e-05
8.58385e-05
0.000148794
6.21499e-05