/*--------------------------------*- C++ -*----------------------------------*\
| =========                 |                                                 |
| \\      /  F ield         | OpenFOAM: The Open Source CFD Toolbox           |
|  \\    /   O peration     | Version:  v2012                                 |
|   \\  /    A nd           | Website:  www.openfoam.com                      |
|    \\/     M anipulation  |                                                 |
\*---------------------------------------------------------------------------*/
FoamFile
{
    version     2.0;
    format      ascii;
    class       volScalarField;
    location    "100";
    object      p;
}
// * * * * * * * * * * * * * * * * * * * * * * * * * * * * * * * * * * * * * //

dimensions      [0 2 -2 0 0 0 0];


internalField   nonuniform List<scalar> 
34253
(
-0.000230467
-0.00108491
-0.00326845
0.00929039
-4.4718e-06
-0.000935196
-0.0131657
-0.00889644
-0.056265
0.00139822
-0.0193432
0.00738746
-0.000287664
-0.0125625
2.59103e-05
-0.00894688
-0.0154336
9.20393e-06
-0.000629576
-0.010501
-0.00327591
-0.02127
0.00168159
-0.000120881
0.00121091
-0.0420363
0.0118077
-0.00889919
-0.00238981
-0.00341675
0.000942639
-0.0362668
-0.04121
1.01646e-05
-0.0107941
-0.0291195
-0.00609719
-8.36946e-05
-0.00406251
-0.00411549
-0.00010971
-0.00212355
-8.94974e-05
-0.0176311
-0.000555047
-0.0195875
-0.104393
-3.81695e-05
-3.71796e-05
-0.00393907
-0.00223287
-0.00990371
-0.00225852
-0.00260186
-0.00967166
-0.000177932
-0.00162822
-0.0203423
-0.0102836
-0.010166
-0.00165281
-0.00216621
-0.000362432
0.000392928
-0.000671728
0.00121802
-0.0206339
-0.00628726
-0.0090035
-2.4742e-06
-0.000754092
-0.000353747
-0.00224329
-0.00933614
2.28771e-05
-0.111527
-0.104392
-0.00964335
-4.00033e-05
-0.0139232
-0.0334518
-0.0034732
-3.60812e-05
-0.00983697
0.00109747
-0.00887402
0.00156542
-3.74107e-05
-0.0294167
-0.00112943
-0.00952859
-0.00405898
-0.0083551
-0.00170809
-0.0557523
6.54764e-05
-0.000438195
-0.00217981
0.000725601
-0.0492506
0.000106666
-0.0593535
-0.0145818
-0.00468662
-0.0574338
-0.000920409
-0.00145928
-0.00174329
-0.00213101
0.00311441
-7.33108e-05
-0.00301251
-0.00388852
-0.000238825
-0.00978898
-0.000746773
-1.5528e-06
-0.0111907
-0.000170416
-0.000250154
-0.0499238
-0.00535838
-0.000396522
-0.0549693
8.04054e-05
-0.00820721
-0.00430473
-0.00493609
-0.00521948
-0.0117622
-0.0133662
0.00195792
-0.000241047
-0.000545466
-0.0289345
-0.0320302
-0.108635
2.67716e-05
-0.00130302
-0.0936143
-0.00777897
-0.0998319
-0.0588673
-0.00204286
-0.000274659
-0.0340182
-0.0139982
-0.00998643
-0.000132502
-0.000899196
-0.0600368
-0.00871857
-0.0105725
-0.0112969
-0.0467931
-0.00126302
0.0090083
-0.0364549
-0.089657
0.00139033
-0.000342392
-0.000379493
-0.0523834
-0.00862636
-0.00761584
-0.0171455
-0.00993144
1.44915e-05
-0.000130148
-0.012271
-0.0129836
2.51244e-06
-0.00373471
-0.100854
-0.0301896
0.000268684
-0.00112271
-0.00105521
0.000195615
-0.00314082
-0.0658789
-0.00294771
-0.00362244
-0.000435463
-0.0291945
-0.0448515
-0.00832561
0.000387594
-0.00021746
-3.16797e-09
-0.00813695
-0.00120687
-0.00997884
-8.52258e-06
0.00944937
-0.0036319
0.000285289
-0.0292841
-8.7503e-05
6.45065e-05
-0.0207931
-0.0346214
-0.0347699
-0.00129843
-3.0994e-05
-0.00616563
4.47927e-05
-0.000240863
-0.00183317
-0.00556678
5.09639e-07
-0.000265623
-0.0488447
0.000382047
-0.0207475
-0.000751023
-0.00130086
-0.0179254
-0.0528469
-0.0091584
-0.000215833
-0.0383078
-0.021744
-0.00764813
-0.0204729
-0.00337054
-0.000213472
0.000440382
3.74499e-05
-0.000393438
-0.0213917
-0.100029
-0.0585792
0.0013481
-0.0228394
-0.00125785
-0.00133483
-0.0064209
-0.000414409
-0.0409149
-0.107888
3.09701e-05
0.000409641
-0.0321784
-0.108935
-0.0760123
-0.000475085
-0.000171706
-0.0126586
-0.00872945
-0.00085439
-0.00751922
-0.00299818
-0.000547272
-0.00858875
-0.00820792
0.00230924
-0.022715
-0.037403
3.50016e-05
-0.0529771
-0.000267937
-3.10483e-05
0.000641033
-0.00935274
-0.00851378
4.31732e-05
-0.0145691
-0.00906043
-0.00354126
-0.02079
-0.0175325
0.000554296
-0.00327845
-0.00816138
0.00404025
-0.000515666
-0.0179661
-0.0645168
-0.000174259
5.76557e-07
-0.000510086
-0.00171195
-0.0223202
-0.0245955
-0.00792519
-0.00854784
0.00480001
-0.0999799
0.00167607
-7.27379e-06
-0.00152148
-0.0273261
-0.0091188
-0.00373489
-0.000378152
-0.00076907
0.00129609
0.00789062
0.000641941
-0.000862963
0.000899551
-0.0365175
-0.0200322
-0.00316855
-3.58363e-05
-0.00144898
0.000915361
-0.00910626
-0.00972891
-0.00868151
-0.00120657
-0.00360374
-0.00121181
-0.000911214
-0.0276631
0.00160012
-0.0053646
-0.0993847
-0.0212915
-0.0335167
-0.035085
0.00173219
-0.0200586
-0.0962746
-0.000415181
-0.033951
-2.8547e-05
-0.00330996
-0.0225027
-0.00215313
-0.0196399
-0.0377413
-0.0512453
-0.000940012
-0.0358027
-0.0094034
-3.27077e-05
-0.00216098
0.00146692
-0.037086
-0.117849
-0.0665101
9.52302e-06
7.59791e-05
-0.00149152
-0.0015139
-3.32411e-05
-0.00280685
0.001965
-0.000878215
4.32825e-06
-0.0475515
-0.000258635
-0.113267
-0.00564371
0.00323231
-0.049824
0.00357324
-0.0019506
-0.00808946
0.0002313
-0.00316983
-0.000363576
-0.00155879
-0.000449079
-0.000722139
-0.11516
-0.021322
-0.00203881
-0.0477869
-0.00937302
-0.00122423
-0.0659381
-0.0325861
0.000456771
-0.00197993
0.00151262
0.000492753
-0.00288785
-0.00155155
-0.0012148
-0.0533419
-0.00328082
-0.00049705
-0.000597892
-3.37216e-05
-0.0359836
-0.00119433
-2.15874e-05
-0.000264683
-0.00118031
-0.00201628
-0.0385944
-8.01943e-05
-0.0021863
2.46026e-05
-3.38814e-05
-0.00507299
-0.00491202
-3.22763e-05
0.00641198
-0.00301284
-0.00304515
-0.00901397
-0.000659309
-0.0763173
-0.0278817
-0.0496644
-0.0918039
1.16062e-05
-0.00387602
-0.0909112
-0.00249875
-0.0357232
-0.0531498
-0.0546816
-0.00639076
-0.110719
-0.00204479
-0.00969286
-0.00133525
-0.00028378
-0.00212238
-2.29076e-06
0.00407094
-0.051472
-0.0446807
-0.00426323
-0.015593
-0.0512235
-8.65804e-05
-0.000378359
-0.0455891
1.70088e-05
-0.0110099
-0.00214424
-0.0104445
-0.0413503
-0.0141948
-0.000107995
-0.00292555
-8.43727e-05
-0.0148905
-0.00186532
-0.0782251
-0.0951377
-0.000367282
-0.00133352
-0.0295782
2.64859e-05
-0.000504211
-0.00392665
-0.000657079
-8.71691e-05
-0.0142245
-0.0156259
-0.00215281
-0.00117871
-0.000708418
-0.0146419
-0.00921609
-0.0854858
-0.000110185
0.000834386
-1.08205e-05
-0.00996927
-0.000271644
-0.0900376
-0.00341263
-0.0218013
-0.00136834
0.000155471
-0.0149324
-0.0107622
-0.0412172
-0.000315794
-0.0199448
-0.000269709
-0.00417494
-0.00711613
-0.0607718
-0.000284478
-0.0127755
-0.0426058
-0.00821412
-0.001335
-0.0212223
-0.00529031
-0.00284905
-0.00116294
-0.0153508
-0.00118783
-1.15125e-05
-0.0152373
-6.21517e-05
-0.00512157
-0.000404138
2.06843e-05
0.00219562
-0.00309349
-7.60268e-06
3.20922e-06
4.60274e-06
-7.42398e-06
0.0107673
-0.00349487
-0.000125445
0.000561129
-1.27673e-05
-0.000616148
-0.00879289
-0.000554091
-0.0116253
-0.00170234
7.5057e-07
-2.50702e-05
2.64748e-05
-0.0358159
-0.00932076
-0.000715843
-0.0364342
-0.0486283
-0.00142593
-0.0104547
0.000601841
-0.00173109
-0.0301539
-0.00178673
0.00108058
-0.0104354
-0.000558312
-0.00400669
-0.000264718
-0.00182621
-0.00811118
-0.00137502
1.35046e-05
-0.00804091
-0.00107213
-0.00212703
-0.00702283
-0.00149824
-0.00140196
-0.000166158
-0.0281396
-0.00385575
-0.000103424
-0.0236094
-0.000191657
-0.001411
-0.0421966
-0.00545778
-0.00880913
-0.00820339
-0.000198965
-0.109096
-0.0109265
-0.0434674
-0.000369322
-0.000391625
-0.0275438
-0.00299191
-0.000223315
-0.00346428
0.0017328
-0.00365813
-0.00135031
0.000673701
-0.00229196
-0.0153629
-0.048549
-0.000188636
-0.000376089
-0.0033145
0.00177966
0.000767232
-0.000389663
-0.0229053
-0.00122196
0.000208865
-0.044838
-0.0108309
-0.0437968
9.48047e-06
-1.00431e-05
-0.0574877
-0.000396202
-0.00356864
-0.0336509
-0.110455
-0.0441947
-0.0439305
0.0116457
0.00589156
-0.00354339
-0.000535896
-0.00394397
-0.0253183
-0.00138922
-0.000962538
0.00026262
3.47008e-06
0.0116039
0.00166344
-0.00134637
-0.0298628
-0.0084813
-0.000911554
-7.04922e-05
-0.00201797
-0.0303149
-0.000257419
-0.0527784
-0.0476282
-0.0171215
-0.000404606
-0.0017828
-0.0011002
-0.00306281
-0.00875459
-0.00829593
-0.110392
-0.0637024
-0.073652
-0.0652952
-0.0305049
-0.000104175
-0.00922855
-5.20346e-05
-0.000129857
-0.115562
0.0108912
-0.00137491
1.10972e-05
0.0114501
-0.00275421
-0.00350678
-0.0455287
-0.0354731
-0.00259938
-0.0131411
-0.00370348
-0.000763748
-3.33744e-05
-0.0623746
0.00278935
-0.000129539
-0.0288833
-0.00404996
0.0125191
-0.000396984
-0.0430175
-0.0122528
-0.000455856
2.68425e-05
-0.00277204
-0.0278862
-0.00520598
-0.000370946
0.00177658
-0.0142939
1.51094e-05
-0.0874446
-0.00627343
-0.00125698
-0.0061697
-0.000112287
-0.00384018
-0.00102966
-0.00203535
-0.0262236
-0.000126249
0.00391286
-0.0619803
0.0102352
-0.0827485
-0.0501962
0.000389126
-0.0399205
1.62986e-05
-0.00353205
-0.0154794
-0.00120756
-0.00110627
-0.000290103
-3.63368e-05
-0.000749964
-1.56477e-05
-0.103419
0.00856353
-9.47071e-05
-0.00602218
-0.0542817
2.42836e-05
-0.0347646
-0.000743733
0.000169206
-0.00484808
0.0010479
-0.0173152
-0.00988132
-0.0695819
0.000131866
-0.00932389
-0.00218124
-9.56676e-05
9.83686e-06
-0.00951615
-0.000196437
-0.000870585
-0.117061
-0.0649432
-0.000318453
-0.0127571
-0.000894093
-0.0564184
-0.00715038
-6.55812e-05
-0.00612446
-0.0316829
-0.00520266
-0.000788429
-0.000256899
-0.00337092
-0.000187055
-0.112513
-1.89857e-05
-0.0466369
-0.00269279
-0.00144615
-0.00665498
0.000664934
-0.0110671
-0.0305372
-0.00438473
-0.00197307
-0.000534996
-0.00074547
-0.000264534
-0.0134066
-0.000100046
-2.10889e-05
-0.0083556
-0.000117052
-8.27614e-06
-0.000108006
-1.04862e-05
-0.00827389
0.00043542
-0.000341704
0.000106608
-0.00462021
-0.00708647
-0.00104274
-0.0140699
-0.00596483
-0.00126806
4.54557e-05
-0.00484701
-0.0873473
-0.0037895
-0.00974321
-0.00538403
-0.0283395
0.000554771
-0.00530164
-0.000263004
-0.00410414
-0.0745514
-0.0103785
-0.000172527
6.47971e-06
-0.00166354
0.000488509
-0.00432578
-0.0151221
-0.0113338
-0.00331359
-0.00191944
-0.000278045
0.00505548
-0.0221345
-0.000281694
-0.0171322
-0.00263805
-0.000254977
-0.0053276
1.49174e-05
-0.0298441
-0.000114497
-0.00571274
-0.00726247
-0.0368935
0.00257604
-0.00130729
-0.0239469
-0.112276
-0.0784088
-0.0219983
-0.0713499
-0.0052891
-5.82635e-05
-0.0250936
-0.0208243
0.00118278
-0.0293514
-0.00180656
-0.0188936
-0.00440553
-0.00334254
1.64164e-06
-0.0652964
-0.0545862
-0.0175798
-0.000103884
-0.00873896
-0.00985234
-0.00778162
-0.0018226
-0.000118083
-0.000503892
0.00809807
0.00147486
-0.000277885
-0.00822747
-0.000223634
-0.00634209
1.78583e-05
7.75415e-06
0.00107988
-0.000109147
-0.0300893
-0.0638661
-0.00183045
1.4428e-07
-2.74503e-05
0.000189372
0.0128856
-0.0351745
0.00671516
2.48653e-06
-0.0356127
-0.0186374
-3.08515e-05
-0.0680259
-0.00187846
-0.00117847
0.000878992
-0.0349501
-3.53112e-07
-0.0295256
-0.00639628
-0.000590581
-0.0208405
-0.0336912
-0.0174454
0.00126817
-0.00325731
-0.00656284
-0.0163013
-0.00391
-0.0152022
-0.0827352
-0.100281
4.88847e-05
-0.000103802
-0.0100938
-0.0610801
-0.0879669
-0.000582938
0.000364625
-0.00540479
-0.00734191
-0.0701575
-0.000351506
0.000129054
-0.000260264
-0.000272471
0.00101775
-0.0070292
-0.00500113
-0.000174183
-0.00791218
-0.0089173
-0.027691
-0.00187747
-0.00847908
0.000948004
-0.000538778
-0.117281
-0.0668478
-0.112951
-8.52622e-05
-0.00257419
0.00116713
0.000517518
0.00342319
2.6663e-05
-0.00138327
-0.0288357
-0.00294603
-0.0978898
-0.00642288
-0.104743
-0.0837024
-0.00283333
-0.00482403
-0.000123667
-0.00409012
0.00348232
-0.00135917
-0.0353847
-0.00200589
-0.00134381
-0.0849683
0.000638859
-0.000249172
-0.000117896
-2.85509e-05
-0.000199497
-0.00605362
-0.0836498
-0.00186082
-0.00378705
-0.0176823
0.00589767
-0.0167823
-0.0288566
4.61998e-05
-0.0324986
-0.00642136
-0.000533746
-0.0014714
-0.0377163
1.90432e-05
0.00930408
-0.0753058
-0.000684736
-0.0700596
0.000118731
-0.00940393
-0.0173397
-0.000333279
-0.0524734
-0.000215417
0.00561961
-0.0728662
-0.00196725
-0.000260567
-0.0315064
-0.00840037
-0.000466792
-0.00810296
-0.101182
-7.21049e-05
-3.19346e-05
-0.00100421
-0.00230248
-0.00627309
-0.00853554
-0.0815142
-0.0111648
-0.00639579
-2.17509e-05
5.25405e-06
-0.000167909
0.00722236
-2.3042e-05
-0.00288946
-0.00779228
-5.52929e-05
-0.000260635
-0.0159888
0.00954557
-0.0205394
-0.00818819
-0.047625
0.000145066
-0.000121225
-0.000314746
-0.000496536
-0.000426507
-0.00163077
0.000545992
-0.00525345
-0.00604161
-0.00651307
-0.0198614
-0.0048977
-0.0890874
-0.022604
-0.000264526
-0.000279753
-0.0165521
-0.00206745
-0.0341152
-0.000377393
-0.0286857
-0.00790937
-0.00280156
-0.010096
-0.000212467
-0.0101398
-0.00825523
0.00162411
-0.00423523
5.60323e-06
-0.000205805
1.39276e-05
-0.00645752
4.52644e-06
-0.0146504
-0.00542406
0.000435027
-0.000500004
-0.0093266
-8.23026e-05
-0.00824725
-0.00221486
4.23998e-05
-0.00092267
-0.000616939
0.00202619
-0.00229208
5.77638e-05
-0.00128082
0.0011655
-0.00103303
-0.000751581
-4.80348e-05
-0.0966641
-0.00498526
-0.00105191
-0.0195962
-0.0130787
-0.0527277
-8.20199e-05
-0.00379343
-0.00305032
-0.00449201
-0.0670158
-0.000173893
-0.00136695
-0.0017681
0.00911707
-0.0208542
-0.113115
-0.000961494
-2.57074e-06
-0.00774988
-0.00509223
-9.54756e-05
-9.56018e-07
-0.00184122
-1.70733e-05
3.1796e-05
-9.01943e-05
-0.000108519
-0.000263724
-0.11032
-1.63225e-05
-0.00244004
-2.61144e-06
0.00654923
-0.00011597
-0.00158648
-0.103644
-0.000254659
-0.0101466
-0.00255145
-3.46614e-06
-0.0122498
-0.0316441
-0.00222788
-8.61745e-05
-0.0162427
0.000180076
-0.000374383
-0.0347349
-0.00310878
0.0035834
-0.0312045
-0.000276139
-0.000568713
-0.102861
-0.00876214
5.46589e-05
-0.00911469
-0.102765
-0.00358804
-1.61293e-05
-7.44463e-05
-1.57052e-05
0.000879619
-0.000247392
-0.0151008
-0.0560947
2.6509e-05
-0.00874214
-0.00024931
-0.0905257
-0.00307217
-0.000557852
-0.0266222
-0.000248444
-0.0155224
-0.0632058
-0.00803325
-0.0382962
-0.00037078
-0.081816
-0.00200439
-0.00348918
-0.0085437
-0.00343327
-0.0849552
-9.67268e-05
-0.00321813
-0.0375707
-2.85128e-05
-0.00072749
0.000962241
-0.0227762
-0.023821
-0.000132245
-0.0161424
-0.0122753
-0.010595
-3.28753e-05
-0.108841
-0.00189896
-0.0766107
0.00023216
-0.0817996
-0.0311297
-0.000315054
-0.0128903
-0.00292531
0.0107907
-0.000142085
-0.0164162
-0.000193401
-4.33168e-06
-0.000257187
0.000626345
-0.00906983
-0.00802454
-0.0368955
-0.0114143
-0.0169468
-0.0298573
-0.000909604
-0.027509
-0.0012171
-0.000289922
-0.00317767
-0.000742897
-0.00270796
-0.0339739
0.00764898
-0.0349609
-0.00500721
-0.0263228
-0.00678844
-0.0172816
0.00363105
-0.00184563
-0.00179867
-0.009939
-0.0364465
-0.00130048
-0.0434339
-0.000556288
-0.102616
-0.00022465
-0.0165207
-0.00021014
6.57165e-06
-0.000767518
-0.00405269
-0.00500682
-0.0278079
-0.000199152
-0.000278206
-0.00868221
-0.00133157
-0.000123193
-0.0121195
-0.00326129
-0.000997583
1.03139e-05
-0.0131955
-0.0139604
0.000221902
-0.00298384
-0.000116373
-0.0141545
-0.00730218
-0.000278885
-0.00458365
-0.000925506
-0.00505712
-0.00466259
-0.00927424
-0.000457138
-0.0163273
-0.00759403
-0.00363019
-0.00735264
0.00419588
-8.13674e-05
-0.000679654
-0.000103284
-0.019961
-0.0308956
-0.0151358
-0.0122796
-0.0665414
-0.104729
-0.00218545
-0.000310656
0.0077872
0.00171902
-0.0611202
-0.00733883
-0.112215
-0.0341149
-0.00440153
0.000333244
0.000317763
-0.00016692
-0.088396
-0.00981563
-0.00775951
-0.0231242
0.0119378
-0.0140927
-7.80924e-05
-0.00737198
-0.016626
-0.0291734
-0.00159872
-0.00167952
-7.63742e-05
0.000293246
-0.000138855
-0.000139194
-0.00852261
-0.00857121
-0.0202522
-0.0288473
-0.00974329
-0.0832687
-0.000376104
-0.000114402
-1.45604e-05
-0.000674502
-0.0231465
-0.000141446
-0.00336653
-0.00918377
-5.76713e-05
-0.000197691
-0.0267148
0.00021728
-0.0287946
-0.00140309
-0.0124523
-0.0032854
-7.74157e-05
-0.00754914
-0.000595829
-0.000188661
-0.00414387
-0.0034739
-1.2012e-07
-0.000139103
-0.0703701
-0.00206274
0.0110244
-0.0276299
-0.000843512
-0.0349456
0.000196486
0.00278413
-0.000517382
-0.00132008
-0.00455059
-0.00887022
-0.0644462
-0.027135
-0.00731015
-0.0065442
0.000332966
-0.015833
-0.002275
-0.000571257
-0.0437845
-0.000878024
-0.00348153
-0.000370969
-0.0020002
-0.00706741
-0.00339857
-0.000254476
-0.00620455
-0.0129668
-0.000454196
-0.00851366
-0.000261341
-0.0191368
-0.000291871
-0.0282161
-0.086792
-0.0991252
-0.0014642
-0.0108708
-0.0170168
0.000366521
-0.00359028
-0.00479817
-0.00817655
-0.0409023
-2.44603e-05
-0.00145547
0.00132888
-0.00216741
0.000109542
-0.00890861
-0.038411
-0.000916978
-0.0106251
-0.000641916
8.34544e-05
-0.00829534
-0.0204406
-0.00146172
-0.00320506
-0.102215
-0.000988333
-0.00935837
-0.00293467
-0.000869488
0.00058794
-0.113454
-0.00168367
-0.000139768
-0.00825316
-0.000104495
-0.00514908
-0.0596225
-0.0924347
-0.00855913
-0.0146061
-0.00140873
-0.00180328
-0.00640783
-0.00319586
0.00391071
0.000530543
-0.000504783
0.00239462
-0.0117391
-0.00698142
-0.0610203
-0.00333927
1.95266e-05
-0.00760344
0.00132107
-0.00169776
-0.037768
-0.00622893
-0.00954531
-0.00258981
-0.000111992
-0.0166069
-0.0270916
-0.00071851
-0.00396024
-0.00192255
-0.00918487
-0.00406514
-0.00177011
-0.00371499
-0.000511677
-0.00410715
-0.00243824
-0.00553349
-0.00312185
-0.000812052
-0.0047346
-0.00402585
-0.0609412
-0.00924114
-0.0261648
0.00250154
-0.00123225
-0.0255487
-0.0033074
-0.0131789
-0.0737227
-0.000569091
-0.000342368
0.00316493
-0.0052802
-0.00312129
-0.0156748
-0.000916166
0.000788434
-0.00819672
-0.021898
-0.00278771
-0.0876982
0.00160349
-0.0122576
0.00727352
0.000867842
4.38814e-06
-0.000488634
-0.0112067
-0.0348477
-0.00363062
-0.00121262
0.000394287
-0.000113007
-0.0166074
0.00244176
-0.00062165
-0.00379927
-4.56698e-05
-0.00612548
-0.0413823
-0.0696187
-0.000593596
-0.00293475
3.63117e-05
3.83081e-05
-0.000275696
0.00090734
-0.0268288
-0.000463769
-0.00155339
-0.0397966
-0.0841881
-0.0281751
-0.00816798
0.00262161
-0.00159127
-0.0170012
-0.000582544
1.48307e-06
-0.00049105
-0.00163574
0.000279923
-0.00298154
-1.3762e-06
1.23635e-05
-0.000985121
0.000757699
-0.0407828
1.11953e-05
-0.00588375
0.000485164
-0.0021492
4.38689e-05
4.0839e-05
-0.000584181
-0.0120906
0.00130128
-0.114728
-2.92665e-05
-0.0591618
-0.00656944
-0.000188753
-0.00201016
0.00135911
0.000551752
-0.000236986
-0.110058
-0.116932
-0.000277262
0.00713581
-0.00236955
-0.111174
-0.000799146
0.000330188
0.00177721
-0.0144434
-0.100168
-0.00453299
-0.00861834
3.35023e-07
-0.0145781
3.8295e-05
-0.0174731
-0.000987204
-0.0148403
-0.010273
-0.0816975
-0.0975137
-0.00186774
-0.00164666
-0.086548
-0.0121707
-0.0785903
-0.00316396
0.000188088
-0.0336445
-0.0352073
-0.0176871
-0.0037231
0.00783061
-0.000228734
-0.0393342
0.00672556
-0.000322987
1.92847e-05
-0.0032366
-0.0290448
-2.26835e-05
-2.53386e-05
-0.113968
-0.0064026
-0.00798177
-0.0120891
-0.000247772
0.0101044
-0.0948998
1.19725e-05
-0.00275192
-0.00119883
2.6727e-05
-0.00955914
-0.00675082
-0.00161566
-0.0893819
-0.00472455
-0.000625437
-0.00263535
0.00440659
-0.0124949
0.00106232
1.49462e-05
-0.0239588
-0.0014909
-0.00555301
0.000742639
-2.52309e-06
-0.000398179
-0.00566166
-0.0173837
-0.0410889
-0.0198066
1.91974e-05
-0.104334
-0.000719933
-0.00799876
-0.000981761
-0.0220497
-9.80519e-06
-0.000242256
-0.00124929
-0.00650916
-2.25885e-05
-0.0687285
-0.0361219
0.0011234
-0.00352852
-0.0053594
-0.00610076
-0.0093043
-0.00030894
-0.00242874
0.00403411
-0.00831257
-0.0369067
-0.000661449
0.000804528
-0.00123085
-0.0210966
-0.00853759
-0.00130323
7.48164e-06
0.000599412
-0.00107909
-5.19473e-07
-0.000435912
0.00731228
-0.000267618
-0.00244106
-0.0841789
0.00734445
-0.0429786
-0.0194077
-1.25059e-05
-0.0356281
-0.00515096
-0.00189176
-0.0148975
-0.00308705
4.69938e-06
-0.0066073
-0.00166211
-0.000313636
0.00401257
-0.000189503
-0.00159917
-0.00677782
-9.91908e-05
-0.00872609
-0.023506
-0.0016351
-0.000335339
-0.0519998
-0.0833345
0.00281129
-0.0359783
0.0110469
0.0116624
-0.017337
-0.00996664
-0.000318488
-1.95212e-05
0.000274189
-0.00052139
-0.0035665
-2.06533e-05
-8.30851e-07
-0.106414
-0.001908
-0.0929256
-0.00611824
-0.103926
-0.00545312
-0.000126492
-9.33511e-05
-2.79932e-05
-0.0236029
-0.000399948
-0.034889
-0.00224655
0.000638254
-0.00849769
-0.0202428
-8.34706e-05
-0.00535985
-0.0266003
-0.0234801
-0.000452821
-0.00842093
-0.00891531
-0.0246967
-0.000268676
-0.0404194
-0.0866545
-2.26761e-06
-0.00233605
-0.000583856
-0.0145835
-0.0955776
-0.0345454
-0.00541227
-0.0556887
-0.00279584
-0.00103227
-0.0252501
0.00155015
1.83607e-05
-0.00133308
1.04779e-06
0.00581204
-0.000864576
-0.00246148
0.000543424
-0.00677259
-0.000300553
-0.00613716
-0.00273057
-0.000787935
-0.0142642
-0.0147872
-0.101407
-0.000297485
-0.00099497
-0.0238654
-0.00143677
0.000356949
0.000614204
-0.00674956
-0.00654588
-0.00671241
-0.00849047
-0.012971
-0.00305812
-0.00857405
-0.00668946
-0.0869016
-0.0172598
-0.000100063
-0.000181509
-9.32331e-05
-8.35833e-05
-0.0262833
-0.000317014
-0.000142745
2.31261e-05
-0.017618
-0.00042968
-0.0200761
0.00130004
2.82573e-05
-0.0795916
-0.112428
-7.76151e-05
-0.00263847
-0.00238249
-0.000111093
-0.0271323
-0.0001348
-0.00278422
-0.00304335
4.26288e-05
-0.0051972
-0.00859745
-0.00883943
0.0137116
0.000182984
-0.0104007
-0.0015142
-0.00941187
-0.0173117
-0.000269784
-0.00306778
0.000204842
-0.00086346
5.68316e-05
-0.000433093
-0.00890394
-0.00992037
-0.0385817
-0.025753
-0.0206981
-2.03247e-05
-0.00218797
-0.0332782
-0.00171874
-0.00825108
2.25989e-05
-0.00945914
-0.00843831
-0.0240846
-0.012442
-0.00157091
-0.00184851
0.00017158
-0.000566518
-0.0612929
-0.113901
-0.00213399
-0.0054573
-0.0196575
-0.0870952
-0.00132225
-0.00960145
-0.000732358
-2.2547e-05
-0.00389556
-0.000263714
-0.0430123
-0.0237234
-0.0161552
-0.027806
-0.0081566
-0.00706623
-0.00872606
-0.00118418
-0.0976533
9.07625e-05
-0.0344731
-0.00106504
-2.26118e-05
-0.0066329
-0.00178473
-0.00529378
-0.00135033
-0.00966572
-0.00134275
-2.26733e-05
-2.33929e-05
-2.33758e-05
-0.000395905
-0.00669798
-0.00864819
0.00999941
-0.00713281
-0.00843455
-0.0597943
-0.0260636
-0.00072829
-0.0433347
-0.0115066
0.000222879
-0.0153749
-0.0100892
9.98622e-08
9.64151e-06
-0.0877482
-0.0111127
-0.00130279
-0.00940777
-0.0014084
-0.0385657
1.91035e-05
7.12502e-05
-0.00559821
-0.0102973
-0.0804433
-0.0109083
-0.00586599
-0.022642
-0.00215062
-0.0531674
-0.0107792
5.46044e-06
-0.0104028
-0.00776158
-0.00878154
-0.00395452
-0.000113141
0.000578499
-0.000264338
-0.000328425
0.00820943
-0.000136054
-4.04391e-05
-0.0043834
-0.00584357
-0.00949251
-7.45473e-06
0.00161608
-0.000120933
-1.8022e-05
0.00710773
0.00867774
-0.00112323
-0.0797327
-0.000421602
3.59327e-06
-2.87233e-05
-0.0144951
-0.00216729
-0.0284326
-0.00158649
-0.000468425
0.000731616
-0.000486054
-0.000838905
-0.00844163
-0.00114286
-0.00101337
-3.69365e-05
-0.000168329
-3.54938e-05
0.000284277
-0.000289516
3.77714e-05
-0.00294451
0.00420764
-0.0220222
-0.000980104
-0.0113143
-0.00427584
-0.00331923
-0.00139381
-0.0381338
-0.0311657
-0.000204898
-0.000396154
-0.11681
-0.000923098
-0.000233143
-0.00023557
-0.00138932
-0.000328201
-0.0201421
-0.0163113
-0.0125689
0.000870635
-6.44326e-05
-0.0199338
-0.0382961
-0.0113534
-0.00289717
-0.0323916
-0.0894532
-0.0439401
0.000832017
-0.0261269
-0.000854496
-0.00885891
1.70401e-05
9.15763e-06
-0.00476043
-0.0433309
-0.00822822
0.000162387
-0.000957342
-0.00519897
-0.00835522
-0.0325344
-0.0537114
-0.00685959
0.00742856
-1.38251e-05
-0.00572354
-0.000757053
5.61905e-05
0.00802631
-0.0413662
0.00891298
0.00946273
-0.111397
-3.34699e-05
-0.00303831
-0.0281142
0.0078796
-0.00104669
-0.00213161
0.000127588
-0.00150223
-0.0568773
1.68081e-05
-0.00223411
0.000575302
-0.00380936
-0.00380218
-0.00031796
-0.00892089
-0.0456161
-0.0892348
-0.0607367
-0.0767271
-0.000313078
-0.0201853
-0.0203693
-0.036989
-0.0147746
-0.0116681
-0.0538523
0.000359059
0.0063779
-0.0135321
-0.00895985
-0.0462966
-0.0114776
-0.000546525
-0.000208954
-0.000978477
-0.00867553
0.000460668
-0.00313142
-0.10424
-0.0419018
-0.00808839
-0.000410357
-0.0029405
-0.00389749
-0.00103994
-0.00869096
-0.00249182
-0.0205484
-0.00285327
-0.0448027
-0.00653718
-0.000318067
-0.00853765
3.2089e-05
-0.103944
-0.0751635
-0.0119953
-0.0156022
-0.10713
-0.0360839
0.000652601
0.00193658
-0.000329161
-0.0157397
-0.00262997
-0.0100537
-0.00434923
-0.037087
-0.0222052
0.000952448
-0.0042699
-0.0459688
-0.0623032
-0.0161372
-0.113115
1.81147e-05
-0.00212307
-0.00248164
-0.111693
-2.89399e-05
0.00176519
-4.14918e-05
-0.0164124
-0.00958151
-0.00877232
-0.00110525
-0.00305078
-0.00910071
-0.0115727
-0.00252796
-0.00422031
-0.000901139
-0.000892548
-0.0237292
0.00903602
-0.000843834
-0.00107574
-0.0136597
-0.0267265
0.000562566
-1.9457e-05
-0.00848768
-0.00451752
-0.000380617
-0.00371112
-0.00829195
-1.91396e-05
-0.00204751
-0.012704
-0.000716106
-0.0355387
-2.53054e-06
2.33613e-05
-0.0176287
-0.0160142
-8.61699e-05
-0.000613684
-2.54667e-05
2.05651e-05
0.00224169
0.00104146
0.000778904
0.00614641
-0.00785598
-0.000326693
-0.000914482
-0.000183738
-0.00100932
-0.0109893
-0.0699321
0.0045878
0.000271002
-0.00666559
-1.00604e-05
-0.000241703
-0.102484
-0.0624081
-9.65684e-06
-0.00378073
-0.000370919
-0.111986
-0.00162152
-0.00304666
0.00331209
-0.0432947
0.000397125
-0.0127148
-0.0426311
-0.000148999
5.89822e-06
-0.00209179
-0.000205478
-0.00717903
-0.104355
-0.0612836
-0.0122024
0.00903821
-0.0111651
-0.00980827
1.86812e-05
-0.00691444
-0.0135106
-0.0133729
-0.0082265
-0.0144542
-0.00311881
-0.0024469
-0.000288508
-0.00978919
-0.00587057
-0.110844
-0.00181576
0.000430758
-0.0202554
-0.108101
-0.000936585
-0.0510176
-0.00023045
-0.0219732
-0.042179
-0.00718535
-0.00270181
-0.0769124
-0.00367831
0.00519766
-8.4068e-05
-0.010162
-0.000112638
-0.00117852
0.00259983
-0.000365102
-0.00139712
-0.00358888
-0.0037003
0.00172565
-0.00205216
-0.00935984
-0.000663219
-0.0389585
-0.0243663
-1.68391e-05
-0.0040627
-0.0227521
-0.00972448
0.00365142
-0.00264342
-0.0753693
-0.00681729
0.000743503
0.00747838
2.28225e-05
-0.00305611
-3.43178e-05
-4.77665e-05
0.00668804
-0.00778636
-1.61067e-05
5.90567e-06
-0.0118116
-0.0968495
-0.0118296
-0.0352457
-0.000260206
-0.00115994
-0.0144835
-0.000968468
-0.0285572
-0.001084
-0.00949548
-0.000291188
-0.00712278
-0.0334479
-1.10038e-05
-0.0120002
-0.0046514
-0.0112993
-0.000822719
1.20326e-05
0.00704187
0.0122297
-0.00211683
-0.000240147
-0.0512825
-0.00905277
-0.000806306
-0.00674243
-0.00327499
-0.00113838
0.0103563
-0.0333622
-0.000121906
-0.0112859
-0.00243008
2.43032e-06
-0.00846684
-0.00424336
0.0118163
-0.00246063
-0.00163851
-0.0582789
-0.00423594
-0.00858741
-0.00106856
0.00410076
-0.0518175
-0.00637825
-0.0636145
-2.59842e-06
-0.00289502
-0.0103608
0.00051969
-0.0863335
-5.9671e-05
-0.00990818
-0.000808014
-0.00605061
-0.0118212
0.000785862
-0.0104912
-0.115782
0.00296831
-0.000315098
-0.0154709
-0.00629898
0.000206453
-0.0305676
-0.0182114
-0.00302797
0.00445406
-0.00517904
-2.33161e-05
-0.0610176
-0.0046642
4.99478e-06
-0.00959864
0.000810245
-0.000890401
-0.000486289
0.00827185
-0.000137859
-0.0108642
3.25435e-05
-0.0866104
-0.0054619
-0.0141457
-0.0166374
-0.00228097
-0.00531508
-0.000228491
3.61024e-05
0.000104602
-0.00893098
0.00612935
-0.00372812
-0.00240219
9.23656e-06
0.00104842
-0.000926318
-0.000371979
-0.0212743
-0.000432329
0.0152334
-0.0520584
-0.0082693
-0.00124297
-0.022251
-0.0013695
-0.00982873
3.25467e-06
-0.000987176
-0.000281206
-0.0186119
-0.0769265
0.00124211
-0.0346725
-0.00384449
-0.00379861
-0.0114802
-0.0568086
0.000446827
-0.00301891
-0.0975296
-0.000767767
1.49956e-05
-0.0231624
-0.000665721
-0.0122915
-9.08863e-06
0.00287908
-0.00101051
-0.0463448
-0.0153741
-0.0162039
0.000695401
-0.0123659
-0.0153345
-0.00544763
-0.00749921
0.000684056
0.000873874
-0.0311578
-0.00308514
-0.00839515
-0.0240189
-0.00134692
-1.00515e-06
-0.00141024
-0.000765637
-0.00136915
-0.00969764
0.000472538
0.000690692
-0.00598983
0.000176985
0.00287218
-1.66647e-05
-0.000783451
-0.0918041
-9.2945e-06
-0.00140941
0.00680302
-0.00953934
0.000673663
-0.099738
-0.00285194
-1.66485e-05
2.53224e-05
-2.31497e-05
-0.00357475
-0.00163805
-0.000157059
-0.000245023
-0.00601984
-0.000632353
-0.00112063
-0.0237335
-0.0590524
-0.00900293
-0.00987938
-0.00460486
0.00298535
-4.19487e-05
-0.000202159
-0.0866776
0.000658833
-0.00805525
5.49261e-05
-7.31299e-07
-0.00807075
0.00102548
-3.51858e-06
-0.00790686
-0.000560951
-0.0477636
0.00369245
-0.000155202
-0.00616406
0.00214549
0.000184536
0.00129499
-0.00103146
-0.00050882
-0.0117457
-0.00631663
-0.00797766
-0.00702491
-0.00985811
-0.00112115
-0.00788584
-0.0090756
0.00163545
-1.0165e-05
-0.00609275
-0.0336713
-0.000198725
-0.0501957
-0.00603953
-0.000360681
-0.00273477
-0.000860197
-0.00429248
-0.00344054
-0.0528743
-0.0197789
-0.000829459
-2.30688e-05
-0.0114642
-0.0315081
-0.00889017
0.000587107
7.04557e-06
-0.0427638
-0.0390375
-0.000395236
-0.0459539
-0.0084341
-0.000350942
-0.00153252
-0.000412525
-0.0193836
-0.078064
-0.0437053
-0.000737368
0.00166806
-0.00105205
-0.000990048
-0.00088264
-0.00466214
-0.0648511
-0.00888093
-0.00146597
-0.0110739
-0.00182416
2.25711e-05
-0.112165
0.00807378
-0.0461747
-0.000875261
-0.0291855
-0.0524511
-0.0131544
0.00068899
-0.00402858
-0.00150207
-0.0104751
-0.0547706
0.00698595
-0.000228483
-0.0278521
-0.0141932
-1.64671e-05
-0.0813971
-0.0600382
-0.00311638
-0.0256694
-1.50523e-05
-0.0953954
0.00357001
-0.00912977
-0.0247735
-0.000497984
-0.0114193
-0.0107948
-0.00624418
-0.0183095
-0.00439403
-0.000767356
-0.0166332
-4.02823e-05
4.10373e-05
-0.11893
-0.0037963
9.38676e-05
2.41971e-05
-0.0550393
-0.0219813
-0.0105414
-0.00361264
-0.116907
-0.0428525
-4.90179e-07
-0.088312
-0.0283338
-0.00016503
-0.000474484
0.000892905
4.29568e-06
-0.00799194
0.00357942
0.000737457
-0.0822555
-0.00478937
-0.000616825
-0.0150189
0.0040988
0.00942453
-8.25393e-07
-0.00990724
-0.0340326
-0.00438024
0.000610159
0.00011038
0.00164107
0.0024508
-0.000680966
-0.0369036
-0.00160734
-0.0202883
-0.000239554
-0.000553354
-8.053e-05
0.000599908
-0.0589502
-0.00026187
-0.0774203
-5.11728e-07
-0.112078
-0.0450313
0.0104681
-0.0964139
-5.3021e-05