/*--------------------------------*- C++ -*----------------------------------*\
| =========                 |                                                 |
| \\      /  F ield         | OpenFOAM: The Open Source CFD Toolbox           |
|  \\    /   O peration     | Version:  v2012                                 |
|   \\  /    A nd           | Website:  www.openfoam.com                      |
|    \\/     M anipulation  |                                                 |
\*---------------------------------------------------------------------------*/
FoamFile
{
    version     2.0;
    format      ascii;
    class       volScalarField;
    location    "150";
    object      ddt0(ReThetat);
}
// * * * * * * * * * * * * * * * * * * * * * * * * * * * * * * * * * * * * * //

dimensions      [0 0 -1 0 0 0 0];


internalField   nonuniform List<scalar> 
18355
(
4.68807
0.838973
-0.411877
-0.0622608
0.895697
-15.2424
-0.0254359
-204.23
5.46954
0.978903
-0.74806
0.0719438
-516.008
-0.36949
-0.0272127
-2.87462
0.0916358
-0.124973
2.78936
4.09254
13.8734
-13.7467
-0.0789525
4.0792
5.10233
2.25576
-0.168422
0.462405
1.20581
-9.03738
5.42082
9.55939
-0.108716
-0.191259
3.21736
4.478
-0.284136
50.9439
0.437373
0.486171
0.775233
-14.0454
-0.621799
0.811303
-0.142072
-66.0542
9.16433
-2.45301
0.358223
0.0478474
0.122592
-0.275888
0.0242795
1.7606
-0.0716074
-0.0643182
-211.602
0.924202
64.1454
14.6623
-0.0955058
-22.7197
-0.112388
11.1427
0.0545982
3.07145
-0.207118
2.73106
0.0824571
-18.8382
-26.989
0.20913
-111.886
-0.339768
-116.191
-0.0767776
3.73797
-4.23691
-26.864
-0.581814
-0.0642163
-156.53
10.4405
-2.65273
-0.442893
-228.202
1.10389
4.15346
1.14798
0.896854
127.341
-0.145203
1.48956
0.126734
0.0536221
-0.000186678
-0.653124
-10.042
1.655
0.368703
0.774742
0.215806
-2.17752
27.3956
6.27878
-16.6797
-0.0129778
31.4506
34.3135
-10.0915
0.138088
-3.89675
2.32104
-3.54228
1.5605
-0.0722558
-0.968551
4.05558
-7.67273
-5.16804
0.991224
386.305
-1.81307
-16.5336
-0.82412
32.9438
0.0351286
-0.281894
-462.457
0.162921
0.0844784
-36.5495
8.51269
-16.6272
-4.25041
0.230153
0.594461
0.157823
-1.37798
-4.04089
0.763126
0.200858
-1.65183
-0.269191
12.2453
4.9993
2.51962
0.994218
3.1213
0.869927
-4.29234
-3.57576
-0.385895
-33.9079
-53.7083
0.0512032
-47.7603
3.18602
0.103843
4.79378
0.539052
-2.10981
145.598
45.9408
-172.822
-21.1735
0.88359
-7.63624
-368.908
-0.208134
-1.33404
0.0535517
0.0461963
0.171445
-2.26497
0.107821
-32.7735
-0.975904
2805.55
-19.7503
-7.02307
-200.6
-84.8462
-0.0127709
-70.8882
0.0948052
0.226826
-175.836
-10.9769
0.0361757
-117.644
0.00229413
37.2087
-84.7683
-3.96768
-6.79976
-9.97189
-42.3616
-68.2661
0.19249
-2.63133
-20.203
-0.190883
0.290474
0.145951
1.00877
-0.525945
0.0340573
-0.106634
-32.5417
-2.35691
-2.57219
3.5677
1.53259
-0.0376164
242.679
17.5384
3.55848
0.764841
6.02377
-923.124
-1.47875
-3.68646
-1.04766
0.727921
10.8425
0.0869416
0.220249
-2.43513
-1.98112
0.294535
-9.60366
1.95283
0.0872208
0.499745
-1.35985
-0.439274
98.4131
2.81367
0.213689
2.44995
-187.382
12.4766
-0.102884
33.2656
-0.013981
-20.1403
6.48697
-87.9911
-0.766311
-1.15518
13.3471
82.8043
-0.108249
-40.5633
0.104122
8.5904
31.404
0.361186
0.0316
2.01423
7.95906
-1.04261
-25.9091
0.0912339
0.0782658
-0.18223
-5.14659
-7.15063
-5.68788
-0.683555
0.409463
-175.465
-19.5628
0.370635
-43.4694
-0.425807
-0.826441
-221.204
-0.0820545
-0.137243
-17.0981
-0.0385551
-0.0746284
42.6939
-1.62467
-0.0684836
-7.44549
0.0517121
4.90087
-0.0778
0.233899
2.60435
1.34283
1.22156
0.0135416
13.9124
-3.00514
-72.8227
0.75676
-0.728355
-10.8295
2.91908
0.0209236
-28.8586
-152.492
30.7777
29.8064
0.135065
-0.00729836
11.4411
-1.33229
24.4628
0.0846772
114.032
-5.02079
-1.78385
0.0562656
-788.129
-0.175928
0.0279451
0.138925
-108.683
0.792615
0.879102
-93.0151
-2.82453
0.464361
-48.288
-0.0225553
-103.775
0.0947947
-4.16724
-0.0259141
-81.2317
0.0533911
-0.590635
-1.65435
16.3317
-0.186078
3.21827
-19.7522
-62.5864
1.96947
-120.288
-19.1552
-0.244969
-0.216433
6.40252
3.16376
-3.40306
209.779
-105.808
-28.2414
-0.295135
-0.00868121
-2.49841
4.75443
-0.0127302
0.482636
-69.9826
-16.5569
-25.1679
0.346043
0.014635
-97.6565
-2021.85
0.026571
-0.0375338
-2.65171
1.46964
0.223447
-3.86556
0.26952
0.484293
0.170929
-5.09926
-0.387754
-3.55053
0.291529
2.99057
0.0762738
0.127901
7.43152
1.70833
-0.718061
0.975608
-4.39526
-4.12727
-0.822998
-5.85546
-139.491
20.337
-50.8742
-0.867871
-0.100871
-2.49748
0.00748146
1.76915
0.376705
0.000515052
-1.08806
-1.15114
-0.246643
4.25678
0.0891954
-30.5681
-0.403355
10.6145
-0.132241
2.65288
0.0623947
315.653
5.24373
11.7882
0.0262932
0.045375
0.126042
7.67317
0.547074
0.174202
0.0484716
-0.037046
0.0550284
-34.7706
-63.5409
0.117948
1.35993
0.467014
6.37465
-20.2277
-1.50928
250.329
0.819957
-0.0343032
-14.6949
32.6732
-0.860685
2.16728
0.0535629
4.13134
-18.3245
0.539316
-1.0708
-14.8367
-0.33829
-19.9843
-23.799
1.4023
0.102039
-12.6396
2.34405
-16.5751
0.823278
-4.47252
-0.0265274
-0.167987
1.21451
0.459554
-0.690072
0.0405031
0.24826
46.836
2.22238
0.967773
0.430335
0.00368034
-2.71901
0.108625
7.50483
-0.0871689
0.0798192
0.40873
-0.628952
0.205237
-1.18744
0.108987
450.956
-158.237
-0.0758182
8.42391
-8.11617
58.3095
-3.65959
0.0887852
-62.2375
-8.3258
0.445298
16.914
-0.284068
0.407862
-38.0408
-0.183765
-0.0786712
0.430528
0.408075
0.358198
0.28467
1.17102
2.85031
0.841614
0.35116
52.8738
-4.87004
-542.398
0.000403756
-14.944
0.44114
-0.0262147
2.67309
-2.21613
-0.477143
0.308043
0.562891
0.232295
62.8562
3.27333
1.04061
0.251018
3.71492
0.425654
8.32232
-0.0321415
1.72494
4.23784
-0.540485
0.0102962
2.22503
-2.70348
-133.107
0.108982
-98.406
412.784
-59.2491
0.764236
-4.32159
29.7538
0.166131
-0.170976
-30.532
-36.5351
146.014
-3.11696
-0.17267
-0.365399
-0.0448914
-5.71704
-16.3307
-21.9362
-1.46339
9.05207
-4.75747
-0.0263985
5.06782
-2.12185
24.6437
-3.4763
1.74516
0.832152
0.720176
24.0308
-1.37282
8.67968
-4.35342
-3.22864
-49.0204
-1.30877
0.551276
-2.44166
-71.6447
-1.20269
1.85208
-13.3268
0.294372
-59.1035
0.0116099
0.0125909
-47.767
4.72992
-2.21873
2.48584
0.921927
0.376615
0.891341
-3.40037
-87.4153
2.95997
0.407751
-203.527
3.04911
16.5007
0.855402
75.4647
171.809
36.531
-48.8295
53.9489
-0.0788201
1.31731
-1.06844
-5.44509
3.61358
0.212215
2.67274
-0.00275691
-0.13669
-3.49701
-0.843626
0.490258
0.691379
-0.426359
4.04151
1.01886
-9.82991
-2.63091
0.0167177
0.0585507
-27.7574
34.3116
-103.195
0.0849959
0.781689
4.64041
-10.4352
0.560735
0.0675576
-3.584
3.28926
0.435895
0.972772
-0.259889
-0.128704
-38.8736
-0.151433
-0.183046
-24.6398
-20.1337
-1.18297
-4.53855
77.452
11.1286
0.887018
-36.221
1.24363
0.387122
-32.465
-198.697
0.00426319
1950.53
111.217
-3.77593
-0.0468186
0.344477
-2.78904
10.6616
-0.935163
-29.3213
-19.8955
-1.89263
-2.78507
0.704118
3.72461
-1.78237
0.0452538
-0.213565
43.9373
-1.85031
-0.123546
-4.53752
1.52132
-2.89652
-0.273257
-0.0882509
0.0908761
2.38513
0.431753
-26.4471
-0.937617
-0.220454
-0.254444
0.597268
5.58791
1.83694
-149.04
0.146706
-26.6433
7.65156
5.47452
0.607136
-24.0294
3.92026
-48.21
0.0582067
-0.214701
-2.65387
-0.0209122
-1.34097
12.6461
19.861
0.120886
25.7823
0.880162
-6.60456
1.99944
-310.352
3.27103
0.0177654
-2.5783
-0.0648331
1.52573
0.908776
0.784648
0.500598
-109.972
-3.8044
26.8824
-0.333807
-1.7938
0.00999472
-0.219345
1.77346
0.937713
1.01049
-5.98348
0.785638
15.9823
-0.155169
-0.0299114
-5.49739
-11.8054
-16.2791
-0.0411253
-16.4893
-18.2235
-0.189535
1.68408
29.9884
-6.05232
-0.0756475
10.7651
-1.57262
-2.81805
1.36376
-0.814974
0.170421
-0.0337803
-3.37484
-3.13303
0.812186
-0.76626
2082.01
-1.01939
-100.837
0.419559
0.266154
-0.0026641
-58.6869
-0.260583
0.13067
-59.407
1.2731
-0.0551915
0.305941
0.272915
-0.173466
-8.50776
0.371292
-0.558442
-0.125188
0.220401
0.0387284
0.417064
-0.0706136
0.27731
30.5298
-0.162127
0.949756
0.0770882
34.7223
-16.2913
40.7068
-4.70823
-1.29223
0.0866636
-1.12908
1.36745
4.133
8.85917
-0.719215
-0.102059
1.09449
1.53013
-0.0481836
-5.09148
0.346212
0.358289
-1.23857
0.251456
15.261
2.8963
37.0238
-0.0110252
29.358
-0.45085
6.71303
3.06338
-0.298837
-44.1468
1962.22
-115.61
0.00660773
2.20873
0.249934
-0.206575
-23.4586
4.25086
0.0487526
-0.678305
151.78
0.0611831
2.18952
0.128813
0.0395392
95.9828
4.07884
0.6649
-93.6204
-0.121973
473.438
19.2045
-0.108415
-1.9976
-0.156557
15.7658
0.0191862
5.16176
127.07
-0.112519
-0.261891
0.31103
-0.276763
8.92158
-53.9441
-0.573541
-73.6264
4.40893
0.0931068
-3.33201
-0.33255
0.681003
-0.0181286
-0.00523876
23.5899
-0.0548998
0.329864
0.000529316
-0.314996
-0.392517
-0.369348
0.0962099
-3.52294
0.354935
-0.081527
0.785241
0.0202416
-0.258141
-7.50531
-0.114942
2.47939
-0.172828
-0.678038
16.2161
2.0212
-0.282302
0.344436
-11.2855
30.7044
-5.74873
0.608255
0.143264
-1.21478
0.863312
-0.443773
-0.673183
-0.386834
0.0240034
-0.203074
8.57305
0.113674
13.8172
0.299776
14.4931
4.88113
-0.0395717
-0.091763
11.5435
0.640906
0.109596
-42.2679
0.937112
-0.918632
-0.325112
-106.563
1.43497
-14.3343
-0.199704
-1.38111
0.113408
-5.36033
0.448251
-16.5265
-13.6577
0.0758381
2.95936
-0.195083
-0.151304
-0.0956085
111.849
6.32018
-0.469348
-0.00154297
-0.0152098
-4.75011
-2.05163
0.632868
-2.214
44.4811
0.133914
-0.363489
0.133376
-736.762
0.170326
0.247324
0.302052
-2.78327
1.53245
0.13743
-0.402625
134.208
1.18522
2.28059
5.65444
-0.140274
2.55921
0.0908188
2112.89
-0.246514
-3.82269
-1.6585
1.28606
3.22104
0.811797
5.58829
-128.021
-0.523854
0.547331
0.683182
5.23584
-0.061421
0.280063
0.25994
2.02218
124.141
0.983566
-2.46789
22.2253
-0.934234
-0.194638
0.0166698
0.0615434
-1.26566
941.972
-0.649671
0.51564
150.244
-0.261649
7.63195
0.828813
-41.5469
-16.5772
-3.58426
-2.73563
0.136
4.03533
0.198234
-56.0151
-15.7745
51.6379
0.247871
-1.08304
-367.757
-9.71303
2.35815
-32.7923
27.0342
0.23589
2.15573
-11.3725
35.0681
-135.382
1.69474
-0.438111
-146.428
0.00143435
0.484412
-0.538214
-0.511106
-0.1168
-21.0546
29.5916
-1.15262
0.672118
-7.28338
0.908521
0.23659
17.3407
0.96179
-5.01041
-1.12451
0.309934
7.38368
-2.36873
-33.9075
6.80388
-5.63407
-2.60834
1.27045
-0.143806
0.149831
0.837473
-0.618583
-87.7719
0.603704
-0.145818
-0.0302485
0.760913
-0.0711528
-0.0909729
-4.96194
0.183014
-10.9477
0.04968
0.399726
-0.0887138
6.5001
22.8813
4.74658
1.07177
-0.0628367
-2.13031
1.00868
0.860051
-3.17548
-0.0297289
-0.2647
0.924252
0.357249
-12.4299
0.12477
0.0325123
0.320343
-1.30101
14.0642
-72.8334
-5.6167
-0.0747085
-55.0754
0.442534
-2.3566
-1.07182
0.119753
0.0389201
-0.143346
1.16822
-17.2693
19.9769
-10.4883
0.357558
0.053572
1.88525
-6.26765
-0.0259224
27.4687
0.210176
-705.915
124.639
-22.8409
0.0171364
0.0518299
16.0762
-0.0150498
0.0977676
0.50706
0.453032
2.07644
5.48358
0.704873
-34.9299
-1.24723
-38.0265
-0.270241
-0.1723
81.9758
42.5891
-0.068032
-15.5301
-37.8671
-1.02422
0.863913
-0.627267
6.90632
-50.1654
-0.0859659
16.6401
98.5707
-0.347402
-3.87245
-0.12025
1.74963
62.2149
-6.15468
-19.1742
-120.924
-1.17884
3.59148
0.28253
0.42074
0.00167
6.54101
9.25591
-18.5443
-2.41922
0.0638298
3.94592
-0.0299217
-2.84365
-54.6246
-0.451119
0.0494644
55.9909
-1.38931
0.0327566
0.114025
0.0588203
-377.778
0.959135
-1.04314
-0.092029
0.175431
11.0861
1.30497
-2.07371
-207.441
-48.9478
-0.0828878
-0.264743
-0.014466
-9.58125
-0.079094
-0.0973922
-18.5653
203.519
-0.319294
12.3581
0.161182
0.0301816
0.00634639
0.648755
-4.37499
1.68103
-1.07639
-6.33257
1.02926
1.43351
-0.0966406
3.05767
8.58621
0.277814
376.372
0.0565357
-770.568
-55.8504
44.297
2.62291
1.60695
0.0677122
0.103127
-0.384349
0.0889846
-4.75241
2.86186
0.0948413
0.117883
3.47569
-0.132743
85.5348
-5.73583
-4.00323
-0.274846
0.564173
793.134
2.73299
-3.25909
-1442.19
189.393
0.20618
2.31806
-0.160165
0.0558161
-1.05717
-6.67715
-0.0502144
-0.198767
0.977837
-2.43325
2.14117
-0.631456
0.0542137
-2.51265
-20.3548
-9.31978
-0.0949441
0.0823164
12.2426
5.25991
-42.6848
-13.4906
3.04227
132.779
-0.198181
0.425256
1.34981
-0.517888
-7.53498
1.54352
-0.509588
8.29553
44.691
0.0865072
-0.0677483
-0.513192
160.314
3.91227
-0.0639034
-0.221457
-0.0490704
-0.0185303
-0.0805297
0.00630713
-12.1616
1.5482
-37.6549
-5.4562
-2.79333
10.8739
0.171934
0.169192
-11.0968
0.0427302
0.921734
1.26719
-2.80211
14.3835
0.376658
0.850168
-1.27147
-3.09849
-5.3023
18.3658
-0.0274145
-48.2477
0.078912
0.643051
0.18863
5.45434
-0.340954
-0.0288337
-4.73748
121.415
41.7784
-2.83045
0.861048
1.49628
2.45362
-0.651959
-0.00520237
0.510502
11.3248
-0.344577
-0.0481833
-0.363982
7.56673
-0.814521
-4.46634
1.20092
-6.70044
0.699995
0.347415
-0.207312
1.36369
-61.2195
-0.0237297
-0.152856
-30.0825
26.0168
-0.774836
183.417
1458.69
-46.4059
-12.1542
1.72521
-1.99617
0.24825
-0.328078
-5.76805
-4.3396
-0.0180878
0.0779087
-1.05244
2.57335
2.56184
0.542233
24.7605
52.2902
-0.0894402
17.0144
58.2106
-24.4242
133.823
-8.36076
-22.6754
-0.107797
-56.1789
-1.70842
-0.359091
1.12505
-0.0249964
-118.922
0.546518
63.8324
9.73067
-0.174271
-14.1553
4.04392
-24.1766
-1.72242
-20.9515
39.6788
0.483247
124.264
-0.185375
2.78149
-16.0829
0.0859713
-3.64895
-0.0892836
2.33054
0.351991
-3.68667
-0.0857911
0.417455
1.41885
0.0257248
1.69321
292.933
-0.554148
0.0833177
0.0854673
-0.0110889
-1.22482
1.17042
-0.309845
-22.2349
1.97981
-0.209421
-0.0237493
0.09359
0.0125361
1.54575
2.0897
-43.8727
-4.28613
2.05859
-0.0280889
-0.005592
198.485
10.0381
-0.048085
28.2724
0.860475
-0.326131
-40.4988
3.0447
-6.96768
2.00748
0.100417
0.396029
-204.313
-0.0709243
2.52404
0.728664
482.33
-23.9214
27.7994
143.977
0.108689
-0.445812
-15.6924
1.06939
-0.128505
6.92764
-0.00388979
0.0930061
22.19
-26.8683
11.056
0.220424
1.98001
-4.78183
1.41803
-37.5567
-1.44341
16.8358
-1.16488
2.10423
0.00954412
0.176311
265.173
25.6332
341.378
-0.0520054
-31.7499
-3.60019
0.0420083
1.42997
129.33
-6.05993
0.657711
-0.0680731
1259.13
0.0596053
-6.55467
0.0647897
-0.124363
-0.0169043
-66.1213
-0.0240082
-12.9685
1.21781
-29.3622
33.8395
-0.317542
-80.629
-29.6241
-8.78258
0.124078
-1.1828
1.41141
5.32185
22.7082
0.00490481
-5.34887
1.90844
62.665
5.33277
-38.5791
-0.000101974
1.16039
7.9128
-1.16685
-2.88029
-3.48042
-1.84166
-0.63995
-2.07863
142.917
7.09918
0.89588
-0.0780034
0.675896
-0.0535836
-994.751
-148.126
0.861728
-19.2269
-237.78
-0.747393
-1.96133
11.0725
2.1179
-0.0732042
-0.212352
-165.122
-2.73727
-54.0824
0.0509844
-0.064665
-0.0623747
16.9366
-4.85913
8.12255
1.80244
-6.76537
-0.364287
-0.574158
4.63409
2158.73
-39.4515
-1.83661
-0.425508
-5.08786
-0.177588
0.381426
0.691012
96.1672
-0.600424
-1.85874
0.0358119
3.42386
-24.7069
0.234397
-66.241
61.3575
-0.443216
-0.777745
-1.12802
-17.3895
-0.04114
8.91561
2.42997
-0.726919
-0.0188029
4.90883
-0.112567
-3.56496
-10.3666
-1692.45
3.50669
-15.127
-0.0404834
-4.0046
-7.67373
0.625976
-1.78339
-3.21443
8.78298
-0.104118
-34.7494
5.93337
-0.361855
6.16244
-0.0190954
-0.482152
-2.9651
-1.41933
0.556127
0.192457
-3.32986
0.0546806
-348.412
-1.6501
-63.2408
235.347
-0.110199
0.160738
-0.0331552
-19.9022
-0.859359
-1.68109
0.0283294
-1.76468
-52.3207
0.0130148
-2.46404
-0.067863
0.346414
-10.2784
10.6085
-13.8631
-23.7537
-0.0450206
-0.00873799
-0.0683132
-3.20178
9.39155
-2.29303
257.846
-42.2284
-6.11128
1.63288
0.397796
3.48319
0.216347
-4.32861
-0.041277
-73.9064
3.92527
0.792215
-2.59375
-62.3242
0.652676
-21.134
32.1979
6.05996
-0.0506098
-28.2638
-0.0230705
-57.6671
-19.5743
-32.3246
0.0135844
0.185916
-30.7215
-0.0814202
0.495082
11.0512
-0.248137
-0.125673
21.3899
0.788004
-307.122
45.0946
-0.160961
2.5577
-59.3344
-45.2327
-1.30329
0.00740524
0.753229
2.49585
131.666
-0.171538
-0.905675
1.29993
5.93435
1.51316
84.6779
0.383733
-0.590786
2.66747
0.218145
0.558901
-0.0585608
16.8824
-57.4506
-3.80146
-13.8346
-30.7329
-0.0168566
-2.00047
-23.952
5.20041
-0.750809
3.81993
1.4044
0.27709
1.61482
-0.239955
-0.636279
-0.183158
-48.0471
0.0562772
8.10974
3.24073
1.20826
2.61523
-15.2844
-79.6616
-0.0142947
0.157936
96.4655
-0.307004
-0.313567
0.331617
-0.277868
6.19949
1.32004
1.85387
-1.68823
-70.3379
-58.9763
-26.4083
0.0745159
-0.400131
1.12138
3.4893
14.0054
0.119038
93.4835
-40.867
-0.613676
1.28366
-1.33519
-11.528
1131.28
-35.8802
5.89295
-3.40374
-1.31339
-29.9874
-1.76226
-0.0355078
-22.548
-44.4861
-0.376858
0.267124
0.47335
1.16017
-4.70064
45.8038
378.399
0.0228464
11.7783
2.60954
-12.3313
0.0251069
-0.0841684
56.1081
-9.02143
-0.910135
-10.6092
0.198496
-0.0435544
-2.97032
-2.07372
1.54823
-0.0038884
-1.91171
-58.654
-5.48911
0.175639
0.121534
3.19881
1.25811
0.0640469
-0.207974
-195.068
-0.511918
-1.12092
-0.137293
-28.8927
2.33916
-28.875
0.314072
0.262321
-0.00716456
2.19766
-21.1993
-0.439014
0.126886
-12.1673
3.09894
0.0780854
0.295614
-23.0489
-3.78838
-4.1646
3.37118
-0.0547361
0.807053
0.694397
0.579641
0.321769
11.1411
1.83713
0.7796
-4.59804
1.08882
-1.34219
0.526036
2.93782
1.51351
-0.139757
-3.71749
-5.4026
-55.2861
-0.467788
-0.142177
-5.54017
0.980652
0.0578135
-1.79013
-0.618995
0.801419
-0.0317517
-60.618
6.33785
-2.22859
-42.8756
1.87951
0.77772
-0.0820089
-0.031468
-0.0414665
-0.660098
0.998515
-0.34397
-4.50167
-3.67657
-4.42041
-0.0279716
0.0593277
-11.7903
2.9
0.198106
-0.0803442
-4.85546
0.578461
-90.7928
0.322947
6.96706
0.099004
-14.2043
-51.3308
0.479552
-1.61532
-0.0939855
-1.40421
-317.507
12.0759
483.952
0.180155
-1.03994
0.344274
-38.4927
-0.0968618
-57.0375
-0.112692
-0.130186
-0.192534
0.279478
0.170881
0.398133
0.925356
4.34417
0.442221
0.667029
2.42452
-37.2897
-30.9074
-0.0449622
-0.311065
-0.352274
0.0470489
-67.2985
1.19454
-0.000584783
-0.0727314
-33.9152
-3.81071
-4.56757
-0.397921
-2.01374
-0.561626
-0.582601
-0.189029
3.52555
0.178963
0.693296
-1.85917
1.05283
2.57838
-0.192376
0.511655
-585.042
-15.8839
2.85627
24.2165
8.10444
0.166101
-1.88836
0.574411
-1.5669
-0.102644
0.137349
6.47084
-33.0303
0.0466245
-22.0063
-45.7789
-0.0731571
-0.0408531
4.00888
-43.0286
-0.228236
-0.405947
0.430644
-0.308413
0.2077
1.86073
0.109901
23.6323
0.420551
0.0821632
-0.252714
-9.82475
-0.145642
-0.0359024
-40.9257
0.480382
-0.144722
0.161578
10.2721
-1194.39
-24.111
-0.317211
-1.75638
6.73256
-9.35977
-5.86074
0.686029
-294.649
-1.10345
-0.264441
0.488133
1.87357
0.0414142
-0.0606314
-0.0942241
1.97209
-2.64805
9.49771
7.67904
1.28424
-241.655
0.246203
13.5699
0.797411
-0.149172
-0.123222
-2.9584
-36.2757
-9.72231
28.929
-0.0914548
-1.75303
-7.49916
30.2074
-0.0746293
-0.0267532
-9.62338
-0.0322545
19.733
10.2783
-59.8377
1.57956
0.0667233
0.723369
-0.0422965
3.04619
0.269104
-0.349339
-0.142708
0.666588
0.895753
1.46865
-901.15
0.0181073
0.0820084
-14.983
0.419201
-2.96489
13.4085
0.887536
-1.83009
0.405062
0.283915
-71.8404
-0.023563
-1.85036
-1.75087
0.363531
-0.523478
1.65098
-1.51097
16.0163
-2.77142
-0.324917
2.3792
3.18104
-41.6246
2.19738
-1.53147
0.836603
-0.240563
0.026615
0.905708
0.0438684
37.7519
10.7527
-0.0959406
-1.00656
-968.519
-3.3118
-1.75266
-112.708
0.0460842
0.504301
-2.28955
3.86297
-0.608092
0.0574118
-56.7721
-0.05226
-50.7892
0.556791
-17.9623
100.597
-0.22245
-0.25872
-0.639919
-0.358321
-0.271491
-0.0613089
-1.58165
29.3973
-0.273699
0.2549
-0.0550036
-0.282129
385.744
0.176701
42.9161
-23.3016
-0.0197947
0.137865
-0.799603
-0.232637
-2.13042
0.0282519
0.217213
-0.107479
-2.63498
-6.18147
-132.909
-3.82669
-164.37
-818.455
-21.1536
-243.181
0.0549774
-12.0963
1.08752
25.402
-2.0976
0.0328141
1.52883
0.843611
0.638824
-0.176651
-0.86965
-247.75
0.0390155
8.17554
0.024806
-0.0431035
-0.294129
0.0697363
-0.981609
-0.139494
0.00601366
-0.292102
-0.0105217
10.3818
-0.00761822
51.8939
-0.089182
-0.367499
5.24298
1.48907
-6.02086
11.7911
-0.1624
-13.2093
0.0613674
-11.4893
11.4213
-1.52232
-0.125645
0.53028
-2.85588
-0.072512
-8.39981
0.0941741
0.423424
-0.105815
10.5461
0.121703
1.7653
-0.0981754
0.195971
-0.15696
0.0254792
10.9943
2.93306
1.179
21.4026
-6.22046
-0.188074
-0.291716
-18.0612
-3.39397
-0.0977854
-0.114417
0.036687
-40.2324
0.573214
-1.19249
-0.0851151
-0.169854
-2.73126
34.3195
-4.37922
-0.95139
0.376336
-0.042454
0.265107
-0.146202
-13.6246
1.30723
-2.26351
-291.499
136.103
11.2953
3.6414
0.109482
0.507359
73.2188
0.324753
3.68156
-8.51707
-94.2093
813.685
443.985
-4.66572
-0.175902
-0.903126
1.236
-0.0614595
-132.115
369.328
-7.93348
-0.0961616
3.81032
0.0210528
1.24556
0.899289
60.7478
25.5253
-25.4695
26.7125
-514.811
0.22583
-0.0583394
-2.05121
-0.534415
0.0182125
-38.859
3.1937
-29.3727
-3.91538
0.0458662
535.919
0.250241
-3.9432
-3.72572
0.0735711
-155.816
-2.64404
-2.73065
10.5795
-0.246159
-8.07949
-45.9853
59.4458
-0.513814
-0.560054
0.423704
-0.0723338
-303.165
-3.93231
0.00728128
-13.7231
-0.371929
-28.3516
0.101387
-45.655
0.0195413
-0.247197
-0.262823
45.023
0.0436033
4.67622
11.2013
-0.000596754
-35.4669
-2.89277
-2.59454
-15.4369
-2.66122
0.637355
-0.223379
307.089
1.07957
-0.0812578
1.72728
0.00900596
-19.1083
-10.5483
-3.99636
-0.0329856
-0.0308333
4.55426
-0.180211
-0.00251344
0.508351
0.638392
6.88336
-0.35621
0.949918
103.734
-0.00604458
22.5946
-0.0523538
1.61012
0.3451
-11.0254
-3.75229
2.39442
-0.00763302
-11.0749
0.257865
-0.296039
2.54605
0.0548287
-0.697156
0.515174
0.163573
0.0307217
0.834779
-0.0988724
-72.5909
0.861215
2.49793
142.924
0.0699267
7.07109
-1.08119
-0.565569
0.0209651
5.50302
94.6461
-0.410255
-12.1017
-0.563314
3.09561
-19.5321
441.013
-94.7839
0.517327
-31.7521
1.99781
-11.632
0.772247
0.464075
-9.87362
0.924397
0.0455011
0.480561
-51.9755
-0.655862
-0.0634291
0.0833727
-0.28927
-0.343045
12.5324
0.374013
-0.294268
-105.746
-28.1184
10.5451
3.70521
-1.61985
147.482
5.64561
0.650195
-3.6175
2.72338
-163.666
-16.0265
0.0704205
0.0471524
35.1648
-1.26292
-0.178442
-0.849803
0.747743
-320.072
-21.4986
-727.838
12.0911
0.116362
5.08122
0.271273
-0.11026
-12.9296
-3.86427
704.009
-183.794
-232.502
43.2364
-0.138714
365.525
2.63067
-0.131287
-51.1542
-0.129091
-0.155515
0.048373
10.0386
-2.6347
0.769961
-0.468297
11.0426
0.957827
2.77742
-2.1351
7.82727
-5.43598
-0.0632572
-0.0114136
56.6282
0.617534
4.39495
0.163189
0.529833
1.06716
1.41165
0.605906
-66.8809
-0.572386
8.38767
-2.47186
-4.85757
0.706568
-11.697
0.0215879
8.75832
-0.175072
-0.311965
0.00659865
-0.00378717
3.10194
-5.68601
-0.505482
0.0556581
-0.141888
-0.133238
0.71129
2.25723
0.381411
-0.0592917
-0.0819782
12.3902
77.6437
-0.628899
-1.14491
70.6925
-23.0636
5.05532
-0.0106898
61.0374
34.8501
-25.9481
-0.220936
1.30626
5.18984
0.346399
-0.140366
25.199
434.542
-40.6265
-0.588474
-4.0176
-2.32484
-2828.18
2.54493
0.0217889
-4.33205
-0.611297
1.08774
-0.822981
0.365658
0.176933
-183.419
-0.647635
-0.272908
0.311181
-0.113969
1.28579
6.74613
0.00839138
0.832154
0.841673
67.9557
-0.251666
1.47059
0.132045
0.0795693
-0.0970686
1.29579
-9.27972
-113.367
-1.03045
4.25026
1.1705
-0.00838256
-0.0386374
-37.3644
12.3021
-88.9417
-44.0072
0.299328
34.0478
0.953546
-9.10198
-10.7678
4.26132
0.135116
-35.8484
-167.898
-0.798436
1.32394
5.21075
-0.608159
-1.47707
12.2353
1.31438
63.2933
-0.784162
-2.71228
0.909465
-5.38197
0.0780955
-0.0333968
16.1828
-232.98
-18.3094
-16.265
0.222575
22.8232
-30.1115
0.0771404
-9.41979
0.181772
-93.8567
0.381814
0.119191
-0.103845
-0.758341
0.216872
0.0779118
-0.0189277
1.64817
-9.3759
-57.036
16.8916
0.0997138
-0.400535
-0.114725
17.0108
384.905
7.10959
0.0519992
12.3146
31.1943
0.628644
4.47758
72.7058
-0.0322386
24.503
113.664
70.4178
0.777563
0.0447132
1.29205
-5.27224
-3.12721
1.31863
-3.65343
19.2038
-876.598
0.073236
0.0498659
0.248062
17.9411
-0.187373
257.2
-0.190296
-0.179596
-0.127585
-0.126748
-2.74321
0.047879
-0.0790793
51.565
19.6712
-32.2435
-585.751
-0.288667
1.09595
0.272855
-0.0565281
144.381
0.129028
-0.415458
339.564
-0.681717
1.31331
-0.0467996
2.5905
-3.82106
-6.56788
-29.6113
0.203485
-1.0147
0.0838036
0.812458
-0.113133
-0.0851189
-1.26748
5.53105
0.418998
0.0653089
-0.282986
0.0313691
-37.52
1.31966
-35.5538
0.73753
16.2256
-3.71144
-41.8529
-0.00888942
1.92442
6.45889
4.67862
-20.1774
0.0348166
-10.924
0.0998642
15.8903
0.0815184
148.579
-0.09007
0.0624903
20.6533
-4.42345
0.409633
0.607516
0.0483605
-0.00100013
1.16312
-0.0668381
-7.34651
-41.0886
-2.00083
0.418428
-0.17974
122.982
-10.0444
11.5286
-40.6735
0.118136
381.693
80.8485
-3.02059
-60.4906
0.623864
3.23209
1.29402
23.5253
-0.183174
0.86265
-6.61272
-0.00448184
-0.120137
-0.883066
8.48395
0.141515
0.0501388
-1.95331
26.371
-0.714902
-5.20088
-0.388444
-26.0823
1.47129
-1.62995
-359.245
-30.858
0.0567936
18.8028
-0.0584056
22.1753
64.982
-1.17523
-0.912394
0.00978342
-25.8639
2.15691
3.81434
1.0313
0.0551648
-54.4899
0.104545
46.3995
-34.2316
4.15218
-4.34505
0.0219279
-0.329309
-30.2451
14.72
-3.78205
-0.233886
124.812
-569.09
249.175
-0.904841
-32.3504
-0.0328494
0.00149331
0.0144589
-65.6986
0.0504042
-30.7832
-1.42793
5.33546
-0.0485731
-0.0565623
9.39303
0.801817
-8.82619
-115.35
-60.9431
0.448654
-0.879485
0.110582
-0.14652
1.87203
-20.5337
0.0800163
15.1645
-52.7249
-0.757576
8.18154
-0.810417
0.741181
0.00719956
0.00819679
5.62126
0.0888501
215.828
27.7212
-0.220724
0.0908356
0.00284931
2.61813
-6.81623
-6.16633
0.061714
-66.4498
11.004
28.2554
-3.50427
-22.4601
-37.7553
-32.7029
-0.832633
0.841494
-250.715
0.481716
0.059719
3.2523
285.273
767.857
-0.385728
492.158
-0.0698596
-1.99717
6.87689
-26.4325
4.9869
-1.13864
-13.9503
-19.6379
-25.2195
41.537
-3.40483
11.9964
0.602368
-0.320465
-0.296372
-0.153464
-0.016395
0.590609
5.08654
5.13728
-175.945
20.9589
-9.93933
-56.3431
0.5749
-0.302579
0.926111
-0.0627891
2.40432
-0.0108912
1.83974
-0.465434
-10.0908
-0.0672982
-115.924
-16.0437
18.5797
-0.401921
58.8314
4.13931
1.06109
0.893125
-1.71849
0.0875441
13.9743
-0.123638
-2592.53
0.0904819
-0.428614
-0.205855
0.531809
2.1502
52.6269
-0.116068
43.8665
-0.691383
0.000182006
7.70948
0.333296
2.02973
3.67172
-2.81393
0.000423231
-0.0798921
-0.0036306
0.751903
0.251102
-0.0554078
2.67577
-0.227755
9.96353
-0.0380595
-0.0255245
-579.96
0.0431877
-5.89839
4.63097
-0.360831
0.0415152
-0.120805
-2.36901
-16.1227
-4.56845
2.61776
-0.0279407
-0.0570203
-0.242949
0.264704
1.71257
-48.899
-3.20945
-18.5061
-258.875
1.1119
-1.55532
133.537
26.6147
-6.49218
-0.293349
-11.4746
-46.7952
47.3379
41.665
3.57681
1.72317
-0.00398248
0.0821958
1.45104
0.320263
32.8101
-0.0137152
-0.199801
-0.207928
-32.2715
0.426189
8.5989
-5.43893
0.131306
55.6225
-0.0408931
4.18109
0.168887
-14.8363
4.4979
6.4641
41.5361
1.31226
0.0450246
4.55105
-3.77817
30.0892
-0.361769
-4.13923
1.11247
-0.109466
-0.213733
0.469353
-43.6722
-344.942
10.8091
0.727037
-2.86576
1.34217
2.9059
-0.243667
-0.615084
-0.120893
-15.5641
15.0158
0.112627
-32.3221
0.439032
2.72333
0.18059
2.83438
0.0436921
-27.1467
0.676647
1.24012
0.0515127
-0.0221415
-6.25735
-16.5804
30.7402
36.0961
-2.67751
5.99177
0.358877
-15.2309
57.9065
-0.529148
-0.164469
3.42753
-0.00168509
21.648
-64.419
0.0496787
26.2249
-0.277823
191.92
-0.271435
26.1373
-0.189827
-12.434
-12.9436
-0.290707
-73.8061
0.0342056
-5.54744
-0.00844518
156.19
-0.0415446
-4.82465
0.0531116
0.613737
-298.673
-27.6785
1.13283
1.14846
-121.364
-0.761726
1.84772
8.05044
-1097.64
2.90765
-0.74878
-119.564
-0.360965
1041.25
-74.9419
-6.31933
220.215
141.595
4.51819
0.698023
-0.428959
-26.4233
16.7136
-10.6313
7.62481
-0.137494
1.54253
-1.43656
-0.0278836
-0.00514564
0.156956
-48.1093
-0.755122
-4.70193
-0.333623
0.348227
-20.1483
1.36637
-3.81671
9.19563
-213.787
5.68311
0.163975
-4.16865
0.0163673
-4.46691
0.0436206
-38.2496
6.74638
4.80663
1.48094
23.4818
-72.8723
5.52844
0.230329
2.7397
0.986167
-12.2081
0.0208146
25.6999
0.211956
-129.182
0.849954
1.94583
-50.3378
0.124754
-44.5808
32.7386
-134.241
-3.63971
-511.092
1.41248
20.8673
-4.32402
4.69745
-5.48345
-92.3242
0.902027
0.162924
-0.112489
2.08694
-7.66008
-0.051307
0.0209948
-1.65107
-0.181988
1.00872
2.70558
78.661
-429.302
1.15692
0.996495
6.68879
1.97499
186.621
7.87949
1574.51
430.722
-0.14829
0.109411
-0.0589009
-0.037991
162.399
124.331
-153.261
56.6459
-0.538997
-4.14795
0.199876
12.9317
0.151448
0.109007
1.3802
2.32616
-3.3329
1.12621
1.13944
13.8268
-10.178
0.142692
15.412
-3.65812
0.817387
-0.103235
8.04486
-0.500768
-0.609461
-0.0157418
-0.274841
-0.0872405
-4.75932
-0.201677
128.681
-59.5249
-1.87665
5.7488
0.031795
8.33681
1.7415
-0.00718952
-33.0659
1.61068
4.00069
11.7882
-0.0940051
25.6564
-479.266
0.408222
1.8895
-0.617173
1.61412
-4.23305
-2.06033
-36.2809
-8.64094
-5.08113
3.39249
-0.0038185
-0.0841108
40.9777
16.079
0.195893
0.60372
-18.1906
-382.594
1.35089
0.925763
20.9865
2.35437
66.8261
-0.30311
0.300796
11.2831
-18.7183
66.0254
-0.881581
-2.86341
-1.35164
-3.99401
22.3861
-25.0797
-0.111188
0.608591
0.80098
-0.513491
0.0533802
0.237444
0.352571
-2.78415
16.0665
-0.28327
-0.267893
9.90608
2.6557
-0.0314037
1.57063
-0.0565987
0.384018
-0.0601058
23.7046
0.154451
0.547699
2.31961
-0.0963665
1.37011
1.37454
2.59617
-196.387
-0.493303
0.755604
0.625158
-0.0137142
-71.2984
0.0322407
-0.297826
-13.9623
-0.117205
3.55302
2.37299
59.8681
1.31821
0.140341
0.805972
-239.858
-2.44998
1.4446
14.0778
-29.6517
41.2553
-1.14092
528.525
16.2071
0.172482
-216.105
-0.627451
-0.0230482
14.539
56.9651
0.0690265
0.649429
-0.0147021
-12.6691
3.76652
-2.63481
-0.420945
1.18597
1.59523
-175.401
3.13951
-1.04486
-19.1771
-35.9729
-12.1372
-3.10263
1.72811
1.16604
1.03775
2.16721
-13.8021
-58.1872
2.42098
-8.94013
-0.0964376
-1.03277
1.83278
-5.88062
-2.7986
0.807053
-0.0976825
-1.72594
-72.9632
-24.3881
3.49669
-0.201546
-9.62756
2.23413
-0.0295694
-0.13782
2.11743
4.42479
0.0664696
85.2391
-170.629
-0.308171
-0.413312
-9.2783
-101.72
0.05252
-8.22043
5.10446
7.56574
-3.00077
-0.069023
19.0848
187.224
0.0829886
-1.57378
-0.42497
1.16787
-0.0130334
-6.63892
-309.271
78.0064
-0.0258172
37.6198
19.3068
17.8618
3.81329
4.96766
-0.0495589
-7.65454
2.7511
188.072
1.55404
-49.7709
-101.498
16.2596
-0.0749023
0.0479172
-23.6584
-0.0303013
2.12249
71.0625
2.5683
42.981
23.6393
-0.999603
0.761865
-0.0474186
-10.0752
-6.62219
0.0348314
0.10531
1.07004
-114.982
-5.23913
-2.91091
39.0554
1.1369
-9.04976
-1.15093
1.81745
-30.2556
1.53222
51.6882
-0.636162
-1.88755
-0.10562
-36.6668
-0.758196
-0.0890826
-6.66971