/*--------------------------------*- C++ -*----------------------------------*\
| =========                 |                                                 |
| \\      /  F ield         | OpenFOAM: The Open Source CFD Toolbox           |
|  \\    /   O peration     | Version:  v2012                                 |
|   \\  /    A nd           | Website:  www.openfoam.com                      |
|    \\/     M anipulation  |                                                 |
\*---------------------------------------------------------------------------*/
FoamFile
{
    version     2.0;
    format      ascii;
    class       surfaceScalarField;
    location    "150";
    object      ddtCorrDdt0(phi);
}
// * * * * * * * * * * * * * * * * * * * * * * * * * * * * * * * * * * * * * //

dimensions      [0 3 -2 0 0 0 0];
oriented        oriented;


internalField   nonuniform List<scalar> 
27274
(
0.000366625
-0.00141075
0.00104413
0.000765839
-0.000733556
-3.22571e-05
9.03615e-05
-8.06463e-06
-8.22987e-05
6.04001e-05
-5.93589e-05
-1.05876e-06
3.04823e-05
0.000143039
-0.000173541
-0.00117228
-9.12487e-06
0.00118141
-4.56226e-05
3.73424e-05
8.27437e-06
-9.02534e-05
0.000225651
-0.000135392
-4.37737e-05
-8.22206e-05
0.000815885
0.000339147
-0.00115504
1.79369e-05
-2.15334e-05
3.58743e-06
0.00131226
-0.00148043
0.000168165
0.000296191
-0.000235829
-6.03611e-05
-3.83946e-05
2.21789e-05
1.62293e-05
0.000359572
-0.000382152
2.25601e-05
8.63996e-05
-0.000200047
0.000113626
0.000197131
0.000138594
-0.00033574
-5.92057e-05
-1.75082e-05
7.67163e-05
0.000312277
8.6518e-05
-0.000398798
0.00631631
-0.00592418
-0.000392111
0.000162544
0.000177569
-0.000340115
-0.000204245
0.000213669
-9.42448e-06
0.000589176
0.00120321
-0.00179239
-7.97963e-05
0.000110288
0.000376807
-0.000353633
9.0718e-05
-0.000110671
1.99548e-05
3.1145e-05
-0.000174593
-6.53704e-05
5.60018e-05
9.3644e-06
0.00108294
0.000316325
-0.0013993
-4.80141e-05
0.000104884
-5.6876e-05
8.26393e-06
3.40675e-05
-4.23578e-05
0.000103264
9.48e-05
-0.000198021
1.12049e-05
-7.04257e-05
-1.22122e-05
3.08449e-05
-1.86048e-05
-0.00335231
0.00265209
0.000700238
0.000338363
2.82712e-05
-5.11565e-05
-7.61224e-05
-0.00488043
-0.00276161
0.00764201
4.00595e-05
-0.000105447
2.50833e-05
1.62903e-05
-4.13756e-05
-3.86977e-05
2.96763e-07
0.00117546
0.000371546
-0.00154705
-0.000129926
0.000220286
0.00186717
-0.000689499
-0.00117769
-1.85505e-05
1.26369e-05
5.94461e-06
-0.00372727
-0.00115316
0.000744531
0.000827186
-0.00157172
0.000118929
2.16318e-05
-0.000140567
0.00111201
-1.99703e-05
-0.00109205
7.68545e-05
1.188e-06
-7.80431e-05
-2.53989e-05
4.93225e-05
-2.39019e-05
-0.000207251
8.93267e-05
0.000117913
7.06629e-05
-7.50987e-05
4.42403e-06
0.00138141
-0.000837998
-0.000543411
0.000173004
-0.000100257
-7.27464e-05
1.24194e-05
-8.98238e-06
-3.44333e-06
-0.00369865
0.00398363
-0.000284972
0.000226802
0.000132768
0.000253925
0.00699181
-0.00724575
0.00745835
-0.00370064
-0.00375771
-5.3612e-06
8.22306e-05
0.000469587
0.00017425
-0.000643855
-1.09925e-05
5.51245e-05
-4.41537e-05
-0.00760533
0.000990769
0.00661458
-2.32132e-06
0.00131459
-0.000726762
-0.00068401
-0.00570758
0.00389824
0.00180936
-0.00174744
0.000325481
0.00142202
-0.000179365
-0.000172454
-3.18065e-05
0.00284313
-0.000895705
-0.00194742
1.15145e-05
-1.32344e-05
1.71672e-06
0.00594321
0.00151516
-6.58759e-05
4.19588e-06
6.16956e-05
-0.00114414
0.00105388
-3.25751e-05
-1.30511e-05
0.00257489
-0.00337541
0.00080053
-8.07265e-06
0.000192967
-0.000184884
0.000186496
-0.000562627
0.00037618
3.01798e-05
-9.03967e-05
6.02271e-05
2.02351e-05
1.71154e-05
0.00408697
-0.000592527
-0.00349445
0.000293386
-0.000130843
-0.00273972
0.00417142
-0.00143168
0.000124645
-3.39243e-05
-0.000453114
0.000749306
0.00105142
0.00276801
-0.00381943
0.00542969
0.000886669
0.000655927
0.000427005
-0.00126831
0.000806707
0.000461603
0.00086958
0.00294136
-0.00381103
-1.46941e-05
-3.89261e-06
-3.21679e-06
0.000126894
-0.000123686
-4.78974e-06
-8.0295e-06
1.28397e-05
-0.00224437
0.00224441
0.00169498
-0.00110581
0.000101388
-4.87558e-05
-5.2627e-05
-0.000150968
0.000282772
-0.000131792
0.000597466
0.000783943
3.90252e-05
7.77357e-06
-4.67447e-05
-0.00322182
0.00336025
-0.000138418
-0.000188033
0.000248016
-5.99637e-05
0.00072387
-0.000823725
9.98511e-05
-0.00269955
0.00423814
-0.0015386
9.90313e-05
0.000198929
-0.000297951
-0.000847738
0.00118387
-0.000336076
0.00133152
-0.00137122
3.96927e-05
0.00376641
-0.00249888
-0.00126757
-0.000366571
0.000201539
0.000165065
0.00266594
-0.00290601
4.06865e-05
-5.71417e-05
1.64544e-05
0.000412465
5.80204e-05
-0.000470485
5.48149e-05
-0.000125092
7.02648e-05
0.000103157
0.000309298
-1.87154e-05
0.00148491
-0.00146621
1.91013e-05
-3.60172e-05
1.69071e-05
-0.000800891
-0.000493764
0.0012946
-0.000598902
0.00317379
0.000271744
-0.00143698
0.00116523
-0.000530631
0.00125449
-0.000521864
0.00133774
0.0011034
-0.00200122
0.000897802
-0.000162951
0.000154897
-0.00189353
0.00473666
6.51863e-05
3.62008e-05
0.00253714
0.00122925
-8.32589e-05
-0.000123987
4.53348e-05
-5.20288e-05
6.69102e-06
-0.00162483
-0.000267527
0.00189238
-6.14919e-06
1.37051e-06
2.85362e-05
-5.39461e-05
0.000748287
-0.000559161
-0.000189131
0.000431998
-0.000139553
-0.000292467
-1.27387e-05
-0.000138261
-0.00166672
-0.000344628
0.00201136
4.7135e-05
-1.80077e-06
0.000378889
-0.000409262
3.04054e-05
2.99972e-05
-1.20453e-05
6.43647e-05
-3.83161e-05
-2.60564e-05
-0.00211014
-0.00341718
0.00552732
-0.00120496
-0.00201673
-0.000403052
0.00118247
-0.000779414
-0.000555203
0.000471951
8.32462e-05
2.94714e-05
1.12128e-05
-0.000358616
-0.000504595
0.000863182
1.92914e-05
-9.12658e-05
7.19567e-05
-0.00095501
0.00124894
-0.000293957
0.0037534
-0.00110999
-0.00264342
0.000207591
-0.000123015
-8.4608e-05
0.00543952
-0.00168613
0.000125091
1.43518e-05
-0.000139463
0.000232961
-0.000587883
-0.00276442
0.00081784
-0.000563926
-0.00296265
0.00139681
0.00156586
2.97045e-05
-1.66212e-05
-1.30866e-05
0.000168526
0.000579777
0.00188257
-0.00161084
2.22589e-05
7.44403e-06
-0.00099969
-0.00102948
0.00202917
0.00269022
-0.00157692
-0.0011133
2.01126e-05
1.86925e-06
-2.19906e-05
0.00093842
-0.000478562
-0.000459836
-0.000581863
0.000569103
0.00383723
-0.00210411
-0.00173317
0.0122694
-0.0251086
0.0128392
-0.000193083
6.24762e-05
0.000130638
0.000176647
-0.000231945
5.5294e-05
0.000260666
-0.000919171
0.00065847
-1.35051e-06
-6.34749e-05
6.48403e-05
0.00798892
-0.0077621
-0.000226807
-0.000236383
0.00154434
-0.00130796
-2.4876e-05
5.40498e-06
1.94672e-05
1.33635e-05
-3.15901e-05
1.82127e-05
0.000479723
-0.000393328
-0.000379382
0.00156928
-0.00118984
-0.0021991
0.00229043
-9.13372e-05
0.000121922
-0.000147299
2.53848e-05
0.000212348
-0.00183716
-0.000521091
-0.000626175
0.00114725
-0.00206248
-0.000694798
0.0027573
0.00261933
-0.00235867
-0.000391283
0.000345341
4.59215e-05
1.70905e-05
-4.98425e-05
3.27767e-05
2.88552e-05
-0.00250218
0.00247333
-0.000963039
0.00207313
-0.00111003
0.00111082
-0.00145639
0.000345576
0.000936652
0.00127399
-0.00221069
-1.52383e-05
0.00010557
-9.03593e-05
0.000297818
-0.000100708
-0.0001922
8.73625e-05
-9.30269e-05
5.66021e-06
-0.000129253
-0.000452626
-0.00336542
0.00160415
0.00176126
-0.000671799
-0.00456517
0.00523698
0.000177789
0.000158145
-0.000335946
0.000519136
-0.00282522
0.00230607
-0.000108933
-0.000282388
-0.000326304
5.11011e-05
0.000275187
-1.15098e-05
4.77819e-05
0.000134952
-0.000182723
-6.23561e-05
0.000107463
-4.5114e-05
-0.00121042
0.0011433
6.71188e-05
0.00151626
-0.000405445
0.000902946
-0.000111208
-0.000791741
0.00105373
0.000649317
-0.00170304
7.42391e-05
-0.000875166
0.000315338
-0.00107273
0.000757401
-0.00048755
0.000960844
-0.000473305
-0.000173465
-0.000152858
0.000229589
0.000149311
5.5132e-05
6.99451e-05
-0.00636269
0.00591974
0.000442962
-1.88081e-05
-0.0005364
-7.32242e-05
7.18787e-05
-0.00173624
0.00582332
0.00456014
-0.00634156
0.00178143
-0.000933004
-3.05256e-05
8.53219e-05
5.92458e-05
0.000148317
0.000776719
0.000457944
-0.00123468
-2.44279e-07
5.10513e-05
-5.08068e-05
-0.00337714
0.000637406
-0.000267597
-0.000141687
7.28516e-06
-0.000200365
-0.000159299
-0.000149487
0.000308786
-0.00097079
0.00110443
-0.000133653
-0.00130633
-0.00142463
0.00273099
0.00199622
0.000222047
-0.00221822
0.000191244
3.83474e-05
5.22766e-05
1.83762e-05
0.000596174
-0.000409712
-0.000953062
0.00147102
-0.00051797
-0.00106369
9.29009e-05
-6.49264e-05
-0.000273123
0.000338032
0.000111279
-0.000111552
2.76421e-07
0.00014915
-2.72262e-05
0.00149344
-0.0016675
0.000174039
-0.00219494
-0.0032447
0.00543962
0.000902952
-0.000517565
0.000151003
-0.00361123
-0.00174347
0.00535468
-0.00020915
3.80246e-05
7.0756e-05
-9.12844e-05
2.05416e-05
0.000235158
0.000137136
-0.00037228
-0.0021309
0.000824565
0.00229511
-0.00119558
-0.00109953
9.0433e-05
-0.000182543
9.21069e-05
-0.00172118
-0.00124144
0.00177033
0.000919894
3.41508e-06
4.43396e-05
-0.0454236
0.0372796
0.00814394
-0.000703221
0.000594274
-0.000965839
0.000478298
5.19706e-05
0.000108638
-0.000160614
0.000569319
7.12702e-06
-0.000576422
-0.00708848
0.00704133
4.71693e-05
-0.00122091
0.000221186
-7.65717e-05
2.6785e-05
4.97823e-05
2.20181e-05
-1.68718e-05
-5.13222e-06
-0.000218587
-0.000508158
0.00238641
-0.00223498
-0.000151428
-0.00162709
0.000416666
0.000320943
0.00011107
-1.42077e-05
3.50925e-05
-2.0893e-05
2.22221e-05
6.48537e-05
-8.70531e-05
0.000107763
-5.54746e-05
-5.23035e-05
0.000667653
-0.00158682
0.006674
-0.00992354
0.00324951
0.00309965
-0.00186377
-0.00123592
-0.00034087
0.000231721
0.000109137
0.00644125
-0.00629553
-0.000145805
-0.00151194
0.00244857
-0.000966381
0.000118662
-1.67244e-05
0.000185205
-0.000168486
-0.00198761
0.00250674
0.000165003
-0.000134841
1.76223e-05
1.74141e-05
-3.50387e-05
-0.00743296
0.0016653
0.00576767
2.24572e-05
-1.25091e-05
-9.94378e-06
-2.7101e-05
-5.48013e-06
-0.000917299
-0.00129153
0.00220886
6.28055e-05
-4.29432e-05
-1.98644e-05
-0.000698783
0.00154544
-0.000846608
3.10807e-05
-0.000734303
0.000448804
-0.00045974
1.09075e-05
8.55916e-06
1.3894e-05
0.000851982
-0.000675336
0.00057227
0.00101184
-0.0015841
-5.96851e-05
1.95868e-05
4.08399e-05
-4.71845e-06
6.00419e-06
-1.28105e-06
-0.000374563
5.41231e-05
0.000320453
-0.000805571
9.14036e-05
0.000714166
6.11826e-05
4.65735e-05
-1.40659e-06
-6.08572e-07
2.01359e-06
0.00676014
-0.00219999
0.00037098
-0.00149935
0.00112837
0.000177268
-0.00193368
0.00175642
0.00555143
-0.015629
0.0100775
4.40658e-05
-2.64444e-05
0.00149071
0.00020061
-0.000119168
-8.14027e-05
-4.66545e-06
3.25856e-06
0.0107369
-0.00518551
0.00252881
0.00130841
0.00456064
0.00132856
-0.00588927
-0.000673034
0.000298478
1.96616e-05
-2.57995e-05
-0.00532325
0.00326078
-0.000328553
0.000272564
0.000128216
0.000184059
0.000717444
0.00157766
-2.78068e-05
5.20343e-08
2.77488e-05
-0.00294358
0.00123421
-5.87804e-05
-0.000151598
0.000148374
-3.69661e-06
6.06471e-05
-5.69328e-05
0.000659737
-0.00240321
0.00205444
-0.000305369
-0.0017491
0.000992561
-0.000677218
-1.1577e-05
-5.66376e-05
6.8194e-05
0.00168936
-0.000750909
0.00182494
4.22061e-05
-2.73324e-05
-5.12448e-05
7.85943e-05
-0.00315433
0.000959453
-0.00207244
0.00107104
0.00100141
-0.000632819
5.7299e-05
0.000575514
-0.0027712
-0.000383211
1.37143e-06
1.82856e-05
0.0153419
-0.00307242
0.000129715
-0.000190231
6.05139e-05
0.00207538
-0.00374211
2.84119e-06
-6.79466e-06
3.95277e-06
-0.0015439
-0.00114859
-8.49639e-06
0.00115707
5.25728e-05
-7.62751e-05
2.37162e-05
0.000180316
-0.000701442
-0.00011696
0.000233525
-0.000116561
1.24556e-05
0.000140016
-0.000152489
-0.000280377
0.0010249
0.000313506
0.000156089
0.00205049
0.000389685
-0.00244022
0.00104156
0.0011955
-0.00223708
-0.00246133
-0.000904077
0.000118397
-6.64281e-05
-3.88108e-05
2.78009e-05
0.000265323
-0.0012238
0.000958475
-0.00117111
0.00220268
-0.00103152
-3.04365e-05
2.69002e-05
3.53107e-06
4.89175e-05
2.04596e-05
-6.93871e-05
0.00529219
-0.000731595
-0.00208965
0.00211849
-0.0313492
-0.0140744
-0.00127797
0.00154328
0.000185013
-0.000190413
5.41399e-06
-0.000145578
7.85826e-05
6.69901e-05
0.000261636
0.000304772
-0.000566437
-4.95645e-05
-7.57843e-06
0.000333908
-0.000398843
0.00190609
0.00134715
-0.00325329
0.000671534
-4.73657e-05
-0.000624134
-0.000298865
9.38781e-05
0.000204947
0.00380202
-0.00174759
6.10506e-05
-6.10778e-05
2.65903e-08
-0.00169612
0.000121746
0.00157434
-0.00020799
0.000984706
0.00105226
-0.00105227
4.87024e-05
-2.91212e-05
-1.34937e-05
-3.126e-06
1.66156e-05
5.00509e-05
-2.06133e-05
-2.94405e-05
-7.13365e-05
-1.35913e-05
8.49697e-05
0.00216932
0.00272977
-0.00489904
1.1939e-05
-8.3264e-05
-6.44472e-05
0.000110393
-4.59619e-05
5.62362e-06
4.44239e-05
0.000995552
-0.00118219
0.000186623
0.000170341
1.46687e-05
-0.00039661
0.000352847
0.000161524
-6.05827e-05
-0.000100976
-0.000221009
0.000296895
-7.58863e-05
-3.16682e-06
8.98402e-05
-8.66967e-05
-0.000121074
0.000117914
0.000106709
-0.000155697
4.89851e-05
0.000723106
-0.00323354
0.00251041
-0.000868939
0.000642651
0.000226294
-9.58871e-05
-0.000171728
-0.0029297
0.000579981
0.00234976
0.00121433
-0.000485544
-0.000728806
-0.000756737
-0.00011226
-0.000207541
0.000449027
-0.000241459
0.00118917
0.00288667
-0.00407584
0.000143372
9.17937e-05
-0.00243771
0.00114981
0.00128784
-0.00016679
2.82971e-05
-9.19534e-06
0.000180219
-6.89356e-05
-1.43869e-05
-5.16585e-05
6.60187e-05
-0.00022993
0.00127149
0.000142409
-0.000338893
0.000196489
1.61149e-05
-3.4326e-06
0.000587099
-0.000142949
-0.00044416
0.000972168
-0.00103661
-8.11014e-05
3.15346e-05
-4.73919e-05
2.0081e-05
0.00105582
-0.000186478
-0.000869355
5.3364e-06
8.17459e-05
-0.00157923
-9.37349e-05
4.08974e-05
5.2836e-05
2.5151e-05
6.52854e-05
-0.000211216
0.000301171
-8.99344e-05
0.00386717
-0.00196108
-0.000945797
-9.20141e-06
-0.000229504
-0.000817509
0.00138978
2.99926e-05
-1.84823e-05
5.77755e-05
-3.00434e-05
-2.77361e-05
-0.0406955
0.00934626
-8.65318e-07
-4.32005e-05
4.40621e-05
-1.50051e-05
2.04009e-05
0.000135991
0.000161827
4.34903e-07
-6.62972e-05
3.76176e-05
-0.00118621
-0.00121858
0.000633226
0.000585354
0.0016916
-0.00242981
0.000738162
0.000133055
-0.000344268
0.000229758
-7.34975e-05
-0.000156252
2.38021e-05
3.39706e-05
-0.00196568
-0.000938616
0.0029043
0.000358088
-0.00153035
0.00587965
0.000582509
-0.00328207
-3.00107e-05
1.34255e-05
1.65822e-05
5.30181e-05
-3.59052e-05
6.30661e-05
-0.000154345
-0.0050073
-0.000328849
0.0053361
-0.0022831
0.00356979
-0.00128668
5.90463e-05
2.74699e-05
1.23508e-05
1.11044e-05
-2.34578e-05
0.000264988
-0.000283797
-0.000885573
-0.000810541
-2.76633e-05
0.000289311
-0.000758792
-6.58051e-05
0.000824606
7.07595e-05
-7.70763e-06
-5.5019e-05
1.57237e-05
3.92739e-05
0.000268475
-0.000476031
0.00339125
-0.0010679
-0.00232337
-0.000915917
0.000110335
0.000735603
-0.000166293
0.00117632
-0.00169244
0.000516101
0.00125688
-0.00110508
-0.000151767
-0.000625621
0.00087845
-0.00025286
0.000925418
-0.00161491
0.000148046
-9.08953e-05
-5.71251e-05
3.46459e-05
-2.53803e-05
-9.26852e-06
6.91129e-06
-3.46285e-05
-6.12674e-05
-0.000217673
-0.00171124
0.00192892
-2.71379e-05
0.000116341
-8.92067e-05
7.29646e-06
3.28512e-05
6.27464e-06
-0.000733141
-0.000152434
0.00083163
-9.92322e-05
-0.0011691
-9.691e-05
0.00135382
-0.00167241
0.000709386
-3.89432e-05
0.000279285
-0.00024034
4.04532e-05
4.26367e-05
-9.48328e-05
5.21938e-05
-2.67709e-05
4.70103e-05
1.95973e-05
-7.24832e-06
-2.74066e-06
3.50513e-06
4.0557e-05
0.0011361
-0.000958993
-0.000177117
-5.25153e-05
4.09421e-05
7.07348e-06
3.82834e-05
-4.53219e-05
0.00156121
-0.000457818
0.000964813
0.00026164
-0.00122644
2.70061e-05
7.62318e-06
-0.000283182
0.000170584
0.000112637
0.00152572
-0.00858012
0.00705442
-0.00403214
-0.00340083
0.000473838
5.87333e-06
8.54473e-05
-0.000142945
5.75038e-05
0.002633
7.38867e-05
-0.000136235
-0.00702436
0.00136163
0.00566262
-0.000530146
3.30199e-05
-4.66274e-05
0.000398808
-0.000440531
4.17416e-05
0.00239167
-0.00142685
-4.30805e-05
-1.42393e-05
5.7333e-05
0.000574534
-0.000819702
0.000245163
-0.000760306
-0.00108109
0.00184146
0.000153743
-0.000652546
0.000498818
2.77423e-05
5.32561e-06
-2.11728e-05
0.000106614
-0.00107585
0.000122779
-0.0025231
0.00066572
0.0018574
0.000210748
-0.000534886
0.000324137
0.00657967
-0.000138454
-0.00373314
-0.00127416
-0.00203139
-0.000898305
0.000416304
-0.00137823
0.000961914
5.58348e-05
-7.02173e-05
-0.000554583
-0.000663989
-0.00158416
3.45013e-05
0.00154968
0.0014586
0.000509343
-0.00315411
0.00264473
0.000291064
-0.000154879
-0.0001362
4.14667e-05
-0.000488463
0.000447026
-0.000973104
-0.000603818
-0.0022681
0.00221949
4.86077e-05
-0.000200172
1.21836e-05
-0.000292638
0.00116221
-0.000102339
-5.69685e-05
2.73917e-05
3.69643e-05
-4.30201e-05
0.00014698
-0.000103957
-0.00095259
-0.00133053
6.24074e-05
-5.89041e-05
-0.00404789
0.00208221
-0.00111655
0.000143466
-0.00195424
0.00193552
-3.83252e-05
5.71732e-05
-1.88658e-05
0.000263016
1.96709e-06
1.96327e-05
2.37814e-06
-0.00061268
-0.00113477
0.00134209
0.000422626
-0.0017647
0.0056143
-0.00222313
5.79642e-05
-1.62331e-05
-4.17359e-05
-0.00041012
-0.00152676
0.00193687
-0.017471
0.00581727
0.0116537
-7.50254e-05
-0.000697412
0.000772444
-3.7188e-05
-3.93864e-05
-2.05404e-05
-0.000485761
0.000506293
-0.000424477
0.000812106
-0.000387608
9.74171e-06
-4.03839e-05
3.06376e-05
0.000407262
0.000314308
-0.00072156
0.000498066
0.000448274
-0.000523319
0.00321351
-0.00277843
-0.000435057
0.000382824
1.66408e-05
-5.97279e-05
-2.21453e-05
-1.4416e-05
6.69646e-05
-0.000341231
0.00119322
-0.000260167
-3.87002e-05
-0.000855237
9.04325e-06
-4.7984e-05
0.000129873
-0.000209642
-0.0141504
-3.23368e-05
5.75215e-05
-2.51682e-05
-0.00198642
0.0012318
0.000754685
-0.000417322
-9.01504e-05
0.000507435
0.0065571
-0.000856792
-0.00570032
-4.68272e-05
0.000495643
-0.00130411
0.00107418
0.000107685
0.000114425
-0.000222116
0.00217721
-0.00217719
-0.000325306
-0.000433805
0.00075912
0.000228176
-0.000109246
-0.00717925
9.07604e-05
-0.00381071
0.00157026
-0.00110276
-0.00046751
-0.000883799
0.000186406
-0.000141381
0.000283785
0.000124603
-9.68488e-05
-0.000101569
8.06619e-05
2.08945e-05
0.00148388
-0.0030516
0.00156771
0.000905714
-0.000434415
-0.000471319
-0.000973476
0.00187504
-0.00090161
0.00634674
-0.00525648
-0.00109026
0.000733042
0.004334
-0.00321534
-0.00111867
2.42814e-05
-2.95089e-05
5.22936e-06
-0.000302091
-0.000534524
0.000836613
0.000865757
-0.00164407
0.000778306
-0.000305445
0.000189791
0.000115656
-5.18204e-05
-4.9758e-05
-0.00326697
0.00128057
-0.00027103
0.00107775
0.000395261
-0.000613862
1.07661e-05
-5.01304e-05
3.93593e-05
-7.27394e-05
-0.000826201
0.000898914
-0.00214297
0.00535648
0.00161703
0.00103506
0.000475752
-0.00191995
0.00144421
-0.0296281
0.0270947
0.00253346
0.000331197
-4.84132e-05
-0.000112655
0.00111525
-0.00100261
-0.000127259
-3.43221e-06
0.000130673
-0.00155396
-0.00121724
-0.00128378
0.00219729
-0.00198444
-0.000212836
0.00587538
-0.00438195
-0.000926116
0.000464984
0.000461105
1.6162e-06
1.08021e-05
-0.000112474
3.2329e-05
-8.03442e-05
-0.000454782
9.61354e-05
0.00152951
-0.00587241
0.00434289
0.000943236
-0.00132257
-0.00108804
0.00181113
0.00114891
-0.00147559
0.000326691
0.00061158
-0.000692826
8.12684e-05
-0.00120927
0.00113652
-0.000201936
1.87545e-06
-0.000371282
-0.000704801
0.00107608
-5.96642e-05
0.000931152
-0.000871491
3.55946e-06
0.00316451
-0.00252232
-0.000642135
-0.00166492
0.00473279
-0.0030679
4.30365e-05
-0.00269934
0.0026563
0.000700307
-0.0014591
-5.15803e-05
-3.6234e-06
5.52168e-05
0.000253789
7.74046e-05
0.000109151
-0.000498314
0.000389103
-0.000484842
6.0389e-05
9.44611e-05
0.000299196
-0.000393666
-2.42296e-05
-3.57862e-06
0.00165465
-0.00165461
-0.000235732
0.000342435
0.000804825
-0.00105641
0.00025157
-0.00042762
-0.00184047
-0.00013921
0.000262943
-0.000123734
0.00182079
-0.000478694
0.00396064
-0.0034513
7.40781e-05
-5.02799e-05
-0.000410277
0.000120818
0.00028948
0.000824939
-0.000940777
0.000115837
4.54993e-05
-5.3175e-05
7.6652e-06
0.0004371
-0.000847217
-3.09555e-05
-0.0010529
0.000387277
0.000665587
-0.000862741
-2.10444e-05
-7.51764e-05
0.000698763
-0.000623567
-0.00160631
0.000328698
0.00045329
-0.000782019
-0.00144854
-0.00107456
0.000711806
-0.00152418
0.000812382
0.00243851
0.00300099
0.000221007
0.00153131
-0.00175232
-0.000176303
2.8954e-05
0.000147351
0.00196005
-0.00188926
-7.07974e-05
-0.000715933
0.000640754
-0.0142861
-0.000518688
0.000127576
0.000391119
0.000955463
0.000605751
0.00187344
-1.81897e-05
4.7658e-05
5.64493e-05
-8.4032e-05
2.75669e-05
-0.00147586
0.000715618
-0.000275935
0.000255395
0.000289822
0.000117441
8.72211e-07
5.74469e-05
-5.83216e-05
-0.00058078
-0.000474203
0.00165052
-0.000328607
0.00127391
-0.000945292
-0.000230845
0.000274981
0.00190221
-0.00143766
0.00121998
-0.000808447
0.000388975
0.000419469
6.12464e-06
-5.76855e-05
1.16372e-05
0.000356853
0.000230242
0.00153731
0.0051367
-3.73641e-05
0.000117062
-7.97072e-05
0.00106206
0.000508195
0.00032156
0.000732166
-0.000452746
-1.26128e-05
1.11323e-05
1.49214e-06
-0.000391309
-7.87945e-06
2.21885e-05
8.26897e-05
-1.52962e-05
0.00160115
-0.0022779
0.000676797
7.11501e-05
-1.37054e-05
4.60965e-05
-6.03495e-05
-0.000490487
0.000206442
0.000284006
-6.90298e-05
-0.000112638
0.000114879
-2.24764e-06
9.23031e-05
-1.165e-05
0.00409846
-0.00261848
-0.00148
-4.02942e-06
-1.59491e-05
7.6638e-05
-0.000639244
0.000934072
-0.00210517
-0.000135027
-8.59846e-05
0.00028876
-0.0018729
0.000215116
-0.000208505
-6.61795e-06
0.00011569
-0.00047213
0.000356463
-0.000417541
0.000226907
0.000190639
0.00162187
-7.75374e-05
-4.51655e-05
2.58338e-05
1.93239e-05
0.00113769
-0.00146632
-5.43878e-05
-4.98515e-06
2.75787e-05
4.64969e-05
0.00015892
5.1801e-05
0.00224579
-0.00842674
0.00618099
-0.000413258
0.000978519
-0.000565275
-9.57842e-05
-2.11806e-05
-0.000278951
0.000151674
-0.00261472
0.000298057
0.00231665
0.00195815
-0.00377126
0.00181311
0.00113414
-0.000717859
0.000149296
0.000315693
0.00114658
-7.64704e-05
6.29686e-05
0.000833219
-0.000748634
-8.4598e-05
-9.33796e-05
0.00439101
-0.0033396
0.000740485
2.53566e-05
-3.69624e-05
7.46803e-06
2.94864e-05
-0.015761
0.0150922
0.000668812
0.000826322
-0.000519921
-0.000306406
-0.000394018
6.87146e-05
-0.00105805
0.00018437
0.000873658
0.00642834
-0.00221021
-0.00421812
0.000537708
-0.00135522
2.92619e-05
-1.02963e-05
-1.89765e-05
0.000446094
-0.00175022
0.000206778
-2.53903e-05
-0.000181394
-0.00433003
0.00676855
0.000122901
-0.000125191
2.28257e-06
-0.00152697
0.000410423
0.000236728
0.000575383
4.36664e-05
5.77487e-05
-0.000101416
6.59888e-06
1.1912e-05
-1.84964e-05
0.00106063
-0.000164078
-0.00089655
0.00220676
0.00274136
-0.00269833
3.10974e-05
2.19135e-05
4.25356e-05
-0.000154694
0.000112203
0.000294729
-0.000145436
-2.88775e-05
7.25389e-05
-0.000167982
0.000124962
-0.000272137
-0.000269256
0.000541393
0.0037857
-0.00174494
-0.00204075
-0.000299466
-0.000758589
-0.00024053
0.000144748
1.03487e-05
-2.25466e-05
-0.000513048
-0.00063668
0.00114972
9.04861e-05
0.0013944
-0.000826665
4.62903e-06
-4.57776e-06
-2.46309e-05
8.23751e-05
-0.00016934
-0.000343699
0.000739652
-0.000230346
-0.000509299
0.000192225
0.00146239
0.000131138
-0.000270359
-0.00478326
0.000306628
0.0044767
0.00455952
-0.00523131
0.000763631
0.000102122
-0.000241019
0.000394775
-0.00269253
-0.00301505
-4.97314e-05
4.97096e-05
3.29439e-08
0.000289901
0.00176656
-0.0020565
-4.25642e-05
-0.000187561
-8.79262e-06
0.000196338
0.000297481
-0.000369752
7.22785e-05
0.001081
-0.00274593
2.2119e-05
-8.55195e-06
-1.35708e-05
5.81074e-05
6.6501e-05
3.46638e-05
-8.12815e-06
-2.65098e-05
0.000533745
6.1794e-05
-0.000211644
0.000149858
-7.51869e-05
-0.000101108
0.00171709
-0.00064856
-0.00106853
0.000743912
-0.000348633
0.00130344
-0.00115381
-0.000149657
0.000291575
0.00103995
5.12655e-05
0.00010583
-0.000157085
-3.32444e-05
3.20046e-05
1.23428e-06
-0.000152963
-3.37958e-05
-0.000633472
-0.000512344
0.00114583
-0.000200172
-0.000533406
0.000108869
-0.00116213
0.00105327
0.00152775
0.00920914
-0.0110605
0.0138971
-0.00283651
0.00311062
-0.00375653
0.000645856
-0.000626012
-7.29407e-08
-3.04587e-05
7.11859e-05
-8.05964e-06
0.000137775
7.61165e-05
-0.000359342
0.000283213
-0.000184976
0.000154531
-3.65261e-05
-0.000966104
-0.00120554
0.00217161
-0.00068893
-0.00155543
0.000139408
-0.000156134
0.000352313
0.000436899
-0.000789181
-3.07119e-05
-7.58173e-06
3.82817e-05
0.000285285
-0.00109374
7.77544e-05
0.0008944
5.8946e-05
0.00011406
0.00109821
-0.000264829
-0.000145454
-0.000790657
0.000286091
0.000895933
-0.00107845
0.00265318
0.000247933
-0.00290112
-0.000793393
0.0013311
-0.0014583
0.000832687
0.00286579
0.00103243
-0.0084763
-0.00144726
0.00628844
-0.000368712
-0.00111218
0.000205029
0.000907144
-0.000197971
0.000413079
-0.013763
-0.00370788
0.0026491
0.00168491
-0.000417369
-0.000101264
-0.000153487
3.51097e-05
0.000118427
-2.43906e-05
-2.07728e-05
4.27151e-05
-2.19529e-05
-2.0109e-05
0.00734419
-0.000836039
-0.00650812
-5.10074e-05
2.41316e-05
-4.64204e-05
2.23007e-05
0.00200331
-0.00132485
-0.000678465
1.02935e-05
-9.36742e-06
-9.32411e-07
-0.00383228
-0.00377305
-0.000651429
0.00164221
-9.58945e-06
-6.7803e-06
1.63643e-05
-0.00322374
0.000542036
0.00268174
-0.00011749
3.86269e-05
7.88551e-05
-1.10528e-05
0.00285956
0.0012389
4.69653e-05
-3.18871e-06
-4.37688e-05
0.00149011
0.00017585
-0.00166596
-0.000974339
0.00250386
-0.000332494
0.000333338
-8.4847e-07
6.93699e-05
-0.000141587
7.22061e-05
2.73669e-05
-5.62482e-05
-0.0017985
-0.00740764
0.00920613
1.26342e-05
-2.68418e-05
0.000389148
-0.000482346
9.32099e-05
-0.000787745
-0.000747102
0.00153482
-1.27478e-05
1.39824e-05
-1.22199e-06
0.00141263
-0.000296914
-0.00111572
0.000170508
-0.000234727
6.42205e-05
5.70406e-05
-0.00133501
-0.00012755
-0.000257517
0.000385007
-0.00323788
0.0024103
0.000827589
2.82547e-05
-4.61468e-06
-2.36413e-05
0.00103569
0.00151581
-0.00255149
-0.000745669
0.000823408
-1.60398e-05
1.59633e-05
-0.000148799
-0.000183697
0.0011194
0.000293217
-2.46735e-05
2.44287e-05
0.000552719
0.000290676
-0.000843356
0.000801595
-0.00101739
0.000215799
4.02849e-05
-0.000381152
-3.25178e-06
6.09906e-06
8.92566e-05
-0.000189517
3.25556e-05
-5.54455e-05
2.28581e-05
-0.000479645
-1.08404e-05
2.42963e-05
6.79987e-05
-0.00146283
0.00151986
0.00204405
0.000200386
-0.00048202
-0.00101734
0.000438186
0.000225483
-0.000663659
1.77092e-05
1.31311e-05
-5.84145e-05
-2.99038e-06
6.14069e-05
0.000690471
0.000101489
-0.00121368
0.000375772
0.00033605
-6.37567e-05
1.73623e-05
4.63875e-05
2.00316e-05
2.26028e-05
-1.93834e-05
0.000175041
6.05198e-05
-0.000235564
4.07327e-05
-0.000242522
0.000201752
-0.00176635
2.16162e-05
0.00174472
-0.00055884
0.000839191
-0.000280368
-0.000444708
0.00057461
-0.000532044
0.00475083
-0.00502369
0.000272847
-0.000521379
-0.00295226
0.00347373
0.000178907
-5.70154e-05
-0.000121869
-0.000672853
-0.000125387
0.000798236
-0.00281743
0.00134076
0.000376331
1.60211e-05
1.22297e-05
0.000112924
-0.000109469
-3.47574e-06
-0.000850118
0.00113408
-0.000283972
3.52641e-05
-0.000434225
-0.000618638
0.000458088
-2.21108e-06
3.31927e-05
-3.09818e-05
-0.000484291
0.000212146
9.89241e-06
3.14144e-06
-1.31073e-05
-9.30773e-05
-0.000147438
3.46368e-05
-0.000323433
0.000288787
1.72689e-05
-6.97484e-06
-1.63458e-05
2.26022e-05
-6.25992e-06
-0.000101423
0.000276478
0.00222164
-0.00197642
-0.000245226
-1.70168e-05
8.02774e-06
8.98849e-06
-0.000165477
-0.000684948
0.00102408
5.3841e-05
5.9085e-05
4.19042e-05
2.08996e-05
-5.94247e-05
0.000181174
-0.000468556
0.00480191
-0.00433333
0.000117461
0.000133659
-0.00025111
-0.000894779
0.000339765
0.000555012
4.30604e-05
-0.000209839
6.10985e-05
3.93817e-05
-5.46097e-05
-0.000770398
0.000399157
-0.00115144
0.000733908
-6.50893e-05
0.000497218
-0.000432132
2.69013e-05
-9.19315e-06
-0.000136937
-2.38661e-05
-0.000166368
-0.000652404
-0.000242374
1.23944e-06
0.000101272
-0.000102516
0.000249567
-0.00347333
0.000919183
-0.000369089
-0.000110584
-3.33413e-05
1.79096e-05
1.54309e-05
-1.64887e-07
-2.8115e-05
2.82832e-05
-0.00726626
-0.00379423
-1.61666e-05
4.86021e-05
-3.24439e-05
0.00233127
-0.000109649
0.000160628
-1.25703e-05
-0.0302867
0.0145257
2.00461e-05
7.60751e-05
-1.11981e-05
9.159e-05
-6.99349e-05
-0.000288102
-0.00449512
0.000291403
-0.0001834
-0.000107972
6.75102e-06
0.00146425
-7.09775e-05
1.78412e-05
5.31034e-05
-0.000112881
0.000342659
-8.8532e-05
-6.52829e-05
2.79344e-05
4.70778e-05
-2.29543e-05
-0.00115631
-0.000773668
0.00192999
-4.06216e-05
0.000509672
-0.000469051
0.00272067
0.00119525
-0.0039159
-0.00214215
0.00198009
0.000162052
0.000647991
-0.00128147
-0.000199718
0.000163984
3.57588e-05
6.83873e-05
-1.16287e-05
-5.67834e-05
0.000338348
-0.00108284
0.000744474
6.6083e-05
-0.000749686
0.000683597
0.000147857
0.00137077
-0.00151864
5.94588e-06
0.000183151
-0.000189101
0.00404892
-0.00128093
-0.00020229
2.57219e-06
0.00578562
-0.00250842
-0.00327717
0.000127111
0.00264713
-0.00257109
-7.60477e-05
-4.45909e-06
-8.59592e-05
0.000144317
-0.00038532
-0.000113353
2.85407e-05
8.48088e-05
0.000988603
-0.000953973
-0.000133376
0.00014582
-2.03295e-05
-0.000171148
0.000191475
-3.67884e-05
4.65267e-05
4.09005e-05
-0.00199513
0.00313967
-0.000345273
-0.00279445
-0.00191152
-0.00138841
0.00329995
-0.00116299
0.000641662
0.000258349
-0.000519909
0.000261538
-6.01709e-05
8.02778e-05
3.45334e-05
-3.91714e-05
4.64307e-06
3.84632e-05
1.02665e-05
3.80768e-05
7.41919e-06
0.000238107
0.00208295
-0.000592817
-1.69863e-05
0.000139895
0.00266813
-0.0016151
-0.00105303
-0.00616752
0.00408991
0.00207761
-4.05103e-05
-2.32509e-05
-0.000171886
-0.000245436
0.00376287
0.00202274
-0.000584121
0.002068
-2.51268e-05
8.69351e-05
-0.0011304
0.00113226
0.000633972
-0.000419006
-0.000214953
6.65516e-05
0.000161947
-0.000228481
0.000311535
0.000749075
0.000464181
-0.000523843
0.000548235
0.00174221
-0.000461549
0.00146542
-0.00100389
0.00227136
-0.000743632
-6.74548e-06
5.30737e-05
-3.64391e-05
-1.66365e-05
-0.000957859
0.00105231
0.000599874
-0.00094456
1.04784e-05
-0.00214046
-0.000297261
0.0011043
-0.000845769
-0.000258521
-0.000417333
0.000375609
4.17467e-05
0.000449746
-0.000490373
-0.00320653
0.0044262
-0.00218043
-0.00108204