/*--------------------------------*- C++ -*----------------------------------*\
| =========                 |                                                 |
| \\      /  F ield         | OpenFOAM: The Open Source CFD Toolbox           |
|  \\    /   O peration     | Version:  v2012                                 |
|   \\  /    A nd           | Website:  www.openfoam.com                      |
|    \\/     M anipulation  |                                                 |
\*---------------------------------------------------------------------------*/
FoamFile
{
    version     2.0;
    format      ascii;
    class       volScalarField;
    location    "150";
    object      omega_0;
}
// * * * * * * * * * * * * * * * * * * * * * * * * * * * * * * * * * * * * * //

dimensions      [0 0 -1 0 0 0 0];


internalField   nonuniform List<scalar> 
18355
(
0.0344997
5.06552
0.0218888
0.0216647
0.0223563
0.0771623
0.0219588
0.0545549
0.0231531
5.08223
0.0215217
6.36459
0.0981125
0.0219729
0.0221112
0.0237823
6.93807
0.0217369
0.0220243
4.11204
0.0256379
0.0224667
5.89512
0.0223372
0.0246945
0.0221465
0.0220722
0.0231128
2.90716
0.0219573
0.0219543
0.0230421
0.0217347
0.0218088
0.0548099
0.0356057
0.0225305
0.16061
0.0230737
0.0215381
0.0219744
0.0865298
0.0218868
6.95788
0.0217988
0.194088
0.0503435
0.0239047
0.043772
0.0217559
0.0215534
0.0218337
0.0222771
5.21511
0.0220876
0.0220656
0.103126
0.0221285
3.27471
0.134441
0.0217607
0.0589119
0.0217178
0.0405038
5.8484
0.0329066
12.0208
0.034579
0.0220786
0.0223736
0.0604534
0.0222556
0.155474
0.021797
0.0544399
0.0219522
5.79821
0.0230085
0.0273424
0.0218095
0.0219684
0.942484
0.0257915
0.0471165
0.0221395
0.0963149
4.48792
4.08407
2.72293
5.86898
0.344213
0.0218251
0.0221108
0.0214831
21.9856
5.66042
0.0217736
0.0254587
4.97557
6.30553
3.89042
6.56202
0.0424489
2.16599
0.0225656
0.100715
10.3457
0.167892
0.0312263
0.470783
0.0219227
0.0229839
0.0221482
0.0229853
4.45654
0.0220001
4.67603
5.7988
5.21521
0.0413077
4.86151
3.16983
0.0229682
0.0607802
0.0217713
0.184536
0.0218327
0.022262
6.49152
0.0214868
0.0215599
4.19443
0.0451126
0.0252596
0.0410415
0.0222565
0.0219442
0.0215177
0.0219552
0.0794401
3.03549
2.0543
0.0223743
0.0219194
0.484494
0.0222966
0.0259633
5.92141
0.0234357
5.83958
0.022185
0.0222891
0.0503795
3.75656
0.0699907
0.0222693
3.84507
4.17105
0.0222662
0.0630653
0.0264635
0.0247425
0.0299356
0.0254107
0.21511
3.40974
10.2031
0.0429431
0.222487
0.0217678
2.29514
5.4227
0.0215232
0.0215288
0.0235579
6.70427
0.0522091
0.0221036
3.7187
25.291
0.0723185
0.227828
0.0273783
0.0219122
0.258358
6.42001
6.21436
0.23765
0.0231815
8.70653
0.103334
0.0218889
0.0251864
2.65777
0.0497125
0.0223419
4.47234
0.0269895
0.0365882
0.0215312
0.0227461
0.0240821
13.38
5.9705
25.1295
0.0284017
3.05515
5.16169
5.30596
0.0366861
0.0219307
0.0221387
3.86863
0.0223049
0.0217715
0.779131
4.35185
3.89046
0.0221554
0.0233256
0.525181
0.0219427
0.0463949
0.0219155
8.82263
0.0221731
4.97712
6.53942
0.142052
0.0219133
0.0222722
0.0267679
0.0263591
5.14575
0.0226771
0.02214
0.0221112
0.169767
0.290238
33.849
0.0305917
0.189855
0.0220077
0.0217812
0.0222755
8.80724
7.4129
3.28432
0.06768
0.026453
0.0227427
6.16195
0.0271618
5.48673
0.0221164
4.95098
4.43571
0.0640539
0.0219467
0.0219383
0.0312768
0.0680324
16.5015
0.0472065
0.0218289
0.0217714
0.0222677
0.22631
0.0892138
0.0985636
0.0227156
8.9489
0.255319
0.0949194
0.0222208
4.47353
0.021817
0.021988
9.64825
0.0217658
0.0219503
0.0981598
0.0219019
4.11442
0.0269087
0.0245799
0.0218376
0.0432166
5.74517
0.023074
0.0216693
0.0219863
0.125616
4.4121
0.0222666
0.0222776
4.48855
0.0463524
0.070325
0.308307
0.0219935
0.066162
0.0225725
0.0222689
0.232173
0.236843
0.179529
0.138634
0.0214965
0.0868184
0.0224769
0.0220248
5.58383
0.0219069
0.213271
0.0852784
0.0221035
0.0215875
0.209334
24.4602
5.39997
0.0221379
0.0291411
7.89946
0.0216567
0.338587
0.0267212
0.0328399
0.332956
0.0214986
3.45068
0.0219855
0.0444933
0.0221146
0.0681376
5.40777
0.0222696
20.0425
0.0350434
0.0220423
0.0475195
0.0613447
3.28398
5.08939
1.79274
0.0221138
0.021714
5.77585
0.0761755
0.0221182
0.0224442
0.524548
0.253431
2.27426
6.0392
0.022096
0.023198
2.70138
0.0219218
0.0226332
0.295808
0.0377999
0.0237952
21.2146
0.0222755
0.0458614
0.571152
33.6226
0.0216637
0.021993
0.0219598
0.0217837
0.0681624
0.0217831
0.0408039
0.0219637
0.024366
0.0221006
0.0232344
0.0217922
0.022038
0.0217852
0.0217796
0.023371
0.143189
2.0999
0.0219139
4.56315
0.03511
2.05341
0.0312598
0.0799772
0.0223168
4.15564
0.0225018
0.0220034
0.0221332
0.0216325
4.88358
0.0241148
0.0216202
0.0417095
0.0402182
0.0219244
0.0216528
5.41853
0.0223246
0.0218241
4.93106
0.0219057
4.24618
9.11079
0.268463
0.0255888
0.0225644
5.26041
0.0222448
0.0219261
3.06127
0.0222686
0.021526
8.65694
0.0217909
5.18209
0.0408851
0.0584174
7.2009
0.022411
0.0219271
5.51031
0.076159
2.40983
2.28346
0.0219708
0.0219204
0.0222494
4.20017
0.0451242
0.0220521
0.0222743
0.0222702
0.047936
3.51187
0.0272488
0.0222281
0.0222745
0.0306411
0.362319
4.42479
4.94122
5.8254
0.0564592
0.0470234
5.70007
0.0219715
0.0218366
0.0219858
0.0219037
0.0654552
0.022016
0.0215405
7.41814
0.0496507
0.0457593
6.03546
0.0587775
8.48312
0.0218849
0.0217841
0.0219312
0.0219757
0.0222819
0.0222799
0.0219988
1.96728
0.0221491
0.0215336
1.87034
0.149644
0.0218441
0.022777
0.059735
9.03808
0.0232791
0.021773
3.33282
0.0239446
6.8462
0.0271419
0.0217916
6.67892
0.151979
0.0217285
5.72355
2.48533
6.23181
0.0217938
0.0217587
0.0254815
0.132985
0.0224175
7.55392
3.80406
4.11312
1.24327
0.0216244
0.0402936
4.4012
5.65669
4.58478
0.0221073
0.0269563
0.0265246
4.95556
6.15379
0.370164
0.0221833
0.0219527
0.0221245
0.0453948
0.0220048
5.18101
0.0270156
4.573
0.0219654
0.0222429
0.0219013
0.0332121
0.0325544
0.366117
0.0219202
0.0958075
7.64653
0.0287719
0.0219449
0.0241442
0.0307561
0.0222722
0.0321963
0.038052
0.0287428
0.130662
0.022613
0.021725
0.0219904
0.0222784
0.0414246
0.0237835
0.0590539
0.0218679
0.022338
4.22593
0.0215092
0.0326214
0.0224152
0.152881
0.024605
4.87713
0.0224302
32.5918
0.0260877
0.0237818
4.46324
3.93971
10.9182
0.0288953
0.0238099
0.0218027
0.0219522
0.104931
0.0466201
0.0326889
0.0869927
2.02767
0.227036
0.0219233
5.76788
5.54425
0.0228909
0.0219496
0.0331471
5.6222
0.0313202
0.0222204
0.0626896
0.133674
0.0576508
0.0313158
3.57357
0.0251852
0.100804
8.13933
0.330252
5.43508
0.0556243
0.177844
0.0269218
0.0220649
0.0229277
0.0219444
0.380847
0.313588
5.41836
0.132873
5.19332
6.31865
0.0582217
0.0239229
6.64971
10.9658
0.0215321
0.171841
4.45353
7.64685
0.0274759
0.0216098
0.0250204
0.025396
0.030264
0.082498
0.0219051
32.2798
0.0233829
0.0249042
4.93286
0.0218782
0.0330267
4.73245
0.0219335
0.0228132
5.54367
0.0217569
0.0941541
0.021508
4.4811
0.0292622
0.0389872
0.0331318
0.0254754
0.125335
0.024552
5.32409
0.0719349
0.0219208
9.35355
0.0393957
4.37291
7.49492
0.596375
0.354417
0.0219197
0.0216378
2.74659
0.0241104
0.0327511
0.0222402
0.0271977
5.69364
6.64952
0.0420192
14.9156
0.0605594
0.0238051
0.0216139
0.0222289
0.0426993
0.0835696
0.0216839
10.8671
0.0290375
0.046334
0.0221027
5.49507
5.16175
0.0219566
0.0215386
0.0741416
0.0222464
0.0217264
3.49124
0.159415
0.0223547
0.0219468
0.152325
0.0442071
0.027427
0.0678687
0.022028
4.17333
0.0489808
0.0221541
0.347921
5.35632
0.0219559
6.54291
0.02166
0.0219372
0.0224388
0.0351165
5.33922
0.0346425
6.78091
0.0331295
3.74315
2.02646
0.0265875
5.37312
0.0220032
9.94458
0.0228621
5.33558
4.92344
0.0221677
4.57456
0.0248409
0.0264219
11.1345
0.0842561
5.0755
0.0218132
5.00844
0.0219531
4.50078
0.0220696
0.0270157
0.0301019
0.0218046
0.0215452
0.0494627
2.90331
7.04696
0.021928
2.55509
0.0260705
0.0218111
0.0221172
0.0281539
0.128916
10.9344
0.0334463
0.0220547
0.0270457
4.31961
0.0268208
0.0219099
0.0218041
0.027148
0.0292574
13.3351
0.0218706
0.658961
0.049784
4.76833
6.19131
8.99358
0.0215844
0.0545234
0.0218884
0.0223195
0.0273715
4.6397
0.0218326
0.021805
0.0217942
10.4044
0.0233514
0.0219465
0.032116
0.0305045
6.3555
7.75734
0.0219295
0.021971
6.15223
0.0221412
5.42323
4.53537
5.21729
0.184067
0.213636
3.30258
0.0300921
0.022164
0.0217881
0.0219966
0.0223174
0.0221103
0.0223141
9.1226
14.5629
0.0222467
0.0997188
0.0217692
0.023877
0.0393269
0.0220885
0.0253674
0.0229624
0.625899
3.09565
0.0656855
4.98778
0.0481487
14.4727
0.0883317
3.73491
5.68519
0.0491499
4.76674
0.252327
6.93609
0.0217938
0.0219665
0.0219772
0.0254026
3.96126
0.0217683
0.0222758
0.086589
0.0218323
0.0433503
0.0424722
0.0222176
2.98458
0.0218796
0.0219712
0.15832
0.0216906
0.203219
0.43174
0.0221116
0.0226845
0.0218108
0.0621422
0.0218274
0.0236332
0.635646
0.0219828
5.87227
0.0221024
6.0524
0.024324
0.105354
0.0219549
0.0679103
0.0383271
0.0221717
0.0221333
6.09253
0.021948
8.99513
7.67987
0.0227347
0.0221056
0.0220803
0.0215715
3.12346
0.021947
6.31695
10.2323
0.0454305
7.91381
0.02184
0.0218905
5.44005
5.45829
0.0248565
0.0220016
0.0219282
0.0217777
0.0230395
0.0449905
1.57534
0.0256538
7.83336
2.95187
3.96582
0.0335656
0.0218737
10.323
2.25432
0.0315306
0.0219581
0.0221237
6.08618
0.0220094
3.67445
0.0648717
0.0222528
0.0281603
0.0215875
0.0328566
0.0272292
0.0218365
0.021517
0.0229222
6.78653
0.0222229
0.0533259
5.80292
0.022071
0.0219052
0.0455312
5.71421
0.0306092
5.36523
0.0224439
0.0215638
0.0234534
8.7284
0.458608
1.82029
0.0219363
0.0324721
0.021983
5.24056
0.0216574
3.01425
0.0459865
2.57344
0.0221914
0.0219228
0.234948
0.0219163
8.35412
0.02195
3.77289
0.0222584
0.0217783
0.0240153
0.811125
5.01832
0.0268555
0.0223946
0.0225002
0.0219126
0.0216793
0.022282
0.106797
0.0224167
3.90551
0.0240957
5.23191
0.0218389
0.0215896
0.671617
5.45016
6.44055
0.022445
4.12276
0.02186
6.49969
0.0224999
0.199037
0.0218043
7.19004
0.0218791
0.0270303
0.0220485
0.0218988
0.022262
4.81025
1.1138
4.0731
0.0332453
0.0257762
0.0248919
0.0219901
0.0216691
0.0217585
0.0231052
0.18988
0.0220317
25.9244
0.130328
0.0219989
0.0225918
9.98112
0.103267
0.0233758
0.0247571
0.0328397
5.19457
0.0512215
10.491
0.0534722
0.0715245
0.159393
0.0219839
0.0218614
0.0806108
0.0409358
0.0218137
3.40439
0.0288559
5.16637
0.0224017
0.323287
0.0344119
0.0634926
0.0274385
0.0220593
0.67468
0.0219219
15.8411
0.022002
0.0220526
5.2409
0.0309456
0.0263549
10.9961
0.0218586
0.0895742
8.60102
0.0219436
0.0669686
6.99187
0.0229385
0.0218683
0.0219321
0.0238896
0.0238181
0.071509
4.30579
0.0230486
0.0265017
4.41639
0.0215716
8.15041
0.024294
0.0234544
0.408621
6.89969
0.0217472
0.0219028
0.0236981
0.0216982
0.0216781
7.31556
0.0222699
0.0265569
0.0215966
0.0568379
0.0217286
0.148119
0.770132
0.0227144
4.59999
0.0219362
0.0234668
0.0218898
4.84844
0.0282349
0.0218658
0.0219954
0.0220896
0.0218769
0.102123
5.76467
8.18878
9.4757
0.0221868
0.0224104
0.0710421
0.0221762
0.0216635
1.90377
5.16946
0.0242138
0.0219095
7.77691
0.022227
0.0221863
3.88834
0.0779549
4.25612
0.0232729
0.0218655
4.96923
0.022139
0.034179
0.022224
0.0290881
0.0219787
0.0787396
0.196273
0.0394117
0.0221014
10.7723
0.0227809
0.0218719
0.0221625
0.0220115
0.0219194
0.0220834
5.56144
0.0223972
4.32051
0.022207
0.0273554
5.63578
0.0218043
0.335846
0.0233455
0.0218001
0.0238513
0.0673661
0.0220378
0.0218159
0.0221283
0.0219642
0.0513784
0.0216896
0.0225059
0.0288743
0.022094
0.0326878
12.5843
3.71808
3.41172
7.18841
0.0922885
0.0656696
8.44773
3.83953
0.0218427
0.0223016
0.0216386
0.159788
4.83123
0.0409126
0.0249952
0.0215917
0.0218969
0.0221598
0.02317
28.193
17.5625
9.77241
0.0670821
0.0221052
0.0222348
0.0221569
6.35449
2.22816
0.0218
2.63822
0.0216707
0.0325529
0.0229269
0.0407696
0.0315601
0.427151
0.0233378
0.133801
0.0216238
0.021904
0.0818207
0.0219242
0.022051
0.0529996
0.199149
0.0221304
0.0772104
0.0219268
0.0219748
0.0218021
0.0219545
5.37751
0.029376
0.0231841
0.0221098
4.66423
0.173763
0.0220759
0.0330827
0.0300385
5.2401
0.987374
5.62723
0.203433
0.0556711
0.116075
0.128823
0.0809635
5.10412
0.0215834
0.0219117
0.0219079
0.209554
0.0221899
10.2124
0.0217803
0.0221605
5.31866
0.0560772
0.0224115
0.0731075
0.021951
0.0232551
0.845299
0.278041
0.0219445
0.43894
0.149278
19.1633
4.95419
0.0219973
6.19029
0.0219228
0.0665315
0.0218696
0.0218429
4.95074
0.045133
0.0235189
0.0219159
4.91993
0.02526
4.63635
6.07492
0.0222683
0.0216455
0.024658
5.54022
0.243383
0.0389689
0.0331158
0.218322
0.0219792
0.0224378
0.0217962
0.0218798
0.0234321
0.0560243
8.98841
0.0633157
0.10828
5.16834
0.0219901
2.43428
0.15174
0.0536038
0.0221936
0.0219819
0.021914
0.0219196
0.0219436
23.3485
0.173052
5.21959
0.0635683
0.0966463
0.0222449
0.100575
6.30438
0.0237219
0.0247422
0.0218442
12.3628
3.87958
0.0953303
0.100943
0.0219776
3.42164
0.0226909
0.0245089
0.037756
0.0700632
0.0216449
0.0658094
5.01806
0.0222776
27.9375
20.9152
5.83655
22.3952
0.0351623
0.302095
0.0549967
0.0488824
5.15785
0.0218141
0.033156
0.0216775
0.0222505
6.87635
0.0229174
6.11213
0.0217015
0.0218301
4.85771
0.0219287
15.7966
0.0227671
0.463558
0.0231523
0.0221844
6.17223
0.0245294
0.0612737
0.0218755
0.0217709
0.222478
0.218964
0.0220604
0.0282581
0.598957
0.057503
2.41663
0.0222604
0.0219478
0.0215246
0.0219211
0.0257782
0.0587646
0.0216355
5.84775
0.0218763
0.0220436
0.0615619
6.34434
0.187043
0.0279075
0.0217682
0.0224806
0.0829457
2.08484
0.840612
11.8984
0.0258484
0.0359825
0.273002
0.0218505
0.0557451
4.57988
0.0219409
0.202038
4.293
0.333436
0.338372
5.62401
0.0737723
0.0221134
1.83339
0.0265421
0.0397814
0.156414
0.0218776
0.107385
0.0218659
0.0219822
0.047287
7.5779
0.0347318
0.021943
0.040615
7.42784
0.0865186
2.87405
0.0219162
4.03484
0.0216525
0.0722836
0.139287
0.0219183
5.38835
0.021804
0.0218398
0.022072
0.0219347
5.76788
0.0708753
0.0222524
5.37084
0.0220826
6.05848
0.0216632
5.17692
0.0491839
0.270952
0.0248018
0.0219094
0.0216819
0.0220618
0.303221
0.122807
0.0221209
0.0406805
2.62527
5.91035
0.0401231
3.71301
6.39108
0.0219162
7.9622
0.021789
0.244238
0.0220026
0.0220998
0.0220136
0.0768374
5.56496
0.222433
0.0993902
5.07653
0.459104
0.25132
4.74537
0.0218713
0.0798787
8.3407
0.0215366
0.0469799
5.49828
0.217374
0.0218875
3.80971
0.0666035
4.77496
4.93195
0.0269422
0.227984
0.0247237
0.021872
0.0215881
4.91138
0.193098
0.361562
0.180974
0.0219061
4.13021
0.0346479
0.0215088
0.0225024
0.0635931
0.0238816
0.0222157
0.0222712
0.511548
0.0218965
0.0452157
10.8504
0.0216833
0.0218909
3.10797
0.0218303
0.0434891
0.0267592
0.129105
2.7171
0.0219228
0.0564819
0.0279512
0.0770041
0.0276601
0.0245808
0.0865582
0.704335
0.0508312
5.91661
0.0867865
0.0221384
0.216596
4.42315
0.0695318
0.0217848
0.0220525
0.191241
0.023024
6.57035
0.715154
0.0283192
1.95966
0.023439
0.19869
4.34745
0.0219727
0.0221284
0.0220719
0.0219905
1.40029
0.397817
0.0248181
0.203365
0.193786
0.0458211
0.0220472
0.0237672
0.0602892
0.0219306
0.0218679
1.55952
0.0226609
1.85719
0.0218204
0.0219988
0.0222713
0.0681439
0.0382429
0.0406849
0.0221251
0.0229533
6.03979
1.96673
2.98799
3.13425
0.0262015
0.0224555
6.3608
0.0997534
4.46956
0.0604426
0.0218782
0.0541171
0.0268962
0.0223275
0.021794
0.106688
0.0745724
5.28509
0.0898476
0.349577
0.0222099
0.022979
0.0219119
0.100727
10.3387
0.196625
3.71706
0.0218575
4.99545
0.0227537
0.0219715
0.0244414
0.0221734
0.372014
0.0219548
0.0743762
0.0216783
3.1247
0.0347256
8.43702
0.0224374
0.022008
0.0244875
0.0217133
0.0926449
3.77103
6.31872
0.0545053
0.0216329
6.58526
0.0599844
0.021925
0.0662666
0.0217409
0.0239435
0.0215221
0.694802
0.024812
0.0678653
0.0545207
0.0217675
13.9502
0.0216359
0.0249228
0.0223684
0.0235984
0.0217477
0.0219173
0.0306294
0.0222813
0.0257917
0.0216936
0.0239254
2.21556
4.40871
0.0223946
0.0405271
5.9978
0.0219154
0.0221582
0.0312699
0.100977
0.0219339
0.0599086
4.62743
0.0230974
5.82627
5.4061
0.0219365
0.0226413
0.0606203
0.0214661
2.31664
3.9078
5.09983
0.0229617
0.0279998
0.0214927
2.01112
0.0286646
0.4142
0.0222488
0.128351
9.20005
0.0726208
0.0234624
4.29096
7.36042
5.15918
0.0224639
0.0217621
7.14077
2.69941
0.021809
0.0221027
0.548634
0.0226002
0.258558
2.39698
0.0217402
0.022706
4.7532
0.0647612
0.0225698
0.021502
0.0430819
0.0222835
0.30048
0.0218763
0.0220837
0.0219569
0.0230495
0.0220677
0.110372
0.0217508
0.0257119
3.97981
4.86684
7.94004
0.0218229
0.071874
0.0714932
0.0220947
0.0247062
0.038273
0.0219094
0.024086
5.4973
0.0561298
0.0219423
0.0220007
0.0217765
5.42164
5.48006
0.0217253
0.0222667
0.0219864
0.0537674
5.82987
0.0237078
0.0789056
0.0221439
0.0643938
0.0266665
0.350598
12.3508
0.0222996
0.657747
5.77933
0.0427254
0.0218527
0.042744
0.0291396
0.0441742
0.0265321
0.0218085
0.104016
0.02727
1.50505
0.0424238
0.0222225
0.0223804
3.80195
0.0221575
0.0233921
0.205279
0.0432697
6.89333
4.94926
0.0217912
0.330995
0.614457
0.3738
0.0454437
0.0238986
0.0220656
5.47939
0.0459545
0.0218272
0.080182
0.0657497
2.58259
5.59602
0.0220661
0.0285607
0.0222598
0.22535
0.832012
0.0221841
0.0650541
0.0256247
0.0233386
0.0221872
9.91284
0.0680052
0.0219386
0.0237548
6.03971
0.0222608
0.0220108
0.0256989
0.0720886
0.0219615
0.0221615
0.0236533
7.73568
0.0301496
0.0218269
0.0218301
0.0218768
0.152328
0.021998
0.0219429
0.323924
6.62185
0.0218631
0.0222633
0.0531386
0.0293124
0.101001
0.0221235
2.17237
0.0219061
0.0226957
0.0290321
6.37576
12.0798
0.362781
0.0395794
5.47234
1.9814
9.35022
5.42092
0.0241946
0.0219405
0.0216927
0.0403203
0.0218866
0.0219413
0.0218595
0.185343
0.0218876
6.94367
0.0316957
5.95535
0.0218906
5.15018
0.0219773
0.0284
0.0216951
0.0230229
0.0422623
0.803875
0.0222391
0.0218468
0.0250294
5.44684
0.0219078
0.0383217
0.0221934
0.0407223
5.56111
0.303469
4.17184
0.0307517
0.241931
0.0221601
4.84774
11.215
0.0218811
5.86158
1.94245
0.0218933
0.02152
0.0456563
0.0304366
0.043701
0.0216968
6.22257
0.0336399
0.0656244
0.0216004
0.0219558
0.0261303
5.86588
4.06382
5.46574
0.0419321
5.59332
0.0399672
10.234
0.0219505
2.95783
0.0219735
0.0272643
1.41984
0.0233439
0.218366
0.0218843
0.0253785
6.23226
5.88687
0.0219659
1.90594
0.0220021
6.11206
0.0218005
6.29361
5.00934
0.0218176
5.54948
0.027544
5.56864
0.0219695
0.0265063
0.0229754
0.0933145
0.0220228
0.564138
0.0218051
6.04795
0.0852387
6.13182
0.0221551
0.0216933
0.271023
0.0230903
0.0315024
0.0218833
0.0782478
0.0241084
0.0219586
2.32322
0.0220609
0.0219359
0.0223352
0.0221246
3.92621
0.0409064
0.0219538
5.61455
5.42687
0.76587
0.0216839
0.0938558
4.18633
0.0218419
0.0259128
0.022415
0.0220468
0.0219513
0.0219824
0.0275832
0.0275631
5.33778
0.329307
0.256109
0.0222764
0.0219528
3.91484
0.0338976
0.0219222
0.0223009
4.84209
5.67466
0.0219781
5.9666
0.038667
0.618703
0.0222785
5.44009
0.0217539
0.0227982
0.0221016
0.0218858
0.0235211
6.27565
0.0217366
5.23069
0.165305
4.9447
3.59573
0.0221033
0.0219952
4.65961
0.0751371
0.0964627
0.021977
0.0999254
0.0222319
5.60616
5.54553
3.65047
0.022056
5.70442
12.3037
5.00808
0.502644
0.0255097
0.130579
0.0218658
0.379837
5.89927
0.0286681
4.06686
0.0218173
0.0220424
0.0719266
4.15058
0.0429205
0.292708
0.0219889
9.04478
0.0385205
0.0503775
0.0218087
0.0401261
0.289712
0.0220392
0.0386631
0.0394472
0.239998
0.021579
0.0219006
4.82661
5.33934
0.0239513
5.01744
0.0390524
0.0219956
8.30582
8.91121
0.0220979
0.542787
0.0217064
0.0220639
0.0455881
5.01929
0.0222502
4.94596
0.0236008
0.0219256
5.36723
0.0221455
0.0619978
0.021855
2.3106
0.0220278
5.44017
0.021776
0.0601331
0.021846
0.0281155
0.250674
5.73432
0.0501145
8.60508
0.0278744
5.18043
8.4579
4.04686
0.0218696
9.16487
11.144
2.84721
0.339546
0.0224715
0.02185
0.0219471
9.35915
0.021935
0.02204
0.302102
0.02224
7.86456
0.0230337
5.5863
0.0219437
0.0222335
0.103751
0.0215173
0.0507432
0.0218571
0.0830753
0.0801173
1.89369
0.0218129
0.0218929
5.93181
13.5971
0.0222443
0.0301876
0.0348878
0.0226913
7.27359
5.37414
5.81653
0.176442
4.89307
4.02768
0.217227
0.0218975
0.0217911
0.0228397
0.0219396
0.0323889
6.84398
7.11409
0.0220903
0.0238691
0.022651
3.06067
7.59579
5.96717
1.80725
0.0220699
2.02212
5.34474
0.0271951
4.5894
0.0470516
0.0220689
6.16067
3.76074
5.24266
0.0222058
0.0229533
0.0432742
0.414211
0.0218225
0.0220646
0.0222421
0.0218072
0.0220419
6.43983
0.0240885
0.0216921
8.40553
0.0221062
5.76639
0.0410352
5.58712
0.329218
0.0219801
6.21208
0.169644
1.06207
0.022738
0.0283102
0.0220156
0.0231985
6.42131
0.149462
0.0798687
0.0225085
0.0219348
0.155376
0.0232537
0.0220643
0.0276146
0.0219335
4.99423
0.0220011
5.08295
8.32509
0.0232797
0.0219822
8.00242
0.0218672
0.0216724
1.24726
0.0251584
0.0237483
0.0807229
2.28977
5.91227
0.0335343
0.0238172
0.0223207
5.16859
1.91994
0.0234007
0.0342159
0.0218744
0.0218028
0.0240739
0.0217124
0.274183
0.0292974
0.0220198
0.0222188
0.0220957
0.0218928
0.0218344
0.0219048
3.04744
3.98787
8.33832
0.446873
2.73205
0.475681
0.0243514
5.16774
4.23106
3.44591
0.0220947
0.0216697
3.18602
5.31198
0.373339
0.216231
7.58512
0.0220971
0.0219251
4.08803
0.0218437
0.146842
0.162602
0.0225193
11.2768
3.86837
0.0222598
11.2057
6.79297
0.167544
1.06782
0.0222017
4.14816
0.559205
6.4621
0.0218521
0.0727952
2.0227
0.0218975
0.0392984
0.0217302
0.0516633
0.0220919
6.16851
0.455735
0.0220169
0.0232089
0.0223621
4.9598
0.0426161
0.0221666
0.0222326
4.74893
0.0219109
0.0232092
0.127087
0.596456
0.0225054
0.0977866
0.0517691
0.0219455
0.134503
0.0219349
0.0219566
0.0264664
0.0219663
0.0294571
5.41658
0.250567
0.0220024
14.0137
2.84766
0.26214
7.10388
0.039682
0.0234733
5.47268
0.0260289
0.0243036
0.0472276
0.0888074
0.0218622
0.0216778
0.0221112
0.510239
4.90598
6.06506
5.30662
0.0218231
0.0265374
0.0751135
0.1874
5.25417
0.0221381
4.28419
0.0224123
7.38763
0.021567
5.36034
0.022786
16.1183
6.76464
0.092568
5.17238
0.0579804
0.021837
0.0899166
5.45762
16.3794
0.0259826
0.0223521
0.0219621
0.0220975
0.0297144
0.0222872
0.0236539
0.0218193
0.0602319
0.0220107
5.87526
0.0222246
4.85076
0.0216803
0.157764
9.89065
0.0229671
1.91893
0.0220182
0.0279922
0.0221261
0.0221995
0.0219218
0.342783
0.210742
0.0218017
0.0242923
0.0219693
4.14603
0.0311271
0.488915
0.21595
0.0219778
0.0472128
0.0226468
0.0229469
0.0457328
0.0221068
0.057631
9.5272
0.0220322
5.28902
0.0276295
0.0218842
0.0217244
8.54992
0.0219943
5.84511
0.183866
0.0222688
2.73747
0.120017
4.61362
0.0259435
0.0250222
0.0221034
0.0652652
4.17878
0.0221373
0.0459926
0.0220707
0.0927492
3.17907
1.92601
6.55584
23.5366
0.0291748
2.11754
0.0221086
4.85379
0.486674
0.0259737
0.493785
0.0659751
0.0215731
0.0499669
0.0220053
0.0217665
0.0240272
0.0219415
1.69568
2.57948
0.146937
2.65174
0.022077
3.32559
0.0220619
0.0219708
0.0433242
5.2039
0.0217322
5.38783
0.115635
0.100531
7.08588
0.0221955
0.0464032
6.55009
0.0457118
0.0219271
0.482682
0.0219597
0.0221308
0.0222429
2.48044
11.1098
0.026058
0.0221021
4.69477
11.4477
0.0222737
0.0222393
2.70503
6.83528
0.0221941
0.372384
0.118103
0.0218797
0.0294717
0.0217018
4.7951
0.0219841
9.74736
6.62374
5.8659
0.0253191
0.0332532
0.0217958
0.0218012
2.69977
0.0218427
8.09563
4.85882
0.0765164
0.0218485
0.0216903
0.727633
0.258065
0.0506186
8.1934
0.107987
2.21981
0.0229746
5.0357
3.53277
0.0269042
0.482097
6.29152
4.35896
0.0220585
8.173
0.0217419
1.18045
0.294988
1.58281
0.0215867
0.0410356
0.0221087
1.11765
3.62986
0.0226221
0.0227899
10.1245
4.51898
0.0219831
5.15407
2.85166
1.58436
0.022216
6.04721
0.0221527
6.57569
0.022114
0.022687
0.0222021
0.0219788
7.61401
0.225757
0.0217214
3.76854
5.44746
0.0215418
0.0216907
0.0410978
0.0695468
0.0931031
0.0495013
26.3469
4.53536
4.97785
6.41375
0.0904131
0.0230669
0.146066
0.102076
5.25066
4.18063
5.41631
0.0932898
0.0507715
0.024792
5.57234
0.100937
0.534256
0.0221852
0.0255672
11.4478
0.0220962
0.0284282
0.549234
0.0244005
0.0422467
0.0220001
0.0231782
6.28308
0.388363
0.0216364
0.0250895
11.2166
0.227414
0.0296914
1.95488
2.57902
0.0453231
0.179437
4.85622
0.0226719
5.39168
0.0992562
2.25346
0.022146
0.0214706
2.01687
4.88267
5.09741
7.30519
3.6433
0.0424788
0.0795698
0.0238675
4.84067
0.0218664
0.0220291
0.0450457
0.0821197
0.101093
6.00897
0.0228695
5.10884
5.36311
0.0222855
0.0917941
0.0232555
0.240535
0.139156
0.0407609
5.63351
5.15027
3.92301
2.4191
0.0324158
0.0219582
0.0225877
0.0272964
0.96958
6.92804
5.42736
8.63156
0.0532078
0.0218052
0.301081
0.0407826
5.15148
0.0220984
12.1121
0.0581146
5.99467
0.0220945
3.68668
0.102158
0.0669873
1.75144
0.0217191
2.68711
5.33583
0.0218181
0.0884066
5.19562
0.0224047
0.331802
0.0231776
0.0229818
0.0222573
4.62781
0.0459373
1.6754
0.0285796
8.15147
0.0217495
0.0215208
0.0218818
0.0220656
0.0219578
8.2945
0.425174
5.48287
0.0222106
0.0217735
7.27826
0.0279044
3.65709
0.09048
0.0219757
0.881084
0.0299803
0.0374642
5.86339
0.0266716
40.2943
0.619191
0.0277499
0.0216222
0.293832
0.0215346
0.667941
8.71578
0.187728
0.0217921
7.09815
0.384785
0.0219808
2.06057
0.0221313
5.92189
5.53304
0.0279347
0.0252298
0.0721306
0.039315
0.0222559
0.0216339
0.0219772
18.2742
0.0252038
2.14232
0.784247
10.6736
0.327139
0.1348
0.0219913
0.203618
8.19834
0.0253092
0.0218725
0.0239443
0.0222287
8.95775
0.0808224
5.48298
0.0220023
2.88793
3.38546
4.96002
7.14749
0.0219839
3.85351
1.96017
0.0220014
0.0222853
2.20347
4.1804
0.0259039
0.21704
3.12416
7.21694
0.0291158
0.0229371
0.507842
0.0429894
0.023141
0.0277845
0.0221219
0.0894124
5.34281
0.0631177
0.0228755
11.2643
0.132069
0.0216476
0.179295
0.258051
0.0763333
0.0496123
0.0216578
0.0217962
2.18492
3.78259
0.0398088
0.0218344
4.25613
0.579575
0.295976
2.16963
0.023479
0.0216541
0.0220992
0.022199
0.0299182
5.0056
0.0917017
0.0224163
0.141031
0.022071
5.31516
0.0231044
4.0424
0.0229904
1.13997
0.0496643
5.01643
0.0219304
0.0220757
0.0218032
3.59979
0.0260901
5.19237
4.38173
0.052363
0.0222187
0.027834
0.0308497
0.0222598
6.14262
0.0216011
4.5297
5.04331
1.56136
0.0284095
0.0219779
0.0222775
0.0220208
0.022226
0.0904489
7.89575
5.76004
21.6388
0.729279
2.68902
0.0235678
0.372015
0.0692779
0.0474751
0.021974
0.0216459
0.248288
0.0230641
0.0216421
4.64828
0.318912
0.602725
6.49051
3.83888
0.0220998
0.0221287
0.0227679
0.0410693
4.10045
0.022062
0.0442824
0.555461
1.2046
0.0436623
0.022163
0.382984
0.0271106
6.43426
0.0220705
0.0217308
0.0219926
0.0219717
0.0227558
5.48102
0.368997
0.0908369
0.1306
0.0889931
0.0218693
0.047724
0.0226475
0.022103
0.0269586
6.69443
5.5582
0.0218129
0.317755
0.0218585
0.0550693
0.0231239
0.0280069
0.0221051
0.0873271
0.0548814
5.08135
10.5627
8.37542
8.53971
24.7836
5.10571
1.49109
0.0217174
6.33549
0.0217181
7.16852
0.0255381
4.10898
0.0220931
0.0894007
0.0220525
0.0217632
0.0240213
0.0220135
1.69675
0.0216528
0.0219604
0.0216356
0.0217053
0.0218068
0.0300191
0.0221268
5.20311
0.0505397
0.0219608
4.37953
0.0220389
0.0218547
0.0698436
6.4461
0.0396035
0.0284113
0.0217654
0.021604
5.06516
0.0221737
0.025713
0.170304
5.84742
8.83413
5.14317
6.21008
4.97974
18.7797
3.22829
8.36826
0.0838066
3.18348
0.0222278
0.0220258
0.0673785
0.0261524
2.53233
0.0221273
0.0447348
0.046276
0.488736
0.0897951
0.0400597
0.0234287
0.0219855
0.0462978
0.0220768
0.021721
0.553391
0.022232
5.20195
5.94546
0.101193
0.0217831
5.18679
0.0230863
5.28406
0.713638
0.0218366
8.24892
6.03836
0.0624183
0.0673513
0.0307411
4.03969
3.8913
0.0237142
19.7605
0.0527109
0.0414984
6.05169
0.0221304
9.91452
0.0220382
0.0221892
0.0218187
2.01023
0.253423
0.414156
4.88301
0.0252498
0.0461528
3.29368
0.0217911
6.89063
0.0216856
2.01127
4.79497
10.3324
0.112805
9.75401
0.0219851
0.0221539
0.023825
6.30883
0.0446734
0.022442
0.0219687
0.0214647
0.0218903
0.0688729
0.173948
0.0803586
0.166128
0.0596951
0.0220273
5.09073
0.0296735
2.15421
0.0226014
0.0217479
0.0225859
0.0222305
0.0379348
0.347268
4.94414
0.674959
6.3918
0.497555
0.0218219
1.78302
0.0215126
0.0220181
0.022967
0.0217612
0.0310349
0.0219888
0.069464
0.0218249
2.01469
0.022277
0.0224329
0.021753
4.17072
0.6178
0.10164
0.0215487
4.56945
0.149458
0.0755206
4.55044
0.0610723
1.47701
0.0220781
1.9815
0.192523
0.0297949
1.49132
0.0325865
0.0427672
0.784541
0.0280715
17.6119
0.108182
6.58207
2.91844
0.0401819
0.02956
0.0219852
5.13895
0.0220304
3.08105
0.0219182
0.0218961
0.021527
0.0311104
7.02795
0.0238781
0.0219166
0.0221144
0.0426569
3.5308
0.0979572
3.36443
0.215348
0.0792732
0.0219913
0.057222
0.0221919
0.0228567
6.63269
0.0322604
0.0377388
0.13452
5.85281
0.154204
0.0422498
0.0897168
0.0691893
0.0247729
8.54265
0.022239
6.65738
0.0251965
11.4814
0.0933366
6.50341
5.89259
0.0844096
4.83194
2.29304
0.154965
0.329161
0.0843853
0.367001
0.0220288
0.076245
0.0563509
10.6809
0.0230175
2.49721
6.47336
0.0215039
0.0217599
5.72002
0.02229
0.0218651
0.021621
14.9443
1.88694
5.66127
0.0265701
3.55454
0.371262
6.98954
1.63245
0.0855195
0.0220612
25.1947
3.4187
1.34047
0.487917
0.0219579
0.021835
0.0220137
0.0221128
0.75544
0.139769
4.04717
0.0963866
0.022144
0.0219598
0.0222885
0.0316053
11.8655
0.0237604
8.0939
3.77718
0.0517823
0.0221222
4.6467
0.165665
2.9823
0.0219512
21.6308
0.093936
0.0221556
6.09875
4.33401
0.0231001
0.0217643
0.0221049
0.0222559
0.0219836
0.154335
0.0571994
0.32348
0.0435121
0.0225842
0.0313463
0.0220866
0.0265435
0.0219604
7.90699
15.6718
0.0355219
0.0220385
4.88377
0.0216835
0.167601
0.565297
9.21692
3.98236
6.88744
0.0220595
0.0222881
0.0221249
0.286515
0.0226478
2.10679
0.0256129
0.0218886
0.0219929
0.167528
0.176308
0.0220747
4.21176
0.0844778
1.96606
10.8017
0.0221182
0.644095
3.72189
0.174515
0.0222874
0.0219793
0.133975
1.225
19.374
0.0232592
8.02765
0.0217427
0.0905669
2.4509
0.226186
0.0217247
7.02045
5.15706
6.75562
8.072
0.0222769
0.0222102
0.0859737
0.158464
0.0418515
0.0229816
4.50375
0.0233605
7.33241
3.93091
0.0218858
7.50804
0.0218493
0.0954626
7.11406
0.081842
0.0591285
2.14248
0.0243836
8.09447
0.0219797
0.782101
6.70042
2.45995
13.9389
0.0242434
0.051479
0.0217053
6.38955
0.0230469
0.0217369
0.0481749
0.0540536
0.0503416
24.0026
5.0211
4.03668
0.213046
0.0311851
0.0379211
0.0259002
0.0338959
30.5917
0.0233859
0.431876
0.0228787
5.18141
0.698485
0.0222041
0.0221645
0.0392531
30.1364
0.0427873
0.0216095
0.0218849
0.0304881
0.0271132
0.0280765
0.0256768
4.65202
0.0239008
2.62249
0.0705097
0.0219287
0.0697039
0.0672052
0.0414364
0.0218239
0.0220873
2.93484
3.9511
4.68513
0.0420399
0.0455132
0.0537562
0.046418
0.0219185
0.0235898
3.63148
0.0512114
0.023897
4.02322
6.52177
0.268415
4.72793
0.0824429
0.0226785
6.64172
0.0675202
4.11659
0.0219137
5.24516