/*--------------------------------*- C++ -*----------------------------------*\
| =========                 |                                                 |
| \\      /  F ield         | OpenFOAM: The Open Source CFD Toolbox           |
|  \\    /   O peration     | Version:  v2012                                 |
|   \\  /    A nd           | Website:  www.openfoam.com                      |
|    \\/     M anipulation  |                                                 |
\*---------------------------------------------------------------------------*/
FoamFile
{
    version     2.0;
    format      ascii;
    class       volScalarField;
    location    "150";
    object      omega;
}
// * * * * * * * * * * * * * * * * * * * * * * * * * * * * * * * * * * * * * //

dimensions      [0 0 -1 0 0 0 0];


internalField   nonuniform List<scalar> 
18355
(
0.0344116
5.06587
0.0218887
0.0216647
0.022357
0.076873
0.0219588
0.0543487
0.0231471
5.08413
0.0215218
6.36492
0.0992808
0.021973
0.0221092
0.0237841
6.93635
0.0217369
0.0220245
4.1153
0.0256836
0.0224667
5.89581
0.0223387
0.0246898
0.0221464
0.0220722
0.0231115
2.93564
0.0219571
0.0219547
0.0230428
0.0217347
0.0218088
0.0547566
0.0355974
0.0225311
0.159644
0.0230738
0.0215381
0.0219744
0.0860551
0.0218868
6.96178
0.0217987
0.186124
0.050192
0.0239085
0.0437678
0.0217559
0.0215534
0.0218336
0.0222771
5.22207
0.0220876
0.0220656
0.102134
0.0221281
3.28099
0.133531
0.0217607
0.0586826
0.0217178
0.0408767
5.84876
0.0328303
12.0699
0.0345912
0.0220786
0.0223729
0.0601793
0.0222556
0.155309
0.021797
0.0544404
0.0219522
5.796
0.023009
0.0273627
0.0218095
0.0219684
0.931481
0.0258079
0.0473445
0.0221395
0.0974141
4.48601
4.0872
2.74738
5.87444
0.345382
0.021825
0.0221108
0.0214831
21.9849
5.6614
0.0217735
0.0254549
4.98222
6.30459
3.89204
6.56114
0.0422353
2.17689
0.0225636
0.099581
10.3434
0.163013
0.0312618
0.473078
0.0219226
0.0229853
0.0221482
0.0229906
4.46209
0.0220001
4.67342
5.7966
5.22176
0.0412658
4.86385
3.17359
0.0229691
0.0609703
0.0217712
0.184126
0.0218326
0.022262
6.44564
0.0214868
0.0215599
4.21925
0.0451794
0.0252712
0.0410549
0.0222565
0.0219439
0.0215177
0.0219551
0.0802096
3.03904
2.05551
0.0223757
0.0219193
0.477799
0.0222965
0.0259547
5.91976
0.0234381
5.8416
0.022185
0.0222882
0.0502124
3.77953
0.0704159
0.0222693
3.87059
4.15551
0.0222662
0.0631277
0.0264496
0.0247378
0.0299284
0.0254326
0.216057
3.38715
10.2056
0.0430244
0.215671
0.0217678
2.28621
5.42379
0.0215232
0.0215288
0.0235573
6.70232
0.0522623
0.0221036
3.73375
25.2972
0.0723231
0.226165
0.0274024
0.0219122
0.259077
6.41927
6.21713
0.239889
0.0231896
8.70466
0.102874
0.0218887
0.0251972
2.66006
0.0496508
0.022342
4.48649
0.0270245
0.0365023
0.0215312
0.0227458
0.0241031
13.3856
5.97395
25.1206
0.0283989
3.05901
5.15953
5.30301
0.0365798
0.0219292
0.0221394
3.87072
0.0223035
0.0217715
0.817575
4.34577
3.8927
0.0221554
0.0233271
0.534934
0.0219427
0.0464493
0.0219152
8.82513
0.0221722
4.97592
6.53877
0.140431
0.0219129
0.0222722
0.0267867
0.0262948
5.14451
0.0226835
0.02214
0.0221112
0.178342
0.293465
33.8347
0.0306439
0.193355
0.0220068
0.0217812
0.0222752
8.80749
7.42326
3.28519
0.0678087
0.0264929
0.0227419
5.91621
0.0271881
5.48321
0.0221161
4.94992
4.43555
0.0643123
0.0219466
0.0219383
0.0312188
0.0673819
16.5085
0.0472358
0.0218289
0.0217714
0.0222677
0.215809
0.0903213
0.097352
0.0227112
8.96507
0.251164
0.0942988
0.0222242
4.48674
0.0218168
0.021988
9.4283
0.0217658
0.0219504
0.0995797
0.0219018
4.11044
0.0269157
0.0245658
0.0218376
0.0432678
5.74494
0.0230748
0.0216693
0.0219863
0.124317
4.41614
0.0222666
0.0222776
4.4842
0.0464653
0.0700472
0.302443
0.0219935
0.0656438
0.0225717
0.0222689
0.230726
0.238247
0.176824
0.13695
0.0214965
0.0857069
0.0224764
0.0220246
5.5997
0.0219068
0.209582
0.0847428
0.0221034
0.0215875
0.214296
24.4275
5.39746
0.0221399
0.0291381
7.90487
0.0216568
0.340899
0.0266987
0.0328511
0.332012
0.0214986
3.64775
0.0219858
0.0442583
0.0221146
0.0679955
5.40691
0.0222696
20.05
0.0350858
0.0220423
0.0473823
0.0610476
3.29534
5.09646
1.79925
0.022114
0.021714
5.77454
0.0763268
0.0221181
0.0224452
0.512856
0.25598
2.25499
6.03731
0.022096
0.0232039
2.70108
0.0219217
0.0226323
0.302131
0.037765
0.023796
21.2187
0.0222755
0.0459858
0.606167
33.6069
0.0216637
0.0219929
0.0219598
0.0217838
0.0682551
0.0217832
0.040774
0.0219637
0.0243966
0.0221006
0.0232308
0.0217924
0.0220386
0.0217852
0.0217797
0.0233731
0.142627
2.09528
0.0219142
4.57115
0.03512
2.0485
0.031244
0.0803891
0.0223182
4.16605
0.0225017
0.0220034
0.0221332
0.0216326
4.89028
0.0241323
0.02162
0.0417447
0.0402251
0.0219243
0.0216528
5.41727
0.0223244
0.021824
4.94561
0.0219057
4.24996
9.10971
0.277768
0.0255781
0.0225635
5.26005
0.0222448
0.021926
3.38808
0.0222686
0.021526
8.65508
0.0217909
5.18115
0.040902
0.0585737
7.19987
0.0224092
0.0219271
5.50681
0.0760935
2.3991
2.29584
0.0219709
0.0219204
0.0222506
4.18889
0.0450569
0.0220522
0.0222743
0.0222695
0.0479657
3.51245
0.0272731
0.0222274
0.0222745
0.0306414
0.363088
4.42915
4.94019
5.83168
0.056469
0.047138
5.70285
0.0219725
0.0218366
0.0219858
0.0219042
0.0651179
0.0220161
0.0215397
7.41654
0.0497383
0.0456084
6.04031
0.0590456
8.4825
0.021884
0.0217843
0.0219311
0.0219757
0.0222819
0.0222799
0.0219989
1.96952
0.0221488
0.0215336
1.8885
0.149859
0.0218441
0.0227752
0.0599542
10.0903
0.0232781
0.0217731
3.34376
0.0239465
6.85647
0.0271204
0.0217916
6.67809
0.150667
0.0217285
5.71954
2.48681
6.23466
0.021794
0.0217588
0.0254397
0.132352
0.0224181
7.54887
3.7878
4.12282
1.23962
0.0216244
0.0403211
4.40133
5.65753
4.59069
0.0221069
0.0269348
0.0265826
4.95854
6.15287
0.371598
0.0221828
0.0219526
0.0221245
0.0453722
0.0220048
5.17623
0.0270133
4.57908
0.0219652
0.0222439
0.0219012
0.0331696
0.0325377
0.368375
0.0219202
0.0966289
5.98006
0.0287876
0.0219447
0.0241373
0.030754
0.0222722
0.0322377
0.0379656
0.028795
0.130277
0.0226076
0.021725
0.0219904
0.0222784
0.041417
0.0237807
0.0590045
0.0218677
0.0223387
4.1829
0.0215092
0.0324883
0.0224177
0.15333
0.0246221
4.88375
0.0224311
32.6105
0.0260795
0.023782
4.46296
3.90033
10.9158
0.0288692
0.0238256
0.0218028
0.0219522
0.104619
0.0467437
0.0327042
0.0847411
2.03004
0.225615
0.0219233
5.76483
5.55558
0.022891
0.0219496
0.0330463
5.62803
0.031297
0.0222204
0.0628358
0.135279
0.0574902
0.0312667
3.78452
0.0251693
0.101372
8.13915
0.326344
5.44484
0.0555398
0.184152
0.0268862
0.0220649
0.0229281
0.0219443
0.372316
0.307204
5.41713
0.13278
5.19306
6.31362
0.0585378
0.0239214
6.64941
10.9646
0.0215321
0.17255
4.48921
7.64948
0.0274924
0.0216098
0.0250109
0.0253785
0.030322
0.0828983
0.021905
32.2904
0.0233733
0.0248738
4.93605
0.0218782
0.0330936
4.73831
0.0219335
0.0228155
5.54128
0.0217569
0.0950222
0.021508
4.47782
0.0292025
0.0390323
0.0331245
0.02554
0.123863
0.0245695
5.31988
0.0723125
0.0219204
9.3596
0.0394091
4.32953
7.4921
0.606381
0.351408
0.0219195
0.0216378
2.74704
0.024102
0.0328155
0.0222402
0.0271873
5.70081
6.64889
0.0419959
14.938
0.0604541
0.0238092
0.0216139
0.0222289
0.0427239
0.0844597
0.0216839
10.8667
0.0290177
0.0463219
0.0221027
5.49156
5.16056
0.0219565
0.0215387
0.0747572
0.0222464
0.0217264
3.4876
0.161563
0.0223548
0.0219468
0.152714
0.0443164
0.0274634
0.0669762
0.0220288
4.17425
0.0488537
0.0221543
0.349196
5.35737
0.0219559
6.54251
0.02166
0.0219373
0.0224368
0.0349239
5.33876
0.0346664
6.78062
0.0331479
3.74465
1.98983
0.0265443
5.37316
0.022003
9.94216
0.0228609
5.33369
4.92369
0.0221677
4.7497
0.0248948
0.0264456
11.1318
0.0841006
5.07475
0.0218131
5.01528
0.0219532
4.49549
0.0220705
0.0270064
0.0300517
0.0218045
0.0215452
0.0494053
2.91279
7.05379
0.021928
2.55101
0.0260419
0.021811
0.0221171
0.0281581
0.131113
10.9322
0.0334608
0.0220547
0.0270841
4.32433
0.0268434
0.0219098
0.0218041
0.0271751
0.0292899
13.3362
0.0218703
0.701109
0.0500132
4.78276
6.19401
9.00883
0.0215844
0.0545672
0.0218884
0.0223194
0.0273367
4.69175
0.0218325
0.021805
0.0217942
10.4022
0.0233508
0.0219465
0.0322213
0.0305336
6.35805
7.75699
0.0219295
0.0219711
6.15553
0.02214
5.41975
4.53656
5.21565
0.184221
0.212543
3.28953
0.0300147
0.022164
0.0217881
0.0219966
0.0223173
0.0221103
0.0223161
9.12231
14.5553
0.0222489
0.0990928
0.0217692
0.0238801
0.0393077
0.0220885
0.0253403
0.0229652
0.632141
3.09643
0.0655934
4.9866
0.0482494
14.5084
0.0914357
3.73593
5.68074
0.0489798
4.80324
0.250695
6.93363
0.0217935
0.0219666
0.0219772
0.0253951
3.96296
0.0217683
0.0222758
0.087296
0.0218323
0.0434832
0.0428912
0.0222176
2.97007
0.0218788
0.0219712
0.157084
0.0216906
0.203147
0.418665
0.0221096
0.0226845
0.0218108
0.0625799
0.0218274
0.0236389
0.659255
0.0219828
5.87031
0.022104
6.05066
0.0243168
0.10416
0.0219549
0.0680113
0.0382823
0.0221717
0.0221341
6.08987
0.021948
8.99232
7.67807
0.0227378
0.0221056
0.0220803
0.0215715
3.11946
0.0219471
6.31477
10.2192
0.045515
7.91308
0.02184
0.0218905
5.43743
5.45475
0.0248671
0.0220017
0.0219281
0.0217777
0.0230377
0.0450699
1.43078
0.0256253
7.84431
2.95597
3.95413
0.0336926
0.021874
10.3275
2.24646
0.0315677
0.0219581
0.0221231
6.08063
0.0220095
3.67206
0.0644573
0.0222528
0.0281675
0.0215875
0.0328904
0.027218
0.0218365
0.021517
0.0229202
6.79034
0.0222229
0.0532552
5.80414
0.0220704
0.0219051
0.045662
5.77394
0.0306587
5.36382
0.0224444
0.0215638
0.0234591
8.72828
0.446557
1.82211
0.0219363
0.0324143
0.0219832
5.23991
0.0216574
2.99972
0.0461811
2.56909
0.0221914
0.0219228
0.239359
0.0219162
8.36138
0.0219507
3.81975
0.0222584
0.0217783
0.0240171
0.860864
5.01719
0.0268258
0.0223941
0.0224992
0.0219117
0.0216793
0.022282
0.106383
0.0224162
3.90837
0.0241339
5.22921
0.0218387
0.0215897
0.644147
5.44663
6.44084
0.0224448
4.12064
0.0218603
6.5041
0.0224992
0.199423
0.0218042
7.194
0.0218791
0.026993
0.0220485
0.0218988
0.022262
4.81697
1.12094
4.07254
0.033281
0.0257586
0.0248855
0.0219901
0.0216691
0.0217585
0.0231019
0.18527
0.0220326
25.9487
0.130689
0.0219989
0.0225863
9.93177
0.102304
0.0233749
0.0247676
0.0327848
5.19318
0.0511314
10.4899
0.0536054
0.0711606
0.159405
0.0219839
0.0218613
0.0812288
0.0410969
0.0218137
3.41989
0.0288723
5.16603
0.0224059
0.311402
0.0343546
0.0641652
0.0274373
0.0220593
0.664726
0.0219218
15.8659
0.022002
0.0220526
5.23813
0.0309972
0.0263357
10.9933
0.0218588
0.0908001
8.60072
0.0219435
0.0670752
6.99175
0.0229467
0.0218679
0.0219321
0.0238867
0.0238178
0.0720158
4.30679
0.0230471
0.0264942
4.41379
0.0215716
8.14902
0.0242888
0.0234587
0.400206
6.89992
0.0217472
0.0219028
0.0237077
0.0216983
0.0216781
7.31422
0.0222699
0.0265642
0.0215966
0.0561248
0.0217286
0.146381
0.745328
0.0227159
4.60357
0.0219362
0.0234762
0.0218903
4.85148
0.0282295
0.0218658
0.0219954
0.0220929
0.0218768
0.103577
5.76452
8.18793
9.47453
0.0221867
0.0224091
0.0712084
0.0221768
0.0216635
1.89249
5.17192
0.0242223
0.0219092
7.78057
0.022227
0.0221863
3.88851
0.0782542
4.24821
0.0232749
0.0218655
4.96813
0.0221394
0.03423
0.022224
0.0290975
0.0219787
0.0798021
0.196525
0.0394092
0.0221014
10.7723
0.022774
0.0218719
0.0221625
0.0220114
0.0219194
0.022084
5.55829
0.0224005
4.32842
0.022208
0.0273322
5.63147
0.0218043
0.346527
0.0233396
0.0218001
0.0238728
0.0673054
0.0220378
0.0218159
0.0221283
0.0219642
0.0515722
0.0216896
0.0225062
0.028869
0.022094
0.0326853
12.5797
3.71887
3.39845
7.18802
0.092766
0.0663708
8.446
3.84115
0.0218427
0.0223032
0.0216386
0.156047
4.831
0.0406026
0.0249965
0.0215917
0.0218976
0.0221598
0.023171
28.1424
17.5719
9.77122
0.0666498
0.0221052
0.0222348
0.0221569
6.35441
2.23094
0.0218
2.63599
0.0216707
0.0325546
0.0229274
0.0402243
0.0315267
0.424257
0.0233323
0.13139
0.0216239
0.021904
0.0825483
0.0219242
0.022051
0.0531169
0.195713
0.0221303
0.0780931
0.0219268
0.0219748
0.021802
0.0219544
5.37815
0.0293825
0.0231806
0.0221103
4.66736
0.172797
0.0220759
0.0331159
0.0300723
5.24001
1.03223
5.62495
0.204213
0.0556594
0.115207
0.130593
0.0822814
5.10311
0.0215835
0.0219117
0.0219079
0.207701
0.0221882
10.2123
0.0217801
0.0221614
5.3156
0.0560375
0.0224093
0.0731756
0.021951
0.0232552
0.834688
0.287767
0.0219445
0.472639
0.15113
19.167
4.96097
0.0219974
6.19073
0.0219227
0.0662964
0.0218696
0.0218429
4.95145
0.0448966
0.0234965
0.0219159
4.9187
0.0253112
4.64936
6.0793
0.0222683
0.0216456
0.0246641
5.53703
0.236141
0.0389649
0.0330642
0.214231
0.0219792
0.0224374
0.0217959
0.0218797
0.0234351
0.0558484
8.98767
0.0631467
0.107309
5.16719
0.0219901
2.4302
0.151679
0.0533645
0.0221936
0.0219819
0.021914
0.0219197
0.0219436
23.3386
0.174386
5.22628
0.0635617
0.0972595
0.0222449
0.10169
6.30502
0.0237219
0.0247432
0.0218442
12.3629
3.87933
0.0950204
0.10134
0.0219776
3.42975
0.0226916
0.0245132
0.0377841
0.0699128
0.021645
0.0662249
5.01662
0.0222776
27.9321
20.9249
5.83197
22.3855
0.0351143
0.304743
0.0548767
0.048697
5.16039
0.0218142
0.0331014
0.0216775
0.0222505
6.87951
0.0229159
6.10929
0.0217015
0.0218301
4.85913
0.0219286
15.7917
0.0227693
0.445814
0.0231563
0.0221844
6.17221
0.0245267
0.0617091
0.0218755
0.0217707
0.222164
0.218336
0.0220605
0.0282653
0.58515
0.0575356
2.4124
0.0222604
0.0219478
0.0215246
0.0219212
0.0257552
0.0587684
0.0216355
5.84643
0.0218762
0.0220436
0.0615094
6.34754
0.190876
0.0279488
0.0217682
0.0224786
0.0839574
2.07902
0.982626
11.8828
0.0258661
0.0359089
0.274047
0.0218507
0.0552219
4.58291
0.0219409
0.196346
4.28375
0.329944
0.339868
5.61993
0.0734637
0.0221133
1.84191
0.0265195
0.0397531
0.154699
0.0218775
0.108171
0.0218659
0.0219819
0.0474002
7.57664
0.0346589
0.021943
0.0404508
7.43134
0.0859655
2.87142
0.0219162
4.03222
0.0216526
0.0727159
0.137475
0.0219182
5.38694
0.021804
0.0218398
0.0220723
0.0219357
5.76469
0.0709815
0.0222524
5.36932
0.0220826
6.05677
0.0216632
5.24114
0.0488788
0.27211
0.0248109
0.0219094
0.0216819
0.0220617
0.295335
0.116101
0.0221209
0.040793
2.6318
5.90508
0.0401072
3.71377
6.39349
0.0219161
7.96354
0.021789
0.244939
0.0220026
0.0220993
0.0220145
0.0762719
5.58084
0.221553
0.0964981
5.07581
0.470945
0.247212
4.74771
0.0218713
0.0802882
8.33782
0.0215366
0.0471006
5.50287
0.210437
0.0218875
3.81171
0.0668214
4.82418
4.93102
0.0268705
0.225093
0.0247348
0.0218726
0.0215881
4.91025
0.194871
0.368519
0.183994
0.0219061
4.14801
0.034623
0.0215088
0.0225008
0.0633708
0.0238707
0.0222157
0.0222712
0.656457
0.0218965
0.0446988
10.8492
0.0216833
0.0218909
3.10995
0.0218304
0.0435342
0.0267518
0.131147
2.72715
0.0219228
0.0566723
0.027942
0.0750493
0.0275862
0.0246071
0.0854682
0.705865
0.0507167
5.91842
0.0888875
0.022141
0.216255
4.42657
0.0701436
0.0217848
0.0220525
0.188212
0.0230245
6.57009
0.740317
0.0283464
1.95801
0.0234535
0.20113
4.34832
0.0219727
0.0221284
0.0220719
0.0219905
1.40355
0.406476
0.0248336
0.204428
0.194249
0.0459344
0.0220484
0.0237659
0.0601215
0.0219306
0.0218679
1.5633
0.0226592
2.03454
0.0218204
0.0219988
0.0222713
0.0699474
0.0378819
0.0407586
0.0221258
0.022953
6.03592
1.96334
2.97632
3.12518
0.0262235
0.0224533
6.35713
0.100354
4.46679
0.0605464
0.0218782
0.0539763
0.0269023
0.0223262
0.021794
0.105918
0.0745787
5.28693
0.0908183
0.348967
0.0222083
0.0229806
0.0219126
0.100388
10.336
0.197389
3.7101
0.0218574
4.99388
0.0227515
0.0219715
0.0244715
0.0221741
0.38471
0.0219549
0.0739225
0.0216783
3.13122
0.0349012
8.45184
0.0224368
0.0220084
0.024489
0.0217133
0.0936493
3.77385
6.31675
0.0543812
0.0216329
6.58285
0.0605786
0.0219248
0.0659204
0.021741
0.0239354
0.0215221
0.709935
0.0248455
0.0676067
0.0545248
0.0217674
13.9498
0.0216359
0.024913
0.0223681
0.02361
0.0217477
0.0219175
0.0306394
0.0222813
0.0258401
0.0216936
0.0239271
2.22047
4.40704
0.0223989
0.0404904
5.99372
0.0219154
0.0221582
0.0312294
0.0999438
0.021934
0.0596089
4.64634
0.0230942
5.83231
5.40134
0.0219364
0.0226404
0.0605551
0.0214661
2.31707
3.9092
5.10246
0.0229612
0.0279692
0.0214927
2.00116
0.0286934
0.423821
0.0222488
0.129898
9.19712
0.0724105
0.0234619
4.29897
7.35783
5.16079
0.0224714
0.0217621
7.14458
2.70346
0.021809
0.0221027
0.543428
0.0225998
0.260793
2.41457
0.0217402
0.0227072
4.77007
0.0652249
0.0225706
0.021502
0.0428749
0.0222835
0.291651
0.0218762
0.0220827
0.0219567
0.0230486
0.0220677
0.105941
0.0217509
0.0256889
3.9831
4.86607
7.94381
0.0218231
0.074153
0.0714226
0.0220945
0.0246649
0.0382437
0.0219094
0.0240803
5.50229
0.0560192
0.0219421
0.0220004
0.0217765
5.42127
5.48677
0.0217254
0.0222665
0.0219864
0.053705
5.82944
0.0237139
0.0775662
0.0221439
0.0650366
0.0266596
0.35433
12.3489
0.0223019
0.725174
5.77627
0.0427435
0.0218527
0.0430595
0.0291479
0.0443496
0.0264837
0.0218086
0.103821
0.0272433
1.50613
0.0422063
0.0222224
0.0223813
3.80327
0.0221563
0.0233922
0.199028
0.0432985
6.88821
4.98506
0.0217912
0.331101
0.632215
0.373114
0.0454953
0.0238951
0.0220656
5.48705
0.0458254
0.0218274
0.0810635
0.0654535
2.59137
5.59684
0.0220661
0.0285507
0.0222577
0.227766
0.822738
0.0221841
0.0651287
0.025661
0.0233422
0.0221872
9.9101
0.0673446
0.0219386
0.0237652
6.04321
0.0222608
0.0220108
0.0257191
0.0721985
0.0219613
0.0221615
0.0236536
7.73487
0.0301337
0.0218265
0.0218301
0.0218764
0.151674
0.021998
0.0219429
0.327552
6.61711
0.0218628
0.0222633
0.05315
0.0293565
0.0984929
0.022122
2.17324
0.0219061
0.0227016
0.0290921
6.3693
12.0796
0.363879
0.0396958
5.47056
1.98485
9.35534
5.42036
0.0242273
0.0219403
0.0216927
0.0402936
0.0218866
0.0219413
0.0218596
0.184817
0.0218881
6.94695
0.0317108
5.96063
0.0218908
5.15397
0.0219771
0.0283694
0.0216951
0.0230088
0.0423587
0.743962
0.0222374
0.0218468
0.0250511
5.45278
0.0219078
0.038393
0.0221934
0.0408196
5.55567
0.295884
4.16232
0.0306981
0.244292
0.0221622
4.85083
11.2111
0.0218811
5.86261
1.94041
0.0218934
0.0215201
0.0458368
0.0304165
0.0437995
0.0216968
6.22258
0.0336322
0.065393
0.0216004
0.0219558
0.0261525
5.86668
4.08338
5.46523
0.0418568
5.59168
0.0400473
10.19
0.0219503
2.95053
0.0219735
0.0272905
1.4282
0.0233394
0.217735
0.0218843
0.0254012
6.23428
5.897
0.0219659
1.89576
0.0220021
6.11271
0.0218005
6.29667
5.00819
0.0218174
5.54959
0.0274828
5.57122
0.0219695
0.0264444
0.0229635
0.0934013
0.0220228
0.590705
0.0218051
6.04526
0.0862812
6.13639
0.0221551
0.0216933
0.266181
0.02309
0.0316131
0.0218832
0.0779531
0.0241203
0.0219585
2.32075
0.0220615
0.0219359
0.0223362
0.0221245
3.92738
0.0407491
0.0219538
5.61743
5.23374
0.769497
0.021684
0.090434
4.163
0.0218418
0.0259445
0.0224166
0.0220468
0.0219513
0.0219823
0.0275152
0.0275922
5.33564
0.33981
0.26163
0.0222764
0.0219528
3.91665
0.0338942
0.0219223
0.0223004
4.8322
5.671
0.0219779
5.97161
0.0386096
0.621808
0.0222785
5.43875
0.0217539
0.0227963
0.0221016
0.0218858
0.0235206
6.27847
0.0217366
5.23233
0.164146
4.68478
3.61237
0.0221033
0.0219952
4.6619
0.0736114
0.0968443
0.021977
0.0993884
0.0222295
5.60192
5.54796
3.64922
0.022056
5.70075
12.305
5.01513
0.523705
0.0255162
0.129906
0.0218662
0.380056
5.90241
0.0286245
4.06863
0.0218173
0.0220424
0.0736547
4.1753
0.0432616
0.287939
0.0219889
9.04504
0.0385022
0.050326
0.0218087
0.0400653
0.289506
0.0220392
0.0386983
0.0393279
0.242185
0.021579
0.0219006
4.83026
5.34004
0.0239491
5.01709
0.039186
0.0219956
8.31084
8.91049
0.0220979
0.56257
0.0217064
0.0220638
0.0456682
5.02181
0.0222474
4.94175
0.0235767
0.0219255
5.36707
0.0221458
0.0621974
0.021855
2.31227
0.0220278
5.44009
0.0217761
0.0600436
0.0218466
0.0281102
0.249211
5.73017
0.0499652
8.60681
0.0278379
5.18748
8.45673
4.04697
0.0218696
9.16587
11.1416
2.8457
0.337813
0.0224716
0.02185
0.0219468
10.1066
0.021935
0.0220403
0.305079
0.02224
7.86793
0.0230376
5.58356
0.0219438
0.0222335
0.105488
0.0215173
0.0508287
0.0218572
0.0830011
0.0793668
1.89241
0.0218129
0.0218928
5.9272
13.5952
0.0222443
0.0301776
0.0349396
0.0226933
7.27192
5.37523
5.81155
0.177656
4.89201
4.01468
0.216742
0.0218975
0.0217911
0.0228526
0.0219397
0.032392
6.84274
7.11566
0.0220903
0.0238782
0.0226504
3.07967
7.59294
6.58775
1.99261
0.0220703
2.37837
5.34266
0.0272056
4.59262
0.0470931
0.0220688
6.16261
3.75786
5.27113
0.0222058
0.0229573
0.0433503
0.422852
0.0218225
0.0220662
0.0222421
0.0218072
0.0220419
6.43834
0.0240813
0.0216921
8.40419
0.0221063
5.76813
0.0408701
5.58833
0.330917
0.0219801
6.20589
0.170452
1.05794
0.0227339
0.0283301
0.0220157
0.0232032
6.41929
0.149602
0.0789734
0.022509
0.0219348
0.15649
0.0232622
0.0220643
0.0275912
0.0219335
4.99692
0.0220011
5.08124
8.32791
0.023284
0.0219822
8.00581
0.0218672
0.0216724
1.26761
0.025095
0.0237427
0.0792597
2.32942
5.90747
0.033654
0.0238355
0.0223176
5.16896
1.91909
0.0234046
0.0342312
0.0218743
0.0218029
0.024069
0.0217125
0.269466
0.0292733
0.0220191
0.022222
0.0220957
0.0218924
0.0218346
0.0219048
2.9892
3.98423
8.33833
0.447945
2.70805
0.481067
0.0243209
5.16639
4.22071
3.42596
0.0220947
0.0216697
3.17835
5.33811
0.393596
0.212985
7.58274
0.0220971
0.0219251
4.09146
0.0218437
0.149086
0.165154
0.0225208
11.2724
3.86986
0.0222598
11.2061
6.79327
0.165894
1.07391
0.0222025
4.13941
0.555222
6.46426
0.0218521
0.0728264
2.01924
0.0218975
0.0392601
0.02173
0.0518931
0.0220915
6.16743
0.428804
0.0220166
0.0232078
0.0223611
4.95875
0.0427101
0.022166
0.0222312
4.74746
0.0219109
0.0232079
0.129492
0.59923
0.0225105
0.0994386
0.0518517
0.0219455
0.134862
0.0219338
0.0219567
0.0264823
0.0219664
0.0294174
5.41805
0.25159
0.0220024
14.0137
2.84495
0.263622
7.10156
0.0397135
0.023474
5.47332
0.0260337
0.0243009
0.0472697
0.0883384
0.0218629
0.0216778
0.0221112
0.527838
4.90733
6.06052
5.31352
0.0218231
0.0265608
0.0755979
0.192179
5.25437
0.0221381
4.28784
0.0224123
7.38599
0.021567
5.36319
0.0227838
16.121
6.76425
0.0920175
5.17297
0.0579369
0.021837
0.0886483
5.45685
16.3826
0.0260214
0.0223516
0.0219621
0.0220973
0.0296675
0.0222872
0.0236589
0.0218193
0.0604082
0.0220108
5.87782
0.0222246
4.85385
0.0216804
0.158377
9.89451
0.0229675
1.91234
0.0220182
0.0279318
0.0221248
0.0221995
0.0219217
0.338654
0.216533
0.0218018
0.0243074
0.0219693
4.15007
0.0311631
0.459134
0.222725
0.0219778
0.047127
0.0226482
0.0229484
0.0455006
0.0221068
0.0578676
9.533
0.0220322
5.29286
0.0275973
0.0218841
0.0217244
8.55359
0.0219943
5.84059
0.179281
0.0222688
2.7347
0.119287
4.62941
0.025955
0.0250329
0.0221034
0.0643443
4.18031
0.0221373
0.0460845
0.0220702
0.092331
3.14462
1.92686
6.55293
23.5544
0.0292206
2.11551
0.0221088
4.85701
0.484239
0.0259671
0.487561
0.0658435
0.0215731
0.0498878
0.0220053
0.0217666
0.0240231
0.0219415
1.70945
2.56188
0.147958
2.6696
0.022077
3.32279
0.0220619
0.0219708
0.0434027
5.20356
0.0217323
5.38727
0.115894
0.0993065
7.08854
0.022195
0.0462593
6.55071
0.0457065
0.0219256
0.480426
0.0219597
0.0221308
0.0222429
2.17446
11.1092
0.0260085
0.0221021
4.69483
11.4506
0.0222739
0.0222393
2.72576
6.83219
0.0221978
0.372843
0.119969
0.0218796
0.0295367
0.0217018
4.79538
0.0219841
9.74365
6.62012
5.86244
0.0252542
0.0332832
0.021796
0.0218012
2.69708
0.0218426
8.10255
4.86555
0.0764892
0.0218485
0.0216903
0.725267
0.260719
0.0500682
8.19018
0.10702
2.22404
0.0229746
5.03373
3.34214
0.0269058
0.48862
6.28582
4.39289
0.0220583
8.17305
0.0217419
1.17704
0.294071
1.7036
0.0215867
0.0410223
0.0221087
0.902023
3.6292
0.0226236
0.0227898
10.1208
4.52062
0.0219825
5.15615
2.85062
1.59017
0.022216
6.04169
0.0221526
6.56943
0.022114
0.0226858
0.0222021
0.0219787
7.61535
0.221514
0.0217215
3.7691
5.4461
0.0215418
0.0216908
0.0409654
0.0695275
0.0937974
0.0493908
26.2611
4.53923
4.97633
6.40901
0.0898134
0.0230691
0.1491
0.102817
5.2506
4.16973
5.4167
0.0935865
0.0507891
0.0247791
5.57102
0.101318
0.497725
0.0221852
0.0254971
11.4414
0.0220962
0.028489
0.55215
0.0243889
0.0421997
0.0219995
0.0231844
6.28648
0.38733
0.0216365
0.0251031
11.2085
0.22712
0.0297127
1.95772
2.57871
0.0452378
0.1838
4.85507
0.0226746
5.3934
0.0996314
2.25525
0.022146
0.0214706
2.01247
4.88184
5.09645
7.30089
3.63877
0.0423908
0.0803318
0.0238796
4.83976
0.0218667
0.0220291
0.04497
0.0809734
0.0998461
6.00828
0.0228739
4.99897
5.36596
0.0222857
0.0909675
0.0232556
0.241136
0.13571
0.0407152
5.63619
5.14949
3.92229
2.40897
0.032386
0.0219579
0.0225897
0.0273429
0.967318
6.92859
5.42678
8.63539
0.0531948
0.0218052
0.294796
0.0407803
5.15033
0.0220983
12.108
0.0570518
5.99618
0.0220945
3.6702
0.103067
0.0673327
1.76284
0.0217192
2.71044
5.33506
0.021818
0.0858463
5.19702
0.0224049
0.332306
0.0231772
0.0229863
0.0222573
4.63385
0.0461064
1.70728
0.0285268
8.1536
0.0217496
0.0215208
0.0218818
0.0220656
0.0219578
8.29215
0.431988
5.48481
0.0222106
0.0217736
7.27482
0.0279012
3.65127
0.0901623
0.0219757
0.885591
0.0300027
0.0374974
5.86501
0.0266925
40.778
0.628191
0.0277985
0.0216223
0.292871
0.0215346
0.68358
8.71607
0.187838
0.0217921
7.09804
0.374935
0.0219809
2.06749
0.0221313
5.92261
5.53002
0.0279828
0.0252838
0.0730855
0.0393329
0.0222559
0.0216339
0.0219772
18.4575
0.0251938
2.14111
0.776854
10.6771
0.324008
0.135563
0.0219901
0.205787
8.20335
0.0253114
0.0218729
0.0239406
0.0222287
8.9626
0.0806473
5.48382
0.0220023
2.87646
3.37948
4.95884
7.14594
0.0219839
3.69733
1.95622
0.0219993
0.0222853
2.23195
4.18467
0.0259006
0.215532
3.12257
7.21524
0.0290855
0.0229366
0.504717
0.0429974
0.0231322
0.0278095
0.0221219
0.0882089
5.34981
0.0621778
0.0228743
11.2626
0.13237
0.0216476
0.178707
0.256249
0.0761887
0.0495874
0.0216578
0.0217962
2.18452
3.77236
0.0400452
0.0218344
4.27315
0.571936
0.290798
2.16339
0.0234808
0.0216541
0.0220992
0.022199
0.0299437
5.00392
0.0918928
0.0224162
0.138877
0.022071
5.31618
0.0231019
4.04395
0.0229888
1.19819
0.0496511
5.01904
0.0219297
0.0220756
0.0218032
3.59669
0.0260926
5.19343
4.37803
0.0524781
0.0222206
0.0278244
0.0309202
0.0222601
6.13926
0.0216012
4.53299
5.0423
1.5435
0.0284401
0.0219779
0.0222775
0.0220209
0.0222292
0.0906257
7.89567
5.7586
21.6979
0.730092
2.69826
0.023579
0.374366
0.0696165
0.0475111
0.021974
0.0216459
0.248837
0.0230612
0.0216421
4.65402
0.315447
0.591642
6.48936
3.54331
0.0220998
0.0221287
0.0227692
0.0410317
4.10242
0.022062
0.0443523
0.563417
1.20265
0.0435618
0.0221639
0.376924
0.0270671
6.43377
0.0220706
0.0217307
0.0219926
0.0219718
0.0227649
5.48344
0.368592
0.090427
0.131079
0.0897076
0.0218693
0.0476867
0.0226491
0.022103
0.0269234
6.69024
5.56496
0.021813
0.31574
0.0218585
0.0553106
0.0231358
0.0280544
0.0221051
0.086544
0.0554734
5.0826
10.568
8.37416
8.54315
24.7941
5.10519
1.52463
0.0217174
6.3309
0.0217181
7.17291
0.0255279
4.12144
0.0220931
0.0889281
0.0220526
0.0217632
0.0240244
0.0220135
1.70205
0.0216528
0.0219589
0.0216356
0.0217054
0.0218068
0.029976
0.0221268
5.20321
0.0505772
0.0219608
4.37851
0.0220389
0.0218547
0.0708145
6.44777
0.0393629
0.0283706
0.0217654
0.0216041
5.06427
0.0221747
0.0257178
0.167253
5.84544
8.83069
5.14294
6.20973
4.97923
18.7838
3.24802
8.36901
0.0850876
3.17731
0.0222278
0.0220249
0.0679785
0.0261474
2.53269
0.0221296
0.0447268
0.0463584
0.477044
0.089977
0.0401826
0.0234201
0.0219854
0.0462022
0.0220771
0.021721
0.544593
0.0222313
5.20044
5.94045
0.103717
0.0217834
5.18205
0.0230863
5.28261
0.709932
0.0218366
8.25219
6.0411
0.0627647
0.0679759
0.0307344
4.02811
3.89301
0.0237044
19.7595
0.0525805
0.0414607
6.04789
0.0221311
9.97768
0.0220382
0.0221892
0.0218185
1.97055
0.257786
0.415483
4.88708
0.0252259
0.0460295
3.30045
0.0217912
6.88575
0.0216856
2.01205
4.79027
10.3361
0.113475
9.76362
0.0219861
0.0221545
0.0238205
6.30701
0.0448169
0.0224405
0.0219689
0.0214647
0.0218903
0.0675688
0.1672
0.0799387
0.168949
0.0599653
0.0220296
5.09344
0.0297278
2.16706
0.0225987
0.0217479
0.0225861
0.0222305
0.0380003
0.349629
4.94261
0.679611
6.39169
0.495611
0.0218218
1.78408
0.0215126
0.0220178
0.0229696
0.0217611
0.0310381
0.0219888
0.068659
0.0218248
2.01052
0.022277
0.0224345
0.0217531
4.1712
0.62351
0.101676
0.0215487
4.57347
0.152501
0.0749604
4.5565
0.0611961
1.48599
0.0220777
1.98086
0.193866
0.0297738
1.48318
0.0325478
0.0428991
0.788165
0.028059
17.6063
0.106606
6.575
2.93706
0.0400915
0.0296057
0.0219855
5.13867
0.0220317
3.08703
0.0219182
0.0218961
0.021527
0.0311304
7.02476
0.0238873
0.0219166
0.0221144
0.0426707
3.57113
0.0971665
3.33229
0.215103
0.0783442
0.0219913
0.0567143
0.0221919
0.022854
6.6321
0.03226
0.0377041
0.133162
5.92214
0.15338
0.0423003
0.0905442
0.0680722
0.0247517
8.59483
0.0222371
6.65967
0.0251781
11.5221
0.0940447
6.52617
5.89828
0.0858059
4.83102
2.28142
0.15587
0.335699
0.0849192
0.391346
0.0220288
0.0755287
0.0564865
10.6742
0.0230188
2.51625
6.47346
0.0215039
0.0217599
5.72624
0.02229
0.0218651
0.021621
14.9464
1.88616
5.68295
0.0265732
3.53664
0.365328
7.04052
1.64173
0.0855612
0.0220613
24.7201
3.38998
1.35229
0.400691
0.0219579
0.021835
0.0220138
0.0221128
0.765608
0.13517
4.07065
0.0943751
0.0221439
0.0219598
0.0222885
0.0316409
11.8668
0.0237548
8.17308
3.77905
0.0523103
0.0221222
4.64888
0.164914
2.98052
0.021951
21.6469
0.0941648
0.0221556
6.09404
4.33417
0.0230939
0.0217643
0.0221049
0.0222559
0.0219836
0.154595
0.0575777
0.329637
0.0435776
0.0225811
0.0313345
0.0220866
0.0265219
0.0219605
7.90489
16.0594
0.035526
0.0220382
4.87723
0.0216835
0.168701
0.561863
9.22034
3.98555
6.88312
0.0220595
0.0222844
0.0221249
0.277698
0.0226502
2.10062
0.0255576
0.0218886
0.0219929
0.165029
0.176576
0.0220747
4.21179
0.0834994
1.98774
10.8073
0.0221182
0.638018
3.72322
0.168892
0.0222874
0.0219793
0.132462
1.21332
19.3471
0.0232503
8.02549
0.0217426
0.0920214
2.4574
0.231417
0.0217247
7.02433
5.15883
6.74837
8.07073
0.0222769
0.0222104
0.0873741
0.157547
0.0416449
0.0229801
4.50251
0.0233477
7.32763
3.93353
0.0218858
7.51186
0.0218492
0.0955212
7.11513
0.080347
0.0592211
2.14088
0.0243827
8.16717
0.0219799
0.79296
6.69314
2.46433
13.9327
0.0242275
0.0514979
0.0217053
6.38329
0.02305
0.0217368
0.0481759
0.0538384
0.0503221
24.0138
5.01984
4.03792
0.213549
0.0312762
0.0379033
0.0259197
0.0338864
30.6199
0.023361
0.443509
0.0228801
5.18037
0.668793
0.022205
0.0221645
0.0392953
30.2409
0.0429554
0.0216095
0.0218849
0.030477
0.0271247
0.0280876
0.0256661
4.65683
0.023883
2.64461
0.0714227
0.0219286
0.0693548
0.0667833
0.0414141
0.021824
0.0220868
2.96257
3.95267
4.6915
0.0419125
0.0456244
0.0544321
0.0462934
0.0219185
0.0235898
3.62969
0.0513847
0.0238939
4.02416
6.5164
0.267295
4.74589
0.0813338
0.0226783
6.63566
0.0672582
4.12069
0.0219137