/*--------------------------------*- C++ -*----------------------------------*\
| =========                 |                                                 |
| \\      /  F ield         | OpenFOAM: The Open Source CFD Toolbox           |
|  \\    /   O peration     | Version:  v2012                                 |
|   \\  /    A nd           | Website:  www.openfoam.com                      |
|    \\/     M anipulation  |                                                 |
\*---------------------------------------------------------------------------*/
FoamFile
{
    version     2.0;
    format      ascii;
    class       volScalarField;
    location    "250";
    object      ddt0(epsilon);
}
// * * * * * * * * * * * * * * * * * * * * * * * * * * * * * * * * * * * * * //

dimensions      [0 2 -4 0 0 0 0];


internalField   nonuniform List<scalar> 
18649
(
-0.000142994
4.33935e-11
-0.000185549
2.1457e-07
5.26801e-11
-0.000812289
8.22146e-11
-5.58749e-11
-0.000212135
0.000513246
6.85361e-11
-6.57673e-11
1.65977e-10
-2.14668e-10
0.00828569
1.13095e-10
1.35561e-09
1.28487e-10
0.000461402
4.15725e-11
-7.41228e-11
0.000137839
3.14497e-05
1.17309e-07
0.000367822
2.43459e-05
-1.94141e-05
-1.38101e-05
9.27215e-10
-0.00440612
-9.574e-10
-1.09315e-09
1.27781e-09
-2.8966e-09
-1.43943e-10
-2.14446e-08
0.00719556
-6.60007e-09
-1.31843e-13
-1.99817e-10
0.000584542
-1.37293e-09
5.33103e-07
4.56558e-05
-0.000229853
-5.57095e-05
6.72714e-05
2.99928e-09
3.62241e-11
1.27878e-07
1.93294e-07
2.34129e-05
3.28892e-10
0.000158348
-8.90557e-11
1.10336e-06
0.00103835
3.05833e-11
2.86568e-10
9.3197e-05
-6.79718e-11
7.53267e-08
-2.31117e-12
-0.000722177
-0.00325508
-0.000100748
0.000511922
-3.53907e-09
-0.000209394
0.000241419
-2.13061e-05
-2.26826e-09
9.97157e-11
5.34299e-12
5.41762e-09
5.91393e-05
-0.000274461
-1.20607e-10
-0.000716599
-4.67937e-09
1.42567e-09
-5.57293e-08
-0.0014216
0.000258157
-3.43476e-11
1.02966e-06
-2.41828e-09
1.33848e-09
-9.54263e-10
0.000211804
0.00809701
2.94374e-07
1.37408e-07
-1.08212e-07
-1.07983e-10
3.05123e-10
-2.29871e-08
-3.03802e-07
-5.10311e-05
-4.53583e-11
-0.00174558
1.27129e-10
-0.000121012
-4.54678e-11
-0.000187908
-0.000136541
-0.0012844
-0.000343804
1.06872e-06
1.10184e-10
-2.83034e-11
5.29726e-09
-1.05631e-09
3.61325e-11
-1.3928e-10
-9.66044e-08
-3.87722e-09
5.83094e-09
-6.29974e-11
-1.76526e-09
4.43018e-11
7.3826e-08
-4.69903e-05
2.66196e-11
-1.66904e-10
-1.65035e-09
-0.0102232
-5.44129e-10
1.0482e-09
1.19071e-10
1.32642e-10
-0.000946221
9.20472e-08
1.09253e-07
-8.9992e-11
0.000138264
-4.54108e-05
-0.000135604
-7.08779e-05
-0.000245451
1.32148e-09
-9.52901e-11
1.07913e-10
-4.81979e-10
-3.12979e-05
1.34441e-10
-3.36287e-10
2.93812e-09
-0.000110569
-7.91667e-11
-0.00017888
2.6012e-07
-1.17344e-10
3.46843e-11
4.42655e-08
-1.32067e-08
-5.98158e-11
1.87804e-11
-4.15516e-11
7.44446e-05
-0.0018498
-0.000212584
-7.22105e-11
-9.50881e-05
0.0045135
-3.75581e-11
2.19492e-06
-9.54662e-05
9.81289e-11
-3.05339e-11
-3.99639e-09
3.99344e-11
-8.18503e-11
-2.20164e-11
1.00576e-07
-0.000247207
2.88566e-05
-4.78409e-11
-0.000122037
-0.00148835
-3.28853e-11
-0.00017128
-1.5015e-11
1.06013e-10
-3.26973e-10
-3.38856e-11
-1.36318e-10
5.14148e-08
9.12402e-13
-3.49529e-10
-4.2739e-09
-0.000136709
4.95963e-08
-4.91781e-09
1.86777e-09
-3.88118e-11
-2.90073e-10
-2.70647e-10
0.00658498
3.02122e-09
-3.65551e-10
1.07307e-11
8.1294e-05
5.15662e-11
-5.83358e-10
3.34999e-11
1.43873e-07
-0.000132944
-1.59006e-09
2.32087e-10
1.91402e-11
-1.58415e-09
-1.17749e-11
-2.16529e-08
0.0120121
-2.62607e-08
1.8748e-10
-3.81356e-09
-3.88613e-12
7.07256e-05
-2.90713e-08
-1.24434e-08
8.6949e-05
-8.64585e-08
-0.00019887
1.27026e-06
3.80713e-07
-1.51563e-06
-7.76672e-10
2.38691e-07
-1.55379e-10
7.43212e-10
3.03988e-09
-4.64026e-11
0.0110867
-4.60652e-11
-2.20488e-09
-3.74235e-10
5.95699e-12
9.23754e-12
-8.28579e-10
-0.000160397
2.49714e-07
-0.000763488
-0.00038408
-2.79268e-09
-4.42239e-09
-1.68903e-10
0.00118247
5.91291e-08
-2.63024e-09
-3.88689e-06
-5.74525e-10
8.49664e-09
-4.2958e-09
-3.32827e-11
1.99175e-10
-3.06201e-11
1.97228e-07
1.02182e-10
0.00733784
-4.6784e-11
9.63679e-11
4.33865e-09
-4.58828e-11
3.18521e-07
-3.52454e-10
2.01923e-05
-1.52638e-10
3.1257e-10
3.79604e-07
-1.19322e-06
-1.8798e-08
3.27927e-10
0.00795689
7.01753e-08
4.81794e-11
-2.03441e-09
1.20483e-09
1.01729e-07
1.53439e-06
-2.10726e-09
-0.000210739
1.72381e-10
1.92554e-10
1.01602e-06
-4.69324e-08
-1.98479e-11
-3.53372e-05
-5.16238e-11
-2.43616e-11
-0.00116111
1.22962e-10
-6.04583e-10
-0.0118219
0.00125441
7.9728e-06
-0.000560461
1.31577e-09
-2.56043e-11
-6.28356e-11
-0.000107809
-8.08128e-08
-1.29894e-08
9.29679e-07
2.94906e-07
2.81905e-05
1.30167e-07
2.99601e-09
2.0591e-07
-2.19318e-11
-0.00016462
2.98299e-10
-5.09891e-10
-3.3095e-10
8.46202e-10
-5.01781e-09
-0.00127264
-0.000284363
-3.6201e-10
-0.000514649
6.6838e-11
-6.43357e-12
-3.58288e-11
-0.000584439
1.31879e-09
-0.00964353
0.000104674
1.18461e-10
2.00131e-11
-5.46569e-10
0.000104891
2.50615e-07
-1.48237e-10
-0.000242458
-7.44665e-12
-0.000168009
1.1486e-07
3.70447e-08
5.29102e-08
6.24759e-09
0.000653824
-0.00130287
0.000109786
0.000143789
2.68923e-07
5.00801e-08
-1.8324e-11
-0.000808641
0.000714079
-2.02138e-09
-7.19753e-08
-2.28751e-11
-2.48209e-09
-3.95344e-09
2.97903e-08
1.06356e-09
0.000235414
8.38753e-10
-1.68762e-10
4.01855e-10
0.00105384
1.03539e-05
2.49566e-10
2.08036e-05
-0.000114086
1.63171e-11
-5.37237e-11
0.00071613
-1.40045e-11
3.28141e-08
0.00508044
-7.66559e-09
8.44554e-12
0.00786227
1.11124e-10
-5.88521e-08
0.000650156
0.000115183
-2.0887e-06
-2.09969e-06
-3.67036e-10
-2.11034e-09
-5.90663e-06
4.45643e-05
-1.56055e-09
2.68396e-09
-7.46462e-11
-4.63408e-10
-2.90323e-11
-7.26572e-08
2.22128e-09
-1.20898e-08
-1.95105e-09
-7.71787e-05
-7.63988e-05
1.58124e-09
-5.36029e-10
-3.15342e-11
1.97728e-10
1.06687e-06
0.00148032
-1.46163e-09
7.59748e-08
1.17925e-06
-4.52041e-10
-7.70864e-11
1.98257e-05
-1.81861e-10
4.28233e-08
-6.27999e-10
1.01575e-07
3.44611e-07
1.83883e-11
2.20553e-06
-2.78802e-09
7.39011e-05
3.40856e-09
-4.81377e-10
-1.45622e-09
-1.18271e-09
-5.28405e-08
1.48904e-07
0.000359666
4.77178e-05
1.29707e-11
1.98838e-05
4.52903e-05
-1.93313e-09
-0.00394558
0.000221271
7.34547e-11
3.19375e-09
3.28867e-09
0.00413746
5.63672e-11
-8.1332e-11
0.0011953
-2.5151e-11
6.77001e-10
9.99202e-11
6.51225e-11
1.39183e-10
3.17217e-08
1.9971e-11
-5.597e-10
-3.56827e-10
3.93782e-07
-0.000534818
-1.56284e-09
-4.81618e-11
-0.0102524
-5.91985e-11
-0.000238252
-8.05878e-10
-1.26051e-10
-4.94906e-11
2.8874e-11
-0.0132663
1.04567e-06
-3.59158e-10
0.000926809
6.1819e-11
1.14013e-05
0.00541645
2.8195e-10
2.60815e-11
6.17543e-10
-4.11854e-10
-8.93201e-10
-2.36436e-09
1.68298e-11
-2.31841e-08
-2.69453e-07
-7.46146e-08
1.14816e-07
1.85887e-10
-5.52521e-10
-8.59093e-09
-0.0204809
5.38814e-09
-0.000731672
-5.5657e-10
-4.33278e-11
-4.08017e-09
-0.000334255
-9.10586e-11
2.143e-05
-0.000212632
-9.5029e-11
-2.67534e-09
0.000960619
3.92481e-10
2.63479e-07
-3.66072e-11
1.21274e-06
-2.30564e-07
-1.93073e-11
-4.11602e-11
5.50717e-10
-7.50104e-08
-1.5791e-09
-3.25093e-10
4.34702e-10
1.63603e-05
-1.74398e-05
0.00123706
-2.3362e-10
-9.02958e-11
0.00010626
1.20442e-09
1.75067e-10
2.1241e-10
7.13154e-07
1.15514e-07
-2.71599e-09
1.55094e-05
-7.14581e-11
3.01986e-07
-9.94914e-11
-5.77788e-12
2.91905e-09
-2.40097e-11
0.000122376
-2.03612e-11
-3.59737e-07
5.69061e-05
-0.000105064
1.8759e-05
7.15547e-09
-2.46577e-11
6.84803e-06
1.48865e-10
-1.43064e-11
9.75517e-07
-9.41977e-11
6.50483e-11
9.22733e-12
0.00307359
2.45235e-11
-1.56746e-07
-3.88419e-10
-0.000786534
-1.03666e-10
1.06281e-07
-2.55872e-06
0.000859605
5.08511e-11
-1.93696e-08
-4.81607e-10
-8.89384e-10
-0.000157696
1.12232e-09
2.44534e-07
1.84177e-10
0.00156067
6.27149e-07
2.56621e-05
-9.5633e-11
-3.28096e-10
0.00566226
4.43935e-07
8.49737e-07
-1.06792e-08
9.16576e-11
3.21335e-10
0.00552335
2.28354e-07
-2.76473e-08
3.33132e-08
-1.35361e-08
1.24827e-07
7.83437e-10
-6.78432e-11
0.000107348
4.28823e-11
2.72147e-05
-5.22455e-10
0.000200429
2.29357e-11
4.67149e-10
2.7008e-12
-0.000243602
-2.52555e-08
-3.68962e-11
-1.62805e-09
4.12724e-11
1.42636e-06
-0.000143874
-6.48861e-11
2.85791e-11
2.80709e-10
5.59407e-06
5.0951e-10
2.22947e-05
6.96109e-11
4.32602e-11
1.45197e-06
1.08823e-10
0.000215939
-3.42572e-10
-0.00449827
-1.45949e-10
2.77781e-11
-4.20546e-11
-1.19009e-07
-4.00218e-10
-0.000132508
2.50719e-11
-4.52155e-05
7.95493e-11
-0.000228199
-2.60497e-08
-2.89782e-11
6.48945e-07
6.73127e-10
-6.88521e-11
3.92209e-12
-1.8071e-06
-7.33764e-08
-1.04751e-11
1.02137e-05
8.47307e-07
-4.21466e-10
-1.5098e-08
-3.55152e-09
-0.000751478
0.000100674
0.0016269
0.00369645
4.54242e-11
-0.000224739
-0.000788358
6.47523e-11
-1.01564e-07
-0.000690234
4.38006e-10
4.96913e-06
1.18638e-10
0.00255913
4.77733e-11
-0.000139556
-2.13022e-05
-1.30116e-10
-9.49304e-07
2.0967e-11
2.21826e-09
1.69982e-10
-1.02592e-09
0.0016061
-2.91731e-10
-7.30062e-07
0.000156171
-1.48557e-07
1.3184e-10
-0.00209505
1.33896e-08
-1.0295e-09
-0.000447817
-5.77458e-10
3.09506e-11
8.55339e-05
-3.1258e-10
5.99419e-09
-1.4183e-07
-2.91337e-11
7.57982e-10
2.29474e-09
-1.63171e-09
-5.18913e-11
1.0193e-07
-3.70921e-09
3.16107e-11
-1.27269e-10
-1.0162e-07
0.00118068
-7.03079e-08
9.11024e-07
0.00228072
0.00024275
1.10502e-10
-9.64595e-07
-0.0115412
6.03999e-11
1.35627e-07
-7.95802e-11
1.20528e-08
1.35678e-10
-6.76912e-11
-8.57216e-11
-5.2854e-11
-1.04888e-11
-0.00205824
0.00736229
0.0010459
-2.15465e-08
2.79448e-10
-0.00976605
-1.55009e-11
-0.000639376
-3.75777e-09
-1.29747e-05
-3.26083e-09
-0.0136628
1.50325e-10
0.0026257
1.82411e-09
-0.000616782
-5.8584e-10
-7.4238e-06
0.00156685
-2.46417e-08
0.00307449
-3.60473e-11
-0.00607429
-2.45157e-10
-6.1079e-08
-0.000792825
-4.10379e-11
-5.67056e-10
-9.8603e-12
-9.644e-13
6.54991e-07
-0.0306221
-5.17046e-11
8.20932e-08
0.00894329
7.44046e-05
-1.8684e-11
3.32878e-08
-1.05358e-11
-4.86938e-11
-0.000231807
5.15576e-05
6.39674e-09
1.71329e-09
-5.12636e-09
-0.000224059
-1.28383e-10
-6.65469e-10
-3.24297e-05
6.13589e-07
1.15788e-10
-5.33073e-08
2.6797e-07
1.39386e-11
-4.38948e-10
-7.13778e-11
-9.66181e-05
3.64117e-08
-5.41793e-11
8.74592e-10
0.00260968
-5.85013e-08
1.53767e-08
4.41381e-06
-4.06259e-09
-0.000765755
-5.22343e-10
1.29124e-12
1.3297e-11
4.86776e-09
3.24031e-07
-4.22576e-11
1.42173e-10
-1.39155e-10
-9.85949e-08
-6.95627e-10
-0.000132387
0.000135799
9.92357e-11
-5.66967e-08
0.00101356
-2.12761e-11
-4.36254e-11
-3.74273e-11
5.08595e-11
-6.79293e-08
-4.20773e-10
-0.00510032
-3.64098e-09
-6.06807e-09
-2.91033e-10
2.8249e-11
-2.94481e-09
3.03928e-11
5.33365e-06
-0.000830872
-0.000668577
-0.00092446
-0.0024773
0.00164076
-2.61171e-11
1.95715e-11
6.9928e-05
2.90329e-08
8.51017e-05
-8.94772e-09
3.12842e-07
-1.71718e-05
-8.59124e-05
-0.000209646
6.99527e-09
-7.20215e-11
5.98524e-11
-1.20703e-08
2.96819e-11
-0.000347456
-8.62623e-08
5.42526e-10
2.40504e-12
7.84455e-10
-1.19943e-08
-0.000436626
1.5532e-05
0.00736975
-2.58243e-11
-0.000592949
-1.25085e-11
-3.19964e-10
-4.56846e-09
-5.31771e-10
1.02006e-10
-0.000227656
6.1022e-11
8.11165e-08
-2.49873e-08
-3.27926e-11
6.98439e-10
-1.35974e-09
1.37132e-05
-0.000315964
-3.19122e-08
0.00224926
-1.47286e-09
1.52224e-07
-5.86299e-08
4.75315e-07
4.82258e-10
-1.41236e-09
9.34087e-12
-2.85792e-08
-2.24819e-09
-1.07925e-10
-9.17789e-11
4.25186e-10
7.76207e-11
-0.00915467
4.25587e-09
-2.99627e-08
7.55933e-08
-3.30458e-11
1.38966e-09
3.12168e-09
0.00170267
-7.23423e-11
-1.40021e-10
-8.83837e-11
-3.34148e-10
2.73935e-11
-0.000279565
-8.33318e-09
-9.62465e-05
-6.27762e-11
-3.83915e-09
-2.20669e-11
-4.95405e-11
2.13095e-09
-9.48032e-11
-3.60471e-10
7.67748e-08
-1.31924e-05
0.000141641
0.000272938
1.74693e-09
5.83179e-12
-6.45399e-11
-0.00220255
-8.42236e-12
0.00128844
-9.65257e-08
-0.0335014
-2.18292e-11
0.00846177
0.000207212
1.34877e-10
-1.77398e-10
-1.10316e-07
-0.00046199
-4.55625e-10
1.16907e-08
3.96729e-11
0.000446031
-0.00120182
7.75039e-10
0.000850374
-2.76406e-09
2.22926e-11
2.14524e-10
2.24695e-11
9.8339e-10
-9.01321e-11
0.00157429
0.00160138
1.15919e-10
-1.305e-11
-1.11408e-10
-1.896e-09
-3.97111e-11
0.00246874
-0.00162797
2.57269e-07
-8.45859e-11
-1.18479e-10
9.97925e-11
0.000674839
-0.000581839
-9.38478e-07
-1.13163e-07
-7.7826e-11
-0.00135058
-0.00164862
-0.0308608
-6.08953e-11
-7.69327e-11
2.83346e-05
-4.73388e-09
-0.00308239
8.88614e-11
-2.54631e-10
1.35347e-11
3.12717e-08
9.09384e-09
2.55826e-11
4.15821e-09
2.28154e-07
7.34171e-11
-1.15214e-07
-0.00068554
-7.04755e-05
1.17945e-07
-6.5277e-05
-6.60363e-11
6.86948e-08
3.63159e-08
1.23271e-10
-1.40758e-10
8.7235e-05
-2.78224e-05
-0.00395604
0.00549684
6.69604e-10
-9.33376e-11
3.93091e-09
-3.08497e-09
0.00848155
-9.98627e-08
-6.37133e-12
-2.16904e-10
-0.0184098
3.52584e-10
6.78064e-07
8.46467e-10
-0.0396991
-0.00496738
8.80126e-08
0.000118392
-8.81195e-10
-4.54899e-08
-4.25746e-10
-8.90531e-05
-4.25406e-08
2.50215e-09
-1.23235e-05
3.20322e-05
-3.03303e-11
-2.6669e-11
2.87844e-12
-0.0237382
-0.000391633
-0.000312515
-6.02581e-11
1.04512e-07
-0.000191501
-7.19035e-11
5.55151e-11
8.77198e-13
0.000426264
9.07094e-12
-4.27259e-09
-0.000226815
-0.0019913
5.85863e-11
1.43977e-05
-2.81324e-10
-0.000563809
9.80456e-11
3.84266e-07
-0.000700767
-0.0117081
-0.000449563
-8.29113e-11
1.12272e-10
0.000350254
-1.46767e-10
-3.2918e-10
0.000441419
-0.00129427
5.83449e-11
-7.8778e-11
-2.65028e-10
9.58223e-05
0.0126648
-0.00115063
-1.0963e-08
-7.28806e-09
7.22758e-09
-1.75582e-09
0.00135872
1.51206e-07
0.00363184
3.0175e-08
1.37067e-12
-0.00127238
2.88125e-05
-0.000214593
3.43644e-07
-0.0390659
-2.84811e-11
4.028e-09
0.000590234
2.80534e-07
-5.35003e-08
-2.06543e-09
8.24631e-11
0.000123528
1.23872e-10
-0.000316462
8.08969e-10
-5.56896e-07
-2.37344e-11
0.000768848
1.40691e-09
0.0129527
-6.59821e-08
-1.43926e-09
-0.00052356
9.06543e-08
-1.23015e-11
0.000151493
0.00344019
-2.77922e-08
8.5689e-10
0.000404131
1.16233e-09
-0.0012842
3.98129e-12
-0.000128055
2.90553e-10
2.13687e-10
-1.71766e-11
0.000675046
1.6679e-10
-3.50438e-11
9.3612e-13
0.00056569
-0.000656319
3.52096e-11
-4.123e-11
-1.71411e-09
-2.3333e-06
-4.775e-09
-2.94128e-10
-0.010461
0.000115738
0.00870946
-5.02104e-11
-8.16684e-11
-0.000258709
-1.28536e-10
-5.42175e-06
0.00229597
7.97162e-11
5.57997e-11
-1.9658e-12
-0.000221811
0.000264582
0.00283404
-8.66191e-11
-9.56303e-11
-0.00025802
3.05041e-08
-0.000360943
-0.000554801
7.33584e-05
9.22362e-10
3.80583e-11
0.00471646
-4.80393e-10
3.20894e-11
-1.29207e-10
6.82833e-12
6.20419e-05
3.06912e-10
0.000238949
3.30457e-10
0.000273974
1.31648e-05
5.00447e-11
2.67927e-10
2.72813e-05
-0.00291123
7.53869e-11
7.60337e-09
3.46624e-10
-4.45961e-11
-0.00390756
-4.22857e-08
1.34628e-05
5.74196e-06
1.94576e-05
-0.0167007
-3.32788e-10
-1.86105e-09
9.62396e-10
1.09007e-09
7.08007e-10
-2.73775e-12
1.37416e-05
8.73868e-11
-0.000180986
-9.83407e-08
2.30151e-10
-3.50707e-05
4.39407e-05
2.67886e-10
3.30887e-10
-0.0450255
3.29124e-09
-6.26937e-05
-0.000187044
3.22303e-11
1.525e-10
1.59549e-05
-0.000838116
5.07025e-07
2.11325e-11
5.09363e-11
-5.58381e-11
4.35796e-09
6.46391e-11
9.77385e-05
8.00752e-10
-9.71648e-05
0.000142141
-1.79847e-09
2.05159e-10
-1.92961e-10
-0.000316222
2.28341e-11
-0.0107146
-2.33437e-09
4.1534e-05
-5.12888e-11
3.04003e-08
-6.20293e-12
1.29858e-05
3.45194e-10
0.00189641
-6.72779e-10
7.57407e-11
-1.45788e-09
3.67353e-11
1.34549e-11
3.03317e-11
-2.22782e-10
3.44084e-11
-0.00279524
0.0064103
-4.68525e-11
0.000117818
8.14795e-10
2.9538e-10
-0.0214897
4.00478e-11
-1.69671e-11
1.69798e-05
-2.1244e-11
8.34294e-08
0.000776165
-2.33872e-09
1.15786e-06
-0.000378215
-4.43556e-12
0.000107629
-2.61003e-10
2.315e-07
-0.00962377
-1.81287e-09
-2.56395e-10
6.60031e-10
-9.32745e-10
-1.52566e-10
6.71734e-11
-1.4785e-06
1.44901e-10
-0.000267742
2.05503e-08
7.68251e-09
3.78878e-08
0.00152634
-3.99028e-09
1.08969e-11
-3.72466e-10
2.55674e-11
-1.8863e-09
-1.53004e-10
2.35898e-11
-5.44594e-10
-0.000719122
3.23083e-11
-1.66811e-11
-1.28461e-11
-1.00124e-10
-2.46158e-08
9.31073e-05
-5.48232e-06
4.27161e-11
0.00017848
7.13034e-07
-5.60762e-07
-0.000141209
0.00707876
-2.80042e-10
1.86414e-11
2.62588e-11
-3.44151e-09
-1.59544e-05
9.55067e-12
0.000233397
4.1099e-11
-1.22948e-07
-1.63558e-11
-3.40447e-11
2.97284e-05
-6.05336e-10
3.98678e-09
-0.000292813
3.52695e-06
3.50783e-11
-5.09413e-11
4.5276e-08
-1.507e-05
-4.9027e-09
-7.63962e-06
0.00440668
-2.31815e-11
-3.26162e-10
-5.41916e-11
0.00039556
8.17372e-10
1.41809e-11
6.25058e-08
-2.15002e-10
-4.02969e-06
3.13391e-05
0.00020005
-0.000118335
-0.000301921
0.000119584
-5.17145e-08
1.13871e-06
0.000241815
7.34326e-05
3.62821e-11
4.35536e-11
1.74333e-09
3.30736e-07
6.13033e-11
-2.20419e-09
-0.000670994
0.000307114
-4.85093e-08
9.05014e-11
9.33796e-11
0.000262791
-7.88047e-11
-3.43074e-12
9.91436e-11
-2.14692e-05
8.87827e-10
0.000490094
1.20717e-10
4.68521e-06
7.81937e-08
-1.13386e-09
-1.4023e-05
2.48586e-11
-1.08316e-11
-1.69472e-10
2.0772e-10
6.55923e-11
-0.000108265
0.00401191
5.53281e-11
2.50098e-11
-2.79312e-12
-4.00707e-11
-6.84625e-05
-1.76365e-11
3.01485e-11
1.33192e-10
4.46878e-11
-3.1284e-10
4.46182e-11
2.95927e-09
3.34905e-08
9.84416e-07
-6.15678e-06
6.90482e-10
-4.17432e-10
-1.21486e-10
1.60373e-11
2.58184e-06
-0.000506775
-6.45612e-10
-3.74579e-09
9.00268e-11
0.00285096
-3.20338e-09
-0.000783246
5.25135e-11
-0.00576675
-4.424e-11
3.15478e-09
2.07375e-05
1.81949e-08
-0.00417464
-5.81111e-08
-0.00352644
3.11875e-10
2.79934e-05
-3.02548e-12
0.00618171
0.00569232
-4.08737e-11
-0.00134106
-2.47766e-11
2.4453e-11
-3.1293e-05
6.5168e-11
2.09793e-11
-6.66316e-06
2.3538e-08
5.74318e-11
-1.44342e-10
2.68184e-10
-1.94373e-11
-0.000272916
-4.22237e-11
2.15393e-11
0.00158045
1.09846e-11
-9.86468e-05
3.66628e-10
1.71413e-10
1.76394e-10
-1.61048e-11
0.000379095
3.79761e-08
-0.00074738
-0.000270581
7.92928e-08
-2.03588e-11
-9.19485e-12
-3.48906e-11
-0.00113291
-1.39078e-09
-1.75557e-12
-3.58662e-11
7.12609e-11
-3.07842e-06
-0.000172366
2.36133e-14
-0.00177827
3.90981e-11
-2.06685e-08
-4.6298e-10
9.22278e-11
5.63717e-08
-0.000233926
6.30016e-11
4.18024e-07
3.34746e-05
7.29663e-09
1.08936e-11
-0.000200087
0.00264638
8.03031e-11
0.000129203
6.80255e-12
0.00700239
-3.95347e-10
0.00047671
0.000160394
2.37377e-08
3.52751e-11
7.0681e-08
-2.07267e-11
5.70972e-12
-2.74541e-09
-3.95365e-08
1.17207e-10
0.000152749
-0.000534935
-2.26541e-10
-7.70988e-11
-1.59369e-09
-4.95895e-10
1.18248e-07
-1.07026e-10
7.20138e-10
2.45113e-10
1.00051e-10
-1.13328e-08
9.74289e-06
5.18738e-11
-2.57012e-11
3.19627e-09
-0.00114296
0.000752421
-1.62298e-10
-0.000235852
0.00113689
-8.55557e-08
0.00229679
-4.19971e-10
-3.89995e-10
-9.91168e-10
-5.40462e-11
-1.248e-10
-0.00866547
9.5438e-10
-1.12074e-09
2.45495e-10
6.60817e-11
0.000137334
6.3165e-10
0.000105275
-9.24426e-10
0.00104995
-9.77916e-10
-0.000410833
-1.60762e-13
3.21961e-08
-8.20439e-09
2.9707e-07
-2.52667e-09
-7.78998e-11
0.000540437
-1.28398e-08
2.56255e-11
1.08432e-10
2.42844e-06
-0.000644232
-3.5116e-11
3.9871e-10
0.000441549
-0.000271279
-0.000803108
-7.14393e-11
4.09118e-11
0.00494625
-3.75827e-10
0.000152808
1.93014e-05
7.15824e-11
-1.67104e-09
0.000326717
-7.73561e-12
-4.92091e-11
-1.03556e-10
4.79052e-05
-8.81878e-09
5.68535e-07
3.45957e-09
1.82367e-05
9.19774e-05
0.00487673
0.00612354
-4.39863e-11
5.21113e-11
5.70418e-10
4.06543e-09
-2.23868e-10
0.00406622
-3.6987e-11
-0.000815259
-3.40177e-10
0.000415186
3.12289e-05
-2.3872e-09
-1.37794e-10
1.89293e-11
-4.11414e-06
1.5958e-10
-1.27389e-11
2.85144e-10
2.67576e-06
0.00686581
3.0049e-11
1.0411e-11
3.71655e-09
3.29472e-10
3.15143e-11
3.06882e-10
-6.58164e-05
-4.01584e-09
9.16988e-05
7.55699e-08
5.38786e-10
-1.26853e-05
2.70452e-09
0.0012889
4.76846e-10
2.92276e-05
-1.81782e-10
-3.15839e-11
-3.82201e-11
6.53194e-11
1.33225e-06
5.72077e-11
-1.22259e-05
-5.22438e-10
7.75059e-05
-3.65678e-10
1.1084e-08
5.83634e-10
-7.15427e-08
0.000169122
-0.000231705
-6.48825e-10
2.31068e-11
5.59363e-11
-7.78162e-09
2.64707e-12
-0.000480606
-2.10601e-09
3.49899e-08
0.00107866
-5.42401e-11
-2.4484e-12
-6.50886e-11
0.000323004
-0.00264227
-0.000116741
8.53036e-11
-9.55775e-12
1.58231e-05
-0.000120671
1.73264e-10
5.00422e-11
-0.000914246
-9.93878e-06
-2.52104e-11
0.00245962
-1.93733e-05
-4.51782e-11
-1.28563e-07
6.9679e-11
-5.73944e-10
-4.12236e-07
-1.23034e-10
3.98989e-11
1.54307e-08
-9.02423e-09
-2.43879e-09
-4.36519e-11
2.99106e-11
-9.92548e-10
-1.71847e-09
-9.81235e-10
8.33423e-11
-2.59627e-10
-8.01874e-10
2.24718e-11
-2.83674e-08
-2.79298e-09
-5.67159e-08
5.38329e-11
-0.00677301
4.38291e-11
1.00927e-05
-2.44437e-09
1.47999e-05
2.29788e-10
-1.42354e-10
-3.70871e-11
-1.89951e-11
2.15227e-07
-1.84808e-09
9.53755e-06
-8.55564e-11
1.47533e-11
6.61214e-08
-4.8636e-09
-0.000194207
1.08301e-07
0.000116462
-0.000929474
9.88524e-08
-2.28519e-05
4.07837e-11
-7.02682e-09
2.56183e-11
-1.79062e-09
8.9824e-11
-1.36596e-10
6.14121e-05
-5.63411e-05
-1.1814e-08
-4.02039e-10
-5.43996e-10
9.4306e-05
7.25513e-11
1.76497e-11
-3.51891e-10
8.92926e-11
-4.6367e-11
4.62061e-05
-4.14302e-12
0.000374241
8.4795e-09
5.38841e-09
3.93953e-05
5.10443e-06
-3.71894e-09
0.000298138
2.79652e-05
-1.67284e-05
0.000465063
-1.82429e-10
4.70572e-11
1.64925e-11
1.7941e-10
9.5641e-11
-1.28185e-07
-6.70828e-10
-0.000367398
-2.74461e-10
1.32059e-08
1.40063e-10
7.79979e-12
0.000131139
-7.145e-08
-0.00433158
2.48265e-11
1.11729e-10
0.000353545
-0.00108921
8.69564e-12
-0.0117312
4.9378e-11
-4.69506e-09
-8.30309e-09
3.20221e-11
-0.00237316
1.46479e-06
-8.5891e-10
-8.45689e-11
1.12136e-05
4.32923e-09
2.49368e-10
-3.98086e-05
-3.49535e-10
-3.08209e-06
7.0309e-09
4.42045e-11
-3.99515e-09
-1.70176e-11
5.76649e-06
0.00695201
-5.25655e-10
1.40817e-11
-2.48243e-08
-7.65667e-11
-0.000127363
-8.23644e-10
-1.6641e-05
-3.70321e-09
0.000176381
3.45532e-05
6.65611e-09
-0.00252958
1.70256e-05
1.0365e-10
6.42156e-07
0.00264404
5.86998e-08
-0.000239122
-2.5868e-09
2.99526e-09
8.09638e-09
-4.88558e-09
7.41835e-05
-5.73258e-08
-0.000152618
0.000135941
0.000160097
8.81527e-11
-1.18021e-10
-0.00280464
1.34893e-07
-0.000109307
-7.62875e-08
1.93821e-08
0.000118642
-1.97378e-09
-1.73196e-08
-8.51871e-06
5.30468e-07
6.35297e-11
0.00582076
-2.61901e-10
8.69553e-07
0.000230164
-5.74368e-10
-8.70907e-05
-3.52694e-08
1.49261e-10
0.000329121
1.01116e-09
-5.72444e-10
3.83955e-11
0.000125812
-0.000624946
-3.29258e-10
-3.34534e-10
-1.56933e-09
0.00394768
9.43482e-05
-5.83223e-05
2.29213e-08
0.00630975
-3.81685e-09
4.61877e-11
7.57721e-06
0.00366235
-4.84199e-11
-0.00260123
1.38922e-06
-0.00229498
3.65564e-10
5.54048e-10
0.000205668
1.02438e-05
3.12781e-07
3.22506e-09
5.62126e-05
0.00151136
3.96254e-05
1.12059e-10
-5.1791e-11
-1.01689e-09
8.40775e-11
-5.86343e-11
4.85145e-11
3.05794e-11
-1.59836e-08
4.90517e-05
-1.33655e-08
7.91023e-11
-1.67227e-10
4.35195e-05
3.61688e-08
-3.10011e-10
-0.000580571
-1.7886e-11
2.26673e-10
0.000866263
-4.36822e-10
-3.32519e-10
-0.000209657
5.53813e-10
-0.000477187
-2.08366e-10
-0.000214544
-1.41807e-09
-0.00202181
1.33062e-07
5.01016e-10
-8.68192e-12
0.000446801
0.00727423
5.80283e-08
-1.11048e-08
1.35648e-05
0.00950621
7.56123e-06
5.23741e-06
8.93149e-06
-6.45737e-05
-2.41999e-05
1.65421e-09
3.78095e-12
7.21664e-11
-2.45877e-10
-8.444e-11
-4.27668e-09
6.78848e-11
1.27065e-08
0.000662975
9.50034e-08
0.00607501
0.00415197
-0.000476422
0.00796594
-5.98525e-10
-0.000250009
-3.52348e-08
4.35061e-11
2.32704e-10
4.66049e-11
2.89661e-11
0.00488908
7.44463e-10
-0.00452319
-2.12389e-09
-5.49414e-06
-0.000112436
-1.41455e-11
0.00165066
1.08985e-10
-4.75932e-09
8.61391e-11
-2.69826e-11
4.69927e-06
-0.000430758
8.79319e-11
-0.00157104
-2.46869e-11
-1.59861e-11
-1.58491e-05
-6.35853e-11
-6.53834e-11
8.56294e-09
9.23541e-08
-6.83282e-09
1.15984e-08
-0.00296959
-3.03813e-10
-0.000251926
1.26355e-11
-4.47583e-11
2.48874e-05
0.000351195
-0.0229708
-2.77896e-09
-5.78283e-11
-2.62624e-11
-3.40423e-05
3.51313e-07
-1.1068e-08
-9.09017e-09
3.43818e-11
-2.16069e-10
-2.49802e-11
5.13651e-10
3.48271e-07
-0.00277692
3.04746e-08
4.09161e-10
1.72081e-10
-1.8008e-05
3.52181e-09
3.90385e-05
-0.000161801
-5.12379e-09
-3.81536e-05
-4.66993e-11
6.90411e-08
0.00259762
-0.000338926
1.23247e-09
-1.0037e-08
-1.29096e-10
1.15678e-08
0.00138081
-0.035765
0.00462979
-8.72237e-05
-2.53097e-12
-9.7548e-12
-0.00024571
-1.92689e-10
0.00686064
-9.10736e-10
-1.75753e-11
8.79904e-08
-0.000807955
-6.41452e-11
2.3829e-13
2.68948e-11
8.33152e-09
-1.58797e-11
1.1281e-09
7.39402e-09
7.77264e-09
-0.00170339
-9.4552e-11
5.84922e-10
0.00271179
0.00019153
-2.66226e-11
-6.34171e-09
0.00134273
-2.3791e-08
-0.000869458
0.00277052
5.58601e-11
-1.20495e-13
-3.24705e-10
0.000386838
0.000256565
-1.11845e-10
0.00377151
0.000113694
6.91072e-05
-4.01111e-11
5.03713e-11
2.7952e-10
-6.57435e-11
-0.00438189
1.26075e-05
-0.000429385
-0.000291728
4.10997e-10
1.25839e-10
0.00346798
-3.425e-11
0.0058607
-0.000949022
6.13153e-07
-0.000671048
7.31482e-05
-2.87147e-10
-7.88535e-10
-3.74528e-10
-0.00650907
0.000794559
0.014919
-8.43754e-11
-2.58041e-10
0.00136062
3.1937e-06
-6.4e-11
-3.56007e-10
-3.89528e-09
1.28893e-09
7.21067e-08
-0.000428129
-9.09399e-09
4.76498e-08
-0.000172761
7.11939e-08
-1.1127e-07
4.20357e-06
3.77014e-07
-7.95716e-06
1.86835e-10
0.000207929
-1.24797e-10
0.000791918
5.09525e-08
4.63633e-11
-0.00157163
3.9719e-11
-1.91298e-10
8.44035e-10
7.34705e-06
0.008901
-2.14424e-10
1.26213e-10
0.000235227
-2.19223e-09
-2.2944e-09
5.09341e-05
5.11388e-09
3.72692e-05
0.000294668
0.0117482
-3.34952e-10
-0.00468148
-2.11933e-08
6.82262e-10
-1.17108e-10
-1.36587e-11
-2.51381e-11
-0.00372588
8.85107e-10
3.62366e-05
-4.48716e-11
1.01034e-07
-6.67151e-10
4.38432e-08
-1.85044e-08
5.80531e-11
3.60344e-05
1.22122e-11
-1.1958e-05
-7.58327e-11
-0.000142279
4.11559e-08
4.46406e-06
5.94191e-08
-2.65686e-08
3.39673e-08
-6.44012e-09
1.24779e-06
6.22308e-05
6.4534e-07
-5.21735e-08
0.000102441
1.90235e-10
-5.38167e-09
-4.96271e-10
0.00489845
0.0164467
-0.00016293
6.34641e-08
5.64987e-07
2.41614e-11
-0.056975
-0.000520737
0.000281334
-1.96234e-09
-2.19604e-11
9.83567e-08
-0.00168381
1.71564e-11
1.22802e-06
0.000366613
6.23881e-10
0.00491251
9.13374e-11
-0.000318774
0.000455381
-0.00127415
8.52552e-09
5.29538e-11
-7.21626e-11
0.00453276
2.34019e-11
-4.27757e-09
-0.000436065
-1.4723e-08
-1.29434e-11
8.51858e-08
9.45447e-06
4.70763e-09
3.31985e-11
1.32854e-08
3.47115e-07
6.51583e-10
-9.70661e-09
-5.23574e-05
0.00210233
3.39565e-07
1.49017e-05
-3.29477e-05
-1.49943e-08
-4.04465e-11
8.69537e-05
4.78277e-11
-1.91823e-10
2.42952e-05
-6.48214e-07
8.26652e-11
-1.99971e-11
-3.21839e-10
1.21522e-06
-0.00201661
-1.1765e-10
0.000120847
-2.36787e-09
0.000118003
1.03927e-07
0.000451827
0.000421414
3.7116e-10
-0.00240019
-0.000333184
1.8963e-10
6.46541e-11
0.000763241
-1.60635e-09
0.000166937
-8.27261e-11
-1.06879e-09
-2.44826e-09
-2.95739e-09
-2.51996e-09
0.0022087
-4.10162e-11
6.05425e-08
0.00483484
1.24918e-10
0.00260694
5.96633e-10
9.89847e-08
2.8578e-05
8.08527e-08
-1.8876e-05
-7.80451e-11
-0.000124879
-1.89394e-08
1.80042e-11
4.00519e-08
-1.34071e-09
-2.60984e-08
1.25391e-07
-7.34239e-11
-8.34935e-10
-4.41105e-10
-4.61029e-05
5.97315e-05
-3.29734e-06
1.09434e-06
1.11893e-10
1.98752e-06
-2.29983e-10
-4.25142e-10
0.000118157
1.02063e-11
-1.06274e-09
-0.000101615
6.85807e-12
-2.35744e-08
-0.000209611
2.89494e-08
-0.000344776
-0.0017308
3.20355e-10
3.49721e-09
5.82516e-09
1.64833e-10
2.9153e-08
0.00115899
-8.82805e-13
-3.12225e-10
0.00160446
-2.77269e-06
0.000133766
0.00142295
-0.000226772
2.48949e-11
-6.88078e-05
0.00102647
1.16401e-10
8.7803e-11
-2.32932e-08
0.000119159
0.000180658
-1.82454e-09
1.61149e-10
7.87455e-05
-1.22932e-07
1.40199e-09
-3.12984e-09
-3.77015e-11
-8.344e-11
-0.00399624
8.20851e-09
-0.000191844
-0.0100716
-4.53407e-11
-0.0554456
5.48287e-11
-5.89716e-09
-0.0284602
-0.0011395
-0.00278061
1.41701e-10
-1.636e-08
-0.000345971
-3.39025e-10
-1.62942e-09
0.00228547
-1.23487e-05
-0.0158632
-0.000165518
2.29195e-06
4.57065e-11
-2.95895e-11
1.04639e-10
-0.0120157
-0.00157536
2.78886e-08
-2.64047e-09
-1.09422e-11
-5.4923e-05
0.0044259
2.54924e-10
-2.11661e-05
6.29013e-08
0.000524576
1.68208e-07
-3.57901e-11
0.000272659
6.61002e-11
4.57686e-09
-8.20588e-07
2.74966e-11
-4.22247e-09
0.000161813
-2.28238e-09
-1.26319e-10
-1.39294e-08
-0.0051294
-1.23305e-10
2.39451e-07
5.23203e-11
-8.56476e-05
0.000711197
-0.000202557
-5.83379e-12
1.762e-08
4.85002e-08
-0.00348722
-0.000201324
-4.75552e-12
5.25727e-09
1.38092e-08
9.31568e-11
-3.34455e-05
2.85953e-08
-7.71182e-09
7.79125e-11
-3.34872e-10
-3.75636e-11
-1.07648e-11
3.17517e-09
-3.62745e-09
-6.91129e-09
-0.000231451
0.00348126
2.36289e-05
5.82188e-10
-1.61706e-07
8.52144e-06
3.23341e-09
-1.11108e-08
-6.23485e-06
6.64409e-11
1.35318e-08
5.83951e-11
-1.76222e-10
1.19393e-10
2.88243e-07
-3.71134e-08
-0.000188253
-1.89603e-09
0.00242086
0.00909768
-0.00398454
-2.04215e-06
0.000371402
-6.69335e-09
-3.23246e-09
-0.0387536
3.92723e-10
1.38873e-11
-6.56638e-11
-1.93154e-10
-2.58435e-11
1.05352e-10
2.21697e-08
-7.27185e-11
1.41926e-07
0.010333
-6.43776e-09
-9.56237e-05
9.21504e-10
5.72553e-08
-5.32911e-08
-2.14646e-11
-2.68081e-09
2.36078e-05
6.54568e-07
4.34473e-09
8.92802e-12
-0.0300813
4.29185e-12
-8.64402e-05
-0.00248785
-0.000165811
3.07857e-05
-9.20311e-09
-4.98187e-06
0.00160501
7.79859e-05
-2.44395e-09
3.38599e-07
0.00195056
0.00105129
1.16331e-10
-0.000624175
6.40775e-11
1.10928e-11
0.0068182
3.61457e-06
1.86856e-11
3.18219e-10
-0.000379175
7.06894e-11
7.7398e-05
4.61249e-10
0.00241245
-3.76817e-10
-1.57643e-09
-4.09308e-11
-4.87015e-10
8.57924e-11
-1.17562e-11
2.07085e-09
0.00328845
3.33242e-10
-0.000463767
-9.40032e-06
-0.00116943
-1.07159e-09
-0.00380496
-2.12269e-11
-2.41827e-10
0.000828531
-0.00414304
-6.34946e-08
9.68899e-08
-9.78324e-11
-4.42469e-11
1.83306e-08
2.00347e-05
-0.000160164
5.54163e-10
-4.00727e-05
0.000697372
-1.09134e-07
-1.83642e-11
-9.80755e-11
3.65275e-11
-7.62627e-11
-3.03195e-08
0.00364294
-1.89126e-10
-0.00307718
3.09275e-09
-0.0103105
-2.59499e-05
0.0028498
-0.000549447
6.68313e-11
-2.85484e-06
-2.89925e-09
7.21135e-10
2.82879e-09
-6.27709e-08
-9.48445e-08
1.08506e-10
-1.05267e-11
-0.000195124
0.00805
-0.000113277
0.0077384