/*--------------------------------*- C++ -*----------------------------------*\
| =========                 |                                                 |
| \\      /  F ield         | OpenFOAM: The Open Source CFD Toolbox           |
|  \\    /   O peration     | Version:  v2012                                 |
|   \\  /    A nd           | Website:  www.openfoam.com                      |
|    \\/     M anipulation  |                                                 |
\*---------------------------------------------------------------------------*/
FoamFile
{
    version     2.0;
    format      ascii;
    class       volVectorField;
    location    "250";
    object      ddtCorrDdt0(U);
}
// * * * * * * * * * * * * * * * * * * * * * * * * * * * * * * * * * * * * * //

dimensions      [0 1 -2 0 0 0 0];


internalField   nonuniform List<vector> 
18649
(
(-0.0644982 0.137482 -5.52009e-21)
(-5.87802e-05 -1.23468e-05 1.03868e-20)
(-0.0507548 0.144392 4.9335e-21)
(-0.00620128 -0.0399011 -1.92217e-20)
(-4.3391e-06 6.0839e-06 4.6443e-21)
(-0.0606476 0.0212604 0)
(-0.000115592 9.01346e-05 0)
(-0.00017316 -1.32041e-06 -2.53014e-22)
(0.0288647 0.0135844 1.68088e-21)
(-0.0527743 -0.101988 2.22862e-20)
(6.37623e-05 -0.00020894 1.92938e-20)
(-0.000153486 -5.58594e-05 -3.71802e-21)
(-9.07248e-06 4.71891e-06 -4.0956e-21)
(-0.00111563 0.00104155 -1.8574e-20)
(0.0242842 -0.208062 7.51148e-21)
(-1.74017e-05 -2.69565e-06 0)
(1.33961e-05 -0.00335578 4.61583e-21)
(-0.000107883 8.42906e-05 0)
(-0.0646541 -0.123206 1.17617e-20)
(-5.8254e-05 -1.32796e-05 0)
(-0.000156915 -4.42795e-05 6.78099e-21)
(0.0265877 0.101144 6.21656e-22)
(-0.0360047 0.0296501 -1.36758e-21)
(-0.00310371 -0.0302612 0)
(-0.0335546 -0.11327 -3.75672e-20)
(-0.0318448 0.0272786 1.43663e-21)
(-0.00902185 0.133114 3.93094e-21)
(-0.0101976 0.209171 3.1906e-21)
(0.00108843 -0.00141332 1.32862e-20)
(0.0241218 0.019683 -6.3747e-21)
(-0.00537148 0.00228308 0)
(-0.00467697 0.00283365 0)
(-0.000279623 -0.0033851 1.28367e-22)
(-0.00752719 -0.00820721 1.87e-20)
(-0.000101217 -2.80067e-06 -8.1358e-21)
(0.000818455 0.0157274 0)
(0.0355682 -0.235105 4.17092e-20)
(-0.0138912 -0.0198445 1.41632e-20)
(3.99031e-05 -0.000197971 -1.9033e-20)
(-0.00106767 0.000965454 4.04681e-21)
(-0.0999469 -0.0994965 2.12699e-21)
(-0.00224706 -0.000313023 -1.33736e-20)
(0.0427784 -0.0360609 -1.71603e-20)
(-0.00365131 0.213978 9.52453e-22)
(-0.00402546 -0.083587 2.55332e-21)
(0.0243336 0.0865225 2.59685e-21)
(-0.0146144 0.0431036 -1.00336e-21)
(-0.00153628 -0.00835555 0)
(-0.000127297 4.11717e-05 6.52316e-21)
(-0.0315657 -0.0288106 2.54569e-20)
(-0.00530396 -0.0372875 0)
(-0.0466553 0.0214367 1.61838e-21)
(0.000622324 -0.000643198 3.49295e-21)
(-0.0980668 -0.0879075 1.48403e-21)
(-0.0005664 -0.000811675 1.10164e-21)
(0.00825391 -0.0853774 0)
(-0.217803 0.103672 0)
(-0.000127298 3.11273e-05 -6.49802e-21)
(-2.79187e-05 -0.00109058 8.73466e-24)
(0.0400854 0.118508 -1.17236e-21)
(-8.92131e-05 0.000229872 0)
(0.0169612 -0.000893003 9.19871e-21)
(-0.000166537 -3.18938e-05 0)
(-0.180537 0.0208091 -9.0213e-21)
(0.0315891 0.0187355 2.86627e-22)
(-0.0545124 0.00166011 -7.98803e-22)
(0.0380644 0.105084 1.09593e-21)
(-0.0038352 -0.00232838 0)
(-0.00528577 -0.0882667 -1.85982e-21)
(0.0217422 0.1011 2.12184e-21)
(-0.00638025 0.127604 0)
(-0.00685049 -0.00818061 -4.03612e-20)
(-9.86592e-05 8.27811e-05 0)
(-0.000172176 -2.59342e-05 0)
(-0.00196105 0.00750405 0)
(-0.00630744 0.214254 -4.1288e-22)
(-0.0116956 0.206662 1.62556e-21)
(-0.000101492 -2.99073e-06 9.46412e-21)
(0.0642821 0.0499231 2.6121e-21)
(0.00234478 -0.00454064 2.59822e-25)
(-0.00129624 0.00649215 0)
(-0.0170268 -0.0219932 -2.00427e-20)
(-0.0889674 -0.0265659 0)
(-0.0619823 -0.0930698 -1.35228e-20)
(-0.000170293 -1.18026e-05 1.65711e-22)
(0.0137215 -0.0800235 -5.19297e-20)
(0.00502686 0.00665846 1.0169e-20)
(0.0101528 0.00204809 -8.8737e-21)
(0.00309006 -0.00467458 -2.13533e-22)
(0.0151323 -0.28844 0)
(0.0365936 -0.215696 -1.13451e-20)
(0.0286248 -0.0254005 0)
(-0.0043042 -0.0322153 2.41487e-20)
(0.0244501 0.0472806 2.18736e-20)
(-2.41929e-05 0.00139019 -1.2436e-21)
(0.000535994 -0.000740933 -3.31816e-22)
(-0.000659648 0.0157944 1.28078e-22)
(-0.00807196 -0.0365665 0)
(-0.0480014 0.0049212 1.01345e-22)
(-5.85639e-05 0.000248529 -1.52978e-21)
(-0.0111162 -0.0012586 1.87284e-21)
(-1.5685e-05 -4.46667e-06 -2.35562e-21)
(-0.034167 -0.0247668 0)
(-0.000174758 -2.88925e-06 2.96005e-22)
(0.0246619 0.0175643 1.35247e-21)
(0.0253389 0.0452281 -1.26054e-21)
(-0.0920287 -0.0147934 3.50863e-21)
(0.0189156 -0.153528 1.695e-19)
(0.00105559 -0.0883057 1.98667e-20)
(-9.36979e-05 7.67592e-05 0)
(-9.77955e-05 -8.83189e-06 7.57641e-23)
(-0.00256993 -0.00987464 -3.28482e-21)
(0.0136318 0.00315027 8.2041e-21)
(-2.35462e-05 -2.43078e-05 8.65431e-21)
(-1.34557e-05 0.00125847 0)
(-0.00404935 -0.036987 -7.96779e-21)
(-0.003986 -0.00211967 1.26997e-20)
(-0.00266532 -0.010359 -1.46382e-20)
(-4.34467e-05 9.03358e-06 4.80687e-21)
(0.00578713 0.00598413 2.88884e-21)
(0.000122462 0.000340093 1.59779e-21)
(-0.00147837 -0.0229447 -1.17825e-20)
(0.00977497 -0.169143 2.99301e-21)
(-2.54411e-05 -1.83048e-05 -5.42952e-21)
(-0.000163696 -5.04942e-06 2.55497e-22)
(-0.002191 -0.000817634 0)
(0.0372152 -0.0636691 0)
(-0.00094824 0.00137536 0)
(0.00130783 -0.00144195 -3.98145e-23)
(0.000105989 -0.000884897 -1.44032e-22)
(-0.000310768 0.000232229 2.32149e-20)
(-0.165254 0.00287515 9.72061e-21)
(0.0235705 0.000905256 0)
(0.0264452 0.00316411 1.97516e-20)
(-0.000101255 4.05967e-07 -1.48777e-20)
(0.00903028 0.0862535 -1.12851e-21)
(-0.00280124 0.184811 -3.19649e-21)
(0.0209149 -0.160803 -1.29129e-19)
(-0.00047389 0.159441 4.6954e-21)
(-0.00163093 -0.0877801 -5.10982e-22)
(-0.00109828 -0.00739708 -3.83227e-20)
(-6.10696e-05 -9.87533e-07 2.60196e-21)
(-0.000136807 -0.000277679 -9.3465e-23)
(-0.00165543 0.000178326 3.23036e-21)
(0.00963485 0.116801 1.74071e-21)
(0.000183128 0.000139592 -1.51656e-21)
(-0.000906898 -0.000482222 -9.14306e-21)
(0.0230483 0.00535457 1.41111e-20)
(0.0204575 0.0522892 -3.11283e-21)
(-0.000623532 0.00016634 -1.63493e-22)
(0.0130552 0.232153 -7.34979e-22)
(-0.102943 0.0198355 5.40351e-21)
(-6.09426e-05 -1.3454e-06 8.24883e-23)
(-9.28673e-05 6.54507e-05 1.4946e-20)
(-0.0018426 -0.0188527 0)
(0.00270761 -0.0401268 2.40679e-21)
(-0.000634392 0.00020263 7.78109e-21)
(-0.000150409 -0.00113226 2.38916e-21)
(-7.35925e-05 -3.92152e-05 -2.65569e-21)
(-0.014363 0.0585663 -3.45033e-21)
(-0.029624 -0.0341926 0)
(0.0132345 0.12439 1.0158e-20)
(-0.000589719 0.000122901 -2.58587e-20)
(0.0116816 0.106858 -3.9835e-22)
(3.59955 -0.284105 -1.07223e-18)
(-6.36275e-05 2.58463e-06 2.6601e-21)
(0.00575361 0.0126385 6.13458e-22)
(0.00785165 0.0366703 6.50052e-21)
(-2.8608e-05 -8.7459e-06 -1.13033e-21)
(3.08383e-05 0.000191994 0)
(0.00505502 0.00751072 -7.08002e-23)
(-4.06867e-05 7.2711e-06 -5.62619e-21)
(-0.000199148 -1.83479e-05 1.54256e-21)
(-0.000860507 -0.00194814 -2.28378e-21)
(-0.0302822 -0.0252465 -2.73761e-20)
(-0.000789145 -0.0477947 3.35003e-21)
(0.0188582 0.135579 -7.41424e-22)
(-0.00061757 0.000237128 0)
(0.0144494 0.0295142 0)
(-0.0299086 -0.0247085 5.11678e-21)
(-0.000151542 6.04219e-05 0)
(-0.00676337 -0.094586 1.31042e-21)
(-6.28116e-05 -0.00299369 0)
(-2.36251e-05 -0.00100974 -2.5219e-21)
(-0.00113671 -0.000924338 4.20279e-21)
(0.000122443 -0.00263662 0)
(-0.000527956 -0.000691251 3.35748e-24)
(-0.00112524 -0.0200831 -1.7895e-21)
(8.40557e-05 0.000263176 7.29946e-22)
(-0.000566282 0.00028208 0)
(-0.00444779 -0.000284956 0)
(0.00210914 0.261813 -3.76813e-22)
(-0.0972965 0.0284954 -4.70184e-21)
(0.00797709 0.00801283 -7.79776e-21)
(0.0185449 -0.00968132 0)
(-0.000183668 -7.63348e-06 -1.28005e-21)
(-0.000904776 -0.00324927 3.84122e-24)
(-0.00059761 -0.00288746 2.4587e-21)
(0.780982 -0.131837 6.1321e-19)
(-0.000979984 -0.00826239 -1.45987e-21)
(-0.000648168 0.000206183 0)
(-1.36106e-05 1.4023e-05 1.08936e-21)
(-0.00763775 0.0696478 0)
(-9.79645e-05 7.06683e-05 3.1322e-21)
(-0.00183423 0.000257809 -6.23756e-21)
(-4.08931e-05 9.88259e-06 8.11314e-21)
(0.0289763 0.00310554 -1.34752e-20)
(0.0358879 0.1494 0)
(-0.00170863 -0.00178582 -8.50814e-21)
(0.000400554 -0.000689927 0)
(5.1003e-05 0.000245132 -3.74964e-22)
(0.000410818 0.00464875 0)
(-4.82875e-05 -0.000161343 -6.30751e-22)
(-0.0115583 0.00786452 2.29022e-22)
(-0.0463001 0.0608471 1.81717e-21)
(-0.0137647 0.00881862 -4.15148e-20)
(-7.04553e-05 5.43432e-06 -1.63805e-20)
(-0.00431127 -7.79413e-05 -7.23704e-21)
(-0.000321741 -0.00105664 4.45001e-21)
(-0.0112162 0.0381372 0)
(0.00316134 0.0307073 0)
(0.000677848 -0.00534053 -1.08611e-21)
(0.0112976 0.086672 0)
(0.0255991 0.0373386 0)
(0.0218811 0.0679798 -3.93198e-21)
(0.0030828 0.0120228 -5.55841e-22)
(-0.0855785 0.00964546 -3.0104e-20)
(0.0835284 -0.0581359 4.23963e-20)
(-8.01283e-05 3.03629e-07 0)
(0.00568818 0.034266 -1.11049e-21)
(-0.000477713 0.000236143 -8.26137e-22)
(-0.00340054 0.00600305 1.64189e-21)
(-0.00170227 -0.00879921 0)
(-0.000123687 -7.67633e-05 2.43253e-22)
(-0.0793948 0.431682 0)
(-0.000147054 7.2235e-05 -6.10495e-21)
(-0.00298378 0.000484383 -1.68284e-20)
(-0.00124778 -0.000768604 7.95211e-21)
(-1.79963e-05 -0.000203032 6.41091e-22)
(-0.000181978 -1.8172e-05 -1.28966e-23)
(0.0191658 -0.0039213 -1.58547e-21)
(0.00660405 0.132539 0)
(0.0445013 -0.00230391 0)
(0.0670339 0.0514782 0)
(0.0487477 0.00578825 0)
(-0.00386912 0.00766995 -2.72009e-21)
(0.00881765 0.0076575 2.30725e-21)
(-0.000105438 7.97106e-07 9.83408e-21)
(-0.0136988 0.0993867 -5.93533e-21)
(-0.00200336 -0.0214513 3.57384e-20)
(-0.00451079 0.00836404 2.86762e-21)
(0.0837749 -0.0542525 -8.08414e-21)
(-0.0012535 0.000902046 1.9321e-21)
(-0.00313833 0.0074066 -1.74892e-21)
(-0.0051189 -0.00574186 -8.53758e-21)
(-6.55825e-05 2.34054e-06 7.4504e-22)
(0.000324814 -0.000748696 0)
(-6.77122e-06 0.000225122 -1.48774e-21)
(0.0117318 0.0323338 2.56222e-21)
(-3.21705e-05 -8.0907e-06 0)
(0.0270003 -0.230665 -7.127e-20)
(-0.000106139 2.8332e-05 -5.45274e-22)
(0.000243395 0.000380119 0)
(0.0149824 -0.00433869 6.3553e-21)
(-0.000101793 -0.000150633 6.22685e-22)
(-0.0807012 0.0129408 1.24681e-20)
(-0.00016673 -6.84684e-06 0)
(-0.000665511 0.022846 7.82744e-22)
(-2.20844e-05 3.53812e-06 0)
(0.000745459 -0.000794283 5.61367e-22)
(0.00538005 0.110345 -1.66021e-21)
(0.0857672 -0.0257745 1.04517e-20)
(-0.0107507 0.00709775 3.41696e-22)
(0.000615581 -0.000808182 0)
(0.0292776 -0.219436 1.22192e-20)
(-1.03505e-06 -0.0231601 5.78067e-20)
(-0.000549042 0.00156741 -7.47331e-21)
(-0.00160465 -0.00407718 2.75951e-20)
(0.01813 -0.00575529 0)
(0.0187944 -0.00112328 -8.90368e-21)
(0.0171566 -0.0935622 -6.54245e-21)
(-0.00274305 -0.000430535 -2.90015e-20)
(0.0305749 0.167384 0)
(-6.98086e-05 4.65482e-06 6.00148e-22)
(-1.66436e-05 -0.000904975 -9.00832e-22)
(0.0126547 -0.0757431 6.02706e-20)
(0.0106687 0.0249525 0)
(-0.000109242 -9.16637e-07 0)
(-0.0107131 0.195148 0)
(-0.000173518 -3.18402e-06 -5.07597e-22)
(-0.000159641 2.77706e-05 2.81135e-21)
(-0.0517106 -0.0152154 -5.39266e-21)
(-0.000258803 0.000333893 9.62295e-21)
(-0.00126129 0.000558153 0)
(0.0779784 -0.0123101 9.74133e-21)
(-0.0161667 0.10044 0)
(-0.204298 0.0692886 -6.83297e-21)
(0.0579208 0.118764 -1.23684e-20)
(-0.000885176 -0.00703008 0)
(-0.00049335 -0.00116708 -2.56709e-21)
(0.000190241 0.00118573 0)
(0.0221632 0.0824961 -2.52627e-21)
(0.0232756 0.0342591 0)
(0.0154394 0.113456 -2.40462e-21)
(0.0534327 -0.0509524 9.19849e-21)
(0.00287091 0.00953491 0)
(-0.00184283 0.0261543 0)
(0.0153828 -0.0181627 4.38028e-20)
(-0.000814718 -0.00782665 -2.23182e-20)
(-0.0317145 -0.0351786 -1.71313e-19)
(-0.000158865 1.33798e-05 3.01284e-21)
(-0.0449559 -0.0185892 -6.31611e-22)
(0.000150141 -0.00119162 1.79168e-23)
(-0.00133358 -0.00135869 1.99802e-21)
(-0.000965072 0.0017279 -2.24903e-20)
(-0.000286755 0.00641042 0)
(-0.00514023 -0.000124144 2.57902e-21)
(-0.0394785 -0.312857 2.19017e-20)
(-0.00744402 0.155861 -8.57771e-21)
(-0.0011216 -0.00127707 -2.59781e-21)
(0.0554972 0.0634548 -8.86744e-22)
(3.45955e-05 -0.00058365 1.77542e-21)
(7.95927e-05 0.000309885 -7.84192e-22)
(-8.99147e-05 -8.83909e-06 8.75573e-21)
(0.0631553 0.114567 1.44896e-20)
(-0.00387006 -0.0040038 2.24886e-22)
(0.0818538 -0.00724532 -1.29139e-20)
(0.00154968 0.0672906 1.62014e-21)
(-0.000610591 -0.00176937 3.26893e-21)
(-0.000115099 3.51243e-05 1.02235e-20)
(-0.00143201 0.000724687 1.10011e-20)
(-0.00816876 0.19978 1.61919e-21)
(0.0180731 0.0133996 0)
(-2.33471e-05 4.78684e-06 -1.88726e-21)
(0.0239779 -0.147732 -3.04987e-21)
(-0.000178619 7.03018e-05 0)
(-0.046822 -0.0113671 6.426e-22)
(0.00126367 0.00895348 7.79449e-25)
(-0.0155101 -0.0194142 -3.12677e-20)
(0.0248873 0.00530997 0)
(-0.016676 0.00054768 -1.48784e-21)
(0.0481702 0.0889558 0)
(-0.0302936 -0.285906 -2.2554e-20)
(-0.0111494 0.166851 -1.76068e-22)
(-0.00134302 -0.0973165 -2.68369e-21)
(-0.00219002 -0.0428367 -3.62977e-20)
(0.00633592 -0.0144777 -5.3765e-21)
(-5.88118e-06 -0.00025607 -5.33308e-21)
(0.0639984 0.126621 -1.23553e-20)
(-0.0773127 -0.0934401 0)
(-0.00282573 0.000578122 2.5498e-20)
(0.0580241 -0.0204514 7.86263e-22)
(-0.000105713 1.15968e-05 0)
(-0.00212528 0.00617215 4.34592e-21)
(-0.00513128 -0.0052423 -8.77484e-21)
(-0.00830918 -0.0260698 9.73572e-21)
(-0.00354938 -0.00372372 0)
(0.0810506 -0.0648908 0)
(0.0016601 0.00590438 1.776e-21)
(-0.000539539 -0.000484378 1.26446e-21)
(0.0110083 0.00288119 9.68892e-21)
(-0.0177058 -0.363819 5.13512e-21)
(0.0113017 0.020081 -1.32023e-21)
(0.000481425 -0.00154167 -2.23093e-21)
(-0.0460506 0.0286031 1.75053e-21)
(0.0296436 0.131062 2.12252e-24)
(0.000194574 0.00104907 -4.14361e-21)
(-0.00016829 -1.39763e-05 -1.63322e-22)
(0.0556464 0.0861682 -1.24908e-22)
(-4.53809e-05 -0.00017859 0)
(-0.0019587 -0.0166972 -3.70799e-20)
(0.133679 0.128726 -2.43843e-20)
(0.0011429 -0.00466971 1.03926e-21)
(-4.36033e-05 -1.53005e-06 1.23349e-23)
(0.035476 -0.224458 1.52995e-20)
(-0.000355021 0.000313944 0)
(0.0615306 -0.0166953 0)
(0.0662476 0.061225 -2.82319e-21)
(0.0737255 -0.0590582 0)
(0.0181356 0.0111898 4.02032e-21)
(0.0166461 0.0107856 -1.34776e-20)
(-0.000870388 -0.00147853 1.32698e-21)
(-0.00179719 0.00563983 -3.63478e-21)
(0.0893804 -0.0346086 -1.8511e-20)
(0.0757669 -0.0409305 -1.75829e-21)
(-0.000321333 0.00425617 1.53656e-20)
(-0.0190137 0.0017389 0)
(-0.000126257 -0.000159163 -3.14717e-21)
(-0.00133146 0.000703715 0)
(-8.72536e-05 -1.01666e-05 -2.25192e-20)
(0.0195948 0.0143574 0)
(-0.00434438 0.00568907 0)
(0.00150319 0.00719996 -7.64278e-25)
(-0.000767675 0.00430902 3.47813e-22)
(0.00949724 0.139602 -5.94512e-22)
(-0.0366357 -0.0188039 -5.9269e-22)
(0.00423546 0.0051027 2.64087e-21)
(-0.00108619 -5.65446e-05 7.44372e-22)
(-3.90635e-05 3.0033e-06 -7.92041e-22)
(0.000284381 -0.000594182 -6.13037e-23)
(0.052938 -0.0562195 0)
(-0.0496179 0.0558726 0)
(-0.00156937 -0.00172846 0)
(-0.0709025 0.00992963 0)
(0.0051818 -0.011855 5.09204e-21)
(-0.000168364 -7.10117e-06 0)
(-0.00011126 -0.00014789 0)
(-0.0278041 0.0191189 0)
(-0.000668986 -0.00134493 0)
(0.00618942 -0.0135388 -2.20259e-20)
(-5.39829e-05 1.86608e-06 2.60783e-21)
(-0.0685434 0.00468908 0)
(0.0298949 -0.0284566 -2.0684e-20)
(-0.000337663 0.000162358 0)
(0.0253817 -0.0980429 3.6211e-20)
(-0.00344137 -0.00510812 -2.3536e-20)
(-0.00795331 0.208441 4.43974e-22)
(0.0113899 -0.00111733 2.09673e-20)
(-0.00125039 0.00140695 2.64637e-20)
(-0.0021792 -0.000472527 2.2939e-20)
(-0.00849927 -0.00949775 -6.54438e-20)
(0.000522156 0.00669835 -6.69041e-22)
(-0.0292054 -0.0310346 0)
(0.0535471 -0.0704556 2.51045e-21)
(-0.0234098 0.0588273 6.59056e-21)
(-0.000183501 -1.70122e-05 0)
(0.0170432 0.0214169 1.93094e-21)
(0.00323352 0.0302474 -1.9787e-21)
(-0.00172372 -0.00383095 2.26796e-20)
(0.128753 0.168332 0)
(0.00693707 -0.0844436 1.31982e-20)
(0.000225029 0.00013705 3.9825e-22)
(0.00692866 -0.00102072 8.77183e-21)
(0.00767105 -0.00070338 0)
(-0.0562764 -0.0597474 0)
(8.58944e-05 -0.000131319 1.20035e-20)
(-0.000338567 0.000408676 6.03635e-21)
(-0.00559202 -0.263389 -2.95771e-21)
(1.88706e-05 -0.000247692 0)
(0.00282339 0.00328102 2.75742e-21)
(0.000232259 8.31767e-05 -3.59297e-22)
(-0.000182112 -9.0071e-05 -1.07218e-22)
(-0.000257741 0.000369742 1.11792e-20)
(-0.0110849 -0.018741 3.87545e-20)
(-0.000381423 0.000189911 -5.03025e-21)
(-0.00111053 0.00102871 0)
(-0.00113895 0.00148226 0)
(0.0288911 -0.0348241 4.1459e-20)
(-0.0475564 0.0447645 0)
(-0.000737914 0.00507271 6.00148e-21)
(-0.000615488 -3.66415e-05 2.03338e-21)
(0.0484634 -0.0516992 0)
(-0.000596207 -5.09901e-05 7.77735e-21)
(-0.0101282 -0.0583122 -4.21207e-21)
(-0.00778045 -0.00933497 6.76727e-20)
(-4.86047e-05 3.67844e-06 -3.20719e-21)
(-0.000130065 -7.99922e-05 4.25911e-21)
(1.58247e-07 -0.00038886 -1.1385e-23)
(0.106352 -0.0241239 -1.15897e-18)
(0.019873 -0.0818718 5.98643e-20)
(-0.00112989 -2.00387e-05 5.00709e-23)
(0.149745 -0.218874 -5.16831e-20)
(7.61331e-05 -0.000150912 -1.69896e-20)
(0.0242865 0.125386 0)
(-0.0666798 0.495654 -1.68172e-20)
(9.6729e-05 -0.00230508 -1.23909e-21)
(-0.00019642 -0.000106981 1.53457e-22)
(0.000286923 -0.00162924 -1.65584e-22)
(-0.000781217 0.0012725 0)
(0.000334972 0.00385069 0)
(-0.00586181 0.0123702 -8.05873e-23)
(0.000159713 0.000364683 -6.84881e-22)
(-0.0109707 0.00937854 0)
(-0.00140776 -0.0415266 3.76768e-21)
(-0.0448167 0.0351346 9.54474e-21)
(0.0154415 -0.0149829 3.587e-20)
(-9.75109e-05 0.000105076 0)
(-0.00114033 0.00126899 0)
(-0.0168307 -0.0073891 1.11775e-20)
(-0.269901 -0.46054 -1.95715e-19)
(-0.0108529 -0.0126541 -6.77443e-21)
(0.0605202 0.0453703 -2.01064e-21)
(0.00559009 0.00512965 0)
(-3.62029e-05 0.000220791 0)
(0.000936856 0.00311365 0)
(0.0759028 0.0614857 -3.15144e-21)
(-0.000262513 0.000123313 -3.28551e-21)
(-0.0358202 0.0435922 0)
(0.0416568 0.085985 0)
(-9.05393e-05 7.73819e-06 4.51087e-21)
(-0.00557086 0.0111602 -2.15111e-21)
(-0.000516145 -0.265679 2.81657e-21)
(0.000748295 -0.00292322 2.54529e-22)
(0.0360515 0.0182783 0)
(-7.40784e-05 -3.23574e-05 2.78462e-21)
(0.0408424 0.0184901 4.90333e-22)
(0.0374803 -0.0152007 -8.99225e-22)
(-5.8997e-05 -5.6962e-06 3.15194e-21)
(-8.4388e-05 2.28134e-05 -1.31528e-21)
(0.00157219 -0.000176579 0)
(-0.0444014 0.0410987 6.22454e-21)
(-0.00240861 -0.000292116 2.08833e-20)
(-0.000777877 0.0020212 -7.50842e-21)
(-0.00365264 -0.0030158 1.58963e-21)
(-0.0421059 0.0203198 0)
(-0.0460626 0.0123465 8.91603e-22)
(-0.029734 -0.390386 -5.28243e-21)
(-0.000404615 0.000282327 4.14037e-22)
(-0.000154815 -0.00014859 0)
(-0.0395801 -0.0520951 8.64794e-21)
(0.00417442 0.00202377 1.82425e-21)
(-0.00013754 0.000314031 9.31048e-21)
(-9.68504e-05 -1.05258e-05 -5.96362e-22)
(0.04011 -0.0402765 1.35772e-20)
(0.0253486 0.000961027 7.78096e-21)
(0.0134348 0.0047035 -4.66611e-21)
(-0.00422872 0.210797 1.24062e-21)
(-0.000167774 -3.398e-05 0)
(-0.0572209 -0.032174 -3.17103e-20)
(-0.000167616 -0.000124277 -1.60398e-21)
(-5.00174e-05 -4.51666e-05 3.39869e-21)
(0.00841198 0.000729792 0)
(-8.42616e-05 1.56865e-06 -1.66314e-20)
(0.0146172 0.0890519 -2.22176e-22)
(-5.46844e-05 -4.32664e-05 -1.40341e-23)
(0.00967685 0.152978 -2.45549e-22)
(0.0468189 0.0317583 -6.8226e-22)
(0.00650281 -0.144456 0)
(0.00175607 0.166841 -1.49493e-21)
(0.0123568 -0.00901406 0)
(-4.43934e-05 -2.12731e-07 0)
(0.0373549 0.0158942 9.90326e-21)
(0.000274978 6.87677e-05 3.78378e-22)
(-4.5469e-05 -1.68864e-06 -1.13529e-21)
(-0.00424844 -0.0818338 -2.18112e-19)
(-0.000669535 0.00162239 -2.42031e-20)
(-0.000169059 -0.000338724 1.48724e-22)
(-0.0154399 0.00712096 0)
(-0.0395526 -0.199232 0)
(-9.74856e-05 -1.76864e-06 1.07297e-20)
(0.0571575 -0.0297118 -3.56366e-23)
(-0.00498224 0.00391474 0)
(0.0559058 0.129205 1.33224e-20)
(-0.000254922 7.14721e-05 0)
(0.000249271 -0.0279554 -4.97054e-20)
(0.0318944 0.137477 9.72631e-22)
(0.0592671 0.0401973 -2.68193e-21)
(-0.00401844 -0.00268756 1.41043e-21)
(0.0280977 0.00699595 4.5962e-21)
(-0.000119153 8.00223e-07 0)
(-0.00516564 0.00149943 0)
(-0.073184 0.112433 6.30251e-21)
(0.00155327 0.00699542 -1.77511e-21)
(-0.0573397 -0.0274095 3.09367e-20)
(-0.000109714 0.000309288 1.09125e-20)
(-0.0347581 0.125808 1.75362e-21)
(0.00440638 -0.010145 0)
(-0.0388423 0.0628965 7.13002e-22)
(-0.000261202 4.84153e-05 0)
(-0.00065269 0.000999316 4.92639e-21)
(-0.0674876 0.448545 3.87595e-20)
(0.015386 0.0356523 -1.94293e-21)
(0.0386111 -0.050113 0)
(-0.0161819 -0.00613302 -5.8367e-20)
(0.000121323 -0.000574355 1.79658e-21)
(0.00027857 -0.00201367 -6.17845e-22)
(-0.0558495 -0.0764468 0)
(-0.0295728 -0.0377782 1.70573e-19)
(-0.01349 0.010005 -5.04313e-23)
(0.00773136 -0.00882989 1.642e-20)
(-0.00844267 0.00487277 0)
(-0.000555101 -0.0299833 0)
(0.00114639 -0.00276253 4.7204e-22)
(-0.00017899 0.000207584 2.41224e-21)
(0.0158426 -0.0388626 6.96526e-21)
(-0.000125973 3.49391e-05 -2.90654e-22)
(-0.00755219 0.215564 -1.17013e-21)
(0.000511974 0.00352166 7.09605e-21)
(0.00474194 -0.0646053 -7.02101e-21)
(-0.000163346 -6.21027e-06 0)
(0.00143138 6.30056e-06 0)
(-0.000138568 7.25392e-05 -3.05116e-21)
(0.174853 -0.214623 3.93355e-20)
(0.000793931 0.0053917 -2.59548e-21)
(-7.94989e-05 -1.9608e-05 0)
(-0.00226769 -0.00063846 0)
(-0.000114627 4.31077e-05 -1.40656e-20)
(0.0563968 -0.0656804 0)
(0.0315369 0.0826514 -3.39067e-22)
(-0.00017063 -2.09251e-05 3.83422e-21)
(-4.04438e-05 0.000118679 6.3804e-21)
(0.000876311 0.000765379 1.99194e-21)
(0.0398173 0.0130068 -4.7798e-21)
(0.000751834 -0.00227154 0)
(-0.0383166 0.0322494 2.8714e-21)
(-6.04246e-05 9.20318e-06 -3.81293e-21)
(-9.66311e-05 -7.98312e-06 0)
(0.0640862 -0.0661213 4.83706e-21)
(-1.90246e-05 -3.95933e-06 0)
(0.00800022 -0.128795 -5.15264e-22)
(-0.000366158 0.00108971 -1.08952e-21)
(0.13436 0.17376 0)
(-0.000342313 5.74606e-05 9.47661e-22)
(-0.00013027 -0.000587903 3.30671e-22)
(-9.04525e-05 -2.51784e-05 3.0973e-21)
(0.0311576 0.0475577 -1.57691e-20)
(-0.000178061 -2.93753e-06 -2.40803e-24)
(-0.0546955 -0.00756226 -1.64334e-21)
(-9.79852e-05 8.56156e-06 5.67744e-21)
(0.0120226 0.0898188 5.47534e-21)
(-0.000321464 0.000216022 -5.28728e-21)
(0.0405671 0.0827471 -2.90923e-21)
(7.69052e-05 0.00495899 2.58582e-21)
(-0.000160629 5.82067e-05 3.08761e-21)
(0.0324333 -0.0484812 2.1793e-20)
(0.000665576 0.000688044 -1.92065e-20)
(-0.000155726 0.000196917 0)
(-3.21253e-05 -9.28751e-06 0)
(0.0419215 -0.0638712 -8.29651e-22)
(-0.0406561 0.0315721 -4.12116e-21)
(-4.83113e-05 -4.00888e-05 -1.82956e-21)
(-0.0046544 0.0195659 -6.62193e-22)
(-0.0764321 -0.0612281 0)
(-0.000793717 0.00106268 0)
(0.0218043 0.00781805 0)
(-0.00634066 -0.00743361 3.96815e-20)
(-0.0207996 0.0221908 2.77914e-21)
(0.0166921 0.0892389 5.92563e-22)
(-0.0387896 -0.390915 -7.16763e-21)
(-0.0334156 -0.198569 1.15702e-21)
(-0.000138832 2.60843e-05 -9.79569e-21)
(0.0470333 0.038864 1.47753e-21)
(-0.098393 0.0251217 -9.68278e-21)
(-7.57648e-05 -5.71047e-06 0)
(0.0222643 0.0424204 -1.00255e-21)
(0.0754854 0.0294991 0)
(0.0125044 0.00230572 4.20487e-21)
(0.0186053 0.131578 0)
(-7.78837e-05 -4.51525e-06 0)
(0.084334 0.0514275 0)
(-0.000153738 -7.37141e-07 0)
(-0.00308936 -0.153417 0)
(0.00627306 0.130015 0)
(-0.000391004 0.000435522 -6.07869e-21)
(0.0351585 -0.0557628 7.64893e-21)
(-2.75405e-05 -6.64721e-06 -4.67348e-22)
(0.0102986 0.000827733 0)
(0.000270112 7.0479e-06 -3.80017e-22)
(0.000644775 0.00423412 0)
(0.0416763 0.235089 1.25124e-20)
(-0.000285096 0.000958938 -2.35332e-21)
(0.0346602 -0.0502525 -3.83734e-21)
(-0.0276049 0.136277 0)
(-0.0112784 0.0666835 0)
(-0.00013103 0.000167356 0)
(0.0690142 0.0349169 0)
(-0.0114544 -0.0216493 -2.63921e-21)
(-0.00178277 0.00128097 0)
(-0.00857546 0.049719 4.82375e-21)
(-0.00117507 0.000694996 -2.44815e-21)
(-4.71833e-05 -3.19675e-06 0)
(-0.00505858 0.207005 -3.34569e-21)
(-0.000166052 -5.86199e-06 -2.6097e-22)
(0.0133821 -0.00764895 -6.26542e-21)
(-0.00865897 0.0605304 -6.23981e-21)
(-6.97957e-05 -2.72214e-05 -3.16954e-21)
(0.00244665 0.0053934 -1.73365e-21)
(0.0196184 -0.00782456 0)
(-0.0015467 -0.00155438 0)
(-0.000111082 -0.000311638 -7.7716e-24)
(0.0395869 -0.0025688 -6.60037e-22)
(-0.00652324 -0.00677219 -3.69207e-20)
(-5.13514e-05 8.67248e-05 0)
(-0.000202924 5.02647e-05 0)
(0.0251575 -0.0199159 4.67684e-22)
(0.0110513 -0.209393 3.62382e-21)
(-0.0360612 0.0307963 -1.01926e-20)
(-0.00941637 -0.0783025 -9.75345e-21)
(0.0542881 0.200984 0)
(0.00699533 -0.140481 0)
(9.08175e-05 -3.91065e-05 0)
(0.0862351 -0.0524529 -4.52865e-22)
(0.101975 0.013682 6.66415e-22)
(-0.000133049 9.38277e-05 0)
(0.0164721 -0.0192937 -4.58135e-20)
(-0.000195557 7.89866e-05 -3.05937e-21)
(-0.0123418 -0.0146016 -6.63876e-20)
(-0.00011807 0.000160973 0)
(-4.24567e-05 6.4942e-06 5.38159e-21)
(-0.000272444 9.82934e-05 -3.68937e-21)
(-0.000125785 0.000216435 0)
(-0.000124103 1.10438e-05 -3.33616e-21)
(-0.00893228 -0.0259226 -3.05885e-22)
(-0.0323963 -0.159682 1.02558e-20)
(0.0166681 -0.177345 5.06375e-22)
(-0.00968289 0.00945792 2.35603e-20)
(0.000640798 -0.00262701 -7.87203e-22)
(0.0315681 -0.156349 1.73107e-20)
(-7.8613e-05 -2.06762e-06 -1.50201e-21)
(0.0241061 -0.123673 1.5084e-21)
(-0.0186037 -0.0157972 2.31744e-21)
(-0.00708512 0.144729 0)
(-0.00363717 -0.00162058 -3.14063e-20)
(0.0364919 -0.16551 1.55915e-19)
(0.000216045 -0.000440039 4.78691e-22)
(0.0746214 0.0894082 -7.42163e-21)
(0.0035146 0.00586626 -8.65577e-22)
(0.027932 -0.123834 1.30971e-21)
(-0.00143958 0.000516655 0)
(0.105505 -0.0421887 4.9164e-21)
(0.111242 -0.0581418 1.01343e-20)
(-0.0117811 0.0102758 -2.0011e-20)
(0.195894 -0.114396 0)
(-4.0727e-05 1.55521e-06 -2.74217e-21)
(0.101093 0.0999766 0)
(-0.000174541 -5.37653e-06 0)
(-0.0295965 0.0204721 0)
(-0.110238 0.000658326 -1.52269e-21)
(7.17514e-06 0.000198664 1.63659e-21)
(-0.000963264 0.000441847 4.69619e-22)
(-4.36335e-05 -3.96575e-05 0)
(-0.000140442 -1.84146e-05 -1.27523e-21)
(-0.0790046 -0.0490093 0)
(0.192251 -0.109266 9.80338e-20)
(-0.000100714 -0.000103339 -4.67084e-21)
(-0.00230919 0.0318614 0)
(-0.0322889 0.382819 1.61625e-20)
(-0.0212364 -0.0522638 -8.74049e-22)
(-0.000109201 0.000203159 0)
(-0.0589355 0.0657015 -1.72362e-24)
(5.45981e-05 0.00020927 4.0122e-22)
(-9.64968e-05 -9.72753e-05 3.66589e-21)
(-0.00510102 0.233264 0)
(0.0141758 0.152208 -1.39463e-21)
(-0.00979916 -0.012265 0)
(-0.0471473 0.00512621 -2.12782e-20)
(-0.00510934 0.000266296 -8.69567e-21)
(0.00852207 0.209776 -1.08743e-21)
(-3.0066e-05 3.3846e-06 1.64561e-21)
(-0.00168225 0.000872837 0)
(-0.0504036 0.0203169 0)
(0.0482436 -0.0362715 3.19542e-21)
(-0.000179068 -0.000765596 -5.76626e-22)
(0.0135472 0.0266661 -6.4226e-21)
(0.0235422 -0.0280587 -1.15627e-20)
(-0.000118196 1.35194e-05 -1.8325e-20)
(-0.00123728 4.58689e-05 1.71784e-21)
(-0.000171684 7.72758e-05 -4.86266e-22)
(0.0096059 -0.285697 0)
(-0.00114363 -0.0174221 0)
(-9.70249e-05 -0.000133623 6.44593e-22)
(0.000658148 -0.00189432 0)
(-0.0552272 0.057986 -1.92835e-20)
(0.0219799 -0.0192208 0)
(-0.0506152 0.00359062 -1.39591e-20)
(0.0368286 -0.0661025 8.71148e-22)
(-0.0038945 -0.00170602 4.23712e-20)
(0.0174478 -0.0020387 7.18202e-21)
(-0.00110689 0.00167152 0)
(-6.37567e-05 -0.000220395 0)
(-0.000114239 -0.000427853 0)
(0.0132172 -0.00472686 -3.55517e-21)
(0.000381624 -0.0492168 1.63929e-19)
(-9.59029e-05 -1.17004e-05 0)
(0.000309885 -2.06478e-05 3.87262e-22)
(-0.00030997 1.42425e-05 0)
(0.0406715 0.0416611 -3.88565e-21)
(-0.00182636 0.00110613 1.48931e-21)
(-0.00575096 -0.0141336 9.34534e-22)
(0.0545988 -0.0626682 0)
(7.85e-05 -2.76062e-05 9.11128e-22)
(-0.0265106 0.0198274 3.79073e-20)
(0.125055 -0.0912646 1.28091e-21)
(-0.000185803 0.000462888 5.26164e-21)
(-8.06723e-05 1.25059e-05 -2.11493e-21)
(-8.09143e-05 -2.3278e-05 0)
(-5.81292e-05 3.77066e-05 1.30678e-22)
(0.0321111 0.0277539 0)
(-6.63658e-05 -3.7864e-06 2.36216e-21)
(0.114374 0.0855644 0)
(-0.0182271 -0.00584377 4.86407e-21)
(-0.0203766 -0.0132752 0)
(-0.000166497 -7.58917e-06 0)
(-0.000124598 8.87728e-05 -1.29315e-20)
(-0.00312738 -0.00169626 2.17875e-20)
(-0.000135455 -1.51062e-05 1.03011e-21)
(-0.00265521 0.0161404 -7.72805e-22)
(-0.032012 0.0195908 1.06177e-20)
(0.00264351 0.0245961 0)
(0.00553094 -0.245115 -2.24429e-20)
(0.0527512 0.0257767 0)
(-0.0380974 0.14155 -1.85553e-21)
(-3.83224e-05 1.29475e-05 -5.0121e-21)
(-0.000124875 6.19979e-05 -8.00208e-21)
(0.139315 -0.116907 0)
(-0.00329408 -0.0166827 -3.87217e-20)
(0.00556024 0.0243907 -4.42362e-21)
(0.000703219 0.0101041 2.42705e-21)
(-0.00244578 -0.0475598 -8.23013e-20)
(0.00425931 0.128767 -7.33637e-21)
(0.00331994 0.266568 1.45371e-21)
(0.0279172 -0.0107464 -1.2217e-21)
(-0.00357077 0.028262 0)
(-0.000107569 -0.000118399 -1.91207e-21)
(-8.11265e-06 -1.18845e-05 2.77699e-21)
(-0.00819012 0.00411105 0)
(-4.07625e-05 5.93544e-05 5.4521e-21)
(0.122728 -0.145708 -4.86517e-20)
(0.00349913 0.0936187 8.03086e-22)
(0.00112101 -0.000743079 0)
(-0.000353663 0.000142743 -5.72396e-21)
(-0.00961919 -0.0109471 4.96905e-20)
(0.023613 0.00708835 1.32153e-21)
(-0.116789 0.0933538 2.15518e-20)
(0.00840224 0.0225535 -4.66278e-22)
(-0.0270174 -0.170296 6.38663e-21)
(-9.47321e-05 -5.96462e-06 1.95939e-21)
(0.0538689 -0.166134 0)
(-6.90344e-05 -6.18777e-05 -8.09617e-21)
(-0.00084858 -0.000250121 0)
(-0.00464403 -0.00329444 3.16707e-20)
(-0.000997267 9.99427e-05 -4.31792e-22)
(-0.000245635 -0.00148202 -2.43007e-21)
(0.00315123 0.146739 5.77219e-22)
(-2.6204e-05 8.06571e-05 0)
(0.0142138 -0.0102295 -2.50177e-20)
(0.00199361 0.0172462 0)
(-9.67634e-05 -1.22768e-05 -3.27936e-21)
(0.000863834 0.000592829 9.71012e-21)
(0.000455427 0.00286193 -9.43753e-24)
(-0.0503562 0.0112213 -4.25009e-21)
(-0.00979135 -0.325254 8.22047e-23)
(-0.00708768 0.0173022 3.89259e-21)
(-0.0388807 -0.38926 7.22306e-21)
(-0.00238391 0.000178485 0)
(0.0160415 -0.0211405 2.01454e-22)
(-0.0515797 0.0519985 3.05698e-21)
(0.0333245 -0.0348667 0)
(0.000670285 -0.00170897 0)
(-0.00204373 -0.00082554 0)
(-0.000177658 -1.64709e-05 0)
(0.0311451 -0.0179498 8.4913e-22)
(-0.00320781 0.000940923 -2.50579e-22)
(-2.72603e-05 4.36821e-06 1.79672e-21)
(-5.66476e-05 0.00082735 -9.9264e-22)
(0.000952001 -0.000713004 -5.49016e-22)
(-2.99146e-05 2.48236e-05 -1.17805e-22)
(0.100961 0.0219684 3.6071e-22)
(0.0163193 -0.00956261 0)
(-0.00561051 0.0168322 -3.4299e-21)
(0.0162268 0.0251527 -2.33689e-21)
(-6.2591e-05 -4.36131e-05 0)