/*--------------------------------*- C++ -*----------------------------------*\
| =========                 |                                                 |
| \\      /  F ield         | OpenFOAM: The Open Source CFD Toolbox           |
|  \\    /   O peration     | Version:  v2012                                 |
|   \\  /    A nd           | Website:  www.openfoam.com                      |
|    \\/     M anipulation  |                                                 |
\*---------------------------------------------------------------------------*/
FoamFile
{
    version     2.0;
    format      ascii;
    class       surfaceScalarField;
    location    "250";
    object      ddtCorrDdt0(phi);
}
// * * * * * * * * * * * * * * * * * * * * * * * * * * * * * * * * * * * * * //

dimensions      [0 3 -2 0 0 0 0];
oriented        oriented;


internalField   nonuniform List<scalar> 
27704
(
0.000731816
0.0522788
-0.0530107
-1.1575e-05
2.31967e-05
-1.16263e-05
0.050818
-0.0500862
-0.00595792
0.00582176
0.000136278
-4.18372e-07
3.21111e-06
-2.79124e-06
0.0213177
-0.0227907
0.00147299
1.93534e-05
3.77526e-05
-5.71044e-05
-1.58946e-05
7.73166e-05
-6.14208e-05
0.0113719
-0.0134701
0.0020982
-0.0334199
0.018166
-7.88242e-05
2.99317e-06
7.58281e-05
-9.04335e-05
4.3244e-05
4.71839e-05
3.07157e-06
-3.48598e-06
0.000466154
-0.00039193
-7.4227e-05
-0.021533
0.0280002
-0.0064676
9.66125e-06
-9.66111e-06
5.64365e-09
-6.01982e-05
0.000791515
-0.000731322
-3.20111e-05
5.13585e-05
0.0193349
0.028933
-0.0482679
-2.70303e-05
1.54522e-05
-4.83582e-05
-4.20809e-05
-0.00843054
0.000188494
0.00824192
0.00947567
0.0130442
-0.0225198
0.00322365
0.00189078
-0.00511441
-0.019458
-0.0139621
-0.0063442
0.0158199
-0.0607268
0.00910069
0.0516261
-0.0050464
-0.0784613
0.0835076
0.000291227
-0.000596119
0.000304884
-0.00291681
0.00117845
0.00173838
-0.00178859
0.002515
-0.000726398
-0.00255923
0.000770644
0.000888794
-0.00094898
0.00117054
0.00104446
-0.002215
5.0207e-05
-4.7596e-05
-2.61073e-06
-0.000513718
-0.00320865
0.00372235
0.01522
-0.0343652
0.0191454
0.00158465
0.00541965
-0.00700428
-1.52416e-05
-6.35843e-05
0.000111118
0.00035504
-0.0548399
0.0322609
0.022579
0.000619465
-0.000372431
-0.000247043
0.0020017
0.00407496
-0.00607667
0.0130313
0.0744877
-0.087519
0.0470986
-0.0263397
-0.0207589
0.00484609
-0.00480072
-4.54168e-05
0.0185178
0.0014305
-0.0199483
0.000685333
0.000832959
-0.00151833
6.47067e-05
-3.05722e-05
-3.41192e-05
-0.00599899
0.00910983
-0.00311078
-0.00476758
-0.00119034
0.00335016
0.0203267
-0.0236769
0.000317554
-0.000327328
9.7656e-06
-0.0386226
-0.0162173
-0.000529212
0.000419384
0.000109829
-0.00319449
-0.0072246
0.0104192
0.0284813
-0.0512965
0.0228155
3.47963e-05
2.9912e-05
0.000507854
-0.00046774
-4.01111e-05
0.0503923
-0.0246592
-0.0257331
-5.30899e-05
0.000101716
-4.86291e-05
0.00180427
-9.22646e-06
-4.04263e-05
0.0161213
-0.0350655
0.0189444
-0.00165654
-0.00126031
-0.00692714
0.0250396
-0.0181125
0.0318304
0.018562
-0.00102698
0.000415427
0.000611559
0.00951136
0.0375872
-0.00624045
-0.00219012
-0.050908
-0.00981879
-0.000662577
0.00183308
2.16407e-05
-5.36579e-05
-4.83985e-05
3.91719e-05
0.00251196
0.000470544
-0.00298251
-0.0761059
0.0891372
-0.00491228
-0.0735583
0.0784705
5.01547e-05
4.6642e-08
0.00459956
-0.00138737
-0.00321219
0.00105129
0.000957548
-0.00200884
0.000200359
0.00231161
-0.00740244
0.00898709
-0.0335441
0.0266857
0.00685839
-0.0238667
9.19046e-05
-4.78054e-05
-4.40989e-05
-0.0120001
0.00880566
0.0019017
-0.00247922
0.000577501
-0.00205105
0.00327241
-0.00122137
0.00270993
-0.00165864
0.0813115
-0.0141179
-0.0671937
0.0072762
-0.028809
0.00522872
-0.00395031
-0.00127843
-0.00145605
0.00467972
-0.00242515
0.0123973
-0.00997226
0.000659245
-0.000334001
-0.000325242
-0.000125122
0.000442679
-0.00349203
0.00297831
0.0035994
-0.0111405
0.00754114
-0.0193968
0.0124696
7.52762e-05
-0.000128365
-0.00375061
-0.00294086
0.00669148
4.6182e-06
5.04551e-06
-0.0182955
0.00387267
0.0144229
-6.59721e-05
5.00772e-05
0.0159614
-0.00458948
0.0282769
-0.0123155
-0.0216179
-0.0119262
0.0251894
-0.018845
-0.00634431
-0.0130162
0.00579151
4.79604e-05
-2.63262e-05
-2.76198e-05
5.40899e-05
-2.64643e-05
0.00127832
-0.00152692
0.000248592
-0.00484208
0.0026856
0.00215641
-2.60863e-06
1.25356e-05
-9.92033e-06
0.000289866
0.000369379
0.0107702
-0.00717085
-0.000622107
-0.000404873
-0.000255647
0.00153396
-2.8682e-06
-1.65032e-05
1.93705e-05
0.00234058
-0.000438879
9.72935e-05
8.00758e-05
-0.00017737
-0.00373562
0.00309
0.000645583
-0.0537091
0.0660661
-0.0123569
-1.24591e-05
9.8499e-06
3.33191e-06
5.77072e-05
-6.10404e-05
-0.0006945
0.000324646
0.000369863
0.00978238
0.00234124
-0.0121236
0.000391471
0.000281274
-0.000672738
0.000694402
-0.000403165
6.62237e-06
0.000317668
-0.000324294
0.000102678
-0.000141764
3.9085e-05
-0.0122072
0.0283285
0.0025868
-0.00241235
-0.000174415
0.00287842
-0.00237317
-0.000505247
-4.64571e-05
4.46245e-06
4.19938e-05
-0.000714591
-0.00634794
0.0718067
-0.0654587
0.0176617
0.0075276
-0.0564679
0.05012
0.0334566
-0.0407968
0.00734026
-0.000335437
0.00129122
-0.000955798
2.93512e-05
-5.54892e-06
-2.3799e-05
6.44715e-05
-0.000143584
7.91109e-05
-0.000402293
-0.000200458
0.000602757
-0.0149632
0.0561215
-0.0411582
2.6607e-06
-8.67081e-05
8.40493e-05
-0.000281217
-5.64428e-05
0.00266759
-0.000853551
-0.00181403
0.00872967
0.0195472
-0.000174869
0.000131992
4.28766e-05
0.018587
0.0670595
-0.0856465
-0.0167417
0.0213616
-0.00461981
2.90889e-05
2.63875e-07
-1.52379e-05
4.5221e-05
-2.99909e-05
0.00369765
-0.00172851
-0.00196915
0.000483013
-0.00962787
0.00914478
-0.000152481
-2.23912e-05
-0.000313275
-0.000222697
0.000535973
-3.41814e-05
4.24147e-05
-8.23597e-06
-0.0249501
0.00478123
0.0201689
-0.0125753
0.0105006
0.00207475
-0.0131641
0.0507615
-0.0375975
-5.1482e-05
0.000183465
-0.0336292
0.00349608
0.0301331
-0.0105816
0.1606
-0.150018
2.82836e-05
-2.9246e-05
9.61032e-07
0.0030913
0.00410738
-0.00719868
-0.016903
0.00965965
0.00724335
-1.69813e-05
7.71704e-06
9.26289e-06
-1.35004e-05
-6.83321e-05
8.18374e-05
-0.00157134
-0.000907875
1.55993e-05
3.0072e-06
-1.86039e-05
-2.84905e-05
-5.31353e-05
8.16224e-05
-0.000410253
-0.000467163
0.000877413
-0.00717038
0.00117143
0.0233086
-0.0234321
0.000123517
-0.0685836
0.0316003
0.0369833
-0.000195418
4.29377e-05
-0.00817333
-0.0134562
0.000880844
-5.83418e-05
1.04509e-06
5.73006e-05
-0.0122631
0.0457197
-0.00148432
0.000238221
0.0012461
-0.000418995
0.000105714
-0.000473009
0.000508056
-3.50503e-05
-0.000375169
-0.00110915
-0.000365402
-0.000163811
0.00157068
0.00212697
8.6282e-05
-0.000143365
5.70819e-05
0.000292738
1.68555e-05
-0.000309593
-0.00067834
-0.000225325
0.000903638
-0.083497
0.102084
-0.0209558
0.00421416
0.00141613
0.00105001
-0.00246614
-0.00530891
-0.000759931
0.00606889
4.92627e-05
-7.77567e-05
-0.00132693
0.00175694
-0.00043
-0.00108872
0.245634
-0.256216
-0.00063949
0.00132481
0.000244212
4.85261e-05
1.92773e-06
6.71114e-06
-8.63293e-06
0.00361379
-0.0285639
3.27246e-05
0.000238645
-0.000640928
1.83342e-05
-2.73984e-06
0.000134065
0.0027443
-0.0756566
0.0467231
0.0289335
8.32973e-05
-0.000496829
0.00041354
0.00018117
-0.000306292
0.00011113
-2.48476e-05
0.00140781
-0.00103681
-0.000370987
9.25347e-05
-4.60218e-05
-4.65095e-05
0.00285749
-0.00241588
-0.000441602
0.00283251
-0.00692108
0.00408858
-0.00298108
0.000275907
0.00270517
-3.85824e-05
1.02112e-05
2.83707e-05
-0.00114319
0.000464862
0.000278856
-0.000501551
0.00553263
0.0129852
-0.0107803
0.000308631
0.0104717
-0.0022852
-0.000367084
0.00265229
0.00367513
0.00168613
0.0103288
-0.0111238
0.00079502
-0.026483
0.013319
0.00514884
-0.00205755
-0.00731131
-0.00791467
0.0152259
-0.0222829
0.0297594
-0.00747644
-4.66702e-05
4.66643e-05
0.00123229
-0.0120126
-0.0002202
0.000237058
-0.00300684
0.00129905
0.00170779
-0.000332084
0.00116503
-2.31813e-06
-4.55329e-05
4.78503e-05
-0.0690403
0.106407
-0.0373667
5.02345e-06
-6.33633e-05
-0.00010661
-0.000542119
0.00064873
-0.000440987
-3.20218e-05
-0.000100682
4.56033e-05
5.50781e-05
-6.57284e-05
9.71318e-05
-3.14032e-05
0.00531615
0.000396714
-0.00571286
-0.0540969
0.0141539
0.039943
0.00432084
-0.016757
0.0124361
0.00576915
-0.00116954
0.0224665
-0.00632062
-0.0161458
-0.00305178
0.00234138
0.000710406
0.00281315
-0.00139702
6.09463e-06
-5.2559e-05
0.0022256
-0.00736444
0.00513884
-0.00216495
-0.000332502
-0.00271928
-0.0306724
0.00838948
-0.000427699
0.000630981
-0.000203284
-0.00253629
-0.00133052
-0.000120664
0.00145119
2.61872e-05
2.09682e-06
0.000294497
-0.000113325
1.53937e-05
8.14501e-05
-9.68405e-05
-0.0122966
0.0135289
-1.12482e-05
-5.73462e-06
-0.013814
0.0290342
4.05158e-05
1.43843e-06
-4.19515e-05
9.12743e-05
-0.000247433
0.000156158
0.000258665
0.00459466
-0.0048534
-8.50407e-05
6.21484e-05
2.28936e-05
0.00779451
-0.0151058
9.23064e-05
-4.80443e-05
-4.42601e-05
-0.0124793
0.00876472
0.00371459
8.98771e-06
1.26822e-06
-1.02533e-05
-6.57575e-05
0.000407642
-0.000341881
-0.00898568
0.0196336
-0.010648
0.0114966
-0.00681769
-0.004679
0.00256548
0.000292013
0.00026414
-0.000329896
-0.0191221
0.0263984
0.00012872
0.00296126
-0.000413246
0.00045685
-4.36207e-05
-0.000924344
0.000637345
0.00028701
0.00557232
-0.000256187
0.000471675
0.00133259
0.0112978
-0.00911834
-0.0021794
0.000401477
-0.000730995
0.000329523
-0.0362579
-0.0393987
-1.93389e-05
-1.92451e-05
-0.00036019
0.000366811
-0.00893812
-0.003062
-0.00328905
-0.00303197
0.00632098
-3.95753e-05
4.40373e-05
0.0667603
6.26424e-05
-5.93093e-05
7.97105e-05
-6.80629e-05
-1.16534e-05
0.00786152
-0.000157329
8.13257e-05
7.6007e-05
-0.000525
0.000100421
0.000424571
-0.00352028
-0.0118535
0.0153739
0.00905814
-0.00683257
-0.00806187
0.0365434
0.00337131
0.00775207
-0.0111234
-0.000986074
0.000650609
0.000582296
-0.000303446
0.000620498
-0.000330633
0.00301957
-0.0366488
0.00970225
0.000626483
-0.0236396
0.014654
0.00805716
-0.00767399
-0.000383194
0.00273785
0.002411
-0.00614196
-0.00633734
0.00375116
-0.00127055
-0.00248059
0.00065173
-0.00585945
0.00842689
-0.00256741
3.56383e-05
4.40629e-05
-0.0225655
0.00742955
0.0151359
0.000624094
-0.000116239
-0.000466116
0.000934594
-0.000468481
0.000116056
-0.000525259
0.000409203
-0.00217603
0.00237639
-0.00115527
0.00105035
0.000104902
-0.0534807
-0.0305239
0.0458493
0.000252791
-0.000718907
-0.005669
0.0057813
-0.000112288
5.16801e-08
-0.000225952
0.000225903
-4.60715e-05
4.58957e-05
-3.57152e-05
-1.01784e-05
0.00854126
-0.00516998
-0.00143692
0.0018185
-0.000381583
0.0267526
-0.0231388
0.00028076
-0.000691018
-5.41135e-05
5.44792e-05
-3.66505e-07
0.000206864
0.000181842
-0.000388707
0.0756603
0.00426144
-0.0799217
-0.000128425
0.00184727
-0.00171884
9.9769e-06
-9.84409e-07
-0.054939
0.0012299
7.10254e-05
1.21355e-06
-7.22307e-05
-0.0129941
-0.00957135
0.00370751
-0.000969662
-0.00383689
0.000537302
0.0032996
0.00029442
-0.00417492
0.00597491
-0.00179997
-0.00632605
0.0381565
-0.0723255
0.0188449
-0.0058644
-0.0587502
0.0646146
-0.003692
0.024826
-0.0211343
0.00426816
0.00155369
-0.00153834
-0.000434243
0.00197259
2.47125e-05
-9.04083e-05
6.57043e-05
-0.00275717
0.0105092
-0.0017435
0.0306765
-0.000492861
0.000386259
-0.0147425
0.0161877
-0.00144525
-8.22195e-06
4.87412e-05
0.00229281
-0.000707183
-0.00158562
-0.00124458
-8.59304e-05
-0.00509275
0.00944849
-0.00435572
-0.0016462
0.00020927
0.0279479
0.011758
-0.0397061
-0.00282609
0.00148109
0.001345
-0.000314733
0.000333703
-1.8971e-05
0.00120514
-0.00325619
0.0816983
0.017811
-0.0995093
-0.00326588
-0.00626112
0.00952701
0.000530719
4.62718e-05
-0.000577004
0.0191817
0.00352594
-0.0227077
0.038092
-0.0627511
0.000309153
0.000311345
5.58143e-05
3.60888e-05
0.0355115
-0.0418375
3.98757e-05
5.26588e-05
0.00283601
-0.00158523
-0.00125077
-0.0399524
0.0358995
0.00405259
-0.00191492
-0.000370283
2.21159e-05
-1.06765e-05
-1.14382e-05
-0.032936
0.000164469
-0.000106725
-5.77396e-05
-0.0172559
0.00251339
0.00404897
0.0314626
-0.00693666
0.0348846
-0.00195319
0.00182477
-0.000587106
0.000839897
0.000376576
0.00191623
0.00693028
0.00456634
0.0291135
-0.0360501
-0.000290606
-0.000912053
0.00120265
0.00238747
-0.00656237
-6.4628e-05
-2.75491e-05
9.21762e-05
-0.000137264
0.00034412
3.05185e-05
1.53787e-05
-0.000469805
0.00231706
0.00272678
-0.00142773
0.00223209
0.00147542
0.000868894
-0.0011595
-0.0529719
-0.010866
-0.00226416
0.00263657
-0.000372418
-0.000534175
0.000369373
0.000164798
2.24152e-05
-7.69888e-06
-1.47169e-05
0.000139619
-0.00025794
0.000118317
0.00893929
-0.000882095
-0.0157848
-0.0204711
0.0362559
-0.000483219
0.0170892
-0.0092947
-0.00494451
0.00664583
-0.00170132
6.31658e-05
2.91396e-05
1.20511e-05
-7.66776e-05
-0.00261274
-0.00891246
0.0115252
-0.000594073
6.96576e-06
0.000200279
-0.00173858
-7.48696e-07
-1.62455e-05
1.69965e-05
0.00674774
0.0103415
0.00156412
0.00366461
0.000133295
-4.00853e-05
-9.3224e-05
-0.000436234
0.011734
-0.000929467
0.00127853
-0.000349077
-0.0908452
0.0147393
-0.00346352
0.000873026
0.00259047
-0.000182909
-0.000266911
0.000449829
0.000384414
0.000235055
0.000886776
0.00129751
-0.00218428
0.00273213
-0.000500037
0.00325038
-0.0180128
-0.0180089
0.0360216
-0.0202971
0.0250783
2.19419e-05
0.0094308
-0.0126967
0.00553484
-0.0146005
0.00906568
-0.000566823
-0.00035754
0.019281
-0.0182728
-0.00100842
0.0152416
-0.0189336
0.000108117
-0.000105458
-0.000606882
-0.00140371
0.00201058
-0.00226336
0.00165647
0.000857899
-0.00801503
0.00715707
4.66e-06
3.66976e-05
-4.13612e-05
-0.000107131
-8.33224e-05
0.000190468
0.10141
-0.0114778
-0.0899322
-6.41806e-05
8.8894e-05
-0.00205232
0.00163486
0.000417462
4.07316e-05
6.73854e-05
-5.12755e-05
-2.80986e-05
7.93753e-05
-8.11945e-05
-7.61285e-05
0.000115073
-0.00304417
0.0029291
0.000146386
-0.000129377
-1.70058e-05
-0.000639891
0.000212198
-0.0004679
0.000284993
0.00428741
-0.00547951
0.00119213
-0.00933544
-0.0134553
-0.00192543
0.000460508
0.00146492
0.000102777
7.69283e-05
-0.000179708
-0.00207119
0.000170123
-6.73409e-05
0.030348
-0.00703938
0.00193124
-1.4632e-05
1.38824e-05
4.72681e-05
-4.95888e-05
-3.79793e-05
0.000168815
-0.000130833
0.0890828
0.0715173
-0.000312647
-0.00025867
-0.000196851
0.000455525
-0.00693581
-0.0253455
0.0322813
4.95527e-05
-4.48865e-05
-0.0236136
-0.04497
-0.0735213
-0.0350798
0.108601
-0.000814423
-0.000111837
0.000926255
6.39346e-05
-0.00011521
-0.000652797
-0.000122427
0.000775224
0.00055236
-0.000160888
0.00118469
-0.000919714
-0.000264967
0.00527811
-0.00210565
-0.00317246
0.000177208
-8.59351e-05
0.00096784
-0.00338372
0.0112532
-0.0139065
0.00979186
0.00411474
0.0032779
-0.00157659
-0.00170132
-4.06279e-05
6.60253e-05
-2.53999e-05
-0.000358618
-0.00225415
-0.000939472
0.0031936
0.0384854
0.0505974
0.000730265
0.00215993
-0.00289021
-0.00446571
0.00307837
0.00034048
0.00200009
9.06691e-05
0.00092525
0.000757749
-0.001683
0.0294903
-0.00482993
-0.0246604
0.000101877
7.42942e-06
-0.000109294
0.0261288
-0.016867
-0.00926188
-0.0019916
0.00704533
-0.00505371
-3.73226e-05
-2.11132e-06
3.94348e-05
0.00332655
0.00195156
0.0158053
0.0856047
-0.000410819
0.00132226
-0.000911442
-0.0044077
-0.00747424
0.0118819
4.16998e-06
-3.83524e-05
0.0105574
-0.0149652
-0.00196228
-0.0120787
0.014041
-2.69241e-05
2.87602e-05
-1.83366e-06
3.56199e-05
9.02393e-07
-3.65187e-05
-0.000464545
-3.87342e-05
0.000503275
-0.00981954
-0.00408697
0.000263631
-0.000636058
0.000101511
0.000487008
-0.000588528
-0.00140978
-0.000236426
0.0163943
-0.0188977
-0.000499125
-0.0277127
0.109411
2.1663e-05
-0.000241862
-0.000111086
8.3531e-05
-0.0228003
-0.00106647
-0.00208712
0.000812699
0.00127442
-4.25559e-05
-7.40572e-05
0.00011661
4.63348e-06
-4.27148e-05
3.80829e-05
-0.0049652
0.0069669
0.00208154
-0.00243814
-0.00240397
0.0877909
-0.0133032
-8.32296e-05
3.48737e-05
-0.0071688
-0.00363781
0.0108067
-6.14128e-05
-4.96772e-05
-3.55061e-05
7.29154e-06
2.82191e-05
0.00141955
0.00108396
-0.00250352
2.81472e-05
-4.01118e-05
1.19673e-05
0.00597204
-0.00472842
-0.00124368
-1.0027e-05
-2.54726e-05
0.0556522
-0.0761636
0.0205114
0.00581191
-0.0037236
-0.00208844
-0.00738581
-0.0114591
0.0801772
-0.0240865
-0.0560907
-0.00350298
0.00470764
-0.00120468
1.83226e-05
-1.08977e-07
-1.82136e-05
0.00398114
-0.00248919
-0.00149204
0.000127301
-8.657e-05
1.56943e-05
2.62884e-06
-0.00674801
-0.0062681
-0.000508414
9.51673e-05
0.000198593
-0.000134123
-0.0030487
-0.0033326
0.0063813
-0.0297206
0.00847321
3.41941e-05
-1.21293e-05
-2.20669e-05
-0.0149908
-0.00309349
0.0180841
-0.00168727
-0.000871953
0.00851254
-0.0112698
9.60747e-05
-9.91756e-05
3.10786e-06
0.00253912
-0.00418152
0.00164241
0.0110854
0.0194057
-0.0304912
0.0284134
-0.00210902
-0.0263045
9.49818e-05
-0.00150476
-0.00126748
0.00603677
-0.00476921
-4.05789e-05
0.00143861
0.00107639
0.00612748
0.0461513
-0.00109517
-0.00173092
-0.0115756
0.00440681
5.04198e-05
-9.29767e-05
-0.0527148
0.0286578
0.0240571
-5.40142e-05
-0.0048905
0.0336394
-0.0128394
-0.0208
6.9686e-06
8.91055e-05
-0.000292172
0.000438895
-0.000146723
-0.0929631
0.0194415
0.00138524
-0.0136819
-0.00614554
-0.00247986
0.00862541
0.00139586
-0.00365
-0.000220203
0.000220254
-0.000756292
-5.81384e-05
0.00856281
-0.007705
0.00263338
0.00579351
0.000408591
-0.00338968
0.00125776
-0.00125576
0.00233356
-0.001263
-0.00107057
0.00442992
-0.00115621
0.000745387
8.40636e-05
-0.000129148
4.50842e-05
-0.000612373
-0.00788289
0.00849529
5.48438e-05
7.28668e-07
-5.55708e-05
0.00932962
0.000763543
0.00042113
0.0146292
-1.76055e-05
6.14943e-05
-4.38784e-05
-0.000550221
8.56802e-05
5.64858e-05
-5.14648e-05
0.0245323
-0.0314682
0.00171401
0.00101812
2.66712e-05
-4.29228e-05
1.62556e-05
-0.000310081
-1.39513e-05
-4.016e-05
0.00462468
0.00431463
-0.00362611
0.00632325
-0.00269707
-2.37118e-05
-5.95197e-05
-5.11417e-05
3.84481e-05
1.26916e-05
0.000475471
6.08318e-06
-0.000481551
0.00330758
0.000673522
0.00141254
-0.000863857
-0.000548681
0.0141093
0.0120195
-5.83026e-06
-2.22581e-05
2.80872e-05
4.03381e-05
-6.13626e-06
0.010251
-0.00562631
-7.28e-06
-2.38277e-06
0.030056
-0.0522036
0.0221475
0.000455061
-0.00051759
6.25276e-05
0.0183654
0.000915355
0.00012591
-0.000140916
1.5008e-05
-0.000292299
0.000202401
8.98956e-05
-4.48025e-05
1.81027e-05
2.66936e-05
0.0109707
-0.0133959
9.21016e-05
-4.46842e-05
-4.74153e-05
0.0120455
-3.68616e-05
2.47271e-05
0.0297886
-0.0447519
-1.8829e-05
0.000121498
-0.0043678
0.00237625
-0.000281087
0.00199509
-6.45684e-05
6.56184e-05
-0.00654846
0.000402899
-5.76452e-05
0.000261486
-0.000203862
-1.83582e-05
0.000102425
5.58694e-06
-1.6751e-05
1.11696e-05
0.00795228
-0.0214582
0.0135058
0.00409718
0.0056947
2.88389e-05
-2.15399e-05
0.00833132
0.000433409
-0.0148131
0.0031825
0.0116306
0.000260193
0.00298899
-0.00590209
0.00291311
-0.00207506
0.00141252
-0.0141917
0.00485627
0.00295678
0.00301522
0.0841533
-0.111866
-0.025317
-0.0044035
6.12301e-06
4.57743e-05
-5.18915e-05
-0.00401658
-0.019312
0.0139087
0.00540332
3.2418e-05
-3.50927e-06
-2.8911e-05
0.00127348
0.00696264
0.00389072
-0.012554
-1.72451e-06
3.41389e-05
-0.0350083
0.0323135
0.00269479
-5.14146e-05
3.38013e-05
-0.0226231
0.0152371
-0.063011
0.0470926
0.0159185
0.000125795
-0.000232921
-0.0178492
0.0118213
0.00602788
-6.30797e-06
1.18916e-05
0.00196302
0.00130938
8.50857e-05
4.22136e-05
0.000488083
0.0380796
0.0490868
-0.0871664
8.64564e-05
0.000368606
-0.00721272
-0.0106365
0.0582614
-0.00600918
0.0144349
-0.01092
-0.00351472
1.09087e-05
-5.97159e-05
4.88058e-05
-0.00510261
0.00594592
-0.000843453
0.00816288
-0.00274324
0.000537794
0.00028217
-0.000819966
-0.0128274
-0.00136437
0.000105981
-2.47438e-05
1.42643e-05
1.04784e-05
-0.0151849
8.6802e-05
-2.90946e-05
0.000633283
-0.00413632
0.00567752
0.00875724
2.65966e-05
-3.51775e-05
8.57776e-06
-0.0010018
0.00248289
0.000263423
-0.000413983
7.92084e-05
6.08632e-05
-0.000140071
0.0127749
-0.00845407
-0.000232595
-0.00184252
-4.55948e-05
2.72398e-05
1.83575e-05
-8.14786e-05
5.82824e-05
2.31918e-05
-0.00543362
-0.00656607
0.0119997
0.0706826
0.0097113
-0.0803939
-0.00447852
0.00857573
-0.011653
0.00490494
0.0714099
-0.0333304
0.0522682
-0.0222121
-4.84345e-05
4.53481e-05
3.08542e-06
0.0244305
-0.000850818
-0.0235798
0.0190908
-0.0132473
-0.00584343
1.76702e-05
-6.36471e-05
4.59734e-05
0.00188845
0.00186268
-8.21044e-05
6.27018e-07
0.000533912
0.00258934
-0.00312328
5.44842e-05
-4.35684e-05
-1.74994e-05
2.69724e-06
9.14336e-05
-0.000109793
-1.20154e-05
-3.62605e-05
4.82798e-05
0.00674999
-0.00450581
0.0159362
-0.0114308
0.00457432
0.0661083
-0.00193671
0.00290455
0.00103737
-0.0178413
0.0257645
-0.00792312
-2.82844e-05
4.08493e-05
-1.25656e-05
-0.0457988
-0.00324907
0.0490479
-0.00736877
0.00752568
-0.000156895
-0.0578221
0.0655508
-0.00772869
-0.000194961
0.000914034
-0.000719072
-0.0253117
0.00747033
0.000138792
6.04485e-05
-0.000199243
0.00286238
-0.0378707
-0.00326596
-0.00145144
-0.0443474
0.00057075
-0.000470327
-0.0129631
0.00658142
0.00638166
-0.0196625
0.0519759
-0.00297513
-0.0260895
0.0138347
0.0122551
1.45438e-05
7.86987e-06
-0.0146333
0.0088574
0.00577591
5.16722e-05
3.18568e-05
0.00306685
-0.00731075
0.00424391
-0.0423136
0.0198251
0.0224885
6.79474e-05
3.36618e-05
0.000474533
-0.000508195
1.21271e-05
1.67116e-05
2.84591e-05
3.17761e-05
-6.02361e-05
0.00365375
-0.0184668
0.00644852
-0.0274661
0.0210176
-1.18378e-05
5.31858e-05
-4.13481e-05
0.0112664
-0.0109578
-0.0101155
-0.0620698
0.0721852
-0.00621207
-0.0165882
9.34847e-05
-2.05056e-06
0.0178362
-0.0040945
-0.0137418
4.27982e-05
3.30422e-05
-4.48814e-05
-0.0862671
0.0127088
-0.0396679
0.0712682
-0.00162418
0.00235446
0.00121008
0.00690036
-0.00811042
-0.000174509
-0.000980747
-0.0192075
-1.45457e-05
1.0608e-05
3.93774e-06
-0.000774684
0.000684732
8.99525e-05
0.000284077
-0.00290909
0.00698401
0.000108756
-0.000363171
0.000254414
0.00540977
-0.00869887
-0.00440172
-0.000187908
0.00458958
3.5232e-05
-4.72489e-05
-0.000429796
0.000171132
-8.29504e-06
9.80041e-05
-8.97091e-05
0.0736323
0.00767922
0.0011075
-6.35235e-05
-2.15177e-05
0.000795141
-0.000523311
-0.000271838
0.00188507
0.00539285
-0.00727799
0.00513765
-0.0105713
-0.00703148
0.00824155
0.0221119
-0.0141596
-0.000817069
0.003398
-0.00524792
0.00184991
-0.000351847
5.18977e-05
-0.000111576
5.96786e-05
0.000232265
-0.000124563
-0.000107704
0.00362073
-0.00336211
-0.00620982
0.000766306
0.0054436
8.06587e-06
3.22639e-05
0.000140484
-5.53965e-05
0.000138276
-1.2365e-05
-5.32988e-05
-0.0127574
0.0128105
-0.00065963
-0.000115053
-0.00458795
-0.00162412
0.0115754
0.0110146
-0.0225901
-3.58316e-05
-1.26052e-05
-0.00310487
0.00617172
0.023549
-0.0432115
-0.000163946
-1.97444e-05
0.000183701
3.22057e-05
2.53478e-06
-3.47381e-05
4.61237e-05
-1.94521e-05
-2.68916e-05
2.54285e-05
1.46093e-06
0.0017904
-0.0113889
0.00959841
2.90345e-05
-2.5748e-07
-2.87772e-05
-0.00675255
-0.00788077
-0.00661504
0.00444963
0.00216542
-0.00613892
-0.00122985
3.87576e-05
5.54201e-05
-0.000600252
-7.85933e-05
0.000678863
4.96245e-05
-2.11663e-05
0.00672851
0.00160281
0.000411536
-0.00257742
0.00216596
-0.00184858
-0.00109231
-0.00630932
0.0293785
-0.0230691
-0.0045673
0.000579383
0.00398781
-0.0288108
-0.0239039
9.65677e-07
-1.74665e-05
4.77937e-05
-7.39807e-06
-4.03845e-05
-0.048627
0.0283697
0.0202572
-0.00276099
0.00117576
-0.000106732
0.00181073
-0.00170392
0.00221204
0.000511243
-0.0027233
-0.0019416
0.0521437
0.00397776
-0.101291
0.0177942
-0.0142892
0.00081913
0.00560543
0.00566095
-7.05346e-05
7.01198e-06
-6.04542e-06
-1.17018e-06
7.21319e-06
0.00137733
0.000956232
-2.25251e-05
3.56073e-05
-1.30846e-05
0.00514147
0.0142843
-0.0194257
0.00629909
0.0133347
-0.000199594
0.000598049
-0.000398456
4.40709e-05
8.92258e-05
0.000854873
-0.00247906
0.00571172
-0.00272271
0.012473
-0.0298797
0.0174066
-0.0119219
0.00566077
-0.0172775
0.0127714
9.41677e-06
-3.70338e-05
0.00181876
-0.0203991
0.0185804
-3.88605e-05
3.59451e-05
2.90902e-06
-0.000221631
0.000145427
7.62111e-05
-0.000946872
6.89444e-05
0.000877938
-0.000435091
-9.9084e-05
0.000713594
-0.000253481
-0.000460112
-0.0483201
-0.00577684
3.90684e-05
-3.25334e-05
-6.54351e-06
0.000113705
-0.00140217
0.00128842
0.00168927
-0.00489793
1.83759e-05
-0.000212861
-8.70375e-05
0.000299886
0.00118746
-0.000262207
0.0178637
0.00246306
0.0817098
-0.00807743
0.00264382
-0.00381934
0.00117553
-0.0308125
0.114966
-0.000404728
0.000671393
-0.000266647
-0.000585919
0.00247439
-0.0121639
0.0157806
-0.00361669
0.00614053
-0.00185312
-0.000214855
0.000745569
-0.00013069
0.000455343
4.68522e-05
5.02782e-05
-0.0088743
-0.00368575
0.01256
-0.000518349
0.000663178
-0.000144834
-7.43572e-06
-7.10332e-06
-0.000489958
0.000170315
0.000319644
0.000197613
-0.000397206
-1.50085e-05
-1.18827e-05
0.00489848
0.0141924
-0.00497173
0.00421175
0.00338586
-0.000742048
-0.00765464
0.0103913
-0.0027367
3.95747e-05
-1.18466e-05
-2.77222e-05
-0.00302757
-0.00358746
0.00149379
-0.00390738
0.00241359
-0.0193461
0.0477286
-0.0283826
-0.000110469
7.21959e-05
3.82727e-05
-0.000403502
6.06484e-05
-0.000106357
4.5721e-05
-0.000363324
0.000250648
0.000112676
6.3169e-06
-4.38595e-06
-0.0102658
-0.020257
0.0305229
-0.000208449
0.00242048
0.0522459
-6.75383e-05
0.000486922
-0.00200246
0.00305248
2.95493e-05
2.06395e-05
0.00343505
-0.00194126
-8.12108e-05
7.29164e-05
-0.000353986
-9.33803e-06
0.00162957
-0.00151589
0.0214349
0.0083245
-0.029965
0.00789036
0.0220747
-0.00716378
0.000923285
0.00215239
4.09213e-05
-2.72519e-05
-8.32149e-05
-0.00124437
-0.00332298
6.21159e-05
-1.36414e-05
-4.84748e-05
0.00709744
-0.0228821
0.0165431
-0.0102438
-0.0419406
0.023011
0.0189293
-1.33833e-05
-5.71514e-05
0.022775
-0.0627278
-0.00754481
0.0309128
-0.0233682
-5.52038e-05
-8.65568e-05
0.00202022
0.000338963
-0.00235919
-0.0108366
-0.00379894
-0.00187002
5.60224e-06
4.10596e-05
0.00269384
-3.18056e-05
2.6693e-05
5.12092e-06
-0.0891727
0.0750548
0.001714
-0.00885547
0.00714141
-0.000326146
-0.000525221
0.000851367
-0.0713618
0.000163855
-0.000764121
9.25577e-06
-4.63635e-06
0.000198397
0.000515189
1.5047e-05
7.05933e-06
0.000226073
0.000569065
9.38486e-06
-7.30685e-05
6.36847e-05
0.0617081
-0.0589185
-0.00278995
0.0481569
0.0135514
8.14221e-05
-6.8298e-05
-1.31234e-05
1.08223e-05
-4.20939e-05
3.12686e-05
9.21564e-05
-3.15177e-05
-0.00154886
4.09856e-05
-2.75309e-05
-1.34512e-05
0.00680172
0.0253831
-0.0316924
-0.0011805
-0.00322121
1.45768e-05
8.34261e-05
0.000137721
-0.000197056
5.93352e-05
-0.000133905
-9.67941e-06
0.00258938
0.00372835
0.0844772
-0.00276735
-0.00566565
0.000716135
0.0049495
0.00119674
0.000369622
-0.000257493
-0.000112128
0.016235
0.0104507
-0.013183
0.0201457
0.0220046
-0.0155561
-0.000102571
9.16508e-05
1.09197e-05
0.000411972
-0.000241655
0.0277067
-0.0166202
-0.0110861
0.00141927
-0.00194253
0.000523255
0.0056868
-0.013184
0.00749719
-2.91765e-05
5.02845e-06
2.41361e-05
2.29216e-05
6.11383e-06
-2.43587e-05
5.77342e-06
1.8584e-05
-0.00335752
-0.000479337
0.00307014
-0.000174927
-0.000117372
0.0017415
-0.000776399
-0.000965105
0.00523962
-0.00327849
-0.00196114
5.20719e-06
-1.99871e-06
-0.00366925
-0.00652085
0.0101899
-0.0382145
0.0113801
0.0268345
0.0022744
-0.0165636
0.00200736
0.0394483
-8.79544e-06
-4.26201e-05
-0.00101295
0.00172785
-0.00071493
0.00983691
-0.00723753
-0.00259939
3.11294e-05
-2.6494e-05
2.1983e-05
-2.62472e-05
4.25835e-06
-0.0705259
0.0646615
-0.0502893
0.0266756
0.0114732
-0.00578653
0.0255965
0.0118417
-0.0374382
-0.00066064
0.00077117
-0.000110523
0.00018278
0.000229192
0.00433845
-0.000720772
0.000202428
0.073298
-0.0834134
0.0109174
-2.05758e-05
-2.23461e-05
2.01215e-05
-6.79253e-05
-0.0202165
-0.00509522
-6.41671e-05
0.00013923
-7.50562e-05
0.0143173
-0.012932
0.000888693
-0.000662628
0.0318506
-0.0276497
-0.00420102
0.00472073
-0.000895971
-0.00151636
0.0354991
-0.0510086
0.0155095
0.00103952
-0.0072184
0.0073943
-0.000175844
-0.000226467
0.000431855
-0.000205388
-0.0240802
0.0274371
-0.00335694
-0.0102518
-0.00150052
0.0466704
-0.0494814
0.00281101
-0.00638705
6.50875e-05
5.93258e-06
-7.2807e-06
3.94861e-05
3.69765e-05
0.0294936
-0.00748896
0.0108525
-0.0211181
-0.00683899
8.96295e-05
-6.54472e-05
-2.41809e-05
0.00587425
0.0147772
-0.079503
0.0647258
2.26246e-05
-6.43596e-07
-3.28196e-05
9.67563e-05
2.10633e-05
0.0393606
-0.0276026
5.73376e-05
-0.00500265
0.00560202
-0.000599364
0.0204661
-0.0153246
-0.0045232
-4.19554e-05
2.62643e-05
1.56995e-05
-0.015609
0.0129963
-0.000220767
-0.000134626
0.000355391
-0.0440093
0.0516453
-0.00763609
-4.58376e-06
3.44159e-05
-2.98324e-05
0.000419577
0.0138977
-0.00359345
-0.00923395
-0.0116356
0.0117423
-0.000106704
0.00649904
-0.019682
-6.50079e-05
1.03154e-05
5.46952e-05
1.72245e-05
-5.78539e-05
-0.00219378
-0.00497
-1.92588e-05
-3.33073e-05
-0.000468548
0.00024208
0.00870398
-0.00819746
-0.00050666
0.0321531
-0.0268491
-0.00530391
2.1558e-06
-8.19845e-06
-0.000141319
-9.32819e-05
0.000234607
0.000129539
-0.000237378
0.000107828
-0.0121413
-0.0178237
0.020425
-0.0894653
0.0185272
-0.0798601
0.061333
0.00567225
-0.00202873
0.00186639
0.000162336
0.000123242
0.000665114
0.0311656
-0.00250776
-0.00315934
0.0025734
0.00796888
-0.000550838
0.00329414
-0.0103256
0.00209895
-7.87355e-05
0.00818615
-0.00647217
0.0278283
0.00128511
-0.0177288
-0.0639671
0.0816959
0.00126744
0.00385611
-0.00512349
0.00438451
1.45089e-05
3.16156e-05
0.000801131
0.000940358
0.00609327
-0.00350387
-0.00413822
0.00199551
-0.00921398
-0.000337656
-0.000393341
0.000109265
0.0345737
0.0422615
-0.00184093
0.000275815
0.0015651
-0.0166046
0.0130112
0.000414323
-7.64667e-05
-0.000337866
-0.00624192
1.65662e-05
3.23477e-05
-4.89172e-05
-0.0030417
-0.0296699
0.0327116
-0.0032712
0.0535878
0.0528187
-0.00646391
0.00825436
-0.000514506
0.000109791
0.0321597
0.0526218
-0.0847815
-0.00406697
0.00294522
0.00112171
-6.08044e-05
0.030838
0.0218194
-0.0526574
0.00686007
0.00258343
-0.00230753
0.00034373
0.000544957
0.054387
-0.00019402
-0.0018931
0.00243422
0.0114745
-3.84672e-05
-3.90813e-07
0.013762
0.0556362
-0.0693982
0.0013401
0.000758847
0.000529391
-0.000211724
3.35103e-05
1.40033e-05
-4.75149e-05
0.0305827
-0.0336243
0.000130918
9.5644e-06
3.81546e-05
-0.000157271
0.000119294
-0.0252693
0.00725645
0.000211149
-0.0384258
3.5403e-05
-3.26244e-07
-3.50748e-05
-6.33548e-05
-0.00155257
0.000515754