/*--------------------------------*- C++ -*----------------------------------*\
| =========                 |                                                 |
| \\      /  F ield         | OpenFOAM: The Open Source CFD Toolbox           |
|  \\    /   O peration     | Version:  v2012                                 |
|   \\  /    A nd           | Website:  www.openfoam.com                      |
|    \\/     M anipulation  |                                                 |
\*---------------------------------------------------------------------------*/
FoamFile
{
    version     2.0;
    format      ascii;
    class       volScalarField;
    location    "250";
    object      nut;
}
// * * * * * * * * * * * * * * * * * * * * * * * * * * * * * * * * * * * * * //

dimensions      [0 2 -1 0 0 0 0];


internalField   nonuniform List<scalar> 
18649
(
0.0240411
0.00044753
0.0249287
0.00053881
0.000445031
0.0203763
0.000449313
0.000427699
0.0244642
0.00408171
0.000446754
0.000445401
0.000451842
0.000450859
0.0521717
0.000453976
0.000447911
0.000449255
0.00480589
0.000447644
0.000445254
0.0405987
0.0207175
0.000516572
0.00400277
0.0172404
0.0303261
0.0312331
0.00044774
0.0113673
0.000444064
0.000443214
0.000447732
0.000466273
0.000451312
0.000465646
0.0558867
0.000479502
0.000446937
0.000450853
0.0273881
0.000452954
0.00076937
0.0315314
0.0318194
0.0403741
0.0175393
0.000468408
0.000449931
0.000511785
0.00053303
0.0242232
0.000441956
0.02881
0.000432649
0.000798408
0.0539026
0.00044997
0.000427089
0.0278514
0.000434995
0.000626937
0.000450787
0.0584685
0.012982
0.0126343
0.0252842
0.000456436
0.0336617
0.0417343
0.0303572
0.000466082
0.000449088
0.00045064
0.000445344
0.0315923
0.0268884
0.000451338
0.0271903
0.00043451
0.000444347
0.000471527
0.0150499
0.00602205
0.00043069
0.000759344
0.00045694
0.00045839
0.000433939
0.0293906
0.0521768
0.000635878
0.000519387
0.000524676
0.000439388
0.000441884
0.00046535
0.000491091
0.00804326
0.000434842
0.0106207
0.000448799
0.00298005
0.000428195
0.0254148
0.0275849
0.0168247
0.0012502
0.000769974
0.00044902
0.000446441
0.00047047
0.00046347
0.000441635
0.000439397
0.000515717
0.000456512
0.00047114
0.000443994
0.000456372
0.000434608
0.000500444
0.0195537
0.000441629
0.000431417
0.000453403
0.0273155
0.000444435
0.000447842
0.000429902
0.000449941
0.0591413
0.000715229
0.000779838
0.000448285
0.0450526
0.0303284
0.0014243
0.0293832
0.0323473
0.000466211
0.000448784
0.000426521
0.000445216
0.0310052
0.000434
0.000452035
0.000778639
0.028314
0.000450596
0.0272076
0.000671826
0.000453422
0.000449109
0.00049006
0.000532198
0.000450744
0.000441426
0.000440364
0.0182129
0.0149855
0.0234145
0.000450805
0.0270876
0.00236603
0.000442108
0.000566281
0.0271057
0.000448543
0.000434431
0.000457377
0.000444134
0.000439898
0.00044181
0.00050553
0.0197548
0.0321386
0.000450443
0.0266993
0.0175052
0.000444533
0.0360296
0.00043457
0.000441312
0.000445922
0.000434551
0.000432862
0.000493563
0.000434573
0.000428538
0.000455485
0.0290421
0.000642455
0.000459934
0.000474715
0.00044001
0.000435068
0.000434682
0.00165182
0.000468088
0.000428979
0.000439781
0.019848
0.000449122
0.00044524
0.000443679
0.000794034
0.0297917
0.000454537
0.000441713
0.000434507
0.000453597
0.000432546
0.000462987
0.00258519
0.000465205
0.000453112
0.000455021
0.000441259
0.0137254
0.000483943
0.000436814
0.0438837
0.000512851
0.0215557
0.00053148
0.000547359
0.00109653
0.000520378
0.000466586
0.000428598
0.000444453
0.000468419
0.000445745
0.0244092
0.000444292
0.000453395
0.000445857
0.000432482
0.000426411
0.000472996
0.0279821
0.000534306
0.0268363
0.019397
0.000448496
0.000460173
0.000452059
0.0464871
0.000495947
0.000449014
0.00108061
0.000445002
0.00044602
0.000461955
0.000441699
0.000441553
0.000434662
0.000482659
0.000448239
0.0553619
0.000431362
0.000431039
0.000464963
0.000432132
0.000546641
0.000448251
0.00316569
0.000456118
0.000437577
0.000654446
0.00110957
0.000462007
0.000437702
0.0540886
0.000501337
0.000450568
0.000458717
0.00047081
0.000635443
0.00090545
0.00045364
0.0302518
0.000452478
0.000429432
0.000745517
0.000481084
0.000446239
0.0308534
0.000428323
0.000444677
0.0185905
0.000449626
0.000444915
0.0217655
0.0459135
0.0558231
0.0331065
0.000465781
0.000441355
0.000439167
0.0259388
0.000506103
0.000665789
0.000939557
0.00042206
0.0053323
0.000547525
0.000468127
0.000528651
0.000444934
0.00764666
0.000427469
0.000433491
0.000451017
0.000443643
0.000455901
0.0352979
0.0247798
0.000433247
0.0310318
0.000436796
0.000434555
0.000447005
0.0324435
0.000448513
0.0172955
0.0194016
0.000441543
0.000449851
0.0004514
0.0288906
0.00125305
0.000449874
0.0188566
0.000444442
0.00702216
0.000418192
0.000485631
0.000799201
0.00045747
0.0212067
0.0342262
0.0266637
0.00288948
0.000554676
0.000500043
0.000446443
0.0315664
0.00482276
0.000453131
0.000608327
0.000431345
0.000447885
0.000461246
0.000486133
0.000448294
0.0063612
0.000443334
0.000432629
0.00045931
0.024786
0.000837845
0.000442136
0.0117629
0.0286883
0.000439261
0.000430929
0.0207889
0.000432447
0.000485396
0.00563691
0.000434583
0.000442471
0.0544613
0.000449988
0.000615403
0.0157678
0.0103457
0.000819913
0.000870242
0.000433508
0.000446684
0.00107998
0.0116885
0.000453255
0.000459238
0.000440505
0.000451283
0.000447343
0.00124214
0.000445142
0.000436775
0.000453031
0.0286508
0.00262558
0.00044355
0.000429392
0.000437851
0.000437317
0.000931346
0.010576
0.000454339
0.000536583
0.000411649
0.000450741
0.000440601
0.00195817
0.000433197
0.000498089
0.0005169
0.000530561
0.000652216
0.00045024
0.000924591
0.00046048
0.0309286
0.000459089
0.000451195
0.000453009
0.000468299
0.000436043
0.000516516
0.0127018
0.0187349
0.000426409
0.0012348
0.00326017
0.000458397
0.0195457
0.00222736
0.000434056
0.000453758
0.000454626
0.039117
0.000447228
0.000444206
0.0244267
0.000446734
0.000441004
0.00043385
0.000426323
0.000449584
0.000483912
0.000450267
0.000444549
0.000451007
0.000655363
0.0212489
0.000446076
0.000451033
0.0230152
0.000451117
0.0242515
0.000468096
0.000458291
0.000445598
0.000436817
0.00978927
0.000806745
0.000440402
0.00412968
0.000446964
0.0319172
0.0193988
0.000442391
0.000426291
0.000428161
0.000444692
0.000452376
0.000453105
0.000430861
0.000463306
0.000506524
0.00050683
0.000546646
0.000449038
0.00044486
0.000470793
0.0145666
0.000473631
0.0264966
0.000456195
0.000434724
0.000434713
0.0223054
0.000444356
0.0171321
0.0368193
0.000450319
0.000452479
0.0276895
0.000429978
0.000509556
0.000440553
0.000468777
0.000542672
0.000442901
0.00043133
0.000443129
0.000511133
0.000453054
0.000451037
0.000447589
0.0211207
0.00720144
0.0246619
0.000428325
0.000440453
0.0101898
0.000441336
0.000449177
0.00045176
0.000741216
0.000719099
0.000463748
0.0313034
0.000445192
0.000561302
0.000440348
0.000441
0.000456145
0.000450269
0.0435001
0.000440731
0.0301603
0.00311466
0.00114547
0.0313583
0.000463339
0.000436891
0.00126954
0.000433922
0.000436378
0.000730795
0.000450565
0.000426514
0.00045673
0.0474838
0.000450288
0.00063149
0.000444444
0.0322253
0.000444501
0.000515526
0.000845531
0.0172918
0.000447725
0.000490259
0.000490023
0.000443661
0.0230315
0.000444556
0.000547145
0.000449094
0.0143415
0.000423615
0.0215344
0.000444763
0.000444503
0.0165337
0.000469873
0.000758247
0.000469565
0.000437108
0.000441987
0.0418147
0.000534882
0.000465555
0.000500604
0.000459574
0.000518559
0.000430253
0.000439283
0.0124663
0.000427252
0.0316517
0.000451846
0.00301733
0.000450587
0.000442832
0.000444335
0.00385311
0.000442516
0.000431711
0.000453299
0.000449784
0.00116917
0.0383395
0.000445052
0.000442929
0.000438646
0.0011381
0.000434403
0.0153998
0.000449506
0.000450516
0.00126581
0.000452349
0.0257281
0.000431996
0.017905
0.000435736
0.000429331
0.000440289
0.000535843
0.000454533
0.0122595
0.000450082
0.0301808
0.000450079
0.036721
0.000440927
0.000444466
0.000715386
0.000448875
0.000439406
0.000439942
0.000719407
0.000497872
0.0004409
0.00240389
0.000696085
0.000444342
0.000478421
0.000465071
0.0207927
0.0428861
0.0219456
0.0493387
0.000450147
0.0206716
0.0482676
0.000451979
0.000516537
0.00725298
0.000461871
0.000700434
0.000454785
0.0131816
0.000450533
0.00107799
0.0289137
0.000444123
0.000621613
0.000442629
0.000458023
0.000433706
0.000452506
0.0323984
0.000432017
0.000639989
0.0226951
0.000532184
0.00044923
0.0193524
0.00047965
0.0004452
0.0215608
0.000444844
0.000447922
0.030216
0.000437007
0.000464225
0.000523047
0.000440603
0.000442688
0.000475716
0.000454091
0.000436457
0.000524158
0.000464341
0.000442909
0.000439864
0.000499201
0.0202821
0.000494949
0.000704574
0.0275245
0.0271255
0.000447477
0.000994673
0.0337097
0.000449503
0.000550413
0.000439654
0.000476466
0.000449165
0.000453381
0.000444627
0.000439109
0.000450282
0.0133808
0.0518124
0.0167924
0.000462766
0.000434586
0.0438496
0.000431407
0.0232245
0.000466902
0.0295327
0.00045573
0.0381669
0.000437252
0.0171908
0.000444204
0.0224349
0.000445
0.00155297
0.00670996
0.000464032
0.00309641
0.000438349
0.0141601
0.000455263
0.000482274
0.031857
0.000434544
0.000429233
0.000441143
0.000433489
0.000667416
0.0275729
0.000446101
0.000476003
0.0175841
0.0131221
0.000439182
0.000567974
0.000434512
0.000446143
0.0280505
0.0322819
0.000473223
0.000496359
0.000455946
0.0266043
0.000448445
0.000440571
0.0119629
0.000806296
0.000429362
0.000485273
0.000604738
0.000450243
0.000440325
0.000427725
0.0299653
0.000487392
0.000432217
0.000447413
0.0518995
0.000496047
0.000500752
0.000881544
0.000455895
0.0164897
0.000451213
0.000432347
0.000429341
0.00046259
0.000575632
0.00045057
0.000433777
0.000435666
0.000544557
0.000440558
0.0215633
0.0022699
0.000447543
0.000479555
0.0038139
0.000443856
0.000431337
0.0004317
0.000427129
0.000511951
0.000458482
0.0156484
0.000460813
0.000462969
0.000437072
0.000449494
0.000455254
0.000436689
0.0011882
0.00442468
0.00740895
0.0256005
0.0170011
0.0198489
0.000441602
0.000449695
0.00240432
0.000483576
0.00360179
0.000458856
0.000569924
0.0312088
0.0290351
0.0224711
0.00048036
0.000432014
0.000436725
0.000459284
0.000442787
0.0027439
0.000600677
0.00043079
0.000450232
0.000470805
0.000480829
0.0459483
0.00113572
0.0521438
0.000448681
0.00235965
0.000446763
0.000451698
0.000458605
0.000429283
0.000441642
0.0281071
0.000442766
0.000540463
0.00046718
0.000446942
0.00044878
0.000434559
0.0242303
0.0310219
0.000467167
0.0212023
0.000452745
0.000553152
0.000533092
0.000687516
0.0004421
0.000453259
0.000426508
0.000519349
0.000453529
0.000446334
0.000431633
0.000430706
0.00042714
0.0362822
0.000470952
0.000466543
0.000479664
0.000440558
0.000459792
0.000446159
0.0157944
0.000436128
0.000431638
0.00044496
0.000432412
0.000443986
0.00363655
0.000458594
0.0279254
0.000432891
0.000458467
0.000440878
0.000442843
0.000444883
0.000427705
0.000432107
0.000536085
0.000712825
0.0205876
0.0427582
0.000470713
0.00045014
0.000436076
0.0170109
0.000427457
0.0115593
0.000590811
0.0207941
0.000432119
0.00808339
0.00263364
0.000449911
0.000447528
0.000523945
0.0321914
0.000487176
0.000476373
0.000448255
0.0281761
0.0252909
0.000431204
0.0270698
0.000455004
0.000439667
0.000441649
0.000442951
0.000447501
0.000427488
0.0304888
0.0293101
0.000429575
0.00044653
0.000445081
0.000446787
0.000439833
0.0523117
0.0253644
0.000593888
0.000427811
0.000428124
0.000426308
0.0504941
0.0316757
0.000937064
0.00063267
0.00043276
0.0130402
0.0111516
0.0264645
0.000427974
0.0004313
0.000352591
0.000455752
0.0184621
0.000442545
0.000451262
0.000433664
0.000484263
0.000488006
0.000429499
0.00045088
0.000418943
0.000447951
0.000505341
0.0328554
0.0222915
0.000547849
0.0287385
0.000450274
0.000544607
0.000491831
0.000436211
0.000454311
0.0283461
0.0316329
0.0171079
0.0562671
0.000443445
0.000431282
0.000467811
0.000454056
0.0216226
0.000533166
0.000431605
0.000436313
0.0296948
0.000448798
0.000470333
0.000447323
0.0144041
0.0157076
0.000715678
0.0330441
0.000443662
0.000490987
0.000432382
0.0402337
0.000516204
0.000459584
0.0284392
0.00227042
0.000444656
0.000431346
0.000450383
0.0320372
0.00385304
0.0457046
0.00043609
0.000481128
0.0287904
0.000447557
0.00042632
0.000450757
0.0077944
0.000429281
0.000450032
0.00245056
0.0190968
0.000442936
0.00314093
0.000444357
0.0208202
0.000426822
0.000489748
0.0213106
0.0301994
0.00690154
0.000427381
0.000448945
0.0437147
0.000450742
0.000432072
0.00918399
0.0564504
0.000436145
0.000436636
0.000451513
0.0210265
0.0220619
0.0371976
0.000549595
0.000456861
0.000462192
0.000453424
0.0161403
0.000548508
0.053011
0.000510013
0.000446494
0.0243656
0.02435
0.0241738
0.000981876
0.021344
0.000431814
0.000450762
0.0499738
0.000619266
0.000491024
0.000453556
0.000449996
0.0280441
0.000454621
0.0220909
0.000447804
0.00103634
0.000446334
0.0182984
0.000445406
0.0225061
0.000503933
0.000452656
0.0373183
0.000505157
0.000432693
0.000929535
0.0533726
0.000466042
0.000447269
0.00138054
0.000441255
0.0473611
0.000446786
0.0260437
0.000446638
0.000429865
0.00044571
0.0195703
0.000433563
0.000431287
0.000436645
0.0108388
0.0335392
0.000449439
0.000444509
0.000453841
0.00188415
0.000458544
0.000451516
0.0304143
0.0227611
0.00225094
0.000452245
0.000431446
0.00391308
0.000428043
0.0299624
0.0173866
0.000443454
0.000426775
0.000450322
0.0369772
0.054631
0.0220356
0.000427519
0.000443757
0.0290659
0.000483836
0.000502414
0.0303648
0.00267017
0.000441771
0.00045031
0.00314412
0.000451248
0.000427335
0.000428049
0.000447477
0.0029706
0.000445722
0.0123833
0.000438694
0.047851
0.000896507
0.00042626
0.000523182
0.000822562
0.0433022
0.000450241
0.000465629
0.000456195
0.000453702
0.0052598
0.000523085
0.0012502
0.000516656
0.0222043
0.0378374
0.00045168
0.000452928
0.000441146
0.00044262
0.000448953
0.000441139
0.0309065
0.000464918
0.0292486
0.000948564
0.000437266
0.0276106
0.0216287
0.000476662
0.000473905
0.0159915
0.000457539
0.00212795
0.00121177
0.00045064
0.000433674
0.028787
0.0153159
0.000807618
0.000446217
0.000447099
0.000440775
0.000458354
0.000442975
0.00278534
0.000448784
0.0257988
0.00325141
0.000458974
0.000437667
0.000428293
0.019283
0.000429544
0.0333074
0.000458367
0.000235768
0.000446267
0.00046326
0.000444128
0.0306046
0.000427524
0.020571
0.000447119
0.000449136
0.000480873
0.000447769
0.000427281
0.000434424
0.000439585
0.000449774
0.0107181
0.005886
0.000440695
0.0275343
0.000428019
0.000441866
0.0236901
0.000442961
0.000427409
0.00202876
0.000440792
0.000501213
0.0121452
0.000450226
0.000432889
0.00350483
0.000443884
0.0291007
0.00042898
0.000578562
0.0326147
0.000453247
0.000428595
0.000476207
0.000434087
0.000432275
0.000434245
0.00113596
0.00042972
0.000513377
0.00156985
0.00044692
0.000485965
0.0521998
0.000455896
0.000449702
0.000455282
0.000449991
0.000502375
0.000444113
0.000446631
0.000433965
0.0216158
0.000445175
0.000444289
0.000441364
0.000445594
0.000464636
0.0311072
0.000177023
0.00042656
0.0274418
0.000669493
0.000888851
0.0347055
0.00472451
0.000441025
0.000434426
0.000450306
0.000460499
0.0292467
0.000432766
0.0267223
0.000442987
0.000505975
0.000441112
0.000431985
0.020516
0.000447033
0.000447363
0.0561338
0.000456678
0.000450172
0.000440024
0.000515347
0.0280028
0.000455874
0.0322527
0.0395025
0.000431527
0.000444291
0.000467433
0.00279117
0.000447588
0.000449282
0.000495801
0.000444092
0.0301279
0.0216626
0.0013726
0.0390237
0.0448254
0.0198037
0.00060106
0.000403919
0.0479196
0.00155513
0.000442965
0.000442978
0.000444101
0.000470417
0.000450367
0.000453057
0.0214228
0.0262336
0.000480803
0.000430729
0.000437427
0.0256363
0.000445772
0.000450456
0.000449745
0.0287099
0.000465421
0.0227456
0.000449844
0.000809399
0.000499344
0.000452952
0.0291567
0.000447439
0.000448059
0.000445618
0.000459235
0.000437274
0.0206458
0.0524054
0.00044336
0.000426568
0.000443697
0.000440353
0.0268962
0.000451035
0.000443966
0.000457204
0.000448272
0.000440893
0.000442699
0.000451881
0.000442004
0.000841855
0.00118305
0.000447154
0.000451777
0.000427902
0.000450203
0.00138379
0.0245858
0.000440601
0.000463182
0.000437116
0.0498594
0.000455531
0.0157398
0.000427198
0.008572
0.000446926
0.000455233
0.000379143
0.000431971
0.0153944
0.000502617
0.0282706
0.000448998
0.0188511
0.000430964
0.0362734
0.00555953
0.000436481
0.00464559
0.000436636
0.000427249
0.0319884
0.000437115
0.000443941
0.000521934
0.000481324
0.000443432
0.00044858
0.000426991
0.000440209
0.0248646
0.00044473
0.00043105
0.00826504
0.000450225
0.0380784
0.00043835
0.000449395
0.00043718
0.000446933
0.00425321
0.000501526
0.0140202
0.00027068
0.000502427
0.000444342
0.000436758
0.000439845
0.0510785
0.000447661
0.000445556
0.000437028
0.00044932
0.00133477
0.0374658
0.000436841
0.0106364
0.0004424
0.000492367
0.000429028
0.000449118
0.000474089
0.0291482
0.000443412
0.000260754
0.0265668
0.000463539
0.000440407
0.0329906
0.0504431
0.000426438
0.0587718
0.000433202
0.0257283
0.000451894
0.00595618
0.00269894
0.00048122
0.000438449
0.000545651
0.000442377
0.0004472
0.000460988
0.000486566
0.000449185
0.0240145
0.019787
0.000450541
0.000445299
0.000447309
0.000440138
0.000538876
0.000445757
0.000444731
0.000448603
0.000436996
0.000466926
0.000937224
0.000448339
0.000446427
0.000468778
0.0409616
0.00404387
0.000451275
0.0238046
0.00764109
0.000582335
0.0494194
0.000458172
0.000451661
0.00044541
0.000440137
0.000451056
0.0326053
0.000447398
0.000452957
0.000443667
0.000449467
0.0244872
0.00043097
0.00290004
0.000453117
0.0439482
0.000452434
0.00751136
0.00043268
0.000489235
0.000459398
0.000544401
0.000454551
0.000445342
0.00489132
0.000459229
0.000450318
0.000427024
0.0189974
0.0272089
0.000444345
0.000438316
0.022383
0.0305384
0.0326422
0.000436107
0.00044332
0.0524392
0.000451638
0.0215565
0.00143699
0.00042947
0.000452448
0.0194514
0.000446487
0.000450808
0.000435273
0.00128872
0.000467933
0.000698479
0.000450831
0.00178953
0.00274173
0.0519935
0.00644434
0.000446596
0.000442701
0.000443016
0.000450319
0.000428344
0.0498998
0.000439668
0.0373642
0.000451717
0.00440489
0.00793082
0.000458752
0.000436286
0.000450123
0.0282521
0.000437041
0.000442371
0.000443736
0.000443197
0.0315326
0.000439809
0.000447412
0.000450021
0.000456217
0.000438213
0.00043847
0.0145567
0.000455119
0.0108983
0.000500704
0.000454547
0.0279457
0.000448781
0.0158856
0.00043836
0.000769617
0.000432468
0.000440195
0.000431365
0.000442565
0.000428185
0.000434224
0.000230049
0.000459838
0.00958014
0.000451147
0.000474023
0.00043856
0.000565147
0.0234495
0.0198726
0.000451574
0.000443754
0.000442726
0.00045765
0.000439673
0.0250701
0.00045283
0.000473781
0.0431582
0.000451486
0.000446982
0.000446367
0.00292679
0.029358
0.0147444
0.00043857
0.000439474
0.00156908
0.0205933
0.000449264
0.000442186
0.0279029
0.0193021
0.000429567
0.0153356
0.00297868
0.000436445
0.000550796
0.000430668
0.000440508
0.000340177
0.000451202
0.000438083
0.000476909
0.000457732
0.000453538
0.000431518
0.000427411
0.000453189
0.000452525
0.000452591
0.000426955
0.000446078
0.00044501
0.000449866
0.000478323
0.000458609
0.000631697
0.000427326
0.00810082
0.000450206
0.00122166
0.000454811
0.0273559
0.000437935
0.000454544
0.00044526
0.000432512
0.000570022
0.000460496
0.00125452
0.000432633
0.000450562
0.000438767
0.000456777
0.0303289
0.000434374
0.02314
0.00528532
0.000508743
0.00138672
0.000430699
0.000461138
0.000449216
0.000452724
0.00043318
0.000432416
0.00362159
0.0310876
0.000458783
0.000451914
0.00044024
0.0234351
0.000434021
0.000442723
0.000440758
0.000433446
0.000427914
0.0166091
0.000441629
0.0138976
0.000459682
0.00046142
0.0263999
0.00128586
0.000454341
0.00179046
0.0382267
0.0233223
0.0192265
0.000436537
0.000437904
0.000434734
0.000453154
0.000449259
0.000605849
0.000429311
0.0274108
0.000428883
0.000476383
0.000426591
0.00045029
0.0159996
0.000519256
0.0137085
0.00045042
0.000426339
0.0266359
0.0579338
0.000447183
0.0193043
0.000427941
0.000462655
0.000457346
0.00044963
0.0400479
0.000856518
0.00057955
0.000450812
0.00163312
0.000453692
0.000448644
0.000738446
0.000451119
0.0283113
0.000454246
0.000443897
0.000463598
0.000432191
0.0013366
0.0564692
0.00044711
0.000435301
0.000464669
0.000427811
0.0280239
0.000446932
0.0287303
0.000465602
0.00336645
0.00214164
0.000466669
0.0153003
0.00138853
0.000430469
0.000404028
0.0467003
0.000496771
0.0242767
0.000447977
0.00045157
0.000473244
0.00045771
0.0303789
0.000619841
0.0170725
0.0128004
0.0212649
0.000449256
0.000446841
0.0181018
0.000558447
0.0268791
0.000828572
0.000479548
0.0116488
0.00045272
0.000462862
0.0549926
0.000413472
0.00043305
0.057893
0.00043249
0.000412793
0.0469656
0.000464532
0.0283951
0.000481927
0.000455418
0.00217709
0.000453596
0.000560318
0.000450103
0.00953152
0.0265509
0.000432124
0.000451353
0.000460264
0.0575773
0.00266646
0.0399779
0.000483232
0.0556631
0.000454447
0.000437984
0.000767999
0.0378044
0.000437081
0.045465
0.000405953
0.047702
0.000458609
0.000451153
0.0233601
0.0225047
0.000576264
0.000452772
0.0191424
0.0470708
0.0256896
0.000433258
0.000431468
0.000452693
0.00043095
0.000436374
0.000462579
0.000430512
0.00046242
0.00324409
0.000487843
0.000434636
0.000451412
0.0229517
0.000715851
0.000453175
0.0576639
0.000445122
0.00045631
0.0600289
0.000457274
0.000451358
0.0272511
0.00044763
0.023766
0.000428565
0.017431
0.000446716
0.0387652
0.000495435
0.000452594
0.000446902
0.0172825
0.0557206
0.000525827
0.000441405
0.0021395
0.00246342
0.0345654
0.00138242
0.0048695
6.02344e-05
0.00142157
0.000512962
0.000450535
0.000449187
0.00045133
0.000435313
0.000458189
0.00042668
0.000467246
0.0477809
0.000508731
0.0523396
0.0503466
0.0320003
0.027072
0.00047417
0.0311347
0.00045207
0.000429866
0.00045358
0.000436807
0.000443505
0.0518923
0.000445805
0.00720812
0.000452788
0.0011508
0.00710208
0.000429656
0.0384043
0.000451314
0.000458537
0.000442421
0.000432378
0.0279625
0.0189091
0.000438837
0.0104239
0.000446575
0.000432319
0.0219606
0.000445261
0.000427768
0.000463322
0.000540608
0.000478795
0.000473965
0.0543432
0.000428334
0.0211452
0.000446831
0.000446276
0.00144887
0.0107113
0.0270076
0.000454759
0.000427895
0.000436079
0.0274696
0.000400019
0.000465256
0.000457182
0.000437749
0.00045084
0.000444028
0.000445834
0.000450357
0.0176438
0.00042716
0.000442211
0.000429993
0.0293202
0.000455588
0.00756897
0.0147551
0.000465666
6.73116e-05
0.000443721
0.000442524
0.0184867
0.0347848
0.000447985
0.000457837
0.000428178
0.000493448
0.0443311
0.00606152
0.0525529
0.0252115
0.000442634
0.000431432
0.0267751
0.000448165
0.00227448
0.000464631
0.000436366
0.000537067
0.00426335
0.000446176
0.000431626
0.000439716
0.000463573
0.000445082
0.000437339
0.000466161
0.000445671
0.0134864
0.000428785
0.00044515
0.0156405
0.00370168
0.000437032
0.000456319
0.0204716
0.000482052
0.0283411
0.0481245
0.000450486
0.000450678
0.000445796
0.0230226
0.0250604
0.000443931
0.0543339
0.0387659
0.00568375
0.000439643
0.000445564
0.00043031
0.000444866
0.00697209
0.00251336
0.0294308
0.0357587
0.000442465
0.000426664
0.0582841
0.000450731
0.0411453
0.0271545
0.000649248
0.00187635
0.00251522
0.000451888
0.00044519
0.000445356
0.0119834
0.0264222
0.0193255
0.000427746
0.000488511
0.0523191
0.00117166
0.000448189
0.000428857
0.000456499
0.000466595
0.00065879
0.0012525
0.000465881
0.000490639
0.0364452
0.000446368
0.000563302
0.00507504
0.000579661
0.00111266
0.00043744
0.0459151
0.000446049
0.034422
0.000446115
0.000437315
0.0572919
0.00044935
0.000459629
0.000447686
0.0201923
0.0303729
0.000436702
0.00044882
0.00557285
0.000451948
0.000458782
0.0247843
0.000453436
0.0224142
0.0330668
0.0129819
0.000446187
0.0111127
0.000462641
0.000445182
0.000436892
0.000432066
0.000440166
0.0164892
0.000447949
0.0286884
0.000450763
0.000507062
0.000444757
0.000488654
0.000464135
0.000449643
0.0300728
0.000449604
0.0232366
0.000445976
0.0012042
0.000488275
0.00108187
0.000505403
0.000449798
0.000441064
0.000461703
0.000846175
0.0234544
0.000649384
0.000881541
0.0214672
0.000453226
0.000455881
0.000439598
0.0149738
0.00420426
0.0240747
0.000506266
0.0007082
0.000436915
0.0133892
0.0209536
0.0487302
0.000454882
0.000436178
0.000506177
0.0442761
0.000437801
0.000821935
0.0167697
0.000447662
0.0022403
0.000451515
0.0351118
0.00228483
0.0269231
0.000477351
0.000437435
0.000436128
0.0522044
0.000426488
0.000455843
0.0321209
0.000484432
0.000436401
0.00067128
0.0292674
0.000470381
0.000439764
0.000865471
0.00074214
0.000447786
0.000463065
0.0325302
0.02573
0.000569085
0.0314967
0.00131352
0.000460238
0.0004503
0.019802
0.000442179
0.000451391
0.0272435
0.000696986
0.000450316
0.000443837
0.000445103
0.000792509
0.0109129
0.000436633
0.0428792
0.000454473
0.0186077
0.000428973
0.0285443
0.0433441
0.000449881
0.0198685
0.0167656
0.000455874
0.000443157
0.00384475
0.000454383
0.00364213
0.000428402
0.000452235
0.000458125
0.000454974
0.00045342
0.0548345
0.000439946
0.000504732
0.0526547
0.000426424
0.00938826
0.000503771
0.000657709
0.00380654
0.000441337
0.032384
0.000443874
0.00127079
0.00046215
0.000460124
0.000503198
0.000446655
0.000466758
0.000514972
0.000445945
0.000452287
0.000445378
0.0265039
0.025007
0.00135922
0.000815158
0.000442035
0.000743754
0.00044592
0.00046513
0.00160927
0.000443733
0.000513008
0.0241424
0.00044681
0.000445017
0.0368699
0.000487245
0.0325644
0.0326684
0.000438533
0.000452066
0.000471464
0.000450073
0.000495594
0.0487626
0.000427834
0.000445123
0.0463037
0.0010646
0.0159049
0.0434221
0.0576392
0.000436836
0.0286353
0.00654105
0.000441118
0.000429615
0.000463843
0.0298481
0.00111448
0.0004546
0.000449986
0.0234166
0.000511802
0.000441489
0.000455179
0.000439798
0.000427841
0.039727
0.000460998
0.0228016
0.018384
0.000428089
0.0144562
0.000451004
0.000460145
0.0138316
0.0241935
0.011166
0.000438131
0.000460706
0.0172542
0.000451843
0.000454149
0.0391611
0.0294944
0.0275964
0.0223446
0.000610518
0.000447659
0.000435738
0.000438139
0.0152394
0.0253153
0.000492839
0.000454579
0.000436009
0.0284991
0.0128924
0.000447565
0.0397672
0.000532113
0.0438823
0.000407739
0.00043569
0.0242027
0.000426288
0.000472656
0.00144315
0.000450526
0.000455486
0.0363942
0.000457732
0.000454
0.000467228
0.0414263
0.000451356
0.000616789
0.000438483
0.0320923
0.0223823
0.0214054
0.000445152
0.000441958
0.000492867
0.00540206
0.0308102
0.000450756
0.000462183
0.000478069
0.00042972
0.0011175
0.000653928
0.000461339
0.000448865
0.000445341
0.000473288
0.000436439
0.000462715
0.0004564
0.000464814
0.0167941
0.0228134
0.00367734
0.000464882
0.000664031
0.00136116
0.000450222
0.000468607
0.00104479
0.000443386
0.000467208
0.000443198
0.000494707
0.00044895
0.000589018
0.000535143
0.027412
0.000453191
0.00946785
0.0229065
0.0167717
0.000184909
0.0269514
0.000460155
0.000454079
0.0203227
0.000442438
0.000449572
0.000428129
0.000429123
0.000446521
0.00044807
0.000486836
0.000431281
0.000520321
0.0132987
0.000456958
0.0362651
0.000444934
0.000522598
0.000548123
0.000437073
0.000454004
0.037877
0.000609362
0.000454312
0.000444081
0.0149833
0.000438283
0.0275966
0.0199224
0.0348766
0.0229238
0.000464182
0.000799354
0.00317943
0.00322534
0.000453248
0.000637859
0.0404801
0.0276987
0.000449969
0.0295087
0.000449682
0.000450218
0.0519102
0.000343488
0.000450429
0.000438117
0.00121322
0.000450538
0.0272786
0.000438569
0.0158258
0.00044032
0.000452394
0.000451085
0.000477613
0.000450138
0.000444265
0.000444008
0.0482496
0.000455711
0.0225183
0.029427
0.0217783
0.000452332
0.0242102
0.000441288
0.000451322
0.00792312
0.0168108
0.000446463
0.000506811
0.000428112
0.000449636
0.000480495
0.0237991
0.0220483
0.000447495
0.028998
0.0472347
0.000558956
0.000451021
0.000432732
0.000450274
0.000451096
0.00044317
0.00264521
0.000450944
0.0184212
0.000432696
0.0433728
0.0377108
0.00336467
0.0307984
0.000450095
0.000487749
0.000455225
0.000443963
0.000464583
0.000485523
0.000483331
0.000442416
0.000445967
0.0361354
0.0517715
0.0364183
0.00207216
0.000436885
0.000432362
0.000446372
0.000443567
0.000541605
0.00356609
0.000475669
0.000479818
0.000446957
0.0406396
0.000444947
0.000431227
0.0372331
0.0615672
0.0256396
0.000444723
0.000452431
0.000450576
0.00185038
0.0338697
0.000445604
0.0125213
0.000465642
0.000449539
0.000448648
0.000427941
0.0405732
0.00374502
0.000452856
0.000439329
0.0596561
0.000449817
0.0433134
0.000460414
0.000425644
0.000451431
0.000450766
0.00044754
0.000446012
0.022128
0.000437695
0.0321461
0.000450168
0.000427763
0.0229778
0.000585404
0.0502148
0.000451963
0.000443158
0.000496759
0.00209431
0.000439136
0.000480449
0.000450287
0.045266
0.000450728
0.0315188
0.046196
0.000479532
0.000446356
0.000435406
0.000450252
0.000538533
0.0004662
0.000436569
0.000443545
0.0451653
0.00914765
0.0116131
0.0288924
0.000439464
0.0513773
0.000457238
0.0486725
0.000475944
0.000446578
0.000445291
0.000790496
0.0286238
0.0289456
0.000450733
0.0192301
0.000448088
0.000445168
0.000433502
0.000686413
0.000444255
0.00483819
0.000436652
0.00044742
0.0400186
0.000444374
0.0530228
0.0439483
0.000445385
0.000434947
0.0514742
0.0220368
0.000448691
0.00061804
0.000465067
0.000455373
0.000452159
0.00203055
0.00042737
0.000449498
0.0151154
0.000450073
0.00064087
0.0105755
0.000486194
0.00126964
0.0269626
0.000438139
0.000450078
0.000446545
0.000486701
0.000435242
0.000450223
0.0144613
0.000442046
0.000458638
0.000452459
0.000450936
0.0460065
0.000447753
0.000434685
0.000452293
0.00064613
0.000437563
0.000446786
0.000443296
0.000427188
0.000449875
0.000468881
0.000453064
0.000441337
0.00053016
0.00045086
0.000432187
0.00048877
0.000447714
0.000432581
0.00198687
0.000439703
0.00539122
0.000445501
0.00771562
0.000525773
0.0183298
0.000466282
0.0358161
0.00052863
0.0172735
0.0129929
0.000452234
0.0233767
0.0223625
0.0197367
0.000436475
0.000437097
0.00197787
0.000426555
0.000498282
0.000458797
0.0225749
0.000453083
0.000453036
0.00108344
0.000439515
0.0525354
0.0382693
0.00580608
0.000505497
0.0500605
0.00505093
0.0375816
0.00506398
0.000441451
0.0209071
0.000453219
0.0184698
0.0393545
0.0371072
0.030152
0.000447286
0.0319301
0.000461946
0.0379758
0.000444165
0.000446132
0.000436417
0.000739769
0.0232294
0.00229287
0.00045406
0.045313
0.000220477
0.000448796
0.000440269
0.0372014
0.000498166
0.000598586