/*--------------------------------*- C++ -*----------------------------------*\
| =========                 |                                                 |
| \\      /  F ield         | OpenFOAM: The Open Source CFD Toolbox           |
|  \\    /   O peration     | Version:  v2012                                 |
|   \\  /    A nd           | Website:  www.openfoam.com                      |
|    \\/     M anipulation  |                                                 |
\*---------------------------------------------------------------------------*/
FoamFile
{
    version     2.0;
    format      ascii;
    class       volScalarField;
    location    "250";
    object      ddt0(k);
}
// * * * * * * * * * * * * * * * * * * * * * * * * * * * * * * * * * * * * * //

dimensions      [0 2 -3 0 0 0 0];


internalField   nonuniform List<scalar> 
18618
(
0.00104231
-0.0650765
2.21644e-08
-0.00307948
-9.81821e-09
-0.000769447
-2.95546e-07
-0.0493829
-2.79244e-06
2.21269e-08
-1.00808e-06
2.01104e-08
-0.00480983
1.45659e-07
-1.94244e-08
1.7025e-08
1.13729e-08
0.00987155
-4.75222e-08
-1.11356e-06
0.000427447
-2.07384e-08
1.52856e-08
6.39223e-06
5.25047e-08
-1.14118e-05
0.000613126
-6.05667e-08
1.84719e-08
-5.85143e-08
2.28369e-08
-9.73348e-07
3.6808e-08
1.64339e-05
0.000461477
4.47557e-08
-1.89899e-08
-0.00285244
-7.67561e-07
-6.59897e-08
-7.23913e-05
0.000360672
7.85295e-08
0.000155532
-2.81853e-06
-7.10229e-08
-0.0518341
-3.36815e-08
-0.000959759
0.022822
-6.30515e-08
1.91659e-07
0.00861019
-9.05658e-05
4.81814e-08
-0.025898
1.24067e-07
-5.24039e-07
3.76578e-05
-1.94441e-06
-7.93088e-08
-7.35759e-08
-2.02861e-06
-3.06688e-08
2.2822e-05
0.00526195
1.00281e-08
5.20243e-07
-2.71024e-08
-0.00962569
-7.96338e-07
-0.00122675
4.10043e-06
-0.0119545
1.68375e-07
2.32792e-07
-1.82136e-05
0.0018942
-2.16839e-08
0.0339479
0.00797916
0.011598
-0.0115665
3.27801e-08
3.10219e-08
8.15809e-08
9.915e-06
2.01711e-08
-1.58587e-06
0.00897956
1.48269e-06
-0.000202848
0.00371965
-1.00541e-05
0.00259134
1.51625e-06
-4.43929e-08
-0.00217318
1.58494e-07
2.38751e-08
0.00226634
-1.1177e-08
-2.6248e-05
-1.10115e-06
2.87022e-09
0.0113014
3.73821e-08
1.48925e-08
-1.78759e-05
-2.60013e-08
-0.010397
5.85526e-09
9.59878e-08
8.00907e-08
-2.86416e-08
2.28481e-08
3.13974e-09
0.00519303
2.6487e-08
-5.21878e-06
-0.00166639
1.24158e-07
-0.028532
0.00988103
0.0014177
0.000135432
1.88875e-05
-0.00467356
4.11377e-07
1.27007e-07
-5.61556e-07
4.75543e-09
0.0194761
-1.07575e-05
-3.73433e-08
-7.26458e-08
1.38266e-07
3.10469e-08
-0.0845534
-4.09664e-08
-3.15094e-07
-9.11096e-09
-5.43269e-08
-3.90448e-08
7.13574e-08
-6.62863e-06
-7.68525e-09
-6.11947e-08
0.00845357
1.38586e-06
1.5511e-07
0.00904203
-0.0847145
1.6327e-08
1.26626e-08
-0.00440312
-0.000270722
-0.00812853
6.75842e-06
-5.71984e-08
-7.32655e-09
0.00230007
2.54494e-08
-2.12471e-05
-1.66022e-09
-0.00175162
1.26768e-08
-4.2495e-08
0.0070323
4.68922e-08
2.058e-07
-6.5502e-09
-1.09611e-05
1.86983e-06
-0.00847875
-1.56879e-06
4.17777e-05
-0.00384737
-2.14282e-09
-3.17521e-08
3.52247e-06
-1.66714e-07
5.9662e-08
5.85704e-08
-0.000179087
-1.49704e-08
-7.73896e-07
1.31975e-06
0.000146485
-0.00158919
2.49611e-07
5.17751e-06
-0.00335835
-4.56428e-08
0.000104878
1.99446e-05
3.02263e-06
-0.00978057
-3.86195e-08
0.0405479
9.30453e-05
-2.68097e-05
-1.69943e-06
-5.28037e-07
0.000357204
0.00732107
0.0329401
0.00872057
1.63088e-07
0.0489047
5.45767e-05
5.63384e-09
0.00989214
-5.97712e-05
6.17611e-08
5.43833e-08
-6.54309e-05
0.00132093
5.88002e-08
0.0220413
1.41449e-07
-4.27947e-08
-3.27758e-08
-5.45865e-05
-4.37231e-06
-2.5507e-06
1.32585e-07
-8.13436e-09
-0.00024916
4.44305e-06
0.0374615
-4.35888e-05
-2.44182e-07
-9.41164e-07
4.79342e-08
-4.19589e-06
-2.07729e-06
-2.46755e-05
6.03689e-08
0.00193536
-4.36068e-06
-1.08252e-06
2.21347e-09
-9.16556e-07
0.00177454
2.54026e-07
6.79674e-06
-0.0412849
1.48161e-08
3.14958e-07
0.00941889
8.49753e-05
7.35713e-08
0.0326037
4.03593e-08
3.13279e-08
-1.9884e-07
1.79613e-05
5.03772e-08
1.4635e-06
-4.18619e-05
-8.31755e-08
-3.17606e-05
-0.0715127
-2.76703e-05
-8.1006e-08
2.46097e-06
-0.000503167
-1.80264e-07
-2.27813e-07
-8.42778e-07
-4.02175e-08
-7.54988e-08
-6.0623e-08
-4.80958e-08
0.00516148
3.86292e-06
-4.23336e-08
-0.00151719
-7.74361e-08
1.18118e-07
-3.45077e-08
0.0289166
-0.0310637
-3.20921e-06
0.0041504
-2.83347e-07
-6.38101e-06
-3.05548e-08
-0.000178964
-7.39621e-08
-1.56372e-07
-8.72085e-08
-1.19256e-07
-2.48974e-05
1.52422e-08
2.28452e-08
8.09669e-08
-0.00267772
0.00469256
-0.00780938
0.0116501
-0.0396809
9.72758e-06
1.27281e-06
0.0380046
0.000187679
3.03673e-07
1.28194e-07
4.97908e-06
-3.29935e-08
2.41116e-08
-4.19358e-07
-7.95604e-08
1.38464e-06
0.00037698
0.0451992
0.000166357
-4.63726e-08
-2.15278e-08
-3.39891e-08
7.90959e-05
4.1444e-06
-0.00044418
-2.00422e-07
6.56336e-05
-0.0127139
-5.53355e-08
3.55671e-06
4.06564e-07
-3.97804e-08
7.64229e-08
-4.78274e-06
-2.87621e-08
2.21447e-06
-9.48792e-09
-8.63681e-05
-1.56638e-05
0.0273663
0.0194504
-2.72876e-08
-0.00402057
-1.90538e-06
-1.41488e-08
-3.69008e-08
-2.60488e-08
-3.06644e-05
-3.69515e-08
0.00163463
1.72777e-07
-0.00421227
1.6454e-05
-1.57346e-07
3.14436e-08
-0.00958154
2.1366e-05
3.14461e-08
-3.41135e-05
-5.12829e-08
4.2667e-06
0.000109404
-0.0943268
-4.58142e-06
-9.10405e-06
-0.0959412
-0.0115945
1.76266e-07
-1.05455e-06
1.66577e-05
7.09265e-08
-3.34161e-08
2.08089e-08
7.55303e-05
-0.00425758
-4.21604e-08
3.56288e-07
0.000708635
-6.30108e-08
-0.000118418
-0.00015856
-1.0268e-07
-1.00465e-06
0.0183863
0.00249103
-4.08206e-08
-3.56526e-08
3.03051e-10
-4.5936e-05
-2.40675e-10
2.36608e-08
-8.26778e-08
7.00871e-05
-7.09397e-08
-7.93204e-08
-0.00289613
-0.000563498
-7.28686e-06
0.0351117
-1.1855e-08
9.98252e-09
-1.28711e-08
0.00746148
-0.000284363
0.00334999
-4.41675e-09
0.017328
1.80032e-07
-1.28933e-09
8.3861e-09
-9.28386e-07
-4.08635e-08
0.0202054
-0.000208377
-0.00289614
-5.95684e-07
-2.96074e-05
6.87297e-08
5.53611e-07
1.26261e-08
0.00987603
1.90026e-08
2.15517e-08
4.00139e-06
-0.000251347
-0.000778348
-2.25766e-08
9.94544e-08
6.09441e-05
-7.19184e-09
8.63782e-07
-6.79003e-08
-5.91041e-08
1.63573e-07
-0.000198893
-1.2995e-06
9.80619e-09
6.38222e-06
-4.69025e-08
0.000205205
-3.02633e-07
-0.00178696
-1.3498e-05
4.76483e-06
4.43142e-06
-0.00565622
1.02866e-06
0.0137434
0.00538097
-9.26037e-10
2.35102e-06
-2.76352e-07
0.0173913
-0.0292893
-4.47297e-08
-4.54454e-06
0.0290853
-9.4517e-09
0.00301485
3.08508e-08
0.0149841
-0.0233686
-9.02185e-07
0.0644803
4.06663e-08
-0.000990196
-8.6581e-06
-6.25527e-05
3.57366e-08
-0.00142387
3.2963e-07
8.2114e-09
-5.34645e-08
-0.00150084
-8.94784e-07
-2.62874e-08
-1.95515e-08
-1.72648e-08
0.0778702
0.00959878
-6.56465e-07
0.0128095
-0.000329773
-6.09739e-07
2.53771e-08
-3.57133e-08
0.00202884
8.20595e-09
-1.15082e-06
-0.000262638
-0.0267563
6.4425e-06
-1.33089e-09
-6.46128e-05
2.26104e-06
0.00353811
2.76994e-08
0.00941675
2.33432e-08
-1.98531e-07
-2.80544e-06
0.0335874
-8.22086e-08
-0.000496203
-3.37921e-08
2.72961e-08
-3.87963e-06
4.997e-09
1.02473e-07
1.28812e-08
0.00130538
-0.003082
8.96819e-06
-2.36273e-05
1.01738e-07
-2.34074e-08
4.50304e-07
-0.0205565
-1.53351e-08
-0.00438912
1.22343e-07
0.00484506
-2.3812e-06
3.49629e-10
1.17351e-05
0.0337464
-4.81892e-06
8.86177e-09
-1.13794e-05
-0.00198669
0.000257923
7.77956e-08
-9.69057e-06
7.91021e-08
3.84457e-07
2.91683e-08
0.0360114
8.83006e-08
-3.06683e-08
0.0155835
0.0202888
-0.0238716
-0.0021539
8.90985e-07
-7.80236e-05
-2.72799e-06
8.87474e-09
-0.00987913
-0.0293489
0.000208648
4.48321e-06
2.59626e-06
3.77782e-07
-2.4181e-08
-3.45392e-05
-2.03536e-05
2.35309e-08
8.03077e-07
5.21475e-06
3.66762e-07
2.71392e-06
3.11502e-08
-0.00242759
4.66256e-09
-0.0036327
3.74228e-07
3.94811e-09
-3.11382e-06
-2.57296e-08
1.15063e-07
0.0389119
2.31674e-08
0.0180654
-2.6096e-05
0.000496872
-5.6781e-06
1.95319e-06
0.00181596
2.97259e-07
-9.17271e-08
6.32032e-06
-4.03746e-05
5.39033e-08
0.00526081
0.00097053
9.43267e-08
2.4969e-07
-4.16491e-08
-2.97703e-05
3.60373e-08
4.57123e-06
5.47949e-07
0.0205322
-2.11931e-06
0.000333714
2.92314e-06
0.0139488
3.22674e-08
-1.40338e-05
-0.00452769
-2.30754e-06
0.00192165
-6.86298e-09
-1.80419e-05
-2.47502e-06
-1.27453e-08
5.68496e-07
0.00236994
-1.55865e-10
-1.00121e-07
-4.3524e-08
3.63542e-07
0.0101802
-8.63829e-05
5.19094e-08
0.00537115
-1.69746e-05
3.15811e-06
0.00475264
7.37252e-07
-1.54842e-08
2.9946e-06
8.75381e-08
6.79777e-07
0.0256519
-1.99319e-09
-8.2825e-05
9.64088e-07
0.00385868
-2.86928e-05
5.92938e-08
-2.29945e-08
-8.53834e-10
-0.00669232
1.44602e-06
0.0195782
1.85887e-07
2.2309e-08
2.23336e-08
3.16673e-08
4.35302e-08
2.63215e-08
-8.87779e-08
-2.48916e-05
-0.000513037
1.98458e-08
3.40789e-06
0.000171012
-1.68784e-07
-1.04622e-09
-0.00956867
4.23684e-06
1.12955e-06
2.35381e-08
7.2343e-09
0.000508722
-2.22832e-09
0.00376991
7.62129e-07
8.51198e-08
-5.07362e-06
-5.30849e-05
-2.86738e-09
0.0116874
-0.00386644
0.0169338
-3.23719e-05
5.23284e-08
5.39695e-06
0.00896369
-5.29514e-08
-1.02713e-06
-2.30308e-08
-2.86511e-06
-7.74975e-06
0.0291765
-2.50006e-08
0.00965984
8.8908e-09
-0.00141321
-9.08849e-08
-6.83215e-06
1.21729e-06
-6.57686e-05
0.0115812
-0.00046748
6.62149e-09
-0.0955222
1.03656e-07
-0.0052235
-4.1306e-10
1.15162e-05
1.87546e-07
7.87019e-08
-5.56951e-07
4.2616e-06
1.58659e-07
-2.12545e-08
4.89143e-08
-1.44394e-07
-3.95876e-08
1.54726e-07
-3.49857e-06
8.83118e-09
-1.7657e-08
0.000828589
-7.65772e-10
0.00150155
1.40928e-07
1.71388e-06
7.86692e-08
-1.49508e-05
1.71533e-08
-6.34822e-05
4.5776e-07
-0.0310424
-0.00010399
6.55873e-08
-4.08427e-08
5.20298e-09
-1.50441e-07
4.22703e-08
6.46309e-08
3.7595e-08
0.0156575
3.80783e-08
0.0208158
0.00381229
-1.10602e-05
1.98813e-08
7.87754e-09
-0.000333447
-0.00395303
-0.0079796
-1.73027e-05
2.92179e-05
0.0233419
0.00522695
2.3931e-06
0.0232534
3.62384e-08
-3.88786e-08
1.22682e-08
-3.69455e-05
-1.63083e-07
1.09158e-08
-5.1506e-06
-5.48813e-07
-0.0082476
-1.09885e-07
-0.00175574
3.52466e-06
-0.0243692
-1.275e-05
5.79198e-06
0.00176567
-3.96191e-06
2.59495e-08
-1.30095e-08
6.83882e-06
0.0175213
0.000857967
1.74648e-08
6.8281e-08
0.0044871
2.24925e-06
-0.000948678
3.10063e-08
5.98603e-05
9.39391e-07
0.0113911
-3.76541e-08
-6.24665e-08
-9.03068e-08
3.91899e-08
3.13557e-07
6.20475e-08
-1.54377e-09
-0.00596821
0.0156178
-5.79735e-08
0.0117797
7.72477e-07
0.00164637
5.54071e-05
-0.0133913
-9.03316e-08
1.82655e-05
-0.0920002
-5.78866e-08
-0.0375129
2.50425e-08
-1.93605e-07
-8.31418e-07
1.5002e-08
-3.05042e-05
5.24152e-08
-2.89832e-08
-3.10488e-05
2.61945e-08
1.8317e-06
5.33886e-08
0.00265744
2.56712e-08
2.12923e-07
4.38109e-06
2.23825e-08
-1.52098e-07
-1.12182e-06
3.07694e-07
-2.00091e-07
0.00106653
-8.69301e-07
5.55363e-09
-1.34727e-08
6.32252e-08
-2.54137e-07
1.61951e-05
3.8808e-06
0.0157714
-1.44305e-07
-1.01724e-08
-0.0027082
2.56491e-08
0.00963559
-3.46434e-06
2.89963e-09
1.50419e-07
-5.69734e-05
1.07757e-06
3.27532e-07
-1.25665e-08
1.08831e-07
-1.16789e-07
4.09382e-07
-0.00100636
1.11855e-06
-1.31231e-08
1.59296e-07
0.0294521
-3.31762e-06
0.000151701
3.72875e-08
-0.000187876
4.74968e-06
-0.02192
2.62067e-08
-9.50039e-08
0.000920554
8.25639e-08
0.020333
4.49687e-07
0.0203897
-4.57704e-08
3.48751e-08
4.98771e-08
7.47041e-07
-1.63501e-09
9.01324e-08
-0.00673126
-0.00279031
-3.63553e-08
-0.000926318
0.00734695
-0.0823156
-0.00932446
-9.49227e-06
0.000409435
5.66926e-08
-0.0110593
-1.71764e-07
1.88316e-06
-1.4271e-06
-0.0364766
-6.17351e-08
-2.20837e-07
-2.38758e-08
1.01109e-07
-0.000606956
6.42011e-07
0.0329887
-1.33327e-08
2.39907e-06
0.0023751
4.7842e-07
-6.34043e-08
-8.48558e-07
-0.00510047
0.0062119
-0.00131209
-1.12668e-06
1.77708e-08
0.00075588
1.47889e-07
5.29195e-05
0.00043354
-3.20602e-05
1.078e-06
-2.17255e-05
0.000769448
-0.00394323
-1.00338e-08
1.0603e-06
0.0160137
0.0511261
-0.0574599
-0.00468048
-0.00890633
-1.77071e-05
-0.00416405
-0.0183996
3.86494e-07
1.03956e-07
1.04302e-07
-0.00441489
-0.0034691
0.0340495
-4.62906e-08
2.59274e-05
5.29011e-08
2.06465e-07
1.10013e-07
-5.50174e-07
-4.89324e-08
-2.10763e-06
-6.87378e-08
0.0128746
2.00955e-08
1.32119e-08
1.74293e-07
0.01733
0.00177792
1.68916e-06
0.0459889
9.98713e-08
-0.00441108
1.10113e-08
1.79057e-05
4.48993e-07
8.21663e-08
9.49783e-09
-6.90947e-07
0.0105217
6.53213e-08
1.3195e-06
0.0380387
0.025794
-0.000121948
-6.88741e-08
1.85754e-08
0.0549921
4.95987e-08
-3.54006e-08
-0.005067
1.1405e-07
-0.0487329
6.4461e-08
4.41141e-08
0.000106017
-0.0812868
1.3726e-07
8.67014e-08
0.000302958
-0.0112627
5.63178e-08
6.51876e-08
-7.94374e-07
7.16695e-08
0.0117397
2.94436e-09
0.0131258
8.66619e-08
0.000381888
0.00062666
-7.75641e-07
1.20191e-06
5.04814e-08
-1.37814e-08
-4.5292e-06
0.0173545
0.0244797
-1.86099e-05
-1.87554e-06
2.34281e-08
7.8663e-07
2.14508e-08
6.16064e-08
-1.07509e-06
3.02583e-08
0.00204882
2.12955e-08
3.8363e-08
-0.00400086
6.85969e-08
5.2539e-08
-0.00768377
9.14081e-09
-7.20444e-06
-5.2525e-07
-7.47148e-08
-8.4215e-05
2.07094e-06
4.52399e-07
-4.65492e-05
-1.36768e-08
-2.80776e-06
0.000958957
-0.00651872
-8.65364e-08
-0.00217563
-7.90049e-06
1.57224e-08
-3.33744e-05
0.000198348
-4.70594e-05
9.61032e-07
5.46041e-07
-2.02672e-07
-3.37092e-06
-1.66544e-08
-5.92147e-08
-4.39381e-08
4.56193e-07
-7.42e-07
0.0047618
5.13343e-06
3.08665e-09
-4.23667e-06
-1.3748e-06
2.42283e-08
0.0211485
2.06196e-07
2.58514e-05
3.23352e-08
5.91631e-08
-3.4252e-05
7.95604e-07
2.38948e-06
-6.29043e-09
-2.56304e-08
1.96491e-08
0.00321344
-2.53879e-09
1.88872e-06
-1.88576e-07
1.08746e-06
-4.62445e-06
3.47235e-07
-5.37679e-08
-1.22424e-06
-9.49247e-09
0.0353256
-3.03735e-06
1.45786e-07
0.000291069
2.60742e-07
-1.64266e-06
8.22124e-06
-7.31078e-09
-9.14424e-08
0.000451292
-2.04511e-08
-1.81821e-08
-2.42577e-06
-1.56419e-07
0.000169325
7.50491e-09
-9.40758e-06
1.21283e-07
4.16811e-07
8.20857e-08
0.0173866
-0.00919588
-1.90529e-09
0.00960093
1.38825e-06
-1.96588e-05
0.0384169
0.000371979
0.0188446
0.00253222
-0.00666474
5.94057e-08
-0.00140587
-0.00278712
0.0331052
2.00541e-06
-0.00866921
0.000758708
-5.91379e-08
1.36211e-06
-0.000254072
-6.17524e-08
0.0270497
2.0618e-06
-0.000602124
0.000383743
-0.00856015
-6.43992e-08
8.27992e-05
1.18719e-07
8.52623e-08
-0.00373409
-1.35314e-06
-5.42471e-07
2.8229e-06
-3.2453e-07
0.000590621
-0.000436088
1.01266e-07
-6.35126e-08
2.92426e-09
0.000222336
5.74771e-05
3.41757e-05
-3.25613e-08
-4.24291e-05
2.20009e-07
-2.38579e-08
-1.19402e-07
-5.15476e-07
8.00653e-08
-1.6316e-08
0.00508165
0.028885
-9.11197e-09
-2.72745e-09
-0.000367246
-0.00176321
6.42584e-08
4.32003e-08
-2.85361e-06
-0.000433829
6.0607e-07
0.0150478
-6.01566e-08
-0.00339522
-6.21697e-08
-4.5962e-08
6.45061e-08
-1.30269e-06
2.35041e-06
-1.90392e-07
-3.80789e-08
1.02501e-07
-0.000121977
2.0211e-05
1.60697e-08
1.25646e-07
-6.04649e-07
-7.11724e-06
0.000344659
2.88923e-08
2.49158e-07
0.00365866
3.68419e-06
0.0310927
0.00654355
1.60851e-07
0.00481727
0.0145461
0.0054017
-3.31996e-05
-0.000457957
-1.75338e-07
-1.99657e-07
8.98715e-08
9.4886e-08
0.000794828
-7.07444e-07
-1.43289e-07
1.29652e-08
1.04701e-08
-2.18814e-05
3.35347e-08
0.00992123
5.28761e-08
3.02997e-06
2.40197e-08
-6.66151e-08
-7.35129e-08
-4.41777e-06
-1.77791e-07
-8.92702e-08
-7.51547e-07
2.46999e-08
0.000938516
-1.35662e-06
1.43616e-07
1.0579e-06
6.26449e-08
-2.26346e-08
-0.00246326
0.0263428
3.63483e-06
-1.57933e-07
-1.77911e-08
-1.4099e-06
-0.0130477
7.79267e-05
3.01984e-06
5.40616e-06
-0.000888928
-2.80957e-06
-2.14739e-07
1.42886e-07
-0.000390355
6.35288e-08
-0.0390624
5.09586e-08
-5.85572e-08
7.77956e-07
-1.61795e-07
6.57963e-08
2.14049e-08
0.00137541
0.000200627
0.0149869
-8.11698e-08
-0.00384978
-1.00535e-06
8.19095e-08
2.90081e-08
0.000256355
-5.23461e-08
0.0246557
3.35174e-06
0.00023868
8.25978e-06
6.56296e-06
5.88683e-06
-1.4793e-07
-0.00855633
-1.55271e-06
-0.00570839
-0.00248376
8.43666e-08
-0.00190849
-3.01444e-05
0.000144105
-0.0088161
-1.22687e-07
0.00848036
-7.95713e-08
0.0246648
5.12421e-06
-0.0389879
0.0012637
6.04765e-08
-2.78654e-08
-5.1891e-05
1.89492e-06
0.0205518
-0.00231188
1.96563e-08
-6.85285e-08
-1.85483e-06
-3.31831e-07
2.1246e-08
0.00560026
5.82626e-08
-0.00914533
7.08689e-08
8.69262e-06
-8.84252e-07
3.06266e-05
-2.02724e-08
-0.00287978
-2.40604e-08
5.66298e-06
-9.58764e-09
-7.17264e-06
5.78504e-08
-5.28077e-06
9.59157e-09
3.92807e-08
-0.00761863
-5.66596e-08
4.19171e-08
0.00373542
5.02336e-08
1.93043e-06
0.0104299
0.00296228
8.83019e-09
-3.79978e-09
-1.28449e-05
0.000609226
1.61578e-07
-1.46806e-07
2.09308e-05
-0.00249851
4.19922e-08
0.00136081
3.4677e-07
0.0166175
-9.84985e-06
-5.02246e-08
2.4486e-06
6.98813e-08
0.00494791
-2.18677e-06
0.000468927
-2.53089e-09
-6.88621e-05
-0.0108406
0.0304561
-2.57127e-08
2.52582e-07
-7.80086e-09
2.02799e-08
5.19102e-08
-2.15097e-08
-8.16124e-08
-9.7277e-07
-7.59629e-08
-3.48667e-08
1.90499e-08
-2.35601e-08
-2.14409e-07
2.1857e-06
-1.19949e-07
-0.00938038
-7.28809e-08
5.09371e-08
5.27641e-05
-9.01978e-07
0.00291165
0.000684997
-1.46372e-06
-0.0516571
1.50152e-07
2.89741e-06
1.98724e-07
0.00365976
3.8981e-08
2.48457e-05
-1.58186e-05
0.0313138
1.18414e-07
1.50789e-07
-0.00264885
2.52808e-06
-6.11674e-06
-4.278e-08
-6.2797e-08
0.00545592
1.93574e-05
8.67708e-07
2.96039e-08
-1.38435e-08
0.00453941
4.46621e-08
1.33759e-06
-0.00329907
-4.73013e-05
0.0309933
-1.25983e-07
6.78746e-08
-1.45703e-07
2.61117e-08
-1.12921e-05
-0.0245353
-0.00229255
-1.57301e-08
7.20116e-08
-0.00234002
-3.43819e-07
2.51267e-07
-9.19381e-08
-1.64593e-06
-5.7859e-08
-4.56973e-09
1.01888e-08
1.59005e-07
7.33412e-07
2.5658e-08
-0.00131163
-0.00118797
1.46306e-05
7.14254e-06
1.89285e-07
-0.067486
1.82306e-06
-2.92249e-07
3.75628e-07
1.40322e-06
0.000208518
1.43419e-07
1.41403e-07
4.85956e-08
2.68217e-06
6.31198e-06
0.0443369
0.00625986
-0.0104189
-3.96494e-08
4.56713e-06
-0.0106593
0.0243565
0.0114137
0.000732562
3.99458e-08
-5.90832e-05
2.17332e-06
-2.36096e-05
4.45961e-08
0.00233816
-1.36102e-08
-9.82826e-07
5.95601e-08
0.00388705
-9.07862e-08
-0.0668774
-0.00044742
5.99091e-08
-1.75916e-08
1.14782e-06
-7.03188e-08
9.46361e-08
7.30709e-07
-0.00554387
-1.47751e-08
-6.39749e-07
3.59355e-07
-0.0689199
-1.31855e-06
-9.82609e-07
-2.79844e-07
6.06265e-08
2.23064e-07
0.0182206
1.11993e-05
7.39315e-08
2.33798e-05
-0.00838215
-2.33774e-08
-0.00504587
4.50235e-08
3.40874e-07
0.00391028
2.21437e-07
-1.17806e-07
1.45534e-08
3.27458e-07
-7.52402e-07
-1.04092e-06
-1.36036e-06
0.0152056
-9.7194e-07
1.02846e-08
6.68599e-06
0.00303689
5.2215e-08
2.19179e-05
-3.00556e-08
0.00178575
2.07179e-08
-4.53777e-07
-0.000295501
-1.38577e-08
4.09558e-07
4.0618e-08
-0.070032
-0.0262482
-5.63365e-08
0.000686818
2.6268e-08
-4.57413e-08
0.024028
4.39675e-08
8.70823e-06
-4.55173e-07
5.65653e-06
5.76426e-06
4.7893e-07
1.73685e-08
-5.18442e-07
-4.12393e-08
-1.28569e-05
-0.000551708
-5.27398e-07
-1.13607e-06
-2.09529e-07
0.00595018
4.05312e-08
-0.00224272
0.0358171
9.82088e-08
-8.15215e-08
5.44175e-05
-1.87073e-06
-1.52815e-05
-1.22583e-07
-3.56843e-08
-8.68438e-06
-1.40227e-07
6.09268e-08
1.19729e-06
0.0289843
8.25445e-07
0.0488162
-4.12998e-09
0.00567907
1.91294e-08
-1.7285e-07
-3.21815e-05
0.00182915
0.0063927
1.30677e-07
-2.20335e-08
2.0684e-05
2.66266e-08
-1.60052e-08
-3.42231e-05
-0.00192699
1.43109e-06
5.228e-07
-0.0185426
-0.0103219
-0.0248591
-8.30024e-07
6.11123e-08
2.94346e-08
-4.10702e-07
-0.00359874
5.95464e-06
1.03395e-07
0.0133701
-0.00191685
0.00957358
-1.63967e-06
1.56558e-07
-1.18715e-05
0.0525782
0.0145966
-0.00024545
1.63893e-08
3.92346e-06
5.57324e-07
0.00468688
-0.00233306
0.00211691
-1.12438e-05
0.0226191
7.67702e-08
-4.73695e-08
3.76846e-08
-0.0808259
-1.38564e-08
-7.36568e-07
0.00323772
-1.12729e-06
1.49064e-06
6.71924e-08
-1.90464e-07
-5.49116e-06
0.00371637
-4.37886e-07
5.05157e-08
-4.94796e-08
2.73416e-07
7.94824e-07
2.41386e-08
-1.6062e-06
-0.000366113
9.09417e-09
0.00482463
-0.00729281
-0.00265588
1.84157e-08
-1.85762e-06
0.0204897
0.00713758
-1.4124e-08
-0.0103281
0.0225711
-1.23443e-07
0.0541863
-7.94052e-08
9.60289e-07
8.96572e-07
1.15385e-07
0.005393
0.000184595
1.30746e-07
-1.11362e-07
7.5246e-05
0.0132938
-7.95351e-08
-9.55541e-07
0.00108481
0.0281783
2.21144e-09
0.00514055
0.00128902
-4.95623e-08
-6.55515e-08
-5.55655e-07
7.17758e-05
4.25767e-07
-2.57347e-06
0.00075821
6.22843e-08
-2.26956e-06
0.0096553
-2.60827e-05
-0.0120605
-1.69318e-09
1.23984e-06
-0.0824149
0.0179438
-1.22096e-06
8.40401e-07
-0.00202606
-0.0169787
-2.61822e-06
-3.8862e-09
-0.00101592
-6.0819e-06
5.70275e-07
6.2573e-07
-0.00299434
9.37644e-08
2.66383e-08
-8.51704e-05
0.000237809
-9.00609e-06
0.00134143
-6.76425e-05
2.52845e-07
3.03388e-08
0.000323662
3.65152e-08
2.88728e-05
0.00477838
0.000570111
8.24109e-07
5.66886e-08
-0.00253374
7.22914e-09
-7.22675e-09
-0.00695445
-1.41026e-08
-4.86336e-09
0.00449629
1.7455e-07
2.34833e-08
3.86575e-06
6.50411e-06
9.99611e-07
0.00118039
-0.000171005
-0.000917023
1.16973e-05
-0.00685503
-3.46586e-05
0.000917453
-1.48571e-06
1.42143e-06
7.10733e-05
0.0231295
0.0038983
-1.82888e-07
-3.25407e-09
-0.00035837
8.98031e-07
-0.00102162
2.6472e-06
-3.81563e-06
-6.05999e-07
-2.04103e-07
-1.65384e-05
-5.36297e-08
-1.44484e-06
2.2271e-07
5.41723e-08
0.00532534
7.01683e-07
-7.52029e-06
-3.03941e-08
-0.00489051
-0.00289358
4.46916e-07
8.81265e-05
-1.73217e-06
-5.7197e-06
0.0246721
-9.49917e-07
3.63011e-08
2.73371e-07
0.00834414
7.66862e-08
-6.36515e-07
-0.00617368
1.06759e-06
3.43374e-07
0.0157816
1.36046e-08
-3.86455e-08
0.00374963
0.000646564
-1.85378e-07
-0.000978556
0.000477408
3.28723e-08
2.54282e-07
0.0219267
-7.13638e-07
-7.27555e-07
5.72739e-09
1.38884e-08
-6.24129e-05
1.6952e-06
4.55127e-06
-2.24914e-08
1.48955e-06
1.09647e-06
-1.9068e-08
-0.00481427
-1.50838e-06
-2.07473e-05
-5.30575e-06
-6.38783e-08
-1.04091e-07
0.00957901
-0.00324475
8.90348e-09
6.73917e-08
0.0378651
-4.12892e-06
-0.0571301
0.0418764
3.85177e-07
0.000781214
0.0156931
-5.97657e-05
4.60348e-08
7.41388e-07
-4.78687e-05
-7.9934e-08
0.0272453
2.48074e-06
-4.98183e-08
-0.00196514
2.32195e-05
2.79194e-06
-9.14932e-07
-0.00215942
-0.0238722
-5.68612e-08
3.53059e-07
6.75755e-06
-5.60184e-06
-3.90995e-07
-3.60145e-08
0.0027761
-0.0108457
0.0251825
0.00345883
8.69401e-06
6.68815e-07
-2.20092e-05
2.18769e-08
-2.32229e-08
0.00277842
3.11441e-08
8.58701e-07
-1.73648e-06
-1.41965e-07
-0.0584878
-7.39814e-08
-0.0554815
-0.0382691
1.52626e-06
7.58514e-05
0.000422538
-1.29715e-07
-3.80758e-07
0.00246171
-2.85398e-09
-1.23211e-06
0.00494395
-1.27948e-05
0.000136532
-1.02402e-07
-0.0018303
0.00283101
0.00265083
0.000961843
1.52105e-08
0.0026798
-0.00134173
3.87526e-05
0.00539312
5.03465e-08
0.0756797
0.00121964
-0.0011689
0.00278515
-6.94268e-08
-0.00671881
-0.0101948
-0.0480965
-0.000211188
-0.00300331
-0.00407983
0.00516723
-3.47105e-07
9.36587e-07
-0.0515351
-5.10504e-08
2.43215e-08
8.88105e-09
0.0194809
-3.72202e-06
2.43338e-06
0.0269557
5.11138e-08
0.000950983
-0.000790423
-6.56857e-07
-4.35209e-08
1.57295e-08
0.00278439
0.0188425
3.97721e-08
-2.31826e-07
2.52606e-05
-0.00031295
-1.5078e-07
-1.78329e-08
4.88877e-08
-1.39792e-07
-6.53317e-08
0.0216524
2.39816e-06
0.00103403
0.00237111
8.12602e-07
0.0192253
-3.31633e-08
2.2154e-08
-5.4442e-08
1.00293e-08
1.00325e-05
2.54822e-07
-6.73737e-07
0.00555897
1.68451e-07
2.18426e-06
-2.05936e-08
4.90337e-08
8.64795e-07
5.278e-08
1.50801e-08
1.00862e-07
2.03949e-07
2.35664e-06
2.32041e-07
5.7732e-08
6.62184e-06
-0.0445729
-5.68592e-06
-1.10591e-07
5.88942e-08
-5.85889e-08
0.0537595
-2.45798e-07
0.00388116
2.09157e-08
-3.5812e-05
8.83685e-08
-1.48395e-06
-1.00096e-08
1.67026e-06
-0.00522909
0.0129892
0.0182272
-2.72653e-06
0.00624438
1.40468e-06
-0.00574334
4.23905e-08
-1.23652e-05
0.0065307
5.04671e-08
0.00471679
0.00330037
0.0246305
-5.41175e-06
7.68177e-08
2.32254e-06
2.22693e-05
-1.89715e-08
-0.0660232
-0.000212961
-6.29822e-08
0.00259407
-1.61454e-07
-6.56027e-06
-1.83971e-05
-7.92707e-08
-2.29495e-07
0.0214556
-0.0215689
-9.61958e-05
-8.36339e-07
2.99738e-08
0.00471307
-5.96036e-08
-0.000244233
-8.30328e-06
-3.75511e-08
-8.85797e-07
6.12444e-09
0.0068877
0.00208437
6.45843e-07
3.04035e-05
2.56684e-07
-0.000830419
-0.000337161
9.40819e-06
0.00765156
-7.93454e-08
0.0306989
1.26553e-06
6.57463e-07
6.88752e-07
7.63946e-05
0.000559092
4.30111e-08
4.26286e-06
4.29337e-07
0.00709923
-5.11942e-05
-0.0385294
0.000525923
-1.1633e-07
-4.01457e-08
0.0283055
0.00614588
-1.30302e-08
7.74787e-05
0.0119471
-1.41927e-05
0.00301999
-0.0010782
-9.58913e-07
8.93645e-06
3.66655e-05
-0.0808681
-0.0538335
-5.4275e-05
-5.33891e-07
-1.8438e-09
0.0104312
-1.23801e-08
-7.08351e-09
3.77476e-05
0.0159412
-1.10894e-07
-1.45901e-07
0.000349235
0.00152322
5.11414e-08
-1.10454e-07
6.92027e-09
-0.0298994
-1.05895e-06
4.15322e-06
1.06903e-07
0.00191879
0.0121419
-7.73659e-07
-0.0355199
-2.0024e-06
-1.91057e-07
-9.59499e-07
-0.00617454
-1.10893e-05
5.51862e-07
0.00163483
-0.000171832
2.93216e-08
2.03821e-07
-6.53441e-08
0.000218429
2.46035e-05
0.00758016
-7.71998e-08
7.70652e-07
3.47748e-06
-0.00343131
-2.90045e-05
-0.0228804
4.14166e-05
-1.20624e-05
0.00170582
-2.03052e-07
0.0169504
1.83581e-06
1.67277e-06
0.0174441
-2.2206e-06
-2.10896e-05
-4.09057e-08
1.91841e-08
-9.53446e-08
0.00109909
0.0239476
-2.02851e-05
-0.00132029
-1.31382e-08
-0.000865317
-1.71832e-07
0.00163672
-6.98026e-07
3.854e-09
4.92705e-08
-7.51624e-07
0.00532028
2.01046e-06
-1.70676e-06
-0.00705018
-0.0612457
-0.000654924
-2.81558e-08
1.31317e-08
-2.63302e-09
4.17711e-06
9.6194e-06
2.43598e-07
-1.77656e-07
0.0016021
0.0295362
0.0219801
-0.00194329
7.65022e-06
-0.000134279
0.000761783
-1.61276e-08
2.09274e-08
0.00112728
-5.12552e-06
-0.00121506
-6.05105e-08
0.0125
-7.97344e-07
5.93709e-08
-3.77652e-06
-0.0156066
-1.58782e-07
0.0323963
1.65319e-06
-3.0598e-09
0.0225768
1.11394e-06
-1.41515e-06
3.66379e-08
-2.74802e-08
9.80344e-06
0.000260568
0.0415277
-2.12786e-06
6.16388e-07
0.00835725
-0.0126701
-0.0068379
-1.2643e-06
0.00148843
2.16186e-07
-2.05083e-06
-0.00100382
0.000242386
4.99442e-07
-0.00844492
-7.66798e-05
4.50622e-08
-0.00540924
1.6756e-06
-5.19163e-08
-1.81631e-05
-3.50479e-06
-0.000363627
4.14865e-07
7.93289e-08
0.000603497
4.09087e-08
2.00734e-08
3.57775e-08
-2.17727e-06
-0.0695555
5.80109e-06
2.49323e-05
1.47087e-07
-0.0059539
1.81167e-07
-2.15414e-05
0.00410871
-9.71491e-09
0.00280207
0.0148687
-0.00508672
0.00846104
1.06401e-07
6.44316e-08
-1.7259e-05
-0.000137741
2.53497e-08
2.38285e-07
0.000611355
-0.000205433
0.0221112
-1.44206e-08
-2.16957e-06
0.00147383
1.28582e-08
-0.00200457
3.2259e-10
2.45481e-07
1.90998e-07
-1.02329e-07
0.00134586
-7.687e-08
4.14164e-08
1.02995e-08
4.6877e-06
7.51791e-08
-1.51672e-05
2.71918e-08
3.00767e-08
-0.00316148
-1.89518e-05
4.63795e-06
-8.57142e-09
9.02649e-07
-1.02567e-05
2.54421e-06
0.0353061
-4.78773e-08
0.00288696
1.40505e-07
-0.0099064
1.11017e-07
1.16598e-07
7.01272e-08
-8.13267e-07
-1.49685e-05
1.70457e-07
6.76645e-07
-8.25533e-08
-0.000221276
3.06873e-08
-7.32369e-08
2.71857e-08
1.30134e-06
-0.0992659
-0.0197314
0.042991
0.0449512
1.4644e-07
-1.99686e-06
7.73049e-08
-0.0245424
-0.0011695
1.66816e-07
0.00131174
-0.00114494
0.016556
-0.000975588
5.56927e-08
0.000294268
3.19245e-08
5.67502e-07
-0.000601959
1.16221e-08
1.99319e-08
0.00736161
0.0398661
-7.7947e-07
-1.11094e-06
-2.1326e-06
1.91913e-06
0.00183291
0.00020223
3.2861e-08
0.0183912
0.00762898
-0.000560382
0.0192236
-0.0479914
-2.82288e-06
0.00178839
-0.00766985
-0.0125805
-2.11391e-08
0.00201415
1.63119e-08
-6.72651e-08
-0.00390593
-1.81748e-05
0.00167873
-1.11172e-07
0.000905087
0.0051631
2.50394e-08
-2.02454e-09
-2.73112e-07
1.42322e-05
-1.44124e-07
-1.34788e-05
0.0080239
0.00332887
-0.00108517
0.0345956
1.20505e-06
1.41151e-07
0.0164559
0.00409089
5.15784e-08
9.00233e-08
2.49569e-06
-5.86515e-05
-6.1654e-07
-6.27928e-08
0.00255233
0.0131202
-0.0122276
-3.581e-08
-0.00122966
-1.56656e-08
-6.52524e-08
9.46391e-07
0.00390246
1.45931e-05
1.137e-05
-2.72021e-08
-0.00106089
-5.67715e-08
3.60108e-08
0.00088295
-0.00393271
-2.3528e-07
-1.06057e-06
8.89486e-07
1.72594e-06
-3.60315e-07
1.87218e-06
3.32001e-08
0.00346881
-3.55444e-08
-1.39532e-07
9.73357e-07
5.97834e-05
-2.71714e-07
-0.000288708
0.0044487
-5.76559e-07
0.000684829
-0.0001062
-0.00763747
0.0196477
-4.44918e-07
0.000374048
3.82041e-08
3.99412e-07
0.039982
0.0231693
2.95541e-08
0.00806263
-0.00342769
0.0115793
-0.0213365
0.0083223
0.0146056
-3.90354e-07
-0.000296296
9.56668e-07
-0.00723487
-5.12414e-08
1.05915e-06
1.08288e-05
0.0013858
-3.09501e-08
7.7428e-07
-5.76827e-06
2.96792e-08
0.017808
-5.87475e-07
-0.000282584
-2.48459e-07
5.86672e-08
0.0107397
4.10075e-08
-0.0527947
2.70366e-07
5.06072e-05
-0.000208297
-3.23269e-07
0.0431346
4.39461e-08
0.000775289
0.0169416
0.0304914
7.44578e-08
7.54658e-06
-1.28196e-06
1.46055e-06
-4.54818e-08
-1.98266e-08
0.00124891
-3.00719e-05
0.00035414
-1.70934e-05
-2.91591e-06
-6.89153e-08
0.00165369
-0.00558239
-0.00755702
-0.0121394
3.93214e-06
0.000591279
0.000725656
1.18661e-06
0.0345343
-1.2169e-06
0.00186121
1.24341e-06
2.75219e-07
0.0164293
2.09678e-08
2.60371e-06
1.58646e-06
0.0333227
-2.33326e-08
8.33422e-08
-1.86314e-08
-1.17696e-06
2.60017e-08
0.00774392
0.023418
-6.0312e-06
-0.00408583
-4.73621e-05
0.00118666
6.6324e-07
-3.88516e-05
0.00685167
-0.00995152
-4.04982e-08
-1.80456e-08
0.0417407
-1.69888e-08
0.00142849
5.72269e-09
-4.91893e-08
-4.04375e-09
0.000415639
0.00300298
7.21683e-07
0.00170204
0.00385011
8.33346e-08
-1.13505e-06
1.05762e-07
1.67931e-08
0.0436962
0.0147108
-0.0407312
-0.0135357
7.7941e-06
1.94903e-06
1.30626e-07
-0.0666912
-0.00015601
-7.18004e-08
5.60038e-08
-0.00539885
7.90722e-07
9.23434e-07
2.83463e-06
0.00265047
0.0426617
-0.000121258
1.27537e-07
7.96549e-06
-0.00783367
-3.79995e-07
-4.87803e-08
0.000553757
-9.74457e-08
-0.000819589
-1.57459e-06
1.38522e-07
3.07176e-08
0.000264833
0.000256774
-9.82744e-07
4.94133e-05
-0.00104863
0.0214162
5.09581e-07
-0.0333519
6.54269e-08
2.42814e-08
3.76681e-05
3.26925e-07
-3.47747e-09
-2.73391e-05
4.69713e-08
-2.25927e-06
4.50706e-06
1.1845e-05
-2.47808e-06
-1.28898e-07
1.40901e-08
-0.00525029
-3.07801e-06
-7.54701e-08
4.38087e-08
-0.0366874
-7.09299e-06
3.4644e-08
-1.5757e-06
6.6885e-08
-0.00408067
1.6388e-06
0.0239329
8.31306e-06
7.41489e-06
0.0172344