/*--------------------------------*- C++ -*----------------------------------*\
| =========                 |                                                 |
| \\      /  F ield         | OpenFOAM: The Open Source CFD Toolbox           |
|  \\    /   O peration     | Version:  v2012                                 |
|   \\  /    A nd           | Website:  www.openfoam.com                      |
|    \\/     M anipulation  |                                                 |
\*---------------------------------------------------------------------------*/
FoamFile
{
    version     2.0;
    format      ascii;
    class       surfaceScalarField;
    location    "250";
    object      phi;
}
// * * * * * * * * * * * * * * * * * * * * * * * * * * * * * * * * * * * * * //

dimensions      [0 3 -1 0 0 0 0];
oriented        oriented;


internalField   nonuniform List<scalar> 
27663
(
0.468854
-0.162528
-0.306326
0.16383
-0.105712
-0.0581183
-0.478687
0.523307
-0.0446193
-0.175833
-0.146294
0.322127
0.379683
-0.418657
0.038974
-0.276229
-0.164547
0.440776
0.220874
0.0606008
0.0798613
0.0839691
0.257908
0.176411
-0.434319
-0.356101
0.491928
-0.135827
-0.16678
-0.0652477
0.232028
-0.000349026
-0.478338
0.0862445
-0.262077
0.316564
-0.525212
0.208648
0.425219
-0.0455359
0.556641
-0.392165
-0.164476
0.551738
-0.364629
-0.187108
0.00209889
0.0156048
-0.0177037
0.505586
-0.245757
-0.259828
0.441514
-0.389216
-0.0522982
0.158616
-0.434845
0.121312
0.348579
-0.469891
0.398328
0.158313
0.156109
0.044764
-0.200873
-0.473462
0.477217
-0.00375516
-0.256974
-0.020751
0.277725
0.137449
0.331406
0.30828
-0.550959
0.242679
0.400252
-0.582272
0.18202
0.58823
-0.163824
-0.424406
-0.469244
0.494528
-0.0252841
-0.178588
-0.15979
0.338378
0.452128
-0.214665
-0.237462
0.29854
-0.0926381
-0.205902
0.441944
-0.273132
0.471897
-0.254766
-0.217131
0.25576
0.132101
-0.387862
-0.359009
0.123427
0.235582
0.437556
-0.285896
-0.15166
0.394888
0.193341
0.332395
-0.311814
-0.0205811
0.450232
-0.312784
0.616878
-0.326421
-0.290457
-0.160429
0.00353221
0.156897
0.459906
-0.201998
-0.221108
0.315831
-0.0947221
-0.0883922
0.323073
-0.485978
0.162905
0.161836
-0.449933
0.288097
-0.0860213
0.0659081
0.0201132
0.510983
-0.202703
0.23994
-0.440519
0.200579
0.306647
-0.365366
0.0587188
0.286052
0.0463425
-0.444467
0.463047
-0.0185805
-0.169333
-0.0554266
0.224759
0.511091
-0.194527
0.145022
0.296493
0.173861
0.124679
-0.251797
0.455115
-0.203319
-0.561413
0.362904
0.19851
-0.545292
0.289744
0.255549
-0.0937887
-0.295427
0.0810305
0.273155
-0.354186
0.223364
-0.187658
-0.0357062
-0.0634933
0.145874
-0.0823808
-0.370505
0.540962
-0.170458
-0.289641
0.23477
0.0548702
-0.288853
-0.205239
0.494092
0.273025
-0.386718
0.113693
0.0985829
-0.265363
-0.621014
0.349489
0.271524
-0.245188
0.194099
0.0510887
-0.0138711
-0.00010476
0.0139759
-0.541701
0.270949
0.270751
-0.272178
0.213063
0.0591154
-0.310583
0.22964
0.0809433
-0.0874448
0.00142349
-0.494805
0.205952
0.0584775
-0.129956
0.0714786
0.0403933
-0.0169433
0.000540163
-0.0108905
0.0103503
-0.00655278
-0.00731832
-0.49904
0.058652
0.440388
0.256427
0.195701
0.320189
0.29669
-0.155714
0.224651
-0.0689371
0.00367201
-0.359773
0.340406
-0.271044
-0.0693619
0.0131243
-0.0110254
-0.187718
-0.0574696
-0.443353
0.337274
0.106079
-0.199001
0.0385716
-0.284745
-0.0258381
0.441295
-0.000737449
-0.440558
-0.202954
-0.0692242
0.119635
-0.379935
0.2603
0.388204
-0.158223
-0.22998
-0.189427
-0.335785
-0.444453
0.444104
0.432646
0.00864901
-0.280836
0.361867
0.282352
-0.300385
0.0180333
-0.275929
0.0973411
0.430754
-0.430754
-0.14125
0.151019
-0.00976859
-0.380845
-0.0636218
0.0585984
0.365616
-0.424214
0.151175
0.0721897
0.188815
-0.479068
0.290253
0.264978
-0.0760719
-0.188906
0.132985
0.279815
-0.412799
0.357507
-0.321017
-0.0364899
0.522427
-0.314291
-0.208136
0.0913145
0.275818
-0.367133
-0.484071
0.0396172
-0.464503
0.0939987
-0.150196
0.0167396
0.133456
0.170183
-0.452725
0.282542
-0.17292
-0.0088574
0.181777
0.144282
0.243922
0.287071
0.0704363
0.0455694
-0.214902
0.00592178
-0.00538162
0.247001
-0.409529
0.384137
-0.141422
-0.242715
-0.275267
0.258573
0.0166937
-0.0127659
-0.00704106
0.019807
0.12614
-0.273834
0.147694
0.0750117
0.127555
0.124357
-0.192286
0.0679291
-0.29049
0.423475
0.0162069
-0.0108215
-0.00538542
0.200331
0.184876
-0.385206
0.338469
-0.247155
-0.206579
0.477459
-0.27088
0.285594
-0.530272
0.244677
0.129825
-0.411389
0.281564
-0.0210026
0.0976361
-0.0766336
0.601411
-0.257355
-0.344056
-0.468022
0.055873
0.41215
-0.527681
0.233772
0.293909
-0.341745
-0.203547
0.382882
-0.263247
0.510713
-0.24667
-0.264043
0.0640366
-0.32101
-0.13136
0.387121
0.244567
0.266416
-0.016131
-0.125119
-0.16986
-0.0389296
0.20879
0.172399
0.338692
-0.135642
-0.0145541
-0.117803
0.0968005
-0.333567
-0.452535
0.504509
-0.0519739
0.34765
0.0843568
-0.432007
-0.156632
0.157364
-0.000732016
0.107018
0.0378859
-0.144904
0.132878
-0.223949
0.0910703
0.173788
-0.472475
0.298687
-0.46498
0.0627275
0.402253
-0.150462
0.374515
-0.224052
0.416408
-0.286583
0.297795
-0.0326722
-0.265123
0.612331
-0.314553
-0.297778
0.350134
-0.205852
-0.42964
-0.0228949
-0.299827
0.525641
-0.225814
0.0120562
0.0283371
0.173962
0.169843
-0.343805
-0.379209
-0.162492
0.124488
-0.437619
0.313131
0.179567
-0.0552106
0.13413
-0.200755
0.0666252
0.188735
-0.126241
-0.0624937
0.213401
-0.294183
0.0807823
-0.495337
0.17672
0.318617
-0.00137636
-0.0113895
0.410535
-0.286047
0.307499
-0.512737
0.0712567
0.151066
-0.222322
-0.0605469
0.194677
0.227496
0.244401
0.504411
-0.278514
-0.225897
0.0107855
0.537874
-0.312549
-0.225325
0.473826
-0.215834
-0.257992
-0.14913
0.220387
-0.340639
-0.154698
-0.438922
0.274375
-0.229978
0.455198
-0.225219
0.128984
-0.199789
0.0708053
-0.0594023
0.166421
0.29964
0.301771
-0.214738
0.135514
0.0792241
-0.161792
-0.293968
0.45576
0.216817
-0.0657515
-0.277034
0.348436
-0.0714017
-0.0188009
-0.480239
-0.108292
0.00922109
0.0990705
0.368007
-0.286981
-0.0810259
-0.0250947
0.190472
0.18576
0.32441
-0.237629
-0.0867808
-0.0331672
0.00896702
0.0242002
0.0144625
-0.0347857
0.0203232
-0.0601729
-0.035307
0.09548
0.160579
-0.158728
-0.00185166
0.202773
-0.313816
0.111043
0.226331
3.34472e-05
-0.226365
0.346124
-0.145793
-0.488313
0.465655
0.0226581
-0.00971534
0.149131
-0.139415
-0.136416
0.00727691
0.129139
0.2267
0.277711
0.527672
-0.300176
0.499386
-0.230382
-0.269005
-0.021111
-0.147055
-0.143069
0.133354
0.112552
0.247237
-0.359789
0.330823
-0.3026
-0.0282226
0.318594
0.21928
0.172266
-0.107699
-0.0645668
0.120623
-0.326458
0.205835
0.323222
-0.0796699
-0.243552
0.361199
-0.248647
0.334873
0.277458
0.0836405
0.136199
-0.22323
0.0870316
-0.0320561
0.258387
0.0799424
0.217852
-0.492442
0.0244191
-0.07624
-0.391929
-0.077315
0.189658
-0.114647
0.215562
0.239553
0.163984
-0.440587
0.276603
0.249158
-0.213352
0.527434
-0.314082
0.222697
-0.155112
-0.0675852
-0.121619
-0.175786
0.297405
0.325229
0.103369
0.237036
0.19612
0.236526
0.413168
-0.173228
-0.0482982
0.204407
0.0216001
-0.0324134
0.0108133
-0.498203
0.0098896
-0.0968042
0.222944
-0.0710127
0.377659
-0.502366
0.246114
0.256253
0.215571
0.108839
0.162205
-0.117512
-0.044693
0.172455
-0.303708
0.131253
0.241153
0.255498
-0.496651
-0.312178
0.352535
-0.0403569
0.222226
-0.0893479
-0.487638
0.225174
0.262464
0.116344
-0.216351
0.100007
0.0843471
0.0879188
-0.139722
0.00677408
0.275578
0.129299
-0.0759757
-0.0533237
-0.318777
-0.18359
0.114675
-0.35184
0.237165
0.145749
0.0769986
-0.277086
0.269561
0.0829738
0.204582
-0.280179
0.0755973
-0.0811201
0.138367
-0.424283
0.285916
0.572723
-0.177835
-0.200968
-0.349991
-0.510683
0.319477
0.191206
0.361337
-0.283584
-0.0777532
-0.468093
0.311068
0.157025
-0.18761
-0.0262816
0.00305316
0.0232284
0.398274
0.174449
0.245045
0.0857786
0.433902
-0.295536
0.0567168
0.105488
-0.00993865
0.0315388
0.257902
0.0653199
0.215874
-0.335623
0.11975
0.528259
-0.0983194
-0.429939
-0.220992
0.285028
-0.315596
0.436907
-0.253717
-0.028609
0.282326
0.237429
-0.444008
-0.308568
0.0226721
-0.023379
0.418497
-0.395118
0.129328
0.398931
-0.0132378
-0.143394
-0.0776707
0.477923
0.306726
0.245012
-0.398355
0.29411
0.104245
0.0843026
0.0249373
0.393497
-0.120473
0.226006
-0.0457631
-0.180243
0.075373
0.0539265
0.235363
-0.0530886
-0.182275
-0.0877498
-0.10632
-0.00197169
-0.176234
0.357194
-0.18096
0.278082
-0.438948
0.160865
-0.111284
-0.0717712
0.0705503
-0.343514
0.272963
0.429626
0.00112736
-0.328783
0.088996
0.239787
-0.163139
0.0804206
-0.250281
-0.372738
0.196504
0.194158
-0.194124
0.450021
-0.291405
0.355001
-0.240326
-0.32455
0.52759
-0.203041
0.487671
-0.487671
-0.0635635
0.067202
-0.216332
0.200345
0.156849
-0.354162
0.261855
0.0923066
0.285771
-0.447563
0.105068
0.243368
0.476666
-0.157188
0.168741
0.0666221
0.114604
-0.396582
0.281978
-0.420495
0.120668
0.266438
0.255988
0.12944
-0.203358
0.0739184
-0.259146
0.329696
-0.276509
-0.180919
0.457428
-0.287019
-0.0671424
-0.0591003
-0.21044
0.269541
-0.265694
0.429678
-0.0209074
0.0685689
-0.0476615
-0.0112307
-0.0175479
0.0287786
0.188704
-0.474466
0.285762
-0.0219538
-0.000362158
0.0223159
0.183397
-0.171265
0.499865
-0.3286
0.476191
-0.168693
-0.481404
0.0506503
0.50814
-0.228225
-0.279915
0.457182
-0.0308085
-0.426374
-0.243265
-0.105054
0.348319
-0.100935
0.121514
-0.316484
0.19497
0.133424
0.0888026
-0.0837384
0.163241
-0.416062
0.252821
0.098549
0.0901858
0.161846
-0.122908
-0.0389382
-0.254173
0.495327
-0.0704477
0.133372
-0.0629238
-0.250495
-0.222171
0.239831
-0.0176602
0.129285
-0.316329
0.187044
-0.0438135
-0.0739896
-0.0394606
-0.108455
0.147916
0.219763
0.288377
-0.117304
0.0734907
-0.365588
0.240259
0.125329
0.449893
-0.33529
0.303165
-0.163237
-0.28464
0.447877
0.291531
0.219182
-0.425606
0.424893
0.000712332
0.138628
0.277781
-0.365534
0.122269
-0.204854
0.326368
-0.187869
0.536448
0.420164
-0.142082
-0.320227
0.136251
0.183976
0.495321
-0.330405
-0.164917
0.356983
-0.0108593
0.260454
0.107554
0.334339
-0.23097
-0.281409
0.0491873
-0.0610944
0.0119071
0.373435
-0.0717441
-0.30169
0.162486
0.3431
0.13629
-0.378771
0.242481
0.27017
0.179723
-0.449894
-0.137566
0.0671185
0.0122671
-0.477247
0.409151
-0.24591
-0.468316
0.0855548
0.382761
0.311262
-0.438431
0.127169
-0.31507
0.0939617
-0.469921
0.00160523
-0.0173145
-0.398355
0.238394
0.159961
-0.0124036
-0.160516
0.0978359
-0.0393584
0.604337
-0.269464
0.442976
-0.197157
-0.245819
0.359439
-0.22315
-0.159002
-0.222021
0.381023
0.0258566
0.331127
0.106995
-0.14318
0.0361846
-0.182865
0.453035
-0.0276417
0.0596064
-0.0319647
0.12611
0.235089
-0.0717881
-0.161464
0.233253
-0.453753
0.4742
-0.0204474
-0.15044
0.278017
-0.127577
0.0620282
0.276441
-0.0607804
0.0679236
-0.00714317
-0.0463943
-0.0995923
0.145987
-0.415249
0.184646
0.230604
-0.46852
0.314761
0.153759
0.102965
-0.142425
0.300564
-0.495956
0.195393
0.325011
-0.0766639
-0.248347
-0.113245
0.405
-0.291755
-0.130437
-0.254428
0.384866
0.423686
-0.285059
-0.10724
0.327778
-0.220537
-0.192567
-0.275526
-0.283982
0.367623
0.258956
-0.265843
0.00688638
-0.264195
0.45301
0.257882
0.185094
0.271485
0.112652
0.52016
-0.331679
-0.18848
0.237877
-0.327176
0.0892993
-0.521186
0.239017
0.282169
-0.0919984
-0.396102
0.488101
0.365489
-0.23938
-0.180387
-0.262966
-0.290844
0.140404
-0.387138
0.273893
-0.124906
-0.0673795
-0.281485
-0.159457
0.143326
-0.519426
0.305011
0.214415
-0.0985555
0.0790327
-0.125427
0.360551
0.029991
-0.390542
0.412989
-0.0524382
-0.00648597
-0.0128289
0.0193148
0.23073
0.0942805
0.178451
0.0475547
0.136671
-0.148737
0.0120667
-0.118733
0.356273
-0.23754
-0.0956355
-0.148521
0.244157
-0.228573
-0.290853
-0.0985463
-0.0420329
0.140579
0.2225
-0.0133175
-0.209183
-0.328731
0.110486
0.218245
0.0481247
0.113721
-0.0858277
0.0649204
-0.402037
-0.0714245
0.175217
-0.315842
0.140625
-0.451918
0.454586
-0.00266871
0.00531643
-0.021413
0.243913
-0.321235
0.0836058
0.12817
-0.0740826
-0.0540872
0.302346
0.13291
-0.435257
0.0386936
-0.119545
0.0808516
-0.224756
0.162241
0.0625156
0.138498
-0.0221577
-0.11634
0.205988
0.110258
-0.316247
-0.101526
-0.218701
0.261193
0.158971
0.494641
-0.220585
-0.274056
0.239971
-0.485728
-0.248342
0.371769
-0.215798
0.0739072
0.141891
-0.357326
0.333947
-0.310327
0.596965
-0.286639
0.294011
0.0639067
0.0642631
0.150505
-0.0138345
0.214307
0.259519
-0.0180232
0.033628
-0.0829561
0.12165
-0.281245
-0.0399898
-0.148147
0.399281
-0.251134
0.530407
-0.343599
-0.186808
-0.143762
0.318979
0.393188
-0.261087
0.0205098
0.200364
-0.304433
-0.31658
-0.185113
0.230683
0.18387
-0.0371638
-0.146707
0.223006
0.271635
0.155987
-0.449955
0.111441
-0.225245
0.113804
-0.359606
0.200604
-0.428823
0.476186
-0.0473631
-0.00521358
0.0196761
-0.147174
-0.26024
0.407414
0.531899
-0.200418
-0.331481
0.383457
-0.138706
-0.244751
0.206114
-0.23817
-0.441014
0.450268
-0.00925378
0.157437
0.192697
0.27706
0.145031
-0.422091
-0.145224
0.42697
-0.281746
0.301613
-0.18099
0.321714
0.198445
0.430693
-0.145099
-0.394654
-0.0590989
-0.220306
0.36342
0.08291
0.182068
0.143394
0.0404762
0.271161
-0.200095
-0.208319
0.408414
0.312824
0.284142
0.545822
-0.384872
-0.16095
-0.254484
0.233071
0.46887
0.375677
-0.145077
-0.230601
0.519313
-0.263818
-0.255495
-0.122896
-0.215733
0.44031
-0.224577
0.0180643
-0.39
0.371936
-0.0853477
0.218771
0.0275929
-0.0877658
-0.278112
0.0571204
0.267859
0.174259
-0.442118
0.148278
0.235179
-0.251991
0.184025
0.0679659
-0.195214
0.385789
-0.190575
0.491618
-0.191054
-0.190914
0.131736
0.059178
-0.394131
0.271525
0.122606
0.488472
-0.501621
0.0131485
-0.387653
0.239506
-0.0458977
-0.0840583
0.0263741
-0.147921
0.121547
-0.485419
0.0598134
0.00667763
-0.0366908
0.0300131
-0.0419946
-0.0187858
-0.0271374
-0.227347
0.108613
-0.311421
0.202808
0.125561
-0.292926
0.167365
0.185371
-0.210466
0.201123
-0.346729
0.117061
0.229668
0.245877
-0.149198
-0.096679
-0.198431
-0.389764
0.0616343
-0.186541
-0.0703498
-0.151031
0.412224
0.205923
-0.325091
0.119167
-0.107621
0.155936
-0.0483154
-0.154682
0.0470606
0.434978
-0.018673
-0.416305
0.55225
-0.417055
-0.135195
-0.138086
-0.049572
-0.225688
0.1539
0.138508
-0.234144
0.106144
-0.207871
-0.136477
-0.216689
0.353166
-0.135257
0.482906
0.181429
0.0902334
-0.271663
-0.170046
-0.203886
0.373932
0.120201
0.0359502
-0.156151
-0.0611636
0.338224
-0.318427
0.201407
0.11702
-0.260776
0.0265507
0.234225
0.278463
0.0071927
0.179658
0.0643568
-0.244014
0.101535
0.200145
-0.301681
-0.0560147
0.222303
-0.110862
-0.0236483
0.0243268
-0.000678455
-0.324593
0.0946146
0.087094
0.311619
-0.398713
-0.204012
0.161689
-0.450364
0.288675
-0.518935
0.18327
0.335665
0.137267
-0.361404
-0.11122
0.472625
-0.112439
-0.232989
0.426036
-0.193048
-0.0771678
-0.278898
-0.0583398
-0.393578
0.183901
-0.067557
0.19949
-0.321309
0.121818
-0.0139739
0.00315241
-0.420276
0.155024
0.265252
0.101799
-0.13924
0.334057
-0.194818
0.0309792
-0.0243015
-0.382214
-0.0466088
0.111558
0.357847
-0.469404
0.0615409
-0.231448
0.169907
-0.286416
0.0706832
-0.370768
0.395218
-0.53308
0.137862
0.147399
-0.115959
-0.0314398
0.182622
-0.277792
0.0951695
0.225258
-0.332499
-0.272839
0.149194
0.123645
-0.467875
0.254522
-0.19598
0.476749
-0.280769
-0.159928
0.414953
-0.255025
0.295232
0.191851
-0.487083
0.0411239
0.447348
0.118103
-0.35195
0.454553
-0.102603
0.467468
-0.165122
-0.0517326
0.00384822
-0.140264
0.216834
0.111117
-0.327951
0.134598
0.0145325
-0.0914097
0.251522
-0.14976
-0.0659391
0.215699
0.229255
0.0793048
-0.30856
0.0231233
-0.200301
0.177177
0.0408282
-0.139374
0.219664
0.0987773
-0.318441
0.0519072
-0.305625
-0.184348
-0.0958308
0.118489
-0.0552469
-0.0632421
0.188904
-0.381445
-0.13749
0.550914
-0.23809
0.137201
0.138932
-0.338723
0.199791
-0.110455
0.327289
0.00268217
-0.0139128
0.122625
0.242864
-0.299814
-0.282458
-0.479201
0.283221
0.514227
-0.19766
-0.316567
-0.360583
0.573128
-0.212546
0.322799
0.191428
-0.0197319
-0.177059
-0.123326
0.36358
-0.221468
-0.142112
-0.523877
0.253188
0.270689
-0.358113
0.218873
0.116511
0.0293628
0.220432
0.125
-0.345432
-0.329836
0.3479
0.0849683
0.0335206
-0.196139
-0.0260324
-0.377319
0.14433
-0.21747
0.531421
-0.356351
-0.17507
-0.407727
0.205418
0.20231
-0.399762
0.280394
0.119367
-0.0999687
0.263678
-0.138117
-0.0278764
0.311193
-0.283317
0.144708
0.0779891
-0.130909
0.310567
-0.117469
0.323392
0.0536553
0.0644479
0.0850709
0.253095
-0.338166
-0.0331852
-0.0279092
-0.0365582
-0.111851
0.148409
-0.374455
-0.0612161
0.435671
-0.223778
0.0740187
-0.0141391
-0.270783
-0.210799
0.481582
-0.145135
0.201382
-0.0562466
0.140336
0.293566
0.102563
0.199049
-0.0429256
0.3802
-0.0165365
-0.126532
0.214859
0.336056
-0.0134596
0.0195526
-0.00609302
0.236268
0.219979
0.155699
-0.295137
-0.164564
0.4597
0.123817
0.065841
-0.211074
-0.27266
0.21356
-0.00385733
0.0209597
-0.0171024
0.0184937
0.240463
0.103638
0.306896
0.0396509
-0.117178
0.0775273
-0.39356
0.474946
-0.0813863
-0.0189006
-0.363487
0.247145
0.116341
0.0825901
0.142061
0.229279
0.125983
-0.108109
0.309517
-0.298683
0.104294
0.194388
-0.499165
0.314573
0.184592
0.364687
-0.242061
-0.481404
0.0881959
-0.449383
0.361187
0.0183416
0.33855
-0.356891
0.273052
-0.430082
0.302585
0.127498
0.342882
-0.0849808
0.422527
-0.318889
-0.297283
-0.22393
-0.183798
-0.179316
-0.348365
0.373728
-0.177608
-0.172232
-0.35804
-0.0386663
0.276543
0.177327
0.250852
-0.271603
0.54766
-0.36535
-0.182309
-0.401773
0.240197
0.161576
0.481836
-0.263361
-0.218475
-0.236541
0.0588209
0.177721
-0.177778
-0.18795
0.365728
-0.264497
0.23662
-0.303323
-0.174293
-0.456104
0.11327
0.342833
0.342154
-0.323813
-0.339578
0.139484
0.0382023
-0.412658
0.215676
-0.411251
0.195576
0.0459643
0.105054
-0.180912
0.00748293
0.0242417
-0.0317246
0.229322
-0.159326
0.128312
0.0190874
0.351192
0.196467
-0.0558965
-0.400207
0.0197929
0.137571
0.234083
-0.355259
0.121176
0.182566
-0.350657
0.168091
-0.247457
-0.182135
0.0290806
-0.00655205
-0.0225285
-0.352458
0.151929
0.0770405
-0.22897
-0.0334723
0.0409552
0.451095
-0.316253
-0.134842
0.457182
0.453592
-0.185733
-0.0292583
-0.165194
0.194452
-0.108256
0.328688
-0.33432
0.226361
0.107959
-0.0528783
-0.162919
0.482544
-0.268237
0.333211
-0.194279
-0.408886
0.248958
-0.143765
-0.180097
0.167694
-0.082231
-0.15431
-0.136426
-0.00113993
-0.135336
0.16171
0.228759
0.145755
0.253345
0.0895376
0.294137
0.156959
0.192737
0.284012
-0.33354
0.481053
-0.147514
-0.0594745
0.0158233
0.0436512
-0.139664
0.581703
-0.213449
-0.368254
0.52583
-0.259392
0.315785
-0.197771
-0.118014
0.0798041
0.102685
-0.182489
-0.145607
0.345952
-0.130508
0.367442
-0.236934
0.1793
-0.357078
-0.216759
-0.0819236
0.397827
-0.342356
-0.220488
-0.104602
-0.524356
0.261905
0.262451
-0.368871
0.454426
0.482201
-0.227816
-0.254385
-0.24635
-0.192598
-0.33923
0.377433
-0.332034
0.111546
-0.013527
-0.0334265
-0.026048
-0.346947
-0.177409
-0.0245804
0.0207231
0.362824
-0.0283542
0.0047059
-0.137629
0.00120273
-0.26052
0.025257
-0.394128
0.396566
-0.24507
-0.151497
-0.0776533
0.301179
0.175487
-0.155389
0.21421
-0.425427
0.00936509
-0.226256
0.509021
-0.282765
0.183437
0.101957
-0.285394
0.361052
0.220651
-0.0256832
0.110684
-0.0850005
-0.311287
0.386769
-0.075482
0.457357
-0.268653
0.206242
-0.2355
-0.0979588
-0.327468
-0.224245
0.148049
0.0761953
-0.398401
0.0591709
0.00224006
0.0731329
0.464289
-0.208792
-0.300655
-0.129427
0.353254
-0.105652
-0.154517
0.115587
-0.242216
0.0788434
0.163373
-0.132051
-0.313477
0.0993114
0.214166
0.0659673
-0.195248
0.12928
0.075721
0.168239
-0.24396
0.308234
0.164045
-0.472279
-0.134461
0.383455
-0.248994
0.350602
0.175228
0.248454
0.12575
-0.374203
-0.263381
0.163291
0.10009
-0.210998
0.14422
0.0667779
-0.050786
0.0231443
-0.417893
0.147504
0.270389
-0.48548
0.315435
-0.26459
-0.11389
0.37848
0.252107
-0.0206458
0.00718621
0.120276
-0.176224
0.0559477
0.458981
-0.150747
-0.136233
0.376345
-0.240112
-0.133456
0.140733
-0.185637
0.398649
-0.213011
0.210542
-0.187419
-0.0349385
-0.310646
0.345584
0.344989
0.132228
-0.344796
-0.258221
0.420515
-0.162294
0.088529
-0.114212
0.308428
-0.0776978
0.119641
0.214698
0.126529
0.238158
0.0164471
-0.265041
0.248594
0.163459
-0.094632
-0.0688268
-0.480509
0.242167
0.238342
-0.132273
-0.257372
0.389645
0.230095
-0.375702
-0.161702
0.472771
-0.0445045
-0.143885
0.18839
-0.158252
-0.297938
0.45619
-0.282422
-0.135471
-0.130475
0.196442
0.238017
0.121422
0.0157817
-0.273805
0.258023
0.238819
-0.172043
-0.0667758
0.137306
-0.0913413
-0.404351
0.109215
-0.491775
0.237602
-0.260281
0.485455
-0.191978
-0.0818559
0.484981
-0.0193259
-0.106576
-0.234046
0.340622
0.399627
-0.136687
-0.26294
0.0818714
-0.0796313
-0.323302
0.0147649
0.308537
0.459888
-0.110398
-0.202388
0.296523
-0.094135
0.0925573
-0.0853588
-0.00719852
0.109721
-0.269338
0.159617
-0.0670967
-0.372317
-0.0808987
0.453216
0.307944
0.181715
-0.489659
0.108399
0.159206
-0.267605
0.305644
-0.141617
-0.028699
0.170316
0.0733917
0.165427
0.0404914
-0.195881
-0.1612
0.462379
0.348765
-0.100311
-0.267367
0.460105
-0.523616
0.24578
0.277836
-0.142297
0.372393
-0.093436
0.147227
0.113961
-0.261188
-0.176627
-0.236971
0.413598
-0.110543
0.190347
-0.0504832
-0.0667901
0.117273
-0.0219115
0.279794
0.294353
0.45424
-0.32408
-0.13016
0.139736
0.137393
-0.277129
0.206007
-0.164392
-0.0416148
-0.107027
0.341109
-0.175316
0.129272
0.046044
0.260915
0.0697898
-0.120273
0.363961
-0.237432
0.286784
0.177734
-0.365684
0.337118
-0.0610105
-0.119087
0.0819587
0.210775
-0.292734
-0.334665
0.391562
-0.0568965
-0.373018
0.457375
0.374933
-0.141161
-0.0517755
0.172051
0.0514986
-0.0329769
-0.0185217
0.229185
-0.00886296
-0.220322
0.0167266
-0.0395415
0.0228149
-0.0970533
0.14558
-0.0485267
0.280262
-0.170541
-0.200027
0.281986
0.252632
-0.0185688
-0.234063
0.129721
-0.174226
-0.280132
-0.160735
-0.101226
0.261961
0.362556
-0.314697
-0.0478595
0.225901
0.173726
0.201277
-0.131642
0.0857445
-0.0762909
0.27955
-0.203259
-0.468431
0.0961133
0.370017
-0.281821
0.154543
-0.244102
-0.279514
0.293614
-0.143261
-0.150353
-0.00428515
-0.438425
0.44271
0.09887
-0.158222
0.0593522
-0.315434
-0.00786744
-0.129952
0.0263365
0.103615
0.280099
0.145685
0.271761
0.25966
0.431823
-0.129238
0.10172
0.0355853
0.40088
0.126554
-0.286339
0.101991
-0.244329
0.0982122
0.264344
0.350332
-0.265261
0.476367
-0.0413894
0.364336
-0.334201
-0.0301349
0.25893
0.161584
-0.181311
0.399661
-0.21835
0.29961
-0.486239
0.186629
-0.131391
-0.185909
0.317301
-0.265169
0.0627812
-0.167583
0.475527
-0.361566
0.40269
-0.086473
-0.00014877
0.0866218
-0.0181635
0.0217548
-0.00359139
0.334524
0.0298125
-0.0983765
-0.383373
0.248912
-0.120105
0.0460223
0.0466918
-0.407275
-0.085815
0.0401795
0.294329
0.137494
0.0343499
-0.0358207
0.00147084
-0.154272
-0.259327
0.413599
-0.0970636
-0.181497
0.27856
-0.332752
-0.147757
0.0725967
0.0199606
-0.125469
0.134562
-0.372457
0.237895
-0.44931
0.16467
0.0220746
-0.119128
0.52688
-0.407028
-0.119852
-0.41821
0.263938
-0.314921
0.18353
-0.41447
0.0671268
0.347343
-0.0867183
-0.0607531
0.360363
0.0105008
0.0188315
-0.0293323
0.207035
-0.388346
0.387505
-0.209771
0.205078
-0.122222
-0.082856
0.396987
-0.156804
-0.240183
0.293044
0.113713
-0.406757
0.246461
0.23574
-0.0986194
-0.356326
0.454945
-0.0731136
-0.0479866
-0.0819649
0.0109171
-0.0895199
-0.108221
-0.158588
0.102934
0.205494
-0.378902
0.0964806
0.149552
0.177391
-0.326943
-0.0419086
-0.133407
-0.466681
0.139728
0.326953
-0.00729786
-0.00801244
0.0153103
0.244503
0.144678
-0.38918
-0.132701
-0.33398
0.0163284
0.236304
-0.160501
-0.304652
0.465152
-0.122751
0.367254
0.114946
0.0901324
0.19468
-0.39582
0.20114
0.407108
-0.29555
-0.199707
-0.268814
-0.158282
0.0711718
-0.423122
-0.0848292
0.377873
0.0143946
0.244536
-0.157661
0.121103
-0.296886
0.261947
-0.161052
0.124407
0.0366442
-0.143979
-0.169081
0.233204
0.249373
-0.482576
-0.172454
0.508047
-0.291716
-0.216331
-0.486544
0.327285
0.159259
-0.290718
0.0802774
-0.337511
-0.294377
-0.149871
0.0812272
-0.477809
0.208287
0.300734
0.02911
-0.413982
0.301028
-0.472293
0.0563641
-0.367651
-0.221633
-0.107098
-0.325574
0.224714
0.100861
-0.130684
-0.0355075
0.166192
0.145844
0.0601628
-0.122781
-0.260328
0.383109
0.28277
-0.465635
-0.282952
-0.137324
-0.0176575
-0.0773931
-0.156905
0.108919
0.0856768
-0.271177
0.1855
0.114257
0.193066
-0.307324
-0.313677
0.423684
-0.110007
-0.0355545
-0.343348
0.16531
-0.0684149
-0.0968951
0.092064
-0.140451
0.0483874
0.272185
-0.394967
-0.0692856
0.124018
-0.467617
-0.287113
-0.107019
0.210267
0.0862558
0.0460159
-0.410645
0.260947
-0.035249
-0.185832
0.271509
0.155846
-0.517411
0.0971145
0.0663443
-0.283172
0.4414
-0.158228
0.484538
0.100835
-0.26157
-0.337936
0.517659
-0.00456386
-0.0819091
-0.150474
-0.0320681
-0.361492
-0.0311169
0.343109
-0.311992
0.166818
-0.177902
0.135993
0.216866
0.26497
0.09645
0.219381
0.33108
-0.220594
0.394664
-0.206513
-0.188151
0.132543
0.273049
-0.405592
0.396519
-0.263976
0.295413
-0.19285
0.182604
-0.279667
0.452585
-0.31195
-0.140635
-0.35483
-0.169047
0.154215
-0.0553454
0.411424
-0.117095
-0.289411
0.303806
-0.0819166
-0.332554
0.0180721
-0.206547
-0.148837
0.431608
0.0130355
-0.284993
0.271958
-0.30871
0.0919511
-0.26424
0.158046
0.106193
-0.249259
0.307445
0.145141
0.00766621
-0.0252141
0.14185
0.22173
-0.0178708
0.0175086
0.52694
-0.258573
-0.268368
0.413347
-0.19153
-0.221817
-0.332911
0.0113624
0.321549
0.0625288
0.0824686
0.178479
-0.0840506
0.324309
-0.365782
-0.396726
0.125943
0.247165
-0.385053
0.137888
-0.334827
0.217238
0.117589
-0.422403
-0.00929046
-0.0479234
0.0572139
-0.126667
-0.226561
0.353228
0.0627085
-0.162301
-0.125148
0.363542
0.203679
-0.359366
0.155686
0.427996
-0.458805
-0.155347
-0.216131
0.371477
-0.337398
0.182052
-0.165145
-0.0784409
0.215834
-0.165163
-0.0770538
0.282837
-0.0733159
-0.123433
-0.203743
-0.442303
0.177066
0.236281
0.217575
-0.330833
0.113258
-0.35467
0.476228
-0.121559
0.527669
-0.256814
-0.270856
0.183092
0.13745
0.0010479
-0.100949
0.126053
-0.429376
0.14042
-0.024001
-0.116419
0.105579
0.188035
-0.0093798
-0.416464
0.425844
0.191884
-0.337108
0.492953
0.256649
0.154775
0.219893
-0.110163
-0.0330166
-0.260769
0.35544
-0.292713
-0.0766486
-0.13435
-0.0375661
0.13541
-0.0978439
0.308465
0.0649695
0.443723
-0.454484
0.0107603
-0.498603
0.339649
0.158955
0.157358
0.202195
0.192469
0.146432
0.250554
-0.0382336
0.0810383
0.310468
-0.445725
-0.106144
0.325809
-0.169507
0.464739
-0.388447
-0.00348161
0.0953652
-0.432473
-0.212617
0.14627
0.0663465
0.540404
-0.22799
-0.312414
-0.301359
0.493211
0.445461
-0.177132
-0.268329
-0.0115951
0.354704
-0.045565
-0.506086
0.285501
0.284531
0.169709
0.208018
0.11551
-0.323528
-0.413932
0.276609
-0.254963
0.229703
0.0252603
0.444991
-0.353897
-0.0910949
-0.417651
0.269151
0.1485
-0.0534922
0.237517
-0.1359
-0.281751
0.0325668
0.0629132
0.333917
-0.00758127
-0.326336
-0.0903056
-0.133939
-0.372611
0.190037
0.182574
-0.0423755
-0.071138
0.113513
0.334134
-0.395014
0.0608796
-0.0148644
0.221106
0.422552
-0.220357
-0.133402
-0.161349
-0.208771
0.37012
0.204617
0.517981
-0.272201
0.449234
-0.141789
-0.125948
0.316891
-0.190943
-0.369402
0.106153
0.263248
-0.383267
0.252251
0.131017
-0.277888
-0.10538
0.0809117
0.0750247
-0.16048
0.376156
-0.0160456
0.0200215
-0.00397586
0.308584
0.215251
0.115096
0.329895
0.476446
0.197715
-0.191193
0.0566052
0.134588
0.219126
-0.380475
-0.321792
-0.0957011
0.410462
0.28729
0.253672
0.307816
0.141418
0.0966048
0.205163
-0.301768
0.428508
0.0219351
-0.450443
-0.0931389
0.325926
-0.217368
-0.108558
0.298668
-0.486537
-0.138087
0.355681
-0.217594
0.0665419
0.00202701
-0.0380211
-0.163726
-0.23157
0.395297
0.386668
-0.485287
-0.13791
-0.0399917
0.00980301
0.000710082
0.257863
0.110678
0.168173
-0.278852
-0.182132
-0.317033
-0.0501478
0.112856
0.26918
0.00883725
-0.0899852
-0.208337
0.210993
0.211559
-0.238881
-0.257076
0.190541
-0.150049
0.269108
0.133003
-0.402112
-0.0833063
0.309667
-0.165819
0.276497
0.218814
0.321589
0.28806
0.0430499
0.308142
-0.394062
0.0902573
0.303805
0.229458
-0.252142
0.0226836
-0.0245506
-0.0262354
-0.351358
-0.0896564
-0.212844
0.323403
-0.110558
-0.0503763
-0.24817
0.49804
-0.24987
0.181563
0.273394
-0.454958
-0.192552
0.482983
-0.290431
-0.297857
0.442888
-0.100189
-0.184077
0.127215
0.0568614
-0.142118
-0.163641
0.268873
-0.105232
-0.157156
0.20574
-0.0485843
0.218239
-0.457817
0.188755
0.269062
0.356754
-0.153075
0.491587
-0.245811
-0.245777
0.119015
-0.383605
-0.310734
0.0978897
0.269811
0.363946
-0.191923
-0.100467
0.163669
0.0822085
0.2165
0.125452
-0.341952
0.038291
-0.25485
0.216559
-0.245498
0.00778092
-0.255573
0.181693
0.07388
0.225078
-0.0345366
-0.135054
0.0248912
-0.503911
0.245339
0.164242
-0.455812
0.29157
-0.196355
-0.21572
0.267627
0.0319079
0.437443
-0.352828
-0.0846149
-0.349071
0.392121
-0.336934
-0.0841114
0.421045
-0.420474
0.210046
0.210428
0.223415
0.125266
0.279734
0.226978
-0.0841238
-0.142854
-0.299501
0.366628
0.00729868
-0.0149306
0.00763192
0.177075
0.268387
-0.14064
-0.321911
0.102815
0.219096
-0.156494
0.0335865
-0.406303
0.396923
-0.0186949
0.456138
-0.197178
-0.2888
-0.26733
0.103689
-0.276093
-0.184162
0.460255
0.243337
0.26471
0.445526
-0.268452
0.234635
-0.0899271
-0.360993
0.230485
-0.140957
-0.288594
0.429551
-0.176799
-0.073058
-0.323044
0.292546
0.280583
0.113113
-0.38186
0.268747
-0.374893
0.0238513
-0.181007
-0.0226847
0.00663907
0.302396
-0.403542
0.101146
-0.468688
0.154583
0.314105
0.0305477
-0.368484
-0.127701
-0.244144
0.371845
-0.203215
0.42225
-0.219035
0.319138
-0.108596
-0.3087
0.457628
-0.148928
-0.13614
0.328304
-0.192164
-0.258371
0.100148
0.480544
-0.170489
-0.310056
0.483526
0.222333
-0.0100364
-0.274957
0.0668302
0.134293
-0.339165
0.0413085
-0.236218
0.32479
-0.0885719
-0.286471
0.39264
-0.106169
0.110424
0.116554
0.0826904
-0.104848
0.395209
-0.0928127
-0.250101
0.405125
-0.00809853
-0.117917
0.126016
-0.160939
-0.0532609
-0.369217
0.0128907
0.402758
-0.148511
-0.254247
-0.0125339
-0.46887
0.449998
-0.28306
-0.166938
-0.25745
-0.279946
0.0534301
-0.312643
0.259213
0.313121
-0.528955
-0.456448
0.119514
0.174832
0.342806
0.107192
0.497953
-0.181916
-0.316037
-0.52296
0.29497
0.355168
-0.108003
0.160472
0.242052
-0.402523
-0.0105721
-0.369164
-0.123278
0.175308
0.305237
-0.195726
0.331977