/*--------------------------------*- C++ -*----------------------------------*\
| =========                 |                                                 |
| \\      /  F ield         | OpenFOAM: The Open Source CFD Toolbox           |
|  \\    /   O peration     | Version:  v2012                                 |
|   \\  /    A nd           | Website:  www.openfoam.com                      |
|    \\/     M anipulation  |                                                 |
\*---------------------------------------------------------------------------*/
FoamFile
{
    version     2.0;
    format      ascii;
    class       surfaceScalarField;
    location    "350";
    object      phi;
}
// * * * * * * * * * * * * * * * * * * * * * * * * * * * * * * * * * * * * * //

dimensions      [0 3 -1 0 0 0 0];
oriented        oriented;


internalField   nonuniform List<scalar> 
27882
(
0.507891
-0.360555
-0.147336
0.46146
-0.192242
-0.269218
0.271893
-0.533071
0.261178
0.162843
0.345049
-0.225369
0.353893
-0.128525
-0.426094
-0.102044
0.528138
0.185866
0.187467
-0.373333
0.120275
-0.331143
0.210869
-0.344242
0.118874
0.24835
-0.376608
0.128258
0.351762
-0.510271
0.15851
0.500246
-0.282836
-0.21741
-0.410439
0.144646
0.265793
0.33144
-0.16517
-0.166271
0.10552
-0.430485
0.324965
-0.428525
0.148245
0.280281
0.264147
0.236099
-0.313198
-0.168424
0.381922
-0.276401
0.17436
0.139644
-0.314004
-0.410071
0.290323
0.119748
0.0528183
-0.110247
0.0574282
0.0867687
-0.512863
-0.333878
0.54043
-0.206552
0.109463
-0.0566447
0.140046
-0.0876631
-0.0523828
-0.206523
-0.0842781
0.290801
0.241957
-0.129906
-0.112052
-0.174219
0.0355081
0.138711
0.450912
-0.311456
-0.139456
-0.207214
0.222999
-0.0157853
0.050741
-0.257264
0.307498
-0.187224
0.0571986
-0.127708
0.0705089
-0.170779
0.342896
-0.172118
0.186861
0.264051
-0.270523
-0.139915
0.183114
0.120206
0.102291
-0.222498
0.395819
-0.476441
0.0806219
0.458417
-0.264537
-0.19388
-0.183618
-0.170588
0.354206
0.487078
-0.284823
-0.202255
0.470109
-0.334859
-0.13525
0.520252
-0.361452
-0.1588
-0.242195
0.0562417
0.185953
-0.335676
0.152058
-0.175417
0.0269001
0.148517
-0.0220014
-0.000227812
0.0222292
0.502492
-0.353952
-0.14854
0.517797
-0.166035
0.0819886
-0.0929239
0.0109353
0.182213
0.320279
-0.389745
0.169276
0.220469
0.0514334
-0.122714
0.0712806
0.405357
-0.260711
0.485799
-0.462947
-0.0228521
-0.157059
0.331419
-0.175873
0.155075
0.020798
0.366624
0.119175
0.488834
-0.0789071
-0.409927
0.33351
0.136599
-0.0663637
-0.145001
-0.0699692
-0.0614389
0.131408
0.0242248
0.464609
0.115395
-0.0904114
-0.0249841
-0.0180948
0.401939
-0.383844
0.625953
-0.299341
-0.326612
0.084939
0.157018
-0.544767
0.231569
-0.0131608
0.0951493
0.0702465
0.0392221
-0.109469
0.145204
-0.3989
0.253696
0.168093
-0.286013
0.11792
0.267884
-0.29973
0.0318465
-0.0329526
-0.174261
0.147786
0.0637827
-0.211568
-0.209498
-0.208737
0.418235
-0.0958921
0.283116
0.203962
0.13006
-0.143448
0.0133883
-0.0993733
0.21958
-0.325486
0.115988
0.00303972
0.224591
-0.227631
-0.542124
0.263582
0.278542
-0.130222
0.0352594
0.0949621
0.195747
0.0530545
-0.139149
0.307242
-0.228545
0.162182
-0.126159
-0.00406257
-0.075642
0.0697607
0.00588122
-0.349856
0.508873
-0.159017
0.131236
-0.153137
0.0219009
-0.00425206
-0.0177493
-0.2485
0.393704
0.523199
-0.101455
-0.421744
-0.338878
-0.135159
0.474037
0.171466
-0.162128
-0.00933795
0.409672
-0.217946
-0.191726
0.178249
-0.380394
0.202145
-0.128701
-0.113494
0.326861
-0.222927
-0.103934
0.316211
0.309743
0.428686
0.0945134
0.0744414
0.0409541
-0.24205
-0.168021
-0.144292
-0.0311251
-0.059207
-0.016435
-0.0113017
0.204417
-0.193115
0.367353
-0.15837
-0.208983
-0.138543
0.441634
-0.303091
0.0355226
-0.105492
0.273616
-0.465124
0.191508
0.476795
-0.473251
-0.00354394
0.123569
0.203292
-0.116324
-0.0255072
0.141831
0.172379
-0.00091359
0.555645
-0.264265
-0.29138
0.0211674
0.0881294
-0.109297
-0.340953
0.492227
-0.151274
0.550952
-0.387102
-0.163849
0.210812
-0.0630262
-0.211944
-0.33018
-0.508093
0.0740739
0.434019
-0.000677268
0.00520369
-0.00452642
-0.220971
-0.168775
-0.504261
0.341602
0.162659
-0.422189
-0.0859039
-0.0473612
-0.0910823
0.138443
-0.0162545
0.00938275
-0.148973
-0.52648
0.274698
0.251783
-0.230612
0.244074
-0.0134616
0.0422401
-0.074775
0.0325349
-0.14055
0.536369
-0.352221
0.481453
-0.129232
0.256683
-0.062587
-0.194096
-0.40146
-0.0658813
0.467341
-0.153691
0.00405959
0.149632
0.133667
-0.0036071
0.431656
-0.158041
0.467181
-0.22066
-0.246521
0.191892
-0.180434
-0.0114581
-0.239178
0.227876
-0.00665769
0.00598042
0.165481
-0.160504
-0.00497737
0.107047
-0.0326061
-0.0219229
0.135689
-0.113767
-0.193197
-0.317074
0.0170111
0.0690776
-0.0860887
0.0153568
-0.00692647
-0.00843032
0.0108307
-0.0086633
-0.00216738
0.0538973
-0.258375
0.204477
-0.381567
0.100993
0.280574
0.153685
0.304733
0.159259
-0.0397111
0.15311
-0.0218734
0.0671917
-0.114553
-0.250664
-0.0250437
0.275708
0.268263
-0.0718932
0.036586
0.0353072
0.35573
0.0302379
-0.385967
0.0143064
0.00114945
-0.0154559
0.0649394
0.042108
-0.233351
0.0347487
0.198602
-0.548331
0.247374
0.300957
0.414279
-0.058549
-0.0274086
0.066168
-0.0387594
-0.00835022
-0.00790425
0.45235
-0.302298
-0.150052
0.00549001
0.00175229
-0.00724231
0.408343
-0.13645
-0.158128
0.158063
6.53716e-05
-0.226184
-0.192791
0.0090052
0.195411
0.135931
-0.392044
0.256112
0.142371
-0.390871
0.0403847
-0.109161
0.0687765
0.117177
-0.0599786
0.229021
0.0468767
0.520626
-0.245056
-0.27557
-0.129975
-0.175128
0.305103
-0.0704127
0.121846
0.141298
0.164639
-0.05208
-0.0191308
0.0712109
0.421262
-0.316549
-0.104713
-0.307956
-0.00349975
0.340941
-0.284775
-0.0561666
0.0217339
-0.025986
-0.208789
-0.038773
0.247562
0.0039815
0.00684918
0.277551
0.14371
0.0824798
-0.176294
0.0938144
0.0987584
0.126855
-0.225614
-0.539464
0.2195
0.319964
0.235125
-0.313694
0.0785689
-0.129717
-0.00819153
0.137909
0.316989
-0.263091
-0.0127538
0.0344877
-0.494319
0.0769757
0.417344
-0.195089
-0.253193
0.448283
0.173013
-0.105821
-0.138341
-0.0953827
0.233724
-0.14803
0.42742
-0.27939
-0.401579
0.263036
-0.0116982
0.0260046
0.093981
-0.364624
0.270643
-0.0386711
-0.0114375
0.00257699
0.554839
-0.375728
-0.179111
-0.112384
0.146017
-0.0336327
-0.464176
0.269087
-0.135747
0.42409
-0.288343
0.106193
-0.326164
0.219971
0.164476
-0.503354
0.00227597
0.389916
-0.392192
0.0407258
0.341941
-0.443984
-0.115826
0.403244
-0.287418
-0.161643
0.260402
-0.171658
-0.280213
0.451872
0.174666
0.0172255
0.0556247
0.117388
0.0937733
-0.232114
-0.235921
0.397592
-0.161671
0.271176
-0.00329196
-0.0781914
0.12951
-0.0513185
-0.0342372
-0.0376561
0.345726
-0.251745
0.0699217
0.0701242
0.154851
0.0106299
0.199353
-0.190348
0.0620323
-0.414253
-0.48291
0.147754
0.335156
0.275576
-0.447234
0.0670551
-0.231359
0.164304
-0.00976605
-0.00175499
0.011521
-0.12168
-0.0208008
0.142481
-0.343001
0.262037
0.0809636
0.10243
0.322575
-0.425004
-0.153294
0.220349
0.00412478
-0.17614
0.172015
-0.342329
-0.170119
0.512448
0.0763095
-0.0592984
0.142796
-0.0381846
-0.104612
-0.477492
0.341806
0.135686
-0.261674
-0.199887
0.461561
-0.20324
0.496379
-0.29314
0.370487
-0.192238
0.0060185
-0.000528492
0.515979
-0.253796
-0.262182
0.288534
-0.537407
0.248873
-0.171133
0.44671
0.462975
-0.073122
-0.389853
0.105283
0.0163949
-0.121678
0.380872
-0.574201
0.193329
0.123816
-0.0535694
-0.396306
-0.027654
0.423959
-0.253643
0.183679
-0.227758
-0.237366
-0.363506
0.43758
-0.102353
-0.375139
-0.103916
0.186395
0.139413
-0.0092467
-0.130167
-0.0468393
0.186253
0.0284891
-0.391995
-0.149567
0.0671293
-0.325504
-0.226228
0.357193
-0.130966
0.067377
-0.110622
0.0432454
-0.0482835
-0.053279
0.101562
-0.353999
0.127772
0.0883931
-0.332367
0.243974
0.119406
0.355112
-0.474518
0.316103
-0.20991
0.214406
-0.0275151
-0.186891
0.492733
-0.150792
-0.418228
0.282481
0.160926
0.170514
0.200509
-0.462183
-0.311687
-0.176143
0.487829
-0.434237
0.379176
0.0550604
-0.0895822
0.0352912
0.054291
-0.244619
0.356165
-0.267772
0.3975
-0.435749
0.0382489
-0.140125
-0.0360146
-0.151897
0.378674
-0.226777
0.276789
-0.439288
0.0969595
0.0946359
-0.29215
0.197514
-0.121897
-0.34105
-0.534727
0.258986
0.275741
-0.558745
0.263137
0.295608
0.205684
0.254119
-0.459804
-0.452204
0.216283
-0.437918
0.0880619
-0.454412
0.120534
-0.00414925
0.00416045
-1.12036e-05
0.114626
-0.232121
0.117495
-0.597971
0.338542
0.259429
-0.393066
-0.204905
-0.0817371
-0.118585
0.200322
0.271044
-0.469063
0.198019
0.280709
0.239918
-0.150177
-0.240166
0.390343
-0.299616
0.0575658
-0.09624
0.42975
0.160199
0.245158
-0.405137
-0.0290998
-0.113113
0.172827
-0.0597133
-0.125658
0.0653861
-0.149874
0.0844881
-0.0809952
-0.0932241
-0.0428054
-0.0849021
-0.616812
0.300122
0.31669
0.285177
-0.134733
-0.150444
-0.15957
0.128246
0.0313244
0.0403267
-0.424623
0.384296
-0.0998159
0.165202
-0.223176
-0.027488
-0.00888437
0.077962
0.161273
-0.45885
0.297577
-0.300602
-0.00956805
0.443883
-0.238883
0.0629053
0.340307
-0.403212
-0.000782288
0.00304886
-0.00226657
-0.0443404
0.210865
-0.166525
0.41967
-0.282479
-0.137191
0.0309516
-0.0664853
0.0355337
0.44829
-0.287017
-0.167459
-0.365554
-0.0307512
0.120877
0.355918
-0.197415
0.315845
-0.11843
0.0391984
0.329854
-0.369052
-0.0856535
-0.24549
0.156255
-0.411263
0.255008
-0.297979
0.100564
-0.171989
0.269351
-0.0973616
0.165801
-0.139499
0.145803
-0.22754
-0.0774771
-0.323983
0.166593
0.199034
0.210638
-0.267148
0.330053
-0.026808
0.171095
-0.144286
0.482364
-0.211321
0.113181
-0.064743
-0.0484379
0.482957
-0.229819
-0.253138
0.134385
-0.14632
0.0119348
-0.417164
0.100616
-0.00388739
0.00230992
0.00157747
0.0976066
-0.26191
0.164304
0.105408
-0.316701
0.211294
-0.272977
0.100987
0.289521
0.13015
-0.40758
0.298998
0.108582
0.140917
-0.475776
-0.129872
-0.123259
0.250114
0.502784
-0.28059
-0.222194
0.242669
-0.221364
-0.0213055
0.11313
-0.236389
-0.141103
0.227276
-0.0204355
-0.20684
0.152493
-0.282468
0.178109
-0.00572928
-0.00999386
0.016766
-0.13309
-0.0389929
0.238346
-0.234777
0.194661
0.040116
0.170712
-0.435249
-0.0174611
0.151846
-0.014584
0.477559
0.043326
-0.0868737
0.0435476
-0.113005
0.313118
-0.478011
0.164893
0.292507
0.210277
0.377878
-0.395973
0.223342
0.317088
-0.0557726
-0.0544739
0.202367
-0.199827
0.460252
-0.260425
0.106073
-0.0386964
0.0044214
-0.0736501
0.169514
0.149571
0.217783
-0.281516
-0.14701
0.300418
-0.19722
-0.103198
-0.354808
0.157616
0.197193
0.464749
-0.297908
-0.166842
0.284952
0.266
-0.372604
-0.034976
0.266923
-0.407404
0.140481
-0.421341
0.109654
-0.5345
0.294894
0.239605
0.157413
-0.487636
0.330222
0.26599
-0.252327
-0.0136634
0.0879204
-0.224155
0.136234
-0.208783
0.186165
0.0226177
-0.0821656
0.164603
-0.0824378
0.0755709
-0.157736
-0.00432936
-0.00541364
0.009743
0.254927
0.0105882
-0.137354
0.126766
-0.269836
0.47552
0.430711
-0.0356535
-0.395058
-0.377428
0.0926049
0.157764
0.142654
-0.345291
0.211797
0.133494
-0.243144
0.0254019
0.167559
0.0105491
0.358693
-0.24414
-0.114553
-0.374111
-0.20009
0.133655
0.0321453
0.284468
0.235784
0.210397
-0.095771
0.559224
-0.288494
-0.27073
-0.0189987
0.0405856
-0.0215869
-0.159953
0.237362
-0.206455
-0.35229
0.0577299
-0.0267782
0.135119
-0.143035
0.00791639
-0.503777
0.402105
0.101672
0.319127
0.145622
-0.252315
0.469651
-0.217335
0.149174
-0.188167
0.221806
-0.51342
0.291614
-0.356867
-0.17786
-0.195977
-0.037373
-0.0126705
-0.196113
-0.0832535
0.384103
-0.241732
-0.310525
0.208513
0.102012
0.163099
0.0789927
-0.242092
0.0454568
-0.120911
0.075454
-0.162187
-0.142108
0.304295
-0.608032
0.359912
0.24812
-0.0470854
0.225931
0.333293
-0.316201
0.355399
0.0325294
0.121836
0.294063
-0.415899
0.183271
0.0397283
-0.241965
-0.366067
0.258727
-0.0956277
0.526869
-0.229154
-0.297715
-0.136063
0.152829
0.194499
-0.496569
0.30207
0.35337
-0.0864466
-0.00401552
-0.0013825
0.00539802
-0.168925
-0.300137
0.127364
0.373539
-0.500903
0.19039
0.0368858
-0.0068918
-0.295307
0.302199
0.285464
-0.433494
-0.465335
0.0823294
0.383005
0.502862
-0.323813
-0.179049
-0.119898
0.201132
-0.0812338
-0.010147
0.0399836
-0.0298367
0.213655
0.0751924
-0.288847
0.232461
-0.114057
-0.118404
0.311693
-0.198563
0.107936
-0.067551
0.45677
-0.322387
-0.134383
0.0145003
0.128296
0.0872512
0.369518
-0.510233
0.331253
0.178979
0.13847
-0.127881
-0.197634
0.250973
0.0114799
-0.262453
0.219612
0.0878863
-0.413957
0.298132
0.404168
-0.36055
-0.0436177
0.144015
0.287641
-0.514666
0.21813
0.296536
0.310057
-0.12259
0.457593
-0.120782
-0.336811
0.430913
-0.309077
0.0802148
0.377378
0.011109
0.334136
0.281286
-0.419293
0.138007
-0.317388
-0.158505
0.475894
-0.544197
0.365426
0.178771
0.128517
-0.137005
0.00848791
-0.152358
-0.374122
-0.259605
0.455717
-0.196112
0.359213
0.125291
-0.484504
0.240103
-0.246994
0.0491272
0.35504
-0.0951191
0.385442
-0.208369
0.167052
0.350744
0.347032
0.0352252
-0.382257
-0.197212
0.023425
0.173787
-0.141823
0.0856946
0.0561288
0.0129265
0.0178681
-0.0307946
-0.222325
-0.0124517
0.38547
-0.383194
-0.356163
-0.0610018
0.0202067
-0.0303536
-0.0242452
0.50892
-0.32348
-0.18544
0.509357
-0.142733
0.099987
-0.284721
0.184734
-0.0246427
0.524864
-0.137016
0.484048
-0.0362548
0.0664716
-0.0302167
-0.139461
-0.186704
0.131191
0.00247643
0.207073
0.301847
0.49545
-0.176323
0.108808
0.123653
-0.457689
0.257802
-0.133527
-0.255198
0.388725
-0.504592
0.216919
0.287673
-0.530479
0.30939
0.221089
0.0466861
0.29904
0.0805178
-0.441969
0.195866
-0.400665
0.204799
0.266717
-0.43964
0.172923
0.261125
0.0975686
0.196729
0.114964
0.493005
-0.119466
-0.163867
0.430584
-0.423873
0.106485
-0.248402
0.183052
0.0653497
0.337246
-0.137559
-0.199688
0.0587079
-0.220895
-0.248122
-0.132272
-0.0170038
-0.191785
-0.185971
0.227584
-0.0416133
0.238826
0.0121476
0.296919
0.100342
-0.397261
0.468983
-0.31157
-0.473076
-0.18752
0.272377
-0.0848572
-0.290566
0.103046
-0.00224968
0.00595481
-0.00370513
0.0292231
-0.0813031
-0.246886
0.447395
-0.285681
0.284988
-0.190352
-0.0629578
0.0355492
-0.533461
0.244967
-0.283881
0.448357
0.356903
-0.345794
-0.430052
-0.114145
-0.135678
-0.254398
0.390076
0.452415
-0.155496
-0.123643
-0.187733
0.311376
0.433709
-0.00185232
0.156928
-0.376498
0.128376
0.337009
-0.477559
0.197052
-0.237153
0.0401007
0.0339492
-0.0210227
-0.424229
0.28574
0.138489
-0.218321
-0.28594
0.428147
-0.269334
-0.158813
-0.394167
0.134561
0.26984
0.119849
-0.389689
-0.406834
-0.392539
0.263277
0.129262
-0.466655
0.190726
0.275929
-0.306541
0.220144
0.0863965
0.224019
-0.265751
0.0417327
0.29274
0.135407
0.137492
-0.1643
0.482519
0.0571568
-0.401723
0.344567
0.153617
0.00123434
-0.209791
-0.334976
-0.232892
-0.297587
-0.0222058
-0.277662
0.299868
-0.110448
-0.422623
-0.0134598
0.248585
0.0266418
0.216028
0.503514
-0.133582
-0.369932
-0.12559
0.389597
-0.264007
-0.0317526
0.22319
0.332455
-0.414685
0.267017
0.147669
0.484359
-0.207373
-0.276986
-0.519282
0.16584
0.353442
0.249719
0.277149
-0.203739
0.206779
0.0836618
-0.294305
0.210643
0.206511
0.130735
0.388333
-0.252402
-0.0365023
0.260521
-0.457628
0.403483
0.159937
0.302343
-0.462281
-0.00281949
-0.00132976
0.490885
-0.216694
-0.274191
0.276116
0.278723
0.245586
-0.382708
0.137122
0.494946
-0.349646
-0.1453
0.223197
-0.26197
0.263892
-0.157305
-0.106587
0.284695
0.161705
-0.446399
-0.172396
0.280283
0.0601746
0.10616
-0.166335
0.288336
-0.188349
-0.272095
-0.160805
0.4329
0.250699
-0.400877
0.0554156
-0.226216
0.1708
-0.00577051
-0.0667356
-0.163877
0.442345
-0.30136
-0.140985
0.0825198
-0.350087
0.267568
0.251812
0.243135
-0.166326
0.157241
0.00908574
-0.338029
-0.181253
0.340037
-0.257517
-0.360422
-0.17304
-0.046462
-0.340598
0.38706
-0.0750089
-0.152275
0.227284
-0.125841
-0.153962
0.279803
0.487489
-0.198956
-0.30529
0.294903
0.147443
0.122139
0.221375
-0.343513
0.385055
-0.139469
0.184259
-0.483049
0.29879
0.391772
-0.130648
0.0574083
-0.117228
0.167099
-0.18627
0.0191712
-0.0077277
-0.000935601
-0.00386937
0.00161969
-0.390748
0.138433
-0.434396
0.484133
-0.0497376
0.00141485
-0.238313
0.37147
-0.133157
0.19517
0.295715
0.195981
0.286383
0.240754
-0.367141
0.126387
-0.146643
0.0171895
-0.183578
0.166388
-0.130705
-0.373071
-0.0769108
0.366737
-0.462977
-0.445418
0.315534
0.129885
-0.467985
0.170077
-0.267949
0.151036
0.00258041
0.205545
0.220264
-0.425809
0.26856
0.15553
0.220487
0.127132
-0.105965
-0.469955
0.186074
-0.022493
0.405947
-0.210082
0.368319
-0.127565
-0.32964
0.488131
-0.158491
0.297658
0.160018
-0.222605
0.174032
-0.400216
-0.129145
0.300464
-0.216802
0.276211
-0.22547
0.28953
0.159504
-0.449034
0.0461274
0.0493896
-0.095517
0.00302701
-0.00735637
0.310194
-0.204786
-0.44394
0.272807
-0.251755
-0.0505436
0.253264
-0.197849
-0.212919
-0.0610475
0.273966
-0.00540387
-0.180487
0.185891
0.0525251
0.0276743
-0.0801994
-0.106183
-0.225106
0.331288
-0.187362
0.401
-0.213638
-0.0879988
-0.40632
0.177912
-0.010813
-0.12262
-0.495009
0.204921
0.290088
0.0771095
-0.190799
0.11369
-0.175395
-0.133399
-0.075894
-0.164587
0.240481
0.141811
-0.265453
-0.174038
-0.134355
-0.138622
0.448618
0.230586
0.110355
0.302859
-0.210194
-0.092665
0.153369
-0.402863
0.249493
0.101625
-0.173168
0.216018
0.141175
0.02365
0.161052
-0.184702
0.298757
0.135491
-0.434249
0.368689
0.0861249
-0.454814
0.149595
0.229581
-0.316532
0.27007
0.0571787
0.487143
-0.310878
-0.176265
-0.11923
0.514804
-0.311765
-0.203039
-0.0180184
0.144087
-0.00399456
0.208583
-0.32663
0.118047
0.233113
-0.356594
0.123481
-0.0545638
0.208501
-0.153937
0.237856
-0.361851
0.123995
0.149963
-0.388275
0.165008
-0.242051
0.0770436
-0.29652
0.290795
-0.124383
-0.166412
0.33868
-0.345928
0.00724846
-0.263179
0.482679
0.0319308
0.433832
-0.135075
-0.0370359
-0.103945
-0.0775195
0.0831631
-0.0668099
-0.0163532
-0.290245
0.347402
0.141642
-0.424121
0.165896
-0.24179
-0.0769307
-0.0857258
0.162656
0.16967
-0.241864
0.072194
0.114332
-0.358472
-0.0433556
-0.293265
0.336621
-0.445647
0.00097727
0.44467
0.282342
0.232461
-0.473842
0.312077
0.161765
0.177393
-0.182797
0.354601
-0.116745
0.319255
-0.232571
-0.0866842
0.0642796
0.0216391
-0.0859187
0.514976
-0.222469
-0.299149
0.148443
-0.335571
0.187128
-0.0909132
0.131063
-0.409263
0.2782
0.374182
-0.165599
0.2902
0.113044
-0.0101397
-0.0182994
0.0284391
-0.292227
0.458161
-0.165934
-0.271531
0.402594
-0.161398
-0.312445
-0.0774454
0.122902
0.0774613
0.186431
0.430995
-0.274563
-0.156433
-0.458594
0.140943
0.317651
0.244619
-0.385999
0.14138
0.231617
0.0876386
-0.120886
-0.0110462
-0.426683
0.16272
-0.434814
-0.0116038
-0.006334
-0.208722
0.215056
-0.331971
0.451378
0.458758
-0.266334
-0.192424
-0.102454
-0.233351
0.335805
0.0513114
0.192763
-0.284704
0.447424
0.497122
-0.331709
-0.165413
0.2096
-0.0192096
-0.133313
0.349331
0.00123294
-0.130615
0.431568
-0.300953
0.0471251
-0.0801702
0.033045
0.507638
-0.355894
-0.151744
-0.0671134
-0.0055811
-0.147681
-0.271612
0.162266
0.0156461
0.482882
-0.0521713
0.349934
-0.0112547
0.157339
0.211825
-0.369164
-0.138802
0.383421
0.047671
-0.26059
0.286429
0.152573
-0.439002
-0.431139
0.291246
0.139893
-0.0106887
-0.275324
-0.00673174
0.0110747
0.203212
0.177045
-0.469272
-0.449773
0.173363
0.27641
0.105805
-0.315597
0.209792
0.318368
-0.169925
-0.0902307
0.456968
-0.135099
-0.256752
0.391852
-0.370377
0.373759
-0.224163
-0.390466
0.264877
0.311024
-0.465014
0.18182
0.283194
0.0649897
-0.103174
0.031173
-0.19826
0.167087
-0.0869954
0.078111
-0.221205
-0.18409
0.405295
0.0150584
-0.0251981
-0.249911
0.393881
-0.14397
-0.0606522
-0.240981
-0.113828
0.290803
0.167357
0.264991
-0.43997
0.174978
0.502478
-0.323739
-0.178739
-0.41528
0.454099
-0.038819
-0.261749
0.127394
-0.0924299
0.030991
-0.0905143
-0.0513091
0.158725
-0.165059
-0.482273
0.31268
0.169593
-0.153215
-0.252943
0.406158
-0.230987
0.0450161
0.203235
0.0627558
-0.0757218
-0.119407
0.195129
-0.44525
0.0695226
-0.415711
0.145886
0.269824
0.180809
0.316313
-0.00436124
0.0238266
-0.0194654
-0.160341
-0.0838619
0.244203
0.0344998
0.444222
-0.458448
0.0142261
0.126938
-0.128105
-0.00924895
0.212819
0.245938
0.00247891
0.314642
-0.207455
-0.107188
0.190056
-0.296146
0.10609
0.525811
-0.170699
0.498029
-0.16102
0.0654248
0.0517524
0.196259
0.097697
-0.293956
0.324847
0.157642
-0.482488
-0.0543513
-0.118724
0.173076
0.220574
-0.134101
-0.26155
0.395651
-0.184783
-0.352624
-0.145558
0.365162
-0.219604
-0.241659
-0.163478
-0.136458
-0.254499
0.390957
0.236331
-0.398305
0.161974
0.159724
-0.387587
0.227863
0.0966233
0.250841
-0.347465
0.144863
-0.34397
0.199107
0.209334
-0.195906
-0.0134278
0.338599
-0.354714
0.016115
-0.0879923
0.284252
-0.0111848
-0.276482
0.287667
-0.016815
0.0124538
0.0126475
0.369274
-0.145874
-0.268084
0.0556935
0.0528991
-0.108593
0.320606
-0.294813
-0.0257922
-0.446431
0.268706
0.177725
0.451287
-0.160483
0.322118
-0.459134
-0.121892
0.305979
-0.184087
0.0214499
0.299156
-0.41815
0.45375
-0.0355996
0.123893
0.148484
0.339319
-0.194456
-0.110383
0.294458
-0.184075
-0.0455764
0.109856
-0.0243012
0.238707
-0.521906
0.299498
0.222408
0.233954
0.132511
-0.366464
-0.138986
-0.143013
0.281999
0.210806
0.28535
-0.46222
0.17687
0.16906
-0.0785968
0.285183
0.143619
-0.428802
-0.0816354
0.190443
0.195707
0.013893
-0.398375
0.258047
0.140327
0.270763
-0.429068
0.158305
0.215197
-0.431427
0.21623
0.311678
-0.172034
0.143319
0.00492016
-0.14824
-0.0459011
-0.419433
0.102531
-0.323736
-0.179638
0.12618
0.0122898
0.204956
0.109686
0.308418
-0.202613
-0.366878
0.231731
0.135147
-0.150111
-0.217433
-0.0672884
-0.0720055
-0.160941
0.380731
-0.21979
0.0592068
0.0682878
-0.127495
-0.020006
0.125289
0.265715
-0.394582
0.128868
-0.243361
0.182914
0.0604466
0.109144
-0.425597
-0.0337624
0.45936
0.192795
-0.175605
-0.163118
0.448468
0.372157
-0.222266
0.147257
0.095929
-0.292491
0.196562
-0.282661
0.322988
0.485724
-0.202918
-0.282806
-0.319494
0.454893
-0.1354
0.386137
-0.232767
-0.360583
0.359518
0.492222
-0.39188
-0.153188
0.418179
-0.15957
0.430333
-0.0938599
0.367529
-0.133576
0.281951
0.153999
-0.43595
0.1852
0.0241336
0.282055
-0.188282
0.119518
-0.426274
0.306756
0.133656
-0.117261
-0.199141
-0.201524
0.254807
0.49745
-0.429047
-0.0684029
-0.28812
-0.110255
0.0723228
-0.0197977
0.277996
-0.518355
0.240359
-0.314856
0.44031
-0.125455
-0.255119
0.195139
0.05998
0.501244
-0.320435
0.308819
-0.131425
0.206822
0.106298
-0.31312
0.212304
0.111026
-0.32333
-0.0760108
-0.176769
0.25278
0.268694
0.124979
-0.393673
-0.0145184
-0.161654
0.412395
0.0850552
0.340813
-0.00221476
-0.190629
-0.0111516
0.201781
0.075122
0.00950528
-0.00317501
-0.266775
0.127789
-0.291539
0.475798
-0.0895007
0.324501
-0.235
-0.252649
0.401193
-0.148544
-0.405787
-0.0396312
-0.0678532
-0.187266
0.184397
-0.384224
0.198747
0.274879
-0.473626
0.309082
-0.0179688
-0.291113
-0.381203
0.139544
-0.211007
0.370731
0.421588
-0.029707
-0.22262
0.287115
-0.191186
-0.0523512
0.307293
-0.254942
0.109022
-0.432834
-0.468311
0.329521
0.13879
-0.163143
-0.22041
0.383553
0.267668
0.140086
0.00323351
0.231082
0.071957
-0.303039
0.299285
0.186439
-0.00734659
0.00363617
0.00371042
0.0363539
0.245701
-0.19582
0.491486
-0.295666
-0.00132809
0.0766749
-0.463777
0.0318686
-0.0681234
-0.288847
0.171073
0.492982
-0.241171
-0.0845266
0.291348
0.459057
-0.309094
0.115106
-0.352889
0.237783
0.0793358
-0.156267
0.361322
0.1309
-0.236351
0.135056
-0.0997962
-0.384465
-0.0308156
0.306992
0.138684
-0.445676
0.40493
-0.13509
-0.0941869
0.173352
0.135467
0.230374
0.137945
0.33585
-0.143801
0.454086
-0.311475
-0.142612
-0.418958
0.258153
0.307424
0.00165739
-0.122757
-0.268255
0.391012
-0.0508341
0.106528
0.205706
-0.38879
0.183084
-0.255731
0.0801869
0.175544
0.158167
0.290123
0.354904
-0.149199
-0.141271
-0.32704
0.348874
-0.233768
0.199924
-0.168751
0.330177
-0.0990954
0.248756
-0.0681648
-0.180591
-0.205251
0.0301681
0.175083
0.137865
-0.392061
0.254197
0.221219
-0.375853
0.154634
0.423166
-0.195452
-0.227714
0.179082
0.245741
-0.424823
-0.315093
0.262742
-0.0253754
-0.426292
0.451667
-0.0613395
-0.123388
-0.125014
0.270081
-0.462323
0.135246
0.501052
-0.341105
-0.159948
-0.411025
0.0915318
0.0202617
0.0301203
-0.050382
-0.38353
-0.0508654
0.191246
0.214702
0.22459
0.0216447
-0.246235
0.300298
-0.150072
0.173722
-0.248352
0.427434
-0.20169
0.48832
-0.28663
-0.143256
-0.172482
0.315738
0.126727
0.263366
-0.390092
0.205757
0.345472
-0.115098
0.296382
-0.106326
0.240175
-0.369518
0.129343
0.0577768
-0.222947
0.0903033
-0.176029
0.216217
0.217672
0.136929
0.271423
-0.43705
0.165627
0.269002
-0.439106
0.170104
0.385309
-0.247444
-0.139827
-0.261754
0.401581
-0.317793
-0.178776
0.199724
-0.311211
0.111487
0.155019
-0.287043
0.19069
0.289539
-0.480229
-0.11458
0.0482333
0.066347
0.000256466
0.130934
-0.368659
-0.151141
0.482395
0.222995
-0.182213
-0.0407817
0.0232689
-0.28854
0.265271
-0.186439
0.10341
0.083029
-0.245505
-0.122565
-0.14188
0.264445
-0.0290397
0.0173415
-0.338323
-0.157056
0.495379
0.438064
0.323272
0.173107
-0.0928119
-0.201493
0.286366
-0.437923
0.151557
0.168025
-0.43229
0.10319
-0.184825
0.440326
-0.132382
-0.307944
0.432974
-0.29297
-0.140004
0.192024
0.0309711
0.0500667
-0.00934705
-0.0407196
0.00396998
0.00198482
-0.321911
0.184352
-0.316256
0.172087
0.144169
0.0898857
0.193374
-0.28326
0.201552
0.0865211
-0.288073
0.20631
0.294934
0.529641
-0.219563
-0.310078
0.171973
-0.187463
0.0154892
0.281441
-0.376304
-0.0418461
-0.176124
-0.00197943
-0.00190796
0.163725
-0.237223
0.0734971
0.041246
-0.335312
0.294066
-0.167074
-0.315199
-0.178894
-0.0768366
0.352115
0.0808595
0.247893
-0.337394
-0.0723812
0.372709
-0.132533
0.250329
0.0408298
-0.291159
0.530052
-0.200198
0.258649
-0.134756
0.230196
0.10732
-0.337515
-0.303093
0.352421
-0.0493279
0.256647
-0.246302
-0.0103452
0.251258
-0.399839
0.14858
-0.175401
0.380946
0.417653
-0.110661
-0.217449
-0.304457
-0.285944
-0.202725
0.48867
-7.88764e-05
-0.220762
0.22084
0.433058
-0.164056
-0.0807443
0.309835
-0.229091
0.00758447
-0.0502027
-0.269986
0.382626
-0.112641
-0.0288212
-0.0920896
-0.416815
0.177932
-0.301306
0.342552
-0.0545759
-0.0378539
-0.376783
0.201382
0.236397
-0.362874
0.126478
0.0948224
0.190166
-0.144394
-0.197055
0.28694
-0.172752
0.172674
0.271757
-0.248488
0.0967523
0.206107
0.227483
-0.0304312
0.295161
0.23448
-0.510453
0.186219
0.324235
-0.263541
0.304343
-0.0408025
0.19474
-0.358227
-0.0585874
-0.291453
0.509583
0.314799
-0.115074
-0.422463
0.269249
0.112855
0.206633
-0.369776
0.230879
-0.153769
0.037209
0.0495329
-0.086742
0.248647
0.136408
-0.220318
-0.154167
-0.280214
0.146783
0.252121
-0.398904
-0.159692
0.414269
-0.148554
0.176782
0.178808
0.280249
0.169113
-0.202662
0.0335491
-0.0726037
0.322933
-0.156249
0.378055
0.447249
-0.0453106
-0.210009
-0.0975675
0.307577
0.158075
0.248986
-0.407061
0.404662
0.0328748
0.16705
-0.0253699
0.0456317
-0.165018
-0.227521
0.0166605
-0.0759589
0.269347
0.144922
0.00950822
-0.00835877
-0.0693806
0.0460425
0.0233381
0.00235817
0.0477085
0.138486
-0.0765292
-0.061957
-0.0854316
-0.0099941
-0.325682
-0.314125
-0.15253
-0.132304
0.128406
0.00389804
-0.243945
-0.415586
0.247161
0.250049
0.136646
-0.386694
-0.138922
-0.0377412
-0.225799
-0.157645
-0.137122
-0.376299
0.0348116
-0.358292
0.0251434
0.0413282
-0.188475
0.103392
0.0850822
-0.41303
0.142769
0.270261
-0.136104
0.126434
0.00966969
0.275748
0.0289133
-0.304662
0.427382
0.15034
-0.411418
0.261078
0.127616
0.267192
-0.394808
0.0684546
-0.107112
0.121612
0.374278
-0.4474
0.220355
-0.035155
0.199993
-0.0167214
0.00146544
0.000844484
-0.00798757
0.00025987
-0.0435281
-0.150518
0.194046
-0.0361761
0.216474
-0.180298
0.201497
0.232335
0.00409163
0.254747
0.0018999
0.305493
0.15476
0.194657
-0.340216
-0.217082
-0.104829
-0.00349595
0.117055
-0.11356
-0.00612408
0.222047
-0.0644948
-0.334405
0.306759
-0.401878
0.377609
-0.0517638
-0.0628165
-0.277459
-0.117123
-0.164363
-0.312605
0.169349
0.311249
0.129078
0.435255
-0.419253
-0.0160014
-0.422447
0.171596
0.25085
-0.282684
0.160119
-0.434364
0.20959
0.224774
-0.306601
0.497327
0.304148
-0.155916
-0.148232
-0.280887
0.110717
0.17017
-0.202978
0.00102337
-0.00172084
0.000697472
-0.22755
0.227922
-0.322765
0.0948428
-0.0145183
-0.0430489
0.0575672
-0.209389
0.177386
0.0320026
0.160118
-0.140788
-0.190421
0.331209
-0.0443713
0.351131
0.250509
0.136027
-0.386535
-0.160174
0.425757
-0.265583
-0.235109
-0.233145
-0.188393
-0.275783
0.506706
-0.207795
-0.298911
0.0918526
0.0319633
0.220174
0.15966
-0.379834
-0.161737
0.0253499
0.167445
0.109497
-0.21169
0.102193
0.193772
-0.0217984
-0.304919
0.100494
0.204425
0.195088
0.105377
0.249438
0.157341
-0.40678
0.107794
0.196354
-0.140354
-0.250448
0.390802
-0.25817
-0.151669
0.409839
0.175839
0.112497
-0.331887
0.481432
-0.149545
-0.00643137
0.0841204
-0.077689
0.180176
0.278593
-0.458769
-0.14306
-0.109659
-0.298648
0.408307
-0.255526
-0.173918
0.429444
-0.127852
0.309239
-0.274427
-0.479873
-0.0815302
-0.174427
0.255958
0.256148
0.12709
-0.383238
-0.411912
0.142578
0.328996
-0.0682964
-0.075152
0.269655
0.100229
-0.369883
0.286247
-0.450406
0.164159
-0.0280821
-0.0946319
-0.0113527
0.287101
-0.0527226
0.003567
0.0491556
0.163471
0.0815689
-0.24504
0.452556
-0.291316
-0.16124
-0.427918
0.0960308
-0.0571934
0.0426751
-0.1701
0.142585
-0.282235
0.443998
-0.157752
0.233106
-0.170561
-0.0625449
-0.0850646
0.48538
-0.163262
0.472867
-0.185666
-0.287202
-0.169087
0.461565
-0.292478
0.383212
-0.256485
-0.275624
0.360567
-0.0849428
0.314816
0.132071
-0.446887
0.419957
-0.1482
-0.201496
-0.171108
0.131822
0.267001
-0.398824
0.475527
-0.162408
-0.213624
0.461168
-0.247544
0.180948
-0.43043
0.249482
0.239912
0.266794
0.403513
-0.147365
-0.428789
-0.0103789
0.439168
-0.0407463
0.0455454
-0.0787535
0.0332082
0.218992
-0.406354
-0.0586695
0.0958785
0.415145
-0.2239
0.192858
0.0346251
-0.0238353
-0.419871
-0.0887795
-0.175883
0.161493
0.0143907
-0.00115237
0.000651378
0.000500991
-0.146587
-0.264143
0.41073
-0.177498
-0.124242
0.30174
-0.310959
0.123421
0.00482444
0.249003
0.190473
-0.418046
0.227573
0.406919
-0.260136
-0.144872
0.448078
-0.361309
-0.0158507
-0.167727
-0.0659542
0.101477
-0.0171164
0.106541
-0.0894242
0.110229
-0.335334
-0.487267
0.277476
0.457564
0.497245
-0.345013
-0.152233
0.098866
-0.32839
0.229524
-0.276639
0.393896
-0.117256
0.0459255
-0.0399805
0.177261
-0.13728
-0.103777
0.393298
-0.122714
-0.391546