/*--------------------------------*- C++ -*----------------------------------*\
| =========                 |                                                 |
| \\      /  F ield         | OpenFOAM: The Open Source CFD Toolbox           |
|  \\    /   O peration     | Version:  v2012                                 |
|   \\  /    A nd           | Website:  www.openfoam.com                      |
|    \\/     M anipulation  |                                                 |
\*---------------------------------------------------------------------------*/
FoamFile
{
    version     2.0;
    format      ascii;
    class       volVectorField;
    location    "350";
    object      U;
}
// * * * * * * * * * * * * * * * * * * * * * * * * * * * * * * * * * * * * * //

dimensions      [0 1 -1 0 0 0 0];


internalField   nonuniform List<vector> 
18758
(
(1.00673 -0.00594601 0)
(0.975757 -0.0351512 0)
(1.00426 1.46546e-05 8.34256e-22)
(1.00624 -0.00549277 8.86709e-22)
(1.02211 8.55302e-05 1.22767e-22)
(1.00713 8.44604e-05 -3.08086e-23)
(1.01557 -0.00463677 -3.23555e-21)
(1.02483 -0.0159141 0)
(1.0208 0.000649563 0)
(1.01824 0.00254546 -1.03493e-21)
(0.975719 -0.0150394 -4.96556e-22)
(0.880298 0.18278 -3.2827e-21)
(1.04953 0.0707261 0)
(1.03246 -0.0145215 0)
(1.015 -0.0044431 5.49136e-22)
(1.01251 -0.00201098 -1.46574e-21)
(0.888377 0.196564 4.11244e-22)
(1.0114 0.000920017 -1.24724e-23)
(1.01486 -0.00415093 0)
(1.01718 -0.0180569 -2.85069e-22)
(0.933886 -0.097023 3.8782e-22)
(1.09454 -0.226454 3.09415e-20)
(1.00678 5.66786e-05 -6.13309e-23)
(1.00692 0.000102216 -1.41225e-22)
(1.09267 -0.248224 -1.74716e-20)
(0.925361 -0.22849 6.74193e-21)
(0.878117 0.294306 -8.88065e-21)
(0.964324 0.0382065 1.41599e-20)
(0.992925 -0.0855294 0)
(0.956782 -0.0660647 -3.34337e-22)
(0.855446 -0.0245932 -2.00243e-20)
(0.883691 0.300569 -3.89374e-21)
(1.02472 -0.0153273 -2.55621e-21)
(1.05597 -0.293991 -8.981e-22)
(1.02397 -0.00148846 -1.15756e-21)
(0.94962 -0.0635705 0)
(1.02897 0.0800434 0)
(1.02317 -0.00169757 -1.23037e-22)
(0.796714 -0.0668489 0)
(1.01433 0.00107504 -1.82097e-23)
(0.879732 0.0538142 4.4088e-22)
(1.01631 0.00466081 -5.64831e-22)
(0.952898 0.114773 3.53235e-22)
(1.01337 0.00235974 0)
(1.00976 -0.000669727 0)
(0.964279 -0.134529 0)
(1.01523 0.00282783 1.23927e-21)
(0.984226 -0.0778899 -1.45042e-21)
(0.213764 -0.107222 -7.61458e-20)
(1.00535 0.00077431 8.67343e-22)
(0.966461 -0.00701209 0)
(0.714246 -0.313613 4.01496e-21)
(1.00536 0.000761716 -8.94753e-22)
(1.00677 -0.00906557 -2.45761e-22)
(1.05883 -0.16811 5.49109e-22)
(1.05462 0.0606943 2.33658e-21)
(1.01343 0.000728011 5.15167e-22)
(1.01685 -0.0177502 2.78694e-22)
(0.988121 -0.0695893 2.66225e-21)
(1.01336 0.000722016 -4.51001e-22)
(1.00926 -0.000625525 0)
(1.01357 0.00258734 -3.34524e-22)
(0.872743 -0.311319 -1.82125e-21)
(0.591979 0.217955 5.75921e-21)
(1.00906 -0.000614002 0)
(0.98325 -0.270007 -6.25706e-20)
(1.00656 -0.000167643 0)
(1.011 0.000732415 2.37137e-22)
(0.968412 0.0430148 -1.70924e-22)
(1.01144 0.000924462 1.00238e-23)
(0.67114 -0.318557 -8.03932e-21)
(0.906 -0.246433 2.74512e-21)
(1.0133 -0.00478268 -3.13142e-23)
(1.02363 -0.0215703 -1.81457e-22)
(1.06607 -0.0469414 1.93456e-21)
(0.855914 0.003932 4.49952e-20)
(0.92819 -0.261952 -7.08308e-21)
(0.907401 0.237459 0)
(1.01993 0.00236724 0)
(0.963873 0.128951 -1.64669e-21)
(1.03811 -0.117888 -1.76321e-20)
(0.830438 -0.0276721 1.1591e-20)
(0.905655 0.2259 0)
(1.04402 -0.0286914 -1.44459e-22)
(1.01226 0.00327382 -8.70457e-22)
(1.05867 -0.153847 4.48327e-20)
(1.04813 -0.0219033 0)
(1.02428 -0.0216364 3.97926e-22)
(0.870706 -0.30736 -4.90046e-21)
(1.06567 -0.149481 -3.03492e-20)
(0.359858 -0.358699 7.17696e-21)
(1.00934 -0.000430344 5.62423e-22)
(1.05108 -0.0967769 0)
(0.243348 -0.112594 5.73647e-20)
(1.01322 -0.00454768 -6.06923e-22)
(1.0083 -0.000734107 7.44372e-22)
(1.01286 0.00116785 6.59128e-23)
(1.01613 -0.0656619 -1.66396e-20)
(0.890288 0.240498 -2.18026e-21)
(1.01128 -0.00340509 0)
(0.949138 -0.0707276 0)
(1.01577 -0.0274666 -6.63559e-22)
(1.01103 0.000740686 2.24442e-22)
(1.00827 -0.000771491 -8.53994e-22)
(1.00239 -0.281369 -3.4224e-20)
(0.941982 -0.098846 2.4741e-22)
(0.985949 -0.0807259 -1.80331e-21)
(0.403582 -0.356946 0)
(0.91711 -0.23102 -1.60762e-21)
(0.885973 -0.0574003 1.07137e-21)
(1.01292 -0.00190538 0)
(0.61058 0.244979 -4.69773e-22)
(1.00458 0.00631833 1.34491e-21)
(1.00556 -4.23351e-05 -7.25389e-24)
(1.0147 -0.0274744 -1.42581e-21)
(0.81597 0.0781605 -1.91898e-20)
(1.01393 -0.065233 7.77617e-21)
(1.01237 0.000425438 3.97283e-22)
(0.689842 0.0230438 0)
(1.01031 0.00420705 0)
(1.006 -3.45538e-05 4.06571e-22)
(0.913039 -0.266749 4.49726e-21)
(1.0117 0.00363659 8.93343e-22)
(1.01016 0.0003215 0)
(-0.0452644 0.0661644 5.95316e-21)
(1.00683 -0.00972366 2.58071e-22)
(1.0124 0.00144574 6.58173e-22)
(1.01017 0.000303992 -2.82119e-22)
(0.957221 -0.126172 2.58657e-22)
(-0.0847271 0.18034 -3.39385e-20)
(0.989074 -0.0698683 1.86188e-21)
(1.00675 -0.000246982 0)
(1.02405 -0.0196939 0)
(0.735827 -0.294878 2.14653e-20)
(1.01439 0.00102924 0)
(1.00612 -6.41954e-05 -6.3436e-22)
(0.872846 -0.309611 -2.13919e-21)
(1.01075 0.00288125 1.98865e-22)
(0.904853 -0.0202174 -5.30755e-21)
(1.03389 -0.118563 1.49202e-20)
(1.00445 0.00920499 1.36937e-21)
(0.878351 -0.00378083 9.7488e-22)
(1.03216 -0.0597358 -6.75006e-21)
(0.913279 -0.249868 0)
(-0.053316 0.0853721 1.40543e-21)
(1.05536 -0.0716668 0)
(0.943994 -0.275325 3.51886e-21)
(0.970807 -0.118636 -1.02136e-20)
(0.976445 -0.0181473 4.98995e-22)
(0.58135 -0.166235 -6.98593e-21)
(-0.0640929 0.184388 -2.5118e-20)
(-0.0530243 0.140275 6.57675e-20)
(1.02518 -0.00473948 2.12711e-21)
(1.02479 -0.00350679 1.73654e-23)
(0.88194 0.0736151 -5.20533e-22)
(0.809933 0.246651 0)
(1.04705 -0.0963168 0)
(0.957131 -0.13383 5.92694e-21)
(1.0417 -0.0380258 5.11999e-22)
(0.972261 -0.0329423 0)
(0.350281 -0.281716 -9.33999e-21)
(1.01113 0.000280933 1.78546e-22)
(0.251236 -0.0312878 5.83422e-20)
(0.953155 -0.284734 -2.59068e-20)
(1.10446 -0.236529 -2.15768e-20)
(1.01362 -0.000160582 0)
(1.01107 0.000303558 -2.55219e-22)
(0.333412 -0.333465 1.06093e-20)
(-0.0808454 0.178385 3.02108e-20)
(0.870727 0.131888 6.49928e-21)
(0.00556308 0.113474 -2.46865e-20)
(1.00342 1.3472e-05 -1.26997e-21)
(0.983451 -0.0911509 0)
(0.879242 -0.0733854 7.99001e-23)
(0.899098 -0.218402 -1.58779e-21)
(1.01078 -0.00258208 -5.55541e-22)
(1.01329 -0.00448205 1.95615e-22)
(0.957608 -0.214936 -5.29823e-21)
(1.04738 -0.284703 0)
(1.03447 -0.00681197 0)
(1.01017 0.000653935 -2.2267e-22)
(1.00792 -0.0129765 -2.51212e-22)
(1.05231 -0.167966 1.65319e-20)
(1.03901 -0.0102394 -8.7147e-21)
(0.448233 -0.20881 -1.19512e-21)
(1.01728 -0.00278275 -4.22281e-21)
(0.957265 -0.0745187 4.07612e-24)
(0.993788 -0.0194705 -1.96412e-21)
(0.313811 -0.140923 -2.01469e-20)
(1.14906 -0.216078 0)
(-0.0481368 0.144732 -9.1037e-20)
(1.01709 -0.00281495 3.65192e-21)
(0.989726 0.00838427 2.24728e-21)
(0.992446 -0.21574 -2.76958e-21)
(1.01003 0.000545924 1.38624e-22)
(1.03718 -0.0105349 3.74084e-21)
(0.886718 -0.0118716 0)
(1.02474 -0.00450141 0)
(0.35044 -0.158591 -3.08687e-20)
(1.00637 6.98182e-05 -2.38566e-22)
(1.01164 0.00349944 6.20969e-22)
(0.94888 -0.140822 0)
(1.08666 -0.114085 -1.36967e-21)
(1.01241 -0.0016082 4.72289e-22)
(1.01301 -0.00203173 0)
(0.312654 -0.0751096 -7.1487e-20)
(1.01138 -0.00059136 3.87358e-22)
(1.02549 -0.00279076 2.61589e-23)
(-0.0744304 0.186979 0)
(-0.083723 0.179524 1.99067e-20)
(1.0047 2.77385e-05 -2.16814e-22)
(1.0407 -0.0960344 0)
(1.01106 0.0034473 -6.07217e-22)
(1.00931 -0.00161317 6.16166e-22)
(1.01624 -0.0157421 2.14484e-23)
(1.01295 0.00114143 -6.41938e-23)
(1.01235 -0.000655762 1.00795e-21)
(1.04214 -0.0969706 0)
(1.00808 0.000125338 3.79413e-23)
(0.889632 -0.00743996 2.42014e-22)
(0.986421 -0.211479 3.5302e-21)
(1.01172 0.000193025 6.89286e-22)
(1.03006 -0.0606614 8.15564e-21)
(0.942351 -0.130686 1.99438e-21)
(1.09807 -0.106334 2.0885e-21)
(0.901909 -0.122252 0)
(1.06673 -0.0515942 -1.98408e-21)
(1.08346 -0.144608 -2.08955e-20)
(0.332064 -0.305893 9.93291e-21)
(1.01119 -0.000616119 8.21971e-22)
(0.918118 -0.222813 5.94003e-21)
(1.05245 -0.0704203 2.75926e-21)
(0.900652 -0.209713 -1.69448e-21)
(1.00587 -8.42073e-05 6.25108e-22)
(1.01013 -0.00160207 5.59284e-24)
(1.0119 -7.54544e-05 6.55149e-24)
(1.07645 -0.00288559 -2.25817e-21)
(0.124696 -0.0663924 -1.81642e-20)
(0.866132 -0.003894 0)
(1.02245 -0.0121103 -1.14374e-22)
(1.01329 -0.00225918 -9.72035e-22)
(1.07134 -0.0116915 2.22239e-21)
(0.92325 -0.0280186 0)
(1.00425 3.57645e-05 0)
(0.535862 -0.191935 -4.4955e-21)
(0.86166 -0.103711 0)
(1.01023 -0.00158692 -4.13872e-22)
(1.00813 -0.000252262 -2.25367e-22)
(1.01493 -0.00144296 -2.15984e-22)
(1.01127 -0.00335726 -7.3846e-23)
(0.018423 0.0951032 6.75754e-20)
(1.01215 0.00157659 1.02758e-21)
(0.989427 -0.0614297 2.60397e-22)
(1.0117 -5.48788e-05 6.26458e-24)
(1.00543 2.90123e-05 -2.19606e-23)
(0.831257 -0.0223908 0)
(1.01374 0.000182115 4.06837e-22)
(0.899834 -0.249926 -6.51926e-22)
(1.0131 -0.000898315 0)
(0.918679 0.31141 -3.21317e-21)
(1.00347 0.00518797 -4.74227e-23)
(1.01044 0.00034259 1.28479e-21)
(1.01037 -0.00161037 3.49601e-22)
(0.99519 0.00749044 -3.38663e-21)
(0.774036 0.297616 -1.6049e-21)
(0.780839 0.30384 -1.35799e-21)
(1.01052 0.000297424 -1.47284e-21)
(0.910921 -0.028601 0)
(1.02558 -0.00438465 -6.5736e-21)
(1.01225 -0.00440091 0)
(0.646794 0.0482399 -7.37534e-21)
(0.905742 -0.324734 -2.31969e-20)
(1.01222 -0.00450328 0)
(1.0108 -0.000486178 -8.48616e-22)
(1.01825 -0.000700668 8.45448e-23)
(1.01603 -0.0152819 -8.52577e-23)
(1.02756 -0.0230961 -8.33846e-22)
(1.00842 0.000153277 0)
(1.00899 -0.00220273 1.99763e-21)
(1.03171 -0.0150076 1.02858e-20)
(1.00804 -0.000292856 0)
(1.006 -0.000176283 6.68884e-24)
(1.01369 -0.00213909 5.99044e-22)
(0.905429 -0.289562 -5.13533e-20)
(1.01536 -0.00443933 7.4455e-22)
(1.01067 -0.000469873 3.74873e-22)
(1.01044 0.000571123 -3.9326e-23)
(0.927126 -0.0306141 0)
(1.00827 -0.000704895 4.74751e-22)
(1.00822 -0.000708587 0)
(1.00358 1.40565e-05 0)
(1.03358 -0.00886252 -1.38821e-20)
(1.01328 0.000836263 3.061e-22)
(1.00605 5.89085e-05 1.71005e-22)
(1.00472 2.81431e-05 -6.06821e-22)
(1.0165 -0.00294746 4.52058e-22)
(0.898506 -0.11885 6.78618e-22)
(1.00906 -0.000383297 -7.17351e-22)
(1.00635 7.00343e-05 -7.97172e-23)
(-0.032867 0.0394623 0)
(1.03907 -0.0198391 0)
(1.00633 4.23441e-05 3.78915e-22)
(1.00622 4.75713e-05 0)
(0.833005 -0.266506 1.88645e-20)
(0.991398 0.0286721 2.60117e-22)
(1.01019 0.000651311 -3.34598e-22)
(0.997271 -0.00822094 0)
(0.945816 -0.10979 -4.13308e-23)
(1.01441 0.00268653 3.51766e-22)
(1.05928 0.0539221 0)
(1.01387 -0.00201404 -3.34529e-22)
(0.763105 0.3264 7.59679e-21)
(0.895454 -0.0213588 6.11657e-21)
(0.958398 -0.0326665 0)
(0.998816 -0.0892694 0)
(1.06525 -0.283836 -3.11174e-20)
(1.01087 0.000754839 0)
(0.854756 -0.314622 8.76957e-21)
(0.926634 -0.140071 1.32054e-21)
(1.00658 -0.000192133 0)
(0.963888 -0.027638 0)
(1.04173 -0.0359729 0)
(0.570256 -0.149834 0)
(1.00996 -0.00186614 -6.67258e-23)
(1.01085 0.000752304 2.27601e-22)
(-0.085969 0.181305 0)
(0.889587 -0.121842 3.31312e-22)
(1.00945 -0.000492214 0)
(-0.0246544 0.0385276 3.87655e-20)
(1.06134 -0.0112124 0)
(1.01041 0.0138294 0)
(0.670467 -0.292965 -1.65151e-20)
(1.0099 -0.00167653 3.77041e-23)
(1.01381 -0.000161522 -8.52789e-22)
(1.0133 -0.000914209 -7.6596e-22)
(1.00556 -2.63879e-05 8.98793e-25)
(1.01293 -0.00974053 0)
(1.01325 0.00506618 -4.60044e-22)
(1.02537 -0.0156143 -2.99193e-21)
(1.01161 -0.000630582 -1.50828e-21)
(1.01326 -0.00963605 1.20283e-23)
(1.02339 -0.0116173 -2.8208e-21)
(0.846165 0.307261 -2.69286e-21)
(0.815078 -0.28005 2.32669e-20)
(1.01051 0.00204665 -5.03466e-22)
(0.852239 -0.316026 -1.69347e-20)
(0.889395 0.245099 5.9418e-21)
(1.00934 -0.00046478 0)
(1.04045 -0.042667 3.43013e-21)
(0.992007 0.0435854 1.68765e-22)
(1.11499 -0.225322 -6.26302e-20)
(0.886718 0.0507182 -5.55932e-22)
(0.902964 0.0454099 0)
(1.01721 -0.0025484 1.15769e-21)
(-0.00537612 0.0471534 -5.39995e-20)
(0.898595 0.292191 5.09016e-22)
(0.988212 -0.00982422 -1.48198e-22)
(1.02344 -0.0116276 2.59643e-21)
(1.01239 0.0113385 0)
(1.00939 -0.00285774 -1.68138e-23)
(1.01284 0.00201905 -3.44753e-22)
(0.876683 -0.0110147 0)
(0.969613 -0.235237 3.92554e-21)
(0.904239 0.0999044 1.98712e-22)
(1.07506 -0.066304 0)
(0.97441 -0.249278 -3.57984e-21)
(1.01024 -0.00161249 -1.45268e-22)
(1.04012 -0.0256656 -4.17189e-21)
(1.00758 -0.0138025 0)
(1.0105 -0.0626895 -1.09972e-21)
(0.151948 -0.0747257 3.99413e-20)
(0.852335 0.0761178 9.20407e-21)
(0.887665 -0.189807 0)
(1.06033 0.0838957 6.00401e-21)
(0.881781 0.0230782 0)
(0.899417 0.0527364 7.45868e-21)
(1.00513 4.84722e-05 2.49829e-24)
(1.04497 -0.273196 6.01867e-20)
(0.97034 -0.128317 4.14497e-22)
(0.97783 0.0118437 -4.26493e-22)
(0.910986 0.127132 0)
(1.00707 -0.00022356 0)
(1.00706 9.5524e-05 -2.25951e-23)
(1.1007 -0.225958 1.94195e-20)
(0.890895 0.0948234 -1.32373e-21)
(0.999936 -0.0370741 0)
(0.61302 0.0546606 1.85543e-20)
(-0.039097 0.0612802 -3.47347e-20)
(1.02301 -0.0119714 2.51836e-21)
(0.873686 0.173002 2.49043e-21)
(0.881821 -0.0506906 0)
(1.0127 -0.00201751 1.52419e-21)
(1.03046 -0.0148227 0)
(1.0144 -0.0146329 0)
(1.01817 0.00181222 0)
(1.00608 -5.22193e-05 -4.62621e-22)
(1.00929 -0.00310551 5.95084e-22)
(1.01917 -0.00250442 1.94183e-22)
(1.00525 -0.000151667 0)
(1.00449 3.35603e-05 0)
(1.01405 -0.00105478 -2.41069e-22)
(1.02626 -0.0157954 0)
(0.890804 0.135054 0)
(1.04904 -0.0326113 0)
(0.787553 -0.172438 0)
(0.798106 -0.184631 -1.56276e-20)
(-0.0460907 0.114204 -4.21091e-21)
(0.926929 0.17143 -2.2701e-20)
(0.956694 -0.112202 2.48686e-21)
(1.01564 -0.00240557 -2.14794e-22)
(1.00679 9.47473e-05 1.21939e-22)
(0.941125 0.11767 -4.49151e-22)
(1.02987 -0.0146992 2.80513e-21)
(1.02194 -0.0122585 -1.8277e-21)
(0.87799 -0.295092 0)
(1.00974 -0.0625801 1.00745e-21)
(0.919975 0.00744444 -2.12427e-21)
(1.01383 0.000312072 0)
(0.843249 0.303187 2.1829e-21)
(1.00977 -0.000679539 0)
(1.03906 -0.0204381 0)
(1.0101 0.000626069 2.20805e-22)
(0.457422 -0.187976 -5.36936e-20)
(0.761356 0.322201 1.47524e-21)
(0.878007 0.0457771 1.39251e-21)
(1.00467 3.77671e-05 3.08382e-22)
(0.628381 -0.285822 -1.46315e-21)
(1.05786 -0.0949968 0)
(1.01313 -0.000702212 -2.8907e-23)
(1.01816 0.00167403 -2.97209e-22)
(1.00453 2.71394e-05 3.10614e-22)
(0.888993 -0.178998 1.17664e-22)
(1.0046 7.33856e-06 -1.41493e-22)
(1.00604 6.38686e-05 -8.32346e-22)
(1.0935 -0.198043 -1.0494e-21)
(1.05014 -0.032381 3.34113e-21)
(1.02234 -0.0123055 -3.50228e-21)
(1.0132 -0.00426755 -8.04107e-22)
(1.02387 -0.0152168 0)
(1.02506 -0.0177234 0)
(0.694292 0.323763 2.10798e-21)
(0.918744 -0.00802119 3.06418e-21)
(1.00302 1.60063e-05 -1.1575e-22)
(1.02893 -0.272321 3.98842e-20)
(1.01012 0.00060969 -1.93503e-22)
(1.01265 0.00637806 4.85878e-22)
(1.08509 -0.141896 2.78104e-21)
(1.01596 -0.000422735 -3.2132e-21)
(0.885708 -0.132395 -2.98894e-20)
(1.00289 3.73263e-05 1.2182e-22)
(1.02507 -0.0176758 -1.03549e-21)
(1.00418 3.28288e-05 0)
(0.876171 0.0696301 0)
(1.01699 -0.00411453 1.32634e-21)
(1.01884 -0.0027082 -8.87431e-22)
(0.0591145 -0.0270918 3.30684e-20)
(0.985242 0.0311177 -2.64272e-22)
(1.01063 0.000658096 0)
(1.03882 -0.026186 0)
(1.0167 -0.00688737 -1.70855e-21)
(1.01248 -0.00173072 -5.01458e-22)
(1.00577 3.06119e-05 0)
(1.01238 -0.000409971 0)
(0.816209 0.263732 7.20288e-21)
(0.202076 -0.327055 0)
(1.02595 -0.00721265 1.87779e-21)
(1.02094 -0.0364661 -5.98311e-21)
(0.960609 -0.260183 8.76878e-22)
(0.952229 -0.212285 4.31891e-21)
(0.885752 -0.189033 -6.86541e-21)
(0.85981 -0.0974661 -2.10321e-21)
(0.883843 -0.188937 6.24385e-21)
(1.01199 0.000524249 0)
(0.960876 -0.0980051 2.67565e-21)
(1.06369 -0.00344778 1.46818e-21)
(1.02837 -0.0193578 -6.39877e-22)
(1.02428 -0.0152597 0)
(0.885127 -0.0211881 9.42618e-22)
(0.998882 0.0336333 -7.17195e-22)
(1.00651 0.0095402 1.52193e-21)
(1.00681 4.03529e-05 4.42775e-22)
(1.01556 -0.00466136 2.32223e-21)
(1.00841 -0.000752822 2.25038e-22)
(1.01581 -0.000460616 -1.00972e-21)
(1.00838 -0.00072418 1.36381e-22)
(1.01538 -0.000209419 2.07047e-21)
(1.09853 0.0232197 6.02934e-24)
(1.0039 1.2537e-05 -4.61825e-22)
(1.00989 0.000530186 3.20202e-22)
(1.06438 -0.0926978 0)
(1.00659 -0.000233101 -9.43437e-23)
(1.00395 1.19803e-05 0)
(1.01434 0.00115771 -1.45822e-22)
(1.01603 -0.00624164 -9.8349e-22)
(1.00213 0.0359912 0)
(0.912991 -0.0881313 -8.86149e-23)
(1.01144 -0.000627011 1.30862e-21)
(0.967596 -0.00574462 8.23402e-22)
(1.00632 6.14945e-05 4.96372e-23)
(1.04569 -0.0334641 1.16413e-20)
(1.01017 -0.155406 5.69915e-21)
(0.165611 -0.290869 9.06907e-21)
(1.05154 0.0899429 -5.97428e-21)
(1.01257 -0.00085889 0)
(1.01748 -0.00245937 7.18267e-22)
(0.189636 -0.31602 5.07497e-22)
(0.68781 -0.286125 -2.41451e-20)
(1.01324 0.0196762 -3.72664e-22)
(1.01367 0.000578316 4.70579e-22)
(0.894588 -0.00352338 0)
(0.901502 -0.279557 1.14575e-21)
(1.01055 0.000606218 3.65082e-23)
(1.00681 8.67384e-05 -3.98558e-23)
(0.365705 -0.254326 -1.97788e-20)
(1.01689 -0.0164066 1.41992e-23)
(1.0284 -0.118494 1.49895e-20)
(1.01683 0.0174338 3.06081e-22)
(1.01928 0.00114289 5.20291e-22)
(1.01971 -0.03455 -2.38628e-21)
(1.00821 -0.000297419 4.57016e-22)
(1.0105 -0.00227872 4.43884e-22)
(1.01013 -0.000454057 0)
(1.00565 3.1253e-05 9.52941e-24)
(1.01106 -0.000551015 -7.41683e-22)
(1.00975 -0.000627024 2.08134e-22)
(0.874898 0.178819 0)
(1.00937 0.000418095 0)
(0.92504 0.0179989 0)
(0.955363 -0.256246 -7.50251e-21)
(1.01076 0.00070304 0)
(1.00947 0.000447223 0)
(1.00321 7.66327e-06 -1.59922e-23)
(1.03279 -0.0255609 2.39164e-21)
(1.00572 -0.0237004 1.56062e-21)
(0.91553 -0.0198886 0)
(1.01136 -0.00356638 0)
(1.15864 -0.198637 -5.04418e-21)
(1.0249 -0.0170616 -5.6832e-22)
(1.02863 -0.0199382 6.62336e-22)
(1.01189 0.000508499 3.72752e-22)
(1.01371 -0.000783945 4.93284e-22)
(1.01558 -0.00183796 -2.15214e-22)
(1.02564 -0.00797239 -1.0288e-21)
(1.02557 -0.00767281 2.28425e-21)
(0.0210204 -0.0708472 1.78503e-20)
(0.449088 -0.230023 0)
(1.00799 -0.000250038 0)
(1.01091 -0.000552066 1.63149e-24)
(1.03293 -0.0085712 1.36068e-20)
(0.324178 -0.343133 5.69522e-21)
(1.0102 0.000650069 -2.09794e-22)
(1.0132 0.0011865 0)
(1.0152 -0.000184208 1.98447e-21)
(1.0099 0.000530386 6.11166e-24)
(1.01045 -0.000405617 0)
(1.01183 0.000432221 -3.42468e-22)
(1.01462 -0.0134833 -6.54023e-24)
(1.01244 -0.00185661 9.44577e-22)
(0.982885 -0.0652353 0)
(1.01138 -0.00356126 4.98052e-25)
(1.01476 0.000891141 0)
(1.05165 0.0452928 0)
(0.155096 -0.275521 -1.25488e-20)
(1.00989 0.00795858 3.56098e-22)
(1.0123 0.00144337 0)
(1.01105 -0.00305812 1.59734e-22)
(1.00348 1.998e-05 2.72819e-22)
(1.01338 -0.00383532 -4.71181e-22)
(1.01014 0.00286816 2.97276e-24)
(0.954444 -0.001818 0)
(0.968863 0.0408366 8.97348e-22)
(1.03392 -0.00779947 1.06029e-20)
(0.895617 -0.145164 9.35636e-24)
(1.01096 -0.00298584 -1.68536e-22)
(1.04078 -0.0455987 3.84754e-21)
(1.01285 0.00176866 -5.06745e-22)
(1.0063 7.14421e-05 -2.49895e-22)
(1.04904 -0.0730814 1.67036e-21)
(1.01144 0.000908002 -1.6453e-23)
(1.00545 4.71087e-05 3.13728e-22)
(0.872834 -0.266061 6.17213e-21)
(1.0043 2.92798e-05 -6.28913e-22)
(1.03724 -0.0107795 2.20124e-21)
(1.06674 -0.0708376 0)
(1.0058 4.50669e-05 -7.11511e-22)
(1.01633 -0.00328046 -1.13216e-21)
(0.417693 -0.171543 4.17043e-20)
(1.01232 0.000438106 4.1875e-22)
(1.10986 0.0017975 0)
(1.00851 0.0250165 0)
(1.00586 4.12763e-05 2.21906e-22)
(1.00419 2.81934e-05 0)
(1.04065 -0.0286731 1.58762e-22)
(1.02322 -0.0163161 1.70382e-21)
(1.00492 -0.0217827 -8.57541e-22)
(1.01068 -0.00247454 -4.92894e-22)
(0.923286 0.30282 3.57173e-21)
(0.874255 -0.145654 2.15585e-22)
(0.890004 -0.188414 6.16951e-21)
(1.00835 -0.000356337 9.91385e-22)
(-0.0298593 0.0441042 1.59298e-20)
(1.00978 0.000438051 0)
(1.00472 2.00586e-05 -2.67848e-22)
(1.01168 -0.00376627 0)
(1.00705 0.00599094 1.55019e-23)
(1.1418 -0.215321 0)
(1.03868 0.0630435 -6.25425e-21)
(1.01229 -0.000811931 -7.93564e-22)
(1.03786 -0.00968315 2.17871e-22)
(1.01122 0.00410391 -8.27346e-22)
(0.85322 0.335703 -1.5442e-21)
(0.907793 0.00835442 0)
(1.01108 -0.00155741 -2.85919e-22)
(0.996225 -0.0151981 0)
(1.03698 -0.0211127 0)
(0.0820164 -0.0342727 0)
(1.02438 -0.0201424 0)
(1.01691 0.0211784 0)
(1.00932 -0.000696686 -6.19671e-24)
(1.00788 0.00741931 -3.64671e-22)
(1.00529 -0.0588296 -4.01068e-21)
(1.00579 4.34717e-05 -2.38585e-22)
(1.00937 -0.000660318 -5.85541e-24)
(1.01017 0.00065942 0)
(1.00894 -0.000364675 5.69059e-22)
(1.02592 -0.0207192 1.87462e-21)
(0.936874 -0.0108004 0)
(0.987769 -0.0549869 9.43006e-23)
(0.888198 -0.282416 -9.12233e-21)
(1.0191 0.020934 5.89254e-22)
(1.01844 -0.00634333 -1.56142e-21)
(1.01167 -0.003804 6.33665e-23)
(1.0079 -0.000182122 0)
(0.917964 0.0350997 7.88146e-22)
(1.109 -0.228017 4.15682e-20)
(1.01447 0.00106025 1.33144e-22)
(1.02522 -0.0594933 7.87482e-21)
(-0.0626159 0.148147 2.43435e-20)
(0.0129565 -0.0560737 2.47947e-20)
(1.00393 2.28288e-05 0)
(1.00454 5.89136e-05 3.05488e-23)
(1.04567 -0.033086 0)
(0.926237 -0.165166 0)
(1.00978 0.000424514 0)
(1.0058 0.0443006 -2.63655e-22)
(1.01172 -0.00390119 1.28417e-22)
(1.00523 -0.000169489 0)
(1.04153 -0.0363906 -1.14263e-20)
(1.01308 -0.000683662 -8.01391e-22)
(1.026 -0.00745786 -5.36234e-22)
(1.01446 0.0037348 -3.20145e-22)
(1.00809 -0.000468254 0)
(1.01699 0.0023509 0)
(0.930373 -0.0207024 -2.55506e-21)
(1.04695 -0.0712004 1.19293e-20)
(0.911897 -0.00173558 -9.58942e-21)
(1.0094 -0.00138932 -6.1539e-22)
(1.0106 -0.0004418 -4.57046e-22)
(0.747657 0.0480109 -8.837e-21)
(1.01334 0.0011731 3.71851e-23)
(0.646945 0.0309086 4.41025e-21)
(0.867653 0.155004 0)
(1.01173 -0.00388754 0)
(0.876219 -0.300569 0)
(1.01681 0.00492464 -1.6167e-22)
(1.01228 0.00154801 3.66891e-22)
(0.885947 -0.309802 -5.57464e-21)
(0.877983 -0.098203 3.34182e-23)
(0.887568 -0.101577 -6.6375e-23)
(0.781503 0.284187 -1.3052e-21)
(1.02306 -0.0158287 0)
(0.898701 0.301944 4.06838e-21)
(1.00927 0.000374555 -3.46201e-22)
(1.08161 -0.267093 0)
(-0.0405984 0.0978294 2.08561e-20)
(0.991005 -0.00724037 -3.35844e-21)
(1.01182 -0.000382798 -6.11207e-22)
(0.859583 0.101274 -1.42067e-20)
(1.03636 -0.0203628 0)
(1.02123 -0.0617058 -5.9167e-22)
(0.8936 -0.116223 -1.71493e-21)
(0.476803 0.0256023 -2.6347e-21)
(1.02398 -0.00458049 -4.57601e-23)
(0.873204 0.229374 0)
(1.00608 6.20021e-05 5.92654e-22)
(1.02218 -0.056933 1.31553e-21)
(0.989181 -0.0921056 0)
(1.00658 4.24981e-05 2.58589e-22)
(1.02552 -0.0289944 0)
(0.926543 -0.253566 6.08475e-21)
(1.11046 0.00933479 0)
(1.01979 -0.0218114 6.39057e-22)
(1.01477 -0.013733 -1.55351e-22)
(1.01003 0.000546548 0)
(1.02385 -0.0115003 0)
(1.01629 -0.00360985 -9.27611e-22)
(0.993967 -0.0196783 3.61531e-21)
(1.08059 -0.0312664 -1.16743e-21)
(1.01093 -0.000440863 0)
(0.760571 0.0639674 1.08351e-20)
(1.01789 -0.00647593 1.84986e-21)
(1.01222 -0.00433236 7.41627e-22)
(1.04475 -0.0257835 -2.53399e-21)
(1.00939 0.000423746 0)
(1.01794 -0.0106272 0)
(1.01356 -0.00219154 -6.14347e-22)
(1.00901 -0.000374546 0)
(0.487434 -0.192062 5.59034e-21)
(1.00791 -0.000207372 -6.62147e-22)
(1.0089 -0.00233271 -6.81503e-22)
(0.96323 0.134003 0)
(1.05609 -0.093956 -4.63083e-21)
(1.07364 -0.0958024 5.50452e-21)
(1.01779 -0.00204602 -1.81928e-21)
(1.01225 -0.00476012 -5.88546e-23)
(1.00199 -0.00811937 -1.59009e-21)
(1.01238 -0.00523121 0)
(0.925741 -0.15963 1.74138e-21)
(1.04022 -0.0189748 0)
(1.01732 -0.0166116 -4.09842e-24)
(1.02906 -0.013232 3.08941e-22)
(1.01215 -0.00394343 6.24322e-22)
(1.00996 0.000496111 -1.52832e-22)
(0.332477 -0.315948 -7.05487e-21)
(1.00945 0.000443668 5.97388e-23)
(0.345069 -0.273898 0)
(0.934936 -0.147689 -3.56068e-21)
(1.0345 -0.00760414 1.1697e-22)
(0.560389 -0.344668 -8.0028e-21)
(1.00691 8.88137e-05 -3.02255e-22)
(1.00955 0.0116721 3.8175e-22)
(1.01953 -0.0214398 -2.67937e-23)
(0.879814 0.402871 -2.04264e-20)
(1.0416 -0.0173966 1.28424e-20)
(0.932246 -0.00453977 2.07753e-21)
(0.887652 0.134378 -2.1481e-21)
(1.00453 4.8174e-05 2.02414e-22)
(0.972971 0.146512 0)
(1.00768 0.000111211 0)
(0.892318 -0.105123 3.11629e-21)
(1.01233 -0.00521597 0)
(1.02535 -0.00962344 0)
(0.874147 -0.346374 -2.60823e-20)
(0.933052 0.120592 0)
(1.0132 -0.00206493 0)
(1.01479 -0.00828243 -3.74492e-22)
(1.02425 -0.015407 0)
(1.00917 -0.000111588 -1.02944e-21)
(1.01753 -0.00200412 0)
(0.893679 0.0122629 6.12473e-22)
(0.181642 -0.253835 2.07289e-20)
(1.01197 -2.33069e-05 0)
(1.00904 -9.95833e-05 0)
(1.00766 0.000111537 0)
(0.746002 0.352016 0)
(1.04527 0.0649735 -2.50744e-21)
(1.0306 0.032734 1.13578e-21)
(1.00812 -0.000422328 2.05738e-25)
(0.991822 -0.00800305 6.83078e-22)
(1.02493 -0.00975813 -2.44239e-24)
(1.01226 -0.00464726 0)
(1.04755 -0.0336288 0)
(0.890136 0.239204 3.60084e-21)
(1.01114 -0.00146741 5.30446e-22)
(1.02704 -0.0583661 -1.59305e-20)
(0.893987 -0.0413229 1.12334e-22)
(1.01734 -0.00014067 0)
(0.987781 0.0386734 -1.05062e-21)
(1.01868 -0.00427571 -4.99467e-21)
(1.02429 -0.0191895 1.12174e-21)
(1.01109 -0.0013003 0)
(1.01237 0.000391196 -2.20267e-22)
(1.03816 -0.02661 1.5088e-20)
(1.01228 -0.00416777 -7.8252e-22)
(1.00639 -0.0591753 -4.82162e-22)
(1.01559 -0.000514575 -9.79419e-22)
(0.794779 -0.293992 -2.26094e-20)
(1.00707 -0.000269496 0)
(1.04022 -0.0193062 3.32405e-21)
(0.991908 -0.0847681 -5.1624e-22)
(1.09239 0.0381231 -6.09537e-24)
(1.02098 -0.0567793 0)
(1.00633 8.87928e-05 0)
(1.01212 -0.00385475 -9.01664e-22)
(0.877687 0.0980543 0)
(0.988028 -0.00167525 0)
(1.02414 -0.054535 0)
(1.00873 -0.000975414 2.21864e-22)
(1.0111 -0.00323941 -8.55805e-23)
(1.02426 -0.0209198 -2.91304e-22)
(0.128175 0.132481 -1.86371e-20)
(0.940793 0.144261 9.37667e-22)
(1.01196 4.7142e-05 0)
(1.01308 -0.00235927 0)
(1.0208 -0.0125808 1.3966e-21)
(1.01477 -0.00798916 -2.0508e-22)
(1.01542 0.00354925 -3.33197e-22)
(1.01284 -0.00403707 7.21262e-22)
(1.00577 2.77384e-05 6.52131e-25)
(0.88791 -0.189255 -6.63035e-21)
(1.01358 -0.00217859 0)
(1.01656 -0.00351278 0)
(0.879288 0.0999892 0)
(1.0084 -0.000298588 0)
(0.854439 -0.1086 0)
(1.00598 0.0347593 -6.86981e-21)
(0.854051 0.323088 0)
(0.618029 -0.12142 0)
(0.871352 0.0125832 2.39119e-21)
(0.164911 -0.235892 -1.17557e-20)
(1.0131 -0.00401768 -2.33452e-22)
(1.01121 -0.00335452 2.76736e-22)
(1.01485 -0.0152902 -1.96817e-22)
(1.01186 8.58401e-05 5.65915e-22)
(1.01117 -0.00193182 0)
(1.00694 5.68837e-05 -4.62074e-22)
(1.00649 4.8176e-05 -1.01041e-21)
(1.02377 -0.0111464 6.13036e-23)
(0.534537 0.163507 -5.3519e-21)
(1.01516 -0.15762 9.62203e-21)
(0.899219 -0.0275467 -1.46525e-22)
(1.01885 0.00291597 1.5759e-22)
(1.01091 -0.00303139 0)
(1.0244 -0.0168708 9.67102e-23)
(1.02674 -0.0158897 0)
(0.998496 -0.00144831 2.41939e-21)
(1.00395 2.36925e-06 0)
(1.00946 0.000123803 -6.71532e-22)
(1.0123 0.000445067 -2.15462e-22)
(0.200213 -0.182948 -4.35706e-20)
(1.00088 -0.186356 0)
(0.899804 -0.231099 0)
(1.00595 -0.000131811 0)
(0.9815 -0.0878421 -1.5597e-21)
(0.958872 -0.111361 1.89381e-21)
(0.992519 0.033861 -9.205e-22)
(0.0995363 0.135135 -1.91546e-20)
(0.869342 0.241511 0)
(1.01601 -0.0129722 0)
(1.01825 -0.00122915 -1.22801e-22)
(1.01484 0.000835161 0)
(1.03532 -0.289054 -2.74406e-20)
(1.0184 -0.0085714 -1.40133e-21)
(1.00966 0.000351407 -2.76097e-22)
(0.973988 -0.0329442 0)
(0.925693 0.296895 -8.42861e-21)
(1.01291 -0.00343459 7.23435e-22)
(0.99475 -0.0619901 2.70182e-22)
(0.922208 -0.022924 -1.67152e-21)
(1.01402 -0.00195759 4.01415e-22)
(1.01212 -0.00376982 -1.06904e-22)
(1.0142 -0.00178111 0)
(1.01096 -0.00251574 -4.14067e-22)
(1.0151 -0.00480251 0)
(1.01682 -0.0039506 -1.88004e-21)
(1.02409 -0.0260849 9.97534e-22)
(1.01414 -0.00509836 0)
(1.01829 -0.00868539 1.52201e-21)
(0.848071 -0.261349 0)
(0.168717 -0.16339 5.0781e-20)
(1.01457 -0.00409497 -1.39133e-21)
(0.884488 -0.048489 0)
(1.00925 -0.225976 1.8872e-20)
(1.01196 -0.00890506 0)
(1.0116 -0.000931371 8.06073e-23)
(1.01187 7.15521e-05 1.43632e-22)
(1.00786 0.000132836 -3.88627e-23)
(1.01242 -0.0128474 -1.03018e-22)
(1.01193 -0.00881025 2.01405e-22)
(1.00532 4.78834e-05 0)
(1.02524 -0.00821863 4.60079e-21)
(1.01626 -0.00406753 4.66945e-22)
(1.01969 -0.00839727 1.91131e-21)
(0.870511 -0.344158 2.39454e-20)
(1.02659 -0.0225829 -2.78479e-21)
(1.00601 2.76198e-05 -5.04801e-22)
(1.01084 -0.00243598 0)
(0.858333 0.0919438 2.06027e-20)
(1.02444 -0.00471758 3.05808e-21)
(1.00977 0.000389198 2.82073e-22)
(0.895011 0.341423 1.57258e-20)
(1.01138 -0.00188741 5.65781e-22)
(1.02035 -0.0328676 -1.396e-22)
(1.03717 -0.0267982 -1.81198e-20)
(1.01676 -0.00330184 -1.22056e-21)
(1.00864 -0.000941794 1.697e-22)
(1.00949 -6.67756e-06 6.35238e-22)
(1.01666 -0.0185572 -1.97767e-22)
(1.05637 -0.0558811 6.15361e-21)
(1.00558 2.61811e-05 5.15239e-22)
(0.865668 0.00388141 1.53029e-21)
(0.993947 -0.000432163 1.89692e-21)
(0.959015 -0.0968486 4.25697e-22)
(0.875623 0.243524 -2.48262e-21)
(1.02063 -0.0120603 -1.48391e-21)
(1.05839 0.0342376 -1.14893e-21)
(1.00936 0.000402722 4.46843e-22)
(0.892274 -0.00896115 0)
(1.03415 -0.00865481 4.60454e-23)
(1.01078 -0.00232675 -7.48801e-22)
(1.00623 -0.169585 0)
(0.820934 -0.0112861 -1.01668e-20)
(1.01226 -0.00477427 -1.6332e-23)
(0.881869 -0.15381 -1.28379e-22)
(0.900793 -0.230925 -6.04755e-21)
(1.0072 0.000111853 0)
(1.04147 -0.0352411 0)
(1.0099 0.000427075 -3.16853e-22)
(1.01246 -0.000426697 6.83826e-22)
(1.02558 -0.0214845 -3.94581e-21)
(1.01289 -0.00302945 -7.78756e-22)
(1.00704 -0.000224897 -4.08717e-22)
(1.01685 0.0226931 0)
(1.01071 -0.00172719 1.61021e-24)
(1.01075 -0.000390928 -1.30013e-21)
(0.890703 -0.205228 8.19208e-21)
(1.01232 0.000643931 -3.37171e-22)
(1.01116 -0.00198312 6.76408e-23)
(1.00868 -0.000971807 0)
(0.909747 -0.327487 2.77847e-20)
(1.01078 -0.00248865 0)
(1.01113 0.000739952 0)
(1.02416 -0.025919 3.34036e-21)
(1.10544 -0.12377 0)
(0.973828 -0.123396 -1.02116e-20)
(0.844463 -0.0221673 1.67294e-20)
(0.879054 0.207005 0)
(1.01059 -0.00240168 -5.05687e-22)
(1.00965 0.000488861 9.7823e-23)
(1.01698 -0.00324653 1.30524e-21)
(0.475308 0.0464787 0)
(1.00428 1.858e-06 -4.77254e-22)
(1.00988 -0.00159107 0)
(1.0321 -0.017527 -2.25898e-21)
(1.01208 0.00056956 6.4096e-22)
(0.889506 -0.0951377 -1.15419e-21)
(1.01952 -0.00881277 -4.25058e-22)
(1.02212 -0.00626593 0)
(1.00931 -0.160799 0)
(1.01235 -0.00370697 2.85974e-22)
(1.06271 -0.092944 -5.6141e-21)