/*--------------------------------*- C++ -*----------------------------------*\
| =========                 |                                                 |
| \\      /  F ield         | OpenFOAM: The Open Source CFD Toolbox           |
|  \\    /   O peration     | Version:  v2012                                 |
|   \\  /    A nd           | Website:  www.openfoam.com                      |
|    \\/     M anipulation  |                                                 |
\*---------------------------------------------------------------------------*/
FoamFile
{
    version     2.0;
    format      ascii;
    class       surfaceScalarField;
    location    "250";
    object      ddtCorrDdt0(phi);
}
// * * * * * * * * * * * * * * * * * * * * * * * * * * * * * * * * * * * * * //

dimensions      [0 3 -2 0 0 0 0];
oriented        oriented;


internalField   nonuniform List<scalar> 
27688
(
-0.000299569
0.000144423
0.000155121
0.000691165
-0.00102595
0.000334792
-0.000165096
0.000183734
-1.86497e-05
0.000193132
0.000176235
-0.000369364
-2.24668e-05
0.000216516
-0.000194054
-0.000486061
0.000478404
7.65439e-06
-0.000955575
3.79142e-05
0.000917687
-0.00112926
0.00155625
-0.00042699
-0.00158489
0.00152397
6.09863e-05
-0.00220238
0.00251675
-0.000314362
0.000162757
-0.000185222
-0.000136338
0.000212755
-7.64173e-05
1.41039e-05
2.33698e-06
-1.64407e-05
0.000108107
-0.000244622
0.00013652
7.0714e-05
-0.000124842
5.41325e-05
-0.000534021
4.79775e-05
0.000247341
-0.00021334
-3.3981e-05
-0.000163599
-0.000135976
-5.14435e-05
0.000135227
-8.37781e-05
0.00260652
-0.000580975
-0.00202556
0.000156311
-8.55979e-05
-0.00241018
0.00315394
-0.000743764
3.52117e-05
3.43928e-05
-6.95933e-05
-0.000231635
9.53047e-05
-0.00174915
0.00173638
1.27644e-05
-0.00179376
0.000208904
-0.000895088
0.000454548
0.000440537
0.00167841
-0.0017431
6.4598e-05
-0.00329337
-0.000588868
0.00388217
-2.99506e-06
-0.000162102
-0.000163809
3.92925e-05
0.00012451
-0.000153845
0.000204135
-5.0287e-05
-0.00193413
0.00227216
-0.000338027
-5.47757e-05
0.000127892
-7.31151e-05
-0.000501666
0.000536011
-3.43086e-05
0.00121118
-0.0022247
0.00101352
1.13813e-05
0.000118303
-0.000129682
-0.00161773
-0.000140629
0.00175839
0.000725117
-0.00185437
6.07632e-05
-2.55497e-05
-0.00204758
0.00201579
3.17926e-05
0.00150995
-0.00207846
0.000568498
0.00071995
-0.000380686
-0.000339261
0.00227304
0.000193332
-0.00246637
0.000479493
0.000264954
-0.000744457
0.00118517
-0.000949888
-0.000235281
0.000194631
0.00143512
-0.00162975
0.000886118
0.000862299
-0.00174841
-0.000354263
0.000348205
6.08293e-06
-0.000870247
0.00142085
-0.000550596
-0.000464462
-0.000430633
-0.000370988
-2.15201e-05
0.000392508
-0.0021626
0.000406031
0.00175659
-0.00157772
0.00230339
-0.000725652
-0.000854813
0.00180009
-0.000945287
0.000250089
-0.00186782
-0.000746422
0.00091106
-0.0001647
0.00216771
-0.00201673
-0.000150986
-0.00203171
-1.58664e-05
-0.0023545
0.00266256
-0.000308039
0.000930978
-0.000818425
-0.000112547
-0.0014431
0.00116603
0.000277073
-0.000502697
0.000148446
8.341e-05
-8.38407e-05
4.30527e-07
0.000519553
-0.000555774
3.61786e-05
0.0012068
-0.000452346
-0.000754535
-0.000777864
-0.00157663
0.00118646
-0.000723569
-0.000462888
1.51247e-06
1.25918e-05
-0.00194351
-8.82139e-05
0.00177951
-0.00108726
-0.000692236
-0.000115454
6.40009e-05
0.000297707
-5.26233e-05
-0.000245087
0.002414
-0.00197209
-0.000441886
0.00144501
-0.001445
-0.000527812
0.00173897
-2.43443e-06
0.00017575
-0.000173319
0.000304158
-0.0001055
-0.000198677
-6.19382e-05
4.80538e-05
1.38894e-05
0.00110423
0.000102571
0.000563626
-0.000252777
-0.000310848
-0.000109661
5.48855e-05
-0.000211639
-3.91621e-05
0.000250799
-0.000496579
5.67328e-05
0.000439846
0.000684865
-0.00309504
-0.000100027
-5.73146e-05
0.000157339
-0.000674778
0.000525581
0.00014916
0.00210578
-8.99962e-05
-0.00120129
-0.000241763
0.000343704
-0.00122077
0.000877089
-0.000109334
-8.03793e-05
0.000189709
0.000381964
0.000549023
-0.00162669
-0.000200119
0.00182682
-1.86899e-05
4.24162e-06
1.44427e-05
0.00042934
-0.000194531
-0.000234809
0.000626543
0.00130631
-0.00193291
0.000196321
0.000130642
-0.000326935
0.00187962
-0.0016332
-0.000246412
-5.60567e-06
7.18814e-05
-6.62775e-05
0.000605374
-0.00203479
0.00142942
0.000940313
-0.00181056
0.00628505
-0.00169915
-0.00458593
-0.000408921
0.000255071
0.000772078
-0.00239874
-0.00394525
0.000651853
0.000921609
-0.000970022
4.84522e-05
0.00083983
-0.00258876
1.72488e-05
-7.1788e-05
5.45379e-05
-0.0011435
0.00177001
-4.15928e-05
-0.00110193
-0.00213279
0.0023994
-0.000266637
-0.00121758
0.00119122
2.63646e-05
-0.0017454
0.00194004
0.00227303
-6.13925e-05
0.000211857
-0.000150443
-3.7106e-05
3.60175e-05
1.08784e-06
-0.00132753
0.000372031
-0.000150952
0.000344087
-0.00096447
-0.00119817
-0.00244001
0.00244001
0.000659428
-0.000472059
-0.000187366
-0.000548294
0.000101813
0.000446467
-0.00136856
0.000857838
0.000510715
-0.000223619
0.00032881
-0.000105169
0.000978346
-6.61534e-05
-0.000912174
-0.000159706
-0.000930433
0.00109017
-0.000959945
0.000831185
0.000128772
0.00047105
4.85113e-05
-0.00189085
0.000386467
0.00150426
-0.0021448
0.000410805
0.001734
-0.000796892
-0.000326365
0.00112326
-0.000904759
0.00147957
-0.000574826
0.00216221
0.000444307
-0.000876996
0.00013058
-0.000187594
0.000121541
6.6057e-05
0.000280804
0.000832501
-0.00111328
-9.26848e-05
-1.17623e-05
0.000104452
-0.00204701
-8.57893e-05
0.00307708
-0.00180772
-0.00126935
-0.00025394
0.000191799
6.2154e-05
-0.000138975
0.000385137
-0.000246156
-0.0011878
0.00114625
-3.68045e-05
-2.51326e-05
-7.85818e-05
1.89656e-05
5.96182e-05
9.09148e-05
-0.00130851
-0.000194499
0.000133108
-2.77363e-06
-1.09589e-05
1.37314e-05
0.000151124
-0.000362765
5.46734e-05
-6.0279e-05
0.000121094
-0.000201677
8.05833e-05
0.00209662
-0.00145339
-0.000643217
3.63248e-05
-0.000226197
0.00018988
0.00287802
-0.000367687
-0.00251033
0.000246397
6.57481e-05
-0.000312139
-0.000482212
-0.000886348
-0.000609605
0.000470636
-0.00135015
0.000400125
0.000950024
0.000556432
-0.000422254
-0.000134167
0.000315967
-0.00020528
-0.000110677
-0.000197107
0.000723828
0.000254521
-0.00232543
0.00256536
-0.000239935
-0.00263482
0.00354909
-0.00091426
0.00113229
-0.000277099
-0.000855168
5.19084e-05
-0.000157152
0.000105241
-0.000785072
0.000698323
8.67676e-05
-0.000397389
-9.91968e-05
0.00158556
-0.00133478
-0.000250792
0.000162269
-0.000316171
0.000153919
0.00168135
0.000198256
1.35387e-05
4.12134e-05
-5.47631e-05
-0.00225469
0.000320561
-0.00151394
-0.000150438
0.00166433
0.000515736
-9.80029e-05
-0.000417752
0.000322018
0.000397929
5.70651e-05
-0.000286851
0.000229787
-0.000223934
-0.00274636
0.00297022
-0.000132134
0.000378535
2.81358e-05
-5.35221e-05
2.53853e-05
-0.000517268
-0.000283301
0.000800549
0.000884849
0.00121178
0.000517041
-0.00101869
0.00255154
-0.000873134
-0.000351188
0.000128306
0.000222883
3.94217e-05
-6.44315e-05
2.50105e-05
0.00227813
-0.00120399
-0.00107412
0.00065856
0.000473736
-0.00613777
0.00464418
0.0014936
-0.000455278
-0.000219487
-0.000130794
0.000238891
9.4564e-05
-0.000142813
4.8265e-05
0.000489354
-0.000718266
0.000228918
-0.000599012
-0.000186075
0.000197324
5.0017e-05
-5.39667e-05
1.71654e-05
0.000812702
0.000508941
-0.00132164
-0.000210065
-4.38749e-05
3.25138e-05
0.00143026
0.000251105
-0.00168137
0.000803734
-0.000324259
9.28909e-05
-0.00025261
0.000180147
-0.00131695
0.00113682
0.00253524
-0.00193213
-0.000603085
-0.000418684
0.00184894
-0.00212399
0.00190004
-0.000732494
0.000636443
9.60445e-05
0.000421734
-0.000873611
0.000451887
-1.35153e-05
0.00629855
4.96617e-05
-7.64265e-05
2.67649e-05
-9.8192e-06
4.56829e-05
-3.58626e-05
-0.000218208
-0.000687835
0.000906053
-0.000195418
-2.27307e-05
-0.000499854
-6.75372e-05
0.000567404
-9.14692e-06
6.37324e-06
4.14407e-05
0.00026754
-0.00030899
0.000260369
-3.41205e-05
-0.000226246
-0.00189357
0.0016456
0.000247956
0.000889721
0.00230136
-0.00319096
0.000451826
-0.00046103
9.21551e-06
0.000251372
-0.000340189
8.88051e-05
0.000282284
-0.000161196
8.14039e-05
-0.00182487
0.00143211
0.000392759
9.75868e-05
0.000193788
-0.00029136
-0.00208531
-1.16438e-05
0.00209696
0.000185486
-0.000133574
-0.000326732
-0.000221552
0.00107329
-0.00184065
0.0007673
-0.000827202
-0.00106368
0.000490949
0.000695516
-0.000341626
0.000140433
0.000201193
-0.000197591
-0.000664204
0.000861786
-4.11207e-05
5.83677e-05
-0.000187871
-0.000531702
1.44231e-05
7.81458e-06
5.09431e-05
-5.8756e-05
0.000243436
-5.60946e-05
-0.000187349
-0.000103705
0.00176956
-0.00166586
0.00195427
-0.000552743
0.000808527
-0.000255785
-0.000232736
0.000923888
-0.000480068
0.000109088
-4.28425e-05
9.6122e-05
-5.32627e-05
0.00146657
-0.000861198
-6.60633e-05
0.00223378
-0.00168478
-0.00120703
0.00289181
-0.00117076
0.00198347
6.27429e-05
-5.49269e-05
0.00193691
-0.0020285
9.15614e-05
-0.000395259
0.000325138
7.01146e-05
1.251e-07
-1.88162e-05
-0.00235422
0.0022516
0.000102626
-0.00143931
0.000758132
-0.0016629
0.00158518
-0.00127183
-0.000313371
-0.000702105
-0.000257833
0.00161277
-0.00134691
-0.00026588
-4.48508e-05
0.000115233
-7.0381e-05
6.50259e-05
6.25534e-06
-7.12815e-05
0.000302474
-5.1115e-05
0.000317856
-0.000105981
0.000111196
-0.00200476
0.00262611
0.000128377
-0.000139297
1.09303e-05
-0.00234352
0.00277232
-0.000428808
-0.00138571
-9.1489e-05
0.00147722
-0.00106481
0.00192935
-0.000864542
-0.000273911
0.00113622
-8.87515e-05
0.000132459
-4.3773e-05
0.000824428
0.000144394
-0.000968845
-0.000894036
0.00196728
-1.25026e-05
-8.01816e-05
-0.000107687
0.000429643
-0.000321966
0.000153687
0.000164179
-6.66264e-05
8.01708e-05
0.00056898
5.79354e-05
-0.000626912
-0.000961329
0.000442098
0.000519239
-0.000329453
0.000191891
0.000137532
4.16435e-05
-0.000332178
0.00029053
-0.00094449
-0.000880384
1.3541e-05
-0.000104627
9.10879e-05
-0.000449707
-0.00133616
0.00178585
-0.000207577
0.000314847
-0.000107262
1.60162e-05
0.000260631
-0.000276606
0.00215262
-0.00119951
-0.000953109
-0.000315414
-7.98463e-05
-0.000162472
-3.79458e-05
0.00020041
0.0012215
0.000934373
-0.00215571
-0.00102813
0.000879035
0.000149097
-0.00180822
0.00107584
0.000732404
-0.000123909
-6.37129e-05
0.000187621
0.00134167
-0.000296061
-0.0010456
-0.000149693
-0.000165012
0.000314714
0.000880714
0.00199731
-0.00025042
0.00118017
-0.000929775
-0.000720329
0.00123598
0.000295742
0.000133605
0.000442823
-0.00146223
0.00101939
-0.0024468
-0.00018801
-9.91893e-05
-0.000204471
0.00030367
0.00261869
-0.00034057
-1.00328e-05
9.34381e-05
-0.000633788
0.000239241
0.000394535
-0.000172455
-0.000560039
-8.98429e-05
3.70599e-05
5.27808e-05
6.70238e-05
-1.73608e-05
0.00023669
-4.96055e-05
-0.000187092
-0.000484418
0.00104043
-0.00055601
-0.00196628
-0.00135121
1.05952e-06
-0.00240909
0.00219632
0.000212792
1.33032e-05
5.17214e-05
0.00332995
-0.00946765
-0.000208979
0.000306571
4.54607e-05
-0.00028905
0.000243597
-0.000145452
-6.46042e-05
0.000349014
-0.000333001
0.000980699
-0.00209767
0.00111698
0.00202653
-0.001891
-0.000135526
0.000299779
-0.00145626
0.00115656
-1.2457e-05
3.3092e-06
0.00200617
-0.0011213
-4.28036e-05
-2.14455e-05
6.42453e-05
-0.000746161
0.000926313
-0.000319836
5.78918e-05
0.000261952
0.00255646
-0.00238049
-0.000175945
0.000918954
-0.000260363
-0.000262
0.00011655
-0.000264383
0.000653087
-0.0003887
0.000997725
-0.000243462
-0.000754148
-0.000191166
-2.85066e-05
0.000219705
-0.000147598
-0.000102756
0.000128183
0.000108499
0.000261505
-0.000216051
-0.000760293
0.0010411
7.29862e-05
-8.47433e-05
-0.00359788
0.00229135
0.00130653
-0.000580859
8.10037e-05
0.000128344
-0.000681108
0.000646946
-0.00240287
0.00175593
-0.000259305
0.00123979
-0.000980493
0.000246701
7.47956e-05
-0.000321504
0.00219132
0.000885731
-0.000696775
-0.000937442
0.00163425
-4.37048e-05
-4.61366e-05
0.00042742
-0.000758823
0.000331416
-0.000493653
0.000259476
0.000234192
-0.00107758
1.37771e-06
0.0010761
0.00117522
0.00016644
2.36595e-05
-6.16831e-05
1.78807e-05
4.38064e-05
-0.000238464
7.37334e-05
0.00016472
0.000669339
-0.00146548
0.000796122
-6.3434e-05
-1.77778e-05
8.12222e-05
-0.000326579
0.000182135
0.000144444
5.741e-05
-1.79855e-05
-9.96491e-05
5.68413e-05
0.000915912
-0.000480558
0.000256957
0.000217539
-0.000325227
0.000141028
-9.13395e-05
-4.96907e-05
0.00137462
0.000778007
0.00164699
-0.000137068
-0.00188525
0.00173891
0.000146349
-0.00039212
3.11306e-05
0.000360994
0.00081043
-9.68766e-05
5.40388e-05
0.000281332
1.63812e-05
-0.000288922
-0.00191347
-0.00147354
0.00136982
8.21721e-05
-0.000191508
-0.000292002
0.000142311
0.000633178
0.000574351
-8.02053e-05
-0.000494141
-6.81319e-06
-5.64351e-06
9.47611e-05
0.000209399
-0.000546706
0.000253655
0.000292974
0.00037063
8.11904e-05
9.09084e-05
-7.73684e-05
0.00467914
-0.00466928
0.00010121
-0.000797971
3.75105e-05
-4.73545e-05
9.84311e-06
4.46311e-05
-0.000207111
-0.000601694
0.000337329
0.000782544
-0.00236031
-9.01961e-05
-1.28446e-05
0.000103041
0.000127918
-0.000439324
0.000311394
0.00160307
-0.000605302
5.12708e-05
-0.00146257
0.00101286
-0.00031066
0.000178532
-7.5107e-05
-2.24431e-05
9.756e-05
0.000419111
-0.00187247
-0.0001101
-7.90379e-05
1.73624e-05
-0.00221076
0.00148573
0.000724942
-0.000902994
8.457e-05
0.00149574
-0.00167966
0.000183906
-1.0591e-05
-5.00502e-05
6.06424e-05
0.000545623
-0.00103003
-0.000113755
-0.000178246
-0.00229347
0.000496795
0.00179667
0.00138351
-0.000355124
-0.00102839
0.00104523
-0.00132279
0.000277559
-1.39548e-05
9.37051e-05
-7.975e-05
-0.00112705
0.000849981
-8.90304e-05
7.65305e-05
-0.000204114
0.00026084
-0.000752494
0.00173321
-5.82614e-05
-0.000136249
-0.000168114
0.000323216
-0.000155108
3.75048e-05
-8.40487e-05
7.00963e-05
-6.80406e-05
-0.000170416
-0.000266735
-0.000130637
-0.00023945
0.00197593
-0.00173649
3.49104e-05
-1.32744e-06
-3.35851e-05
-0.000748986
0.000375957
0.000372997
4.74406e-05
0.000508992
4.26437e-05
-2.48274e-05
1.50103e-05
0.000514443
-0.000129299
0.00116596
-0.000340076
-0.000825887
-0.000379073
0.000644022
3.35727e-06
-9.3558e-05
-0.000552858
0.00263083
-0.00207802
-0.00157559
-0.000972234
0.00106315
-0.000167972
0.00278422
-0.00261625
0.00138314
-8.46619e-05
9.56115e-06
6.44654e-05
5.07629e-05
8.14662e-05
0.00110369
-5.99809e-05
-2.12438e-05
8.12221e-05
7.23151e-05
-0.000146406
7.4085e-05
0.000596637
0.000227795
0.000224908
-0.000227351
9.6377e-05
-0.000307842
0.00021146
-5.52157e-05
-0.000421115
0.000476332
-0.000817927
0.00109075
-0.000272797
2.9818e-05
0.000519858
-0.000549671
0.0014841
-0.00165208
-0.000239785
0.000296846
-0.00038493
-0.000823083
0.00120802
0.000798463
-0.00199797
-0.000304293
0.000135864
-6.82787e-05
-6.75788e-05
0.00237466
-0.00205557
-0.000319069
-0.00109231
0.00114187
-4.95534e-05
7.17244e-05
-7.99507e-05
8.21517e-06
-0.00080062
0.000201596
2.63058e-05
0.000234071
0.00242601
-0.00424328
0.00181725
-0.000341524
5.28365e-05
0.000288696
4.22612e-05
4.34408e-05
-8.56979e-05
-0.000451149
-4.15504e-06
-0.000196114
0.000137848
0.000149505
0.00016647
3.81943e-05
0.000275353
-0.000313528
-0.00209734
0.00206214
3.51589e-05
0.00122254
-0.000177319
0.000511137
-0.000966334
0.000455194
0.00259463
-0.00069076
-0.00190381
-7.34417e-05
1.85131e-06
7.15856e-05
-0.00097854
0.000353924
0.000624695
-0.000347767
0.000478389
-2.91198e-05
7.13801e-05
-3.31454e-05
3.31358e-05
-0.000673491
0.000755886
-8.23687e-05
-7.23183e-05
-3.29725e-05
0.0001053
0.000829956
-0.000318815
6.77091e-06
-0.00042902
0.00012318
-0.00109542
-0.000248188
-0.000406135
0.000654335
3.67219e-05
-0.000958393
0.000921666
-0.000809661
-0.00053294
0.00134263
1.61923e-05
0.000498256
0.000768663
0.000595233
-0.0013639
-0.000580558
-0.00182852
7.30162e-05
-0.000264187
-0.00128385
-0.000926808
-0.00021881
0.000132911
8.59119e-05
-0.00151409
0.00216103
0.000727575
0.000142049
-0.00257143
0.00258086
-9.5143e-06
-0.000219039
-0.00191599
-0.000186811
0.000570449
-0.000383638
-1.44812e-05
0.000925553
-0.00101825
0.000928386
8.98562e-05
-0.00173166
0.00126524
0.00046646
0.000627327
-0.000259478
0.000300924
-1.88713e-05
-0.000270188
-0.000517954
-0.00112485
0.00164281
-0.00156564
0.00278691
-0.00122127
-0.000970125
-0.000823633
0.00123213
-0.0023761
0.00114405
0.000122361
-0.000341181
-4.08635e-05
-0.000278974
-7.61528e-05
8.62404e-05
-1.00867e-05
-7.10215e-05
0.000169957
-9.89379e-05
-0.000935305
-1.71883e-06
0.000483712
0.000899794
-0.00122803
-0.000431324
0.00014626
0.000285049
-4.35606e-05
0.000179435
0.00183345
-0.00287068
0.00416022
-0.00128937
-0.00118779
-0.00103692
-0.000142941
7.73874e-05
6.55521e-05
-0.000578582
0.00134724
0.000370409
0.000778819
-0.00114923
-0.000194223
0.00062164
0.000144556
-0.000119263
-2.52908e-05
0.000180284
0.000432054
-0.000612343
-0.000317645
0.000298787
-0.000840423
0.00132091
-0.000480482
0.000247341
-0.000397791
0.000150461
-0.000410621
0.000242512
0.00011921
2.53468e-05
-3.33562e-05
0.00215836
-0.00212498
0.000299399
-0.000363045
6.36328e-05
-0.00024568
6.1379e-05
0.000184315
5.21524e-05
0.00138826
-0.0012248
-0.000163417
-5.42612e-05
1.45652e-05
3.96758e-05
-0.000661927
-0.00177808
5.28511e-05
7.27155e-05
-0.000125561
0.0002626
-0.00209435
0.00183175
0.00113563
0.0018428
-0.00297842
0.000205118
-0.000796345
-4.28604e-06
-0.00154542
0.000351957
0.00119347
4.48877e-05
0.000156038
-0.000200928
-0.00101563
0.000112648
-7.6148e-05
-0.000138025
6.022e-05
7.78068e-05
0.000169066
-0.000268269
-0.00125915
0.00154027
-0.00028118
0.000492026
-0.000363643
0.000559767
0.00411936
-0.000440073
0.00166161
-0.000109118
5.09568e-05
5.81586e-05
-7.59651e-05
-1.75267e-05
9.34877e-05
-0.00113094
0.00218683
-0.00105584
-0.000491713
-0.00121933
0.00171109
3.89195e-05
-2.25448e-05
-1.63686e-05
9.085e-05
-0.000298419
0.000125696
-7.04184e-06
-0.000118651
-0.0017113
0.00106471
0.000646562
0.0017393
-0.00461006
-0.000174227
7.41991e-05
0.00126364
-0.00209094
-8.58605e-05
0.000126698
-4.08348e-05
-0.00161743
0.00161742
8.67627e-05
-8.49205e-05
-0.00168627
0.000805758
0.000880517
2.10715e-05
-0.00156649
0.00306892
-0.00168768
-0.00138134
-0.000490932
0.000619255
0.00142568
0.000948972
-0.000920253
0.000876693
-0.000214615
-4.4682e-05
0.000259297
0.00182489
0.000178461
-0.00200332
-0.00110335
-9.87949e-05
0.000218634
-0.000119839
-8.74056e-05
0.000218383
-9.0202e-05
-8.06838e-05
4.32849e-05
3.73986e-05
-0.00146755
0.00226602
2.96938e-05
-7.85982e-05
4.89009e-05
0.000646619
-0.00184486
0.00119826
0.00314473
-0.00191258
-7.00984e-05
-0.000812584
0.00111235
0.00150147
-0.00124932
-0.000252181
-0.000429224
-0.00154285
-0.000122779
4.66864e-06
0.000118114
1.22699e-05
0.000191884
-0.000204142
0.000128765
-9.89718e-05
-0.000704983
-0.000256342
4.32453e-05
1.01182e-05
8.1879e-06
-1.83073e-05
-0.000129468
6.69052e-06
-5.73364e-05
-2.5927e-05
8.3271e-05
-7.27549e-05
7.61136e-05
0.00058183
-0.000238113
0.00128509
-0.00278553
0.00150049
8.0373e-06
7.32706e-05
-8.13035e-05
8.14601e-05
5.95671e-05
7.93362e-05
0.000188192
0.000101228
-8.98529e-05
0.000387219
-0.000862421
0.000874695
0.00155124
-0.00116478
0.00148239
0.000357528
-0.00183992
-0.000501129
9.12931e-05
0.000409854
1.93875e-05
7.21469e-05
-9.15405e-05
-7.78627e-05
-6.7903e-06
-0.000166804
-0.000710208
-0.000153245
0.000199613
-4.6364e-05
-0.000172888
0.000309322
-0.000337832
-5.13186e-05
-2.93637e-05
-0.000236241
-0.000365449
4.98844e-05
-2.17499e-05
-0.000935899
0.000594382
0.00212957
0.00216287
-0.00429245
0.000581887
-0.00113094
0.000549062
-0.00087505
0.000494368
-0.00107818
-0.000249332
-0.00655728
0.00809373
-0.0015365
-4.399e-05
1.71885e-05
2.68018e-05
0.000965637
-0.00151348
0.000749666
0.000763818
0.00012815
0.000186694
-0.00141644
0.00049619
-0.000303118
0.00048341
4.11947e-06
-7.68746e-05
-0.00210742
0.000175293
0.001037
-0.000121371
0.000166263
-0.0020702
0.00142862
0.000641523
3.15879e-05
0.000212777
-0.000244378
-0.000329214
0.000154798
0.000174407
0.000591428
-0.00104255
-3.36412e-05
-2.06257e-05
9.73061e-05
0.000214225
-0.000311538
0.000239367
-0.000186739
-5.2618e-05
-0.00283865
-0.000664526
0.00350316
-0.000564716
0.000328468
0.000249309
-0.00605418
0.00580487
0.000744829
-0.000800059
-0.000595056
-0.00166284
0.00225789
-0.000536537
-4.74959e-05
0.000584025
0.00376988
-0.00263427
-9.09776e-05
-0.00205383
0.000206517
0.000310646
-0.000517183
-5.93395e-05
0.00020511
-0.00014577
0.000940964
0.000942478
-0.00188345
0.000671135
-0.00195498
3.27684e-05
-0.000105088
-0.00245281
7.23363e-05
0.00214015
-0.00382989
0.00168974
-0.000129012
0.00028382
-0.000154769
0.000151733
-0.000310213
0.000158469
-0.000194983
-0.000162198
0.000357185
-0.00179562
8.75982e-05
0.001708
-3.53665e-05
-7.3755e-05
-0.000110619
2.47632e-05
0.000212145
-0.00105259
-0.000627028
0.000472368
0.000154664
0.00104809
-0.00156481
0.000516689
7.78021e-05
-6.97639e-05
-0.0017083
0.00197093
1.28622e-05
-0.000112497
9.96354e-05
0.00016035
-0.000126465
-3.38776e-05
0.000186702
-0.000605429
-0.00132286
-0.000554628
0.00187749
-0.000124795
6.74654e-05
-5.13374e-05
-7.31089e-05
0.000124448
-7.01961e-06
-0.00200971
0.000298513
-0.000154096
-0.00108832
0.00112694
-3.8619e-05
-9.83899e-05
5.63901e-05
4.19976e-05
-0.00103662
0.00170775
2.90459e-05
0.00150088
-0.00134348
-0.000157384
5.54275e-05
-5.54185e-05
-6.98532e-05
-0.00019612
-0.00013334
-8.08028e-05
2.22067e-06
-0.00109459
-0.00228565
0.00199588
0.00028982
-0.000867975
0.000432797
0.000435202
0.00126118
-0.00184799
0.00118011
0.000667897
2.04913e-05
-0.000398591
-0.000669896
0.0010685
-0.00182615
0.000323519
0.00150261
-7.52267e-05
-2.31646e-05
0.000178379
-2.62497e-06
-0.000350223
0.00170005
-0.00134983
0.000942584
0.00106358
-6.26333e-05
9.2327e-05
0.000810835
2.42824e-05
-0.00011063
8.63391e-05
0.00113339
0.000561488
-0.00169485
-1.37874e-05
1.08168e-06
1.27081e-05
0.000124687
3.56655e-05
0.000138688
0.000126893
-0.000265598
0.000328646
-0.00134261
0.00101396
-0.00392697
-0.000703197
0.00463029
0.000182222
-0.000285306
0.000103095
0.000102498
-1.09713e-05
-9.15259e-05
2.18998e-05
8.05987e-05
3.35059e-05
0.000212323
0.000706634
-0.000967833
0.000155807
0.000812013
-0.000330585
0.00289595
-0.00036495
0.000663518
-0.000298595
0.000115437
-0.000558748
0.00044329
-2.22723e-05
-3.16976e-05
-0.00115888
-0.000579629
-0.00145515
0.00127606
-0.000749465
-0.000526611
-7.41901e-05
9.35748e-05
-2.85415e-05
1.50848e-05
1.34594e-05
0.000210548
-0.000249712
0.00103204
-0.000995324
0.00114276
-0.0027084
-0.00167537
-0.000839297
0.00251463
0.00169701
-0.00230008
-0.000527302
0.00135481
-0.00144629
-9.05896e-05
-8.43544e-05
0.000174938
3.15674e-06
-5.35906e-06
2.20191e-06
0.00195425
0.000317913
4.11655e-05
-0.000169272
7.71189e-05
-0.00200762
0.00148966
-5.64723e-05
-0.00168893
0.00237749
-0.00128687
-0.00109066
0.00107651
-0.000407187
0.000216492
-0.000105585
-0.000110932
0.000219268
2.01062e-05
0.000550527
-0.000509994
-4.05328e-05
0.000887332
0.000892165
8.51581e-05
-0.000882033
-6.28406e-05
-3.40285e-05
0.000145375
-0.000530309
-0.00103358
0.000670322
0.000363264
-0.000226513
0.000258108
-0.00143197
0.00142714
7.37477e-05
-2.5311e-06
-1.1254e-05
6.58909e-05
-3.50469e-05
-3.08451e-05
0.000421711
6.76457e-05
-2.16736e-05
0.000277163
-0.000255503
0.000198405
-0.000362406
0.00413229
-0.00290857
0.00156138
0.00134723
0.000237037
-0.00138893
0.0011519
-0.00433963
0.00291699
0.00142258
-0.00106105
-0.000173121
0.00123414
-0.0019513
-0.000846918
0.000128305
0.000718623
-4.45821e-05
0.000174122
-0.000129546
0.00166307
-0.00248066
0.000817593
-8.09063e-05
3.04514e-06
-0.000207373
-0.000329155
-0.000683892
0.000600436
8.34621e-05
-1.33428e-05
-1.51942e-05
-0.000153471
0.00263678
-0.00248325
6.29979e-05
0.000235504
0.000185662
0.000672176
-0.00130429
-0.00232211
0.000289006
9.02135e-05
-0.000379207
1.94542e-05
4.14042e-06
-2.35937e-05
0.000635058
0.000950098
0.000325869
-0.000163587
0.000342073
-0.000537506
0.00162642
-0.000685446
0.000271792
-5.90123e-05
-0.000109932
-0.00173804
-0.000128024
-8.73984e-05
5.25918e-05
3.48056e-05
-0.000276925
0.000461869
-0.0001849
0.000652177
-0.000342857
-4.03289e-05
8.3771e-05
0.000132426
0.000126448
-0.000258867
-0.000255466
6.9165e-05
0.000186295
-0.000291723
0.00165431
0.00298991
8.50075e-05
-1.23437e-06
-7.87221e-05
0.000576837
0.000471267
0.000775352
-0.000588665
-3.3243e-05
2.77065e-05
5.53871e-06
-0.000277599
0.000163844
0.00232609
-0.00232608
-6.75114e-05
-7.0518e-05
8.5633e-06
-7.48341e-06
0.000447854
-0.00215615
-0.000441594
-0.00040532
0.00205878
-0.00126741
-0.000791357
-7.18999e-05
4.27801e-05
-7.41337e-05
5.18578e-05
0.00298577
-0.000387424
0.000258417
0.000204003
-0.000210034
6.03457e-06
0.00101947
-0.00117554
0.000156078
-0.000363394
0.00132995
-0.000966541
-2.04418e-05
0.000632876
-0.0014877
-0.000869821
0.000832617
3.72201e-05
0.000322164
-0.000139941
0.00192546
0.000935588
-0.00286106
0.000190858
-0.000140685
-5.01727e-05
-0.000724895
0.000876405
6.97794e-05
-0.000160381
0.00035668
0.00108833
0.000404006
-0.000372491
-3.1504e-05
7.60127e-05
-0.000581808
0.000505815
-0.00205444
0.00199509
5.93286e-05
-0.00154019
0.00217281
-0.00063262
-0.00172404
0.00141034
0.000313688
0.000884505
0.00125566
0.00107811
0.00129938
-0.00063463
-0.000930211
-3.18982e-05
0.000326934
-0.00040702
8.00746e-05
-2.93108e-05
-4.48241e-05
0.000200986
-0.000135251
0.000547496
-0.00126959
0.00278645
0.000292057
-2.94691e-05
-3.872e-05
6.81891e-05
0.000518167
-0.00155174
-7.77697e-05
-0.000736516
0.000814321
-4.12662e-05
0.00106075
-0.00111714
3.89524e-05
-0.00203348
0.000840137
0.00119334
0.0012312
0.000508207
0.000198028
4.54098e-05
-2.7083e-05
-6.03131e-05
-0.000103304
0.000108067
-4.77869e-06
0.00207111
-0.00112849
0.00159359
-0.000129707
-0.000210488
-0.000124228
0.000234898
-0.000110668
0.00281543
-0.00181501
-0.0010004
-9.54922e-05
1.65187e-05
7.89732e-05
-0.000211022
0.000100272
0.000110752
-0.000397157
4.93632e-05
0.000878345
-0.000665995
0.00023904
8.4175e-05
-0.0127691
0.00722078
0.00554834
-1.65608e-05
0.000301366
-0.000284766
-0.000353987
-0.000208398
0.000562407
-0.000246107
-0.000628939
5.21748e-05
-6.11371e-05
-3.43479e-05
2.93577e-05
9.56039e-06
-0.000103474
4.00292e-05
0.000925806
0.000752885
-0.00167861
0.000860848
0.000939237
0.00105408
-6.07284e-05
-0.000993356
7.24408e-06
-0.000164398
0.00114181
-0.00196177
0.000819967
0.000738726
-0.000779992
9.99594e-05
-0.0024542
-0.000317016
-0.000366875
-0.000785586
-0.000938451
0.00159778
-0.00154968
-4.80956e-05
7.71307e-05
-0.000258452
0.000181343
-0.000380161
-0.000569719
-6.78013e-05
0.000535578
-0.000467793
0.000424973
-0.000337297
-8.77045e-05
0.00155025
-0.00214527
0.000267256
-0.000344611
0.000921439
-0.00103073
0.000396099
-0.00519217
0.00124694
6.25894e-05
7.05423e-05
-0.000133143
0.000218937
-0.000154087
-6.48415e-05
0.00143249
0.00138294
-9.84831e-05
2.42905e-05
-6.1481e-05
-0.000816037
0.000409915
-0.000240912
0.000219192
2.17123e-05
-0.00108179
0.00103771
4.41027e-05
-0.00657081
9.96483e-05
-0.000340556
0.000583
-0.000600015
1.7015e-05
0.000813678
-0.00023067
-0.000164796
0.000120219
-0.00321773
0.00153295
-0.000608421
0.000656291
-4.78661e-05
-7.48683e-05
5.73608e-05
1.75068e-05
-0.00106263
0.00157157
0.00232118
-0.00155995
-0.000761222
-0.000450038
-0.00123628
-0.000688891
0.000178805
0.000510075
-0.00178274
-1.28961e-05
-0.00263338
-0.00020526
0.00300505
-0.000283233
-0.0027218
0.000252834
7.28564e-05
-0.000141779
6.89243e-05
-0.00120868
0.00123292
-2.44071e-05
9.04789e-05
0.000115801
-0.000206271
2.32809e-05
4.2609e-05
0.000349419
-0.000240943
-0.000108502
-3.30161e-05
3.54177e-06
0.000236453
-0.000159326
4.35662e-06
0.000271432
-0.000324055
-0.0021565
0.00294842
-0.000791944
-3.84095e-05
5.94221e-05
-2.10107e-05
5.83215e-06
-2.67532e-06
0.000629195
-0.00169398
6.75779e-05
-0.00012256
-6.50331e-05
9.79958e-05
-4.16064e-05
0.00013611
-3.17948e-05
-5.59485e-05
8.77269e-05
-0.000272001
7.58863e-05
-0.000113342
1.00426e-05
-8.55862e-05
0.000170573
-8.49933e-05
0.000869989
0.0014512
0.00201952
-0.000271858
0.00153541
-1.34443e-05
-0.000304199
-0.000419636
-0.00020738
-0.000999478
0.000659402
7.26131e-05
-0.000563543
0.000841418
0.00216364
0.000523151
-0.000465214
0.00105334
-0.00158117
-0.000406424
-0.00103857
-0.00176299
0.00118337
9.41714e-05
-3.17773e-05
-6.2403e-05
0.000159301
-0.000579228
-0.000288734
0.00117461
0.000653961
-0.00182857
-0.00025599
-4.33053e-05
-5.51791e-05
-0.000174714
-5.14739e-05
0.000852172
8.71902e-05
-0.000939363
-0.000150139
-6.82231e-05
0.00021837
-0.0044399
0.00208923
0.00235076
0.000611007
-0.000315269
-0.000304382
0.000166545
0.000137822
-9.46313e-05
6.28269e-05
-0.00181724
0.00176078
0.00136934
-0.00113231
0.000249684
0.000127299
-0.000377021
0.000318178
0.000603428
0.00160728
-0.000960646
0.00315038
-0.00194573
-0.00120466
-1.17155e-05
-1.31026e-05
2.48082e-05
-7.88391e-05
-0.000644732
-6.65761e-05
-0.00182444
0.00018527
0.000365241
-0.00200176
0.000461611
-0.000199817
-0.000210824
0.00031656
-0.000193786
-0.000122772
0.00250956
-0.00643654
0.000735679
-8.34779e-05
-5.59265e-05
5.57551e-05
-8.21627e-05
2.64046e-05
6.81934e-05
-0.000374953
0.000306742
5.59114e-05
4.20835e-05
0.000287313
-0.000474124
-0.000393753
-0.0016847
0.000447593
-0.000577101
0.000129509
-9.51724e-05
1.08157e-05
8.4356e-05
0.000975349
-0.000115391
0.000443204
-0.000327831
0.000222906
6.45091e-08
0.000326868
-0.00215375
-0.000754799
0.00161988
-0.000192749
0.000117873
-2.51728e-05
-9.27034e-05
0.000440499
0.00013198
-0.000572488
-0.000900887
0.00203428
-0.00054573
0.000112475
0.000104012
-8.94779e-05
0.000190658
2.03575e-07
0.000207375
0.0014125
-0.000202917
0.000244562
-0.00104924
0.000418265
0.000630965
-0.000270352
1.80693e-05
0.000252276
0.000413449
0.000146985
-0.000560528
-0.000201067
0.000250813
-0.000189911
-6.09041e-05
0.000163927
0.00208767
-0.000874815
0.000155967
0.000718857
-0.00130666
-2.22029e-06
-3.74705e-07
2.59472e-06
9.09998e-05
0.000156345
0.000219977
-1.59775e-05
-1.49005e-07
-7.0037e-05
7.0192e-05
-0.000905579
-9.19237e-05
0.000997497
-6.7751e-05
0.000161933
-9.41874e-05
1.87848e-05
0.000592227
-1.92543e-05
9.25226e-05
-0.00130791
0.00175576
0.00318311
-0.00142846
-0.00175468
0.00160526
-0.000826561
-0.000778663
-0.00144077
-0.00208989
0.000902116
-0.000321044
-0.00064897
0.000714065
-0.000329107
0.000315667
3.59205e-05
-4.76391e-05
7.67427e-05
-9.59958e-05