/*--------------------------------*- C++ -*----------------------------------*\
| =========                 |                                                 |
| \\      /  F ield         | OpenFOAM: The Open Source CFD Toolbox           |
|  \\    /   O peration     | Version:  v2012                                 |
|   \\  /    A nd           | Website:  www.openfoam.com                      |
|    \\/     M anipulation  |                                                 |
\*---------------------------------------------------------------------------*/
FoamFile
{
    version     2.0;
    format      ascii;
    class       volScalarField;
    location    "250";
    object      nut;
}
// * * * * * * * * * * * * * * * * * * * * * * * * * * * * * * * * * * * * * //

dimensions      [0 2 -1 0 0 0 0];


internalField   nonuniform List<scalar> 
18618
(
0.00477525
0.000482792
0.00509883
0.00447218
0.00582871
0.00128855
0.000226442
0.00200399
0.00107363
0.00064209
0.0052867
0.00475367
0.00675761
0.0035768
0.00671766
0.00232123
0.00531927
0.00504901
0.00672411
0.000643438
0.00671773
0.00408274
0.00671291
0.00374526
0.000142216
0.00094701
0.000404107
4.24445e-05
8.75311e-05
0.00567159
0.00171578
0.00348744
0.00129712
0.00671537
0.000563692
0.00283664
0.00673812
0.00039836
0.00293767
0.00671308
0.00267655
0.00425425
0.00366943
0.000393616
0.00136259
0.00032586
0.0037756
0.000422883
0.00071263
0.000635025
0.000264069
0.00309371
0.000297219
0.000125898
0.000308189
0.000472063
0.00021574
0.00130727
0.00259383
0.000150038
0.00268156
0.000617723
0.000455557
0.00671493
0.000306905
0.000459305
0.000213497
0.00120715
0.00671614
0.00353884
0.0017422
0.0067233
0.00672325
0.000576331
0.000292859
0.00312735
0.00672313
0.00673035
0.00671506
0.000607473
0.00133278
0.00671538
0.00248114
0.00134565
0.00486747
0.00674382
0.000389056
0.00369267
0.000497737
0.00188037
0.00672734
0.00353536
0.000917763
0.0067149
0.0035116
0.000121352
0.00159663
0.00132933
0.00671975
0.00399152
0.000500979
0.0057448
0.00367206
0.00100236
9.87772e-05
0.000801267
0.000124307
0.00671257
0.000265275
1.33113e-05
0.00312718
0.00393007
0.00427585
6.0055e-05
0.00672765
0.00671355
0.00029868
0.0035198
0.000274886
0.000221659
0.000929576
0.00254855
0.00189506
0.00186558
0.000892079
0.000411094
0.00123469
0.000288502
0.000221066
0.000993917
0.00225808
0.000601839
0.000614673
0.000207778
0.00671908
0.00149464
0.00671771
0.00412867
0.00269585
0.00644869
0.00237553
0.00015353
0.00671475
0.00671393
0.00270787
0.00672726
0.00670925
0.0038915
0.00671669
0.00211646
0.000534498
0.00547519
0.000972885
0.00171443
0.00169575
0.00376067
0.00144801
0.00061576
0.00377883
0.000301302
0.000767466
0.000478239
0.00242757
0.000490878
0.00672909
0.000737127
0.0012493
0.00617957
0.004567
0.00130286
0.00672615
0.00151989
0.000401482
0.000163424
0.00336752
0.00382866
4.8605e-05
0.00166331
0.00671859
0.00121168
0.000557703
0.000647417
7.61132e-05
0.00672296
0.00671889
0.000339616
0.000505553
5.23035e-05
0.000374294
0.00351006
0.00671751
0.000319233
0.000656021
0.0061122
0.00671447
0.000652063
0.00673608
0.00222864
0.00203806
0.00115312
0.000669024
0.00396521
0.000544907
0.00145494
4.52238e-05
0.0012691
0.00350758
0.00491253
0.00672071
0.00671549
0.000226634
0.000220518
0.00147938
0.0067092
0.00264567
0.00672539
0.000901976
0.000226576
0.00100443
0.0033607
0.0023282
0.00164845
0.00507475
0.00672504
0.00365638
0.00648107
0.0036516
0.00033811
0.000232547
0.00144624
0.000775786
0.00114491
0.006719
0.00243735
0.00118811
0.00671957
0.0067229
0.00138512
0.000528861
0.00486804
0.000593655
0.00356101
0.00671942
0.00363476
0.000980722
0.000606225
0.000615331
0.00671953
0.00395521
0.00432175
0.00671458
0.00423561
0.000536419
0.000565371
0.00102548
0.00133842
0.00133176
0.0067192
0.00671086
0.0036448
0.00672852
0.000739636
0.000248781
0.000605408
0.00389178
0.000480473
0.00127078
0.000397502
0.000450776
0.000468069
0.000283403
0.00671793
0.00204682
0.00672802
0.00672586
0.000489109
0.00125891
0.00240083
0.00430999
0.00503073
0.00671628
0.00159356
0.00531391
0.00171666
0.00428741
0.0050174
0.00673671
0.000252509
0.000730634
0.00148225
0.00675233
0.000957661
0.00468148
0.001476
0.00177213
0.000127541
0.00463452
0.000436571
0.00263476
0.00364565
0.000364488
0.00671483
0.000569303
0.00117018
0.00671802
0.00672128
0.00569515
0.00330636
0.000417089
0.000710498
0.000728199
0.00671107
4.56013e-05
0.00672513
0.0067234
0.00463969
0.00198351
0.00166019
0.00112151
0.000329335
0.00670888
0.000565739
0.00672046
0.00469998
0.0067237
0.000387607
0.000494413
0.00511154
0.00552188
0.000619099
0.000394922
0.00204055
0.00398862
0.00672324
0.00121811
0.00671759
0.000173521
0.00153815
0.00448454
0.000190799
0.0011293
0.000484177
0.00296736
0.000238722
0.00671824
0.000554437
0.00120601
0.000409224
0.00129617
0.00671349
0.0067246
0.00675672
0.000356117
0.00672062
0.00672813
0.00672002
0.00672055
0.00117188
0.00248562
0.0021857
0.00671463
0.0042136
0.00490533
0.00118901
0.0022184
0.00502628
0.00671954
0.00672307
0.000697325
0.00131515
0.00672644
0.00499646
0.000528087
0.00100684
0.00670889
0.00673076
0.000329864
0.00189586
0.00671637
0.000315977
0.000251717
0.00672609
0.00673603
0.00557878
0.000155817
0.0067159
0.000418127
0.000916183
0.00671924
0.00174636
0.00131184
0.00672055
0.000522057
0.00305511
0.00672465
6.45233e-05
0.00354464
5.35028e-05
0.00671919
0.00358094
0.00518003
0.0014506
0.00177668
0.00231465
0.00671592
0.000445802
0.00671805
0.00113201
0.00168994
0.00672699
0.00432217
0.0067263
0.00671593
0.00675442
0.00114843
0.00133481
0.0067108
0.00342353
0.000496597
0.000882724
0.00671507
0.00266548
0.0017062
0.00123257
0.0067156
0.00201863
0.00143512
0.00322757
0.000247113
0.000681067
0.00672054
0.00671904
0.000332246
0.00671501
0.00672973
0.000448671
0.00672326
0.00230758
0.000324125
0.000696732
0.000603544
0.000274133
0.00295014
0.000600861
0.00458366
0.000857482
0.000557066
0.00113051
0.00123806
0.00671896
0.000890676
0.0067254
0.000627868
0.000421234
0.0067182
0.000345734
0.00672677
0.00328817
0.00190983
0.00611252
0.00223257
0.00253702
6.78244e-05
0.00671864
0.000263306
0.00196331
0.00671804
0.00672631
0.000442782
0.0067171
0.00251024
0.000480302
0.00295608
0.000215531
0.00216895
0.00085742
0.00343483
0.00235932
0.00068215
0.000393383
7.78407e-05
0.000990636
0.00025024
0.00663813
6.82999e-05
0.00288764
0.000267335
0.00185951
0.000194829
0.00119606
0.00109104
0.00215666
0.00319194
0.00672356
0.00329872
0.000345232
0.0011804
0.00315985
0.00106619
0.00672384
0.00672611
0.00672109
0.000191595
0.00671874
0.00203616
0.000429078
0.00108945
0.000551451
0.000608682
6.81077e-05
0.00329126
0.00671512
0.00246879
0.0022824
0.0012053
0.00672162
0.00670128
0.0067237
0.000188582
0.00225392
0.00342509
0.00672153
0.000688615
0.000672448
0.00567634
0.00671925
0.00239346
0.00672293
0.000413144
0.00672192
0.00060632
0.00304806
0.00138692
0.00070444
0.00134185
0.00672457
0.00235713
0.0067263
0.00671548
0.00411952
0.00121507
0.000684777
0.000375424
0.000167526
0.00672086
0.00672121
0.000674852
0.000602622
0.00671595
0.00652136
0.00671786
0.00157627
7.71822e-05
0.00633551
0.00025428
0.00672117
6.07031e-05
0.00671878
0.000184797
0.0024323
0.00244439
0.00373811
0.0014193
0.000788632
0.00672209
0.000393246
0.000228113
0.00508663
0.000546128
0.00427134
0.00671895
0.00484221
0.00672293
0.00374906
0.00269176
0.00302274
0.000205843
0.000341714
0.000585826
0.00673116
0.000547113
0.000603981
0.000965905
0.00672139
0.00672471
0.00672976
0.00672094
0.00671554
0.0024498
6.88548e-05
0.00671684
0.0067149
0.00326724
0.00673799
0.0020865
0.00062786
0.000246741
0.000770152
0.00026176
0.00671485
0.00672055
0.000329411
0.000236429
0.0024603
0.00672889
0.000378015
0.00671931
0.00566876
0.0067207
0.00036558
0.000123115
0.00377303
0.00372203
0.000289808
0.00615511
0.00673436
0.00208769
0.00109784
0.00514788
0.00124892
0.00616044
0.00671538
0.000517067
0.00034124
0.00672481
0.00114061
0.00383819
0.00565683
0.000389596
0.006723
0.000661706
0.00672274
0.00282683
0.00565432
4.27888e-05
0.000359013
0.000722528
0.000998791
0.00288483
0.00102997
0.00408388
0.00525375
0.000220974
6.53949e-05
0.00671668
0.000894638
0.000117443
0.00155085
0.00255488
0.000926853
0.00128893
0.0067209
0.00672067
0.000207126
0.00486625
0.000894977
0.00671699
0.000647816
0.00671517
0.00671713
0.00202772
0.00142819
0.00672095
0.00671555
0.00114075
0.00555887
0.00120703
0.0067206
8.57036e-05
0.000704245
0.00231248
0.00672631
0.00672311
0.00204355
0.00671515
0.000481128
0.00604825
0.000438525
0.00280032
0.00144383
0.00269497
0.00124317
0.00128289
0.00672078
0.00672301
0.00279482
0.000600139
0.00672292
0.00182238
0.00672091
0.000703593
0.00671457
0.00671713
0.00672821
0.000666718
5.80693e-05
0.00188285
0.00671902
0.00671883
0.000210817
0.000534918
0.000988252
0.000659475
0.000517398
0.00505624
0.00671435
0.00100918
0.00406126
0.00141255
0.00671472
0.00671011
0.00235296
0.00200951
0.000219078
0.00198593
0.000626254
0.00129113
0.0004279
0.00672964
0.00682247
0.0010212
0.00671099
0.003226
0.0031779
0.00437137
0.000817406
0.000147127
0.00675999
0.00672215
0.000640897
0.00174797
0.0014168
0.00671969
0.000575527
0.00141819
0.00368758
1.09167e-05
0.00147256
0.0067143
0.00671965
0.0004911
0.00672383
0.000734338
0.00273551
0.00275129
0.00450884
0.000128713
0.000291764
0.000941806
0.00153185
0.00672626
0.00114637
0.00672055
0.00121616
0.00115195
0.00670989
3.58186e-05
0.00453561
0.00294423
0.000307042
6.79347e-05
0.00403388
0.00672455
0.00169802
0.00491597
0.000285414
0.000122751
0.00344433
0.0010931
0.00307646
0.00671986
0.000452323
0.000432662
0.00671801
0.00587593
0.00551005
0.0027118
5.10429e-05
0.00671491
0.00671904
0.00118449
0.00320494
0.00671918
0.00519326
0.000289264
0.00671546
0.00671445
0.000751519
0.00217312
0.000819665
0.00671813
0.00671445
0.000531214
0.00230553
0.00672283
0.00388464
0.0014705
0.00129805
0.000268666
0.000620159
0.00255043
0.000491966
0.00673937
0.00101187
0.0013996
0.00672861
0.000785196
0.00078531
0.00172567
0.00133643
0.000886887
0.000432826
0.000142272
0.000655741
0.00083226
0.0067173
0.00513477
0.0067143
0.00172624
0.00572535
0.00123436
0.000585317
0.00672197
0.00220161
0.000364071
0.00391288
0.000264023
0.000426338
9.85075e-05
0.00672275
0.00672006
0.00674198
0.000711598
0.000946892
0.00359771
0.00522332
0.00362987
0.00672756
0.00672012
0.00220248
0.000546053
0.0027783
3.67501e-05
0.00121861
0.00111798
0.00369318
0.0067153
0.00672747
0.00671643
0.00672072
0.00319223
0.000298494
0.00581566
0.00672829
0.00377391
0.00378722
0.00489143
0.00190013
0.000478761
0.00260412
0.00490342
0.000375545
0.000729711
0.00063889
0.000777217
0.00191498
0.000979743
0.000828164
0.000102071
0.00672169
0.00664908
0.0036385
0.00671459
0.0067149
0.000216654
0.00325017
0.000194967
0.00685637
0.00368702
0.00102425
0.00116391
0.00672616
0.000982862
0.000557077
0.00672163
0.000415333
0.00306666
0.000204578
0.00324063
0.001979
0.00294039
0.00149894
0.00584601
0.0067364
0.000131323
0.00660255
0.00671828
0.00397985
0.00672122
0.00581673
0.00672613
0.00672346
0.000248422
0.00671901
0.00679249
7.7338e-05
0.00123048
0.00509259
0.00671837
0.00672043
0.00626854
0.0067192
0.00225409
0.00674086
0.00672802
0.00286674
0.0011456
0.000303685
0.00672386
0.00500786
0.00186085
0.00382903
0.00185438
0.000544885
0.00332412
0.000378266
0.00412661
0.00672108
0.00601588
0.000441205
0.00116545
0.000535637
0.00671462
0.0058954
0.00353772
0.006732
4.82982e-05
0.005067
0.0067285
0.00671919
0.00446439
0.00324295
0.000471071
0.000673346
0.00461676
0.00284718
0.00672371
0.00133094
0.00125174
0.000499611
0.00135221
0.00363489
0.0028058
7.15636e-05
0.000376883
0.00673967
0.00672197
0.00418633
0.00672024
0.00243231
0.00490956
0.000630261
0.00672823
0.00297882
0.00404923
0.00637009
0.00675766
0.00271486
0.00232556
0.00385848
0.00387323
0.00072146
0.00129909
0.00676126
0.00671949
0.00674069
0.00161189
0.00548079
0.00151722
0.00203557
0.00403993
0.00547379
0.00482651
0.00490843
0.00166067
0.000128846
0.00675862
0.00142604
0.00672294
0.00672457
0.00635076
0.00672014
0.00558167
0.00671663
0.000789744
0.0022536
0.000913922
0.000391368
0.0027699
0.000693829
0.00303321
0.006724
0.00672337
0.00671655
0.000197905
0.00671966
0.000285289
0.003017
0.00518028
0.000678808
0.000994265
0.00672418
0.000742183
0.00672403
0.00672501
0.00481536
0.00672075
0.0041474
0.000788157
0.00672793
0.00671867
0.000407082
0.00677266
0.000975425
0.00672723
0.000939372
0.00673603
0.00273162
0.00110615
0.00229103
0.000942684
0.00673698
0.000680801
0.00517268
0.000657729
0.00324948
0.0067199
0.000535045
0.00032183
0.00671835
0.000788133
0.00315861
0.00384798
0.00194183
0.00672704
0.00672208
0.000303507
0.00210868
0.000785297
0.00672349
0.000156212
0.00369036
0.00672281
0.00338931
0.00130882
0.00411634
0.000616535
0.000354045
0.00108379
0.00261931
0.00029939
0.00671685
0.000129233
0.00671462
0.00670956
0.00212283
0.00158054
0.00671846
0.000393629
0.00176591
0.0010028
0.00511779
0.00672339
0.000670594
0.00671417
0.00672235
0.00212635
0.00272229
0.00333629
0.000467476
0.000212332
0.00143579
0.00672189
0.00144246
0.00322481
0.00531566
0.00672
0.00672499
0.000645447
0.00640308
0.00672525
0.0065184
0.00272578
0.00137434
0.00671474
0.00627053
0.00373517
0.00672364
0.00132632
0.00604198
0.00672499
0.00144638
0.000299248
0.000406061
0.00434465
0.00116022
0.000987721
0.00672206
0.00463093
0.000286716
0.00080925
0.00175378
0.000149253
0.0052858
0.000394388
0.00671871
0.0006558
0.00233367
0.00558217
0.00028844
0.00672405
0.000616267
0.0015942
0.000605708
0.0067214
0.000477596
0.00104693
0.000556183
0.00419686
0.00061632
0.00312694
0.00024728
0.00667305
0.00672306
0.00672349
0.00672625
0.000276503
0.00209602
0.000526356
0.0038152
0.00264849
0.00672338
0.00677645
0.00671789
0.000391505
0.00163778
0.000417011
0.00557379
0.00672831
0.00130598
0.000366928
0.00468146
0.00672429
0.006492
0.00235458
0.0067283
0.00671659
0.00221269
0.00672426
0.00521514
0.00672047
0.000358935
0.000559267
0.00395023
0.000642292
0.00272581
0.00671864
0.00672132
0.000571548
0.00674311
0.000341146
0.00678066
0.000121609
0.000326944
0.00672108
0.00342801
0.000277881
0.00672092
0.00404103
3.97061e-05
0.00672451
0.00159894
0.000645448
0.000834761
0.000107047
0.00672136
0.000673953
0.000458119
0.00314019
0.00671842
0.00244038
0.00128217
0.00380639
0.00673646
0.00375865
0.00040574
0.00099698
0.00137399
0.00672614
0.00290531
0.00672185
0.00177566
0.00674926
0.00435208
0.00672427
0.00672113
0.00058495
9.14717e-05
0.00206383
0.00370756
0.00388008
0.00359592
0.00140583
0.00110464
0.000380542
0.000497699
0.000726589
0.00671523
0.00672123
0.000623437
0.00671794
0.00672699
0.00553607
0.00672272
0.0015361
0.00671896
0.00258957
0.00672799
0.00546078
0.00381299
0.00155164
0.000736184
0.00101139
0.000444522
0.00241256
0.00173833
0.005938
0.00672094
0.00169837
0.00263241
0.00131847
0.00401101
0.00671675
0.00671638
0.00183105
0.00556973
0.00533972
0.00291143
0.00672088
0.00191028
0.000726153
0.0067233
0.00257314
6.82993e-05
0.00495715
0.0010773
0.00130544
0.000437309
0.00672132
0.00385303
9.25819e-05
0.00309148
0.000448455
0.000386366
0.000875125
0.00671849
0.00672497
0.00671709
0.00136947
0.00280753
0.00084442
0.0067177
0.00672993
0.000952045
0.000875144
0.000839184
0.00671363
0.006781
0.000795759
0.00116718
0.00150651
0.00584916
0.000811055
0.00672482
0.000337011
0.00125219
0.00144534
0.00671459
0.00674214
0.00030697
0.00321579
0.000916045
0.00187343
0.00392336
0.00199796
0.00117821
0.00672697
0.00317947
0.00101064
0.00672211
0.0025006
0.00179451
0.00672247
8.70133e-05
0.00129548
0.00198782
0.000551021
0.000958912
0.000713826
0.00141317
0.00672526
0.00671556
0.00637054
0.00210669
0.000778977
0.00672886
0.000441129
0.00353937
0.0009361
0.00112492
0.000242225
0.000145126
0.00119405
0.00673847
0.00673025
0.000331131
0.00119926
0.00672949
0.000639825
0.000651562
0.00118515
0.00145252
0.00430816
0.000895348
0.00582845
6.88789e-05
0.00104477
0.0011856
0.000283003
0.00222257
0.00137161
0.000930297
0.00566959
0.00252724
0.000906124
0.00672543
0.00457401
0.0067213
0.00241518
0.00671016
0.00499403
0.000674757
0.00426999
0.00672063
0.000409228
0.00108681
0.00314319
0.00677043
0.0015008
0.00113746
0.00319563
0.00144254
0.00023642
0.000286097
0.000409458
0.00212905
0.00124815
0.00392356
0.00088017
0.00240318
0.00671441
0.000470275
0.00671902
0.000520159
0.0002384
0.00391066
0.00204407
0.000821077
0.000146479
0.00471534
0.00499581
0.00028163
0.00222078
0.000577138
0.00493618
0.0067255
0.00373574
0.00032232
0.00102687
0.000137481
0.000964875
0.000780991
0.00672002
0.00103598
0.000887387
0.00104165
0.00071432
0.00643082
0.00672252
0.00272328
0.00672811
0.000603747
0.00131232
0.00672591
0.0067245
0.000112044
0.00190466
0.00672673
0.00671506
0.00209879
0.00509394
0.00392925
0.00671003
0.000873893
0.00195185
0.00241852
0.000358063
0.000496358
0.00103002
0.00080974
0.00063102
0.00671754
0.00662247
0.00125032
0.000386042
0.000959267
0.000779871
0.00328332
0.0025405
0.000863597
0.00351306
0.00672018
0.00672466
0.00672811
0.00239373
0.00111736
0.0067105
0.00210679
6.34866e-05
0.000705782
0.000321368
0.00676515
0.00346904
0.00671634
0.00246334
0.00121018
0.000537981
0.00672572
0.00672456
0.00672505
0.00127779
0.000195694
8.91009e-05
0.00105902
0.00239323
0.00233135
0.00671583
0.00168594
0.00315574
0.00672688
0.000728177
0.000609781
0.00311174
0.00672594
0.00595766
0.00222917
0.00459638
0.00230744
0.000261773
0.0032298
0.0015528
0.000794104
0.000702876
0.000675686
0.00672348
0.000351028
0.00240697
0.00063802
0.000712732
0.00283886
0.000673057
0.000485098
0.000661817
0.000817353
0.00672341
0.00261219
0.00199612
0.00350906
0.00258994
0.00863073
0.0067203
0.00036125
0.00672121
0.002017
0.00674733
0.00182342
0.000338465
0.0023797
0.000830088
0.00134276
0.000234797
0.00499802
0.00672132
0.000227366
0.00245445
0.0012597
0.000679566
0.00672653
0.00027436
0.00671839
0.00227361
0.00672912
0.00049032
0.000302262
0.000147483
0.000113713
0.00129383
0.00289157
0.00117169
0.000288052
0.00672575
0.0010586
0.00103957
0.00564985
0.00104201
0.000202186
0.00672253
0.000385328
0.000323599
0.00311758
0.00236744
0.00101194
0.000491583
0.006717
0.00175569
0.00198926
0.00375726
0.00571747
0.00438378
0.00671629
0.000382403
0.00649881
0.00672306
0.00054103
0.00304055
7.10233e-05
0.000346751
0.00671634
0.00491239
0.00137668
0.00140046
0.00298018
0.000717175
0.00358188
0.00378788
0.00672102
7.49822e-05
0.00672396
0.000937697
0.00398253
0.00379519
0.00128004
0.000710492
0.00672361
0.000401235
0.000496938
0.000461758
0.00114708
0.000654792
0.00180867
0.000424698
0.000304232
0.0017477
0.000750762
0.000557574
0.00291889
0.00195109
0.00363973
0.00422813
0.000652218
0.00672013
0.00290701
0.000168814
0.000168179
0.00039477
0.00673411
0.00249329
0.0067443
0.00671864
0.000282453
0.00105652
0.00433434
0.00601986
0.0067166
0.00482072
0.000472252
0.00673406
0.00671874
0.000162811
0.00462118
0.00495252
0.00208704
0.000865942
0.00671666
0.00477758
0.00672379
0.000472632
0.00671502
0.000899085
0.00579812
0.00155364
0.00672249
0.00670976
0.00025813
0.00125701
0.003547
0.00671837
0.000372646
0.000520134
0.00636159
0.0018927
0.00307018
0.00671626
0.00395253
0.00672231
0.000277271
0.00240456
0.00330501
0.0067233
0.00674579
0.000574566
0.000341193
0.00548885
0.000968762
0.00473533
0.00552354
0.00672536
0.00151057
0.000161918
0.00198456
0.000475554
0.00169188
0.00616766
0.00402955
0.00580385
0.00672338
0.00272796
0.000816687
0.00011812
0.00672152
0.00672168
0.00227311
0.00672075
0.00146276
0.000208817
0.000367347
0.00484485
0.00671414
0.000145106
0.00072016
0.00672643
8.39442e-05
0.00526373
0.00315948
0.00438712
0.000721186
0.00672127
0.00540709
0.00480196
0.00153909
0.000606226
0.000772007
0.00672192
0.00671513
0.000152968
0.00407024
0.00132736
8.81096e-05
0.00671434
0.00672593
0.00363204
0.000465015
0.00420183
0.00020119
0.00047978
0.000146821
0.00672131
0.000414296
0.00102756
0.000482555
0.00175545
0.000842149
0.000469508
0.00672276
0.00410305
0.00672578
0.000530921
0.000192913
0.00672599
0.00672584
0.000215697
0.00569446
0.000267075
0.00675313
0.00419578
9.98788e-05
0.000876928
0.00671696
0.00164153
0.000674487
0.000528259
0.00671857
0.0009043
0.000651195
0.00056577
0.00673257
0.00674125
0.000585335
0.00214833
0.0067196
0.00672609
0.000270489
0.0045587
2.68351e-05
0.00081469
0.00146397
0.000872779
0.000387839
0.0067318
0.00330109
0.0067153
0.00672901
0.000623881
0.00672391
0.00671382
0.00382746
0.00672077
0.00671974
0.00604816
0.00058711
0.00228223
0.00672401
0.00672574
0.00256797
0.00151281
0.00106082
0.00199485
0.00671923
0.00671537
0.00127273
0.00258939
0.00198173
0.00148833
0.00573284
0.00656868
0.00672029
0.00231941
0.00671753
8.51358e-05
0.00384708
0.00671532
0.00671661
0.000249752
0.000977079
0.00273204
0.00672525
0.000377055
0.000174082
0.0067213
0.000708429
0.0067248
0.00671785
0.00672594
0.000285619
0.000569397
8.88572e-05
5.30068e-05
0.00230798
0.000366066
0.00316355
0.000637582
0.00388948
0.00214537
0.00578307
0.00672415
0.00515542
0.000617358
0.00604437
0.000172485
0.00039674
0.0067195
0.00271572
0.00672376
0.00127421
0.0067212
0.000759961
0.00516586
0.00109842
0.00672214
0.00343619
0.00672067
0.000553837
0.00671818
0.00115111
0.000944799
0.00672411
0.000432366
0.00118481
0.00672495
0.0048705
0.00672065
0.000651532
0.00672366
0.00425953
0.00035221
0.00122162
0.00325222
0.000962724
0.00672541
0.00105419
0.000204772
0.000207108
0.00671907
0.00333075
0.000848284
0.000547212
0.00545647
0.00540588
0.00671699
0.00671638
0.00139593
0.00310776
0.00417053
0.000984003
0.000755534
0.00155623
0.00113414
0.00148444
0.00672066
0.00157179
0.00672053
0.00108453
0.00286559
0.000144798
0.000902367
0.00672331
0.000741862
0.00672591
7.86239e-05
0.00671519
0.0019081
0.00671024
0.00468789
0.00671938
0.00303698
0.00672927
0.000487898
0.00258208
0.00469532
0.00148038
0.00012599
0.000766861
0.00147323
0.000834538
0.00671044
0.000439141
0.00406082
0.00672306
0.00520872
0.00178129
0.00672631
0.000292507
0.000844561
0.000519522
0.00288411
0.000115676
0.00417817
0.000587622
0.00151464
0.00286441
0.00671686
0.0067267
0.00672578
0.00134437
4.46169e-05
0.000549756
0.000276008
9.80891e-05
0.00101261
0.00117185
0.00672333
0.00158432
0.00221014
0.000730984
0.00672194
0.000948175
0.00610015
0.00100576
0.00672177
0.000341781
0.00671579
0.000393078
0.00318668
0.00672413
0.0067212
0.00020617
0.00171761
0.00672097
0.000361421
0.00116249
0.000659873
0.00072102
0.00106803
0.00580421
0.000781122
0.00671624
0.00375038
0.00671523
0.00671664
0.000961996
0.0036119
0.00144328
0.000128836
0.00672365
0.000216677
0.00055648
0.000467924
0.00348585
0.000870021
0.00672489
0.000498579
0.000850889
0.000501821
2.85042e-05
0.000209955
0.000147341
0.00466634
0.000456118
0.00105605
0.000639157
0.00658225
0.00671557
0.00672443
0.0046119
0.00672143
0.00673117
0.0049358
0.00671809
9.62049e-05
0.00130112
0.000449674
0.000282787
0.00672553
0.00506155
0.00019667
0.000374104
0.00416309
0.000798501
0.00671666
0.00465849
0.000734719
0.00673308
0.0060599
0.000323432
0.0067199
0.00675259
0.00472386
0.0015426
0.000228418
0.000128947
0.000482178
2.71266e-05
0.00132938
0.00671996
0.000126408
0.00123253
0.00672143
0.000295507
0.00163083
0.000136279
0.00304949
0.000461399
0.00133084
0.00241256
0.00243428
0.000466958
0.00113372
7.5331e-05
0.00107929
0.000236681
0.00179447
0.00672982
0.00341995
0.00252925
0.000186739
0.00197609
0.000845052
0.00102647
0.000545447
0.00671807
0.00672312
0.000142345
0.0020302
0.00122867
7.62552e-05
0.00118845
0.0067243
0.00226289
0.000443193
0.0067192
0.00671889
0.00066269
0.00511414
0.00545899
0.00671957
0.000799027
0.0033831
0.00282514
0.00351092
0.00220215
0.000665783
0.000415415
0.00673015
0.00672052
0.00435108
0.00134305
0.00229943
0.000868362
0.000559421
0.00672063
0.00143624
0.00303984
0.00107594
0.00369576
0.000655658
0.00354246
0.0011871
0.00672246
0.00131867
0.00168019
0.00286917
0.00175022
0.0067189
0.00676236
0.00064083
0.00179877
0.000394444
0.00671434
0.000402035
0.00673112
0.000899441
0.00671395
0.00672089
0.00303042
0.000961551
0.00481039
0.00106792
0.00425603
0.000132036
0.00672183
0.0067231
0.000346496
0.000415191
0.00249681
0.000951726
0.00672399
0.00672247
0.000622398
0.00224263
0.00352819
0.000416759
0.00673489
0.00174887
0.000148652
0.00011683
0.000757433
0.00672402
0.00641159
0.00608361
0.000190409
0.000542091
0.000940617
0.00141353
0.00247855
0.00672586
0.000113792
0.00672633
0.000395682
0.00671985
0.00312187
0.000509564
0.00672453
0.000401255
0.00155996
0.000698835
0.00628111
0.00672323
0.000201611
0.000371925
0.00672706
0.00672007
0.00673515
0.000490153
0.00671641
0.00672464
0.00671836
0.00583095
0.00223749
0.000339624
0.006722
0.00379755
0.00672196
9.05315e-05
0.00671961
0.000645342
0.00672553
0.00676002
0.000521894
0.000796539
0.00350906
0.000969808
0.00446775
0.000905468
0.00418322
0.000245515
0.0040076
0.00632983
0.000836258
0.00273974
0.000321803
0.000287813
0.00585819
0.0018387
0.00371384
0.00673493
0.00671987
0.00481204
0.00159865
0.00671763
0.00671964
0.00672125
0.000640724
0.000700355
0.000501986
0.00672466
0.0002834
0.000494581
0.000954995
0.000521341
0.00671919
0.00202626
0.00672192
0.00127446
0.000324938
0.000492572
0.00671824
0.000582438
0.00672234
0.00672547
0.00349218
0.00100983
0.000256662
0.0054604
0.000286535
0.00404974
0.00672562
0.00672351
0.006728
0.000610391
0.00102792
0.000225512
0.00020143
0.00633506
9.22169e-05
0.00096102
0.00672345
0.00671476
0.00671735
0.00673307
0.000429814
0.00672688
0.00672439
0.000163213
0.000579277
0.00334879
0.000162166
0.000478463
0.000260971
0.00682307
0.000514054
0.00409545
0.000149395
0.000723128
0.000405895
0.00671335
0.00672195
0.000621432
0.00214924
0.00671526
0.00163077
0.00156703
0.00671724
0.000773392
0.00260018
0.00123463
0.000189181
0.00297322
0.00674674
0.00341505
0.000848307
0.00481171
0.00671828
0.00672004
0.000475814
0.00132703
0.00672278
0.00672537
0.00672447
0.000383725
0.000645741
0.00115654
0.00360973
0.00029272
0.00084975
0.00406581
0.00026131
0.000601993
0.000409491
0.00285214
0.00309789
0.0059644
0.00673355
0.00672535
0.00146323
0.00672156
0.000665283
0.000489068
0.00678085
0.00335189
0.00100566
0.00672507
0.00109811
0.00351814
0.00193026
0.00591542
0.00385979
0.0028515
0.000617801
0.000162756
0.00115962
0.00016194
0.000594169
0.00673051
0.00551596
0.0010644
0.00188587
0.00117089
0.00020786
9.16415e-05
0.00147927
0.000808665
0.00561207
0.0041431
0.00417311
0.00672135
0.000264718
0.00672078
0.000386125
0.00348442
0.00499784
0.000460865
0.00672557
0.00671526
0.000315045
0.00671456
0.000551306
0.00537427
0.00367317
0.000606548
0.00125287
0.00119893
0.00673687
0.00147716
0.00671866
0.00212925
0.00212233
0.000498865
0.00134314
0.000518663
0.00672327
0.00672315
0.00343668
0.00063801
0.000854492
0.00671936
0.00120982
0.00334832
0.000226003
0.0049657
0.00517739
0.00671719
0.00644025
0.000228642
0.00672291
0.00119348
0.00441549
0.00672597
0.00613946
0.00680708
0.00478556
0.0029138
0.00672326
0.00158013
0.00674849
0.000156291
0.000373086
0.00671194
0.000273322
0.000866591
0.00672631
0.00673818
0.00507631
0.000725399
0.00161359
0.000359504
0.00338106
0.00672286
0.000437251
0.00317957
0.00379216
0.00159987
0.000582738
0.00488426
0.00672215
0.000482302
0.00568627
0.000371789
0.00245476
0.00671833
0.00671863
0.00440139
0.000426141
0.00251812
0.000152524
0.00676008
0.000394816
0.000374607
0.00300544
0.000825334
0.00141589
0.000514301
0.000620401
0.000809139
0.00672147
0.00674539
0.00672123
0.000756756
0.00137023
0.00108318
0.00085266
0.00671918
0.00107914
0.00674092
0.0067371
0.000583887
0.00672
0.00672025
0.00208906
0.00672096
0.00030334
0.000101408
0.00237042
0.00671969
0.00463206
0.000212407
0.00551406
0.00457856
0.000304655
0.000518118
0.000351272
0.0031894
0.00672741
0.000276851
0.00226611
0.000256537
0.00140897
0.00671847
0.0036444
0.00330834
0.00673264
0.000154228
0.000659629
0.000521959
8.81191e-05
0.000262135
0.00677196
0.000602895
0.000501662
0.00443039
0.000715273
0.00672309
0.00238231
0.006722
0.000102553
0.00344326
0.00672124
0.000643141
0.00671699
0.000513688
0.00671475
0.00265612
0.00649829
0.00107131
0.000967599
0.00672152
0.0043727
0.000747843
0.00243327
0.00671096
0.000677747
0.00672304
0.00409231
0.00142681
0.00673742
0.000573859
0.00494388
0.00676255
0.0010553
7.00231e-05
0.00673212
0.00672463
0.00347502
4.99096e-05
0.00672123
0.00672442
0.00640937
0.000187995
0.00316844
0.00671472
0.00671628
8.34937e-05
0.00134847
0.00672406
7.28336e-05
0.000957579
0.000420473
0.00368234
0.000241314
0.000273321
0.00671906
0.00671684
0.000758534
0.00040611
0.00187555
0.00439406
0.00194033
0.00193563
0.000260742
0.00672276
0.00466851
0.00437133
0.0067241
0.00143767
0.00357119
0.00404563
0.00672097
0.000231581
0.00133722
0.00047684
0.000284724
0.000254257
0.00671854
0.00674924
0.00230048
0.00672912
0.000765614
0.000866839
0.00306593
0.00231601
0.00286462
0.00073106
0.00672109
0.00674026
0.00277885
0.00228638
0.00493757
0.00671844
0.00119853
0.000127818
0.000697864
0.00671848
0.00267706
8.60478e-05
0.00162928
0.00231565
0.00253109
0.000335299
0.000141263
0.00128293
0.00422615
0.000207296
0.00671616
0.0067219
0.00156136
0.00672391
0.00577591
0.000395955
0.00676425
0.00672413
0.00135901
0.00128218
0.00014741
0.00396926
0.0010147
0.00511225
0.000734786
0.0003136
0.00671708
0.00672408
0.00671424
0.0038801
0.00127695
4.96291e-05
0.00024055
0.00671839
0.00671968
0.00671758
1.5453e-05
0.000281569
0.000207388
0.00299044
0.00187357
0.00333759
0.000392822
0.00672054
0.00671449
0.000789035
0.00671425
0.000592977
0.00131233
0.00672132
0.00141732
0.0067258
0.000625436
0.000157116
0.000142926
0.00671828
0.00156504
0.00160284
0.00672293
0.000460725
0.00410722
0.000950548
0.000181479
0.00418547
0.00671802
0.00671452
0.00119997
0.000712035
0.00542423
0.00671664
0.000319912
0.000977497
0.000168707
0.000330456
0.000961279
0.00671654
0.00516128
0.00207041
0.0041562
0.00646924
0.000200951
0.00492064
0.00150895
0.000436436
0.000845688
0.000419027
0.000352304
0.00673159
0.00672552
0.00671764
0.0067259
0.00158356
0.000104043
0.0013909
0.00128785
0.00387217
0.000480622
0.000521534
0.00677219
0.00326738
0.00264387
0.00671832
0.000443642
0.000279249
0.000448988
0.00675281