/*--------------------------------*- C++ -*----------------------------------*\
| =========                 |                                                 |
| \\      /  F ield         | OpenFOAM: The Open Source CFD Toolbox           |
|  \\    /   O peration     | Version:  v2012                                 |
|   \\  /    A nd           | Website:  www.openfoam.com                      |
|    \\/     M anipulation  |                                                 |
\*---------------------------------------------------------------------------*/
FoamFile
{
    version     2.0;
    format      ascii;
    class       volScalarField;
    location    "250";
    object      p;
}
// * * * * * * * * * * * * * * * * * * * * * * * * * * * * * * * * * * * * * //

dimensions      [0 2 -2 0 0 0 0];


internalField   nonuniform List<scalar> 
18618
(
0.0350433
-0.113061
0.00711668
0.0529463
0.0312416
0.0772826
-0.202096
-0.0887507
-0.0989659
-0.108328
0.0306512
0.0394883
0.0203946
0.0376247
0.0280112
0.0791285
0.00486968
0.0355088
0.0120674
-0.100403
0.0276251
-0.187833
0.0154416
0.0390495
-0.200848
-0.0995625
-0.0782918
-0.139055
0.0761756
0.00770538
0.0393171
0.0181132
-0.0573139
0.0249204
0.111954
-0.162807
0.0147808
-0.151728
-0.0901307
0.0156297
-0.17276
-0.169593
-0.127841
-0.350442
-0.0425746
0.13493
-0.0902507
0.043665
-0.0907527
-0.129516
-0.0742058
0.00691377
-0.0217561
0.0872918
-0.106827
-0.148024
0.0222982
-0.0947947
-0.171443
-0.187819
-0.108919
-0.184031
-0.0889241
0.026313
-0.148503
-0.107161
-0.181814
-0.045165
0.0204064
-0.174252
-0.0928275
0.0123398
0.0369753
-0.10172
-0.0882297
-0.160209
0.0378642
0.0408317
0.019401
-0.109107
-0.0254942
0.0247442
0.0567469
0.0513159
-0.191269
0.0142749
-0.140126
-0.169973
-0.179978
-0.440013
0.0201211
-0.109035
-0.110838
0.0166774
-0.100224
-0.183463
0.0403972
-0.100362
0.0253115
-0.0982129
-0.131247
-0.471449
0.0185308
-0.109994
0.0647541
-0.0943064
-0.189295
0.0234305
-0.186568
-0.182524
-0.150569
-0.0263006
-0.0912448
-0.373729
0.0438922
0.0158683
-0.196849
0.0536156
-0.0233527
-0.0852142
0.0975661
0.00182646
-0.0296685
0.0683957
-0.086177
-0.101196
-0.0179358
-0.145885
-0.153799
-0.102067
-0.155043
-0.150076
-0.100227
0.0221553
0.023765
-0.0616959
0.0330156
-0.152163
-0.276635
0.0363933
-0.0966822
-0.184976
0.019622
0.0246164
-0.0252175
0.0435711
0.0172666
0.0557351
0.025358
0.0512939
-0.107883
0.0319337
-0.0538117
0.0710873
-0.0279814
-0.0965784
-0.09886
-0.0428531
0.00688617
-0.198463
-0.085457
0.0377871
-0.296121
-0.118619
0.0455379
0.0584075
0.0528025
-0.162338
0.0470802
-0.101112
0.0359238
-0.0547828
-0.104934
-0.134075
-0.127662
0.0528545
-0.0286724
0.0716089
0.0283735
-0.0463645
-0.106906
0.109689
-0.179149
0.0368604
0.029325
0.0702318
-0.117047
0.149959
-0.136838
0.0367574
0.0332143
0.111663
0.0607406
0.00462823
0.0194858
-0.146577
0.0365349
0.0405151
-0.0960916
-0.0444761
-0.101882
-0.124394
-0.100941
-0.0944736
-0.00598519
0.0618025
-0.095036
-0.482291
0.0304475
0.0153761
-0.143615
-0.137509
0.0130916
0.0174299
0.0338648
0.0348193
-0.116922
-0.213207
0.0960195
-0.000672465
0.0500713
-0.027226
-0.0927532
0.0351603
-0.166411
0.0460447
0.0026936
-0.110403
-0.147235
-0.0469485
0.0545151
-0.0489321
0.0232993
-0.0948533
-0.0463187
0.0303962
0.0375373
-0.102707
-0.100795
-0.0119989
-0.112147
0.00691182
0.0352587
-0.0970988
-0.0963438
-0.0738873
-0.148947
0.030298
-0.156095
0.0551794
0.0168881
-0.176114
0.0395314
-0.149871
-0.0684961
-0.0185074
-0.0995912
0.0354846
0.0156862
-0.00106497
0.0437099
-0.116127
-0.21094
0.10582
-0.183522
-0.149364
-0.0989121
0.0461751
-0.103491
0.124886
-0.108498
0.0331707
0.0039362
0.0432831
0.0359309
0.100927
-0.0593395
0.0478793
-0.00115247
-0.0935934
0.0292582
-0.0927243
0.0487117
0.0303762
-0.0902082
0.05483
0.0173201
0.094296
-0.0853677
-0.0948476
0.00802697
-0.0845731
0.0512815
-0.0552536
-0.289891
-0.138047
-0.101504
-0.135201
-0.293845
0.0178379
0.0652103
0.026066
-0.0581322
0.062855
0.0318161
0.0303832
0.0440135
-0.151248
-0.106993
-0.0998324
-0.101313
0.0155309
0.13754
0.0351019
0.0371306
0.0371856
0.0293974
-0.0498387
-0.0889466
-0.167044
0.0174534
-0.106619
0.0347798
-0.125907
0.0366002
-0.142511
-0.116309
0.0378609
-0.00488473
-0.271424
-0.0204533
-0.29688
0.0435735
0.0372948
-0.0629184
0.0331824
-0.195842
0.0144664
-0.011296
-0.104047
-0.0847989
-0.0880561
-0.275411
-0.104985
0.0319224
-0.0865371
0.00811851
-0.10433
-0.0857309
0.0156523
0.042438
0.00761424
-0.140259
0.0330642
0.0430701
0.0292347
0.034614
-0.0857188
0.0699532
0.00385943
0.0233476
-0.0903348
-0.167733
-0.096202
-0.129935
-0.184637
0.035558
0.0369994
-0.104637
-0.102699
0.0199845
0.0507527
0.122111
-0.0431094
0.0175945
0.0404627
-0.108892
0.0964266
0.0292397
-0.0691115
-0.100575
0.0346473
0.0179288
-0.00435582
0.0956332
0.0203375
-0.0801583
-0.286203
0.0352133
-0.0930827
0.0731943
0.0365462
-0.108797
-0.153949
0.0424823
0.166347
-0.11034
-0.132215
0.0300699
-0.151126
0.0509614
-0.057914
-0.0443716
-0.0943677
0.0208381
-0.120061
0.0330043
0.0518785
-0.051147
0.043886
0.00277703
0.0345817
0.0211384
0.00791573
0.0522001
-0.0900342
0.016017
-0.0141129
-0.0452729
-0.0451528
0.0156723
-0.0958786
-0.0430918
-0.0416301
0.0202676
-0.285433
-0.0908025
-0.0256087
-0.176709
-0.133451
0.0362918
0.0354182
0.131136
0.0266756
0.0163936
0.125811
0.0375928
0.0564512
-0.129274
-0.0980009
0.0932638
-0.179513
0.0539195
-0.0242662
-0.0901732
-0.0864442
0.0701494
-0.313807
-0.0969826
0.0309059
0.0637844
0.0349595
-0.0793322
0.039171
0.0311128
-0.134158
0.0436214
0.00604643
0.027364
-0.172841
-0.0956063
-0.0313099
0.241269
0.0308111
-0.108594
0.0386591
0.0308439
0.0343702
-0.127298
0.0200496
-0.0318927
-0.0440404
-0.0245715
-0.117813
-0.0408936
0.00744571
-0.0983088
-0.0424799
-0.101429
-0.0168092
0.160137
0.0930453
-0.105459
-0.00771546
0.0665142
0.0553679
-0.105534
-0.0186056
0.0150091
-0.0498887
-0.099947
-0.289095
0.0326286
0.0370481
-0.235708
-0.103342
-0.0996477
-0.230862
0.0909009
0.0365839
0.0359206
0.0242924
-0.190511
0.030764
-0.0459471
-0.106215
0.0586155
0.0726445
-0.10133
0.0204124
-0.164757
0.0227903
-0.0427326
-0.0440808
-0.0872565
0.0346622
-0.00518334
0.0368939
-0.0402597
-0.124695
0.00283579
0.0345302
-0.134533
-0.0869341
0.00362437
0.0301609
-0.174855
0.0405424
-0.0863187
0.0319951
-0.119475
-0.360542
0.0594602
0.0659073
-0.0928169
0.0348127
-0.111129
0.0358993
0.0233336
0.0183483
-0.0781899
0.109033
-0.0743602
0.0891677
0.0379328
0.0344496
-0.102141
-0.171279
0.0149437
0.0485224
0.0337106
-0.0956846
0.0347774
0.0142274
-0.144533
0.0188505
-0.195333
0.031016
-0.069393
-0.0923788
-0.279686
-0.0112731
-0.321817
0.0751503
0.0374196
-0.12011
-0.118996
0.03406
-0.105237
0.042621
0.029755
-0.0907481
0.0387969
-0.118788
-0.224711
-0.130538
-0.170063
-0.0696474
-0.102313
0.0144274
-0.028654
0.0942414
-0.058131
0.0344386
0.0412745
0.0145014
0.0335726
0.0199322
-0.436715
0.230107
0.0293941
0.02325
0.0340125
0.0143215
0.0281007
-0.0307061
-0.157954
-0.112686
-0.105399
0.0257121
0.0362421
-0.146751
0.0278161
0.0484973
0.043388
-0.020576
0.0299056
-0.0037406
0.028305
0.0404529
-0.222149
-0.0933903
-0.130591
-0.190544
-0.498854
0.0217799
-0.0440733
-0.104189
0.0482287
0.0759106
-0.00503034
0.0198538
-0.100859
-0.0733819
0.0347805
-0.100191
0.00978064
0.0470514
-0.130779
0.0402654
0.066166
0.0395295
-0.329812
-0.00319946
0.0647992
-0.132315
-0.101154
0.00974163
-0.350667
-0.0998615
0.0150377
0.0329442
-0.21813
0.146423
0.0199442
-0.14066
0.186469
0.0676575
0.00268744
0.0934724
-0.228286
0.0377882
0.0187409
-0.0338614
-0.0062417
0.0328141
0.0293745
-0.120941
0.0256532
0.0327934
-0.218782
-0.103863
0.0337322
0.0239904
-0.0924424
0.0341755
-0.0631415
0.031309
0.138867
0.0685797
-0.182054
0.0358463
0.0368494
0.0486649
0.024854
-0.128854
-0.180588
-0.114937
-0.279348
-0.0797585
-0.167443
-0.0645443
-0.0947662
0.0313741
0.0380931
-0.188542
-0.105558
0.0385892
-0.0446406
0.0386459
-0.10946
0.0176252
0.0324982
0.0409563
-0.103098
0.0705777
0.0596518
0.0326246
0.0325375
-0.13487
-0.114917
-0.00145254
0.0341655
-0.107451
-0.00619326
0.0196664
-0.0631147
-0.0998607
-0.0371837
0.0255278
0.0162915
0.0576025
-0.0403696
-0.102151
-0.444608
-0.101135
-0.0479555
-0.148775
0.0178816
0.0197893
-0.0590655
0.0158686
-0.257579
-0.234536
-0.092292
-0.0891413
-0.142006
0.00708787
0.0391386
-0.0739407
-0.0936953
-0.152715
0.0356068
-0.0268749
-0.0996739
0.0095724
-0.13745
-0.185279
0.0178267
0.0279885
0.109606
0.0370494
0.0978368
-0.349949
-0.28504
-0.128099
-0.0280913
-0.106583
-0.0950376
-0.142814
0.0208379
-0.0825994
0.0360278
0.0118438
-0.114362
0.016287
-0.0440465
0.0336617
-0.0303061
-0.169041
0.0712856
0.00446091
0.0313242
-0.0695283
0.0464084
-0.135788
-0.216935
0.00901267
-0.0786027
-0.254151
0.0306797
0.0962772
-0.0162165
0.0311788
0.0481727
0.0271725
-0.0928589
0.136409
0.0255606
0.0308501
0.0318354
-0.217158
0.0162668
0.0504067
-0.157611
0.0234994
0.0173545
-0.1201
-0.14121
-0.110986
0.0307844
0.0199888
-0.0783806
0.0666283
0.0348795
-0.112737
-0.084915
-0.100201
-0.107797
0.0533814
0.0587771
0.0297072
0.0208192
-0.0473759
-0.0855171
0.0178022
-0.0899634
-0.0550872
0.00826971
-0.27645
-0.120243
0.00532064
0.179093
-0.091825
0.0352267
0.0330996
-0.00130101
0.0201563
0.0694461
-0.00596155
-0.0408288
0.0997135
0.014725
-0.0992943
0.00857175
-0.111924
-0.184947
0.030088
0.0356918
0.0376015
0.0307678
0.0122583
-0.105213
-0.113896
0.000280998
0.0351167
-0.101147
0.0442476
0.0232274
0.0386667
-0.114229
0.00197968
0.0722062
0.0693974
0.0108249
-0.130494
0.0194957
0.0442687
0.0148723
0.0329599
-0.440587
-0.105864
-0.127502
0.0454183
-0.134201
-0.111961
-0.178122
-0.116232
0.00457698
-0.205478
0.0489682
0.136455
0.0864524
-0.0872765
-0.101112
0.0679179
0.0296553
0.0376815
0.060183
0.0397632
0.0161623
-0.102375
0.0256151
0.0229247
-0.118144
0.0473682
0.17007
-0.486506
0.0482912
0.0360289
0.0353491
0.0213304
-0.0742613
0.0532377
0.0307326
-0.146526
-0.0960158
-0.0747903
-0.0133833
-0.224301
-0.329232
-0.0424679
0.0312765
0.0102149
-0.148338
0.0472058
0.0277533
0.019607
0.0149984
0.0496456
0.0344581
0.0368309
-0.118255
0.029005
0.0197741
0.253179
-0.0991562
0.0357684
0.0238586
0.0311579
0.0346692
0.0361819
0.0479805
0.0122998
0.0187132
-0.097303
-0.0913219
-0.147409
0.0368008
-0.00558348
-0.0430759
-0.0105123
-0.0439277
0.0983445
-0.161722
-0.0889073
-0.100009
0.0378585
0.0335485
-0.117126
-0.101628
-0.0898959
0.0259086
0.0324756
-0.0239202
0.0465841
0.095945
-0.103047
0.0427924
0.0359878
-0.0929423
-0.127107
-0.0770316
-0.0947374
-0.119334
-0.461871
0.0410317
-0.0443496
-0.08779
-0.0729477
-0.118707
0.00371191
0.0120168
0.0648103
-0.0153491
0.0148005
0.0389369
-0.0022351
0.0310822
-0.0181961
-0.172179
-0.0490547
0.015207
-0.0249331
0.0528954
0.0476042
-0.00138557
-0.277392
-0.189479
0.0200065
-0.00951484
-0.110729
0.0540583
0.00680932
0.0233526
0.0205903
-0.192681
-0.00101415
-0.0479953
0.0669653
-0.223941
0.0474482
0.0416116
-0.173812
-0.0534465
-0.139489
0.0190931
-0.122461
0.034758
0.042402
-0.132549
0.024162
-0.103939
0.0291897
-0.121324
-0.283139
-0.074832
-0.110962
-0.165344
-0.0953534
-0.154608
0.0366577
0.0409975
0.0292106
0.0336988
0.0332623
-0.0489965
0.00375121
-0.173812
-0.0878735
0.0952198
0.0172537
0.0285596
0.036853
0.0348812
0.027717
0.0346318
-0.0132459
0.0843073
0.0191942
0.0349937
-0.15658
0.0193183
-0.100646
0.0205538
-0.0997069
0.0187559
-0.0994579
-0.0991226
-0.1876
-0.0842451
0.0182093
-0.10115
-0.164398
0.0525577
-0.200498
0.0354175
-0.101063
-0.108074
0.0219408
-0.0966257
0.00779
-0.121021
-0.0430154
0.0166495
0.039182
0.0380669
-0.0170467
-0.0994331
0.0373023
-0.0630327
-0.0103916
0.0369927
-0.182532
0.0887277
0.0437764
-0.10246
0.0113133
0.0329503
-0.282993
0.110738
0.0319891
-0.0706838
0.0259664
0.016094
-0.0943303
0.00933348
0.0216165
0.0498656
-0.039723
-0.0845009
-0.193425
0.0388138
-0.101157
0.0183098
0.0319976
0.0647564
-0.00783648
-0.0130854
-0.147877
-0.183566
-0.0524165
0.0308222
-0.178025
-0.388069
-0.164327
0.0239075
0.0415875
0.0554724
0.00532324
0.034889
-0.0114361
-0.00691307
-0.0113966
0.0171743
0.0477861
0.00450962
0.0372143
-0.039022
0.0470944
0.0224635
-0.0931878
-0.131669
-0.120617
-0.19878
-0.0760785
-0.0843842
0.0319284
-0.130765
-0.145915
-0.061378
-0.0409035
0.207083
-0.126209
-0.163713
0.0310686
-0.0398554
-0.202323
-0.132993
-0.141672
0.0323407
-0.134951
-0.0439555
0.115946
0.0394305
-0.0698363
0.0083443
-0.0309123
-0.0133369
-0.0365025
-0.445772
-0.177786
0.0429904
0.0141667
0.0367143
0.0435856
-0.136414
0.0151372
-0.0879085
0.019632
0.0130656
0.0331315
0.0202
0.0319014
-0.145907
-0.0464736
-0.0925672
0.046895
0.0450095
-0.0835629
-0.0811786
-0.133057
0.0362983
0.0424516
-0.334455
0.0410657
0.0314626
0.00262297
0.0364696
-0.152677
0.0150014
-0.0794775
-0.105327
0.0183287
-0.0882069
-0.200194
0.0322821
0.0328958
-0.0167241
0.0147815
-0.0652799
0.00334929
-0.218343
-0.00428498
0.0380006
0.0336269
-0.108618
0.0330393
-0.444881
-0.0503263
0.0225707
-0.0942327
-0.107188
-0.0986958
-0.157593
0.0362876
-0.0650989
-0.0780331
-0.387649
0.0321836
-0.0243846
0.0173555
-0.0126257
0.0195783
-0.163091
-0.15222
0.00616057
-0.209558
0.0358783
-0.0144975
0.0375845
-0.0489746
0.00843444
0.0413618
0.0312838
0.0315846
-0.105628
-0.223619
0.0169145
0.0247673
0.0102561
-0.154294
-0.0944395
0.0466776
-0.081472
-0.101274
-0.0374903
0.0265747
0.0389986
-0.114481
0.0320252
0.0438769
0.048305
0.0375027
0.0154214
0.0306177
-0.0148715
0.0447642
0.049977
0.0053146
-0.0852767
-0.0369775
-0.102885
-0.0844677
-0.0211285
-0.0967943
-0.00259216
0.0315231
-0.114879
-0.0998385
-0.0626926
-0.000542678
0.0317637
0.0295128
0.0651737
0.00469621
-0.114985
-0.0980603
0.0240031
0.0418159
-0.0393344
0.0413175
-0.308422
0.0945418
0.0476887
-0.039988
-0.0629557
-0.101389
0.0372478
-0.135235
0.215713
-0.397744
0.000876852
-0.151095
-0.0561202
0.015037
0.0355665
0.0203792
-0.440984
-0.21747
0.104336
0.0335684
0.0161084
-0.123864
-0.099892
0.101158
0.0246068
0.00332772
-0.00564409
-0.0409472
-0.102839
0.0486333
-0.112471
0.042776
-0.159385
0.0253372
-0.0644855
0.023722
0.0220572
-0.183634
-0.23487
-0.0747669
0.00835518
0.000152715
-0.0162071
-0.102643
0.0438702
0.0269443
-0.0146814
0.0144234
0.0496544
0.0251668
0.0375215
0.12116
-0.0646009
0.0260204
-0.0889315
-0.0977949
0.0859664
-0.0401
0.0348369
0.0238539
0.0179123
-0.0412812
0.104198
0.0173498
0.0563302
-0.153853
-0.0567977
0.0690954
-0.14468
0.202312
-0.0563073
0.00986263
0.0159215
-0.162363
-0.0567491
0.0183602
-0.106283
0.125145
-0.0999405
0.0769219
0.0468747
-0.110321
0.0473299
0.0472781
-0.0919967
-0.114129
-0.190386
-0.469606
-0.103719
-0.0662546
0.0487761
-0.032877
-0.0986813
0.0337085
0.0521858
0.0361881
-0.167721
0.0268124
-0.167618
-0.0518165
-0.239904
0.0302341
-0.0765172
0.00235674
0.0327484
0.00640685
-0.0535648
0.0869142
0.0114006
-0.0509817
-0.139137
-0.195353
-0.129834
-0.115299
-0.0993007
-0.00851271
-0.077125
-0.000546756
0.0181103
-0.153117
0.0285472
-0.104266
-0.0255042
-0.171485
-0.33005
-0.0866268
0.0452472
-0.183002
-0.239942
-0.144679
-0.0232975
0.0483251
-0.00043981
0.0356951
-0.172631
-0.178384
-0.0144154
-0.12381
0.0684823
0.0795569
0.0358959
-0.0993166
-0.108149
0.0341346
-0.101115
-0.135017
0.0373743
-0.2234
0.0167789
-0.137812
-0.249887
0.0169997
0.0320773
0.0407836
0.0666236
0.04387
0.0260077
-0.0416597
-0.00325593
0.0192423
0.0178418
-0.121496
-0.0221743
-0.0985758
-0.0444531
0.127006
-0.0853757
-0.0981514
-0.0947448
0.0330018
0.0161801
-0.0496117
-0.048603
-0.0873632
-0.00340486
0.0274343
-0.14744
-0.100781
-0.0136264
0.0315558
0.0164591
0.0182723
-0.0216679
0.00962841
0.016552
0.0648531
0.0195047
-0.0965727
-0.116444
0.0161486
-0.178646
0.0308844
-0.0225687
0.0112257
-0.0706691
0.0337046
0.0420978
0.0169109
-0.0130075
0.167548
-0.172961
-0.0850392
-0.286971
-0.161022
0.0249331
-0.0495124
-0.229673
0.0155983
-0.0967667
-0.13722
-0.221006
0.0435145
-0.13206
-0.197671
0.0424011
-0.0965103
-0.142098
-0.0230777
-0.085376
-0.102461
-0.0328803
-0.131838
0.0396875
-0.115172
0.0480085
-0.0381931
-0.0959941
-0.0241764
0.0504148
0.00146409
-0.131871
-0.187817
0.0391331
-0.0875407
-0.0458213
-0.124451
-0.176685
-0.453378
0.015865
0.0451827
0.0327254
-0.26091
0.0157005
0.0483585
-0.163285
-0.0989341
-0.0761262
-0.0398348
-0.0575724
-0.00324098
0.0372367
-0.180713
-0.0335484
-0.218346
-0.133074
0.019526
-0.192803
0.0309508
-0.0333201
0.0158298
-0.102947
-0.110163
-0.234186
0.153467
-0.0777426
0.0236006
-0.0998251
-0.048421
0.0354717
-0.09978
0.0957447
-0.105676
-0.102979
-0.116606
0.0375847
-0.135815
-0.108684
-0.211016
-0.214694
-0.081902
-0.143974
0.0322774
0.0249518
0.0140712
-0.0116179
0.0481105
-0.0339351
0.0308265
-0.124483
0.0384452
0.0373619
-0.0834645
-0.157332
0.125724
0.147045
0.028982
-0.182219
0.00694226
-0.104574
0.00127058
-0.0876397
-0.132989
-0.0158461
0.0329297
0.0476997
0.0176668
-0.0936523
-0.204266
-0.114815
-0.0432758
-0.10173
0.0416735
0.115817
0.0125047
0.0501182
-0.0996998
0.107569
-0.00753809
-0.0703893
-0.103943
-0.0635623
-0.0826537
0.0712734
-0.0149388
-0.0967964
-0.0125358
0.0382567
0.113045
0.0290854
-0.234395
0.193726
0.196424
-0.191959
0.038542
-0.266655
0.0182044
0.0224723
-0.0031601
-0.110628
-0.133783
0.0450177
0.0285934
0.0488871
-0.0792372
0.0125357
0.0313469
-0.18917
-0.146876
-0.0940983
-0.120228
-0.100962
0.0196249
-0.121669
0.0417392
-0.135986
0.0163586
0.0660173
0.0168226
-0.0130892
0.0319376
0.0161095
-0.114159
-0.0913277
-0.271816
0.0158584
0.0388349
-0.111013
0.0435053
-0.0948653
-0.147664
0.0289888
0.014439
0.0316493
0.149971
0.0486618
-0.0149333
0.0375183
0.00899794
-0.1013
-0.112505
0.00393629
0.00446385
0.0484744
0.0471452
0.0313707
0.0623826
0.139325
0.0684714
-0.0824084
-0.0414511
0.0472185
-0.101297
0.00398835
0.0311261
0.048182
-0.101216
-0.236411
0.0317884
0.0319282
-0.00729979
0.0344642
-0.171047
-0.101144
-0.199628
-0.130718
0.0206097
0.0805923
0.0572074
0.0438058
0.199643
0.0489209
0.0309004
-0.0937704
0.0830672
0.0371351
-0.14779
-0.0916881
-0.0956853
0.0128625
0.0845701
0.0386916
0.0224457
-0.213342
0.000501365
0.0343653
0.218504
0.020465
0.0321268
-0.150994
-0.0167539
-0.272121
-0.110652
-0.124292
0.145075
0.0326161
0.104023
0.0922162
-0.107514
-0.0953855
-0.283447
0.132875
0.0310112
-0.10901
0.03205
0.0524423
-0.0058649
0.031756
0.0317082
-0.186672
-0.102922
-0.108186
0.00786629
-0.462981
0.219334
-0.0419283
0.0190653
0.0781575
-0.104511
-0.00292001
0.0352123
0.0754196
-0.0123232
-0.0894482
0.0126433
0.0190737
-0.11278
-0.0208295
0.0152732
0.0347105
-0.113697
-0.44872
0.0755805
-0.0990427
-0.0200225
-0.110151
-0.142376
0.0269383
0.0534306
0.0276348
0.0432265
-0.0856512
0.0392799
0.0182278
0.0178085
0.0445145
0.0353655
0.0168825
-0.0195049
0.0178927
0.0328518
0.0356573
-0.110811
-0.0416573
-0.156352
0.0237684
0.0240499
0.02781
-0.0934417
-0.229159
-0.0943633
-0.0120135
-0.112023
0.0138527
0.0317155
-0.0215865
0.028821
0.223217
-0.00940013
0.0223128
0.0294768
-0.148655
-0.107676
-0.164122
0.0340184
-0.126271
-0.101369
0.0317276
0.0131213
0.039265
0.0335165
0.0350779
-0.122646
-0.104699
-0.108901
0.146723
0.0170457
-0.107893
0.0336945
-0.0866505
0.00107253
0.0671242
0.0177721
0.0357766
-0.182293
-0.1068
-0.123384
-0.146894
-0.122844
0.0331822
-0.114445
0.0417218
-0.294474
0.0324721
-0.0991901
-0.178636
-0.115315
0.0402908
-0.116273
0.033237
-0.111014
0.0294337
0.0470737
0.0774051
0.0420701
0.135727
-0.0220355
0.0353425
-0.0126755
0.0374973
-0.0191251
0.0395106
-0.0246829
0.0422186
-0.0940074
-0.372993
0.0276932
0.033923
-0.0981958
0.119742
-0.18013
0.0141201
-0.17133
-0.123617
-0.105517
-0.149569
0.0478655
0.0291621
0.0143302
-0.0563618
-0.205177
0.00251417
0.0456626
-0.00968846
-0.296077
-0.0989455
-0.16418
0.0321903
-0.103023
0.0372785
-0.0950267
-0.326328
-0.0973708
0.0564821
0.0387471
-0.0993137
0.0354176
0.239167
0.0268786
-0.078939
0.0162499
-0.0234948
0.0138526
-0.111843
0.0275518
-0.137736
-0.301246
0.0476351
-0.158015
0.0845968
-0.428583
0.037935
0.0787392
0.0177132
-0.151554
-0.000142538
0.0375645
-0.508628
-0.296438
0.0359043
-0.104314
-0.0661635
-0.117842
-0.0954732
0.160471
0.0520104
0.0692064
-0.0361954
-0.0105636
0.029163
0.0425343
0.0351632
-0.0933605
0.0326063
-0.109984
-0.149203
-0.169363
0.0898735
-0.116416
0.0384476
-0.0505911
0.0562374
0.110175
0.0396667
-0.057811
-0.111923
-0.0524768
0.0383919
0.150309
0.0144063
0.0097303
0.0302164
0.0365898
0.032246
-0.206551
0.0674804
0.0385476
0.123939
-0.0987499
-0.104016
0.082514
0.000693612
-0.125302
-0.067962
0.0173999
-0.271918
0.0267168
0.0189849
-0.189866
0.05939
-0.102677
-0.103886
0.0371632
-0.188529
-0.00424664
-0.117707
0.0193847
-0.0805687
0.0160432
0.0281635
-0.0847657
0.0766571
-0.12618
-0.152636
0.199171
0.0506379
0.0104059
0.088295
-0.107762
0.00672749
0.0235144
0.0387151
-0.274799
0.0374332
0.0274925
0.0505221
0.0343035
-0.0515466
-0.00164225
-0.115209
0.00851666
0.0395272
0.0314976
-0.223084
-0.110042
0.00681535
-0.100567
0.0294539
-0.00199777
-0.102646
0.0105499
-0.126618
-0.133209
0.0330777
0.00808186
-0.000868808
-0.0504844
-0.242409
-0.238358
-0.0757021
0.100567
-0.046564
0.0314611
-0.133471
-0.0917222
0.037577
-0.0440627
-0.0468151
0.0408466
-0.275457
-0.118542
-0.0214105
0.0653847
0.0553894
-0.0724233
-0.093793
-0.12773
-0.112798
-0.0926415
0.067945
0.0153791
-0.156805
-0.0220513
-0.222906
-0.0888054
-0.120428
-0.159665
-0.0972064
0.0214001
0.0410499
-0.104731
0.0669368
-0.0191953
-0.0910183
-0.100205
0.0358199
-0.342037
-0.0943409
0.0150175
0.0306613
-0.086015
-0.104896
0.00828802
0.0161353
-0.110306
-0.124073
0.0127957
-0.114643
-0.0902486
-0.110865
-0.156646
0.045953
0.0317981
-0.136381
-0.083608
0.0645029
-0.0857532
-0.10158
0.0302855
0.0634632
-0.0161998
0.0831741
0.00789133
-0.109147
0.0245798
-0.100994
0.0317622
-0.118265
-0.0524048
-0.0885196
0.066427
0.0350849
0.0195684
-0.0861148
-0.102489
-0.16034
0.0237446
-0.133958
0.0164929
-0.0879112
0.0170086
0.032264
-0.175301
-0.121683
-0.115854
-0.110645
0.0058336
0.214175
0.0385851
0.0408557
-0.147161
0.128062
0.0546236
0.0653594
0.0393296
0.0316112
0.0328476
0.0586561
-0.19232
-0.139918
0.0107373
0.0683643
-0.127836
-0.0992403
-0.275937
0.0364732
0.0406378
-0.170041
-0.18309
-0.00261195
-0.0752565
0.0533953
-0.442029
0.0308425
-0.0931598
0.0233917
0.0823837
0.0332079
-0.022193
-0.0815826
0.0362097
0.098959
-0.110876
0.0898638
-0.152328
0.0373836
-0.0568268
-0.261442
0.0308824
0.0356584
0.019863
-0.114031
0.0285613
0.0177672
0.0263527
-0.106948
-0.117646
-0.0616663
0.0384762
0.00172062
0.0380768
0.234804
0.0129292
0.0617161
0.0348839
0.00625877
0.125889
-0.00232146
-0.275435
-0.0586588
-0.0913009
-0.0867756
-0.00166394
-0.0969103
0.0117459
-0.124266
-0.0994661
0.0477945
-0.255925
0.132334
-0.00205941
0.0399685
0.0312904
0.0204267
0.0315324
0.0520313
-0.0988215
0.0288619
0.0127821
0.037889
-0.0958059
0.111637
-0.120278
0.0413372
-0.0184614
-0.116197
-0.085168
-0.0197505
0.0307464
-0.268065
0.0399386
-0.0974047
-0.0432035
-0.0787732
0.0295583
-0.106219
0.0397197
0.0313701
0.0327525
-0.0951253
-0.174699
-0.169965
0.113635
-0.108182
0.0193789
0.039191
0.038915
-0.0563725
-0.11214
0.0435217
0.124606
-0.136676
-0.154233
-0.0746644
0.0374273
0.0261321
0.029549
0.0207007
-0.111058
0.038555
0.0363362
0.0346491
-0.0167067
-0.168014
-0.137669
0.0917664
-0.100421
0.021032
-0.140971
-0.111112
0.0149734
0.0418294
-0.139598
0.0178757
0.0397777
-0.106351
-0.209014
0.0229812
0.00444514
-0.0629647
0.0295688
-0.103522
0.0493074
-0.0909833
-0.22432
-0.0316183
0.0172276
-0.296108
-0.079881
-0.456108
0.0167118
0.016814
-0.141265
-0.00707853
0.0397827
0.016499
0.0181964
-0.0987243
-0.110863
0.0501246
0.0443638
-0.11929
-0.109541
-0.139694
0.133958
-0.171372
-0.118446
-0.15552
-0.124922
-0.107556
0.0239144
0.0153072
-0.101731
0.0373612
-0.0797493
-0.0805223
0.00376437
-0.231417
-0.0869495
0.0239831
0.0342406
-0.10432
-0.335224
-0.111059
0.0549223
-0.172584
0.0950346
0.0915639
-0.048193
-0.186229
-0.107396
0.0169784
0.0493631
-0.00337934
-0.200618
-0.0516429
-0.2066
-0.141922
-0.0997128
0.0570156
0.00499849
0.00607779
0.0599465
0.0359932
0.0777148
0.0125298
0.148961
0.0527636
-0.0159821
-0.120499
0.04208
0.0233137
-0.169633
0.0236525
-0.0808693
-0.0054715
-0.295696
-0.109331
-0.0737471
-0.0763238
0.0103629
-0.0858878
0.0221254
-0.135324
-0.0185534
-0.13813
0.0791534
0.140716
0.0383558
0.035865
0.044845
-0.13049
-0.100051
0.0329468
-0.112407
-0.0958765
-0.139144
-0.0126757
-0.172806
0.0278228
-0.137812
-0.19064
0.0319371
0.0482774
-0.139956
0.0318425
-0.113381
0.0212986
-0.209409
-0.0232378
0.0383915
-0.098135
0.00860491
-0.180598
0.145543
0.0166391
-0.150914
-0.0934232
0.0358399
0.0441728
0.0131838
-0.113199
-0.0974209
-0.0967333
-0.126899
0.0371845
-0.152226
0.0524985
0.000205567
-0.024255
-0.10588
-0.174949
0.0404759
-0.110808
0.0324072
0.144993
0.0608384
0.0164189
0.0335317
-0.117078
0.0635443
0.0396333
-0.113871
0.00694632
-0.11721
-0.110664
-0.263656
-0.099842
0.0495404
-0.0845541
-0.107597
-0.0562747
0.0127014
0.0112371
0.0180575
-0.0355057
-0.045341
-0.0531355
-0.0729696
0.0328651
0.0527591
0.0152672
0.0182364
-0.0908561
0.0352327
0.0143125
0.0229292
0.0374838
-0.0464569
0.190834
-0.284032
0.0331222
-0.0920875
-0.212799
-0.209433
-0.191296
-0.202373
-0.0838305
-0.10948
-0.117654
0.0439613
-0.0692386
-0.000769295
-0.164653
-0.106119
0.0309013
0.0256958
-0.0896558
0.0106356
-0.12094
-0.108068
-0.120175
-0.117524
-0.19147
0.00395054
-0.064483
-0.0613707
-0.00608018
0.0966765
0.0408835
-0.0311803
0.0402811
0.127186
0.0265137
0.0380234
-0.0218182
0.0193931
-0.113667
0.0262374
-0.0319672
-0.448706
-0.0570804
-0.0365936
0.0375084
-0.275235
0.0642528
0.0382453
0.0161958
0.0917844
0.0359975
0.0319967
-0.0996346
0.0190272
-0.0163244
0.00268353
0.0174688
-0.0829704
0.206204
0.0467025
0.0361992
-0.102198
0.169459
0.0329858
0.0362784
0.0470247
-0.10029
-0.401862
0.0260739
0.0295329
-0.0125741
-0.13751
0.0345395
0.0942165
-0.102645
-0.100337
-0.013889
0.127072
-0.163059
0.0158448
0.0276746
-0.101082
-0.0890088
-0.113542
-0.154299
-0.243493
-0.182371
-0.203973
0.0235783
-0.202239
0.0501744
0.0421286
-0.00859428
-0.00010188
-0.172404
0.0321769
0.0473678
-0.469383
-0.104852
-0.18667
-0.131464
0.0312002
0.0102913
-0.307167
0.0126845
-0.103128
0.0145415
0.0374015
0.0384201
0.0232596
0.0995301
0.0387005
0.0118299
-0.0141003
0.0374592
-0.131918
0.0156013
-0.0475109
-0.0556922
-0.0364061
0.0334266
0.00749219
0.193608
-0.116548
0.0567633
-0.00354887
-0.062064
-0.0813719
-0.109198
-0.115875
0.0343995
0.0207125
0.0382688
-0.0625599
0.0345873
-0.152021
0.0124021
0.0216294
0.0366525
0.076485
-0.0754138
-0.0500693
-0.0252251
-0.0979205
-0.126923
-0.122731
-0.095138
0.0276887
0.0363937
0.016791
-0.11313
-0.0996571
-0.0489701
-0.236887
0.0288204
0.0314347
0.0297293
-0.119217
-0.178074
-0.0158491
-0.146818
-0.0536333
-0.0102403
-0.176347
0.0129179
0.0231373
-0.1246
0.0241431
-0.090078
-0.0632344
0.0323853
-0.0989498
0.0318719
0.0754249
-0.0889151
-0.07853
0.0210676
-0.0946548
-0.0625482
0.031636
-0.107362
0.0514437
-0.038718
-0.148532
0.0160662
0.034611
0.0257491
-0.110179
-0.0192902
0.0495662
0.0315133
-0.253737
0.0438446
0.00645911
-0.0584177
-0.10667
0.0171753
0.0200395
-0.284516
0.0445315
0.00843509
-0.113337
-0.148773
0.00558839
-0.153655
-0.0697951
0.0564918
-0.196297
0.0124645
0.0235333
0.0307235
0.0355595
-0.0630558
-0.149856
0.0784904
-0.0722427
-0.155258
-0.118045
-0.102469
0.00342578
-0.17164
-0.0173046
0.0173393
-0.0199071
-0.122166
-0.0761461
0.00788173
0.0741012
0.0411226
0.0359051
0.036325
-0.0502482
-0.069445
-0.0167465
0.0111309
-0.0679266
-0.0311945
-0.0748118
-0.166154
-0.178951
-0.226192
0.0415216
-0.110406
-0.124067
0.0402811
-0.0259083
-0.272383
0.0361724
0.0347812
0.0122898
0.0559635
-0.181682
0.0106695
-0.102236
-0.121785
0.023711
-0.0551705
-0.193844
0.058656
-0.0295082
0.0146593
0.0196685
0.0178974
-0.100969
0.0344741
-0.0817838
0.00468615
-0.142571
0.0463328
0.0243442
-0.155313
0.025007
0.0300194
0.0738327
0.0773287
-0.180435
-0.0332148
0.0291466
0.0197724
-0.144155
-0.0874498
0.00810944
0.010601
-0.147619
-0.0795521
0.0380987
-0.0995054
-0.0918251
0.0003788
0.0171006
0.164409
-0.00370149
-0.223685
0.0312841
-0.26303
-0.308033
-0.156654
0.075015
-0.136526
-0.0480369
-0.0228399
0.036684
-0.0755876
-0.186246
-0.115105
0.0763941
0.0503299
0.0394032
0.0219895
-0.125426
-0.11726
-0.116542
-0.194565
-0.102629
-0.19083
0.0196506
0.0670027
-0.112419
-0.10417
-0.209766
-0.160702
-0.192217
0.0320309
0.0168076
0.087101
-0.134763
-0.123038
0.0232489
-0.167452
0.00995385
-0.0373387
-0.112219
0.0215094
-0.0892127
-0.184981
-0.154429
-0.452204
0.0468347
-0.1227
0.0274875
-0.0849931
-0.177251
-0.173949
-0.394219
-0.183873
-0.0962511
0.0262836
-0.0606658
0.0931061
-0.125259
-0.0889126
-0.0970119
-0.044743
0.0782293
-0.04
0.0143
-0.107252
-0.118509
0.0203522
-0.126146
0.0201878
0.00361089
-0.0996733
0.031951
-0.126817
0.0465851
-0.102444
0.0273474
0.0258085
-0.150369
-0.0478434
-0.0982875
-0.148477
0.0597986
0.0327866
-0.132738
0.000325208
0.00662034
0.025744
0.0555333
-0.120093
-0.191073
-0.180489
-0.00507503
-0.120454
0.0399197
-0.147308
-0.119105
0.0172728
-0.104092
-0.180889
-0.110227
-0.108286
-0.107625
-0.102522
-0.0923676
-0.0538598
-0.0919812
-0.14959
-0.112867
-0.19777
-0.156124
0.114221
-0.0704992
-0.10121
-0.0616829
-0.26687
-0.106466
-0.0988004
0.0153202
-0.109306
0.0252472
-0.151541
-0.0926546
-0.132493
-0.0280125
-0.129132
-0.100716
-0.12025
-0.268272
-0.0395857
-0.150974
-0.164654
0.00164176
-0.260137
-0.0608003
0.0442935
-0.109288
-0.165717
0.0386935
0.0281251
-0.158518
-0.0970781
-0.179786
0.0506746
-0.120651
-0.126502
-0.123941
-0.14531
-0.0994832
-0.29207
-0.117158
0.0393454
-0.0755386
0.0212497
0.0313302
-0.161341
-0.100793
-0.161449
0.0311569
-0.193438
-0.255303
-0.101877
-0.123377
0.0352542
-0.0460583
-0.118037
-0.0918608
0.0170563
-0.0887181
0.036557
-0.101102
0.0586507
-0.108202
-0.119168
-0.118621
-0.244204
-0.122426
-0.0805219
-0.0918043
-0.111798
-0.126197
-0.083666
-0.124554
-0.016498
0.0870094
0.0359525
-0.0293095
0.0338086
-0.103023
0.0222955
-0.122514
0.0251627
-0.326168
0.0318117
0.0265466
-0.0413657
0.0357892
-0.125317
-0.135583
-0.0363349
-0.294956
-0.101604
-0.114086
-0.242856
0.0397739
-0.180141
-0.221206
-0.0403843
0.0179498
0.147425