/*--------------------------------*- C++ -*----------------------------------*\
| =========                 |                                                 |
| \\      /  F ield         | OpenFOAM: The Open Source CFD Toolbox           |
|  \\    /   O peration     | Version:  v2012                                 |
|   \\  /    A nd           | Website:  www.openfoam.com                      |
|    \\/     M anipulation  |                                                 |
\*---------------------------------------------------------------------------*/
FoamFile
{
    version     2.0;
    format      ascii;
    class       volScalarField;
    location    "150";
    object      k;
}
// * * * * * * * * * * * * * * * * * * * * * * * * * * * * * * * * * * * * * //

dimensions      [0 2 -2 0 0 0 0];


internalField   nonuniform List<scalar> 
18598
(
0.000107227
0.000569249
0.000149268
0.000151518
9.65442e-05
9.92969e-05
0.000112957
0.000136517
0.00252944
0.0318729
0.000113977
0.065135
9.33764e-05
0.0728045
0.000134206
0.00014612
0.0353357
9.90262e-05
0.000102557
0.0870255
0.00010691
0.000101412
0.0600772
9.82572e-05
9.84985e-05
0.0358041
0.00305251
0.000121286
0.00303581
0.000105996
0.0251315
0.000137237
9.89866e-05
0.00011867
0.000112896
0.000638522
0.00010025
0.000113816
9.61869e-05
0.040943
0.000165068
0.00392413
0.000339421
0.0690711
0.000106956
0.000102189
9.96912e-05
0.00799042
9.05926e-05
9.90005e-05
0.000109525
0.0234414
0.0002327
0.000188495
0.000101162
0.000111149
0.000122264
0.000134759
8.99962e-05
0.000107102
0.021202
0.000497975
0.000121191
9.84155e-05
0.000528747
0.00993792
9.02602e-05
9.34584e-05
0.033561
9.77968e-05
9.4103e-05
0.000109357
0.00974946
0.000228468
0.000128969
0.000157565
0.000130738
0.000110536
0.000128584
9.42082e-05
0.0857063
0.000102151
0.000116214
0.0357202
9.91061e-05
0.0264533
9.78445e-05
0.114082
0.000120303
0.000105444
0.000105601
0.000179547
0.00010693
0.000270683
0.0677999
9.56768e-05
0.0338831
0.000114459
0.0833391
0.000121008
0.00012074
0.000133524
0.000101445
9.66184e-05
0.000124218
9.57066e-05
0.000129564
0.022985
0.000120128
0.000573784
0.000109519
0.023488
0.000132414
0.000101591
0.000177851
0.000108578
0.0833799
0.000106531
9.53337e-05
0.000100473
0.0609878
9.62136e-05
9.52233e-05
0.000110016
0.0376892
9.55249e-05
9.4088e-05
0.000106745
0.000648378
9.69629e-05
9.32494e-05
0.000142367
0.0527686
0.000105785
0.0280491
0.000109402
0.000126768
0.000120563
9.95856e-05
0.000256259
0.00379423
0.000107358
0.000121768
0.0498857
0.00011404
0.000102691
0.0142598
0.000169219
0.000114356
0.000109472
9.58136e-05
9.38188e-05
0.00011033
0.0318763
9.5498e-05
0.000114336
0.0347866
9.56666e-05
9.30237e-05
0.000100373
0.000117017
0.000278252
9.05499e-05
9.50568e-05
9.66497e-05
0.046302
0.00249883
0.00013752
0.000132207
0.000116628
0.000128543
0.00011688
0.0591398
0.000221237
9.78547e-05
0.000101692
0.0798446
0.000108411
9.72727e-05
0.0425344
0.000110112
0.0109004
0.000139293
9.93411e-05
0.0207875
0.000109409
0.0344405
0.0400729
0.000124189
0.000240435
9.08157e-05
9.6548e-05
0.000137728
0.033365
0.000100819
9.8188e-05
0.0653786
0.020557
0.000115554
0.000338341
0.0327781
0.000110542
0.000116471
0.000148508
0.000105338
0.103435
0.00118906
0.000110488
9.52492e-05
0.0001014
0.000108859
0.0338713
0.000103958
0.000130767
0.000157973
0.000101416
0.000159174
0.000103692
0.000133582
0.000143796
9.21026e-05
0.000115481
0.000102879
0.000124854
0.000108761
0.000103746
9.54409e-05
0.000117137
0.053635
9.51081e-05
0.0522136
0.0301167
0.000114104
0.000106752
0.00213987
0.0920196
9.94398e-05
0.000109528
9.82145e-05
0.000105551
9.48554e-05
0.000107857
0.0209309
9.06372e-05
0.000293705
0.000101973
0.000117394
0.000107756
0.000101652
9.80361e-05
0.0281902
0.00233741
0.111173
0.0551821
0.000110528
0.0629604
0.000121327
0.0214138
0.000122181
0.0356808
9.71699e-05
0.000111011
0.0142349
0.059601
0.00424612
0.000105934
9.16478e-05
0.0304199
0.000157569
9.73568e-05
0.000103056
9.28483e-05
0.00010811
0.000109832
0.0103258
0.101082
0.0443838
0.0356348
0.000158153
0.000112304
0.000107012
0.130027
0.000102664
0.00952654
0.0390611
0.000108972
0.000152286
0.000142638
9.92069e-05
0.0341002
0.000161005
0.0135313
0.0226269
0.00331588
0.0789224
9.91324e-05
9.08003e-05
0.00425493
0.000123343
0.00010815
0.087138
0.0319483
0.00011714
0.0365216
9.79251e-05
0.00013413
0.0473325
0.00010964
0.0227436
0.000677364
0.0614069
9.62404e-05
0.00496783
0.0260052
0.000115341
0.000105925
0.000121432
9.60961e-05
0.000122543
0.0190323
9.34614e-05
0.0557152
9.48482e-05
0.000106914
0.000103001
0.0401523
0.000131564
0.00019452
0.000101082
0.000102173
9.49538e-05
9.073e-05
0.0154878
0.0386765
0.000101911
0.000321381
0.000107327
0.0231998
0.000155881
0.000106049
0.000107183
0.00044692
0.000222911
0.0331741
0.000109936
0.0283566
0.0331592
0.0318505
0.012344
0.0486821
0.000106133
9.3815e-05
9.39612e-05
0.000310916
0.000168944
0.000103311
0.000152713
0.0317554
0.000161283
9.85109e-05
0.000119546
0.03619
0.000128809
0.000102554
9.31133e-05
0.00010204
0.0142026
0.0255912
0.000113776
0.0873458
0.000104787
0.00727899
0.000105401
0.0447794
0.000133557
0.0165328
0.0418886
0.000103176
0.00012145
0.0416989
0.0857427
0.000127694
9.88524e-05
0.000111761
9.46324e-05
0.023162
0.000117456
0.000146439
9.26325e-05
0.000109476
0.00335832
0.000106471
0.000112699
0.000111804
0.069902
0.000103196
0.00010146
0.000119966
0.000482977
0.000104601
9.4454e-05
0.0001223
9.75189e-05
0.000146195
0.0310149
0.0358262
0.0219594
0.0431735
0.0325479
0.000130369
0.000127108
0.0289639
0.000116034
0.000106461
0.000146761
0.000108805
0.000109416
0.000105176
0.0841836
0.000104396
0.000105746
0.000115445
0.000129664
0.0213088
9.40029e-05
9.73155e-05
9.39818e-05
0.000107652
0.000111705
0.0241269
9.83917e-05
0.00667851
9.73966e-05
0.000382524
0.000189924
0.0264484
9.09342e-05
0.000127894
0.000313135
0.000113149
0.0676522
0.018393
0.000136643
9.49468e-05
0.000110457
0.0215521
0.0402582
0.0522365
0.000102573
0.00391607
9.10729e-05
0.0341693
0.0179179
0.00014753
0.0858751
0.000103355
0.000104767
0.000127566
9.92538e-05
0.000127259
0.000809929
0.000137202
0.000146287
0.0995248
0.000152382
0.00011788
0.0031555
0.000122645
0.0206295
9.23243e-05
9.54598e-05
0.000104145
9.95199e-05
0.0812119
0.000115259
9.77578e-05
0.000113469
9.85801e-05
0.0268106
0.000123467
9.08524e-05
0.00930303
0.000139342
9.80774e-05
0.000137246
9.61098e-05
0.000133713
0.000133981
0.000101369
0.000114072
0.000102164
0.000164213
0.00010853
0.000203122
0.0253776
0.000105724
0.000145876
0.00014703
0.0848562
0.000102823
0.0543797
0.000366385
0.00011013
0.027211
9.31391e-05
0.000104231
0.0585794
0.000109124
0.000111485
0.0231832
9.77736e-05
9.53896e-05
9.55306e-05
9.72869e-05
0.000112351
0.000107713
9.56475e-05
0.0273433
0.0187542
0.000106345
0.000106511
0.0344299
9.91797e-05
9.7418e-05
9.46894e-05
0.0655829
9.86508e-05
0.000114793
0.0864993
0.0393928
9.6096e-05
0.000159333
0.000111651
9.53954e-05
0.00282735
0.0540158
0.0139214
9.14997e-05
0.000103351
0.017877
9.88007e-05
0.00381479
9.60122e-05
0.000111926
0.00011048
0.0601314
0.000111901
0.000163369
9.47926e-05
0.00423947
0.0321054
0.0624491
0.00269573
0.0001146
0.0540501
9.40359e-05
0.0328437
0.0208812
9.13895e-05
0.00014683
0.024747
0.000120902
0.000105467
0.000100456
0.000105627
0.0659936
0.000113185
0.0253036
0.000111637
9.51125e-05
9.55859e-05
0.000374152
0.000120977
0.000103715
0.0249388
0.0631595
0.000114646
0.000112708
0.000115001
9.22128e-05
0.000466904
0.000162833
0.0568856
9.10067e-05
0.104993
0.0579453
0.000108279
0.000334491
0.00012209
0.0870655
0.00285254
9.6414e-05
0.0665782
0.000127625
0.000349099
0.033567
0.000115521
0.000107429
0.000135882
0.000109625
0.000106476
9.12111e-05
9.60515e-05
0.000101187
9.17955e-05
0.0213484
0.000103395
0.000104821
0.000147464
0.000108036
0.0187496
0.054181
0.020007
0.000103604
0.0695199
0.000110076
9.64053e-05
0.000105644
9.11277e-05
0.059935
0.0386757
0.000109365
0.000103211
0.000118701
9.40786e-05
9.10023e-05
0.000259112
0.000119932
0.000137624
9.41006e-05
0.000119625
9.25794e-05
0.000116749
0.00395859
9.63155e-05
0.000115571
0.000149646
0.000106154
0.0181272
0.000648041
0.000103409
0.000128156
9.65114e-05
0.000140527
0.000115252
0.000107626
9.26282e-05
0.000147112
0.0323649
0.0570458
0.000105776
0.00013248
9.83171e-05
0.000103692
9.24833e-05
0.0205837
0.0367771
0.000896968
0.00010626
0.000239656
9.6866e-05
0.000109366
0.000101505
0.000137644
0.000121917
0.0317036
0.000114837
0.000125057
0.0197042
0.000112872
9.56765e-05
0.0659735
9.17849e-05
0.0246985
0.000102288
0.000144853
9.55831e-05
0.000127293
0.000535129
0.100418
0.000107961
0.00010415
0.00010632
0.000122678
0.000107746
0.122781
0.000107262
0.0145793
0.000136881
0.000112485
9.07753e-05
0.000103468
0.000103802
0.000116407
0.000112162
0.000270914
0.0252137
0.000120705
0.000110437
9.08868e-05
0.000147703
0.000121353
0.000121354
0.0235183
0.000111602
9.30375e-05
0.000135283
0.000120599
0.0395808
0.00010115
0.0579663
0.000132251
0.0344911
0.000105999
0.030891
0.000115802
0.0306906
0.000101235
0.000145902
9.89553e-05
0.000101733
0.000119803
0.035356
0.0649553
9.51526e-05
9.87866e-05
0.000103968
0.000754402
0.000109364
0.00010202
0.0039573
0.000106613
0.000929392
0.0317719
0.000101489
0.000497227
0.000136267
0.00012583
0.0129187
0.000121889
0.000146842
0.000480883
0.000132894
0.000108218
0.0134643
0.0640845
0.0231678
0.0209004
0.0382162
9.65061e-05
0.000405489
0.000130341
9.86586e-05
0.0475376
0.012275
0.000103504
0.000107969
0.0323851
0.036084
0.0846217
0.00403346
0.0300949
0.000105898
0.000116107
0.000189148
0.000113263
0.0284459
0.000108513
9.61765e-05
0.00171835
9.63083e-05
9.07608e-05
0.000103292
0.000101731
0.000146928
0.000109482
0.000313835
0.000102414
0.000112772
0.0270698
0.000122258
0.000135421
0.000113933
0.0232834
9.56037e-05
0.0320579
9.40806e-05
9.28522e-05
9.88639e-05
0.0553084
0.000107108
0.000113232
0.000126019
0.000146971
0.000109713
0.000122464
0.116242
0.000374971
0.0348045
0.046708
9.09751e-05
0.000206488
0.00230515
0.000119697
9.50823e-05
0.000115733
0.000109167
0.109232
0.000132765
9.89973e-05
9.94786e-05
0.000195999
9.82502e-05
0.0263507
0.0236719
0.000108238
0.00010622
0.000107854
0.000122427
0.00711802
0.000147583
0.000106922
9.0413e-05
0.000122777
9.46092e-05
0.000124866
0.0867435
0.0606506
0.000111976
0.000102339
0.000665648
0.0221577
9.0732e-05
0.000100946
9.26654e-05
0.000100974
0.035536
0.00253623
0.000156491
0.0530321
0.00010527
0.000136797
0.00011663
9.54601e-05
0.000106934
0.00816049
0.0283604
0.000104817
0.0280189
9.46318e-05
0.000107534
0.000108926
0.000112774
0.000110426
0.000137433
0.000106866
0.000107771
0.000115489
0.0399129
0.00316179
0.000296322
0.000138732
0.000126802
0.000108459
9.66885e-05
0.000125846
0.0596368
0.0209743
0.000141232
0.000105014
0.000116583
0.000503204
0.000132618
0.107908
0.000124627
0.000107509
0.00316933
9.95172e-05
9.45069e-05
0.000370323
9.59386e-05
0.0001463
0.000109932
9.45638e-05
0.00023067
0.081203
0.0286107
9.68104e-05
9.94234e-05
0.000125886
0.0234919
0.000400128
9.1319e-05
9.29935e-05
0.000110846
0.000106512
0.000124495
9.15443e-05
0.0421142
0.00013536
0.000146789
0.02326
0.000152953
0.000114366
0.0400166
0.000132228
9.45731e-05
0.105652
0.0226129
9.42933e-05
0.00244106
0.000100595
0.00113932
0.000136728
0.000106459
9.11882e-05
9.46264e-05
0.000103161
0.000111087
0.00010162
9.14266e-05
0.0172714
0.0103098
0.000142325
0.00012103
0.0267995
0.000148423
0.000145451
0.000132803
0.000106325
0.00901958
0.000107511
0.000101599
0.000110308
0.000198099
9.35982e-05
0.000107028
0.000120737
0.000101092
0.0404601
0.000127572
0.000100083
9.78898e-05
0.000146483
0.000115674
0.000144246
0.00014373
0.000168441
0.000111826
0.00010211
0.000111585
9.82541e-05
9.1323e-05
0.000115756
0.00102344
0.000111753
0.0483972
9.97704e-05
0.000120899
0.0296964
0.01879
0.000114219
0.0743517
9.03872e-05
0.117849
9.94008e-05
0.031411
0.00013697
0.000127598
9.97101e-05
0.0219522
0.0127714
0.000220416
0.000109347
0.0608762
0.000104522
9.80737e-05
0.00153683
0.000122866
8.97287e-05
9.73891e-05
9.18662e-05
0.000144029
0.000108339
9.97801e-05
0.00202261
0.000110219
0.000151937
0.0156117
0.000108706
0.0359147
0.0808264
0.000136123
0.0926409
0.000121384
0.000105133
0.0030476
0.0270026
0.0971047
0.0197094
0.000115213
9.43831e-05
9.83409e-05
0.000101383
0.000144579
0.000233933
0.000445348
0.000104576
0.000108438
0.000123477
9.84686e-05
0.000168277
0.000126642
9.96822e-05
0.000104603
0.000115345
0.000771725
0.0622687
0.026591
9.23788e-05
9.55078e-05
0.000103793
9.21585e-05
9.16807e-05
9.92728e-05
9.92527e-05
0.0263402
0.000105107
0.000130548
0.000377996
9.6719e-05
0.0204975
0.0398296
0.000113426
0.000475743
0.000108423
9.28457e-05
9.17911e-05
0.000132195
0.000138142
0.0325028
0.0229917
0.000102112
0.0630638
0.000100477
9.78828e-05
0.0558538
0.000117994
0.000107812
0.000100027
0.000124363
0.000102751
9.52184e-05
0.0228729
0.000101872
9.69367e-05
0.00684236
0.000100356
0.00352303
0.000107695
0.000106362
0.0275433
0.000130426
0.00010014
0.0585868
0.000100035
0.000102431
0.0607025
8.99983e-05
0.0402344
0.00011215
0.0331559
0.000108796
0.0229583
0.000106096
0.0786509
0.000106255
0.0842216
9.93586e-05
0.0187687
9.72302e-05
0.000116034
0.000106741
0.000115648
0.000158816
0.00139577
0.000118304
0.0644595
0.000107654
0.0346391
9.15289e-05
0.000104106
0.000108315
0.000108004
0.0222596
0.000116349
0.01101
0.0465545
0.0506236
0.000100696
0.0384731
9.96802e-05
0.000116167
0.000116859
0.0373352
0.00010604
9.78348e-05
0.00239952
0.0135998
0.000127217
0.033944
0.0342607
0.000117642
9.39397e-05
0.000105803
0.0208223
0.00031266
0.000107836
0.000117022
0.000107148
0.000102735
9.11482e-05
0.000140888
0.000146111
0.000125322
0.000116175
0.000110517
0.000120859
0.000107224
0.0457688
0.103486
9.9556e-05
0.0446799
0.000105976
0.00577783
9.92697e-05
9.86651e-05
0.00010693
0.000108513
0.000106406
0.0104006
0.000148738
0.000113564
0.000105232
0.000138697
0.000112848
0.000106744
0.0101933
0.00278457
0.000168827
0.000103919
9.92548e-05
0.000103785
0.000137799
9.58691e-05
0.0478597
0.000767532
0.0206459
0.000126774
0.000104926
9.67785e-05
0.0783248
0.000100377
0.0384426
0.000118073
0.0115323
0.0707991
9.47722e-05
0.000118004
9.16829e-05
0.000139688
0.000113835
0.000117791
9.75667e-05
0.000117207
0.000873751
0.00814603
0.000191384
0.000105115
0.000105728
0.00239023
0.000117747
0.0131165
0.0312512
0.000103437
0.000110899
9.97506e-05
9.6511e-05
0.00010702
0.000106425
9.22575e-05
0.000100706
9.69975e-05
0.076088
0.000114412
9.41623e-05
0.000102604
0.0372989
0.000126908
0.012218
9.10838e-05
9.16529e-05
0.000109171
0.0616396
9.94757e-05
0.000114149
0.000101862
0.000108941
0.00011287
0.000153337
0.0001778
0.0359085
9.01326e-05
0.000135749
0.000102673
0.000105619
0.000106462
0.000159401
0.000146028
8.99416e-05
0.000148819
0.000102146
0.000107169
0.000110322
0.000138291
0.0183325
9.8468e-05
0.0108194
9.70531e-05
0.0232688
9.73448e-05
0.0446233
0.000213812
0.000135398
0.000110342
0.000101713
0.139349
0.000105359
0.00010905
0.000166973
0.105203
0.0357334
9.80232e-05
0.036448
0.000156079
0.0195283
0.000189872
0.0533786
0.0354875
9.24439e-05
0.000127521
0.000111978
0.000112894
9.71925e-05
0.000120608
9.09209e-05
9.92536e-05
0.000119615
0.0254011
0.000395364
9.55876e-05
0.00109039
0.000104742
0.000830072
0.000122793
0.0175757
0.000122068
0.000111797
0.000136041
9.49118e-05
0.0216213
9.58011e-05
0.000100136
0.000115435
0.0263381
0.00014764
0.00014572
0.000281597
0.0254234
0.0238988
9.10386e-05
9.78723e-05
0.000121079
0.000107803
0.000112536
0.000102519
9.28209e-05
0.000127524
0.0270179
0.0210765
0.00011672
0.000112107
9.24424e-05
9.16194e-05
0.000148094
0.0473215
0.000110193
0.000106877
0.000102926
0.0291611
0.000249988
0.000126257
0.000190683
9.45834e-05
0.00578427
9.79886e-05
0.000106998
0.000108703
0.000141184
0.0363286
0.000115358
0.000119404
0.000106598
0.000117259
0.000110233
0.000120627
0.000106544
0.000105043
0.0985264
9.83658e-05
0.000100162
0.0290024
0.0849728
0.00259692
9.44448e-05
0.000102454
0.00013824
0.000132468
0.000108842
0.00010645
0.000100398
0.000147946
0.000142268
0.000147598
0.0423521
0.0545731
0.000101958
0.000148933
9.6963e-05
9.27501e-05
0.0533138
0.000102846
0.000108056
0.0469299
0.0016418
0.0171437
9.39032e-05
0.000106676
9.87126e-05
0.0990634
9.46841e-05
0.000122557
0.000118026
0.000310121
9.38051e-05
0.0148065
0.00861143
0.000107107
0.0342084
0.000106968
0.0609719
0.0118766
0.000112404
9.52346e-05
9.38343e-05
0.000175061
0.000117541
0.000109735
9.92553e-05
0.000104652
0.000147552
0.000164904
0.0361931
0.00010144
0.000126603
0.000135129
0.000117933
0.00720161
0.000104033
0.0569313
0.000137882
0.000114719
9.19938e-05
0.000144531
0.000108767
0.000111845
0.000188428
0.0001079
0.000100326
0.0317365
0.000102299
9.3781e-05
0.000101849
9.90377e-05
0.000156271
0.000142929
0.00011571
0.000229893
9.36526e-05
0.000120849
0.0364107
0.0751094
9.73356e-05
0.0435897
0.000123423
0.0181141
0.0829418
0.0144924
9.22027e-05
0.000108525
0.000122358
0.000120024
0.000759289
0.000117796
0.000164199
0.000108555
0.000138237
9.25582e-05
0.000111611
0.0359446
0.0184082
0.00936101
0.000111552
0.0365661
9.87189e-05
0.000137976
0.000109323
0.000350051
0.00010336
0.000113365
0.0865087
0.000208025
0.000109439
0.0138579
0.00013909
0.0711368
0.000108684
0.0325819
0.000193773
0.000104757
0.000114383
0.00126019
9.81615e-05
0.000117587
0.00255597
0.000102503
0.000111304
0.114197
0.000110503
0.000373923
0.00791516
0.000119118
9.90125e-05
0.00037117
0.000109575
9.4709e-05
0.0553828
0.000166443
0.000115836
0.0642235
0.000116281
0.00012171
0.0142388
0.000121141
0.000107963
0.000117921
0.000110176
0.000108144
0.000107135
0.000212226
0.00230255
0.000107227
0.000131359
0.000146923
0.000102216
0.000100131
0.0359484
0.000101067
0.000113611
0.000228079
0.000128214
0.0001571
0.00010878
9.66102e-05
0.00010283
0.00010638
0.00010821
9.47156e-05
0.000114419
0.00488442
0.000111508
0.00013581
0.000121908
0.000120132
0.087861
0.0258944
9.70267e-05
9.54655e-05
0.000112955
0.000101966
0.000105099
0.0811895
0.0468498
0.000117875
0.000147204
9.09081e-05
0.000102697
0.000139573
0.00012488
0.00014417
0.000351219
0.000149145
0.000124242
0.000145863
0.000101835
0.000106392
0.0443389
9.5672e-05
0.000142079
0.000159902
0.000106705
0.000167065
0.000117078
0.000573019
0.000113989
0.000138452
0.000124846
0.000107413
0.000101704
0.00014701
0.000128656
0.000107032
0.0854259
0.093937
0.097908
9.72532e-05
0.000114816
9.96208e-05
0.0001042
0.000107705
9.11414e-05
0.000113628
0.000108669
0.0209358
0.000117414
0.000108855
0.000118266
0.101354
0.0827196
9.81449e-05
0.000122429
0.0569137
0.0091741
0.000111384
0.0209684
0.0758706
9.28309e-05
0.0743253
0.000105267
9.55849e-05
0.000374946
0.00010069
0.000100532
0.0940286
9.63534e-05
0.000149557
9.79482e-05
0.0310011
0.000115207
0.000347348
0.020395
0.000291565
0.00236231
0.000109138
9.7666e-05
0.00010765
0.000107705
0.000226163
0.000115335
0.000110817
0.0419741
9.86717e-05
0.0141873
0.013023
0.000120388
0.000103419
0.000102065
0.0726259
0.000101064
0.000113636
9.20741e-05
0.000100732
0.000100096
0.0218531
9.3197e-05
9.21478e-05
0.0351934
0.016672
0.000351466
0.000137531
0.000103263
0.120153
0.0610326
9.78857e-05
0.0729218
0.00447956
0.0711407
9.60631e-05
0.000124359
0.000135622
0.000107505
0.000115029
0.00438772
0.000119474
0.000196798
0.000115324
9.9651e-05
0.000107057
0.000128202
0.0690069
0.000106673
0.000106573
0.000123832
0.000103235
0.000103168
0.000126824
9.99336e-05
0.000106321
0.000113494
9.3996e-05
9.51369e-05
0.0884267
0.000108058
0.044972
9.83151e-05
0.0347677
9.44277e-05
0.0222687
9.21032e-05
0.000111399
0.000103295
9.88806e-05
0.0282944
9.93991e-05
0.000108265
0.000147442
0.000109877
0.00014795
0.000210134
0.000106802
0.000139881
0.000111506
0.0001327
0.000102704
0.000106347
0.000109629
0.000109377
0.000142328
0.000118582
9.73349e-05
9.91407e-05
0.000175962
0.000366541
0.000111047
9.97008e-05
0.0248678
0.0246399
0.000184617
0.000100479
0.000155956
0.000148029
0.000106915
0.000122698
0.000116427
0.0361209
9.84237e-05
0.000104548
0.000111419
0.000119604
0.0287116
0.000320995
0.000127211
0.00012868
9.72483e-05
0.0204028
0.000168073
9.44624e-05
0.000121041
0.0169154
0.000672496
0.000105009
0.000118547
0.0224239
0.0375919
0.0308002
0.000618322
0.000137204
0.000134996
0.0634603
0.0154375
9.72546e-05
0.000146679
0.088926
0.0806085
0.000110375
0.0529033
0.000122884
0.0217045
0.00011755
0.00047273
0.000136533
0.000104972
0.0716937
0.000111416
0.000104119
0.0176424
0.00011976
0.000147108
0.000116772
0.000118879
0.000128255
0.0494872
9.20262e-05
0.00010774
9.60556e-05
0.0950423
0.0460535
0.000147571
0.000100316
0.024388
0.00010525
0.000100728
0.0347038
9.4151e-05
0.000103344
0.00012608
0.000111031
0.000831318
9.3644e-05
0.000112078
0.000112782
0.000112539
0.000127171
0.037783
0.000107037
9.43552e-05
0.000101886
0.000146956
0.000113869
0.000121748
0.000105558
0.000128111
0.00013016
0.048525
0.0357186
0.0814062
0.00011206
0.0609949
0.000109905
0.0512482
0.03377
0.127875
9.99089e-05
0.000110089
0.000112882
9.54699e-05
0.0270729
9.90809e-05
0.000469957
9.81367e-05
0.000325557
0.000104704
0.000102138
0.0272924
0.000102534
0.000107973
0.0361746
0.0500625
0.000105402
0.000100648
0.000107095
0.000266414
0.000107119
0.000282753
0.0200177
9.09399e-05
0.0094463
0.000105547
9.89531e-05
0.000113663
0.10651
9.79642e-05
0.000129728
0.0360889
9.46302e-05
0.000112422
0.000103237
0.000146085
0.000108536
0.0369757
9.47547e-05
9.46418e-05
0.000147596
9.33609e-05
0.00022592
0.0508652
9.68886e-05
0.0885176
0.0190676
0.000102294
0.0196862
0.000148781
0.000108966
0.000109976
0.00010537
9.66752e-05
0.000202281
9.20055e-05
0.0335086
0.000239611
0.000500272
0.0394972
0.00645669
0.000100587
0.0214263
0.000143492
0.000178161
0.0689345
0.000105637
0.0237457
0.00530325
0.0487789
0.0062244
0.0294119
0.000487976
9.92141e-05
0.000128308
0.00166511
0.00017006
0.000100759
0.000105854
0.000105805
0.000134799
0.0478388
0.000104588
0.000107066
0.00010087
0.000169251
0.0246433
9.33398e-05
0.000141566
0.000105969
0.0107863
0.000111046
0.0179018
0.00011116
9.64627e-05
0.000104897
0.000102769
0.000119504
0.000134826
0.046122
0.000108902
0.0338915
0.000108786
0.000137083
0.000117608
0.000141176
9.74312e-05
0.0045109
0.100935
0.000100829
0.000133124
0.00745413
0.000234423
0.00010143
0.000124106
0.000104405
0.000131665
0.0983672
0.000119375
0.000100632
9.11343e-05
0.0368217
0.0227769
0.000114867
0.000360871
0.0260659
0.000105426
0.0493181
0.035279
0.0252127
0.00012941
0.000189079
9.69124e-05
9.79433e-05
0.000440757
0.0247517
0.000141653
0.000127249
0.0251889
9.79952e-05
0.000112453
0.00163495
0.000113489
0.000430029
0.000117254
0.000145197
0.0799341
0.000367974
9.18473e-05
0.000102058
0.00011271
0.000523999
0.0213784
0.000443029
0.000556586
0.000104321
9.78325e-05
0.000106743
0.000110756
0.0140263
0.0618976
0.0417399
0.00016462
0.015242
9.5485e-05
0.000104108
9.87911e-05
9.37819e-05
0.000134713
0.00010201
0.000116965
0.0001112
0.00011423
9.71732e-05
0.000103478
0.127797
0.000109807
0.000106659
0.000105073
0.00010437
0.000107793
0.000112098
0.000143987
0.000113667
0.000104928
0.000145152
9.70946e-05
0.0345117
0.0272005
0.000102197
0.0587139
0.000906657
0.000118162
9.3584e-05
0.000112118
0.000101191
0.000104187
0.000104905
0.000116303
0.000148191
0.0539552
0.0671777
0.000248228
0.000110823
0.000105993
0.000104688
0.000106473
0.000212206
0.000105385
0.035199
0.00663115
9.83822e-05
9.83263e-05
0.0275574
0.000106272
0.0033024
0.0291288
0.0767687
9.32827e-05
0.0248609
0.0261959
0.00299845
9.61857e-05
0.000127669
0.000105718
0.000112168
0.0219652
0.0598597
0.00034137
0.000107713
9.71693e-05
9.9688e-05
0.00012437
0.104861
0.000105545
0.000111656
0.07321
0.0854204
0.00010003
0.00012239
0.000132349
0.00158803
0.000102551
0.00010663
9.72155e-05
0.000110986
0.000118903
0.00292596
0.000125406
9.65281e-05
0.000136846
0.0631734
0.000106341
0.000313669
0.000100255
0.000112663
0.0522817
0.000142162
0.0506019
0.000137198
0.00888936
0.000111841
9.62354e-05
0.000107702
9.96454e-05
0.00010204
0.000121201
9.70259e-05
0.000135258
0.0606922
9.90698e-05
0.0138369
9.59553e-05
0.000112902
0.00108023
0.000106956
0.000100295
0.000130049
0.000135154
0.0001388
0.0240252
0.000112411
0.000148046
0.000139601
0.0753388
9.84876e-05
0.000103999
9.78881e-05
0.000100375
0.000109225
0.000113892
0.00011803
0.000106164
0.000100009
0.0762542
0.0367652
0.000102432
0.000121385
9.42676e-05
0.088684
0.000107139
0.000101208
9.82306e-05
0.120407
0.0865823
0.000101983
0.062159
0.000122151
0.000112914
0.0955099
0.00057601
0.000114385
0.000202191
0.000105008
9.94634e-05
0.000147443
0.000294698
0.00011729
0.000106799
0.0064623
0.0625196
0.000103123
0.000101093
0.0136491
0.000103067
0.000107146
0.000101181
0.000145317
0.0671772
0.000248391
9.1636e-05
0.000414271
9.7031e-05
0.0134484
0.000531682
0.000108572
0.000128748
0.000118405
0.000108285
0.0717039
0.00112822
0.000106782
9.75486e-05
0.000102351
0.000107085
0.000102545
0.0359754
0.000155032
0.0330688
9.06013e-05
0.000101896
0.0144514
9.96234e-05
0.121216
9.81133e-05
0.000128581
0.000112069
0.000102697
9.79536e-05
0.000615709
0.033667
0.0621921
9.90172e-05
0.000134919
9.35269e-05
0.000117029
0.000106421
0.000483023
0.000121004
0.0128685
0.0375146
0.000140836
9.79591e-05
0.0531307
0.000127593
9.75235e-05
9.89252e-05
0.0186031
0.00010814
0.00076262
0.000112864
0.00152435
9.63946e-05
0.0192875
0.000102155
0.000111514
0.000101655
0.0651687
0.000470482
0.000347965
0.000180318
9.87114e-05
0.000133839
0.0413451
0.0561223
0.000109106
0.000101658
0.000124282
9.78149e-05
9.38653e-05
0.00198856
0.000105631
9.34631e-05
0.000104714
0.000297247
9.65688e-05
9.31162e-05
0.106328
0.000106729
0.000115722
0.000547343
0.000107245
0.00010127
0.000113933
0.000116079
0.0163679
9.12129e-05
9.5074e-05
0.000667699
0.000126442
0.00010022
0.00776968
0.000430008
0.0243845
0.072784
0.000103366
0.0119291
9.89032e-05
0.000101262
0.000101582
0.000104078
0.000108976
0.000127806
0.000101764
0.0470944
0.000112691
0.000123897
0.0159852
0.000113465
0.000110146
0.000731814
9.08613e-05
0.000110617
0.000113298
9.93352e-05
0.012482
9.37993e-05
0.000100328
0.0228955
9.04901e-05
0.00011285
0.00883684
0.00011069
0.000177851
0.00579246
0.00689036
9.26228e-05
0.000130428
0.0657286
0.00010459
0.0237044
0.000267768
0.131671
9.91029e-05
0.000125991
9.06706e-05
0.00014292
0.000127156
0.00011267
0.000108524
0.0554651
9.41575e-05
0.0171563
0.00012711
0.046186
0.000120881
0.000213957
0.00566868
0.000100294
0.000126295
9.96997e-05
0.000109523
0.000102055
0.000276316
0.000137501
0.125791
0.000107406
9.83891e-05
9.53875e-05
9.22153e-05
0.000114933
0.000106961
9.99307e-05
0.000147752
0.074183
0.000426259
9.94342e-05
0.000508674
9.75824e-05
0.000122286
0.000129776
0.000107314
0.000114956
0.000136466
0.000137605
0.000105845
0.0247648
9.52705e-05
0.00491349
0.000116001
0.0730594
9.94846e-05
0.0202647
0.000147653
0.0340003
0.0001046
9.37165e-05
9.84358e-05
0.00920486
9.45778e-05
0.0663307
0.000121163
0.000101631
9.36934e-05
0.000330891
0.0779247
0.0446288
0.00388564
0.000158987
0.000106157
0.0112014
0.000118355
0.000107179
0.00031848
0.000132388
0.000142336
0.0278084
9.85079e-05
0.0774952
9.76911e-05
0.000147137
0.000103879
0.000131644
0.000184589
0.000118136
0.0196068
0.00010687
0.000146931
9.91844e-05
0.000100535
0.000124938
9.73634e-05
0.000118048
0.000110882
0.000467711
0.0792323
0.000129508
0.0604324
0.116334
0.000102656
9.51267e-05
0.000209216
0.00010828
0.000133643
0.000115985
0.000106953
0.0264732
0.000103738
0.00218413
0.000131733
0.00559034
0.000113484
0.000109054
9.25201e-05
0.000113224
0.000129101
9.62491e-05
0.000106638
0.000158132
0.000120594
0.000106311
0.000107998
0.000104036
0.000216204
0.0264416
0.0323781
0.000209793
0.00011504
0.000106434
0.000104219
0.000104418
0.000167191
0.0339849
0.0189525
0.0202853
0.000224024
0.00684741
0.000112766
9.68818e-05
9.66992e-05
9.72131e-05
9.81047e-05
0.0278985
0.0366543
0.000251405
0.000110466
0.0515419
0.000104252
0.000105269
0.000102027
0.000885707
0.000122237
9.10537e-05
0.000106648
0.000105779
0.000401138
0.10456
0.0806077
0.000261651
0.000108806
0.000145634
0.000195672
0.123326
0.0304273
0.0353306
9.4446e-05
0.0361514
0.000164812
0.000134282
0.000113843
0.0256475
0.000101197
0.0479634
0.0292789
0.000182413
0.000136593
0.0807883
0.0734343
0.000107152
0.000108532
0.000432032
0.0481015
9.9901e-05
0.000127653
9.81937e-05
0.0283012
0.0268404
0.000105265
0.0380994
0.000100416
9.79334e-05
0.000375863
0.000100506
9.66336e-05
0.000139191
0.0722553
0.0108889
0.102577
0.000133441
0.000147939
0.00033665
0.000155459
0.000121664
0.0153078
0.000118376
9.13187e-05
0.000126908
0.000132256
0.00010373
0.0476542
0.0633135
0.0122174
0.000125996
0.000100268
0.0179853
9.32552e-05
0.0251535
0.000102564
0.000118031
0.0210232
0.000109045
0.000117424
0.000113791
9.26509e-05
0.000294519
0.000171029
0.0347905
0.0548566
0.00887878
9.71317e-05
0.0002935
0.000377265
0.000137752
0.000449768
0.000109148
0.0364439
0.00011779
0.0630784
9.93642e-05
9.18213e-05
0.000116141
0.000107472
0.0747208
0.0251758
0.0253119
0.05816
0.000272901
0.000101222
0.000139705
0.0736159
9.33856e-05
9.34501e-05
0.0720895
9.93111e-05
0.0001192
0.000455452
0.000844235
0.000128304
9.55912e-05
0.000110202
0.000568636
0.0686103
0.000145368
0.0473019
0.000121713
9.89761e-05
0.000131782
0.000127278
0.000161514
0.000114755
0.000101729
0.000137592
0.000106798
0.0385181
0.000195843
0.00465992
0.0373183
0.0534637
9.57076e-05
0.000122582
0.0153918
0.00632418
0.000106643
0.0545951
0.00012534
0.000111891
0.01799
0.0672513
0.0040379
0.0670958
0.0630956
9.10215e-05
0.00010048
0.0673809
0.0530082
0.000113774
0.00194178
0.0183081
0.00949477
0.0693521
0.00247139
0.000149462
0.0669113
9.21024e-05
0.000146129
0.000213026
0.000105768
0.0749365
0.000120806
9.94736e-05
0.000415936
0.000148696
0.000104941
0.000109362
0.0734263
0.000106015
0.0633637
0.000130705
0.000131141
9.27904e-05
0.00011724
0.0504725
0.0477865
0.000135183
0.049672
0.000103564
0.00183566
0.00878807
0.049282
0.0753388
0.000137542
0.0284103
0.000136521
9.36989e-05
0.0511392
0.0171795
0.000108856
0.000138627
0.029976
0.0793759
0.019299
0.000113756
0.000115328
0.030224