/*--------------------------------*- C++ -*----------------------------------*\
| =========                 |                                                 |
| \\      /  F ield         | OpenFOAM: The Open Source CFD Toolbox           |
|  \\    /   O peration     | Version:  v2012                                 |
|   \\  /    A nd           | Website:  www.openfoam.com                      |
|    \\/     M anipulation  |                                                 |
\*---------------------------------------------------------------------------*/
FoamFile
{
    version     2.0;
    format      ascii;
    class       volScalarField;
    location    "50";
    object      epsilon_0;
}
// * * * * * * * * * * * * * * * * * * * * * * * * * * * * * * * * * * * * * //

dimensions      [0 2 -3 0 0 0 0];


internalField   nonuniform List<scalar> 
18166
(
0.000577471
1.34342e-06
1.33082e-05
2.15699e-06
5.73526e-06
1.86404e-06
1.16347e-06
1.1497e-06
1.48684e-06
0.000585236
1.35036e-06
1.87714e-06
1.62794e-06
1.54442e-06
1.55126e-06
1.31422e-06
0.0117731
8.16475e-07
1.61803e-06
2.53366e-05
1.58843e-06
1.29315e-06
1.6107e-06
1.44743e-06
5.80727e-07
1.56131e-05
1.1541e-06
0.000140989
1.46118e-06
1.26025e-06
7.58017e-07
7.60791e-07
1.18452e-06
1.05927e-06
3.97431e-05
1.55517e-06
8.44705e-07
7.83329e-07
1.15913e-06
1.87709e-06
1.48012e-06
1.6288e-06
8.21743e-07
1.62e-06
2.72985e-05
8.58998e-07
1.40683e-06
0.000482201
7.701e-07
6.212e-06
0.000221474
0.011212
7.69726e-07
1.23768e-06
8.56899e-07
1.47321e-06
0.000408874
1.50442e-06
2.46775e-05
1.48148e-06
7.73067e-07
9.79765e-07
7.80667e-07
1.57138e-06
1.26101e-06
1.00088e-06
1.1067e-06
1.31066e-06
0.00327652
8.23303e-07
1.62425e-06
2.15582e-06
1.42733e-06
1.48398e-06
8.18057e-07
1.14556e-06
0.0118252
0.000631505
1.25743e-05
1.10019e-06
1.59132e-06
9.56729e-07
9.11893e-06
7.47137e-07
9.03637e-07
7.7359e-07
7.76925e-07
1.57482e-06
1.27051e-06
0.011391
7.46536e-07
8.03353e-07
1.63195e-06
1.27631e-06
1.48269e-06
1.52999e-06
3.16703e-06
1.49206e-06
4.46076e-05
0.0136325
1.0187e-06
8.03393e-07
1.25259e-06
0.00015428
7.61153e-07
0.000478398
7.67185e-07
1.1311e-06
7.62473e-07
1.46251e-06
0.00667992
2.83716e-05
0.00842976
0.00314502
1.46104e-06
0.000178153
0.000972666
1.37057e-06
1.44759e-06
7.55388e-07
1.3365e-06
7.54959e-07
1.36885e-06
9.44059e-07
1.32513e-06
1.52449e-06
1.52631e-06
8.14407e-07
7.70798e-07
1.56003e-06
1.16008e-06
1.57984e-06
9.66671e-07
1.01547e-06
1.1792e-06
0.000197462
1.09993e-06
8.19365e-06
7.74576e-07
6.42961e-05
1.26067e-06
1.32922e-06
1.56209e-06
0.000497925
7.5541e-07
4.38782e-05
0.000527826
8.45189e-07
7.76907e-07
0.013599
8.95776e-07
1.60888e-06
6.02412e-05
0.00572566
2.27471e-06
7.80307e-07
9.47779e-07
1.25535e-06
2.30538e-06
1.46326e-06
1.1245e-06
7.82817e-07
0.00558428
9.13743e-07
1.58784e-06
9.12408e-07
1.36937e-06
1.15036e-06
0.00547632
9.47279e-07
8.87912e-07
0.000233901
1.11244e-06
2.25485e-06
8.72348e-07
0.000573943
7.73433e-07
4.91764e-05
1.46538e-06
1.58386e-06
9.41958e-07
8.02876e-07
3.80555e-05
0.00303945
1.39904e-06
7.70986e-07
1.13714e-06
1.59357e-06
1.40013e-06
8.273e-07
1.25397e-06
1.40391e-06
0.00350783
1.46723e-06
7.79311e-07
8.11845e-06
6.30615e-06
1.18645e-06
1.26739e-06
1.11269e-06
9.30959e-07
2.32995e-05
0.00546152
1.46429e-06
1.49463e-06
2.18365e-06
1.32214e-06
2.17885e-06
2.10311e-06
7.79727e-07
1.10719e-06
2.15032e-06
2.10795e-06
7.76506e-07
1.60365e-06
1.25842e-06
0.000433643
1.23219e-06
1.24557e-06
1.19477e-06
9.52488e-07
3.06643e-05
1.5607e-06
9.95095e-07
1.46011e-06
0.000408547
9.78688e-07
1.14855e-06
7.52938e-07
9.7901e-07
9.51556e-07
7.64824e-07
8.29948e-06
7.64628e-07
0.00576644
2.32113e-05
2.32229e-05
8.54671e-07
9.07016e-07
1.80083e-06
1.00767e-06
1.54726e-06
9.46979e-07
0.000445476
9.99172e-07
7.52657e-07
0.00011508
7.52817e-07
1.10606e-06
1.88689e-06
3.35547e-05
1.18821e-06
1.1382e-06
1.78609e-06
1.32839e-06
1.41449e-06
1.25351e-06
1.53104e-06
1.13225e-06
1.53164e-06
1.42809e-06
1.41979e-06
1.60083e-06
7.74343e-07
1.42987e-06
1.22076e-06
2.89801e-06
1.14669e-06
7.69316e-07
0.000204041
1.12155e-06
1.50252e-06
1.36756e-06
7.5988e-07
8.72434e-07
1.08429e-06
0.000237497
9.05888e-07
1.33825e-06
2.99743e-06
1.15267e-06
7.78326e-07
1.72074e-06
1.4891e-06
1.55909e-06
8.20109e-07
2.34724e-06
1.76661e-06
1.08956e-06
1.26679e-06
7.6739e-07
1.20091e-05
1.56237e-06
1.40892e-06
7.59068e-07
1.15664e-06
7.94314e-07
0.000361708
7.59772e-07
2.90173e-06
1.5302e-06
1.18227e-06
0.0038672
1.15402e-06
1.27127e-06
8.67798e-07
1.62993e-06
1.14569e-06
7.99218e-07
1.26299e-06
1.32971e-06
1.32587e-06
1.46186e-06
1.11625e-06
1.1476e-06
8.7469e-07
7.57897e-07
2.24633e-06
2.36235e-06
1.118e-06
2.31495e-05
1.41048e-06
0.00572074
1.40516e-06
8.50072e-07
7.59774e-07
1.33086e-06
1.63786e-05
1.3126e-06
2.097e-06
7.68365e-07
8.30439e-07
1.05119e-06
1.24555e-06
1.71176e-06
1.38265e-06
2.05869e-06
1.42404e-06
9.5646e-07
1.20034e-06
1.16285e-06
1.45839e-06
2.21697e-06
1.31907e-06
1.53263e-06
1.46961e-06
1.78565e-05
1.44799e-06
9.44256e-07
7.63343e-07
1.34887e-06
8.79175e-07
1.81217e-06
1.46917e-06
3.56404e-06
1.61498e-06
1.13e-06
9.57199e-07
0.00017964
1.63191e-06
9.07448e-07
1.17153e-06
7.64e-07
1.53234e-06
1.03453e-06
7.638e-07
8.46803e-07
1.36784e-06
1.08688e-06
1.34668e-06
9.57678e-07
1.00166e-06
1.15419e-06
0.000629415
1.19882e-06
9.80142e-07
8.18765e-07
8.51542e-07
9.83124e-07
1.45626e-06
7.51849e-07
1.44347e-06
1.95381e-06
0.000460667
7.51819e-07
1.48227e-06
1.5311e-06
1.95404e-06
1.58739e-06
3.23035e-05
7.51928e-07
2.32875e-06
1.48356e-06
1.51417e-06
1.84114e-05
2.08589e-06
1.27442e-06
7.52077e-07
1.35699e-06
2.11444e-06
7.52119e-07
7.51148e-07
1.25096e-06
7.49748e-07
1.50916e-06
1.09623e-06
8.37444e-07
1.44791e-06
2.85343e-05
7.47305e-07
8.12488e-07
1.38783e-05
9.58199e-07
8.4383e-07
7.68547e-07
0.00137134
1.53556e-06
1.50564e-06
8.91067e-07
1.40356e-06
1.05828e-06
7.6814e-07
0.000202369
0.00020567
9.21142e-07
1.2795e-06
1.44491e-06
7.63079e-07
7.6037e-07
9.92912e-07
1.52223e-06
7.70799e-07
1.26622e-06
9.55575e-07
9.32686e-07
1.19483e-06
1.09151e-06
2.35527e-06
0.00867458
1.17326e-06
0.00568194
0.000122405
1.7252e-06
1.688e-06
1.2399e-06
8.93339e-07
1.74578e-05
1.32081e-06
1.53569e-06
7.52815e-07
9.86803e-07
1.144e-06
1.43804e-06
7.67341e-07
7.87825e-07
1.36477e-06
8.41682e-07
1.18613e-06
1.20374e-06
1.00406e-06
7.92886e-07
7.49607e-07
8.38846e-07
1.61133e-06
1.55573e-06
8.46654e-07
1.41508e-06
1.33503e-06
1.0086e-06
1.27306e-06
8.28245e-07
1.35792e-06
1.35849e-06
7.7465e-07
6.47514e-05
1.39352e-06
9.16899e-07
8.10603e-07
9.10092e-07
1.42355e-05
1.29636e-06
7.69259e-07
0.000493595
1.14034e-06
1.15262e-06
8.97331e-07
2.35796e-06
7.53405e-07
1.27222e-06
9.23738e-07
1.09255e-06
1.01817e-06
1.26776e-06
1.69821e-06
4.98013e-05
1.2936e-06
1.10261e-06
1.63347e-06
1.5164e-06
1.44995e-06
1.56653e-06
1.55232e-06
1.59594e-06
4.24641e-05
9.06764e-07
1.55068e-06
1.01683e-06
1.08996e-06
9.11794e-07
0.000207974
1.24289e-06
1.3013e-06
1.10403e-06
1.1463e-06
2.67784e-06
2.43632e-06
1.27949e-06
1.47553e-06
0.00344171
1.53285e-06
1.24305e-06
4.44531e-06
9.479e-07
1.69298e-06
0.00581913
8.25094e-07
1.54597e-06
1.34836e-06
7.84614e-07
1.12131e-06
2.11779e-06
1.09917e-06
0.00959138
2.30507e-06
8.34973e-07
0.00308054
7.92861e-07
8.45714e-07
1.10393e-06
1.29528e-06
9.06974e-07
1.93621e-06
9.06857e-07
2.45173e-06
1.55597e-06
1.63112e-06
9.41405e-07
7.51835e-07
1.78041e-06
9.05257e-07
1.5479e-06
9.2014e-07
1.06225e-06
1.43214e-06
7.5772e-07
7.52209e-07
1.93915e-06
2.04347e-06
1.08503e-06
7.78395e-05
1.34172e-06
1.53052e-06
1.39076e-06
7.78754e-07
1.13508e-06
0.00505859
1.30306e-06
8.09768e-07
7.5165e-07
1.515e-06
9.26467e-07
7.5162e-07
8.7924e-05
1.15465e-06
2.95578e-05
1.75535e-05
1.60903e-06
1.24097e-06
1.59942e-06
1.09368e-06
1.04608e-06
7.60192e-07
1.34135e-06
9.17003e-07
7.52855e-07
8.35293e-07
1.3024e-06
9.5402e-07
1.57774e-06
1.46514e-06
0.00161257
7.89845e-07
1.18745e-06
1.48019e-06
1.57658e-06
1.60595e-06
1.56977e-06
2.28866e-05
2.87751e-06
1.58036e-05
8.70045e-07
1.42295e-06
1.33486e-06
1.28942e-06
1.36517e-06
7.54264e-07
3.20687e-06
5.49446e-05
1.92059e-06
9.797e-07
7.84593e-07
6.12428e-07
1.22898e-06
1.08175e-06
8.20805e-07
1.10234e-06
1.63767e-06
9.77942e-07
9.01188e-07
7.11301e-06
1.57302e-06
7.82525e-07
3.49013e-06
0.00219983
1.13708e-06
2.92951e-06
1.30457e-06
1.14052e-06
0.0142623
8.15245e-07
1.2621e-06
1.23413e-06
1.04189e-06
0.0121165
1.65377e-06
1.48755e-06
7.82108e-07
8.86586e-07
1.3223e-06
2.87246e-07
1.237e-06
7.59533e-07
2.17068e-06
1.50307e-06
1.4942e-06
9.59252e-07
0.000226969
9.42559e-07
9.90294e-07
7.67706e-07
1.56087e-06
8.69952e-07
8.82346e-07
2.42512e-06
8.81834e-07
0.00572938
1.60318e-06
1.46845e-06
8.65125e-07
8.24255e-07
9.07957e-07
1.53832e-06
1.61094e-06
1.37595e-06
7.96993e-07
1.1567e-06
9.18662e-07
6.18621e-06
1.28321e-06
2.24497e-06
9.48262e-07
1.23997e-06
1.3021e-06
4.21186e-06
2.60373e-05
0.000341272
1.00123e-06
1.15184e-06
1.62226e-06
8.83398e-07
7.56863e-07
7.96274e-07
8.65026e-07
2.5472e-06
1.85061e-06
3.47017e-06
0.000174212
0.000114632
7.36136e-06
1.12128e-06
1.4164e-06
1.09876e-06
7.85293e-07
1.73091e-06
6.46722e-06
6.70618e-06
1.63625e-06
1.41345e-06
1.50695e-06
1.26291e-06
1.51742e-06
4.49037e-07
1.12643e-06
0.00229965
7.62971e-07
1.10273e-06
1.09433e-06
1.26532e-06
8.89764e-07
1.3526e-06
0.00226943
3.15932e-06
1.47334e-06
1.16045e-06
0.000239002
1.48161e-06
1.53819e-06
1.33955e-06
1.53722e-06
1.4864e-06
1.72312e-06
1.45308e-06
5.53597e-06
1.30173e-06
8.37709e-07
8.08785e-07
1.92744e-06
1.62188e-06
1.55263e-06
4.97959e-06
1.15695e-06
8.10782e-07
1.62327e-06
2.01918e-06
7.84347e-07
1.11938e-06
1.52291e-06
3.99194e-06
1.34136e-06
1.23885e-06
0.00302963
0.000149571
8.10097e-07
1.05432e-06
7.85286e-07
1.23786e-06
1.48736e-06
9.26577e-07
1.33644e-06
1.4595e-06
1.24379e-06
1.28756e-06
9.02693e-07
1.27939e-06
0.00188814
1.57515e-06
3.13464e-05
7.55777e-07
1.09103e-06
1.53524e-06
8.39737e-07
8.96523e-07
1.63003e-06
1.7447e-06
1.56001e-06
9.39165e-07
1.09823e-06
1.3022e-06
0.000545557
1.31804e-06
1.23481e-06
1.00579e-06
1.02115e-06
7.61023e-07
8.63979e-07
1.90747e-06
0.000110265
0.000575797
1.62328e-06
2.02478e-06
0.00576247
1.10553e-06
2.62887e-06
1.76829e-06
0.000109661
1.55348e-06
1.29401e-06
1.00319e-06
1.30293e-06
0.00021796
1.12057e-06
8.53638e-07
1.44352e-06
1.26794e-06
0.000235798
1.1886e-06
1.31501e-06
1.10275e-06
9.48679e-07
1.28737e-06
1.46081e-06
1.56148e-06
8.17767e-07
2.55803e-06
9.37775e-07
1.23715e-06
9.07957e-07
1.15071e-06
1.09376e-06
0.000187426
1.40771e-06
1.87705e-05
7.69491e-07
8.73781e-07
0.000160293
7.70825e-07
7.11827e-05
2.78416e-06
1.17268e-06
9.78377e-07
1.35243e-06
1.07936e-06
1.21568e-06
1.00362e-06
8.33652e-07
0.000967607
1.26822e-06
1.35771e-06
1.13949e-06
1.23781e-06
1.10997e-06
9.04665e-07
1.35905e-06
9.05281e-07
7.65379e-07
8.27459e-07
1.54943e-06
1.13791e-06
7.62165e-07
1.45187e-06
3.35746e-05
1.56103e-06
3.42475e-06
7.522e-07
1.0084e-06
8.46323e-07
1.08368e-06
1.37441e-06
8.89406e-07
1.13213e-06
1.04323e-06
1.23237e-06
7.52658e-07
1.52773e-06
2.01969e-06
9.93014e-07
5.80682e-06
0.000143429
1.23531e-06
1.56108e-06
7.9712e-07
1.0029e-06
3.30951e-05
1.5262e-06
0.000153721
8.25752e-07
1.23057e-06
1.75014e-06
0.00569996
1.18259e-05
9.60157e-07
1.56035e-06
1.25676e-06
1.75879e-06
9.43188e-07
4.17015e-07
2.03e-06
0.00118091
7.75852e-07
1.53228e-06
1.28691e-06
0.00381098
1.13561e-06
0.00708758
9.30341e-07
8.00381e-05
2.83902e-06
1.30744e-06
1.39238e-06
7.5936e-07
1.70318e-06
2.03636e-06
1.26389e-06
1.22019e-06
1.23847e-06
1.40758e-06
7.90327e-07
8.66117e-06
1.80188e-05
1.22621e-06
9.65607e-07
1.25658e-06
1.42592e-06
7.96279e-07
1.207e-06
0.000975715
1.02108e-06
0.000345382
0.0184027
1.2912e-06
2.3072e-06
1.53431e-06
8.36085e-07
2.03046e-06
2.14451e-06
2.23789e-06
1.73845e-06
9.8992e-05
1.0679e-06
1.86865e-06
1.85853e-06
0.00797313
1.051e-06
1.61087e-06
7.84245e-07
2.66867e-06
1.162e-06
1.16804e-06
1.12301e-06
8.51509e-07
1.33165e-06
1.48013e-06
1.72821e-06
8.08513e-07
0.000305146
1.21825e-06
1.46693e-06
3.02794e-05
1.79908e-06
0.00016766
1.09863e-05
1.17264e-06
0.00573981
1.22647e-06
1.29439e-06
7.97298e-07
1.38856e-06
1.28962e-06
2.03633e-06
7.83574e-07
3.53395e-06
1.544e-06
1.47787e-05
1.59102e-06
7.52469e-07
1.93339e-06
8.45218e-07
1.33646e-06
0.000998244
1.52992e-06
9.47289e-07
9.80585e-05
4.36948e-06
0.000537099
6.41517e-06
7.48443e-07
0.000454354
8.81626e-07
8.63821e-07
1.53519e-06
1.55717e-06
0.000526469
1.22119e-06
1.15574e-06
1.41969e-06
1.52592e-06
9.06176e-07
7.91454e-07
1.61065e-06
1.24546e-06
0.000480213
1.36986e-06
1.22017e-06
3.16842e-05
1.1086e-06
2.04103e-06
9.15857e-05
1.28875e-06
1.05489e-06
1.54671e-06
0.0111337
5.73792e-06
0.00169828
1.58482e-06
8.34277e-07
1.10265e-06
6.20385e-05
1.08873e-06
8.77302e-07
1.294e-06
1.2885e-06
1.45557e-06
2.41582e-05
2.36612e-06
7.51152e-07
8.39174e-07
8.12391e-07
7.79247e-07
9.67126e-07
1.11894e-06
7.62911e-07
7.63958e-05
1.6326e-07
8.99613e-07
0.00321879
9.67692e-07
1.24989e-06
7.80645e-07
1.42991e-06
7.29521e-07
1.08989e-06
2.00896e-06
1.43033e-06
1.04472e-06
9.2899e-07
5.51895e-05
7.34774e-07
1.05313e-06
8.24487e-07
7.49918e-07
1.54148e-06
0.00621933
0.000736879
7.66749e-07
1.4152e-06
1.39558e-06
1.58833e-06
1.4573e-06
2.67883e-06
7.52187e-07
0.000374745
1.17491e-06
1.48611e-06
9.76896e-07
9.80504e-07
0.000341414
9.02255e-07
2.45223e-06
8.29647e-07
0.00483525
7.75026e-07
9.52981e-05
7.89977e-07
7.60067e-07
8.53352e-07
7.52091e-07
7.6755e-07
1.48126e-06
1.25771e-06
0.000156075
2.81734e-06
1.53214e-05
7.76083e-07
1.21286e-06
1.49235e-06
2.20622e-06
0.00157212
1.46324e-06
1.81637e-06
1.33669e-06
1.23638e-06
1.42999e-06
1.51881e-06
1.26024e-06
1.54066e-06
1.03582e-06
1.63874e-06
1.84766e-05
3.30013e-05
1.0402e-06
0.000136369
2.40814e-06
2.88503e-05
2.05867e-06
1.20732e-06
1.37509e-06
3.64512e-05
1.57944e-06
7.60196e-07
1.00162e-06
1.28936e-06
0.0154604
1.38334e-06
0.00535968
1.45872e-06
1.01229e-06
1.22857e-06
8.85738e-07
1.29802e-06
8.98475e-07
2.13058e-06
8.21134e-07
9.88254e-07
7.76798e-07
1.49055e-06
1.17821e-06
1.72693e-06
1.2095e-06
0.0100151
1.33077e-06
1.41489e-06
1.48569e-06
0.000355595
1.27175e-06
1.10008e-06
1.65353e-06
1.52719e-06
7.67507e-07
1.20757e-06
1.58429e-06
7.61955e-07
7.59701e-07
1.37885e-06
0.000242266
1.76002e-06
8.50711e-07
1.2775e-06
7.74029e-07
1.22597e-06
1.48938e-06
1.43198e-06
9.49787e-07
1.78036e-06
0.0157682
1.53481e-06
1.13025e-06
1.55036e-06
1.40031e-06
2.30435e-06
1.35681e-06
1.04091e-06
1.82154e-06
8.10095e-05
1.20412e-06
9.53732e-07
8.18109e-07
2.32792e-06
8.28184e-07
7.93405e-07
1.54375e-06
1.37475e-06
1.55858e-06
1.35186e-06
2.31893e-06
1.04088e-06
0.000157495
2.79729e-06
9.8806e-07
3.97011e-06
1.30132e-06
6.32496e-05
1.67394e-06
8.61885e-07
9.08765e-07
7.73197e-07
0.009434
1.18009e-06
9.12232e-07
8.5686e-07
1.53564e-06
1.51764e-06
1.24503e-05
0.00305754
3.39055e-05
7.50385e-07
1.25709e-06
1.62025e-06
0.00253306
8.60818e-07
1.08592e-06
2.50386e-06
7.71988e-07
1.16015e-06
7.55503e-07
1.97185e-06
1.68842e-06
7.90458e-07
1.41124e-06
1.20181e-06
1.39727e-06
9.03014e-07
1.22108e-06
1.47158e-06
1.01075e-06
0.0165444
0.00519926
1.62113e-06
7.69807e-07
9.01807e-07
9.1486e-08
7.65535e-05
7.53216e-07
1.55833e-06
1.79578e-06
1.57864e-06
1.30142e-06
1.02706e-06
7.69534e-07
1.69664e-06
7.87208e-07
1.61076e-06
0.000752597
2.46415e-06
7.44677e-07
1.38332e-06
1.59163e-06
1.14726e-06
7.80159e-07
7.61048e-07
9.89814e-07
8.61464e-07
7.76543e-07
1.61403e-06
1.28509e-06
1.36539e-06
1.01968e-06
2.33802e-05
0.0115952
1.48913e-06
1.4377e-06
8.0266e-07
0.00310805
1.43226e-06
0.000771692
9.48868e-07
7.75328e-07
0.00231946
9.18025e-07
1.07636e-06
2.42141e-06
3.99546e-06
9.27405e-07
1.09797e-06
1.27071e-06
7.70391e-07
1.31717e-06
1.6724e-06
1.25598e-06
1.62695e-06
8.39509e-07
7.87717e-07
2.80987e-06
1.85439e-06
7.71912e-07
8.41365e-07
1.28988e-06
1.56911e-06
3.03764e-05
1.60101e-06
7.4285e-05
1.62705e-06
7.897e-07
1.24251e-06
7.63767e-07
2.14993e-06
1.51628e-06
3.29435e-06
1.4632e-06
7.59419e-07
0.00324823
8.67445e-07
8.90581e-07
7.74744e-07
1.28149e-06
7.8297e-07
8.70733e-07
1.36005e-06
1.44434e-06
7.84176e-07
9.25501e-06
7.53218e-07
9.12439e-07
8.57542e-07
7.33803e-05
1.21555e-06
1.19549e-06
1.39273e-06
2.07398e-06
7.73437e-07
9.99454e-07
1.43656e-06
1.00755e-06
1.22409e-06
7.81673e-07
1.21176e-06
8.86549e-07
7.52152e-07
2.50149e-06
7.62864e-07
0.00216056
7.46178e-07
5.60543e-06
0.000270199
7.51498e-07
1.58165e-06
8.80956e-07
1.29766e-06
1.2609e-06
1.77785e-06
1.72268e-06
7.63259e-07
7.69785e-07
1.04245e-06
7.8339e-07
7.89638e-07
1.24712e-06
1.60003e-06
2.11018e-06
0.0118499
1.08309e-06
1.40412e-06
7.93766e-07
1.45813e-06
8.72627e-07
9.71e-07
1.25321e-06
1.371e-06
1.05839e-06
7.5092e-07
3.43851e-06
7.46408e-07
1.4436e-06
1.04305e-06
1.34624e-06
1.59594e-06
1.7939e-06
7.75529e-07
1.6352e-06
0.000100552
0.00143466
9.29848e-07
0.000134966
7.51151e-07
8.01256e-07
0.00576495
0.0112338
1.37232e-06
1.43733e-06
1.12663e-06
7.51813e-06
0.00222207
1.05077e-06
1.44318e-06
1.28268e-06
1.49308e-06
1.31064e-05
0.00108665
1.10012e-06
7.89688e-07
7.79736e-07
1.80677e-06
7.65077e-07
9.73499e-07
1.20978e-06
1.50709e-06
1.25896e-06
7.74647e-07
1.56724e-06
1.1998e-06
9.27214e-07
0.00222737
1.62033e-06
1.52446e-06
0.00011708
2.81672e-06
8.30897e-07
1.70415e-06
1.62947e-06
1.14969e-06
7.72356e-07
2.03764e-06
1.76642e-06
7.63578e-07
2.43836e-06
3.73245e-06
1.45328e-06
1.04619e-06
1.37721e-06
1.10371e-06
1.04091e-06
0.000188859
3.23513e-05
7.66058e-07
7.7043e-07
1.27282e-06
1.48313e-06
0.000773505
1.15907e-06
7.63748e-07
7.70642e-07
1.5817e-06
7.6732e-07
1.4331e-06
7.70779e-07
0.000143279
7.49818e-07
0.00560649
0.00373125
1.58811e-06
1.37221e-06
9.9253e-07
1.51802e-06
1.51907e-06
1.02252e-06
6.14512e-05
3.09819e-06
0.000667505
9.86207e-07
0.00020743
1.61458e-06
3.0204e-06
1.49106e-06
1.78479e-06
1.3693e-06
1.11002e-06
1.57384e-06
8.95686e-07
1.84973e-06
3.63016e-05
8.2509e-07
1.6023e-06
1.25407e-06
7.68712e-07
0.000137226
1.59496e-06
2.0967e-06
0.000811074
7.81551e-07
7.67386e-07
7.65414e-07
7.50796e-07
1.24766e-06
1.42152e-06
1.49203e-06
1.4147e-06
3.30831e-05
1.592e-06
1.25417e-06
9.43037e-07
1.75169e-06
1.34884e-06
7.7115e-07
1.18657e-06
7.5111e-07
7.70186e-07
7.76692e-07
7.62274e-07
7.46486e-07
0.000148953
0.001081
7.72274e-07
1.00088e-06
8.0447e-07
8.74799e-07
7.73361e-07
1.14325e-06
2.46149e-06
9.56996e-07
3.51733e-05
8.37372e-07
8.6797e-07
1.40879e-06
7.72755e-07
7.51534e-07
1.22397e-06
1.92026e-06
1.4555e-06
0.00193166
1.05104e-06
1.43233e-06
5.93843e-07
1.16442e-06
1.11808e-06
0.000498346
4.30064e-05
1.98633e-06
7.69946e-07
1.22338e-06
9.88575e-07
2.1484e-05
3.30025e-06
2.13608e-06
4.34494e-06
1.63046e-06
1.70969e-06
1.89345e-06
7.61648e-07
7.73275e-07
2.18725e-06
1.34403e-06
6.7655e-07
1.22242e-06
1.5593e-06
1.44901e-06
0.00503597
7.7031e-07
7.64815e-07
1.74029e-06
7.7097e-07
7.59234e-07
7.74551e-07
7.49922e-07
1.21851e-06
1.44093e-06
7.82944e-07
1.00729e-06
1.49525e-06
3.52126e-06
0.000192643
8.42892e-07
1.55894e-06
9.00633e-07
2.96432e-06
8.80663e-07
1.35723e-06
0.0040511
1.57267e-06
0.000880725
1.53874e-06
1.19347e-05
1.29045e-06
1.40041e-06
1.57931e-06
1.5557e-06
4.33026e-06
1.41107e-06
7.57536e-07
2.51318e-05
1.73529e-06
9.89317e-07
9.28363e-07
1.24956e-06
1.26317e-06
0.00161028
1.78918e-06
1.46333e-06
1.23108e-06
1.97753e-06
7.84569e-06
1.55489e-06
1.0702e-06
1.4386e-06
1.41391e-06
8.43081e-07
0.000441058
0.000745269
1.90558e-06
1.07911e-06
1.01753e-06
2.17699e-06
1.28146e-06
9.96234e-07
7.82602e-07
0.000894343
1.02354e-06
1.55532e-06
1.82356e-06
1.3893e-06
2.59128e-06
1.49887e-06
1.48277e-06
1.20423e-06
1.389e-06
1.36106e-06
1.62963e-06
1.39762e-06
1.57736e-06
9.82391e-07
1.706e-06
8.34792e-07
1.38394e-06
1.06171e-06
1.24811e-06
1.19873e-06
1.35488e-06
8.515e-07
6.20843e-05
8.76516e-07
1.03837e-06
2.02265e-06
7.74688e-07
0.000654536
1.21276e-06
1.60598e-06
1.07182e-06
1.04636e-06
7.85307e-07
1.4435e-06
0.0118426
0.00269333
1.72507e-06
1.26849e-06
1.26249e-06
0.000788312
0.00491411
0.0140373
1.2138e-06
7.69597e-07
1.47712e-06
1.20289e-06
1.2286e-06
1.22114e-06
7.87852e-07
1.33181e-06
1.72791e-06
0.000675069
7.61831e-07
1.18907e-06
1.53062e-06
1.01011e-06
0.00840192
8.1101e-05
1.61816e-06
1.59658e-06
2.25518e-06
7.52781e-07
2.5901e-05
1.21996e-06
1.55174e-06
7.76575e-07
7.80885e-05
1.2043e-06
1.84711e-06
0.000561818
8.99438e-07
1.91025e-06
1.33973e-06
1.29662e-06
9.79883e-07
1.19205e-06
3.08644e-06
1.02611e-06
7.68969e-07
0.00310237
1.41796e-06
3.46327e-06
1.52012e-06
7.47052e-07
0.00554573
7.59553e-07
1.44877e-06
0.000125227
1.25246e-06
7.80197e-07
7.56716e-07
7.46885e-07
5.70872e-05
7.62009e-07
1.04764e-06
2.26563e-06
7.57644e-07
1.0765e-06
1.5307e-06
1.19701e-06
1.68786e-06
1.19976e-06
9.89085e-07
1.81051e-06
1.26558e-06
7.61466e-07
9.69915e-07
1.38744e-06
0.00031694
1.41506e-06
1.4951e-05
7.55033e-07
2.89005e-06
7.6929e-07
7.98623e-07
8.10236e-07
8.87673e-07
2.29992e-06
1.20332e-06
0.000104978
1.40332e-06
7.61625e-07
1.4458e-06
1.31469e-06
1.142e-06
7.60228e-07
1.36572e-06
9.55386e-07
1.87543e-06
1.35344e-06
1.36788e-06
1.49019e-06
5.61693e-05
0.0134365
8.23005e-06
0.000583233
1.49439e-06
0.000522331
1.39649e-06
8.43177e-07
7.65335e-07
9.38515e-07
5.96034e-07
1.41075e-06
7.71687e-07
1.45916e-06
7.46012e-07
8.2727e-07
1.50373e-06
1.53613e-06
1.42886e-06
0.00495888
1.21585e-06
7.65226e-07
9.07757e-05
8.2073e-07
8.02399e-07
7.47218e-07
7.85206e-07
1.45127e-06
2.6426e-06
1.14774e-06
1.03668e-06
8.32439e-07
1.89045e-06
1.68802e-06
8.92111e-07
1.13899e-05
7.44309e-07
1.61309e-06
7.45368e-07
1.46902e-06
1.15698e-06
7.44694e-07
1.09667e-06
0.000226557
3.88415e-06
1.43273e-06
1.36423e-06
7.69104e-07
7.61598e-07
1.48576e-06
2.9483e-06
9.00082e-07
1.34967e-06
4.13368e-05
1.08927e-06
1.50758e-06
1.38439e-06
0.000833303
1.05732e-06
3.94963e-06
7.97839e-07
1.308e-06
1.30158e-06
1.61191e-06
1.61801e-06
8.02929e-07
1.31435e-06
1.26333e-06
1.10846e-06
7.55222e-07
0.00412128
8.35928e-07
7.74017e-07
1.55371e-06
1.20847e-05
1.38582e-06
1.03075e-06
0.00463738
1.15723e-06
7.58748e-07
1.57164e-06
1.12827e-06
1.47415e-06
9.36205e-07
0.000556738
1.72229e-06
8.55658e-06
0.000911755
1.44803e-06
1.02601e-06
0.000525388
0.0108913
7.98639e-07
8.90072e-07
1.21991e-06
1.34081e-06
1.26782e-06
5.50246e-05
9.44221e-07
1.57278e-06
7.82723e-07
2.3024e-05
1.25366e-06
7.80517e-05
1.13705e-06
1.50013e-06
1.27637e-06
5.63027e-06
1.10075e-06
1.09085e-07
1.30633e-06
9.56038e-07
1.20371e-06
1.02509e-06
1.45718e-06
8.72472e-07
8.2662e-07
6.52483e-06
1.6507e-06
7.58467e-07
1.02137e-06
9.84179e-07
1.8772e-06
9.75176e-07
1.57104e-06
8.96478e-07
1.25828e-06
1.28832e-06
9.8458e-07
1.19671e-05
0.000730898
7.81726e-07
8.2537e-07
6.44962e-06
1.99929e-05
7.80128e-07
7.44968e-07
1.59806e-06
1.29751e-06
5.65119e-06
1.07785e-06
1.1561e-06
1.1708e-06
1.20477e-06
1.4889e-06
1.18753e-06
0.000171269
1.44071e-06
0.00464104
1.0643e-06
1.18631e-06
1.03097e-06
4.45029e-06
1.51298e-06
1.50281e-06
1.74977e-06
0.00666802
2.41594e-06
8.69465e-07
7.78713e-07
6.10345e-06
1.44642e-06
1.55018e-06
1.36496e-06
7.7849e-07
1.45842e-06
1.45794e-06
1.29134e-06
1.6601e-06
7.78244e-07
7.88955e-07
1.83478e-06
1.24728e-06
8.50866e-07
4.6233e-06
1.98519e-06
1.57164e-06
1.60606e-06
7.59726e-07
7.60054e-07
3.40712e-05
1.5971e-06
0.000469139
1.43786e-06
7.60197e-07
7.61021e-05
1.36119e-06
5.0357e-05
1.50656e-06
1.34058e-06
1.15789e-06
7.8233e-07
1.50356e-06
1.59011e-06
3.65787e-06
2.48573e-06
0.0212677
8.13593e-05
1.09886e-06
1.5535e-06
8.20665e-07
9.64019e-07
7.92296e-07
7.54214e-07
1.20219e-06
0.022111
1.8097e-06
7.59957e-07
1.21174e-06
2.29079e-06
0.00273058
1.11129e-06
1.04438e-06
7.5177e-07
1.34254e-06
7.52866e-07
1.49575e-06
2.57441e-06
7.64376e-07
7.82508e-07
1.59812e-06
1.82542e-06
1.43379e-06
2.49717e-06
3.3013e-06
9.51542e-07
1.27621e-06
1.50822e-06
1.42039e-06
1.517e-06
1.03121e-06
0.000748327
8.14468e-07
1.36512e-06
1.22155e-06
6.49349e-06
1.43996e-06
0.000133359
0.0104543
1.57926e-06
1.77708e-06
3.4286e-05
1.35506e-06
9.22593e-07
1.43912e-06
7.74405e-07
1.35613e-06
7.85423e-07
7.45002e-07
8.38511e-05
1.26443e-06
7.62356e-07
9.51722e-07
7.58164e-07
0.00262183
3.93417e-05
9.17705e-07
0.000268822
9.68097e-07
7.4983e-07
8.82292e-07
7.58468e-07
1.96753e-06
1.29888e-06
1.51335e-06
1.15333e-06
7.76847e-07
7.58608e-07
7.64047e-07
1.39386e-06
7.58328e-07
3.74033e-06
7.658e-07
7.68204e-07
1.4849e-06
7.60462e-07
2.99274e-05
2.50349e-06
9.18178e-07
1.63275e-06
0.00590406
1.36335e-06
0.000141461
1.48762e-06
7.67872e-07
1.26965e-06
1.49549e-06
7.83372e-07
8.10731e-07
1.56776e-06
1.69803e-06
0.00203267
7.50287e-07
7.51807e-07
0.00025123
1.09609e-06
1.33306e-06
1.85012e-06
1.30194e-06
1.54644e-06
7.43691e-07
3.45799e-06
1.4248e-06
1.72559e-06
1.07021e-06
3.73227e-05
3.6448e-05
1.42966e-06
9.73457e-07
1.53446e-06
1.62013e-06
7.50662e-07
1.61508e-06
2.31007e-05
9.75468e-07
1.39132e-06
1.98716e-06
8.86854e-07
1.25426e-06
7.6294e-07
1.57727e-06
0.00110789
4.94482e-05
1.26396e-06
1.46434e-06
7.50576e-07
7.49575e-07
1.01806e-06
7.66734e-07
1.00846e-06
7.68687e-07
1.42456e-06
1.36303e-06
9.45771e-07
1.53911e-06
1.49675e-06
1.95666e-06
5.70744e-06
7.58331e-07
2.49416e-05
1.51985e-06
7.60293e-07
7.94961e-07
7.50233e-07
7.65285e-07
1.30533e-06
7.46001e-07
1.19256e-06
0.00807418
1.54743e-06
7.86367e-07
7.85262e-07
7.60049e-07
0.000605337
9.21718e-06
1.25519e-06
1.2618e-06
1.82513e-06
1.39805e-06
7.6949e-07
4.74786e-06
0.000304363
9.28323e-07
1.51108e-06
7.68008e-07
0.0132785
1.38849e-06
1.12088e-06
0.00533023
3.07716e-06
1.00995e-06
5.36931e-08
1.5722e-06
7.64708e-07
7.43662e-07
9.7726e-07
0.000871531
9.68732e-07
9.74723e-07
0.00271754
7.85109e-07
1.2297e-06
7.50973e-07
1.32693e-06
4.26702e-06
2.08414e-06
1.30817e-06
1.22113e-06
1.88768e-06
1.27223e-06
1.36824e-06
1.34972e-06
7.45623e-07
1.57686e-06
7.73783e-07
1.57966e-06
9.32268e-07
1.5518e-06
1.62127e-06
0.0055451
1.92313e-06
1.69083e-06
1.92937e-06
1.33839e-06
1.71835e-06
8.16501e-07
1.48086e-06
1.14361e-06
7.85401e-07
1.54884e-06
1.03907e-06
9.91985e-07
1.57936e-06
0.000220662
9.00411e-07
1.53379e-06
8.06418e-07
1.34861e-06
8.8038e-07
1.21706e-06
1.1919e-06
9.85892e-07
0.000163759
7.77667e-07
0.00168959
1.43386e-06
9.69956e-07
1.15821e-06
1.42277e-06
1.35778e-06
7.46087e-07
7.46079e-07
0.000848815
2.44569e-06
0.00210254
3.31181e-06
9.10424e-05
1.72023e-06
0.000840911
1.03236e-06
7.84456e-07
1.36519e-06
7.5951e-07
7.45199e-07
1.80309e-06
1.14832e-06
0.000200112
1.39683e-06
1.51078e-06
1.42699e-06
7.72767e-07
1.11874e-06
9.73739e-07
3.32534e-06
7.64079e-07
1.48895e-06
0.0211156
1.40996e-06
7.39492e-05
1.37089e-06
1.28352e-06
1.46748e-06
7.48069e-07
9.36949e-07
1.284e-06
1.52742e-06
1.2274e-06
7.43533e-07
1.31177e-06
0.000387055
0.00714102
1.446e-06
9.99013e-07
1.59396e-06
7.687e-07
7.61198e-07
4.45801e-06
8.59639e-07
4.75037e-06
0.00552161
1.5931e-06
7.54742e-07
1.79386e-06
1.49071e-06
1.65979e-06
2.11968e-06
1.01962e-06
1.15211e-06
1.74468e-06
1.63881e-06
1.9571e-06
0.000119077
1.58338e-06
1.1042e-06
1.49072e-06
1.31835e-06
7.78301e-07
1.46407e-06
7.57872e-07
8.16077e-07
7.71959e-07
1.21349e-06
1.72255e-06
1.3354e-06
4.22433e-05
1.27439e-06
1.84238e-06
7.65953e-07
1.46006e-06
1.46881e-06
8.0006e-06
1.03011e-06
7.47619e-07
4.28025e-05
5.66318e-06
1.27542e-06
3.16407e-06
9.71291e-05
1.52958e-06
1.44982e-06
1.2261e-06
1.11552e-06
2.51348e-06
1.03372e-06
1.83937e-06
7.59635e-07
2.30951e-06
1.2825e-06
1.90188e-06
6.44468e-06
1.32816e-06
7.59328e-07
0.0182605
1.85901e-05
9.76481e-07
1.47684e-06
7.91097e-07
1.16094e-06
7.64151e-07
1.38952e-06
1.25088e-06
1.13344e-06
3.77887e-05
1.36386e-06
1.56406e-06
1.37949e-06
1.4624e-06
1.34962e-06
1.79652e-06
1.01806e-06
1.56343e-06
1.15953e-06
1.27503e-06
0.000493226
1.13988e-06
1.53684e-06
9.34235e-07
6.95919e-05
5.53109e-05
1.67318e-06
8.29524e-07
7.59707e-07
1.44466e-06
1.11825e-06
7.57328e-07
7.58611e-07
1.30337e-06
7.50946e-07
0.00317344
1.25966e-06
1.4959e-06
0.00209327
2.17326e-06
1.6063e-06
9.92834e-07
1.40683e-06
7.61352e-07
1.3433e-06
7.61546e-07
0.00383726
1.47608e-06
1.15963e-06
1.46945e-06
5.75661e-06
1.55623e-06
1.53669e-06
1.24471e-06
1.11285e-06
7.87435e-07
0.000103671
1.50693e-06
7.77521e-07
0.00104027
7.44984e-07
9.96774e-07
7.70514e-07
1.26398e-06
1.27067e-06
9.40667e-07
2.40832e-06
1.95553e-05
0.00408401
1.48414e-06
0.0139222
1.2991e-06
7.58743e-07
0.0105927
1.53434e-06
1.49985e-06
1.41774e-06
2.07255e-06
7.67857e-07
1.50816e-06
0.00718056
1.23577e-06
7.45094e-07
1.47956e-06
1.61307e-06
1.20489e-06
1.35785e-06
7.52672e-07
1.19289e-06
1.50495e-06
1.51612e-06
1.42705e-06
7.63956e-07
7.69326e-07
8.54686e-07
1.03809e-06
7.95406e-07
7.64551e-07
8.11035e-06
1.02851e-06
0.0039367
1.40295e-06
7.65812e-07
1.3222e-06
1.36348e-06
9.12651e-07
1.37854e-06
9.29896e-07
1.3819e-06
0.000111002
9.56229e-07
2.38047e-06
1.34423e-06
1.26888e-06
1.49133e-06
7.44844e-07
0.0140193
1.44584e-06
1.38639e-06
1.42774e-06
0.000479644
1.28471e-06
1.08718e-06
7.59679e-07
1.64924e-06
1.11857e-06
1.47451e-06
7.76836e-07
8.85344e-07
1.33662e-06
1.35247e-06
7.73624e-07
1.60531e-06
1.27571e-06
7.74556e-07
1.29719e-06
8.86745e-07
4.53889e-06
0.0103007
1.02429e-06
9.52332e-07
6.68622e-07
3.21256e-06
1.25036e-06
7.78448e-07
1.36816e-06
9.63777e-07
7.56327e-07
8.07982e-07
1.02693e-06
1.46355e-06
0.000556683
8.34149e-07
7.69223e-07
7.65372e-07
7.46064e-07
1.34214e-06
2.91586e-06
1.47518e-06
1.46438e-06
0.00775976
9.75832e-07
2.65452e-06
1.51489e-06
5.37723e-06
1.57185e-06
0.00867011
7.72299e-07
7.83114e-07
8.11501e-07
1.44012e-06
1.09425e-06
1.61233e-06
1.2167e-06
1.48002e-06
1.71239e-06
7.74651e-07
1.52876e-06
1.46257e-05
1.42433e-06
1.56522e-06
2.93408e-07
1.03059e-06
1.66071e-06
7.43431e-07
2.68627e-06
1.53554e-06
1.32003e-06
7.44137e-07
1.57799e-05
2.20548e-05
7.56254e-07
5.43805e-06
1.64934e-06
0.000274932
0.00722141
1.39312e-06
1.88331e-06
8.73096e-06
3.25422e-05
1.3502e-06
1.24764e-06
1.76572e-06
0.00425247
1.40699e-06
1.61993e-06
8.18747e-06
1.95581e-06
7.72786e-07
9.18509e-05
1.61551e-06
5.99884e-05
9.71949e-07
1.10541e-06
7.58771e-07
1.81149e-06
1.33538e-06
1.62493e-06
0.00536619
1.30723e-06
7.50524e-07
1.44751e-06
9.56695e-07
1.6952e-06
7.6855e-07
1.42678e-06
4.568e-05
0.00555877
7.89626e-07
1.42325e-06
1.21505e-06
1.06543e-06
1.51396e-05
1.53379e-06
8.95772e-07
7.83149e-07