/*--------------------------------*- C++ -*----------------------------------*\
| =========                 |                                                 |
| \\      /  F ield         | OpenFOAM: The Open Source CFD Toolbox           |
|  \\    /   O peration     | Version:  v2012                                 |
|   \\  /    A nd           | Website:  www.openfoam.com                      |
|    \\/     M anipulation  |                                                 |
\*---------------------------------------------------------------------------*/
FoamFile
{
    version     2.0;
    format      ascii;
    class       volScalarField;
    location    "50";
    object      p;
}
// * * * * * * * * * * * * * * * * * * * * * * * * * * * * * * * * * * * * * //

dimensions      [0 2 -2 0 0 0 0];


internalField   nonuniform List<scalar> 
18166
(
0.000392104
-0.00392983
-0.0188138
-0.0289231
0.00353844
-0.0405001
-0.000543077
0.000451281
-0.010361
0.0013769
-0.00408217
-0.0173618
-0.0262021
-0.0115844
-0.0187139
-0.00333633
-0.0994481
0.00172146
-0.0202398
-0.00255608
-0.0141675
0.00075885
-0.0204536
-0.00925572
-0.000546411
0.000425898
0.000413018
-0.0203446
-0.00669253
-0.0014301
-3.23472e-06
-8.62237e-07
0.0044084
-0.000635145
-0.00420269
-0.00494931
0.00105828
0.000104313
0.0022791
-0.0167239
-0.00979918
-0.0227817
0.000259518
-0.0198772
-0.0026935
0.00126262
-0.000866085
-0.00533003
1.02905e-05
-0.000540602
-0.0111134
-0.0912408
8.16301e-06
-0.00117197
0.00124523
-0.00320233
-0.0163555
-0.000410326
-0.00113141
-0.00337796
0.00178452
0.000545687
0.000941957
-0.00386397
-0.00074968
0.000408347
-0.000143732
-0.00322908
-0.0262814
0.00106494
-0.0256088
-0.0281243
0.001665
-0.0110108
0.00105737
0.00445001
-0.00671113
0.0248138
-0.0493596
0.00325073
-0.0137291
0.00288512
0.000683122
0.00085058
0.000822406
0.00177282
0.000738197
-0.003733
-0.00135937
-0.00984038
0.000828724
0.00141414
-0.0229672
-0.00136813
-0.0109629
-0.00969082
-0.0375086
-0.000439527
0.0213659
-0.0172132
0.00228675
0.00172964
-0.00137676
-0.0200693
0.00100605
-0.0165605
0.000887403
-0.000210329
-2.99332e-07
-0.00609709
-0.0986664
-0.000409874
-0.0979689
-0.0281626
-0.0102698
-0.0237862
0.0265652
-0.00341095
-0.00922917
0.00011504
-0.00399384
0.00010605
-0.00368189
0.000668494
-0.00169602
-0.0154247
-0.0151926
0.00198733
0.0009519
-0.0036619
-0.000486527
-0.00431778
0.00195965
0.0022411
0.00450234
-0.0217145
0.00067066
-0.0470106
0.000946813
0.00313977
-0.00190626
-0.00380412
-0.0175685
-0.00467603
-1.19282e-05
-0.0056408
-0.00624485
0.0010756
0.00168096
-0.0189019
0.00261664
-0.0141481
0.00168387
-0.0965189
-0.050695
0.00168436
0.00218926
-0.00108012
-0.0518446
-0.0102557
0.000895935
0.00203692
-0.0518579
0.000130922
-0.00435128
0.00276223
0.00146368
0.000319546
-0.0955972
0.00214802
0.00246712
-0.0273778
0.000404108
0.0169614
0.000281251
-0.0154341
0.00174002
-0.00274652
-0.00320419
-0.0106702
0.000695277
0.00143073
-0.00330805
-0.0201206
-0.00658238
0.000936741
0.000367278
-0.0101874
-0.00688668
0.000835199
-0.00106891
-0.00690279
-0.0209146
-0.000705159
0.00213933
-0.0685266
-0.0674436
0.00144561
-0.00205782
-0.000169678
0.00263049
0.0223436
-0.0952145
-0.0104518
-0.00318694
-0.0434419
-0.00359977
-0.0297131
-0.0440963
0.000979287
0.000390288
-0.0424273
-0.0445379
0.000937771
-0.0218831
-0.00181913
-0.00484549
-0.00114826
-0.00089901
-0.000810867
0.00294149
-0.00240854
-0.0134107
0.000520526
-0.000788134
-0.00842191
0.000550288
-0.000223784
9.90748e-06
0.000550222
0.000894117
0.000199469
0.00088479
0.00021316
-0.0966232
-0.00336071
-0.00595337
0.000376083
0.00253788
-0.0149311
0.000384137
-0.0121955
0.000949923
-0.0105398
0.000487952
7.51191e-05
-0.0168646
9.53125e-05
0.00339396
-0.0406605
-0.000528898
-0.000727335
0.00057396
-0.0170202
-0.00376331
-0.000960367
-0.0016915
-0.00381472
0.000675499
-0.00948729
0.000686329
0.000965782
-0.00983738
0.000714609
-0.000877441
0.00105283
0.0016927
0.000347372
0.000944736
0.0010205
-0.000240967
-0.00317542
0.00122081
8.30952e-06
0.00205794
7.51733e-06
-0.0123433
0.000807204
-0.00384268
-0.0368541
-0.000396887
0.000730827
-0.0357738
-0.00338174
-0.00382287
0.00188993
-0.0503059
-0.0168699
-5.24362e-05
-0.00154535
2.25264e-05
-0.0014475
-0.00491543
-0.00742818
0.000147801
0.000520227
-2.29606e-05
-0.0130363
0.000139283
0.00315993
-0.015095
0.00551357
-0.0219312
0.00245366
-0.00169983
0.00182624
-0.00802558
-0.000108674
0.00170418
-0.00144594
-0.00339212
-0.00177106
-0.00834165
0.000773103
-0.000378944
0.000398159
0.000967
-0.0426693
-0.0512087
-0.000203749
0.00820595
-0.0073606
-0.0964333
-0.00702284
0.00125441
0.000979744
-0.00334997
-0.0186391
-0.00159467
-0.0452092
0.000866814
0.000328378
0.000166088
-0.0014395
-0.0348762
-0.0014853
-0.0448149
0.0019178
0.00218021
-0.000909835
0.00505748
-0.00855603
-0.04172
-0.00160947
-0.0152727
-0.00618116
-0.0438512
-0.00632029
0.00112675
0.0010146
0.00132495
5.70612e-05
-0.0146887
-0.0083288
0.00546318
-0.0210087
0.000792177
0.00215504
-0.00474957
-0.00852274
0.00204805
-0.000385131
0.000160024
-0.0155252
0.00059855
0.000171352
0.00123677
-0.000941352
0.000669199
-0.00272288
0.000616269
0.00180364
-0.000303601
-0.0820292
-0.000872461
0.000124527
0.00174159
0.00198578
0.000530695
-0.00657717
5.40834e-05
-0.00258173
-0.0348654
-0.0249805
5.10165e-05
-0.0065561
-0.0129747
-0.0342857
-0.0142337
-0.0464115
3.24905e-05
0.0103701
-0.0115814
-0.0121192
-0.00121695
-0.0318654
-0.000826439
5.17725e-05
-0.000944716
-0.0204988
4.28013e-05
5.6959e-05
-0.00158323
0.000506606
-0.0123627
-9.62727e-05
0.000909079
0.00197497
-0.00884169
0.000515841
0.00171369
-0.00170597
0.0024528
-0.000106071
-1.082e-05
-0.0811643
-0.00999932
-0.00176295
0.00098716
-0.00714469
0.00013153
3.66334e-06
-0.000469625
-0.00100377
0.00257202
-0.000833218
-0.00627618
6.00326e-06
1.57435e-05
0.00281479
-0.0120583
6.23719e-05
-0.00160979
0.00215685
0.000710302
-0.000868007
0.000667535
-0.0174806
-0.00587716
0.00341374
-0.0968188
-0.0190798
0.00695065
0.00624834
-0.00152457
0.002594
0.00954751
-0.00353208
-0.0134742
-1.04547e-05
0.002943
0.000257844
-0.00247884
5.20533e-05
-6.63754e-05
-0.00426066
0.00194311
-0.00075461
-0.000960521
0.00179012
-2.32091e-06
0.000601029
0.00095556
-0.0200604
-0.0190276
0.00186536
-0.00776745
-0.00173234
0.00285312
-0.0022583
0.00243062
-0.00150622
-0.00368703
0.00174034
-0.0187367
-0.000904389
0.00262113
6.71251e-05
0.0020021
0.00461549
0.000163302
0.00107173
-0.0200572
-3.28229e-05
0.00410281
0.00265698
-0.0170911
0.000248494
-0.00144228
0.000818897
-8.497e-05
0.00152007
-0.00159664
-0.00946513
0.000840046
0.000231963
0.00105316
-0.0241976
-0.00297238
-0.00309019
-0.0177645
-0.00225419
-0.0129396
-0.00319963
0.00257654
-0.00560656
0.0015919
-1.42025e-05
0.00270149
0.00146746
-0.00131736
-0.000926118
-0.000126398
0.00101091
-0.0165757
-0.04968
0.00302415
-0.00646085
-0.0196524
-0.00398746
-0.000828506
0.00508763
0.00227698
-0.00875178
-0.0978934
0.0019369
-0.00241492
-0.00144859
8.62069e-05
-0.000191373
-0.0211367
0.00271039
-0.00510388
0.010104
0.00180568
-0.0107523
0.000104417
0.00077952
0.00282847
-0.00274478
0.00277448
-0.0385124
0.00284017
-0.0507061
-0.0054203
-0.0237118
-9.73956e-05
4.17235e-05
0.00914412
0.00194872
-0.018214
0.00214971
0.000159398
0.00158597
1.62568e-05
5.65794e-05
-0.0324686
-0.0323042
0.000587136
0.00169021
-0.00347233
-0.0151314
0.00153042
0.000808634
-0.000264122
-0.0527847
-0.00302556
0.00198868
4.21562e-05
-0.00874414
0.0026751
6.42756e-05
-0.00647946
-0.000402557
-0.00926683
-0.00112712
-0.0224423
-0.0015517
-0.0133288
0.000750022
0.00166844
-5.13828e-06
-0.00269402
0.00209061
-1.658e-05
0.000178936
-0.00109174
0.0006365
0.00137388
-0.00654433
-0.0233388
0.000891126
0.0052496
-0.00913095
-0.0051185
-0.000925982
-6.84359e-05
0.00108746
-0.0587321
0.000525751
0.00103086
-0.00601984
-0.000894276
-0.00214967
0.00113354
0.000260236
0.00199526
0.000951498
-0.0131537
0.00210614
0.000954437
0.00195809
-0.000697374
0.0001428
0.00188876
-0.000138444
-0.0237748
0.00205111
0.00259938
-0.000927456
0.00193367
0.00144442
0.0159702
-0.0823405
-0.000343404
0.00144577
-0.00109132
-0.000290557
-0.0145958
0.00252027
-0.00121846
-0.000743472
0.00173748
-0.00432234
-0.00496388
-0.0115895
0.00158688
0.00249282
-0.000885266
0.000668536
-0.00146947
5.99611e-06
-0.0242382
-0.000456115
-0.00190434
0.000646864
-0.0265113
0.00289261
0.00185069
1.52634e-05
-0.0100054
0.000300937
0.00131059
-0.000733656
0.00245212
-0.0986559
-0.0141465
-0.00850966
0.00104523
0.00189012
0.00190543
-0.0153236
-0.00941604
-0.00155397
-2.87212e-05
0.00458752
0.000873302
-0.0014957
-0.00206281
-0.052106
0.00208407
-0.000925464
-0.00294432
-0.025153
-0.00222224
-0.00957728
0.00295156
-0.000405953
-0.0178549
0.0013093
0.000964483
0.00164433
0.00126285
-0.0488018
-0.0395747
0.00389308
-0.00338263
-0.0161127
0.000195285
0.000268896
-0.00587366
-0.000105397
0.00172333
-0.0364018
-0.0684852
-0.00339702
-0.0258254
0.00157558
-0.00298683
-0.00151876
-0.00171917
0.000436609
0.000196951
0.00160787
0.00151265
0.000587258
0.00244881
-0.00150299
0.000121598
-0.0033357
0.00362523
-0.0434101
0.00398529
0.00547383
-0.0244496
-0.00827961
-0.0155741
-0.00350995
-0.00034517
-0.00961246
0.00703725
-0.00337752
-0.0674861
-0.000710712
0.00184326
0.0017321
-0.013963
-0.0251941
-0.00986062
0.00572148
0.00513574
0.00249674
-0.0256881
-0.0453945
0.00157677
0.000873371
-0.0123172
-0.025017
-0.00292962
0.000290979
0.00103205
-0.00701536
0.000129166
0.00152227
0.000829767
-0.00123517
-0.00883521
0.00203998
-0.00282649
-0.00626706
-0.00161924
0.000494925
0.00185254
-0.000815908
-0.0251583
-0.00459288
-0.0100315
0.000960212
0.000132642
-0.00106036
0.00189904
0.000925477
-0.0254651
-0.00793272
-0.0177704
0.00218826
0.00255028
-0.0011633
-0.0614707
-0.00175593
-0.00147616
0.000757351
0.000553696
1.51721e-05
0.000900094
-0.0176883
-0.00300527
0.000506646
-0.00511976
-0.0183479
-0.0982497
0.00352225
-0.0255336
-0.0144062
-0.00258638
-0.0139936
-0.00266881
0.000776475
-0.000508717
-0.0234746
0.000767046
0.000166981
-0.00295448
-0.00127413
-0.0803659
-0.000799481
-0.00169244
0.00344229
0.0011329
-0.00247052
-0.00336667
-0.002409
0.00140671
-0.0499644
0.00214452
-0.0012054
0.0020053
0.00206195
0.00231377
-0.00681728
-0.00421048
-0.00245744
0.00105458
0.000381322
-0.00831846
2.79547e-05
0.0024279
-0.0574649
8.62703e-05
0.000646596
-0.00306515
0.00209636
0.000453161
0.000689662
0.00138958
-0.0616342
-0.00225196
0.000890477
-0.000190864
0.00316404
0.000870115
0.000107417
-0.00390047
0.00181232
0.00147092
0.00130544
-0.00518063
0.00187328
0.00105055
0.00344902
-0.00703906
-0.00250037
-0.0432257
7.73618e-06
0.00231603
0.000956622
0.00392211
-0.00435686
0.00100665
0.00199986
0.00237389
-0.0011786
3.23396e-05
-0.00918305
-0.017792
0.00190832
-0.000494967
-0.00826072
-0.00123965
-0.0151052
4.51045e-06
0.00231967
-0.0138174
-0.00602924
-0.0067451
0.00128333
-0.00145255
-0.00863223
-0.0972851
-0.00151365
0.000623167
-0.0128903
-0.00183087
0.000660658
0.000750323
0.001095
-0.0129147
-0.00165943
0.00101269
-0.000332779
-0.00254572
-0.0264101
0.000454432
-0.022855
0.000873885
0.00265197
-0.0171078
-0.00118898
-0.0060701
2.82144e-05
-0.0342223
-0.0282418
-0.00158455
0.00148124
0.00338816
-0.00752237
0.00192141
-0.00160956
-0.00159531
-0.000975043
0.000677889
-0.00187635
-0.000816912
4.03851e-06
-0.000499611
-0.078843
0.000579554
-0.0136465
-0.0877566
0.000675593
-0.0403785
-0.00249191
0.00097402
0.00721443
0.00889954
0.000682419
-0.0338035
-0.0053047
0.00014067
0.00034445
0.000860053
-0.112241
-0.000234265
-0.0137485
0.00195852
-0.0478001
-0.000492556
-0.000360847
-0.000150534
0.00115729
-0.00292327
-0.00612913
-0.0329127
0.00125002
0.00358361
-0.000700212
-0.00138536
0.00557688
0.00935599
-0.0181907
-0.00292935
0.00198816
-0.0218764
0.000551329
0.000831011
0.000660503
-0.0060366
-0.00239238
-0.0134058
0.00204072
-0.0305152
-0.0179625
-0.00425957
0.00276797
0.000441596
-0.0332407
0.000961372
-0.0030287
0.010129
-0.00246398
0.0028092
-0.0432237
-0.00178371
-0.0135642
-0.00283817
0.000628259
-0.0233937
0.000127709
0.00122202
-0.0172055
-0.0146851
-0.015814
0.0005913
-0.000521898
0.000275775
-0.00838199
3.69774e-05
0.000975789
-0.00976966
-0.000972381
-0.0234692
-0.00420113
0.000882009
-0.00885218
0.000967827
-0.00205333
-0.00551325
0.00088891
0.00160245
-0.0182781
-0.00480801
0.000103568
-0.000789907
-0.0125449
0.00127552
0.00388359
-0.0403192
0.00058722
0.00212593
0.00123008
0.0012357
-0.0094821
-0.00812671
0.000382422
7.5516e-06
0.00126941
0.00126581
0.00179172
0.000608989
0.00404899
1.12089e-05
-0.00420508
-7.61977e-06
0.00176638
-0.0219462
0.00112487
0.000512421
2.2699e-05
-0.00770907
-0.000618839
0.00222637
-0.0278733
-0.0078959
0.00195418
0.000136074
-0.00177778
-0.000563646
0.000337172
0.00233795
-0.00010038
-0.0110859
-0.0996844
-0.013701
0.00151802
-0.00776988
-0.00102278
-0.0129144
-0.0104715
-0.0490273
1.43631e-05
-0.0130528
0.00536716
-0.0121911
0.00281793
0.00282205
-0.00570596
0.0017272
0.00107119
0.00186416
-0.0581853
0.000231518
-0.00629806
0.000744491
0.000966931
0.00199319
-1.32021e-05
0.000188596
0.00360195
-0.00193771
-0.00884324
-0.000500163
0.0119558
0.000779196
-0.000653754
-0.0130813
-0.0275967
-0.00904269
-0.00963101
-0.00696362
-0.00380014
0.000837462
-0.00772743
-0.00908102
-0.00145957
-0.00153045
0.0021903
-0.0241604
-0.00507698
-0.00902188
0.00197342
-0.00625064
-0.038976
-0.00975179
-0.0458173
4.93597e-05
-0.00475331
0.00132928
-0.00216184
0.000973358
0.00395758
-0.00258709
-0.0950369
-0.00582817
-0.042997
-0.0106608
0.000631242
-0.00136307
0.000391007
0.00133029
0.00168493
0.000710788
0.00128314
0.000510558
0.00171221
-0.0127312
-0.00048683
-0.0342572
0.000623342
-0.00638885
-0.00368217
-0.00144695
-0.00638659
-0.00975774
-0.00189105
0.000494973
-0.028336
-0.00622794
1.83068e-05
0.00199337
-0.00197485
0.000237703
0.000247007
-0.00571494
-0.00652746
0.00828764
0.00196942
-0.00231635
0.001458
0.00102009
-0.0121841
-0.00790687
0.00303997
-0.0372163
-0.0903054
-0.0170015
-0.000334179
-0.0134423
-0.00694301
0.00174537
-0.00169342
0.00220511
-0.0077523
-0.000465991
0.00208643
0.00101347
0.00126496
-0.0415385
0.00190635
0.00142048
-0.0155717
-0.00478519
-0.0143961
-0.00355674
0.00299488
0.000305545
-0.00773236
-0.0465415
0.00175209
-0.0372196
0.00135315
-0.00470807
-0.0188508
0.0019368
0.000852199
0.00103346
-0.113533
-0.000558134
0.00249012
0.00192497
-0.00167552
-0.0133959
-0.00152303
-0.00830677
-0.0123622
-0.000116522
-0.00100623
0.00331484
-0.0248101
0.000166988
0.00202617
0.017349
-2.99335e-05
-0.000250261
3.38234e-05
-0.0384923
-0.0165476
0.00172444
-0.00747314
-0.000452735
-0.00669088
0.00284493
0.000417093
-0.00170846
0.00418974
-0.0849966
-0.0938575
-0.0207229
-7.93822e-06
0.00282316
-0.000669306
-0.00148
3.43613e-05
-0.0184885
-0.0221136
-0.0214211
-0.00297511
0.00231102
-0.000217604
-0.033841
0.000700366
-0.0179111
-0.0172931
0.00823735
0.000641986
-0.00594741
-0.0148924
0.00203262
0.000718248
2.4554e-05
0.000516024
0.000980575
0.000651388
-0.0243407
-0.00247191
-0.00509902
0.000446006
-0.00688742
-0.0258228
-0.0127102
-0.00071905
0.00167583
-0.00832076
-0.00110898
-0.0143221
0.00100952
0.00137183
-0.0251503
0.000921361
0.00248105
-0.0402182
-0.0389532
0.000604483
0.00137085
-0.00178279
-7.81889e-05
-0.0025277
-0.0182668
-0.00187655
-0.0210585
0.0009977
0.00140284
-0.0479258
-0.0278425
-6.74573e-05
0.000991052
-0.00267763
-0.00515805
-0.00607195
-0.0117948
0.00283787
-0.0232414
0.00164091
0.000207432
7.7488e-06
-0.0235901
-0.00853343
0.00565259
-0.00181905
4.88587e-06
-0.0297116
0.00135857
0.00127254
-4.73029e-05
-0.00247467
0.00084967
0.00161015
-0.00148644
0.00369682
0.00130488
-0.00129574
-0.00016089
0.000945959
0.00136185
-0.00229352
-0.000241576
-0.000508708
-0.00658553
0.00637263
-2.63296e-05
0.000448737
-0.00909045
0.000651785
-0.00128814
3.27862e-05
0.0037805
0.00125492
0.000948878
-0.0121655
-0.000107559
-0.0223232
0.000623299
0.00705862
-0.039662
0.000448546
-0.0216931
-0.000135128
-0.000262917
-0.00196528
-0.0408016
0.000165915
-0.000105204
-0.000192935
0.00114414
0.00120996
0.00143101
-0.00164581
-0.00166185
0.00733728
-0.0179786
0.0024359
-0.00707336
0.000969595
-0.0102928
0.00223391
0.000636488
-0.000136549
-0.0053195
0.000150166
5.51818e-05
-0.0260738
0.000873911
-0.00408995
0.000934829
-0.00339078
-0.00185564
-0.0227677
-6.40583e-05
-0.026348
-0.00919122
-0.0114282
0.0021716
-0.0112994
1.09594e-05
0.000960481
-0.0481034
-0.00744295
-0.00539406
-0.00911444
-0.000191253
0.000919082
-0.021799
0.00100965
-0.00959495
-0.00141668
-0.00282443
-0.00246016
0.0144747
-9.60645e-05
0.00140995
0.00118924
-0.0284057
-9.37411e-05
0.000657889
-0.000964287
-0.00305638
-0.000299448
-4.64066e-05
-0.00465325
0.000502586
0.00212169
-0.0266013
-0.0219893
-0.00861461
-0.00333293
0.00233813
0.00105562
-0.0344627
-0.0226717
0.00378386
-0.000204985
0.00750875
-0.0367649
-0.000127456
0.0055181
-0.0261624
-0.00999774
0.00100347
-0.00225852
0.00128728
0.00121456
-0.0109275
-0.000512413
-8.52511e-05
-0.00016393
-0.00220903
-0.00739595
-0.0226739
-0.000485255
-0.000122575
0.000596587
-0.00483481
-0.000146771
-0.00825559
-0.000150015
-0.00537106
0.000484464
-0.0383414
-0.0233937
-0.0145476
-0.00218213
0.00108322
-0.0132243
-0.011624
0.000414993
-0.002926
0.00992976
0.0102086
0.00159037
-0.0358913
-0.0193213
0.00925415
-0.00405119
-0.0410616
-0.00441625
0.00450029
-0.0120931
0.000853488
-0.000357782
-0.00801103
0.00229901
-0.0214884
-0.00183164
0.00103189
-0.0049251
-0.0118115
0.00465591
-0.0196775
0.000361347
-0.000137803
0.00103935
6.74264e-06
-0.00130663
-0.00191482
-0.0127207
-0.00428113
-0.00728668
-0.00885307
-0.00181076
0.00104357
-0.0356475
-0.00453549
-0.000176256
-0.00065823
1.65689e-05
-0.000182466
0.00142791
0.000970342
0.000871596
-0.00937646
0.0105744
-0.000169824
0.000987155
0.000145049
-0.000127258
0.00194457
0.00059593
0.0124342
0.000778223
-0.000863754
3.48351e-05
0.00219856
-0.000940279
-0.000160363
0.00047065
-0.00086528
-0.00587276
-0.00954049
-0.0203392
0.000368229
-0.0041925
-0.00470888
0.00225726
0.000336477
-0.0141319
0.000134196
-0.0457978
-0.000187682
-0.000533618
0.00106979
-0.00100022
-0.0302536
0.00244712
-0.0347714
-0.0238678
0.00697311
-0.0281646
-2.80276e-05
0.00172178
-0.0131116
0.00102994
-0.00138124
-0.0010093
-0.0185139
0.00244394
-0.0579912
-0.000195341
-2.87717e-05
-0.0352583
-0.000181322
0.00134853
0.00171062
-5.28992e-05
-0.00095242
-0.00481357
0.00120979
0.000943471
-0.00423143
-0.000899576
0.0156097
0.000946159
-0.0181492
0.0016476
-0.0465478
-0.00130607
-0.00482216
-0.0252905
-0.0176552
0.0120388
-0.000213803
0.0003064
-0.00248398
0.00223705
-0.0103582
-0.00129081
-0.0364536
-0.00152267
0.00127832
-0.00209939
-0.0171262
0.00168319
0.000897291
-0.00171448
-0.00199693
-0.00892215
0.00636612
-0.00974111
0.000862867
0.0020072
-0.00698327
-0.0152779
0.00262412
-0.0046825
-0.00411564
0.00146243
-0.00291451
0.00309394
0.00958191
0.00220981
0.000429279
-0.0124688
-0.00244201
0.0042248
0.000318347
-0.0839594
0.000718595
-0.0155197
-0.020892
-0.00635016
-0.0245545
-0.00168775
-0.00597915
0.000645227
0.00178262
-0.0020776
-0.0231032
-0.00642632
-0.0124905
0.0015662
-0.000433985
0.00105025
-0.000983215
0.00137344
0.00255388
-0.000508621
-0.00476988
-4.67662e-08
-0.0023826
-4.30297e-05
0.00219152
-0.0462248
0.00139522
0.00689325
-0.000468716
-0.00913214
0.000195629
0.00029012
-0.000182225
-0.0095339
-0.00787129
-0.0160159
-0.0336512
-0.00101847
-0.00097303
-0.011358
-0.0703216
-0.0140236
-0.000103253
-0.000210839
-0.0109846
6.54656e-05
0.00324939
-0.000396645
-0.000164442
-0.00309834
-0.0324474
-0.00658456
-4.04029e-05
0.00265626
-0.0119839
0.000415454
-0.0920412
-0.00611797
-0.0248508
0.000287165
0.00628972
1.95624e-05
0.00316081
0.00330011
-0.00143875
0.00180357
-0.00149271
0.00375439
-0.021487
-0.00261328
9.8186e-05
-0.0376995
-0.00126448
-0.00145834
0.0014796
-0.000367072
-0.0159871
0.00139712
0.00084117
-0.0226232
-0.00200623
-6.53615e-05
-0.00279999
0.000305843
-0.0929348
7.59409e-06
-0.00831741
0.0129315
-0.00173534
0.0017574
0.000959592
0.000316429
-0.00327635
0.000857083
0.00093749
-0.0203125
-0.000124168
0.00259778
-0.012242
-0.000122103
-0.0172877
-3.33198e-05
0.00397253
-0.0166267
-0.00205991
3.29098e-06
0.00107796
-0.00589155
0.00350067
-0.00576645
-0.00128891
-0.000151983
0.00709215
-0.000204334
0.00151693
-0.000761085
0.00155855
0.000674508
-0.000555975
-0.0194155
-0.00404014
0.000973122
-0.00282264
-0.00256112
0.0012287
1.69638e-05
0.000730383
0.0029223
0.00749008
-0.00428266
-0.0052002
-0.000174736
0.00260355
-0.0082509
-0.00055823
0.00209271
-0.0132007
-0.0307744
-0.000972464
0.00148497
-0.000846464
0.00103428
0.0017438
0.00313343
0.000882233
-0.0107232
0.000679177
0.00148268
-0.0136775
0.00159381
-0.00134431
-0.0189797
-0.000973004
0.00090023
-0.00077294
-3.77156e-05
0.00124909
0.00089577
0.00199767
-0.00959999
0.0132804
0.00113932
0.000995299
0.00187801
-0.0352106
0.000512869
0.00253498
0.00627881
0.000541972
-0.0225813
0.000695502
0.00448121
-0.000218933
0.000551563
0.000381572
0.00526824
-0.000366174
-0.00190077
-0.00234686
-0.00052789
7.94207e-06
-0.00645126
-0.0450518
-7.0942e-05
-0.00360179
-0.0167454
0.00440276
-0.0141031
-0.0048694
-0.0255394
0.00135505
-0.00029746
0.00123273
-0.00226352
-0.00294935
-0.012187
-0.0244431
0.000970343
-0.00238031
-0.00201377
-5.96011e-05
-0.000564841
-0.0916434
0.00190283
0.00164293
-0.00578544
-0.0428619
-0.00553827
0.000422942
-0.0936998
0.000910962
-4.27726e-05
-0.0183121
-0.000181136
0.00427372
0.00270232
-0.000801872
-0.0352918
0.00109471
-0.0122073
-0.00968306
0.00146471
-0.00747822
-0.00568014
-5.31741e-05
0.000171981
-0.00103854
-0.00116644
-0.00210735
-0.0778341
0.00297077
-0.0208597
-0.000187133
-0.00989679
-0.00154183
-0.00190493
-0.000301504
-0.00137167
-0.00104441
-0.068331
0.00115357
-0.00021531
-0.00163962
0.00073141
0.000486022
0.000432809
-0.00846336
0.00157931
0.00146437
-0.00459352
-0.0282988
-0.000151789
0.000393898
0.00150143
-0.0376391
0.00062844
-0.00226687
0.000376675
-0.00188902
0.00108126
0.00166117
0.00133364
-0.027229
0.000573205
0.000920057
0.00554248
-0.0020435
0.000615749
0.000656769
-0.00579654
-7.77071e-05
-0.0481146
5.88782e-05
0.00142943
0.00485697
-7.12008e-05
-0.00878014
-0.000331839
0.00493353
-0.00423651
-0.0666241
0.00273326
0.00096061
0.00244321
-0.05261
-0.0127686
-0.00156023
-9.0956e-05
-0.104278
-0.0109948
1.2021e-05
-0.000201517
-0.0702965
-0.00815012
-0.0179597
-0.00489297
0.000886677
-0.00995096
-0.00306788
0.00649066
0.00530767
0.00087511
-0.000148306
0.00160838
0.000199623
0.00104733
-0.0657655
-0.0441229
-0.0123093
-0.0174028
1.13135e-05
1.868e-05
-0.00772171
-0.0091651
-0.011661
-0.00180552
-4.88988e-05
0.00175816
-0.00103475
-0.0128518
-0.00335304
-0.00422359
0.00406059
0.000488691
-0.000851728
-0.0105253
-0.0551719
-0.0127597
-0.121955
0.00301293
0.00312419
-0.0181019
0.00155393
0.000671789
1.62596e-05
0.00127812
-0.000158509
-0.119744
-0.0129794
0.000647593
-0.00111929
-0.0241405
-0.0385697
0.00355736
0.000179566
7.27996e-05
0.00174612
0.00121373
-0.00149128
0.0121379
-0.000213791
-0.000192759
-0.0137328
0.0057733
-0.00823104
-0.0264672
-0.0390248
0.000725524
-0.00218093
-0.0110773
-0.00598644
-0.00333151
0.00369226
-0.00233034
0.000982779
-0.00298123
-0.00124216
0.000450143
0.00249288
-0.0194756
-0.0765608
-0.0212637
-0.0288585
0.000169811
-0.00429543
0.0010826
-0.00391135
0.00169083
-0.000759155
-0.000152869
0.000750641
-0.00322726
-0.00103695
-4.1998e-05
0.000737447
0.00080875
-0.0187108
0.0011803
0.00265096
-0.0081666
0.000738299
-0.000117431
0.00310017
1.87888e-05
-0.0327141
-0.00283821
-0.0143829
-0.000469705
0.000764215
-2.95121e-05
0.00155674
-0.00639863
-1.21293e-05
0.00151968
-0.00014441
-0.000147027
-0.0120854
-2.66492e-05
0.000230339
0.00420887
0.00107306
-0.0262896
-0.102469
-0.00283777
-0.00372234
-0.00896538
-0.000199872
-0.00212786
-0.0136501
0.000441442
0.00139594
-0.00118587
-0.0340078
-0.0538985
-2.13939e-05
0.000949912
-0.0117128
0.00147759
-0.00312572
-0.03486
-0.00136391
-0.00879491
0.000763832
-0.0573159
-0.00142145
-0.000155379
0.00273229
-0.0640211
-0.0706445
-0.000874607
0.00223799
-0.000500596
-0.0214904
-0.000138817
-0.0189082
0.00433946
0.00221274
-0.00590948
-0.0261892
0.0015912
0.00245329
-6.54812e-05
-0.0181489
-0.0200364
-0.00724685
-0.00128758
0.00196037
0.00119918
0.00115617
0.00379793
-0.000161186
0.00223606
-0.000223424
-0.00370089
-0.00505023
0.00108978
-0.0118744
-0.00871807
-0.0461255
0.00202374
-1.7327e-05
0.0229298
-0.00383836
-1.91683e-05
0.0014508
-0.000125449
-0.000158643
-0.00212898
0.000836389
0.000658327
-0.0266247
-0.00372325
0.00208873
0.000984739
-4.32751e-05
-0.034606
0.0110518
-0.00160604
-0.00194969
-0.0137043
-0.00670825
-0.000124771
0.00807071
-0.0314328
0.00105546
-0.0114492
0.000992545
-0.0835913
-0.00135735
-0.000189781
-0.0929771
-0.0157081
0.000407136
0.00819412
-0.00103644
0.000927823
0.000732801
0.000674476
-0.0102773
0.000793054
0.00081847
-0.0414202
0.000713225
-0.00116804
-1.87049e-05
-0.00298661
-0.000157079
-0.0307602
-0.00181368
-0.000911101
-0.0142946
-0.0021463
-0.00091346
0.000124913
0.00063875
-0.018492
0.00102184
-0.0110023
0.00072061
-0.0105929
0.00106729
-0.0919999
-0.00680199
-0.033358
-0.0449869
-0.00327213
-0.0315387
0.00177244
-0.00166657
0.0039059
0.000915596
-0.0085325
0.00102576
0.00049254
-0.0214868
0.00614925
0.00257654
-0.00146907
0.000107338
-0.00335618
0.000904243
-0.00104779
0.00257016
0.00425424
-0.00805391
-0.000196599
-0.0789657
-0.002086
0.000712298
-4.16175e-05
-0.000206447
-0.00271041
0.000967734
0.00102118
-0.00346848
0.000589147
-0.0565886
0.0149267
0.00380262
-0.0351137
-0.014025
0.000986044
-0.000133595
-0.00279029
0.000729637
0.000512191
-0.029114
-0.000313008
-0.00880645
-0.00141236
-0.00130119
-0.00572292
0.00158686
0.00328511
0.00151812
0.000798977
-5.72098e-05
-0.00797964
-0.115887
-0.00083855
-0.00976309
-0.00507763
-0.00237224
-0.00745873
0.00112155
0.000990737
0.00149885
-0.0145092
-0.00131581
0.000670259
-0.00223597
-0.0770512
-0.024356
-0.00786774
0.000737833
-0.00853429
0.00111972
-0.000187889
-0.0162602
0.0012192
-0.0164736
-0.0915278
-0.00605504
-0.000140151
0.00751167
-0.00550775
0.00464028
0.00589202
0.000401636
-0.000199631
-0.0136572
-0.0184064
-0.0254945
-0.0621682
-0.0214523
0.000529424
-0.00541281
-0.00350078
-0.000128386
-0.00951362
0.000240219
0.00182771
-0.000383037
-0.000981931
0.00181565
-0.00329312
0.000546126
0.00168917
-0.0286113
0.00115965
-0.00716304
-0.0107782
-0.0404667
0.000917802
0.00109747
-0.00705859
0.00803148
-0.00208895
-0.0449994
-0.000694656
-0.00127611
-0.00817914
0.000714651
-0.00020962
-0.037361
0.00127288
-0.0339096
-0.000176024
-0.0275065
0.00638507
-0.00502298
-0.064398
-0.002584
-5.31264e-05
-0.0899274
-0.00127314
0.00389384
-0.00192668
0.00153164
0.00463521
-3.36086e-05
-0.00639752
0.00555536
-0.000266666
-0.000167802
-0.00354202
-0.0145376
-0.00466868
-0.00528308
0.000214117
-0.0274915
0.00026584
-0.000200376
-0.000515431
-0.00226971
-0.0146694
0.000462793
-0.00132962
0.000801923
-0.00196031
-0.00236986
-0.0160198
0.00189078
-5.02905e-05
0.00382481
-6.23266e-05
0.000175793
-0.000140032
-0.00175684
-0.000101192
-0.0749901
-0.000481708
-0.00890798
-0.00913505
-0.0174153
-0.00116738
0.00154855
-0.00139243
-5.32699e-05
-0.0032048
1.84951e-05
0.0258702
-0.00849348
-0.000304926
-0.00314728
3.86664e-05
0.000332741
-0.0122636
0.00473253
-3.43098e-05
0.00116302
-0.00496759
-0.00405328
-0.00016799
0.00360046
0.000790435
0.00156998
-9.63302e-05
-0.000842863
-0.000890614
0.000773042
-0.0364864
-0.000349408
0.0194458
-0.000683235
-0.00928603
0.000817842
0.00017758
-0.0114209
-0.00114534
0.00455091
-0.00568137
0.00154145
0.00114877
0.00701953
-0.0290949
-0.000646589
0.000541862
-0.00561027
-0.0248616
-0.00102023
0.00448631
0.000204141
0.000810387
-0.0135487
0.00191588
-0.000917481
-0.000967337
0.000952415
0.0012005
0.000262794
0.00142636
-6.59347e-05
6.0384e-05
0.000331316
0.021869
0.00365603
-0.000464117
-0.00246257
-0.00381295
0.0010979
-0.00582843
0.000805448
-0.00605689
-0.00773033
0.000658242
0.0111579
-0.00131011
0.000875341
-0.00706026
0.000861199
-0.006184
-0.00322841
-0.0061545
-0.00799412
-0.0257027
-0.000475295
0.000520453
-0.0001634
-0.016039
0.00361368
-0.0111445
0.00152403
0.000332966
-0.00406942
-0.00116749
0.0016261
-0.0181907
0.000271611
0.00102452
-0.00132579
0.00125412
0.000809038
-0.0305959
0.00204513
0.00195529
-0.000978204
0.00327504
-0.0017473
0.00193693
-0.00530755
0.0021984
0.000204777
0.00191565
0.000356484
-0.00163556
0.00217617
0.00118616
0.00137153
-3.53981e-05
0.000991315
0.000576644
-0.0188822
-0.0119911
-0.00498234
-0.00753381
0.00389566
-0.0327544
-0.0126781
0.00748637
-0.0128848
-0.0878664
0.00111805
0.00216059
0.00212845
-0.00270205
0.00023118
-0.0246711
-0.00118726
-0.00185609
-0.0346053
0.000846166
-0.016402
0.00545369
-0.00581498
-0.000994492
0.00293332
0.00193869
0.00737979
0.000694478
0.0019237
-0.0114878
-0.00353855
0.000555103
-0.00462644
0.00533835
0.000973977
-0.0464126
-0.0191006
0.00636213
-0.081369
-0.00129519
-0.0384938
0.00479733
-0.0111322
-0.00183119
0.00441166
-0.0398401
-0.0895869
-0.0069646
-0.016702
-0.0677117
-0.0185116
0.00174199
-0.00830337
-0.0179792
-0.0660339
0.00113677
0.000850012
-0.000371992
-0.0125462
-0.00309619
0.00645487
-0.0912633
0.00127072
-5.20032e-05
-0.00178209
0.00199217
-0.0333749
0.00120617
-0.00358927
0.000612798
-0.0928213
-0.000143599
-0.00550522
-0.00114712
0.000130208
0.00120086
-0.00844131
0.00244518
0.00114635
1.33264e-05
-0.0385373
-0.089434
-0.00780479
0.00138547
0.00410718
-0.00780943
-0.0121938
0.00129825
0.00383736
0.00225119
-0.000344348
-0.000202729
-0.0131959
-0.0911172
-0.062634
-0.0060743
-0.00511279
-0.0917841
-0.00235751
-0.00941102
2.14805e-05
0.000887461
-0.0108841
-0.0138979
0.00218923
-0.0097416
-0.0116928
-0.0271473
0.00120863
-0.0267409
-0.0295702
0.00365956
-0.0711759
-0.07476
-0.00168698
-0.01423
0.000768745
-0.00316149
-0.0394846
-4.2954e-05
-0.00387634
0.000397523
-0.00986276
-0.0147298
-0.0173077
-0.00413403
0.00202264
0.0172523
0.00108787
-0.00560645
0.00140252
-0.0876689
-0.00016488
-0.0116066
0.00197779
-0.000120179
0.0010641
-0.0115757
0.000103553