/*--------------------------------*- C++ -*----------------------------------*\
| =========                 |                                                 |
| \\      /  F ield         | OpenFOAM: The Open Source CFD Toolbox           |
|  \\    /   O peration     | Version:  v2012                                 |
|   \\  /    A nd           | Website:  www.openfoam.com                      |
|    \\/     M anipulation  |                                                 |
\*---------------------------------------------------------------------------*/
FoamFile
{
    version     2.0;
    format      ascii;
    class       volVectorField;
    location    "50";
    object      U;
}
// * * * * * * * * * * * * * * * * * * * * * * * * * * * * * * * * * * * * * //

dimensions      [0 1 -1 0 0 0 0];


internalField   nonuniform List<vector> 
18166
(
(0.910494 0.086505 -6.06086e-23)
(1.02082 -0.00395661 -9.26354e-22)
(1.05937 -0.0286655 -1.17998e-23)
(1.04826 -0.0277769 -1.0245e-21)
(0.972988 -0.0844015 0)
(1.05788 -0.0172329 1.06674e-20)
(1.01587 -0.00230687 3.25994e-23)
(1.01582 -0.00447762 1.4138e-22)
(1.028 -0.0176282 0)
(0.919615 0.0989278 6.06379e-23)
(1.02101 -0.00390214 0)
(1.04042 -0.0309894 0)
(1.04479 -0.00557269 6.47269e-23)
(1.02948 -0.022964 -3.21339e-21)
(1.03735 -0.010521 2.8991e-21)
(1.02059 -0.00585428 0)
(0.582093 -0.0846062 0)
(1.01431 0.000773955 7.70521e-23)
(1.03872 0.000528208 6.15789e-21)
(1.07598 -0.0264563 -3.31241e-22)
(1.0324 0.00141426 3.63149e-21)
(1.00718 0.000140335 0)
(1.03896 -0.000465632 1.56541e-21)
(1.02712 -0.00660374 0)
(1.01631 -0.000485072 -1.66502e-22)
(1.01843 0.0205699 6.65461e-23)
(1.01589 -0.0046228 -9.63056e-23)
(0.982683 0.171578 1.07724e-21)
(1.02391 -0.00171993 0)
(1.01662 -0.00151995 4.02364e-22)
(1.00787 -0.00201595 0)
(1.0008 -0.0100153 -7.91734e-25)
(1.00444 -0.00647719 9.37344e-22)
(1.01674 -0.0013583 0)
(1.03534 -0.101943 1.25548e-21)
(1.02168 0.00198034 1.20561e-21)
(1.01327 0.000134764 2.45376e-25)
(1.01627 -0.000681477 1.64325e-23)
(1.01253 -0.00680268 4.15258e-22)
(1.03958 -0.03143 0)
(1.02727 -0.0176005 -2.07114e-21)
(1.04129 -1.56822e-05 0)
(1.01782 -5.66483e-05 6.16013e-23)
(1.03832 0.000952828 2.82237e-21)
(1.00327 -0.116707 0)
(1.0136 0.000148142 1.47727e-22)
(1.01646 8.47329e-05 3.91138e-23)
(1.04988 0.0384708 -5.30503e-22)
(1.00812 -0.002965 -3.05108e-24)
(1.05892 -0.024177 -2.79449e-22)
(1.06249 -0.0444093 5.76078e-22)
(0.580182 -0.0870745 -2.76156e-20)
(1.008 -0.00290229 4.26165e-24)
(1.01812 -0.00567391 2.07441e-22)
(1.01357 0.000161492 -4.73201e-22)
(1.01919 0.000414037 1.8784e-21)
(0.96134 0.131658 0)
(1.01561 0.000210435 0)
(1.02364 -0.101127 3.88297e-22)
(1.01945 0.000489553 -1.0231e-21)
(1.01339 0.0032517 -3.84271e-22)
(1.01339 -0.000389914 -2.16926e-22)
(1.01431 -7.14962e-06 3.11472e-22)
(1.02042 0.00259794 -7.80209e-22)
(1.0162 -0.000224095 -1.89836e-22)
(1.0135 -0.00040345 0)
(1.01448 -0.000991167 0)
(1.02041 -0.0056554 3.82803e-22)
(0.887375 -0.0635909 2.82255e-21)
(1.0141 0.00278763 3.64677e-22)
(1.04416 -0.00522148 0)
(1.04773 -0.0278144 9.2827e-21)
(1.03295 -0.00549388 0)
(1.02862 -0.0170184 0)
(1.01444 0.00286327 -2.40658e-22)
(1.00719 -0.000426789 -1.33824e-21)
(0.505435 0.0134544 0)
(0.898332 0.00135012 -2.30833e-21)
(1.06367 -0.0469942 7.71044e-21)
(1.01276 -0.000637167 0)
(1.03192 0.00152868 1.48587e-21)
(1.01012 -0.00270987 0)
(0.978906 -0.0966454 5.14293e-23)
(1.01486 0.00162565 0)
(1.01311 -9.82789e-05 1.97392e-22)
(1.01328 0.00288296 4.1647e-24)
(1.01782 0.00521036 7.2241e-24)
(1.02019 0.00249462 4.87834e-22)
(1.01631 -0.00111884 -6.16037e-22)
(0.573375 0.00975964 0)
(1.01501 0.00163164 1.42651e-22)
(1.01652 0.00360556 0)
(1.04147 0.000472334 0)
(1.01631 -0.00106666 6.16357e-22)
(1.02864 -0.0165515 0)
(1.02743 -0.000495587 0)
(1.05338 -0.0346089 0)
(1.01537 0.000250257 0)
(0.946779 -0.00119335 0)
(0.435074 -0.0735467 -1.57956e-21)
(1.01502 -0.00310006 -8.20929e-23)
(1.01414 0.000953951 3.71164e-22)
(1.01656 -0.00158099 0)
(1.00663 0.146253 1.22268e-21)
(1.01535 0.00246989 -5.0836e-23)
(0.988213 0.101792 4.35879e-22)
(1.01482 0.000747605 3.08694e-22)
(1.01503 -0.000287556 7.63347e-23)
(1.00597 -0.0070964 -3.82424e-24)
(1.02313 -0.00129814 0)
(0.69642 -0.0758258 -2.7729e-20)
(0.976072 -0.126354 0)
(0.651046 -0.0781035 0)
(0.909956 -0.0618018 0)
(1.02816 -0.00703927 -1.2392e-21)
(1.01153 0.110453 -3.43489e-21)
(0.885258 0.0072209 -4.92144e-21)
(1.02071 -0.011333 -9.34611e-22)
(1.02706 -0.00627287 0)
(1.01835 -0.000401678 -2.46498e-23)
(1.02122 -0.00530343 1.17431e-21)
(1.01835 -0.000519925 0)
(1.02105 -0.01118 6.3577e-22)
(1.01317 -0.000238818 -2.17184e-22)
(1.0168 -0.00083701 4.43415e-22)
(1.0338 -0.007009 1.08173e-22)
(1.03353 -0.00658705 0)
(1.01381 -0.00173425 9.40627e-22)
(1.01408 -0.000149104 1.32285e-22)
(1.02003 0.00214037 9.05128e-23)
(1.01575 -0.00223747 1.43401e-23)
(1.02097 0.00265799 -1.01288e-22)
(1.02963 0.00808142 1.19043e-22)
(1.01484 -0.00303873 0)
(1.00448 -0.00505303 -2.32779e-22)
(1.032 0.0832943 3.873e-21)
(1.01525 -0.00307209 0)
(1.06134 -0.046736 -6.06102e-21)
(1.01414 -0.000126905 1.798e-22)
(0.990712 0.0183704 -4.22598e-22)
(1.01879 -0.00507845 5.43644e-22)
(1.021 -0.00530334 -1.85409e-21)
(1.03601 -0.00441755 3.57202e-21)
(0.939144 0.131766 3.74005e-22)
(1.00767 -0.00449342 -2.16357e-24)
(1.01588 -0.120229 0)
(0.956393 0.129227 -2.97004e-21)
(1.0133 0.000147598 2.2119e-22)
(1.0139 0.00196444 8.97562e-23)
(0.428001 -0.0800582 0)
(1.01406 0.00372858 -6.59425e-22)
(1.03237 0.00276208 -1.64928e-21)
(0.990404 0.00787772 0)
(0.874148 -0.0538886 0)
(1.06657 -0.0213631 0)
(1.01394 0.00168795 -9.17132e-23)
(1.01306 -0.00146589 2.69879e-22)
(1.01873 -0.00740046 -1.0612e-22)
(1.06763 -0.0208095 0)
(1.02822 -0.00671748 -1.94048e-21)
(1.0153 -0.00404514 6.57529e-23)
(1.01114 0.00180336 2.1525e-22)
(0.706471 -0.0865907 1.76819e-20)
(1.01656 0.00017246 -6.19501e-23)
(1.021 0.00289385 1.79601e-21)
(1.01191 0.00321801 -3.12937e-22)
(1.02792 -0.009777 7.19161e-22)
(1.01593 -0.00433451 5.87302e-24)
(0.911223 -0.0502487 3.1473e-20)
(1.01314 -0.0013185 -2.97421e-22)
(1.0185 0.00613339 5.79715e-22)
(1.00478 -0.0205947 -1.29034e-21)
(1.01541 -0.00305209 0)
(0.957603 -0.0138589 0)
(1.01643 -7.22006e-06 4.53882e-23)
(1.07053 -0.0033717 -4.31575e-21)
(1.01348 0.002729 2.99717e-22)
(1.05641 -0.0171398 1.37062e-21)
(1.01919 0.000247402 -8.19955e-22)
(1.02848 0.0020612 0)
(1.01316 -0.000222216 1.2354e-22)
(1.01608 0.00336746 -1.07471e-22)
(1.04996 -0.0226292 -6.30491e-22)
(0.859129 -0.0748315 1.17954e-21)
(1.02419 -0.0100863 1.52606e-22)
(1.01551 0.000751024 0)
(1.01576 -0.00386581 -7.31261e-23)
(1.02803 0.00305784 -3.30646e-21)
(1.02456 -0.00763915 -2.68595e-22)
(1.01401 0.000178826 -2.52994e-22)
(1.01863 -0.00719918 1.24207e-22)
(1.02453 -0.010086 -1.61242e-21)
(0.807872 -0.0765741 3.11507e-21)
(1.01591 -4.10573e-05 0)
(1.01105 0.00268717 4.12937e-22)
(1.08188 -0.0365875 9.93271e-21)
(1.08048 -0.0350359 7.92841e-21)
(1.03389 -0.00722399 1.39597e-22)
(1.01898 -0.00510881 2.29028e-22)
(1.01455 -0.00105303 6.12019e-24)
(1.01146 0.000152879 -3.42156e-22)
(0.93709 -0.00839355 0)
(0.913024 -0.0483262 1.04759e-20)
(1.02842 -0.00731506 -1.27601e-21)
(1.0192 0.000773182 0)
(1.06001 -0.0244531 -7.07635e-21)
(1.02081 -0.00558054 0)
(1.0488 -0.0280087 0)
(1.06059 -0.022626 6.73099e-21)
(1.01721 0.00337875 0)
(1.01536 -0.00291705 0)
(1.05905 -0.024669 6.24907e-21)
(1.0608 -0.0233522 -7.68084e-21)
(1.01721 0.00346789 1.58771e-22)
(1.04043 -0.00304968 7.06159e-21)
(1.01875 -0.00530348 0)
(1.05377 0.0334805 -1.60443e-21)
(1.01801 -0.00546692 0)
(1.01841 -0.00723105 1.9528e-22)
(1.01682 -0.00344383 9.31028e-24)
(1.00963 -0.00209495 -7.15668e-22)
(0.947877 0.0928035 0)
(1.03195 -0.022499 -1.82773e-21)
(1.0143 -0.000146168 -6.15719e-23)
(1.01624 -4.75598e-05 0)
(0.94929 0.147188 1.65839e-21)
(1.01334 -0.000358686 1.26319e-22)
(1.01588 -0.00289521 0)
(1.00527 -0.00846417 0)
(1.0142 -0.000136857 5.64938e-23)
(1.01353 -1.15273e-05 -1.49211e-22)
(1.01769 -0.000134372 -1.84529e-23)
(1.02096 0.0170889 2.33912e-22)
(1.01767 -1.46671e-05 1.8558e-23)
(0.834099 -0.0578229 0)
(0.926549 0.101518 2.00412e-22)
(0.928384 0.103962 9.34561e-22)
(1.0178 -0.000223479 4.93684e-23)
(1.013 0.00185908 0)
(1.03652 -0.0324544 -3.69138e-21)
(1.01349 -0.000377591 4.42857e-23)
(1.03028 -0.0224497 2.92256e-21)
(1.01283 -4.02125e-05 0)
(0.963027 0.138471 0)
(1.01425 -0.000161622 2.76794e-22)
(1.01823 -0.000775721 0)
(1.03563 -0.0291394 -1.08759e-21)
(1.01827 -0.00061797 0)
(1.01216 -0.000588452 -7.59591e-23)
(1.058 -0.0181011 0)
(0.942818 0.0845881 2.74566e-23)
(1.01671 -0.00343059 -8.20089e-24)
(1.01563 -0.00419775 2.19378e-22)
(1.03901 -0.0296913 2.3021e-23)
(1.02099 -0.00555768 9.77243e-22)
(1.01647 -8.40912e-05 -7.73274e-23)
(1.01859 -0.00528574 -3.49551e-22)
(1.02015 0.0015012 0)
(1.01552 -0.00409336 -4.63909e-23)
(1.02718 -0.000190067 0)
(1.01425 -0.0114736 1.00064e-22)
(1.01447 -0.0105837 0)
(1.02762 0.00318667 1.36991e-21)
(1.01681 0.000665285 0)
(1.01627 -0.000129969 2.60129e-22)
(1.01645 -0.00981703 1.43855e-22)
(0.996836 -0.0545951 5.17648e-22)
(1.01587 -0.00419145 3.20938e-23)
(1.01514 0.000953738 -2.05962e-22)
(0.978294 0.0730806 -4.15792e-22)
(1.0145 -0.000833092 5.6606e-23)
(1.01921 0.000937821 0)
(1.02866 -0.0118504 6.611e-23)
(1.00047 -0.0099339 2.60447e-24)
(1.02168 0.00193653 -2.34431e-22)
(1.01431 -0.00097027 7.22584e-25)
(1.05794 -0.035259 9.85329e-22)
(1.01308 -0.000115934 1.89978e-22)
(1.02063 -0.00378793 1.26541e-21)
(1.05305 -0.0335292 8.05198e-21)
(1.01566 -0.00224211 -1.40349e-23)
(1.01759 0.00548643 -1.63018e-22)
(1.05378 -0.00920262 -1.37681e-22)
(1.01946 0.000661697 0)
(1.02026 0.00225533 2.03333e-22)
(1.01431 -0.00233855 -7.8455e-22)
(1.06596 -0.0233301 0)
(1.03834 -0.0293087 -3.44592e-21)
(1.01407 -0.000585035 0)
(1.01911 -0.00715217 0)
(1.00621 -0.00702286 3.7071e-24)
(1.0347 -0.0093251 -1.47684e-22)
(1.02167 0.00223076 -1.21529e-21)
(1.02515 -0.00842756 -2.17465e-21)
(1.01838 -0.000335231 1.22869e-23)
(1.01095 0.000127957 -1.17297e-22)
(1.01265 -0.00046861 1.42799e-24)
(0.950163 0.150869 0)
(1.01834 -0.000233004 -1.21608e-23)
(0.992155 -0.0536224 -4.95589e-22)
(1.03362 -0.016891 -6.14422e-21)
(1.00332 0.00439408 -5.13524e-22)
(0.842776 -0.0586425 4.45254e-21)
(1.01217 -0.00638218 -4.50981e-22)
(1.01718 -0.00189268 1.29799e-22)
(1.02225 0.000375248 0)
(1.0239 -0.0304094 -1.0418e-21)
(1.01592 -0.0031955 2.38047e-23)
(1.01412 0.00108166 -3.54764e-22)
(1.01894 -0.00698826 -1.71329e-22)
(1.02003 -0.0035044 3.47965e-22)
(1.01693 -0.000884616 -5.72852e-22)
(1.02595 -0.00355943 -6.5127e-22)
(1.01535 -0.00367809 2.4065e-22)
(1.01557 -0.00215073 1.08046e-23)
(1.01624 -5.01116e-05 8.49808e-23)
(1.01416 0.0013794 -1.70622e-22)
(1.05907 -0.0261753 7.03559e-21)
(1.06686 -0.0226244 0)
(1.01443 -0.000811494 -3.09833e-23)
(0.971953 -0.0746477 1.68932e-21)
(1.02504 -0.00967712 0)
(0.880638 -0.0510445 -1.82089e-20)
(1.02469 -0.00970081 0)
(1.01359 0.000218401 4.15725e-24)
(1.01413 0.00128648 1.63203e-22)
(1.01991 -0.00332891 -3.27501e-22)
(1.05715 -0.0274119 -4.18786e-21)
(1.01662 -0.000889223 -2.20815e-22)
(1.06164 -0.0216652 0)
(1.01462 0.000595343 -3.6433e-22)
(1.01765 -7.99115e-05 1.42163e-23)
(1.01405 -0.00029606 0)
(1.01837 -0.00548307 -2.61083e-22)
(1.05296 -0.00945711 -8.38928e-21)
(1.0164 -0.000204237 0)
(1.0614 -0.0208512 0)
(1.01389 -0.00885823 0)
(1.01315 -0.00189695 3.408e-22)
(1.01594 -0.00166828 1.48796e-22)
(1.00572 0.00433672 -8.66709e-22)
(1.0262 -0.00375587 8.67043e-22)
(1.05818 -0.0264411 5.99011e-21)
(1.01666 -0.000834809 -4.11511e-22)
(1.03361 -0.00571432 -1.87779e-21)
(1.02324 -0.00106289 0)
(1.05916 -0.0485643 1.64368e-20)
(1.02347 -0.00196772 -8.09574e-22)
(1.01373 -0.000773324 -2.49745e-22)
(1.01542 0.00240043 4.39677e-23)
(1.02722 -0.0130202 0)
(1.01313 -0.000251909 0)
(1.03631 -0.0332365 3.38708e-23)
(1.02591 -0.00300533 0)
(0.982894 -0.0573415 0)
(1.03953 -0.000346558 3.64484e-21)
(1.01541 -0.004162 -6.87241e-23)
(1.0132 -0.00175441 -5.66117e-22)
(1.02943 0.117437 -4.49743e-22)
(1.02501 -0.0298681 7.09824e-22)
(1.01364 0.000195561 1.20207e-22)
(1.01643 -0.0036367 7.6088e-23)
(1.01798 -0.000207158 -2.95102e-23)
(1.03389 -0.00609574 -2.03348e-21)
(1.0381 -0.0089919 -1.4653e-22)
(1.01826 -0.000171502 2.81768e-23)
(1.01357 0.000234491 0)
(1.01598 -1.31592e-05 -4.81037e-23)
(1.01509 -0.00271609 -2.02271e-22)
(1.02045 -0.0101737 -2.87576e-22)
(1.01324 -0.000249404 0)
(1.01427 -0.00224003 0)
(1.01598 -0.00292355 -6.01862e-23)
(1.08469 -0.0402082 -1.36983e-20)
(1.01584 -0.0016018 -2.24224e-22)
(1.01634 -4.89785e-05 0)
(1.01439 0.0006781 0)
(1.01876 -0.00044891 -4.56707e-22)
(1.01417 -0.00016119 -8.90249e-23)
(1.02379 -0.00191207 0)
(1.01814 -0.00122906 -1.33164e-23)
(1.01824 0.000109326 -1.40241e-21)
(1.05294 -0.0234687 0)
(0.980903 0.0304427 3.07059e-21)
(1.01821 -0.00112729 1.76406e-23)
(1.02369 -0.000795708 -2.07964e-21)
(1.03117 -0.0202347 0)
(1.05237 -0.024034 2.19795e-21)
(1.03244 0.00116624 -3.2018e-21)
(1.06097 -0.0490937 8.9581e-21)
(1.01807 -0.00145632 -2.60417e-24)
(1.00541 0.0188364 1.83672e-21)
(1.02945 -0.015649 -1.33843e-21)
(1.03018 -0.00339486 0)
(1.01479 -0.00259978 1.53692e-22)
(1.05039 -0.0266509 -2.10929e-21)
(1.01585 -0.000282586 0)
(1.01808 -0.00147267 1.20804e-24)
(1.01567 -4.57614e-06 -1.70441e-22)
(1.0444 -0.029105 -8.13889e-21)
(1.01799 -0.00170246 1.68702e-23)
(1.01788 -0.00166537 -1.67592e-23)
(1.01854 -0.00549874 -3.31618e-22)
(1.0168 0.00137107 -1.61989e-24)
(1.03042 -0.00366347 -5.94601e-21)
(1.01453 -0.000316689 -3.92163e-23)
(1.01318 -1.00209e-05 2.14619e-22)
(1.03105 -0.00310087 -1.18541e-21)
(1.03616 -0.0680571 0)
(1.01678 0.00132219 5.46627e-23)
(1.01426 0.000855587 -4.05808e-22)
(1.00975 -0.0101703 2.62879e-22)
(1.02158 0.0108916 0)
(1.01375 -0.000415531 1.81031e-23)
(1.0081 -0.00265917 0)
(1.05884 -0.0472018 -2.3252e-20)
(1.0278 -0.000435505 -7.90036e-22)
(1.01719 0.000976029 0)
(1.01327 -0.000128841 2.09115e-22)
(1.02484 -0.00784723 -6.07622e-22)
(1.01422 -0.000279018 0)
(1.00827 -0.00252872 -6.94936e-25)
(0.992148 0.0993327 0)
(1.00799 0.10221 -2.16378e-22)
(1.012 0.000916608 -6.17102e-22)
(1.01606 -0.000235709 -1.02733e-22)
(1.02341 -0.00213241 9.84645e-22)
(1.00811 -0.00226879 0)
(1.00808 -0.00198448 0)
(1.00932 -0.00889628 0)
(1.03011 -0.00264739 -3.38611e-21)
(1.0155 -0.000431622 0)
(1.01704 -0.00186813 0)
(1.02351 0.00937777 4.94614e-22)
(1.01395 -9.9042e-05 0)
(1.01683 -0.0033114 7.8893e-23)
(1.01515 -0.00282628 2.45366e-22)
(1.0445 -0.0345228 7.23966e-21)
(0.725227 0.00470785 0)
(0.986075 -0.0193501 0)
(0.794861 -0.0628023 0)
(1.05819 -0.0268335 0)
(0.996721 -0.0109951 0)
(0.999353 -0.0109306 -1.18342e-21)
(1.01747 -0.00300048 -2.86118e-22)
(1.01725 0.00667572 2.70398e-23)
(0.972304 -0.0663643 0)
(1.02079 -0.00582251 0)
(1.03184 -0.0199333 0)
(1.00524 -0.00873899 4.94779e-25)
(1.0089 -0.00766669 1.99905e-22)
(1.01588 -0.00393654 0)
(1.01808 5.77427e-05 1.16588e-21)
(1.01531 -0.000499299 0)
(1.00957 -0.000412921 -3.33955e-24)
(1.02182 -0.0102477 0)
(1.01769 -0.00148093 -2.12992e-22)
(1.01565 -0.00156454 -2.42769e-23)
(1.01695 -0.00333072 -9.63996e-23)
(1.01434 -0.0022772 2.52077e-22)
(1.01249 -0.000501493 0)
(1.01664 0.0018962 -1.80179e-22)
(1.01394 1.16962e-05 0)
(1.03855 -4.52164e-05 -3.78058e-21)
(1.03765 -0.0100224 -4.25683e-21)
(1.01859 -0.0013726 0)
(1.02551 -0.00789057 0)
(1.01683 -0.00075182 2.84266e-22)
(1.00866 -0.0118416 -1.93756e-22)
(1.01909 -0.0048169 0)
(1.00168 -0.00310536 2.6499e-22)
(1.01642 -0.000369703 2.16094e-22)
(1.02127 -0.0103512 0)
(1.0135 0.00239545 9.36937e-24)
(1.04123 -0.0282102 0)
(1.01618 9.46313e-06 -4.80216e-23)
(1.01219 0.00139599 6.81921e-22)
(1.01539 -0.000191165 1.44922e-24)
(1.01367 3.76195e-05 -3.75992e-22)
(0.916016 -0.110867 -5.21141e-22)
(1.01964 -0.00915632 -9.18408e-24)
(1.01789 0.00332305 0)
(0.99636 0.0710041 4.20161e-22)
(1.01583 -0.00315385 -1.43803e-23)
(1.00685 -0.00186709 0)
(1.0142 0.00463316 3.29216e-22)
(1.04463 -0.0360305 -3.43274e-21)
(1.0187 0.000367319 1.0617e-22)
(1.01923 -0.00765075 -4.2354e-22)
(1.01305 -5.29946e-06 -3.3159e-22)
(1.01414 -0.000625966 3.03879e-24)
(1.01447 -0.00218504 0)
(1.01696 -0.001716 4.26575e-22)
(1.02665 -0.0329543 -2.3666e-21)
(0.96416 0.0703934 -6.71919e-23)
(1.01962 -0.00930741 4.77732e-23)
(1.01511 -0.00349934 0)
(1.04273 -0.000308018 7.88709e-21)
(1.01896 0.00119436 1.07637e-22)
(1.019 2.94292e-05 2.69082e-22)
(1.03624 -0.00397 -5.82286e-21)
(1.01807 0.00173151 3.39894e-22)
(1.03105 0.00212069 0)
(0.989761 -0.130783 0)
(1.01286 0.00241273 0)
(1.02248 0.00182149 0)
(1.01446 -0.00222325 0)
(1.01438 -0.00103462 -1.16273e-25)
(1.01221 0.00247629 6.5801e-22)
(0.990442 0.0800263 0)
(1.0183 -0.0056804 2.93582e-22)
(1.01543 -4.31003e-05 3.66861e-22)
(1.01442 -0.000356911 4.33453e-23)
(1.01074 0.000134168 0)
(1.04488 -0.0393503 4.12612e-21)
(1.06521 -0.0252801 -2.40356e-21)
(0.983866 -0.0223245 -6.23219e-22)
(1.02358 -0.00103884 1.23085e-21)
(0.904477 -0.00792823 1.70822e-21)
(1.0204 0.00159502 -8.67722e-22)
(1.01826 -0.00705409 -1.91899e-22)
(0.960289 -0.0789688 5.86708e-22)
(1.02723 0.0108603 -1.23766e-21)
(1.02522 -0.0333618 4.4016e-21)
(0.843116 -0.0546212 0)
(1.0151 -0.00204026 -4.13445e-22)
(1.01827 0.00170237 -4.37945e-22)
(1.0163 -0.000362431 -1.96812e-22)
(1.01611 -0.000705202 -1.57238e-23)
(1.01495 -0.0002934 0)
(1.04443 -0.0286512 4.37706e-21)
(1.01331 -0.00231541 9.63734e-22)
(0.674687 0.00572535 -1.33913e-21)
(1.00184 0.0149846 0)
(1.01699 -0.00392417 0)
(0.912886 -0.00976971 -1.87787e-21)
(1.01651 -0.000564313 0)
(1.0164 0.00040013 -1.22776e-22)
(1.01292 -0.002404 -4.62973e-22)
(1.01998 -0.00595687 0)
(1.01261 0.00378444 -3.23657e-22)
(1.05599 -0.0215433 0)
(1.01351 0.00651733 -3.34671e-23)
(1.0662 -0.0246193 2.47339e-21)
(1.02228 0.00199066 0)
(1.04229 -0.000581272 -7.00629e-21)
(1.01399 4.15787e-05 1.46351e-23)
(1.01802 -0.00154112 0)
(1.00103 0.00647132 4.41038e-22)
(1.01376 8.87181e-05 4.22105e-22)
(1.03683 -0.0106311 7.30799e-21)
(1.0133 -0.000177064 0)
(1.01415 -0.000931937 6.16368e-24)
(1.01354 -0.00988052 3.33906e-22)
(1.00787 -0.00435497 0)
(1.01809 -0.00139482 0)
(1.05097 -0.0243348 -9.20922e-21)
(1.05077 -0.0260783 -6.69265e-21)
(1.01505 -0.00256449 -4.50643e-23)
(0.972463 0.0264549 -7.33687e-23)
(1.01998 -0.00302428 0)
(1.03361 -0.0173857 -2.85648e-21)
(1.02886 -0.00820291 -4.11776e-22)
(1.01602 0.000646482 -1.48078e-22)
(1.01538 -0.00205781 -2.21942e-23)
(0.749397 -0.0823541 -5.99749e-21)
(1.02021 -0.00569236 7.02838e-22)
(1.01314 -0.00156663 0)
(1.01796 -0.0017828 -5.78496e-24)
(1.02633 -0.000703483 1.97348e-21)
(1.01151 0.000727202 0)
(1.01801 -0.0016164 -9.65268e-24)
(1.06755 -0.0284389 3.09452e-21)
(1.01594 -0.00264964 0)
(0.926651 -0.0479221 0)
(1.01111 -0.00573382 0)
(1.041 -0.00277062 -1.17952e-20)
(1.01744 -0.00286548 5.13197e-22)
(1.03149 0.0022965 0)
(1.01517 -0.00299092 0)
(1.01475 -0.00261785 0)
(1.00104 -0.00978768 0)
(1.02048 -0.00987807 1.96759e-22)
(1.01343 -8.35399e-05 0)
(1.00336 -0.00953298 -6.26344e-25)
(1.01782 -0.000185857 3.15416e-23)
(1.01562 -0.000416548 -7.1011e-22)
(1.01324 -0.000228191 1.30587e-22)
(1.0077 -0.0201838 3.27594e-22)
(1.0237 -0.00150701 -1.25503e-21)
(0.749876 0.0201709 3.95777e-21)
(1.01437 -1.29196e-05 -2.28553e-22)
(1.00239 0.00221636 -4.71414e-22)
(1.02623 -0.0184082 -1.87949e-21)
(1.02196 0.0026454 1.10601e-21)
(1.01267 2.3189e-05 0)
(1.01341 -0.000161311 0)
(1.01357 0.0183514 0)
(1.07362 -0.0231584 -2.04431e-21)
(0.970334 -0.109146 -1.08396e-22)
(1.01326 -8.17201e-06 2.48311e-24)
(1.02285 -0.0144614 6.94314e-22)
(1.01619 -0.000272601 0)
(1.018 -0.00231954 -6.73801e-22)
(1.01768 -0.008021 0)
(1.01849 0.000333555 -5.65342e-23)
(1.00946 0.0311496 -1.10609e-21)
(0.958219 0.0561577 3.46878e-22)
(1.03503 -0.0375622 0)
(1.01379 -0.00246256 5.82145e-22)
(1.01428 3.16417e-05 4.4988e-24)
(1.02196 0.0245059 0)
(1.01783 -0.00646051 -3.27328e-23)
(1.01483 -0.000151903 0)
(1.01465 9.64321e-05 -5.61447e-22)
(1.01413 -0.000451535 -4.91554e-23)
(1.04304 -0.0180006 -5.91252e-21)
(1.0138 -0.00235936 -5.53713e-22)
(1.01335 0.00348217 0)
(1.02176 -0.0138861 2.26683e-22)
(1.00724 -0.0187742 0)
(1.01433 0.00129266 -1.41733e-22)
(0.963516 -0.0161785 0)
(1.03654 -0.0492662 -1.28845e-20)
(1.01464 -0.000861233 0)
(1.01349 0.0286729 9.01096e-22)
(1.01562 -0.000387435 5.37848e-22)
(1.01547 -0.00214733 -1.16809e-23)
(0.383811 -0.0719896 1.39609e-21)
(1.00653 0.0068053 0)
(1.01891 -0.00738551 2.14469e-22)
(1.01796 -0.0066573 0)
(1.01475 -0.0026231 -6.21079e-22)
(0.399041 -0.00196098 6.03513e-22)
(1.01785 -0.0307655 -5.61306e-22)
(1.02944 -0.0161904 0)
(1.01421 0.00335261 3.95407e-22)
(1.01551 0.00394453 3.54531e-22)
(1.01639 -0.000250596 -2.03205e-23)
(1.04231 -0.0052716 0)
(1.0173 -0.00277931 -2.54867e-22)
(1.00817 -0.00199891 1.71365e-24)
(1.04584 -0.0279827 -5.52715e-21)
(1.01579 0.000174215 -9.27089e-23)
(1.01739 0.000953428 -5.63208e-22)
(1.0133 -0.000356191 1.83059e-22)
(1.01123 0.0248575 -3.60772e-21)
(1.00976 -0.000534653 3.5489e-22)
(1.01418 -0.00224928 5.05109e-22)
(1.00621 -0.00667996 0)
(1.027 -0.0254395 0)
(1.01724 -5.46367e-05 5.57675e-23)
(1.01319 0.00134659 0)
(1.01463 -0.0116471 -3.82858e-23)
(1.01623 0.00377218 -7.21349e-22)
(0.766087 -0.0641298 0)
(1.03236 0.0023119 0)
(1.02613 -0.00321961 1.56586e-21)
(1.01327 2.32225e-05 0)
(1.01483 2.43366e-05 2.59266e-22)
(1.01377 -3.28088e-05 0)
(1.03365 -0.00489552 -4.16184e-21)
(1.02717 0.00375816 -5.3969e-23)
(1.01652 -0.000249951 0)
(1.00984 -0.000310284 0)
(1.00601 0.000839097 2.08038e-21)
(1.01386 -2.55318e-05 2.57226e-22)
(1.01665 -0.0158334 0)
(1.0179 -0.00236705 6.7256e-22)
(1.06781 -0.0199504 3.54005e-21)
(1.02799 0.00534092 -2.12698e-22)
(1.01819 -0.00664713 0)
(1.02019 -0.00593927 0)
(1.04343 -0.0326132 0)
(1.04274 -0.0187517 4.40507e-22)
(1.07892 -0.0504026 -2.298e-21)
(1.00797 -0.0103991 1.14129e-22)
(1.01588 -0.00259853 -1.55447e-22)
(1.03627 0.00241954 5.57357e-21)
(1.0129 0.00168375 0)
(1.01399 0.00147834 3.70261e-22)
(1.01414 0.00120202 -1.86425e-22)
(1.01359 0.000104695 5.14224e-22)
(1.06425 -0.0272217 0)
(1.05703 -0.0171078 -1.97408e-20)
(0.988202 -0.0589575 0)
(1.01265 0.122917 1.26879e-21)
(0.976306 0.194127 -5.12875e-21)
(1.01644 0.00542139 -9.19747e-23)
(1.01552 -0.00304699 0)
(1.02276 -0.0139411 9.86364e-22)
(1.01416 -0.000415683 4.76333e-23)
(1.01388 0.00150251 0)
(1.05438 -0.00977413 9.47224e-21)
(1.08168 -0.0332971 -9.65387e-21)
(1.06811 -0.0116573 8.77346e-22)
(1.0447 -0.0148307 -9.10798e-21)
(1.03175 -0.00786865 7.98045e-23)
(1.01895 0.00103091 7.42782e-22)
(1.01683 -0.00168195 -3.27178e-22)
(1.01389 -0.0208245 0)
(1.03167 -0.0153411 -1.8358e-22)
(1.01561 -0.00310459 0)
(0.776489 -0.106662 1.97983e-23)
(1.01598 0.00753228 1.68055e-22)
(1.01528 -0.00302313 -1.6835e-22)
(1.01384 -0.00264236 -1.92522e-22)
(1.01674 -0.00156557 -5.62373e-22)
(1.01639 8.26477e-05 0)
(1.02099 -0.0101987 0)
(0.769429 -0.10766 -8.12746e-23)
(1.05851 -0.0342208 4.4471e-21)
(1.01105 -0.00555677 0)
(1.00831 0.0102459 -9.76367e-22)
(1.01785 -0.0472573 -1.27186e-21)
(1.02503 -0.0191131 0)
(1.03392 -0.00527511 2.00515e-21)
(1.02007 -0.00320102 0)
(1.01603 8.90537e-05 0)
(1.02691 -0.0184481 -2.93183e-22)
(1.01388 0.00983188 -1.07661e-21)
(1.01942 -4.10469e-05 1.45507e-22)
(1.08075 -0.0317686 -4.69302e-21)
(1.01955 -0.00912086 8.52131e-23)
(1.01721 -0.00216692 6.32107e-22)
(1.01423 0.000829108 3.59366e-22)
(1.03628 -0.0364547 2.99659e-21)
(1.04402 -0.0123198 1.35356e-21)
(1.02688 -0.0247095 -1.43295e-21)
(0.9077 -0.0954394 5.19971e-22)
(1.00719 0.00606166 0)
(1.00638 0.00498736 0)
(1.04449 -0.0120161 -7.38549e-21)
(1.06205 -0.0190631 7.34758e-21)
(1.01449 0.0034808 -2.05454e-22)
(1.01529 -0.00387963 0)
(1.03039 -0.00292108 0)
(1.04381 -0.0318599 -4.25085e-21)
(1.02072 -0.00974113 0)
(1.03531 -0.0212641 3.62446e-24)
(0.70358 -0.111424 0)
(1.08463 -0.0553161 -1.47476e-21)
(1.01724 -0.000301429 -3.41392e-24)
(1.01478 -0.00268067 -1.03273e-23)
(1.01682 0.000533106 3.80356e-24)
(1.01625 -0.0014011 -1.84855e-22)
(1.02579 -0.01919 2.25318e-21)
(1.02467 0.00510957 0)
(1.02067 -0.00949393 0)
(1.02335 -0.00151419 8.08955e-22)
(1.01763 -0.00308612 2.79836e-22)
(1.01977 -0.00948755 3.84236e-23)
(1.01384 1.78057e-05 4.08294e-22)
(1.01601 -0.000266613 -3.26158e-22)
(0.960314 -0.0513797 0)
(1.02131 0.00256775 0)
(1.04228 -0.0520327 0)
(1.01402 0.00154202 -1.12399e-22)
(1.01407 -0.00010643 -2.85204e-23)
(1.01254 -0.0213707 2.0169e-22)
(1.01785 -0.00315302 0)
(1.01311 -4.24373e-06 -1.06598e-23)
(1.0443 -0.0143465 2.74298e-21)
(1.02355 -0.0361354 2.08923e-21)
(1.0362 -0.00483621 -3.25354e-21)
(1.01305 -0.00103383 0)
(1.01356 -0.0026984 0)
(1.01966 -0.00900152 0)
(1.05996 -0.0557945 1.7824e-20)
(1.01694 -0.000985032 5.07233e-22)
(1.01752 -0.00325907 -1.45759e-22)
(1.01406 -0.00119901 1.99e-22)
(1.01405 -0.00109043 -1.50821e-22)
(1.00818 -0.00208063 -1.47736e-24)
(1.01397 3.33041e-06 3.89814e-23)
(1.04107 -0.0313004 5.79195e-22)
(1.02433 0.00683084 -6.51117e-22)
(0.940653 0.116972 0)
(1.01841 -0.0294866 5.94434e-22)
(1.04262 -0.0311496 -4.40673e-21)
(0.804488 -0.0590316 -1.81331e-20)
(1.0122 0.00117127 0)
(1.04619 -0.0292617 -3.97154e-22)
(1.03546 -0.0318909 0)
(1.02042 0.00872785 0)
(1.03222 -0.00159426 2.37885e-21)
(1.01996 -0.00616493 0)
(1.01409 -0.00122642 -1.248e-22)
(1.01952 -0.00912055 -9.07725e-23)
(1.03368 0.0416512 6.52749e-21)
(1.01538 -0.00381907 -2.55995e-22)
(1.01748 -0.000167378 5.59591e-23)
(1.0188 -2.85511e-05 0)
(1.01905 -0.00765797 0)
(1.09237 -0.0383436 1.4453e-20)
(1.01575 -0.0016272 0)
(1.01686 -0.00100996 2.85475e-22)
(1.01288 0.00135301 -3.74997e-23)
(1.01377 -0.000835495 0)
(1.01975 -0.00616647 0)
(1.01942 0.000129279 -7.70274e-22)
(1.01836 0.00201218 0)
(1.0143 0.00111825 -7.89989e-26)
(1.06535 -0.0265875 0)
(1.01315 -0.000875162 2.81942e-22)
(1.01617 -0.00135701 3.80115e-22)
(1.0242 0.00333464 0)
(1.01879 0.0291383 0)
(1.014 -0.00292407 2.15794e-22)
(1.07798 0.00923282 2.05186e-21)
(1.02068 -0.00160453 0)
(1.04056 -0.0114982 -2.29903e-22)
(1.01554 0.00225078 -2.0567e-22)
(1.01719 1.86285e-05 0)
(0.950066 -0.0239406 -1.71915e-21)
(1.00645 -0.00656527 5.40827e-24)
(0.977115 0.0413179 -3.2131e-22)
(1.07249 -0.0230207 7.44439e-21)
(1.01052 -5.68156e-05 0)
(1.01357 -0.000619564 0)
(1.02069 -0.0103556 -1.12571e-22)
(1.01453 -0.00284462 9.08127e-22)
(1.0168 -0.00809042 3.99269e-23)
(1.01394 -7.53403e-05 1.39844e-22)
(1.01414 0.00117485 0)
(1.04497 -0.0584364 -7.73496e-21)
(1.01911 -0.00494898 0)
(1.01818 -0.0081509 0)
(1.01526 -0.000224317 -8.40811e-23)
(1.00965 -0.0163267 -1.20763e-21)
(1.01526 -0.00357617 -2.74369e-22)
(1.01621 7.26601e-06 -2.02625e-23)
(1.02152 -0.0101194 0)
(1.01384 -7.99864e-05 -9.80818e-24)
(1.01705 0.0079111 0)
(1.01373 0.000505621 0)
(1.02196 0.00184275 0)
(1.01374 -0.00516673 -1.90559e-22)
(1.01766 0.00343897 -5.8874e-24)
(1.01268 -0.00555612 -5.52187e-22)
(1.07797 -0.0010408 -6.94657e-22)
(1.01853 0.00210121 0)
(1.0581 -0.0354646 4.62657e-21)
(1.00383 -0.00926994 2.31648e-24)
(1.01476 -0.00342173 -3.83466e-22)
(1.01309 3.00408e-05 -8.54009e-23)
(0.991601 -0.00984562 0)
(1.02175 -0.0111379 0)
(1.0133 -0.000127272 0)
(1.01359 -0.00486492 0)
(1.02086 -0.00810645 0)
(1.01634 -0.00168597 2.87869e-22)
(1.00508 -0.00824363 2.77243e-24)
(1.02682 -0.000263607 0)
(1.04237 -0.0320526 6.68618e-21)
(1.01418 -0.00231557 0)
(1.02615 -0.0439828 -6.98556e-23)
(0.854396 -0.0842422 8.75042e-22)
(1.01641 -0.00167074 -2.88516e-22)
(1.03342 -0.00182783 4.92146e-21)
(1.01234 -0.000375643 8.30131e-25)
(1.01454 -0.0035481 7.38271e-22)
(1.00532 0.00638092 -1.37176e-21)
(1.02302 0.000979481 -2.36872e-21)
(0.864822 -0.0858324 -1.45166e-21)
(1.01371 0.000523236 1.50536e-22)
(1.01756 -0.00339481 1.50387e-22)
(1.02517 -0.0355431 -2.22566e-21)
(0.753501 -0.0692625 1.58562e-20)
(1.02527 -0.0172436 -2.34535e-24)
(1.01323 -0.000293442 0)
(1.0312 -0.0230156 3.50738e-21)
(1.01791 -0.00313095 -3.35091e-22)
(1.00388 -0.0385776 -3.01957e-22)
(1.01352 -0.000115047 0)
(1.0345 -0.0112196 2.38538e-22)
(1.03482 -0.0409298 9.71401e-22)
(0.884821 -0.103695 -1.44376e-22)
(1.01569 0.00305441 0)
(1.01573 0.000200374 0)
(1.01922 -0.00422888 -5.71591e-22)
(0.849448 -0.0615489 -1.47731e-20)
(1.01569 -0.003935 1.22266e-22)
(0.649609 -0.0746587 0)
(1.01336 -0.000394801 0)
(0.890891 -0.10151 0)
(1.04648 -0.0385985 -3.25515e-21)
(1.0197 -0.0091206 0)
(1.02363 -0.0104409 0)
(0.999029 -0.0100224 1.22813e-23)
(1.05237 -0.00895557 0)
(1.04796 -0.0266365 0)
(1.01901 -0.00676871 1.8192e-22)
(1.01333 0.000105451 0)
(1.00822 -0.0164541 1.41475e-21)
(1.02522 -0.00869825 -4.21421e-22)
(1.01428 0.00751698 -5.69794e-23)
(1.03121 -0.00981491 -4.55672e-22)
(1.01331 -0.00450891 3.86807e-22)
(1.01781 -0.0054672 0)
(1.01415 -0.000101373 -1.60637e-22)
(1.01855 -0.00457952 0)
(1.0158 0.000124855 2.1067e-23)
(1.01222 -0.000409396 -1.04573e-24)
(1.01722 -0.00545136 -9.79068e-23)
(1.06977 -0.0473287 3.26713e-20)
(1.01406 -0.0011188 9.37278e-23)
(1.03066 -0.0208218 -1.69752e-21)
(0.336281 -0.0901769 -6.53241e-21)
(1.01997 -0.00943668 -3.93755e-23)
(1.05693 -0.0279461 0)
(1.01837 0.0015652 1.32597e-22)
(1.01401 1.97505e-06 5.44647e-23)
(1.02279 0.0162392 0)
(1.00991 0.0169952 -1.64256e-21)
(0.967935 -0.0529762 0)
(1.05202 -0.0158402 0)
(1.00354 -0.0917397 9.7265e-23)
(1.01421 -0.000994454 6.78095e-24)
(1.00899 9.58829e-05 0)
(0.990729 -0.0436461 0)
(0.690102 -0.0503589 2.09871e-20)
(1.03036 -0.0249785 -4.318e-23)
(1.03194 0.00299292 1.59426e-21)
(1.01406 0.00679375 6.18938e-23)
(1.06315 -0.0291327 -9.30401e-21)
(1.01482 -0.000814668 -5.80467e-23)
(1.01634 -0.00350542 0)
(1.0152 -0.00195708 0)
(1.01316 0.00284562 1.52505e-22)
(1.02077 -0.00910012 -4.59789e-22)
(1.02314 -0.000634694 -1.5597e-21)
(1.05124 -0.0158 0)
(1.01376 0.000713053 -5.14971e-22)
(0.872748 -0.0981263 -7.30837e-22)
(1.01753 -0.00565423 0)
(1.03701 -0.0282541 1.89235e-22)
(0.981276 -0.0762678 -1.69903e-21)
(1.00344 0.0101788 -4.33277e-22)
(1.03378 -0.0310669 -4.05802e-21)
(1.05651 -0.0497927 1.29446e-22)
(1.03075 -0.00825421 3.32624e-22)
(0.696787 -0.0715746 0)
(1.01709 -0.00892611 0)
(1.02029 -0.00961229 -1.34058e-22)
(1.01694 0.000598124 5.88142e-23)
(1.02364 -0.00974876 0)
(1.01985 -0.00673014 0)