/*--------------------------------*- C++ -*----------------------------------*\
| =========                 |                                                 |
| \\      /  F ield         | OpenFOAM: The Open Source CFD Toolbox           |
|  \\    /   O peration     | Version:  v2012                                 |
|   \\  /    A nd           | Website:  www.openfoam.com                      |
|    \\/     M anipulation  |                                                 |
\*---------------------------------------------------------------------------*/
FoamFile
{
    version     2.0;
    format      ascii;
    class       volScalarField;
    location    "350";
    object      ddt0(epsilon);
}
// * * * * * * * * * * * * * * * * * * * * * * * * * * * * * * * * * * * * * //

dimensions      [0 2 -4 0 0 0 0];


internalField   nonuniform List<scalar> 
18618
(
6.42707e-07
-0.00036167
1.91218e-11
1.55126e-05
-7.16943e-11
-1.94917e-06
-2.04504e-10
-0.000355369
1.62737e-10
1.08127e-09
1.59454e-10
7.76074e-12
7.2183e-05
-1.67733e-10
-3.37166e-11
2.67882e-11
-4.72665e-12
-3.6367e-05
1.1719e-11
1.97112e-10
3.3709e-08
-8.0047e-12
2.06465e-11
-2.31655e-09
1.64017e-11
4.24611e-09
2.35625e-07
-4.0724e-11
1.56555e-11
-1.44009e-11
-6.61441e-13
1.26315e-10
-8.23388e-11
-7.49666e-09
2.65095e-05
-4.64267e-11
1.29879e-10
1.55375e-06
3.44573e-10
1.00211e-11
-0.00037594
2.00353e-07
-1.66556e-11
0.000117642
2.85513e-10
2.63076e-10
-0.000303918
-1.268e-11
-8.58517e-06
0.000432475
-7.55767e-12
-4.45959e-12
-2.44107e-05
-0.000234641
3.67318e-11
-6.68227e-05
-3.1612e-10
1.87088e-10
-7.08845e-09
4.14695e-10
-8.49365e-12
-1.95051e-11
1.88644e-10
-6.36983e-11
-4.0973e-08
0.000644014
8.0416e-12
-8.40061e-11
-6.40737e-12
7.6086e-05
1.18372e-10
-3.86996e-06
-3.44336e-10
4.35457e-06
1.13719e-10
-4.57829e-11
-1.33411e-08
0.000397343
3.19667e-11
-1.2559e-05
1.40356e-05
-3.11245e-05
2.36829e-06
-2.17061e-09
-2.23132e-11
-6.42512e-12
-3.52208e-09
2.50865e-09
1.4135e-09
-3.44263e-05
-1.57508e-10
-4.32683e-07
0.000145013
-1.81931e-08
2.28113e-06
-1.22833e-10
1.94671e-10
0.000245739
-1.50985e-10
1.11831e-11
2.00464e-06
1.29254e-11
-3.00199e-08
2.5916e-10
-2.22836e-09
-0.000153589
2.46352e-11
4.39572e-11
-4.9897e-09
1.29943e-11
0.00019347
1.07837e-10
-2.62839e-10
-1.66482e-11
-7.81385e-12
2.02447e-11
9.01425e-12
-0.000174351
-4.98611e-11
-2.98387e-09
0.000323438
-1.11231e-10
-0.000150291
-3.24408e-05
7.38695e-07
-3.77639e-07
-0.000468287
-1.49559e-05
3.36385e-11
6.95373e-10
1.61301e-09
1.07055e-10
-2.6217e-05
1.96409e-07
-4.14686e-11
-1.90549e-11
2.84834e-11
-1.55637e-11
-8.04075e-05
1.58698e-11
-1.12281e-11
3.02618e-11
-6.69465e-12
2.13076e-10
2.51559e-11
3.79794e-09
-3.63912e-11
-9.2609e-12
-0.000166143
-9.03862e-11
-3.42913e-10
-0.000164145
-1.1514e-05
3.65751e-11
-2.8822e-11
-4.11737e-05
-0.000221171
0.00018648
-3.21198e-09
-4.07833e-12
1.08182e-11
-0.000100122
4.24335e-11
1.16779e-07
3.55443e-13
0.00025601
-3.47362e-11
4.67857e-11
1.15582e-05
-1.96405e-10
-1.7382e-10
-4.76494e-12
1.83226e-09
6.29134e-10
0.000154094
-8.83069e-11
2.68709e-07
-1.5415e-05
-3.7008e-12
-2.03245e-11
8.6982e-11
6.99262e-10
-7.75675e-11
-1.06259e-11
-0.000626646
2.39085e-11
2.36403e-10
3.46622e-10
1.47926e-07
-3.53171e-06
-1.14061e-10
6.46975e-10
0.000348929
2.70498e-11
8.78749e-09
1.19066e-08
5.44344e-11
-2.49862e-05
-7.0247e-10
-9.37258e-05
1.55034e-06
0.000308805
3.82649e-10
1.44615e-10
7.64521e-06
-1.22677e-05
-2.16151e-05
-0.000149864
4.48548e-10
0.000141733
-4.8846e-08
3.52812e-11
-0.000181852
-0.000253384
4.10351e-13
-5.90027e-11
2.21454e-08
1.03908e-05
-2.96907e-10
-0.000160819
5.00401e-12
-4.59701e-11
2.06666e-11
-3.04181e-08
8.81758e-10
8.50218e-10
1.06686e-11
-1.47687e-11
8.65643e-06
-4.09446e-09
0.000155706
1.15737e-07
1.83839e-11
-3.77316e-11
2.06237e-11
6.81704e-10
3.85284e-10
-9.86312e-09
-5.65448e-11
4.19789e-08
-6.53821e-10
9.52835e-11
4.24376e-12
1.18684e-09
1.04806e-06
-2.81908e-11
-2.82941e-09
-7.14188e-06
4.28446e-11
-6.76364e-12
0.000110731
3.10615e-07
8.83619e-11
7.4407e-05
6.21971e-11
1.47233e-11
-3.36979e-11
-4.8352e-09
-2.65445e-11
-1.3398e-09
1.32262e-08
-2.48093e-11
3.51739e-09
0.00029549
3.05414e-07
9.22793e-12
-7.70473e-11
-4.60006e-06
-1.06611e-10
2.37558e-10
-6.74947e-11
5.22154e-11
1.0954e-11
1.05797e-12
-4.3718e-11
3.66652e-06
-2.04e-11
-5.00937e-11
3.19342e-06
1.58106e-11
-2.90129e-11
4.68761e-11
2.67305e-05
-8.10443e-06
7.9964e-10
-6.206e-05
2.25584e-10
3.7344e-09
1.3085e-11
1.75812e-08
-1.21668e-11
2.53134e-10
-2.29274e-11
2.13325e-10
-0.00021359
4.581e-12
-5.85847e-12
8.12889e-11
-2.94753e-05
-0.000160355
4.6752e-05
6.72329e-05
0.000312818
5.02389e-10
-3.70597e-09
-8.56424e-05
-3.66204e-05
-5.37885e-11
-1.01959e-10
9.73037e-10
2.60199e-12
-8.26485e-10
2.91227e-11
-6.57865e-13
-1.01422e-10
-6.17471e-05
7.48447e-05
1.94681e-08
-7.71311e-11
4.77398e-11
-2.55779e-10
3.33957e-08
9.20253e-11
-2.13896e-05
4.48515e-11
1.37819e-08
-5.30926e-05
-3.1191e-11
3.01367e-10
3.53502e-11
5.51165e-11
-1.17269e-11
3.08404e-10
3.19258e-11
4.91187e-10
6.4747e-12
-2.18915e-08
-3.48445e-09
-0.000130183
-3.71301e-05
-1.54604e-11
-1.94372e-06
1.73448e-10
-5.13455e-12
-2.61553e-11
1.11012e-09
-5.08218e-09
-6.10549e-11
-0.000144655
2.61089e-10
8.02937e-05
-4.68348e-09
-7.99409e-12
3.33419e-11
0.00011531
1.39439e-08
5.83647e-12
-7.78165e-06
-1.77225e-11
-2.19036e-09
5.33019e-05
5.92616e-05
-1.17893e-06
-6.74178e-09
0.000104635
-0.000152172
9.66764e-11
2.60122e-10
2.02344e-08
1.49062e-11
2.1093e-11
2.71195e-11
-9.7623e-05
8.58812e-05
-1.62609e-12
-3.59771e-11
3.51859e-05
-8.21659e-12
3.86399e-07
1.75921e-06
9.57445e-10
8.0842e-11
-6.85587e-06
0.000175148
1.81006e-11
-7.01194e-11
-2.74426e-11
-3.06736e-06
2.27555e-11
-7.96951e-11
1.51455e-11
9.46523e-09
-2.14024e-10
1.63857e-12
6.15293e-06
-0.000321664
1.46221e-09
-1.38322e-05
1.03079e-11
-1.39042e-10
-3.92072e-11
-0.000251945
2.12423e-06
-0.000130016
-3.40015e-11
7.15417e-07
9.01763e-11
-8.65713e-11
3.07308e-11
2.43605e-10
4.50462e-12
-1.60322e-05
-0.000169643
-3.97867e-07
8.07786e-11
9.49858e-07
1.62343e-12
-1.46101e-10
-3.83673e-11
-4.3994e-05
1.74108e-10
8.87226e-11
9.8147e-11
5.48734e-06
-0.000629381
3.22051e-11
-1.78355e-10
-4.23049e-07
1.13904e-11
8.19823e-11
-2.44089e-11
5.73886e-13
-2.07475e-12
1.12932e-07
2.07879e-10
9.81417e-11
1.52578e-09
-3.29641e-11
-0.000180629
-1.22138e-11
8.63218e-06
-0.000188536
6.51666e-10
7.06356e-10
-1.12556e-05
-7.73076e-11
0.000133459
-0.000192611
-1.01025e-10
-8.60226e-10
-4.37681e-12
-9.21685e-05
-0.000440575
3.72447e-11
-1.87857e-09
-9.77357e-05
-1.22253e-11
-3.88881e-05
4.75267e-12
-2.83116e-05
-0.000477285
1.73874e-10
0.000215567
1.25365e-11
2.25554e-05
3.46138e-10
-0.000248093
-9.11785e-12
3.34597e-05
-6.31986e-11
3.68588e-11
-4.18204e-11
5.09606e-07
-9.41537e-10
-4.13614e-11
1.6023e-11
-1.17722e-11
0.000177293
-0.000184933
2.40377e-10
-4.09665e-05
2.33182e-05
1.78474e-10
8.72004e-11
4.35228e-12
-3.37129e-05
5.23142e-11
-2.41845e-10
2.80105e-07
-0.00026645
6.95832e-07
4.13602e-11
1.54109e-09
-2.7659e-10
-0.000555508
4.03615e-12
-1.26958e-05
-9.75726e-12
-1.14652e-10
1.59777e-10
0.000222421
5.83135e-11
0.000254531
-1.63107e-10
-1.88e-10
9.92396e-10
1.31427e-11
9.23663e-11
4.89616e-11
-0.000135839
0.000320874
3.53582e-07
1.42923e-09
4.67472e-11
6.50978e-12
-2.02346e-11
-0.000553392
-9.08005e-10
9.82464e-05
-6.26129e-11
0.000573317
2.80502e-10
1.64815e-11
-4.92428e-09
-2.60637e-05
3.06471e-09
8.04494e-12
5.62779e-10
0.000331425
-5.74077e-06
1.36817e-11
7.93932e-10
-1.76458e-10
-2.71321e-11
9.89614e-11
-2.5143e-05
1.05987e-09
4.24341e-11
-4.32744e-05
-1.39604e-05
-0.000547435
6.81085e-05
-4.62195e-10
0.000328356
1.63329e-10
-6.84332e-11
5.05018e-05
-0.00033661
-4.10996e-07
1.37141e-09
5.18431e-10
-3.38093e-11
1.62582e-10
5.30048e-09
1.56342e-09
-7.00603e-12
-1.23085e-10
-3.33725e-08
-1.93307e-10
-9.86944e-10
8.3103e-11
8.64022e-05
-2.50405e-11
-5.51548e-05
-3.40947e-10
-1.38629e-09
-1.11038e-08
-1.25377e-10
1.21259e-10
-0.000205299
-1.1057e-11
-8.36527e-06
-1.24103e-05
-1.51635e-05
5.45015e-10
-4.0082e-10
-9.95691e-06
-6.74771e-11
5.65776e-11
-3.36479e-09
-5.47883e-09
-2.55503e-11
-0.00019221
2.87968e-06
1.75512e-10
-2.16761e-09
-1.15013e-10
-5.86975e-09
1.14188e-11
-1.36867e-09
-3.89428e-10
-2.60956e-05
5.06962e-11
2.28516e-05
-3.97379e-10
-4.20111e-05
1.36103e-11
-2.86409e-10
3.37107e-05
3.64366e-10
-9.95069e-05
7.26241e-12
1.27561e-08
7.88811e-10
-1.83195e-11
-9.90868e-11
4.31296e-07
1.16958e-10
1.04863e-10
-3.2142e-11
-3.23238e-11
-1.42891e-05
7.35596e-09
-6.10667e-12
-0.000144897
-0.000250627
-4.22684e-10
-0.000191085
-1.3305e-10
7.2842e-11
-9.99061e-10
-1.94957e-10
-1.04262e-10
-9.38613e-05
-3.70471e-11
-3.31291e-08
2.17604e-10
-0.000324263
0.000231893
-8.15166e-12
3.78975e-11
-1.02246e-11
0.000136971
-4.56228e-10
-3.57231e-05
-1.34477e-10
2.41638e-11
5.26375e-11
1.52336e-11
3.31511e-13
2.10869e-11
1.20793e-09
1.4443e-08
-0.00031079
-2.90532e-11
-5.07123e-10
0.000666999
-1.10195e-11
1.89537e-12
-0.000416102
-1.90704e-09
-4.27112e-10
3.61482e-13
1.95629e-11
3.28386e-05
1.93471e-10
-6.43645e-05
-5.21958e-10
1.61045e-10
-5.35244e-10
7.11532e-06
2.1741e-10
-1.82065e-05
2.28197e-05
-3.72248e-06
2.20688e-08
-1.01974e-10
-8.80059e-10
-0.000184461
-9.76194e-12
-1.04339e-09
-3.73535e-11
1.01313e-09
-3.97206e-07
-0.000150953
1.66268e-11
-9.8934e-06
-1.0421e-10
0.000131421
-7.44674e-11
5.64197e-10
-1.03637e-09
-5.49022e-08
-1.3505e-05
-0.000580638
4.57026e-12
0.000167832
2.85977e-11
1.18908e-06
6.14776e-11
-3.03171e-09
-4.18485e-10
2.62731e-11
2.82009e-11
-2.52007e-10
-7.67364e-11
1.40174e-09
3.38793e-11
-4.43739e-11
1.01098e-11
1.4519e-11
8.87505e-10
-1.75782e-11
-5.53919e-11
4.70257e-05
3.54131e-11
-1.25841e-05
2.74758e-11
-7.37708e-11
-1.80808e-11
2.8727e-09
2.99864e-12
8.44555e-06
5.18706e-10
-6.39075e-05
-7.27042e-08
9.80685e-11
3.32466e-11
2.54926e-11
-2.55566e-11
-3.09535e-11
-1.13133e-10
-2.4954e-10
-0.000150585
-2.4145e-11
-3.88811e-05
-0.000230205
1.34071e-08
1.09261e-11
2.34927e-11
-0.000213445
-0.000599047
2.60935e-05
-9.30929e-05
6.50897e-05
-1.61678e-05
-4.34653e-05
-6.08104e-10
-4.03628e-05
-8.96017e-11
-4.49268e-12
-2.17452e-11
2.27215e-07
-1.63886e-12
3.93675e-10
-6.77057e-10
1.50221e-10
0.000161128
9.8161e-11
-1.97601e-07
1.77604e-09
-8.55944e-05
-1.45086e-06
-2.44804e-10
-8.79801e-05
7.68641e-10
-6.73964e-11
4.3322e-11
-3.66755e-10
-2.68099e-05
-0.000192996
3.34409e-11
1.52804e-11
0.000364121
-1.64262e-09
-1.47887e-05
-2.17877e-10
-1.50258e-07
9.06504e-11
0.000143611
1.06818e-10
-9.15542e-12
1.38485e-11
-4.9221e-12
-4.59695e-11
-8.758e-11
5.04443e-10
-1.22338e-05
-2.13397e-05
3.73735e-12
-1.39195e-05
-2.46643e-10
-1.03319e-05
3.01462e-07
-6.75752e-05
2.91239e-11
-1.2419e-09
0.000139309
-7.8557e-12
0.000109523
1.83203e-09
-1.41146e-10
3.04977e-10
3.43767e-11
6.75495e-05
7.92921e-11
-3.75454e-11
8.36895e-09
1.32887e-09
-6.03993e-11
6.32102e-12
0.00031068
2.02371e-11
-8.47337e-11
1.06679e-10
2.11867e-10
-2.29902e-10
-1.07119e-10
8.48293e-11
6.65261e-11
0.000246214
-7.27981e-11
1.42646e-11
1.48468e-11
1.79143e-11
-6.92607e-11
-9.86757e-09
-9.09334e-10
4.67351e-06
1.34861e-11
-2.99357e-10
-9.16899e-06
5.51651e-11
-1.0228e-05
-3.50444e-10
9.86519e-13
3.94656e-11
-0.000229198
-1.77694e-10
-3.34149e-11
-1.92364e-12
1.98764e-11
6.83817e-11
-1.84736e-10
7.53042e-05
-6.76852e-11
6.54303e-10
-6.60627e-11
-0.000593153
8.41796e-09
2.4468e-08
-3.63805e-11
-1.70369e-05
-1.07572e-10
-0.000304909
6.87058e-11
1.09434e-11
0.00029869
7.20959e-11
-0.000966628
-5.42524e-10
-0.000135905
6.68652e-12
-7.01593e-12
-2.01269e-11
-5.51427e-11
2.20248e-11
-2.91856e-10
-8.32167e-05
0.000294824
1.05399e-10
7.91357e-07
0.000492823
0.000184442
-0.000265364
7.30594e-10
5.55452e-07
4.39814e-11
-0.000298808
-1.59037e-10
1.46419e-09
-5.88125e-10
0.000203379
8.10247e-12
-4.81161e-11
2.96632e-11
-5.33939e-11
-1.25149e-05
-4.20697e-10
7.28529e-07
1.22585e-10
-1.40898e-09
0.0002266
-2.43705e-10
2.02489e-11
1.4815e-10
8.24282e-05
0.000457592
-0.0008685
1.5945e-08
-1.50045e-11
9.58726e-05
4.10264e-11
1.97475e-08
2.43137e-08
3.1293e-07
1.76326e-09
1.52233e-08
1.10493e-05
-2.09574e-05
4.54005e-11
5.69992e-10
-1.54864e-05
6.47718e-05
-4.23345e-06
0.000174478
-0.000170043
1.16388e-09
-6.00233e-08
-0.000300792
-2.32903e-10
-3.70038e-10
-8.1061e-11
-0.000242366
4.94631e-05
-3.21823e-05
-8.98755e-11
2.77721e-07
4.93912e-11
-9.72218e-11
-7.76493e-11
-1.77751e-11
-4.28924e-12
-2.03292e-08
9.97503e-11
8.62781e-05
8.4251e-12
2.34301e-11
5.82068e-11
-0.000124814
1.44155e-07
1.56332e-10
-0.000355436
-4.41586e-11
4.28915e-06
-6.42899e-12
-1.49619e-07
-1.7626e-10
-7.71097e-12
4.50281e-12
1.70814e-10
0.000268252
3.41117e-11
-4.76823e-11
-8.80071e-05
-2.18079e-05
-1.27255e-07
1.18504e-10
-1.74245e-11
0.000256896
1.56192e-11
-5.50901e-10
0.000307273
9.65468e-11
3.18414e-07
1.39501e-11
5.21834e-11
1.93419e-08
0.000229658
9.3163e-11
-6.62616e-11
1.83729e-07
0.000143227
8.38905e-10
3.27881e-11
3.08255e-10
9.27119e-12
0.000305916
4.3122e-11
-1.2782e-05
-3.7387e-11
1.12722e-08
4.66287e-08
-1.00782e-10
2.49408e-10
-4.62937e-11
-3.86198e-11
1.02547e-09
4.49654e-05
-1.78753e-05
-8.4864e-09
9.04438e-10
-8.41611e-11
-5.57118e-12
8.60166e-11
-7.58324e-11
-1.79611e-08
-5.5907e-12
-2.24419e-05
8.63912e-11
-9.25657e-12
-2.41988e-08
-3.30702e-11
3.55424e-11
-3.69861e-07
5.12205e-11
-2.41185e-10
6.1074e-11
-2.62183e-11
1.47817e-09
3.71553e-10
-1.32594e-10
4.04183e-08
2.97954e-11
2.98533e-07
-8.92346e-05
0.000215525
2.23971e-12
-0.000153084
-1.9177e-10
1.23688e-10
5.96161e-08
-1.00984e-05
-1.06533e-08
-9.3534e-10
9.15299e-11
-1.31479e-10
7.31169e-12
-2.92258e-12
-1.03873e-11
1.72867e-11
8.73634e-11
4.39221e-08
0.000549792
3.357e-10
-1.6131e-11
1.63081e-10
-8.707e-07
-5.85765e-11
-3.83428e-06
3.67592e-11
-1.98296e-09
-1.21609e-10
7.10866e-11
5.32854e-09
-2.90678e-08
2.97179e-10
4.31333e-12
2.35828e-12
-2.70142e-11
0.000461591
9.07402e-12
6.16593e-11
4.36868e-11
-6.99874e-11
1.54923e-08
-6.47459e-11
5.56498e-12
-3.80786e-10
4.03259e-14
-8.47567e-05
-6.31557e-09
4.06821e-11
7.32694e-06
-4.14317e-11
-2.68771e-08
-9.87512e-11
4.26638e-10
-3.1074e-11
6.64263e-05
9.33596e-11
9.20844e-11
1.04704e-09
2.08198e-10
-4.59824e-07
-1.85977e-11
2.72389e-07
8.01955e-11
-9.93688e-11
8.56291e-11
-1.96906e-05
0.000274897
-5.33061e-11
-0.000653129
-2.97816e-11
-2.24981e-10
-0.000814165
-4.62191e-08
-3.55886e-05
-0.000248178
-3.82713e-06
-9.81154e-12
7.77663e-05
0.000130812
-1.00032e-05
4.46748e-11
-0.000217432
1.71296e-05
-1.31245e-11
-4.18244e-10
9.14637e-05
-1.36826e-11
-4.86284e-05
-4.12017e-10
-0.000130928
-0.000525668
-4.63728e-06
-1.12334e-11
4.0243e-09
-6.7102e-10
-1.02325e-10
9.12108e-05
-6.17997e-11
1.1745e-10
-4.47404e-10
9.37808e-11
1.47471e-06
6.02916e-05
-2.28559e-10
-7.70221e-11
-4.87942e-11
0.000325276
-0.000238533
1.50067e-09
4.43394e-11
-0.000112829
-4.86829e-11
4.61063e-12
-7.10565e-11
-8.09043e-11
3.60368e-11
7.80136e-11
-0.000118723
-0.00104149
-4.48313e-12
-8.51858e-10
-1.24525e-05
0.00015947
-4.04378e-12
3.58288e-11
1.38705e-10
4.27359e-05
-7.9926e-11
0.000277514
-2.16657e-10
-6.2593e-05
-7.94283e-12
-4.58683e-11
6.35365e-14
2.08314e-11
3.2516e-10
-7.41813e-11
-3.69475e-11
-4.09962e-11
-1.1955e-06
3.3434e-06
-7.80856e-12
1.18132e-10
-9.38156e-12
3.2358e-10
-0.000615214
9.98405e-12
-9.33982e-11
0.000392933
-9.65388e-11
-3.70355e-05
0.000162796
-1.60378e-10
0.000172647
-3.89568e-05
-0.00026451
6.59836e-09
1.58239e-05
1.20771e-10
8.34445e-11
-7.38412e-11
-1.91753e-11
-1.50883e-06
2.45185e-10
1.42926e-10
-1.07875e-10
-1.51224e-10
6.90323e-09
-1.43406e-10
-1.55379e-05
1.11072e-10
6.74978e-11
2.8817e-11
-1.01558e-12
-7.48738e-11
2.11975e-10
9.66285e-11
9.66533e-11
7.60475e-11
2.98055e-12
3.57267e-07
2.82621e-10
6.55992e-11
3.50127e-11
-1.0017e-10
1.41755e-11
2.51017e-05
-0.000185896
1.88167e-09
1.36135e-10
2.59096e-12
1.91827e-08
7.40763e-06
-0.000726586
-9.75391e-10
-3.20366e-10
-7.61349e-05
5.76023e-10
5.76111e-11
4.7795e-10
1.00738e-05
-1.48799e-11
0.000341065
1.44293e-10
-3.99127e-10
-1.80226e-11
-6.59054e-11
-1.54048e-11
2.31736e-12
-0.000104757
-3.73715e-06
7.85999e-06
4.75628e-11
0.000469359
5.74635e-10
2.27767e-12
3.51179e-13
2.07542e-07
-8.57299e-11
6.44366e-06
1.18795e-09
-1.03212e-05
-2.4662e-09
-1.32074e-09
-8.15884e-10
5.5866e-11
-8.57514e-05
1.35244e-10
-2.39052e-05
0.000612582
3.08932e-11
-2.09646e-07
-1.04038e-08
0.000569846
3.28697e-05
-1.65816e-10
0.000253605
-6.72842e-12
-2.28498e-05
-1.33694e-09
0.000313342
-9.4211e-05
-2.45332e-11
-8.55828e-11
1.30419e-05
4.77809e-09
-3.64239e-05
-1.15721e-06
1.29911e-11
-2.39944e-11
6.65177e-10
1.67502e-11
5.60991e-11
0.000618376
5.96068e-11
-4.77368e-06
-2.70418e-11
-3.05232e-09
4.76369e-12
5.88343e-09
-1.32405e-11
-5.35643e-06
-4.46296e-12
-2.09502e-09
-1.0085e-10
-1.58224e-10
1.1822e-11
-5.07498e-10
-1.10564e-11
-6.87149e-10
-2.63753e-06
1.59839e-12
-3.67635e-12
-3.09883e-05
-1.63959e-10
-1.22135e-09
-1.67882e-05
-4.55778e-06
2.09097e-10
4.5622e-13
7.5569e-10
2.99781e-05
7.0396e-11
-1.46055e-09
-3.45666e-09
0.00023718
-4.08569e-11
6.7198e-07
7.28282e-11
-0.000436145
1.22582e-10
-1.28858e-10
-1.0574e-10
1.47834e-11
0.000709665
-0.000243081
-0.000152755
1.82195e-11
-0.000206955
-0.0002661
-6.13644e-05
8.85951e-14
-4.35053e-11
1.4479e-10
1.36605e-11
-8.57666e-12
3.84672e-11
1.29815e-12
1.5699e-10
-2.90455e-11
-2.96345e-11
-4.32776e-12
1.79479e-11
-8.59117e-11
-4.59255e-10
-5.69131e-11
-2.81124e-06
4.04018e-11
6.34717e-11
4.75789e-05
1.28206e-10
0.000136955
4.37392e-05
6.99449e-09
-3.12831e-06
2.43379e-11
-0.000115631
-3.02719e-11
2.85597e-05
4.73641e-11
-0.000141998
5.4474e-09
-6.06196e-05
-8.49372e-11
3.47566e-12
8.30698e-06
2.4693e-09
1.5405e-09
-9.32892e-11
1.02504e-10
0.000413626
-8.5038e-10
-1.90678e-10
9.87561e-12
3.37451e-11
-2.48577e-05
-2.69295e-10
-2.18337e-10
-4.33675e-09
1.45319e-05
-5.81386e-05
-8.81989e-11
-5.6115e-12
3.66088e-11
-6.25129e-13
-1.74401e-09
-0.000259186
9.28153e-05
-6.1422e-12
7.49423e-12
-7.01418e-05
-1.66577e-11
1.03629e-10
-2.01015e-11
1.14228e-09
2.05218e-11
3.01285e-11
7.30783e-11
1.20872e-10
2.57975e-10
-1.85282e-10
0.000144941
-0.000411509
-4.58009e-10
-6.80063e-11
3.58458e-11
-0.000304493
1.50781e-08
-5.61481e-10
2.497e-10
8.89203e-09
1.14627e-07
-6.45087e-12
6.00488e-11
2.80062e-11
5.26755e-08
-3.57981e-10
-2.3455e-05
0.000150684
-0.000288487
4.09068e-11
-4.51668e-09
7.18626e-05
-0.000435499
0.000142568
-0.000157609
2.38665e-10
-0.000171695
-5.76532e-10
3.55735e-09
4.42344e-11
0.000315151
4.46735e-11
1.46991e-10
3.74364e-10
0.000103555
5.38894e-11
-0.000482452
-1.55509e-05
2.02902e-11
1.69498e-11
-2.85982e-10
2.07872e-09
6.87044e-11
-7.58524e-11
0.00038702
9.35694e-12
-2.49102e-10
1.88163e-10
0.000177585
-3.01925e-10
1.01121e-10
-2.47837e-10
1.11956e-10
1.50606e-10
-3.51233e-06
5.07237e-10
8.52059e-11
2.18726e-08
-7.44481e-05
-1.55045e-10
-0.000112728
-2.42132e-11
5.09895e-11
9.33187e-05
-1.14748e-11
1.08404e-10
7.07391e-11
1.62349e-10
-4.17701e-10
1.27292e-10
8.71069e-10
-3.12057e-05
-6.04022e-11
1.05591e-11
-2.04808e-09
2.8073e-05
3.36749e-11
7.14434e-09
6.17795e-12
0.000205952
9.78393e-11
1.90541e-10
-4.54636e-06
2.27678e-11
-1.94802e-11
2.21325e-11
0.000184382
-1.28092e-05
-5.15221e-11
0.000387226
-8.92828e-12
-3.70182e-12
-4.54032e-05
-1.92929e-11
2.55356e-10
-2.83997e-10
-1.25999e-09
-2.1911e-09
-1.43263e-09
-1.29299e-11
-1.02677e-10
9.58837e-12
-4.92566e-08
6.90962e-06
-1.17895e-10
8.63066e-10
-8.70304e-11
0.000606995
-4.41985e-09
-0.000141094
-4.93313e-05
-1.12817e-09
-7.31232e-11
-3.30675e-09
9.07329e-09
1.88045e-06
-1.54741e-11
7.60188e-11
1.03486e-09
-4.59817e-11
1.66012e-11
9.74068e-12
-7.89376e-05
-1.80591e-11
0.000463501
-1.12572e-11
-0.000128091
4.26758e-11
-3.93559e-10
-7.15004e-07
-5.61951e-05
0.000211622
-3.84647e-11
-8.63551e-11
-1.5847e-08
8.79487e-11
-1.06812e-11
-9.97238e-05
-4.58411e-05
1.05767e-09
-1.50794e-10
0.000174415
-0.000266387
-5.00353e-05
1.68735e-11
-1.8904e-11
-6.55494e-11
-4.29891e-11
-3.71449e-05
-8.79998e-11
8.7954e-12
-4.29703e-05
2.4485e-05
0.000180396
-3.84431e-10
9.86042e-12
-7.43758e-09
7.31334e-05
-3.83071e-05
1.20743e-05
3.40193e-11
1.58238e-09
-6.62465e-10
0.000632203
-2.49783e-05
-2.02596e-05
1.2334e-10
-1.56328e-05
-3.65018e-12
-6.49079e-11
4.41818e-10
0.00025999
-1.30382e-10
1.13626e-10
6.76226e-07
2.07234e-10
-2.38514e-10
-2.78218e-12
-2.05167e-10
3.90013e-10
0.000172615
-5.14688e-07
5.07266e-11
1.23658e-10
-1.80719e-10
-9.23354e-10
-3.19103e-09
6.14879e-10
-0.000633501
4.36196e-11
1.37013e-05
-0.000378459
5.60237e-05
4.58278e-11
1.1497e-11
-3.97808e-05
0.000470803
-1.58509e-11
1.69329e-08
-5.31862e-05
1.08699e-10
0.000159379
1.02694e-10
-3.35168e-10
-2.19606e-10
-3.1331e-11
-9.68085e-06
-4.31537e-08
-3.66088e-11
9.2714e-11
2.10673e-07
0.000250003
1.3562e-10
2.14526e-10
2.92695e-05
-5.49684e-05
3.76562e-11
2.87305e-05
8.00035e-05
-3.3788e-11
-4.65398e-11
9.50639e-11
6.4187e-09
-2.99554e-11
5.19258e-10
-3.42069e-06
5.40781e-12
-2.82228e-09
0.000106795
8.8034e-09
8.4941e-05
1.72542e-11
1.44538e-09
0.000264791
0.000196359
4.07449e-10
3.87899e-11
-1.72064e-05
-3.64979e-05
8.91276e-11
4.19278e-12
3.96316e-07
2.85669e-09
3.05537e-10
1.99808e-10
0.000132378
1.95922e-11
3.59709e-11
1.62427e-07
1.27721e-07
2.34992e-09
3.76092e-05
6.69131e-07
3.36155e-11
1.50684e-11
3.89232e-08
6.8259e-11
4.00566e-08
-0.000352177
7.63129e-05
8.61928e-11
-6.46845e-12
-1.15356e-05
9.99783e-10
4.36609e-11
-2.23284e-07
-1.10639e-10
-3.65028e-10
-2.27714e-05
-2.62121e-10
-1.38543e-11
2.45036e-09
-2.35487e-09
4.599e-11
-9.98345e-05
5.9647e-05
2.52694e-07
-2.53536e-09
1.78583e-05
-1.88262e-08
-0.000390405
1.52657e-10
-3.87419e-11
-3.98801e-09
-5.24288e-08
0.000340689
1.42067e-10
4.09265e-11
1.50325e-08
-4.88285e-11
2.7935e-07
-1.78715e-09
-9.35764e-11
-1.7598e-10
-2.19913e-10
8.56587e-09
-9.88985e-12
2.67848e-10
1.56425e-11
1.75679e-10
-9.99388e-06
-8.92299e-11
-1.96321e-09
1.67974e-10
-4.26331e-09
-1.02282e-05
6.97503e-11
-4.38892e-09
1.47574e-10
-8.12839e-10
-5.78574e-05
-1.00961e-09
-6.00141e-11
-5.94053e-11
0.00026118
6.41628e-11
1.54079e-10
-9.18372e-05
-1.47422e-10
4.53464e-11
1.48528e-06
-2.79006e-10
-2.04867e-11
0.000525208
-2.52062e-06
1.55328e-10
0.00010938
3.89704e-05
-1.40609e-12
2.37196e-11
-4.39618e-05
1.62653e-10
3.48512e-10
9.5711e-11
1.3341e-10
-0.000883967
-2.53535e-10
-2.54968e-09
3.98955e-11
6.27885e-11
4.94147e-11
1.7427e-11
-3.13258e-05
2.84995e-10
3.544e-06
-4.15013e-08
-4.66724e-11
-3.1676e-11
-6.70113e-05
3.48781e-07
-1.81627e-11
4.28882e-10
-9.4971e-05
3.73351e-10
3.55646e-05
-0.000100275
-2.51267e-10
6.61055e-05
-3.0812e-06
4.63834e-07
-2.19788e-10
-1.8667e-10
-4.80508e-07
-7.45159e-11
-1.93887e-06
-4.05806e-10
-1.74259e-11
4.96227e-05
2.82652e-08
-4.282e-10
9.94896e-11
0.000266455
0.000359691
-6.27786e-11
-4.92752e-11
-8.84703e-10
5.53927e-10
5.81353e-11
-1.28903e-11
-5.85349e-06
0.000648265
5.37236e-07
6.62828e-06
-5.74256e-09
-1.65622e-10
-1.53556e-08
-5.39473e-11
2.21217e-11
3.26317e-05
3.4753e-11
-3.33815e-11
-5.35287e-11
3.16112e-11
-2.22081e-06
4.3712e-11
-3.92136e-06
3.20064e-06
3.35136e-11
-1.88077e-08
-7.00295e-07
5.55141e-11
-2.7332e-11
3.93187e-05
-6.68219e-12
-1.01791e-09
0.000452535
-4.1071e-09
-1.84371e-05
-1.72021e-10
0.000127563
0.000494749
-1.20015e-05
0.000176536
1.31151e-11
3.50155e-06
5.81304e-07
4.97255e-08
0.000345897
-1.25468e-10
0.000115913
4.45305e-05
-0.000158355
8.95681e-07
3.20078e-11
0.000620856
2.074e-05
2.03112e-05
-0.000211508
-0.000131445
-7.30584e-06
-1.23206e-05
1.32689e-11
-1.67429e-10
3.5425e-05
-1.60686e-11
1.07445e-10
-9.78475e-13
-6.28449e-05
-7.45805e-10
-4.0073e-10
-3.44327e-05
5.2461e-12
1.38769e-05
1.38162e-05
5.71338e-11
-2.10103e-12
-1.49663e-11
-6.07175e-06
-3.88745e-05
4.57153e-11
2.18916e-11
8.46874e-08
-4.24938e-09
-3.37479e-10
-4.58172e-11
6.10462e-12
7.12589e-11
8.15222e-12
-0.000394148
4.22137e-11
7.6708e-05
-7.35713e-06
-7.18441e-11
-5.42636e-05
-2.95967e-11
-3.15955e-10
-3.00673e-14
2.25791e-11
-4.28218e-09
2.38534e-11
-1.30009e-10
0.000176059
2.09346e-11
-1.19207e-10
-3.49519e-11
-3.49672e-11
-5.21013e-09
-1.11255e-10
1.3168e-12
-4.54688e-11
1.47873e-11
-7.56703e-10
1.07091e-10
-5.00884e-11
-3.4458e-10
-0.00018493
2.73338e-09
-8.21033e-11
-1.1577e-11
-1.51109e-11
-6.73516e-05
5.9584e-11
6.10049e-05
-1.15056e-10
5.83838e-08
2.01579e-11
9.03928e-11
3.15099e-11
-5.02038e-10
-4.97095e-05
1.07389e-05
0.000385189
-5.58687e-11
0.000522106
-3.43323e-09
-7.52002e-05
-8.24381e-12
2.21152e-06
-0.000126882
4.49873e-12
-0.000215897
-1.24e-05
-4.34858e-05
2.96149e-09
2.58605e-10
-8.54243e-10
1.48483e-08
9.68047e-11
-0.000215879
-6.93406e-05
5.22116e-11
-7.25518e-06
6.41373e-11
-4.53038e-10
-0.000204739
7.45073e-11
1.17349e-10
-3.69013e-05
-0.000191462
1.46337e-10
2.70508e-10
1.70589e-11
0.00023935
1.25085e-11
3.72744e-06
-4.35891e-09
-4.53634e-11
7.25515e-10
5.21018e-11
0.000618753
-5.62262e-06
-3.7484e-10
5.23837e-06
9.73996e-11
-0.000112804
-0.000203643
-4.58056e-09
3.65799e-05
4.58281e-11
-8.81736e-05
-1.3931e-11
-1.26169e-11
1.40195e-11
7.8389e-09
3.78983e-05
-4.7451e-10
3.57458e-09
1.37002e-10
-0.000315354
-4.58188e-06
-0.000288256
4.66347e-07
1.09955e-10
1.95885e-10
-6.78212e-05
-0.000273935
1.01066e-10
3.23847e-07
-1.7019e-05
1.80239e-08
-7.76582e-05
2.56988e-06
1.91122e-09
-2.84469e-09
5.17928e-09
-0.000160876
1.54024e-06
-2.57153e-08
7.47973e-11
1.75936e-11
-3.50557e-05
1.73331e-10
2.14009e-12
-0.000155097
3.68359e-05
1.7698e-11
-1.35362e-10
1.04974e-07
0.000510496
9.01431e-12
7.46932e-11
1.91235e-11
7.51462e-06
3.8946e-10
1.31772e-09
1.15137e-10
1.88256e-05
-8.65063e-06
8.41903e-09
-0.000231491
-1.6245e-11
1.50696e-10
1.94411e-10
0.000148491
-3.42713e-09
5.08548e-10
5.63566e-05
5.24627e-06
-3.46417e-11
1.4766e-10
-1.74401e-10
1.25699e-07
-6.12636e-09
0.000367759
7.99062e-11
-7.31338e-12
-1.33841e-09
-3.32403e-05
-1.15167e-07
2.55066e-05
1.26862e-07
2.00242e-08
4.12775e-05
-2.39488e-10
3.76973e-05
-8.71546e-10
-6.08344e-10
-8.45844e-09
-6.31914e-11
4.38255e-07
6.29539e-13
-1.31885e-11
-5.76929e-11
-1.36211e-06
-5.06956e-05
8.75705e-09
-2.13044e-05
2.62481e-11
-0.000194586
-1.56243e-10
3.64019e-05
1.88558e-10
-2.88186e-11
1.50402e-10
1.95811e-10
1.12437e-05
-3.98726e-10
-3.13143e-11
-8.47467e-06
-2.823e-06
0.000431344
4.64647e-11
-2.43209e-10
3.44332e-11
-1.7113e-09
-7.30225e-09
-5.3158e-10
8.31131e-11
3.7695e-05
-4.5117e-05
-5.76993e-05
-1.72905e-06
1.02286e-10
0.000301926
-1.39553e-05
7.81788e-11
1.03674e-11
8.61014e-05
1.04184e-09
4.22138e-05
-1.33294e-11
0.000237117
1.21077e-10
2.66154e-11
5.83272e-07
0.000596678
1.20474e-10
-8.35349e-05
1.13585e-09
-1.99834e-10
8.03738e-05
-1.24751e-10
1.01852e-09
-6.24717e-11
2.09052e-10
-3.66781e-09
-3.37659e-05
-9.82109e-05
-1.31635e-11
-1.2762e-10
-1.20012e-05
8.2473e-07
6.06632e-07
2.92863e-10
0.000169317
2.68169e-11
3.21733e-10
1.54888e-05
-8.00417e-06
-1.68034e-10
0.000119476
-3.64619e-07
2.29565e-10
-6.90691e-06
-4.40439e-10
4.99939e-12
5.8622e-09
7.70562e-08
-0.000220052
6.89429e-10
1.48361e-11
3.29727e-08
9.98227e-11
-3.31985e-11
-2.46473e-11
1.02091e-09
0.000201294
5.79855e-10
-7.94874e-09
-2.9509e-11
0.000191327
6.40664e-11
9.91827e-09
0.000197068
-6.58211e-11
3.51416e-06
-4.3433e-05
9.66885e-05
5.92185e-06
-4.12867e-10
-3.1817e-11
8.14725e-09
1.56785e-07
6.42463e-11
1.32449e-10
-6.96888e-07
-2.10266e-05
-4.6263e-05
8.58568e-13
2.43759e-11
-0.000224028
-8.24339e-11
5.02486e-05
3.11879e-11
-1.48775e-11
-8.82343e-11
3.86996e-11
2.93652e-05
9.47673e-11
-1.80637e-11
4.82063e-11
-3.60293e-09
1.84901e-11
1.80937e-08
-3.99352e-11
-3.78213e-13
6.66e-05
-2.22194e-06
-2.18953e-11
1.09587e-10
9.77452e-11
2.31526e-10
-8.20237e-10
1.56594e-06
-4.3285e-11
-2.40334e-05
-1.52893e-10
3.24276e-05
8.93055e-11
-1.46741e-11
-2.81549e-11
5.19143e-10
5.22031e-09
-2.56287e-11
-2.06066e-09
1.93962e-11
-1.00422e-07
1.6974e-11
7.92855e-11
-3.86787e-12
-6.57976e-10
0.000211333
-0.000206193
-0.000109595
-0.000111484
8.74294e-11
-1.55049e-10
-2.49713e-11
0.000173267
-2.66518e-05
1.99735e-10
2.41884e-05
-5.76139e-09
4.02736e-07
8.37609e-07
-1.19673e-11
7.77638e-08
1.05713e-10
-2.85598e-11
9.78671e-06
5.64566e-11
-9.33895e-11
0.00012775
-0.000102994
-2.40746e-10
-4.89618e-12
-1.04318e-09
9.38749e-11
2.08171e-05
-1.60475e-07
4.36468e-11
-1.22313e-05
0.000126651
-2.19436e-06
-1.02397e-07
-0.000499612
9.19051e-10
2.07037e-05
3.52911e-05
6.5926e-05
-1.7365e-10
-6.84669e-06
1.54507e-11
2.66941e-10
9.56365e-05
-1.17821e-09
-0.000175828
-2.53005e-11
-0.00011139
-3.42343e-06
6.92006e-11
1.72229e-11
3.9831e-11
-4.63771e-09
-1.45284e-10
4.04864e-08
1.23577e-05
1.19444e-05
5.42592e-06
-9.54594e-05
5.38617e-11
7.42196e-10
-1.46501e-07
-8.10487e-05
-8.18728e-11
-3.19368e-10
1.06409e-10
9.27967e-07
2.69702e-11
3.34732e-11
-2.82293e-05
-3.46031e-05
4.84339e-05
-4.74041e-12
-9.16215e-05
-6.52756e-12
-1.35601e-11
-4.52119e-11
1.46508e-05
1.23633e-07
-3.34442e-08
1.05651e-10
8.11828e-06
-1.30247e-11
8.40008e-12
-5.11814e-05
-0.000127459
8.36273e-11
2.65839e-10
-1.22174e-10
-3.52087e-10
9.1797e-11
-4.38646e-11
-5.59531e-11
-8.82148e-06
2.88287e-10
1.36365e-10
-1.27923e-10
1.33718e-08
7.66176e-12
-0.000135843
0.000101773
1.08493e-09
-0.000137988
1.91507e-05
0.000508667
-1.62834e-05
1.14104e-10
8.72612e-08
-1.12091e-11
5.35854e-12
-9.55629e-05
-5.29554e-05
8.6353e-11
-1.38093e-05
0.000521304
5.79584e-07
3.40642e-05
2.89951e-06
5.83527e-06
9.75971e-11
1.74107e-05
1.13443e-10
0.000111842
6.99293e-12
-2.63684e-10
-3.91732e-09
-7.36719e-06
3.76359e-11
2.25194e-10
1.43327e-09
2.26407e-11
-5.06399e-06
1.60997e-12
-1.01943e-05
-1.03858e-10
-2.35504e-11
0.000183508
1.67184e-10
1.20942e-06
1.52841e-11
-1.72248e-09
-0.00022197
3.46527e-11
-0.000105647
5.82402e-11
3.96103e-05
-6.91814e-06
-7.05485e-05
-4.05728e-11
-2.03629e-05
2.47085e-10
-4.14069e-10
-1.65709e-11
1.33292e-11
-2.79717e-06
2.91614e-06
3.16909e-05
-6.67591e-09
6.2808e-10
4.08205e-11
4.57268e-05
4.85513e-05
6.66927e-05
0.000262647
-6.11923e-11
-0.000165161
-0.00019588
-1.31662e-11
-0.000657254
6.03222e-11
6.92419e-05
-2.77162e-10
1.66686e-10
3.28937e-05
3.0561e-11
-5.7203e-10
-3.66585e-10
-0.000128674
2.35307e-11
-1.54307e-13
1.04714e-11
1.24487e-11
1.50998e-11
-6.23922e-05
-5.57367e-05
1.07795e-09
-9.37327e-08
-2.87693e-09
-1.63917e-05
1.95577e-10
-2.84084e-09
-1.45656e-05
0.000111621
3.54382e-11
-1.13601e-10