/*--------------------------------*- C++ -*----------------------------------*\
| =========                 |                                                 |
| \\      /  F ield         | OpenFOAM: The Open Source CFD Toolbox           |
|  \\    /   O peration     | Version:  v2012                                 |
|   \\  /    A nd           | Website:  www.openfoam.com                      |
|    \\/     M anipulation  |                                                 |
\*---------------------------------------------------------------------------*/
FoamFile
{
    version     2.0;
    format      ascii;
    class       volScalarField;
    location    "350";
    object      epsilon_0;
}
// * * * * * * * * * * * * * * * * * * * * * * * * * * * * * * * * * * * * * //

dimensions      [0 2 -3 0 0 0 0];


internalField   nonuniform List<scalar> 
18618
(
6.99005e-07
0.00921226
4.41619e-07
0.00153815
8.68969e-07
9.95168e-07
1.73356e-06
0.0101644
6.4953e-07
1.58451e-06
1.60336e-06
4.4299e-07
0.00141761
4.86425e-07
8.66492e-07
5.05677e-07
7.87707e-07
0.00727209
8.02554e-07
8.88572e-07
2.15239e-07
4.21938e-07
5.04487e-07
1.89351e-06
1.15248e-06
1.65917e-06
5.91332e-07
8.13305e-07
5.08738e-07
6.95093e-07
1.17919e-06
1.4374e-06
1.43644e-06
2.0998e-06
5.51251e-05
1.00982e-06
1.21912e-06
1.5542e-05
1.11371e-06
6.92481e-07
0.000489031
6.46754e-07
5.19556e-07
0.00514082
6.49478e-07
1.6154e-06
0.0123036
4.84378e-07
2.95596e-06
0.0111955
8.09908e-07
9.64935e-07
0.0004121
0.000319042
6.78811e-07
0.00434239
4.86361e-07
8.81772e-07
2.05656e-06
1.09817e-06
6.80035e-07
7.01584e-07
8.89075e-07
1.31988e-06
2.63681e-06
0.00470136
4.93302e-07
1.66461e-06
5.60086e-07
0.000364741
1.60294e-06
6.04475e-07
1.86203e-06
0.0114528
1.41799e-06
1.6742e-06
2.25602e-06
0.0115062
5.61173e-07
0.00851715
0.0195391
0.00566966
0.010399
1.59597e-06
1.42974e-06
5.17186e-07
2.02668e-06
1.59418e-06
1.38773e-06
0.00674193
1.86965e-06
1.16743e-06
0.00528255
2.24743e-06
1.22266e-06
1.68338e-06
1.22882e-06
0.000800383
4.89674e-07
4.43323e-07
7.92059e-07
1.32451e-06
2.05566e-06
1.44505e-06
2.36909e-06
0.0159465
6.65632e-07
5.06066e-07
2.53816e-06
4.68429e-07
0.00218049
8.62614e-07
1.55031e-06
7.38276e-07
9.95341e-07
4.44768e-07
5.10455e-07
0.0120261
1.13515e-06
2.95023e-06
0.000744827
1.53721e-06
0.00467443
0.00600494
7.89108e-07
1.18976e-06
0.000684607
0.00977973
1.60153e-06
2.29928e-06
2.39383e-06
8.64879e-07
0.00499981
1.28858e-06
9.93526e-07
6.71611e-07
9.13749e-07
1.58672e-06
0.00665343
6.00563e-07
1.2987e-06
6.11842e-07
7.12269e-07
1.22594e-06
5.14025e-07
1.63418e-06
1.21382e-06
8.0552e-07
0.0162229
1.71133e-06
4.83151e-07
0.0124191
0.00664018
5.0733e-07
7.35191e-07
1.25616e-05
0.014346
0.000766722
1.95384e-06
4.66787e-07
4.29357e-07
0.000100284
1.58874e-06
2.04289e-06
5.8332e-07
0.000413533
7.37005e-07
6.0492e-07
0.0191904
1.56174e-06
1.43268e-06
4.57147e-07
2.45155e-06
1.99214e-06
0.000477791
1.66962e-06
6.84249e-07
0.00899366
4.56612e-07
5.61133e-07
1.84871e-06
2.01526e-06
1.0052e-06
9.89145e-07
0.000946916
7.8512e-07
8.7391e-07
1.8239e-06
7.58028e-07
9.41158e-07
1.17558e-06
1.97311e-06
0.00157326
5.80177e-07
2.61123e-06
6.10551e-07
1.8599e-06
0.000558313
1.61457e-06
0.0170338
1.1166e-05
0.00701228
1.10949e-06
1.56865e-06
0.0174579
0.00357235
0.0067561
0.0108215
1.55367e-06
0.00339433
9.22788e-07
8.2871e-07
0.0148604
0.00879315
9.87675e-07
1.00003e-06
7.56777e-07
0.0178049
1.55148e-06
0.0165748
1.23338e-06
1.45133e-06
7.69237e-07
6.86964e-06
1.47221e-06
1.49486e-06
1.23395e-06
5.80833e-07
3.76569e-05
1.9258e-06
0.00329453
1.86289e-06
1.33721e-06
1.67137e-06
1.19003e-06
2.24345e-06
1.09649e-06
5.91267e-07
9.96352e-07
1.06818e-06
1.84573e-06
1.42965e-06
1.62571e-06
1.37412e-06
3.28947e-07
9.65748e-07
1.92999e-06
0.00328272
8.41595e-07
1.59566e-06
0.000369517
5.33616e-07
1.55852e-06
0.00548365
1.54061e-06
5.16577e-07
1.53004e-06
2.00704e-06
7.76537e-07
1.91884e-06
6.75573e-06
1.52998e-06
2.03029e-06
0.0126335
6.36602e-07
1.38279e-06
1.80421e-06
2.18428e-06
1.51763e-06
1.59839e-06
1.67655e-06
4.63504e-07
6.89147e-07
8.17771e-07
4.80847e-07
0.000622426
7.28563e-07
4.8323e-07
0.0158476
6.8628e-07
1.43973e-06
4.6343e-07
0.00557731
0.00328902
1.48483e-06
0.000238152
6.13507e-07
1.58683e-06
4.19421e-07
2.28378e-06
6.73475e-07
1.1207e-06
1.17658e-06
6.12257e-07
0.014648
5.05128e-07
7.83681e-07
1.52539e-06
0.00061596
0.0103233
0.00029538
0.00225819
0.012163
2.06619e-06
1.9764e-06
0.0170798
0.000158348
9.49819e-07
1.53555e-06
2.00165e-06
9.72949e-07
2.01774e-06
1.43058e-06
6.83319e-07
1.71127e-06
0.000154312
0.00324693
3.6128e-07
1.38283e-06
9.75043e-07
2.30012e-06
2.71537e-06
1.816e-06
0.00016035
1.39599e-06
6.19838e-07
0.000558483
4.79572e-07
2.04088e-06
5.95667e-07
6.55847e-07
7.34859e-07
1.95491e-06
9.67278e-07
6.45136e-07
1.4072e-06
1.92445e-06
5.83898e-07
0.00624846
0.00555613
6.5575e-07
0.0141673
6.45211e-07
4.14784e-07
5.59861e-07
1.99439e-06
7.45669e-07
1.46243e-06
0.000165875
1.54968e-06
0.000161532
1.9879e-06
1.43992e-06
1.53083e-06
0.000344112
3.63969e-06
5.23645e-07
1.92263e-05
4.66857e-07
1.80434e-06
0.000229366
0.00693596
7.66739e-06
7.53799e-07
0.00729456
0.000606435
5.9643e-07
1.59842e-06
4.33327e-07
5.12492e-07
8.48026e-07
1.57059e-06
0.000179959
0.000158715
4.21098e-07
9.49152e-07
0.000585881
8.25362e-07
1.06468e-06
4.55624e-06
1.36073e-06
1.43611e-06
0.020599
0.000243818
7.97452e-07
1.49943e-06
5.857e-07
1.35324e-05
4.34858e-07
1.51104e-06
4.76485e-07
1.34128e-06
1.6204e-06
4.77543e-07
0.0161942
0.00023702
2.83617e-06
0.007824
5.78498e-07
1.2681e-06
1.49593e-06
0.000180737
4.54677e-07
0.00732026
5.83943e-07
0.0219323
1.22301e-06
1.61541e-06
6.35327e-07
1.63784e-06
9.83408e-07
0.0194237
0.00621582
1.69562e-06
8.48484e-07
8.68795e-06
7.4774e-07
1.55353e-06
1.61006e-06
1.40958e-05
1.57246e-06
1.49335e-06
7.34359e-07
3.85405e-05
0.00366533
4.66482e-07
1.26644e-06
1.06936e-06
6.73023e-07
1.57891e-06
6.73477e-07
8.26402e-07
1.22207e-06
1.13685e-06
1.62051e-06
1.6075e-06
2.40222e-06
9.84125e-07
0.0161211
1.05467e-06
2.79961e-05
0.0057798
5.23089e-07
5.21917e-07
0.011097
1.54585e-06
0.00218875
0.015479
1.37021e-06
1.617e-06
1.07257e-06
0.0134052
0.00574905
1.46868e-06
3.55002e-06
0.00611283
1.15961e-06
0.000253766
4.47834e-07
0.00525757
0.00568715
1.56798e-06
0.00797362
6.33112e-07
0.000243237
2.06308e-06
0.00976889
1.59345e-06
0.000597613
9.41477e-07
4.94872e-07
8.04805e-07
6.92275e-06
1.93406e-06
1.16057e-06
5.73922e-07
5.75994e-07
0.00735265
0.0161339
8.67589e-07
0.00788139
0.000140537
1.5793e-06
1.12206e-06
5.2708e-07
0.000267855
1.21604e-06
1.73129e-06
1.34649e-07
0.0052284
7.29084e-06
4.92886e-07
6.13259e-07
1.60445e-06
0.000257222
6.95271e-07
0.00374283
1.11134e-06
4.80971e-07
1.15235e-06
0.00366179
1.06003e-06
0.000322117
1.34528e-06
1.55523e-06
1.45795e-06
6.64713e-07
1.10151e-06
6.27781e-07
8.24464e-05
0.00211778
6.87235e-06
7.6474e-07
1.41248e-06
5.71243e-07
7.45193e-07
0.00548597
1.99159e-06
0.000568004
7.6729e-07
0.0036262
1.03217e-06
7.21399e-07
2.03286e-06
0.00663215
1.56582e-06
5.29088e-07
1.14324e-06
0.000994826
0.000170691
7.45134e-07
2.26315e-06
1.3005e-06
4.23066e-07
1.12345e-06
0.00915197
2.88989e-06
8.58505e-07
0.0114135
0.0201574
0.00542563
0.00019923
1.25343e-06
0.00622112
2.01393e-06
1.50642e-06
0.000151648
0.005503
1.16488e-06
2.33867e-06
1.98597e-06
9.41111e-07
1.59165e-06
3.22294e-06
3.07906e-06
1.0446e-06
4.94065e-07
2.52901e-06
1.62465e-06
1.63091e-06
1.04834e-06
0.000196542
1.41282e-06
3.54189e-05
1.59788e-06
1.53788e-06
3.89121e-06
1.34208e-06
1.5809e-06
0.00515253
1.55523e-06
0.0199336
2.39631e-05
0.000473636
2.08876e-06
1.61021e-06
0.00305301
1.1796e-06
8.80877e-07
1.9749e-06
6.023e-07
5.04661e-07
0.0159879
3.57421e-06
1.58861e-06
1.52798e-06
1.51767e-06
5.9206e-07
4.47843e-07
1.93577e-06
1.2608e-06
0.00495946
1.01702e-06
4.83525e-05
1.17241e-06
0.0105887
6.06782e-07
4.30186e-07
0.00102271
1.03542e-06
7.13998e-05
4.94839e-07
3.99668e-06
1.61262e-06
1.49456e-06
1.5868e-06
1.31697e-06
5.95436e-07
8.73653e-07
5.56231e-07
4.22074e-07
0.0140769
5.71925e-07
6.31012e-07
0.00935829
0.00903729
1.1718e-06
0.0146385
1.5961e-06
1.21668e-06
1.91131e-06
1.63386e-06
1.61496e-06
0.0132005
1.48449e-06
2.16775e-06
1.60903e-06
0.00764279
0.00540988
5.06393e-07
5.6972e-07
1.17612e-06
0.000162315
1.17339e-06
0.00536313
1.21241e-06
5.12577e-07
5.96941e-07
6.2913e-07
5.31441e-07
6.21737e-07
1.99556e-06
2.03178e-06
0.000672739
5.55746e-07
1.17986e-06
0.00470707
1.0337e-06
6.41743e-07
0.00869899
1.79517e-06
1.59511e-06
1.13336e-06
1.01171e-06
2.98104e-05
1.51266e-06
0.000248925
1.251e-06
1.5567e-06
1.83647e-06
1.42539e-05
1.58586e-06
0.0140397
0.000248451
0.0207096
3.51585e-06
1.17206e-06
1.88701e-06
0.0156828
5.92499e-07
1.98741e-06
4.60518e-07
1.44597e-06
1.31459e-06
0.0168608
5.66343e-07
0.00429623
1.37143e-06
0.000544756
1.39837e-06
2.22283e-06
1.95513e-06
1.99345e-06
0.00422335
0.00371085
4.53634e-07
0.00861715
5.08068e-07
0.0145777
1.47177e-06
1.99943e-06
1.63539e-06
1.57562e-06
1.53954e-06
7.20023e-07
1.21016e-06
2.29646e-06
6.63093e-07
4.18946e-07
5.12773e-07
1.1586e-06
1.48886e-06
4.53279e-07
4.60109e-07
4.25939e-05
6.28333e-07
6.51849e-07
9.48668e-07
1.57853e-06
7.40879e-07
1.70027e-06
4.47422e-07
8.10268e-06
6.90893e-07
0.00649072
1.11968e-06
1.54935e-06
5.28849e-07
7.66031e-07
4.18578e-07
1.4172e-06
1.17597e-06
1.43969e-06
0.0156206
7.80994e-07
0.00664783
0.00252197
3.92951e-06
4.4669e-07
7.67083e-07
0.0151082
0.000419251
5.37109e-05
0.000123892
0.000231353
0.0046129
1.34172e-05
1.60536e-06
0.00707027
1.1552e-06
1.53826e-06
5.28145e-07
2.32895e-06
1.03174e-06
1.62123e-06
1.95205e-06
8.64203e-07
0.000275125
8.76089e-07
2.28312e-06
2.67484e-06
0.00676186
1.36252e-05
2.756e-06
0.000122364
1.47875e-06
1.14774e-06
5.9111e-07
7.36041e-07
0.016174
0.0160504
9.50225e-07
7.30246e-07
0.000769282
1.74743e-06
0.00015873
1.42826e-06
1.10693e-06
1.54854e-06
0.00027758
1.60175e-06
5.88341e-07
4.76388e-07
7.7296e-07
9.57861e-07
1.17436e-06
1.60641e-06
0.0101519
0.0162578
5.97534e-07
0.00444694
4.90735e-07
0.00312519
1.3466e-05
0.000590686
4.77772e-07
1.19591e-06
0.00798012
4.77062e-07
0.00582261
1.54638e-06
4.76858e-07
1.46332e-06
9.19379e-07
0.00967118
1.35262e-06
6.53882e-07
2.2614e-06
1.55335e-06
1.78653e-06
1.17741e-06
0.011089
5.14329e-07
1.16566e-06
7.40097e-07
1.52211e-06
1.71812e-06
1.64637e-06
1.57885e-06
1.4963e-06
0.00361423
1.60516e-06
4.23922e-07
1.12462e-06
7.28901e-07
1.30102e-06
2.10106e-06
1.82917e-06
0.021453
1.25741e-06
1.56752e-06
0.000236925
1.11319e-06
0.00439588
2.23734e-06
4.23072e-07
1.18702e-06
0.00589062
9.33452e-07
1.60997e-06
9.65172e-07
1.14784e-06
1.41644e-06
1.24101e-06
0.0104396
1.54715e-06
1.3497e-06
1.20098e-06
0.0049438
4.5348e-06
7.27449e-07
1.20443e-06
0.000153597
7.2906e-07
0.00549859
5.90808e-07
1.26362e-06
0.00336475
1.48504e-06
0.00354546
1.75431e-06
0.0151149
1.41284e-06
5.32657e-07
7.73685e-07
1.60711e-06
8.36559e-07
1.5424e-06
0.000339266
0.0106241
1.28422e-06
3.71877e-07
0.00180564
0.0123321
0.00171543
2.28499e-06
1.31281e-06
4.4281e-07
0.00168705
4.78072e-07
3.32141e-06
1.7524e-06
0.00575797
4.7418e-07
1.29527e-06
5.89651e-07
7.5619e-07
0.000156661
1.26088e-06
1.94024e-06
8.067e-07
1.72941e-06
0.00803787
1.2516e-06
8.20673e-07
8.53302e-07
0.00121628
0.00269168
0.00084113
2.75571e-06
1.20753e-06
0.00785905
1.1982e-06
3.46421e-07
1.11331e-06
1.09162e-06
2.61365e-06
1.91269e-06
6.8082e-05
8.61136e-06
7.36617e-07
2.30885e-06
0.0175515
0.00469644
0.00324458
0.00733704
0.00168025
1.77201e-06
1.64577e-06
0.00593569
1.25184e-06
1.63166e-06
1.25605e-06
0.000358513
0.00108534
0.0100547
1.64254e-06
1.05361e-06
5.90968e-07
1.16931e-06
7.60211e-07
1.54279e-06
1.23943e-06
4.24398e-06
1.28823e-06
0.00777648
1.60538e-06
1.00052e-06
1.15555e-06
0.0146263
1.0251e-06
1.60886e-06
0.00524818
1.24478e-06
0.000248498
1.05529e-06
8.47872e-07
1.23925e-06
7.89216e-07
7.11091e-07
1.33713e-06
0.00208632
4.41479e-07
4.22463e-07
0.0145044
0.00466314
8.6964e-07
1.50823e-06
1.12764e-06
0.0088934
5.37601e-07
1.62894e-06
0.00109666
1.14816e-06
0.00329498
6.20005e-07
1.60587e-06
7.26473e-07
0.0122417
1.48142e-06
1.40402e-06
5.49374e-07
0.00830295
1.52747e-06
6.22019e-07
1.34349e-06
1.43446e-06
0.0021795
7.08404e-07
0.00434236
7.9098e-07
1.0988e-06
3.19557e-06
1.00792e-06
5.15634e-07
7.68788e-07
7.88062e-07
1.48401e-06
0.00720472
0.00453512
2.15273e-06
1.62863e-06
1.14326e-06
1.53888e-06
1.26659e-06
1.26458e-06
2.81363e-06
5.93595e-07
0.00749527
1.20029e-06
5.94947e-07
1.63729e-06
6.2514e-07
1.19626e-06
3.07687e-06
1.2263e-06
4.28446e-07
8.54884e-07
6.76952e-07
5.65362e-07
5.15306e-07
1.22579e-06
3.75105e-06
9.64344e-07
7.43412e-06
0.000139408
0.00126227
7.6563e-07
0.000223851
6.72792e-07
1.49387e-06
1.84844e-06
0.000159026
6.02832e-07
1.90056e-06
6.00625e-07
4.7427e-07
7.4527e-07
4.15776e-07
1.35811e-06
1.47972e-06
1.42293e-06
3.26057e-06
0.00256469
6.26753e-07
5.85876e-07
1.02462e-06
7.87498e-06
1.51174e-06
0.00644894
1.53186e-06
1.35377e-06
1.17168e-06
1.27614e-06
4.98525e-06
1.02494e-05
6.26486e-07
5.22174e-07
5.49331e-07
1.30907e-06
0.00174993
7.90417e-07
1.67381e-06
1.52206e-06
4.2414e-07
4.49856e-06
9.67808e-07
8.01864e-07
1.63197e-06
5.83917e-07
0.0145082
3.12768e-06
5.08885e-07
4.95095e-05
9.57247e-07
2.97006e-06
6.85051e-07
1.60732e-06
1.46669e-06
4.73577e-05
8.14668e-07
8.14152e-07
1.434e-06
1.60964e-06
5.6033e-07
5.62936e-07
4.51314e-06
1.14565e-06
1.22618e-06
1.43883e-06
0.0174461
0.00308441
5.84054e-07
0.00142591
1.54923e-06
2.15127e-06
0.00462871
4.94045e-07
0.00586559
0.000735198
0.0129488
7.58641e-07
9.22751e-05
0.000505028
0.00731337
1.66359e-06
0.00055132
6.63932e-05
6.11655e-07
1.23095e-06
7.28708e-05
8.28186e-07
0.0082375
1.19775e-06
0.00639778
0.000414094
8.36635e-05
9.48609e-07
7.84013e-07
7.76308e-07
1.25655e-06
0.00121887
1.65574e-06
8.57893e-07
1.61104e-06
1.58882e-06
2.61386e-06
7.26662e-05
1.62131e-06
5.55237e-07
4.93071e-07
0.00676691
0.00954197
2.20456e-06
5.74533e-07
0.00180173
1.535e-06
4.25331e-07
4.89931e-07
4.23936e-07
1.1379e-06
8.07064e-07
0.0071656
0.00276077
4.23963e-07
1.84434e-06
0.000708806
0.000193859
7.79103e-07
5.98121e-07
1.02436e-06
3.04847e-05
9.99919e-07
0.00959354
1.83261e-06
6.00769e-05
1.48035e-06
5.54784e-07
1.19457e-06
4.26033e-07
2.08569e-06
4.68988e-07
5.54658e-07
7.48494e-07
4.78861e-05
1.21173e-05
4.96795e-07
8.46887e-07
1.35269e-06
1.03169e-06
0.00234623
8.93402e-07
9.10484e-07
0.00158422
9.11502e-07
0.00639171
0.00037868
1.79611e-06
0.000502386
0.0138362
0.000753094
2.24505e-06
1.20007e-05
1.43234e-06
1.10227e-06
1.54477e-06
7.53222e-07
1.06514e-06
1.42027e-06
1.28676e-06
1.24274e-06
1.25034e-06
3.24076e-06
1.42656e-06
0.00512761
1.63074e-06
1.79746e-06
8.91628e-07
6.71174e-07
1.64242e-06
2.11196e-06
1.10577e-06
8.82425e-07
8.47987e-07
4.8446e-07
2.70275e-07
1.43607e-06
5.12548e-07
1.55858e-06
1.30271e-06
4.22035e-07
2.77148e-05
0.00673339
4.24059e-06
1.10126e-06
7.90368e-07
3.04125e-06
0.0119984
0.0015538
1.64557e-06
7.24712e-07
0.00695736
1.64555e-06
1.39525e-06
1.63128e-06
8.00421e-06
7.51786e-07
0.00471367
1.45651e-06
1.61725e-06
1.62197e-06
4.66774e-07
7.54861e-07
4.42922e-07
4.24529e-05
9.07832e-06
0.0217905
1.03176e-06
0.000639941
2.11083e-06
7.46463e-07
6.38631e-07
3.74939e-07
1.3411e-06
0.00600971
2.21632e-06
5.38742e-06
1.72005e-06
2.1358e-06
1.85488e-06
8.73278e-07
0.000207525
7.36162e-07
0.000229489
0.00115706
7.4928e-07
1.43682e-06
2.15312e-06
0.00125463
7.38252e-05
1.43151e-06
0.00399216
6.78091e-07
0.00470376
1.67848e-06
0.00352445
0.00485985
7.61851e-07
1.33247e-06
1.1894e-05
2.06272e-06
0.00619652
5.60287e-07
4.4399e-07
5.54977e-07
1.09439e-06
1.60018e-06
1.59654e-06
0.00190893
1.4331e-06
0.0110556
7.42722e-07
1.94754e-06
1.41262e-06
3.36811e-06
4.2027e-07
2.95357e-06
4.87296e-07
1.68896e-06
4.19973e-07
6.69437e-07
7.4126e-07
1.85056e-06
1.43188e-06
1.53919e-06
0.000126843
8.28879e-07
5.25878e-07
3.59502e-05
1.17522e-06
2.0873e-06
0.00510071
8.68727e-06
1.46149e-06
5.85495e-07
1.10489e-06
2.57212e-05
1.59654e-06
7.29895e-07
1.30611e-06
0.00107715
4.4817e-07
2.95112e-07
1.59438e-06
0.000662253
1.99966e-06
1.34528e-06
1.14918e-06
1.0166e-06
0.00173594
0.0116554
4.14674e-05
1.01194e-06
0.0106572
0.00169425
0.00612628
7.9027e-07
9.30693e-07
1.98296e-06
8.95248e-07
7.65661e-07
5.65193e-07
1.01729e-06
8.77972e-07
5.56488e-07
5.55983e-07
8.932e-07
5.45425e-07
4.70496e-07
1.23016e-06
8.35165e-07
0.0121561
1.33892e-06
4.46145e-07
0.000603915
1.42821e-06
0.00054522
4.61697e-05
2.8657e-06
0.00356739
7.70621e-07
0.00170416
9.24426e-07
1.01327e-05
7.35661e-07
0.00228599
2.98219e-06
0.00963888
7.62955e-07
1.18972e-06
0.00158529
2.7691e-06
2.45492e-06
4.61431e-07
1.28258e-06
0.000677151
1.18647e-06
1.29438e-06
9.46018e-07
8.59845e-07
0.00688385
1.48515e-06
9.36142e-07
1.54608e-06
1.19575e-05
0.00598767
1.50505e-06
6.05624e-07
1.10491e-06
4.98811e-07
4.2958e-07
0.00636214
0.000100221
4.13962e-07
7.4242e-07
0.000162764
1.60976e-06
7.22654e-07
7.40864e-07
1.38351e-06
8.20887e-07
4.20892e-07
9.52955e-07
8.46937e-07
5.33011e-07
1.62668e-06
0.000370257
0.000583957
1.17495e-06
7.35184e-07
5.01351e-07
0.00810923
3.62176e-06
1.71261e-06
5.31571e-07
2.9029e-06
5.66952e-07
7.68572e-07
5.11712e-07
7.22175e-07
3.06716e-06
7.30895e-07
0.0050024
0.000224971
0.000765686
5.73117e-07
1.96396e-06
0.000386063
0.0118823
0.000325867
0.0133631
1.48927e-06
0.0136709
1.20402e-06
2.85567e-06
6.21982e-07
0.000350668
8.96432e-07
1.46225e-06
1.61752e-06
0.000347485
1.01072e-06
0.0119448
0.00130389
8.8441e-07
5.42475e-07
1.63386e-06
1.48801e-06
1.43775e-06
1.14837e-06
0.000500101
8.76553e-07
1.62856e-06
5.1796e-07
0.00954524
1.62966e-06
8.50977e-07
1.41886e-06
5.9155e-07
1.43156e-06
0.0216121
1.03305e-06
1.40027e-06
6.27053e-07
0.000148091
8.30766e-07
9.83714e-05
7.22835e-07
5.02161e-07
0.000351567
7.57285e-07
1.40157e-06
6.02776e-07
5.1699e-07
1.64302e-06
8.50354e-07
1.09316e-06
0.0164127
1.52945e-06
9.49908e-07
1.69998e-06
1.57365e-05
5.60552e-07
3.49263e-06
4.71762e-07
0.000186029
6.01189e-07
8.77759e-07
0.000169883
7.83551e-07
1.20256e-06
6.74463e-07
0.0103185
0.00391507
6.652e-07
0.000730586
4.29187e-07
5.59593e-07
0.00767457
1.20391e-06
1.02502e-06
1.81067e-06
1.69738e-06
1.86464e-06
1.90689e-06
9.20209e-07
1.62288e-06
5.61166e-07
6.02392e-06
0.000169909
1.52382e-06
1.0902e-06
4.72904e-07
0.00108981
1.5765e-06
8.15589e-05
0.0107398
1.63304e-06
4.63023e-07
1.3234e-06
3.33445e-06
8.83692e-06
4.65251e-07
4.15485e-07
2.32238e-06
1.25811e-06
6.03436e-07
1.52757e-06
0.0172717
1.51024e-06
0.0113947
6.32496e-07
0.000799198
4.272e-07
1.63885e-06
7.73644e-06
0.00160303
0.00031356
7.50098e-07
8.30083e-07
1.98986e-06
5.91853e-07
8.74138e-07
0.00139035
8.37999e-05
2.24009e-06
4.94114e-07
0.0120357
0.000682573
0.00423888
1.5224e-06
7.72153e-07
1.33365e-06
1.61802e-06
0.000202559
1.1653e-06
5.08263e-07
0.00858539
0.000557443
0.000665057
1.81669e-06
7.50679e-07
4.15844e-06
0.00647237
0.0120705
0.000166093
9.23693e-07
2.27711e-06
7.21084e-07
0.000819347
0.000233734
0.00741738
1.96903e-06
0.00674151
5.21361e-07
6.61639e-07
1.54151e-06
0.0131126
1.07815e-06
7.30672e-07
3.11106e-05
1.42774e-06
1.63645e-06
6.2718e-07
1.41369e-06
1.03876e-06
0.000618274
6.62595e-06
5.8641e-07
1.28031e-06
1.62351e-06
2.20661e-06
1.57712e-06
1.0998e-06
0.00234469
1.2237e-06
3.74113e-05
0.000398263
0.000625926
6.45231e-07
1.01181e-06
0.00560417
0.00246293
7.22143e-07
0.0098468
0.0137793
1.02949e-06
0.00421313
1.49277e-06
1.23878e-06
1.84386e-06
1.46682e-06
0.00547669
8.12762e-07
7.69885e-07
1.29548e-06
5.74248e-07
0.00357892
1.48171e-06
1.45276e-06
0.00710232
0.00895464
7.53655e-07
4.66151e-05
9.59927e-05
5.46924e-07
6.67675e-07
1.33081e-06
2.80537e-06
1.20083e-06
2.13714e-06
0.0150008
6.27157e-07
1.78324e-06
0.000778058
1.68701e-06
0.000201379
7.75613e-07
2.4293e-06
0.0131947
0.00448149
1.40171e-06
1.58321e-06
0.0103894
0.00432719
7.40852e-07
7.87574e-07
2.09054e-06
1.5873e-06
1.57899e-06
1.51144e-06
0.00030627
5.07168e-07
6.9047e-07
1.20293e-05
7.10088e-07
1.56894e-06
3.59956e-05
2.16775e-06
1.23663e-06
9.0515e-07
1.72904e-06
7.34142e-07
2.78534e-06
0.00068387
6.00749e-05
7.22463e-07
9.63048e-07
0.000152842
1.52766e-06
4.91051e-07
3.50844e-06
1.07511e-06
1.62491e-06
0.00689478
1.57994e-06
1.10498e-06
2.80561e-06
1.70807e-06
1.5181e-06
0.00487724
4.42282e-05
1.18256e-06
1.33488e-06
0.00660385
1.61224e-06
0.00308943
8.53646e-07
1.61871e-06
1.34365e-06
2.64651e-06
0.0102325
1.59356e-06
7.75969e-07
2.57438e-06
1.72659e-06
1.23588e-06
2.03071e-06
6.64597e-07
1.51917e-06
1.56797e-06
1.63518e-06
5.54792e-07
1.07311e-06
1.23194e-06
1.94022e-06
0.00550555
1.65184e-06
1.76587e-06
1.36498e-06
1.56128e-06
0.000103002
1.52613e-06
1.3621e-06
7.38936e-07
2.78427e-06
0.013674
1.92071e-06
1.15718e-06
9.71362e-07
0.00906937
9.09275e-07
1.52524e-06
0.0016918
1.20661e-06
1.43867e-06
0.0234148
1.47798e-06
6.96922e-07
0.00252914
1.30498e-06
1.51253e-06
0.000321606
3.08682e-05
6.36773e-07
1.49697e-06
0.0148669
1.33693e-06
1.41062e-06
1.08229e-06
1.36766e-06
0.00300375
1.60168e-06
1.78709e-06
4.14925e-07
1.65402e-06
1.51881e-06
4.88724e-07
0.00224651
1.06444e-06
3.9096e-06
4.88988e-06
5.56501e-07
1.38356e-06
0.000403004
3.32843e-06
1.44125e-06
1.5905e-06
0.0190305
1.11309e-06
0.00673504
0.0183171
1.24781e-06
0.000164967
0.0232781
1.80535e-06
1.44926e-06
9.96283e-07
9.98302e-06
1.29027e-06
0.00738506
1.60007e-06
6.93602e-07
6.08613e-05
2.26494e-06
1.81711e-06
1.42919e-06
0.00410728
0.0113132
1.06069e-06
9.6307e-07
7.12789e-07
2.14918e-06
1.42074e-06
6.59266e-07
4.56412e-07
0.00610712
2.37937e-06
4.71844e-06
2.22433e-06
1.1938e-06
1.12987e-06
7.47007e-07
4.10068e-07
2.04209e-05
1.01368e-06
1.60804e-06
1.73423e-06
1.30088e-06
0.00318466
1.46733e-06
0.00316858
0.00350147
1.80176e-06
1.69581e-06
1.9874e-05
8.81384e-07
1.35096e-06
0.00737107
4.58006e-07
2.14836e-06
0.00973761
1.95418e-06
2.05124e-05
4.82167e-07
0.000425978
0.00264706
2.66452e-06
0.000282713
4.50273e-07
8.07613e-07
2.95973e-06
3.03042e-06
0.000382696
1.42447e-06
0.00674453
4.77155e-05
5.70189e-05
2.71113e-06
1.05678e-06
0.00646457
0.000160807
0.00564296
0.00829037
6.6358e-05
0.00794254
0.00351314
1.54193e-06
1.19689e-06
0.00712346
6.90826e-07
1.55742e-06
4.54891e-07
0.0133344
1.87423e-06
1.18043e-06
0.00648059
1.12192e-06
0.000508539
1.57292e-05
1.72743e-06
6.8696e-07
4.55752e-07
1.82519e-06
0.0139991
7.34026e-07
1.40564e-06
1.31106e-06
1.39503e-06
1.65452e-06
7.20619e-07
8.9645e-07
8.73118e-07
6.81013e-07
0.00942883
1.82256e-06
0.000142521
9.41166e-07
7.69962e-07
0.0109273
1.03595e-06
1.56494e-06
7.24665e-07
7.27273e-07
1.88969e-06
7.69388e-07
8.12135e-07
0.000457998
9.72282e-07
1.663e-06
1.37829e-06
1.12912e-06
3.02488e-06
1.44142e-06
4.49806e-07
7.67072e-07
1.20728e-06
7.2716e-07
7.20236e-07
6.20247e-07
2.14064e-06
0.00720093
1.47234e-06
1.52174e-06
1.52809e-06
1.34848e-06
0.0050321
1.10348e-06
6.02869e-05
1.47449e-06
1.88968e-06
5.1275e-07
8.40699e-07
7.82404e-07
1.22202e-06
0.000149127
0.0212061
0.0109649
6.61849e-07
0.00176822
2.25992e-06
0.000134753
6.38342e-07
2.81217e-06
0.0147765
6.20205e-07
0.00154235
0.00618819
0.0053575
1.49241e-06
1.53037e-06
7.24047e-07
2.70503e-06
1.23173e-06
0.00728572
0.00268274
9.33697e-07
0.000166798
1.03316e-06
4.26263e-07
0.00359753
1.39184e-06
1.10662e-06
0.016068
0.00668009
2.17301e-06
1.10346e-06
8.25093e-07
0.000250205
8.43235e-07
3.79248e-06
9.15224e-07
5.45484e-07
1.04114e-06
1.62287e-06
0.00158131
1.85873e-06
1.20685e-06
6.05397e-05
7.33732e-07
0.0138942
0.0129687
2.43763e-06
0.000770491
1.62903e-06
0.0171578
1.64865e-06
1.43321e-06
1.50149e-06
6.10531e-07
0.00019064
1.50597e-06
5.80629e-07
6.01727e-07
0.00149189
1.30151e-05
0.00623333
3.06553e-07
1.10062e-06
1.33439e-06
0.018866
0.000748896
1.22857e-06
5.73512e-07
0.00475228
5.66592e-06
0.00516248
2.94274e-06
2.31207e-06
8.92022e-07
6.02341e-07
0.00691942
0.00381526
2.2146e-06
8.61886e-07
8.36882e-07
0.00654165
1.27024e-06
6.58405e-07
0.0151255
0.0019628
1.85503e-06
1.63427e-06
1.79669e-06
2.91731e-06
6.22434e-07
1.10455e-06
7.09351e-07
6.37826e-05
1.41076e-06
2.36007e-06
1.38707e-06
9.25364e-06
0.00494633
4.10126e-06
0.00635662
1.69475e-06
1.4179e-06
1.87266e-06
0.000340222
1.98021e-06
6.54076e-07
4.76726e-05
0.000183166
7.175e-07
1.32914e-06
1.427e-06
5.48421e-07
2.00106e-06
0.00968426
1.30269e-06
1.71815e-06
1.67208e-06
0.000220282
7.37988e-06
0.000111385
4.49899e-06
6.18672e-07
3.46568e-05
1.4173e-06
0.00347385
1.60825e-06
1.59447e-06
0.0226224
1.01112e-06
4.54158e-06
4.21282e-07
1.4351e-06
1.36047e-06
2.29379e-07
0.0147395
1.55921e-06
0.00912026
5.41214e-07
0.000167902
4.70929e-07
2.2833e-05
1.10031e-06
7.20614e-07
5.98308e-07
1.10814e-06
4.02038e-05
1.58337e-06
1.70413e-06
0.0114482
0.00340542
0.00781128
6.93225e-07
1.49299e-06
1.52034e-06
2.00773e-06
2.52261e-06
1.43854e-06
1.3439e-06
3.24675e-05
0.00552378
0.0109596
0.00024314
1.0176e-06
0.0059268
8.00777e-07
1.39259e-06
1.10117e-06
0.000120519
1.6169e-06
0.000218189
6.84477e-07
0.00566968
1.05861e-06
6.01777e-07
6.929e-06
0.00254221
1.42034e-06
0.0182962
2.29818e-06
1.42028e-06
0.00362407
1.65053e-06
1.41214e-06
1.16714e-06
1.35979e-06
1.84209e-06
2.85991e-05
0.0153328
1.69512e-06
1.18413e-06
0.00423232
1.278e-05
8.26206e-06
1.10018e-06
0.000250431
7.56455e-07
1.93125e-06
1.17532e-05
0.00638062
1.6517e-06
0.000176454
0.000184316
1.51048e-06
0.0125529
1.87153e-06
6.84464e-07
1.81328e-06
3.46464e-06
0.0147323
2.18509e-06
9.11458e-07
8.61321e-07
5.96068e-07
7.46995e-07
7.76158e-07
1.42304e-06
0.0119821
1.94482e-06
2.48752e-06
1.28403e-06
0.000231483
1.23472e-06
1.60008e-06
0.00040501
1.22629e-06
2.10039e-06
0.00793426
0.000249324
0.0184217
1.56924e-06
1.52013e-06
1.85627e-06
1.04503e-06
6.54959e-07
7.14825e-07
9.57828e-06
5.37047e-05
0.00551172
6.8727e-07
1.68735e-06
0.000297724
1.57623e-06
0.0129496
1.07934e-06
7.63861e-07
1.57449e-06
8.33683e-07
2.91382e-05
1.40386e-06
1.49539e-06
7.62478e-07
1.90483e-06
5.16562e-07
5.10836e-06
1.47281e-06
1.55509e-06
0.0021695
1.04565e-05
1.98858e-06
1.27328e-06
1.65474e-06
2.02474e-06
1.69345e-06
6.91835e-06
6.68464e-07
5.5458e-06
1.60434e-06
0.000103601
1.3872e-06
7.49032e-07
1.34199e-06
1.34558e-06
1.77396e-06
7.5571e-07
1.94129e-06
1.11689e-06
8.65845e-07
1.594e-06
1.04611e-06
1.21819e-06
1.69184e-06
0.00853723
0.00465448
0.0180556
0.0167524
1.60645e-06
1.62555e-06
1.13592e-06
0.0112547
0.00663943
1.82918e-06
2.80225e-05
1.02076e-06
2.92616e-06
1.54048e-06
6.27614e-07
8.33198e-07
1.09161e-06
1.48864e-06
8.03244e-06
7.6256e-07
1.2134e-06
0.00601797
0.018781
1.63861e-06
1.97484e-06
7.18037e-07
9.04838e-07
1.45557e-05
1.12872e-06
6.08846e-07
0.00513112
0.00705366
0.000123951
3.10434e-06
0.0123713
1.41896e-06
1.88337e-05
8.71727e-05
0.000304282
1.46844e-06
0.0145547
1.58893e-06
1.63136e-06
0.000207037
1.84958e-06
0.00899842
1.2399e-06
0.00462305
5.38845e-05
1.42652e-06
4.6912e-07
1.34581e-06
1.88243e-06
1.89312e-06
6.73068e-06
1.25118e-06
7.56721e-06
0.000161691
0.0180931
7.25045e-07
1.61911e-06
2.86787e-06
0.000225619
1.48041e-06
1.25362e-06
2.06753e-06
2.86947e-06
1.51862e-06
6.78166e-07
0.000460182
0.0118956
8.90315e-05
6.90858e-07
0.0136497
1.03825e-06
4.79666e-07
1.69863e-06
7.15186e-06
5.92116e-06
2.26236e-06
4.17266e-07
0.00015683
4.81406e-07
6.85232e-07
0.0101854
9.35375e-05
7.09239e-07
1.39495e-06
1.18414e-06
1.19795e-06
1.01883e-06
9.11631e-07
7.18124e-07
6.49487e-05
1.62014e-06
1.09339e-06
1.17463e-06
4.89266e-07
7.01731e-07
0.0151742
9.92249e-05
1.50677e-06
0.00663
3.07495e-05
0.00669669
0.00439789
8.94145e-07
8.27761e-07
5.41083e-07
1.66569e-06
0.0136407
0.0056255
1.56689e-06
0.00375647
0.00766996
1.69127e-06
0.00519225
0.018
0.0236962
7.28095e-07
0.000153139
9.00923e-07
0.000379432
5.56404e-07
1.21037e-06
1.86502e-06
4.90507e-06
5.89801e-07
1.5019e-06
1.38958e-06
1.5142e-06
0.0227518
1.49343e-06
0.00696321
1.33531e-06
6.25703e-07
0.00860964
1.49005e-06
0.00360017
7.62941e-07
2.0872e-06
0.0110394
7.06938e-07
0.0152692
7.35677e-07
6.41848e-05
0.0229624
0.0195935
7.62007e-07
0.000277745
1.06145e-06
1.24607e-06
6.78204e-07
8.1858e-07
0.000182616
8.2204e-06
0.000144944
1.67002e-06
1.41617e-06
8.89069e-07
5.72163e-05
0.00231946
0.000247903
0.00404475
7.24007e-07
0.00653493
0.0108108
1.53579e-06
0.00232325
1.96474e-06
7.67362e-05
1.21054e-06
6.03473e-07
0.00200995
1.10037e-06
1.80509e-06
1.2154e-06
0.00724039
4.12045e-07
1.53569e-06
4.12458e-07
1.5263e-06
7.93653e-07
0.000804695
0.0127116
1.58774e-06
3.64443e-06
9.58063e-07
9.38168e-06
1.40526e-06
9.67361e-07
0.00560832
0.000352991
6.88892e-07
8.5166e-07
5.14101e-05
4.59239e-07
0.00456897
6.26511e-07
4.81986e-07
1.42274e-06
0.0129351
3.99577e-06
7.69559e-07
0.000434444
0.0162728
1.64547e-06
1.45216e-06
7.69447e-07
1.89349e-06
0.0113245
0.0136299
0.00366778
0.013136
1.2842e-06
1.90469e-06
1.40634e-06
0.00785074
0.0101209
9.30698e-07
6.62131e-07
0.000233909
1.23917e-06
1.55821e-06
1.72953e-06
2.03953e-06
0.0144545
1.39343e-06
1.46947e-06
1.76236e-06
0.000253184
1.34945e-06
5.51824e-07
0.00897486
1.00761e-06
5.83164e-06
8.37002e-07
9.26931e-07
1.45145e-06
0.000189419
8.57687e-07
1.06164e-06
2.01585e-06
0.0133321
0.0133405
9.18596e-07
0.00626061
1.45835e-06
7.28916e-07
2.89288e-06
9.93499e-07
1.32109e-06
6.77045e-05
1.18415e-06
1.40462e-06
1.75672e-06
1.91646e-06
1.46422e-06
8.65032e-07
1.10344e-06
9.74582e-05
1.4302e-06
1.28275e-06
1.51213e-06
0.00449444
1.46979e-06
1.5108e-06
1.56366e-06
1.50139e-06
6.76702e-05
1.79241e-06
0.0080596
7.2649e-06
6.50211e-06
0.0142394
1.52575e-06
1.9408e-06
7.90337e-07
0.000811886
1.00514e-06
0.0133374
0.0175397
2.83598e-05
1.06165e-06
5.90731e-07
6.90895e-07
0.00382753
0.00513896
0.00133194
6.98044e-07
1.88094e-06
8.05204e-07
0.0188121
0.00587714
0.00228532
6.00737e-07
0.00592543
0.00952188
7.28813e-07
0.016716
0.00372493
0.00236567
1.56108e-06
1.68173e-06
2.3187e-06
5.15623e-07
1.897e-06
7.99334e-05
5.5785e-05
1.58431e-06
0.000787621
0.00610069
4.22851e-06
1.45697e-06
0.00768911
1.70346e-06
7.84143e-07
0.0188627
7.73845e-07
1.33518e-06
0.00868978
0.000110996
8.89022e-05
0.0153269
0.00551272
1.58154e-06
4.52325e-06
7.14582e-07
6.93634e-07
0.00501892
1.69214e-06
5.39772e-07
7.15278e-07
9.30032e-07
1.4588e-06
1.57049e-06
0.0010633
1.62194e-06
2.16489e-06
0.00955916
1.14577e-06
5.65687e-07
1.64346e-06
4.8749e-07
0.0196686
0.000315666