/*--------------------------------*- C++ -*----------------------------------*\
| =========                 |                                                 |
| \\      /  F ield         | OpenFOAM: The Open Source CFD Toolbox           |
|  \\    /   O peration     | Version:  v2012                                 |
|   \\  /    A nd           | Website:  www.openfoam.com                      |
|    \\/     M anipulation  |                                                 |
\*---------------------------------------------------------------------------*/
FoamFile
{
    version     2.0;
    format      ascii;
    class       volVectorField;
    location    "350";
    object      U_0;
}
// * * * * * * * * * * * * * * * * * * * * * * * * * * * * * * * * * * * * * //

dimensions      [0 1 -1 0 0 0 0];


internalField   nonuniform List<vector> 
18618
(
(0.996276 0.0049926 3.68229e-22)
(0.111428 -0.0287087 4.49419e-21)
(1.00383 -1.34115e-05 0)
(0.652394 0.0971958 4.67763e-24)
(1.01313 0.00473726 2.30538e-21)
(1.02112 -0.0185347 -2.17084e-22)
(1.0897 0.00788806 2.23721e-20)
(0.141913 -0.0379232 -1.30041e-20)
(1.01633 0.00340906 -3.68084e-23)
(1.02768 -0.00029961 2.46821e-21)
(1.06874 0.0138384 -6.74371e-22)
(1.00384 -1.11998e-05 3.93164e-24)
(0.642353 0.0995137 0)
(1.0119 -0.000605682 -4.55836e-23)
(1.01296 0.00461539 -1.8907e-21)
(1.00421 0.000132379 -5.1152e-23)
(1.01157 0.00345566 0)
(0.0168593 0.0408709 1.3972e-20)
(1.01047 0.0029964 0)
(1.01633 0.00647662 1.28765e-22)
(1.01745 -0.0149232 6.93062e-24)
(1.00787 -0.00026287 1.95044e-23)
(1.00416 0.000130081 4.87452e-23)
(1.07204 0.0528941 -5.53297e-21)
(1.02098 0.00113924 5.73401e-21)
(1.02919 0.037252 -6.73888e-22)
(0.996746 0.000780032 -9.45972e-22)
(1.01109 0.00335763 -2.01961e-22)
(1.00452 8.88027e-05 -1.53162e-23)
(1.00972 0.00209837 2.96158e-22)
(1.02158 0.00155653 0)
(1.04655 0.0285602 0)
(1.03303 0.00413944 0)
(1.05699 0.0603892 0)
(0.864585 0.0181953 0)
(1.01896 0.00934122 4.82586e-22)
(1.02653 0.00951161 -4.92894e-21)
(1.05324 -0.0063184 0)
(1.02197 0.0152011 -1.91228e-21)
(1.00961 0.00204796 -3.0352e-22)
(0.967855 0.0333925 -1.39663e-22)
(0.999973 -7.82447e-05 4.92856e-22)
(1.00706 0.000488456 1.63352e-23)
(0.290549 -0.0159961 1.05396e-22)
(1.01671 0.00377773 2.09573e-23)
(1.05417 0.000934218 -1.05623e-20)
(0.208571 -0.0483694 9.37902e-21)
(1.00522 0.00015061 0)
(1.01168 -0.025464 0)
(0.646254 0.068878 1.76898e-20)
(1.01122 0.00341906 -1.78202e-21)
(1.01773 0.00836374 -1.37289e-21)
(0.81192 0.0790899 -5.09588e-22)
(0.979561 0.0267335 -2.1191e-21)
(1.00528 0.000160698 4.00634e-22)
(0.427957 0.0790075 0)
(1.01238 -0.000798956 4.63064e-23)
(1.01638 0.00605689 -2.12217e-22)
(1.0556 0.059861 0)
(1.0217 0.0142862 0)
(1.0098 0.00194792 -2.06303e-22)
(1.0068 0.000370541 3.70945e-22)
(1.01641 0.00675767 0)
(1.02788 0.00480052 0)
(1.06372 0.0674494 -1.00594e-20)
(0.884733 0.0801857 -8.96084e-21)
(1.0035 -1.89999e-05 1.30945e-23)
(1.07982 0.0187221 -5.41297e-21)
(1.00484 0.000421236 5.07558e-24)
(0.847608 -0.0567835 3.10319e-22)
(1.06829 0.0129647 8.69254e-21)
(1.00567 -0.0127725 -1.21559e-22)
(1.09225 0.0390419 7.92548e-21)
(0.0931863 0.0153541 2.93511e-20)
(1.02746 0.000654946 4.25401e-21)
(1.08106 0.0139381 1.10879e-20)
(1.01777 0.0383604 -1.86334e-22)
(0.623612 0.0688194 -7.81971e-21)
(1.00466 0.000402614 0)
(0.0440719 0.0590923 -1.32219e-20)
(0.282256 0.0533545 -4.80021e-22)
(-0.0415969 0.0385845 2.81034e-20)
(0.0730164 0.0106649 0)
(1.02874 -9.45548e-05 -3.90684e-21)
(1.03281 0.00438264 0)
(1.00704 0.000470501 -8.22708e-24)
(1.07171 0.0570519 3.48479e-22)
(1.02765 -0.000372815 3.29755e-21)
(1.03239 0.027762 -2.98942e-21)
(-0.00185282 0.0401532 0)
(1.094 0.0385557 -2.95244e-20)
(1.02716 -0.00412788 0)
(0.281858 -0.0215232 -5.86889e-22)
(1.01731 0.0405947 1.35588e-21)
(0.987173 0.0196507 -9.25063e-22)
(1.08225 0.0131733 -1.41746e-20)
(1.02763 0.010658 0)
(0.976386 -0.0258011 1.01197e-21)
(1.01181 -0.000574194 5.30461e-23)
(1.004 -8.39347e-06 -1.71954e-23)
(0.986684 0.014601 9.09687e-22)
(1.02761 0.00454884 -4.77698e-21)
(1.02031 0.0257334 0)
(1.04719 0.0293916 -2.04831e-21)
(1.01664 5.92862e-05 -3.38344e-23)
(0.444991 0.0914218 1.54917e-20)
(1.0057 0.00019939 -6.01597e-22)
(1.00393 0.000152004 9.88501e-24)
(1.06222 0.066869 0)
(1.0045 3.43787e-05 -3.17144e-24)
(0.911753 -0.00558789 -3.17368e-22)
(1.0109 0.00245974 0)
(1.04558 0.00351715 -8.91493e-21)
(1.00976 0.00249256 0)
(1.01725 0.00744189 9.9868e-22)
(1.00409 -4.44972e-06 1.63656e-23)
(1.00291 1.33617e-05 -1.65026e-23)
(0.878459 0.0989216 0)
(1.0207 0.00513976 -3.17124e-21)
(1.10313 0.0656399 -3.24081e-20)
(0.989298 -0.0159625 -1.11437e-21)
(1.04497 0.00387428 0)
(0.439046 0.0817418 -1.06639e-22)
(-0.0297345 0.0386352 -3.8832e-20)
(0.992954 0.00705446 5.61203e-22)
(1.03819 0.00121854 -6.96521e-22)
(0.955157 0.0195931 -1.82649e-21)
(0.0962925 0.0279911 2.66384e-21)
(1.06969 0.0185138 -1.73053e-20)
(1.12909 0.0316972 1.08434e-20)
(1.11914 0.045937 2.95763e-20)
(1.01076 0.00227496 0)
(-0.0646829 0.0350175 7.01422e-20)
(1.01064 -0.00378818 1.25043e-21)
(1.01709 0.00724534 -3.3207e-21)
(1.00921 0.00177664 1.20512e-22)
(1.01124 0.000606065 2.38178e-21)
(1.03037 -0.000762037 -6.59081e-21)
(0.0443477 0.00225849 -3.14968e-20)
(1.00223 -2.78375e-05 0)
(1.02471 0.000826288 0)
(1.00196 2.61683e-05 0)
(1.00677 0.000391124 3.79699e-22)
(1.02726 0.0102645 -4.94492e-21)
(1.00628 0.000397497 2.51792e-24)
(1.0305 0.0378889 0)
(1.02642 0.00979748 0)
(1.0111 0.00334605 1.91952e-22)
(0.488888 0.0912205 -1.32279e-20)
(1.08733 0.0143442 0)
(1.01248 -0.000765563 -4.6249e-23)
(0.869437 0.0977516 -2.33859e-20)
(0.0511067 0.00573204 3.23042e-20)
(1.00408 0.000151346 3.19155e-23)
(1.00684 0.000932206 -5.5176e-22)
(0.978047 -0.0135999 2.37409e-22)
(0.730102 0.10001 1.29651e-20)
(1.0302 0.0813466 -3.20295e-21)
(1.06489 0.0564247 5.98759e-22)
(1.0057 5.82338e-05 0)
(1.00429 -1.07419e-05 0)
(0.866341 -0.112553 -1.37748e-21)
(1.03 -0.00068218 0)
(1.02311 0.0186077 4.92471e-23)
(1.00572 0.000651246 -9.77755e-23)
(1.02866 -0.00322719 -1.27249e-21)
(1.0069 0.000891268 2.77036e-22)
(1.00204 -1.0982e-05 -2.18495e-23)
(0.282308 0.0511091 2.38145e-20)
(1.04498 0.00253377 0)
(1.02753 0.000640211 0)
(1.00504 1.90663e-05 0)
(1.11934 0.0480052 -3.01775e-20)
(1.11112 0.0311099 1.9403e-20)
(1.04223 0.0835306 0)
(1.08054 0.016382 -1.09378e-20)
(1.0086 -0.0106221 0)
(0.0768543 0.0249494 -2.88194e-20)
(1.00485 1.8295e-05 0)
(1.00507 0.000461551 2.60686e-24)
(1.10301 0.0239951 7.79256e-23)
(1.11162 0.0328828 0)
(1.01877 0.00920897 -2.62971e-21)
(1.01804 0.00848358 -4.11444e-23)
(0.940416 0.0260946 1.48848e-21)
(1.00585 0.000263901 6.15851e-23)
(1.01626 0.00601073 -5.16425e-22)
(1.10067 0.0235614 5.00085e-21)
(1.00685 -0.00810872 0)
(1.01999 -0.0219896 0)
(1.02644 0.0148914 -1.98148e-21)
(1.11209 0.0278937 1.61399e-20)
(0.999561 0.0816313 2.73559e-21)
(1.00219 3.40381e-06 5.95136e-24)
(1.05977 0.0677187 -2.13242e-21)
(1.01602 -0.00554555 9.82267e-23)
(1.10352 0.0257228 -5.57849e-21)
(0.778 0.0818569 2.75045e-21)
(1.02839 -7.26503e-05 0)
(0.420671 0.0810825 3.13796e-20)
(1.03911 -0.0135415 0)
(0.364776 -0.0326045 1.24976e-21)
(1.0217 0.0148292 -1.15726e-22)
(1.06077 0.0117005 0)
(0.243696 0.0454649 2.40515e-20)
(-0.0685268 0.0048321 2.52792e-20)
(-0.0151748 0.0472814 -1.40133e-20)
(0.917129 0.0990089 2.17825e-20)
(1.05083 0.0058296 0)
(0.451549 0.0469113 -2.80733e-23)
(1.01115 -0.0070825 0)
(1.00615 0.000201378 4.8037e-22)
(0.767741 0.0989759 1.81048e-20)
(0.897399 0.101691 1.00559e-20)
(1.0179 0.00839856 0)
(1.0185 0.00890399 -1.99746e-21)
(1.01858 -0.00689687 -1.47473e-22)
(0.24387 0.045971 0)
(1.04558 0.0028476 -9.78971e-23)
(0.700334 0.0973753 1.42256e-20)
(1.03005 0.0157155 0)
(1.04775 0.0161744 4.1294e-21)
(1.006 0.000270527 -5.42729e-23)
(1.15028 0.0656659 1.27983e-20)
(1.0403 0.0351099 -5.05172e-21)
(1.04476 0.0360922 1.1234e-20)
(1.02975 0.0152526 0)
(1.0057 0.000638958 -2.21168e-24)
(0.863215 -0.0547418 -3.61244e-22)
(1.06719 0.0551389 -1.02877e-20)
(0.457579 0.0384412 0)
(1.02514 0.0179545 2.56599e-22)
(1.02391 0.000673369 0)
(1.08105 0.0180303 5.94226e-21)
(1.02161 0.00170247 0)
(1.12689 0.0307022 2.15699e-20)
(1.02152 0.0139591 -1.06359e-21)
(1.01697 -0.00252469 -5.39752e-23)
(1.01833 0.00879322 -1.67417e-21)
(0.999418 0.0193745 2.76856e-22)
(1.10558 0.016131 -2.53639e-20)
(1.04637 0.0267981 5.63891e-21)
(1.03786 -0.00208556 0)
(1.0322 0.0271551 0)
(0.983404 0.0073275 -7.63009e-22)
(1.01787 0.0084315 1.42216e-21)
(1.07119 0.0540899 5.16316e-21)
(-0.0864356 0.0162424 1.48207e-20)
(1.00511 0.000169554 0)
(1.06868 0.0181233 2.77776e-20)
(0.804016 0.0747526 4.57768e-22)
(1.01776 -0.0131335 -3.65491e-23)
(1.06001 0.0121891 0)
(0.244533 -0.0231296 0)
(1.05081 0.00718157 1.60945e-20)
(1.00457 0.000108283 0)
(1.05109 0.00848902 6.35806e-21)
(1.06427 0.0577938 0)
(1.01151 0.00336765 1.67129e-23)
(1.08242 0.049854 4.6472e-22)
(1.14865 0.0668793 -2.27644e-20)
(1.05132 0.00765878 -1.81142e-20)
(1.02191 0.0245534 0)
(0.383211 0.0592938 0)
(1.01536 -0.0123879 -1.13729e-22)
(1.03926 0.0129509 0)
(1.10152 0.0121279 -1.12763e-20)
(1.01461 -0.021872 0)
(1.05033 0.0088116 -8.0149e-21)
(1.06633 0.0114845 0)
(1.08169 0.0156753 0)
(1.00547 4.34786e-05 1.90923e-24)
(1.00983 0.00205208 0)
(1.01123 0.00343955 2.02111e-22)
(1.00535 0.000130035 0)
(0.748346 0.0526621 1.82657e-21)
(1.01401 0.00291461 3.4866e-23)
(1.00539 0.000143653 1.34291e-23)
(0.213427 0.0412288 -1.24555e-20)
(1.00971 0.00200731 2.71948e-22)
(1.04691 0.0162437 3.64924e-21)
(1.00529 4.24778e-05 1.70876e-23)
(0.258833 -0.0134852 2.27988e-23)
(-0.0875001 0.0154495 0)
(1.04391 0.0354371 -1.35593e-20)
(0.851567 -0.10816 9.09618e-22)
(1.01289 0.00238174 -4.59865e-23)
(1.03134 0.0365201 0)
(1.00758 -0.000247919 9.50502e-24)
(1.02541 0.0540143 0)
(1.00946 0.00183089 -2.66619e-22)
(1.0221 0.0156151 2.6229e-21)
(1.02171 0.00121782 0)
(1.01272 0.00216916 7.31295e-23)
(0.722359 0.100409 -1.56331e-21)
(1.00445 0.000102212 -1.56095e-23)
(1.01144 0.00338197 5.79039e-22)
(1.04497 0.00495003 -6.66323e-21)
(0.751352 0.0712732 -4.98511e-22)
(0.929833 0.0986509 -6.71638e-22)
(0.840266 -0.0685698 -1.02791e-22)
(0.709164 -0.00820616 1.3594e-21)
(0.367739 0.0541324 0)
(1.1073 0.0405683 -3.25178e-22)
(1.06659 0.0565617 9.62245e-21)
(0.410004 0.0801119 -2.43586e-20)
(0.871622 -0.0996606 2.56757e-21)
(1.01757 0.0081805 2.8414e-23)
(1.04543 0.00463238 6.94327e-21)
(1.11284 0.0295804 -8.52938e-21)
(1.01626 0.00662239 0)
(1.02548 3.41669e-05 -4.84528e-21)
(1.04624 0.0170601 3.95818e-21)
(1.00991 0.00200053 -2.83615e-22)
(1.08674 0.012738 -1.56745e-20)
(0.870354 -0.10085 -1.51461e-21)
(0.446633 0.0446168 4.59015e-22)
(1.01813 -0.012483 2.12168e-22)
(1.03862 0.012469 -8.76525e-21)
(1.01005 0.000414651 0)
(1.01734 -2.34707e-05 0)
(1.06136 0.0681953 2.26226e-21)
(1.10024 0.0214421 1.0801e-20)
(0.870964 -0.0925341 8.76203e-23)
(1.03989 0.0122075 -5.07172e-21)
(1.01542 -0.00660197 -1.74087e-22)
(0.781186 0.0964914 0)
(1.00551 0.000124717 0)
(1.10545 0.0410323 -1.27168e-20)
(1.01212 0.00129591 0)
(1.00116 -1.721e-07 2.42037e-23)
(1.00967 0.00244306 0)
(1.11289 0.0245532 0)
(1.01612 0.00645461 0)
(1.01647 0.00439051 9.85178e-24)
(1.0405 0.0121217 -3.66201e-21)
(1.02979 0.0170096 0)
(1.01668 -0.00190485 1.04402e-22)
(-0.0387753 0.0296747 -1.6625e-20)
(-0.0606889 0.0404036 3.47553e-20)
(1.00936 0.00168028 -3.34226e-22)
(0.182417 0.0366842 1.20056e-20)
(1.01623 0.00391294 0)
(1.00396 -4.04508e-05 0)
(1.00521 0.000476463 0)
(1.02616 0.000121909 3.13884e-21)
(1.02039 -0.00495529 9.23967e-24)
(1.00456 0.000176871 0)
(0.848194 -0.113627 -8.23346e-22)
(1.05136 0.00638598 0)
(0.840992 -0.000645685 2.12793e-21)
(1.06247 0.057481 7.54104e-21)
(1.0469 0.0170262 0)
(1.02771 0.00012152 4.66055e-21)
(1.04508 0.0835151 -5.47164e-21)
(1.11649 0.0677652 3.68226e-20)
(1.00443 0.000106332 2.35902e-23)
(1.14236 0.0847587 1.01564e-20)
(1.00551 5.52742e-05 0)
(1.06866 0.0497022 4.41369e-21)
(0.854018 -0.0669216 -1.09705e-21)
(0.0566398 0.0173009 -4.90594e-21)
(1.14231 0.0724704 -2.01777e-20)
(1.02153 -0.00455029 -5.65606e-23)
(0.0728908 0.0217816 0)
(0.765008 0.113047 2.05556e-21)
(1.01187 0.00126431 0)
(1.06683 0.012653 -7.29792e-21)
(1.02072 -0.00953791 -5.72335e-23)
(1.00627 0.000384141 7.50666e-24)
(1.01047 0.000681024 3.22932e-21)
(1.02995 -0.000432546 5.53903e-21)
(0.841304 -0.107999 -3.31612e-22)
(0.833717 0.0115149 -3.97493e-21)
(1.00813 -0.000303756 -1.44428e-23)
(1.01766 0.00825482 9.10134e-22)
(0.880501 -0.0762033 -1.85643e-21)
(1.01165 0.00369048 2.18066e-22)
(1.01595 -0.0118174 -3.20457e-22)
(1.04294 -0.0100165 0)
(1.03238 0.0266326 0)
(1.04704 0.0275253 0)
(0.40051 0.0664216 4.54933e-20)
(0.800399 0.0418217 1.4846e-21)
(1.01034 0.00293345 8.41181e-22)
(1.04475 0.00715526 -3.20352e-23)
(1.00658 0.000809461 5.4436e-23)
(1.13792 0.0835531 9.90229e-21)
(1.00408 -1.0276e-05 0)
(1.02777 0.000136538 4.87017e-21)
(1.00635 9.21469e-05 -1.44108e-23)
(1.0171 -0.00397608 6.1852e-22)
(1.05345 0.000285465 1.05073e-20)
(1.00626 0.000112315 1.33019e-23)
(0.213685 0.04121 -4.08854e-20)
(0.883308 0.0956551 -1.39131e-21)
(1.10393 0.0638822 3.87857e-20)
(0.0196922 0.0550819 -8.80298e-21)
(1.0055 0.000587659 -3.65392e-24)
(1.03203 0.0209422 0)
(1.04387 0.00689225 0)
(0.945046 0.0179618 -1.51045e-21)
(1.01892 -0.0115372 -2.84916e-22)
(0.999787 0.0953212 0)
(1.0064 0.000770487 -4.71975e-24)
(0.43267 0.0690864 -2.27442e-20)
(1.02918 0.0150516 0)
(1.07061 0.0299553 0)
(1.00456 0.000118889 0)
(1.03891 0.0438516 3.72108e-21)
(1.01675 0.00703761 3.90708e-21)
(0.385438 0.0675452 1.78309e-20)
(0.37961 0.0322585 1.03906e-21)
(1.04382 0.0093083 1.22895e-21)
(1.01597 0.00514256 -2.72137e-22)
(1.14419 0.0738573 1.7148e-22)
(1.00959 0.00246788 0)
(1.06212 0.0291446 -1.99043e-20)
(1.03249 -0.00134069 -6.52338e-21)
(0.979594 0.0135104 5.24939e-22)
(1.02962 -0.000346781 -2.65939e-21)
(1.0487 0.0109095 -3.99034e-21)
(1.01399 0.00345349 -3.93871e-23)
(0.858983 -0.0575276 0)
(0.797895 0.0228848 -4.03851e-21)
(1.00431 4.39067e-05 1.79362e-24)
(1.03159 0.0208265 0)
(1.0389 0.00425621 2.81107e-22)
(1.00592 0.000275291 0)
(1.06534 0.0153201 6.36766e-21)
(1.00995 0.00189562 0)
(1.01131 0.00348592 9.41492e-22)
(1.02888 0.0146011 0)
(1.02447 -0.00507407 -1.95989e-22)
(1.03998 0.0431976 -5.73309e-21)
(1.03297 -0.00147985 7.37693e-21)
(1.12114 0.0446032 5.25088e-21)
(1.01659 0.00684351 -1.95935e-21)
(0.548611 0.0946603 -1.16289e-20)
(1.01666 0.000835431 -2.278e-21)
(1.04882 -0.0115725 0)
(0.359946 0.0294114 -1.9135e-21)
(1.01274 0.00226335 0)
(1.01243 0.00191141 0)
(0.124365 0.0302889 0)
(1.06096 0.0291512 6.25518e-21)
(0.714384 0.00209143 1.51475e-21)
(0.714013 0.099248 1.34895e-20)
(1.03736 0.0121357 -4.67694e-21)
(1.06245 0.0395078 1.61809e-20)
(1.01652 0.000838164 -3.12032e-21)
(0.258894 0.0793556 -1.03738e-20)
(0.552974 0.0877473 6.7158e-22)
(1.04743 0.012479 -7.56646e-21)
(1.11451 0.0681931 -1.13518e-20)
(-0.0380414 0.0333133 2.2139e-22)
(1.02105 0.00129971 -4.25633e-21)
(0.850837 -0.101645 2.2172e-21)
(1.00399 -1.0818e-05 0)
(-0.0545838 0.0357916 -1.73716e-20)
(0.584742 0.0916555 -6.58716e-22)
(1.06028 0.010522 0)
(0.161378 0.0165243 1.32562e-20)
(1.00843 0.0014036 -9.18473e-23)
(1.17114 0.0803598 -4.01853e-20)
(1.10393 0.0439673 -1.28535e-20)
(0.843435 0.100455 -1.73393e-20)
(1.05214 0.00249452 2.50914e-21)
(0.869837 -0.0813676 3.31464e-23)
(1.01742 0.00807581 9.88553e-22)
(1.00571 0.000231314 -2.19021e-23)
(1.01071 0.00312762 0)
(1.04849 -0.00195387 5.7131e-22)
(1.0899 0.0464241 -2.59935e-20)
(1.02116 0.00143704 -3.51954e-21)
(1.00525 0.000525257 0)
(1.00548 0.000576614 -9.69711e-23)
(0.147882 0.007947 -1.45773e-20)
(0.652801 0.0974759 -3.06213e-20)
(1.01626 0.0057307 5.34722e-22)
(0.0354867 0.044371 2.07791e-20)
(1.17087 0.0788742 0)
(1.0612 0.0100707 3.2709e-21)
(1.01996 0.00452705 -3.55237e-21)
(1.00351 7.4177e-06 -2.32392e-23)
(0.848639 -0.0966919 -1.99322e-21)
(1.02617 0.00915774 -2.43961e-21)
(1.09031 0.00959426 -1.47142e-20)
(1.00387 -0.00998428 1.09388e-23)
(0.480986 0.0840873 1.24855e-22)
(1.12538 0.0789438 0)
(1.00568 0.000213938 0)
(1.01511 -0.00429327 1.49801e-22)
(1.05713 0.0414617 8.3698e-21)
(0.92534 0.0266165 0)
(1.00154 -1.22562e-05 1.13122e-23)
(-0.0648177 0.00544717 -2.95533e-20)
(1.01946 0.0041821 3.54856e-21)
(1.01125 -0.000369542 -3.98036e-23)
(1.02023 0.0164535 -1.55313e-21)
(0.473932 0.041179 -2.78839e-21)
(1.01254 0.000456761 1.11515e-22)
(1.03906 0.00751409 3.84674e-21)
(1.02954 0.00546427 0)
(1.02926 -6.85977e-05 2.93274e-21)
(1.04031 0.0338384 5.29284e-21)
(1.00596 0.000271319 -3.03727e-22)
(1.00904 0.000187483 -2.07429e-21)
(1.00509 0.00014118 0)
(0.874059 -0.117451 -8.01306e-22)
(0.922435 -0.00448294 -2.93514e-22)
(1.12293 0.079163 0)
(1.02024 -0.00671027 0)
(1.03983 0.0108986 -1.11486e-20)
(1.00524 0.000516408 -1.16333e-24)
(1.01401 0.00445171 5.34851e-23)
(0.654562 0.0901044 0)
(1.02644 1.55754e-05 -4.07481e-21)
(0.957431 -0.0501938 0)
(1.01226 0.00353549 0)
(0.932968 0.0813145 3.26575e-21)
(1.02136 0.0103936 -2.27809e-21)
(1.00295 9.84869e-05 -1.42171e-22)
(1.06167 0.0587105 0)
(-0.0207265 0.0487008 0)
(1.03255 0.0368667 0)
(1.00433 0.000279709 0)
(1.02008 0.0156997 -7.55679e-22)
(0.991176 0.00464892 2.65471e-22)
(0.912098 -0.084888 0)
(1.00974 0.00251996 5.36681e-22)
(1.12392 0.0357625 0)
(1.03189 0.0110877 -1.06976e-20)
(1.01131 -0.000963352 -1.65502e-23)
(1.02014 0.00478066 3.75634e-21)
(0.0656292 0.0618807 0)
(1.07972 0.0695696 8.26093e-21)
(1.01046 0.000609845 -1.76643e-21)
(0.154059 0.0505454 -2.37982e-20)
(0.406946 0.0685457 0)
(0.676918 0.0892272 -4.69714e-22)
(0.84794 -0.0372637 2.13011e-21)
(1.02994 0.0219512 -1.78146e-21)
(0.325428 -0.0301483 -7.34871e-22)
(1.11823 0.0221848 -3.589e-20)
(1.05007 0.0100714 7.87079e-21)
(1.03231 0.0830652 0)
(0.500059 0.085091 0)
(1.04108 -0.0020411 -5.4128e-22)
(1.12077 0.0425672 2.00281e-20)
(1.1136 0.0264423 -5.16799e-22)
(1.01753 0.00816436 -1.93892e-21)
(1.04584 0.000576322 -1.13578e-22)
(1.12285 0.0605213 2.74277e-20)
(1.12296 0.058808 -2.45313e-20)
(1.01716 0.00110101 0)
(1.01203 -0.000645431 -1.9382e-22)
(1.06492 0.0665504 1.19172e-20)
(1.07165 0.0308929 0)
(1.06341 0.0405873 -6.22624e-21)
(1.00869 0.000301271 0)
(0.840021 -0.0255758 6.04659e-23)
(1.03897 0.00987782 0)
(0.971795 -0.0181756 2.26831e-22)
(1.06092 0.00655955 0)
(1.0284 6.61221e-05 3.46096e-22)
(1.09861 0.0749241 -1.72224e-20)
(1.02919 0.00535645 -6.00027e-23)
(1.05237 0.00379731 -5.0277e-21)
(0.595714 0.0560595 -4.7071e-21)
(1.02956 -0.000119637 -8.9428e-21)
(0.377602 0.0645731 -4.8742e-20)
(1.00573 0.033337 0)
(0.818914 -0.100644 0)
(1.10555 0.0435177 1.38944e-20)
(1.0567 0.0421908 -1.8589e-22)
(-0.070075 -0.00172639 9.39047e-21)
(1.02676 0.0152458 4.93993e-21)
(1.01497 0.00602436 0)
(1.07238 0.0557132 -5.97361e-21)
(1.01628 -0.0034909 8.95682e-24)
(1.0061 0.000319103 4.32906e-24)
(0.653899 0.0980776 0)
(1.03744 0.0165179 0)
(1.0528 0.00313847 0)
(1.02834 0.00057121 5.27723e-21)
(1.05071 0.00969789 4.84903e-21)
(1.01624 -0.00277093 5.09623e-23)
(1.00421 -7.08955e-06 0)
(1.0821 0.0510812 0)
(1.03049 0.0220687 -2.71775e-21)
(-0.0683522 0.035532 -3.55208e-20)
(1.02168 0.0101334 0)
(0.861765 -0.0063281 -1.38871e-21)
(1.02466 0.0189066 -1.79214e-21)
(0.128518 0.0480334 -8.51763e-21)
(1.00229 5.02878e-05 0)
(1.01265 -0.00224993 1.13615e-23)
(0.767122 -0.0801462 6.06989e-22)
(1.02145 0.0103603 1.61447e-21)
(0.866133 -0.117444 7.7096e-22)
(1.0035 4.57049e-05 -2.5395e-24)
(1.08236 0.075642 -2.62025e-20)
(1.04239 0.0433788 -4.57697e-21)
(1.04963 0.0113196 -1.22351e-20)
(1.0608 0.00836691 -1.52632e-21)
(0.997857 0.023861 -2.39383e-22)
(1.01089 0.00129868 0)
(1.01433 0.00552655 5.48767e-22)
(1.00547 0.000503966 -8.96455e-24)
(1.01156 -0.00111608 1.80399e-23)
(0.921982 0.0874664 2.15257e-20)
(1.01971 0.00720808 -8.31182e-23)
(1.0086 0.00141997 -1.57383e-22)
(0.950518 0.0977389 2.24338e-20)
(0.888143 0.102259 2.34362e-20)
(1.02398 0.0191477 -1.34162e-21)
(0.772991 0.0996226 0)
(1.06149 0.00727787 -5.55557e-21)
(1.02676 0.0101842 0)
(1.08641 0.0474111 -1.81726e-20)
(1.0532 -0.00109662 -6.52262e-23)
(1.0715 0.0162384 2.28178e-20)
(0.245073 0.0781478 1.1686e-20)
(1.04689 0.0102156 -7.43761e-21)
(1.02783 0.0541362 1.82102e-21)
(1.06723 0.0106761 1.63742e-20)
(0.021863 0.00467812 -6.40004e-21)
(0.305937 -0.0206874 3.74864e-22)
(1.00607 0.000331856 -1.38754e-23)
(1.00501 0.000472153 1.31058e-22)
(1.02118 0.00165697 3.77501e-21)
(1.00392 0.0756181 -1.29505e-21)
(1.02361 0.0192555 1.38438e-21)
(-0.0664861 0.03848 -5.99041e-20)
(1.02831 0.0144116 2.42975e-21)
(1.00451 9.79023e-05 1.86425e-23)
(1.01118 0.00136775 -1.08281e-23)
(1.00532 0.000221707 1.95302e-22)
(1.00453 0.000128811 0)
(1.00541 0.000216825 1.9021e-22)
(1.02625 -4.5761e-05 -4.17774e-21)
(1.0205 0.0279014 1.34501e-22)
(0.796182 0.112914 9.04556e-23)
(1.00436 0.000122939 0)
(1.02486 0.019503 2.54407e-21)
(0.890866 0.0810984 0)
(1.01999 0.0104193 3.11739e-22)
(1.00432 0.000110167 -2.25069e-23)
(0.0490532 -0.00452152 0)
(1.06967 0.048695 -2.95129e-21)
(1.02758 0.000331966 -5.66997e-21)
(1.02051 0.00482714 3.80218e-21)
(1.01581 0.00113656 -2.06941e-21)
(1.06045 0.0335599 9.3325e-22)
(1.04489 0.00605819 0)
(0.851581 -0.106902 -4.80915e-22)
(1.02977 0.022047 3.0304e-21)
(1.03704 0.000796741 -5.0065e-21)
(1.10426 0.017508 0)
(1.00682 0.0314605 0)
(1.04644 0.00105433 -3.38472e-22)
(0.922161 0.088114 0)
(0.888541 -0.0466115 4.97176e-22)
(0.392788 0.065981 1.59196e-22)
(1.11024 0.0690959 1.16916e-20)
(1.0227 0.00638615 -2.13781e-21)
(1.08678 0.0456712 -1.93184e-21)
(0.711553 0.0980703 2.03997e-21)
(1.00447 0.000118048 8.23564e-23)
(1.08748 0.0504694 2.29028e-21)
(1.00525 3.36289e-05 0)
(1.03927 0.0331867 5.15713e-21)
(1.03101 -0.00636734 -3.24785e-23)
(0.695017 0.0960876 -1.54338e-20)
(1.00498 0.000457152 -1.05711e-22)
(-0.0346503 -0.012702 9.32484e-21)
(1.03791 0.0125948 4.91136e-21)
(0.970972 -0.0403545 0)
(1.02722 0.000733313 -4.63664e-21)
(1.12522 0.0321235 2.14766e-20)
(1.08788 0.0487731 0)
(1.02885 0.015027 0)
(-0.0499259 0.0058793 -6.64246e-20)
(0.811037 0.0166896 -5.2581e-21)
(1.0048 8.54845e-06 6.61505e-24)
(0.115981 0.0365228 -1.18766e-20)
(1.01001 0.000581654 0)
(0.184175 0.0363365 1.29959e-20)
(1.04312 0.00831767 6.04854e-21)
(1.06998 0.056873 -1.13263e-20)
(1.05131 -0.00163926 0)
(1.05298 0.00449174 1.30376e-21)
(1.05891 0.0153275 1.2198e-20)
(1.01442 0.00097608 1.92419e-23)
(1.02801 0.0139591 -7.19996e-21)
(1.01731 2.07537e-05 -4.14807e-21)
(1.00222 3.91855e-05 6.63336e-23)
(1.01045 -0.00074077 0)
(1.00349 1.08991e-05 2.26709e-24)
(1.02551 0.0146367 0)
(1.04306 0.0360719 3.23527e-21)
(1.00461 7.12039e-06 -1.80849e-23)
(1.00508 2.96379e-05 0)
(1.06247 0.0271923 1.16044e-21)
(1.00216 -7.13154e-06 -2.62311e-23)
(0.979914 0.00566492 9.07643e-22)
(1.01112 0.000599758 0)
(1.06561 0.0165219 -3.40089e-21)
(1.00961 0.00245031 0)
(1.0281 0.03822 6.08507e-21)
(1.00418 -2.85419e-06 -9.44435e-24)
(1.04779 0.0350691 0)
(1.02072 0.000445537 -3.8435e-23)
(0.632258 0.085388 -6.37659e-21)
(1.03494 0.0104944 0)
(1.03764 0.00086682 0)
(1.00193 9.76065e-06 -1.22204e-24)
(1.00856 0.000635048 0)
(1.01013 -0.000678535 3.99615e-24)
(1.04056 0.0112309 1.88691e-20)
(1.02278 0.00617641 -1.13022e-21)
(1.03194 0.00345815 0)
(0.427344 0.0907325 1.61686e-20)
(1.01162 0.00343706 0)
(-0.0200014 0.0478756 -3.12901e-21)
(0.634909 -0.0766791 1.81219e-21)
(1.0809 0.0750277 0)
(1.00421 -1.08678e-05 1.00239e-23)
(1.00867 0.000605423 1.07842e-21)
(0.672756 0.0988157 -1.51255e-21)
(0.904476 0.0475282 -1.76099e-21)
(0.994055 0.0650658 0)
(0.995224 0.0339295 -2.93752e-21)
(0.846723 -0.0592271 -8.68608e-22)
(-0.0865592 0.0304779 0)
(0.972274 0.0175063 1.36276e-21)
(1.05899 0.0404732 0)
(-0.00748889 0.050329 0)
(1.0214 0.00506874 2.47367e-21)
(1.00268 0.000156797 0)
(1.0045 0.000288509 9.91729e-24)
(1.01255 0.0315822 3.16435e-24)
(1.01997 0.010414 0)
(1.04994 -0.000734501 -8.83011e-21)
(1.09171 0.045957 -2.44423e-22)
(1.01614 0.00561511 -3.86272e-22)
(0.978368 0.0796477 1.30979e-21)
(1.01455 0.00569442 3.21944e-23)
(1.04413 0.00548831 -3.71233e-22)
(1.1024 0.0618379 -4.0064e-21)
(0.597516 0.0774508 6.43015e-21)
(1.13879 0.0811639 1.9956e-20)
(1.07917 0.0680565 -7.2069e-21)
(0.868979 -0.1097 8.07289e-24)
(1.04216 0.0354172 2.83089e-21)
(1.02114 0.00499069 -8.22226e-21)
(1.01084 0.00119441 -1.33242e-23)
(1.01342 0.00208798 0)
(0.289087 0.058436 -1.77105e-20)
(0.602396 0.0968347 0)
(1.00012 -8.65514e-05 -2.76554e-23)
(1.0094 0.00231859 2.38228e-22)
(0.955182 -0.00188711 -1.64549e-21)
(1.07118 0.0457055 -1.64076e-21)
(0.876188 -0.0900526 -2.27639e-21)
(1.03845 0.00819539 -2.61621e-21)
(1.0367 0.00915319 0)
(1.05976 0.0148491 1.37871e-20)
(0.805881 0.0757948 0)
(1.04615 -9.74579e-05 1.52193e-20)
(1.00477 0.000170044 1.92594e-22)
(1.00663 8.95558e-05 0)
(1.01078 0.00306685 0)
(1.0178 0.00836089 0)
(1.02248 0.00581257 4.9291e-21)
(1.04553 -0.000513166 -1.43744e-20)
(0.102503 0.0266063 -2.73501e-20)
(0.284849 0.0581921 0)
(1.00472 0.000172397 0)
(-0.0457913 0.00817707 4.69219e-20)
(1.01214 -0.000710477 -2.86859e-22)
(-0.0709885 -0.000394804 -8.93038e-21)
(1.14178 0.0812671 -9.95804e-21)
(0.762227 0.103243 -7.50638e-22)
(1.00677 0.000112832 0)
(1.02028 0.0195557 3.48314e-22)
(0.0901881 0.0318877 0)
(1.00548 0.000113996 -2.97633e-23)
(0.714948 0.0872705 2.36932e-22)
(1.02777 -1.21684e-05 -5.77915e-21)
(1.01091 -0.000269182 0)
(1.04887 0.0302439 -8.09536e-21)
(0.999911 -8.42316e-05 -1.4077e-23)
(0.104124 0.0589428 -3.03964e-20)
(1.03139 0.00688253 0)
(1.00909 0.00162566 -9.76638e-24)
(1.01505 0.0315421 3.37479e-22)
(1.02773 -5.51967e-05 -1.12771e-23)
(1.09764 0.0192412 1.03304e-20)
(1.02257 0.005643 -4.91513e-21)
(0.300493 0.0459613 -1.50864e-20)
(1.00445 0.000132841 0)
(1.02588 0.014893 -3.95656e-21)
(1.01391 0.00379821 4.87309e-23)
(1.04542 0.00568525 0)
(1.0889 0.0147547 1.18541e-20)
(1.07287 0.0072403 0)
(1.06144 0.0090008 6.75362e-21)
(1.05078 0.012635 4.47519e-21)
(0.76217 -0.0224912 2.83908e-22)
(1.07105 0.0208402 -1.09473e-20)
(1.00442 -6.21761e-05 0)
(1.0237 0.0138653 0)
(1.00935 0.00228582 -7.96562e-22)
(1.03031 0.0089155 6.88391e-21)
(1.05292 0.0609771 -2.99012e-21)
(1.08557 0.0426174 0)
(0.393095 0.0648647 2.44005e-20)
(1.02835 0.00939613 3.22276e-21)
(1.02891 -1.29161e-05 -5.54479e-21)
(0.949612 -0.057565 -1.06623e-23)
(1.01962 0.00445433 -7.39464e-21)
(-0.0337161 -0.0104295 9.26284e-21)
(1.09039 0.0578511 0)
(1.0046 -6.84847e-05 -3.3749e-24)
(1.02642 0.0127777 7.48208e-21)
(0.961917 0.101084 -2.16785e-20)
(1.01819 0.00898114 0)
(1.07014 0.0160699 -2.15612e-20)
(1.01535 0.0057185 1.04276e-21)
(1.02061 0.00121735 -5.52428e-21)
(1.03967 0.0101471 0)
(1.03051 0.019224 2.64213e-21)
(0.136718 0.0626579 3.32288e-20)
(1.06077 0.0305298 1.33532e-20)
(1.03212 0.0261342 0)
(1.02748 0.0137733 -4.8965e-21)
(0.689175 0.056781 -3.12321e-21)
(1.14016 0.0620413 -2.00291e-20)
(1.02414 -0.00132366 -1.93234e-23)
(1.02538 0.00871796 7.46253e-21)
(0.882006 -0.0946669 1.03101e-21)
(1.01391 0.00248971 -3.50076e-23)
(0.424655 0.0639461 1.20089e-21)
(1.01159 0.00106986 0)
(1.02868 0.00944077 0)
(0.805938 -0.0171897 -1.19612e-22)
(1.04336 0.0072901 0)
(0.796008 0.0531459 5.14216e-21)
(1.07968 0.0404645 0)
(0.36591 0.0860075 0)
(1.02766 0.000594055 -8.06614e-23)
(1.00418 8.07371e-05 -2.30117e-23)
(1.01123 0.00324479 1.62574e-23)
(1.07059 0.0178214 7.55535e-24)
(1.00491 0.000177282 -5.21006e-22)
(1.03619 0.00119404 0)
(0.853348 0.112173 0)
(0.26723 0.0394915 1.60498e-20)
(1.03303 0.015867 -5.18614e-22)
(1.00846 -0.0122736 2.59554e-22)
(0.839308 0.0394609 0)
(0.631191 0.0774738 2.02292e-21)
(0.689961 0.104289 -2.86814e-22)
(1.12574 0.0345304 0)
(1.03159 0.0108666 1.64502e-22)
(1.0055 -3.6816e-05 0)
(0.712694 0.10257 1.77857e-23)
(1.01128 -0.00034894 -1.12241e-22)
(1.10357 0.0694006 0)
(1.07871 0.0410394 7.88943e-21)
(0.741321 0.0850852 2.21025e-21)
(1.00563 0.000100414 4.66312e-23)
(1.03033 0.00923704 -7.87487e-21)
(1.01056 0.0011427 1.37021e-23)
(1.01174 0.00329302 4.77693e-22)
(0.891794 -0.0902577 0)
(1.03031 0.022211 -7.82738e-22)
(1.02074 0.0667318 -3.2706e-22)
(1.00914 0.00180982 -1.11158e-21)
(1.07019 0.0447332 -1.27933e-20)
(0.561693 0.059292 -3.24796e-21)
(1.03122 0.0201031 -3.50592e-22)
(1.0115 0.00359517 -2.24713e-22)
(1.01691 0.00446156 1.84063e-22)
(0.814357 -0.0681409 -1.9048e-21)
(0.856582 -0.00899099 1.39183e-21)
(0.864228 0.0527533 4.11052e-21)
(1.09478 0.065768 1.29004e-20)
(1.02571 0.00907372 2.42559e-21)
(0.516775 0.0565597 1.62343e-22)
(1.02718 0.0133496 -2.42027e-21)
(1.02077 -0.0118696 0)
(1.03266 0.00927631 0)
(1.01894 -0.00706214 -1.00204e-21)
(1.10366 0.0605779 9.44864e-21)
(1.02656 0.0214443 -6.63324e-22)
(0.876279 -0.0573715 1.58493e-22)
(0.986369 -0.0143872 -3.61696e-22)
(1.00093 -3.13957e-05 3.85266e-24)
(1.08981 0.0594653 0)
(0.315704 0.0602829 2.65106e-20)
(0.504427 0.066018 -5.56513e-22)
(-0.0820443 0.0173108 0)
(0.218208 -0.0605129 0)
(0.668584 0.104187 -1.15484e-22)
(1.02766 0.0222555 -9.67004e-22)
(1.03814 0.0303747 1.21226e-21)
(0.450811 0.0659889 -6.13496e-22)
(1.03112 0.0198043 3.51532e-22)
(1.0695 0.00790014 -4.71407e-21)
(1.03131 0.0158984 -5.64696e-21)
(0.85097 0.112278 9.11902e-23)
(0.791429 -0.0737606 -8.44869e-22)
(0.10122 0.06543 2.86725e-20)
(1.05925 -0.000334139 -6.56907e-21)
(1.03066 0.00764363 -1.83784e-22)
(1.00335 1.2878e-06 -2.71994e-23)
(1.02602 0.0146916 1.94661e-21)
(1.01184 0.00335296 0)
(1.06143 0.0266346 0)
(1.02365 0.00108104 3.51796e-21)
(1.09551 0.0767956 -3.62948e-21)
(1.03352 0.0160331 -2.29379e-21)
(0.363156 0.0220416 -4.60106e-21)
(1.03004 -0.00117539 2.27919e-23)
(1.01575 0.00106664 0)
(1.02534 0.0148255 -1.84537e-21)
(0.331941 0.0842578 0)
(0.997439 0.0151956 0)
(1.0666 0.00959696 -1.02162e-20)
(0.634088 0.0608107 3.87467e-21)
(1.03078 0.0156845 2.82949e-21)
(0.902364 -0.0480668 2.85627e-22)
(1.01692 0.00095617 0)
(1.03179 0.00135746 -6.04139e-23)
(1.03004 0.0191119 -5.07709e-23)
(1.01292 0.0038914 -1.74551e-22)
(1.00918 0.00211231 5.33112e-22)
(1.03636 0.0245924 4.15933e-21)
(0.777763 0.0258952 2.90479e-22)
(1.00568 -4.47363e-05 0)
(1.01193 -0.00132388 0)
(0.290697 0.0740787 2.30882e-20)
(-0.081163 0.0332658 -3.36981e-20)
(1.03178 0.00303526 -1.46009e-22)
(1.04529 0.00676304 3.38672e-21)
(1.02391 0.0142805 0)