/*--------------------------------*- C++ -*----------------------------------*\
| =========                 |                                                 |
| \\      /  F ield         | OpenFOAM: The Open Source CFD Toolbox           |
|  \\    /   O peration     | Version:  v2012                                 |
|   \\  /    A nd           | Website:  www.openfoam.com                      |
|    \\/     M anipulation  |                                                 |
\*---------------------------------------------------------------------------*/
FoamFile
{
    version     2.0;
    format      ascii;
    class       volScalarField;
    location    "50";
    object      ddt0(k);
}
// * * * * * * * * * * * * * * * * * * * * * * * * * * * * * * * * * * * * * //

dimensions      [0 2 -3 0 0 0 0];


internalField   nonuniform List<scalar> 
18649
(
-7.62367e-06
-3.44151e-08
-3.40208e-08
-8.113e-05
-6.91725e-05
5.28633e-09
-0.0014107
-1.29173e-05
6.14163e-07
3.2553e-08
-5.96323e-06
-0.000349967
0.00417395
-2.43036e-08
5.10905e-08
2.67896e-08
1.26056e-08
2.6134e-08
-5.88522e-06
-0.000473494
0.000845126
-4.43563e-09
-0.000241367
2.11411e-05
-1.27854e-07
-0.000395548
-2.1227e-08
-0.000344071
-0.000234587
-9.45355e-09
7.83381e-10
-7.32564e-07
6.71857e-09
-3.32401e-08
-2.36159e-08
-0.000209413
-2.18756e-08
-1.70164e-08
5.58115e-09
-7.6574e-06
8.05416e-07
1.66645e-05
1.34119e-06
-0.000171169
-2.08539e-08
-2.89833e-09
-9.25932e-05
-8.27983e-05
-0.00171202
3.62328e-08
-0.000867994
-6.80482e-08
0.000237738
-0.000424953
-9.22343e-09
-0.00138191
-0.000281033
5.35861e-07
0.000100457
3.09432e-09
-8.02182e-06
4.61839e-08
1.42754e-06
-7.81802e-05
-8.65184e-09
-7.51495e-05
-1.63767e-08
-0.0003301
-5.4794e-05
2.7495e-05
-0.000228805
-7.16212e-08
-2.82846e-06
-3.73037e-08
2.92398e-08
0.000766756
-1.85652e-07
-7.93949e-08
-3.1887e-08
-2.25824e-05
4.0558e-09
-0.000102567
-0.000107258
7.59945e-05
1.50997e-06
-6.27603e-08
-5.44829e-08
-6.23254e-08
-1.98514e-07
-2.52832e-08
7.45057e-08
-4.14073e-08
4.24996e-08
-0.0020348
-3.57972e-09
-7.28694e-06
-3.51984e-08
1.14924e-05
-4.39448e-05
-1.49733e-08
-0.000249008
-2.65639e-07
-9.4615e-09
-0.00110712
-5.21934e-05
-7.15504e-08
4.24151e-08
-4.88919e-08
-2.97084e-07
1.70668e-09
-0.000209479
-6.25302e-06
2.10105e-08
-4.93979e-09
-1.2665e-06
6.83967e-09
-7.48284e-09
-0.000496843
-0.000180516
-6.0785e-08
8.04112e-05
-6.2227e-08
-8.80397e-07
-4.33422e-08
-0.000168845
2.04274e-08
3.08042e-09
-0.000447808
-5.52028e-08
-0.000501077
-2.19464e-08
-0.000108705
-4.34051e-08
0.00018961
-3.54794e-08
-2.66182e-08
-0.000204879
-0.000291076
5.55295e-08
-9.50748e-08
5.17335e-05
-1.01366e-08
-3.34192e-08
5.81674e-08
-2.06538e-08
-0.000540834
-6.70173e-08
-1.91541e-08
-0.000265971
-5.52111e-05
0.000118538
-1.40246e-08
-0.000138309
-7.77319e-08
1.1966e-08
-1.93681e-07
1.37176e-05
-1.25396e-05
-1.21228e-08
7.01046e-09
-5.75592e-09
-0.000199529
0.000113692
-6.50286e-08
-0.000178183
-1.38549e-06
-3.60498e-08
2.85358e-08
6.06618e-09
6.87708e-09
-2.78029e-08
0.00010052
4.99406e-07
1.12444e-05
7.07376e-08
-0.000290778
-0.000258202
-3.12942e-08
-9.54506e-09
3.59634e-05
8.10361e-05
-3.30947e-08
1.57383e-11
0.000299086
-4.31145e-08
1.58977e-07
-1.97699e-08
-3.45066e-08
7.60706e-08
-9.85995e-08
0.000270911
2.1311e-08
2.50137e-05
-1.02275e-07
-1.18255e-08
-3.82722e-09
-3.98972e-08
-4.86224e-07
1.02099e-08
-8.85691e-11
-2.09391e-08
-5.37658e-07
-0.000356361
-2.24751e-08
-2.08184e-07
1.2536e-06
-0.000661819
-6.88063e-05
-9.4778e-08
-1.61158e-05
3.93257e-08
5.34201e-08
-3.25593e-09
5.13163e-06
-0.000112005
-1.58107e-08
3.98091e-07
2.04265e-08
-0.000170804
2.0954e-08
3.14779e-06
6.92019e-08
0.000213264
0.000109067
-0.000545783
-0.00152252
-6.31745e-08
2.45658e-08
0.000253768
0.000385994
4.9264e-08
-9.98532e-09
-0.000292329
2.13452e-08
-0.000529064
-0.000198176
1.6548e-05
-0.000401591
-8.17994e-08
-0.000198233
5.36771e-08
-0.000216431
2.21322e-08
-5.29246e-09
1.38075e-08
-1.0141e-07
0.000130198
-6.17045e-09
-0.000261123
-3.24434e-07
-0.000385121
-0.00138081
1.85218e-07
-7.68174e-08
-5.55095e-08
-0.000176871
5.80807e-08
5.2134e-08
-2.16805e-08
5.71002e-08
-2.84048e-08
-3.52881e-06
-1.77981e-05
-2.56495e-08
-2.193e-08
-0.000110987
-0.000843409
-6.94675e-10
0.000135383
4.89158e-08
-0.000532114
-1.99156e-06
0.000347944
6.96302e-05
-1.07962e-05
-5.3795e-08
-3.12278e-08
0.0047544
-0.00147448
-0.000187451
-4.25949e-08
-3.09671e-08
-0.000135428
-5.56895e-08
-0.00194769
-0.000298625
-4.0028e-08
3.66133e-08
6.17515e-08
5.47452e-08
2.60135e-06
-0.00042351
-0.000794007
5.10823e-05
-0.000294199
-6.36197e-08
0.000190372
-0.000328631
2.28457e-08
-0.000515504
-2.84591e-09
-4.1478e-08
-7.23809e-09
4.9927e-08
7.84343e-10
3.64498e-06
-5.46192e-09
2.68198e-07
-0.000591883
-2.6891e-08
-0.000350837
-1.92672e-08
0.000214305
2.49207e-08
-4.46025e-08
-6.95475e-08
-6.3189e-09
-1.76078e-09
-0.000110567
-0.000153898
1.90682e-08
8.85798e-09
8.71007e-07
-1.35675e-08
-1.11762e-08
1.3254e-08
-3.23439e-08
-6.8231e-08
-0.000302889
-3.54188e-07
-1.16111e-05
-7.51035e-08
2.60797e-08
1.45066e-06
3.57457e-08
2.02796e-08
-8.06982e-05
-4.98315e-08
-0.00103076
-3.75064e-08
-0.000204193
-2.7002e-08
5.19744e-09
-1.64523e-08
-2.09888e-08
9.46563e-08
4.77874e-09
1.30847e-08
2.37681e-08
1.59871e-08
5.35255e-09
0.00364631
6.98842e-08
-2.5832e-08
-7.89982e-06
0.00414188
-5.33986e-08
-0.000325805
-0.000165839
-0.000177924
-0.00106613
-1.31329e-08
-0.00118724
1.48547e-09
-0.000331391
0.000401344
-3.39917e-08
-1.21743e-09
-4.42884e-08
4.46271e-08
-6.44003e-08
-4.51991e-08
7.46306e-09
-0.000186226
-7.50635e-08
-0.000492247
-1.23745e-05
-0.000186387
2.61413e-05
1.00823e-08
4.23503e-08
2.00625e-08
2.24558e-08
0.00030237
-4.63502e-09
-2.57735e-08
7.26233e-05
-0.000763877
2.69282e-08
-6.78451e-08
-0.000325007
-4.01641e-07
8.38966e-08
-0.000743521
1.44953e-08
6.12889e-09
-0.000173369
-3.80109e-08
6.71859e-08
-0.000324631
-0.000182297
2.0816e-07
1.76444e-08
1.50261e-08
-0.000218906
-0.000193382
-3.42244e-08
-0.000638819
3.14804e-11
-2.68066e-08
-0.000952491
8.55497e-09
-0.000321329
-5.11984e-08
1.16025e-05
-2.38503e-05
0.00368222
-0.000514888
1.22721e-08
0.00058019
7.59474e-08
0.0051218
-9.60017e-07
-0.000417174
-0.000893202
-5.27732e-08
-1.15387e-08
-0.000168383
-0.000190401
8.70149e-09
-1.97996e-05
6.04855e-08
-2.89041e-08
-1.15554e-09
-0.000471788
0.00323149
0.000341444
-7.5019e-08
-1.81199e-08
8.18494e-05
-0.000149104
1.23678e-08
6.84362e-09
-2.36508e-08
9.88237e-09
-0.000190403
-0.000409814
-3.73537e-08
-7.72985e-09
-0.000216026
-4.94482e-08
-0.000131354
5.51864e-08
5.00171e-06
-3.64259e-07
-0.000382267
-4.72321e-08
-0.000259754
-7.28315e-06
-5.74212e-08
5.76243e-07
-5.82585e-08
3.97013e-07
3.77876e-08
-2.91718e-08
-3.93065e-08
0.000120748
3.72897e-08
-7.58527e-08
-0.000151304
-4.53411e-08
2.60079e-08
0.00519669
-6.43425e-09
-0.000165749
-7.11125e-09
-5.48621e-08
9.03422e-08
-4.74052e-09
-1.35212e-08
-2.24346e-08
4.36509e-05
2.67103e-08
-2.43476e-07
5.06451e-08
1.18331e-08
-0.000174473
1.40077e-08
0.00189301
-5.45374e-08
-0.00166192
-0.000620625
-0.000666473
-9.88701e-05
-3.26133e-08
-1.51551e-06
1.68493e-08
-0.000138368
-2.5991e-08
-3.2889e-06
1.15019e-08
-0.00128796
-9.85517e-07
-4.66423e-07
8.60507e-09
1.94686e-05
1.57446e-06
-0.000863989
3.78609e-09
-0.000200681
-2.4413e-09
2.87327e-06
5.67523e-08
-9.62799e-07
-0.000158165
4.77734e-09
4.70554e-08
-0.00061508
1.29069e-09
1.66711e-05
-3.04866e-08
2.95062e-08
-2.33081e-08
-8.51783e-08
9.32702e-08
4.69372e-05
1.19434e-08
-0.00261446
1.05238e-08
-0.00010173
-0.000150578
-0.00208628
-0.000149426
-9.25808e-08
0.00433961
3.74461e-07
-0.000404612
-5.31443e-06
-1.13284e-07
-7.65827e-08
1.06453e-05
-3.24859e-08
0.000129991
1.56025e-07
5.53385e-09
-3.11488e-08
8.51909e-10
-3.32324e-08
4.4752e-08
0.000550487
7.58196e-09
3.84279e-08
-7.0564e-09
-5.02197e-08
3.00008e-05
-0.00193264
-1.347e-08
1.47053e-06
-7.31854e-05
-5.27073e-07
6.41883e-08
0.000242068
0.000634056
0.000900753
0.000146972
7.84073e-08
-8.7459e-09
-4.01344e-08
5.57121e-08
1.15808e-08
-0.000235162
-1.01773e-07
8.83597e-09
-4.10106e-08
-0.00159502
-0.000347761
-0.000640544
-1.03908e-07
-2.45025e-09
-0.000212979
-6.40014e-05
0.000301945
-2.26101e-08
-3.38922e-06
-0.00103479
6.2258e-09
-0.000648662
-2.36544e-08
5.82885e-09
-6.46245e-08
5.5562e-05
-3.19312e-05
-1.53518e-08
-1.64883e-05
-6.87132e-08
-3.19874e-08
-1.69181e-07
-6.07576e-05
1.95775e-08
-0.000419508
6.47982e-08
-0.00163995
-2.65003e-08
-0.000431144
-7.24999e-08
-4.23251e-08
-2.35609e-08
-0.000298484
-3.24253e-07
4.50306e-07
1.85447e-06
-0.000137635
-1.52269e-08
-0.000652951
-4.70061e-08
-1.11783e-07
-0.000586486
2.00896e-09
6.66372e-08
9.89694e-06
-4.07394e-08
1.26473e-06
-9.3104e-09
9.88013e-08
7.91006e-05
-0.000109384
-0.00015433
4.64625e-10
-0.000167394
3.45336e-08
-3.15647e-06
1.68454e-07
-1.71574e-08
-4.31632e-08
-8.84148e-08
0.00176813
-7.33087e-09
-1.62975e-06
2.87596e-06
-1.94341e-07
1.71803e-08
-3.9013e-08
-4.94813e-08
-0.000676468
8.03748e-09
-3.9676e-08
-4.84004e-09
-0.00023118
-5.3218e-08
-2.33094e-08
-8.64435e-09
-5.41365e-08
-0.000193168
1.90949e-06
0.000114059
-3.63792e-08
-0.000181937
8.23389e-08
1.97749e-08
-1.28697e-08
-4.39168e-05
-3.39286e-08
-3.90762e-08
-0.00065997
0.000469433
-3.22816e-08
-0.000130783
0.00111114
-4.39288e-08
2.8165e-08
-5.52642e-07
9.17467e-08
5.04924e-08
0.000378627
-0.000229966
3.4714e-05
-0.000681333
-2.72765e-08
-0.000513798
3.35562e-08
2.20292e-08
1.07864e-08
-8.05588e-05
1.67461e-09
4.30882e-08
-0.00103418
-0.000154118
-8.12979e-08
-0.000621687
-3.05968e-08
1.13697e-08
-0.00183324
-2.79672e-08
-7.65e-05
1.11044e-08
1.78282e-05
-1.65281e-08
-4.00641e-08
-1.54229e-08
-1.29249e-05
2.5609e-08
-9.99339e-05
0.000275047
-5.96798e-06
7.36401e-05
-0.000179307
7.52118e-09
-0.000206992
-0.00142599
3.04628e-06
-2.76225e-08
-3.79407e-08
-6.66944e-05
-0.000248992
-0.000918971
-6.07332e-06
-6.31606e-07
1.25753e-08
-5.78456e-08
-0.00056698
-1.27101e-06
2.57318e-08
-1.90211e-08
-0.000294805
-0.00337723
-0.000406162
-1.33747e-06
-1.02435e-08
3.75871e-08
-0.000178459
-6.80173e-05
-5.04197e-09
-1.68196e-08
-4.64189e-09
0.000391582
1.30327e-08
-0.000377141
-5.48824e-07
2.43441e-09
1.64044e-08
-0.000160152
8.46003e-09
-8.37238e-08
-4.11604e-09
-2.79743e-08
-5.5103e-08
9.45926e-05
-2.73169e-06
-0.000201415
-0.00093176
-0.000156587
-0.00117437
-5.84654e-08
0.000207897
-9.53567e-09
-2.36176e-08
-0.000507304
6.43038e-08
-3.86094e-08
-2.85765e-08
0.00024547
-0.0013779
0.000215009
1.1394e-09
-2.91551e-08
-4.88694e-08
3.96386e-08
3.02437e-08
-2.38067e-08
-2.10252e-07
-0.00027704
-6.47262e-08
2.94356e-08
-2.61995e-05
0.000404899
3.2416e-06
2.1247e-08
-0.0011512
-0.000143463
-3.52877e-08
-6.12708e-05
-0.000309323
2.85451e-07
-2.93203e-08
1.29625e-08
5.83371e-08
-2.96697e-06
7.16404e-06
0.00289377
4.07673e-09
-0.00136001
-0.000696222
-0.00015205
3.72967e-08
-0.000142632
-2.10663e-05
-0.000268763
-4.0772e-06
0.000968439
-1.0842e-08
-0.00015553
-0.000615795
0.00202734
-3.48652e-08
-4.21616e-08
-1.81233e-08
7.47347e-05
-9.92464e-09
-5.59215e-06
-2.73895e-08
-3.71398e-05
-3.56221e-08
-0.000260183
-0.00146277
-7.57816e-08
-0.000370401
-4.69726e-07
-9.88701e-07
-1.73253e-06
-0.00131238
-1.18551e-07
-4.01661e-06
-4.56027e-06
-0.00013259
-0.000383281
8.21153e-08
7.52432e-05
-0.00466204
2.0794e-08
-0.000740229
-1.24013e-05
5.80762e-09
-0.00273671
-0.000212903
-2.71579e-08
-1.91327e-07
-0.000187583
5.57957e-08
-0.000521321
9.77152e-08
4.2401e-08
-5.15633e-08
-4.56937e-09
1.39291e-08
1.16306e-08
-0.00104091
-2.82166e-08
-3.80579e-08
-2.98141e-08
0.000146958
-1.53706e-07
-9.80453e-08
1.20101e-08
-0.000531886
1.69652e-07
8.53458e-05
0.000105088
-1.23701e-07
0.00246175
-2.34041e-08
-3.85769e-08
0.000146682
0.000173671
9.77095e-09
-1.51122e-08
-1.14262e-07
3.91631e-08
-0.000209626
-1.49516e-08
4.13467e-08
2.88633e-07
-2.6296e-08
-0.000387303
-3.89919e-07
7.16689e-08
-7.09407e-09
-3.39917e-08
-4.4117e-08
0.000115206
-1.47741e-09
-4.8229e-08
0.000110349
7.1817e-08
5.44941e-05
-0.00104569
-5.73329e-08
-0.00114423
4.48691e-08
-0.000156215
-3.18776e-08
-1.7365e-06
6.28019e-05
0.000482412
-1.46587e-08
5.31115e-09
-1.67402e-06
-1.71717e-08
-0.000103555
-0.000668054
-0.000176638
-4.91334e-05
-2.01254e-07
-7.93874e-08
3.37881e-11
-0.000159144
-0.000242247
-3.59784e-08
-0.00378965
0.00269957
-7.44339e-08
3.79846e-06
0.000209204
-0.00128558
-7.60153e-09
-0.000221501
-0.00404009
-0.000173199
7.63753e-05
-0.000552131
-0.000586938
-1.96138e-07
3.41112e-08
-6.80617e-09
-1.64076e-07
2.49895e-08
-7.6563e-08
-0.00015569
-7.32175e-09
-6.8352e-07
-0.000380999
2.68071e-05
-0.00133761
6.62868e-07
-0.00224827
-5.62396e-06
-1.546e-06
6.16517e-10
-6.02036e-05
-1.9418e-08
-0.000831332
-0.000827967
1.30427e-08
2.63847e-06
-7.05606e-09
-0.00121371
-0.000702944
-3.2889e-05
-0.000543076
-3.89739e-08
2.33273e-08
-0.000151256
-8.9288e-07
-1.21496e-06
-3.87807e-08
7.31154e-08
9.36236e-09
-7.93601e-09
-4.4236e-07
-6.25802e-08
3.14107e-09
-9.08851e-09
5.10828e-09
5.92487e-08
-1.54186e-05
-7.67232e-09
3.43313e-08
7.94133e-08
-2.95106e-08
0.000278354
0.0019918
0.000385395
-0.000194341
-0.000926394
2.32862e-05
-0.000164013
-1.51109e-08
-2.8133e-07
-0.000145319
1.54845e-08
2.29516e-08
-1.56444e-09
-9.84349e-08
2.9821e-05
-8.31417e-07
0.000301795
-4.12543e-07
-4.22811e-08
-0.000170066
-0.000376912
-0.000591404
-0.00010274
-0.000239976
-7.45625e-08
-2.10507e-08
-7.09688e-09
-8.32787e-09
-1.41857e-08
-1.30478e-06
-0.000160444
-1.86864e-06
0.000150933
0.000294041
-0.000680589
-5.85531e-08
-4.71827e-08
-1.84612e-06
-3.68583e-08
4.12076e-06
-0.00104217
-3.03237e-08
-0.0038469
0.00107494
-3.49806e-05
0.000116609
1.05754e-08
-2.37618e-08
-3.98971e-08
-0.000113793
-3.85476e-08
-1.92201e-08
8.25598e-08
-8.53767e-10
-4.62295e-09
-0.000123657
6.46572e-08
4.91599e-09
-1.57797e-08
-1.03431e-05
-2.19497e-09
-4.15368e-08
-1.55467e-05
-3.10303e-08
6.68596e-05
-6.40212e-08
2.51164e-07
2.479e-08
0.0002047
4.72888e-08
-6.84912e-07
4.94002e-05
-0.00128516
-3.19374e-09
-0.00228112
-7.21534e-08
-1.14671e-08
-8.31044e-08
-3.11157e-08
1.10906e-06
6.11347e-10
-1.11946e-08
-0.000221052
-0.00010373
-5.51834e-08
-0.000232284
-3.35127e-05
-1.32131e-08
4.1338e-08
2.8226e-08
-2.63804e-09
-2.05005e-08
-0.000584554
3.03453e-08
-1.27545e-08
6.937e-08
0.00268875
0.00225409
-8.26274e-08
-0.000544234
-6.25885e-08
-0.000366631
-0.00108354
-3.10178e-08
4.3776e-08
-9.35119e-06
-6.49495e-08
-0.00360904
0.00021928
0.0013849
-2.1073e-08
-3.83913e-07
-0.000204058
-2.54879e-08
0.000421327
-0.00021767
-0.00136672
-3.92499e-08
-3.40035e-08
0.00220265
-1.61918e-08
-2.93504e-09
-3.61176e-08
6.05744e-08
7.2794e-08
-1.34022e-08
4.8805e-08
-0.00015981
-4.31813e-07
-1.69908e-09
-0.000165158
-2.734e-08
0.00109078
-2.1088e-07
0.000528234
-7.71511e-10
3.59325e-05
1.11424e-05
-3.76002e-08
-0.000131484
-4.42655e-08
-0.00068081
-0.00240066
-3.28436e-09
-0.000266799
-2.56478e-08
3.32943e-08
-0.000129043
-4.77048e-09
9.59475e-07
-2.21496e-08
2.49043e-08
-0.000425553
4.86959e-08
4.99747e-06
8.19074e-09
1.07219e-08
-2.12862e-08
-5.73535e-08
2.92442e-08
-1.78303e-08
-7.9733e-08
-2.83161e-08
-1.08508e-08
-0.0016129
-4.20922e-08
-2.46109e-05
5.20243e-05
2.6868e-08
-9.05766e-05
-3.01542e-08
4.85664e-08
-8.07159e-05
-0.000327637
-2.17084e-05
-0.000551733
-2.86903e-08
-3.32052e-08
-2.0866e-07
-3.36483e-08
-6.07879e-08
2.50788e-08
1.5033e-06
-0.00484081
-1.48764e-06
-3.70478e-08
1.51725e-09
0.000310185
-0.000137321
-6.77312e-08
0.000133624
-1.92444e-08
-5.68233e-06
-0.000390433
-0.000386629
-0.000108645
-0.000675178
-1.89103e-07
-0.000142894
-1.14769e-05
-2.12478e-07
3.1838e-08
2.58819e-09
0.00195014
-2.01188e-08
3.87942e-05
-7.36086e-05
-6.25779e-08
-6.47921e-08
3.45697e-08
4.59242e-05
-0.000416084
-1.2467e-07
-0.000147124
-1.96112e-08
-6.9563e-08
3.78658e-05
-6.59411e-08
5.6182e-08
-2.49955e-06
4.79994e-08
6.28559e-06
-0.000161811
-0.00186352
3.04717e-08
-1.01985e-08
-0.000246801
2.45514e-06
-0.00125972
-2.25058e-09
-0.00133098
-5.16741e-05
-3.35369e-05
-2.54135e-09
0.000151109
-3.19129e-08
-7.52241e-09
5.48072e-10
-3.42095e-08
-2.46729e-06
2.72735e-08
-1.00291e-07
1.47782e-08
-9.02715e-08
-0.00100455
0.000136548
1.93808e-08
-0.00349448
-8.61273e-07
0.000341236
-0.000969734
-0.000398966
-8.62833e-09
3.90298e-08
1.12357e-05
-1.59672e-08
-1.53338e-08
-2.38861e-09
-5.4771e-08
5.72496e-06
-1.84858e-07
-0.000203799
-0.000103823
-3.0439e-08
1.73126e-08
-2.18592e-08
-4.5503e-09
1.45592e-05
7.04345e-05
-6.18862e-09
-0.000654968
-0.000256325
-6.41739e-09
-0.000317989
2.46281e-08
-0.000316939
-1.19298e-07
-1.98107e-08
-0.000150569
0.000329022
3.11628e-09
-0.000160093
-7.40143e-09
-0.000258769
-3.19074e-09
-1.76045e-07
-0.000165767
-4.88917e-08
-4.29096e-06
-0.000348818
-3.37978e-08
1.42926e-05
-8.63973e-08
-0.000517558
-0.000573194
-5.61328e-08
-0.00115724
1.33978e-07
-2.24929e-07
1.77146e-08
1.10178e-05
-0.000121038
4.30762e-08
-0.0015499
-0.000190524
-1.73608e-07
0.000125745
-9.26731e-09
-0.00014864
1.07597e-08
9.27636e-06
-4.00258e-08
-1.48397e-08
1.87457e-06
-0.000195363
0.00238123
-3.98856e-08
2.29044e-06
-0.000590714
5.07583e-09
6.80192e-07
-0.00204953
-0.000665912
-0.00035749
-0.00031762
-6.12982e-06
-4.64252e-07
8.58576e-08
3.10235e-08
-0.000672887
-0.000183234
-1.88753e-08
-4.6811e-06
-0.000435628
-2.28523e-07
0.0029453
-7.76171e-05
-0.00110974
-0.000449239
-1.51089e-08
-0.000161942
1.98147e-08
-1.48527e-05
-0.000279817
-0.00374234
-0.000977756
1.59591e-05
-0.000138962
-0.00026038
-6.79977e-09
4.90033e-08
3.0205e-08
-7.67951e-08
-2.4948e-09
-1.14606e-08
1.55476e-06
-0.00025916
-6.64998e-05
-2.76132e-08
-0.000953365
-0.000233977
-2.13202e-06
1.37288e-05
5.37005e-08
-0.00100382
0.000112075
-7.18429e-09
-5.80503e-05
-4.28307e-06
2.29987e-08
-1.09307e-08
-0.000171678
-1.03254e-08
-0.00140601
-1.67727e-08
-6.31553e-09
-4.62396e-08
-0.000180213
6.62087e-05
2.16586e-07
-8.62019e-05
-0.000173555
-0.000719012
-0.00347876
6.21982e-08
2.17166e-07
-0.000936992
9.60533e-06
8.42308e-09
-1.66088e-06
-0.000157657
1.00158e-05
7.34505e-08
-9.15635e-12
-0.000408962
-1.51394e-05
-3.3918e-06
-9.74414e-05
-0.000620273
-0.000181543
-6.90307e-09
1.52803e-08
9.11357e-08
2.80385e-06
-6.32103e-05
1.6079e-08
8.32458e-08
-0.000217988
-2.64512e-06
-4.43846e-07
-1.63756e-07
-8.11049e-09
-2.41794e-08
-2.79388e-07
8.19207e-09
1.17236e-05
-4.9469e-09
-1.93461e-08
-0.000457969
-0.00064955
-0.00324572
-7.77019e-08
-7.24145e-09
-0.000232128
2.04223e-08
-3.44034e-08
-1.11183e-08
4.39109e-10
0.000106087
1.01768e-07
4.67333e-08
1.47739e-08
-1.60732e-08
-6.08232e-08
0.00017508
-2.7224e-08
-1.28022e-07
0.000311041
-3.1624e-08
-1.01203e-08
-1.78893e-08
7.57386e-06
6.3284e-06
5.49897e-08
-4.34859e-08
4.7122e-07
-4.39981e-05
1.09009e-08
-6.38474e-07
-6.25127e-08
8.48479e-06
2.86767e-08
-5.1327e-07
-4.1915e-09
-4.37872e-05
0.00076682
-4.78961e-06
-6.23716e-09
6.99122e-06
-1.5098e-07
-1.82083e-08
-7.9933e-07
-6.84286e-08
-2.73475e-08
2.41877e-06
2.73696e-07
-1.7364e-07
5.10347e-08
1.52486e-08
1.24376e-07
5.14947e-07
-9.75534e-09
-0.000773761
-0.00035683
-1.07315e-07
-1.17793e-08
-1.58277e-08
-6.81384e-06
-6.55015e-08
2.30676e-10
5.33225e-08
-2.1609e-07
-3.32736e-08
3.07805e-08
0.000219066
-8.5863e-09
-1.35092e-06
-4.0913e-09
-5.78315e-09
3.61546e-09
-1.05297e-06
-3.05097e-08
4.69057e-08
-9.39916e-09
-5.26102e-09
-2.47081e-09
0.0030538
8.49293e-09
-0.00019587
-0.000139784
1.2922e-08
-0.00033263
0.00018879
0.000136973
-6.44046e-05
-2.26418e-08
-8.17543e-09
1.44543e-05
-4.29388e-06
9.21059e-09
-1.57393e-08
-5.2974e-08
-5.01576e-06
1.30474e-07
6.10779e-08
-5.0703e-08
1.83422e-10
-1.64921e-05
-3.2375e-08
-6.26928e-08
6.05316e-08
1.24972e-07
-9.49056e-08
-2.00287e-07
-1.09477e-08
-0.000294647
-1.79039e-06
2.78614e-08
-6.67499e-08
-4.60537e-08
2.04888e-07
-3.57053e-08
-0.000102041
3.70211e-08
-5.07299e-08
-0.00035766
-1.49411e-06
-1.58591e-08
-1.1725e-07
1.22809e-08
6.77682e-08
-1.30071e-08
1.01722e-08
-4.31381e-08
-0.000250307
4.71706e-06
-0.000588514
2.086e-06
5.24814e-08
-5.96013e-08
-1.6391e-06
-3.67935e-08
6.44548e-06
3.80457e-08
-0.000560452
8.2907e-09
-7.49678e-08
-4.63167e-09
1.40055e-05
-0.00268915
-6.80258e-05
-0.00354554
-7.08814e-08
-7.79169e-09
0.00337178
-0.000359447
-0.000200095
-0.000818599
-1.91162e-09
3.19822e-06
-7.14469e-08
-4.09409e-09
-6.41029e-08
-3.15964e-08
-3.64113e-08
-1.70986e-08
-0.000350984
1.63056e-08
-4.44181e-08
0.000179056
1.79358e-08
6.04681e-08
4.31157e-08
-0.00100198
5.61509e-06
3.46778e-09
1.25279e-06
-1.08242e-07
-4.69535e-06
3.71872e-05
-1.77911e-09
1.28208e-06
3.12025e-08
-1.47967e-06
-2.05987e-07
0.000180669
-1.01993e-07
-0.000592986
3.2637e-08
-1.82575e-08
-2.10025e-10
-8.84698e-09
1.36006e-08
-1.40861e-08
-0.000187878
-0.00177872
9.50934e-09
-0.000296354
-0.000218187
-1.44329e-08
-6.08099e-08
-0.0029694
-8.99093e-06
-2.60569e-06
-0.000100685
-1.82674e-07
3.79874e-08
-1.90136e-08
-0.000433224
5.06404e-08
-2.67779e-06
0.000139313
-0.000430223
-7.23139e-09
-5.38238e-08
-2.57277e-05
1.54847e-06
2.53521e-08
-4.72937e-06
-2.45679e-08
0.000273498
-2.13699e-09
-0.000409739
-1.89486e-05
-0.00109343
-4.49378e-08
-6.4561e-05
1.11365e-08
8.41888e-05
5.64923e-08
-2.30275e-06
-3.73222e-08
1.16598e-06
-2.01863e-05
9.72711e-09
-3.74032e-05
-0.000212386
2.0438e-08
-0.000163157
3.5103e-08
-5.82481e-08
-1.26767e-08
-5.48945e-05
-5.73446e-08
-0.000222593
-3.12916e-05
-0.00179621
7.97578e-09
-2.35512e-08
1.01216e-08
7.678e-05
-3.33128e-08
1.54976e-06
-3.26048e-08
-2.51823e-05
-1.59604e-08
1.93006e-06
-0.000125785
-3.87546e-09
-0.000592262
3.19528e-07
-1.30057e-06
-4.1789e-08
-2.8563e-08
-6.40164e-08
-1.34419e-08
-1.28246e-06
-2.59549e-08
-1.77647e-08
-6.43661e-06
2.93337e-08
6.10482e-05
2.6237e-06
4.73985e-07
-0.000169067
-8.12542e-08
-0.000155474
-0.000136523
-0.00276833
-0.000477646
3.82634e-08
-7.99865e-06
-0.00350709
-6.78892e-08
-1.51545e-07
-3.36447e-08
4.92916e-08
-3.53895e-08
-9.59447e-06
-1.32642e-07
3.65948e-07
-2.62777e-06
0.000179927
-1.04541e-08
3.14572e-06
-6.00528e-05
-0.000457605
-0.000178259
-2.12339e-08
4.69494e-08
8.95949e-09
-0.000106972
0.000343678
-1.13272e-06
-0.00032446
3.98225e-08
6.18439e-08
-1.54135e-08
-1.69713e-07
-2.84527e-08
-0.00104923
-1.51686e-07
-1.39885e-08
0.00100838
-5.83351e-08
2.76031e-06
3.7043e-08
0.00191821
-4.59186e-08
1.29145e-09
2.15618e-08
3.66092e-08
0.000975314
-1.7918e-08
-7.71551e-08
2.32767e-05
-1.07787e-07
-4.03246e-10
-6.47052e-08
-1.07598e-07
-3.51238e-06
-2.17768e-07
6.04985e-06
-9.69838e-09
3.90514e-08
-1.03199e-07
1.63784e-06
1.18158e-05
2.7544e-06
2.23136e-06
1.1938e-09
1.62313e-08
-0.000234705
1.15137e-08
7.56858e-09
5.6148e-08
6.61836e-08
-5.86791e-08
-5.90422e-08
-4.8087e-05
0.000178732
6.97094e-07
-0.001891
0.00258347
-4.3712e-08
2.37705e-05
-3.57104e-06
-2.92686e-05
-1.51921e-09
2.16527e-08
0.0024306
-1.76582e-07
8.33866e-09
0.000252236
2.08815e-09
1.42751e-07
-0.00187581
7.63861e-06
-1.06569e-08
-7.14928e-08
1.55142e-08
-0.00047165
0.000100266
7.77478e-08
-4.43281e-08
2.42294e-09
-0.00125087
1.42233e-05
-1.81318e-07
-1.81902e-07
2.9329e-08
-0.000493153
8.5531e-05
-9.08716e-09
-4.48656e-08
2.08583e-08
-3.88046e-10
4.92896e-08
0.000267597
8.52336e-05
-1.35133e-08
-2.49559e-08
-0.000822178
-1.14222e-07
-2.88617e-08
-2.58012e-08
1.63001e-08
1.21175e-08
-0.000142254
-1.53237e-07
-5.26207e-06
0.000495895
-1.07475e-08
4.84739e-08
9.7106e-09
-0.00131312
-2.05726e-08
-0.000210585
-1.23793e-05
-1.95782e-05
-2.96104e-09
1.34479e-05
0.00015985
-3.48625e-08
-0.000485325
6.3615e-05
0.000202842
-1.32291e-08
-8.1233e-09
-1.04885e-05
1.87065e-08
-0.00118561
9.58163e-05
0.00297568
3.04436e-08
-5.40016e-08
-0.000544277
-0.000539625
-3.99842e-08
-7.02777e-08
-4.51261e-07
7.34291e-08
8.94524e-05
-0.00024417
-0.00109525
-1.20397e-07
-2.34162e-10
6.8077e-10
0.00163935
-0.000295113
-1.74536e-08
1.59414e-05
-3.69105e-06
0.00268957
-4.46635e-08
-9.25798e-08
-0.000230368
-0.000127807
-1.35567e-07
1.70117e-05
-1.22489e-08
-1.81102e-06
-1.67912e-07
-4.5311e-08
-3.23606e-08
7.26832e-09
-5.38753e-09
-0.000233157
-0.000977404
-0.000668194
5.91686e-09
-0.00394586
-3.02026e-08
-9.77652e-06
2.34432e-08
-0.000177027
-0.00048062
6.63164e-09
-7.76498e-08
-4.56791e-08
-5.56481e-08
-2.62836e-08
-2.41258e-05
9.56529e-07
-5.66815e-08
-4.91075e-06
-1.91034e-08
3.03833e-08
-0.00162118
0.000251604
-2.38103e-08
-2.13281e-05
0.000128856
-1.99419e-05
-2.94607e-05
-3.48377e-08
-2.51893e-08
-3.1451e-09
-6.65762e-08
-1.30344e-08
0.000850612
6.7619e-09
2.31204e-08
1.40346e-08
-1.0466e-08
-9.11402e-08
-1.88067e-07
-6.53291e-08
5.32178e-08
-0.000100752
2.51016e-08
-1.18175e-08
-2.80624e-08
-0.000140352
-9.86531e-09
-7.24147e-09
-5.3261e-08
9.91637e-08
-0.000211349
4.39335e-07
5.14869e-08
-8.85933e-09
-7.66e-07
7.99741e-09
-1.57044e-08
-0.002799
2.36384e-05
-0.000376789
-2.70096e-08
-0.000144229
-0.000119686
-6.12706e-09
-1.13572e-08
-0.000320462
-2.27605e-08
2.77941e-09
-7.21369e-08
-0.000246953
-7.70585e-05
-7.29941e-08
3.95397e-07
-0.000913346
-5.5096e-08
-1.07466e-08
-3.19664e-08
-0.000332673
-6.31528e-08
-0.000594933
-1.25213e-09
8.56975e-07
0.000175985
-6.35921e-09
-0.000132429
-3.92471e-06
1.8951e-06
-1.85526e-07
-4.6691e-08
-4.50416e-09
-1.84981e-07
1.03365e-08
-0.000709599
0.000368245
4.0265e-09
-1.0532e-08
1.73594e-08
-1.94391e-08
-6.98719e-05
-0.000310041
-0.000352213
6.64165e-09
-4.99048e-08
-0.000114199
1.15461e-09
-7.01335e-06
-5.22166e-08
-2.26219e-05
-0.000288639
1.2168e-05
-4.89517e-08
-9.18494e-07
9.62192e-05
-7.68656e-07
-7.49304e-07
8.25214e-09
1.80696e-08
4.04947e-08
-0.000113355
3.7631e-08
-0.00135518
-1.3163e-07
-1.34921e-08
7.78941e-05
1.18502e-07
-1.24036e-08
2.38691e-08
2.62569e-09
-0.000147742
5.00485e-08
-4.76554e-09
1.88367e-08
-0.00163313
-3.66125e-08
-0.000262442
-0.000187226
5.46418e-08
-2.9719e-08
-0.000181585
-8.3844e-09
0.00104797
-0.000745688
-0.000531449
-1.10628e-07
-0.000139091
0.000137191
-1.72021e-08
-8.22318e-09
-2.31095e-07
1.07406e-08
-0.000930947
1.86707e-08
1.1743e-06
-1.18198e-07
-2.2371e-07
-0.000709373
-3.19553e-07
2.09993e-08
-1.15481e-08
-0.00032605
0.000146058
-0.00028965
-0.00026171
-3.80173e-08
-0.000180372
1.28929e-08
-0.000178689
0.000117026
8.37204e-05
-1.91869e-06
-0.000173834
6.58172e-05
0.000374689
-4.55721e-08
7.71524e-06
4.9099e-08
-2.81947e-09
6.74682e-09
1.25026e-08
-1.722e-08
-0.00194231
2.37996e-08
-1.88322e-05
-0.000123325
-0.000159372
-3.81763e-06
-1.22126e-07
-9.26785e-08
-7.30913e-08
5.86354e-08
-6.6008e-05
-0.000208157
-2.63325e-06
-1.27288e-08
0.000543429
-4.03271e-05
1.35348e-08
0.000107943
-0.000268377
2.12947e-08
4.77764e-08
0.00010285
-0.00211958
-3.16778e-08
-2.3367e-08
-1.37399e-07
6.16937e-09
-0.000654363
9.5067e-05
-1.18169e-07
-2.17352e-08
-0.00074284
-4.6939e-08
4.24919e-08
-2.7309e-08
6.63543e-05
-1.72918e-06
-2.5614e-07
-5.81234e-09
4.17397e-07
-1.95925e-06
-4.63494e-09
-0.000148325
-1.83446e-05
-0.000226852
-1.58993e-05
-0.000561842
-4.42929e-05
-0.0014393
0.000138759
3.86203e-08
-4.71959e-09
0.000880635
-0.00142018
-0.000123583
-2.94362e-07
1.34271e-08
-5.77505e-08
-1.02177e-06
-6.58889e-08
-6.45543e-05
-3.24583e-05
-5.21964e-05
3.23382e-09
1.84164e-08
2.36058e-08
2.71975e-08
-0.000166542
-0.00261513
5.36894e-09
-0.00370489
-0.00105923
-0.000309762
4.52153e-08
-0.00314467
5.87048e-08
-2.90028e-08
-0.0011575
-5.24782e-08
-7.48136e-08
5.79457e-08
-0.00177474
-7.07443e-05
-1.8471e-07
1.81824e-05
-0.00060017
-2.76333e-08
-9.3669e-08
-6.79341e-08
-9.3987e-09
-0.000569265
-0.000351287
-1.22989e-09
-0.000459719
0.000454451
-2.14796e-08
-0.000264781
-0.000536039
-2.89136e-06
-3.35726e-09
3.90792e-09
-0.000891123
-2.94247e-08
1.78644e-07
-6.63598e-08
5.61991e-07
-1.49426e-07
-0.000179546
-0.000197328
3.66718e-08
-4.68639e-08
-0.000661553
-0.00258833
-0.00105298
8.32558e-08
8.8116e-05
-2.50233e-08
-7.02897e-05
0.00012804
-0.000701993
1.37892e-08
-1.56769e-08
4.0875e-08
-4.36814e-08
-0.000665894
-1.34258e-08
5.72118e-08
-0.000155845
1.98385e-08
-8.59265e-09
4.63916e-09
-0.000782007
-0.000452093
-9.36873e-05
4.48815e-08
-0.00050203
-1.57414e-08
-9.87719e-09
1.71502e-05
-0.000936207
-0.000622287
0.000627604
-1.92305e-08
-0.000205385
0.00268023
-1.38723e-09
-8.42219e-05
1.40521e-07
1.3559e-08
-1.79468e-08
1.77857e-08
-4.33787e-09
1.8443e-08
1.37326e-08
-0.00026461
-3.81718e-08
-1.3318e-08
-3.41144e-09
-1.36744e-07
-1.65732e-06
-5.44168e-08
-2.85298e-08
3.75307e-08
0.00047717
-5.31997e-08
-3.37343e-08
-2.91344e-09
-3.60802e-08
-9.2569e-06
7.98156e-08
-0.00054518
-0.00106699
-1.20056e-07
-0.000234518
-6.95393e-08
-2.06113e-06
-0.000441857
3.20928e-08
7.57101e-05
6.01108e-05
0.000200321
-5.88673e-08
-4.63626e-08
-8.83782e-06
-0.0021125
2.99072e-07
3.208e-08
-1.45145e-08
-0.000178283
2.6927e-08
-0.00160808
8.8591e-08
3.04082e-08
2.33183e-08
-4.98889e-05
-3.97182e-08
-1.60879e-07
7.46549e-08
-6.14591e-07
-7.87296e-07
-6.81012e-08
0.000223738
-0.00122641
-2.04106e-08
-0.000974423
7.31196e-08
1.30673e-06
0.00500662
-6.37488e-08
-0.000908572
9.01814e-05
-9.08327e-08
2.79454e-08
2.90607e-09
0.000155552
-0.000939503
-5.05549e-09
0.000290735
-0.000678576
3.68491e-08
-5.93192e-08
5.6958e-05
-7.55842e-06
0.00574081
-0.000112787
-7.86062e-09
-0.000165234
7.59027e-08
-1.55469e-09
-1.2948e-07
-4.61512e-08
-1.24847e-07
3.59349e-08
2.56578e-07
1.20111e-08
3.80645e-08
8.87728e-08
-0.000215318
8.1112e-09
2.79617e-05
3.50901e-08
-2.63186e-08
0.00227696
-3.3776e-05
-0.000545157
-2.84385e-08
-1.05897e-06
-1.27015e-07
-5.70088e-09
7.66229e-08
1.48337e-08
-1.51591e-06
5.56195e-07
-0.000207153
-5.10899e-05
-2.41165e-06
-0.000105805
-1.86058e-09
-1.57366e-05
2.13397e-08
-1.71968e-08
-0.000215617
-7.60464e-08
-0.000719747
1.77814e-08
-0.000163955
-1.32108e-05
9.14979e-07
-0.00207799
2.78905e-07
-0.000388231
1.40682e-08
-1.64657e-08
2.55365e-08
0.00109818
1.12456e-05
-5.73654e-08
1.49711e-08
-3.18072e-08
-7.90352e-10
-3.25074e-08
-0.000721101
-0.000153795
-2.49972e-09
-1.57924e-05
1.96904e-08
-1.29585e-06
9.99758e-08
-0.00167682
-3.25238e-08
-2.90678e-05
3.84307e-08
-0.00183059
-0.000421265
-2.51217e-07
-1.16149e-08
7.28059e-09
-2.25141e-06
-3.52033e-06
-0.000487297
-2.58306e-08
-2.27751e-08
3.81886e-08
-7.92719e-08
-4.43275e-08
-3.03055e-05
-3.4124e-08
4.76053e-07
-9.77987e-09
1.8472e-08
-2.33574e-07
2.05446e-08
-2.84175e-08
-3.55133e-07
-0.000116281
2.13615e-08
-7.46627e-07
1.55762e-06
6.45e-05
8.21138e-07