/*--------------------------------*- C++ -*----------------------------------*\
| =========                 |                                                 |
| \\      /  F ield         | OpenFOAM: The Open Source CFD Toolbox           |
|  \\    /   O peration     | Version:  v2012                                 |
|   \\  /    A nd           | Website:  www.openfoam.com                      |
|    \\/     M anipulation  |                                                 |
\*---------------------------------------------------------------------------*/
FoamFile
{
    version     2.0;
    format      ascii;
    class       volScalarField;
    location    "50";
    object      k;
}
// * * * * * * * * * * * * * * * * * * * * * * * * * * * * * * * * * * * * * //

dimensions      [0 2 -2 0 0 0 0];


internalField   nonuniform List<scalar> 
18649
(
0.00835872
0.000105816
9.26331e-05
0.0201543
0.00118321
0.000101611
0.0837416
0.00056453
0.000128394
0.000109255
0.000436137
0.0339353
0.057006
9.27397e-05
0.000121962
0.00011144
0.000110844
0.000111502
0.000496849
0.0630851
0.0517063
0.000103462
0.0180118
0.000438473
0.000112078
0.0599579
0.0001051
0.0353659
0.0061455
9.62073e-05
0.000101505
0.000194061
0.000125339
0.000107408
0.000108734
0.0146215
0.000110064
0.000109275
0.000100473
0.000511095
0.000133282
0.000405233
0.000136974
0.0310717
0.000105756
9.60079e-05
0.0388752
0.0211249
0.0512572
0.000103429
0.0731944
0.000105875
0.0802672
0.0933675
0.000125823
0.0539749
0.0494956
0.000156194
0.0206669
0.00010943
0.0084819
0.000122382
0.000136033
0.0230394
0.000109137
0.0249509
0.000102307
0.0510191
0.0201577
0.00120954
0.0279288
0.000120601
0.000205123
9.86681e-05
0.000107377
0.050121
0.000123474
0.000109114
9.85319e-05
0.00110819
0.000110436
0.0360822
0.0233923
0.0824615
0.000172824
0.000100372
0.000112328
0.000105091
0.000118322
9.94184e-05
0.000101468
0.000111347
0.000112227
0.0700419
0.000103706
0.000374394
0.000109387
0.000626864
0.019966
0.00010526
0.0177822
0.000133508
0.000107363
0.0746311
0.0188742
0.000105974
0.000138896
0.000101265
0.000134827
0.000107637
0.0164362
0.000276525
0.000112502
0.000107682
0.000342127
9.33969e-05
0.000126561
0.0609181
0.0301833
9.98974e-05
0.0201954
0.000106582
0.000195789
0.00012083
0.0429467
0.000111458
0.000149307
0.064328
0.000106638
0.0627517
0.000115544
0.024411
0.000111422
0.0237817
0.000110765
0.000141135
0.0259222
0.0506246
0.000101157
0.000108556
0.0128047
0.000107575
0.000103353
0.000120023
0.000136496
0.0388914
0.000103069
0.000126645
0.0184906
0.0190446
0.00217639
0.000142447
0.0226089
9.71991e-05
0.000107134
0.000120349
0.00057867
0.000869985
0.000125859
0.000113526
0.000128517
0.00504169
0.0218403
9.74156e-05
0.0442984
0.000343947
0.000138494
0.000119321
0.00010688
9.33878e-05
0.000115734
0.0286524
0.000149607
0.00119722
0.000109034
0.0937015
0.0163175
0.000105633
0.000126301
0.0019732
0.00367431
0.000100036
0.000145359
0.0470003
0.000103289
0.000110938
0.000137242
0.000107106
0.000104733
0.00011593
0.047993
0.000108525
0.0100221
9.77433e-05
0.000108379
0.000139703
0.000111735
0.000158243
0.000107343
0.000146871
0.000127276
0.000248694
0.0504989
0.000109675
0.000120514
0.000220029
0.0145317
0.0405823
0.000101389
0.0100728
0.000112714
0.000105598
0.000107157
0.00773271
0.0245091
0.000103715
0.000153161
0.00010895
0.0430846
0.000111804
0.000168766
0.000109232
0.0414784
0.0300996
0.0651069
0.0675861
0.000103395
0.000112015
0.0799503
0.091306
0.000104632
0.000111745
0.0173547
0.000111408
0.0649064
0.00497442
0.00050197
0.00107615
0.000111765
0.0140524
0.000105437
0.0415188
0.000104501
0.000100394
0.000107592
0.000116069
0.0727202
0.000113713
0.0713583
0.000154991
0.0185814
0.0822481
0.000110205
0.000108584
0.000103326
0.0328663
0.000109542
0.000112947
0.000107727
0.000107543
0.000103453
0.000260936
0.0111157
0.000113683
0.000108969
0.0347398
0.0948577
0.000140242
0.0489044
0.000106409
0.0373468
0.000240658
0.078079
0.0755349
0.000523983
9.75262e-05
0.000109304
0.0463494
0.0684822
0.0444561
0.000136534
0.000109387
0.0242219
0.000105595
0.0739164
0.0189362
9.68662e-05
0.000124703
0.000142715
9.85702e-05
0.000158803
0.0212393
0.0900648
0.00973894
0.0101148
0.000107237
0.00348411
0.00869978
0.000108002
0.0950636
0.00012482
0.000107412
0.000109575
0.0001209
0.000100255
0.00114286
0.00014174
0.000118215
0.00121859
0.000107399
0.0584192
0.00010923
0.0314288
0.000122336
9.70632e-05
0.000111464
9.64733e-05
0.000147551
0.0236273
0.035978
0.000140327
0.000129144
0.00013323
0.000143988
0.000121346
0.000103458
0.000137183
0.000113825
0.0622949
0.000215889
0.0106517
0.000119725
0.000131269
0.000134966
0.000124767
9.1584e-05
0.0445587
0.000108552
0.0332507
0.000110154
0.00536863
0.000125129
9.53836e-05
0.00010702
0.000101572
0.000123969
0.00014138
0.000105837
0.000100906
0.000111455
0.000122821
0.0551333
0.000122423
0.000103541
0.0103099
0.0690652
9.64833e-05
0.0550844
0.00375333
0.0434272
0.0878175
0.000101595
0.0860006
0.000121993
0.0647023
0.0591808
0.000109356
0.000108136
0.000108197
0.000101623
0.000108162
0.000103606
0.000124823
0.0451747
0.000114446
0.0632428
0.0106724
0.00505933
0.0705568
9.77718e-05
0.000148199
0.00010406
0.000112862
0.0502276
0.000147006
0.000142943
0.0263071
0.0912886
0.000100897
0.000103494
0.0116014
0.000130901
0.000112341
0.0635096
9.25505e-05
0.000108086
0.0140239
0.000101005
0.000143107
0.0452363
0.0446418
0.000109946
0.000116654
0.000131466
0.0450997
0.0455629
0.000108744
0.0156813
0.000105367
0.00010718
0.0825841
9.93212e-05
0.063733
0.00010111
0.000357501
0.0672073
0.0608724
0.0946127
0.000113133
0.0402488
0.000121638
0.0424951
0.000169796
0.062807
0.0895867
0.000103974
9.04704e-05
0.0146047
0.0442325
9.55478e-05
0.0747766
0.000100997
0.000103847
0.000110128
0.0640427
0.0586975
0.0273046
0.000101248
0.000111492
0.0284468
0.0252915
0.000108044
0.000107514
0.000103775
0.000105057
0.0444941
0.0625493
0.000127039
9.46197e-05
0.0164013
0.000101225
0.0121653
0.000103614
0.00428486
0.000129156
0.0637072
0.000109321
0.0937427
0.00936968
0.000105848
0.000128135
0.000103812
0.000120982
9.75717e-05
0.000114597
0.000105808
0.031648
9.86838e-05
9.91616e-05
0.0243896
0.000106277
0.000140976
0.0303162
0.000113511
0.0334315
9.65201e-05
9.60694e-05
9.41506e-05
0.000100473
9.23719e-05
0.000148882
0.00789326
0.000106916
0.000128144
0.000130197
0.000105137
0.0302476
0.000148025
0.0891248
0.000103387
0.0847774
0.041749
0.041545
0.0130514
0.000100697
0.000185685
0.000104576
0.0137831
0.000113164
0.000273572
0.000107346
0.000598742
0.000282296
0.000150304
0.000143558
0.00662644
0.000344542
0.0836943
0.000101905
0.0166294
0.000107993
0.000170458
0.000129567
0.000181288
0.0291405
0.000140972
9.46574e-05
0.0407178
0.000101213
0.000595666
0.000101994
0.000101739
0.000105062
0.000109294
0.000113871
0.00126014
0.000147228
0.0851104
0.000101769
0.0132186
0.0344792
0.0697669
0.0279595
9.91859e-05
0.0648136
0.000121007
0.0709146
0.00936014
9.929e-05
0.00013123
0.000333379
9.70719e-05
0.00124402
0.000107833
0.000139704
9.72442e-05
0.000128202
0.000147921
0.000107645
0.0781963
0.000106148
0.000106804
9.95821e-05
0.000103967
0.00892637
0.0686812
0.000112946
0.000135997
0.00151243
0.000151927
0.000130082
0.0483259
0.0891415
0.0610706
0.00134514
0.000104739
0.000103518
0.000101617
0.000101142
9.63341e-05
0.00827142
0.00011371
9.61457e-05
0.000100389
0.0616416
0.0619695
0.0402831
0.00010815
0.000116932
0.0442114
0.0260863
0.0487864
0.000105579
0.000140722
0.0523315
0.00012548
0.0403527
0.000104081
0.000108334
0.000109905
0.0109497
0.0199636
9.67032e-05
0.00108214
0.000109838
0.000107363
0.00644636
0.00540219
0.000118222
0.0719244
0.000101475
0.0767019
0.000107307
0.0843994
0.000108846
9.67386e-05
0.000117676
0.0626514
0.000125575
0.000129096
0.000139395
0.03297
9.57929e-05
0.0418133
9.92464e-05
0.000108787
0.0818214
0.000101609
0.000124776
0.000144693
9.80152e-05
0.000129488
0.000107028
0.00011594
0.0166454
0.0120355
0.0396224
0.000146623
0.0327189
0.000102996
0.00186845
0.00011033
0.00010056
0.000103168
0.000109217
0.0333044
0.000109748
0.000191016
0.000174266
0.000124536
0.000108194
0.000109592
0.000107811
0.0875295
0.000122765
0.000112269
0.000106922
0.0717157
0.000146795
0.000108271
9.31338e-05
0.000106502
0.0142757
0.000316966
0.0299426
0.000105696
0.0849325
0.000101383
0.000100915
9.78362e-05
0.0189577
0.000100654
0.0001026
0.0894258
0.0944327
0.000126358
0.0249737
0.062303
9.92575e-05
9.5635e-05
0.000140386
0.00011019
0.00011864
0.0535498
0.0284893
0.0088224
0.0902854
0.000120138
0.0728976
0.000118934
0.000119347
0.000100996
0.0220775
0.000106195
0.000108691
0.0529645
0.0253366
0.000100097
0.0164329
0.000105949
0.000127012
0.091124
9.86409e-05
0.00807435
0.000107324
0.00247669
9.29829e-05
9.58986e-05
0.000148384
0.00077667
0.000108038
0.0241676
0.0773324
0.000344511
0.0212116
0.0431916
0.000109583
0.0250482
0.0286599
0.000170976
0.000109795
0.000103269
0.0391033
0.0949603
0.0184154
0.000362376
0.000154474
0.000124501
0.000105855
0.0830249
0.00905435
0.000117383
0.000102972
0.0538751
0.0857905
0.0604785
0.000244341
0.000121185
0.00010819
0.0309235
0.0479936
0.000112901
9.88599e-05
0.000109847
0.0558384
0.00013004
0.0451457
0.000153425
0.000126355
9.19315e-05
0.0294404
0.000121587
0.000103373
0.000116098
0.00011569
0.000114445
0.0329745
0.000300877
0.00500784
0.0882871
0.0271132
0.058562
0.000148024
0.034433
0.000108143
0.000102037
0.0131316
0.000123635
0.000114807
9.96036e-05
0.0446955
0.0672381
0.0417742
0.000118591
0.000108218
9.99243e-05
0.000101505
9.1614e-05
0.000106486
0.000123621
0.0726539
0.000111517
0.000119569
0.00078405
0.0565878
0.000147769
0.000119798
0.0677036
0.0377107
0.000117669
0.0203187
0.00968578
0.000111405
0.000107853
0.000135114
0.000105674
0.0002527
0.0202723
0.0526059
0.000102159
0.0751343
0.0443203
0.0141318
9.55161e-05
0.021838
0.00054117
0.0336901
0.000168824
0.0674188
9.97508e-05
0.0244258
0.0918348
0.038886
0.000108798
9.42297e-05
0.000106007
0.00249496
0.000105078
0.000329852
0.000107191
0.00420166
0.000101641
0.033611
0.0601146
0.000102847
0.0102224
0.00014609
0.000223421
0.000182047
0.0680794
0.000120453
0.000317648
0.000301853
0.00242801
0.061261
0.000113173
0.0687415
0.0933583
0.000117779
0.0737194
0.000491728
0.000113404
0.0840484
0.0443279
0.000105886
0.000114387
0.052483
0.000117703
0.0640284
0.000112146
0.000117118
0.000115156
0.00010292
0.000120071
9.4214e-05
0.0576586
0.000149056
0.000100807
9.88144e-05
0.0944728
0.000127079
0.00012073
0.00010055
0.0644789
0.000108103
0.0178319
0.0291509
0.000108411
0.0859343
0.000106634
9.86448e-05
0.0832521
0.00231702
0.000109617
0.000115024
0.000107842
0.000105075
0.00594729
9.29923e-05
0.00012243
0.000117853
0.000141664
0.0403517
0.000130916
0.000108593
0.000127605
0.000102647
0.000105426
0.0308293
0.000115373
0.000107967
0.030082
0.000115743
0.0100177
0.0465365
0.000105963
0.0696467
0.000135605
0.0351885
0.000132197
0.000181727
0.0145843
0.004067
0.000108943
0.000121432
0.000180159
9.61339e-05
0.0242436
0.0401677
0.039367
0.00166167
0.000122581
0.000107349
0.00010532
0.0254344
0.0314014
0.000115795
0.0964318
0.059955
0.000107762
0.000229023
0.0044453
0.0410582
0.000100769
0.0287681
0.09375
0.0353955
0.0466813
0.0851416
0.0274913
0.000122934
0.000127043
0.000108223
0.000113229
0.000119938
0.000106014
0.0436419
9.20895e-05
0.000147052
0.0366498
0.00882638
0.0666689
0.000125055
0.0666779
0.000385006
0.000188632
0.00014817
0.0193487
0.000119798
0.0914834
0.0628143
0.000139521
0.000157126
0.000113488
0.0856855
0.0411958
0.00544615
0.029273
9.73291e-05
0.00010744
0.0270774
0.000222444
0.00883146
9.71798e-05
0.000121862
0.00012884
0.000105448
0.000132575
0.000112891
0.000106392
0.000108172
0.000107992
0.000110448
0.000476395
0.000114813
0.000104596
0.000117089
9.19045e-05
0.00218145
0.0868728
0.0544035
0.0276246
0.0886
0.00792969
0.00594814
0.00010791
0.000154921
0.0303456
9.30255e-05
0.000118668
0.000126799
0.000101156
0.017983
0.000206527
0.0469112
0.000148698
0.000105621
0.0334493
0.0380756
0.0486709
0.000349411
0.0313341
0.000107183
0.000120852
0.000124448
0.000149357
0.000107608
0.00063798
0.0245263
0.000185353
0.00372756
0.0274176
0.0719018
0.000105191
0.000120533
0.000302582
0.000105828
0.000244513
0.0207826
9.85422e-05
0.09412
0.0713237
0.0011416
0.0297028
9.40631e-05
0.000103948
0.000102493
0.0420637
0.000103619
0.000132025
0.000110343
0.000108263
0.000121114
0.0419516
9.71911e-05
0.000147961
0.000112469
0.000695205
0.000107286
0.000101821
0.020043
0.000108293
0.00378196
0.00010976
0.000118276
0.000107443
0.0458425
0.000112501
0.000249223
0.0272056
0.0855453
0.000101661
0.0699845
0.000113077
0.000101775
0.000116182
9.7624e-05
0.00018243
0.000102918
0.000103447
0.0424816
0.00190396
9.97384e-05
0.0480218
0.0407958
0.000117159
0.000111825
0.000101384
9.9698e-05
0.000109754
0.0923875
9.21877e-05
0.000121966
0.00010926
0.0848248
0.0342357
0.000107038
0.086498
0.000108937
0.00996858
0.053176
9.95582e-05
0.000137989
0.000453838
9.99452e-05
0.0897539
0.0748895
0.0327886
0.000122528
0.000141765
0.0423644
0.000118979
0.0327908
0.0467237
0.0675784
0.000113984
0.000128824
0.0877761
0.000108948
0.000104621
9.70178e-05
0.000104618
0.000108329
0.000108288
0.000110901
0.0352176
0.000145867
0.000126527
0.00403371
0.000128191
0.0678459
0.000122476
0.0544741
9.33442e-05
0.0328433
0.000298583
0.000125246
0.00250698
0.000114018
0.0428276
0.071442
9.40122e-05
0.0309158
9.59314e-05
0.000122961
0.0121983
0.000104626
0.00444883
0.000109181
0.000138421
0.0596122
0.000101133
0.000172652
0.000130623
0.000105233
9.33686e-05
0.000106399
0.000131193
0.000110409
0.000102547
9.27953e-05
0.000101431
0.083269
0.000127595
0.0111024
0.0199043
9.71696e-05
0.0444971
0.000112168
0.000118238
0.0495156
0.0626177
0.00164124
0.041793
0.000107893
0.000107216
0.000119846
0.000117539
0.000108669
9.18889e-05
0.000134149
0.0943918
0.000295015
0.000102975
9.78952e-05
0.0487957
0.0378663
0.000112969
0.0332338
0.000111617
0.000380245
0.0389411
0.0464828
0.0733334
0.0506344
0.000122749
0.0320013
0.00961785
0.00011967
0.000116129
0.000124221
0.0868985
9.79935e-05
0.00205136
0.0723354
0.000109137
0.000108022
0.00012396
0.0792556
0.0593307
0.000122974
0.0295823
9.80618e-05
9.94081e-05
0.0206984
9.23136e-05
0.000123217
0.00924003
0.000107468
0.000174739
0.0425427
0.0920784
0.000107641
0.000148047
0.0372569
0.000173344
0.0313592
0.000113151
0.0752028
0.00178052
0.0189417
0.000137098
0.0473942
9.97735e-05
0.000105698
9.97046e-05
0.000127697
0.000220876
0.000118268
0.00011346
0.000148639
0.000104519
0.0560549
0.0500927
0.000136804
0.0869229
0.000282023
0.088075
0.0525232
0.0706036
0.00010697
9.94598e-05
0.0028172
0.000104879
0.000148707
0.000109556
0.000108032
0.000249012
0.000134987
0.0301931
0.0232624
0.000147242
0.000107438
0.000116901
0.000129156
0.000337553
0.0448094
0.000123649
0.0698144
0.0499608
0.000114406
0.0944407
9.0986e-05
0.049726
0.000119677
9.34927e-05
0.0301954
0.07547
0.000127517
0.0444361
0.000108317
0.0365868
0.000103425
0.000122957
0.0490072
0.00010353
0.00521152
0.0563257
9.53795e-05
0.000750487
0.000104939
0.0637666
0.09279
9.74558e-05
0.0540957
0.00011025
0.000129332
0.000129949
0.000207385
0.0247307
0.000105482
0.0281638
0.0326518
0.000119548
0.0904305
9.82801e-05
0.041569
0.000117002
0.000315241
0.000109596
9.91658e-05
0.000140824
0.0325698
0.0398456
9.85394e-05
0.000173532
0.0677363
9.55233e-05
0.000179535
0.0685019
0.020349
0.0563978
0.053057
0.000325707
0.000133568
0.000101397
0.000124795
0.0925002
0.0518581
9.29875e-05
0.000846127
0.0603967
0.000120122
0.083502
0.000964185
0.0531426
0.0606618
9.8971e-05
0.0480446
9.77167e-05
0.000277811
0.05273
0.0875093
0.0875681
0.000304713
0.032126
0.0322483
0.000106533
9.14783e-05
9.51109e-05
0.000103311
0.000121711
0.000109276
0.00424997
0.0500094
0.0204172
0.000118746
0.0596282
0.0498799
0.000295395
0.00231931
0.00010113
0.0539968
0.0269298
0.00012127
0.011861
0.000317577
0.000115849
9.18459e-05
0.036229
0.000104688
0.0788952
0.000107659
0.000106956
0.000101525
0.0467122
0.0119049
0.000115517
0.00281921
0.0142157
0.0411747
0.0888449
9.11721e-05
0.000667883
0.0648537
0.00499527
0.000113694
0.000190656
0.043492
0.00470431
0.000122649
0.000145969
0.063481
0.00136957
0.000151385
0.0842404
0.0717911
0.0338348
0.000124989
0.000116301
0.000129398
0.000155308
0.00768722
0.000108854
0.00011288
0.000963093
0.000219162
0.000134417
0.000128513
9.11194e-05
0.000115658
0.000163967
9.1879e-05
0.000305795
9.27433e-05
0.00013062
0.0213739
0.0705204
0.0865074
9.25116e-05
0.00010304
0.0655265
0.00010539
9.1459e-05
9.96794e-05
9.83015e-05
0.0133742
0.000121784
0.000119699
0.00010949
0.000139165
0.000116773
0.0230104
0.000104915
0.000267531
0.00224982
0.000118116
0.000149393
0.000103719
0.000285527
0.00020116
0.000147512
0.000129997
0.000157442
0.00365134
9.49618e-05
0.000156485
0.000101636
0.00531843
9.73476e-05
0.000159475
0.000101777
0.0117094
0.0533012
0.00040113
0.000147204
0.041138
0.000117945
0.000112018
0.000256823
0.000147631
0.000121433
0.000173255
0.000111752
0.000120236
0.000112647
0.000133311
0.000119526
0.000129391
9.23971e-05
0.0201588
0.0632508
0.000104831
0.000109585
9.88732e-05
0.000403111
0.000142068
0.000135137
0.000109358
0.000123461
9.91343e-05
9.73897e-05
0.0946683
0.000131076
0.000184862
9.19983e-05
0.000109306
0.000105867
0.000273812
0.000123625
0.000116297
0.000106484
0.000109025
0.000111274
0.0516986
0.000115366
0.0314011
0.00329614
0.000130001
0.0609817
0.0398022
0.0332031
0.0194691
0.00010795
0.000118405
0.0108953
0.00029822
9.92896e-05
0.000108877
0.000106975
0.0158841
0.000118185
0.000117069
0.000142449
0.000147242
0.00104461
0.000115543
0.000105567
0.00012852
0.000116145
0.00010761
0.000121057
0.000105532
0.00859602
0.000182431
0.00012287
9.78484e-05
0.000123144
0.00011564
9.16469e-05
0.0258663
0.000116037
0.000109034
0.0623252
0.000233556
9.50559e-05
0.000124452
0.000107493
0.000122247
9.85403e-05
9.70177e-05
0.000114222
0.0228021
0.000201586
0.0672301
0.000430847
0.000126549
0.000116681
0.000183173
0.000107959
0.00103863
0.000116777
0.0499627
0.000116016
0.000112338
0.000109132
0.000348722
0.0747962
0.0196248
0.0870019
0.000121621
0.000108561
0.0777808
0.0646969
0.0494875
0.0356837
9.52653e-05
0.000241361
0.000105652
0.000108026
0.000129379
9.89105e-05
0.000107013
0.000104358
0.0637697
0.000100014
0.000102302
0.0380671
9.76132e-05
0.000109932
0.000125482
0.0603115
0.000313101
0.000103057
0.000128405
0.000108075
0.000286802
0.00694838
0.000147334
0.000127737
0.00011465
0.000188035
0.0001265
0.0363707
0.000114284
0.0742994
0.000127683
9.25016e-05
9.16685e-05
0.000147909
0.000116329
0.000106822
0.044088
0.0738087
0.000147303
0.0637086
0.0164373
9.69684e-05
0.000115598
0.0779674
0.000916129
0.000287009
0.0233707
0.000119718
0.000106775
0.000110525
0.0721627
0.000110739
0.000218348
0.0454666
0.0471481
0.000109957
0.000103133
0.00116735
0.000130438
0.000103568
0.000177165
0.000111309
0.0730517
0.000146507
0.0191064
0.0190453
0.0587406
0.000126702
0.00794483
9.9457e-05
0.00126504
0.000112347
0.000217007
0.000115154
0.0032841
0.00199367
9.28827e-05
0.0115475
0.0304936
9.09262e-05
0.0142548
0.000110265
0.000104185
0.000112758
0.00119696
0.000113964
0.0936087
0.00300608
0.0636265
0.000146184
0.000130448
9.75479e-05
0.0780451
0.000109533
0.00013418
0.000119001
0.0100534
0.00010177
0.000174472
0.0248359
0.000115026
0.0718744
0.000117928
0.000220662
0.000128192
0.000107827
0.000114924
0.000105032
0.000153818
0.00011636
9.50973e-05
0.000593368
0.000105055
0.0367135
0.000464345
0.000120562
0.030181
0.000103387
0.0278645
0.0268397
0.0767618
0.0674127
0.000110111
0.00319479
0.089168
0.000105043
0.000108469
0.000102865
0.000142542
0.00010785
0.000495378
0.000116372
0.000125429
0.000234652
0.0708888
9.94014e-05
0.000217134
0.0138245
0.0912408
0.0428244
9.56711e-05
0.000111468
9.91711e-05
0.0662685
0.000423067
0.000251308
0.0186786
0.000110292
0.000101071
0.00010862
0.000116276
0.000102827
0.059432
0.000118595
0.000103813
0.0714566
0.000105932
0.000157313
9.96333e-05
0.0887218
0.000108354
9.64972e-05
0.000128168
0.000107503
0.0930661
0.000107841
0.000106898
0.00725473
0.000117147
0.00011407
9.58662e-05
0.00011972
0.000289314
0.000120169
0.000245142
0.000110275
9.93149e-05
0.000119592
0.000164062
0.0443455
0.000173579
0.00549997
0.000104011
9.67344e-05
0.0347653
0.000135693
0.000104364
0.000109363
0.000104651
0.000106635
0.000106415
0.0105031
0.00445362
0.000207064
0.0716591
0.0193034
0.000123927
0.0195041
0.000279893
0.00266052
0.00010709
0.000102051
0.0867322
0.000112713
0.000102755
0.0477928
0.000111613
0.00012101
0.0749787
0.000217763
0.00013711
0.000111835
9.20543e-05
0.0212786
0.000975173
0.000115285
0.000101401
0.000120835
0.0559009
0.000341694
0.000124726
0.000128483
0.000135263
0.0651711
0.0280963
9.49974e-05
0.000119018
9.83134e-05
9.54879e-05
0.000103405
0.0261529
0.0364821
0.000104341
0.000126673
0.0917942
0.000111308
0.000104667
0.000107618
9.70005e-05
0.000104825
0.0406561
0.000135665
0.000328065
0.0685555
0.000127161
0.000127179
0.000133451
0.0367687
0.000103027
0.0523159
0.0106944
0.000921734
0.000148017
0.00251016
0.038714
9.31856e-05
0.0653226
0.0251126
0.09453
0.000104894
0.00011471
0.00232761
0.000105001
0.0569076
0.00094414
0.0688149
0.000119221
0.000109653
0.0448578
0.0689758
9.90071e-05
0.000131158
0.000132518
0.00013248
0.0303417
0.0340963
0.0879164
0.000127488
0.000105962
0.000147713
0.0395694
0.0166219
0.000115046
0.0290728
0.000272152
0.057818
9.86243e-05
0.000124006
0.019265
0.0265772
0.000117633
0.00675632
0.000106944
0.000185847
0.000112421
0.000109357
0.000143174
0.000121655
9.80633e-05
0.0441656
0.0545056
0.0633089
9.98286e-05
0.0967841
0.000148758
0.00886039
0.000122411
0.0502801
0.0246893
0.000127883
0.000102187
0.000109305
0.000116377
0.000117727
0.00158721
0.0192659
9.20576e-05
0.00950086
0.000125883
0.000104402
0.0584639
0.0218128
0.00010874
0.000179332
0.032277
0.00989067
0.00192454
0.000112564
0.000109219
0.000121761
0.000119619
0.000121233
0.0734273
9.11315e-05
0.00010911
9.22217e-05
0.000105823
0.000105399
0.000131897
0.000110474
0.000131833
0.0266503
0.000123278
0.000107259
9.74394e-05
0.0255881
9.44028e-05
0.000111546
0.00010432
0.000108912
0.0467312
0.000142223
0.000116541
0.000116499
0.00051985
0.000109333
0.000111965
0.0763393
0.000516431
0.0372893
0.000100032
0.0404539
0.0167931
0.000100122
0.000103982
0.0327202
9.36125e-05
0.000126299
0.000131031
0.00627248
0.0117568
0.000105219
0.000149386
0.0586443
0.000107981
0.000111916
0.000100932
0.0770639
0.00012068
0.0288799
0.000147709
0.000120678
0.0373266
0.000105946
0.0293124
0.000291067
0.00729724
0.000121806
0.000112117
0.000108213
0.00011783
0.000117331
0.0555642
0.0384442
0.000100088
0.000148653
0.000102524
0.00010556
0.00126683
0.0088308
0.0633103
0.000116563
0.000137136
0.0474749
0.000138967
0.000137881
0.000106126
0.00861283
0.0325238
0.00105909
0.000102242
0.000202367
0.0293296
0.000147233
0.000162052
0.000100126
0.000107519
0.000111887
0.0384368
0.000101614
0.0788458
0.000132247
0.000108712
0.0155314
0.000108185
0.000135671
0.000108999
9.99064e-05
0.0126364
0.000118043
9.60348e-05
0.000117456
0.0940215
9.58213e-05
0.0599669
0.0314593
0.000118064
9.60306e-05
0.047077
0.000102561
0.0593935
0.0732193
0.0663931
0.000167383
0.0387486
0.00434533
9.19143e-05
0.000114656
0.000151471
0.000126561
0.0881748
0.000107574
0.000192599
0.000111408
0.000122781
0.0723145
0.000126787
0.000118431
0.000110738
0.0336239
0.0193297
0.0335444
0.0711286
9.86122e-05
0.0511318
0.000133799
0.0512451
0.0307055
0.000841942
0.000265491
0.00341738
0.0337015
0.0539711
0.000114877
0.000208509
0.000104588
0.000104204
0.000107337
0.000107262
0.000109202
0.0736703
0.000111869
0.000721727
0.00328365
0.0142488
0.00467896
0.00011175
0.000104289
0.000105318
0.000120718
0.0114549
0.0196604
0.000215902
9.50138e-05
0.0908772
0.00100403
9.75259e-05
0.0293734
0.035066
0.000126377
0.000112134
0.011889
0.0689791
0.000107477
0.000103903
0.000119621
0.000101221
0.0720543
0.00180451
0.000122484
0.000101007
0.0831915
0.000110115
0.000104278
0.000107819
0.0332956
0.000215552
0.000123997
0.000100971
0.000120336
0.000203214
0.000109085
0.0438488
0.00042575
0.0363455
0.000169429
0.0639704
0.0220779
0.0642635
0.0338407
0.000101412
9.79173e-05
0.0557473
0.0831907
0.0494557
0.000125834
0.000100876
0.000104453
0.000159901
0.00011699
0.0250464
0.0113852
0.00966035
0.00010953
9.35886e-05
0.00013966
0.00010018
0.0310613
0.0746481
0.000104269
0.0872563
0.0522948
0.0725058
0.000110536
0.0852097
0.00010562
0.000126494
0.0543927
0.00011239
0.000101634
0.000110545
0.0718596
0.0205279
0.000129572
0.000198984
0.0874765
0.000147097
0.000116768
0.000106776
0.000108055
0.0368018
0.0671433
0.000126698
0.0670322
0.0368902
0.000139706
0.0599344
0.0664432
0.000222879
9.80256e-05
0.000105701
0.0722841
0.000100899
0.000116176
0.000117179
0.000182279
0.000115175
0.0354626
0.0145734
0.000107781
0.000103977
0.0496542
0.0867806
0.0590316
0.000138154
0.000342873
0.0001125
0.0139232
0.03192
0.036981
0.000101091
0.000147032
9.66838e-05
0.00012929
0.0702656
0.000110022
0.000118209
0.0121807
0.000135262
0.000109754
9.82694e-05
0.0702549
0.0439786
0.00191818
0.000132827
0.0926012
9.36087e-05
9.03571e-05
0.000427934
0.0954456
0.0436832
0.055297
0.000107298
0.0309765
0.0164886
0.000121996
0.00430355
0.000139061
0.000118381
0.000112888
0.000128132
0.000115646
0.000108478
0.000101372
0.0185595
0.000109066
0.000111014
9.38396e-05
0.000110968
0.000188215
0.000128635
0.000131469
0.000119971
0.0693984
0.000114332
0.000110035
9.51655e-05
0.000112492
0.000964891
0.000115493
0.0478945
0.057074
0.000104327
0.0191862
0.000110076
0.000205202
0.0624838
0.000126089
0.0235883
0.000727476
0.000384037
0.000112238
9.73631e-05
0.0103642
0.0840638
0.000121657
9.75643e-05
0.000108267
0.036525
0.00011122
0.0933636
0.000115378
0.000114538
0.000114685
0.0261622
9.8165e-05
0.000115418
0.00012208
0.000150495
0.000150967
0.000107751
0.00198549
0.0791299
0.000137623
0.0889364
0.000124491
0.000128807
0.0264946
0.000107357
0.055688
0.0306159
0.000106933
0.00011196
0.000114756
0.034887
0.0899085
0.000106797
0.0264842
0.0731715
0.000115918
0.000108117
0.00245751
0.000626375
0.0312245
0.0261926
9.27511e-05
0.0138366
0.000147577
0.000121606
0.000111101
0.000107456
0.000124194
0.000102749
0.00013426
0.000137266
0.000101258
0.000123243
0.0466167
0.000115381
0.000382127
0.000118851
0.000104557
0.0484836
0.0130383
0.0469105
0.000101177
0.000161048
0.000115069
0.000105369
0.000144002
0.000104471
0.00017912
0.000147528
0.0155188
0.0117627
0.000245434
0.005885
0.000103879
0.00975023
0.000118322
9.92101e-05
0.0163953
0.000104824
0.0737197
0.000130031
0.0129115
0.00981377
0.000133322
0.0681129
0.000121552
0.0193711
0.000105547
9.28203e-05
0.00012436
0.0686772
0.000292763
0.000110037
0.000120003
0.000102599
0.000127531
0.000108793
0.0410715
0.0045618
0.000101723
0.000670512
0.000122564
0.000173556
0.0021579
0.0708902
9.36627e-05
0.022043
0.000111971
0.0706859
0.0652585
0.000132071
0.000136886
9.69699e-05
0.000203991
0.00922048
0.0899321
0.000108004
0.000100853
0.000108277
0.000106586
0.000102468
0.0240473
0.000105592
0.000158926
0.000122014
0.000111981
0.000128606
0.000100671
0.000116004
0.00013813
0.0246239
9.6534e-05
0.000155354
0.000130282
0.0187624
0.000349241
0.0314099
0.00022724
0.000112352
0.00011018
0.0145405
9.86818e-05
0.000147738
0.000132399
0.000112976
0.000107075
0.000110527
9.49871e-05
0.000592412
0.000102978
0.000444703
0.0483951
0.000143528
0.0238737
0.000123019
0.0477026
0.000164594
0.000108369
0.000104422
0.000265583
0.075914
0.000106279
0.000108642
0.0743982
0.000114306
0.000103858
0.000299695
0.0630593
0.000113599
0.000104187
0.0689804
0.0709872
0.069095
0.000110948
0.000121396
0.0632391
9.68539e-05
0.000118465
0.000113971
0.00010803
0.000156112
0.000107105
0.0731553
9.77473e-05
0.000229697
0.000109565
0.00013628
0.000108662
0.0512788
0.0212527
0.0964917
9.57321e-05
0.0231104
0.00497868
0.0392102
0.000116834
0.000104172
0.0504303
0.000107003
0.036375
0.0277153
0.0239808
0.00010625
9.39821e-05
0.000109309
9.43243e-05
0.000111267
0.024104
0.0518243
0.000113498
0.078831
0.000105527
0.0439193
0.000119294
0.000116625
0.0684683
0.0741374
9.59849e-05
0.000102731
0.00279633
0.000111086
0.0698773
9.76589e-05
0.082572
0.00013191
0.0143662
0.053184
9.56973e-05
0.0339633
0.0354967
0.0755953
0.0012659
0.000135928
0.000186754
0.0195369
0.000115712
9.4651e-05
0.000117049
0.0653114
0.000121875
0.000110365
0.000139713
0.000132687
0.000119115
9.16836e-05
0.0708819
0.0575198
0.000300255
0.0193456
0.0407539
0.0001483
0.00137898
0.0260902
0.000106747
0.000118628
0.000105345
0.000108781
0.0164984
0.0800338
0.0916928
0.000109995
0.0374919
0.0540055
0.0248677
0.0503166
0.000104119
0.000267961
0.000106205
0.000103621
0.0533363
0.000503405
0.000162522
0.000123113
0.000133106
0.000114398
0.0113163
0.011421
0.095221
0.000101446
0.0140845
9.48551e-05
0.00467215
0.0296751
0.0292581
9.38327e-05
0.000114179
0.0118128
0.000118337
0.0113895
0.0001093
0.0293372
0.000113569
0.000129678
0.0685498
0.000101387
0.0737759
0.00010779
0.0111745
0.000119446
0.0691275
0.000115882
0.0601847
0.0249315
0.0770908
0.0255308
0.000115333
0.0235836
0.000928829
0.000105807
0.000218699
0.0495512
0.00010164
0.000118878
0.0688162
0.000103518
9.97681e-05
0.0510549
0.000147768
0.000147865
0.0881902
0.0402599
0.0831309
0.000128195
0.0160739
0.000115838
0.000103144
0.0285094
0.000100199
0.00010076
0.0228353
0.0278787
0.000814609
0.084939
0.000121525
0.000221788
0.0124533
0.0117933
0.000112748
0.000239976
0.0668719
0.0836857
0.0120242
0.000101279
0.000108394
0.000109847
9.68215e-05
0.00010474
0.000101909
0.000115756
0.00719742
0.029862
0.000111545
9.81579e-05
0.000110363
0.000115543
0.000127683
0.0557066
0.000546222
0.0130847
0.000740212
9.52982e-05
0.000103467
0.00127033
0.000104308
0.0188289
0.000118256
0.0129892
0.000416344
0.0501542
0.000136382
0.000106679
0.000133827
0.0325461
0.000156941
0.000120464
0.0203931
0.000110717
0.00010752
0.000107966
0.000114147
0.00513814
0.0120544
0.000136441
0.0944857
0.0482811
0.000105082
0.0443673
0.000208883
0.0879803
0.000157138
9.37161e-05
0.056389
0.0759222
0.000108162
0.0281118
0.000143284
0.000116772
0.000132093
0.000100111
0.0270303