/*--------------------------------*- C++ -*----------------------------------*\
| =========                 |                                                 |
| \\      /  F ield         | OpenFOAM: The Open Source CFD Toolbox           |
|  \\    /   O peration     | Version:  v2012                                 |
|   \\  /    A nd           | Website:  www.openfoam.com                      |
|    \\/     M anipulation  |                                                 |
\*---------------------------------------------------------------------------*/
FoamFile
{
    version     2.0;
    format      ascii;
    class       volScalarField;
    location    "50";
    object      nut;
}
// * * * * * * * * * * * * * * * * * * * * * * * * * * * * * * * * * * * * * //

dimensions      [0 2 -1 0 0 0 0];


internalField   nonuniform List<scalar> 
18649
(
0.00248219
0.000462647
0.00045559
0.0102304
0.00185644
0.000465362
0.0335622
0.00123909
0.000544225
0.000459481
0.00107246
0.0191498
0.0149116
0.000454546
0.000461968
0.000497372
0.000458369
0.000497599
0.00113883
0.0240806
0.00728216
0.000457938
0.00448475
0.00113701
0.000458708
0.0242714
0.000457552
0.0205863
0.00386128
0.00045329
0.000456702
0.000668079
0.00046319
0.000462787
0.000459331
0.00297923
0.000472597
0.000458351
0.00045489
0.00118293
0.000556451
0.00108603
0.000567341
0.0181624
0.000462763
0.000453247
0.014825
0.0106776
0.00499739
0.000456335
0.0493899
0.000474322
0.0101871
0.0233346
0.000463007
0.00511952
0.0287314
0.000607981
0.00546825
0.000459458
0.00260221
0.0004621
0.000565768
0.0110022
0.000458332
0.0114107
0.000456353
0.029509
0.00903098
0.0020536
0.0149587
0.000461676
0.000686336
0.000461628
0.000462051
0.00754194
0.00050887
0.000476576
0.000461243
0.00184336
0.000458225
0.0148551
0.0124679
0.0102894
0.000623412
0.000454958
0.000479766
0.000471948
0.000506998
0.000463155
0.000473389
0.000459347
0.000459318
0.0379043
0.000457778
0.000980315
0.000459405
0.00130752
0.00854597
0.00045756
0.00440285
0.000534863
0.000457258
0.0494734
0.00845687
0.000474613
0.000466603
0.000457158
0.000537846
0.00046118
0.00420833
0.000807226
0.000459338
0.000460881
0.000963984
0.000456119
0.000463168
0.0318081
0.0175159
0.000455355
0.00569004
0.000458128
0.000669708
0.000461495
0.0212155
0.000458649
0.000469106
0.0256014
0.000458109
0.0318743
0.000460077
0.0130344
0.000458642
0.00518734
0.000474753
0.000467253
0.0138689
0.029105
0.000473164
0.000474834
0.00748893
0.000457848
0.000456084
0.000461681
0.000466159
0.0228707
0.00045592
0.000463277
0.00424151
0.00864672
0.00265434
0.000467604
0.012037
0.000454728
0.000457962
0.000461234
0.00123111
0.00157771
0.000463021
0.000459681
0.000463728
0.00411934
0.00583625
0.00045478
0.0214896
0.000963191
0.000466472
0.000461426
0.000457871
0.000455589
0.000460028
0.00416555
0.000593266
0.00192905
0.000458381
0.026714
0.00283115
0.000463369
0.000463191
0.00236647
0.0032984
0.000455041
0.000468356
0.0251221
0.00046614
0.000498472
0.000466277
0.000457738
0.000487223
0.00049237
0.00856033
0.000458117
0.00239148
0.000454814
0.000457652
0.000466618
0.000477947
0.000592722
0.000462048
0.000468772
0.000463438
0.000797306
0.029555
0.000471429
0.000512563
0.000707723
0.00408545
0.0144503
0.000456959
0.00244023
0.000459444
0.000460564
0.00045815
0.00188119
0.013198
0.000456425
0.000576435
0.000457928
0.0209963
0.000459026
0.000641863
0.000458117
0.00580206
0.00530243
0.0230454
0.0360412
0.000456317
0.000459094
0.0110112
0.0251027
0.000487875
0.00045871
0.00330808
0.000496608
0.0236604
0.00378601
0.00115988
0.0017014
0.000458659
0.00616542
0.000456606
0.0251083
0.00048702
0.000455026
0.000461253
0.000492581
0.0132452
0.000459759
0.00349576
0.000585059
0.00318216
0.0337282
0.000496882
0.000459491
0.000466702
0.019463
0.000458408
0.000459516
0.000461468
0.000461456
0.000456344
0.000781482
0.00319755
0.000459744
0.000457859
0.0150888
0.0295045
0.000467195
0.0275479
0.000457082
0.0213298
0.000752055
0.0108644
0.00359834
0.00117904
0.000454967
0.000457859
0.0125301
0.0357781
0.0209144
0.000466058
0.000458179
0.013244
0.00046806
0.0093914
0.00432315
0.000454805
0.000512595
0.000467734
0.000454458
0.000619758
0.00494504
0.0306658
0.00661251
0.00389418
0.000459057
0.00274851
0.003741
0.000457471
0.0284857
0.000462673
0.000463069
0.00045929
0.000461764
0.000455221
0.00189064
0.000467452
0.000517376
0.00183741
0.000462435
0.0245985
0.000459487
0.000886859
0.000462126
0.000454837
0.00045859
0.000455332
0.000468986
0.0126869
0.021225
0.000467038
0.000463873
0.000556663
0.000467879
0.000461873
0.000456656
0.000466142
0.000484857
0.0299466
0.000704836
0.00314621
0.000461492
0.000464702
0.000563845
0.000462649
0.000451527
0.0238618
0.000471895
0.00625351
0.000473088
0.0040401
0.000462947
0.000458332
0.000458195
0.000459356
0.000462356
0.000467802
0.000456737
0.000473066
0.00049656
0.00046218
0.0146265
0.000462043
0.00045655
0.00297127
0.0152111
0.000455793
0.0229243
0.00363414
0.0205956
0.0318759
0.000458921
0.0325082
0.000462104
0.0173528
0.00541673
0.000459447
0.000464897
0.000470666
0.000456685
0.000458204
0.000456091
0.000462744
0.02632
0.000486459
0.0234929
0.00304183
0.00361618
0.0140616
0.000458026
0.000466835
0.000487028
0.000458929
0.00789192
0.000468814
0.000467699
0.00326002
0.0303749
0.000457217
0.000456156
0.00463817
0.000533342
0.000459395
0.0419695
0.000454032
0.000464682
0.00304653
0.000460344
0.000467845
0.0252979
0.0260398
0.000496755
0.00046043
0.000464724
0.0267204
0.0252188
0.000457907
0.00435603
0.000456614
0.000457637
0.0322968
0.000454745
0.0300838
0.000460441
0.00100191
0.0145861
0.015957
0.0275362
0.000459041
0.00255089
0.00046185
0.0116337
0.000623117
0.0188515
0.0230649
0.000456146
0.000451237
0.00568201
0.0199609
0.000458541
0.00384862
0.000457186
0.000459688
0.000458101
0.0316851
0.0157284
0.00248468
0.000456711
0.000459435
0.00431477
0.0140055
0.000464457
0.000459216
0.000456356
0.000456535
0.0204544
0.0255052
0.000463375
0.000453701
0.00401992
0.000455517
0.00249625
0.000456253
0.000205974
0.000530458
0.0181213
0.000471859
0.0229887
0.00210781
0.00046478
0.000543461
0.000459166
0.0005255
0.000457406
0.000459931
0.000468633
0.00495071
0.00045433
0.00045729
0.0133301
0.000456858
0.000467427
0.00911461
0.00045921
0.0197673
0.000454801
0.000455258
0.000453218
0.000465725
0.000453717
0.000469321
0.00594634
0.000457651
0.000520242
0.000464198
0.000469799
0.01757
0.000469082
0.0208803
0.000463923
0.0340221
0.023095
0.0232058
0.00356783
0.000466666
0.000653753
0.000487866
0.00351611
0.00045959
0.000814174
0.000461251
0.00117213
0.000856214
0.000576227
0.000468065
0.00551602
0.000961306
0.0318053
0.000455888
0.00501043
0.000461835
0.00064461
0.000464103
0.000645504
0.0167537
0.000467214
0.00045357
0.0220882
0.000455671
0.00125569
0.000455943
0.000465991
0.000457548
0.000486794
0.000459329
0.00192189
0.000468957
0.036422
0.00045599
0.00374268
0.00679457
0.0382751
0.0158822
0.000457077
0.0142009
0.00052523
0.0298408
0.00220849
0.00045489
0.000527248
0.000956929
0.000456085
0.00205081
0.000458346
0.000466864
0.000456124
0.000463763
0.00046884
0.000458303
0.00498299
0.000457063
0.000457381
0.000463935
0.000460094
0.00612364
0.0376944
0.000459469
0.00056591
0.00222524
0.000580769
0.000464177
0.0117445
0.0241502
0.00807042
0.00203853
0.000487461
0.000459184
0.000468057
0.00047316
0.000454825
0.00363424
0.000459444
0.000454693
0.000455056
0.0380718
0.0179492
0.0236719
0.000472974
0.000460341
0.0263153
0.0113248
0.00734642
0.000471427
0.000549201
0.032466
0.000462969
0.0219941
0.000460009
0.000460092
0.000459226
0.00729867
0.00817382
0.000454838
0.00185162
0.000473729
0.000459109
0.00120933
0.00506257
0.000460846
0.0294736
0.000473322
0.0487613
0.000458067
0.00862333
0.000486136
0.000466834
0.000462709
0.0172149
0.000527132
0.000545018
0.000574931
0.0187613
0.000458605
0.0251439
0.00045565
0.000474853
0.0304478
0.000465025
0.000462658
0.000558737
0.000456303
0.000550903
0.000457318
0.000460398
0.0080663
0.00573016
0.0187933
0.000468749
0.0192988
0.000456071
0.00239325
0.000497569
0.000455166
0.000456458
0.00045948
0.00726719
0.000459241
0.000667848
0.000652977
0.000513784
0.000458129
0.000458025
0.000461283
0.0267717
0.000462257
0.000479953
0.000457138
0.0508547
0.000468677
0.00046053
0.0004539
0.000457119
0.00268452
0.000924149
0.00692135
0.000463021
0.00924378
0.00047254
0.000455251
0.000470279
0.00817753
0.000460096
0.000456492
0.0262233
0.0260276
0.000463086
0.0137341
0.00554301
0.000455596
0.00045455
0.000561233
0.000459101
0.000461018
0.00578725
0.0154388
0.0016911
0.025617
0.000461411
0.00473805
0.000461199
0.000461081
0.000455005
0.0108306
0.000457508
0.000458114
0.032719
0.0140297
0.000457512
0.00426721
0.000472098
0.000463111
0.0329854
0.000461922
0.00582943
0.000458971
0.00318869
0.000452024
0.000458696
0.000469164
0.00149443
0.00045798
0.0125843
0.0117725
0.000952246
0.0063965
0.0201527
0.00047135
0.0130906
0.00467261
0.00064668
0.000459199
0.000456423
0.0142096
0.0278863
0.00454492
0.000959398
0.000586838
0.000462696
0.000464548
0.0299796
0.00205266
0.00046051
0.000460376
0.0297653
0.038779
0.0193764
0.000787271
0.00046285
0.000460226
0.0180582
0.0149798
0.000459037
0.000465819
0.000458019
0.00601064
0.000464203
0.00818295
0.000583583
0.000463165
0.000453096
0.0169611
0.000461857
0.000463469
0.00046042
0.000460599
0.000459749
0.00763808
0.0008539
0.00372781
0.031384
0.015326
0.0371182
0.000468502
0.00695039
0.000464834
0.000462642
0.00418701
0.000462307
0.000460079
0.000454912
0.00526786
0.0355098
0.00736406
0.000460986
0.00047039
0.000454903
0.000455347
0.000451654
0.000460498
0.000511471
0.051284
0.000477895
0.000461101
0.00147419
0.00458645
0.000568177
0.000460981
0.0346377
0.0186346
0.000460602
0.00936998
0.00438187
0.000501917
0.000469163
0.000465573
0.000460268
0.000778026
0.00737612
0.0144204
0.000456427
0.0488731
0.0272188
0.00370164
0.000454475
0.0113779
0.00120205
0.0195962
0.00061502
0.00782086
0.000455167
0.0133354
0.024928
0.00826548
0.000458237
0.000453588
0.000466906
0.00280941
0.000457559
0.00093208
0.000459095
0.00443995
0.000467853
0.0195986
0.0374732
0.00045599
0.00426693
0.000567362
0.000747276
0.000654235
0.0352123
0.000461409
0.000892286
0.00085318
0.002861
0.0186734
0.000459667
0.0137814
0.0404076
0.000460645
0.0239993
0.00115204
0.000459223
0.0370724
0.02405
0.000458104
0.000495677
0.0270046
0.000460751
0.021658
0.000459271
0.000460588
0.0004601
0.000474413
0.000461265
0.000452714
0.0366042
0.000469327
0.000460508
0.000455519
0.0267322
0.000518358
0.000461517
0.000455341
0.0213331
0.000458449
0.00844215
0.00404876
0.000473275
0.0198247
0.000460252
0.000466624
0.00973356
0.00274015
0.000471518
0.000459893
0.000471591
0.000469369
0.00374589
0.000453885
0.000462092
0.000516553
0.000467422
0.0246705
0.000535252
0.000458534
0.000463573
0.000466067
0.000467201
0.0052214
0.000460127
0.000457293
0.00601723
0.000460094
0.00393956
0.00437949
0.000465431
0.0344813
0.000465888
0.0207645
0.000464806
0.000653064
0.00845936
0.0030553
0.000488017
0.000461891
0.000648998
0.000455348
0.0127834
0.021979
0.00427323
0.00251439
0.00052156
0.000459113
0.000460264
0.0140857
0.0177958
0.000460087
0.0336356
0.0160628
0.000457533
0.000730157
0.00318867
0.00722374
0.000455482
0.0158508
0.0368509
0.0211575
0.0130909
0.0290038
0.00887638
0.000522757
0.000463063
0.000465611
0.000492843
0.000461074
0.000458204
0.0227822
0.000453867
0.000575119
0.0215731
0.00629074
0.043103
0.000511779
0.0083751
0.000991472
0.000660221
0.000469123
0.008994
0.000460962
0.0221205
0.00416476
0.000466586
0.000615882
0.000459676
0.0122046
0.023217
0.00484186
0.00449426
0.000453754
0.000458271
0.015285
0.000722992
0.00202094
0.000454033
0.00046168
0.000463781
0.000460071
0.000537645
0.000459017
0.00045696
0.000465034
0.000462073
0.000458713
0.00113712
0.000459872
0.000468045
0.000460453
0.000453575
0.00265727
0.0195305
0.00481907
0.0154394
0.0142457
0.00615599
0.0036734
0.000462072
0.000584126
0.0174062
0.000454332
0.000460786
0.000463276
0.0004569
0.00758408
0.000691389
0.00584747
0.000572351
0.000463556
0.0198385
0.0228661
0.00405125
0.000959256
0.0177891
0.00045912
0.000461854
0.000462832
0.000469333
0.000457614
0.00132053
0.0133796
0.000660482
0.00278607
0.00451938
0.0245064
0.000466295
0.000461525
0.000862053
0.000466372
0.000751989
0.00431411
0.000467499
0.0360576
0.00548525
0.00178355
0.00738248
0.000452528
0.000456529
0.00046524
0.0155927
0.000459566
0.000464642
0.0004592
0.000465668
0.000461713
0.0158537
0.000457078
0.000469034
0.000458763
0.00139417
0.000461495
0.000462414
0.0077898
0.000457658
0.00318581
0.000472327
0.000517298
0.000457721
0.0116671
0.000459396
0.00079687
0.00795007
0.0329176
0.000455686
0.0404307
0.000484137
0.000458618
0.000490274
0.000456228
0.000644169
0.000459877
0.000456403
0.0256172
0.00248524
0.000457454
0.0196583
0.0138061
0.000460555
0.00045915
0.000480343
0.000455753
0.000459263
0.0242382
0.000451876
0.000461972
0.000458364
0.0198102
0.00756977
0.000475524
0.0289219
0.000486691
0.00393037
0.0329633
0.000457339
0.000466408
0.00109449
0.000457429
0.0377773
0.0124999
0.00708561
0.000462053
0.000556618
0.0254153
0.000461095
0.0039755
0.0199808
0.043706
0.000459813
0.000463882
0.0207001
0.000469132
0.000456378
0.000467455
0.000457347
0.000458465
0.000460623
0.00045881
0.0208817
0.00056618
0.000463279
0.00350115
0.000463699
0.00635844
0.000520852
0.0318015
0.000454237
0.00592176
0.000903309
0.000462667
0.00274466
0.000459541
0.0259699
0.0403385
0.000455646
0.0169993
0.000453969
0.000462211
0.00239548
0.000456659
0.000208891
0.000488481
0.000466533
0.0223481
0.000455788
0.000624593
0.000464245
0.000458325
0.00045456
0.000473461
0.000464412
0.000458211
0.000455948
0.00045296
0.000456552
0.0341783
0.000463768
0.00311312
0.00623495
0.000457219
0.015214
0.000458879
0.000460688
0.0152094
0.0303752
0.00238957
0.0227843
0.00046181
0.000459195
0.00050826
0.00046066
0.000472428
0.000453156
0.00056263
0.0405053
0.000878193
0.000464889
0.000459012
0.00522459
0.0212565
0.000483917
0.00684486
0.000477951
0.00098365
0.0235479
0.0038101
0.05221
0.030973
0.000522379
0.0183875
0.00211791
0.000507203
0.000460236
0.000462508
0.0194046
0.000459159
0.00264963
0.0517027
0.000487249
0.000461276
0.000462685
0.00491741
0.0229385
0.000508343
0.0169364
0.000456129
0.000456943
0.00690836
0.000452903
0.000462242
0.00230968
0.000458604
0.000625122
0.0247673
0.032767
0.000458659
0.00046911
0.0225784
0.000649587
0.00593465
0.000459002
0.0114756
0.00255923
0.00785692
0.000467802
0.0124284
0.000455038
0.000460022
0.000455811
0.000463548
0.000737166
0.000460983
0.000459684
0.000469252
0.000458294
0.0335118
0.0286996
0.000465644
0.038748
0.000828567
0.0239905
0.0323615
0.0293597
0.000457382
0.000454922
0.00333016
0.000458324
0.000469736
0.000458044
0.000461616
0.000807102
0.000465697
0.0173096
0.0123649
0.000468973
0.000461093
0.000460377
0.000464024
0.000964262
0.0129111
0.000462446
0.0235131
0.0286705
0.000459557
0.0272579
0.000452415
0.0290799
0.000461255
0.000452214
0.0173913
0.0115271
0.000464338
0.0230479
0.00046046
0.022053
0.000457986
0.000523272
0.0260918
0.000465135
0.00493073
0.0231282
0.000455355
0.00142848
0.000471783
0.0228608
0.0295148
0.000456147
0.0337233
0.000459417
0.000539542
0.000464636
0.000689972
0.0134825
0.000460525
0.00477577
0.0193127
0.000503214
0.0249447
0.000454391
0.0217984
0.000460386
0.000922697
0.000459313
0.000454772
0.000577895
0.0192366
0.00848573
0.000467688
0.000649729
0.023997
0.000457555
0.000658582
0.0384668
0.00495976
0.0225828
0.0298405
0.00091993
0.000540917
0.00045564
0.000462844
0.0204053
0.0271584
0.000453179
0.00153063
0.0231401
0.000510958
0.0197238
0.0016734
0.0331391
0.0219971
0.000461131
0.02614
0.000466862
0.000815712
0.0294375
0.0451277
0.0202389
0.00085564
0.0183093
0.0183433
0.000462472
0.00045269
0.000454301
0.000463955
0.00046154
0.000457864
0.00417532
0.00360436
0.00964716
0.000461057
0.0382748
0.028289
0.000847201
0.00280909
0.000471051
0.0329794
0.00783105
0.000461683
0.00313294
0.000885369
0.000460215
0.000451846
0.0216809
0.000456721
0.00791963
0.000459115
0.000457413
0.000456497
0.0233021
0.00697189
0.000510133
0.00311242
0.00325801
0.0234694
0.0377594
0.000452551
0.00144815
0.0427312
0.000357618
0.00045962
0.00066757
0.0249681
0.000324534
0.000462185
0.000468524
0.025935
0.00211897
0.000571365
0.00902102
0.0256586
0.0201416
0.000462885
0.000460277
0.000464146
0.000612555
0.00511709
0.000459286
0.000459534
0.00168544
0.00073127
0.000544167
0.00046363
0.000452808
0.000460044
0.000602459
0.00045196
0.000868363
0.00045348
0.000464608
0.00481805
0.0205481
0.0379457
0.000453088
0.000474903
0.0450737
0.000458437
0.000453465
0.000454637
0.000454471
0.00119437
0.000462153
0.000461426
0.000458637
0.000466731
0.000460139
0.00481066
0.000456414
0.000790985
0.00251745
0.000460695
0.000469234
0.000457094
0.000877588
0.0007164
0.000468938
0.000464095
0.000588891
0.00403883
0.00045424
0.000590764
0.000463975
0.000453607
0.000457639
0.000593413
0.000455992
0.00319014
0.00822443
0.00102905
0.000468963
0.00782127
0.000498783
0.000459099
0.000777548
0.000468601
0.000461811
0.000649573
0.00050248
0.00050479
0.000459483
0.000465367
0.000461578
0.000545975
0.000452154
0.00483768
0.0267897
0.000472264
0.00047111
0.000455546
0.00103031
0.000467501
0.000465634
0.000458608
0.000523675
0.000462586
0.000459336
0.0266331
0.000464483
0.000653521
0.00045196
0.000459654
0.000459907
0.000807233
0.00046235
0.000460093
0.000462825
0.000469474
0.000458878
0.0106089
0.000460215
0.0183284
0.00311241
0.00046425
0.0264403
0.00916043
0.00428037
0.00924734
0.000468995
0.000460708
0.00674616
0.000859227
0.000461282
0.000457975
0.000480645
0.00450339
0.000460804
0.000460449
0.000467568
0.000468876
0.00169279
0.000459989
0.000459272
0.000463879
0.000460188
0.000470487
0.000507428
0.000462156
0.00430608
0.000654979
0.000462215
0.000456244
0.00046225
0.000510246
0.000453676
0.0132023
0.000460227
0.000458079
0.0265246
0.000742553
0.000453815
0.00046275
0.000457262
0.000462196
0.00046453
0.000453739
0.000459878
0.00533992
0.000678435
0.0208759
0.00106486
0.000463304
0.000460283
0.000641874
0.000461317
0.00180716
0.000460316
0.0302023
0.000460135
0.000459039
0.000469478
0.000993372
0.0411568
0.0094827
0.0460551
0.000461565
0.000460177
0.0173136
0.04391
0.0277116
0.00449739
0.000452965
0.000751852
0.000458989
0.00045939
0.000463967
0.00046137
0.000457408
0.000457812
0.0305327
0.000454791
0.000456035
0.00993213
0.000459496
0.000458636
0.00046304
0.00480471
0.000872339
0.000455888
0.000548162
0.000471832
0.000859152
0.00538169
0.000468892
0.000547231
0.000459758
0.000659454
0.00051922
0.00840394
0.000459719
0.0184186
0.000463744
0.000453699
0.000452774
0.000469062
0.000460411
0.000457328
0.0188832
0.0362293
0.000468904
0.0429996
0.00378983
0.000453696
0.000459853
0.0419316
0.00157733
0.000832346
0.0123021
0.000504115
0.000457306
0.000458741
0.0289394
0.000458814
0.000731296
0.0122607
0.0274098
0.000459176
0.000460501
0.00204986
0.000556297
0.000483803
0.000626012
0.000477072
0.0122749
0.000468599
0.00341226
0.00751493
0.034276
0.000463162
0.0034882
0.000456792
0.00207812
0.000459268
0.00071472
0.000459694
0.00362486
0.0026904
0.000454049
0.00312897
0.0174607
0.000452552
0.0036056
0.000458201
0.000458359
0.000459363
0.00190299
0.000459487
0.0259278
0.00350362
0.0058545
0.00046859
0.000464419
0.00046761
0.0128008
0.000471804
0.000563229
0.000460983
0.00216042
0.000458802
0.000650695
0.0136036
0.000460077
0.0190322
0.00051734
0.000739561
0.000463677
0.000465223
0.000486849
0.000458386
0.000577939
0.000460459
0.000453801
0.00127385
0.000456863
0.00515076
0.00110502
0.000525004
0.0175217
0.000464639
0.0158476
0.0149937
0.0433269
0.0263515
0.00045908
0.00335421
0.0476581
0.000465451
0.000458035
0.000457697
0.000467772
0.000462112
0.00115717
0.000494314
0.000535611
0.000746855
0.0130212
0.00045456
0.000709792
0.00500213
0.0270894
0.019152
0.000453891
0.00045894
0.000454476
0.0461886
0.00106326
0.000800056
0.00393535
0.000494974
0.000471126
0.000457849
0.000498439
0.000457981
0.0341798
0.000500429
0.000456003
0.00532448
0.000477742
0.000616866
0.000475396
0.0225901
0.00046036
0.00045356
0.000463757
0.00046169
0.0247499
0.000457502
0.000457482
0.00571146
0.000495481
0.000459227
0.000453435
0.000500231
0.000841839
0.000511089
0.000797886
0.000459388
0.000454783
0.000499793
0.000628908
0.0135697
0.000651006
0.0049912
0.000456528
0.000453742
0.0207138
0.000465822
0.000456304
0.000458165
0.000459335
0.000479527
0.000470925
0.0022004
0.00305131
0.000689386
0.0070297
0.007159
0.000462423
0.00670667
0.000847338
0.00303061
0.000457406
0.00045539
0.0206539
0.000500617
0.000459624
0.00934116
0.000458626
0.000461691
0.0363696
0.000746277
0.000561066
0.000458971
0.000451962
0.00472389
0.00181877
0.00046013
0.000463641
0.00046157
0.0348226
0.000982926
0.000514895
0.000463759
0.000465745
0.0195435
0.00426887
0.000458133
0.000460911
0.000456079
0.000455363
0.000483255
0.00419027
0.0112013
0.00045651
0.000463315
0.0214475
0.000485259
0.000458348
0.000467828
0.000456844
0.00045757
0.0221056
0.000465849
0.000927055
0.0505708
0.000463619
0.000463597
0.000464581
0.00661087
0.000455887
0.0283079
0.00324884
0.00169076
0.000469033
0.00291155
0.0107904
0.000452331
0.0192381
0.00776698
0.0245985
0.00045722
0.000459897
0.00280598
0.000457218
0.0343744
0.00180512
0.0140366
0.000461037
0.00047204
0.025653
0.0259485
0.000467254
0.000464783
0.000537919
0.000464899
0.00729019
0.020113
0.0135909
0.000536466
0.000461587
0.000469031
0.00823345
0.00275477
0.000459886
0.00742701
0.000817277
0.0115743
0.00046094
0.000462666
0.00655218
0.0146816
0.000497598
0.00537108
0.000460688
0.000663859
0.000490879
0.000488422
0.000467914
0.000461974
0.000462283
0.0264767
0.0330411
0.0105087
0.000465356
0.0331832
0.000469631
0.0027654
0.000462064
0.0270451
0.00767913
0.000463682
0.000463686
0.000458104
0.000460205
0.000460543
0.00239868
0.00713128
0.000452872
0.00234795
0.000463123
0.000466976
0.00902824
0.00543783
0.000486827
0.000627485
0.00998684
0.00214493
0.00273228
0.000459
0.000458152
0.000461899
0.00046089
0.000461593
0.00837842
0.000451651
0.000459376
0.000452009
0.000462139
0.000459404
0.000546648
0.000474629
0.000464714
0.0132718
0.000462302
0.000462634
0.000469134
0.0141839
0.000452816
0.00045893
0.000458436
0.000459267
0.018824
0.000575866
0.000460403
0.000460367
0.00117571
0.000458033
0.000459018
0.0422387
0.00125581
0.00430443
0.000459047
0.0214542
0.00697787
0.000465352
0.00045772
0.0181889
0.000452169
0.000463146
0.000464511
0.00390779
0.00268586
0.000459362
0.000591485
0.0375155
0.000468328
0.00045901
0.000458117
0.0157378
0.00046162
0.0103968
0.000469957
0.000529211
0.00783933
0.000461778
0.0163663
0.000864301
0.00580158
0.000518535
0.000458914
0.000459388
0.000505963
0.000460582
0.00927436
0.000938828
0.00045591
0.000469362
0.00048067
0.000462667
0.00193762
0.00424704
0.027227
0.000460543
0.000466339
0.0156997
0.000466626
0.000541636
0.000470081
0.00604181
0.0183249
0.00180238
0.000463543
0.000704257
0.00704296
0.000575134
0.000603591
0.000455648
0.000484219
0.000459462
0.0154154
0.000458485
0.0120166
0.000548048
0.000457775
0.00803955
0.000459492
0.000465785
0.000490076
0.000464298
0.0024974
0.000460868
0.000454784
0.000460588
0.031584
0.000453369
0.028025
0.0184215
0.000460858
0.000453372
0.0235189
0.000458249
0.0064017
0.0231288
0.0248613
0.000612461
0.0216289
0.00306758
0.000452839
0.000459728
0.000576018
0.000463289
0.0232646
0.000457979
0.00068678
0.000485624
0.000520506
0.0238635
0.000530772
0.000461037
0.000458286
0.0190353
0.00317524
0.0192925
0.0159843
0.000466858
0.0262992
0.000465312
0.0267134
0.00378601
0.00173762
0.000800132
0.00361541
0.00708617
0.0113713
0.000459807
0.000694013
0.000459547
0.000456543
0.000459263
0.000457385
0.000459221
0.00943641
0.000458692
0.00142746
0.00310263
0.00363587
0.00473538
0.000483226
0.000470929
0.000459041
0.000461437
0.0026675
0.0080308
0.000718647
0.000454018
0.0196386
0.00171489
0.000467666
0.00369099
0.0207841
0.000463218
0.000459316
0.00127935
0.0388762
0.000457709
0.000456491
0.000512498
0.000455277
0.0250637
0.00225425
0.00050726
0.000455751
0.0313582
0.000458289
0.0004596
0.000465339
0.00681438
0.00070879
0.000516183
0.000462512
0.000523499
0.000701237
0.000459263
0.0242106
0.00102652
0.0219384
0.000604981
0.0427605
0.00928967
0.00588967
0.00526112
0.000458509
0.000466047
0.00769
0.011459
0.0158801
0.000521351
0.00045576
0.000457785
0.000607613
0.000460606
0.011012
0.00312335
0.00162914
0.000459595
0.00045544
0.000466928
0.0004586
0.0181295
0.0399064
0.000456275
0.0396068
0.0325313
0.0162226
0.000495745
0.0380618
0.000458106
0.000463258
0.0340018
0.000458924
0.000456983
0.000459526
0.0365117
0.00989513
0.000540578
0.000678428
0.0299297
0.000469159
0.00050513
0.000474187
0.000461107
0.0204163
0.028902
0.000463342
0.0184303
0.00285406
0.000466873
0.0277931
0.0246628
0.000739278
0.000462386
0.00046214
0.0332925
0.000458258
0.000460235
0.000460589
0.000665176
0.000495659
0.0212569
0.00260127
0.000458247
0.000458435
0.0301429
0.0358765
0.0376706
0.000466431
0.000970012
0.000459029
0.0049078
0.00745135
0.00425658
0.000480273
0.000468853
0.000453635
0.00046388
0.0324471
0.000459484
0.000461005
0.00193148
0.000465758
0.000457999
0.000471275
0.0329905
0.0245045
0.00257549
0.000465127
0.0199844
0.000452524
0.000451027
0.00113065
0.0291125
0.0248817
0.0028758
0.000462938
0.0179354
0.00613748
0.00046197
0.00431293
0.000466797
0.000460924
0.000459172
0.000463835
0.000460213
0.0004576
0.000480328
0.00477563
0.000457899
0.000458572
0.000455895
0.000487141
0.000670995
0.000464151
0.000464833
0.00046137
0.0512749
0.000459617
0.000458216
0.000458267
0.000459496
0.00167187
0.000460177
0.0283798
0.0339345
0.000470276
0.00611896
0.000458152
0.000706446
0.024646
0.000463221
0.00908859
0.00154542
0.000992587
0.00045947
0.000454252
0.00316148
0.0353319
0.000526105
0.000453843
0.000460416
0.0219199
0.000459035
0.0318078
0.000459946
0.000459832
0.000459851
0.0108776
0.000458154
0.000459891
0.000461853
0.000577964
0.000586977
0.000470291
0.00247601
0.0123264
0.000466287
0.0195611
0.000462584
0.000549839
0.00806469
0.000468999
0.0330994
0.00624126
0.000473469
0.000459267
0.000460134
0.00866302
0.0170433
0.000460695
0.00308968
0.0199103
0.000460273
0.000457738
0.00275277
0.00130556
0.00890252
0.013971
0.000453249
0.0031151
0.000468835
0.000461815
0.000459567
0.000463862
0.000462852
0.000457612
0.000465403
0.000466266
0.000458356
0.000462408
0.0194068
0.000460149
0.00095759
0.000460862
0.000457222
0.0136351
0.00494822
0.0275139
0.000462865
0.000611344
0.000493311
0.000457389
0.00046806
0.000466463
0.000633775
0.000587596
0.00286952
0.00308111
0.000764536
0.000209338
0.000457334
0.00213343
0.000461002
0.000461397
0.00378162
0.000465057
0.0245877
0.000464225
0.00159817
0.003433
0.000557071
0.0390752
0.000525718
0.00374831
0.000456662
0.000452005
0.000462555
0.00662632
0.000890692
0.00047507
0.000461319
0.000457943
0.000463583
0.000458453
0.0236103
0.00418146
0.000456783
0.00136989
0.000461881
0.000640192
0.00271235
0.0362683
0.000452665
0.00883085
0.000458855
0.0369118
0.0264595
0.000531095
0.000560279
0.000458734
0.000702148
0.00235259
0.0288399
0.000461134
0.000462727
0.000460352
0.000471863
0.000465012
0.00686696
0.000476832
0.000614862
0.000461824
0.000459501
0.000523062
0.000455821
0.00046007
0.000548106
0.0133502
0.000453449
0.000590491
0.000556174
0.00843062
0.000966584
0.0132027
0.000748445
0.000482607
0.000458715
0.00345204
0.000454555
0.000468905
0.000464211
0.000459585
0.000474974
0.00047491
0.000454106
0.00127119
0.000464717
0.00108464
0.0275214
0.000558913
0.0129443
0.000462319
0.0273456
0.000609436
0.000465878
0.000457143
0.000796304
0.0388556
0.00045718
0.000469554
0.0125754
0.000491585
0.000458359
0.000885413
0.0418752
0.000459791
0.000456414
0.0254023
0.0170575
0.0373896
0.000481173
0.000461833
0.0164519
0.00045376
0.000460873
0.000459861
0.000459629
0.000584697
0.000457749
0.0257877
0.000462944
0.000728912
0.000458125
0.000465923
0.000460109
0.0300183
0.0108953
0.0399163
0.000454645
0.00911836
0.003494
0.015641
0.000460285
0.000459553
0.0280497
0.000457741
0.0219378
0.0155411
0.0130476
0.000458143
0.000452599
0.000457923
0.000454112
0.000459317
0.0131526
0.0308209
0.000482631
0.0478031
0.000458114
0.0255625
0.000461288
0.00046033
0.0285635
0.0391917
0.000453239
0.000463642
0.00323755
0.000458743
0.0178484
0.000467136
0.0112648
0.000464715
0.00261272
0.00285274
0.000457518
0.00561495
0.0211283
0.00758614
0.00201459
0.00055899
0.000653656
0.00536217
0.000459955
0.00045381
0.000460345
0.0452487
0.000461992
0.000459202
0.000467096
0.000549708
0.000461272
0.000451839
0.0371703
0.0119424
0.000901382
0.00700016
0.021773
0.000469602
0.00219961
0.00915255
0.000482213
0.000460781
0.00045653
0.00046987
0.00402649
0.00509676
0.024072
0.000458156
0.0212545
0.0306726
0.00621573
0.0109193
0.000457187
0.000848416
0.000456846
0.000456464
0.010198
0.00116456
0.000601031
0.000462247
0.000465124
0.000488801
0.00443448
0.00438746
0.0282808
0.000455649
0.00341248
0.000453765
0.00437954
0.00714801
0.0080559
0.000453256
0.000459733
0.00192357
0.000460999
0.00386314
0.000458131
0.00859782
0.000459548
0.000548837
0.0280693
0.00045879
0.0224357
0.000486484
0.00306637
0.000461201
0.0323509
0.000463095
0.0291275
0.00852274
0.00648705
0.00912863
0.000460086
0.0117449
0.00165573
0.000487296
0.000744951
0.0286242
0.000460315
0.000460936
0.0301041
0.000457562
0.0004567
0.025898
0.000468919
0.000469841
0.0131166
0.02237
0.0359
0.000463819
0.00342512
0.000460134
0.000462476
0.0124934
0.000458946
0.00045586
0.0073857
0.015784
0.00151709
0.010552
0.00046161
0.000725033
0.00711729
0.00471824
0.000490308
0.000757693
0.0349528
0.0125272
0.00194802
0.000455258
0.000460386
0.000471816
0.000455817
0.000456693
0.000465033
0.000460318
0.00183165
0.0171851
0.000481918
0.000454215
0.000459126
0.000488432
0.000463699
0.0344342
0.00121284
0.0043586
0.00139786
0.000453875
0.000456433
0.00209156
0.00045727
0.00415698
0.00046089
0.00238013
0.00106991
0.0134702
0.000559531
0.000457765
0.00054234
0.0146325
0.000598437
0.000461506
0.00759338
0.000458402
0.000463707
0.000484919
0.000498193
0.000605851
0.00481933