/*--------------------------------*- C++ -*----------------------------------*\
| =========                 |                                                 |
| \\      /  F ield         | OpenFOAM: The Open Source CFD Toolbox           |
|  \\    /   O peration     | Version:  v2012                                 |
|   \\  /    A nd           | Website:  www.openfoam.com                      |
|    \\/     M anipulation  |                                                 |
\*---------------------------------------------------------------------------*/
FoamFile
{
    version     2.0;
    format      ascii;
    class       volVectorField;
    location    "50";
    object      U;
}
// * * * * * * * * * * * * * * * * * * * * * * * * * * * * * * * * * * * * * //

dimensions      [0 1 -1 0 0 0 0];


internalField   nonuniform List<vector> 
18649
(
(-0.191273 -0.0372868 1.14399e-22)
(1.0099 -0.112891 1.54986e-21)
(1.07264 -0.00476581 0)
(-0.184926 -0.0419139 -1.08226e-19)
(0.473618 -0.166993 1.17463e-19)
(1.10578 -0.0761323 -2.76816e-20)
(0.0816709 0.0352567 -6.81324e-20)
(1.26126 -0.244212 -1.61494e-20)
(1.2078 -0.0185537 2.29128e-20)
(0.957307 -0.0493899 -8.36441e-22)
(1.20887 -0.299922 6.95454e-20)
(-0.26415 -0.0471311 -2.25417e-20)
(0.981352 0.113831 -1.0345e-19)
(1.07125 -0.00497237 0)
(0.991613 -0.0174312 0)
(1.17285 -0.0644401 3.34222e-20)
(1.01525 -0.00241545 5.11756e-22)
(1.17305 -0.0615812 1.45395e-20)
(1.11389 -0.388368 3.75098e-20)
(0.0314827 -0.0406955 -1.3224e-19)
(0.0997952 -0.0574315 -9.81938e-21)
(1.0431 -0.0657184 0)
(-0.298016 -0.0553948 0)
(1.24153 0.0906014 0)
(1.01584 -0.0158567 0)
(0.000683017 -0.0422764 -2.84674e-20)
(1.03343 -0.0559694 -5.55208e-22)
(-0.257617 -0.0463684 -6.57976e-20)
(1.32907 -0.205078 0)
(1.03079 -0.00224165 -1.09858e-20)
(1.05217 -0.047371 3.70814e-21)
(1.04262 -0.317916 7.76248e-21)
(1.0047 -0.00937464 -8.24591e-23)
(0.959145 -0.0989217 -2.4794e-20)
(0.978472 -0.0657212 4.98518e-21)
(-0.28387 -0.0517405 -3.23207e-20)
(0.878805 -0.0649762 5.96235e-20)
(1.0128 -0.0509662 6.00278e-22)
(1.03404 -0.0149431 5.95219e-21)
(1.25475 -0.24603 -4.83197e-20)
(1.21255 -0.0179771 -6.92634e-20)
(1.24244 0.0876522 -3.17725e-21)
(1.21116 0.0072428 -3.43922e-21)
(-0.220184 -0.0518512 -1.63593e-23)
(1.01299 -0.112954 5.04622e-22)
(1.03118 -0.00216455 -9.76173e-21)
(-0.0719266 -0.0405439 -1.09857e-19)
(-0.1784 -0.042282 7.76115e-20)
(1.0465 -0.286722 5.38219e-22)
(1.03136 -0.0204584 1.03314e-20)
(-0.127739 0.0677021 3.16366e-20)
(1.10561 -0.115609 -4.32145e-21)
(0.404937 -0.0817118 2.51899e-20)
(0.463146 -0.00803338 0)
(1.00456 -0.00889541 -7.66896e-22)
(1.01952 -0.281324 8.64894e-20)
(-0.168504 -0.0372116 0)
(1.23714 -0.0324447 0)
(-0.114206 -0.0357543 -1.17841e-19)
(0.959235 -0.049254 9.50858e-22)
(-0.191038 -0.0363472 -8.10163e-20)
(1.00287 -0.0202702 2.85954e-21)
(1.20782 0.00875604 0)
(-0.158936 -0.04129 -4.58962e-20)
(1.01412 -0.0508412 0)
(-0.146055 -0.0410036 1.64559e-19)
(1.04407 -0.0388057 0)
(-0.166448 -0.0344227 0)
(-0.157213 -0.0402243 -8.59715e-20)
(1.33414 -0.0690588 8.33127e-20)
(-0.259842 -0.0530503 1.13147e-20)
(1.00373 -0.0227931 3.79413e-22)
(1.02814 -0.326685 2.14922e-21)
(1.10541 -0.0445825 -8.87004e-23)
(0.963921 -0.0920932 1.98303e-20)
(0.0886538 -0.0590836 1.06828e-20)
(0.859649 -0.16185 1.20925e-20)
(1.03419 -0.161251 4.42652e-21)
(1.10307 -0.0438637 -9.34727e-21)
(0.960749 -0.498935 0)
(1.01566 -0.00204158 0)
(-0.0939909 -0.0412528 0)
(-0.187959 -0.0444382 1.88119e-19)
(0.437092 -0.0860114 -2.40216e-20)
(0.834474 -0.262329 0)
(1.03379 -0.0140902 -8.33336e-21)
(0.885325 -0.115091 5.39268e-20)
(1.10382 -0.112355 3.27591e-20)
(1.13806 -0.158021 1.75314e-20)
(1.10981 -0.0497384 0)
(1.13997 -0.0311494 -4.0955e-20)
(0.965388 -0.0292439 0)
(1.00349 -0.0441057 -2.70043e-21)
(-0.100381 0.0178262 -8.10418e-20)
(1.04244 -0.0639383 0)
(1.20371 -0.29341 9.94918e-20)
(0.964536 -0.0541365 0)
(0.936767 -0.457564 8.74883e-22)
(-0.150712 -0.0402966 -4.3523e-20)
(1.03271 -0.0543521 4.82674e-22)
(-0.297689 -0.0539924 -1.10368e-19)
(0.915469 -0.230401 0)
(1.01968 -0.00733098 2.62783e-23)
(-0.119978 0.0710862 0)
(-0.159664 -0.039733 4.76583e-20)
(1.10894 -0.115762 -6.97044e-22)
(0.999073 -0.00423314 -4.46207e-21)
(1.05642 -0.0509128 -8.44484e-22)
(0.916359 -0.236793 -1.99551e-20)
(0.962221 -0.0841125 1.69612e-20)
(-0.282975 -0.052129 -5.90367e-20)
(0.679899 -0.213075 -1.32734e-19)
(1.00328 -0.0429898 -2.42083e-21)
(0.958071 -0.0814445 -5.36244e-21)
(1.29859 -0.0456729 6.39843e-20)
(1.08146 -0.00640227 -1.1002e-20)
(1.00416 -0.00847946 -1.36234e-23)
(-0.104739 -0.0202287 0)
(-0.227018 -0.052149 0)
(1.04033 -0.0198371 0)
(-0.120021 -0.035994 1.17464e-19)
(1.02033 -0.0643387 0)
(1.03244 -0.320095 -2.01367e-21)
(1.00328 -0.0225689 4.21438e-23)
(-0.110631 -0.0470906 3.61682e-20)
(1.01614 -0.01645 0)
(1.00002 -0.000341998 -5.50522e-21)
(0.0212918 -0.040472 2.50687e-20)
(1.01936 -0.0632785 -4.29887e-22)
(-0.0907685 -0.0177422 5.09094e-20)
(0.997993 -0.0350887 4.3835e-22)
(-0.184053 -0.0443724 -1.21385e-19)
(1.01643 -0.0303694 -5.1946e-22)
(-0.092014 -0.0388574 9.43411e-20)
(0.873753 -0.0646619 -2.14714e-20)
(0.999674 -0.00399652 -1.0156e-20)
(-0.246119 -0.0525051 -9.10578e-24)
(-0.163243 -0.0363919 0)
(1.13817 -0.0293283 3.59257e-20)
(1.03157 -0.157592 0)
(0.470802 -0.543013 -2.32643e-20)
(1.02376 -0.0435393 0)
(1.02892 -0.0161666 0)
(1.00802 -0.0145993 3.65859e-22)
(1.00005 -0.00755844 -1.03901e-20)
(-0.256381 -0.0397889 0)
(1.02947 -0.0159572 0)
(1.00128 -0.0157456 -7.64001e-21)
(-0.298903 -0.0525319 0)
(-0.16183 -0.0402329 9.58213e-20)
(1.34522 -0.0398577 -4.80954e-20)
(0.999578 -0.0026075 0)
(-0.21494 -0.0470842 0)
(1.05757 -0.0230685 -1.13673e-20)
(1.0224 -0.0552695 0)
(1.00762 -0.014199 0)
(0.587431 -0.240767 0)
(0.95891 -0.481813 -5.30721e-21)
(1.00468 -0.00485662 -9.64043e-23)
(0.987105 -0.0391193 3.64047e-21)
(1.00033 -0.0134656 5.80068e-21)
(1.27979 -0.317799 1.10504e-19)
(-0.110948 -0.0364936 -9.68846e-20)
(1.057 -0.0238809 -1.07968e-20)
(-0.103209 -0.0470354 0)
(1.29789 -0.0499067 -6.32895e-20)
(0.999061 -0.00448151 0)
(1.00493 -0.024026 -1.18074e-21)
(1.0233 -0.056344 -4.79181e-22)
(1.07958 -0.00673398 -1.78437e-20)
(0.997379 -0.0346814 0)
(0.138858 -0.439108 1.17375e-19)
(1.23283 -0.0343469 0)
(0.480083 -0.187842 0)
(1.01549 -0.0490922 1.1589e-21)
(0.513276 0.0966221 -1.10333e-19)
(-0.301949 -0.0525423 -2.08403e-23)
(1.01724 -0.11601 -1.34007e-21)
(1.00438 -0.00466611 -1.43298e-22)
(1.34235 -0.0697333 0)
(1.35387 -0.0637433 0)
(1.02829 -0.00539087 0)
(1.00003 -0.000678903 1.18277e-21)
(-0.222582 -0.0194827 -5.82171e-20)
(1.08965 -0.0990721 0)
(1.17554 -0.0365429 0)
(1.00011 -0.00718946 7.84829e-21)
(1.02433 -0.04312 0)
(1.15421 0.00309932 0)
(0.969393 -0.194491 0)
(0.877494 -0.789843 -2.0667e-20)
(1.01492 -0.0536786 0)
(-0.167557 -0.0261756 -6.79718e-20)
(1.05202 -0.0220059 0)
(1.01832 -0.00628192 2.71146e-21)
(1.0003 -0.00499968 0)
(0.88939 -0.112884 -1.94027e-20)
(0.975349 -0.290916 -1.16911e-21)
(0.963186 -0.0949391 1.04196e-20)
(1.00005 -0.000595487 0)
(1.00118 -0.0150141 0)
(1.28099 -0.0483696 0)
(-0.173077 -0.0340623 -6.63529e-21)
(0.889272 -0.0775486 -1.67284e-20)
(1.14153 -0.16173 8.74652e-21)
(0.707652 -0.181933 1.91093e-20)
(1.30811 -0.194413 3.24053e-20)
(-0.0550986 -0.0403495 7.11498e-20)
(1.055 -0.0500666 0)
(-0.220893 -0.0412995 -1.41661e-19)
(0.986402 -0.0422027 -3.75409e-21)
(1.01528 -0.0984079 4.83545e-22)
(1.01681 -0.0622802 0)
(-0.18061 -0.0278068 1.4856e-19)
(-0.187521 -0.0451214 1.59386e-19)
(1.03601 -0.0318314 -4.61326e-21)
(0.828149 -0.223743 0)
(1.02188 -0.0305653 1.88316e-21)
(-0.106103 -0.0466079 -8.86186e-23)
(0.997521 -0.0476906 9.33141e-21)
(1.22443 0.0300038 1.64308e-20)
(1.01863 -0.0406009 1.44539e-22)
(0.314636 -0.803075 3.7251e-20)
(0.164284 -0.453923 -1.06893e-21)
(0.0614577 -0.0410393 9.89998e-20)
(-0.102498 0.00811267 4.15117e-20)
(1.03699 -0.032688 5.40935e-21)
(0.99746 -0.0463376 -4.10112e-21)
(0.375009 -0.075078 0)
(0.583263 0.0981753 1.4231e-19)
(1.15351 0.00933878 6.47979e-21)
(1.01637 -0.0279792 -4.44053e-22)
(-0.301768 -0.0538608 0)
(1.17162 -0.0712727 -3.10694e-20)
(0.0529322 -0.0403574 1.0371e-19)
(1.28746 -0.302155 1.48955e-20)
(0.595324 -0.221242 7.08617e-20)
(0.476902 -0.10943 6.21936e-20)
(1.01608 -0.0295534 5.5836e-22)
(1.22439 -0.448818 -8.07123e-20)
(1.02146 -0.00497365 0)
(-0.205389 -0.0461486 -3.42684e-20)
(1.15273 0.00756331 1.44126e-21)
(1.02777 -0.00513777 2.84046e-22)
(0.958785 -0.0840671 1.12817e-20)
(0.975064 -0.192949 1.07743e-20)
(0.244394 -0.0523697 1.12928e-19)
(0.98779 -0.0385999 0)
(0.781251 -0.349516 1.9919e-20)
(0.978546 -0.285161 -4.18504e-21)
(-0.302331 -0.051773 7.26709e-20)
(0.0650588 0.031337 8.69232e-20)
(1.17309 -0.0345216 0)
(0.977834 -0.0677243 5.68981e-21)
(1.09287 -0.0991884 2.9077e-20)
(-0.222175 -0.0519806 0)
(1.01864 -0.0394996 -2.39169e-22)
(0.986492 -0.041219 0)
(0.955443 -0.0817797 5.61376e-21)
(0.963726 -0.0865943 -1.77969e-20)
(1.03296 -0.0244565 -1.96347e-21)
(0.684323 -0.199712 7.91169e-20)
(-0.220121 -0.0414234 1.34116e-19)
(0.98564 -0.0379742 1.25533e-20)
(1.01759 -0.00627494 -2.67273e-21)
(-0.107094 -0.0418274 3.81477e-20)
(0.349015 0.0713805 -5.89472e-20)
(1.00024 -0.00495616 0)
(-0.218243 -0.0160457 -2.90417e-20)
(1.02219 -0.0115465 0)
(-0.2622 -0.0412459 1.99513e-20)
(1.06044 -0.340852 -1.16704e-20)
(0.350041 -0.0722413 2.7751e-20)
(0.683931 -0.315363 0)
(1.12334 -0.385901 0)
(1.05182 -0.0209648 1.82357e-21)
(1.01724 -0.00569526 0)
(1.06105 0.112773 -6.52053e-20)
(-0.0932234 0.00825899 0)
(-0.0932684 -0.0465656 -2.002e-21)
(1.00017 -0.00752838 1.16145e-21)
(1.02083 -0.0302772 4.32665e-21)
(-0.20689 -0.0470958 2.3864e-20)
(1.05659 -0.129524 -1.39724e-20)
(0.865835 -0.133918 8.23989e-20)
(-0.300469 -0.053221 0)
(1.05977 -0.0226786 0)
(0.862002 -0.169512 0)
(0.999742 -0.00326625 0)
(1.03114 -0.00671479 0)
(1.22109 0.0268931 -1.60996e-20)
(-0.299964 -0.0514547 3.01246e-20)
(0.217678 0.0374063 -7.16006e-20)
(0.296285 -0.0566026 -1.72014e-19)
(1.33168 -0.167786 -1.85245e-22)
(0.999375 -0.0782253 -7.90816e-21)
(1.35204 -0.0382836 0)
(1.32927 -0.204478 0)
(1.01869 -0.00674403 0)
(0.400464 0.0742932 0)
(1.00514 -0.000887037 2.66435e-22)
(0.956709 -0.100287 3.39544e-20)
(0.965605 -0.0520153 0)
(1.00729 -0.0143586 -1.05267e-22)
(1.03922 -0.0194766 5.87172e-21)
(0.466294 -0.122841 4.06565e-20)
(0.999716 -0.00381801 1.16267e-20)
(1.19321 -0.0386729 3.78321e-20)
(0.462216 -0.0919483 -5.42075e-20)
(0.959879 -0.0958101 -2.16895e-20)
(-0.0174155 -0.0426771 0)
(0.959933 -0.0519222 3.40364e-20)
(0.490706 -1.13674 -2.55536e-20)
(0.992057 -0.0169358 9.59086e-21)
(1.05924 -0.0234759 1.07052e-20)
(1.01661 -0.0290039 0)
(1.06966 -0.0248889 2.80665e-20)
(1.00003 -0.000303258 -2.12071e-21)
(-0.191053 -0.0450543 -9.35511e-20)
(-0.198888 -0.0514609 -6.95731e-20)
(0.999299 -0.00354986 0)
(1.00015 -0.0133359 -3.23566e-21)
(1.21375 -0.0147356 5.23969e-20)
(1.00023 -0.000442886 1.21331e-21)
(1.00687 -0.0139005 -7.34111e-22)
(1.03849 -0.0401962 0)
(1.00024 -0.00712926 0)
(0.919865 -0.158705 -3.14805e-20)
(-0.0616744 -0.0267681 0)
(0.697828 -0.168212 6.54074e-20)
(-0.213629 -0.041085 3.63355e-20)
(1.00448 -0.0235693 0)
(0.999782 -0.011536 3.04132e-21)
(1.20474 0.0141442 1.31329e-20)
(1.00521 -0.0048306 2.78873e-23)
(1.03375 -0.000795585 0)
(-0.23373 -0.0247597 -6.18049e-20)
(0.988511 -0.150233 0)
(1.20938 -0.139755 5.86582e-20)
(0.88527 -0.0796815 0)
(1.27669 -0.324579 -5.43309e-20)
(1.0049 -0.00464611 0)
(1.09382 -0.0166821 0)
(1.01774 -0.063541 4.9808e-22)
(1.06758 -0.0722346 1.02267e-20)
(0.998588 -0.0191171 2.67106e-21)
(1.00021 -0.00435478 -3.32088e-21)
(1.02097 -0.00448086 -4.21487e-21)
(1.13819 -0.025235 -2.06125e-20)
(1.17011 -0.0734996 0)
(0.995549 -0.019636 6.39342e-21)
(0.985591 0.118976 -6.01617e-20)
(0.995277 -0.0203037 0)
(1.03844 -0.0395464 0)
(-0.210585 -0.0402037 -1.28692e-19)
(0.962456 0.0267638 0)
(1.07082 -0.025788 0)
(-0.0245734 -0.0435674 0)
(1.27914 -0.302204 0)
(-0.0982526 -0.0460986 -1.58671e-20)
(0.160444 0.0379898 0)
(1.06616 -0.0702917 -9.12789e-21)
(0.125906 0.035035 0)
(0.995489 -0.021038 0)
(0.120732 -0.043116 1.0453e-19)
(0.519217 -0.939284 1.92204e-20)
(0.961746 -0.0518847 -2.42132e-20)
(0.90388 -0.0415812 -3.87114e-20)
(0.98862 -0.146635 6.78003e-21)
(1.05095 -0.0460187 0)
(1.0159 -0.0548391 -8.21058e-22)
(1.02803 -0.0157575 0)
(0.998867 -0.0178573 4.03675e-21)
(-0.175301 -0.044969 -3.40541e-20)
(0.914194 -0.160311 0)
(0.0394955 -0.0415207 -1.03316e-19)
(-0.215354 -0.0411025 1.58008e-20)
(1.33168 -0.188417 0)
(0.208978 -0.0490397 -7.15199e-20)
(1.08407 -0.0378785 -1.10326e-20)
(0.999961 -0.00053185 3.85897e-21)
(1.14983 0.012612 0)
(1.01429 -0.0273282 0)
(0.835417 -0.820521 0)
(1.00006 -0.000123886 2.51171e-21)
(0.999659 -0.00256651 -6.99959e-21)
(0.073872 -0.201047 0)
(0.243389 0.0421193 0)
(1.0611 -0.0525964 -4.4533e-21)
(1.0322 -0.0220489 0)
(1.30572 -0.291257 6.86918e-20)
(1.09737 -0.221269 -8.8779e-21)
(0.994572 -0.0458159 1.01995e-20)
(-0.166702 0.0244532 -3.94018e-20)
(1.06847 -0.00479047 1.43373e-20)
(0.90648 -0.0400507 4.87429e-20)
(-0.277365 -0.051566 1.72834e-19)
(1.08035 -0.0711567 -7.34038e-21)
(0.999756 -0.00305966 -3.50342e-21)
(-0.23475 -0.0244174 0)
(-0.176535 -0.0455172 0)
(1.1726 -0.0293701 -1.73589e-20)
(1.00308 -0.0307196 0)
(0.999866 -0.0111475 0)
(-0.184919 -0.0433464 0)
(-0.232314 -0.0234738 7.6376e-20)
(1.02227 -0.0316187 0)
(1.29613 -0.265881 6.25398e-20)
(1.0239 -0.0127432 0)
(1.02627 -0.039769 6.85703e-23)
(0.0926913 0.0222241 0)
(1.03623 -0.0141246 2.87818e-22)
(-0.0511836 -0.025222 0)
(1.08043 -0.0730631 0)
(1.26482 0.0613513 0)
(0.169924 -0.0439681 1.11075e-19)
(0.945405 0.117194 7.74654e-20)
(0.472686 0.0915032 1.61283e-19)
(1.01435 -0.0252657 0)
(0.0319671 -0.0760611 5.5819e-20)
(0.995264 -0.021737 0)
(1.09067 0.108156 9.19304e-20)
(1.14288 -0.250243 0)
(0.0868111 -0.0409425 6.10704e-20)
(0.363976 -0.0241556 9.71706e-20)
(1.02749 -0.0152598 -2.67875e-21)
(1.03412 -0.000300266 -1.72311e-22)
(1.21941 -0.459057 0)
(-0.0841227 -0.0449445 -3.21178e-20)
(1.09506 -0.0175617 8.65526e-21)
(0.692858 -0.302093 -5.72632e-20)
(1.05946 -0.0524444 4.04048e-21)
(1.04207 -0.0851158 1.18646e-20)
(1.01629 -0.00513107 -3.33724e-21)
(-0.0759859 -0.0172276 1.03877e-22)
(0.947258 0.12274 6.52487e-20)
(-0.0538467 -0.0496145 -3.32054e-20)
(1.05385 -0.0469335 6.65886e-21)
(0.965429 -0.028044 -6.88478e-21)
(0.0925178 -0.214875 0)
(-0.211991 -0.0488412 -8.0414e-20)
(0.905056 -0.0354252 -5.60355e-20)
(0.994331 -0.0771428 -1.03347e-20)
(1.03207 -0.0228619 0)
(1.02461 -0.0127758 -5.49513e-21)
(-0.0879002 -0.0455436 0)
(0.00873444 -0.0399772 4.71632e-20)
(1.00406 -0.00737493 -4.74683e-23)
(1.05202 -0.0118201 -9.35988e-21)
(-0.284989 -0.0524408 0)
(1.03547 -0.0187394 5.73261e-22)
(-0.257452 -0.0471494 1.8621e-19)
(1.03125 -0.0211592 -7.59462e-21)
(-0.150678 -0.0265985 0)
(1.09163 -0.218987 -2.75021e-20)
(0.102695 -0.0415136 5.54899e-20)
(0.943029 -0.135036 -1.51168e-20)
(0.495123 -0.00540857 -4.22097e-20)
(-0.218073 -0.0408496 9.20906e-21)
(1.02065 -0.124735 -3.40142e-22)
(1.20695 -0.0230703 -2.53608e-20)
(1.04314 -0.0835783 -5.34057e-21)
(1.1978 -0.0282462 2.1498e-20)
(1.08303 -0.0361758 0)
(0.987704 -0.0351705 0)
(1.05635 -0.132541 8.09445e-22)
(0.199938 -0.578881 -6.31573e-20)
(1.0313 -0.00723341 0)
(1.07232 -0.0456289 0)
(-0.214728 -0.0486615 2.1851e-20)
(1.02299 -0.0134255 9.15484e-21)
(1.00018 -0.00434324 0)
(1.16542 0.106987 0)
(1.01412 -0.0156296 2.30614e-21)
(-0.212682 -0.0519633 -3.64161e-20)
(1.06217 -0.022124 0)
(1.0695 -0.022526 0)
(1.05087 -0.00963559 0)
(1.11685 -0.0565401 -2.83318e-20)
(1.06719 -0.00410875 1.24177e-20)
(1.00005 -0.00050828 1.17993e-22)
(0.541521 -0.547649 0)
(1.02679 -0.0409094 -1.84659e-22)
(0.827408 -0.143269 0)
(1.00017 -0.0124977 -3.01611e-21)
(1.08616 -0.120669 3.48536e-20)
(-0.222889 -0.0519154 -8.48393e-20)
(1.00004 -0.00101518 -1.21574e-22)
(0.710651 0.0306671 1.73436e-20)
(1.07345 -0.101748 0)
(0.0845891 0.041806 0)
(-0.249327 -0.0312194 6.40905e-20)
(-0.250869 -0.031787 0)
(-0.247881 -0.0480171 0)
(1.11955 -0.0572845 3.18211e-20)
(1.17061 -0.240525 6.2044e-22)
(1.15231 0.0117375 7.5134e-21)
(-0.256823 -0.0476771 -9.32225e-20)
(0.977407 -0.0340553 0)
(1.14311 -0.31464 -4.89242e-20)
(0.968349 -0.0884327 1.67007e-20)
(0.532753 -0.031027 9.67128e-20)
(1.28666 -0.0471185 -5.55096e-20)
(1.07106 -0.264931 0)
(1.00027 -0.000424965 -9.88637e-22)
(0.38531 -0.342754 -7.29542e-20)
(1.29448 -0.0137402 7.30601e-20)
(0.1122 0.0216907 1.03363e-20)
(1.04364 -0.035266 0)
(-0.273636 -0.0517853 -2.27275e-19)
(0.926967 -0.0429182 -5.81635e-22)
(1.22877 0.0242476 -1.69845e-20)
(0.996703 -0.010657 5.49546e-21)
(1.14549 -0.257169 -3.44055e-20)
(-0.211035 -0.0506397 6.48439e-20)
(0.999421 -0.0032684 -7.17343e-21)
(1.05118 -0.0111285 0)
(-0.252277 -0.0325799 0)
(1.03747 -0.0210189 0)
(0.95058 -0.448914 -8.44605e-22)
(1.03567 -0.0214472 0)
(1.10838 -0.0767349 2.56424e-20)
(1.03258 -0.0569787 2.01079e-21)
(1.14326 -0.107043 1.50629e-20)
(1.01384 -0.0150327 -7.97279e-22)
(0.724257 -0.479073 -2.22971e-20)
(1.00008 -0.000903085 9.52909e-22)
(0.0540692 0.056421 -1.91191e-20)
(1.04487 -0.0354118 0)
(-0.247461 -0.0466047 -1.21531e-19)
(1.20631 -0.110808 0)
(-0.105244 0.0185133 4.843e-20)
(-0.206538 -0.0495676 -8.35347e-20)
(1.07046 -0.0447156 0)
(1.00186 0.0204536 7.3619e-21)
(1.19643 -0.0317237 4.14486e-20)
(0.0183474 -0.0191162 9.67371e-20)
(-0.216531 -0.0411188 -2.01167e-20)
(1.04088 -0.0185225 6.96737e-22)
(0.819948 -0.141299 2.56733e-20)
(1.26057 0.0592826 -5.55328e-20)
(1.07263 -0.0293087 1.44316e-20)
(1.2978 0.075132 9.33047e-21)
(1.01478 -0.0597122 0)
(0.999227 -0.00397209 4.06512e-21)
(1.07151 -0.0302032 -5.31439e-21)
(1.00356 -0.000636297 1.83734e-22)
(1.00007 -0.000736666 2.36552e-21)
(1.01429 -0.0612299 1.44456e-21)
(0.420545 -0.161877 1.13784e-19)
(1.02271 -0.0121559 0)
(1.02698 -0.0318232 0)
(1.1126 -0.0502884 -1.08369e-20)
(1.04415 -0.0928437 9.59797e-23)
(0.507092 -0.530888 4.40082e-20)
(-0.109031 0.0148618 3.79821e-20)
(0.976308 -0.0338401 -6.88978e-22)
(1.20791 0.01298 1.49202e-20)
(1.31048 -0.188067 0)
(1.06534 -0.268998 0)
(0.999989 -0.0124033 6.36493e-21)
(0.0307359 -0.0432219 0)
(0.627258 0.102925 -5.00936e-20)
(0.178793 -0.0671042 0)
(1.29984 0.070384 -1.11585e-20)
(1.15485 0.00510856 0)
(1.04657 -0.0826092 1.77219e-21)
(1.12023 -0.0666398 7.97112e-21)
(1.13974 -0.0269306 0)
(1.06388 -0.0220574 -6.44109e-21)
(1.33925 -0.163222 2.92586e-20)
(1.0088 -0.0347024 0)
(1.06423 -0.0212481 -7.36538e-21)
(1.03121 -0.0107916 3.83354e-21)
(-0.169164 0.00569073 0)
(0.088628 -0.0421924 -1.74634e-19)
(-0.254525 -0.036684 -3.40222e-20)
(1.02395 -0.154457 -9.02277e-22)
(1.0043 -0.0297408 -2.91719e-21)
(-0.188948 -0.0443538 0)
(-0.135057 -0.0406505 -8.8144e-20)
(0.904525 -0.78861 1.62141e-20)
(1.08826 -0.122827 -1.63523e-20)
(0.762176 -0.0519518 -1.62646e-21)
(-0.20733 -0.0180552 -7.22313e-21)
(1.00485 -0.000679678 -6.64744e-23)
(-0.2539 -0.0334194 0)
(1.04201 -0.0920369 -8.15719e-23)
(0.954192 -0.0625407 0)
(0.957208 -0.0361312 0)
(0.58858 -0.602365 -2.89542e-20)
(-0.14544 -0.0401225 2.31418e-20)
(1.06165 -0.0229589 0)
(0.719082 -0.459245 0)
(0.941304 -0.139687 -8.90594e-21)
(0.998053 -0.0770715 9.48058e-21)
(-0.187361 -0.0268579 -8.83716e-20)
(1.0498 -0.558208 -3.12799e-20)
(0.995755 -0.0283263 4.09589e-21)
(0.0332442 -0.0198455 -9.12908e-20)
(1.13991 -0.0339744 1.07383e-20)
(-0.104177 0.0737769 -6.05135e-20)
(1.0213 -0.0556489 -2.91995e-22)
(0.633379 -0.135658 -7.21699e-20)
(1.14256 -0.104834 2.75379e-20)
(1.11989 0.00419753 -1.29502e-20)
(1.01089 -0.000452836 -1.1855e-21)
(0.103934 -0.0425126 -6.97237e-20)
(1.17459 -0.139297 2.41845e-20)
(1.20906 -0.0299923 0)
(1.20379 0.0256485 1.36073e-20)
(-0.184017 -0.0497233 0)
(1.09479 -0.0196378 7.64237e-23)
(-0.248478 -0.035195 6.25213e-20)
(1.0565 -0.0333652 0)
(1.02619 -0.158518 0)
(0.119321 0.00540374 -8.4871e-20)
(1.10334 -0.0776759 1.44311e-20)
(1.00504 -0.0096969 0)
(0.753145 -0.0560376 -1.4879e-21)
(1.07023 -0.0350625 -1.52574e-20)
(1.19812 0.0171066 6.99838e-20)
(1.02635 -0.0309633 4.64141e-23)
(0.992678 -0.0333084 5.54594e-21)
(0.464297 -0.576819 -3.38197e-20)
(1.18211 -0.493308 0)
(-0.109485 -0.0453674 -7.61246e-20)
(1.00008 -0.00041583 0)
(-0.214569 -0.0518264 3.79241e-20)
(1.03222 -0.0202952 0)
(0.907108 -0.540193 1.33117e-21)
(1.17461 -0.0313471 1.03762e-20)
(1.03122 -0.0114169 -4.0328e-21)
(1.04066 -0.0389395 -6.681e-21)
(0.962647 -0.0542595 -8.4077e-21)
(1.22384 -0.06839 0)
(0.970302 -0.0542434 -1.36261e-20)
(1.16951 -0.24653 4.39346e-22)
(1.2326 0.0230906 1.28754e-20)
(0.963911 -0.224007 1.53637e-20)
(1.02187 -0.0425736 0)
(1.02047 -0.0293196 -2.64102e-21)
(0.95438 -0.0793297 0)
(0.260668 -0.00927594 4.03703e-20)
(1.00296 -0.019638 2.68486e-21)
(0.911274 -0.136822 -1.49929e-20)
(1.02032 -0.00736133 -4.07203e-21)
(-0.141268 0.0709541 1.66941e-20)
(1.00003 -0.00140637 0)
(0.949724 -0.0632693 2.36303e-20)
(1.06653 -0.00768931 -3.52528e-21)
(1.02249 -0.0128029 -4.76265e-21)
(-0.286017 -0.0520991 1.04895e-19)
(1.2899 -0.0155704 -3.3461e-20)
(0.184299 -0.385086 0)
(1.0142 -0.116234 1.73637e-21)
(0.533817 -0.111641 -1.5465e-21)
(1.13754 -0.0349299 0)
(1.03341 -0.0152009 2.10537e-21)
(1.12586 0.00830566 3.19378e-20)
(-0.154559 -0.0399849 0)
(1.08288 -0.0678182 1.27242e-20)
(1.04268 -0.0388729 3.84133e-21)
(0.300286 -0.00684167 3.93961e-20)
(0.50395 0.063631 0)
(1.00079 -0.0161985 8.05149e-21)
(-0.200754 -0.0468294 0)
(0.199176 -0.0861898 0)
(1.05682 -0.0346185 5.92415e-21)
(1.0643 -0.0187877 0)
(1.16915 -0.185527 2.4944e-20)
(0.958952 -0.0352204 -1.34581e-20)
(0.996277 -0.0281127 0)
(0.8297 -0.85514 0)
(-0.258969 -0.0531582 -1.35411e-20)
(-0.181047 -0.0237466 0)
(0.33028 -0.00933623 -8.30066e-20)
(0.996571 -0.0252286 -1.58723e-20)
(0.787503 -0.281722 0)
(1.00494 -0.0249113 0)
(1.00738 -0.0197685 -5.61305e-22)
(1.03252 -0.0146502 -3.84431e-21)
(-0.166809 -0.0411678 0)
(1.02067 -0.00115307 -5.96219e-21)
(1.01649 -0.0501018 -7.24496e-22)
(-0.202857 -0.0175899 3.64513e-23)
(-0.215497 -0.049151 -1.27713e-19)
(1.06904 -0.0522983 2.08825e-20)
(1.30445 -0.16395 1.05797e-19)
(1.08698 -0.125901 -9.90255e-21)
(1.00402 -0.0080177 0)
(0.186434 0.0648099 0)
(1.10711 -0.0436112 -2.35425e-22)
(1.16967 -0.486814 0)
(1.00472 -0.0744154 0)
(1.00823 -0.543662 -4.44636e-22)
(1.03352 -0.00152677 -5.7452e-21)
(1.09655 -0.0203278 -9.27043e-21)
(0.99996 -0.000871598 7.66254e-21)
(1.18693 -0.361837 6.04711e-20)
(1.02267 -0.0432699 0)
(-0.175542 -0.0432204 2.0833e-20)
(0.323753 -0.0662216 0)
(1.28833 -0.129107 -7.58038e-20)
(-0.118761 -0.0377299 -4.08609e-23)
(-0.0955822 -0.0455411 0)
(0.910061 -0.100884 3.79021e-20)
(-0.248044 -0.0521423 -1.00965e-19)
(1.21991 -0.254306 0)
(1.22813 0.0288325 1.82363e-20)
(0.956809 -0.0379722 4.54034e-21)
(1.03946 -0.038624 6.5052e-21)
(-0.0639952 -0.0405686 -3.65473e-20)
(0.425311 0.0721695 0)
(1.28701 -0.194851 -3.68605e-20)
(1.19526 -0.295208 -9.37942e-20)
(1.07906 -0.268936 -2.78323e-20)
(0.998561 -0.0185378 4.51777e-21)
(1.01835 -0.122482 1.45042e-23)
(0.140651 0.00454434 9.70665e-20)
(-0.214549 -0.040358 1.961e-19)
(1.00397 -0.0287903 1.70419e-22)
(1.05752 -0.0870577 0)
(-0.139843 -0.0330338 -2.66217e-20)
(0.0364819 0.0702176 -9.46779e-20)
(0.060419 -0.0409072 -9.15836e-20)
(1.27823 -0.063689 6.10637e-20)
(1.00794 -0.000331628 -7.19841e-22)
(0.956012 -0.063602 2.73378e-20)
(-0.225064 -0.0522288 7.92353e-20)
(-0.0022563 -0.0402888 0)
(1.01353 -0.00323801 1.92442e-21)
(1.12155 -0.0319714 -3.59089e-20)
(1.01661 -0.00567179 2.82402e-21)
(0.732647 -0.897251 -5.74277e-22)
(0.996966 -0.0101888 0)
(1.14424 -0.108667 -5.9906e-20)
(1.08463 -0.264245 3.24053e-20)
(1.00113 -0.0161782 6.80012e-21)
(1.05877 -0.00359612 0)
(-0.211299 -0.051061 2.39262e-20)
(0.996116 -0.0223566 0)
(1.07054 -0.10072 7.57011e-21)
(0.992194 -0.0326533 -5.5918e-21)
(1.01106 -0.000767772 8.61428e-23)
(1.00138 -0.0372426 7.41227e-23)
(1.07881 -0.638929 -1.93062e-20)
(0.865455 -0.3699 -3.05335e-20)
(1.32833 -0.199009 -2.56636e-20)
(0.177641 0.0344825 -7.80989e-20)
(-0.213278 -0.0498931 6.43208e-20)
(-0.187334 0.00107046 0)
(1.00001 -0.000888158 -7.82153e-21)
(1.21085 -0.103605 0)
(0.906421 -0.0482581 5.0848e-20)
(1.08507 -0.0860724 -2.82966e-20)
(1.30786 -0.262312 -6.91206e-20)
(0.998341 -0.019745 0)
(0.987135 -0.0343556 -1.58455e-21)
(1.03978 -0.0180215 0)
(0.331836 -0.866771 -3.11687e-20)
(-0.100531 0.00511903 -9.52775e-20)
(0.343894 -0.760055 1.65432e-20)
(0.99722 -0.0282011 -1.30093e-20)
(0.984555 -0.144284 -6.97662e-21)
(1.03453 -0.0138486 -3.22706e-23)
(1.03196 -0.0149558 1.14783e-22)
(1.03361 -0.000570812 -1.23014e-20)
(0.99433 -0.0931975 -6.60346e-21)
(0.963917 -0.219445 -1.65972e-20)
(-0.138008 0.0749668 -1.57714e-22)
(0.917153 -0.137252 1.30884e-20)
(1.00706 -0.0193572 0)
(0.939326 -0.474178 -9.8079e-22)
(0.671019 -0.921863 -1.79967e-20)
(0.836025 -0.217518 1.09371e-21)
(1.00641 -0.0193814 1.65428e-21)
(-0.0854384 0.00215124 -1.21052e-19)
(-0.125039 -0.04596 0)
(1.00423 -0.0281698 6.09345e-21)
(-0.161161 -0.0405238 -9.14258e-20)
(1.30527 -0.28807 -6.33401e-20)
(1.17652 -0.0201001 0)
(0.984202 -0.140192 0)
(0.999669 -0.00838514 0)
(1.01404 -0.0957734 -8.83188e-22)
(1.13878 -0.306445 0)
(-0.13337 -0.0392754 -1.05305e-19)
(0.990829 0.131668 -1.82925e-20)
(1.04428 -0.0377563 -9.00568e-22)
(-0.114272 0.0700521 -3.25175e-20)
(-0.238189 -0.0321562 6.83473e-20)
(-0.258866 -0.0483054 -7.19717e-20)
(1.06427 -0.0180778 1.96003e-21)
(-0.22027 -0.0472565 0)
(1.26891 -0.224583 -2.50908e-21)
(-0.253279 -0.0494191 0)
(0.831968 -0.251849 0)
(0.244449 -0.08004 -6.81696e-20)
(1.04081 -0.0205735 0)
(-0.218554 -0.0490091 1.39051e-19)
(0.375571 -0.00598482 0)
(1.18493 -0.0615264 0)
(1.01513 -0.0521589 0)
(1.05165 -0.0102969 0)
(1.03223 -0.132168 1.40086e-21)
(1.34674 -0.0630175 0)
(1.03361 -0.0533359 2.40027e-21)
(1.28433 -0.131235 1.04043e-19)
(1.00645 -0.074666 0)
(1.13951 -0.488084 2.21391e-20)
(1.11784 -0.067939 0)
(-0.252415 -0.0492286 0)
(-0.17758 0.00252571 6.38238e-20)
(1.03311 -0.0210812 -9.70865e-22)
(1.31304 -0.263746 0)
(1.05209 -0.262366 9.90287e-21)
(1.273 -0.0633613 -1.09296e-19)
(1.22322 -0.167557 0)
(-0.0895658 0.00551337 4.18488e-20)
(0.999685 -0.0244987 -5.41806e-21)
(1.18995 -0.288599 0)
(0.686719 -0.244816 2.77343e-20)
(1.27816 -0.287118 -1.00777e-19)
(0.075032 -0.0414168 0)
(0.995503 -0.0425203 0)
(0.195083 -0.0477248 -9.09469e-20)
(0.105296 0.108652 -2.54503e-20)
(0.992166 -0.028156 -9.74131e-21)
(0.133326 -0.0362733 -8.6107e-20)
(1.22497 -0.288281 -3.80628e-20)
(1.01295 -0.00318589 1.44997e-23)
(0.0373726 0.0566813 0)
(-0.236162 -0.0255604 -1.67874e-20)
(1.02471 -0.0669688 -8.39137e-22)
(1.11594 -0.159239 0)
(-0.106992 -0.0428654 2.08306e-22)
(0.991839 -0.0276321 -6.06866e-21)
(0.0690092 -0.0428779 -9.27851e-20)
(0.995538 -0.0464314 -1.03658e-20)
(0.998294 -0.0312423 -7.12755e-21)
(0.987663 -0.0331913 1.60336e-21)
(1.13973 -0.0537887 -4.48775e-20)
(1.00661 -0.0191674 0)
(1.03345 -0.00253931 8.25153e-21)
(-0.190831 1.88301e-05 4.94587e-20)
(0.999951 -0.00045745 -1.00697e-20)
(1.08307 -0.0700006 -2.1803e-20)
(1.05751 -0.0314239 1.16109e-20)
(0.483301 0.0757322 6.5153e-20)
(0.870451 -0.186203 0)
(0.999308 -0.0241167 7.31173e-22)
(1.03836 -0.0198218 -1.1131e-21)
(0.073948 -0.040566 -6.32349e-20)
(1.01375 -0.0583877 0)
(0.626915 -0.665411 3.79462e-20)
(0.153868 -0.492115 0)
(1.01898 -0.154935 9.57353e-22)
(0.762888 0.0343008 -3.22242e-20)
(0.995168 -0.0918372 1.08838e-20)
(1.12444 -0.023888 4.39313e-20)
(0.446587 -0.0900436 -2.66947e-20)
(1.24612 0.12817 0)
(0.906559 -0.102271 -3.60376e-20)
(1.00484 -0.0335856 0)
(1.01683 -0.150905 -6.56915e-23)
(1.08224 -0.120167 0)
(1.33173 -0.194062 0)
(1.07093 -0.00656604 0)
(1.00451 -0.018302 0)
(1.19018 -0.0353674 -4.03631e-20)
(0.999489 -0.00291859 7.54592e-21)
(-0.238554 -0.0417652 8.52241e-24)
(1.10277 -0.216506 -3.22277e-20)
(1.0115 -0.0570929 0)
(1.00128 -0.0146367 -4.19988e-23)
(1.09772 -0.0902916 3.53955e-20)
(1.05301 -0.127044 -6.11533e-21)
(0.179756 -0.514592 0)
(0.982226 -0.0278929 -1.78135e-20)
(1.02007 -0.011458 -9.3555e-22)
(0.162166 -0.386136 0)
(0.999706 -0.034252 -3.98085e-22)
(1.33758 -0.127053 -5.3066e-20)
(1.08487 -0.359992 -1.59987e-19)
(1.02023 -0.12746 -2.91202e-22)
(-0.0663286 0.00482757 7.37134e-20)
(0.999787 -0.00817367 0)
(-0.201727 -0.0513646 0)
(0.999867 -0.0106051 -5.80962e-21)
(1.22215 -0.174536 -1.2599e-20)
(0.659455 -0.658633 -9.66802e-21)
(1.24242 0.13291 6.28532e-20)
(1.15399 -0.0876327 0)
(1.007 -0.00576434 2.6905e-22)
(1.21721 -0.175963 4.22395e-20)
(1.07043 -0.0236731 8.80252e-21)
(-0.179259 -0.0439026 -1.27297e-19)
(-0.254767 -0.0337302 -1.11334e-19)
(1.13377 -0.494963 -5.15734e-20)
(1.21337 -0.375953 6.41826e-20)
(1.1813 -0.115413 0)
(1.00179 -0.076114 3.69903e-21)
(1.0197 -0.0970159 2.34288e-22)
(-0.218618 -0.0495012 -9.38184e-20)
(-0.256096 -0.0514127 4.69722e-20)
(1.00407 -0.0320373 0)
(0.277328 0.113682 2.54104e-20)
(0.94242 0.126587 -2.49057e-20)
(1.02053 -0.012126 9.68068e-22)
(0.702136 -0.195589 0)
(1.3547 -0.0533722 -1.35962e-20)
(1.16086 -0.137509 4.94104e-20)
(1.03844 -0.0207062 -4.64142e-21)
(-0.254716 -0.0529913 0)
(0.160097 0.100885 -1.68863e-20)
(-0.213936 -0.0511945 1.02098e-19)
(0.00497614 -0.0415431 0)
(0.187333 0.00257205 -4.57945e-20)
(-0.284539 -0.0471236 1.12588e-19)
(1.18179 -0.119102 1.21522e-20)
(1.0041 -0.00548629 3.96893e-22)
(0.906968 -0.0554668 2.47035e-20)
(1.11332 -0.15527 1.10025e-20)
(1.00053 -0.0253006 4.97328e-21)
(1.02341 -0.0678628 0)
(-0.127301 -0.0482298 -1.2721e-19)
(1.06735 -0.00286178 -1.37074e-20)
(1.17283 -0.189712 -3.41206e-20)
(-0.255637 -0.0446645 0)
(0.669305 -0.619992 0)
(-0.15039 0.0307139 -4.05207e-20)
(0.851211 -0.159729 1.36988e-20)
(0.954477 -0.157557 -7.78481e-20)
(1.23444 -0.253144 -9.02079e-20)
(1.1806 -0.233274 0)
(1.00002 -0.000218388 2.087e-21)
(-0.165452 -0.0405222 0)
(1.00787 -0.000680518 -7.72682e-22)
(0.427631 -0.0243775 -2.04379e-20)
(0.934006 -0.346479 -6.27819e-20)
(1.00038 -0.00529987 0)
(1.21719 0.0284473 1.54408e-20)
(0.986205 -0.0387778 -2.1325e-20)
(0.695684 -0.0928831 1.26409e-19)
(-0.252707 -0.0328786 9.58034e-20)
(1.02866 -0.562557 0)
(1.21451 -0.38753 2.04284e-21)
(1.03289 -0.00649498 0)