/*--------------------------------*- C++ -*----------------------------------*\
| =========                 |                                                 |
| \\      /  F ield         | OpenFOAM: The Open Source CFD Toolbox           |
|  \\    /   O peration     | Version:  v2012                                 |
|   \\  /    A nd           | Website:  www.openfoam.com                      |
|    \\/     M anipulation  |                                                 |
\*---------------------------------------------------------------------------*/
FoamFile
{
    version     2.0;
    format      ascii;
    class       volVectorField;
    location    "50";
    object      U_0;
}
// * * * * * * * * * * * * * * * * * * * * * * * * * * * * * * * * * * * * * //

dimensions      [0 1 -1 0 0 0 0];


internalField   nonuniform List<vector> 
18649
(
(-0.191261 -0.0372859 1.14302e-22)
(1.0099 -0.112897 1.55265e-21)
(1.07264 -0.0047635 0)
(-0.184957 -0.0419421 -1.08207e-19)
(0.473622 -0.166967 1.17462e-19)
(1.10579 -0.0761381 -2.76712e-20)
(0.0815712 0.0354782 -6.8089e-20)
(1.26129 -0.244249 -1.61472e-20)
(1.20779 -0.0185669 2.29043e-20)
(0.957307 -0.0493903 -8.36458e-22)
(1.20888 -0.299962 6.95304e-20)
(-0.264244 -0.0471071 -2.25359e-20)
(0.981362 0.113817 -1.03319e-19)
(1.07125 -0.00497021 0)
(0.991613 -0.0174336 0)
(1.17286 -0.0644438 3.34118e-20)
(1.01525 -0.00241547 5.11219e-22)
(1.17305 -0.0615851 1.45349e-20)
(1.11388 -0.388397 3.74965e-20)
(0.0313693 -0.0407254 -1.32255e-19)
(0.0997207 -0.0574452 -9.81723e-21)
(1.04311 -0.0657223 0)
(-0.298155 -0.0554182 0)
(1.24139 0.0904012 0)
(1.01584 -0.0158568 0)
(0.000561329 -0.0423065 -2.84698e-20)
(1.03343 -0.055972 -5.54574e-22)
(-0.257713 -0.0463406 -6.5782e-20)
(1.32914 -0.205102 0)
(1.0308 -0.00224184 -1.09804e-20)
(1.05218 -0.0473745 3.70596e-21)
(1.04261 -0.317934 7.75691e-21)
(1.0047 -0.00937542 -8.244e-23)
(0.959143 -0.0989249 -2.4799e-20)
(0.978471 -0.0657223 4.98612e-21)
(-0.284016 -0.0517667 -3.23181e-20)
(0.878803 -0.064978 5.96245e-20)
(1.0128 -0.050967 6.01187e-22)
(1.03404 -0.0149443 5.94896e-21)
(1.25478 -0.246067 -4.83126e-20)
(1.21254 -0.0179897 -6.92372e-20)
(1.24231 0.087464 -3.17427e-21)
(1.21114 0.00720932 -3.43777e-21)
(-0.220326 -0.0518828 -1.62838e-23)
(1.01299 -0.11296 5.06107e-22)
(1.03118 -0.00216472 -9.75709e-21)
(-0.0719727 -0.0406072 -1.09839e-19)
(-0.178429 -0.0423118 7.75979e-20)
(1.04634 -0.286738 5.3885e-22)
(1.03137 -0.0204595 1.03245e-20)
(-0.127596 0.0676404 3.16128e-20)
(1.10561 -0.115617 -4.31972e-21)
(0.404788 -0.0817541 2.51861e-20)
(0.463201 -0.00792749 0)
(1.00456 -0.00889614 -7.68545e-22)
(1.01935 -0.281336 8.64733e-20)
(-0.168625 -0.0371471 0)
(1.23712 -0.0324397 0)
(-0.114205 -0.0357542 -1.17812e-19)
(0.959234 -0.0492544 9.50888e-22)
(-0.191024 -0.0363461 -8.09983e-20)
(1.00287 -0.020272 2.86052e-21)
(1.2078 0.00872108 0)
(-0.158956 -0.041321 -4.58873e-20)
(1.01412 -0.050842 0)
(-0.146074 -0.0410374 1.64526e-19)
(1.04408 -0.0388083 0)
(-0.166562 -0.0343421 0)
(-0.157218 -0.0402434 -8.59525e-20)
(1.33415 -0.0689622 8.32963e-20)
(-0.259982 -0.0530689 1.13133e-20)
(1.00373 -0.0227948 3.79577e-22)
(1.02813 -0.326702 2.14738e-21)
(1.10541 -0.0445865 -8.87336e-23)
(0.96392 -0.092096 1.98342e-20)
(0.0885843 -0.0590996 1.06804e-20)
(0.859644 -0.161854 1.20939e-20)
(1.03419 -0.161261 4.4202e-21)
(1.10307 -0.0438676 -9.34408e-21)
(0.960728 -0.498945 0)
(1.01566 -0.00204159 0)
(-0.0940372 -0.0413127 0)
(-0.18802 -0.0444768 1.88094e-19)
(0.436937 -0.0860536 -2.40183e-20)
(0.834465 -0.262333 0)
(1.0338 -0.0140914 -8.3288e-21)
(0.885322 -0.115094 5.39314e-20)
(1.10382 -0.112363 3.27459e-20)
(1.13807 -0.158031 1.75258e-20)
(1.10981 -0.0497429 0)
(1.13998 -0.0311552 -4.09423e-20)
(0.965387 -0.0292436 0)
(1.00349 -0.0441062 -2.70171e-21)
(-0.100389 0.0180146 -8.0982e-20)
(1.04244 -0.063942 0)
(1.20372 -0.293448 9.94702e-20)
(0.964535 -0.054137 0)
(0.936745 -0.457574 8.72403e-22)
(-0.150713 -0.0403124 -4.3513e-20)
(1.03271 -0.0543545 4.82062e-22)
(-0.297828 -0.054015 -1.10354e-19)
(0.915462 -0.230408 0)
(1.01968 -0.0073311 2.62811e-23)
(-0.119842 0.0710135 0)
(-0.159665 -0.0397483 4.76477e-20)
(1.10894 -0.11577 -6.96772e-22)
(0.999073 -0.00423195 -4.46136e-21)
(1.05642 -0.0509167 -8.44028e-22)
(0.916352 -0.2368 -1.99617e-20)
(0.96222 -0.0841148 1.69642e-20)
(-0.28312 -0.0521552 -5.90319e-20)
(0.679891 -0.213073 -1.32741e-19)
(1.00328 -0.0429902 -2.42201e-21)
(0.95807 -0.0814466 -5.36321e-21)
(1.29856 -0.0456109 6.3965e-20)
(1.08146 -0.00639981 -1.09989e-20)
(1.00416 -0.00848015 -1.36515e-23)
(-0.104847 -0.0200911 0)
(-0.22716 -0.0521792 0)
(1.04033 -0.0198388 0)
(-0.12002 -0.0359955 1.17434e-19)
(1.02033 -0.064341 0)
(1.03243 -0.320112 -2.01194e-21)
(1.00328 -0.0225706 4.21598e-23)
(-0.110751 -0.047146 3.61675e-20)
(1.01614 -0.0164501 0)
(1.00002 -0.000341907 -5.50679e-21)
(0.0211711 -0.040475 2.50709e-20)
(1.01936 -0.0632806 -4.32561e-22)
(-0.0908777 -0.0175996 5.08991e-20)
(0.997993 -0.0350895 4.3845e-22)
(-0.184115 -0.044413 -1.21369e-19)
(1.01643 -0.0303697 -5.15992e-22)
(-0.0920199 -0.0388555 9.43178e-20)
(0.873751 -0.0646637 -2.14718e-20)
(0.999674 -0.00399529 -1.01551e-20)
(-0.24626 -0.0525349 -9.16587e-24)
(-0.163363 -0.0363212 0)
(1.13818 -0.0293339 3.59146e-20)
(1.03157 -0.157601 0)
(0.470789 -0.543 -2.32668e-20)
(1.02377 -0.0435404 0)
(1.02892 -0.0161675 0)
(1.00802 -0.0146001 3.67278e-22)
(1.00005 -0.0075579 -1.03912e-20)
(-0.25642 -0.0397187 0)
(1.02947 -0.0159581 0)
(1.00128 -0.0157472 -7.64181e-21)
(-0.299027 -0.0525482 0)
(-0.161833 -0.04025 9.58004e-20)
(1.34519 -0.0397398 -4.80829e-20)
(0.999578 -0.0026062 0)
(-0.215035 -0.0471214 0)
(1.05757 -0.0230702 -1.13626e-20)
(1.0224 -0.0552711 0)
(1.00762 -0.0141999 0)
(0.587423 -0.240765 0)
(0.958886 -0.481824 -5.30175e-21)
(1.00468 -0.00485701 -9.74156e-23)
(0.987105 -0.0391197 3.64079e-21)
(1.00033 -0.0134668 5.8015e-21)
(1.27981 -0.317859 1.10485e-19)
(-0.110949 -0.0364958 -9.68605e-20)
(1.057 -0.0238827 -1.07923e-20)
(-0.10333 -0.0470912 0)
(1.29786 -0.0498457 -6.3271e-20)
(0.999061 -0.00448042 0)
(1.00494 -0.0240275 -1.18141e-21)
(1.0233 -0.0563457 -4.76832e-22)
(1.07959 -0.00673168 -1.78385e-20)
(0.997379 -0.0346823 0)
(0.138854 -0.439093 1.17381e-19)
(1.23281 -0.0343434 0)
(0.480081 -0.187824 0)
(1.01549 -0.049093 1.1625e-21)
(0.513184 0.0967443 -1.1021e-19)
(-0.302076 -0.0525601 -2.09353e-23)
(1.01724 -0.116016 -1.34501e-21)
(1.00438 -0.00466648 -1.44179e-22)
(1.34236 -0.0696299 0)
(1.35389 -0.0636244 0)
(1.02829 -0.00539137 0)
(1.00003 -0.000678786 1.18417e-21)
(-0.222348 -0.019405 -5.81842e-20)
(1.08965 -0.0990792 0)
(1.17554 -0.0365508 0)
(1.00011 -0.0071889 7.84916e-21)
(1.02433 -0.0431211 0)
(1.15423 0.00308753 0)
(0.969389 -0.1945 0)
(0.877455 -0.789832 -2.06586e-20)
(1.01492 -0.0536798 0)
(-0.167547 -0.0261728 -6.79559e-20)
(1.05203 -0.0220076 0)
(1.01832 -0.00628199 2.70911e-21)
(1.0003 -0.00499897 0)
(0.889387 -0.112887 -1.94042e-20)
(0.97534 -0.290928 -1.16908e-21)
(0.963185 -0.0949421 1.0422e-20)
(1.00005 -0.000595384 0)
(1.00118 -0.0150156 0)
(1.28097 -0.0483263 0)
(-0.173186 -0.0339781 -6.63406e-21)
(0.88927 -0.0775506 -1.67291e-20)
(1.14154 -0.161741 8.74366e-21)
(0.707646 -0.181931 1.91102e-20)
(1.30816 -0.194431 3.24054e-20)
(-0.055143 -0.0404133 7.11378e-20)
(1.055 -0.0500704 0)
(-0.220924 -0.0413093 -1.41637e-19)
(0.986402 -0.042203 -3.75453e-21)
(1.01528 -0.0984127 4.8488e-22)
(1.01681 -0.0622821 0)
(-0.180597 -0.027804 1.48525e-19)
(-0.187589 -0.0451632 1.59367e-19)
(1.03601 -0.0318332 -4.61006e-21)
(0.828141 -0.223746 0)
(1.02188 -0.0305658 1.88031e-21)
(-0.10622 -0.0466657 -8.87353e-23)
(0.997521 -0.0476911 9.33447e-21)
(1.22439 0.0299425 1.64225e-20)
(1.01863 -0.0406015 1.42841e-22)
(0.314624 -0.803049 3.72648e-20)
(0.164279 -0.453907 -1.06886e-21)
(0.0613574 -0.0410819 9.90093e-20)
(-0.102542 0.0083099 4.1488e-20)
(1.03699 -0.0326899 5.40559e-21)
(0.997461 -0.0463381 -4.10239e-21)
(0.374873 -0.0751286 0)
(0.583193 0.0982874 1.42144e-19)
(1.15353 0.00932695 6.4782e-21)
(1.01637 -0.0279794 -4.42512e-22)
(-0.301886 -0.0538762 0)
(1.17162 -0.071276 -3.10598e-20)
(0.0528264 -0.0403916 1.0372e-19)
(1.28748 -0.302214 1.48932e-20)
(0.595318 -0.221238 7.0865e-20)
(0.476902 -0.109416 6.21888e-20)
(1.01608 -0.0295537 5.54359e-22)
(1.22436 -0.448863 -8.06936e-20)
(1.02146 -0.00497381 0)
(-0.205522 -0.0461291 -3.42646e-20)
(1.15275 0.00755197 1.4409e-21)
(1.02777 -0.0051382 2.83885e-22)
(0.958784 -0.0840694 1.12835e-20)
(0.97506 -0.192958 1.07822e-20)
(0.244303 -0.052442 1.12917e-19)
(0.98779 -0.0386003 0)
(0.781119 -0.34949 1.9915e-20)
(0.978538 -0.285173 -4.19647e-21)
(-0.302397 -0.0517731 7.26513e-20)
(0.0649597 0.0315583 8.68687e-20)
(1.17309 -0.0345299 0)
(0.977833 -0.0677255 5.69103e-21)
(1.09287 -0.0991955 2.90645e-20)
(-0.22232 -0.0520049 0)
(1.01864 -0.0395002 -2.37012e-22)
(0.986492 -0.0412193 0)
(0.955441 -0.0817818 5.61455e-21)
(0.963725 -0.0865968 -1.78001e-20)
(1.03296 -0.0244578 -1.96212e-21)
(0.684316 -0.199709 7.91213e-20)
(-0.220154 -0.0414359 1.34094e-19)
(0.98564 -0.0379746 1.25543e-20)
(1.01759 -0.00627499 -2.67023e-21)
(-0.107143 -0.0418859 3.81419e-20)
(0.34892 0.0715712 -5.88952e-20)
(1.00024 -0.00495542 0)
(-0.218021 -0.0159656 -2.90251e-20)
(1.02219 -0.0115468 0)
(-0.262236 -0.0411822 1.99441e-20)
(1.06043 -0.340873 -1.16642e-20)
(0.349908 -0.0722911 2.77473e-20)
(0.683801 -0.315331 0)
(1.12333 -0.38593 0)
(1.05182 -0.0209664 1.82279e-21)
(1.01725 -0.00569531 0)
(1.06107 0.11274 -6.51272e-20)
(-0.0932748 0.00846002 0)
(-0.0933809 -0.0466259 -2.00196e-21)
(1.00017 -0.00752793 1.1616e-21)
(1.02084 -0.0302776 4.31874e-21)
(-0.206985 -0.0471357 2.38618e-20)
(1.05659 -0.129532 -1.39621e-20)
(0.865693 -0.133952 8.23962e-20)
(-0.300582 -0.0532328 0)
(1.05977 -0.0226802 0)
(0.861997 -0.169515 0)
(0.999742 -0.00326506 0)
(1.03114 -0.00671539 0)
(1.22106 0.0268356 -1.60914e-20)
(-0.300022 -0.0514493 3.01162e-20)
(0.217586 0.0376267 -7.15618e-20)
(0.296281 -0.0565949 -1.72015e-19)
(1.33177 -0.167775 -1.85362e-22)
(0.999375 -0.0782276 -7.91282e-21)
(1.35201 -0.0381555 0)
(1.32934 -0.204503 0)
(1.01869 -0.00674411 0)
(0.400381 0.0744776 0)
(1.00514 -0.000887103 2.63714e-22)
(0.956708 -0.10029 3.39613e-20)
(0.965605 -0.0520156 0)
(1.00729 -0.0143595 -1.0554e-22)
(1.03922 -0.0194781 5.86864e-21)
(0.466312 -0.122784 4.06578e-20)
(0.999716 -0.00381676 1.16256e-20)
(1.1932 -0.0386793 3.78195e-20)
(0.462198 -0.0919492 -5.42104e-20)
(0.959878 -0.0958131 -2.16936e-20)
(-0.0175435 -0.0427033 0)
(0.959932 -0.0519226 3.40381e-20)
(0.490684 -1.1367 -2.55388e-20)
(0.992057 -0.0169383 9.59021e-21)
(1.05924 -0.0234776 1.07008e-20)
(1.01661 -0.0290042 0)
(1.06966 -0.0248905 2.8056e-20)
(1.00003 -0.000303206 -2.12399e-21)
(-0.191119 -0.0450939 -9.35396e-20)
(-0.199034 -0.051488 -6.95698e-20)
(0.999299 -0.00354856 0)
(1.00015 -0.0133371 -3.23604e-21)
(1.21373 -0.0147501 5.2377e-20)
(1.00023 -0.000442824 1.21551e-21)
(1.00687 -0.0139015 -7.35947e-22)
(1.03849 -0.0401985 0)
(1.00024 -0.00712871 0)
(0.919861 -0.158711 -3.14872e-20)
(-0.0618052 -0.0266723 0)
(0.697823 -0.168211 6.54099e-20)
(-0.213648 -0.0410945 3.63289e-20)
(1.00448 -0.0235708 0)
(0.999782 -0.0115368 3.04157e-21)
(1.20473 0.0141033 1.31275e-20)
(1.00521 -0.00483099 2.89612e-23)
(1.03375 -0.000795584 0)
(-0.233527 -0.0246625 -6.17686e-20)
(0.98851 -0.15024 0)
(1.20942 -0.139741 5.86618e-20)
(0.885267 -0.0796836 0)
(1.2767 -0.324639 -5.43215e-20)
(1.0049 -0.00464648 0)
(1.09383 -0.016682 0)
(1.01775 -0.063543 5.01178e-22)
(1.06759 -0.07224 1.02212e-20)
(0.998588 -0.0191193 2.67132e-21)
(1.00021 -0.00435403 -3.32159e-21)
(1.02097 -0.00448099 -4.21178e-21)
(1.1382 -0.0252405 -2.06063e-20)
(1.17011 -0.0735031 0)
(0.995549 -0.0196383 6.39352e-21)
(0.985567 0.118919 -6.00782e-20)
(0.995277 -0.0203061 0)
(1.03844 -0.0395487 0)
(-0.210596 -0.0402114 -1.28668e-19)
(0.96268 0.0269176 0)
(1.07082 -0.0257896 0)
(-0.0246922 -0.0436177 0)
(1.27916 -0.30226 0)
(-0.0983628 -0.0461597 -1.58665e-20)
(0.160343 0.0382129 0)
(1.06617 -0.070297 -9.12302e-21)
(0.125803 0.0352587 0)
(0.995489 -0.0210403 0)
(0.120664 -0.0431995 1.04527e-19)
(0.519193 -0.939255 1.92083e-20)
(0.961746 -0.0518851 -2.42143e-20)
(0.903879 -0.0415825 -3.87109e-20)
(0.988618 -0.146642 6.785e-21)
(1.05095 -0.0460221 0)
(1.0159 -0.0548404 -8.23361e-22)
(1.02803 -0.0157583 0)
(0.998867 -0.0178594 4.0371e-21)
(-0.175441 -0.0449494 -3.40514e-20)
(0.91419 -0.160316 0)
(0.0393876 -0.0415593 -1.03326e-19)
(-0.215377 -0.0411129 1.57979e-20)
(1.33176 -0.188426 0)
(0.208896 -0.049116 -7.15132e-20)
(1.08407 -0.0378816 -1.10285e-20)
(0.999961 -0.000531711 3.85994e-21)
(1.14985 0.012602 0)
(1.01429 -0.0273285 0)
(0.835379 -0.820507 0)
(1.00006 -0.000123865 2.51616e-21)
(0.999659 -0.00256524 -6.99844e-21)
(0.07387 -0.201035 0)
(0.2433 0.042339 0)
(1.0611 -0.0526005 -4.451e-21)
(1.0322 -0.0220501 0)
(1.30574 -0.291324 6.86841e-20)
(1.09737 -0.221286 -8.87401e-21)
(0.994572 -0.0458162 1.02021e-20)
(-0.166517 0.0245044 -3.93745e-20)
(1.06847 -0.00478838 1.4333e-20)
(0.906479 -0.0400519 4.87422e-20)
(-0.277508 -0.0515937 1.72821e-19)
(1.08035 -0.0711622 -7.33711e-21)
(0.999756 -0.00305848 -3.50305e-21)
(-0.234575 -0.02431 0)
(-0.176676 -0.0455019 0)
(1.1726 -0.0293796 -1.73533e-20)
(1.00308 -0.0307207 0)
(0.999865 -0.011148 0)
(-0.185051 -0.0433141 0)
(-0.232123 -0.023372 7.63308e-20)
(1.02227 -0.0316191 0)
(1.29614 -0.265941 6.25351e-20)
(1.02391 -0.0127437 0)
(1.02628 -0.0397701 6.84689e-23)
(0.0925871 0.0224405 0)
(1.03623 -0.0141258 2.87668e-22)
(-0.0513127 -0.0251195 0)
(1.08043 -0.0730687 0)
(1.26467 0.0612674 0)
(0.16985 -0.0440471 1.11064e-19)
(0.945397 0.117177 7.73679e-20)
(0.472591 0.0916413 1.61106e-19)
(1.01435 -0.0252659 0)
(0.031932 -0.0760475 5.58061e-20)
(0.995264 -0.0217393 0)
(1.0907 0.10814 9.18196e-20)
(1.14289 -0.250266 0)
(0.0867375 -0.0410224 6.10704e-20)
(0.363982 -0.0241109 9.71781e-20)
(1.02749 -0.0152605 -2.6769e-21)
(1.03412 -0.00030027 -1.7224e-22)
(1.21938 -0.459099 0)
(-0.084223 -0.0450104 -3.21165e-20)
(1.09506 -0.0175617 8.65262e-21)
(0.692716 -0.302063 -5.72509e-20)
(1.05946 -0.0524485 4.03835e-21)
(1.04207 -0.0851209 1.18521e-20)
(1.01629 -0.0051311 -3.33396e-21)
(-0.0760997 -0.0170855 1.04726e-22)
(0.947213 0.12268 6.5159e-20)
(-0.0538615 -0.0496079 -3.31976e-20)
(1.05386 -0.0469371 6.6552e-21)
(0.965428 -0.0280437 -6.88441e-21)
(0.0925155 -0.214863 0)
(-0.212099 -0.0488814 -8.04075e-20)
(0.905055 -0.0354264 -5.60341e-20)
(0.994331 -0.077145 -1.03395e-20)
(1.03207 -0.0228631 0)
(1.02461 -0.0127763 -5.4912e-21)
(-0.0880065 -0.045607 0)
(0.00860418 -0.0399849 4.71678e-20)
(1.00406 -0.00737551 -4.75762e-23)
(1.05202 -0.0118204 -9.35624e-21)
(-0.285135 -0.0524668 0)
(1.03547 -0.0187408 5.72931e-22)
(-0.257569 -0.047174 1.86195e-19)
(1.03125 -0.0211604 -7.58956e-21)
(-0.150677 -0.0265999 0)
(1.09163 -0.219003 -2.74891e-20)
(0.102625 -0.0415958 5.54888e-20)
(0.943026 -0.135041 -1.51202e-20)
(0.495192 -0.00529517 -4.22074e-20)
(-0.218096 -0.0408586 9.20744e-21)
(1.02065 -0.124741 -3.46035e-22)
(1.20694 -0.023081 -2.53516e-20)
(1.04315 -0.0835833 -5.33521e-21)
(1.19779 -0.0282559 2.14904e-20)
(1.08304 -0.0361786 0)
(0.987704 -0.0351711 0)
(1.05635 -0.13255 8.09377e-22)
(0.199932 -0.578863 -6.31626e-20)
(1.0313 -0.00723404 0)
(1.07233 -0.0456326 0)
(-0.214835 -0.0487002 2.18491e-20)
(1.02299 -0.0134259 9.14752e-21)
(1.00018 -0.00434248 0)
(1.16543 0.106948 0)
(1.01412 -0.0156298 2.30166e-21)
(-0.212827 -0.0519918 -3.64139e-20)
(1.06218 -0.0221254 0)
(1.0695 -0.0225271 0)
(1.05087 -0.00963562 0)
(1.11685 -0.056545 -2.83221e-20)
(1.0672 -0.00410656 1.2414e-20)
(1.00005 -0.000508126 1.17942e-22)
(0.541505 -0.547638 0)
(1.02679 -0.0409106 -1.84412e-22)
(0.827403 -0.143271 0)
(1.00017 -0.0124987 -3.01647e-21)
(1.08616 -0.120677 3.4837e-20)
(-0.22303 -0.0519478 -8.48338e-20)
(1.00004 -0.0010149 -1.21524e-22)
(0.710794 0.0308366 1.73381e-20)
(1.07346 -0.101755 0)
(0.0844929 0.0420233 0)
(-0.24921 -0.0311065 6.40543e-20)
(-0.250772 -0.0316755 0)
(-0.247982 -0.0480418 0)
(1.11955 -0.0572895 3.18102e-20)
(1.17062 -0.240549 6.20339e-22)
(1.15233 0.011726 7.51163e-21)
(-0.256941 -0.0477031 -9.3215e-20)
(0.977407 -0.0340554 0)
(1.1431 -0.31467 -4.89095e-20)
(0.968348 -0.0884353 1.67042e-20)
(0.532771 -0.0310537 9.66545e-20)
(1.28664 -0.0470704 -5.54923e-20)
(1.07105 -0.264949 0)
(1.00027 -0.000424908 -9.90433e-22)
(0.385303 -0.342742 -7.29576e-20)
(1.29441 -0.013691 7.303e-20)
(0.112097 0.0219066 1.03318e-20)
(1.04365 -0.0352685 0)
(-0.273777 -0.0518134 -2.27259e-19)
(0.926966 -0.042919 -5.81632e-22)
(1.22872 0.0241971 -1.69757e-20)
(0.996703 -0.0106584 5.49492e-21)
(1.1455 -0.257193 -3.43947e-20)
(-0.211166 -0.0506789 6.48393e-20)
(0.999421 -0.00326707 -7.1722e-21)
(1.05118 -0.0111287 0)
(-0.25216 -0.0324707 0)
(1.03747 -0.0210205 0)
(0.950559 -0.448925 -8.42213e-22)
(1.03567 -0.0214486 0)
(1.10839 -0.0767407 2.56328e-20)
(1.03258 -0.0569812 2.00807e-21)
(1.14326 -0.107049 1.5058e-20)
(1.01384 -0.0150329 -7.95794e-22)
(0.724237 -0.479062 -2.23027e-20)
(1.00008 -0.000902904 9.53559e-22)
(0.054004 0.056598 -1.90999e-20)
(1.04487 -0.0354143 0)
(-0.24756 -0.0466292 -1.21518e-19)
(1.20641 -0.110762 0)
(-0.105242 0.0186957 4.83939e-20)
(-0.206658 -0.0496094 -8.35287e-20)
(1.07046 -0.0447193 0)
(1.00209 0.0206045 7.35921e-21)
(1.19643 -0.031732 4.14344e-20)
(0.018225 -0.0189966 9.67343e-20)
(-0.216551 -0.0411269 -2.01131e-20)
(1.04088 -0.018524 6.96391e-22)
(0.819944 -0.141302 2.56749e-20)
(1.26044 0.0591978 -5.54907e-20)
(1.07264 -0.0293107 1.44261e-20)
(1.29757 0.0750759 9.32207e-21)
(1.01478 -0.0597137 0)
(0.999227 -0.00397081 4.06447e-21)
(1.07152 -0.0302054 -5.31234e-21)
(1.00356 -0.000636323 1.85402e-22)
(1.00007 -0.000736517 2.36697e-21)
(1.01429 -0.0612315 1.44714e-21)
(0.420406 -0.161855 1.1376e-19)
(1.02271 -0.0121562 0)
(1.02698 -0.0318241 0)
(1.11261 -0.050293 -1.08332e-20)
(1.04415 -0.0928493 9.58802e-23)
(0.507078 -0.530876 4.40131e-20)
(-0.109039 0.0150499 3.79547e-20)
(0.976308 -0.0338401 -6.8898e-22)
(1.20789 0.0129402 1.49136e-20)
(1.31055 -0.188077 0)
(1.06533 -0.269016 0)
(0.999989 -0.0124042 6.36555e-21)
(0.0306857 -0.0432765 0)
(0.627189 0.103015 -5.00371e-20)
(0.178693 -0.067123 0)
(1.29961 0.0703424 -1.11485e-20)
(1.15487 0.00509616 0)
(1.04657 -0.0826143 1.77069e-21)
(1.12023 -0.0666451 7.96836e-21)
(1.13975 -0.0269364 0)
(1.06388 -0.0220587 -6.43862e-21)
(1.33934 -0.163205 2.92593e-20)
(1.00881 -0.0347029 0)
(1.06424 -0.0212492 -7.36259e-21)
(1.03121 -0.0107924 3.8314e-21)
(-0.169087 0.0058378 0)
(0.0885577 -0.0422747 -1.7463e-19)
(-0.254531 -0.036595 -3.4008e-20)
(1.02395 -0.154465 -8.96718e-22)
(1.0043 -0.0297419 -2.91862e-21)
(-0.189081 -0.0443264 0)
(-0.135074 -0.0406848 -8.81255e-20)
(0.904483 -0.788601 1.62101e-20)
(1.08826 -0.122836 -1.63445e-20)
(0.762175 -0.051952 -1.62643e-21)
(-0.207313 -0.0179027 -7.21945e-21)
(1.00485 -0.000679727 -6.46222e-23)
(-0.253798 -0.0333198 0)
(1.04201 -0.0920424 -8.14873e-23)
(0.954192 -0.0625417 0)
(0.957208 -0.0361311 0)
(0.588561 -0.602354 -2.89602e-20)
(-0.145439 -0.040136 2.31363e-20)
(1.06165 -0.0229604 0)
(0.719064 -0.459237 0)
(0.941302 -0.139692 -8.90795e-21)
(0.998053 -0.0770737 9.48602e-21)
(-0.187348 -0.0268552 -8.83512e-20)
(1.04977 -0.558226 -3.12681e-20)
(0.995755 -0.0283279 4.09625e-21)
(0.0331235 -0.0197313 -9.12879e-20)
(1.13991 -0.0339799 1.07349e-20)
(-0.104047 0.0737029 -6.04554e-20)
(1.0213 -0.0556504 -2.88719e-22)
(0.633186 -0.135678 -7.21588e-20)
(1.14257 -0.10484 2.7529e-20)
(1.1199 0.00420001 -1.29473e-20)
(1.0109 -0.000452859 -1.18366e-21)
(0.103867 -0.0425961 -6.97206e-20)
(1.17461 -0.139304 2.41782e-20)
(1.20905 -0.0299993 0)
(1.20378 0.0255934 1.36013e-20)
(-0.184143 -0.0497684 0)
(1.0948 -0.0196382 7.63814e-23)
(-0.24849 -0.0351006 6.24958e-20)
(1.05651 -0.033368 0)
(1.02619 -0.158527 0)
(0.11922 0.00558948 -8.4853e-20)
(1.10334 -0.0776818 1.44256e-20)
(1.00504 -0.00969772 0)
(0.753143 -0.0560371 -1.48793e-21)
(1.07023 -0.0350654 -1.52512e-20)
(1.19812 0.0170637 6.99563e-20)
(1.02635 -0.030964 4.63628e-23)
(0.992678 -0.0333094 5.54648e-21)
(0.464283 -0.576805 -3.38242e-20)
(1.18207 -0.493341 0)
(-0.109578 -0.0454317 -7.61196e-20)
(1.00008 -0.000415762 0)
(-0.214713 -0.051856 3.79218e-20)
(1.03222 -0.0202964 0)
(0.907081 -0.540199 1.33414e-21)
(1.17461 -0.0313562 1.03728e-20)
(1.03122 -0.0114178 -4.03056e-21)
(1.04066 -0.0389418 -6.67642e-21)
(0.962647 -0.05426 -8.40818e-21)
(1.22401 -0.0682883 0)
(0.970301 -0.0542438 -1.36274e-20)
(1.16952 -0.246554 4.39276e-22)
(1.23255 0.0230428 1.28685e-20)
(0.963905 -0.224017 1.53751e-20)
(1.02187 -0.0425746 0)
(1.02047 -0.0293199 -2.63629e-21)
(0.954379 -0.0793317 0)
(0.260628 -0.00915375 4.03689e-20)
(1.00296 -0.0196398 2.68591e-21)
(0.911271 -0.136826 -1.49951e-20)
(1.02032 -0.00736149 -4.06879e-21)
(-0.141137 0.0708815 1.66832e-20)
(1.00003 -0.00140604 0)
(0.949723 -0.0632704 2.36318e-20)
(1.06653 -0.00768795 -3.52417e-21)
(1.02249 -0.0128032 -4.75886e-21)
(-0.286164 -0.0521252 1.04886e-19)
(1.28984 -0.015526 -3.34475e-20)
(0.184295 -0.385073 0)
(1.0142 -0.11624 1.74406e-21)
(0.533638 -0.111671 -1.54627e-21)
(1.13755 -0.0349353 0)
(1.03341 -0.0152021 2.1042e-21)
(1.12588 0.00830777 3.19311e-20)
(-0.154558 -0.0399984 0)
(1.08288 -0.0678236 1.27187e-20)
(1.04268 -0.0388754 3.83883e-21)
(0.300262 -0.00671799 3.93953e-20)
(0.503933 0.0638204 0)
(1.00079 -0.0162003 8.05306e-21)
(-0.200845 -0.0468709 0)
(0.199077 -0.0861814 0)
(1.05682 -0.0346213 5.92139e-21)
(1.0643 -0.0187886 0)
(1.16916 -0.185541 2.49373e-20)
(0.958952 -0.0352202 -1.3458e-20)
(0.996277 -0.0281143 0)
(0.82966 -0.855124 0)
(-0.259108 -0.0531752 -1.35394e-20)
(-0.181036 -0.0237435 0)
(0.330272 -0.00922217 -8.30069e-20)
(0.996571 -0.0252306 -1.58738e-20)
(0.787339 -0.281704 0)
(1.00494 -0.0249127 0)
(1.00738 -0.0197697 -5.62156e-22)
(1.03252 -0.0146513 -3.84209e-21)
(-0.166831 -0.0411977 0)
(1.02068 -0.00115308 -5.95775e-21)
(1.0165 -0.0501028 -7.28314e-22)
(-0.20285 -0.0174356 3.67419e-23)
(-0.21561 -0.0491903 -1.27703e-19)
(1.06905 -0.0523026 2.08728e-20)
(1.30452 -0.163939 1.05801e-19)
(1.08699 -0.12591 -9.89784e-21)
(1.00402 -0.00801833 0)
(0.186327 0.0650043 0)
(1.10711 -0.0436151 -2.35409e-22)
(1.16964 -0.486845 0)
(1.00472 -0.0744177 0)
(1.0082 -0.543671 -4.44416e-22)
(1.03352 -0.00152682 -5.7427e-21)
(1.09656 -0.0203284 -9.26749e-21)
(0.99996 -0.000871215 7.66197e-21)
(1.18693 -0.361877 6.0456e-20)
(1.02267 -0.0432709 0)
(-0.175589 -0.0432596 2.083e-20)
(0.323633 -0.0662799 0)
(1.28837 -0.129082 -7.57943e-20)
(-0.11876 -0.0377347 -4.07075e-23)
(-0.0956869 -0.0456046 0)
(0.910058 -0.100887 3.79055e-20)
(-0.248184 -0.0521723 -1.00957e-19)
(1.21984 -0.254352 0)
(1.22809 0.0287741 1.82269e-20)
(0.956809 -0.0379721 4.5403e-21)
(1.03946 -0.0386263 6.50074e-21)
(-0.0640366 -0.0406297 -3.65411e-20)
(0.425243 0.0723566 0)
(1.28704 -0.194872 -3.68609e-20)
(1.19527 -0.295244 -9.37729e-20)
(1.07906 -0.268954 -2.78184e-20)
(0.998561 -0.01854 4.51811e-21)
(1.01835 -0.122489 1.54965e-23)
(0.140556 0.00472576 9.70458e-20)
(-0.214561 -0.040365 1.96062e-19)
(1.00397 -0.0287915 1.70381e-22)
(1.05752 -0.0870635 0)
(-0.139965 -0.0329524 -2.66179e-20)
(0.036458 0.0703283 -9.45669e-20)
(0.0603404 -0.0409848 -9.1584e-20)
(1.27822 -0.063648 6.10471e-20)
(1.00794 -0.000331659 -7.17999e-22)
(0.956011 -0.0636031 2.73401e-20)
(-0.225207 -0.0522581 7.92298e-20)
(-0.0023092 -0.0403617 0)
(1.01353 -0.00323804 1.92217e-21)
(1.12156 -0.0319752 -3.58977e-20)
(1.01661 -0.00567183 2.82126e-21)
(0.732613 -0.89723 -5.74072e-22)
(0.996966 -0.01019 0)
(1.14432 -0.108632 -5.99103e-20)
(1.08463 -0.264264 3.23891e-20)
(1.00113 -0.0161799 6.80167e-21)
(1.05877 -0.00359467 0)
(-0.211431 -0.0510996 2.39245e-20)
(0.996116 -0.0223588 0)
(1.07054 -0.100727 7.56569e-21)
(0.992194 -0.0326543 -5.59234e-21)
(1.01106 -0.000767812 8.61214e-23)
(1.00138 -0.0372433 7.41307e-23)
(1.07876 -0.638941 -1.93011e-20)
(0.865441 -0.369906 -3.05462e-20)
(1.32841 -0.199029 -2.56627e-20)
(0.177543 0.0347039 -7.80562e-20)
(-0.213399 -0.0499331 6.43159e-20)
(-0.187212 0.0011924 0)
(1.00001 -0.000887928 -7.82351e-21)
(1.21096 -0.103548 0)
(0.906419 -0.0482595 5.08479e-20)
(1.08508 -0.0860787 -2.82839e-20)
(1.30789 -0.262371 -6.91148e-20)
(0.998341 -0.0197473 0)
(0.987135 -0.0343562 -1.58464e-21)
(1.03978 -0.018023 0)
(0.331823 -0.866743 -3.11802e-20)
(-0.100585 0.00531639 -9.52275e-20)
(0.343882 -0.760032 1.65466e-20)
(0.997221 -0.0282027 -1.30111e-20)
(0.984553 -0.144291 -6.98175e-21)
(1.03453 -0.0138498 -3.22532e-23)
(1.03196 -0.0149568 1.14767e-22)
(1.03361 -0.000570808 -1.22962e-20)
(0.994329 -0.0932011 -6.60731e-21)
(0.963912 -0.219455 -1.66096e-20)
(-0.137888 0.074876 -1.55966e-22)
(0.91715 -0.137256 1.30907e-20)
(1.00706 -0.0193584 0)
(0.939305 -0.474189 -9.77928e-22)
(0.670985 -0.921837 -1.79883e-20)
(0.836018 -0.217521 1.09386e-21)
(1.00641 -0.0193826 1.65585e-21)
(-0.0855108 0.00234757 -1.20994e-19)
(-0.125134 -0.0460214 0)
(1.00423 -0.028171 6.09628e-21)
(-0.161168 -0.0405451 -9.14062e-20)
(1.30529 -0.288134 -6.33322e-20)
(1.17653 -0.0201127 0)
(0.9842 -0.140198 0)
(0.999669 -0.00838481 0)
(1.01404 -0.0957779 -8.85622e-22)
(1.13878 -0.306473 0)
(-0.133367 -0.0392846 -1.05279e-19)
(0.990753 0.131552 -1.82663e-20)
(1.04428 -0.0377589 -9.00028e-22)
(-0.114135 0.0699882 -3.24885e-20)
(-0.238203 -0.0320489 6.83196e-20)
(-0.258987 -0.0483319 -7.1966e-20)
(1.06427 -0.0180787 1.95932e-21)
(-0.220368 -0.0472922 0)
(1.26895 -0.224614 -2.50878e-21)
(-0.2534 -0.0494116 0)
(0.83196 -0.251853 0)
(0.244329 -0.0800529 -6.81554e-20)
(1.04082 -0.0205752 0)
(-0.218666 -0.0490473 1.3904e-19)
(0.375584 -0.00586987 0)
(1.18511 -0.061425 0)
(1.01513 -0.05216 0)
(1.05165 -0.010297 0)
(1.03223 -0.132175 1.39806e-21)
(1.34674 -0.062905 0)
(1.03361 -0.0533384 2.39754e-21)
(1.28437 -0.131212 1.0403e-19)
(1.00645 -0.0746684 0)
(1.13948 -0.488112 2.21325e-20)
(1.11785 -0.0679443 0)
(-0.252538 -0.0492232 0)
(-0.177496 0.00266998 6.37796e-20)
(1.03311 -0.0210824 -9.70262e-22)
(1.31308 -0.263805 0)
(1.05208 -0.262382 9.89511e-21)
(1.27299 -0.0633245 -1.09266e-19)
(1.22325 -0.167565 0)
(-0.0896282 0.0057134 4.18272e-20)
(0.999685 -0.0245007 -5.41908e-21)
(1.18995 -0.288634 0)
(0.68671 -0.244814 2.77359e-20)
(1.27818 -0.287173 -1.00762e-19)
(0.0749582 -0.0414975 0)
(0.995503 -0.0425208 0)
(0.195002 -0.047801 -9.09375e-20)
(0.105276 0.108576 -2.54113e-20)
(0.992166 -0.0281575 -9.74182e-21)
(0.133241 -0.0362853 -8.61162e-20)
(1.22499 -0.288322 -3.80557e-20)
(1.01295 -0.00318594 1.4482e-23)
(0.0373185 0.0568517 0)
(-0.235973 -0.0254575 -1.67774e-20)
(1.02471 -0.0669715 -8.3559e-22)
(1.11595 -0.15925 0)
(-0.107139 -0.0428492 2.08572e-22)
(0.991839 -0.0276336 -6.06889e-21)
(0.0689193 -0.0429381 -9.2792e-20)
(0.995538 -0.0464317 -1.03684e-20)
(0.998294 -0.0312435 -7.12895e-21)
(0.987663 -0.033192 1.60344e-21)
(1.13973 -0.0537939 -4.48631e-20)
(1.00661 -0.0191686 0)
(1.03345 -0.00253945 8.24785e-21)
(-0.190698 0.000135411 4.94263e-20)
(0.999951 -0.000457239 -1.0069e-20)
(1.08308 -0.0700061 -2.17936e-20)
(1.05751 -0.0314265 1.16056e-20)
(0.48325 0.0759107 6.50969e-20)
(0.870446 -0.186208 0)
(0.999308 -0.0241187 7.3129e-22)
(1.03836 -0.0198234 -1.11251e-21)
(0.0738593 -0.0406286 -6.32398e-20)
(1.01375 -0.0583891 0)
(0.626893 -0.665398 3.79591e-20)
(0.153864 -0.492098 0)
(1.01898 -0.154944 9.51454e-22)
(0.763048 0.0344684 -3.22106e-20)
(0.995168 -0.0918406 1.08902e-20)
(1.12445 -0.0238916 4.39181e-20)
(0.446425 -0.0900791 -2.66909e-20)
(1.24591 0.127824 0)
(0.906557 -0.102274 -3.60408e-20)
(1.00484 -0.0335864 0)
(1.01683 -0.150913 -6.30191e-23)
(1.08224 -0.120176 0)
(1.33181 -0.194076 0)
(1.07093 -0.00656408 0)
(1.00451 -0.0183035 0)
(1.19017 -0.035375 -4.03496e-20)
(0.999488 -0.00291725 7.54462e-21)
(-0.238641 -0.0417123 8.61624e-24)
(1.10278 -0.216522 -3.22145e-20)
(1.0115 -0.0570941 0)
(1.00128 -0.0146382 -4.20085e-23)
(1.09772 -0.0902982 3.5381e-20)
(1.05302 -0.127052 -6.10994e-21)
(0.179751 -0.514575 0)
(0.982225 -0.0278936 -1.7813e-20)
(1.02007 -0.0114581 -9.34738e-22)
(0.162162 -0.386122 0)
(0.999706 -0.0342529 -3.98188e-22)
(1.33767 -0.126991 -5.30655e-20)
(1.08474 -0.360002 -1.59954e-19)
(1.02023 -0.127467 -2.82702e-22)
(-0.0664087 0.00502802 7.36795e-20)
(0.999787 -0.00817327 0)
(-0.201872 -0.0513932 0)
(0.999867 -0.0106055 -5.81011e-21)
(1.22218 -0.174545 -1.25967e-20)
(0.659432 -0.658622 -9.67175e-21)
(1.24221 0.132556 6.27639e-20)
(1.15399 -0.0876373 0)
(1.007 -0.00576472 2.6717e-22)
(1.21723 -0.175973 4.22314e-20)
(1.07044 -0.0236744 8.79931e-21)
(-0.179313 -0.0439423 -1.27279e-19)
(-0.254672 -0.0336256 -1.11278e-19)
(1.1337 -0.49498 -5.15628e-20)
(1.21337 -0.375998 6.41674e-20)
(1.18131 -0.115415 0)
(1.00179 -0.0761163 3.7015e-21)
(1.0197 -0.0970208 2.36607e-22)
(-0.218736 -0.0495399 -9.38112e-20)
(-0.256227 -0.0514181 4.69649e-20)
(1.00407 -0.0320383 0)
(0.277195 0.113691 2.53724e-20)
(0.942354 0.126503 -2.48699e-20)
(1.02053 -0.0121262 9.67204e-22)
(0.70213 -0.195587 0)
(1.35471 -0.0532422 -1.35937e-20)
(1.16088 -0.137502 4.94134e-20)
(1.03844 -0.0207078 -4.6389e-21)
(-0.254856 -0.0530102 0)
(0.16002 0.100913 -1.6861e-20)
(-0.214081 -0.0512131 1.02091e-19)
(0.00492977 -0.041606 0)
(0.187254 0.00274176 -4.57895e-20)
(-0.284479 -0.0470756 1.12536e-19)
(1.1818 -0.119105 1.2149e-20)
(1.0041 -0.0054867 3.98821e-22)
(0.906967 -0.0554683 2.47039e-20)
(1.11333 -0.155281 1.09982e-20)
(1.00053 -0.0253024 4.97445e-21)
(1.02341 -0.0678655 0)
(-0.127439 -0.0482709 -1.27211e-19)
(1.06735 -0.0028594 -1.37034e-20)
(1.17284 -0.189727 -3.41121e-20)
(-0.255723 -0.0446261 0)
(0.669283 -0.619985 0)
(-0.150236 0.0307735 -4.04893e-20)
(0.851206 -0.159732 1.37e-20)
(0.954336 -0.157587 -7.78455e-20)
(1.23446 -0.253179 -9.01924e-20)
(1.18061 -0.233297 0)
(1.00002 -0.00021835 2.09022e-21)
(-0.165458 -0.0405415 0)
(1.00788 -0.000680566 -7.70625e-22)
(0.427663 -0.024333 -2.04393e-20)
(0.933853 -0.346467 -6.27688e-20)
(1.00038 -0.00529921 0)
(1.21716 0.0283871 1.54334e-20)
(0.986205 -0.0387781 -2.13267e-20)
(0.69558 -0.0929308 1.26411e-19)
(-0.252626 -0.0327681 9.57551e-20)
(1.02863 -0.56257 0)
(1.21443 -0.387571 2.04253e-21)
(1.03289 -0.00649555 0)