/*--------------------------------*- C++ -*----------------------------------*\
| =========                 |                                                 |
| \\      /  F ield         | OpenFOAM: The Open Source CFD Toolbox           |
|  \\    /   O peration     | Version:  v2012                                 |
|   \\  /    A nd           | Website:  www.openfoam.com                      |
|    \\/     M anipulation  |                                                 |
\*---------------------------------------------------------------------------*/
FoamFile
{
    version     2.0;
    format      ascii;
    class       volScalarField;
    location    "350";
    object      epsilon;
}
// * * * * * * * * * * * * * * * * * * * * * * * * * * * * * * * * * * * * * //

dimensions      [0 2 -3 0 0 0 0];


internalField   nonuniform List<scalar> 
18598
(
2.06621e-06
4.24675e-05
4.27233e-06
3.58943e-06
1.8497e-06
1.89807e-06
2.33508e-06
3.59962e-06
0.00015903
0.00658142
2.54552e-06
0.0633166
1.73476e-06
0.0700478
3.48288e-06
3.40638e-06
0.0132258
1.89263e-06
2.06599e-06
0.0609219
2.2489e-06
2.03372e-06
0.030207
1.91296e-06
1.92282e-06
0.0132915
9.68456e-05
2.86856e-06
0.000106849
2.02942e-06
0.00445406
3.63539e-06
1.93592e-06
2.45713e-06
2.33326e-06
8.628e-05
1.98915e-06
2.5385e-06
1.83651e-06
0.0254948
3.74428e-06
0.000463804
1.98327e-05
0.0670333
2.2275e-06
2.05957e-06
1.96781e-06
0.00211769
1.63656e-06
1.94212e-06
2.35843e-06
0.0049226
6.32007e-06
4.82669e-06
2.02466e-06
2.42527e-06
2.91224e-06
3.51146e-06
1.61593e-06
2.17658e-06
0.013328
3.2445e-05
2.86332e-06
1.91981e-06
1.46889e-05
0.00294778
1.62511e-06
1.73286e-06
0.0190688
1.89693e-06
1.74225e-06
2.23049e-06
0.00266509
6.164e-06
3.22594e-06
3.60083e-06
3.31356e-06
2.39966e-06
2.82721e-06
1.74608e-06
0.0602635
2.05833e-06
2.64387e-06
0.0132715
1.94036e-06
0.00469891
1.89905e-06
0.119278
2.8258e-06
2.14015e-06
2.17431e-06
4.47369e-06
2.22744e-06
8.34913e-06
0.0853605
1.81662e-06
0.0145361
2.56488e-06
0.0552571
2.52902e-06
2.84315e-06
3.44924e-06
1.99937e-06
1.78698e-06
2.69119e-06
1.81237e-06
2.74788e-06
0.00993516
2.8151e-06
1.54491e-05
2.26712e-06
0.0108433
3.39193e-06
2.00509e-06
4.43004e-06
2.31476e-06
0.0557241
2.16181e-06
1.77724e-06
1.9979e-06
0.0551071
1.83713e-06
1.80034e-06
2.28092e-06
0.0161301
1.80154e-06
1.74983e-06
2.09241e-06
9.15154e-05
1.8653e-06
1.73029e-06
3.28166e-06
0.0229436
2.18509e-06
0.0146711
2.35237e-06
2.74522e-06
2.83526e-06
1.96435e-06
7.59588e-06
0.000235561
2.26841e-06
2.88883e-06
0.0443785
2.54789e-06
2.07378e-06
0.000813404
4.11007e-06
2.56106e-06
2.26993e-06
1.81583e-06
1.72229e-06
2.39047e-06
0.0206205
1.81034e-06
2.56094e-06
0.0211546
1.80617e-06
1.72348e-06
1.96634e-06
2.40687e-06
8.76236e-06
1.63497e-06
1.7964e-06
1.85409e-06
0.0261683
7.17413e-05
3.65086e-06
2.94439e-06
2.40831e-06
3.2059e-06
2.47236e-06
0.0461644
6.1934e-06
1.88067e-06
2.04501e-06
0.0722768
2.30707e-06
1.85467e-06
0.0203933
2.15931e-06
0.00130146
3.17767e-06
1.94921e-06
0.0130175
2.27095e-06
0.00877962
0.0181688
3.00229e-06
7.38173e-06
1.64079e-06
1.84945e-06
3.12381e-06
0.0100898
1.97631e-06
1.91162e-06
0.0322181
0.0118254
2.36508e-06
2.17014e-05
0.00787183
2.39991e-06
2.46017e-06
4.22982e-06
2.16803e-06
0.0938354
0.00045232
2.39794e-06
1.79157e-06
2.02037e-06
2.10535e-06
0.0127227
2.13373e-06
2.86303e-06
4.10481e-06
1.99274e-06
4.10621e-06
2.12193e-06
3.45302e-06
3.32035e-06
1.6904e-06
2.60863e-06
2.0809e-06
3.03267e-06
2.21439e-06
2.12426e-06
1.8079e-06
2.68197e-06
0.0532887
1.79779e-06
0.0227284
0.0152671
2.55129e-06
2.24321e-06
2.68548e-05
0.0740699
1.95288e-06
2.27461e-06
1.91201e-06
2.17447e-06
1.77674e-06
2.11469e-06
0.012685
1.63774e-06
9.39815e-06
2.04916e-06
2.48907e-06
2.28418e-06
1.99854e-06
1.90517e-06
0.0188994
3.71056e-05
0.112404
0.0242533
2.25108e-06
0.0313728
2.62948e-06
0.0049326
2.90896e-06
0.0129823
1.85099e-06
2.23728e-06
0.0049011
0.0646721
0.00110203
2.2068e-06
1.67444e-06
0.00588062
3.64288e-06
1.86452e-06
2.09732e-06
1.71212e-06
2.14623e-06
2.37031e-06
0.0286642
0.0926004
0.0275617
0.0135619
3.69809e-06
2.27398e-06
2.08702e-06
0.247372
2.07104e-06
0.0250331
0.0168876
2.26088e-06
3.49268e-06
3.26509e-06
1.94829e-06
0.00881208
3.84838e-06
0.00232027
0.0121089
0.00111796
0.112199
1.89639e-06
1.64357e-06
1.50415e-05
2.69032e-06
2.13188e-06
0.0693439
0.006549
2.48206e-06
0.0156588
1.88412e-06
2.8968e-06
0.0215209
2.27713e-06
0.0117848
6.9643e-05
0.0687153
1.8277e-06
1.67523e-05
0.0101105
2.35936e-06
2.0862e-06
2.53309e-06
1.82204e-06
2.92552e-06
0.0039345
1.73319e-06
0.0246164
1.78583e-06
2.23099e-06
2.08659e-06
0.0170977
3.35337e-06
5.1489e-06
1.98293e-06
2.05804e-06
1.77932e-06
1.63697e-06
0.0361483
0.0200424
2.05272e-06
1.075e-05
2.25491e-06
0.0110825
3.57928e-06
2.20333e-06
2.12085e-06
2.50617e-05
6.18536e-06
0.0103127
2.37275e-06
0.0203955
0.0157015
0.00774007
0.000815876
0.0243655
2.20237e-06
1.72325e-06
1.72036e-06
1.01321e-05
4.06642e-06
2.10657e-06
3.6406e-06
0.0201574
3.86783e-06
1.92286e-06
2.7888e-06
0.0110422
3.21922e-06
2.07728e-06
1.72559e-06
2.05843e-06
0.0457084
0.00714094
2.31454e-06
0.0785881
1.9982e-06
0.00161722
2.16788e-06
0.0269246
3.45198e-06
0.00401944
0.0173909
2.09273e-06
2.88009e-06
0.0251675
0.0583493
3.1663e-06
1.88945e-06
2.20091e-06
1.76203e-06
0.00866167
2.69626e-06
4.11867e-06
1.70883e-06
2.27431e-06
1.29863e-05
2.2027e-06
2.49009e-06
2.44934e-06
0.0885169
2.10024e-06
2.02104e-06
2.80792e-06
1.65041e-05
2.1503e-06
1.75534e-06
2.91506e-06
1.8863e-06
4.10515e-06
0.022248
0.0130357
0.0030162
0.019135
0.0122609
2.88397e-06
3.13823e-06
0.0194883
2.63139e-06
2.20344e-06
3.42993e-06
2.23225e-06
2.21625e-06
2.13989e-06
0.146986
2.10755e-06
2.19901e-06
2.60939e-06
3.26028e-06
0.00443369
1.74604e-06
1.86211e-06
1.7449e-06
2.27059e-06
2.28528e-06
0.00374107
1.91866e-06
0.000860569
1.87788e-06
1.42402e-05
4.99534e-06
0.00547394
1.64856e-06
3.17603e-06
1.02355e-05
2.5096e-06
0.0804659
0.0117529
3.60448e-06
1.78975e-06
2.39489e-06
0.00720525
0.0164579
0.027277
2.05169e-06
0.000834817
1.65366e-06
0.0148815
0.0137364
4.1773e-06
0.0981391
2.07947e-06
2.15741e-06
3.16133e-06
1.93516e-06
3.14698e-06
5.20329e-05
3.63293e-06
4.10937e-06
0.092047
3.43436e-06
2.71323e-06
0.00104422
2.93198e-06
0.0176892
1.688e-06
1.8091e-06
2.13939e-06
1.96102e-06
0.0984202
2.60183e-06
1.89521e-06
2.31734e-06
1.90845e-06
0.0102787
2.58981e-06
1.64602e-06
0.0051906
3.09527e-06
1.82856e-06
3.63666e-06
1.82695e-06
3.45579e-06
3.47309e-06
1.99498e-06
2.54891e-06
2.05201e-06
3.91168e-06
2.22409e-06
5.51759e-06
0.00471172
2.18086e-06
3.37973e-06
3.37513e-06
0.0576919
2.08694e-06
0.0238224
1.30354e-05
2.38106e-06
0.00694826
1.72129e-06
2.14259e-06
0.037704
2.3391e-06
2.43866e-06
0.0101553
1.81904e-06
1.79622e-06
1.80525e-06
1.87776e-06
2.36388e-06
2.28154e-06
1.8133e-06
0.0151824
0.015849
2.22462e-06
2.23016e-06
0.0127765
1.93127e-06
1.87844e-06
1.77141e-06
0.0582591
1.92303e-06
2.57813e-06
0.0735753
0.0202519
1.83383e-06
3.63918e-06
2.4453e-06
1.80103e-06
1.80917e-05
0.0236524
0.00100763
1.6663e-06
2.10812e-06
0.00096666
1.92853e-06
0.000506739
1.82354e-06
2.45807e-06
2.39637e-06
0.0344748
2.45623e-06
3.95236e-06
1.7863e-06
0.000537705
0.00680757
0.0629704
8.33656e-05
2.5719e-06
0.0388942
1.75448e-06
0.0141175
0.0114108
1.66368e-06
4.13885e-06
0.00942163
2.52657e-06
2.14144e-06
1.96905e-06
2.19915e-06
0.0377716
2.51008e-06
0.00817854
2.44334e-06
1.78458e-06
1.8133e-06
1.34494e-05
2.85443e-06
1.97409e-06
0.0197678
0.0354909
2.57466e-06
2.29335e-06
2.5902e-06
1.68416e-06
1.86744e-05
3.92804e-06
0.039883
1.65185e-06
0.183046
0.0377595
2.30611e-06
2.78117e-05
2.9043e-06
0.12062
8.29405e-05
1.83836e-06
0.0378821
3.16254e-06
1.21102e-05
0.00987465
2.37378e-06
2.27207e-06
3.56837e-06
2.35977e-06
2.20794e-06
1.657e-06
1.8131e-06
2.02269e-06
1.67823e-06
0.0144813
2.11087e-06
2.00322e-06
4.17417e-06
2.29669e-06
0.0161137
0.026045
0.00713656
2.11774e-06
0.0403532
2.38064e-06
1.83327e-06
2.19985e-06
1.65178e-06
0.064202
0.0157406
2.35024e-06
2.10332e-06
2.4581e-06
1.7603e-06
1.64696e-06
8.50874e-06
2.80618e-06
3.65373e-06
1.76176e-06
2.79123e-06
1.69694e-06
2.66561e-06
1.44649e-05
1.83478e-06
2.61295e-06
3.56352e-06
2.21339e-06
0.0148071
0.000180375
2.10245e-06
3.18732e-06
1.83765e-06
3.21208e-06
2.59968e-06
2.16687e-06
1.70886e-06
4.15392e-06
0.00988745
0.0257089
2.20285e-06
3.39718e-06
1.91014e-06
2.12265e-06
1.6935e-06
0.0155415
0.010861
2.15114e-05
2.18529e-06
5.86569e-06
1.85913e-06
2.1821e-06
2.00488e-06
3.01363e-06
2.64895e-06
0.0119437
2.582e-06
3.04215e-06
0.0140953
2.49914e-06
1.81849e-06
0.0377988
1.6784e-06
0.0134719
2.05665e-06
4.03281e-06
1.81509e-06
3.14607e-06
2.22377e-05
0.0929285
2.14473e-06
2.13956e-06
2.2206e-06
2.92731e-06
2.15927e-06
0.137197
2.24695e-06
0.000590588
3.61728e-06
2.48063e-06
1.63925e-06
2.11112e-06
2.12669e-06
2.45606e-06
2.46788e-06
0.00012397
0.00672487
2.51496e-06
2.39157e-06
1.64777e-06
4.18655e-06
2.53848e-06
2.87175e-06
0.0164734
2.3425e-06
1.71752e-06
3.04019e-06
2.51076e-06
0.0286751
2.02328e-06
0.0341958
3.38565e-06
0.0215848
2.19814e-06
0.00896574
2.43669e-06
0.00601558
1.9899e-06
4.08941e-06
1.89372e-06
2.00704e-06
2.7998e-06
0.010712
0.0314643
1.77171e-06
1.92388e-06
2.1333e-06
1.82839e-05
2.34837e-06
2.0571e-06
0.000502712
2.2318e-06
2.24531e-05
0.00639516
2.03614e-06
3.19591e-05
3.58704e-06
3.07734e-06
0.000938029
2.55418e-06
4.13927e-06
4.91052e-05
3.41876e-06
2.14828e-06
0.000407221
0.0402579
0.0104145
0.0147894
0.0164991
1.78311e-06
1.30008e-05
3.29337e-06
1.88608e-06
0.0314151
0.0313046
2.08252e-06
2.14474e-06
0.00978928
0.014424
0.0914578
0.00101069
0.00681737
2.20736e-06
2.6369e-06
4.9673e-06
2.514e-06
0.023684
2.1926e-06
1.833e-06
0.000106319
1.78073e-06
1.63818e-06
2.09818e-06
2.04594e-06
4.14452e-06
2.35534e-06
5.05999e-05
2.04653e-06
2.4942e-06
0.0154103
2.91099e-06
3.05559e-06
2.3201e-06
0.00759501
1.8117e-06
0.00912107
1.75622e-06
1.71535e-06
1.92729e-06
0.0250993
2.14126e-06
2.51375e-06
3.08667e-06
4.14644e-06
2.20074e-06
2.92116e-06
0.129314
1.35205e-05
0.00829982
0.0419099
1.64656e-06
5.50481e-06
0.000323252
2.79494e-06
1.78961e-06
2.61933e-06
2.34135e-06
0.119497
3.41179e-06
1.94197e-06
1.94421e-06
5.23586e-06
1.90897e-06
0.0132456
0.00888926
2.21838e-06
2.18543e-06
2.28908e-06
2.91787e-06
0.00238832
4.18059e-06
2.24478e-06
1.62555e-06
2.93472e-06
1.77935e-06
3.03208e-06
0.0823612
0.03148
2.45626e-06
2.06418e-06
3.03322e-05
0.00509107
1.64212e-06
2.01439e-06
1.70591e-06
1.98175e-06
0.00843865
7.0479e-05
3.73523e-06
0.032721
2.18302e-06
3.10448e-06
2.65836e-06
1.77917e-06
2.23056e-06
0.0026824
0.00612333
2.16476e-06
0.00918198
1.77928e-06
2.2622e-06
2.26098e-06
2.49282e-06
2.39542e-06
3.12053e-06
2.10762e-06
2.28662e-06
2.3634e-06
0.0171051
2.38439e-05
2.74761e-05
3.14138e-06
3.12326e-06
2.31264e-06
1.8551e-06
3.07801e-06
0.0276209
0.0114844
3.22751e-06
2.15433e-06
2.65844e-06
8.73224e-05
3.40379e-06
0.115599
3.01954e-06
2.27503e-06
9.95009e-05
1.96127e-06
1.74449e-06
2.10695e-05
1.82604e-06
4.1121e-06
2.37336e-06
1.76452e-06
7.42573e-06
0.0618769
0.00742589
1.85997e-06
1.94096e-06
3.0807e-06
0.00745809
1.4876e-05
1.66112e-06
1.71255e-06
2.41188e-06
2.20751e-06
2.56835e-06
1.66995e-06
0.0263516
2.97513e-06
4.13662e-06
0.0112815
3.61185e-06
2.56074e-06
0.0172326
3.38346e-06
1.77849e-06
0.0998872
0.00437735
1.75626e-06
0.000537994
2.0019e-06
0.000359001
3.60968e-06
2.23268e-06
1.65374e-06
1.78026e-06
2.07384e-06
2.42307e-06
2.00216e-06
1.66584e-06
0.00145164
0.00131403
3.16188e-06
2.85685e-06
0.00500909
3.45565e-06
3.29117e-06
3.41354e-06
2.22297e-06
0.00344578
2.27333e-06
2.04174e-06
2.24257e-06
6.50021e-06
1.74259e-06
2.2284e-06
2.84322e-06
1.93307e-06
0.0191425
3.15844e-06
1.98298e-06
1.89991e-06
3.39055e-06
2.61814e-06
3.99964e-06
3.97285e-06
3.927e-06
2.45414e-06
2.05976e-06
2.44336e-06
1.82881e-06
1.65878e-06
2.61959e-06
0.000307181
2.44937e-06
0.0382799
1.96076e-06
2.84923e-06
0.0232075
0.00645993
2.32658e-06
0.0440427
1.62947e-06
0.13284
1.9568e-06
0.00625069
3.10478e-06
3.16069e-06
1.95903e-06
0.00716806
0.00549455
6.09312e-06
2.34928e-06
0.033466
2.14769e-06
1.85534e-06
9.49788e-05
2.64665e-06
1.6071e-06
1.88125e-06
1.67088e-06
3.98983e-06
2.30728e-06
1.9655e-06
0.000405624
2.16424e-06
3.63534e-06
0.00478071
2.25507e-06
0.00863715
0.052256
3.57877e-06
0.0836856
2.59841e-06
2.17569e-06
0.000321152
0.0227509
0.0991841
0.013588
2.41731e-06
1.74118e-06
1.91776e-06
1.99961e-06
4.01951e-06
1.47231e-05
7.9515e-05
2.14992e-06
2.28631e-06
2.59119e-06
1.91577e-06
3.91888e-06
3.11532e-06
1.96788e-06
2.15674e-06
2.60305e-06
1.88004e-05
0.0296218
0.00950108
1.69538e-06
1.80829e-06
1.98006e-06
1.69188e-06
1.67547e-06
1.95e-06
1.95188e-06
0.0101442
2.13863e-06
3.30433e-06
1.36355e-05
1.84989e-06
0.0201557
0.0281265
2.52207e-06
5.0689e-05
2.25478e-06
1.70628e-06
1.67951e-06
2.95958e-06
3.68308e-06
0.0100878
0.00872732
2.05895e-06
0.0298684
1.91544e-06
1.85046e-06
0.0329388
2.72018e-06
2.28737e-06
1.98047e-06
2.72613e-06
1.95239e-06
1.79397e-06
0.00846762
2.03748e-06
1.86205e-06
0.0021235
1.98418e-06
0.000440587
2.28145e-06
2.22346e-06
0.00739921
2.88715e-06
1.95775e-06
0.0297561
1.90478e-06
2.06136e-06
0.0311599
1.61637e-06
0.0165951
2.4675e-06
0.0144439
2.32809e-06
0.010755
2.21098e-06
0.049839
2.22349e-06
0.0608628
1.95484e-06
0.0166844
1.87281e-06
2.63482e-06
2.14404e-06
2.61747e-06
3.8511e-06
0.000510002
2.73526e-06
0.0323155
2.1699e-06
0.010649
1.66749e-06
2.11181e-06
2.30791e-06
2.16863e-06
0.0125268
2.64816e-06
0.00475622
0.0202761
0.0218653
2.00637e-06
0.0162026
1.96167e-06
2.64103e-06
2.66957e-06
0.00992417
2.0919e-06
1.89696e-06
0.000620482
0.00595069
3.14287e-06
0.00762494
0.0219387
2.49884e-06
1.75131e-06
2.07538e-06
0.0118164
8.71331e-06
2.1356e-06
2.49251e-06
2.25463e-06
2.08199e-06
1.64836e-06
6.02377e-06
4.10084e-06
3.05326e-06
2.64026e-06
2.39885e-06
2.8492e-06
2.26223e-06
0.0196011
0.122616
1.96263e-06
0.0238324
2.08886e-06
0.00148656
1.95072e-06
1.90998e-06
2.11634e-06
2.19046e-06
2.14785e-06
0.00136216
4.24301e-06
2.52662e-06
2.17965e-06
3.70924e-06
2.49636e-06
2.23739e-06
0.000290702
0.00122362
4.11357e-06
2.13051e-06
1.9481e-06
2.12667e-06
3.66287e-06
1.82344e-06
0.041087
0.000135888
0.0131715
3.12307e-06
2.17056e-06
1.84776e-06
0.0665053
1.98542e-06
0.0165179
2.72457e-06
0.000724429
0.0446883
1.77833e-06
2.71951e-06
1.67297e-06
3.76206e-06
2.35863e-06
2.51163e-06
1.8717e-06
2.49768e-06
0.000275928
0.00248238
4.8914e-06
2.15545e-06
2.18003e-06
0.00036543
2.70918e-06
0.000567954
0.00691645
2.10725e-06
2.24407e-06
1.9423e-06
1.84811e-06
2.25299e-06
2.1007e-06
1.69473e-06
1.9604e-06
1.86369e-06
0.0458885
2.56499e-06
1.72469e-06
2.05683e-06
0.0101892
2.65329e-06
0.0143053
1.65413e-06
1.67516e-06
2.34191e-06
0.0316703
1.95963e-06
2.55122e-06
2.01293e-06
2.23781e-06
2.25107e-06
3.46709e-06
4.50009e-06
0.0125078
1.62095e-06
3.55634e-06
2.08118e-06
2.05276e-06
2.2314e-06
3.75573e-06
4.09609e-06
1.61472e-06
3.4047e-06
1.98057e-06
2.26103e-06
2.25883e-06
3.16777e-06
0.00796341
1.92189e-06
0.00310679
1.86879e-06
0.00839662
1.87354e-06
0.0366556
6.8143e-06
3.04533e-06
2.39195e-06
2.01161e-06
0.355704
2.13593e-06
2.33691e-06
4.07534e-06
0.29025
0.0117554
1.90603e-06
0.010827
6.98023e-06
0.00597868
5.21564e-06
0.0422597
0.0151315
1.70128e-06
3.15928e-06
2.46016e-06
2.49799e-06
1.87015e-06
2.8371e-06
1.64074e-06
1.95001e-06
2.79107e-06
0.00973021
1.43724e-05
1.81481e-06
3.56972e-05
2.16297e-06
0.00016691
2.93707e-06
0.000953935
2.90301e-06
2.4528e-06
3.08758e-06
1.78293e-06
0.00372248
1.78821e-06
1.98515e-06
2.60743e-06
0.0418781
4.18423e-06
4.07849e-06
3.79892e-05
0.0092738
0.00766417
1.65248e-06
1.8793e-06
2.52269e-06
2.28626e-06
2.48459e-06
2.07165e-06
1.71588e-06
3.15912e-06
0.0058816
0.00270833
2.39712e-06
2.46503e-06
1.69725e-06
1.66938e-06
4.20818e-06
0.0206386
2.22177e-06
2.24943e-06
2.09116e-06
0.0232856
7.35137e-06
3.09763e-06
4.85465e-06
1.7538e-06
0.00170978
1.89759e-06
2.08455e-06
2.17382e-06
3.14235e-06
0.014783
2.60447e-06
2.47534e-06
2.0982e-06
2.68728e-06
2.38663e-06
2.83701e-06
2.23209e-06
2.17402e-06
0.0942343
1.90105e-06
1.87421e-06
0.00668104
0.140601
0.000660117
1.76374e-06
2.07174e-06
3.68827e-06
3.39603e-06
2.32822e-06
2.22516e-06
1.95149e-06
4.20042e-06
3.89408e-06
4.18158e-06
0.0194889
0.0258667
1.93408e-06
3.38588e-06
1.86288e-06
1.70283e-06
0.0232187
2.08498e-06
2.24538e-06
0.0201296
4.54195e-05
0.000806444
1.72362e-06
2.24034e-06
1.92988e-06
0.108139
1.76951e-06
2.92679e-06
2.51159e-06
1.26042e-05
1.7503e-06
0.00531877
0.000196343
2.25745e-06
0.0205672
2.2353e-06
0.0286216
0.00154034
2.27384e-06
1.79693e-06
1.72596e-06
4.41318e-06
2.69773e-06
2.36538e-06
1.94878e-06
2.15827e-06
3.29604e-06
3.76962e-06
0.0185246
2.03457e-06
2.64125e-06
3.52901e-06
2.5167e-06
0.000678033
2.13437e-06
0.0267466
3.0947e-06
2.57762e-06
1.67549e-06
3.25443e-06
2.3231e-06
2.43205e-06
4.93564e-06
2.29148e-06
1.99246e-06
0.00874616
1.98604e-06
1.7147e-06
2.03556e-06
1.94218e-06
3.63568e-06
3.16264e-06
2.43303e-06
6.54722e-06
1.74502e-06
2.51688e-06
0.011351
0.0651015
1.86161e-06
0.028
2.96398e-06
0.00122131
0.0847883
0.00202657
1.68892e-06
2.31281e-06
2.91809e-06
2.8102e-06
4.64055e-05
2.42972e-06
4.11723e-06
2.31781e-06
3.02939e-06
1.7073e-06
2.4446e-06
0.0155247
0.0147159
0.000201323
2.4419e-06
0.0110893
1.93106e-06
3.11147e-06
2.3499e-06
1.20976e-05
2.10918e-06
2.51549e-06
0.0596597
5.70142e-06
2.35223e-06
0.00198243
3.16888e-06
0.0540593
2.31937e-06
0.00669608
5.1339e-06
2.16249e-06
2.56269e-06
0.000216785
1.9009e-06
2.70234e-06
0.000258198
2.05269e-06
2.24166e-06
0.375732
2.39824e-06
1.3322e-05
0.00282988
2.77005e-06
1.94137e-06
4.71817e-05
2.36086e-06
1.75847e-06
0.0287187
4.06364e-06
2.62581e-06
0.0358589
2.64418e-06
2.88715e-06
0.00278651
2.86015e-06
2.15954e-06
2.50643e-06
2.38365e-06
2.30072e-06
2.25955e-06
5.17607e-06
0.000502387
2.2623e-06
3.34282e-06
4.14369e-06
1.98654e-06
1.9787e-06
0.0141681
2.01785e-06
2.52864e-06
1.51135e-05
2.85004e-06
3.55802e-06
2.14483e-06
1.84572e-06
1.95781e-06
2.22358e-06
2.21327e-06
1.78229e-06
2.39302e-06
0.00183294
2.43831e-06
3.56396e-06
2.89486e-06
2.81521e-06
0.0641488
0.00978358
1.86157e-06
1.80902e-06
2.49986e-06
2.0513e-06
2.16912e-06
0.0725884
0.035748
2.71499e-06
3.32745e-06
1.64371e-06
1.99473e-06
3.75383e-06
3.03175e-06
3.31366e-06
0.00013072
3.47813e-06
3.00349e-06
4.08787e-06
1.98359e-06
2.22985e-06
0.0195017
1.81805e-06
3.14204e-06
3.89028e-06
2.21939e-06
9.21442e-05
2.67914e-06
4.38279e-05
2.54588e-06
3.16304e-06
3.03092e-06
2.26911e-06
1.96935e-06
4.14629e-06
2.85784e-06
2.16513e-06
0.0733351
0.0805754
0.0842939
1.87647e-06
2.57966e-06
1.96199e-06
2.10159e-06
2.23901e-06
1.64721e-06
2.53031e-06
2.32259e-06
0.0168612
2.69372e-06
2.19218e-06
2.51784e-06
0.115038
0.054147
1.9033e-06
2.66565e-06
0.0270576
0.00160856
2.43501e-06
0.0177388
0.0451668
1.70669e-06
0.0435277
2.18347e-06
1.81151e-06
1.24813e-05
1.95949e-06
1.99985e-06
0.124578
1.80218e-06
3.4842e-06
1.90247e-06
0.00932862
2.41641e-06
1.19973e-05
0.0123852
9.55471e-06
0.000665043
2.33938e-06
1.88549e-06
2.19586e-06
2.28227e-06
6.17805e-06
2.60254e-06
2.41171e-06
0.0284528
1.92986e-06
0.00471427
0.00767807
2.82754e-06
2.10986e-06
1.9767e-06
0.070675
1.96506e-06
2.52876e-06
1.68456e-06
1.95573e-06
1.94412e-06
0.0127634
1.7061e-06
1.68707e-06
0.0215983
0.0193086
1.22838e-05
3.12938e-06
2.08021e-06
0.174427
0.0308163
1.90045e-06
0.0523615
0.0011527
0.0616141
1.81462e-06
3.00959e-06
3.55292e-06
2.27398e-06
2.58935e-06
0.00175667
2.7867e-06
4.50612e-06
2.60355e-06
1.96698e-06
2.23888e-06
3.18761e-06
0.0396123
2.09469e-06
2.23441e-06
2.98427e-06
2.10468e-06
2.07623e-06
2.74607e-06
1.97373e-06
2.19396e-06
2.52411e-06
1.75373e-06
1.76047e-06
0.149211
2.29682e-06
0.019357
1.90639e-06
0.0103874
1.75462e-06
0.0118663
1.68925e-06
2.43501e-06
2.10123e-06
1.93776e-06
0.0103617
1.95729e-06
2.21586e-06
4.17338e-06
2.20669e-06
3.31511e-06
5.14854e-06
2.236e-06
3.76936e-06
2.20609e-06
3.40722e-06
2.08337e-06
2.22787e-06
2.35941e-06
2.35062e-06
3.14907e-06
2.45254e-06
1.87886e-06
1.94545e-06
4.45099e-06
1.05103e-05
2.42036e-06
1.95334e-06
0.00925201
0.00773888
4.79334e-06
1.99205e-06
3.54423e-06
4.20457e-06
2.2495e-06
2.64062e-06
2.64903e-06
0.0145098
1.83533e-06
2.1553e-06
2.43558e-06
2.47558e-06
0.019297
1.06397e-05
3.14295e-06
3.21348e-06
1.87381e-06
0.0134012
4.21592e-06
1.7672e-06
2.46521e-06
0.000871671
2.94764e-05
2.17184e-06
2.45343e-06
0.0165572
0.0101118
0.0236143
3.63527e-05
3.63729e-06
3.52277e-06
0.032036
0.0221781
1.87571e-06
3.31782e-06
0.0766325
0.0517459
2.39185e-06
0.0245598
2.9387e-06
0.00611492
2.7011e-06
1.40369e-05
3.60001e-06
2.17028e-06
0.0666881
2.43749e-06
2.12525e-06
0.00173513
2.79878e-06
7.15191e-06
2.66662e-06
2.46278e-06
3.19209e-06
0.0221695
1.68699e-06
2.23954e-06
1.82844e-06
0.0778713
0.0198383
4.17989e-06
1.9423e-06
0.00918002
2.1841e-06
1.99597e-06
0.0159697
1.75822e-06
2.10315e-06
3.0901e-06
2.41735e-06
2.15794e-05
1.72033e-06
2.46504e-06
2.49206e-06
2.31821e-06
3.14159e-06
0.0157235
2.23634e-06
1.76006e-06
1.97862e-06
4.14469e-06
2.5387e-06
2.88898e-06
2.19186e-06
3.18622e-06
3.28368e-06
0.0208625
0.0123748
0.0568072
2.46388e-06
0.0288533
2.29644e-06
0.0419322
0.0142177
0.340403
1.97626e-06
2.38153e-06
2.49716e-06
1.80943e-06
0.0107407
1.94346e-06
1.32676e-05
1.90484e-06
1.07945e-05
2.16282e-06
2.06347e-06
0.00651532
2.07756e-06
2.13208e-06
0.0297362
0.0365819
2.18881e-06
1.9925e-06
2.22844e-06
1.12862e-05
2.25376e-06
8.87513e-06
0.00541598
1.64216e-06
0.00136173
2.19607e-06
1.86193e-06
2.53071e-06
0.100307
1.88242e-06
2.83983e-06
0.0123205
1.76213e-06
2.47788e-06
2.08129e-06
4.10168e-06
2.31526e-06
0.0110868
1.76699e-06
1.77033e-06
4.18079e-06
1.73349e-06
6.27437e-06
0.0488117
1.81165e-06
0.0646934
0.00293962
1.99629e-06
0.0153014
4.24524e-06
2.33258e-06
2.37687e-06
2.18857e-06
1.84343e-06
6.15844e-06
1.68764e-06
0.0182157
6.96235e-06
1.51865e-05
0.016683
0.00254026
1.92038e-06
0.00339167
3.95964e-06
4.64732e-06
0.0460632
2.13219e-06
0.0166886
0.00143288
0.0212194
0.000675115
0.00666857
8.33005e-05
1.87771e-06
3.19436e-06
0.000460647
5.85376e-06
2.00665e-06
2.0525e-06
2.17831e-06
3.00893e-06
0.0207812
2.1139e-06
2.25535e-06
2.01223e-06
4.11345e-06
0.0154575
1.72845e-06
3.85696e-06
2.1438e-06
0.00402319
2.42167e-06
0.00188172
2.42556e-06
1.8177e-06
2.0477e-06
2.08332e-06
2.78557e-06
3.51523e-06
0.0205931
2.33293e-06
0.00754672
2.18302e-06
3.62939e-06
2.42368e-06
3.83869e-06
1.88087e-06
0.00139288
0.0929939
2.0113e-06
3.4298e-06
0.000987061
6.05816e-06
2.03231e-06
2.99859e-06
2.12116e-06
2.93803e-06
0.303582
2.57166e-06
1.98257e-06
1.65666e-06
0.0113008
0.010047
2.58192e-06
1.38658e-05
0.00698521
2.18625e-06
0.0222571
0.0116745
0.0201904
3.24875e-06
4.9839e-06
1.85705e-06
1.90186e-06
3.02943e-05
0.00808535
3.23254e-06
3.14438e-06
0.0115066
1.90465e-06
2.47955e-06
2.59798e-05
2.5239e-06
1.3073e-05
2.68821e-06
4.05021e-06
0.0558709
6.01349e-05
1.68133e-06
2.0576e-06
2.49013e-06
3.97201e-05
0.0129586
6.08071e-05
0.000105255
2.13018e-06
1.89145e-06
2.24386e-06
2.39813e-06
0.0215303
0.0289952
0.027768
4.04293e-06
0.00525749
1.80959e-06
2.1235e-06
1.89135e-06
1.73962e-06
3.50758e-06
2.0186e-06
2.67478e-06
2.42563e-06
2.5554e-06
1.87038e-06
2.11284e-06
0.190465
2.35782e-06
2.24043e-06
6.5366e-06
2.12171e-06
2.11374e-06
2.46369e-06
3.30552e-06
2.5319e-06
2.16281e-06
4.04753e-06
1.86963e-06
0.0160987
0.00917977
2.0354e-06
0.0555917
3.43069e-05
2.7274e-06
1.71078e-06
2.46603e-06
2.02039e-06
2.11356e-06
2.16246e-06
2.6447e-06
3.45671e-06
0.0482726
0.0366341
8.02286e-06
2.41166e-06
2.21441e-06
2.12763e-06
2.20256e-06
5.80219e-06
2.18545e-06
0.00847027
2.29084e-05
1.9175e-06
1.90073e-06
0.0121429
2.225e-06
0.000120638
0.0141408
0.0515714
1.71006e-06
0.00613918
0.00655168
0.00117218
1.83734e-06
3.16548e-06
2.20238e-06
2.4685e-06
0.0126501
0.031809
1.12252e-05
2.14582e-06
1.87262e-06
1.9672e-06
3.00695e-06
0.121116
2.19619e-06
2.446e-06
0.0543917
0.0605863
1.97454e-06
2.91806e-06
3.3892e-06
5.15466e-05
2.07685e-06
2.21771e-06
1.86847e-06
2.41743e-06
2.75938e-06
9.82984e-05
3.05726e-06
1.8498e-06
3.61926e-06
0.0323244
2.19306e-06
9.7965e-06
1.91431e-06
2.48868e-06
0.0438693
3.89054e-06
0.0348489
3.63164e-06
0.00308566
2.45416e-06
1.83828e-06
2.28226e-06
1.94989e-06
1.93956e-06
2.86287e-06
1.86848e-06
3.53583e-06
0.0281119
1.93502e-06
0.00486198
1.78472e-06
2.49739e-06
4.36068e-05
2.2282e-06
1.99071e-06
3.27866e-06
2.97336e-06
3.71793e-06
0.00909488
2.47808e-06
4.20536e-06
3.10685e-06
0.0472081
1.84808e-06
2.12893e-06
1.84452e-06
1.98759e-06
2.34359e-06
2.35954e-06
2.72221e-06
2.0961e-06
1.97941e-06
0.057669
0.00880154
1.98433e-06
2.87205e-06
1.76775e-06
0.0735821
2.25981e-06
1.99256e-06
1.85086e-06
0.336587
0.0627943
1.97857e-06
0.0328742
2.90752e-06
2.49953e-06
0.0800706
3.9106e-05
2.56306e-06
5.43473e-06
2.15402e-06
1.95603e-06
4.17182e-06
9.59977e-06
2.69e-06
2.14761e-06
0.000529681
0.0296514
2.09996e-06
1.98765e-06
0.00390232
2.09516e-06
2.23198e-06
2.01382e-06
4.05846e-06
0.0611787
5.48589e-06
1.66986e-06
2.45986e-05
1.85141e-06
0.00163444
3.00306e-05
2.31779e-06
3.21611e-06
2.52791e-06
2.30103e-06
0.0723987
2.27682e-05
2.2431e-06
1.87818e-06
2.06607e-06
2.11861e-06
2.07558e-06
0.0144683
3.70442e-06
0.0150712
1.63686e-06
2.04243e-06
0.0182669
1.96319e-06
0.156847
1.90798e-06
3.20521e-06
2.29795e-06
2.07997e-06
1.84427e-06
0.000141656
0.00887528
0.0483564
1.88746e-06
3.5187e-06
1.74076e-06
2.67968e-06
2.09933e-06
6.42477e-05
2.52015e-06
0.00229231
0.0103473
3.82113e-06
1.84686e-06
0.023906
3.16108e-06
1.87995e-06
1.91954e-06
0.002021
2.25008e-06
6.33426e-05
2.49806e-06
9.9229e-05
1.84473e-06
0.0149798
1.98918e-06
2.20666e-06
1.90578e-06
0.0542824
3.04377e-05
3.37867e-05
4.62768e-06
1.88078e-06
3.46515e-06
0.0336103
0.026077
2.33947e-06
1.97422e-06
3.00722e-06
1.89721e-06
1.75217e-06
0.000776491
2.06877e-06
1.73711e-06
2.02808e-06
1.23092e-05
1.85067e-06
1.72584e-06
0.119826
2.21812e-06
2.44551e-06
6.23133e-06
2.25944e-06
2.0238e-06
2.54451e-06
2.62793e-06
0.0174513
1.65906e-06
1.7957e-06
7.65668e-05
3.10681e-06
1.94933e-06
2.46317e-05
1.62265e-05
0.00815222
0.0485736
2.08772e-06
0.00194317
1.93489e-06
1.91826e-06
2.00983e-06
2.1127e-06
2.33147e-06
3.17037e-06
2.01459e-06
0.0234255
2.49051e-06
2.98781e-06
0.00403708
2.5226e-06
2.18321e-06
5.93474e-05
1.6455e-06
2.31528e-06
2.51536e-06
1.95475e-06
0.0232985
1.7489e-06
1.98861e-06
0.00796182
1.63383e-06
2.25032e-06
0.00132837
2.40579e-06
4.6928e-06
1.78104e-05
0.00114968
1.70739e-06
3.29714e-06
0.0505336
2.1586e-06
0.00620215
2.4292e-05
0.171279
1.94615e-06
2.72221e-06
1.64028e-06
3.92662e-06
3.1397e-06
2.48888e-06
2.31651e-06
0.0281202
1.76275e-06
0.00591556
3.13946e-06
0.0331378
2.84968e-06
5.92559e-06
0.00107528
1.88026e-06
3.09929e-06
1.96582e-06
2.22234e-06
2.0547e-06
6.10118e-05
3.00301e-06
0.323133
2.26902e-06
1.91333e-06
1.80271e-06
1.6849e-06
2.3417e-06
2.24408e-06
1.96288e-06
4.19033e-06
0.0583168
1.91802e-05
1.85562e-06
1.83038e-05
1.87895e-06
2.9134e-06
3.26559e-06
2.26547e-06
2.58661e-06
3.10591e-06
3.65639e-06
2.17901e-06
0.00598435
1.80258e-06
1.58e-05
2.63035e-06
0.0656345
1.93307e-06
0.0133573
4.18415e-06
0.00789265
2.12508e-06
1.74731e-06
1.8455e-06
0.000448073
1.7666e-06
0.0403511
2.86165e-06
2.0401e-06
1.74664e-06
1.10482e-05
0.0579833
0.0196756
0.00015007
3.699e-06
2.19298e-06
0.001858
2.45752e-06
2.25421e-06
1.06358e-05
2.97638e-06
3.21526e-06
0.00648539
1.88399e-06
0.0501452
1.87525e-06
3.3371e-06
2.12349e-06
3.3562e-06
4.78799e-06
2.72713e-06
0.00552829
2.24007e-06
4.14415e-06
1.94792e-06
2.00001e-06
3.03413e-06
1.88048e-06
2.72201e-06
2.41411e-06
1.84463e-05
0.0580728
3.25363e-06
0.061813
0.126599
2.05552e-06
1.78666e-06
1.12814e-05
2.30585e-06
3.45369e-06
2.63235e-06
2.1163e-06
0.00868307
2.00237e-06
6.4635e-05
3.36382e-06
2.00422e-05
2.52301e-06
2.33708e-06
1.70084e-06
2.29012e-06
3.23284e-06
1.7931e-06
2.21968e-06
3.97211e-06
2.83542e-06
2.19588e-06
2.12483e-06
2.02126e-06
1.30202e-05
0.00942844
0.00954482
4.55012e-06
2.59154e-06
2.22004e-06
2.11785e-06
2.15106e-06
4.06839e-06
0.0185951
0.0149267
0.00559996
7.32301e-06
0.00188729
2.49252e-06
1.86188e-06
1.84564e-06
1.87457e-06
1.9054e-06
0.0108285
0.0151243
8.82535e-05
2.39777e-06
0.0283506
2.10911e-06
2.1806e-06
2.03177e-06
4.28517e-05
2.91085e-06
1.64695e-06
2.08559e-06
2.20524e-06
1.47813e-05
0.0947414
0.0639759
7.91921e-06
2.32807e-06
4.07629e-06
5.533e-06
0.139982
0.0144644
0.0148378
1.77368e-06
0.0120776
4.05165e-06
3.48746e-06
2.53938e-06
0.00738867
2.02344e-06
0.0311446
0.0237831
4.69157e-06
3.07345e-06
0.0536345
0.0473685
2.23101e-06
2.22243e-06
2.38929e-05
0.0206888
1.929e-06
3.16346e-06
1.91131e-06
0.00690129
0.0101884
2.07078e-06
0.0176663
1.99452e-06
1.83029e-06
1.65368e-05
1.98444e-06
1.80504e-06
3.73407e-06
0.045052
0.00113872
0.093538
3.44678e-06
4.2e-06
1.06475e-05
3.78036e-06
2.88429e-06
0.00114421
2.73591e-06
1.66288e-06
3.128e-06
2.9476e-06
2.12301e-06
0.0209339
0.0331381
0.00182947
3.08627e-06
1.98942e-06
0.00667097
1.70228e-06
0.00899338
1.98941e-06
2.72234e-06
0.00708856
2.25212e-06
2.50256e-06
2.53517e-06
1.70804e-06
9.53244e-06
4.13724e-06
0.012278
0.0254098
3.90427e-05
1.87131e-06
1.73561e-05
1.59621e-05
3.06551e-06
2.49972e-05
2.33915e-06
0.0150132
2.71186e-06
0.0307164
1.92973e-06
1.6774e-06
2.63813e-06
2.23315e-06
0.0475205
0.00887722
0.00700479
0.0272116
8.44633e-06
2.01606e-06
3.76404e-06
0.043323
1.71119e-06
1.73871e-06
0.0450551
1.88167e-06
2.77312e-06
1.32411e-05
1.47318e-05
3.19487e-06
1.81549e-06
2.38596e-06
4.20917e-05
0.0641652
4.05686e-06
0.0200822
2.88735e-06
1.93774e-06
3.36304e-06
3.14696e-06
3.92661e-06
2.5786e-06
2.03546e-06
3.65415e-06
2.09568e-06
0.0291405
5.17603e-06
0.00146807
0.0167549
0.0238478
1.79409e-06
2.56748e-06
0.000627819
3.26513e-05
2.17087e-06
0.0258237
3.0551e-06
2.45607e-06
0.0217384
0.0346623
0.000689122
0.0391464
0.0328174
1.64944e-06
1.98265e-06
0.039848
0.0235257
2.53643e-06
3.41817e-05
0.00161242
0.00418011
0.0379762
0.000450887
4.28381e-06
0.082217
1.69027e-06
4.1017e-06
5.92628e-06
2.13108e-06
0.0546692
2.46718e-06
1.95955e-06
2.04216e-05
4.23986e-06
2.13261e-06
2.34993e-06
0.0472042
2.12539e-06
0.0311906
3.31092e-06
2.78995e-06
1.71339e-06
2.68401e-06
0.0232533
0.0232056