/*--------------------------------*- C++ -*----------------------------------*\
| =========                 |                                                 |
| \\      /  F ield         | OpenFOAM: The Open Source CFD Toolbox           |
|  \\    /   O peration     | Version:  v2012                                 |
|   \\  /    A nd           | Website:  www.openfoam.com                      |
|    \\/     M anipulation  |                                                 |
\*---------------------------------------------------------------------------*/
FoamFile
{
    version     2.0;
    format      ascii;
    class       surfaceScalarField;
    location    "400";
    object      phi;
}
// * * * * * * * * * * * * * * * * * * * * * * * * * * * * * * * * * * * * * //

dimensions      [0 3 -1 0 0 0 0];
oriented        oriented;


internalField   nonuniform List<scalar> 
51027
(
0.067712
-0.301984
0.234272
-0.249511
-0.028234
0.277745
-0.277498
0.122538
0.154959
0.191611
-0.145797
-0.045814
0.231098
-0.390735
0.159637
0.0658088
-0.288474
0.222666
-0.0630861
-0.203189
0.266275
0.0676601
0.0464105
-0.114071
0.00344686
-0.00531805
0.00187119
0.215109
0.0978355
-0.312944
-0.0800935
0.151403
-0.0713092
-0.128592
-0.0664236
0.195016
0.395436
-0.199214
-0.196223
0.0298909
-0.182586
0.152695
0.151837
-0.429084
0.277247
0.223324
0.132508
-0.355832
0.113195
-0.0729687
-0.0402264
-0.258321
0.330567
-0.0722458
0.254626
-0.115415
-0.139211
0.022235
-0.00248398
-0.0197511
0.204187
-0.0343019
-0.169885
0.143476
0.0672046
-0.210681
-0.0735629
0.288671
0.0341161
-0.16854
0.134424
0.0239009
0.195773
-0.219674
0.115805
-0.107478
-0.0083264
0.217408
-0.166277
-0.0511316
0.0148267
-0.141555
0.126728
0.172596
-0.136758
-0.0358379
0.0862972
-0.278153
0.191856
-0.0745542
-0.132972
0.207526
0.0773647
0.0818
-0.159165
0.0227004
0.0931041
0.149558
-0.407879
0.128857
-0.213843
0.0849861
-0.166497
0.166273
0.000223845
-0.244404
0.343911
-0.0995071
-0.44565
0.235657
0.209993
-0.180121
-0.15572
0.335841
0.0499424
-0.230063
-0.39904
0.263391
0.135649
0.119322
0.191904
-0.311226
-0.43709
0.295716
0.141374
-0.255337
0.166587
0.0887502
0.334264
-0.268455
-0.157989
0.0778959
-0.0134551
0.0289049
-0.0154498
0.152001
-0.361035
0.209034
0.330466
-0.178466
0.180813
-0.395388
0.214575
0.0156747
0.188512
0.311698
-0.154716
-0.156982
0.353876
-0.09425
-0.259626
0.103178
-0.196896
0.0937184
-0.158664
0.0197214
0.138943
0.23993
-0.362053
0.122123
-0.153341
-0.139821
0.293162
-0.10913
-0.0488599
0.332289
-0.217
-0.115289
0.153468
0.178822
-0.299352
0.146011
0.241741
-0.276314
0.0345733
0.0454829
-0.241703
0.19622
0.417227
-0.214905
-0.202323
0.203147
-0.0999692
-0.175045
0.198946
-0.162784
0.0536547
-0.0704204
-0.191985
0.262405
0.167063
-0.152237
0.381185
-0.150087
-0.425454
0.117424
0.30803
0.0703863
-0.253639
0.183252
0.236948
0.116928
0.163181
-0.197483
0.385756
-0.233919
0.00345143
-0.00528113
0.00182971
-0.0251686
0.0117135
0.35168
-0.155329
-0.196351
0.103694
0.229287
-0.332981
-0.193185
-0.0652868
0.258472
-0.0859673
-0.0590076
0.144975
-0.191137
0.277434
-0.224967
0.32866
-0.0756762
0.143336
0.163288
-0.129172
-0.0893801
0.312704
-0.0745973
0.0295079
0.0450894
0.312289
-0.234872
-0.0774178
0.00159337
-0.16809
-0.330244
0.0807328
0.227595
0.124085
0.289112
-0.188451
-0.100661
0.133342
-0.33828
0.204938
-0.177161
-0.122191
0.0052898
-0.00184294
-0.364502
0.227327
0.137175
0.285097
-0.214711
0.284525
-0.0427838
0.222419
0.194809
-0.0260371
0.0918453
-0.0658082
0.351964
0.0117083
-0.363672
0.092079
-0.0179016
-0.0741774
0.0847495
0.162688
-0.247438
0.106607
0.0659891
0.0316932
-0.0255135
0.20565
0.155888
-0.361538
0.136953
0.0661946
0.141158
-0.318319
-0.201863
0.321184
0.124645
0.119578
-0.244223
-0.403995
0.193021
0.210974
0.146909
0.0253376
-0.172246
0.152296
0.136816
0.243894
0.0794763
-0.32337
0.156369
-0.0362215
0.241871
0.0877958
-0.361091
0.273296
0.206608
-0.0434266
0.19857
-0.0616172
-0.350729
0.309832
0.0408969
-0.122725
0.0889925
0.0337324
0.00502335
-0.222083
0.217059
-0.151958
-0.178776
0.330734
0.00299793
-0.00115933
-0.0018386
-0.0283625
0.380327
-0.348409
0.262606
0.0858029
0.264348
-0.11993
-0.144418
0.0994901
0.196684
-0.296174
0.199639
0.101137
-0.300776
0.0652197
-0.241243
0.176024
-0.233645
0.170559
0.220821
-0.0961763
-0.102207
0.346101
0.286352
-0.144041
-0.142311
-0.158281
0.159875
-0.0917984
0.147007
-0.0552085
-0.0024779
0.00592933
-0.316488
-0.112596
0.228017
0.101679
-0.329696
0.00535558
-0.0037112
-0.00164439
-0.0604204
0.106831
0.0404112
-0.0232588
-0.0171523
0.0298418
-0.00374229
-0.0260995
0.275636
-0.0300422
-0.245594
-0.179196
-0.173315
0.352511
0.0525086
-0.138476
0.0365082
-0.229693
0.051075
0.159334
-0.210409
-0.26042
0.399674
-0.139254
-0.0656659
-0.359788
-0.107464
0.0747635
0.0327002
-0.0384346
-0.145547
0.183981
0.231892
-0.103035
-0.099123
-0.0839832
0.183106
0.0969036
-0.0430189
-0.0538847
-0.209089
-0.137402
0.346492
0.0676135
-0.196206
-0.0750393
0.111535
-0.0364958
-0.0201751
0.056436
-0.0362609
-0.230352
0.155798
0.0396669
0.0720064
-0.111673
0.264086
-0.419814
0.155729
-0.0352419
0.119744
0.128629
0.39515
-0.239557
-0.155593
0.0959258
0.162275
-0.258201
0.110156
-0.277034
0.166879
0.429851
-0.222285
-0.207566
-0.291634
-0.0474594
0.339093
-0.197126
0.000241064
0.196885
0.101902
-0.305091
0.371323
-0.283527
-0.124689
0.299254
-0.174566
0.0139881
0.026423
-0.0383447
0.025807
0.0125377
0.091619
-0.051952
-0.237358
0.384388
-0.14703
-0.313761
0.213281
0.10048
0.332652
-0.228738
-0.103914
0.166071
-0.0594644
0.0889329
-0.0883872
-0.000545732
-0.0617255
0.208634
0.0936206
-0.306284
0.212663
0.166132
0.12022
-0.158846
0.000564557
0.0696519
0.0272517
-0.226381
-0.122028
0.389942
-0.200803
-0.189139
-0.203125
0.270837
0.33431
-0.329733
-0.00457702
-0.202976
-0.122684
0.32566
0.173231
-0.374332
0.201101
0.215483
-0.164408
0.131872
-0.359593
0.227721
0.147712
0.0438988
0.345917
-0.252296
0.148445
0.194189
-0.342633
0.120691
-0.0509829
-0.0697085
-0.197517
-0.248133
-0.345307
0.349259
-0.00395223
0.0131687
-0.0640457
0.0508771
-0.0869415
-0.0553352
0.142277
-0.142986
0.0560447
0.148143
-0.357232
0.0745215
-0.33271
0.258189
0.0449114
-0.289315
0.175512
0.21443
0.0629035
0.292871
-0.355775
-0.295528
0.20146
0.0940687
0.303993
-0.152062
-0.151931
-0.0867297
0.42104
-0.335416
-0.015313
-0.069056
-0.0626881
0.0804243
-0.0177361
0.254738
-0.224545
-0.0301929
0.37772
-0.37772
-0.192378
0.34052
0.181872
-0.0562207
-0.125651
0.00286177
0.000136167
0.0670002
-0.25779
0.19079
0.407295
-0.0925143
-0.314781
0.00141069
-0.0564737
0.055063
0.11061
-0.163549
0.0529389
-0.117849
-0.058982
0.176831
0.0461532
0.208585
0.352282
-0.224973
-0.127309
0.0818285
0.325467
0.124509
0.0740608
0.0652368
-0.284527
0.219291
-0.252682
0.386942
-0.13426
-0.0521741
1.95122e-05
-0.0296359
0.0296164
0.0801537
0.0119253
-0.0814574
0.205966
0.113174
-0.168002
0.0548278
-0.342467
0.205064
0.15251
-0.344888
0.0705176
-0.213027
0.142509
-0.152796
-0.158259
0.311055
-0.0499899
0.107426
-0.0574361
-0.00402341
-0.0145688
0.0185922
0.323637
-0.258401
0.162443
0.092183
0.0528124
-0.144611
0.0110174
-0.0150408
1.75091e-05
-0.059057
0.0590395
-0.403731
0.172431
0.2313
0.0974107
-0.311623
0.214212
0.12662
-0.0967293
0.0901695
-0.20616
0.115991
-0.072861
-0.136832
0.209693
0.227893
0.167257
0.329941
-0.222958
-0.106983
-0.285004
0.415364
-0.13036
-0.128411
0.352129
-0.223718
0.406936
-0.289916
-0.11702
0.0826437
-0.0591244
-0.0235194
0.232855
-0.0857949
-0.147061
0.0335188
-0.108558
-0.272336
0.323812
-0.0514762
0.0321779
-0.00763984
-0.0245381
-0.385269
0.0401256
0.345144
0.322534
-0.371068
0.0485342
0.0619684
0.0206754
0.230783
-0.0606812
-0.170102
0.200024
-0.109854
0.0262242
-0.29856
-0.149888
-0.12394
0.273828
0.255723
-0.188722
0.118202
-0.179927
-0.170993
-0.0344041
0.205397
0.140864
0.0410077
0.400536
-0.178117
-0.350184
0.23091
0.119274
0.110806
-0.313782
0.303975
-0.0743865
-0.229588
0.156414
-0.359634
0.20322
-0.206764
-0.0485724
0.0853257
0.00360724
0.356814
-0.259403
-0.239657
0.346288
-0.106631
-0.35921
0.363
-0.00378962
0.206474
-0.394295
0.187821
0.149516
0.0833397
-0.145424
0.0487936
0.0966305
0.162638
-0.376129
0.213491
-0.0544429
-0.0832284
0.137671
0.247219
0.0567564
0.024447
-0.0244275
0.131394
0.089427
-0.21496
0.398686
-0.183725
0.0689543
-0.297431
0.228477
0.0561333
0.0645581
0.122086
-0.366275
0.24419
-0.322518
0.233995
0.0885235
-0.139646
-0.132418
-0.159201
0.291618
0.21709
-0.0856959
0.0572594
0.160149
0.19748
0.203056
-0.227719
-0.103989
0.331708
0.130747
0.0863429
0.145535
-0.0681699
0.143516
0.0695087
-0.213025
0.211302
-0.151728
-0.0595738
-0.056333
0.306916
-0.250583
-0.0585661
-0.202339
0.260905
-0.0860468
0.216794
0.0246227
0.048688
0.166795
-0.341075
0.212665
-0.159719
0.368519
-0.208799
-0.0893462
0.207548
0.0438625
-0.212402
0.018787
0.23473
-0.253517
0.121147
0.0683689
-0.189516
0.0488634
-0.203284
0.154421
0.15919
0.144803
0.0297965
-0.0322595
0.00246298
0.237341
-0.0938653
0.143387
-0.0908786
-0.147329
0.0329777
0.114352
-0.201354
0.250218
-0.066763
0.210279
0.0383094
-0.00857563
-0.0297338
-0.249061
-0.170753
-0.126042
0.0670345
-0.262069
0.205736
0.126289
0.225993
-0.0503754
0.34437
-0.248136
-0.0962337
-0.15025
0.219758
-0.0479169
0.0493276
-0.0644135
-0.0583114
-0.203477
0.222264
-0.0987747
-0.0442115
0.0561555
-0.212248
0.156093
0.0933249
0.213591
-0.0260006
0.316654
-0.290654
-0.0620808
0.0376939
0.0243868
0.0472941
0.0967151
-0.144009
-0.00283428
0.00321055
-0.000376267
0.0604269
-0.013667
-0.0467599
0.209318
0.220534
0.00280616
-0.348113
-0.377266
0.147472
0.229793
-0.253396
-0.123869
0.308602
-0.215277
0.0321177
0.0076404
-0.0397581
-0.0360323
-0.038565
0.176008
0.0983111
-0.274319
0.108136
0.249229
-0.357364
0.0322109
0.239355
-0.341561
-0.00297187
0.0116429
-0.00867104
-0.343713
0.348651
-0.00493823
-0.034847
-0.0272338
0.0751474
0.0358259
-0.110973
0.111725
-0.178148
-0.152058
-0.136103
0.288161
-0.130119
0.361199
-0.178776
-0.182423
0.0919049
-0.272872
0.180967
-0.376654
0.173646
0.203008
-0.2496
0.318554
0.291948
0.0510569
-0.343005
0.286763
-0.120631
0.00628989
-0.00926176
0.048811
-0.168167
0.119356
-0.0212379
0.0533556
0.0139634
-0.0181817
0.00421826
0.21448
-0.158324
0.353084
-0.179854
-0.0951729
0.091282
0.00389086
-0.0122395
0.0310739
-0.0188344
0.153491
0.207708
0.0565502
-0.208608
0.170439
0.162213
0.390211
-0.18496
-0.205252
0.255219
-0.092776
-0.150795
-0.0618096
0.212605
-0.307296
0.24873
-0.105551
0.0343349
0.0712161
-0.296863
0.121756
0.175107
-0.326628
0.228174
0.0984535
0.177487
-0.132004
0.0773281
0.231273
-0.144908
0.0461328
0.193365
0.057214
0.26532
-0.130013
0.369368
-0.345979
0.145777
0.200202
0.0343766
0.24126
0.0441749
-0.121735
0.0775599
-0.332283
0.355833
-0.02355
0.165774
0.178708
-0.344482
0.150957
0.234799
0.331402
-0.254074
-0.107124
-0.199365
0.306489
-0.201559
0.301049
0.310531
-0.253317
0.094439
-0.249087
0.154648
0.120089
-0.342822
0.222733
0.342731
-0.222642
0.34497
-0.222885
0.135919
0.150844
-0.0194049
0.00672584
0.0126791
-0.052654
-0.136572
0.189226
0.1037
-0.0285531
0.0125595
0.017096
-0.0296555
0.118805
0.241133
-0.359938
-0.330602
0.235958
0.0946447
0.0305288
-0.0179693
0.10958
-0.29791
0.18833
-0.175555
0.123781
0.0517739
0.0310108
-0.001169
0.0292386
-0.0164512
-0.0127874
0.142004
0.144268
-0.286272
-0.00263059
0.00107618
0.00155441
0.187276
-0.171601
-0.16356
0.348679
-0.196169
0.381913
-0.174303
-0.207609
0.224244
0.120126
-0.249288
-0.0394181
0.288706
-0.252317
0.178754
0.0168304
0.0124082
0.0554343
0.0849
-0.140334
0.123711
-0.289249
0.165537
0.107551
-0.186829
0.0792784
0.0491948
-0.0999421
0.0507473
-0.201432
0.342361
-0.150243
-0.192118
0.0195801
-0.00561672
-0.0886609
-0.268374
0.357035
-0.0901479
-0.190378
0.280526
0.173438
0.0138375
-0.16059
0.0215255
0.139064
-0.11587
0.0658799
-0.112879
-0.149098
0.261977
0.106398
0.220906
-0.327304
0.23252
0.0974205
0.239611
0.0610462
-0.300657
-0.256546
0.106658
0.304275
-0.218833
-0.0854419
0.00229837
-0.0182153
0.015917
0.00266801
0.00268757
0.159084
0.183277
-0.192779
-0.151868
0.344648
-0.0525469
0.176469
-0.123922
0.0972277
0.22641
0.261756
0.0458997
-0.307655
-0.288049
-0.0425531
0.290267
-0.217319
-0.0729474
0.0412718
-0.373555
0.0576169
0.0555782
-0.183948
0.0704293
0.113518
0.140218
0.0642915
-0.20451
-0.251596
0.29596
-0.0443636
-0.312316
0.124314
0.188002
0.0861039
-0.240369
0.154265
-0.245095
-0.121181
0.000209368
-0.00369056
0.00348119
-0.201703
0.3081
-0.184001
-0.0991839
0.283185
0.0845944
-0.341372
0.256777
-0.0292848
-0.129379
-0.0783898
-0.306879
0.0231797
-0.0433547
-0.306684
0.203948
0.102736
-0.031266
-0.14313
0.174396
0.16576
-0.35854
-0.11026
-0.203203
0.313463
-0.255488
0.0736008
0.181887
-0.158458
-0.00213186
-0.0115028
0.0841606
-0.0726578
0.0874951
0.224794
-0.224312
0.178424
0.0458881
0.349161
-0.192431
-0.15673
0.150249
0.114099
0.354083
-0.142617
-0.211467
0.0423875
0.0615754
-0.103963
0.225411
0.170025
-0.0388097
-0.158316
-0.145091
0.0364865
0.108605
-0.175115
0.0572662
0.196969
-0.348838
0.175541
-0.12673
0.397494
-0.27848
-0.119014
-0.119908
0.294598
-0.174691
-0.0447643
-0.206832
-0.111685
0.219236
-0.0149569
-0.170961
0.185918
-0.184658
0.269253
-0.221745
-0.033743
-0.347288
-0.00201567
0.349303
0.304077
-0.104438
-0.152941
0.355146
-0.202205
0.123012
-0.347728
0.224717
0.073332
-0.127071
0.0537389
0.299203
-0.362165
0.0629621
-0.2095
0.11905
-0.358707
0.291753
-0.148301
-0.143452
-0.226962
-0.135339
0.197132
-0.129518
-0.345934
0.345206
0.000728249
0.0859795
-0.280748
0.194769
0.16026
-0.366514
0.206255
-0.399684
0.189895
0.209788
0.309751
-0.138043
-0.171708
-0.116747
-0.224328
0.131733
0.0696857
-0.201418
0.272245
-0.207026
-0.174875
0.311091
-0.136216
-0.182779
0.410972
-0.228193
0.25269
-0.178169
0.315774
-0.218546
0.0109359
-0.00714867
-0.00378724
-0.278939
0.110193
0.168746
0.142643
0.149111
-0.0512201
-0.124335
-0.041516
0.0946697
-0.0531537
0.348402
-0.242708
-0.105693
0.0263669
-0.00413185
0.0988733
-0.282874
-0.312229
0.137353
0.0544451
-0.109632
0.0551865
-0.177406
-0.127202
0.304608
-0.146729
0.341631
-0.194902
-0.125378
0.0349375
0.0904404
-0.159172
-0.186807
0.284724
-0.188362
-0.096362
0.351805
-0.311679
-0.303544
0.126138
-0.338968
0.354887
-0.0159186
0.162147
-0.177104
0.255739
-0.372351
0.116612
-0.0608839
-0.112084
0.172968
-0.325723
0.0883654
-0.126824
-0.126015
0.252839
0.178312
0.175772
0.396125
-0.122618
-0.273507
0.0995467
0.248855
0.255121
-0.169141
0.0801095
-0.188207
0.108098
0.173648
0.111077
-0.308489
0.30801
0.000479078
-0.11762
-0.0503818
0.0683709
0.18675
0.0954006
0.224131
-0.319531
-0.00510479
-0.000406841
0.00551163
0.307061
-0.147871
0.0745007
-0.241395
0.166894
-0.326298
0.203614
0.260747
-0.184185
-0.0765613
-0.000569732
-0.00263442
0.00320415
0.116457
0.0190526
-0.135509
-0.132328
-0.0127629
-0.34065
0.190408
0.173361
-0.325319
-0.117001
0.19711
-0.367644
0.350279
0.0173658
-0.196622
0.264993
-0.33775
0.112778
-0.0575621
0.130894
0.0484536
0.100807
-0.14926
-0.237635
0.343727
-0.106092
0.211435
0.0160072
-0.308146
0.292139
-0.0703464
-0.0642793
0.134626
0.0621844
-0.193478
0.333912
-0.140435
-0.199076
0.35816
-0.201889
-0.104795
-0.015138
-0.0381173
0.0532553
-0.226843
0.121937
0.104906
-0.0233312
0.0554444
-0.0321131
0.0531904
-0.0400217
0.0437481
0.216998
-0.204242
-0.00440676
-0.000698031
-0.0525997
0.169056
-0.0936807
0.149115
-0.227845
0.34665
-0.367746
0.152785
0.110919
-0.079973
-0.0309456
-0.352017
-0.0735495
-0.00222225
-0.042889
0.0451113
-0.00189356
-0.000737029
-0.0672295
-0.0650987
-0.137319
0.0700895
0.0432955
-0.0755703
0.230971
-0.136532
-0.139175
-0.142952
0.282127
0.104567
0.337813
-0.164165
-0.113733
0.0796993
0.0340333
0.324453
-0.212039
-0.112413
0.197589
0.0926771
-0.152379
-0.166655
0.319034
-0.173273
0.368572
-0.195299
-0.0261454
0.0694408
0.322107
-0.154515
-0.167592
-0.34048
0.102845
-0.19183
0.0374126
0.154418
0.218816
0.133313
-0.167985
-0.131041
-0.22674
0.357781
0.183649
-0.316112
0.132463
-0.0347402
-0.22206
0.042278
-0.124141
0.0818632
-0.0275597
-0.00207356
0.0296333
0.0154391
-0.0884078
0.15752
-0.310316
0.192883
0.126471
-0.319354
-0.112798
0.298217
-0.185419
0.280102
-0.0564011
-0.223701
0.242107
-0.167606
-0.192956
-0.00418556
0.00198276
0.0022028
-0.0477753
0.0102941
0.0374812
0.0732766
-0.0140364
-0.0592402
-0.0107953
-0.03698
0.0243618
-0.0366013
0.101292
-0.409781
-0.332669
0.0875744
0.101255
-0.289771
0.188515
-0.309443
0.116833
-0.00203498
-0.000799306
0.101505
-0.200928
0.0994221
0.0661844
0.258268
-0.415989
0.189027
-0.231745
0.18782
0.0439257
0.333146
-0.100626
0.142315
-0.28149
0.0549053
-0.0050941
-0.0498112
0.00603433
0.00490159
0.102685
0.151217
-0.253902
-0.226803
0.0294351
0.197368
-0.26764
-0.200843
-0.111473
-0.104259
-0.266809
-0.0823512
0.0835131
-0.00116188
0.0483135
-0.18578
0.137466
-0.295459
0.101982
-0.00248906
0.00852338
0.295341
-0.114528
-0.177627
-0.0541189
-0.170664
0.377009
-0.206345
-0.0718591
0.00471864
0.0671405
-0.0778481
-0.0475297
-0.347104
0.212766
0.134338
-0.319996
-0.133255
0.255793
0.0778669
0.0432243
-0.121091
0.311731
-0.210594
-0.309993
0.223081
0.086912
0.0986967
-0.182444
0.0837473
-0.176758
0.261507
0.344925
-0.0891863
0.0466826
-0.0558175
0.00913498
0.16395
-0.23437
0.316158
-0.211545
-0.104612
-0.169278
0.11447
0.0548081
-0.137914
-0.179715
0.31763
0.172538
0.165275
-0.273145
0.200292
0.0728527
0.317901
-0.0936573
-0.0718989
0.195647
-0.123748
-0.380945
0.236825
0.14412
0.213739
-0.165425
0.00285784
0.057569
-0.0902363
0.191742
0.062449
-0.00548751
-0.0569615
0.00345104
0.337809
-0.148603
-0.189206
0.0505231
0.116701
0.235437
0.109489
-0.207742
-0.130008
0.120808
0.112271
-0.233079
0.217392
0.0987657
-0.242679
-0.0304654
0.212204
0.150899
-0.363103
-0.380329
0.180705
-0.308089
0.127384
0.128859
-0.355599
-0.0104132
-0.0147554
-0.0742706
-0.0933339
0.167605
0.116587
0.20735
-0.323937
-0.301274
-0.0122793
0.313553
0.0103637
0.0213294
0.294377
-0.151735
0.000931721
0.00750399
-0.00843571
-0.269645
0.0478885
0.221756
-0.0529628
0.292573
0.125487
0.163027
-0.288514
-0.275161
0.175977
-0.134273
-0.0744323
0.208706
-0.114519
0.276535
-0.162016
-0.0803351
0.0189226
0.0614125
0.15193
0.185879
-0.106427
-0.226242
-0.169015
0.334789
-0.408138
0.241148
0.16699
0.401044
-0.215388
-0.185655
0.10226
-0.0825391
0.126339
-0.292461
0.166122
-0.0693526
0.000557159
0.00077721
-0.00133437
-0.0015741
-0.0738263
0.0754004
0.0291024
-0.178049
0.148947
0.26893
-0.167028
-0.191151
0.220253
0.0316986
0.07922
-0.142438
-0.0867547
0.229193
0.318275
-0.107946
-0.210329
-0.256363
-0.0258176
-0.0125271
0.182207
0.215286
0.159258
0.135119
-0.380966
0.169171
0.211795
0.0791249
0.176094
0.309835
-0.183496
-0.00183186
0.0012561
0.000575754
0.109458
-0.337296
0.227838
-0.119073
0.0334175
0.085655
0.0893933
0.243753
-0.112463
0.0336256
-0.176064
-0.170494
-0.19602
0.0242163
-0.0267003
0.0174017
-0.0196246
0.00222285
0.290538
-0.259963
-0.0305743
0.308076
-0.124427
-0.166101
0.322515
0.14768
-0.280098
0.169965
-0.2116
-0.0152031
-0.274658
-0.129337
0.328535
-0.219077
-0.343839
0.117459
0.339073
-0.0991425
-0.0799072
0.290243
-0.210336
-0.168309
-0.230732
-0.293475
0.213568
0.0763205
-0.247377
0.171057
0.138317
0.108065
-0.246382
0.186111
0.148754
-0.334865
0.201734
-0.326572
0.124838
0.0624966
0.103575
-0.0965649
-0.126094
0.222659
-0.0306379
-0.166426
0.197064
-0.0445743
0.00127784
0.0432965
-0.235173
0.28661
-0.0514373
-0.0445692
0.211623
-0.322511
0.110888
0.295592
-0.0989088
0.0406501
-0.00711907
-0.0335311
-0.0865603
0.138677
-0.279704
0.141027
-0.0379806
0.012067
0.0259136
0.133331
-0.185985
-0.336479
0.118313
0.218166
-0.160158
0.165181
0.204417
0.113858
-0.112331
-0.283057
-0.00838768
-0.0110172
0.183465
-0.0607785
-0.122686
0.345916
-0.346412
0.000496567
0.106263
-0.334108
-0.118999
0.273495
-0.154495
-0.104328
0.242645
0.224393
0.0661448
-0.0340587
-0.151723
-0.12568
0.333323
-0.207643
0.175592
0.132484
0.337365
0.0144391
0.0881489
0.142822
-0.0821636
0.21082
-0.128657
0.354971
-0.142768
-0.243187
0.108913
-0.260079
0.157216
-0.38296
0.225745
0.200449
-0.317027
0.116578
-0.131217
0.00451862
-0.00700768
-0.287834
-0.282092
-0.061621
-0.212158
0.260759
-0.0486013
0.0555523
0.104897
-0.160449
0.0571042
-0.0194102
0.317611
-0.222249
-0.0953619
-0.15901
0.0413906
-0.0016413
-0.000190555
0.11825
0.064063
0.00921359
0.141127
0.165934
0.201379
-0.311639
0.109219
0.0454992
-0.154718
0.0663482
-0.152902
-0.163287
0.316189
0.103615
-0.0491699
0.110056
0.194219
0.0828356
-0.226845
0.144009
-0.0914606
-0.185248
0.276708
-0.223895
-0.195203
-0.166925
0.362127
-0.051966
0.0411707
-0.0923438
-0.0132072
-0.119051
-0.119678
0.238729
-0.246918
0.385591
-0.138672
-0.339009
0.12775
0.211259
-0.168355
0.278511
0.35939
0.0178186
-0.377209
0.321397
-0.114923
0.363338
-0.21345
-0.149888
0.206609
-0.324786
0.118177
0.0898787
-0.146716
0.0568369
-0.0699216
0.147803
-0.0778812
0.226902
0.15501
0.245121
-0.1688
-0.308169
0.200224
-0.132181
0.274185
0.227113
0.376371
-0.227926
-0.313041
0.160139
-0.235659
0.0514738
-0.173668
0.121121
0.00297446
0.205572
0.112039
0.364938
-0.169564
-0.195375
0.0883719
0.222159
-0.134745
-0.202908
0.117865
0.085043
0.0314189
-0.0346917
0.00327279
0.159851
-0.214651
0.0547997
-0.35438
0.159177
-0.00621695
0.216674
-0.133838
0.302985
-0.214613
-0.000749037
0.00102391
-0.000274877
-0.127952
0.170218
-0.200856
0.0401898
-0.159552
0.119362
0.0766709
0.0348642
0.288091
-0.339949
0.0518579
0.159247
-0.0472356
-0.112011
-0.0654427
0.255357
-0.189914
-0.338605
0.264061
0.0745442
0.21133
-0.144126
-0.155106
0.0653027
0.089803
-0.217115
0.0980638
0.100071
0.0956835
-0.195755
-0.0684414
0.205382
-0.134865
-0.0805261
-0.163429
0.243955
0.315344
-0.142806
0.0241519
-0.0944983
0.0617254
0.000723616
-0.0038985
-0.0234255
0.027324
-0.400469
0.240512
0.159956
0.364683
0.125014
-0.154299
-0.0515225
-0.0559412
-0.0378749
0.00965016
0.0282247
-0.2992
-0.0394051
-0.203902
0.0709302
-0.106782
-0.273345
0.0611868
-0.0679022
0.0601746
0.0077277
0.336292
-0.129683
-0.211732
-0.0239266
0.0643113
-0.316993
0.210127
0.144844
-0.0370749
0.0429659
-0.00589101
-0.112061
0.285667
-0.173606
-0.212511
-0.146496
0.359008
0.295011
-0.135753
-0.115566
0.278204
0.124991
0.219979
-0.06141
0.139277
0.186269
0.131059
-0.317328
0.0736036
-0.27568
0.202076
-0.1583
-0.150497
0.308797
0.134883
0.160128
-0.00103313
0.00159029
-0.0412234
-0.0107425
-0.000917233
0.00183042
-0.000913185
0.124617
0.191485
-0.316102
-0.172404
0.281984
-0.321587
0.155075
-0.337379
0.182304
0.0362002
0.020904
0.368251
-0.256931
-0.111321
-0.211896
0.115551
0.0436961
0.161058
0.0502439
-0.00130586
0.0311023
-0.246054
0.180611
0.00103719
-0.000454583
-0.000582612
-0.0507971
0.05036
0.000437098
-0.344148
0.15634
0.187808
0.178015
0.101455
-0.27947
-0.183184
-0.224954
-0.184218
0.234161
0.072923
0.140816
0.364448
-0.0716401
-0.292808
0.183444
-0.101644
0.184936
-0.314779
0.129842
0.257465
0.106983
-0.00309079
0.00330016
-0.333695
0.14368
0.190014
-0.272634
0.00859899
0.264035
0.39165
-0.182754
-0.208896
0.0885795
-0.299287
0.210708
-0.171186
0.370081
-0.198895
-0.247452
0.000704749
0.0399454
-0.332893
-0.00649757
0.339391
0.182568
0.132776
0.103342
-0.162779
0.0594365
-0.176042
-0.065206
0.241248
0.243349
-0.147423
0.0201087
-0.00270695
0.0199757
-0.249135
0.229159
0.0731302
-0.113654
0.0405238
-0.277137
0.085152
-0.204839
0.131978
0.153417
0.081185
-0.119462
0.0382771
-0.119088
0.354525
-0.0362533
0.0714816
-0.0352283
0.0590637
-0.0590462
-0.370047
0.148235
0.221812
-0.0367311
-0.043604
0.219071
-0.199096
0.0299167
0.197678
0.167083
-0.0637409
0.276781
-0.156499
-0.120282
-0.0376233
0.106897
-0.0692736
-0.213007
-0.152054
0.365061
0.0360361
-0.212078
0.00237716
-0.0647921
0.062415
-0.130739
0.315675
0.00548644
-0.0681746
-0.0427401
0.146114
-0.103374
-0.204605
0.278209
-0.278213
0.129911
-0.212836
0.323642
0.0201511
-0.0240496
-0.349349
0.187549
0.161799
-0.216524
0.305104
0.108402
-0.267262
0.15886
-0.135122
-0.00163571
0.0584252
0.146957
-0.346281
0.229924
0.116356
-0.000407062
-0.00268373
-0.273624
0.183476
-0.228859
-0.123103
0.351962
0.110554
-0.335207
0.224652
0.231241
0.169803
-0.123437
-0.203135
0.238338
-0.0756196
-0.162719
0.321825
-0.211271
-0.00506942
0.355348
0.0750594
-0.250643
0.175584
-0.194439
-0.0837743
0.37454
-0.217324
-0.136771
-0.0471764
-0.16229
0.0880197
0.125499
0.0883013
-0.239615
0.31176
-0.0721449
-0.0244028
0.333634
-0.129217
-0.273682
0.00104859
0.413652
-0.263493
-0.150159
0.315234
-0.352552
0.0373183
0.0698716
0.245362
-0.0357913
-0.165164
0.200956
0.0384836
0.0138115
-0.0522952
0.311314
-0.110865
-0.204336
0.262513
-0.0581775
-0.226626
-0.0263952
0.253021
0.154836
-0.230692
0.0758558
0.261686
-0.136199
-0.0310361
0.0283194
0.00271668
0.118073
-0.200237
0.345787
-0.13566
-0.329227
0.101368
0.067959
-0.169327
-0.124208
-0.161679
0.116363
0.0453163
0.263283
0.150369
-0.0593822
0.135489
-0.0761067
0.111574
-0.322621
0.211047
0.0133893
-0.136475
0.123086
0.146539
0.295315
-0.232412
0.110632
-0.173953
0.0633213
0.0166477
-0.256263
0.292967
-0.0919868
-0.20098
-0.0909821
0.189501
-0.0985184
0.177355
-0.350628
0.415358
-0.122487
-0.40362
0.23589
0.167731
0.166165
-0.235774
0.0696094
-0.233342
0.339605
0.273038
-0.11035
-0.0517382
0.124623
-0.0728849
-0.174254
0.273127
0.176323
0.175683
-0.352005
-0.227873
0.0667238
-0.320642
0.253919
0.205584
0.201352
-0.150365
-0.187132
0.337497
-0.333136
0.288562
0.0445738
0.312054
-0.065653
-0.312067
-0.0547109
0.00349647
0.0512145
0.201217
-0.323087
0.12187
-0.222567
-0.126782
-0.394523
0.254778
0.139745
0.210172
0.0827949
-0.127586
0.30066
-0.173074
-0.0491955
0.2299
-0.18455
-0.21907
-0.0317292
-0.00100462
0.0327338
0.04052
0.107746
-0.148266
0.318275
-0.216596
-0.221749
0.0714992
0.0655827
-0.22335
0.157767
-0.0730167
0.107352
0.29293
-0.226206
-0.166531
0.210637
-0.0441057
0.0782128
0.0426469
-0.163449
0.120802
-0.00012445
-0.000624587
0.0685824
-0.380205
-0.174775
0.340536
-0.195998
0.160206
-0.223626
0.150868
0.0727575
-0.0990464
-0.00192892
-0.227353
0.330062
-0.102709
0.225803
0.133144
-0.358946
0.247864
-0.172805
0.204607
0.321057
-0.204471
0.331825
0.0138949
-0.34572
-0.266518
-0.127777
-0.10881
0.322345
-0.213535
0.166338
-0.377009
0.210671
0.336987
-0.179493
-0.156058
-0.00281116
-0.0013744
-0.33189
0.22308
-0.0594868
-0.165461
0.224947
-0.0228214
0.354647
0.181862
0.0564759
0.0657033
-0.326123
0.0795759
0.131105
-0.210681
-0.00117981
-0.00102528
0.00220509
0.199744
0.146043
-0.0275754
-0.249459
0.195298
-0.326618
0.13132
0.39247
-0.219574
-0.172897
-0.0930879
-0.178168
0.271256
-0.0365014
0.275113
-0.177581
-0.0975321
0.321243
-0.196626
0.175219
-0.0738517
-0.194187
0.0635722
0.130615
0.133146
0.203146
0.0569287
0.126515
0.338792
-0.144293
-0.194499
0.0664868
0.10431
-0.170796
-0.140736
0.0979961
0.111731
-0.320931
0.209199
0.167769
-0.33387
0.0354609
-0.0255323
-0.00992856
-0.279904
0.107946
0.171958
0.380046
-0.192497
0.0582563
0.156224
0.000198507
0.000838688
-0.318894
0.11748
0.201415
0.0151075
-0.331935
0.316828
-0.299819
-0.0474684
0.141838
0.206401
-0.348239
0.171954
-0.318683
0.342967
-0.342967
-0.0638913
0.169384
-0.105493
-0.0247809
0.0171457
0.0076352
-0.283434
-0.0497016
0.174374
0.0833457
-0.25772
0.10956
0.188651
-0.298211
-0.0043832
0.000672005
-0.222778
-0.120044
0.381096
-0.117035
0.028837
-0.00303004
-0.146862
0.346606
-0.100937
-0.0237085
-0.00180502
-0.169881
0.108997
-0.0815831
0.125758
-0.213055
-0.00285944
0.000851
0.00200844
0.198097
-0.321904
0.123807
0.333668
-0.207443
-0.126225
0.209363
-0.341565
0.132202
0.206121
0.127546
0.00286927
0.0030144
-0.00588366
-0.325947
0.353622
-0.027675
0.270816
-0.178911
-0.0113923
-0.0762868
0.0876791
0.0756078
0.227377
-0.100716
0.276724
-0.130281
0.0387433
-0.117102
0.0783584
-0.0595727
-0.00447306
-0.249153
-0.131792
0.0883686
0.158659
-0.247028
0.208661
-0.00516028
-0.2035
-0.173338
0.117606
0.0557321
-0.223679
0.00354217
-0.0041119
-0.185472
-0.00266846
-0.00392538
0.00659384
-0.101743
0.270267
-0.168524
-0.0306414
0.0313853
-0.000743891
0.0705576
0.0764493
-0.191746
-0.129185
0.227574
-0.161991
-0.154309
0.167698
-0.0826353
-0.120272
-0.372352
0.231572
0.14078
0.145435
0.0804379
-0.225873
-0.346126
0.0536649
0.10478
-0.35633
0.25155
0.181017
0.199029
-0.280432
0.120205
0.160226
-0.183138
0.248559
-0.0485346
0.114704
0.283956
-0.110639
-0.173317
0.191864
-0.0509994
0.0776764
0.0464729
-0.124149
0.19542
-0.115844
0.113889
-0.161617
0.0477281
0.116008
-0.367123
0.193808
-0.11996
0.0221623
0.0977977
-0.316312
0.212322
0.0798867
0.148629
-0.228515
-0.0369832
-0.0476062
0.137485
0.124922
-0.181216
0.0562949
0.102518
-0.0314148
-0.0823178
0.0938583
-0.135955
0.0420967
0.133415
-0.124493
-0.00892211
-0.135342
0.208265
0.309462
-0.123193
-0.233399
-0.1314
0.364799
0.141516
-0.0560106
-0.0855053
0.142529
-0.0952351
-0.137058
-0.0203915
-0.0514676
0.245307
0.135789
0.000325791
-0.00150561
0.108227
0.237689
-0.0567028
-0.138234
0.194937
0.354663
-0.346295
-0.00836777
-0.247265
0.355401
-0.0704187
-0.266868
0.337287
-0.0280929
-0.0918672
-0.295145
0.0826341
0.195232
-0.0740856
0.202351
0.199594
-0.373898
0.255771
-0.0813971
0.364023
-0.225597
-0.138425
-0.15299
0.389815
0.00364288
0.205018
-0.241179
-0.120986
0.0889205
0.229355
-0.417449
0.202061
-0.244294
0.0940242
0.15027
-0.0728376
0.237629
-0.164791
-0.186103
0.380292
0.203282
0.139449
0.234098
0.165576
0.155592
-0.22843
-0.386494
0.174417
0.212078
-0.104323
0.396271
-0.113211
0.155858
-0.0573525
-0.258959
-0.122929
-0.182337
-0.122359
0.304696
-0.108541
0.27791
-0.169369
-0.285303
-0.0739071
0.140378
-0.197081
0.0511323
0.0850947
-0.136227
0.210382
0.0888724
0.0734603
-0.251956
0.178495
-0.0669918
0.434948
-0.142017
-0.319766
0.140007
0.179759
-0.227235
-0.132832
-0.0669128
0.133649
-0.0630918
-0.170772
0.10688
0.150491
-0.218816
0.0683252
-0.0200955
-0.0750774
-0.0038705
0.00741266
-0.326408
0.124546
0.0311324
0.311835
-0.137106
-0.0775451
-0.153998
0.100598
-0.0582101
0.0970902
-0.16049
0.0633994
0.0014768
-0.00134266
-0.000134137
0.169771
-0.112843
-0.140899
0.26461
-0.275809
-0.0260581
0.301867
0.0513964
-0.327205
0.333912
-0.148543
-0.185369
0.0224133
-0.0137283
-0.00868496
0.275659