/*--------------------------------*- C++ -*----------------------------------*\
| =========                 |                                                 |
| \\      /  F ield         | OpenFOAM: The Open Source CFD Toolbox           |
|  \\    /   O peration     | Version:  v2012                                 |
|   \\  /    A nd           | Website:  www.openfoam.com                      |
|    \\/     M anipulation  |                                                 |
\*---------------------------------------------------------------------------*/
FoamFile
{
    version     2.0;
    format      ascii;
    class       surfaceScalarField;
    location    "400";
    object      phi_0;
}
// * * * * * * * * * * * * * * * * * * * * * * * * * * * * * * * * * * * * * //

dimensions      [0 3 -1 0 0 0 0];
oriented        oriented;


internalField   nonuniform List<scalar> 
51027
(
0.0677117
-0.301984
0.234272
-0.249511
-0.0282339
0.277745
-0.2775
0.12255
0.15495
0.191624
-0.145811
-0.0458131
0.231098
-0.390735
0.159637
0.065805
-0.288455
0.22265
-0.0630861
-0.203189
0.266275
0.0676599
0.046411
-0.114071
0.00344436
-0.00532053
0.00187618
0.215091
0.097846
-0.312937
-0.0800929
0.151402
-0.0713089
-0.128572
-0.0664608
0.195032
0.395436
-0.199214
-0.196223
0.0298918
-0.182586
0.152695
0.151837
-0.429083
0.277246
0.223324
0.132508
-0.355832
0.113198
-0.072974
-0.040224
-0.258321
0.330567
-0.0722459
0.254618
-0.115403
-0.139215
0.022241
-0.00248757
-0.0197534
0.204216
-0.0343216
-0.169894
0.143476
0.0672047
-0.210681
-0.0735732
0.288664
0.034058
-0.168506
0.134448
0.0239143
0.195774
-0.219688
0.115806
-0.107479
-0.00832706
0.217418
-0.166301
-0.0511165
0.0148277
-0.141556
0.126728
0.172575
-0.136762
-0.0358132
0.0862973
-0.278153
0.191856
-0.0745528
-0.132977
0.207529
0.0773647
0.0818
-0.159165
0.0227013
0.0931043
0.149558
-0.407879
0.128857
-0.213843
0.0849864
-0.166496
0.166273
0.000223916
-0.244404
0.343911
-0.0995071
-0.44565
0.235657
0.209993
-0.180121
-0.15572
0.335841
0.0499424
-0.230063
-0.39904
0.263391
0.135649
0.119322
0.191904
-0.311226
-0.43709
0.295716
0.141374
-0.255337
0.166587
0.0887502
0.334248
-0.268443
-0.157989
0.0778956
-0.0134585
0.0289048
-0.0154463
0.152001
-0.361034
0.209033
0.330466
-0.178465
0.180813
-0.395388
0.214575
0.015694
0.188522
0.311698
-0.154716
-0.156982
0.353877
-0.0942503
-0.259626
0.103152
-0.196899
0.0937469
-0.158657
0.0197162
0.138941
0.239924
-0.362059
0.122134
-0.153341
-0.13982
0.293162
-0.109129
-0.0488596
0.332289
-0.217
-0.115289
0.153468
0.178822
-0.299352
0.146011
0.241741
-0.276314
0.0345734
0.0455084
-0.241716
0.196208
0.417236
-0.21488
-0.202356
0.203147
-0.0999954
-0.175044
0.198959
-0.162783
0.0536546
-0.0704204
-0.191985
0.262405
0.167064
-0.152237
0.381185
-0.150087
-0.425454
0.117424
0.30803
0.0703881
-0.253641
0.183253
0.236948
0.116928
0.163182
-0.197504
0.385755
-0.233919
0.00344928
-0.0052757
0.00182642
-0.0251682
0.0117096
0.35168
-0.155329
-0.196351
0.103695
0.229287
-0.332981
-0.193185
-0.0652869
0.258472
-0.0859676
-0.0590071
0.144975
-0.191137
0.277435
-0.224966
0.328661
-0.0756772
0.143337
0.163252
-0.129194
-0.0893801
0.312704
-0.0745983
0.0295178
0.0450805
0.312286
-0.234893
-0.0773926
0.00159331
-0.16809
-0.330244
0.0807327
0.227595
0.124085
0.289112
-0.188451
-0.100661
0.133342
-0.33828
0.204938
-0.177161
-0.122191
0.00529189
-0.00184753
-0.364493
0.227351
0.137142
0.2851
-0.214711
0.284525
-0.0427839
0.222396
0.19484
-0.0260367
0.0918543
-0.0658175
0.351973
0.0117024
-0.363675
0.0920806
-0.0179016
-0.0741791
0.0847495
0.162688
-0.247438
0.106613
0.0659619
0.0316925
-0.0255097
0.205635
0.155889
-0.361525
0.136911
0.0662362
0.141158
-0.318319
-0.201863
0.321184
0.124702
0.119533
-0.244235
-0.403995
0.193021
0.210974
0.146911
0.0253378
-0.172249
0.152296
0.136816
0.243894
0.0794762
-0.32337
0.156369
-0.0362264
0.241862
0.0877958
-0.361091
0.273296
0.206625
-0.0434428
0.198563
-0.0616515
-0.350729
0.309832
0.0408967
-0.122726
0.0889939
0.0337324
0.0050235
-0.222083
0.217059
-0.151958
-0.178776
0.330734
0.002993
-0.00115485
-0.00183815
-0.0283537
0.380326
-0.348409
0.262606
0.0858029
0.264348
-0.119929
-0.144418
0.0994901
0.196684
-0.296174
0.199639
0.101137
-0.300776
0.0652197
-0.241243
0.176024
-0.233645
0.170559
0.220831
-0.0961286
-0.102207
0.346101
0.286351
-0.144043
-0.142308
-0.158281
0.159875
-0.0917987
0.147007
-0.0552081
-0.00247424
0.00592352
-0.316488
-0.112595
0.227982
0.101709
-0.329692
0.00535544
-0.00371491
-0.00164053
-0.0604159
0.106827
0.0404089
-0.0232605
-0.0171484
0.029843
-0.00374424
-0.0260987
0.275637
-0.0300436
-0.245593
-0.179196
-0.173315
0.352511
0.0525082
-0.138476
0.0365082
-0.229693
0.0510749
0.159334
-0.210409
-0.26042
0.399674
-0.139254
-0.0656659
-0.359788
-0.107464
0.0747642
0.0327001
-0.0384355
-0.145547
0.183982
0.231892
-0.103035
-0.0991243
-0.0839803
0.183105
0.0969102
-0.0430256
-0.0538847
-0.209089
-0.137402
0.346492
0.0676489
-0.196221
-0.075041
0.111536
-0.0364947
-0.0201804
0.0564376
-0.0362571
-0.230358
0.155805
0.0396743
0.0720066
-0.111681
0.264075
-0.419805
0.15573
-0.0352419
0.119745
0.128629
0.39515
-0.239557
-0.155593
0.0959258
0.162275
-0.258201
0.110156
-0.277034
0.166879
0.429851
-0.222285
-0.207566
-0.291642
-0.0474474
0.339089
-0.197126
0.000240467
0.196886
0.101902
-0.305091
0.371323
-0.283527
-0.124689
0.299254
-0.174566
0.0139835
0.0264254
-0.0383378
0.0258022
0.0125357
0.091625
-0.0519507
-0.237358
0.384388
-0.14703
-0.313774
0.213287
0.100487
0.332663
-0.228721
-0.103942
0.166058
-0.0594453
0.0889359
-0.088389
-0.000546916
-0.0617263
0.208638
0.0936206
-0.306284
0.212663
0.166129
0.120222
-0.158846
0.000564519
0.0696532
0.0272571
-0.226381
-0.122028
0.389928
-0.200761
-0.189167
-0.203125
0.270837
0.33431
-0.329733
-0.00457704
-0.202976
-0.122684
0.32566
0.173231
-0.374331
0.201101
0.215483
-0.164408
0.131872
-0.359593
0.227721
0.147727
0.0438971
0.345917
-0.252296
0.148417
0.194212
-0.342629
0.120699
-0.0509852
-0.0697142
-0.197517
-0.248133
-0.34531
0.349258
-0.00394785
0.0131727
-0.0640532
0.0508805
-0.0869418
-0.0553349
0.142277
-0.142986
0.0560445
0.148143
-0.357232
0.0745223
-0.332711
0.258188
0.0449114
-0.289315
0.175477
0.214452
0.0628984
0.292871
-0.35577
-0.295529
0.20146
0.0940688
0.303993
-0.152062
-0.151931
-0.0867297
0.42104
-0.335416
-0.0153127
-0.0690623
-0.0626853
0.0804211
-0.0177358
0.254738
-0.224545
-0.0301929
0.37772
-0.37772
-0.192378
0.34052
0.181871
-0.0562205
-0.12565
0.00286165
0.000131354
0.0670002
-0.25779
0.19079
0.407295
-0.0925144
-0.314781
0.00141446
-0.0564775
0.055063
0.11061
-0.163548
0.0529387
-0.117831
-0.0589743
0.176806
0.0461532
0.208585
0.352282
-0.224973
-0.127309
0.0818286
0.325467
0.124461
0.0741015
0.0652359
-0.284527
0.219291
-0.252682
0.386942
-0.13426
-0.0521738
1.49862e-05
-0.0296337
0.0296188
0.0801553
0.0119253
-0.081501
0.205962
0.113173
-0.168001
0.0548276
-0.342467
0.205064
0.15251
-0.344888
0.0705174
-0.213028
0.14251
-0.152796
-0.158258
0.311055
-0.0499889
0.107427
-0.0574377
-0.00402594
-0.0145632
0.0185891
0.323637
-0.258401
0.162445
0.0921728
0.0528121
-0.144611
0.0110122
-0.0150381
1.97722e-05
-0.0590541
0.0590343
-0.403723
0.172435
0.231288
0.0974108
-0.311623
0.214212
0.126621
-0.0967289
0.0901698
-0.206161
0.115991
-0.0728597
-0.136836
0.209696
0.227893
0.167257
0.329941
-0.222958
-0.106984
-0.285004
0.415363
-0.13036
-0.128411
0.352129
-0.223718
0.406936
-0.289916
-0.11702
0.0826434
-0.0591212
-0.0235223
0.232855
-0.0857948
-0.14706
0.0335178
-0.108559
-0.272334
0.323811
-0.0514774
0.0321724
-0.00763586
-0.0245365
-0.385269
0.0401256
0.345144
0.322535
-0.371069
0.048534
0.0619643
0.0206791
0.230783
-0.0606815
-0.170102
0.200025
-0.109855
0.0262259
-0.29856
-0.149888
-0.12394
0.273828
0.255723
-0.188722
0.118204
-0.17993
-0.170993
-0.0344041
0.205397
0.140863
0.0410077
0.400542
-0.178145
-0.350184
0.23091
0.119274
0.110806
-0.313782
0.303987
-0.0743715
-0.229616
0.156413
-0.359633
0.20322
-0.206764
-0.0485725
0.0853272
0.00360872
0.356814
-0.259403
-0.239657
0.346288
-0.106631
-0.35921
0.363
-0.00378961
0.206474
-0.394295
0.187821
0.149516
0.0833396
-0.145423
0.0487922
0.0966308
0.162638
-0.376129
0.213491
-0.0544444
-0.0832268
0.137671
0.247251
0.056736
0.0244438
-0.0244289
0.131454
0.0893774
-0.21496
0.398686
-0.183725
0.0689543
-0.297431
0.228477
0.0561353
0.0645642
0.122086
-0.366275
0.24419
-0.322518
0.233995
0.0885235
-0.139648
-0.132418
-0.1592
0.291618
0.217098
-0.0856444
0.0572386
0.160179
0.197509
0.203032
-0.22767
-0.104052
0.331722
0.130802
0.0862958
0.145535
-0.0681699
0.143516
0.0695087
-0.213025
0.211303
-0.15173
-0.0595731
-0.0563337
0.306916
-0.250583
-0.0586388
-0.202305
0.260944
-0.0859951
0.216797
0.0246228
0.0486879
0.166795
-0.341075
0.212665
-0.159719
0.368519
-0.208799
-0.0893473
0.207551
0.0439055
-0.212412
0.0187869
0.234731
-0.253518
0.121147
0.0683689
-0.189516
0.0488724
-0.203295
0.154423
0.159189
0.144803
0.0297928
-0.0322606
0.00246782
0.237341
-0.0938653
0.143387
-0.0908788
-0.147329
0.0329772
0.114352
-0.201356
0.250229
-0.0667631
0.210279
0.0383062
-0.00857019
-0.029736
-0.249054
-0.170752
-0.126042
0.0670348
-0.262069
0.205736
0.126289
0.225993
-0.0503751
0.34437
-0.248136
-0.0962336
-0.150249
0.219758
-0.0479168
0.0493313
-0.0644145
-0.0583118
-0.203477
0.222264
-0.098775
-0.0442113
0.0561555
-0.212248
0.156093
0.0933256
0.213591
-0.0260006
0.316654
-0.290654
-0.0620792
0.0377031
0.024376
0.0472939
0.0967153
-0.144009
-0.00283474
0.00321098
-0.000376239
0.0604261
-0.0136671
-0.0467591
0.209317
0.220534
0.00280277
-0.348113
-0.377266
0.147472
0.229793
-0.253396
-0.123869
0.308602
-0.215277
0.0321104
0.00765043
-0.0397609
-0.0360274
-0.0385709
0.176009
0.0983113
-0.27432
0.108136
0.249229
-0.357364
0.0322078
0.239355
-0.341561
-0.00297467
0.0116409
-0.00866619
-0.343713
0.348651
-0.00493823
-0.0348367
-0.0272425
0.0751477
0.0358259
-0.110974
0.111705
-0.178166
-0.152059
-0.136103
0.288162
-0.130122
0.361196
-0.178752
-0.182444
0.0919049
-0.272872
0.180967
-0.376654
0.173646
0.203008
-0.2496
0.318554
0.291945
0.0510552
-0.343
0.286762
-0.120632
0.00628489
-0.00925956
0.048811
-0.168167
0.119355
-0.0212469
0.0533574
0.0139645
-0.0181804
0.00421593
0.21448
-0.158325
0.353084
-0.179854
-0.095173
0.0912828
0.00389016
-0.0122408
0.0310775
-0.0188367
0.153467
0.207729
0.0565494
-0.208608
0.170475
0.162188
0.39021
-0.184934
-0.205276
0.255216
-0.0927712
-0.15083
-0.0617664
0.212596
-0.307324
0.248685
-0.105552
0.0343352
0.0712168
-0.296863
0.121757
0.175106
-0.326644
0.22817
0.098474
0.177506
-0.131997
0.0773287
0.231273
-0.144908
0.0461326
0.193365
0.0572142
0.26532
-0.130013
0.369368
-0.345993
0.145777
0.200215
0.0343776
0.241259
0.0441741
-0.121735
0.0775609
-0.332283
0.355833
-0.02355
0.165774
0.178708
-0.344482
0.150957
0.234798
0.331403
-0.254074
-0.107124
-0.199365
0.306489
-0.201559
0.301049
0.310532
-0.253317
0.094416
-0.24907
0.154654
0.120089
-0.342822
0.222733
0.342731
-0.222642
0.344971
-0.222885
0.13592
0.150841
-0.0194075
0.00673018
0.0126773
-0.052654
-0.136572
0.189226
0.103701
-0.0285531
0.0125622
0.0170922
-0.0296544
0.118804
0.241134
-0.359938
-0.330603
0.235958
0.0946446
0.030528
-0.0179659
0.10958
-0.29791
0.18833
-0.175555
0.123781
0.0517738
0.031011
-0.00116803
0.0292376
-0.0164494
-0.0127881
0.142004
0.144268
-0.286272
-0.00263086
0.00107683
0.00155403
0.187296
-0.171602
-0.16356
0.348679
-0.196169
0.381913
-0.174303
-0.207609
0.224244
0.120126
-0.249282
-0.039419
0.288701
-0.252334
0.178761
0.0168314
0.0124062
0.0554343
0.0849
-0.140334
0.123688
-0.289256
0.165568
0.107551
-0.186829
0.0792782
0.0491948
-0.0999463
0.0507515
-0.201432
0.342361
-0.150243
-0.192118
0.0195795
-0.00561503
-0.0886602
-0.268375
0.357035
-0.090148
-0.190378
0.280526
0.173437
0.0138593
-0.160585
0.0215221
0.139062
-0.115871
0.0658817
-0.112879
-0.149098
0.261977
0.106398
0.220906
-0.327304
0.23252
0.0974208
0.239634
0.0610019
-0.300636
-0.256546
0.106658
0.304276
-0.218833
-0.0854423
0.00229495
-0.0182151
0.0159201
0.00267058
0.00268486
0.159085
0.183276
-0.192779
-0.151868
0.344648
-0.0525469
0.176468
-0.123922
0.0972268
0.22641
0.261737
0.0459293
-0.307667
-0.288049
-0.042553
0.290285
-0.217323
-0.0729619
0.0412718
-0.373555
0.0576134
0.0555847
-0.183946
0.0704297
0.113517
0.140221
0.064291
-0.204512
-0.251591
0.295959
-0.0443678
-0.312317
0.124314
0.188003
0.086104
-0.240369
0.154265
-0.245095
-0.121181
0.000203846
-0.00368829
0.00348445
-0.201703
0.308101
-0.184003
-0.0991839
0.283187
0.0845944
-0.341372
0.256777
-0.0292805
-0.129377
-0.0783899
-0.306879
0.0231749
-0.0433553
-0.306685
0.20394
0.102745
-0.0312661
-0.143129
0.174395
0.16576
-0.35854
-0.110232
-0.203223
0.313456
-0.255488
0.0736009
0.181887
-0.158455
-0.00212931
-0.0115073
0.0841657
-0.0726584
0.0874734
0.224813
-0.224312
0.178424
0.0458882
0.349161
-0.192431
-0.15673
0.150249
0.114099
0.354083
-0.142617
-0.211467
0.0423874
0.0615757
-0.103963
0.225411
0.170025
-0.0388092
-0.158317
-0.145091
0.0364864
0.108605
-0.175082
0.0572505
0.196969
-0.348838
0.17554
-0.126729
0.397494
-0.27848
-0.119014
-0.119908
0.294599
-0.174691
-0.0447604
-0.206831
-0.111685
0.219236
-0.0149573
-0.170959
0.185916
-0.184658
0.269253
-0.221745
-0.033743
-0.347288
-0.00201567
0.349303
0.304077
-0.104438
-0.152941
0.355146
-0.202204
0.123011
-0.347728
0.224717
0.0733318
-0.127055
0.0537235
0.299203
-0.362165
0.0629621
-0.2095
0.11905
-0.358706
0.291744
-0.148322
-0.143422
-0.226961
-0.135338
0.197152
-0.129503
-0.345934
0.345206
0.000728247
0.0859777
-0.280748
0.19477
0.160228
-0.366508
0.20628
-0.399684
0.189895
0.209789
0.309765
-0.138069
-0.171697
-0.116747
-0.224328
0.131737
0.0696852
-0.201422
0.272245
-0.207026
-0.174875
0.311091
-0.136216
-0.182779
0.410972
-0.228193
0.252691
-0.178168
0.315773
-0.218546
0.0109364
-0.00715016
-0.00378624
-0.278939
0.110193
0.168746
0.142664
0.14908
-0.05122
-0.124335
-0.0415163
0.0946701
-0.0531538
0.348401
-0.242708
-0.105693
0.0263705
-0.00412952
0.0988733
-0.282877
-0.312229
0.137353
0.0544472
-0.109632
0.055185
-0.177406
-0.127202
0.304608
-0.146707
0.341621
-0.194915
-0.125368
0.0349315
0.090437
-0.159168
-0.186825
0.284724
-0.188362
-0.0963619
0.351805
-0.311679
-0.303544
0.126138
-0.338968
0.354887
-0.0159186
0.162145
-0.177103
0.25574
-0.372351
0.116611
-0.0608881
-0.112081
0.172969
-0.325723
0.0883654
-0.126834
-0.126007
0.252841
0.178312
0.175772
0.396125
-0.122618
-0.273508
0.0995467
0.248855
0.25512
-0.169142
0.0801095
-0.188207
0.108098
0.173647
0.111077
-0.308489
0.30801
0.000479072
-0.117619
-0.0503815
0.0683693
0.186751
0.0954685
0.224087
-0.319555
-0.00510705
-0.000403675
0.00551073
0.307061
-0.147871
0.0745007
-0.241395
0.166894
-0.326298
0.203614
0.260726
-0.184194
-0.0765313
-0.00056941
-0.00263571
0.00320512
0.116458
0.0190497
-0.135507
-0.132328
-0.0127628
-0.34065
0.190407
0.173361
-0.325319
-0.117001
0.19711
-0.367644
0.350278
0.0173658
-0.196623
0.264992
-0.337751
0.112778
-0.057545
0.130877
0.0484449
0.100808
-0.149253
-0.237576
0.343741
-0.106164
0.211458
0.0160072
-0.308146
0.292138
-0.0703438
-0.064282
0.134626
0.0621845
-0.193478
0.333912
-0.140435
-0.199076
0.35816
-0.201881
-0.104804
-0.0151266
-0.0381271
0.0532537
-0.226858
0.121945
0.104913
-0.0233238
0.0554458
-0.032122
0.0531974
-0.0400247
0.0437221
0.217003
-0.204265
-0.00440593
-0.000701115
-0.0525967
0.169054
-0.0936808
0.149115
-0.227846
0.34665
-0.367746
0.152785
0.11092
-0.0799735
-0.0309461
-0.352017
-0.0735603
-0.00222049
-0.042893
0.0451134
-0.00189331
-0.000737555
-0.0672296
-0.0650987
-0.137319
0.0700895
0.0433017
-0.0755778
0.230954
-0.136538
-0.139175
-0.142952
0.282127
0.104577
0.337812
-0.164165
-0.113731
0.0797003
0.0340311
0.324453
-0.212039
-0.112413
0.197582
0.0927029
-0.152383
-0.166651
0.319034
-0.173273
0.368572
-0.195299
-0.026145
0.0694467
0.322104
-0.154485
-0.167619
-0.340491
0.102915
-0.19183
0.0374126
0.154418
0.218816
0.133313
-0.167997
-0.131041
-0.226734
0.357775
0.183649
-0.316112
0.132463
-0.0347402
-0.222067
0.0422781
-0.124141
0.0818633
-0.0275615
-0.00207274
0.0296342
0.0154326
-0.0884067
0.157519
-0.310316
0.192883
0.126471
-0.319354
-0.112798
0.298218
-0.185419
0.280101
-0.056409
-0.223692
0.242107
-0.167606
-0.192956
-0.00418553
0.00198314
0.00220239
-0.047774
0.0102938
0.0374803
0.0732823
-0.0140413
-0.059241
-0.0107949
-0.0369792
0.0243643
-0.0366051
0.101292
-0.409781
-0.332669
0.0875744
0.101253
-0.289771
0.188517
-0.309456
0.116866
-0.00203502
-0.00079973
0.101493
-0.20093
0.0994378
0.0661844
0.258268
-0.415988
0.189026
-0.231765
0.187836
0.0439291
0.333146
-0.100626
0.142315
-0.28149
0.0549081
-0.0050978
-0.0498103
0.0060355
0.0049009
0.102686
0.151216
-0.253902
-0.226803
0.0294351
0.197368
-0.26764
-0.200844
-0.111473
-0.104259
-0.26681
-0.0823543
0.0835149
-0.00116059
0.0483703
-0.185809
0.137439
-0.29546
0.101982
-0.00248809
0.00852359
0.295341
-0.114528
-0.177646
-0.0541188
-0.170661
0.377001
-0.20634
-0.0718617
0.00472328
0.0671384
-0.0778465
-0.047522
-0.347108
0.212765
0.134343
-0.319996
-0.133246
0.255796
0.0778655
0.0432257
-0.121091
0.311731
-0.210594
-0.309994
0.223098
0.0868962
0.0987005
-0.182452
0.0837511
-0.176758
0.261507
0.344925
-0.0891858
0.046684
-0.0558146
0.00913053
0.16395
-0.23437
0.316175
-0.211514
-0.104661
-0.169257
0.114466
0.0547915
-0.137915
-0.179715
0.31763
0.172538
0.165274
-0.273146
0.200292
0.0728549
0.317901
-0.0936571
-0.0718989
0.195647
-0.123748
-0.380945
0.236825
0.14412
0.213765
-0.165394
0.00285732
0.0575688
-0.0902526
0.191745
0.0624417
-0.0054812
-0.0569605
0.00344949
0.337794
-0.148572
-0.189222
0.0505231
0.116701
0.235437
0.109488
-0.207742
-0.130008
0.120808
0.112271
-0.233079
0.217351
0.098824
-0.242679
-0.0304674
0.212203
0.1509
-0.363103
-0.380323
0.180706
-0.308086
0.127381
0.12886
-0.355594
-0.0104164
-0.0147517
-0.0742668
-0.0933232
0.16759
0.116587
0.20735
-0.323937
-0.301274
-0.0122793
0.313553
0.0103671
0.0213254
0.294375
-0.151711
0.00093386
0.00750296
-0.00843683
-0.269647
0.0478903
0.221756
-0.0529294
0.292564
0.125487
0.163027
-0.288514
-0.275164
0.175981
-0.134273
-0.0744324
0.208706
-0.114519
0.276535
-0.162016
-0.0803429
0.018921
0.0614219
0.151897
0.185897
-0.106427
-0.226242
-0.169015
0.334789
-0.408138
0.241148
0.16699
0.401044
-0.215388
-0.185655
0.102255
-0.082539
0.126339
-0.292461
0.166122
-0.0693552
0.000556299
0.0007776
-0.0013339
-0.00157341
-0.0738271
0.0754005
0.029136
-0.178073
0.148937
0.26893
-0.167028
-0.191136
0.220272
0.031699
0.0792206
-0.142432
-0.0867654
0.229197
0.318288
-0.10799
-0.210298
-0.256363
-0.0258133
-0.0125246
0.182207
0.215286
0.159275
0.1351
-0.380966
0.169171
0.211795
0.0791222
0.176094
0.309835
-0.183496
-0.00183275
0.00125614
0.000576608
0.109458
-0.337296
0.227838
-0.119073
0.0334174
0.0856555
0.0893935
0.243753
-0.112509
0.0336381
-0.17607
-0.170465
-0.196044
0.0242189
-0.0267064
0.0174043
-0.0196265
0.00222219
0.290538
-0.259963
-0.0305743
0.308076
-0.124427
-0.166101
0.322514
0.14768
-0.280097
0.169965
-0.2116
-0.0152031
-0.274658
-0.129337
0.328535
-0.219077
-0.343839
0.117459
0.339079
-0.0991544
-0.0799072
0.290243
-0.210336
-0.168309
-0.230732
-0.293475
0.213568
0.0763204
-0.247377
0.171057
0.138347
0.108036
-0.246383
0.186111
0.148754
-0.334865
0.201735
-0.326577
0.124842
0.0624788
0.103579
-0.0965648
-0.126094
0.222659
-0.0306354
-0.166424
0.197059
-0.0445655
0.00127356
0.0432919
-0.235173
0.28661
-0.0514373
-0.0445707
0.211633
-0.322514
0.110881
0.295592
-0.0989088
0.0406503
-0.00712197
-0.0335283
-0.0865603
0.138677
-0.279704
0.141027
-0.0379843
0.0120632
0.0259211
0.133331
-0.185985
-0.336486
0.118317
0.218169
-0.160158
0.165181
0.204381
0.113907
-0.112331
-0.283057
-0.00838668
-0.0110208
0.18343
-0.0607626
-0.122667
0.345916
-0.346412
0.000496569
0.106263
-0.334108
-0.119008
0.273497
-0.15449
-0.104299
0.242646
0.224393
0.0661448
-0.0340551
-0.151721
-0.12568
0.333323
-0.207643
0.175592
0.132484
0.337365
0.0144391
0.0881306
0.142823
-0.0821636
0.21082
-0.128657
0.354971
-0.142768
-0.243187
0.108913
-0.26008
0.157216
-0.38296
0.225745
0.200449
-0.317027
0.116578
-0.131217
0.00451976
-0.00700785
-0.287823
-0.282092
-0.061621
-0.212158
0.260759
-0.0486013
0.0555523
0.104897
-0.160449
0.057103
-0.0193998
0.317608
-0.222275
-0.0953334
-0.15901
0.0413904
-0.0016415
-0.000191245
0.11825
0.0640662
0.00921608
0.141127
0.165934
0.201403
-0.311636
0.109219
0.0454989
-0.154717
0.0663482
-0.152909
-0.163281
0.316191
0.103616
-0.0491687
0.110056
0.19422
0.0828357
-0.226845
0.144009
-0.0914432
-0.185261
0.276704
-0.223895
-0.195203
-0.166925
0.362127
-0.0519649
0.04117
-0.0923446
-0.0132074
-0.119051
-0.119678
0.238729
-0.246919
0.385591
-0.138672
-0.339009
0.12775
0.211259
-0.168355
0.278511
0.35939
0.0178186
-0.377209
0.321397
-0.114923
0.363338
-0.21345
-0.149888
0.206575
-0.324792
0.118217
0.0898636
-0.146708
0.0568446
-0.0699161
0.147779
-0.0778628
0.226902
0.15501
0.245121
-0.1688
-0.308183
0.200193
-0.132181
0.274185
0.227113
0.376361
-0.227944
-0.313042
0.160133
-0.235626
0.0514318
-0.173668
0.121121
0.00297284
0.205596
0.112012
0.364938
-0.169564
-0.195375
0.0883722
0.222159
-0.13475
-0.2029
0.117865
0.0850349
0.0314132
-0.0346861
0.00327288
0.159855
-0.214671
0.0548161
-0.35438
0.159177
-0.0062163
0.216674
-0.133838
0.302985
-0.214613
-0.000750068
0.00102062
-0.000270554
-0.127952
0.170216
-0.200851
0.0401392
-0.159516
0.119376
0.0766727
0.034863
0.288091
-0.339949
0.0518578
0.159246
-0.047235
-0.112011
-0.0654427
0.255357
-0.189914
-0.338604
0.264061
0.0745438
0.21133
-0.144126
-0.155106
0.0653022
0.0898033
-0.217115
0.0980638
0.100071
0.0956885
-0.19576
-0.0684414
0.205383
-0.134865
-0.0805261
-0.163429
0.243955
0.315343
-0.142805
0.024155
-0.0944988
0.0617229
0.000718732
-0.0039036
-0.023422
0.0273256
-0.400467
0.240506
0.159961
0.364683
0.125014
-0.154294
-0.0515231
-0.0559411
-0.0378706
0.00964687
0.0282238
-0.2992
-0.0394048
-0.203906
0.0709288
-0.106778
-0.273345
0.0611868
-0.0679051
0.0601799
0.0077252
0.336297
-0.129722
-0.211733
-0.0238929
0.0643113
-0.316993
0.210127
0.144844
-0.0370829
0.0429634
-0.00588049
-0.112061
0.285667
-0.173606
-0.212511
-0.146496
0.359008
0.295015
-0.13574
-0.115566
0.278204
0.124991
0.219979
-0.0614112
0.139277
0.186269
0.131059
-0.317328
0.0736036
-0.27568
0.202076
-0.158306
-0.150492
0.308798
0.134897
0.160118
-0.0010336
0.00158989
-0.041223
-0.0107419
-0.000918041
0.00183116
-0.000913117
0.124617
0.191485
-0.316102
-0.172404
0.281984
-0.321587
0.155056
-0.337381
0.182325
0.036209
0.0208939
0.368251
-0.25693
-0.111321
-0.211855
0.115551
0.0436956
0.16106
0.0502429
-0.00131157
0.0311044
-0.246054
0.180611
0.00103714
-0.000455118
-0.000582022
-0.0507942
0.0503614
0.000432815
-0.344148
0.15634
0.187808
0.178015
0.101455
-0.27947
-0.183184
-0.224954
-0.184218
0.234161
0.0729785
0.140786
0.364448
-0.07164
-0.292808
0.183444
-0.101644
0.184936
-0.314779
0.129842
0.257465
0.106983
-0.00309403
0.00329788
-0.33369
0.143654
0.190036
-0.272599
0.00856258
0.264037
0.39165
-0.182754
-0.208896
0.0885796
-0.299287
0.210708
-0.171189
0.370078
-0.198889
-0.247452
0.000707775
0.0399425
-0.332893
-0.00649757
0.339391
0.182567
0.132776
0.103342
-0.162778
0.0594368
-0.176049
-0.0651917
0.241241
0.243349
-0.147423
0.0201111
-0.00270685
0.019925
-0.249115
0.22919
0.0731322
-0.113655
0.0405226
-0.277137
0.0851519
-0.204842
0.131982
0.153417
0.0811866
-0.119463
0.0382762
-0.119088
0.354525
-0.0362576
0.0714855
-0.035228
0.0590656
-0.0590458
-0.370034
0.148235
0.221799
-0.0367321
-0.0436108
0.219039
-0.199114
0.0299167
0.197678
0.167083
-0.0637411
0.276773
-0.156495
-0.120278
-0.0376235
0.106898
-0.0692742
-0.213006
-0.152051
0.365057
0.0360243
-0.212074
0.00237698
-0.064795
0.062418
-0.130739
0.315675
0.00548493
-0.0681703
-0.0427401
0.146114
-0.103374
-0.204605
0.278209
-0.278195
0.129872
-0.212836
0.323642
0.0201476
-0.0240513
-0.349343
0.187573
0.16177
-0.216525
0.305104
0.10841
-0.267266
0.158856
-0.135102
-0.00165981
0.0584248
0.146958
-0.346281
0.229924
0.116356
-0.000412719
-0.00268132
-0.273624
0.183476
-0.228859
-0.123103
0.351962
0.110554
-0.335207
0.224653
0.231241
0.169803
-0.123442
-0.203135
0.238328
-0.0755993
-0.162728
0.321825
-0.211271
-0.00506943
0.355348
0.0750594
-0.250643
0.175584
-0.194454
-0.0837402
0.37454
-0.217324
-0.13677
-0.0471766
-0.162278
0.0880111
0.125499
0.0883014
-0.239615
0.31176
-0.0721449
-0.0244027
0.333641
-0.12926
-0.273683
0.00108399
0.413656
-0.263486
-0.15017
0.315248
-0.352541
0.0372935
0.0698904
0.245357
-0.0357903
-0.165163
0.200953
0.0384935
0.0138007
-0.0522942
0.311314
-0.110865
-0.204336
0.262513
-0.0581775
-0.226626
-0.0263951
0.253021
0.154836
-0.230692
0.0758558
0.261686
-0.136199
-0.0310314
0.0283175
0.00271386
0.118073
-0.200237
0.345787
-0.13566
-0.329227
0.101367
0.0679594
-0.169327
-0.124208
-0.161679
0.116363
0.0453162
0.263275
0.150381
-0.0593808
0.135489
-0.0761077
0.111574
-0.322621
0.211047
0.0133911
-0.136479
0.123088
0.146536
0.29531
-0.232412
0.110629
-0.173953
0.0633235
0.0166477
-0.256263
0.292968
-0.0919611
-0.201007
-0.0909833
0.189503
-0.0985195
0.177355
-0.350627
0.415353
-0.122482
-0.40362
0.23589
0.167731
0.166161
-0.235775
0.0696142
-0.233342
0.339605
0.273038
-0.11035
-0.0517324
0.12462
-0.0728871
-0.174256
0.273129
0.176323
0.175683
-0.352005
-0.227873
0.0667238
-0.320643
0.253919
0.205584
0.201352
-0.150365
-0.187132
0.337497
-0.333136
0.288562
0.0445738
0.312054
-0.065653
-0.312067
-0.0547079
0.00348584
0.051222
0.201217
-0.323087
0.12187
-0.222588
-0.126755
-0.394523
0.254778
0.139745
0.2102
0.0827688
-0.12756
0.300655
-0.173095
-0.0491933
0.229899
-0.18455
-0.21907
-0.0317256
-0.00100964
0.0327352
0.0405249
0.107745
-0.14827
0.318284
-0.216574
-0.221749
0.0714992
0.0655827
-0.22335
0.157767
-0.0730173
0.107352
0.29293
-0.226207
-0.166532
0.210637
-0.0441046
0.0782205
0.0426509
-0.163453
0.120802
-0.000128658
-0.00062141
0.0685824
-0.380205
-0.174775
0.340536
-0.195996
0.160205
-0.223629
0.150891
0.0727376
-0.0990464
-0.00192972
-0.22735
0.330065
-0.102715
0.225803
0.133144
-0.358946
0.247864
-0.172805
0.204607
0.321058
-0.204471
0.331825
0.0138949
-0.34572
-0.266518
-0.127777
-0.10881
0.322345
-0.213535
0.166338
-0.377009
0.210671
0.336987
-0.179494
-0.156058
-0.00281086
-0.00137467
-0.33189
0.22308
-0.0594858
-0.165463
0.224949
-0.0228214
0.354647
0.181867
0.0564605
0.0657033
-0.326123
0.0795684
0.131117
-0.210686
-0.00118123
-0.00102348
0.00220471
0.199744
0.146043
-0.0275754
-0.249459
0.195298
-0.326618
0.13132
0.39247
-0.219574
-0.172897
-0.0930879
-0.178168
0.271256
-0.0365
0.27511
-0.1776
-0.0975107
0.321243
-0.196626
0.175219
-0.073852
-0.194164
0.0635206
0.130643
0.13318
0.203117
0.0569286
0.126515
0.338785
-0.144271
-0.194514
0.0664934
0.10431
-0.170803
-0.140736
0.097996
0.111775
-0.320935
0.20916
0.167769
-0.33387
0.0354624
-0.0255301
-0.00993224
-0.279904
0.107946
0.171958
0.380049
-0.192476
0.0582562
0.156224
0.000197638
0.000839502
-0.31889
0.117464
0.201427
0.0151075
-0.331935
0.316828
-0.299819
-0.0474684
0.141838
0.206401
-0.348239
0.171972
-0.318679
0.342967
-0.342967
-0.0638919
0.169384
-0.105492
-0.0247802
0.0171414
0.00763883
-0.283434
-0.0497016
0.174374
0.0833457
-0.25772
0.109559
0.188651
-0.29821
-0.00438185
0.000666939
-0.222778
-0.120044
0.381095
-0.117035
0.0288325
-0.00303031
-0.146862
0.346606
-0.100937
-0.0237093
-0.00180041
-0.169882
0.108994
-0.081584
0.125758
-0.213017
-0.00285361
0.000849661
0.00200394
0.198097
-0.321904
0.123807
0.333668
-0.207443
-0.126225
0.209363
-0.341565
0.132202
0.206121
0.127546
0.00286469
0.00301303
-0.00587773
-0.325947
0.353622
-0.0276751
0.270816
-0.178911
-0.0113909
-0.0762885
0.0876794
0.075608
0.227377
-0.100716
0.276725
-0.130286
0.0387419
-0.117101
0.0783588
-0.0595761
-0.00447703
-0.249153
-0.131792
0.0883687
0.158659
-0.247028
0.208661
-0.00516029
-0.2035
-0.173333
0.117602
0.0557307
-0.22368
0.00354369
-0.0041131
-0.185473
-0.00266449
-0.00392385
0.00658835
-0.101743
0.270268
-0.168526
-0.0306399
0.0313819
-0.000742006
0.0705579
0.0764489
-0.191703
-0.129232
0.227574
-0.161991
-0.154311
0.167702
-0.0826339
-0.120266
-0.372352
0.231572
0.14078
0.145435
0.0804379
-0.225873
-0.346126
0.053665
0.10478
-0.35633
0.25155
0.181036
0.199014
-0.280431
0.120177
0.160254
-0.183138
0.248559
-0.0485348
0.114704
0.283956
-0.110639
-0.173317
0.191863
-0.0509994
0.0776771
0.046472
-0.124149
0.195421
-0.115852
0.113889
-0.161617
0.0477274
0.116071
-0.367122
0.193808
-0.119943
0.02216
0.0977831
-0.316341
0.212289
0.0798587
0.148667
-0.228526
-0.036982
-0.0476248
0.137488
0.124922
-0.181216
0.0562948
0.102518
-0.0314123
-0.0823192
0.0938573
-0.135945
0.0420881
0.133413
-0.124491
-0.00892192
-0.135308
0.208286
0.309462
-0.123193
-0.233399
-0.1314
0.364799
0.141508
-0.0560105
-0.0854975
0.142529
-0.0952352
-0.137058
-0.0203961
-0.0514656
0.245307
0.135788
0.000324182
-0.00150542
0.108227
0.237689
-0.0567027
-0.138234
0.194937
0.354663
-0.346295
-0.00836777
-0.247265
0.355401
-0.0704236
-0.266867
0.33729
-0.0280892
-0.0918539
-0.295145
0.0826341
0.195232
-0.0740856
0.202346
0.199594
-0.373898
0.255771
-0.0813971
0.364022
-0.225597
-0.138425
-0.15299
0.389816
0.00364288
0.205018
-0.241179
-0.120986
0.0889719
0.229312
-0.417449
0.202061
-0.244294
0.0940242
0.15027
-0.0728376
0.237629
-0.164791
-0.186082
0.380293
0.203282
0.139449
0.234098
0.165576
0.155592
-0.22843
-0.386494
0.174417
0.212078
-0.104322
0.396267
-0.113211
0.155862
-0.0574201
-0.258921
-0.122928
-0.182337
-0.122359
0.304696
-0.108541
0.27791
-0.169369
-0.285303
-0.0739071
0.140378
-0.197081
0.0511272
0.0850945
-0.136222
0.210382
0.0888726
0.0734602
-0.251956
0.178495
-0.067003
0.434948
-0.142017
-0.319752
0.139977
0.179774
-0.227235
-0.132831
-0.0669128
0.133649
-0.0630914
-0.170771
0.106879
0.150491
-0.218816
0.0683257
-0.0200949
-0.075078
-0.00387084
0.00741453
-0.326408
0.124546
0.0311324
0.311835
-0.1371
-0.0775711
-0.154024
0.100598
-0.0582104
0.0970855
-0.16049
0.0634042
0.00147748
-0.0013436
-0.000133883
0.169771
-0.112843
-0.140926
0.264613
-0.27581
-0.0260578
0.301867
0.0513964
-0.327206
0.333903
-0.148514
-0.185388
0.0224146
-0.0137297
-0.00868489
0.275659
-0.136982