/*--------------------------------*- C++ -*----------------------------------*\
| =========                 |                                                 |
| \\      /  F ield         | OpenFOAM: The Open Source CFD Toolbox           |
|  \\    /   O peration     | Version:  v2012                                 |
|   \\  /    A nd           | Website:  www.openfoam.com                      |
|    \\/     M anipulation  |                                                 |
\*---------------------------------------------------------------------------*/
FoamFile
{
    version     2.0;
    format      ascii;
    class       volVectorField;
    location    "400";
    object      U;
}
// * * * * * * * * * * * * * * * * * * * * * * * * * * * * * * * * * * * * * //

dimensions      [0 1 -1 0 0 0 0];


internalField   nonuniform List<vector> 
34253
(
(1.01399 0.00131022 -2.09263e-24)
(1.01543 0.00203324 -3.04843e-22)
(1.00939 0.00761778 1.91232e-22)
(1.02581 0.00120367 -5.52931e-22)
(1.01089 -1.7308e-05 7.49095e-25)
(0.951725 0.0297033 2.90211e-22)
(1.02502 -0.00181465 1.14271e-21)
(0.967607 0.050429 0)
(0.0554762 -0.0435168 -4.07154e-21)
(1.00891 -0.0152539 -6.74322e-23)
(1.03619 0.0270965 8.0784e-23)
(0.736773 -0.0200251 0)
(1.0122 0.000743491 -4.04697e-23)
(1.02908 0.0182063 -5.73102e-22)
(1.0142 0.000331027 -5.4144e-24)
(1.01874 -9.22078e-05 1.36001e-22)
(0.937727 0.0650816 2.07898e-21)
(1.01344 0.000421827 1.16156e-25)
(1.01852 0.0319581 -1.34585e-22)
(0.270609 0.0246176 2.62551e-21)
(0.886416 0.0267592 5.02792e-22)
(1.03622 0.00512568 -7.9636e-22)
(1.01332 -0.0150677 2.91077e-23)
(0.723764 -0.00718729 -1.26886e-22)
(1.01032 -0.00131366 -6.37902e-22)
(1.06053 0.0394954 0)
(0.978494 0.0186631 0)
(1.02588 0.0168087 -4.10094e-22)
(0.67734 0.0306934 0)
(1.01864 0.00484977 -3.99081e-22)
(1.02327 0.0115648 -2.25118e-22)
(1.05244 0.0114381 -4.26844e-21)
(1.05985 0.0398443 -1.60537e-21)
(1.0136 0.000442528 -1.74735e-24)
(1.02781 0.0135559 4.33321e-22)
(1.04569 0.0164576 9.07448e-21)
(1.01842 0.00348757 0)
(1.00992 -8.23263e-07 5.06275e-23)
(1.01508 0.00184528 0)
(1.01518 0.00189553 0)
(1.0096 1.1942e-05 6.56899e-23)
(1.01483 0.00210876 -5.90971e-24)
(1.0098 -3.11438e-06 -7.83592e-23)
(1.03218 0.00513276 0)
(0.959733 0.0283335 9.011e-23)
(1.0365 0.0266362 2.55581e-21)
(0.588105 0.0518558 2.15372e-20)
(1.01354 0.000356678 1.79598e-25)
(1.01342 0.000317635 -2.23914e-23)
(1.01446 0.000283353 0)
(0.870649 0.0265568 -4.38028e-22)
(1.02181 0.00266708 -2.38314e-22)
(1.01888 0.0052375 -5.32591e-22)
(0.74167 0.0323163 3.13855e-22)
(1.01886 0.0364803 -1.43804e-22)
(0.900278 -0.0196962 2.35758e-23)
(1.01423 0.00175859 0)
(1.03735 0.0268197 0)
(1.02246 0.00288922 1.07498e-21)
(1.02236 0.00296944 3.64874e-21)
(1.01419 0.00174832 0)
(1.01759 0.00377616 -1.22542e-22)
(0.792829 0.0237311 -4.36571e-23)
(0.924778 0.00268695 0)
(0.749528 0.0299359 -3.84435e-22)
(1.01134 -0.000911916 -1.89758e-22)
(1.03771 0.0263348 0)
(1.02127 0.00634724 0)
(1.02609 0.0166061 3.68593e-22)
(1.01098 -1.82136e-05 0)
(1.00967 3.18339e-05 -1.12588e-22)
(1.01826 0.00462257 7.27108e-24)
(1.01885 0.00513493 -4.80165e-22)
(0.92755 0.0274777 -4.86694e-23)
(1.01401 0.00026627 1.35339e-23)
(0.0855128 0.0451981 3.0754e-20)
(0.573463 0.0500822 -1.55837e-20)
(1.02147 0.00264011 1.64252e-21)
(1.01342 0.000156958 1.57598e-23)
(1.02768 0.00433191 -2.20281e-21)
(1.05119 0.0276621 0)
(1.01857 0.00476531 1.63019e-21)
(1.01332 0.000129871 -1.60716e-23)
(0.986644 0.0505436 0)
(0.721361 -0.00615221 0)
(1.01863 -5.66923e-05 6.42306e-22)
(0.466895 0.0284424 -6.50082e-23)
(0.876551 0.0226132 3.51889e-23)
(1.04597 0.0159736 -8.88678e-21)
(1.01537 0.00203851 2.60722e-22)
(1.02137 0.00269424 0)
(1.02231 0.00995569 -5.94535e-22)
(1.0185 0.0010758 1.12782e-21)
(1.01424 0.00177354 0)
(0.0685661 -0.0462642 0)
(1.01899 0.000212268 2.69724e-22)
(1.01841 0.00468436 -1.16249e-22)
(1.01752 0.00372818 1.24138e-22)
(0.924439 0.0051178 4.04058e-22)
(1.05498 0.061938 -5.03978e-21)
(1.0216 -0.00140773 -3.53251e-23)
(1.0741 0.0468888 -1.24134e-20)
(1.02759 0.00170536 7.08921e-22)
(0.682574 0.0333198 0)
(0.411329 -0.0829828 -9.48392e-21)
(1.02004 0.0077513 -1.70179e-24)
(0.75139 0.0265116 1.142e-22)
(1.01418 0.00175532 4.25726e-22)
(1.01471 0.00205444 0)
(0.786108 -0.00873513 -2.45339e-22)
(1.00997 3.29447e-05 0)
(1.02214 0.0142557 1.31819e-22)
(1.02213 0.00988929 -5.79334e-22)
(1.01272 0.000825308 -1.63244e-22)
(1.02171 0.00273226 2.73899e-22)
(1.0195 0.00743508 0)
(1.00976 6.0991e-05 1.91798e-24)
(0.946176 0.0309275 0)
(0.76067 0.0244183 1.89743e-23)
(1.01411 0.00141536 0)
(1.06718 0.0444642 9.83634e-21)
(1.02187 0.00804967 -1.83912e-21)
(1.01227 0.000910789 -1.21809e-22)
(0.0365563 0.0189945 1.9308e-21)
(1.02247 -0.00115125 2.96377e-23)
(1.01917 0.00208443 0)
(1.02204 0.00935305 0)
(1.01744 0.00332906 -1.0223e-22)
(1.01742 0.00316614 4.43778e-22)
(1.02381 0.00162108 1.16077e-21)
(1.02534 -0.00184184 1.37614e-21)
(0.780253 -0.007632 4.27735e-23)
(1.01263 0.000800911 7.36219e-23)
(1.02338 0.0125619 -4.63667e-22)
(1.04541 0.0153183 0)
(1.04953 0.0256687 0)
(0.111492 0.0508101 -1.45894e-20)
(1.01431 0.000357852 5.99538e-24)
(0.991515 0.011817 -2.33036e-22)
(-0.0880554 0.00431472 -2.16317e-20)
(0.938914 0.0514957 -2.19972e-24)
(0.646976 0.0549119 6.11816e-21)
(0.408871 0.0690393 0)
(1.01908 0.00749288 0)
(1.01349 0.00115946 1.1306e-22)
(1.05163 0.0267931 0)
(1.02767 0.0040956 3.05697e-21)
(1.02508 0.00749318 0)
(1.01029 3.423e-05 0)
(1.00906 5.1398e-05 0)
(1.07491 0.0360224 -2.79716e-21)
(1.02605 0.0158891 -6.96188e-22)
(1.02763 0.0137564 -1.13252e-21)
(1.02459 0.0296604 -1.98649e-21)
(1.02423 0.0632396 0)
(1.01238 0.00106917 2.49887e-22)
(0.753383 -0.0161446 -3.08469e-23)
(1.05778 0.049206 0)
(0.861815 0.0640553 -6.85111e-21)
(1.02306 0.0112864 0)
(0.937556 0.0555531 -4.43482e-22)
(1.01315 0.00365559 -7.83301e-23)
(1.06802 0.0166586 1.2224e-20)
(1.02589 0.0161973 -8.0282e-22)
(1.0179 0.00029874 6.35852e-23)
(1.03054 9.0998e-05 8.74505e-22)
(1.02427 0.00617749 1.95978e-21)
(1.01218 -6.47706e-06 0)
(1.02359 -0.000986878 1.09509e-24)
(1.02903 0.0164694 2.05878e-21)
(1.02476 -0.00201022 -1.04909e-21)
(1.00967 5.61982e-05 -4.04863e-25)
(1.0196 0.00601391 0)
(0.643587 0.0548204 5.22315e-21)
(0.354917 -0.0684825 -2.43488e-21)
(0.90687 0.0567496 8.76308e-22)
(1.01019 0.000161029 3.20062e-22)
(0.846115 0.023697 1.45956e-24)
(0.983862 -0.0126936 0)
(0.661094 0.0336796 0)
(1.07853 0.054022 0)
(1.02242 0.0141151 -3.13834e-23)
(1.01455 0.00164112 5.40277e-22)
(1.02325 0.0126689 9.19895e-23)
(1.04564 0.0148447 0)
(1.01836 0.0636166 0)
(1.0193 0.00206874 1.22509e-21)
(0.89723 -0.00343178 1.68007e-23)
(1.01409 0.00132025 2.16942e-24)
(1.01012 2.67883e-05 -1.60258e-24)
(1.01816 0.00102174 2.23536e-21)
(1.01378 0.00158616 0)
(1.02497 0.00730912 0)
(1.00973 2.24269e-05 -6.04799e-24)
(1.02717 0.00169504 1.30382e-21)
(1.01448 0.00157295 4.66417e-22)
(0.986576 -0.00135509 -5.92749e-23)
(1.05526 0.0612918 0)
(1.00991 2.2663e-06 3.37043e-23)
(1.01781 -0.000138667 -2.15345e-23)
(0.672437 0.0629861 0)
(1.05185 0.0239947 0)
(1.05199 0.0232444 0)
(1.01234 0.00104457 -2.34937e-22)
(1.01335 -5.93925e-05 -4.78925e-23)
(1.01856 0.00357622 0)
(0.896619 -0.00642359 4.87725e-23)
(1.01865 0.00531351 -7.79209e-24)
(1.01879 0.00485552 8.0629e-22)
(1.02312 0.00968592 1.21277e-23)
(1.01001 3.31548e-05 1.83015e-24)
(1.01408 0.0014294 -1.06717e-22)
(1.0443 0.0622194 0)
(0.478668 0.0399413 1.67471e-21)
(1.03481 -0.00145277 2.15475e-21)
(1.00375 -4.05883e-05 -2.39424e-22)
(1.01225 0.0010013 2.40497e-22)
(1.03475 0.0285052 0)
(0.0323464 0.0124571 -3.64691e-21)
(1.02082 0.0026434 -8.17232e-22)
(1.01052 0.000257212 9.6629e-23)
(0.750303 0.0659612 -9.452e-21)
(1.03893 0.0260778 6.88647e-22)
(0.704487 0.0387381 -4.40532e-22)
(1.03454 -0.00123534 1.44029e-21)
(1.01653 0.00311392 0)
(1.01049 0.00024573 -1.21828e-22)
(0.761112 0.0198803 2.89293e-23)
(1.01448 -0.000125731 -5.86212e-24)
(1.00907 0.000133206 0)
(1.03855 0.0266055 -1.43567e-21)
(0.710625 0.055642 0)
(1.07351 0.0472778 1.57035e-20)
(0.773686 0.0173363 2.2861e-23)
(1.04012 0.0257518 -7.81637e-22)
(1.01247 0.00110954 3.74246e-22)
(1.01221 0.000974682 -4.65667e-22)
(1.02495 0.0127754 -5.16665e-22)
(1.01388 0.00153515 0)
(1.06106 0.0492903 0)
(0.41864 0.0682855 -1.36817e-20)
(1.01426 -0.000123278 -5.57914e-24)
(1.01822 0.0326401 1.35685e-22)
(1.04965 0.0249353 0)
(0.385217 0.0656301 3.0738e-20)
(1.08452 0.0576511 0)
(1.01184 0.00332069 1.9388e-23)
(1.01023 0.000129199 6.33626e-23)
(1.02919 0.0178694 8.68626e-22)
(1.02632 0.0133344 -4.14826e-23)
(1.02341 0.0124029 -1.65185e-22)
(1.01808 0.000273649 -6.4793e-23)
(1.01918 0.00567765 0)
(1.01056 0.000112531 0)
(1.01939 0.00176927 -6.35438e-22)
(1.01754 -0.0001375 1.56065e-21)
(0.468466 0.0362428 2.10764e-21)
(1.03905 0.0139973 -6.09777e-21)
(1.0583 0.0483837 0)
(1.01575 0.000307492 -1.19979e-23)
(0.413887 -0.083722 0)
(1.00991 5.83957e-05 0)
(1.0127 -0.000240192 -4.47898e-23)
(0.476589 0.0365395 -1.2232e-21)
(1.02676 0.0136558 7.10714e-22)
(1.02614 0.0133899 -2.45798e-21)
(1.01593 0.000275403 1.26414e-23)
(1.02781 0.00242564 3.20568e-21)
(1.02064 0.00257219 2.46977e-21)
(1.02269 0.0144368 7.05904e-22)
(1.03587 0.00630901 2.42313e-21)
(1.03417 0.0281014 0)
(0.93648 0.00734082 -1.59308e-23)
(1.01626 0.00293855 -1.42135e-21)
(1.01813 0.000938884 1.20145e-21)
(1.00204 -0.0116227 -3.20481e-22)
(1.01585 0.00225493 0)
(1.03252 0.00502157 1.33274e-21)
(1.07753 0.0537075 6.86425e-21)
(1.01018 0.000124684 -1.99759e-22)
(1.01019 8.57887e-05 -2.00593e-26)
(1.00827 4.57074e-05 1.01669e-22)
(1.01183 0.00022931 0)
(1.03865 0.0141741 -2.20824e-21)
(1.04426 0.0375026 -4.33246e-21)
(1.01806 0.000175364 -3.07643e-24)
(1.0126 0.0500662 0)
(1.00348 -0.0141273 5.5728e-22)
(0.689453 0.0544337 -1.39681e-20)
(0.780901 -0.00165283 3.52467e-22)
(1.01004 2.36385e-05 2.97145e-24)
(1.01552 0.00229161 -3.07281e-22)
(1.056 0.0609891 0)
(1.01995 0.00154249 1.31788e-21)
(1.01642 0.00296648 -3.57341e-22)
(1.0124 0.0040139 8.41648e-23)
(1.01779 0.00372269 2.75157e-22)
(0.779238 -0.000942689 6.20561e-23)
(0.985675 0.0205434 -2.41732e-22)
(0.936063 0.00942018 -2.96185e-22)
(0.986134 -0.00889568 3.5921e-22)
(0.778717 0.00479542 8.33343e-23)
(1.05266 0.0119719 6.13348e-21)
(1.03477 0.00465589 -3.12007e-21)
(1.02382 0.0129306 0)
(1.01301 -0.000112641 -1.8165e-23)
(0.960896 0.00228321 1.39436e-22)
(0.780836 0.00596321 -7.24092e-23)
(1.02657 0.0134702 1.78893e-21)
(1.0247 0.00724544 0)
(1.01957 0.00184287 1.98429e-21)
(1.01349 0.00148992 3.61338e-22)
(1.02294 0.014318 -7.93358e-22)
(0.727227 -0.0115029 1.30136e-22)
(1.01629 0.00217506 -3.39206e-23)
(1.04292 0.00303024 0)
(1.01368 -0.000645413 -1.05113e-22)
(1.02295 0.00961265 -6.21165e-22)
(0.655945 0.0583888 -2.13552e-20)
(1.03631 0.00566642 0)
(1.05112 0.0261393 -2.87903e-21)
(1.0529 0.028941 8.65414e-21)
(1.01438 -0.000149648 2.26209e-22)
(1.03487 0.00508415 3.06737e-21)
(0.76752 0.0601415 0)
(1.01371 0.00413631 -4.14205e-23)
(1.05173 0.0282228 0)
(1.01311 -0.000129147 2.11717e-23)
(1.01646 0.00307054 0)
(1.03977 0.0263038 -7.8168e-22)
(1.01718 0.00349216 0)
(1.0343 0.00452767 0)
(0.712965 0.0655832 0)
(1.06813 0.0444228 -1.07719e-20)
(1.01621 0.00217012 3.89572e-23)
(1.05295 0.0230426 0)
(1.02427 0.00703716 1.07886e-21)
(1.013 -0.000168104 1.54877e-23)
(1.01308 0.000222651 7.82988e-23)
(0.40683 -0.0195711 -6.4744e-22)
(1.05404 0.0214598 0)
(0.0625895 -0.01514 1.23845e-20)
(0.822905 0.0662124 -9.28554e-21)
(1.01218 -6.45402e-06 2.07704e-23)
(1.01759 -0.000321259 2.26296e-23)
(1.01236 0.00100833 0)
(1.01241 0.00102295 0)
(1.01291 -0.000158256 1.72976e-23)
(0.391515 0.02741 -1.58172e-21)
(0.463422 0.0294672 9.19862e-23)
(1.01901 0.00452914 -3.96768e-22)
(1.01171 0.000180427 2.137e-24)
(0.424033 -0.0818474 0)
(1.01251 0.000794495 2.39515e-22)
(0.258227 0.0638327 0)
(1.01628 0.000309606 -2.19208e-23)
(0.404563 -0.0224638 -1.17775e-22)
(1.06616 0.0281076 -8.66318e-22)
(0.715455 -0.0212862 -6.68066e-23)
(1.019 0.00604868 1.58922e-23)
(1.00508 0.0506336 0)
(0.97363 0.0139628 -2.51429e-22)
(1.01838 0.0045859 0)
(1.01257 0.000976309 0)
(1.01541 0.00225295 5.76761e-22)
(1.00884 0.00873604 -1.77326e-23)
(1.02302 0.0125059 0)
(0.215129 0.0563828 0)
(1.03824 0.0228388 5.06239e-23)
(0.417903 0.0322792 6.5566e-22)
(0.232361 0.0564012 -3.95366e-21)
(1.02414 0.00686739 6.62244e-24)
(1.01366 0.0015414 0)
(1.0796 0.0377782 0)
(0.411057 0.0596961 2.00017e-21)
(0.973767 0.0161002 0)
(1.019 0.00617402 0)
(0.983134 -0.0100326 0)
(0.965038 0.0111253 0)
(1.01101 0.0338981 -1.07369e-22)
(0.82549 0.0133959 0)
(0.954038 0.00258146 1.14138e-22)
(1.06956 0.0404843 0)
(1.01966 0.00645586 3.64394e-22)
(0.881787 0.0264815 -2.94678e-23)
(0.787905 0.0247949 -1.62268e-23)
(1.01291 -0.000203347 -3.40536e-23)
(1.05308 0.0223959 3.02321e-21)
(1.01361 0.00152757 -2.43127e-22)
(1.01267 -0.000252839 3.88989e-23)
(1.01242 0.000770023 -1.53758e-22)
(0.835138 0.0212279 3.47873e-24)
(1.01902 0.00727732 -1.34874e-22)
(1.05757 0.039047 0)
(1.01004 -1.11129e-05 6.53021e-24)
(1.01294 0.00109912 3.40911e-22)
(1.01393 0.00024022 -1.32828e-23)
(1.01281 -0.000190558 1.62093e-23)
(1.01704 0.00293121 7.64559e-22)
(1.0173 0.003235 1.56406e-21)
(1.01254 -0.000233273 1.03581e-23)
(1.03278 0.0195959 -2.47476e-22)
(1.01635 0.00302544 -5.45958e-22)
(1.01624 0.00294424 5.34906e-22)
(1.01975 0.00147407 2.0386e-21)
(1.02286 0.0125768 -3.8459e-22)
(0.312935 -0.0711799 0)
(1.04346 0.00629233 -4.9981e-21)
(1.06602 0.0287259 0)
(0.563632 0.0632951 7.70526e-21)
(1.01319 -0.000112171 0)
(1.01648 0.00297766 0)
(0.582663 0.0645378 0)
(1.01918 0.00596362 0)
(1.0521 0.014088 2.61366e-21)
(0.425107 0.0683795 -8.41387e-21)
(0.319007 0.0680809 0)
(1.01846 0.00331046 -1.05407e-21)
(-0.0453 0.0347864 -2.43226e-20)
(0.816795 0.0262802 -6.01626e-22)
(1.02456 0.00707879 2.10286e-21)
(1.01212 0.000934681 -1.68804e-24)
(1.01192 0.000657153 0)
(1.01711 0.00343882 0)
(1.01845 0.00294194 4.67258e-24)
(1.01939 -0.0149344 -6.94607e-24)
(0.314162 0.0631679 1.11867e-20)
(1.06076 0.0145844 -7.75819e-21)
(0.976808 0.0164462 0)
(1.03187 0.0133559 2.73679e-21)
(1.06946 0.0542918 -5.13301e-21)
(1.00981 -2.9919e-06 -5.8112e-23)
(1.01292 0.00111745 0)
(0.260606 0.0568521 -6.13129e-21)
(1.01376 -1.13803e-05 6.55965e-25)
(1.02274 0.00168357 0)
(0.798341 0.0281723 5.64554e-22)
(1.02167 0.0340865 0)
(1.0616 0.0502507 0)
(1.02722 0.00218221 1.45775e-21)
(1.01068 4.34064e-05 -3.78586e-23)
(1.0191 0.00556865 3.30412e-22)
(0.872673 0.0201377 -5.36416e-23)
(1.0282 0.00244084 -2.86384e-21)
(1.01887 0.00509309 0)
(0.428964 -0.0679031 0)
(-0.0908391 0.00467724 1.48159e-20)
(1.01289 0.0010904 1.56129e-24)
(1.01188 0.000813978 -1.19241e-22)
(1.04547 0.00902367 3.49644e-23)
(1.01419 -6.35865e-05 9.5347e-24)
(0.90811 0.0159632 -1.55655e-23)
(1.01657 0.00302626 -6.52829e-22)
(0.837532 0.0176334 6.6201e-23)
(1.01 -4.11818e-06 0)
(0.937891 0.0648391 0)
(1.03166 0.0280743 0)
(1.02328 0.0130617 0)
(1.01631 0.00495013 0)
(1.01912 0.00431461 1.86644e-22)
(1.02857 0.00453408 6.78099e-24)
(1.02006 0.00149306 -1.38583e-21)
(-0.0721047 -0.00486724 2.29927e-22)
(1.0106 4.34419e-05 8.11852e-23)
(1.01979 0.00322358 -3.82186e-22)
(1.00967 2.12014e-05 1.3312e-23)
(1.02008 0.0368111 0)
(1.01013 5.35651e-05 0)
(0.836762 0.0624925 1.98914e-20)
(1.01051 0.00939379 -1.09356e-22)
(1.03794 0.013576 -6.07496e-21)
(1.01185 0.000786474 1.16259e-22)
(0.900911 -0.0141522 -9.38095e-23)
(1.02973 0.00683543 0)
(1.0226 0.0342238 -5.16042e-22)
(1.0644 0.0591519 1.14534e-21)
(0.87584 0.0248336 1.00479e-22)
(1.03397 -0.00010838 2.82163e-21)
(1.01363 0.00122053 1.29175e-22)
(1.02188 0.00928653 0)
(1.01727 0.00136753 4.94092e-22)
(1.07567 0.0281762 3.7047e-21)
(1.01218 0.000723459 -4.04664e-23)
(1.02947 0.0164667 -2.90028e-21)
(1.05901 0.0174651 3.7057e-21)
(0.73298 0.0378033 0)
(1.01195 0.000853041 -2.33308e-22)
(1.03807 0.0221803 6.02498e-21)
(1.01587 0.000368314 0)
(1.01941 0.00629283 1.63268e-21)
(1.01666 0.00506544 0)
(1.03161 0.0130499 4.57976e-24)
(1.02069 0.0119647 2.90356e-22)
(1.00966 2.61231e-05 8.90465e-24)
(1.03006 0.00680794 -2.32313e-21)
(1.00956 -5.1583e-06 -3.13135e-23)
(1.01742 0.00322133 0)
(1.01257 0.0010194 0)
(1.01376 8.17097e-05 -5.21721e-24)
(0.812904 0.0205312 1.52695e-21)
(1.01377 0.000310209 0)
(1.00968 2.19721e-05 1.57567e-25)
(1.01025 9.00563e-05 0)
(0.800384 -0.00950515 0)
(1.01446 0.00090633 2.93033e-24)
(0.781904 -0.0149464 0)
(1.01262 0.000154324 -4.77851e-22)
(1.01841 0.00232517 0)
(1.01455 -0.00296695 0)
(1.00986 5.16079e-05 0)
(0.828141 0.0165236 0)
(1.01969 0.00180292 -6.74009e-22)
(1.02276 0.0124244 2.76406e-22)
(1.02355 0.00154852 -1.97511e-21)
(1.01272 0.00112317 0)
(1.00975 5.39896e-05 -6.09435e-24)
(1.01327 -7.50844e-05 8.28676e-24)
(1.01401 -5.58384e-05 1.99015e-25)
(0.100821 -0.0294771 -3.02728e-21)
(1.02344 0.00583526 9.4524e-22)
(0.799999 -0.0121468 -2.26057e-22)
(1.05279 0.0138469 -2.74144e-21)
(1.06508 0.0298782 -7.93639e-21)
(1.01443 0.00182051 2.96453e-22)
(0.257158 0.0207323 -2.66842e-21)
(1.01958 0.00344702 9.43488e-23)
(1.01268 0.00109301 0)
(1.05337 0.0503989 0)
(1.01489 0.00207899 0)
(0.993616 -0.00740156 0)
(1.03239 0.0594022 -3.07532e-21)
(0.833901 0.0204421 -8.32597e-23)
(1.02152 0.00895441 1.63717e-22)
(1.0089 5.4826e-05 6.44378e-23)
(1.01483 0.00205487 0)
(1.01776 0.000144016 1.87381e-21)
(1.02063 0.0118 3.4171e-22)
(1.0133 -6.45216e-05 0)
(1.02024 0.0241615 0)
(1.00895 0.000180977 -3.88393e-22)
(1.01195 0.00717352 -3.03871e-22)
(1.01718 0.00138267 -1.48201e-21)
(1.01442 0.00182624 7.21497e-22)
(1.01439 0.00180732 -1.96236e-22)
(1.01821 0.00234208 -2.2216e-22)
(1.04357 0.00468862 5.76516e-21)
(1.02136 0.00890047 -1.35752e-22)
(1.00984 6.34086e-06 -5.99588e-23)
(1.04094 0.0259412 7.7838e-22)
(1.01813 0.00243286 0)
(0.943756 0.00914224 0)
(0.0763965 0.00961973 -1.25135e-21)
(1.02285 0.00936917 1.6501e-22)
(1.02348 0.00659416 -2.03268e-21)
(1.01829 0.00106278 -1.11375e-21)
(0.781578 0.0209487 8.00392e-24)
(0.0895376 0.0132088 -1.95343e-20)
(1.02352 0.0316785 1.66619e-22)
(1.05984 0.0172378 -4.9636e-21)
(1.01304 0.00115149 0)
(1.01237 0.000942479 1.74079e-22)
(1.04295 0.00459422 -4.07822e-21)
(1.01317 0.000113489 0)
(1.01794 0.00243367 -2.02498e-22)
(1.0165 0.00307625 6.63373e-22)
(0.849019 0.0177394 -1.43916e-21)
(0.653264 0.0362797 0)
(0.986964 0.000676292 -6.29268e-22)
(0.965435 0.0132029 0)
(1.01317 0.000253565 -9.9627e-22)
(1.04153 0.0503307 -7.25283e-23)
(1.06511 0.0292812 6.6068e-21)
(1.00983 4.25068e-05 0)
(1.01277 0.0010576 -2.22524e-22)
(1.01064 0.0104041 1.17447e-22)
(0.415152 0.0322305 -2.76927e-22)
(0.766322 -0.0258557 1.06021e-22)
(0.489397 0.0401409 7.5905e-22)
(0.628214 0.0618885 6.42043e-21)
(0.781358 0.0229985 1.25431e-22)
(1.01914 -0.0024327 -6.36143e-23)
(0.0650023 0.00623993 0)
(1.02345 0.0309334 -1.56692e-23)
(1.0599 0.014266 0)
(1.01302 -9.74507e-05 0)
(1.01019 2.11127e-05 1.69032e-24)
(1.07289 0.0380662 1.15787e-20)
(1.01268 0.001051 1.13371e-22)
(1.00936 0.00882125 0)
(0.629166 0.0633665 -2.32965e-21)
(-0.0504741 0.0324182 2.89911e-20)
(1.06034 0.0165645 4.32886e-21)
(1.06014 0.0159399 7.48893e-21)
(0.550577 -0.00583119 0)
(1.03048 0.0193875 6.37041e-22)
(1.01961 0.00616274 -7.53512e-22)
(0.886359 0.0256892 0)
(1.02128 0.00865233 0)
(1.05059 0.0529982 0)
(1.01623 0.00261092 7.43162e-22)
(0.839137 0.0165265 1.36699e-22)
(1.01583 0.00350504 1.2606e-22)
(1.01191 0.000216981 -1.50005e-25)
(0.526607 -0.0027483 -6.16305e-22)
(1.00947 -0.00916006 -8.74102e-23)
(0.98942 0.00476786 9.19371e-22)
(1.04519 0.00140237 -4.31229e-21)
(1.01928 0.00180565 6.10531e-22)
(0.843988 0.0233304 -1.20318e-22)
(1.01916 0.00371467 -1.20715e-23)
(1.01482 0.00208671 0)
(1.04565 0.00104172 2.10588e-21)
(0.881274 0.0271488 0)
(1.06858 0.0228786 -3.4269e-21)
(0.42001 0.0654432 1.54023e-21)
(0.967529 0.0643011 0)
(1.014 0.00157725 -2.05207e-23)
(1.01653 0.00298498 4.06234e-22)
(1.01891 0.00438997 -2.03657e-22)
(1.01177 0.0117137 5.15327e-23)
(1.02332 0.00642775 2.05635e-21)
(1.01837 0.00102278 0)
(-0.0780715 0.0183556 -1.02452e-20)
(0.651097 0.0658888 -2.28408e-21)
(1.06153 0.0615044 0)
(0.664166 0.0660948 7.41614e-21)
(0.453552 0.0602214 0)
(1.00978 1.21995e-05 1.49665e-23)
(1.01997 0.00137479 -7.70638e-22)
(1.01867 0.00217019 1.00186e-22)
(0.891689 0.018163 0)
(0.0640609 -0.0154366 -1.38734e-20)
(1.03559 0.00604191 8.22422e-23)
(1.01619 0.00257674 2.06595e-22)
(1.01471 0.00102103 -1.01827e-24)
(0.819053 -0.0208398 0)
(1.01906 0.00554161 2.95226e-22)
(1.01968 0.00630389 -1.10473e-21)
(0.771424 0.0663236 0)
(0.106008 -0.0269846 -9.48491e-22)
(1.01937 0.00652613 -3.18659e-22)
(1.0287 0.00916638 0)
(1.01967 0.0061373 8.12121e-22)
(1.01908 0.00436702 0)
(1.01264 -0.000208757 4.5043e-23)
(1.076 0.0542263 4.57417e-22)
(0.772101 -0.0146066 0)
(1.00941 3.82858e-05 2.26691e-23)
(0.106644 -0.0176898 0)
(1.01245 -1.95212e-05 0)
(0.82531 -0.0193638 -2.69758e-23)
(1.01477 0.00393909 -1.42394e-23)
(0.866369 0.0668552 4.836e-21)
(1.03095 0.0602608 0)
(1.01632 0.000912133 0)
(1.02345 -0.00161887 0)
(1.01028 0.00705311 -8.42035e-23)
(1.04981 0.0446584 0)
(1.01729 0.00306992 -4.32618e-22)
(0.873466 0.0282979 -2.86673e-23)
(1.01853 0.0104607 -2.96803e-22)
(1.02721 0.00167224 0)
(1.01344 -3.97617e-05 0)
(0.798817 0.0632068 0)
(1.02138 0.00652673 0)
(0.946282 0.0231895 -2.98388e-22)
(0.693437 0.0379677 -9.57158e-23)
(1.0142 0.000895599 7.21674e-23)
(1.02114 0.00857458 4.81144e-22)
(1.01802 0.00599609 -1.52757e-22)
(1.01716 0.0034545 0)
(1.04136 0.00318888 -4.80458e-21)
(1.00984 3.66479e-05 4.85906e-23)
(0.786729 -0.0136183 0)
(0.833605 0.0663109 0)
(1.03511 0.00711457 0)
(1.08279 0.0588321 8.02718e-21)
(0.396885 0.0669454 5.59598e-21)
(1.01329 -0.00354945 2.10047e-22)
(1.05573 0.00635376 0)
(1.01338 -1.28078e-05 -1.11316e-23)
(1.01659 0.00312246 -3.14792e-22)
(1.03013 0.0063704 -1.2641e-22)
(0.947801 0.0187131 3.15264e-22)
(1.01795 0.00625227 4.01627e-23)
(1.01066 0.000355529 -9.09564e-23)
(1.01908 0.00312435 0)
(1.01743 0.00499583 -2.28305e-23)
(1.01947 0.0039225 1.22617e-23)
(0.573133 0.049073 2.30495e-20)
(0.927163 0.00686041 -9.99836e-22)
(1.01065 1.17904e-05 7.62082e-23)
(1.01862 0.00372642 -6.5424e-23)
(0.392058 -0.0823945 1.87344e-20)
(0.805155 -0.0126295 1.95038e-22)
(0.123809 -0.0438225 0)
(1.01793 0.00549104 6.25756e-23)
(0.872056 0.0222947 2.93635e-23)
(1.02117 0.00749127 0)
(1.01979 0.00300843 -6.73359e-23)
(1.03083 0.00089632 -5.12103e-21)
(1.02386 0.00564776 0)
(1.02113 0.0629904 1.01311e-20)
(1.01292 -0.00107003 2.39132e-22)
(1.02009 0.00133211 -7.27252e-22)
(1.01287 0.00105004 -3.49879e-22)
(1.01005 3.28822e-05 3.67936e-23)
(1.01191 -1.71483e-05 -2.92718e-24)
(1.01811 0.0372834 6.24828e-22)
(1.01044 0.000203222 -7.02364e-23)
(1.01788 0.00570092 0)
(-0.0318253 -0.0372311 -4.36537e-21)
(1.07861 0.0394467 -7.68119e-21)
(0.79264 0.025648 -3.65719e-23)
(1.02444 -0.00191914 1.18685e-21)
(0.801592 0.0268037 -1.28464e-22)
(1.07209 0.0382784 -2.01834e-20)
(1.00257 0.033019 1.22936e-23)
(0.887128 0.0170292 -4.58784e-23)
(1.01865 0.00367796 6.27257e-22)
(0.350707 -0.0706378 -1.14845e-21)
(1.01587 0.000341111 0)
(0.805118 -0.0148635 3.23659e-23)
(1.01225 0.000707605 4.04832e-23)
(1.01217 0.0340866 3.21055e-22)
(1.01052 0.000201325 7.43835e-23)
(-0.0184016 0.0474383 -3.67132e-21)
(1.01209 -0.000167085 9.17001e-24)
(1.06352 0.0307438 5.93506e-21)
(1.019 0.00543561 -2.89469e-22)
(0.987956 0.0102609 -3.52035e-22)
(0.994414 0.0321584 1.10554e-22)
(1.01467 -0.00558122 0)
(0.305301 0.0302428 -2.84543e-21)
(0.259442 0.045144 0)
(1.01833 0.00431845 0)
(1.01488 0.00211251 0)
(1.01569 0.00220253 -2.34852e-22)
(1.01789 0.00383303 2.98697e-22)
(1.01361 0.00119652 -1.43528e-22)
(1.02899 0.00922665 0)
(1.00993 3.19426e-05 0)
(1.01197 -0.000153213 -1.95301e-23)
(1.01924 0.00195201 -2.474e-21)
(0.89853 -0.0208034 -1.2489e-23)
(1.00968 1.28961e-05 0)
(1.00961 1.34317e-05 3.55427e-23)
(1.00966 1.75336e-05 -9.11457e-24)
(1.02272 0.00617365 -1.42224e-21)
(0.844656 -0.00606603 0)
(1.01325 0.00119119 1.15735e-22)
(1.01726 -6.71074e-05 -7.32795e-23)
(0.662894 0.0354155 3.79085e-22)
(1.02502 0.0116942 1.08163e-21)
(1.01854 0.012934 -1.67087e-22)
(0.424275 -0.0589088 -1.15873e-22)
(1.01877 0.00390343 0)
(0.455256 0.0366129 3.4455e-23)
(0.904634 -0.0195423 -5.72804e-25)
(1.01745 0.00337904 -7.48975e-22)
(0.664189 0.0637242 -3.66183e-21)
(1.0165 0.0030152 0)
(1.02024 0.000419465 -9.86401e-23)
(0.36754 0.0310562 -1.46969e-21)
(1.04402 0.00655947 0)
(1.01777 -0.000805851 -1.10052e-22)
(1.02193 0.00818338 0)
(0.888027 0.0130509 1.7972e-23)
(1.01438 0.000310175 4.79449e-22)
(0.322293 -0.069596 1.32179e-20)
(0.810136 0.0337902 -1.32059e-23)
(1.0077 1.35571e-05 -4.9532e-23)
(1.01289 -0.000111626 0)
(1.01344 0.00726622 0)
(0.834793 -0.00502597 -3.2815e-22)
(1.01822 0.00424937 4.5429e-22)
(0.441144 -0.060768 2.92665e-22)
(1.02449 0.0304986 2.49635e-21)
(1.0142 0.00151611 5.63012e-22)
(1.01483 0.00206927 0)
(1.00802 4.79236e-05 0)
(1.02931 0.0205479 -1.37239e-22)
(1.03722 0.00548845 0)
(1.01073 0.000363075 -7.59764e-23)
(1.03061 0.000679762 3.7709e-21)
(1.01128 0.00772279 2.72037e-22)
(1.01196 0.00062286 0)
(1.01711 0.00284276 0)
(1.01334 -9.56054e-05 0)
(0.103522 -0.0119695 -3.6802e-21)
(0.873294 0.0212767 -3.50686e-23)
(1.01631 0.00035019 -6.98664e-22)
(1.01938 0.00342923 -1.51558e-21)
(1.05296 0.010216 -6.07203e-21)
(0.436283 -0.0226897 8.33336e-22)
(1.00508 0.00379799 0)
(1.04128 0.0253709 0)
(-0.0245852 0.0461182 -2.01387e-20)
(0.462524 -0.0693817 1.02683e-20)
(1.03821 0.0139862 2.57694e-21)
(1.06485 0.0615678 1.00518e-20)
(1.02268 0.00929078 -1.56149e-22)
(0.900283 -0.0152192 1.25102e-23)
(1.04247 0.0249762 1.71215e-21)
(1.03585 0.00589304 -4.30097e-21)
(1.01481 0.00347534 2.48103e-23)
(1.05296 0.0509795 2.98291e-21)
(1.01885 0.00498778 0)
(1.03439 0.00910279 -2.95183e-21)
(1.00026 0.0259817 -1.9498e-22)
(1.01634 0.00298323 -3.06474e-22)
(1.01047 0.000108641 0)
(0.699006 0.0658139 -2.11022e-20)
(1.07057 0.0403468 2.30069e-21)
(1.03136 0.00181665 3.20774e-23)
(1.00852 4.01069e-05 6.21152e-23)
(1.01843 8.83881e-05 -1.11278e-21)
(1.02407 0.00600718 0)
(1.01746 0.000236321 -8.63132e-22)
(1.01003 -4.44327e-05 -3.60689e-22)
(1.01008 3.38787e-05 8.04323e-23)
(0.905193 -0.0101422 3.24176e-23)
(0.792958 0.0161747 9.65021e-22)
(0.927068 0.0140351 0)
(1.0119 0.000638201 0)
(1.02256 0.00601983 9.61211e-22)
(0.884748 0.017378 9.34805e-24)
(1.01833 0.00322688 -2.80875e-24)
(1.01394 -1.2645e-05 1.05289e-23)
(0.990939 -0.000782032 0)
(1.01444 0.00375173 0)
(0.779012 0.01882 3.94594e-23)
(1.04604 0.00937082 0)
(1.07701 0.0545899 -7.88538e-21)
(1.00614 0.00635302 -5.59987e-22)
(1.01133 -2.09268e-05 -1.37235e-23)
(1.01254 -0.000246362 1.8462e-23)
(1.01733 -0.000615238 4.05694e-23)
(0.93549 0.00430553 0)
(0.425047 -0.0738843 3.19643e-21)
(0.77955 -0.0219122 0)
(1.01055 0.000112127 -4.64268e-25)
(0.107212 -0.0376043 4.26719e-21)
(1.03405 0.00878099 -4.32085e-21)
(1.01243 -0.000225872 4.93901e-25)
(-0.0129314 0.0106518 -6.33532e-21)
(1.01489 0.00209588 3.54683e-22)
(1.01868 0.0126638 3.53373e-22)
(0.737416 0.000884847 0)
(1.05663 0.0490404 5.30302e-21)
(1.01097 0.000139627 0)
(1.04765 0.0297833 0)
(1.01713 0.00200672 0)
(1.0158 0.00215794 1.03517e-22)
(1.03572 0.00499556 0)
(1.05168 0.0298033 3.03983e-21)
(1.03108 0.00160777 1.48484e-21)
(1.02225 0.0111483 0)
(1.01245 9.20251e-05 0)
(1.02499 0.0126143 -1.15642e-21)
(1.02949 0.000373822 -3.72924e-21)
(1.02104 0.00830707 -6.87296e-22)
(1.042 0.0509529 4.19612e-22)
(1.07667 0.0595893 0)
(0.610319 0.0587625 0)
(1.01266 0.000479594 6.59792e-23)
(1.00967 9.7223e-06 -3.55761e-23)
(1.02118 0.0358716 0)
(1.07574 0.0355386 2.91922e-21)
(0.525503 0.0655467 5.64146e-23)
(1.0159 0.00217133 2.52869e-22)
(1.02312 0.0119056 1.62724e-22)
(0.690681 0.0365977 1.07998e-22)
(1.01938 0.00334669 2.20807e-21)
(0.983233 0.0640502 -1.11297e-20)
(0.899354 -0.0125092 -4.39329e-23)
(0.779552 0.0161836 -2.59902e-23)
(1.0081 0.000126539 0)
(1.0107 0.000346792 1.34624e-22)
(0.350349 0.0208025 -1.09882e-22)
(1.02155 0.00601271 -1.5164e-21)
(1.01565 0.000336181 -6.68309e-22)
(0.81478 -0.0146979 3.18878e-23)
(1.01812 0.000134693 -7.19695e-25)
(1.01965 0.00152198 -6.5967e-22)
(1.04934 0.0438629 0)
(1.01272 0.00106871 0)
(1.01986 0.00249933 0)
(1.01541 0.00353343 -1.13121e-22)
(0.815388 -0.0162329 -1.11844e-22)
(-0.0297362 -0.0370143 0)
(0.712363 0.0660682 9.72313e-21)
(-0.00373019 0.0490876 0)
(1.01063 -1.05533e-05 3.45132e-23)
(1.01916 0.00584562 -6.41517e-22)
(1.01519 0.00380382 1.09749e-22)
(0.950734 -0.00702203 -4.38568e-22)
(0.433244 -0.0196989 -5.47778e-22)
(1.01425 0.000378579 -1.23455e-23)
(0.951451 0.00828326 0)
(1.0469 0.029651 7.84342e-21)
(1.02382 0.0127763 0)
(0.642421 0.0581929 1.84717e-20)
(1.01709 0.00197709 0)
(0.014061 0.0103285 2.7395e-21)
(0.849843 0.0646146 2.93876e-23)
(1.01613 0.00289341 4.91352e-22)
(1.01884 0.00461317 -5.06734e-22)
(1.00998 3.77253e-05 0)
(1.01522 0.00192971 -9.14707e-22)
(0.792361 -0.0180538 2.29354e-23)
(1.0138 0.00159321 1.59561e-22)
(1.0516 0.0112213 6.82825e-21)
(1.01288 0.0011233 0)
(1.01374 0.00157218 0)
(-0.0656988 -0.0100352 9.85422e-21)
(0.983157 -0.00137801 0)
(0.89233 0.0269481 -1.32354e-23)
(1.00982 2.55082e-05 -4.67103e-23)
(1.01231 -0.000216429 0)
(1.01279 0.00191653 2.80567e-23)
(1.01878 0.00384877 8.23698e-23)
(0.673682 0.0640564 6.56738e-21)
(1.01074 4.73694e-05 -5.90631e-22)
(1.0209 0.00823468 2.55097e-22)
(1.03423 0.0190816 2.07181e-21)
(1.02949 0.0151891 -1.03233e-22)
(1.03009 0.000109097 9.30493e-22)
(0.283637 0.0465609 0)
(0.874716 0.00574601 -9.04822e-24)
(1.05498 0.0496613 -1.1965e-24)
(1.02132 0.00627455 0)
(1.02323 0.0123409 4.7159e-23)
(1.01437 0.00180231 -8.01689e-22)
(1.0582 0.0465114 5.94543e-21)
(1.01351 1.76192e-05 3.65744e-23)
(0.476273 0.0036833 -1.10555e-21)
(1.0852 0.0563366 6.52147e-21)
(1.01377 0.00667368 -3.70042e-23)
(1.02633 0.0631999 0)
(0.872988 0.0064872 -4.44595e-24)
(1.02119 0.00269495 -4.6756e-22)
(1.03388 0.0193828 2.11974e-21)
(1.02011 0.01448 -2.51348e-22)
(1.06876 0.0380029 0)
(1.01686 0.00647564 0)
(1.02872 0.0145448 1.41155e-22)
(1.08329 0.0555584 -1.14821e-20)
(1.01291 0.00115046 0)
(0.498239 0.0428508 -1.63737e-21)
(1.04728 0.00753703 2.03417e-21)
(1.0197 0.00241936 -1.53441e-21)