/*--------------------------------*- C++ -*----------------------------------*\
| =========                 |                                                 |
| \\      /  F ield         | OpenFOAM: The Open Source CFD Toolbox           |
|  \\    /   O peration     | Version:  v2012                                 |
|   \\  /    A nd           | Website:  www.openfoam.com                      |
|    \\/     M anipulation  |                                                 |
\*---------------------------------------------------------------------------*/
FoamFile
{
    version     2.0;
    format      ascii;
    class       volScalarField;
    location    "50";
    object      k_0;
}
// * * * * * * * * * * * * * * * * * * * * * * * * * * * * * * * * * * * * * //

dimensions      [0 2 -2 0 0 0 0];


internalField   nonuniform List<scalar> 
34253
(
5.62878e-05
6.47996e-05
8.87316e-05
0.000337913
5.69935e-05
0.00241937
8.95139e-05
0.00543046
0.0399737
0.0071564
9.34932e-05
0.0120609
5.57697e-05
8.70589e-05
5.75416e-05
8.62795e-05
0.0195423
5.63947e-05
0.000497118
0.0457491
0.01428
8.8127e-05
0.00667604
0.013009
9.35389e-05
0.000119361
0.0133242
8.65432e-05
0.0139094
7.42049e-05
9.15107e-05
9.20192e-05
0.000119329
5.64365e-05
8.41248e-05
9.05586e-05
7.674e-05
5.81405e-05
7.18968e-05
7.1997e-05
5.80091e-05
6.77312e-05
5.84455e-05
8.67822e-05
0.00213184
9.32419e-05
0.0363674
5.66047e-05
5.66404e-05
7.25534e-05
0.0139379
8.2647e-05
7.40524e-05
0.00864985
0.000133645
0.000113912
6.52776e-05
9.3324e-05
8.295e-05
8.27599e-05
6.54969e-05
7.13264e-05
0.00843895
0.0029146
0.010171
8.93297e-05
9.30985e-05
7.8229e-05
8.6388e-05
5.69781e-05
6.43092e-05
7.51193e-05
7.38398e-05
0.0118587
5.77688e-05
0.0367838
0.0351548
8.22713e-05
5.62788e-05
8.51333e-05
9.68397e-05
7.4171e-05
5.6382e-05
0.00361049
0.0132576
8.61596e-05
0.029947
0.00338589
9.05705e-05
6.5011e-05
8.22108e-05
7.93944e-05
8.20256e-05
6.57817e-05
0.0403897
0.00425205
7.49168e-05
7.12352e-05
0.00272962
0.0050797
5.70162e-05
0.000181324
8.68862e-05
0.0125996
0.0348087
5.74635e-05
0.011048
6.59299e-05
6.76763e-05
0.01034
5.77498e-05
9.00663e-05
7.92421e-05
5.65287e-05
8.24935e-05
5.6874e-05
5.67167e-05
0.00978453
0.0118437
5.68825e-05
0.000145772
7.84955e-05
5.51894e-05
0.0441752
5.70098e-05
8.06781e-05
7.89032e-05
7.47137e-05
7.50788e-05
8.52225e-05
8.94292e-05
0.0101559
5.66869e-05
8.30955e-05
9.03267e-05
9.49298e-05
0.0378895
5.77675e-05
0.000647442
0.0322969
0.00768609
0.040641
0.0464741
7.64296e-05
5.59876e-05
9.6401e-05
8.52424e-05
8.17285e-05
5.84916e-05
6.42165e-05
0.000125668
8.57479e-05
8.41182e-05
0.000102902
0.0107632
6.04153e-05
0.0145638
0.000165536
0.0340361
9.31547e-05
0.015242
5.55534e-05
9.82837e-05
8.6009e-05
8.22483e-05
8.88631e-05
8.16227e-05
5.69142e-05
5.75752e-05
8.59965e-05
8.97768e-05
5.67789e-05
7.56621e-05
0.0401888
0.0416609
0.0181796
6.98433e-05
0.00439073
0.0111428
0.0121034
0.000355145
8.95856e-05
7.05845e-05
8.29488e-05
9.03482e-05
0.0115273
8.08963e-05
0.00037734
5.62298e-05
5.72743e-05
8.16905e-05
6.29027e-05
8.17678e-05
5.68621e-05
0.000196802
7.06777e-05
5.81599e-05
0.00315302
5.79878e-05
5.63747e-05
0.0408842
9.47277e-05
9.45581e-05
6.09737e-05
5.65805e-05
7.68441e-05
0.000349051
5.60463e-05
7.33792e-05
7.98765e-05
5.71069e-05
5.71482e-05
0.00736238
0.0304474
9.03519e-05
8.5903e-05
6.0799e-05
9.51428e-05
0.0429879
8.16957e-05
5.56645e-05
0.0356965
9.29538e-05
0.00622916
9.01894e-05
7.1883e-05
5.56925e-05
0.012127
5.70558e-05
6.2204e-05
9.32848e-05
0.0431171
0.000181931
0.0125606
9.28579e-05
6.07845e-05
6.14694e-05
8.29778e-05
5.97132e-05
0.000169653
0.0306623
5.65603e-05
0.000333172
9.46371e-05
0.0304041
0.00179177
5.78691e-05
5.6155e-05
8.67849e-05
8.35883e-05
8.76521e-05
8.1666e-05
7.48654e-05
5.96975e-05
8.16162e-05
8.75157e-05
0.0302436
8.82247e-05
0.000157344
5.82649e-05
0.0369428
5.83566e-05
5.74393e-05
0.0301921
8.38532e-05
8.35567e-05
5.81933e-05
8.65584e-05
8.16924e-05
8.86938e-05
8.77447e-05
9.47135e-05
0.00258022
7.14655e-05
8.18744e-05
0.000154812
5.98813e-05
8.69366e-05
0.000341584
5.61654e-05
5.62516e-05
6.46447e-05
6.48287e-05
8.81833e-05
0.000107454
8.28651e-05
0.00103797
0.000444576
0.0429455
0.00967871
5.65155e-05
6.68075e-05
0.00279886
8.27622e-05
7.23141e-05
5.71125e-05
6.88959e-05
0.00948899
0.011569
0.00243676
0.00103754
0.008863
9.1999e-05
8.78402e-05
8.46386e-05
5.66577e-05
0.00180356
0.00861637
8.37637e-05
8.14993e-05
8.17165e-05
6.24152e-05
8.81983e-05
0.0133216
6.53963e-05
9.03842e-05
8.38606e-05
7.97434e-05
0.0394128
8.8041e-05
9.57865e-05
9.81711e-05
8.32047e-05
8.7754e-05
0.0411392
5.51013e-05
9.72587e-05
5.67113e-05
7.17214e-05
9.32282e-05
7.07084e-05
8.77427e-05
0.0373241
0.000146402
6.51958e-05
9.46918e-05
8.12046e-05
5.6873e-05
6.60978e-05
0.0421311
9.44212e-05
0.0157676
0.0332113
5.70426e-05
5.6383e-05
6.19207e-05
6.20429e-05
5.69934e-05
0.0399686
0.0299587
7.32913e-05
5.72896e-05
0.036791
5.61511e-05
0.0327105
7.57857e-05
0.0426371
0.000103933
0.00985004
7.51098e-05
0.00167021
0.00182863
7.36633e-05
5.56103e-05
6.68518e-05
5.67539e-05
8.24988e-05
0.0330489
9.07145e-05
0.0403662
0.0528505
8.11877e-05
6.28172e-05
0.000138554
0.0524604
0.00166923
7.52287e-05
0.0106976
0.00212802
0.000668728
0.0112902
0.00195379
0.000132225
7.56816e-05
0.00322613
0.00810128
5.71416e-05
9.44928e-05
6.24874e-05
5.7219e-05
5.62178e-05
0.00455338
7.62959e-05
0.00011529
5.7874e-05
6.60514e-05
5.75166e-05
5.72839e-05
7.47303e-05
7.46356e-05
5.69273e-05
0.000126666
7.11593e-05
7.10805e-05
8.26829e-05
8.23746e-05
0.0344329
8.99327e-05
0.000104341
0.0351639
5.5368e-05
7.26042e-05
0.035894
7.49304e-05
9.21606e-05
0.0464069
0.0499447
7.71026e-05
0.0175667
0.0163909
8.14863e-05
6.13934e-05
5.69882e-05
7.05211e-05
5.74339e-05
0.00611607
0.0507582
9.48637e-05
0.00904502
8.55971e-05
0.000270946
5.83951e-05
5.61705e-05
0.053193
5.68368e-05
8.47095e-05
0.0161144
0.000117513
0.000177984
8.62016e-05
5.82226e-05
7.46766e-05
0.00331002
8.66609e-05
7.3837e-05
0.0326565
0.031465
5.60559e-05
6.1339e-05
9.01709e-05
5.69224e-05
5.69398e-05
7.27703e-05
0.00546413
5.79619e-05
0.0196685
9.5184e-05
8.69473e-05
6.9849e-05
7.27525e-05
8.53774e-05
8.29686e-05
0.033687
5.82503e-05
7.38182e-05
5.66483e-05
0.00013255
5.84149e-05
0.0358622
8.70688e-05
8.78515e-05
6.20871e-05
6.22728e-05
8.49771e-05
0.000116753
0.000419971
0.00339845
8.95711e-05
5.61989e-05
7.87876e-05
7.88371e-05
0.000111172
5.61202e-05
8.60294e-05
9.48784e-05
0.00602608
6.13859e-05
9.04519e-05
7.47971e-05
7.54304e-05
6.97775e-05
8.5479e-05
8.04833e-05
5.65856e-05
8.52221e-05
5.9313e-05
7.49912e-05
5.61377e-05
5.77582e-05
0.0179739
7.08427e-05
5.67269e-05
5.62498e-05
0.00641295
5.70088e-05
0.01653
7.46988e-05
6.3422e-05
0.00585299
5.79043e-05
0.00503104
8.19162e-05
8.98192e-05
8.53394e-05
6.38675e-05
5.70522e-05
5.66566e-05
5.66512e-05
0.0407233
8.10674e-05
0.00607598
9.23052e-05
0.000104717
6.50643e-05
0.0442321
7.37583e-05
6.39623e-05
0.000175423
6.6948e-05
0.00656168
0.00424816
0.00456722
7.83892e-05
6.1292e-05
6.69442e-05
8.38688e-05
8.02466e-05
5.58626e-05
0.000101642
7.29636e-05
8.40976e-05
7.86287e-05
6.54249e-05
6.4991e-05
6.3415e-05
9.01447e-05
7.82768e-05
5.78241e-05
9.31568e-05
6.31035e-05
0.00223667
0.0432035
7.95712e-05
8.06274e-05
8.17024e-05
0.00631429
0.0176049
0.000108129
9.51458e-05
5.61987e-05
5.54943e-05
9.00941e-05
7.27264e-05
6.31257e-05
7.19949e-05
0.0139262
0.00935144
0.000980291
0.00199002
6.66875e-05
0.000199342
0.000104401
5.88131e-05
5.60909e-05
8.77904e-05
0.0359668
0.0140117
0.0416237
0.0436692
0.00597346
0.00454867
0.0426183
0.000106885
9.45904e-05
5.59601e-05
5.65356e-05
0.000128167
5.61484e-05
8.91006e-05
0.0414277
0.0180537
9.50464e-05
9.49351e-05
0.0387976
0.000115607
7.56729e-05
0.0031466
7.80799e-05
0.000211046
6.74394e-05
0.00558116
6.18322e-05
5.74395e-05
0.037041
0.0077532
0.000828536
9.10551e-05
8.14061e-05
0.00427695
5.65889e-05
6.74445e-05
9.12825e-05
0.00324033
0.000101328
0.0483236
0.0160932
6.04298e-05
6.903e-05
7.26177e-05
8.68432e-05
8.06052e-05
8.20308e-05
0.0196294
0.037926
0.00596243
0.0377553
0.0506821
5.76914e-05
8.31168e-05
6.36968e-05
0.00307522
0.0150671
0.000680397
6.74039e-05
5.73744e-05
0.0180834
7.46061e-05
7.57407e-05
0.0347374
0.0407267
7.55564e-05
8.38778e-05
7.57539e-05
7.29651e-05
5.7467e-05
0.000340853
0.00794598
5.90872e-05
0.0406111
8.09419e-05
0.0183979
5.49845e-05
0.0284689
0.00488058
6.82097e-05
5.76058e-05
8.71124e-05
0.00013172
7.50235e-05
0.00346048
0.000110715
8.66643e-05
5.62678e-05
0.0373339
7.81602e-05
0.00232326
0.00860087
5.62507e-05
7.79831e-05
7.59426e-05
7.0459e-05
9.0031e-05
5.54832e-05
0.00786866
0.0322809
0.00042386
0.00362402
0.0485131
0.00499472
9.28385e-05
5.66996e-05
7.21665e-05
8.54228e-05
0.00224413
7.61471e-05
5.61538e-05
5.75521e-05
6.95847e-05
5.64352e-05
0.0354421
0.012735
5.85122e-05
7.67104e-05
0.0354529
0.00634921
0.041582
7.57939e-05
0.00338995
7.7701e-05
7.40728e-05
8.82258e-05
8.15876e-05
0.0133497
0.0047615
8.33322e-05
6.59842e-05
5.93896e-05
5.81328e-05
0.000139343
5.61662e-05
7.5915e-05
0.0154095
0.000144163
0.00789097
8.96331e-05
0.00731833
0.000128324
0.00217464
0.003178
7.68474e-05
0.0415165
7.44265e-05
0.00625369
5.67722e-05
0.000465809
5.63854e-05
0.0141938
5.68674e-05
0.000104768
7.43897e-05
0.000858546
0.00335235
0.00616658
0.0476413
0.0528539
7.4726e-05
6.7401e-05
5.92927e-05
6.89822e-05
5.6116e-05
8.4029e-05
5.80497e-05
5.67869e-05
8.10528e-05
9.71754e-05
5.71079e-05
5.77029e-05
5.69773e-05
8.00843e-05
0.00759074
5.61813e-05
6.75917e-05
0.0108976
8.2068e-05
8.17292e-05
0.0427343
7.66795e-05
0.0415985
7.45662e-05
7.46047e-05
0.037993
7.24825e-05
8.54628e-05
0.0455086
8.99858e-05
6.75294e-05
7.84313e-05
0.00312685
7.38435e-05
0.0341429
0.00583745
6.15482e-05
5.59544e-05
8.19004e-05
0.00751445
7.44763e-05
0.0420776
0.00010435
6.98422e-05
6.71717e-05
6.23407e-05
0.000110129
8.83588e-05
5.60993e-05
8.85107e-05
8.51444e-05
5.69596e-05
7.51328e-05
5.54486e-05
0.0408004
0.00337044
7.58773e-05
7.85903e-05
9.21259e-05
0.0434149
0.00638262
9.28052e-05
0.0145447
0.0323676
8.79e-05
0.00465579
7.94386e-05
6.23993e-05
9.27691e-05
8.78394e-05
5.96194e-05
0.000180417
7.36242e-05
8.66543e-05
0.00369526
7.16432e-05
5.60508e-05
0.0374746
0.000133229
8.80141e-05
5.99535e-05
8.55305e-05
8.1571e-05
8.3582e-05
7.08909e-05
5.60056e-05
0.00248088
0.0250626
0.00537177
5.69814e-05
8.00499e-05
0.00319617
7.70749e-05
5.70122e-05
5.80439e-05
5.93178e-05
0.00677606
9.02693e-05
0.000355517
0.00589288
5.8545e-05
5.66431e-05
6.7812e-05
0.0172459
0.0394986
0.0153296
5.60572e-05
0.0411516
8.65589e-05
5.65042e-05
0.0410877
6.71686e-05
8.14363e-05
0.0134867
0.000162823
5.61782e-05
9.75204e-05
7.67863e-05
6.14573e-05
8.80486e-05
9.85266e-05
8.81038e-05
9.5379e-05
7.38317e-05
8.283e-05
8.84439e-05
7.77301e-05
0.000211222
0.00458292
0.0368392
5.73069e-05
5.81518e-05
0.000124723
0.000125549
0.0347084
6.17039e-05
9.01472e-05
0.0100006
7.86294e-05
0.0190972
0.00249604
0.00730896
6.37727e-05
5.59675e-05
0.0377234
7.88139e-05
7.42774e-05
0.00692519
8.37094e-05
8.24476e-05
0.00012881
6.46703e-05
8.08177e-05
6.10561e-05
0.00708112
0.015479
0.0372943
0.0134019
5.7469e-05
7.48704e-05
5.9683e-05
0.00749243
0.0427301
5.68132e-05
0.0020668
9.7062e-05
8.42885e-05
0.0386638
7.70514e-05
0.0227375
0.0341869
7.06139e-05
7.55327e-05
5.94833e-05
7.19383e-05
0.00699879
6.38323e-05
9.18006e-05
6.5382e-05
6.35534e-05
0.0331768
0.0060965
0.00346193
5.55915e-05
5.63202e-05
5.64374e-05
7.67866e-05
0.0380184
6.93823e-05
7.76846e-05
8.8168e-05
0.000105875
8.87706e-05
0.0532296
0.00322689
0.000168724
7.83669e-05
8.83342e-05
6.52955e-05
0.000144999
5.71914e-05
0.0337501
0.00123399
5.74839e-05
0.0125858
0.00295667
8.18612e-05
8.82044e-05
8.36135e-05
0.000122951
5.62202e-05
0.000101521
0.000750019
6.52916e-05
0.0304775
9.06286e-05
8.07762e-05
0.00658091
8.17955e-05
0.0357807
0.000198029
5.63123e-05
8.20532e-05
0.0145847
8.25754e-05
8.47132e-05
0.0336577
8.47772e-05
7.77443e-05
5.88423e-05
5.82564e-05
6.78633e-05
0.000128659
5.89333e-05
7.37073e-05
7.95389e-05
0.00705506
5.6927e-05
9.55981e-05
0.018645
9.06266e-05
8.04605e-05
0.000105536
0.00312222
0.00341647
5.97766e-05
5.75343e-05
5.74868e-05
7.9367e-05
0.0382895
7.50434e-05
7.69298e-05
7.73571e-05
8.81455e-05
7.76519e-05
0.0350941
8.84832e-05
5.58805e-05
5.55518e-05
8.67915e-05
6.76816e-05
9.19833e-05
5.95699e-05
0.000121397
8.10934e-05
9.48213e-05
0.000123397
5.59632e-05
9.83794e-05
8.059e-05
0.0112789
8.71626e-05
5.74784e-05
5.60753e-05
5.93745e-05
0.000468987
5.66506e-05
8.67254e-05
0.0030151
7.35365e-05
5.57834e-05
8.19939e-05
5.58856e-05
8.72462e-05
6.60031e-05
5.85037e-05
7.82386e-05
7.78682e-05
0.0377967
6.80511e-05
0.000237892
6.32088e-05
0.0100788
0.00519354
6.94533e-05
5.97445e-05
0.0407497
0.000100107
0.000422493
8.78405e-05
8.47468e-05
0.00012864
5.56827e-05
8.23256e-05
8.59355e-05
9.80671e-05
0.0413753
5.63749e-05
6.20771e-05
7.92076e-05
0.00494829
9.0483e-05
0.0129825
6.91044e-05
5.677e-05
7.94615e-05
7.47899e-05
5.84845e-05
5.68286e-05
6.60434e-05
5.72434e-05
5.92322e-05
5.83193e-05
6.3681e-05
5.69857e-05
0.0202088
5.72464e-05
8.54467e-05
5.70403e-05
0.000118092
5.84799e-05
0.00666771
0.0243424
5.57423e-05
8.18503e-05
6.88003e-05
5.76616e-05
8.89498e-05
0.000174885
0.00530012
5.70962e-05
8.68285e-05
0.0129482
0.00238231
9.16543e-05
0.00416635
0.000100414
9.05808e-05
0.00271685
5.98076e-05
0.0381439
8.05178e-05
0.000183289
8.09119e-05
0.0237147
0.00415802
5.75503e-05
5.94001e-05
5.67882e-05
0.00705368
8.36447e-05
9.33308e-05
0.0373813
5.85909e-05
8.05516e-05
6.16747e-05
0.0324172
7.13267e-05
6.12906e-05
0.0425138
5.56365e-05
8.52341e-05
0.0351523
0.000103224
0.00011347
0.00259098
0.0449278
7.00212e-05
7.03273e-05
8.51669e-05
7.01277e-05
0.0462365
5.90569e-05
7.3619e-05
0.000196474
5.63785e-05
7.32856e-05
9.37805e-05
0.000223169
0.0394131
5.54973e-05
8.88725e-05
8.48933e-05
0.000143893
5.63262e-05
0.0185716
7.3571e-05
0.0484271
7.27776e-05
0.0360718
9.48036e-05
0.00281545
8.46217e-05
9.36858e-05
0.0157765
5.51537e-05
8.59854e-05
5.60319e-05
5.68247e-05
0.000155673
0.00708369
8.09039e-05
8.35597e-05
0.000150913
8.54146e-05
9.53334e-05
0.000105322
0.00796818
9.72947e-05
0.000931756
5.59357e-05
0.0226168
0.00120361
0.0134071
0.000169933
0.0285534
9.20823e-05
7.47399e-05
0.000219224
0.00272073
0.000101257
0.00751462
6.46022e-05
6.68844e-05
0.00355624
9.40431e-05
6.35018e-05
0.0271521
6.08406e-05
0.0248592
6.08717e-05
8.72133e-05
5.81605e-05
5.71629e-05
6.85388e-05
0.0221627
7.48687e-05
9.03416e-05
5.60041e-05
5.66786e-05
8.04667e-05
6.15575e-05
5.55898e-05
8.47616e-05
7.19684e-05
0.000406588
5.77532e-05
8.38972e-05
8.44009e-05
5.82824e-05
7.08941e-05
5.84673e-05
8.44565e-05
8.02202e-05
5.65237e-05
9.69247e-05
0.00128283
9.90632e-05
7.42422e-05
8.10231e-05
6.41194e-05
8.72706e-05
0.000392662
7.54644e-05
7.8956e-05
0.0134884
5.56312e-05
0.00498369
5.93552e-05
8.80412e-05
9.50456e-05
9.40279e-05
8.5475e-05
0.000138137
0.021255
6.77718e-05
7.50328e-05
0.0144902
0.0137829
0.000112179
0.000113617
0.0149972
9.14222e-05
0.00753814
5.96283e-05
5.95826e-05
0.00354253
0.0308298
8.51529e-05
8.33657e-05
0.000204925
0.00597641
8.63335e-05
5.55244e-05
8.0606e-05
9.49273e-05
0.000106283
0.0478032
6.84308e-05
5.55619e-05
5.91501e-05
5.80371e-05
0.00322329
0.000104215
8.49909e-05
8.97775e-05
0.0482945
8.58428e-05
0.0327689
5.59136e-05
5.61102e-05
5.60894e-05
6.84593e-05
9.05411e-05
5.59953e-05
7.59454e-05
8.33957e-05
5.8037e-05
5.59681e-05
9.013e-05
7.45881e-05
0.000123868
0.00496943
8.90371e-05
0.0118463
5.60832e-05
8.0924e-05
5.7866e-05
5.80376e-05
8.76061e-05
7.53769e-05
5.71427e-05
5.62664e-05
0.0176082
8.27168e-05
0.00174768
0.0498954
0.000255406
9.34835e-05
0.0014986
0.00752282
6.07327e-05
8.70413e-05
0.00830061
8.23756e-05
0.00013975
0.0467554
7.88947e-05
7.83175e-05
5.8852e-05
8.87993e-05
6.58739e-05
0.0048402
9.43636e-05
8.16377e-05
7.40631e-05
5.53912e-05
7.02731e-05
8.22297e-05
7.51989e-05
5.66779e-05
8.20427e-05
0.00208013
0.0048767
8.42931e-05
0.0127857
0.0436629
6.15587e-05
0.0385764
0.00471901
0.0377063
6.77748e-05
0.00158393
0.000100856
7.43705e-05
8.4405e-05
7.73571e-05
8.05285e-05
0.0392261
0.00429864
6.76866e-05
0.0353323
6.545e-05
7.24331e-05
0.000109536
9.78555e-05
0.0023045
0.000146942
0.0107896
0.00133524
8.10917e-05
8.78217e-05
7.33893e-05
0.0043592
0.0382876
8.17088e-05
8.13919e-05
7.31869e-05
7.21893e-05
6.0763e-05
0.0130502
6.93655e-05
5.80959e-05
8.30124e-05
5.8612e-05
7.74123e-05
0.000110059
0.0392107
8.4547e-05
0.00280573
7.31615e-05
6.43293e-05
7.82534e-05
7.13697e-05
0.0213317
0.0138007
5.54904e-05
0.000114305
8.3077e-05
0.000116915
0.0397535
7.56746e-05
5.7518e-05
8.10438e-05
0.0387483
7.3347e-05
0.000207827
8.55396e-05
8.12596e-05
7.51754e-05
5.63188e-05
8.85099e-05
9.03072e-05
0.000193174
7.1853e-05
6.99452e-05
8.35297e-05
7.94983e-05
6.42389e-05
7.46663e-05
6.01686e-05
8.22677e-05
0.000923682
7.86097e-05
6.92928e-05
8.11405e-05
7.4387e-05
7.19284e-05
0.000115478
8.09708e-05
9.7614e-05
0.0344613
6.32001e-05
0.000134817
6.98559e-05
0.0427673
0.00101047
8.33106e-05
6.04628e-05
0.00377659
7.76096e-05
6.92448e-05
8.88882e-05
5.75075e-05
0.00781927
8.27759e-05
9.09804e-05
7.54962e-05
0.00699244
0.0088848
8.40841e-05
6.79557e-05
0.012006
5.73693e-05
6.05265e-05
0.00225503
9.21382e-05
7.44784e-05
0.00967624
7.29354e-05
5.6732e-05
0.04379
0.00436719
0.000126443
0.00271128
0.0030488
8.5889e-05
0.000343849
0.000265812
5.75545e-05
7.06165e-05
5.72325e-05
5.72488e-05
0.00188247
0.00626232
9.80768e-05
0.00597695
6.22913e-05
0.000116327
0.0451101
9.77784e-05
8.77215e-05
0.0086282
7.94739e-05
0.00017203
0.00211406
6.06649e-05
5.94063e-05
8.75015e-05
0.00571358
7.30869e-05
5.69784e-05
0.0121026
0.00144766
7.31338e-05
0.0379137
5.69465e-05
0.00011267
0.00318307
8.59048e-05
5.71985e-05
5.71764e-05
5.94111e-05
0.0157087
0.00225048
0.0192874
5.68502e-05
0.000124034
7.74703e-05
6.89241e-05
6.73027e-05
0.00800787
0.00657456
5.56188e-05
0.029257
0.0162167
6.38609e-05
0.000144309
0.0101696
0.0157741
9.60022e-05
0.0007886
0.00806677
8.53987e-05
0.0254746
0.00707929
8.40703e-05
5.62088e-05
8.85791e-05
0.00306592
8.61651e-05
7.26713e-05
8.84584e-05
0.0393678
0.0334724
0.0411527
0.00727687
0.00122199
0.0310459
8.3325e-05
0.000369736
7.49442e-05
0.0219128
0.0431478
0.0390053
8.70265e-05
0.0113834
4.43477e-05
5.55929e-05
0.00016715
7.9355e-05
5.61593e-05
5.77506e-05
7.51179e-05
0.0480641
5.85051e-05
0.000133012
0.0269805
8.24418e-05
8.21343e-05
8.4023e-05
0.00339214
0.0355312
0.0403496
9.08886e-05
7.51813e-05
7.29176e-05
5.76253e-05
8.14177e-05
7.86169e-05
0.0127377
0.0345573
7.54073e-05
6.0505e-05
7.54906e-05
0.000104848
8.92682e-05
0.0369163
5.80483e-05
0.000231942
9.4875e-05
7.56149e-05
0.00713296
5.69682e-05
9.6306e-05
0.000112334
8.69422e-05
0.000154223
8.70715e-05
5.75689e-05
0.0227787
6.01654e-05
8.2273e-05
7.3209e-05
0.0424971
0.000859576
0.00312774
7.31432e-05
7.74031e-05
5.74145e-05
0.000252091
9.1926e-05
0.0077868
7.59341e-05
0.00675797
0.00495973
9.9329e-05
5.77489e-05
8.63524e-05
0.000102039
0.000298282
9.46914e-05
0.0117315
0.00735839
0.0303079
8.77153e-05
8.19369e-05
6.05475e-05
5.75868e-05
0.00548458
0.038568
5.83686e-05
7.70955e-05
6.7292e-05
6.16451e-05
6.85316e-05
0.0330336
0.000114364
9.4086e-05
8.68965e-05
5.73294e-05
9.22201e-05
7.48303e-05
6.94958e-05
8.54529e-05
0.00794744
7.45178e-05
7.85565e-05
7.92322e-05
5.77271e-05
0.00294199
6.32448e-05
0.0100493
7.81156e-05
5.87326e-05
8.21432e-05
9.84349e-05
8.49872e-05
6.07809e-05
0.000100688
0.032953
0.0213733
9.87986e-05
0.0289462
0.0324154
8.86969e-05
8.17023e-05
0.00594715
5.68649e-05
6.81167e-05
6.04776e-05
0.00472472
5.68219e-05
5.88011e-05
0.0300869
6.84734e-05
0.038136
8.21756e-05
0.0303844
7.54028e-05
7.47313e-05
6.10463e-05
5.84963e-05
9.05444e-05
0.00224522
9.7598e-05
7.0777e-05
0.000101561
0.000105982
8.87049e-05
5.65603e-05
7.92822e-05
9.11062e-05
0.000138202
0.00213315
8.23136e-05
8.14192e-05
9.31323e-05
5.59224e-05
0.0346709
0.0362692
5.75063e-05
0.0377123
5.50391e-05
8.53808e-05
0.040557
0.0423629
0.00471793
0.000240263
6.98428e-05
0.00114394
0.000108476
0.0324906
0.00344748
8.10078e-05
5.74149e-05
0.0451301
8.89098e-05
7.10022e-05
0.00285234
0.0194434
6.15365e-05
7.70281e-05
7.48888e-05
0.00512652
0.0439478
8.49942e-05
0.0393531
5.47883e-05
0.00171847
0.0427206
0.00153818
0.00334254
0.0077018
7.80621e-05
0.000181059
7.85162e-05
8.92507e-05
8.38468e-05
7.04178e-05
8.54366e-05
7.77603e-05
0.0317522
8.97247e-05
5.81042e-05
0.00337356
5.61771e-05
5.62802e-05
0.000138107
8.06739e-05
5.51613e-05
5.75716e-05
8.98023e-05
0.00574158
8.84193e-05
0.0322632
5.66778e-05
0.000400655
0.0148234
5.61688e-05
6.97599e-05
6.84806e-05
5.72048e-05
0.0403911
5.52376e-05
7.48518e-05
6.89941e-05
5.74385e-05
7.9127e-05
8.05335e-05
8.13921e-05
0.0328073
7.09949e-05
0.00463586
8.08674e-05
8.14753e-05
8.61736e-05
5.65525e-05
6.91786e-05
6.55311e-05
5.88709e-05
5.86313e-05
0.0132238
0.000100689
0.0240056
0.00018838
0.0419411
9.01897e-05
5.69883e-05
0.00625212
0.0422216
6.8933e-05
7.99197e-05
5.78479e-05
0.0027617
0.000100176
0.00031139
8.35393e-05
6.24928e-05
7.52452e-05
5.74678e-05
0.00932083
0.000115149
0.0281867
6.79808e-05
0.00562123
9.01765e-05
0.037073
6.15145e-05
8.93354e-05
6.08395e-05
5.68441e-05
7.42203e-05
5.68475e-05
0.0405135
0.00010549
8.85326e-05
8.99456e-05
8.42127e-05
7.89051e-05
8.04447e-05
6.21946e-05
0.0400721
5.81398e-05
9.89234e-05
6.13755e-05
5.85887e-05
0.00549599
0.0475008
7.63649e-05
6.16472e-05
8.14093e-05
0.00116223
5.82819e-05
5.86582e-05
5.82142e-05
5.59727e-05
0.000170571
8.06228e-05
0.0316789
8.12445e-05
0.0275911
0.00033345
9.104e-05
5.67615e-05
0.000139512
8.3485e-05
0.00299144
8.88156e-05
8.50082e-05
5.74786e-05
5.64197e-05
0.0439215
8.28719e-05
6.06496e-05
0.00311813
6.17576e-05
0.00011
5.83023e-05
0.00402828
7.78861e-05
8.36068e-05
0.0327563
8.51574e-05
7.59197e-05
0.000113847
6.6795e-05
0.000125283
8.58798e-05
5.74829e-05
8.37671e-05
8.33768e-05
8.57489e-05
7.42243e-05
5.591e-05
0.00291859
6.58658e-05
5.92287e-05
2.40276e-05
5.53901e-05
0.0102881
0.00306939
7.58901e-05
8.92182e-05
7.2272e-05
2.82937e-05
5.58123e-05
5.67977e-05
0.003124
0.000135521
6.19275e-05
0.0321103
0.00376824
5.63885e-05
5.81464e-05
8.47951e-05
7.80948e-05
9.05903e-05
6.821e-05
6.84456e-05
0.0068499
0.00199686
0.00223567
0.00742781
6.2151e-05
6.49961e-05
5.79739e-05
8.60694e-05
5.80687e-05
0.00855498
6.57661e-05
5.79716e-05
7.05421e-05
9.98801e-05
0.000197721
7.21199e-05
8.50134e-05
0.00287324
0.000182341
6.22437e-05
9.81315e-05
0.000103415
0.00391753
6.46296e-05
0.016783
6.38607e-05
5.59337e-05
5.68616e-05
0.00218837
5.95397e-05
8.94732e-05
8.8794e-05
0.0438631
0.00639595
6.05767e-05
8.92854e-05
0.0422469
8.34617e-05
7.07912e-05
0.000231197
0.044873
0.000143237
5.8738e-05
0.00010684
5.85272e-05
8.88995e-05
0.00341815
5.79909e-05
7.73877e-05
0.0355942
7.99029e-05
0.00842286
6.39297e-05
7.62751e-05
0.0205032
9.56239e-05
0.000101689
7.86218e-05
0.0220751
5.6327e-05
7.56121e-05
8.25754e-05
5.88448e-05
0.000117422
0.000122571
0.00661643
0.000147913
0.0159915
0.00478711
7.06018e-05
9.04114e-05
0.00530502
0.0101441
7.79879e-05
5.83714e-05
0.000456707
0.0366653
5.7208e-05
6.79694e-05
0.00565481
0.00480599
7.73727e-05
6.13639e-05
0.000130053
0.0327879
0.03446
0.000117987
0.0339467
5.83314e-05
8.83223e-05
8.8609e-05
9.21299e-05
8.47429e-05
9.03809e-05
0.0001011
6.3816e-05
0.0437969
8.49733e-05
8.06936e-05
0.000161882
9.02855e-05
0.0078844
6.39285e-05
0.00328641
8.53863e-05
0.00601259
7.3124e-05
0.0232524
0.000147812
0.000111553
5.5241e-05
0.00397869
7.74172e-05
0.00390379
8.04003e-05
6.8749e-05
0.000114036
7.05272e-05
0.0440439
7.82228e-05
5.71978e-05
8.03536e-05
5.72419e-05
0.0231361
0.0490418
8.54923e-05
8.54748e-05
0.029538
9.18841e-05
5.86955e-05
9.43621e-05
7.4703e-05
9.44048e-05
0.00688397
8.51382e-05
0.00314059
9.81282e-05
0.00010122
0.00758047
7.22771e-05
0.0403616
0.0384768
0.000168378
0.0135468
5.73555e-05
6.56315e-05
0.0317022
0.0166064
5.81101e-05
0.0172888
6.60083e-05
8.58811e-05
8.52918e-05
0.0394765
7.15551e-05
7.29198e-05
8.12158e-05
8.41765e-05
8.45304e-05
7.22183e-05
0.00337053
8.24892e-05
0.000104336
0.0284569
5.86796e-05
7.13208e-05
0.0420206
0.000108097
5.87379e-05
5.73818e-05
8.03263e-05
8.15924e-05
5.633e-05
0.00178798
7.99913e-05
5.73267e-05
7.02152e-05
8.56567e-05
0.0145858
9.37922e-05
5.71582e-05
5.70307e-05
0.0436278
8.56636e-05
6.00992e-05
0.0295798
5.72994e-05
5.72507e-05
8.86421e-05
0.041481
5.89934e-05
0.00748591
8.10376e-05
6.12436e-05
7.17004e-05
5.60962e-05
6.07221e-05
8.4888e-05
0.000187856
0.0317067
7.25645e-05
7.86679e-05
5.66252e-05
5.63252e-05
0.0242293
0.0389146
5.68855e-05
7.10578e-05
5.6436e-05
0.0225449
6.83613e-05
0.0058155
0.0107283
0.0314758
0.00109766
8.93884e-05
0.0040313
5.52937e-05
5.83141e-05
6.57381e-05
6.40642e-05
7.88728e-05
0.023368
0.000352758
8.9959e-05
0.0294462
8.61168e-05
8.57081e-05
5.75639e-05
0.000234072
8.41053e-05
8.494e-05
7.98709e-05
8.45842e-05
9.61878e-05
8.68428e-05
5.73597e-05
0.026189
0.0455825
0.0260329
6.94259e-05
5.96781e-05
9.04321e-05
0.0273018
6.27928e-05
0.000100365
5.65266e-05
0.0001128
9.38874e-05
7.88304e-05
9.6292e-05
0.035353
7.10806e-05
0.022566
5.53897e-05
8.37659e-05
5.84042e-05
0.00463532
8.92079e-05
5.64607e-05
8.25142e-05
7.61988e-05
0.00243296
0.0300972
6.56797e-05
8.11247e-05
5.67079e-05
0.000111671
0.000141105
5.75615e-05
0.00281195
0.0428303
9.99281e-05
9.71274e-05
0.00337715
0.0340643
7.78561e-05
0.00687801
0.026989
5.76813e-05
0.037386
5.85126e-05
6.1648e-05
7.91995e-05
0.000530676
5.72573e-05
5.83304e-05
9.98145e-05
0.0409511
0.000101035
9.32617e-05
0.00330426
6.46528e-05
0.0153716
6.88627e-05
0.0364401
6.18598e-05
8.13201e-05
5.74219e-05
7.87923e-05
9.12441e-05
5.714e-05
8.32869e-05
7.72413e-05
8.99498e-05
6.88348e-05
5.64875e-05
0.00871507
0.0202419
0.00484104
5.584e-05
0.000121948
8.11274e-05
5.98609e-05
7.7753e-05
0.00315399
6.46633e-05
0.0298751
9.7952e-05
0.00667886
8.52187e-05
7.10833e-05
5.75068e-05
8.12644e-05
0.0078316
0.0324641
0.00614416
0.0128668
0.0482649
8.16079e-05
8.23642e-05
5.74462e-05
0.0437867
0.000140418
7.72604e-05
0.0380909
5.70893e-05
7.03112e-05
8.6014e-05
0.000108102
0.0355845
0.00530287
8.20805e-05
5.97341e-05
7.62596e-05
0.0157614
0.00746421
0.0188055
0.0219797
0.00011482
8.65788e-05
8.68798e-05
0.00795427
5.87052e-05
9.04408e-05
8.63536e-05
7.06563e-05
0.0450351
7.7322e-05
5.90357e-05
0.000118918
7.32353e-05
5.64587e-05
0.00012676
0.00743576
9.72828e-05
5.92491e-05
0.00871339
6.81627e-05
0.00010253
5.69189e-05
0.0297994
7.87871e-05
8.51379e-05
0.000181561
8.59142e-05
7.50378e-05
5.59038e-05
5.73744e-05
6.1257e-05
0.000134885
8.31637e-05
7.11383e-05
7.25891e-05
5.73617e-05
0.0373211
7.96286e-05
0.00772026
8.91608e-05
5.7742e-05
0.0112266
0.000118378
8.09351e-05
0.00406498
8.82564e-05
6.19419e-05
8.37441e-05
5.73139e-05
6.50707e-05
5.6519e-05
8.6785e-05
0.000363967
0.0132776
9.29387e-05
7.71304e-05
7.11394e-05
8.50381e-05
0.0295806
5.9681e-05
0.00484076
0.040626
0.00721233
5.76387e-05
9.58278e-05
6.051e-05
8.6096e-05
5.69468e-05
0.00891529
5.7365e-05
0.0526927
8.52685e-05
8.56591e-05
8.14366e-05
8.96818e-05
8.6781e-05
7.76931e-05
8.53511e-05
0.0170223
9.28537e-05
9.0635e-05
7.28689e-05
8.12969e-05
9.20531e-05
8.14345e-05
5.80191e-05
0.0038288
6.02211e-05
6.19857e-05
0.000213232
0.0384518
7.90248e-05
7.61739e-05
0.00572477
0.00533594
5.72474e-05
7.16692e-05
0.0342977
5.80765e-05
7.13991e-05
0.0162584
0.0278427
0.00599004
0.0314053
7.00414e-05
5.72416e-05
6.16978e-05
5.88227e-05
0.012549
0.0293093
5.52484e-05
9.74529e-05
7.61708e-05
5.98028e-05
8.10633e-05
0.000133566
0.000170085
8.22293e-05
0.000263603
7.76992e-05
0.0267892
5.81187e-05
5.80552e-05
0.00722021
0.00628309
7.96762e-05
5.96386e-05
5.74346e-05
7.99469e-05
0.00778181
5.80984e-05
8.16167e-05
0.0407113
0.0461125
0.00370178
5.79549e-05
7.65466e-05
0.00901914
0.00432969
8.54516e-05
5.93301e-05
6.41733e-05
8.42917e-05
7.70049e-05
8.32518e-05
0.0023725
8.19768e-05
0.00190543
8.17773e-05
8.08408e-05
0.0341562
5.69754e-05
7.77558e-05
0.000234642
0.00563141
9.97218e-05
0.0397892
7.92552e-05
0.0129529
0.00239181
0.00311728
0.0019448
0.000120724
8.69723e-05
6.84755e-05
5.87891e-05
8.9957e-05
0.000104598
8.20177e-05
7.44416e-05
5.78194e-05
0.000180546
0.000147068
0.00561323
0.00410034
8.23421e-05
5.61251e-05
6.81396e-05
7.53513e-05
8.68005e-05
0.000387084
0.000155771
6.83768e-05
0.00911568
5.88966e-05
0.0375032
5.6853e-05
7.76334e-05
0.000137839
0.000713896
7.71245e-05
8.52401e-05
6.66886e-05
5.74061e-05
0.0152695
0.0321632
0.000103966
6.75379e-05
9.04554e-05
0.000116192
8.39365e-05
7.42139e-05
0.00759739
0.0411821
0.0199762
0.000101497
0.0309398
0.00575221
8.96772e-05
8.44789e-05
5.65883e-05
0.0472969
0.0229577
0.0273682
9.07508e-05
5.68682e-05
0.0403941
0.0302104
0.0506422
9.24393e-05
5.49906e-05
8.30755e-05
8.49178e-05
7.68179e-05
8.67144e-05
7.45592e-05
6.83567e-05
0.000159733
0.000695529
5.97275e-05
0.01618
9.03398e-05
5.82938e-05
5.80338e-05
0.0369321
8.79138e-05
8.34705e-05
0.00359001
0.0221359
0.0531571
5.72221e-05
0.0323543
8.97568e-05
5.55107e-05
5.67632e-05
6.12596e-05
5.9409e-05
7.95934e-05
0.0301185
0.00301371
0.0381205
7.4624e-05
6.00738e-05
8.50785e-05
7.96976e-05
0.0298398
5.75787e-05
8.65955e-05
9.5492e-05
0.00289389
6.68895e-05
5.80591e-05
0.00385503
0.0316899
6.02956e-05
0.00017479
7.81983e-05
8.84754e-05
5.61943e-05
0.0216339
5.83111e-05
9.15959e-05
0.0281143
0.00538335
0.00224019
5.79085e-05
0.0170744
0.0459926
0.020313
0.0270319
5.91083e-05
5.80248e-05
0.00377485
7.03235e-05
8.38294e-05
6.02722e-05
0.0155247
7.10661e-05
5.61156e-05
0.00295594
0.00259084
7.7645e-05
7.29426e-05
0.000213865
5.69379e-05
5.83806e-05
8.85407e-05
7.01958e-05
0.000286653
7.78184e-05
0.00341958
7.26373e-05
5.68222e-05
8.19898e-05
0.000367863
0.00401555
0.000250074
7.76945e-05
0.00817002
0.0296522
9.16973e-05
5.81167e-05
7.8526e-05
9.99178e-05
8.5794e-05
7.35048e-05
5.74289e-05
0.000112436
5.95056e-05
8.44491e-05
0.000214342
6.99516e-05
7.16016e-05
0.0301442
0.00474246
5.82249e-05
5.52833e-05
5.74508e-05
0.00438509
5.95176e-05
0.0210249
5.10349e-05
0.0203632
0.00803219
9.56068e-05
5.88599e-05
7.14545e-05
5.82507e-05
5.9248e-05
5.87346e-05
0.0385651
5.77585e-05
0.0434998
0.000884944