/*--------------------------------*- C++ -*----------------------------------*\
| =========                 |                                                 |
| \\      /  F ield         | OpenFOAM: The Open Source CFD Toolbox           |
|  \\    /   O peration     | Version:  v2012                                 |
|   \\  /    A nd           | Website:  www.openfoam.com                      |
|    \\/     M anipulation  |                                                 |
\*---------------------------------------------------------------------------*/
FoamFile
{
    version     2.0;
    format      ascii;
    class       volVectorField;
    location    "50";
    object      U;
}
// * * * * * * * * * * * * * * * * * * * * * * * * * * * * * * * * * * * * * //

dimensions      [0 1 -1 0 0 0 0];


internalField   nonuniform List<vector> 
34253
(
(1.00934 0.00290325 -1.50113e-24)
(1.01208 0.00299633 -1.83599e-22)
(0.992637 0.0116565 4.58822e-22)
(1.02195 -0.0285828 -9.46231e-22)
(1.00158 0.00127135 3.40843e-25)
(0.982277 -0.00868152 -1.90315e-22)
(1.02454 -0.00115041 1.19904e-21)
(0.999847 0.0827687 0)
(0.0774541 -0.0250039 -4.64775e-21)
(0.988594 -0.0363684 3.14217e-22)
(1.03737 0.0311831 8.75474e-23)
(0.737146 -0.079929 0)
(1.00744 0.00216348 -2.44196e-23)
(1.02738 0.0212693 -5.92165e-22)
(1.0013 0.00241496 -8.36878e-25)
(1.01796 0.000228222 1.42021e-22)
(0.93124 0.0428273 1.54859e-21)
(1.00023 0.000754545 7.88021e-28)
(1.047 0.0682642 -4.72728e-22)
(0.252759 -0.0239469 2.19849e-21)
(0.94232 0.0645042 -4.77017e-21)
(1.03594 0.00643896 -8.25824e-22)
(0.995631 -0.0317547 -1.72184e-22)
(0.787251 -0.0442875 9.84164e-22)
(0.995146 -0.0109288 -1.28855e-21)
(1.06119 0.0389462 0)
(1.00744 0.00766553 0)
(1.0231 0.0191171 -4.00413e-22)
(0.79195 0.0833643 0)
(1.0163 0.00618476 -3.39545e-22)
(1.02272 0.00657434 -5.17505e-23)
(1.05287 0.0127659 -4.41045e-21)
(1.06061 0.0391726 -1.6112e-21)
(1.00019 0.000759926 3.39071e-26)
(1.02634 0.0155168 4.38922e-22)
(1.04616 0.018216 9.41646e-21)
(1.01671 0.00436225 0)
(1.00338 0.000960883 2.85409e-23)
(1.01294 0.00236596 0)
(1.01305 0.00243141 0)
(1.00346 0.000826253 3.92485e-23)
(1.01201 0.00288828 -4.53415e-24)
(1.00318 0.000810951 -4.63959e-23)
(1.03166 0.00642367 0)
(0.985803 -0.0085019 2.39535e-23)
(1.03761 0.0305866 2.7503e-21)
(0.588022 0.0671002 2.40785e-20)
(1.00475 0.00425682 5.35572e-25)
(1.00467 0.0041319 -1.53753e-23)
(1.01226 0.000311059 0)
(0.932651 0.0699258 4.23356e-21)
(1.02077 0.00350536 -2.43056e-22)
(1.01622 0.00667247 -3.97692e-22)
(0.822239 0.126875 -6.67202e-22)
(1.01891 0.0532158 -2.72659e-22)
(0.996512 0.000903908 4.52198e-24)
(1.01117 0.00250288 0)
(1.03863 0.0305681 0)
(1.02144 0.00377852 1.09871e-21)
(1.02132 0.00386546 3.72156e-21)
(1.01114 0.00247639 0)
(1.01498 0.00498645 -8.9969e-23)
(0.873607 0.0698235 -2.01951e-22)
(0.966277 0.0341102 0)
(0.823305 0.123193 1.0392e-21)
(0.99785 -0.00974248 -4.23229e-22)
(1.03891 0.0299526 0)
(1.01961 0.00777909 0)
(1.02347 0.0188745 3.6338e-22)
(1.00155 0.00124922 0)
(1.00675 -7.79818e-05 -7.67453e-23)
(1.01429 0.00502081 9.50582e-24)
(1.0162 0.00654148 -3.48158e-22)
(0.976472 0.0682706 -2.93644e-22)
(1.00129 0.00235055 2.4364e-24)
(0.100289 0.0969569 3.28648e-20)
(0.573823 0.0652171 -1.7447e-20)
(1.02039 0.00346149 1.6735e-21)
(1.0043 0.00399327 1.20071e-23)
(1.02691 0.00549939 -2.26991e-21)
(1.05264 0.0289698 0)
(1.01624 0.00607701 1.39215e-21)
(1.00419 0.00383567 -1.22448e-23)
(1.01286 0.0825568 0)
(0.796175 -0.04229 0)
(1.01784 0.000255104 6.70168e-22)
(0.49591 0.0973357 -3.23963e-23)
(0.947055 0.0131727 -4.58463e-23)
(1.04643 0.0176963 -9.22077e-21)
(1.01204 0.00298938 1.56481e-22)
(1.02028 0.00351999 0)
(1.02116 0.0121766 -5.53972e-22)
(1.01741 0.00150787 1.15085e-21)
(1.01122 0.00250614 0)
(0.0932095 -0.0316525 0)
(1.0415 0.00897005 4.3075e-22)
(1.01466 0.00521544 -4.51635e-24)
(1.0149 0.00493039 9.30287e-23)
(0.964703 0.0384201 3.51582e-22)
(1.0448 0.0619288 -4.30017e-21)
(1.00093 0.00416043 8.78268e-24)
(1.07243 0.0481131 -1.23439e-20)
(1.02699 0.0026534 7.35875e-22)
(0.805763 0.0968093 0)
(0.449091 -0.0756025 -1.18071e-20)
(1.00249 0.00816074 7.60172e-25)
(0.827723 0.104722 1.65321e-22)
(1.01118 0.00246969 3.11969e-22)
(1.0119 0.0028142 0)
(0.877742 -0.0109239 -1.66713e-21)
(1.00332 3.70422e-05 0)
(1.01743 0.0129044 7.0775e-23)
(1.02094 0.0121898 -5.35349e-22)
(1.00751 0.00257981 -9.93653e-23)
(1.02064 0.00357242 2.79355e-22)
(1.00263 0.00774169 0)
(1.00086 0.000425189 1.71836e-24)
(0.995507 0.076844 0)
(0.834975 0.0973244 1.28447e-22)
(1.00981 0.00228227 0)
(1.06618 0.0441446 9.73525e-21)
(1.02026 0.00985747 -1.73949e-21)
(1.00805 0.00151207 -7.44306e-23)
(0.0342155 0.0406479 1.78354e-21)
(1.00082 0.00412619 -6.60453e-24)
(1.01794 0.00271479 0)
(1.02065 0.0115273 0)
(1.01548 0.00421597 -9.65216e-23)
(1.01552 0.00400031 4.17464e-22)
(1.02302 0.00243408 1.19991e-21)
(1.02487 -0.00116517 1.44522e-21)
(0.872138 -0.00861355 5.91742e-22)
(1.00747 0.00252005 4.49613e-23)
(1.02559 0.0147994 -4.49297e-22)
(1.04581 0.017047 0)
(1.05085 0.0272235 0)
(0.127017 0.102443 -1.54766e-20)
(1.00133 0.00246596 9.26715e-25)
(1.0076 -0.00085852 -1.97397e-23)
(-0.0836587 0.0549954 -2.21517e-20)
(0.977016 0.0842984 2.84035e-21)
(0.646678 0.0667667 6.77915e-21)
(0.377351 0.0833347 0)
(1.01582 0.0100118 0)
(1.00861 0.00223911 6.26231e-23)
(1.05297 0.0281107 0)
(1.02692 0.00523513 3.15014e-21)
(1.02388 0.00894393 0)
(1.00411 0.000353851 0)
(1.00624 -6.00609e-05 0)
(1.07484 0.0370327 -2.84047e-21)
(1.02359 0.0178935 -6.85382e-22)
(1.0261 0.0157208 -1.14551e-21)
(1.02318 0.0388716 -2.41876e-21)
(1.00836 0.0640395 0)
(1.00912 0.00160803 1.77294e-22)
(0.739918 -0.0640159 1.56651e-23)
(1.05799 0.0454389 0)
(0.857625 0.0785694 -7.13585e-21)
(1.02206 0.00538377 0)
(0.96344 0.0565811 -1.03465e-21)
(1.00346 0.00539754 -1.55116e-23)
(1.06855 0.0177498 1.25666e-20)
(1.0233 0.0182636 -7.93502e-22)
(1.01669 0.000340683 6.43373e-23)
(1.03013 0.00102621 9.11243e-22)
(1.02309 0.00748691 1.97615e-21)
(1.00175 0.00169795 0)
(1.0007 0.0042485 -2.41269e-24)
(1.02745 0.0190715 2.11394e-21)
(1.02429 -0.00136349 -1.10266e-21)
(1.00089 0.000453331 -4.2669e-25)
(1.01733 0.00762791 0)
(0.642863 0.0678708 5.76745e-21)
(0.400758 -0.100971 -3.7535e-21)
(0.933108 0.057222 2.48763e-21)
(1.00639 0.00034964 2.26889e-22)
(0.908444 0.0611354 -5.12854e-24)
(0.982393 -0.0394509 0)
(0.774868 0.0997697 0)
(1.07573 0.0576102 0)
(1.01815 0.0127624 -1.95015e-23)
(1.01229 0.00211868 4.7905e-22)
(1.02551 0.0153133 9.06743e-23)
(1.04602 0.0165369 0)
(1.00193 0.0630823 0)
(1.01809 0.00270407 1.23805e-21)
(0.994261 0.000915758 -7.88292e-24)
(1.00934 0.00304892 3.18042e-24)
(1.00063 0.000297371 1.08877e-25)
(1.01704 0.00141365 2.27304e-21)
(1.01047 0.00233835 0)
(1.02378 0.00874196 0)
(1.00103 0.000472293 -2.58271e-24)
(1.02779 -0.0273114 2.15126e-21)
(1.01222 0.00203177 4.15687e-22)
(0.998836 0.00109029 1.31761e-24)
(1.045 0.0504803 0)
(1.00346 0.000983112 1.98111e-23)
(1.00118 0.00363952 4.95376e-24)
(0.647319 0.0440215 0)
(1.05295 0.0253953 0)
(1.05302 0.0246551 0)
(1.0091 0.00156258 -1.66686e-22)
(1.00388 0.00360551 -3.77027e-23)
(1.01686 0.00446832 0)
(0.994531 0.000756532 -6.92985e-24)
(0.999785 0.000994662 2.07192e-25)
(1.0161 0.00617024 5.45903e-22)
(1.02186 0.0115028 1.28259e-23)
(1.00062 0.000301317 -4.58883e-26)
(1.00987 0.00196636 -5.91313e-23)
(1.03052 0.0628716 0)
(0.530148 0.0869652 -2.19543e-22)
(1.0346 -0.000492364 2.24624e-21)
(1.00233 -5.943e-05 -1.61851e-22)
(1.00901 0.00150157 1.72435e-22)
(1.0361 0.0332142 0)
(0.0318474 0.0320303 -3.57241e-21)
(1.01968 0.00343552 -8.29946e-22)
(1.00553 0.00155317 5.99946e-23)
(0.728632 0.0613466 -6.25852e-21)
(1.04019 0.0293864 7.33468e-22)
(0.838072 0.126256 2.78422e-22)
(1.03431 -0.000270046 1.50073e-21)
(1.01418 0.00403131 0)
(1.00547 0.00153098 -7.58727e-23)
(0.840385 0.0767521 2.10214e-22)
(1.00179 0.00294731 -2.11901e-24)
(1.00614 6.34766e-05 0)
(1.03989 0.0300345 -1.53634e-21)
(0.710901 0.0636721 0)
(1.07165 0.0483964 1.56173e-20)
(0.850916 0.0667944 -6.60186e-22)
(1.04138 0.0287765 -8.28621e-22)
(1.00921 0.00166674 2.63059e-22)
(1.009 0.00145455 -3.34675e-22)
(1.02346 0.0140115 -4.99444e-22)
(1.00924 0.00100607 0)
(1.06005 0.0463454 0)
(0.422037 0.103682 -1.46758e-20)
(1.00185 0.00290509 -1.54617e-24)
(1.04034 0.0701365 4.74044e-22)
(1.05089 0.0264952 0)
(0.396155 0.103083 3.30759e-20)
(1.08576 0.0644039 0)
(1.00339 0.00529625 3.72651e-24)
(1.00464 0.00125337 3.99068e-23)
(1.02753 0.0208361 8.97565e-22)
(1.02469 0.0149932 -4.6704e-23)
(1.02253 0.00985196 -9.01063e-23)
(1.01684 0.000319036 -6.55596e-23)
(1.01668 0.00724336 0)
(1.00734 0.000175439 0)
(1.01825 0.00236772 -6.45911e-22)
(1.01682 -4.50303e-05 1.64434e-21)
(0.512051 0.090409 3.41557e-22)
(1.039 0.0159625 -6.33463e-21)
(1.05848 0.0450879 0)
(1.00127 0.00299518 -1.38708e-24)
(0.459857 -0.0931463 0)
(1.00579 0.00025051 0)
(1.00357 0.00323751 -2.66255e-23)
(0.520462 0.0938137 -5.09526e-22)
(1.02512 0.0154543 7.10131e-22)
(1.02447 0.0150306 -2.43213e-21)
(1.00129 0.00306821 1.46146e-24)
(1.02718 0.00343327 3.32116e-21)
(1.01949 0.00334717 2.50535e-21)
(1.01862 0.0136766 5.23646e-22)
(1.03555 0.00770222 2.51132e-21)
(1.03528 0.0328921 0)
(0.970782 0.0388578 -2.3012e-23)
(1.01388 0.0038148 -1.21143e-21)
(1.01702 0.00131357 1.22346e-21)
(0.988642 -0.0348098 -3.56254e-22)
(1.01194 0.00339878 0)
(1.03203 0.00630552 1.37998e-21)
(1.0745 0.0570061 6.75662e-21)
(1.00475 0.00121463 -1.25521e-22)
(1.00062 0.000326505 -8.91825e-27)
(1.00545 4.39287e-05 6.55884e-23)
(1.00885 0.000238773 0)
(1.03857 0.0161771 -2.2947e-21)
(1.0484 0.0389997 -4.65667e-21)
(1.017 0.000248916 -4.00847e-24)
(1.02926 0.0781908 0)
(0.990249 -0.0390859 6.85997e-22)
(0.689796 0.0625528 -1.54465e-20)
(0.874567 0.0111714 1.70962e-21)
(1.00097 0.000130231 1.10214e-24)
(1.01241 0.00324 -2.03522e-22)
(1.04614 0.0492814 0)
(1.01891 0.00214811 1.34615e-21)
(1.01416 0.00382063 -3.14813e-22)
(1.00337 0.00532953 1.87309e-23)
(1.0142 0.00554734 9.51229e-23)
(0.869505 0.0142221 4.44718e-22)
(1.02152 0.0172103 -9.19468e-22)
(0.968923 0.0409964 -1.17997e-22)
(1.00556 0.00515766 -1.96169e-23)
(0.870085 0.0330092 5.5054e-22)
(1.05311 0.013305 6.33749e-21)
(1.03442 0.00593299 -3.23477e-21)
(1.02261 0.0126333 0)
(1.00367 0.00336172 -1.26309e-23)
(0.99255 -0.00146805 -2.78691e-23)
(0.865013 0.0376658 -8.38297e-22)
(1.02495 0.0152208 1.78168e-21)
(1.02348 0.00867369 0)
(1.01844 0.00246465 2.01582e-21)
(1.01018 0.00220644 2.43972e-22)
(1.01924 0.0136274 -5.89062e-22)
(0.781619 -0.059567 -1.0124e-21)
(1.01286 0.00323126 -1.80053e-23)
(1.04294 0.0042349 0)
(1.00398 -0.0083802 -2.49855e-22)
(1.02167 0.0114699 -5.92365e-22)
(0.652198 0.0761111 -2.33525e-20)
(1.03602 0.0070146 0)
(1.05242 0.0275302 -2.9834e-21)
(1.05433 0.0300029 8.93372e-21)
(1.00565 -0.00703465 5.51488e-22)
(1.03451 0.0063897 3.18013e-21)
(0.766912 0.0708717 0)
(1.00346 0.00550289 -1.2068e-23)
(1.0532 0.0294538 0)
(1.00368 0.00339778 1.48173e-23)
(1.01408 0.00398034 0)
(1.04113 0.0294346 -8.32562e-22)
(1.01451 0.00465141 0)
(1.03392 0.00579166 0)
(0.689296 0.0611715 0)
(1.06708 0.0442982 -1.07094e-20)
(1.01278 0.00321783 2.06789e-23)
(1.05394 0.0243869 0)
(1.02302 0.00844491 1.08271e-21)
(1.00363 0.00340786 1.10147e-23)
(1.01024 0.000279868 6.33856e-23)
(0.398415 -0.0476819 -1.47055e-21)
(1.0549 0.0227738 0)
(0.0742773 -0.0185166 1.44551e-20)
(0.808558 0.0783635 -8.1845e-21)
(1.0017 0.00163514 7.49311e-24)
(1.0013 0.00362988 -5.21617e-24)
(1.00926 0.00146711 0)
(1.00932 0.0014841 0)
(1.00363 0.00340043 1.18618e-23)
(0.40702 -0.0133972 -4.33516e-21)
(0.493731 0.0957829 4.59055e-23)
(1.01629 0.0055626 -1.86947e-22)
(1.00047 0.00059907 4.78419e-25)
(0.470105 -0.0933265 0)
(1.00755 0.00242108 1.45351e-22)
(0.281723 0.108469 0)
(1.01453 0.00037971 -2.11443e-23)
(0.397225 -0.053828 -2.20347e-22)
(1.0667 0.0289119 -8.85409e-22)
(0.734511 -0.0780463 5.06573e-22)
(1.01592 0.00773816 1.03527e-23)
(1.02691 0.0801009 0)
(0.988273 0.0353689 -2.90478e-23)
(1.01599 0.00587249 0)
(1.00822 0.00160711 0)
(1.01232 0.00318254 3.91613e-22)
(0.999446 0.000645646 1.64523e-25)
(1.02484 0.015396 0)
(0.240662 0.102688 0)
(1.03882 0.0258735 5.37375e-23)
(0.436279 -0.00473204 1.68068e-21)
(0.205216 0.0662141 -3.00286e-21)
(1.02289 0.00825682 7.42852e-24)
(1.01036 0.00227457 0)
(1.07954 0.0391421 0)
(0.372399 0.0504377 1.25078e-21)
(0.987203 0.0341615 0)
(1.01587 0.00792414 0)
(0.984365 -0.0306084 0)
(0.985296 0.0367144 0)
(1.03716 0.0788865 -4.3483e-22)
(0.905327 0.0596725 0)
(0.989287 -0.0021878 -1.2186e-23)
(1.0691 0.0408576 0)
(1.01724 0.00825072 3.06019e-22)
(0.952331 -0.0162023 4.87367e-23)
(0.872002 0.0705069 -1.90058e-22)
(1.00361 0.00344221 -2.17999e-23)
(1.05402 0.0237528 3.12319e-21)
(1.01029 0.00226217 -1.61506e-22)
(1.00348 0.00305427 2.68285e-23)
(1.0075 0.00235211 -9.32623e-23)
(0.900576 0.0647575 -2.94711e-25)
(1.01571 0.00965859 -8.93398e-23)
(1.05883 0.0384496 0)
(1.0033 0.00102073 3.56449e-24)
(1.01019 0.00150675 2.72582e-22)
(1.00123 0.00226969 -2.47934e-24)
(1.00364 0.00343885 1.02307e-23)
(1.01512 0.00371479 7.17711e-22)
(1.01534 0.00409979 1.45626e-21)
(1.00342 0.00295113 4.12086e-24)
(1.05351 0.0312969 -7.16273e-22)
(1.01389 0.00394929 -4.55482e-22)
(1.01378 0.00384297 4.46259e-22)
(1.01871 0.0020586 2.08426e-21)
(1.02463 0.0158262 -3.78906e-22)
(0.313978 -0.0360704 0)
(1.04351 0.00763243 -5.18006e-21)
(1.06655 0.0294968 0)
(0.546059 0.0905182 7.72428e-21)
(1.002 0.00241416 0)
(1.01426 0.00382742 0)
(0.564656 0.0908781 0)
(1.01644 0.00763398 0)
(1.05261 0.0154713 2.70004e-21)
(0.392105 0.0799873 -6.23022e-21)
(0.290175 0.0842536 0)
(1.01682 0.00414249 -1.02297e-21)
(-0.0430045 0.0387661 -2.35168e-20)
(0.890689 0.0603282 5.26034e-21)
(1.02334 0.00848901 2.11682e-21)
(1.00891 0.00139638 -2.01006e-24)
(1.007 0.00194258 0)
(1.01442 0.00459451 0)
(0.999886 0.00094952 -1.21508e-25)
(1.00255 -0.0314478 2.37181e-22)
(0.284713 0.077625 8.49008e-21)
(1.06132 0.0157487 -7.9901e-21)
(1.0054 0.0484573 0)
(1.03103 0.0154735 2.82379e-21)
(1.0644 0.0538037 -4.86359e-21)
(1.00326 0.000852778 -3.27613e-23)
(1.00874 0.00157728 0)
(0.230266 0.0629403 -4.5586e-21)
(1.00168 0.00259265 1.22372e-25)
(1.02188 0.0024553 0)
(0.880241 0.0646438 -6.04075e-21)
(1.02139 0.0471927 0)
(1.06013 0.0471893 0)
(1.02656 0.00315328 1.51131e-21)
(1.00424 0.0018451 -2.34245e-23)
(1.01659 0.00710417 2.67794e-22)
(0.943654 0.0246423 1.57287e-22)
(1.02759 0.00345838 -2.96678e-21)
(1.01611 0.00644697 0)
(0.435322 -0.0398743 0)
(-0.086709 0.0542034 1.51e-20)
(1.00866 0.00157399 1.38318e-24)
(1.00868 0.00122312 -8.64159e-23)
(1.04564 0.0104532 3.59604e-23)
(1.00179 0.00283248 3.66214e-24)
(0.999042 0.000277798 -1.73183e-24)
(1.01437 0.00388707 -5.81501e-22)
(0.905699 0.0482224 1.13663e-22)
(1.00331 0.000980437 0)
(0.932993 0.0417757 0)
(1.03223 0.0337601 0)
(1.02126 0.0114789 0)
(1.00996 0.00752141 0)
(1.01659 0.0054048 9.20662e-23)
(1.02785 0.00573026 6.58294e-24)
(1.01904 0.00210265 -1.41904e-21)
(-0.0663654 0.046314 2.11471e-22)
(1.00427 0.00180969 5.01897e-23)
(1.01785 0.00309461 8.2941e-23)
(1.0009 0.000369241 5.56392e-24)
(1.02101 0.0527513 0)
(1.00594 0.000279678 0)
(0.832674 0.0773846 2.06487e-20)
(0.995762 0.0158784 -3.15941e-22)
(1.03778 0.0155591 -6.30854e-21)
(1.00868 0.00117466 8.51442e-23)
(0.997736 0.000326506 1.42662e-23)
(1.02897 0.00825112 0)
(1.02287 0.0468214 -7.26085e-22)
(1.05807 0.0532554 1.03845e-21)
(0.947744 0.00708176 -1.31034e-22)
(1.0337 0.000892603 2.93709e-21)
(1.00892 0.00233853 7.07986e-23)
(1.02044 0.011508 0)
(1.01589 0.00176 4.91828e-22)
(1.076 0.0292409 3.79107e-21)
(1.00733 0.00214642 -2.43248e-23)
(1.028 0.0190845 -2.97915e-21)
(1.05964 0.0186436 3.81734e-21)
(0.867091 0.124619 0)
(1.00875 0.00127949 -1.68568e-22)
(1.03855 0.0251662 6.35054e-21)
(1.01404 0.000448233 0)
(1.0168 0.0080738 1.29966e-21)
(1.01063 0.00781343 0)
(1.03075 0.0151261 3.64659e-24)
(1.02009 0.0172478 2.46098e-22)
(1.00086 0.000323366 3.40111e-24)
(1.02933 0.00822391 -2.39391e-21)
(1.00338 0.000137305 -1.76925e-23)
(1.01551 0.00407329 0)
(1.00827 0.00141951 0)
(1.0015 0.00246103 -1.55327e-24)
(0.806775 0.0352792 2.87721e-21)
(1.01129 0.000331162 0)
(1.00099 0.000408995 2.27006e-25)
(1.00056 0.000289788 0)
(0.876696 -0.0629308 0)
(1.00003 0.000784176 -8.18222e-25)
(0.754785 -0.06785 0)
(1.0104 0.000177033 -4.24202e-22)
(1.01468 0.00393207 0)
(1.03294 -0.00104303 0)
(1.00156 0.000158206 0)
(0.894492 0.0624363 0)
(1.01857 0.00242518 -6.85177e-22)
(1.02045 0.0088834 8.91797e-23)
(1.02276 0.00234436 -2.04115e-21)
(1.00973 0.0015976 0)
(1.0008 0.000232948 -2.72095e-24)
(1.00381 0.00352282 7.54431e-24)
(1.00179 0.00276262 5.97658e-26)
(0.122027 -0.0480055 -3.52518e-21)
(1.02219 0.00710144 9.47219e-22)
(0.875447 -0.0711117 -8.67391e-22)
(1.0533 0.0152024 -2.8328e-21)
(1.06566 0.0305721 -8.10005e-21)
(1.01127 0.00262016 2.03406e-22)
(0.243048 -0.0299157 -2.23213e-21)
(1.01736 0.0034608 -1.94004e-23)
(1.00971 0.00155303 0)
(1.05564 0.0451244 0)
(1.01191 0.00290497 0)
(0.98901 -0.0131735 0)
(1.04176 0.0435004 -3.30738e-21)
(0.899468 0.0658192 -9.37327e-23)
(1.01992 0.0112218 1.4844e-22)
(1.00539 0.000154974 4.12746e-23)
(1.01187 0.00286679 0)
(1.01681 0.000238663 1.93514e-21)
(1.01976 0.016906 2.96691e-22)
(1.00181 0.00241877 0)
(1.01379 0.0319148 0)
(1.00565 0.00024139 -2.74956e-22)
(0.999078 0.010265 -9.7359e-22)
(1.01578 0.00177444 -1.47403e-21)
(1.01129 0.00261399 4.99851e-22)
(1.01122 0.00260606 -1.341e-22)
(1.01445 0.00390682 -7.22643e-23)
(1.04362 0.00595842 5.97571e-21)
(1.01969 0.0112174 -1.2308e-22)
(1.00352 0.000990188 -3.51647e-23)
(1.04229 0.0288076 8.25169e-22)
(1.0143 0.00400729 0)
(0.983913 -0.00564166 0)
(0.0736277 0.00822202 -1.14518e-21)
(1.02153 0.0112233 1.57397e-22)
(1.02217 0.00795771 -2.02813e-21)
(1.01717 0.00147264 -1.13306e-21)
(0.859844 0.0931298 3.2694e-22)
(0.082278 0.0170457 -1.81263e-20)
(1.02259 0.0425957 2.13966e-22)
(1.06045 0.018398 -5.11106e-21)
(1.00888 0.00165506 0)
(1.00808 0.00150835 1.05159e-22)
(1.04297 0.00586353 -4.22861e-21)
(1.01071 0.000157618 0)
(1.0141 0.00396247 -6.89009e-23)
(1.01417 0.00397665 5.7373e-22)
(0.838302 0.0264728 -2.70882e-21)
(0.759336 0.121552 0)
(1.00651 0.00202075 1.98081e-23)
(0.984141 0.0370036 0)
(1.01037 0.000306246 -8.15544e-22)
(1.05326 0.0473863 -8.49116e-23)
(1.06569 0.0300108 6.74305e-21)
(1.00431 0.000188517 0)
(1.00851 0.00151814 -1.31633e-22)
(0.996238 0.0183578 3.39336e-22)
(0.450319 0.0138458 2.34987e-21)
(0.765971 -0.126853 3.74368e-22)
(0.508834 0.00803756 2.38384e-21)
(0.600206 0.0422919 3.84244e-21)
(0.8604 0.0996702 -5.64482e-23)
(1.04148 0.00181009 -1.0763e-22)
(0.0643433 0.00788762 0)
(1.02202 0.0414499 -1.96108e-23)
(1.06045 0.0154458 0)
(1.00201 0.00231934 0)
(1.00106 9.94774e-05 7.11572e-25)
(1.07264 0.03891 1.17256e-20)
(1.00842 0.00145973 6.72731e-23)
(0.9927 0.0146703 0)
(0.600524 0.0555459 -1.40068e-21)
(-0.0482596 0.0373538 2.79591e-20)
(1.06094 0.0177246 4.45705e-21)
(1.06072 0.0171071 7.71399e-21)
(0.523063 0.042707 0)
(1.04861 0.031071 1.77128e-21)
(1.01728 0.00783974 -6.48702e-22)
(0.953274 -0.012387 0)
(1.01955 0.0109059 0)
(1.05456 0.0455239 0)
(1.01306 0.00370112 4.63879e-22)
(0.907786 0.0402032 2.9373e-22)
(1.01083 0.0022191 -4.78415e-24)
(1.00047 0.000588447 4.7732e-26)
(0.50427 0.0483552 -7.61629e-22)
(1.02032 -0.0205228 -1.93627e-22)
(1.00792 0.00133235 -1.85703e-23)
(1.04528 0.00254486 -4.47094e-21)
(1.01812 0.00240279 6.1828e-22)
(0.906761 0.0653991 -1.21888e-22)
(0.999813 0.000936189 5.44355e-25)
(1.01196 0.00287679 0)
(1.04576 0.00217153 2.18354e-21)
(0.951617 -0.0129861 0)
(1.0691 0.0238824 -3.51457e-21)
(0.384957 0.0725645 1.0854e-21)
(0.961567 0.0435159 0)
(1.00924 0.0011362 -1.09708e-23)
(1.01361 0.00411151 2.78718e-22)
(1.01633 0.0056023 -1.12697e-22)
(0.999402 0.0212065 1.63792e-22)
(1.022 0.00777161 2.05478e-21)
(1.01728 0.00143328 0)
(-0.0797968 0.0267837 -1.03812e-20)
(0.627338 0.0803344 -1.88146e-21)
(1.06481 0.0689617 0)
(0.641668 0.0814701 6.31067e-21)
(0.415515 0.0513037 0)
(1.00353 0.000974156 8.64632e-24)
(1.01897 0.00196443 -7.89457e-22)
(1.01506 0.00378353 2.81142e-23)
(0.957663 -0.021622 0)
(0.0765967 -0.0202414 -1.60753e-20)
(1.0606 -0.0124285 -2.26161e-22)
(1.01301 0.00365713 1.27366e-22)
(1.00005 0.000837337 3.91252e-25)
(0.797676 -0.111878 0)
(1.0165 0.00707182 2.31517e-22)
(1.01734 0.00802596 -9.38772e-22)
(0.751193 0.0674787 0)
(0.126736 -0.0482826 -1.07406e-21)
(1.01662 0.0084221 -2.44385e-22)
(1.02774 0.010792 0)
(1.01739 0.00778922 6.99157e-22)
(1.0165 0.0054238 0)
(1.00361 0.00329792 2.66708e-23)
(1.07242 0.0571646 4.47944e-22)
(0.829513 -0.0582174 0)
(1.00415 0.000158665 1.46657e-23)
(0.121007 -0.0411741 0)
(1.01042 2.18967e-05 0)
(0.796691 -0.104083 -5.80805e-23)
(1.00363 0.0057408 -4.50007e-24)
(0.850096 0.0654115 3.53651e-21)
(1.03841 0.0434915 0)
(1.01111 0.000334218 0)
(1.0008 0.00429419 0)
(0.994844 0.0101479 -2.18462e-22)
(1.05384 0.0425419 0)
(1.0154 0.00388138 -4.06967e-22)
(0.948288 0.000291222 4.74904e-23)
(1.008 0.00185621 -8.36032e-22)
(1.02659 0.00260802 0)
(1.00173 0.00246073 0)
(0.793194 0.0795751 0)
(1.01973 0.00798779 0)
(0.983572 -0.00974051 5.68866e-23)
(0.827582 0.122215 2.28e-22)
(1.00816 0.00373348 4.1789e-23)
(1.01934 0.0108583 4.31248e-22)
(1.01362 0.00750272 -3.55013e-23)
(1.01444 0.00463385 0)
(1.04133 0.00440185 -4.98518e-21)
(1.00393 0.00110959 2.96153e-23)
(0.824975 -0.0573453 0)
(0.81894 0.0770976 0)
(1.05977 -0.00813241 0)
(1.08845 0.0640731 8.34628e-21)
(0.363201 0.0769808 4.12978e-21)
(1.00658 0.00694498 4.5165e-22)
(1.05611 0.00753561 0)
(1.00164 0.00240192 -4.08831e-24)
(1.01427 0.00403134 -2.72355e-22)
(1.02943 0.00774639 -1.30376e-22)
(0.98489 -0.00833602 -4.65776e-23)
(1.01346 0.007964 3.99656e-24)
(1.00633 0.00143766 -5.76222e-23)
(0.999844 0.000936262 0)
(1.01229 0.00782689 6.01112e-24)
(0.999798 0.000940063 -5.55387e-25)
(0.574139 0.0621717 2.59428e-20)
(0.88558 -0.0138346 -1.98699e-21)
(1.00416 0.00153993 4.6234e-23)
(1.01689 0.00465602 -6.28368e-23)
(0.430699 -0.0763554 2.33946e-20)
(0.873665 -0.0755181 7.69804e-22)
(0.155457 -0.0609737 0)
(1.01345 0.00655005 -2.25197e-23)
(0.944537 0.0182195 -4.78049e-23)
(1.01936 0.00929967 0)
(1.01786 0.00257862 5.47136e-23)
(1.03041 0.00187896 -5.32785e-21)
(1.02267 0.00689277 0)
(1.01459 0.0729685 9.67363e-21)
(1.00673 0.0136479 4.50583e-22)
(1.0191 0.00192113 -7.46077e-22)
(1.01012 0.00143992 -2.79752e-22)
(1.00369 0.00023402 2.1858e-23)
(1.0016 0.0014359 -1.17757e-24)
(1.01832 0.0550738 1.23103e-21)
(1.00496 0.00151763 -4.51001e-23)
(1.0133 0.00693776 0)
(-0.0356303 -0.0431808 -4.87356e-21)
(1.0784 0.040824 -7.82234e-21)
(0.876106 0.0589423 -6.10475e-22)
(1.02395 -0.00128342 1.24746e-21)
(0.881282 0.0598589 -2.81976e-23)
(1.07182 0.0390395 -2.04148e-20)
(1.04469 0.0793439 4.47024e-23)
(0.958793 -0.0159032 8.04278e-23)
(1.01694 0.00459444 6.04891e-22)
(0.39735 -0.101414 -1.70198e-21)
(1.01402 0.00041866 0)
(0.87411 -0.0801601 1.01271e-22)
(1.00718 0.00226654 2.45403e-23)
(1.03056 0.079118 1.3694e-21)
(1.0049 0.00159244 4.76323e-23)
(-0.0163175 0.0454986 -3.53105e-21)
(1.0028 0.00222942 5.1238e-24)
(1.06416 0.0313633 6.05576e-21)
(1.01643 0.00693359 -2.19224e-22)
(1.0069 -0.000584121 1.00968e-23)
(1.04126 0.0789877 5.18111e-22)
(1.03205 -0.0084947 0)
(0.283836 -0.0172471 -2.24114e-21)
(0.22764 0.0319032 0)
(1.01623 0.00546948 0)
(1.01199 0.00291865 0)
(1.01179 0.00332395 -1.12705e-22)
(1.01429 0.00574349 8.61248e-23)
(1.00874 0.00236633 -7.94788e-23)
(1.02805 0.0108611 0)
(1.00332 6.04149e-05 0)
(1.00282 0.00217408 -1.08093e-23)
(1.01804 0.00256721 -2.50072e-21)
(0.996619 0.000634116 -5.66357e-24)
(1.00121 0.000553674 0)
(1.00355 0.000883861 2.12583e-23)
(1.00121 0.000540829 -3.84187e-24)
(1.02134 0.00749139 -1.41331e-21)
(0.915154 -0.00781033 0)
(1.00902 0.00178116 6.65858e-23)
(1.01317 -0.0009237 9.60052e-23)
(0.781789 0.10944 -9.72061e-22)
(1.02372 0.0131975 1.05919e-21)
(1.01602 0.0210407 -1.20681e-22)
(0.4526 -0.10264 -2.00449e-22)
(1.01702 0.00487496 0)
(0.472235 0.000946307 -2.73287e-23)
(0.997243 0.000775518 -4.93625e-24)
(1.01547 0.00428288 -6.95945e-22)
(0.649758 0.0859442 -3.55952e-21)
(1.01426 0.00387936 0)
(1.01942 0.000924521 -1.02402e-22)
(0.358013 -0.0204635 -1.79589e-21)
(1.04409 0.00790531 0)
(1.01432 -0.00196356 1.88857e-22)
(1.02033 0.0100186 0)
(0.959877 -0.0141233 -4.55018e-23)
(1.01222 0.00033731 4.36501e-22)
(0.320991 -0.0345193 1.4021e-20)
(0.91229 0.123632 9.66863e-24)
(1.00356 0.000104594 -2.89568e-23)
(1.0021 0.00228745 0)
(1.00279 0.010331 0)
(0.910157 -0.00289832 -8.00255e-22)
(1.0161 0.00538822 4.10332e-22)
(0.470962 -0.102714 4.94775e-22)
(1.02342 0.0401905 3.03954e-21)
(1.01185 0.00197138 4.90146e-22)
(1.01191 0.00287055 0)
(1.00487 0.000114266 0)
(1.046 0.0344109 -3.68349e-22)
(1.03698 0.00682637 0)
(1.00627 0.00151388 -4.79301e-23)
(1.03019 0.00164635 3.92333e-21)
(0.997461 0.0116704 8.37088e-22)
(1.00676 0.0022841 0)
(1.01526 0.00359421 0)
(1.00191 0.00247139 0)
(0.113248 -0.0344656 -3.78528e-21)
(0.944641 0.0184514 4.93987e-23)
(1.01459 0.000429919 -6.7598e-22)
(1.01789 0.0042864 -1.49691e-21)
(1.05337 0.0115091 -6.27371e-21)
(0.423835 -0.0472461 1.84429e-21)
(1.0183 0.0184541 0)
(1.04255 0.0281454 0)
(-0.0226572 0.0444959 -1.95144e-20)
(0.474755 -0.0439198 1.07892e-20)
(1.03808 0.0160005 2.67752e-21)
(1.06793 0.0685159 9.96031e-21)
(1.02134 0.0111829 -1.48046e-22)
(0.997655 0.000217134 -2.01664e-24)
(1.04371 0.0275204 1.80164e-21)
(1.03554 0.00725686 -4.45749e-21)
(1.00902 0.000356744 -9.74701e-24)
(1.05537 0.0452676 2.87841e-21)
(1.01611 0.00631488 0)
(1.03392 0.0107295 -3.05469e-21)
(1.01957 0.0801806 -2.36412e-22)
(1.01398 0.00386707 -2.64888e-22)
(1.00053 0.000280149 0)
(0.678443 0.0803218 -1.78696e-20)
(1.07006 0.0408585 2.31115e-21)
(1.03092 0.00286451 3.28227e-23)
(1.00239 0.000198461 2.89075e-23)
(1.0176 0.000382276 -1.15765e-21)
(1.02288 0.00729612 0)
(1.01632 0.000266404 -8.78445e-22)
(1.00736 3.82051e-07 -2.79485e-22)
(1.00381 0.00125439 4.90912e-23)
(0.9699 0.00163417 -1.98919e-24)
(0.766947 0.0217539 1.72362e-21)
(0.908502 0.015656 0)
(1.00691 0.00200875 0)
(1.02118 0.00731691 9.54746e-22)
(0.957383 -0.0173045 -3.13323e-23)
(1.01668 0.00404078 -3.704e-24)
(1.0017 0.00268073 3.57763e-24)
(0.998887 0.0011073 0)
(1.00813 0.000488606 0)
(0.868746 0.0818952 4.96554e-22)
(1.04624 0.0108031 0)
(1.07364 0.0578783 -7.75613e-21)
(1.01908 0.0269117 -6.35855e-22)
(1.00153 0.00141841 -6.1386e-24)
(1.0033 0.00279232 1.27327e-23)
(1.01346 -0.00188602 -1.23874e-22)
(0.889331 -0.0287203 0)
(0.470154 -0.102225 4.68919e-21)
(0.763447 -0.10675 0)
(1.00055 0.00030728 -4.16696e-26)
(0.134191 -0.0536947 4.93673e-21)
(1.03356 0.0103816 -4.46955e-21)
(1.00325 0.00270385 -3.1702e-25)
(-0.00977826 0.0468808 -6.31334e-21)
(1.01195 0.00291265 2.59776e-22)
(1.01612 0.0203633 2.32703e-22)
(0.83259 -0.00753599 0)
(1.05738 0.0451177 5.17243e-21)
(1.00067 0.000485134 0)
(1.04959 0.0314056 0)
(1.01555 0.00253765 0)
(1.01201 0.00327547 5.09502e-23)
(1.03541 0.00629904 0)
(1.05331 0.0309173 3.14118e-21)
(1.03064 0.00263891 1.54249e-21)
(1.01937 0.00452328 0)
(1.0101 0.000122024 0)
(1.02355 0.0139028 -1.12407e-21)
(1.02904 0.00129579 -3.88422e-21)
(1.01919 0.0105175 -6.16242e-22)
(1.05381 0.047254 4.71422e-22)
(1.08361 0.065225 0)
(0.603555 0.0811509 0)
(1.00347 0.00525857 8.31897e-24)
(1.00344 0.000861156 -2.12596e-23)
(1.02192 0.0505869 0)
(1.07571 0.0365942 2.97463e-21)
(0.506436 0.0936901 1.56991e-22)
(1.01212 0.00330039 1.22634e-22)
(1.02204 0.00764396 3.47148e-23)
(0.820994 0.116656 -2.56742e-22)
(1.01791 0.00418911 2.18227e-21)
(0.973757 0.0754354 -1.05257e-20)
(0.968027 0.0028303 -3.16245e-26)
(0.865823 0.0735735 -4.21443e-22)
(1.00558 4.25821e-05 0)
(1.00618 0.00154613 8.56881e-23)
(0.366024 -0.0216572 -1.0279e-21)
(1.02 0.00734297 -1.48194e-21)
(1.01375 0.000405273 -6.32883e-22)
(0.878611 -0.0792223 1.06366e-22)
(1.01704 0.000193849 -5.16483e-25)
(1.01858 0.00210638 -6.73929e-22)
(1.0535 0.0421306 0)
(1.00982 0.00150058 0)
(1.01864 0.00322628 0)
(1.01004 0.00134757 2.6492e-23)
(0.880865 -0.0792584 -4.4991e-22)
(-0.0333577 -0.0426048 0)
(0.69315 0.0812958 8.30248e-21)
(-0.00185938 0.0464022 0)
(1.00396 0.00134468 2.07754e-23)
(1.01648 0.00747324 -4.97095e-22)
(1.00937 0.00150694 -2.5703e-23)
(0.964394 -0.01844 -8.64666e-22)
(0.420141 -0.0406554 -1.03044e-21)
(1.00104 0.00243796 -8.92263e-25)
(0.987588 -0.00464283 0)
(1.04887 0.0313984 8.21365e-21)
(1.02288 0.012562 0)
(0.637476 0.0777162 2.01134e-20)
(1.01552 0.00249867 0)
(0.0169304 0.0319283 2.55164e-21)
(0.844282 0.0799244 8.55867e-23)
(1.01361 0.00380068 4.00735e-22)
(1.01683 0.00580035 -4.64657e-22)
(1.00371 0.000241423 0)
(1.01308 0.00247719 -8.26619e-22)
(0.823617 -0.0768434 5.2021e-22)
(1.01059 0.00231843 1.09257e-22)
(1.052 0.0125637 7.05906e-21)
(1.01005 0.00155874 0)
(1.01052 0.00229114 0)
(-0.0595281 0.0408114 1.02001e-20)
(0.985935 0.00585048 0)
(0.953808 0.0125246 -2.23058e-23)
(1.00381 0.00112393 -2.83486e-23)
(1.00307 0.00251981 0)
(1.00354 0.00527864 3.95741e-24)
(1.01705 0.00480559 7.91121e-23)
(0.658539 0.0854454 6.47668e-21)
(1.00809 7.8307e-05 -4.68593e-22)
(1.01899 0.0104655 2.25876e-22)
(1.0338 0.0220604 2.17016e-21)
(1.04678 0.0185565 -2.88517e-22)
(1.02966 0.00103401 9.69104e-22)
(0.249958 0.0308042 0)
(0.933067 0.0345332 1.11962e-22)
(1.05643 0.0451146 3.1233e-23)
(1.01969 0.00768217 0)
(1.02205 0.00928707 5.55238e-23)
(1.01123 0.00258679 -5.53626e-22)
(1.05873 0.0438947 5.83018e-21)
(1.00158 0.00242746 1.35796e-23)
(0.465603 0.0558709 -1.26162e-21)
(1.08592 0.0629209 6.53117e-21)
(1.00296 0.00553761 -1.01892e-23)
(1.0213 0.073012 0)
(0.932309 0.0367718 -4.61654e-23)
(1.02008 0.00350997 -4.75295e-22)
(1.03341 0.0224525 2.22657e-21)
(1.02037 0.0234708 -2.38115e-22)
(1.06864 0.0384139 0)
(0.999781 0.000878073 0)
(1.04438 0.016676 3.91604e-22)
(1.08295 0.0612806 -1.14432e-20)
(1.01006 0.0016011 0)
(0.556591 0.0865671 2.88789e-22)
(1.04749 0.00887368 2.10577e-21)
(1.01847 0.00312633 -1.54827e-21)
(0.883879 -0.0546552 2.83101e-22)
(1.0169 0.00125226 -1.7491e-21)
(0.586279 0.0811133 1.33602e-20)
(0.995554 0.000516637 -2.49407e-24)
(1.00305 0.00249001 1.19051e-23)
(1.00171 0.00523273 4.82685e-22)