/*--------------------------------*- C++ -*----------------------------------*\
| =========                 |                                                 |
| \\      /  F ield         | OpenFOAM: The Open Source CFD Toolbox           |
|  \\    /   O peration     | Version:  v2012                                 |
|   \\  /    A nd           | Website:  www.openfoam.com                      |
|    \\/     M anipulation  |                                                 |
\*---------------------------------------------------------------------------*/
FoamFile
{
    version     2.0;
    format      ascii;
    class       volScalarField;
    location    "200";
    object      ddt0(k);
}
// * * * * * * * * * * * * * * * * * * * * * * * * * * * * * * * * * * * * * //

dimensions      [0 2 -3 0 0 0 0];


internalField   nonuniform List<scalar> 
18758
(
-1.09351e-05
-0.00530703
1.24522e-08
0.00741743
-0.00322292
-0.00207574
0.000168236
2.15098e-10
8.90631e-06
-3.59454e-06
2.73679e-07
0.000782114
1.30756e-09
1.95064e-05
-6.10441e-08
7.64099e-05
-1.63861e-06
5.1792e-09
8.00575e-08
2.0348e-07
-0.000749648
1.49162e-09
0.00121893
-0.0053327
0.00100336
3.12374e-09
-0.000722324
-0.00359059
-0.00831769
-0.0065985
-4.80961e-06
0.000696774
4.50456e-10
1.10976e-07
1.87419e-05
3.6198e-09
1.31439e-10
-3.74525e-07
-5.81268e-08
-1.11045e-06
-2.95441e-07
-1.88802e-07
-4.12731e-08
-9.94026e-07
0.00878465
-1.70243e-08
0.0011263
7.30627e-07
-2.37247e-06
5.86833e-09
-4.62959e-05
0.0032772
4.27746e-09
1.76747e-07
-0.00343558
0.00623978
1.71895e-10
1.22631e-05
5.63466e-08
4.32443e-05
1.89646e-05
0.000197233
5.37471e-06
-1.22287e-07
3.44787e-09
-3.56257e-08
-1.04958e-06
5.77062e-10
2.78241e-07
0.0034456
0.000906158
1.27099e-08
7.09484e-09
-0.0044232
-3.42271e-08
4.40148e-08
3.08375e-05
-0.00265912
-2.79293e-08
0.000576549
0.00233405
0.00311623
-2.05781e-05
-0.00261869
-0.000165228
-2.47677e-08
0.000551853
7.32244e-06
2.53481e-05
8.21841e-08
-0.0024789
6.21043e-08
9.66424e-05
-3.05751e-07
0.00244913
-0.000623596
-0.00023491
-6.1193e-08
8.26205e-08
-0.00054945
-8.62684e-07
-0.00238415
-1.44653e-06
6.63183e-07
0.000415552
-0.010432
0.0112738
-0.00263035
-1.34119e-07
-1.45704e-07
-0.000820946
0.00133203
4.10679e-09
-7.23443e-08
-0.0085059
0.000455461
-0.000722751
9.96431e-08
0.000621961
0.00212421
-2.46598e-06
7.03596e-08
0.00121872
0.00024245
-0.000797286
-0.00267358
-0.00274267
-0.000462798
-0.000220894
5.43203e-08
-4.93312e-07
4.76519e-06
-0.00100017
5.61961e-07
-0.000302927
-6.2188e-08
-1.9697e-05
-8.26675e-07
6.13749e-08
9.19457e-07
5.98846e-06
-3.17535e-06
9.76964e-08
-0.00644371
-1.70789e-07
1.9071e-08
-0.00124739
0.00100991
-2.08374e-06
-0.0031111
0.00108261
0.0111563
-4.4148e-07
7.61274e-10
0.00141474
3.60521e-07
0.000667249
6.44701e-07
-5.82834e-08
2.57396e-09
-8.68519e-08
-3.51262e-05
-0.000969436
-1.20312e-07
1.50203e-05
-0.00673198
-4.26913e-08
0.00171656
0.000145512
-0.00274321
0.000245471
6.96894e-09
-0.00193906
-0.003563
1.35792e-07
-0.00443484
-0.00813335
2.86315e-07
-3.02408e-08
1.00801e-07
7.70998e-09
0.000114918
0.0100643
-2.94432e-08
-3.05289e-08
0.00271486
8.40403e-08
0.000443856
-2.41486e-08
1.11048e-07
-3.40291e-07
-1.58607e-06
-3.49678e-07
-1.08772e-06
4.76294e-07
1.52504e-05
-1.14795e-06
-0.000353438
3.7247e-09
-2.12241e-08
-2.58752e-07
1.8921e-07
1.65298e-07
7.25817e-07
5.04317e-10
7.85396e-08
-8.55973e-06
-1.27078e-09
-0.000564959
5.17951e-07
8.253e-09
-5.4119e-07
-2.23752e-08
2.03853e-07
-7.18971e-07
0.00223483
-2.39661e-06
0.000163699
-1.37917e-08
-0.00200756
1.11376e-08
-1.26243e-07
2.36433e-05
-0.00143661
1.63426e-05
-9.41798e-06
-1.60409e-06
3.55887e-08
2.25278e-08
-5.73946e-06
-7.42549e-10
5.3437e-06
0.00116881
-0.000119498
7.88058e-09
9.5621e-08
2.05654e-08
-1.28829e-08
0.0010882
5.75476e-07
1.12351e-07
0.000382651
0.0114206
3.04327e-07
-0.00306565
0.02109
6.79582e-05
4.30317e-09
0.00239881
-1.84206e-07
3.81445e-09
0.00267452
4.17587e-07
-7.17136e-08
-3.89951e-08
-2.92714e-06
0.00234905
8.34415e-05
7.7571e-07
-2.3123e-06
5.45083e-08
-4.14087e-06
-2.28697e-08
1.44517e-06
2.59098e-06
-5.59286e-05
0.000579219
-1.90288e-08
5.25579e-08
-1.52848e-06
-1.95514e-08
-1.76424e-07
-3.39416e-06
-0.00376075
-0.000496393
-1.35496e-08
-1.2231e-05
-0.00499626
0.000402914
-5.18831e-07
3.50448e-08
5.08674e-07
1.84169e-06
-1.13988e-08
-0.00400553
8.57582e-05
0.00991879
-0.000681604
0.0013393
-1.34458e-08
1.26394e-08
-1.82238e-06
0.0026989
-2.82095e-07
5.12872e-07
1.96305e-05
2.6916e-06
0.00208522
7.02402e-09
-0.00357445
-0.00254792
-1.66673e-08
0.00812558
-1.99874e-07
-1.46551e-07
2.27653e-06
9.33751e-06
4.21246e-08
4.74281e-09
0.000325815
0.00578357
4.88451e-08
0.000219163
0.00213061
0.000147212
-2.61435e-08
7.00777e-08
-0.011687
1.4575e-07
-3.31623e-08
-3.62652e-08
-3.70221e-07
0.000265476
9.35431e-06
1.19642e-06
-3.94549e-07
6.32832e-07
-7.79082e-07
8.62379e-08
1.25597e-09
-0.000114308
-1.79851e-06
-1.57443e-05
0.00674065
-2.87301e-07
-2.80744e-07
4.04807e-08
-6.56519e-05
0.00962303
3.14216e-08
3.36193e-09
2.82336e-08
2.21849e-07
5.5224e-07
0.000842926
6.55356e-08
3.93385e-08
-1.23434e-08
1.34023e-05
3.85759e-05
9.38027e-06
-2.78889e-05
1.79567e-07
-0.000663306
-1.38953e-05
-4.49941e-06
2.66097e-08
0.000635709
-0.0012441
0.00365646
-4.52806e-10
-1.04022e-06
0.000643395
-0.00272936
-1.69675e-06
-2.40757e-08
8.45678e-08
9.50819e-08
-1.8978e-07
-0.0100201
-0.00181853
6.09867e-07
1.25872e-06
0.000604086
4.30665e-08
-2.92404e-07
-3.93905e-08
-2.71933e-08
2.19799e-06
1.75749e-08
0.000235974
4.01479e-05
-1.26898e-07
3.33987e-08
-0.000450971
1.45541e-06
-2.6125e-05
3.94258e-08
1.73207e-06
-5.99006e-08
-4.74148e-08
5.69622e-08
-2.18817e-08
-0.0010439
-0.000478203
0.00173853
0.00135372
-4.84088e-09
4.63714e-05
0.000711868
-1.74772e-06
6.58202e-09
0.00663461
1.19204e-07
-1.4364e-07
7.45996e-09
6.04594e-06
5.95073e-08
-1.01421e-06
-1.63921e-05
0.00040316
-5.22868e-08
-0.0030804
-1.16138e-06
-2.70546e-08
4.09466e-08
3.97396e-08
6.03216e-09
1.03507e-06
4.07555e-06
6.8028e-07
-0.0146578
-3.04809e-06
-2.68544e-08
-0.000184925
0.00960888
0.0146781
0.000229289
-6.96326e-06
6.91576e-08
-1.3539e-08
5.19586e-08
1.64739e-08
-2.53267e-06
4.02243e-07
1.56793e-06
3.77553e-07
-3.362e-07
0.00476045
-6.89247e-06
6.19888e-08
-3.23257e-06
0.000116611
-7.31298e-08
-0.00128419
2.15581e-08
2.56994e-09
0.00180358
3.58221e-07
1.64957e-07
-0.00241946
2.67381e-05
-1.98021e-06
0.000248785
6.23359e-08
1.20509e-07
0.000127587
0.00077493
-9.96007e-08
-1.69159e-06
-1.2837e-05
0.00112842
1.51968e-05
2.69012e-05
2.40286e-08
8.8888e-06
3.52852e-08
-6.36704e-06
-2.10561e-07
0.000626064
3.11446e-07
0.00198882
1.41816e-06
5.48052e-06
-1.16898e-08
-0.00554963
1.45588e-09
-0.00113183
-3.82849e-08
-6.67588e-05
-2.83164e-08
0.0145327
-4.84325e-07
-5.5519e-09
6.94102e-08
5.45047e-09
0.0127032
-0.00137664
-0.00916769
4.17807e-06
-2.83651e-07
9.61884e-06
8.91236e-10
-2.26518e-09
0.00226718
6.91569e-08
-1.03597e-08
7.8164e-06
-2.4455e-10
-1.26555e-06
4.65666e-06
-1.08424e-08
5.2975e-08
-2.68799e-07
-2.91768e-07
-3.98699e-07
-0.00239887
6.23358e-07
-1.66751e-07
3.17876e-07
-1.3325e-08
0.000292622
6.79126e-08
-6.7856e-09
-0.00142066
0.000223834
2.49251e-06
0.0107196
-1.37045e-07
-2.69011e-08
2.16586e-05
-9.60481e-08
-0.000842375
-3.66995e-05
-1.25126e-08
-0.00189024
-0.000692221
-1.06379e-06
-2.02041e-08
-9.12969e-07
0.00614102
-4.03191e-07
-2.13448e-08
-6.99483e-08
2.0731e-08
1.40576e-08
-4.12464e-09
4.4233e-11
-0.000612961
-3.29562e-08
-0.00666412
-9.91779e-09
9.92114e-06
-0.00804478
-1.93523e-08
-2.99155e-08
4.30831e-08
-3.35153e-10
-7.45338e-07
-2.26247e-07
1.21789e-07
-6.96203e-06
-0.000260406
-3.27447e-09
0.00536214
-0.00301798
-1.77387e-07
5.47322e-06
0.00473008
-9.68328e-08
1.93494e-07
-6.86228e-07
0.000786094
8.78169e-08
2.37564e-06
-2.07743e-07
-0.00144955
-1.49853e-06
2.26719e-05
-9.27544e-06
0.000163645
9.35832e-08
3.86518e-08
1.65189e-06
-0.00128953
-2.8054e-07
-0.000249169
-3.15586e-08
0.0105551
-7.32686e-08
3.9553e-08
4.51974e-09
5.24729e-10
-0.00297466
0.0105025
2.52623e-08
0.000194456
-5.8311e-07
0.013424
-0.0014675
-0.00277507
-0.00442659
-8.59264e-08
-0.00371513
4.11519e-07
-2.14633e-07
-1.51526e-06
0.0021134
0.000303192
1.11209e-07
-6.10104e-08
-1.63953e-07
1.50017e-08
0.0010623
-1.78156e-05
-0.00347219
0.000374506
3.29629e-08
2.06537e-09
-5.13879e-06
3.78066e-10
-1.07546e-07
-1.24526e-06
2.75702e-07
3.36143e-06
-6.81387e-07
-0.000165414
-0.00230267
-2.24831e-06
-2.79758e-08
5.37861e-08
1.27504e-05
0.000126354
1.91696e-06
0.0306011
7.20218e-07
6.66855e-09
-2.01869e-06
0.0158076
-3.62888e-07
7.8259e-09
-1.52337e-05
-0.00254272
-0.000235814
4.59927e-10
-0.00122274
-0.000515811
-0.000938114
9.05207e-09
6.16857e-05
0.000285045
0.00187497
-1.31888e-07
1.09177e-09
-0.00989962
3.1789e-10
-0.000105094
-0.00114631
5.42724e-05
0.000186862
6.56713e-06
-0.000505772
4.62116e-06
-8.40913e-08
6.86412e-08
0.000474071
0.00842629
0.000271533
0.00089616
-8.3876e-08
-7.15729e-05
-1.89245e-10
-2.7632e-06
-3.41064e-06
-3.49367e-05
-9.01922e-09
3.85726e-07
0.00016421
0.00445211
0.000444393
0.000290012
-4.12792e-06
-2.54575e-07
0.000149408
2.75752e-09
-5.61183e-08
1.25564e-09
7.52775e-07
-4.50664e-06
-2.04079e-08
-4.51841e-06
-1.92316e-08
5.90337e-08
2.71459e-09
-0.00338122
1.64021e-07
-5.32499e-11
-1.6967e-06
-2.12774e-06
2.99794e-09
-0.000623773
2.4834e-07
1.08449e-07
1.08732e-06
-2.22965e-07
2.95353e-07
-1.47765e-07
0.00574866
-1.76805e-07
1.20092e-06
0.0154585
1.53363e-06
0.00728805
-1.55551e-07
-1.78361e-05
-0.00172253
0.000767927
1.44585e-08
0.00131433
0.0137014
-1.00794e-08
-0.00138078
-1.83582e-08
1.11e-08
7.89692e-07
-9.97804e-09
-2.01438e-05
0.000205683
-1.45797e-08
0.00370256
-9.30935e-08
-3.05309e-06
0.00783768
1.06127e-09
-0.00288381
-4.38075e-07
-1.43727e-07
7.16754e-08
-8.24393e-09
-7.17686e-05
-1.52991e-06
0.000201374
-9.93049e-07
-0.00192138
3.93898e-06
-2.88605e-08
0.000117929
0.000313144
-0.000487423
6.88215e-07
-4.2918e-06
2.42485e-06
-9.60951e-08
-5.74473e-05
1.08784e-07
0.0273586
4.00335e-10
6.05127e-05
2.06578e-07
4.66823e-07
-1.57995e-07
-7.73705e-08
-0.0109952
1.5754e-07
5.45415e-08
-0.00148969
2.40387e-07
6.70044e-10
8.00618e-07
-6.59725e-06
-6.85462e-05
-0.00357361
0.016277
-0.00100724
2.38555e-09
1.86555e-09
-0.00132554
-2.36708e-08
-0.000100489
3.74034e-06
4.06906e-08
-2.98973e-09
1.10756e-06
-1.58591e-08
-3.03978e-08
1.46418e-07
0.000358053
0.000634783
-5.6138e-05
2.19985e-07
2.72629e-09
6.01591e-06
-0.00873566
2.1373e-08
-5.71403e-07
2.4292e-07
0.000829592
3.66733e-07
0.00185562
3.67423e-10
-0.000845928
1.41719e-10
-7.21964e-06
-2.22181e-07
5.86761e-07
4.34324e-07
-1.23181e-09
1.03986e-07
-1.49503e-08
0.0118617
-0.00107853
-3.01865e-07
-0.0030214
2.29962e-08
-6.03007e-07
1.1035e-07
9.60944e-05
0.000626825
8.46948e-07
6.46355e-09
6.34265e-05
6.79457e-09
2.4734e-08
4.79874e-07
-0.000208364
-0.00253226
-0.00852956
0.00366587
-1.1166e-06
-1.28844e-07
2.99201e-09
0.0632437
9.1585e-09
-0.014877
-4.28141e-07
6.93208e-10
-0.000995292
-0.00240185
3.80239e-09
0.000165617
-5.60345e-08
6.55418e-06
5.32463e-07
0.0105537
-0.00231782
-0.00097852
-1.51311e-09
5.49736e-09
-0.00191465
-1.04475e-07
4.49369e-07
-6.93555e-07
-7.14334e-10
0.0141871
-0.000180475
7.44222e-07
-0.000881992
-2.21922e-06
-3.1214e-07
2.7436e-07
-6.30143e-09
8.74432e-10
1.0618e-08
-0.000480691
0.000726883
-0.000108085
-4.01784e-09
-2.91173e-09
2.43398e-07
-2.53635e-07
1.39745e-06
-3.15615e-07
-0.00591105
0.00226935
-6.80613e-06
0.000113527
-0.000221157
3.60817e-07
-1.49585e-06
-4.50184e-08
0.000629192
0.00219593
0.000992938
-0.0134007
-7.35042e-08
1.18225e-07
-0.0497504
-0.000693736
0.000870549
-8.42415e-07
1.61424e-05
-0.000195251
-2.96259e-11
8.27081e-05
-0.000301616
-9.98754e-06
1.38525e-10
-8.84303e-08
-6.50363e-09
-4.41782e-05
0.00028162
-1.67267e-07
8.05683e-08
1.97538e-07
4.60424e-07
0.00440769
-2.34306e-08
-0.00021418
1.42093e-08
-2.75479e-07
-2.44905e-05
3.77406e-08
-2.41686e-08
1.41282e-07
1.48265e-06
-4.42214e-09
5.15644e-08
-3.19778e-09
0.0146135
0.000112604
0.0017669
-2.1855e-08
-1.19468e-07
-1.6397e-08
6.35848e-06
-3.52762e-05
7.47939e-07
7.58017e-08
6.9577e-08
-0.000368195
-2.01669e-05
-6.26082e-07
-0.00131454
-4.37465e-06
6.68751e-08
1.00814e-08
0.00793274
4.82527e-05
1.12289e-06
-1.05896e-08
0.00163355
-3.66922e-10
-1.65055e-06
-3.91128e-08
0.00117486
0.00151503
1.43114e-08
-1.60829e-08
-0.000746513
1.43846e-08
0.000461308
0.000651951
2.00325e-06
1.53524e-08
2.5565e-09
-3.17953e-08
6.45629e-10
0.000393107
0.0236978
-2.69596e-05
1.92191e-08
-0.00146807
5.66048e-09
1.33449e-07
-0.00681649
-6.85527e-08
-0.00322968
1.11673e-08
-1.79302e-07
4.30025e-07
2.65538e-08
-1.14166e-07
5.6442e-10
0.000305373
-5.9781e-09
2.06015e-09
-7.96563e-06
1.0882e-06
-3.33654e-08
1.63623e-06
1.35526e-06
1.13268e-09
-7.11596e-06
-3.52838e-09
1.36288e-07
0.00190632
-1.38891e-06
4.01698e-08
0.000304363
1.04414e-05
-6.08084e-06
1.0243e-07
3.58741e-06
-0.0111266
-4.2312e-07
3.90818e-06
-1.77094e-08
1.90505e-08
-2.39471e-08
8.73488e-07
-5.03963e-07
2.71625e-06
5.90278e-08
5.22544e-07
1.45469e-06
0.000431299
7.94746e-05
8.14402e-08
-8.62538e-09
9.02355e-08
-1.33585e-05
-7.876e-08
0.000627075
-4.5271e-08
-2.22703e-07
-1.14619e-08
6.72728e-05
-0.00131893
3.3536e-09
2.30612e-07
1.52541e-08
4.35158e-06
2.86781e-09
6.69651e-08
-0.00358089
-3.44532e-10
-3.32121e-08
3.56935e-09
2.74723e-05
6.9287e-09
-4.54341e-07
0.0134119
0.00386797
-6.87729e-05
-2.53843e-06
-0.00215618
3.72185e-07
-1.54583e-08
-8.2369e-09
-0.000569438
5.89675e-08
4.82876e-07
3.33308e-06
1.06792e-06
-3.00029e-07
-1.30398e-07
7.66264e-07
2.17479e-07
-8.07461e-09
-1.74595e-05
-0.000449974
9.85595e-08
4.4321e-09
5.74271e-05
2.21358e-06
0.000237897
-2.23246e-05
4.83719e-06
1.17548e-08
-3.31765e-08
-1.49975e-08
6.45446e-06
-1.83124e-09
-8.97045e-08
-2.39018e-05
-1.09543e-05
-1.51026e-08
4.05445e-09
1.00889e-06
-0.000130178
-3.50135e-09
-3.51563e-07
5.05281e-07
9.09056e-06
-1.99747e-06
-2.64376e-07
1.56799e-07
1.88676e-06
4.12589e-09
-6.10885e-07
-1.08016e-07
0.0043868
1.13982e-07
-3.15453e-06
1.16711e-07
-4.51265e-06
-0.00108851
0.00821896
-0.00162112
1.19415e-06
0.000645614
3.2957e-09
-3.33674e-08
-2.24712e-08
-2.84561e-06
3.08919e-09
-9.61736e-09
-4.3433e-07
-2.68064e-06
-3.94856e-09
1.85397e-09
-1.66146e-07
2.9196e-10
-1.67069e-05
-0.00115422
-0.00130511
-2.67072e-08
0.000684225
1.52088e-07
2.33904e-09
9.95051e-07
-5.08996e-09
-4.714e-06
-2.44185e-07
3.11985e-08
0.00109988
-0.000352958
-0.000456225
-6.58071e-09
0.000447697
-7.96358e-09
0.000544828
0.00122759
8.00653e-10
1.69854e-06
-0.000152202
-1.29803e-08
-5.01221e-09
-0.00182495
-6.4562e-08
-1.13103e-08
-1.92453e-05
0.00135791
3.25241e-10
-1.53518e-07
2.1642e-09
9.30387e-08
-1.68795e-05
2.75561e-09
0.000986081
-1.54277e-06
-1.95225e-08
0.000597096
-8.30158e-07
-6.60025e-06
-9.69748e-10
0.000224467
-1.63013e-07
-0.0024142
5.24834e-08
5.6588e-08
0.00521884
-4.56605e-09
-0.00117984
-1.60651e-08
3.70921e-07
-0.0110522
0.00735478
-8.16398e-08
2.76469e-08
-1.91033e-08
5.54396e-07
-4.09377e-07
1.50358e-07
1.37261e-08
0.000249466
-1.28217e-09
-9.78827e-08
2.74793e-05
8.05821e-06
3.00841e-08
3.95824e-11
-0.00496058
1.12432e-07
1.0956e-08
-2.16302e-07
9.96951e-08
6.03726e-08
-0.0083825
-1.47253e-08
1.00343e-07
-1.70929e-07
-0.00140889
2.37051e-08
5.73511e-08
-0.00322248
1.10333e-07
-0.00192129
4.11945e-07
1.48272e-08
1.42175e-08
-0.000738468
5.18285e-07
-1.10778e-08
-0.00942845
-0.00171374
1.12766e-08
0.00103381
4.62581e-06
-1.21357e-07
5.96085e-08
1.95479e-05
6.70929e-09
-0.00294387
-1.16877e-06
2.06841e-10
0.000181949
0.00136597
0.000134128
-5.20704e-07
0.000951916
-3.08573e-07
-2.98178e-05
0.0012453
6.25803e-08
0.000606457
-1.41146e-08
2.19393e-08
6.24963e-07
0.00537708
-4.88687e-09
-4.77799e-08
-0.00463016
-2.18732e-10
-2.13966e-07
-5.76456e-09
7.29038e-08
-0.000859039
-3.97693e-06
-6.05265e-08
-3.38029e-06
-0.00279601
1.27755e-07
4.86614e-08
-2.86406e-06
-5.79945e-06
8.83288e-08
6.32656e-08
1.04148e-07
1.14894e-08
2.78663e-08
1.06393e-08
-1.03002e-07
5.61368e-07
-0.000722537
-4.86067e-09
-0.00190639
-1.07531e-07
5.14936e-07
-1.66602e-08
-8.01747e-07
4.32742e-08
3.00108e-09
-0.000251494
-0.000561585
3.14654e-07
1.74584e-10
0.00173387
4.80477e-08
0.0054637
-3.4524e-07
-4.28934e-06
-0.0012375
0.000201789
0.00646539
1.37684e-07
-1.48435e-07
6.32741e-09
0.008549
-2.74949e-07
-1.64588e-08
-1.64441e-06
-2.00455e-07
5.33563e-09
-1.40723e-08
0.000666485
0.00383383
4.46654e-09
-9.91277e-06
0.0015795
-4.33721e-07
-4.81253e-09
-8.57907e-09
0.0114214
5.77643e-08
7.04963e-07
7.23817e-11
-4.89191e-09
-1.35448e-07
2.36631e-08
-8.53577e-06
-3.65769e-08
-9.3701e-09
6.08339e-08
-6.04027e-09
6.36991e-05
-1.71954e-08
1.23404e-07
6.44581e-08
5.95275e-08
-0.000152071
0.00109574
-2.30222e-06
3.81945e-07
7.94691e-08
5.83551e-09
3.21602e-09
0.00150229
8.54464e-08
-1.52715e-06
-5.71629e-07
-0.0012528
-1.18819e-08
4.25292e-08
0.00164657
1.54783e-09
-8.17534e-06
-2.89408e-06
-2.16373e-08
0.000797871
0.00769331
-6.7194e-09
0.000362949
1.47324e-08
7.92332e-06
6.14535e-09
-0.000208643
-8.6602e-09
-0.00378556
-1.6714e-08
-2.64652e-08
-0.00862364
-0.000940061
1.73495e-05
-3.50135e-05
3.49521e-08
-0.00509369
3.41595e-09
-0.00371234
-4.54506e-06
-9.05778e-10
1.57235e-08
5.80134e-10
2.00531e-07
-5.2993e-06
-0.00341669
3.31533e-06
1.72718e-07
-1.92379e-08
-9.33098e-08
0.000559311
-2.13442e-05
-3.90521e-07
5.1069e-09
2.7847e-08
1.39471e-06
-5.21608e-06
-3.06546e-08
-4.93927e-07
-8.28418e-07
7.99661e-08
-2.60623e-07
-4.56704e-07
4.02317e-06
-3.25331e-05
-3.35319e-07
3.78822e-07
1.5454e-08
-2.08842e-08
-0.000607331
-3.90041e-06
1.63767e-06
-0.00753768
-6.56846e-09
0.000254386
0.000570492
-2.88438e-07
-0.00177032
8.42718e-08
0.0152807
0.00978104
-7.55653e-06
8.29778e-09
-0.0014988
1.30981e-05
3.72566e-10
1.36913e-06
0.00151715
-7.75545e-07
-2.79063e-08
2.26422e-06
2.23145e-11
-0.00130243
-7.06265e-08
-9.73166e-08
-5.25696e-11
5.18593e-08
-4.53596e-06
-3.59293e-07
0.000505933
9.39953e-06
0.00118477
2.27937e-06
1.26424e-09
4.81483e-08
0.000218948
0.00222267
3.40513e-08
7.4419e-08
6.99943e-06
-7.17032e-08
-0.000123365
0.0166567
0.000102654
7.07413e-08
6.80458e-08
-0.00363245
-3.094e-09
0.000834402
-0.000399809
-2.54442e-08
0.0108142
-2.24362e-06
-8.37531e-08
1.17096e-08
-0.00081413
-1.10544e-08
0.00101815
8.41715e-09
-1.70555e-06
1.67065e-08
-1.88711e-08
-0.00523056
3.06194e-07
5.35027e-08
1.02364e-07
-0.00103364
-6.35245e-09
-2.30091e-08
0.000619417
3.84925e-08
-1.47919e-08
7.68878e-09
5.61449e-07
-3.68116e-09
2.68418e-09
4.17574e-07
2.33618e-09
-2.48418e-07
4.87476e-08
7.75457e-05
0.000793558
1.381e-05
-0.000103928
2.7048e-07
-1.94453e-07
5.38271e-08
1.01745e-08
-1.22133e-07
0.000268248
0.000827692
3.2177e-07
1.15098e-10
1.24815e-07
-0.0115342
-2.36947e-08
6.20181e-05
0.000817153
0.00992125
-0.000798159
-0.00135781
-0.000354574
1.03413e-07
0.0144687
-0.00185628
-0.000480863
-1.39156e-06
3.72479e-08
3.58031e-07
2.35562e-10
0.0117014
4.41981e-06
2.21284e-06
-1.34967e-07
-0.000963349
7.3389e-09
1.43913e-08
0.0165619
-3.30763e-06
-8.34316e-08
1.61556e-09
6.5498e-07
3.62427e-09
-0.0119395
0.00235675
0.000506434
0.00534886
-1.68563e-06
1.53572e-05
9.09427e-08
-7.37083e-05
-4.85864e-09
6.99743e-09
3.61206e-08
0.00091803
-3.39023e-08
-1.54373e-07
-0.00163549
0.000852864
3.75577e-05
-2.37009e-05
6.18212e-08
-2.86698e-06
-0.000993364
0.000649754
0.014857
0.00104303
9.52327e-06
-0.000973279
7.19921e-06
-0.000247301
-2.47809e-06
-1.4669e-06
5.34844e-08
-5.05226e-07
-4.53096e-08
-1.31347e-08
0.0145716
-1.7558e-08
-3.9908e-08
-1.3522e-08
-0.00328143
4.63091e-07
4.06157e-09
1.19099e-07
7.02405e-08
9.89604e-06
-2.82107e-07
-0.000347549
3.27222e-07
-0.00114138
7.78947e-09
8.96496e-08
4.48606e-07
-9.2902e-07
1.30828e-08
0.00827139
-1.18444e-06
-0.00314343
-1.32272e-08
0.000800094
-2.6175e-06
5.64772e-08
-1.01993e-08
7.04216e-08
0.000408455
-0.00342448
0.000383801
-1.82497e-09
-1.69766e-07
-9.36352e-09
-0.00314947
1.94906e-08
-1.85932e-08
0.00151689
9.70478e-08
-1.51951e-09
0.000622344
-3.60511e-08
5.44167e-08
-1.93445e-08
4.12733e-08
2.49905e-08
-1.48789e-07
6.41243e-09
4.44821e-08
4.81318e-06
2.45377e-06
1.19136e-08
0.000693415
1.68907e-08
-0.00210215
0.000681941
3.2626e-07
0.00203233
-0.00318179
-1.7393e-08
1.84052e-06
-1.04137e-08
2.719e-08
-0.0024468
1.73115e-07
-0.000805809
-3.41482e-07
5.34348e-06
-1.47622e-08
-5.04005e-07
5.98465e-09
0.0115485
6.52068e-07
0.000865117
2.1175e-07
2.04542e-05
2.82055e-07
7.90603e-09
1.93311e-06
4.70986e-07
9.26689e-09
-0.00700067
-3.10366e-10
7.78333e-07
-6.71998e-09
-3.27787e-07
2.34123e-06
-9.02945e-05
-1.10734e-06
-6.52133e-06
0.00391663
7.12974e-07
-7.99804e-07
-4.83094e-08
-0.000327635
-5.40923e-07
9.92372e-11
1.3408e-06
0.00217361
-0.000899478
-1.74412e-08
1.00532e-07
2.10211e-09
2.59286e-08
7.53272e-08
-0.00123411
2.01903e-07
-1.50491e-08
-0.00081864
-5.69435e-09
-2.20506e-08
1.81529e-06
-0.000363512
4.88073e-08
-0.00133017
0.00826357
3.23008e-06
-0.00155094
1.18473e-07
-0.00310699
-0.0237396
-1.62658e-08
9.31431e-07
3.00743e-08
7.36242e-08
-3.00873e-07
0.000300808
-1.14239e-06
7.12306e-05
0.000142426
2.10341e-07
-0.00124834
4.29966e-08
0.0116824
-8.67237e-10
-0.00241282
0.00879855
6.81669e-09
-1.23836e-08
1.69175e-09
-1.28755e-06
3.96891e-06
-1.48849e-08
-0.00102687
1.05055e-07
-1.00335e-06
9.27225e-07
-1.57604e-07
-2.04947e-08
0.00142431
2.56877e-08
0.000132364
-1.00564e-06
-5.93299e-05
2.98852e-09
-1.94935e-08
0.0108409
1.01646e-08
1.15831e-08
-7.24482e-09
-1.27848e-06
-3.71374e-06
-7.04081e-05
-4.43414e-07
2.23193e-08
5.55756e-09
-8.26928e-08
3.60752e-07
-0.000341198
5.54e-09
2.46118e-06
0.00209552
-0.000103546
6.28138e-08
1.64247e-07
-2.32369e-08
2.6383e-09
1.82433e-05
2.31741e-05
-3.74065e-06
1.0285e-09
6.1921e-08
4.31831e-07
-4.96151e-06
-7.58765e-07
5.54833e-07
1.24608e-07
6.50373e-08
1.46228e-08
1.77128e-07
0.0108455
3.55259e-09
-0.00422654
9.87886e-05
-4.10558e-07
5.05397e-10
0.0150554
0.00195264
-3.01669e-10
2.48994e-08
-0.00131215
1.5188e-08
-2.05e-06
-8.06351e-06
0.000174782
3.16175e-08
2.23731e-08
-2.2541e-08
-3.88291e-08
-0.00383097
4.17414e-05
2.63498e-08
-5.23073e-07
2.41703e-06
-4.09974e-09
-0.000131244
7.01226e-09
-1.08966e-06
-6.32518e-08
3.36233e-07
2.32116e-09
8.20871e-08
-2.60251e-05
-4.53729e-08
0.00136916
9.41236e-07
6.2762e-08
6.60238e-08
-8.34091e-09
1.4086e-07
0.000713397
1.98968e-09
-7.76409e-06
-8.244e-09
-1.52897e-08
-4.67861e-07
0.008428
1.5701e-08
5.81636e-09
1.37269e-07
-1.97227e-07
4.38873e-07
-1.55128e-06
0.00140543
6.55786e-07
1.00306e-08
-2.27516e-05
-0.00219803
8.73318e-08
-1.09146e-07
0.000730058
-2.22242e-06
3.29337e-08
0.00822618
1.43061e-08
-0.00110788
-2.1209e-06
-2.31917e-08
1.07356e-05
-3.11935e-07
1.09744e-07
-5.53757e-08
0.00712587
7.69657e-08
-0.000988422
-0.0023716
-0.0025582
4.70227e-07
-3.31957e-09
0.0170643
2.07712e-09
-0.000364666
-5.66212e-09
-1.05896e-05
5.41839e-08
6.90173e-06
-3.89549e-07
-0.0056193
-4.42719e-07
1.5957e-09
-0.00117498
-0.00179098
4.98377e-09
0.00798537
-1.70447e-08
-5.85616e-07
-6.16629e-08
0.000321447
0.00020205
1.66563e-07
8.08247e-08
0.00698373
-0.000112978
1.05084e-08
5.9399e-07
-1.86473e-08
8.92041e-09
-4.37757e-08
-1.44667e-07
0.000530752
-0.00619825
-1.93204e-07
3.63715e-05
-3.43879e-07
-9.43566e-07
-1.63162e-09
0.000357449
0.000322563
0.000668806
1.06521e-07
-0.00026292
0.000550277
-1.37712e-07
1.2546e-06
8.27781e-08
4.92548e-07
-0.00167574
2.62784e-07
-1.88009e-08
4.91485e-09
6.17085e-07
-1.05282e-08
9.14919e-09
-0.000119425
-2.02883e-07
-5.11026e-05
4.15339e-09
-7.90559e-09
-2.02626e-08
-1.24728e-08
-5.54544e-05
-0.000806106
8.60698e-09
2.78608e-06
5.67162e-09
-0.00333939
-8.1009e-08
-3.3219e-07
-0.00130676
-0.000244478
-1.7989e-07
-0.00563636
2.72291e-05
5.9637e-10
1.06215e-06
-4.45886e-08
2.68331e-07
7.65309e-11
2.22577e-09
-3.46057e-06
-5.13563e-06
0.00189245
7.64625e-07
2.69125e-07
-0.000261935
8.03089e-08
-1.03334e-06
-4.5042e-08
0.000638909
0.00705492
-0.0052743
5.7243e-08
1.00681e-08
-0.00136255
0.000222458
1.8189e-09
0.0155003
2.09598e-09
7.4077e-07
1.3118e-08
-4.39901e-07
-7.4949e-08
-1.9193e-07
0.000167641
5.31275e-07
5.46358e-07
5.08929e-08
-1.11196e-08
-1.72598e-08
6.26742e-09
8.77472e-09
9.53528e-10
1.95231e-08
-0.000198773
-0.000817386
0.000138404
-3.91412e-07
-0.0135357
-1.61941e-06
-0.00330707
-0.0140035
-2.42146e-06
7.21174e-10
-3.79563e-08
3.20126e-06
-5.12149e-07
0.0130569
-0.00123984
-5.39011e-08
-3.60376e-09
1.95213e-08
-0.00207638
-4.05519e-08
0.00299123
7.96674e-08
2.53339e-09
-0.00302709
1.04138e-07
-2.26451e-08
4.25271e-09
0.0020458
-1.87122e-08
9.69243e-08
3.30768e-05
-2.8851e-08
-2.71553e-09
-1.282e-08
-1.33296e-08
1.14421e-06
6.38643e-08
0.000499033
-2.00631e-08
2.84035e-09
1.24043e-08
0.000563966
-4.33029e-06
1.46883e-08
0.000501279
-1.11453e-08
3.54905e-08
-3.50078e-05
0.000276007
1.05481e-08
-7.50753e-05
-0.00173766
3.38554e-07
-0.000650386
4.98926e-10
-2.77588e-07
-6.90839e-06
-1.56141e-08
0.00159281
-0.00190219
2.11652e-08
1.29163e-07
6.85556e-08
0.000430631
0.00434166
-1.57066e-06
3.7682e-09
0.00421139
-6.43288e-07
-2.23343e-06
7.76203e-07
9.47008e-10
1.46516e-07
1.60911e-07
2.55004e-08
0.00921898
1.56231e-08
6.12667e-08
-2.10547e-06
-0.0034637
-8.64536e-06
0.0021519
-2.61805e-10
-4.26066e-07
3.87553e-07
-1.14464e-07
1.37788e-08
3.95524e-10
2.62966e-09
8.89273e-08
1.24857e-09
2.39749e-09
-4.4454e-09
-9.41287e-08
-3.47294e-08
-5.69356e-09
0.000538214
-0.00194592
1.57511e-07
-1.00333e-07
0.0108724
8.99475e-10
2.85227e-06
0.00146409
0.000181917
-0.00349635
-0.000224268
-0.00378134
-0.0220308
0.000891176
4.65945e-08
-6.83557e-07
2.76641e-10
-5.84907e-07
5.2952e-07
1.98161e-09
4.28888e-09
0.000739991
-3.37057e-08
-1.00076e-07
0.000321583
9.40983e-09
-3.39308e-08
1.2188e-06
-1.31826e-09
-1.13518e-07
-1.316e-08
6.25915e-09
-0.00143872
0.000581122
-3.22361e-08
1.02903e-07
-9.59027e-09
8.04638e-07
7.6707e-07
1.01339e-08
0.0067457
0.000140501
5.2853e-09
0.00116751
3.29486e-07
9.81419e-08
0.00118359
1.56726e-08
6.92011e-07
1.77811e-08
-1.74351e-07
-9.51863e-08
0.000158678
6.26897e-08
-1.03175e-08
3.56359e-07
-2.77324e-08
1.20492e-06
4.35378e-08
-0.00108634
-1.65725e-06
4.52615e-07
-0.00217288
-0.00341718
-4.49533e-06
-2.10448e-06
0.0172213
-7.45029e-08
-2.46848e-08
4.50126e-08
-0.00214567
3.03765e-06
-1.3976e-06
-0.00117122
-6.87527e-09
-0.00175945
1.37102e-05
-0.00221382
-7.32172e-09
9.0566e-07
1.15305e-07
-1.37538e-05
-8.11719e-09
-0.00308462
-0.00229417
-1.14331e-08
-2.33085e-06
-4.16035e-07
1.88054e-07
0.000812088
4.42159e-08
1.67555e-07
3.62289e-05
-5.65494e-06
8.25905e-08
6.90019e-11
2.38679e-09
4.55999e-07
-4.24518e-09
1.0007e-08
4.03522e-08
-9.94345e-09
-2.08095e-08
-3.05642e-07
6.87441e-10
0.00145366
0.000729956
2.18557e-07
-4.04398e-08
3.75344e-08
-7.73232e-07
5.7585e-07
3.78179e-09
-0.00145163
-2.82641e-07
1.68683e-08
4.96685e-09
0.00166447
0.00132144
-9.13128e-11
9.29801e-05
1.12701e-07
-2.08371e-08
0.000497506
-5.8059e-09
8.49993e-07
2.38254e-09
0.00724112
-0.00298892
-2.69357e-11
1.50759e-06
-0.0018161
-1.15812e-06
-0.0160817
1.67561e-09
-2.77892e-06
-0.00137408
-0.00423647
-9.49182e-08
-4.44574e-09
-1.58004e-07
1.74361e-07
1.08793e-07
-0.000441522
0.00102093
0.0139498
1.91106e-08
-1.66043e-07
1.60005e-07
-8.11542e-08
5.01682e-05
3.40937e-08
-0.0012301
2.2956e-08
2.71531e-09
5.69466e-08
-4.17416e-08
1.31639e-08
7.48957e-06
-0.00890666
-9.49982e-07
-8.62585e-09
-3.34074e-09
0.000515859
-3.70826e-07
5.32393e-07
3.60872e-09
1.87399e-06
0.00151869
-6.5226e-09
2.54714e-08
2.83701e-07
4.60536e-06
-9.106e-10
8.94706e-07
-8.75566e-09
1.21038e-07
8.13729e-06
-2.08782e-07
-0.00442359
-8.46615e-05
9.83023e-07
-0.000612741
1.24328e-08
-2.27823e-08
-2.33727e-07
-0.00110732
4.36621e-07
-0.000952921
-8.07749e-09
-0.00192266
2.36138e-06
9.6446e-08
1.86669e-07
6.20514e-08
0.000976231
2.8952e-07
2.04323e-07
-0.000741337
-3.70792e-06
3.35497e-09
6.937e-09
7.73603e-10
7.57714e-09
-0.00159544
1.84846e-06
-2.47529e-09
-9.14613e-05
7.82619e-08
-0.00140851
9.32596e-08
-0.000132093
-1.40087e-07
-0.00133656
0.0604023
-2.60428e-06
5.50951e-08
-1.61796e-08
1.56603e-08
-0.00289379
-1.34124e-07
-1.19567e-06
-0.0148607
3.49216e-09
-0.000839673
1.0914e-07
6.25436e-08
5.40894e-06
1.58464e-08
1.03868e-07
0.000319122
0.000153407
-0.000910142
2.20641e-07
-9.03504e-09
-6.70875e-07
3.09384e-07
9.66787e-08
1.38273e-07
-0.00441796
3.52164e-06
0.00896948
2.62078e-07
-5.22045e-07
-0.000551697
0.000120426
-3.40403e-07
-2.75829e-08
0.000519133
-2.28136e-07
-0.0015909
-3.61111e-08
-1.85873e-08
-9.18784e-09
-5.47933e-08
1.67437e-09
-6.42765e-08
4.85456e-09
-6.73397e-07
-0.00891372
1.88517e-06
-0.00080556
-2.56934e-06
7.61047e-09
-3.34297e-09
-1.23107e-05
-1.15119e-08
5.55231e-08
-1.84513e-08
0.000676681
0.000133509
4.72523e-09
4.00947e-07
9.44537e-08
4.66053e-08
4.08246e-10
-2.34967e-08
-2.14988e-08
-0.000937943
-2.5599e-08
9.77235e-09
-4.62698e-06
3.29664e-08
0.0139482
6.38497e-07
-4.33003e-06
-4.36908e-05
-7.93268e-08
-1.30026e-08
0.0117142
-1.8291e-08
-3.0219e-07
5.36205e-07
1.35595e-07
-1.43751e-06
-5.5268e-09
0.000111058
-2.30142e-08
-3.75213e-08
-0.00220444
-1.0494e-06
0.000613225
4.03699e-09
-4.40747e-06
-2.60911e-05
7.54628e-07
0.0113301
1.14014e-08
-5.55462e-08
-3.02395e-08
-1.07291e-05
1.14289e-07
-0.00505053
-2.65815e-08
2.87592e-06
0.00126841
6.30589e-05
-2.55615e-08
-0.000271565
2.29833e-08
3.81878e-05
-1.33317e-07
5.04271e-07
3.16567e-07
0.0131957
1.49315e-08
-3.53273e-08
0.00150031
4.25162e-09
-1.03612e-07
1.82174e-08
6.01313e-07
0.001669
-0.011255
-5.69187e-07
6.27055e-06
2.64758e-08
7.17899e-05
-1.24141e-08
-8.0901e-08
2.47449e-06
0.000486157
1.2228e-06
-5.16507e-08
3.41804e-07
0.000211773
9.41376e-07
-2.65971e-06
-0.00298095
-4.25365e-08
-0.00543684
3.00593e-08
-1.22942e-05
5.80128e-08
6.69482e-08
0.00245374
-4.18715e-08
1.98548e-08
-0.000237835
6.1804e-06
0.000925936
-2.76524e-08
0.00740827
-0.000162657
-7.20501e-08
-5.31865e-07
-0.00101864
2.20815e-09
5.15253e-08
0.0154701
1.74526e-08
-5.31117e-08
9.58752e-09
3.90578e-08
-1.24636e-05
2.15098e-06
1.22545e-06
-0.00113187
1.01114e-09
2.47983e-06
1.25345e-07
9.4048e-08
1.97166e-07
9.68321e-07
-4.29504e-09
2.05995e-09
-0.00621803
0.00125507
-0.00098402
-2.39051e-08
1.1101e-06
7.74111e-09
0.00174866
1.46152e-09
2.35096e-06
-0.0105382
0.000362052
-6.24011e-07
3.01671e-07
0.000115716