/*--------------------------------*- C++ -*----------------------------------*\
| =========                 |                                                 |
| \\      /  F ield         | OpenFOAM: The Open Source CFD Toolbox           |
|  \\    /   O peration     | Version:  v2012                                 |
|   \\  /    A nd           | Website:  www.openfoam.com                      |
|    \\/     M anipulation  |                                                 |
\*---------------------------------------------------------------------------*/
FoamFile
{
    version     2.0;
    format      ascii;
    class       volVectorField;
    location    "200";
    object      ddtCorrDdt0(U);
}
// * * * * * * * * * * * * * * * * * * * * * * * * * * * * * * * * * * * * * //

dimensions      [0 1 -2 0 0 0 0];


internalField   nonuniform List<vector> 
18758
(
(0.0331403 0.0537951 0)
(0.00972012 0.0204689 1.22292e-19)
(-8.90483e-05 2.2959e-05 -1.24169e-21)
(-0.0191896 -0.0737906 -3.62696e-20)
(0.0379727 -0.0172151 0)
(0.0250928 0.0259173 0)
(-0.00960048 -0.000222628 1.07701e-19)
(0.0001765 7.8968e-05 -3.4671e-23)
(-0.0176634 -0.0147778 1.33882e-20)
(0.00287448 0.0268745 2.84414e-20)
(0.0021323 0.000840122 0)
(0.000947246 -0.0112837 7.49321e-21)
(0.000122533 -1.69969e-05 2.43667e-21)
(0.0429765 -0.00312892 2.04696e-20)
(-0.000651528 0.00134115 0)
(0.121819 0.0878422 0)
(0.00362694 0.00218816 -1.84619e-20)
(0.000201623 7.42508e-05 1.83208e-21)
(-8.33793e-07 0.000800544 0)
(0.00551865 0.0121206 -1.63425e-20)
(0.00875836 -0.00640306 0)
(2.25431e-05 7.24976e-06 5.32591e-22)
(-0.0111002 -0.00454238 -1.38203e-20)
(-0.0183534 -0.0437206 0)
(0.00321214 -0.010528 -7.67273e-19)
(0.000167777 6.9228e-05 4.64226e-23)
(-0.153179 -0.262494 -7.6761e-20)
(0.0467013 -0.00646936 3.44889e-20)
(0.0728392 0.0115279 0)
(-0.0306095 0.0842458 3.89715e-19)
(0.016333 -0.000986483 3.2475e-21)
(-0.0409438 -0.0103565 -2.40468e-20)
(1.40158e-05 -1.02832e-05 -1.66481e-22)
(0.00121478 0.00138268 2.09558e-20)
(0.0183338 -0.0153677 7.17878e-20)
(1.16848e-05 -0.000539656 7.33305e-23)
(2.6855e-06 -1.11143e-05 -3.34703e-22)
(0.000497685 0.00101888 1.86878e-21)
(0.000877818 0.00104319 5.8558e-21)
(0.00195146 0.00389465 -1.97574e-20)
(0.000487426 0.00136765 0)
(-0.00128827 0.002169 0)
(9.97321e-05 0.000465285 0)
(0.00482597 -0.00738267 0)
(0.0449507 -0.0396874 3.41948e-21)
(1.51094e-05 9.62507e-05 2.26474e-22)
(-0.0120907 -0.00369358 7.90888e-21)
(0.00209487 0.00198545 0)
(0.000668188 -3.15966e-05 -2.43974e-20)
(2.84086e-05 0.000347194 0)
(-0.0113961 -0.0596722 1.75025e-18)
(-0.0249968 -0.0341476 -1.67678e-20)
(-5.27001e-05 0.000117296 -1.65375e-21)
(0.00113035 0.00115057 0)
(0.050376 -0.00488432 1.39645e-21)
(0.0324033 0.00263456 -5.97339e-20)
(4.74841e-06 -7.07694e-06 3.41922e-22)
(0.0281529 0.137588 1.4331e-20)
(0.00052494 -0.000737014 0)
(0.0516446 0.00781483 -6.19402e-20)
(0.012871 -0.0908987 -2.87036e-19)
(-0.00910188 -0.000154364 -1.06996e-19)
(0.00493842 -0.00551643 -2.24694e-20)
(0.00116689 -0.000268657 1.89552e-20)
(-3.72871e-05 0.000131124 1.21904e-21)
(0.000169306 -0.000453772 -6.32575e-21)
(0.00413704 -0.00505828 1.424e-20)
(1.63425e-05 -1.19615e-05 -1.70807e-21)
(0.000923169 0.000422243 -2.9729e-21)
(-0.0244735 -0.0332672 -8.97286e-21)
(-0.00123728 -0.0289373 -3.44024e-20)
(0.000534615 -0.00137875 0)
(3.8408e-05 0.000363341 1.69258e-22)
(0.0294645 -0.00279835 8.84322e-20)
(0.000245017 0.000558695 0)
(0.000526895 -0.000624284 3.05313e-21)
(0.00240883 -0.0437266 0)
(0.0322952 -0.0207748 8.06292e-20)
(0.0596557 0.0220945 6.51049e-20)
(-0.0055687 -0.00369961 -9.29685e-20)
(-0.00203325 0.000279819 -6.57646e-21)
(-0.0300908 -0.0908587 1.9491e-20)
(0.0578058 -0.0411536 -1.15867e-19)
(0.0312013 0.0213776 0)
(-0.00763897 -0.0533872 0)
(0.00263583 -0.00230001 -2.77716e-20)
(-0.0433818 -0.0180728 0)
(-0.000810358 0.00959184 -1.10108e-19)
(-0.00671419 -0.000480642 7.77255e-21)
(0.000557964 -0.000683439 -5.19513e-21)
(0.0327969 0.0202263 0)
(0.000480503 -0.000725741 2.72838e-21)
(-0.0208207 -0.0125837 0)
(-0.00017558 0.0024148 0)
(-0.00133501 0.00224682 -2.37597e-20)
(-0.0203928 -0.0140961 0)
(-0.000908169 -0.0196176 0)
(0.000134434 -0.000272697 0)
(0.00040031 -0.000261912 6.45901e-21)
(0.0073419 -0.00803924 -1.21329e-22)
(-0.00705386 0.0116517 0)
(0.0380472 0.0175041 0)
(0.00706852 -0.0128154 0)
(0.00416334 0.00518259 2.83491e-20)
(-0.0438562 -0.00728588 2.72906e-20)
(0.0453175 -0.0669756 -4.662e-19)
(-0.0406181 -0.0594212 0)
(0.0276688 -0.0232271 -9.21722e-20)
(0.000937222 0.000581342 1.60312e-21)
(0.000894973 -0.000316175 0)
(-0.0221541 -0.0235861 0)
(0.0191784 -0.0100404 0)
(0.000181179 -1.14151e-05 -1.15817e-21)
(0.000749056 -0.000315321 -4.4019e-21)
(0.0384196 0.01094 0)
(0.0125413 0.00345529 -9.55856e-20)
(0.0502793 0.00460755 -8.43501e-20)
(-0.000628239 0.00222895 0)
(-0.00261888 -0.00764269 0)
(-0.00438055 0.00268366 -3.11478e-21)
(0.000745992 0.00330041 -1.18963e-20)
(0.000244823 -0.000440455 1.44141e-20)
(0.0395432 -0.00398153 -1.43587e-20)
(-0.176263 -0.107122 0)
(0.0760057 -0.0137224 0)
(0.00248999 -0.0452583 -7.10514e-21)
(0.00284043 0.0175834 -9.93446e-20)
(-0.0329958 -0.0170583 9.62949e-20)
(-0.0235002 -0.00924861 -1.7083e-20)
(0.000121454 8.10034e-07 -2.49231e-21)
(0.00616587 -0.00436013 -3.59543e-20)
(-0.267002 -0.0156778 0)
(0.00450068 -0.00344774 4.15229e-20)
(0.0418653 0.0721983 3.15315e-20)
(0.0447574 -0.0896088 -6.18722e-21)
(-0.000669541 -0.00481196 -6.96823e-21)
(-0.00662851 -0.0432471 0)
(0.00401946 -0.00118052 0)
(0.000419904 -0.000259802 0)
(0.0136767 -0.0352406 0)
(-0.0506114 -0.0716221 -7.21652e-20)
(0.021974 -0.0690605 1.16793e-20)
(0.000916832 -0.000591859 0)
(0.0221021 -0.00824353 -1.12744e-19)
(0.000433958 0.00110894 4.50292e-21)
(0.000354074 0.00111689 -5.14764e-21)
(0.0545983 -0.00333923 7.77835e-20)
(-0.107847 -0.0178536 0)
(0.0145045 0.00815106 0)
(0.0102314 -0.0121767 -1.96134e-20)
(0.0274376 -0.00829548 -1.22357e-20)
(-0.0336835 -0.0587171 -2.35938e-20)
(0.00233824 0.00317878 1.44312e-20)
(-9.82016e-06 7.26038e-05 0)
(-0.0120485 -0.000230425 -1.33463e-20)
(0.00209531 0.00175772 -7.53315e-21)
(-0.00180194 -0.00650198 0)
(0.00213359 -0.000894302 0)
(0.000581414 -0.00163195 -9.21815e-21)
(-4.48415e-06 0.000178211 7.7085e-21)
(0.000284072 1.07304e-05 4.70347e-21)
(0.0406241 -0.00154884 -2.61416e-20)
(-0.00578385 -0.0224422 -8.81335e-20)
(0.000977665 -0.000935631 -6.6674e-22)
(0.017549 -0.107445 1.85528e-19)
(0.0708103 0.0120267 1.20515e-20)
(9.00778e-05 0.000840872 -6.79671e-21)
(0.0249305 0.00532346 5.75126e-20)
(0.0153213 -0.0206679 1.54569e-18)
(0.0281999 0.0235379 4.46722e-20)
(-0.00653488 0.00745714 4.60502e-20)
(0.000171844 7.3689e-05 -4.6264e-21)
(-0.0146397 -0.033129 2.21487e-21)
(0.045193 -0.00909342 2.3039e-20)
(0.0240977 -0.00563102 -4.11175e-21)
(-0.0179678 -0.0284507 2.93704e-20)
(0.0578705 0.025367 -4.14479e-20)
(0.000943716 -0.00280873 0)
(0.0446151 0.109448 0)
(0.00106733 0.000540324 0)
(0.000168148 -5.2778e-05 -1.52396e-21)
(0.0223415 0.00145539 -5.4011e-20)
(-0.00772039 -0.0652863 0)
(-5.39967e-05 0.000489462 4.85916e-21)
(0.00144767 0.00171406 0)
(0.00724515 -0.0773608 -6.10641e-19)
(0.000389086 -0.000419931 0)
(0.0109995 0.00458676 8.20569e-20)
(4.76099e-05 0.00041842 -3.17616e-21)
(0.000457274 -0.000301109 -8.56518e-21)
(0.0474331 0.167282 4.68345e-20)
(-0.0302416 -0.00749886 0)
(0.00142608 -4.12314e-05 7.18194e-21)
(0.0143679 0.000310602 0)
(-0.0163808 -0.0202464 -5.18692e-21)
(-0.00145368 0.0151517 -1.61195e-18)
(0.00417243 -0.0167276 5.1178e-21)
(0.00789692 -0.0458905 3.77999e-19)
(4.37874e-05 -0.00018569 0)
(8.42464e-05 0.00041651 0)
(-0.000537392 -0.0750733 5.56628e-20)
(0.0017692 -0.000345455 -2.37412e-21)
(-0.00422193 -0.0205965 0)
(0.0069008 0.01058 -7.02894e-20)
(0.00012367 -1.3408e-05 0)
(-0.0141234 0.0100322 0)
(0.000983433 -0.0109225 1.90242e-20)
(1.81628e-06 2.214e-06 0)
(-0.00104444 -0.00577874 0)
(0.00305977 -0.0174255 0)
(0.000191957 4.54226e-05 7.52139e-21)
(0.00420806 0.0110929 0)
(0.000920822 -0.00109674 -1.44606e-22)
(-0.00169501 0.010306 0)
(0.0186556 0.0050023 -1.46058e-19)
(-0.0014775 -0.00124037 -1.62074e-21)
(0.00380907 -0.0848697 0)
(-0.128713 -0.171808 4.20197e-20)
(9.19312e-05 0.000255032 3.82323e-22)
(0.0247521 0.0266847 4.50992e-20)
(0.000188862 4.86506e-05 -5.93191e-21)
(0.00129335 0.00103365 9.78178e-22)
(0.0177871 -0.0456704 -3.52498e-20)
(0.0538082 -0.00410464 -9.01492e-20)
(0.0144033 -0.008718 -8.79611e-21)
(0.00127879 -0.0133452 4.60991e-21)
(0.00272916 -0.000809798 0)
(0.0283587 -0.0700761 0)
(-0.000130281 0.000319547 -4.79952e-21)
(-0.000899311 -0.0218436 -1.25602e-19)
(0.000200538 -0.000237115 0)
(-0.0150424 -0.0164692 1.25028e-18)
(-0.0122397 -0.00269165 -5.94531e-20)
(0.0092679 -0.0277291 -5.14141e-19)
(0.000111907 -1.11667e-05 -1.29111e-21)
(0.000373523 -0.000422627 -7.1428e-21)
(-0.00012298 0.000245436 2.78441e-21)
(7.07725e-05 3.17204e-05 -1.68217e-24)
(0.0421103 -0.00312922 0)
(0.00504803 0.00251963 -3.11013e-20)
(0.000248156 -0.000272309 0)
(0.0127152 -0.00888018 -1.65791e-19)
(-0.042462 -0.0588607 -3.94763e-20)
(0.000848805 0.00229653 6.88281e-21)
(0.00734688 -0.0147385 5.33213e-21)
(-0.0455262 -0.0407946 -1.69575e-19)
(0.0131896 -0.0576068 0)
(1.04464e-05 -0.000490005 0)
(-0.00196441 0.00133418 5.9823e-21)
(0.00213306 0.00144958 4.35759e-20)
(1.50182e-05 -0.000660729 -7.10286e-21)
(0.0248543 0.00262633 0)
(0.00203173 -0.000112189 2.77758e-20)
(0.00226797 0.00696737 1.1467e-21)
(-0.000379813 0.000748621 -4.18658e-21)
(0.00138604 0.00180599 0)
(-0.0122159 -0.0614361 0)
(-0.133736 -0.0839562 4.72587e-20)
(0.0016208 0.0062456 0)
(-0.0434346 0.0135 -1.25865e-20)
(-0.000389332 0.000366861 -1.56474e-22)
(0.00167167 -0.00224653 -3.30639e-20)
(0.000253655 -0.000363626 0)
(-0.00337924 -0.00286507 1.09097e-20)
(0.00383598 -0.000612266 -1.15197e-22)
(0.0147823 -0.0394372 -6.07682e-20)
(-0.0177139 0.000427671 1.22714e-20)
(6.80802e-05 0.000267287 -2.104e-22)
(0.00112208 0.000862409 -1.82065e-21)
(-0.0332629 0.108259 0)
(0.000931291 0.00106674 0)
(0.00252439 0.0028315 0)
(0.000844036 0.00036731 4.82717e-19)
(0.06042 0.013438 -9.10721e-20)
(0.0518734 0.00341201 1.06152e-19)
(0.000667326 -0.00143126 4.85692e-21)
(0.00849667 0.00954899 -2.06482e-20)
(-0.143514 -0.039135 -3.45346e-20)
(-0.047444 0.0215784 3.34576e-20)
(0.00119031 -0.00045184 1.5487e-20)
(0.000124967 0.000617974 -1.71017e-21)
(0.00333138 0.0041815 -1.53598e-22)
(0.00378867 -0.00381132 -1.09997e-20)
(0.000642218 -9.05862e-05 0)
(-0.148097 -0.0495563 5.64575e-20)
(0.0205879 0.0125203 5.28084e-21)
(0.000273831 -0.00862943 -9.55567e-20)
(0.0062473 -0.00294964 0)
(-0.0110961 -0.00356075 5.4703e-20)
(-3.7664e-05 0.000423197 2.10098e-21)
(-9.76364e-05 1.77277e-05 -3.84581e-22)
(-0.0315962 0.0134336 7.18944e-21)
(0.0060333 -0.00111763 1.74072e-21)
(0.0012679 0.00142535 1.76729e-19)
(0.0607486 -0.00200623 -2.45687e-20)
(-0.00352326 0.00835469 -1.78355e-19)
(0.00454974 0.000414286 4.57911e-21)
(-0.00533849 0.000911397 0)
(-5.64543e-05 0.00039091 -7.89351e-21)
(0.0739031 0.00737098 1.13489e-21)
(0.029381 0.0226547 0)
(6.06686e-05 9.49074e-05 8.2979e-22)
(-0.0548862 -0.0343187 1.76522e-20)
(-0.0324434 -0.02655 0)
(0.000794424 0.000821224 4.08881e-21)
(0.00332767 0.00377777 3.16316e-21)
(0.00270141 -0.00415281 0)
(-0.000421345 0.00160136 -1.34314e-21)
(1.13265e-05 -0.000635459 8.32569e-21)
(-0.0132713 -0.00141229 0)
(0.0304042 -0.00248378 5.12345e-20)
(0.000351838 -4.86233e-05 4.60802e-21)
(-0.0113856 -0.000811846 1.07476e-19)
(-0.00505378 0.00181697 3.7458e-20)
(0.0112966 0.00264079 9.25368e-20)
(0.000213913 -0.000230294 2.9358e-22)
(0.000117986 1.84447e-06 4.34908e-21)
(0.0285937 -0.00722401 0)
(0.000507605 0.00133974 -1.54616e-22)
(-3.3583e-05 0.000447078 -5.2444e-21)
(0.000188785 0.000732496 2.15814e-21)
(0.00232298 -0.00193308 0)
(8.84519e-05 0.000734623 -1.50287e-18)
(-0.00115518 -0.0030231 0)
(8.5835e-05 -0.000582568 -7.61111e-22)
(0.00332209 0.00518605 -4.14534e-21)
(0.00340313 -0.00238129 1.53096e-20)
(-0.044951 -0.0983641 -3.4756e-20)
(-0.000351735 0.000355922 4.81394e-21)
(-9.00897e-06 -0.000256081 0)
(-0.0331269 -0.0180854 7.77801e-20)
(0.0121302 0.02674 -9.53467e-21)
(0.0036717 0.0161478 1.42508e-19)
(-0.00667872 -0.0752217 3.04881e-20)
(-0.000351006 0.00397421 1.82483e-20)
(0.00117238 0.00017773 0)
(0.000119045 -1.51241e-06 7.31851e-22)
(0.0725814 -0.00662242 -2.30133e-20)
(-0.0577285 -0.0365412 0)
(-8.8947e-05 0.000381068 0)
(0.000231708 8.14353e-05 0)
(-7.26844e-05 0.000330898 4.02411e-21)
(0.000769999 -0.00357793 7.00639e-21)
(0.0258903 -0.00187024 -3.44664e-20)
(0.00263071 -0.00106436 -5.93141e-20)
(0.000122522 -0.000330006 5.49454e-21)
(0.000152168 -0.00183576 1.07122e-20)
(-1.07661e-05 0.000363616 -1.63186e-21)
(0.000500283 -0.0338162 0)
(0.0653083 -0.120819 -1.05876e-19)
(-0.0022893 -0.0103404 -2.65744e-20)
(0.00503588 0.0337234 0)
(0.000529373 0.00116588 -4.34801e-21)
(-0.0268739 0.0147575 0)
(0.00715308 0.101605 5.01274e-21)
(0.00147869 0.00306599 8.6116e-21)
(0.00361878 -0.0140457 0)
(0.00243221 -0.00912914 0)
(0.0400889 -0.00639863 0)
(-0.00201565 -0.0521613 0)
(0.000132312 -8.78305e-05 0)
(-0.000197438 0.0255992 0)
(0.028681 0.0156587 -2.53247e-21)
(0.0616612 0.0113942 9.91789e-20)
(-0.00209983 0.000419488 0)
(-1.84104e-05 0.000418664 2.05759e-21)
(-0.000322015 0.0180997 2.90307e-20)
(0.000380647 0.000716451 -3.31683e-21)
(0.00120492 0.00209944 0)
(0.0561632 0.0168877 0)
(0.0463323 -0.103622 0)
(0.0334407 0.00146342 -2.33672e-19)
(0.00224894 0.00158742 5.04726e-23)
(-0.0179519 0.000409712 -1.06257e-20)
(0.000526638 -0.000905417 -1.22233e-20)
(0.00102721 0.00217889 2.41966e-21)
(0.000516528 -0.000480272 4.20879e-21)
(0.000768914 0.00102385 -4.76456e-21)
(0.0192606 -0.0107535 0)
(0.00212499 0.00154732 7.16813e-21)
(-0.0110152 -0.000954924 -1.01738e-19)
(0.0940106 -0.279903 8.6089e-21)
(-0.000776706 0.000951661 1.47812e-22)
(0.00033155 -2.52289e-05 4.28303e-21)
(0.0346402 0.00647015 3.9364e-20)
(0.0286144 -0.00424671 1.34151e-19)
(-0.016824 0.00591106 7.25922e-20)
(0.000502883 -0.000851329 1.3617e-20)
(0.0101487 0.00158286 2.39801e-20)
(7.04255e-05 0.000642894 0)
(0.00427026 -0.0104369 3.51453e-20)
(0.000262536 -0.000542597 -2.2238e-20)
(0.000121773 0.000241486 2.41532e-22)
(0.0642616 0.001578 -2.48591e-20)
(-0.00300644 -0.00730714 0)
(0.0148207 0.126545 -9.1681e-20)
(-0.0496514 -0.00655171 0)
(0.000107862 -1.71906e-06 8.86518e-22)
(0.00269898 -0.00325369 3.95058e-20)
(-0.00300638 -0.0160028 0)
(0.00163676 0.0015784 0)
(0.000183638 4.8388e-06 6.98901e-22)
(0.00400083 -0.0669797 2.14767e-20)
(0.000422818 0.00059249 2.7675e-21)
(-0.000371071 0.000804458 -3.2738e-22)
(0.000180149 -6.06626e-05 0)
(0.0182197 -0.0121546 -1.83709e-20)
(0.000256062 -0.000323555 4.91243e-21)
(0.0006506 -0.00169737 1.28506e-20)
(-0.0576586 -0.016222 0)
(0.0410015 0.00390941 -1.18162e-19)
(0.000153999 0.000678591 9.52259e-22)
(0.0393572 -0.0172974 -1.11749e-20)
(0.00234366 -0.0109158 0)
(0.000256325 -0.000296262 5.06482e-22)
(0.00148702 0.0015484 0)
(0.000546416 -0.000679854 2.97121e-21)
(0.000194119 -4.10872e-07 1.93351e-21)
(0.00172084 0.000613799 0)
(-5.96821e-05 0.00662885 5.29197e-21)
(-0.00221649 -0.058215 2.89984e-20)
(0.0168096 -0.0197479 -2.00301e-19)
(0.0013816 0.00176704 1.79585e-20)
(0.000174865 -0.00050469 1.70067e-23)
(-0.0695185 0.131559 0)
(-0.0538176 -0.0479216 0)
(-0.049767 -0.0356796 0)
(-0.00507318 0.00737373 -5.5129e-20)
(0.0240063 -0.00969246 -6.79867e-20)
(0.00140679 -0.00092501 0)
(0.000108435 0.0001513 0)
(0.000136217 1.01124e-05 0)
(0.00109037 -0.000994067 1.37313e-20)
(0.02912 0.00147211 0)
(0.00261859 -0.000591007 0)
(0.00362862 0.00267005 1.89885e-21)
(0.00666786 -0.0267377 2.98735e-23)
(0.00297558 -0.000829395 0)
(0.0237329 -0.0456111 0)
(0.00808576 -0.00458482 -7.74759e-21)
(0.000517092 -0.000800736 -1.10577e-20)
(0.00261252 0.00209279 4.25542e-21)
(-0.00515934 0.00132099 -7.08596e-21)
(0.000804074 -0.000405188 -8.52167e-21)
(0.0522491 -0.0912654 0)
(0.000127388 -3.57817e-06 0)
(1.01248e-06 -0.000799953 0)
(-0.114598 -0.0433461 0)
(0.00323916 -0.00455164 1.80987e-20)
(0.00107211 3.19939e-05 4.82646e-21)
(-0.00596897 -0.0424671 2.87669e-20)
(0.0172777 -0.0204462 -9.95523e-20)
(-0.0184293 0.049298 -2.47991e-21)
(-0.0183691 -0.00571068 1.75775e-20)
(0.000555963 -0.000609059 0)
(0.000639295 -0.00254079 0)
(-0.0882339 -0.142902 -1.26068e-19)
(-0.000687728 -0.0111051 1.57151e-20)
(-0.00637691 -0.026523 0)
(0.00375288 0.0269414 3.89588e-20)
(0.0571418 -0.00476237 -5.51183e-20)
(0.0356344 -0.0449141 0)
(0.0462847 0.00122545 -6.11842e-23)
(0.0473287 0.0127524 -2.40273e-20)
(0.000429584 -0.0015485 -7.62389e-22)
(-0.00440504 0.00191143 0)
(0.000714388 -0.000555437 4.18344e-21)
(0.0292216 -0.00391535 3.30191e-20)
(0.000618511 0.00144959 -9.04692e-22)
(-0.019193 -0.00110386 0)
(0.010777 -0.000243098 -2.84195e-20)
(0.0248096 0.020642 -3.21894e-20)
(0.00376155 0.00107419 -1.76303e-23)
(0.0194283 0.000425595 0)
(6.27491e-05 0.000218004 5.74371e-23)
(-0.0175897 -0.0341726 4.76327e-20)
(4.39443e-05 0.000376574 1.04318e-21)
(0.0378138 -0.00467916 1.25363e-20)
(0.000589149 -0.000504 0)
(0.0111493 0.181612 5.721e-20)
(0.000186065 -0.000364285 0)
(0.0258842 -0.0130548 -2.23395e-20)
(0.00261688 -2.34856e-05 0)
(0.000135948 -0.000487943 -5.15598e-21)
(0.000364451 -0.000222003 0)
(0.00017827 -4.32496e-05 0)
(-0.0548347 -0.0502347 0)
(0.0607276 -0.00280801 -1.45332e-20)
(0.0406537 0.0119031 -4.99949e-20)
(0.00600435 0.00141135 0)
(0.00060492 -0.00264741 0)
(0.00557979 0.0188679 -5.53554e-20)
(-1.21842e-05 1.06155e-05 0)
(-2.55524e-06 2.96591e-05 9.47295e-21)
(-0.0209644 -0.0348747 3.95171e-20)
(0.000346164 -0.000217186 0)
(6.12388e-05 -0.000665741 0)
(0.00692997 -5.4438e-05 4.7645e-19)
(0.000137075 -7.59341e-05 -3.50549e-22)
(0.00619062 0.0259612 0)
(0.0057041 0.0149734 5.86026e-20)
(5.35331e-05 -0.000641789 0)
(0.000251169 -0.000331239 0)
(0.00444951 -0.00609378 5.03368e-21)
(0.000946901 -0.000317732 1.42474e-20)
(0.00447651 -0.00209917 1.96461e-20)
(0.00451824 -0.0186924 -5.3984e-21)
(0.000557206 0.0075992 1.37506e-20)
(-0.000545483 0.00263243 0)
(0.000423814 -0.00489857 -8.92712e-22)
(0.000148272 -0.000619286 0)
(0.241576 0.0293133 1.61257e-20)
(0.000155725 -0.00329681 5.01033e-21)
(0.00149835 0.000303779 4.91424e-21)
(-0.201337 -0.176535 -5.66752e-20)
(0.0209485 0.0049979 -2.11979e-20)
(0.0198727 0.000593178 0)
(-0.0366502 -0.0476539 0)
(0.00359187 -0.005963 0)
(0.00146474 0.000741565 -2.8199e-21)
(0.0219353 0.00577099 1.76367e-20)
(5.45355e-05 0.001029 6.8999e-21)
(0.0603788 0.00272064 7.48067e-20)
(0.0411062 0.104683 0)
(0.000172534 -0.00051573 0)
(0.00419106 -0.0190392 0)
(-0.0339348 -0.00637986 0)
(-0.00164729 0.00642738 1.10616e-20)
(0.000122451 8.28991e-06 -5.56511e-22)
(-0.00163763 0.0061539 6.28098e-21)
(-0.0424311 -0.0364579 -1.74491e-20)
(0.000552334 0.00141955 -2.37274e-21)
(0.000348855 0.000925402 0)
(-0.000774068 0.00104266 0)
(-0.00035698 0.00134415 0)
(0.000785009 0.00125096 -4.22248e-22)
(9.33534e-05 2.28426e-05 0)
(2.0773e-06 3.0406e-05 -7.60529e-21)
(0.0491236 0.00448313 0)
(0.00168592 0.00122727 1.42702e-22)
(0.0691634 0.0116059 6.44337e-20)
(0.000202897 -0.000169555 -5.97019e-21)
(0.0035403 0.00178343 4.69618e-20)
(0.0287358 0.0212259 -7.33215e-20)
(0.000264167 -0.000340394 -2.17061e-21)
(7.18859e-05 0.000417195 1.92725e-21)
(0.00194458 0.000783888 -8.66837e-21)
(2.16559e-05 -0.000209507 6.68742e-21)
(0.00205043 0.00169231 -1.5447e-20)
(0.00346033 0.00115895 7.98778e-21)
(0.000898289 0.000830975 0)
(-0.00834485 -0.00588956 4.03538e-19)
(-0.275761 -0.200567 -1.65405e-19)
(-6.46201e-05 0.000153418 -1.68263e-21)
(-0.0375544 -0.0362989 8.98034e-21)
(0.0563714 -0.00548016 2.43151e-20)
(0.0034471 -0.00159704 -7.14996e-22)
(-0.0127813 -0.0220002 2.74209e-19)
(-0.28215 -0.283317 8.25037e-19)
(0.00179168 -0.00146956 -2.67984e-20)
(0.00101412 0.00527186 2.47e-20)
(0.000904007 0.00301393 1.5613e-20)
(-0.00151355 -0.0295333 2.2691e-20)
(0.00175366 0.0010065 -2.75924e-23)
(0.0060443 0.00234601 0)
(0.000887185 -0.000529847 0)
(-0.139934 -0.122059 -5.74858e-20)
(0.00196518 0.00104219 3.91171e-20)
(0.151789 -0.015981 0)
(-0.00368389 -0.0389056 0)
(-0.00948661 -0.00030339 0)
(0.00175922 0.00107597 0)
(0.000825072 -0.000795526 0)
(0.00467935 0.000416211 2.89829e-20)
(0.0269364 0.0563575 0)
(0.00131511 -0.000941514 -1.03914e-20)
(0.0147573 -0.0641791 0)
(0.000666141 -0.00100066 5.82305e-21)
(-0.0431782 -0.0564128 0)
(-0.00202482 -0.000356058 0)
(0.000426773 0.000586716 2.35333e-21)
(0.000182191 -4.30151e-05 1.09612e-21)
(0.000128138 -6.11758e-05 0)
(0.0531755 -0.0101385 -6.43826e-21)
(-0.0453751 -0.0552687 4.56157e-20)
(0.000401967 -0.00091039 0)
(0.0380863 0.00862996 0)
(-0.000422133 -0.000783807 7.68861e-21)
(-0.0506864 -0.0406276 5.73827e-20)
(0.0616625 -0.00362757 2.28566e-20)
(0.0283194 -0.0111035 2.65637e-20)
(-0.00915303 0.0243401 -4.73119e-20)
(-0.000429697 0.000575613 4.74226e-21)
(0.0413968 -0.00663902 -1.11824e-20)
(0.0111914 -0.00291817 0)
(0.000753693 0.000566393 0)
(0.00202414 0.00440645 -1.2364e-20)
(-0.0177637 -0.0329633 -2.22931e-20)
(-0.124793 -0.0406403 -2.90407e-20)
(0.000425335 0.00218615 1.63642e-20)
(0.000929255 -0.00411569 6.75304e-22)
(0.00104538 -0.000990623 7.51093e-21)
(-7.18752e-05 3.89659e-05 0)
(-0.100342 -0.0114925 5.21245e-21)
(-0.0141063 -0.0160045 -6.2064e-20)
(0.0485147 -0.00776706 -7.84568e-20)
(-0.00323554 -0.0133658 0)
(0.000368448 -0.00104371 -9.32184e-21)
(7.99581e-05 -0.000225319 -4.15806e-21)
(-0.00195621 0.000565765 8.09423e-21)
(1.60249e-05 1.80269e-06 0)
(0.000322134 -1.54062e-05 -2.02359e-21)
(0.00176974 0.00414158 0)
(-0.000708328 0.00178921 3.63015e-21)
(-0.00675084 0.0122777 8.71654e-20)
(0.00174488 0.00161283 -3.21744e-20)
(0.00685431 0.0393572 -4.80905e-20)
(0.02295 -0.0253518 0)
(0.000988898 0.00554303 -8.42312e-20)
(0.00018134 -0.000468054 3.48127e-21)
(0.00378213 -0.00346255 1.69975e-20)
(0.0308915 0.0155983 -4.45632e-19)
(-0.00290512 -0.032504 -2.59571e-21)
(0.0066311 0.00368762 0)
(0.0131092 0.00268562 -9.46829e-21)
(-0.00175632 0.00452333 0)
(0.000510178 -0.000844779 3.46094e-21)
(0.0500588 0.0115984 0)
(-0.0659659 -0.0396031 1.83423e-19)
(0.00172144 0.00013863 3.62209e-21)
(-4.35324e-05 0.000347182 1.41246e-21)
(0.0089584 0.0253273 0)
(0.0357015 0.0188677 -4.22501e-20)
(-0.0101228 0.0540529 0)
(0.000134358 -5.81089e-05 7.69797e-22)
(0.0416015 -0.00527544 0)
(-0.00314037 -0.00251703 -4.356e-20)
(-0.0077173 -0.0593241 0)
(1.55561e-05 0.000343252 0)
(-0.00277318 -0.00202466 0)
(-0.0123212 -0.00123895 -1.16004e-19)
(-0.0445441 -0.0283173 -5.95961e-20)
(0.00214712 0.000540367 -7.04469e-21)
(-2.94811e-06 -0.000368292 0)
(0.0493079 0.0191091 0)
(-2.48057e-06 4.85818e-05 4.02794e-21)
(0.0046186 0.0200434 1.08541e-19)
(0.0595756 0.00375519 3.67957e-20)
(0.0138528 0.0219018 -1.30129e-19)
(-0.00930528 -0.000553766 2.47355e-20)
(0.00904615 0.000476746 -1.04164e-21)
(0.018217 -0.0110512 0)
(0.0022383 -0.00314703 -2.53953e-21)
(0.000731515 -0.00108242 -1.91151e-20)
(0.000510296 -0.00107434 0)
(-0.00643019 0.00458148 0)
(-0.00522608 -0.0383411 0)
(-0.0128101 -0.00114374 6.39215e-21)
(0.0281613 -0.107585 -3.03425e-21)
(-0.000123443 0.000166412 2.96351e-21)
(0.0128566 -0.0284002 -7.47776e-20)
(-1.5063e-05 2.0005e-05 3.39383e-21)
(0.00113547 0.00135048 1.4223e-20)
(0.0173882 -0.00916697 1.00976e-20)
(0.00136932 0.02747 -2.65018e-19)
(0.000132742 -0.000559328 -4.22023e-21)
(-0.000259206 -0.0011225 -8.91411e-21)
(0.00133679 -0.00823561 1.58074e-20)
(-0.0306576 -0.034162 -2.27568e-21)
(-0.007983 0.00486204 -3.83227e-20)
(-0.015534 -0.000609075 3.96472e-20)
(0.00137394 0.00460046 -9.67876e-21)
(-0.00500514 -0.00722788 2.73443e-21)
(0.00560548 -0.0222823 0)
(0.000374337 -0.00118276 -1.16549e-20)
(7.30888e-05 0.000612627 -3.27287e-21)
(0.000230134 -0.00011532 -1.65842e-21)
(-0.000181197 0.00410067 1.84472e-20)
(0.0154274 -0.00118425 -3.6539e-21)
(0.00023063 -0.000551397 3.56319e-21)
(0.0118714 -0.00771579 -2.7577e-20)
(0.000306022 -0.000113859 -4.89397e-21)
(0.000118572 2.67498e-07 5.34009e-22)
(0.000223146 9.70386e-05 -4.24399e-23)
(0.0406159 -0.0145398 4.87392e-20)
(-0.000240402 -0.00122134 -6.71865e-21)
(-2.77044e-05 2.64612e-06 0)
(-0.00386304 0.0031943 5.92133e-20)
(-0.000512117 -0.00244584 -1.81841e-20)
(-5.27837e-05 0.000173169 1.27545e-21)
(0.0654242 0.00106737 0)
(0.000324609 0.000729158 -3.94776e-21)
(-0.00035385 0.000480033 -9.88214e-21)
(0.00440444 0.000358888 -2.89974e-20)
(0.00235465 -0.00216134 -3.39161e-20)
(0.00151059 -0.000698161 0)
(0.00187816 0.00114439 -1.28806e-21)
(0.00639868 0.00924263 0)
(0.00319296 0.0115947 9.24416e-22)
(0.00282064 -0.013357 4.23067e-22)
(-0.0601728 -0.0402526 -7.4021e-20)
(0.00769555 -0.00923588 0)
(0.00174718 -0.0558159 -1.89074e-20)
(0.00223529 -0.00415921 -1.13397e-21)
(-0.0139153 -0.0123661 0)
(0.056141 0.0334242 5.43467e-20)
(-0.0986797 -0.00819317 1.45901e-20)
(-7.02482e-05 0.000369624 -1.28298e-21)
(-0.00632679 -0.0301245 3.77163e-20)
(-0.0322701 -0.0190502 0)
(0.000145475 0.000111203 3.89186e-22)
(0.0507151 -0.00723684 3.71173e-20)
(9.87785e-05 -0.000514828 5.32766e-22)
(0.000191349 3.66532e-05 3.47548e-21)
(0.00192083 7.51443e-06 -1.73198e-20)
(0.000193625 0.000128418 3.3693e-21)
(0.00496381 0.0907226 0)
(-0.00109676 -0.0312189 0)
(3.97899e-05 0.000387127 -3.33685e-21)
(0.0137785 0.0507973 4.49077e-20)
(-0.000601053 0.000362525 4.30647e-21)
(0.0017744 0.00216543 -1.28081e-20)
(0.00419874 -0.0306457 0)
(-7.95447e-05 0.000118972 4.24278e-22)
(0.0430518 0.0138132 0)
(0.00160462 0.00056676 3.42137e-21)
(0.000214456 0.00112048 3.30419e-21)
(0.000394665 -0.000372504 0)
(0.000295224 -0.000110701 -2.08785e-21)
(-0.0297466 0.0309833 0)
(0.0111248 -0.0186923 -1.7332e-20)
(0.0341233 0.00294384 -7.24686e-20)
(-0.00186277 0.00878533 3.08358e-20)
(0.0254063 0.0250281 2.22235e-20)
(0.00277541 0.00161477 1.52632e-20)
(0.000254272 -0.000458503 -5.95478e-21)
(-0.0110372 -0.0191024 -6.99945e-20)
(-0.0152598 -0.000866624 -2.9602e-20)
(-0.00906286 0.0222207 7.71589e-20)
(0.00393783 0.0315032 0)
(-0.0100772 -0.0097003 8.02213e-20)
(0.013739 0.00909006 6.03825e-21)
(0.00161331 0.000311375 3.57792e-21)
(-0.0160218 -0.00537914 2.27356e-19)
(0.00138061 0.000504477 -5.59883e-21)
(0.0452192 0.00962287 0)
(0.000128805 -2.76585e-05 1.75537e-21)
(-0.00272661 -0.00272215 7.05363e-21)
(0.000666788 0.00148923 0)
(-0.0095809 0.0365305 0)
(0.00120823 0.00241147 -4.71441e-21)
(0.000475088 0.000502697 -2.10598e-21)
(0.0731807 0.0133699 0)
(-0.000699902 -0.0024178 0)
(0.000396647 -0.000328789 -4.57603e-22)
(0.0184017 0.0205001 0)
(0.0017411 -0.000472014 0)
(0.000224455 4.74228e-05 7.3272e-21)
(0.00320379 0.00196547 -1.38196e-21)
(-0.00624506 -0.00258831 -4.64743e-20)
(-0.0358602 0.00096337 -4.91695e-19)
(0.0308141 0.0229194 0)
(-0.0504157 -0.0441148 -6.23413e-21)
(0.0372994 0.00972751 0)
(7.32614e-05 -0.000273594 -1.96883e-21)
(2.22803e-06 -0.000305486 3.27075e-21)
(0.0439362 -0.00605774 1.01431e-20)
(0.000246278 -0.000144566 0)
(0.000692719 -0.0230826 8.77131e-20)
(0.00695046 0.00409823 -6.00641e-20)
(0.00148798 0.00272641 1.29233e-21)
(4.52644e-05 -0.000691299 -1.14925e-20)
(0.00117564 0.0151764 -3.75463e-22)
(3.9853e-05 -0.000263597 -7.91349e-21)
(0.000276662 0.00105991 -3.0907e-21)
(0.00294753 0.00267763 -6.12814e-20)
(-0.000857495 -0.023787 -8.58018e-20)
(0.0189101 0.0999324 -5.09745e-21)
(-0.0259408 -0.015785 0)
(0.00113942 -0.00458805 -4.18163e-21)
(6.30521e-05 -0.000297083 -3.71351e-23)
(0.0072928 -0.00281755 2.70353e-20)
(0.0570372 0.0252517 9.17207e-20)
(0.000290963 -0.000178242 0)
(0.00956976 -0.00282685 0)
(-4.06687e-05 0.000626811 -1.40403e-20)
(-0.00475466 -0.0308486 -5.06491e-20)
(0.00203765 -0.00327333 1.28921e-20)
(-0.00565883 8.07061e-06 0)
(0.000131646 -2.37012e-05 0)
(-0.026456 -0.0208405 1.42535e-20)
(-1.90254e-06 -1.66823e-05 1.37199e-21)
(0.00358894 -0.0048264 2.9956e-20)
(0.00076212 0.000220769 1.32757e-22)
(-0.000172707 0.00388265 1.66432e-20)
(0.000543658 0.00601468 0)
(-7.3927e-05 0.000144509 0)
(-0.000381174 0.000386679 6.34271e-21)
(-1.87107e-05 0.000194462 -1.22091e-21)
(-0.055025 -0.0503345 0)
(0.066288 -0.00139133 -1.10418e-19)
(0.00615498 0.00169302 3.94895e-20)
(0.0398442 0.015033 0)
(0.000539233 -0.00127198 2.67189e-22)
(0.00227586 0.00655027 -9.74664e-20)
(0.00113558 0.00145497 1.46417e-20)
(-0.0140616 -0.0354113 0)
(-0.00410594 -0.00309088 4.07765e-20)
(0.00290563 0.00050438 0)
(-8.23836e-05 0.000193832 0)
(0.00991295 -0.267319 0)
(0.00031578 -0.00012892 2.76016e-21)
(0.000526093 -0.000764925 -1.87431e-21)
(0.00256993 0.000709291 0)
(0.0369118 0.00472266 4.76595e-20)
(0.0464577 0.00951481 0)
(-0.0127025 0.0325929 5.07727e-19)
(0.0155098 -0.0245431 5.54919e-20)
(0.00302037 -0.0148478 -3.85802e-21)
(-0.000898545 -0.00273256 1.0146e-20)
(0.000661374 -0.000351782 0)
(0.0425279 -0.0264048 -1.86984e-20)
(0.00018345 7.17782e-05 -7.02727e-21)
(0.000319384 0.0234364 0)
(0.00153165 0.00153174 0)
(8.39124e-06 -0.000480472 0)
(0.000103362 -0.0323587 -4.57331e-20)
(0.0305534 0.0276021 -5.4165e-20)
(4.35639e-06 -0.000804393 -7.39844e-21)
(0.0317801 0.0043445 -1.57953e-20)
(0.00163428 0.00161362 0)
(0.0226888 0.0112677 0)
(-0.0199145 -0.0101304 4.21859e-20)
(-0.0252339 -0.0297254 3.43568e-19)
(0.028208 0.0272963 -5.86021e-21)
(0.049133 0.0428076 -1.18027e-19)
(0.000134608 -7.0865e-06 -4.80099e-21)
(-0.000102444 2.27644e-05 3.01997e-22)
(0.0179313 -0.0272082 -2.83911e-21)
(0.000829859 -0.000214832 0)
(0.000861672 0.000186541 0)
(0.000906337 0.00136382 -2.30274e-20)
(0.000825415 -0.00101175 0)
(-0.0584652 -0.0462323 -5.38062e-20)
(0.0471506 -0.0211862 0)
(-0.00153935 0.0115357 -5.07741e-20)
(0.0146398 0.022276 -4.21287e-20)
(-0.000652671 -0.00624999 0)
(0.0239209 -0.0185245 0)
(0.00193826 0.00418497 5.82178e-20)
(0.000176546 3.39288e-05 0)
(-5.35544e-05 9.98787e-05 1.03351e-21)
(0.000193873 -6.39874e-05 0)
(0.0458809 0.00353009 0)
(-0.105699 -0.0118165 1.68709e-21)
(0.0462334 0.0152409 5.91298e-20)
(5.17356e-05 -0.000657928 1.03584e-20)
(-9.15571e-05 0.000168115 0)
(0.00143171 0.00577211 -2.7997e-20)
(6.14945e-06 0.00144852 0)
(0.000331222 7.08186e-05 9.1014e-21)
(0.00438105 0.00459725 0)
(0.0166917 0.0890815 -1.42852e-19)