/*--------------------------------*- C++ -*----------------------------------*\
| =========                 |                                                 |
| \\      /  F ield         | OpenFOAM: The Open Source CFD Toolbox           |
|  \\    /   O peration     | Version:  v2012                                 |
|   \\  /    A nd           | Website:  www.openfoam.com                      |
|    \\/     M anipulation  |                                                 |
\*---------------------------------------------------------------------------*/
FoamFile
{
    version     2.0;
    format      ascii;
    class       surfaceScalarField;
    location    "200";
    object      ddtCorrDdt0(phi);
}
// * * * * * * * * * * * * * * * * * * * * * * * * * * * * * * * * * * * * * //

dimensions      [0 3 -2 0 0 0 0];
oriented        oriented;


internalField   nonuniform List<scalar> 
27907
(
-0.00440084
0.00213423
0.00226659
-0.00122257
0.00113695
8.56918e-05
-2.91653e-05
4.51463e-05
-1.59887e-05
-0.00338623
0.00487822
-0.00149205
0.00135846
0.000866949
-0.00222542
-0.00202382
0.00171466
0.000309143
0.000426669
-5.65798e-06
-0.00042095
-7.63608e-05
6.30941e-05
1.32608e-05
-0.00127528
0.00216433
-0.000889036
-0.00114544
0.00238293
-0.00123744
-0.000279824
0.000489846
-0.000210007
-0.000394098
-0.000253237
0.000647278
-3.43683e-07
-4.66489e-05
4.69892e-05
0.0044743
-0.00446623
-8.07946e-06
-8.91168e-05
0.000322307
-0.0002332
0.00321923
-0.00152351
-0.001696
-0.000120275
0.000513169
-0.000392849
1.99315e-05
5.46867e-05
-7.46103e-05
-0.000153991
0.000119545
3.44511e-05
0.000676268
-6.81205e-05
-0.000608189
0.000500236
-0.000181531
-0.000318682
-6.04201e-06
-1.75997e-06
7.80769e-06
-0.000699954
0.000337529
0.000362445
0.000302421
0.00188132
-0.00218374
0.000544366
-0.000136865
-0.00040747
-7.53156e-05
-1.04115e-06
0.00606542
-0.000441134
-0.0056243
-0.0021001
6.5922e-05
0.00203417
0.00338051
0.000432336
-0.00381279
-0.000920604
-0.000117499
0.00103807
0.00110452
0.000155731
-0.00126022
-0.000496223
0.00165397
-0.00115774
3.07588e-06
-6.88125e-06
3.8029e-06
-0.000321011
0.000590787
-0.000269723
-0.00223141
0.00187649
0.000354899
-4.50034e-05
-0.000140188
0.000185225
2.1034e-06
1.56208e-06
-3.66514e-06
0.000198876
-0.000297163
9.82761e-05
0.000159103
0.000205381
-0.000364454
0.000238551
-0.000360277
0.00012176
0.000273084
0.000110531
-0.000383633
7.22571e-05
-7.23151e-05
-1.68831e-09
-0.000132891
2.5279e-06
0.000130354
-0.000794839
0.00162757
-0.000832684
0.00314497
-0.00381317
0.000668056
-1.14968e-05
-1.99388e-05
3.14686e-05
-0.000490161
-0.000209759
-0.000233031
0.000385775
-0.000152714
-0.00109546
-4.98977e-05
0.000100201
3.26514e-06
-0.000103501
0.000628579
3.23487e-05
-0.000660814
-0.00269328
0.000545083
0.00214821
3.47081e-06
4.02475e-05
-4.37082e-05
-0.000307471
2.76387e-05
0.000601273
-0.00270134
-0.000216696
0.00216764
-0.00195093
5.55131e-06
-3.44606e-06
-0.00581866
0.0027403
-0.00025182
0.000156274
9.55494e-05
-0.00470334
0.00128685
0.00341653
0.0101448
-0.00330982
-0.00683501
0.00038764
3.90083e-05
-1.37368e-05
-7.92304e-05
9.30133e-05
2.35698e-05
0.000118717
-0.000142299
3.46821e-05
-3.12299e-05
4.43004e-05
-0.000111305
6.69957e-05
-0.000202351
0.000296551
-9.41723e-05
9.33499e-06
-6.26008e-06
0.000291955
-0.000248516
-4.34027e-05
-0.00153926
-0.00115402
0.000530555
0.000598289
-0.00112885
-0.000347016
0.000159617
0.000187368
-1.00878e-05
0.000110272
-0.00111149
2.78001e-05
0.00108379
0.00012789
-8.25042e-05
-4.54168e-05
0.000232914
-0.000171809
-6.11111e-05
-0.000952982
0.0034677
-0.00251474
0.00246578
-0.000768987
-0.00169676
-0.00408005
-0.00167176
0.00575169
0.000244255
-5.14058e-05
-0.000192857
-0.000160641
0.000167437
-6.77896e-06
0.000783247
0.0020064
-0.00278965
-0.00187418
-0.00282916
0.00129454
-0.00191282
0.000618271
0.00212066
-0.00307364
0.000329729
-0.000445349
0.000115595
-0.00284697
0.00144529
0.00140146
0.000335258
-0.000348962
0.000221904
-0.000240914
1.89988e-05
0.000178652
5.42811e-05
0.00182641
-0.000531876
-0.000176449
-7.53988e-05
0.000766246
-0.00150327
0.000737051
0.000467022
-0.000394751
-4.90948e-05
0.000184662
-0.00013557
0.00143311
-0.000666863
0.000997697
0.00112296
3.73293e-05
9.0573e-05
0.000136679
-0.000125898
-1.07963e-05
0.000413088
8.71536e-05
-0.000301056
0.00108217
-0.000781073
-0.000849364
-0.00122453
0.0020739
-0.00126438
0.00120048
6.38972e-05
0.00123225
-0.000830821
-0.000401411
0.0012489
-0.0017451
-0.000917309
-3.31378e-06
-0.00437508
0.000138859
0.00423622
0.00111215
0.00135361
-1.00709e-05
-0.000218411
0.00022853
0.000186788
-0.000130374
-5.63684e-05
0.00117987
0.000253215
-0.0011114
3.34629e-05
4.04184e-05
-7.38511e-05
-0.000223258
0.000212652
1.05914e-05
-0.002527
0.00173736
0.000789651
-0.000659433
9.82169e-05
0.000561232
0.0021268
-0.00187266
-0.000254135
0.00033729
-0.000426415
-0.000180504
0.000443857
-0.000263374
-0.000192557
0.000143477
0.000413868
-0.000127347
-0.000286438
-2.14294e-05
0.000122481
-0.000101077
-0.00146806
0.00197282
-0.000504687
0.0100671
-0.00197052
-0.00809682
0.00213171
-0.00392508
0.0017934
0.000753212
0.00239167
-0.000118803
-0.00110375
0.00248682
-0.00227111
-0.000215701
-0.00104459
-0.000458686
5.25936e-05
-7.50021e-05
2.24274e-05
-0.000524666
0.000404402
-0.00973572
0.0158012
-0.000270784
8.92997e-05
0.00131524
0.00293608
-0.00425129
0.00364259
-0.00214968
-0.000123696
-0.000222679
0.000346383
0.000926363
0.00254135
0.000556627
-0.000318085
0.000125253
1.1424e-05
-0.00294679
-0.000344917
0.00329177
0.00473181
-0.00881188
0.00598836
-0.00520072
-0.000787473
-0.000175243
0.000274943
-9.97405e-05
-0.000694848
0.000478162
4.99204e-05
0.000223159
0.000324636
-8.19114e-05
-0.000242726
0.00200751
-0.0020708
6.33126e-05
0.00348711
0.000836822
-0.00432395
-0.000432323
0.00153687
0.00117622
-0.00069624
-0.00047999
0.00198162
-0.00119825
0.00410504
-0.00309684
-0.00100818
0.000564435
-0.00057788
1.34347e-05
-3.83226e-06
4.51735e-06
-6.81827e-07
0.000582743
-0.000495636
-8.71032e-05
0.000116858
5.286e-06
-0.000122094
-0.000304126
0.000123598
-0.000337414
0.00010439
0.00034083
-9.85022e-05
-0.000242341
2.19164e-06
3.55063e-05
-3.77365e-05
-6.22188e-05
9.94837e-05
-3.72708e-05
-0.00239047
0.00149458
0.000895864
0.000216459
0.000631562
-0.000848074
-5.25643e-05
0.000393412
0.00485453
0.00529028
0.00428793
-0.000907411
-0.000245242
0.000279476
-3.42194e-05
0.00149949
-0.000825016
-0.000674518
-0.000605432
-0.000678961
0.0012845
0.00134347
0.000524545
-0.001868
-0.000167494
0.000500398
-0.000332901
-2.52587e-05
4.51853e-05
0.0016131
-0.0013967
-0.0024346
0.00201111
0.000423493
-0.00052632
-0.00186415
0.0017544
-0.00145198
0.0028118
0.000423861
-0.00323566
0.000321682
-0.000298092
-0.00302419
7.74096e-05
-0.000245795
0.000225541
2.02751e-05
2.14316e-05
-7.35998e-05
5.21797e-05
-0.000976023
0.000976031
0.00338837
0.000716696
-0.000153263
3.0946e-05
0.000122321
-0.000436121
0.000351256
8.48713e-05
-0.00493632
0.0026679
0.00226846
-0.000145776
2.61809e-05
0.000119603
-0.000319515
-0.000339932
0.000121581
1.22277e-05
-0.000133835
-0.000140345
0.000161206
-2.08829e-05
-0.000943382
0.00225865
0.00175416
0.000732669
-5.03967e-05
0.000369192
-0.000318807
0.00109149
-0.00152377
0.00122645
-0.00144546
0.000219
0.000647198
-0.00031196
0.00126834
-0.000592063
-0.000705917
0.000100509
2.32759e-05
7.29496e-05
-9.62378e-05
-0.000149185
1.62827e-05
-0.00280376
0.00163269
0.00117104
3.25265e-05
-0.000369946
0.00104281
0.000133388
-0.0011762
-0.000984168
0.000343227
0.000640961
-4.43154e-05
4.39724e-05
0.00104226
0.000184216
0.00136805
-0.000456829
-0.000911188
-6.91235e-07
-3.13478e-06
-6.79417e-06
-0.000138503
0.000145275
7.00134e-05
-0.00116548
-1.69556e-05
7.24711e-05
-5.55192e-05
0.0011317
0.000100525
-0.000144945
0.000310123
-0.000165182
-0.000327689
-0.000240162
0.000567914
-0.00224292
-0.00083467
0.00307747
7.5014e-05
7.14484e-05
-0.000146436
0.00311752
-0.00536042
-0.00855256
0.000733246
0.00781927
-0.000131044
7.78945e-05
5.31252e-05
-0.00157906
-0.000444757
3.77307e-05
-0.000259852
0.000249782
0.000954207
-0.00221091
0.00125665
0.00176081
0.000246708
0.000352606
2.87906e-05
-0.000381415
0.000418407
0.000949611
-0.000158102
0.000650915
-0.000492804
-0.000835139
0.000486502
0.000348713
-6.71494e-06
-7.7225e-05
8.39781e-05
0.000546402
0.000119744
-0.000666113
8.05431e-05
-3.6253e-05
-0.000188913
0.000836123
0.000631089
-0.000560281
-7.07407e-05
0.003206
-0.0022083
2.80936e-06
-4.94588e-05
2.03463e-05
-0.000166082
7.5375e-05
-8.20676e-05
3.4068e-05
-1.57927e-06
-3.25061e-05
0.000611242
-0.00207927
0.000739122
-0.000707436
-3.16606e-05
1.84827e-05
-0.000134562
0.000116085
8.90493e-05
-0.00102122
0.000932167
-0.00340983
-0.000965213
-0.000321833
0.000338839
-1.70202e-05
0.000383578
0.000792638
-0.0010646
0.00144779
-0.000383145
-0.00040036
0.00360634
0.000145248
-0.000190229
0.000209118
-0.000133408
-7.5705e-05
2.20774e-06
-0.000123007
0.000120828
-0.000185924
0.000237865
-5.19229e-05
0.00129947
0.000200038
0.000127477
0.000202262
9.39764e-05
-9.17532e-05
-0.000177703
-2.37078e-05
0.000201406
0.000173626
-0.000381027
0.00020735
0.000226015
-0.00427969
0.00405372
-0.00975465
0.00120217
-0.000450225
0.000122567
-0.000203544
-0.00351183
0.00371541
-6.09168e-05
0.000170642
-0.000162361
-0.000700628
0.000862977
-0.00019455
4.03186e-05
0.000154271
-0.000569377
-0.000414774
-0.000446451
0.000516581
0.00270716
-0.00175297
0.000759079
-1.25741e-05
-0.000746459
-5.94899e-05
-7.15498e-05
-0.000286397
0.0003198
-3.34053e-05
0.00257756
0.00153064
-0.00410812
-7.21335e-05
-0.000214247
0.000111866
-0.000547989
0.000889645
0.00322561
-2.70432e-05
-0.00319854
0.00219578
-6.89881e-05
-6.41004e-05
0.000196678
-0.000132607
0.00205419
-0.000731361
-0.0013228
-0.00631006
0.000638986
0.00567113
0.0023955
-0.000389162
0.000424975
-0.000316682
-0.00010827
-0.000205738
0.000167388
3.83312e-05
8.8769e-06
-0.000182083
0.000173229
0.000203747
0.000535374
-0.000100011
-7.52526e-05
-0.00612917
-0.000180814
0.00069762
-0.000608477
0.000822283
-0.000627716
-0.000194575
-0.000270757
0.000140947
2.72569e-06
0.000116931
-0.00011967
8.47511e-06
-3.76138e-05
-0.00352668
0.00544974
-0.00192308
0.000386055
-0.000310989
0.000412827
-0.000578185
0.000165337
-0.00187535
0.000573546
-0.000218052
-0.000355495
-0.00017757
0.000744649
-0.000567117
4.84834e-05
-7.16642e-06
-0.000146832
0.00582531
-0.0028295
-0.0029958
-0.00056935
3.55444e-05
-4.70437e-05
0.00232496
0.000709551
-0.00303452
0.00374518
-0.00263132
-0.00111381
8.39425e-05
0.000207994
-0.000419116
0.000206041
0.000213073
-0.000389742
0.000434384
-4.45535e-05
-7.00236e-05
-0.000174346
0.000244394
4.11986e-05
-0.000227104
0.000480772
-0.000627182
0.000146455
0.00246268
-0.00164041
-0.000125356
9.13535e-05
3.39774e-05
0.000404998
-0.000471487
6.64704e-05
5.12547e-05
-0.000871556
0.00122419
1.61715e-05
7.27767e-05
-8.89885e-05
5.26023e-05
0.00206554
-0.00137364
-0.000691892
-0.000284477
-3.73861e-05
-0.000142365
-1.09175e-05
-0.000198955
4.69058e-05
0.000152044
0.000395367
0.000339108
-0.000734522
0.00161316
-0.00229216
0.00016648
-0.000556171
4.00018e-05
-3.11461e-05
-0.000562476
-0.000145033
-0.000436798
0.000368639
0.00860391
-0.00954728
-0.00014983
8.89379e-05
5.52466e-05
-5.30564e-05
-0.00182341
-0.000447683
-0.0019835
0.000571092
0.00141233
0.00183331
0.000220891
0.00124641
-0.00463267
-0.000256779
0.000669583
-0.000155914
0.000105458
5.33343e-05
-7.03906e-05
1.70772e-05
0.00421977
0.00160553
-0.00152785
0.00385278
-1.89858e-05
9.43367e-05
-1.92668e-05
8.81686e-05
-6.89018e-05
6.93454e-05
-8.83374e-05
0.000233681
-0.000357395
-0.000132212
-0.000702968
0.000896956
-0.000352571
7.09108e-05
-9.23472e-05
2.09268e-05
0.000315675
-0.000336615
-4.2637e-07
0.000103421
-0.000102977
0.00221884
0.00100016
0.00540665
0.000581739
-0.000253528
0.000547092
-0.000293544
-0.000236208
0.00139089
-0.00115464
-0.00019337
-7.66162e-05
0.000269999
-0.00141343
-0.000394042
0.00180747
-0.00815372
0.00375282
0.000718731
-0.000272003
-0.000446665
0.00156057
-0.00146596
-9.45291e-05
4.97656e-05
0.00122784
-0.00175965
0.000531856
-0.00138534
-0.00355098
8.28362e-05
-2.49966e-05
-5.78496e-05
-0.0015138
-0.000740984
0.00225484
-0.00122276
-0.000837352
0.00206017
0.00322758
-1.95337e-06
-0.000429935
0.000350935
7.89512e-05
-0.000114689
0.000117385
0.000202226
-0.00105712
0.000854843
0.000174242
5.17129e-05
-0.000225956
0.000245876
1.98359e-06
-0.00024785
-0.00291518
0.000684911
0.00223028
0.00575501
0.00164774
-0.0074028
-0.00180273
0.00262518
-0.000822473
0.000191935
-0.000628792
0.000704969
5.41098e-05
-0.000300311
0.000227237
7.31176e-05
0.000150652
-0.000118164
-5.15988e-05
0.000171211
-0.000119619
-0.000205913
0.000365035
-0.000400228
-0.00119599
0.00159621
0.000159444
0.000227526
-0.000387002
0.000412978
-7.96863e-06
0.00815926
0.0032315
-0.0113905
3.2856e-05
-0.000210561
-6.6779e-05
-5.85963e-05
0.000509192
0.000979414
-0.0014886
-0.00257134
0.000768606
-0.000457483
-0.000817797
-0.000216894
-8.34039e-05
0.000771527
0.000261961
-0.00103348
-0.000163878
-4.18817e-05
0.000115484
0.000678591
-0.000794078
7.11304e-06
0.000115365
-0.000105111
4.56236e-05
0.00198588
-0.00229571
0.000309855
0.000249497
-0.000256314
0.00697339
0.000308645
-0.0072821
-0.00166707
-2.74692e-05
-2.41121e-05
5.15702e-05
0.000631093
-0.000785897
0.000154788
-0.000779211
0.000495297
0.000283904
0.000421169
-0.000247556
7.21943e-05
-3.87216e-05
0.00475645
-0.00351006
9.91155e-05
-0.000192165
9.30393e-05
0.000137727
-0.000182209
4.44784e-05
7.42834e-05
-5.28537e-05
0.000631521
-0.00103177
0.00011771
-5.18902e-05
-6.58551e-05
-0.000551084
-0.000243741
0.00337676
-0.00361297
1.17701e-05
-0.00156446
0.00155274
6.46789e-06
-0.000205421
-0.000608379
0.00196684
-0.000980032
0.000804267
0.000175769
0.000126674
-0.000110527
-0.000361052
0.000385611
-2.45699e-05
-0.000186997
-6.47745e-05
0.000251725
5.32009e-05
-0.000249025
7.14407e-05
3.71739e-06
-0.000154436
0.000150764
0.00517589
0.00342799
-5.25313e-05
-0.00101209
0.000138635
0.000275208
-0.000109513
-4.42541e-05
0.000153807
-0.00349917
0.00607673
0.00356271
-0.000940278
-0.00262243
-0.00264619
-0.000641473
0.00328773
-0.000410766
0.00024327
0.00232109
-0.00250433
0.000183281
0.000220834
-0.000419787
0.000198897
-5.42971e-05
-5.08204e-05
-5.01258e-05
6.86124e-05
-0.000266456
0.000121507
0.00163441
0.000990746
0.000182209
3.56399e-07
-0.00018249
-0.000790522
0.000504904
0.00028564
-0.00317542
0.00692064
0.00011907
0.00351192
-0.00241832
-0.0010936
-0.000845977
1.36964e-05
-0.000200735
-0.000683978
0.000121535
0.000362838
-0.000140992
-0.000197316
-0.000159315
0.000356651
0.00686298
-0.00110797
5.33324e-05
-4.55556e-06
0.000293594
-0.000338202
0.00458999
-0.00425182
-0.000188297
-0.000288854
0.000477111
-8.04972e-05
-0.000297183
0.000377659
-0.00219929
0.00242529
-0.000729197
-0.00150219
-0.00210294
-0.00142372
-0.000588017
-0.000456599
-0.000145623
-2.61751e-05
-0.00011385
0.000450305
-0.000336423
-0.000790334
-0.00053122
0.000277948
0.00164113
-0.00109687
-0.000544332
-0.00151115
-0.000559955
0.00207117
0.00342109
0.0010532
0.00320283
0.000309093
-9.58067e-05
0.00171094
-0.00161513
-0.00317938
-0.000285419
-6.16416e-05
-0.000539361
6.37831e-05
0.000475528
-0.000214707
-8.56635e-06
0.00261809
-0.000983655
0.000286072
-0.000110012
-0.000175984
-0.000877886
0.000289902
0.00106474
-0.000293235
-0.00201221
0.000789476
-0.000437443
-0.000353073
0.000146726
0.00138726
-0.00153393
6.9616e-05
0.00260331
-0.000721975
-0.000120637
0.00011054
0.00159154
-0.0003637
0.000130864
-0.000182477
-0.00985248
0.00141624
0.00843623
-0.000148993
0.000168533
-1.9498e-05
0.00212277
-0.00139951
-0.000723293
-6.59177e-05
0.000311785
-7.03246e-05
-0.000151918
0.000222232
-0.000107651
-1.82684e-05
2.39247e-05
5.03871e-05
0.00125657
0.00296878
-0.00422535
0.00168801
0.000537136
-0.00222512
-0.00145377
-0.00107321
-0.000724724
2.32576e-05
0.00070148
-0.000109773
-5.22828e-06
0.000115025
-0.00102938
0.0014638
-2.8343e-06
-1.9074e-07
3.02792e-06
7.12238e-06
-5.63162e-07
-6.5952e-06
-0.00181461
-8.25691e-05
0.00189719
-0.000108657
1.011e-06
-0.000188108
0.000207091
-1.8978e-05
0.000722609
-0.000149016
1.46242e-05
6.81942e-05
-0.00217445
0.000663268
0.000243926
-0.00127327
-0.000207897
1.97936e-05
5.46867e-05
6.30148e-05
-0.000284212
-0.00012024
0.000404462
-0.00012065
-7.66627e-05
0.000328143
-0.000211256
-0.000854024
0.00123759
-0.00110434
0.000541523
0.000562841
0.00110018
0.000541011
-0.00032737
0.000192358
0.000135034
6.36624e-05
-0.000173141
-0.00685029
0.00284646
0.00400384
-0.000518093
0.000462686
5.54029e-05
6.14903e-05
-0.000246865
0.000185354
-0.00509259
-0.000135543
0.00522791
0.000672724
0.000266385
-0.00093908
-0.0013671
0.00151385
-0.00165814
-0.000685799
0.00234396
-0.000379761
-5.01975e-05
-0.000198357
-0.000481934
0.00115465
-1.96518e-05
-0.000225582
-0.000425283
0.00208278
-0.0016575
-0.00113586
-0.0087166
0.000122343
-0.000203485
8.11252e-05
0.00012953
-0.000983571
0.000340733
8.49447e-05
0.000117218
-3.41381e-05
-2.62642e-05
6.03913e-05
-0.000996185
-0.000987343
0.00215583
0.000423903
-0.00257976
0.000309418
0.000244417
-0.000118291
-0.0001261
0.000141886
0.000180412
0.000154088
-0.00022411
0.000277178
4.74575e-05
4.64661e-05
-3.57459e-05
-1.07393e-05
7.10656e-06
0.0022753
-0.00226353
-0.00045895
0.000199566
0.000259417
0.00263453
0.00165344
-5.85173e-05
7.05831e-05
-1.20676e-05
0.000251814
-5.27747e-05
-0.000199136
-0.00177822
-0.00013874
-5.57851e-05
-2.75971e-05
-2.2142e-05
-0.000223813
0.000245979
-2.3589e-06
-4.33267e-05
4.56701e-05
0.000108916
0.000316055
-0.000455232
0.000387671
6.76399e-05
-0.000260907
1.50687e-05
0.00012584
-7.07526e-05
-5.50122e-05
0.00535422
-0.00313545
7.66223e-05
-2.7614e-05
-4.9007e-05
-3.78066e-05
-0.00209198
0.00212977
-0.0027041
0.00273711
-3.29787e-05
0.000219757
-1.28208e-05
-0.000207052
-7.54152e-05
-0.00046392
0.00511926
0.00185405
4.31716e-05
-0.000663484
-0.000440856
-0.000130471
0.000414853
-0.000284354
0.00104307
-0.000512519
-0.000252577
-0.000206348
-0.000428277
0.00100232
-0.000574008
-0.00024761
0.000143322
0.000104302
0.00218863
0.00680761
-0.00899621
-0.000131023
-0.000176394
0.000307483
0.00621342
-0.000806739
0.00119946
-0.00218028
0.000980863
0.000386802
8.06789e-07
-0.000274725
-4.1268e-05
-0.000186305
0.000227566
-0.000461071
0.000383303
7.77521e-05
-0.000817143
0.00272023
-0.00190296
-9.58333e-05
0.00302255
-0.000890828
-3.24603e-05
-0.000238133
0.000270583
-0.00398445
0.000574586
-0.000215666
-4.12639e-05
0.000256981
-0.000104727
0.000208342
-0.000103642
-4.89521e-05
7.28749e-05
7.25605e-05
-1.31592e-05
-5.93937e-05
-0.00221351
0.0024848
-0.000271306
-0.00108978
-0.00289468
-6.75356e-05
-0.000149351
-0.00290309
0.00246412
0.000438975
0.000450823
0.000106996
-0.000557853
-0.00418469
0.00153848
0.00226431
-0.000576283
0.000709129
0.00135637
0.00048442
-0.000999384
0.00051499
-0.00016837
0.000177294
-8.93417e-06
0.00186716
-0.00180122
0.00135237
-0.000260885
2.68392e-05
0.000119
-0.000145837
-0.000169404
-3.29734e-05
-0.00126952
-0.00491188
0.00457369
4.52155e-05
-0.000366246
-0.000481807
0.000500237
-1.84091e-05
0.000303072
-0.000100735
-0.000202338
3.97881e-05
-1.45958e-05
-2.51795e-05
0.00291114
-0.00402165
0.00111046
-0.00125485
-0.000199982
0.0014549
-0.000400437
-0.00024572
-0.000533505
0.000233067
-9.58862e-05
-0.000137179
8.12899e-05
-5.8022e-05
-0.000180413
0.000491883
-0.000311554
9.50459e-07
-7.00449e-06
-0.000111117
4.88935e-05
-0.000499711
4.45012e-05
0.000293075
-9.2891e-05
-0.000200185
4.66205e-05
0.000162358
-0.000293375
0.00230846
-0.000326365
-0.00198209
-0.00199964
0.000743523
0.00125608
0.000314885
-0.000874789
3.58635e-05
-0.000184858
0.000247745
-0.000436005
0.00232584
-0.00226175
-6.41039e-05
-0.00127452
-0.000443898
0.00171846
-0.000796727
0.000368464
4.34855e-05
-0.00086018
0.000816724
0.000603835
-0.000449729
-0.000154071
-0.000239007
0.00017154
-0.00352373
0.000620645
0.00482313
-0.00340389
-0.00141929
5.38248e-05
0.000315417
-0.000145921
6.90535e-05
7.68086e-05
-0.000803056
0.00163466
-0.000831601
0.000977055
0.00160257
5.49402e-05
1.76243e-05
-0.00165609
-0.000103528
-0.000125263
0.000125272
0.000461934
-0.00127904
0.000101866
-9.86006e-05
0.0001767
-0.000130471
-4.61866e-05
-0.000530291
0.000361298
0.000169014
0.00305837
0.00024252
-8.30782e-05
-5.3915e-06
0.000137459
-0.00261075
0.00322432
-0.000613571
7.08913e-06
-7.1168e-06
-0.000377312
0.000928582
-0.000551286
-0.00216667
0.0017414
0.00192543
-0.00144118
-0.000484276
7.96171e-05
0.00030716
0.000239427
0.000711918
-0.000951388
0.000993288
-0.000397805
-0.000595429
-0.00027147
0.000275169
-0.000109295
0.000302638
-0.000193322
-0.000436039
-4.58217e-05
0.000194503
-0.000349733
0.000155241
0.000528964
-0.002628
0.00209897
-4.95498e-05
-0.00443632
0.00608408
9.99027e-05
0.00104963
-0.00142691
-9.38166e-06
6.53983e-06
3.03239e-05
-0.000188435
0.000567352
0.000802749
-0.00137006
0.00252055
-0.00189193
0.000210652
-8.83042e-05
-5.72728e-05
-0.000242067
0.000299289
0.000143837
0.000487246
-0.00158807
0.00155026
0.000423947
-0.000229447
0.000452388
-0.000562589
0.000110258
0.000594807
0.000123904
0.000470053
-0.000771053
0.00223339
-0.00263376
-0.000260844
0.000281783
0.000181131
-0.000150903
-3.0241e-05
3.48712e-05
4.74232e-05
-8.23101e-05
-0.00082017
0.000388894
0.000431307
-0.00121135
-0.000152129
0.000145713
6.48954e-06
-0.00112795
0.00169533
-1.44222e-05
-7.71554e-05
9.15753e-05
-5.12378e-05
-2.37689e-05
-2.23154e-05
6.29206e-05
-4.05964e-05
0.00150025
-0.00221239
0.00071212
0.000382659
-0.000195852
7.90977e-06
4.20484e-06
-1.21052e-05
-0.000294778
0.00011433
-0.00030299
2.50357e-05
0.000277981
3.49339e-05
4.16845e-05
0.00244067
-0.000454799
-4.93262e-07
0.00017475
-0.000163452
6.2581e-05
0.000100873
7.20181e-05
-0.00022677
0.000154678
-0.000174928
8.62948e-06
0.000166277
2.08124e-06
-0.000459951
-6.4911e-05
0.000524865
-1.55609e-05
5.92173e-05
-0.000877131
0.00129239
-0.000127522
-0.00116495
0.00269213
0.00213099
0.000616294
0.000676074
0.00336987
0.00138651
0.00109686
-0.00132562
0.00257971
-0.00370935
0.0011297
0.00387045
-0.000959314
-7.65772e-05
0.00158175
-0.000983465
0.00261215
-0.00147578
-0.00113636
-6.64483e-05
1.60213e-05
5.04367e-05
0.000521174
0.00124157
-0.00176272
-0.00021277
0.000158467
5.42637e-05
-1.80195e-05
7.1518e-05
-5.35466e-05
-7.62985e-05
-0.000271653
0.000347902
-7.05687e-05
-4.03176e-06
-0.00535702
-0.00233735
0.00769423
0.000136502
-0.00141099
-0.000108413
0.00108566
0.00149409
9.15006e-06
-0.000177525
-0.00037293
0.000245503
0.0017855
-0.00125653
6.74806e-05
-3.73901e-05
-3.00982e-05
-0.000980029
-0.00109542
0.00207544
-0.000231294
0.000363488
-0.000132179
-0.000286025
0.000105492
0.000180521
0.000141671
-0.000155637
1.39872e-05
-4.57392e-05
8.06033e-05
0.00174046
-0.000201036
-0.00153941
-0.00149969
-0.00130408
-0.00108173
0.00126657
-0.000184828
0.000314459
4.27364e-07
0.00154052
0.000174129
6.66374e-05
0.000223358
-0.000290023
-0.000196385
-0.00239039
0.000370959
0.00201942
0.000507598
-5.52049e-05
0.0014059
-0.000921475
-0.00278171
0.00441444
0.000560343
-0.000813912
-0.000629407
0.00161979
-0.000990343
-7.10998e-05
0.000310413
-0.000239304
-0.000488427
0.00222889
-9.97278e-05
0.000205276
-0.000105536
0.00317971
-0.00119805
5.57639e-05
4.4307e-06
-6.01849e-05
1.57713e-05
0.000160965
0.000458983
0.000131784
-0.00371407
0.000932393
-4.52061e-05
-0.000239022
-0.000219328
0.000163909
5.54054e-05
0.00426033
-0.00382797
-1.85999e-05
0.000139374
-0.000120771
-0.00128244
-0.000729763
-0.000182688
-4.859e-05
6.5861e-05
0.000261335
-7.91199e-05
-0.000553735
0.000932153
-0.000378392
0.00186829
-0.00206931
0.00258337
-4.13388e-05
0.00277175
-0.00273041
0.000531608
-0.00157737
0.00104578
7.89204e-05
7.74935e-05
-0.00177798
0.000121911
-8.91266e-05
-2.09055e-06
9.12755e-05
0.00105211
-0.000718556
-0.00033355
-0.000713077
0.000952489
0.00042983
6.00147e-05
-0.000179907
-2.79856e-05
-0.000872523
0.000453405
6.47223e-05
2.24783e-05
-0.000124379
-0.000161605
0.000562958
-0.000450402
-0.000112541
-0.000486539
0.00153869
-0.00335115
0.00302483
0.000755556
-0.00155865
-0.000689819
0.000636689
5.31016e-05
3.2282e-05
-0.000115247
8.29342e-05
0.000568716
0.000163569
-0.000732215
-0.000936948
0.00374874
8.1201e-05
-1.69739e-06
-7.94981e-05
0.00111254
-0.000309774
-0.000499104
0.000423885
7.52515e-05
0.00144809
-0.000408788
-0.00103928
-0.000614248
-0.00022556
0.000839871
-0.000216065
0.000338703
-0.000122668
-6.79295e-06
6.2547e-05
-0.00173175
-9.16469e-05
8.32819e-06
-4.14547e-07
0.000289436
-0.000686786
0.000397331
-0.000160169
0.000187012
-0.000344089
-0.000476071
0.00101957
-0.00056474
-0.000454787
3.98783e-05
-0.000116269
-4.71696e-05
1.91102e-05
5.76488e-05
-7.67466e-05
-0.00292504
0.0041816
-0.002819
0.002819
0.000808682
-0.000165017
-0.000643612
-0.00192674
0.000946709
-0.000319137
8.01613e-05
-0.000350923
0.000351221
0.000330262
-0.000324947
0.000178333
0.00194637
-0.00212467
8.39536e-05
0.000160276
1.44088e-05
0.000794288
-7.35831e-05
4.90857e-05
2.44982e-05
0.0088437
-0.00263027
6.6779e-05
-0.00021149
-0.00010765
-9.6795e-05
-0.000265203
0.000361984
-0.000921839
0.00143104
-0.00164598
-0.000701633
0.00234762
0.00224093
8.8116e-05
-0.00232904
-0.000831131
-0.000542491
-0.000640925
-0.000858735
7.27647e-05
0.000322553
0.000143575
-0.000193185
4.96122e-05
0.000357017
0.00282279
4.49225e-05
-0.0014749
0.00116149
0.000313343
0.000295193
4.72102e-05
-0.000342376
-4.40304e-06
0.000171675
-0.000167313
-0.00172114
0.000889533
0.000831616
0.00224579
-0.000612789
-0.00163297
0.000244307
-0.00109393
1.22081e-05
0.000406878
-0.00073425
-0.00310719
0.00224217
0.000864946
-0.00620427
0.00269236
-0.00248926
0.000666728
0.00348297
-0.00239121
-0.00109182
7.0809e-05
-3.96933e-05
-3.11287e-05
4.14281e-05
3.87948e-06
-4.53176e-05
-0.0017643
0.00150191
0.000262388
-0.000296979
0.000232858
-0.000197766
-5.07809e-05
0.000164709
0.000170656
0.000157567
-0.000328234
-0.00126203
0.00396735
-0.0027053
-0.00237896
-0.00138272
0.00376169
0.000558494
-0.000161802
0.00134398
-0.00118216
-0.00113088
0.000150818
0.00214788
-0.00027141
0.000259917
-0.000759031
6.0091e-05
-6.29689e-06
-5.37909e-05
3.42655e-05
-4.51213e-05
1.08453e-05
-3.66777e-05
-4.65513e-05
8.32252e-05
-0.00177769
0.00168191
-0.000534542
-0.00362405
0.00353739
8.66323e-05
2.14786e-05
-0.000201387
-2.9518e-05
-4.40627e-05
0.000356075
0.000274266
-0.000244574
-2.97e-05
3.0975e-05
-0.000107255
-0.000671032
0.000119953
0.00314866
-0.00213346
-0.000195958
0.00232942
0.000330592
-0.00145853
0.0015587
0.000756087
-0.00231482
-0.00358206
-4.19935e-05
2.78205e-05
0.00021657
0.000773641
-0.0012621
0.00023503
-9.14428e-05
-0.000355531
0.00256243
4.97342e-05
0.000444242
-0.000435038
-9.22841e-06
0.00028952
0.00358353
-0.00387301
0.000343454
-5.03788e-05
0.000217761
0.000345227
-0.00697422
0.00621874
0.000755543
0.00103677
3.15218e-05
-0.00106827
-8.69738e-05
0.00106541
-0.000885287
-0.000180079
0.00338223
-0.00105638
0.000464414
-0.000946345
7.3395e-05
-5.87745e-05
0.00129446
0.000938885
-0.00934801
0.019415
0.00320523
-0.000587134
6.02337e-05
-0.000213228
0.000254658
-9.2336e-05
-0.000611803
-4.57397e-06
0.00061634
-0.00770648
0.000856121
-0.00482805
0.00358772
0.00124033
3.2136e-05
7.00557e-05
-0.000102197
0.000532876
-0.000288512
-0.000244359
-0.000191485
0.00012168
6.98963e-05
-0.00205743
0.00350531
-2.12244e-05
-0.00019809
-0.00385991
0.00186299
0.00199687
-0.000104741
0.000107436
-2.72247e-06
-0.000234488
-0.000375679
0.000158232
0.00021735
8.61766e-05
-8.78625e-05
-6.42704e-05
-4.93435e-05
0.000113589
-0.00017819
0.000464301
-0.000314768
-0.000131683
-2.60977e-05
6.06119e-05
-3.45083e-05
-0.000330001
0.000230292
0.00010143
-0.00224357
0.00220223
-0.00548965
0.00447339
0.00101629
0.00370784
-0.00287101
-2.5435e-05
-1.54477e-05
0.00034395
-0.000328578
3.18089e-05
-0.000101764
6.99436e-05
-0.00146404
0.00161898
0.000545346
-0.00192151
0.000427589
0.00149394
-0.000108552
3.82628e-06
-3.97923e-06
-0.000189391
0.00121432
-0.0051394
0.00114562
-0.00157202
0.000426451
0.000236371
0.000178488
-0.0023758
-5.57303e-05
0.00243155
0.00223068
0.000974528
-0.000162765
0.000173433
5.96138e-05
0.000741837
-0.000198969
-4.18795e-05
0.000458502
-0.00194732
0.00148883
-2.34142e-05
-7.88897e-05
0.000102287
-0.00369311
-0.000616362
0.00430943
0.00011264
-7.66692e-05
-3.59507e-05
-0.000193224
-0.000179571
-1.9252e-05
-9.13831e-05
0.00011065
0.000266073
-0.000546254
0.000280284
0.000366666
4.9412e-05
-7.80954e-05
2.86743e-05
0.000151116
-0.000233028
0.00112906
6.33931e-07
-0.00112972
0.000182327
-0.000223612
0.00182149
-0.000844567
-0.000976925
0.000423987
-0.000105336
-0.000318625
-0.000210548
0.000524042
-0.000313464
-0.0003912
-0.000152368
0.000229732
-7.74124e-05
-0.000120266
0.00010102
3.93829e-05
-4.61739e-05
-0.000709637
0.000836058
0.00133161
0.00186563
0.000279532
-0.000113396
-0.000166074
-0.00184514
0.00236633
-4.41018e-05
1.66228e-05
-4.77978e-05
-9.25548e-05
0.00227655
-0.0018527
0.000243102
-0.000164328
-7.87514e-05
-0.000882101
0.00174906
5.50884e-05
-3.71142e-05
-1.79831e-05
0.00022562
0.000147885
-0.00037353
-0.000226589
-0.000197679
0.00013699
6.0645e-05
-0.000148785
0.000238934
-9.01703e-05
7.8291e-05
3.43566e-05
0.00029161
0.00020879
-0.000274806
0.000194293
0.000143175
-0.000147611
-0.00441791
0.00361919
0.000798708
0.000175595
7.90682e-05
6.6491e-05
-1.18111e-05
-5.46711e-05
0.000175441
-0.000103446
-0.000166068
0.00120892
-5.84875e-05
1.51568e-05
0.00295861
3.40047e-05
-0.000685877
-0.00123564
0.000181939
0.000156748
0.00224032
-0.000631877
-0.00160842
-2.46591e-05
9.72662e-05
-7.2581e-05
0.000683093
0.00178103
-0.000167092
-0.00153413
0.00170123
-0.000196833
-0.0007484
0.000945248
-0.000172312
-0.000142377
0.00107472
0.000563747
-0.00163846
0.00494527
-0.000238908
-0.000229194
0.000468144
-0.000280758
0.000504107
-3.86346e-05
8.6063e-05
7.29224e-05
-0.000124324
5.13959e-05
-0.000146582
0.000135557
1.10042e-05
-0.000732608
-0.000492819
0.00122542
-0.000284896
4.47885e-05
0.000814897
0.0001874
0.000194895
-0.000151458
-4.34258e-05
0.000237195
-0.00033388
0.000722986
-0.000170021
-0.000489642
0.000659653
0.00285315
4.80517e-05
0.00011318
0.000122829
-2.10123e-05
-0.000101805
-0.00025467
-0.00169298