/*--------------------------------*- C++ -*----------------------------------*\
| =========                 |                                                 |
| \\      /  F ield         | OpenFOAM: The Open Source CFD Toolbox           |
|  \\    /   O peration     | Version:  v2012                                 |
|   \\  /    A nd           | Website:  www.openfoam.com                      |
|    \\/     M anipulation  |                                                 |
\*---------------------------------------------------------------------------*/
FoamFile
{
    version     2.0;
    format      ascii;
    class       surfaceScalarField;
    location    "200";
    object      phi_0;
}
// * * * * * * * * * * * * * * * * * * * * * * * * * * * * * * * * * * * * * //

dimensions      [0 3 -1 0 0 0 0];
oriented        oriented;


internalField   nonuniform List<scalar> 
27907
(
-0.0832283
0.0643516
0.0188767
-0.0600014
-0.0119403
0.0719417
0.415354
-0.46572
0.0503652
0.0399087
-0.0173941
-0.0225145
0.00996747
-0.00288194
-0.00708554
-0.012139
0.00346642
0.00867255
0.00918573
-0.000271523
-0.0089142
-0.333471
0.422459
-0.0889879
0.0948712
-0.0802232
-0.014648
-0.169411
0.0231485
0.146262
-0.0233452
0.184056
-0.160711
-0.00992231
0.00777095
0.00215136
0.0805982
-0.436534
0.355936
0.0961582
-0.103655
0.0074967
0.259231
-0.176372
-0.0828591
0.0513196
-0.0310508
-0.0202688
0.0360987
0.092308
-0.128407
-0.0877444
0.368905
-0.281161
-0.120955
-0.136205
0.257159
0.145922
-0.121817
-0.0241043
-0.00198949
0.000280433
0.00170906
-0.430244
0.448941
-0.0186971
-0.00216109
0.000874729
0.00128636
0.0685463
-0.0852844
0.0167381
0.0237051
-0.0871606
0.0634555
-0.420129
0.0866576
0.0379888
0.00624541
-0.0442342
-0.00427878
-0.00230925
0.00658802
0.0334427
0.015498
-0.0489406
0.0768126
-0.0613895
-0.0154231
0.0898101
0.0157483
-0.105558
0.00119448
-0.00412296
0.00292848
0.474238
-0.461791
-0.0124471
-0.244075
0.125635
0.118439
-0.101938
0.0258
0.0761382
-0.484421
0.293894
0.190528
0.557026
-0.334939
-0.222087
0.280921
-0.136001
-0.14492
-0.152874
0.24327
-0.0903958
0.0282632
-0.12642
0.0981564
0.274141
-0.189551
-0.0845897
0.159993
-0.139474
-0.0205188
0.174192
-0.339946
0.165754
-0.118922
0.15981
-0.0408887
0.0977679
-0.0758098
-0.0219582
-0.495747
0.260642
0.235105
-0.00136774
-0.000793345
-0.152663
0.192937
-0.0402743
-0.148252
-0.0211586
-0.203912
0.399073
-0.195161
-0.0895309
0.113651
-0.02412
0.0216191
-0.0151229
-0.0064962
-0.475143
0.093494
0.381649
-0.194559
0.171214
0.00209806
-0.00637684
-0.0248101
0.0833663
-0.0585562
0.299315
0.257711
0.0446085
-0.0238648
-0.217035
-0.0164969
0.233532
-0.100921
0.0241188
0.0768027
0.0553689
-0.0865121
0.0311433
0.0078442
0.00134152
-0.116514
0.111195
0.00531916
0.188839
-0.0333024
-0.155537
-0.385411
-0.0897322
0.345093
-0.19009
-0.155002
-0.0732452
0.134936
-0.0616909
0.364381
0.109857
0.147077
-0.277888
0.130812
0.00458903
0.0170301
-0.0135553
0.0108414
0.00271389
-0.122383
0.224689
-0.102306
-0.379526
0.175614
-0.0223209
0.0135171
0.00880376
0.150132
-0.376924
0.226792
0.20941
-0.00955469
-0.199856
0.0947999
-0.0713559
-0.023444
0.00727703
0.00178087
-0.0090579
-0.0818955
0.0230447
0.0588508
0.00286078
-0.00125404
-0.00160674
0.00272204
-0.00218698
-0.000535052
0.077229
-0.0579102
-0.0193189
-0.0657807
-0.0351408
0.00100264
-0.00826449
0.00726185
0.0937224
0.00107756
0.16947
-0.150438
-0.0190312
0.0248674
-0.0368095
0.0119421
-0.098189
-0.0183248
0.00372802
-0.00349482
-0.000233204
-0.0469745
0.256385
0.00500472
-0.00400208
0.00162426
-0.218659
-0.00784832
0.00424464
0.00360368
0.140788
0.0192055
0.00289515
-0.002613
-0.00028215
-0.00599392
-0.0018544
0.0842713
0.00945109
0.349028
-0.198897
0.122167
-0.260894
0.138728
-0.000902261
-0.00108723
0.148041
-0.0209856
-0.127056
-0.000128771
-0.00272933
0.0028581
-0.080857
-0.0270747
0.107932
0.0190951
-0.111306
0.0922107
-0.00162011
0.00281459
0.0503165
0.0264961
0.0670884
-0.0422947
-0.0247937
0.00988165
-0.00260462
-0.162675
-0.0341923
0.196867
0.142999
-0.24224
0.0992402
0.0035402
-0.00953412
-0.0223209
0.197216
0.216256
-0.413471
-0.152623
0.260901
-0.108278
-0.0430148
0.0387071
0.00430769
0.00830158
0.000238172
-0.00853975
-0.00678927
0.00686161
-7.23424e-05
0.127584
0.131647
-0.00261089
0.00160639
0.00100451
0.00246433
0.000430816
0.0203301
0.111784
-0.132114
-0.270286
0.239499
0.0307867
-0.0263848
0.0335648
-0.00717994
-0.04074
-0.000429501
0.0411695
0.0190778
-0.0767208
0.0576431
0.0647211
0.0330469
-0.0734552
0.0134538
-0.0605522
0.0800324
-0.0194802
0.00585679
-0.00161215
0.440119
-0.624252
0.184133
-0.0767648
0.112863
0.0623361
-0.0243473
0.00387687
-0.00359644
0.130784
-0.053288
-0.077496
-0.0104228
0.0314546
-0.199827
0.119845
0.0799819
-0.0887926
0.0174366
0.127711
-0.0994474
0.276148
-0.153982
0.00354138
-0.0482203
0.0446789
-0.0760777
-0.00581782
-0.00769186
-0.0454119
0.0531038
-0.262461
0.237653
0.0248083
-0.0668185
0.0420084
0.224922
0.0492192
-0.18587
0.276813
-0.0909421
-0.00464366
0.00493699
-0.00029333
-0.00840437
-0.000876532
0.0092809
-0.0192282
0.109038
0.0240248
-0.0347347
0.0107099
0.0573332
0.0198958
-0.0580555
-0.00542081
0.0634763
0.187001
-0.0491974
-0.137803
-0.459231
0.457382
0.00184935
0.00158863
-0.00134752
-0.000241115
-0.000332602
0.154748
-0.154416
-0.0016178
-0.000993093
-0.198811
0.0461482
0.00368049
0.166322
-0.170003
0.486245
-0.299334
-0.186911
-0.193266
0.355696
-0.16243
-0.100795
0.0690094
0.0317853
0.0154881
-0.00952645
-0.00596169
-0.184152
0.187833
0.0849156
-0.0295468
0.048662
-0.0152193
0.161631
0.0904936
-0.252124
0.0295928
-0.00723616
-0.0223566
0.0696372
-0.0885549
0.0189177
0.00171957
0.00991282
-0.0116324
-0.00637262
0.00644329
-7.06741e-05
-0.322072
0.234327
0.00855828
0.00692987
-0.00596392
0.00741454
-0.00145062
-0.0432275
-0.0575672
-0.00177855
0.0703249
0.0408513
-0.0106798
-0.0301715
0.170528
0.0183116
-0.0610861
0.0646275
-0.265991
0.146156
0.119834
0.263339
-0.460096
0.196757
0.00957312
-0.00957312
0.0134131
-0.0714686
-0.182177
0.346857
-0.164681
-0.0767917
0.157607
-0.0808157
-0.00900883
-0.0629959
0.0720047
-0.317275
0.235176
0.0820986
0.00751578
0.000785801
-0.217289
0.386917
-0.169628
-0.313342
0.183068
0.130274
0.0671589
0.063625
-0.0781663
0.0176141
-0.0311915
0.209739
-0.178548
0.0944263
-0.113655
-0.0480057
-0.0540534
0.102059
-0.117496
0.0193071
0.127076
0.0188454
0.105542
-0.0359045
0.534992
-0.301294
-0.233698
-0.185379
0.359571
-0.0283201
0.0754622
-0.0471421
-0.177593
-0.0212177
0.136519
-0.150961
0.0144421
0.085669
-0.104757
0.0190884
-0.300966
0.381564
-0.121421
0.0734158
0.0784959
-0.109177
0.0306816
-0.529695
0.0704636
-0.00123848
0.000683021
0.000555455
-0.171751
0.0234987
-0.162305
0.381098
-0.218793
-0.0884486
0.107544
0.0619988
0.148496
-0.210494
-0.119604
0.136263
-0.0166583
0.052909
-0.0747017
0.0217926
0.000429251
-0.00257091
0.00214166
-0.0247867
0.0776958
-0.0234418
0.0433839
-0.0199421
-0.0906843
0.326264
-0.23558
-0.0024733
-0.00966567
0.2066
-0.200733
0.0380583
0.101857
-0.0395821
-0.0622752
-0.00423018
-0.000413484
0.0181026
0.0586418
-0.0767444
0.107753
-0.0292568
-0.0798648
0.12228
-0.0424147
-0.0844755
0.111024
-0.0265484
-0.357666
0.293603
0.0640635
0.0726186
-0.109447
0.0368283
0.245275
0.0998178
-0.0211934
-0.0963027
0.00219755
-0.00203628
-0.000161272
0.0972184
-0.0129472
-0.0053998
-0.431134
-0.18786
-0.129415
-0.262967
-0.0946991
0.475057
-0.281522
-0.193534
0.0119911
-0.0383759
0.166118
-0.10483
-0.0612883
-0.210089
-0.0742843
0.284373
0.023682
-0.0847001
0.0610181
0.0134636
0.0536248
-0.22074
0.0441882
0.176552
0.0380816
-0.0140567
-0.00521855
-0.0029327
0.00815125
0.0863985
0.0108199
-0.277919
-0.206503
-0.00242311
0.00316448
-0.00074137
0.127251
-0.00465844
-0.122593
-0.364837
0.0421089
0.322728
0.0293788
0.000213937
0.0243972
0.145072
0.0907887
0.0364627
-0.0777946
0.201255
-0.12346
-0.0551092
-0.0634832
0.118592
0.0882538
-0.0250511
-0.0632028
0.015091
-0.0385327
-0.114523
-0.00508139
-0.0894507
0.0611515
0.0282992
-0.118926
-0.163343
-0.137098
0.0518017
0.0852961
-0.307159
0.335494
-0.0283354
0.104837
-0.0191682
-0.142105
-0.0296462
0.0475796
0.0542777
0.0109708
-0.000382786
-0.010588
-0.339789
0.249105
-0.0392213
0.203084
-0.163862
-0.0719717
0.0735191
-0.00154742
0.162272
-0.201493
0.107152
-0.183944
-0.0321388
0.0284795
0.00958302
-0.0380625
-0.00747655
0.000687281
0.140154
0.0977522
-0.237906
0.0277851
0.0781825
-0.105968
0.00967139
-0.00304444
-0.00662695
-0.0791014
0.0211912
0.211828
-0.179865
-0.0319632
-0.189915
-0.107487
0.297402
-0.177276
0.10332
0.0739561
0.0958032
0.070315
-0.221966
-0.0404946
0.00478959
0.0048818
0.0838429
-0.0601609
0.0205071
0.0335932
-0.0541003
0.00387687
0.000829809
-0.373006
0.193099
0.179907
0.014756
0.400598
0.0321964
-0.0971516
0.0649552
0.007073
-0.00664375
0.152654
-0.112867
-0.0397875
-0.0664059
-0.085921
0.106803
-0.0208821
-0.0557282
0.154011
-0.0982828
0.000298929
-0.268226
0.147271
0.0894776
-0.0472622
-0.0422154
-0.00654491
-0.325066
-0.170681
-0.00928732
-0.0111491
0.0204364
-0.0904446
0.120378
-0.029933
-0.121778
0.268855
-0.178954
0.0717369
0.107217
-0.0806363
0.106954
-0.0263174
-0.21996
0.202284
0.0176763
-0.367894
0.00305782
0.00909261
-0.0105112
0.00141861
0.0716921
-0.051185
-0.367336
0.216863
0.150473
0.0076982
-0.00957383
0.00187563
0.000551482
-0.0613548
0.0794574
-0.291968
0.30535
-0.0133819
0.440119
0.0564355
-0.080212
0.0237765
-0.0531507
-0.167589
0.135592
-0.317769
0.109092
-0.237477
0.128385
-0.120353
0.213204
-0.0928507
-0.0688895
-0.0196654
-0.11221
0.0315742
-0.0900525
-0.0872239
-0.00263105
-0.102199
-0.140895
0.0190772
0.00538723
0.0617717
0.174093
-0.293019
0.324304
0.161941
0.024835
0.0551974
0.00562087
-0.0910342
0.0854133
-0.0554512
0.0832364
0.0327224
0.00718621
0.0599911
0.0926634
-0.21881
0.187619
0.427861
-0.589025
0.161164
0.0485995
0.0408781
0.0188724
-0.0281597
-0.384733
0.121766
-0.190901
0.398606
-0.207705
-0.283246
-0.101487
-0.117703
-0.0821243
-0.0995597
0.0150841
0.0815156
-0.0578105
-0.0975286
-0.172757
0.25661
-0.13772
-0.11889
-0.38279
0.210096
0.172694
0.046603
0.00471662
0.0513282
-0.0590201
0.0929773
-0.0295356
-0.0634417
0.0303201
-0.0879337
0.0576135
-0.252155
0.196426
0.0557291
0.0630867
0.0146919
-0.0777786
0.00369989
-0.0869282
0.0413097
0.0996685
-0.140978
0.0169007
-0.11031
0.0934097
-0.00831592
-0.00354011
0.00435188
-0.000811766
-0.0676956
0.0586868
0.353033
0.0872381
-0.440271
0.131599
-0.143849
0.0122503
0.00335345
-0.0639265
0.060573
0.0331054
-0.00462588
0.0061826
0.140452
-0.146635
-0.215773
-0.157232
0.110494
-0.0078271
-0.102667
0.26919
-0.192355
-0.076835
0.034946
0.108757
-0.143703
-0.0578156
-0.00513246
0.0629481
0.0341115
-0.0341521
4.06138e-05
-0.0838345
0.0947645
-0.01093
-0.117509
-0.0233858
0.00993388
0.00103693
-0.264261
0.0304129
0.233849
0.0305994
-0.208193
0.125519
0.136193
-0.261712
-0.239982
0.0871077
0.0272709
-0.0979173
0.0706464
0.171551
0.00232792
-0.173879
0.00859959
-0.000901388
0.0723861
-0.0416685
-0.0307177
-0.189377
0.111582
-0.202218
-0.165119
-0.000974924
-0.00507926
0.00605418
-0.0919244
0.0080899
0.0396383
0.0552329
-0.0163164
-0.247945
0.086776
0.0255004
-0.112276
0.117736
-0.307651
0.160665
-0.0274051
-0.13326
0.163832
0.0756671
-0.166879
-0.17291
-0.00514391
0.0062095
-0.00106559
-0.000836051
-0.000402425
-0.0643829
0.0270385
0.0373444
0.0284076
-0.260061
-0.232346
0.492407
0.0100315
0.0713355
-0.0813669
0.00176762
-0.00422574
0.00245812
0.0582282
-0.113337
0.398015
-0.2008
0.00195533
0.0307671
-0.140652
-0.132401
0.273053
-0.278535
0.181069
0.0974653
0.430045
-0.166707
0.0789139
-0.051643
0.153478
0.113071
-0.266548
-0.155346
0.0364247
-0.0557154
0.0860355
0.00591303
-0.0277693
0.0218563
0.251325
-0.142233
0.00177364
0.00819383
-0.0964357
0.132319
-0.035883
0.095987
-0.387955
-0.0308759
0.165478
-0.134602
-0.268043
0.139927
0.128116
0.190197
-0.139692
0.0839637
-0.0852717
0.120652
-0.0353803
0.0828976
-0.0775104
0.00166019
-0.00687874
-0.0753862
0.0957163
-0.3656
0.200188
0.165412
-0.00604907
-0.0659226
-0.0360868
0.0278606
0.00822619
0.0155883
0.0318875
-0.0474759
-0.00478612
-0.0015865
0.0210539
-0.0984858
0.0774319
0.217598
-0.177055
-0.0405429
0.191407
-0.358286
-0.36076
0.150671
-0.121124
0.183123
0.0739127
0.0208518
0.0257221
0.101239
-0.126961
-0.144724
0.145143
-0.000418769
-0.117958
0.0275129
0.0365623
0.00595781
-0.0708663
0.0649085
0.0268957
-0.172902
-0.0951406
-0.136889
0.134258
0.00260585
0.00112218
-0.216298
0.0299127
0.186385
0.00689171
0.0272198
0.427861
-0.41453
0.229815
-0.00366033
-0.0108546
0.0145149
-0.120445
-0.0147298
0.135175
-0.163809
-0.0465649
0.210374
0.0758139
0.01244
-0.0953962
-0.00654196
-0.053064
0.0852604
0.00741369
-0.00155689
-0.161639
0.152084
0.193368
-0.0315304
-0.161838
0.0123331
-0.00110387
0.00887482
-0.0201205
-0.0649997
0.0851202
-0.104952
0.100043
0.00490939
0.0791803
0.0169779
0.0722381
-0.0662803
-0.000100423
-0.00814387
0.0082443
-0.0795362
0.0899478
-0.21233
0.115237
-0.0319854
-0.0832516
-0.230212
0.0775884
0.101612
-0.0276997
0.0767014
0.137043
-0.213745
0.00524175
0.00217194
0.11001
-0.0232345
-0.070766
0.0741195
-0.14154
-0.00318436
-0.00138326
0.0936289
-0.0922456
0.14999
-0.0402812
-0.0450031
-0.177135
-0.202391
-0.00464174
0.00110163
0.256048
-0.130528
-0.0414933
0.0761411
-0.0346478
-0.446497
0.142891
0.303606
0.064405
-0.0807425
0.0163375
-0.110714
0.14566
-0.445143
0.281239
0.163904
-0.0732358
-0.187658
0.223165
0.206881
-0.0406711
-0.00453434
0.0452054
-0.00391309
-0.00160127
0.00551436
-0.0185973
-0.0244175
-0.103328
-0.0190867
0.122414
0.0431532
-0.163282
0.120129
0.091285
0.0156687
-0.280933
0.515526
-0.234592
-0.417415
0.0304843
0.386931
0.0168417
-0.0126518
-0.00418993
-0.2557
0.182465
0.22821
0.116814
-0.345024
0.00686769
-0.0927887
-0.114116
0.46715
-0.0158664
-0.0890858
0.103596
-0.0123114
-0.0782489
0.306458
-0.119742
0.273219
-0.00321412
-0.108196
0.11141
-0.169851
-0.0464469
0.126198
-0.126531
0.0342181
0.00386342
-0.00585571
-0.114213
0.120069
0.0787696
-0.0988901
0.00942058
-0.139336
0.129915
-0.260604
-0.104997
-0.0402401
0.0141889
0.0260512
-0.17412
-0.0223786
0.196499
0.139912
-0.190384
0.0504724
-0.0490198
0.0628272
-0.0138074
-0.00744672
-0.0012687
0.00871542
-0.0961011
0.0947178
0.0744524
-0.0310466
-0.0434058
0.123703
-0.11752
-0.0608218
0.000933038
-0.00837976
0.27642
-0.114789
0.000665615
-0.00588853
0.00522292
-0.0820106
0.0405173
-0.330449
-0.0328797
0.363329
0.0370862
-0.0028681
-0.0150795
0.0160932
0.094401
-0.251236
-0.228403
0.479639
-0.0899918
0.0956127
-0.00604452
-0.0147073
0.0207518
0.09137
0.137772
-0.286872
0.149099
-0.206724
0.0303517
-0.167874
-0.0520863
0.0356814
-0.221552
0.465155
-0.445452
-0.0197039
0.0587756
0.0405562
-0.0346432
-0.171563
0.178595
-0.00703151
0.035285
0.013377
-0.27791
0.162759
0.115151
-0.0917609
0.104456
-0.012695
-0.0697559
-0.00849148
-0.298667
-0.402668
0.108742
-0.170221
0.0614783
-0.519878
0.245585
0.274293
0.177608
0.0342203
-0.187016
0.0501198
0.136896
-0.102957
-0.163034
-0.0772572
0.103043
-0.0257862
0.0068544
0.0397486
-0.171754
0.37302
-0.201266
-0.0130304
0.0198745
-0.0068441
-0.00381983
0.00311283
0.000707007
0.13324
-0.0443484
-0.0888916
0.0534801
0.0617569
-0.0153577
-0.0490252
0.0211906
-0.132116
0.12626
0.119931
0.0314314
-0.151363
-0.00734432
-0.00621101
-0.177047
0.00548338
-0.0117994
0.108092
-0.0962928
-0.268221
0.10911
0.159111
-0.012641
0.00238901
0.010252
0.068121
-0.127783
0.0596619
0.0802843
-0.0289561
0.0720053
0.0196661
-0.0916714
0.00788996
-4.57613e-05
-0.0683043
0.155731
-0.267404
0.111673
-0.100986
-0.0122671
0.113253
-0.0865389
0.0752983
0.0112406
0.0377328
0.082843
-0.0637652
-0.220597
0.0523684
0.168228
0.0495096
-0.036046
-0.191337
-0.00582747
0.197165
0.156786
0.120617
-0.277402
-0.185439
0.408603
0.381235
0.105649
-0.486884
-0.00421697
0.00325602
0.000960945
0.0408707
0.0086389
0.233377
-0.249693
-0.0697795
0.076407
-0.0066275
0.142044
-0.108594
-0.0334505
0.0487653
-0.033177
-0.00501527
0.00110218
-0.012135
0.0685705
0.0559617
0.0188305
-0.0747922
0.0244948
-0.192198
0.167703
0.00805213
-0.0103614
0.115787
-0.021361
-0.0876712
0.238396
-0.150725
-0.123329
0.0500833
0.00171885
0.0081495
-0.0118098
-0.150029
-0.0940456
-0.159825
0.00552826
0.154296
0.235845
-0.0901731
-0.145672
-0.442993
0.0146304
0.428363
-0.00655129
0.00911887
-0.00256758
-0.0834968
0.102994
-0.0194969
0.000624106
-0.000522951
0.00229057
0.146931
-0.24303
0.0960986
0.250712
0.28428
-0.0192586
-0.103664
0.122922
-0.0702954
-0.359949
-0.325972
0.132705
-0.0277876
-0.159229
-0.147746
0.202837
-0.0550914
0.0339374
0.128195
-0.0600738
-0.0430931
0.103829
-0.0607363
-0.00749668
0.0106838
-0.00318715
0.0967074
0.00333537
-0.327075
-0.119421
-0.0127209
-0.107725
0.000214316
-0.0856445
0.0854302
0.01588
-0.0119946
-0.00388535
-0.124694
0.112894
0.0740416
-0.0700006
-0.00404095
0.0285338
-0.126825
0.0982915
-0.00225682
0.235634
-0.0734997
0.00372029
-0.0498437
0.0473666
0.00247708
0.0324981
0.177241
0.0650958
-0.264293
0.199197
0.0666742
-0.0304314
-0.0362429
0.00487595
0.0624487
0.424334
-0.0430993
0.00428594
6.59377e-05
-0.00307587
0.00307587
-0.0840429
-0.00249598
0.203084
0.195989
0.00604362
-0.00605627
1.26534e-05
-0.00962273
0.00759579
0.00202694
-0.0282512
0.141575
0.0299757
-0.447422
0.271583
-0.0423924
0.0374427
0.00494971
0.317689
0.158501
-0.100403
0.0666623
0.0337404
0.00498408
-0.00431846
0.0635521
0.0191578
-0.0827099
0.00174068
0.00614928
0.025053
0.0861808
-0.111234
-0.000851419
-0.000247022
0.00109844
-0.117887
0.0326153
-0.233418
0.198823
0.0345955
0.0488702
-0.208695
0.00690181
-0.00723908
0.000337272
0.046755
-0.00577738
-0.0409776
-0.000530117
-0.0266469
-0.00750513
0.140215
-0.0444329
-0.0559698
0.152546
-0.433479
-0.118911
0.0390465
-0.0233563
0.106014
-0.082658
-0.0907645
0.00123358
0.0890367
-0.419486
-0.119046
0.150353
-0.0313072
-0.0698566
0.0798881
0.00478641
-0.0178168
0.00713061
-0.000228793
0.00691663
-0.00915906
0.00224242
-0.0766977
0.118007
0.059446
0.0885952
0.0968435
-0.010445
0.12439
0.13222
0.161793
0.134419
-0.296212
0.231101
0.088441
-0.319542
-0.0070132
-0.13303
0.140043
-0.0803528
-0.3432
0.0663972
0.276803
-0.112846
0.0894899
-0.168363
-0.158167
0.326529
-0.448249
-0.176003
-0.195144
0.401676
-0.206533
0.00795094
-0.00629766
-0.00165328
-0.0670672
0.210067
-0.41201
-0.0687968
0.480807
0.10107
-0.120329
0.00575315
0.115698
-0.121451
-0.308017
0.136263
-0.00669369
0.00154978
0.223883
0.0453064
0.158958
0.116754
-0.275712
0.00660849
-0.105412
0.0988031
-0.00121476
-0.0862958
0.0875105
0.150305
-0.228488
0.147936
0.0805523
0.00836176
0.0656798
0.0682403
0.170226
-0.106715
-0.0635103
-0.043549
-0.00629474
0.106389
0.0638365
-0.041232
0.0431873
0.0204319
0.0195466
-0.0105125
-0.0195718
0.0300842
-0.00836879
0.00181749
-0.21815
-0.00171447
0.0125559
-0.087801
0.0105427
0.0772583
-0.20483
-0.173447
0.378277
-0.000707598
-0.00200035
0.00270795
-0.151168
-0.181852
0.33302
-0.19723
0.403089
-0.205859
-0.102082
-0.031567
0.133649
-0.465407
0.184247
-0.0854436
0.108185
-0.022741
0.0126373
0.00324271
0.209782
-0.0161336
0.00562117
-0.177625
0.20212
-0.0293171
0.141101
0.00306859
0.0436864
-0.224186
0.397196
-0.17301
-0.00148522
-0.00265749
0.0041427
-0.132231
0.161094
-0.0288639
-0.114065
0.265882
-0.151817
0.328585
-0.188849
-0.139736
-0.00459078
0.235692
-0.0790402
0.0443895
0.0346507
0.024929
-0.0532491
0.00523788
-0.00710985
0.00187197
0.109079
-0.0123721
0.0070892
-0.00362278
0.122279
-0.100996
-0.0212829
-0.143012
0.0727527
-0.0859689
0.0132162
0.00822223
-0.0013056
-0.0129386
0.0689002
0.0302177
0.0452445
0.0265334
0.0664438
-0.0881261
0.115406
-0.0272798
-0.10826
0.161058
-0.0527982
-0.0619489
-0.0170913
0.0612736
0.112735
-0.174008
0.0786315
-0.0212983
0.346549
0.122582
-0.469131
0.00483283
0.00121079
-0.0450677
0.170703
0.0810774
-0.0508597
0.114635
-0.117849
-0.0522303
0.204333
-0.152103
0.0633403
-0.0478424
0.18093
0.146275
-0.327205
0.0159094
-0.0866754
-0.16779
0.0355594
0.203462
0.125264
-0.0995423
0.107279
-0.103123
-0.00415536
-0.0319798
0.0763693
-0.0118624
0.0450413
-0.0626059
0.0175647
-0.000271107
0.00389848
-0.00362737
-0.269166
-0.232827
0.00433405
-4.8112e-05
-0.0857353
-0.202631
0.288366
0.080552
-0.073731
-0.00682098
-0.0802994
0.105352
0.0126297
0.171427
0.249564
-0.327812
-0.0699316
-0.109023
0.163335
-0.237005
-0.266493
0.152428
0.144599
-0.0317395
-0.11286
0.0678215
0.0127305
0.0675302
0.0362992
0.0416334
0.0250408
0.00478912
0.0921532
-0.0969424
0.432234
-0.236587
-0.195646
0.114669
-0.0223789
-0.0922901
0.0051061
0.0357452
0.30657
-0.142497
-0.164073
0.0819395
0.0240748
0.0852417
0.077553
-0.162795
-0.0135859
0.014168
-0.0005821
0.0891119
-0.189432
0.10032
-1.94715e-05
-0.00165358
0.00167305
-0.118105
0.464653
0.0692748
-0.0444397
0.0956572
-0.507668
-0.0549326
-0.05492
0.109853
-0.218173
0.130502
-0.150754
0.143741
0.0195111
-0.138126
0.118615
0.148834
0.279556
-0.120598
0.429179
-0.270708
-0.158471
0.0101433
-0.0508144
0.00851787
-0.00851787
0.151904
-0.109049
-0.0428559
-0.00637414
0.00488892
-0.216363
0.214106
-0.0286961
0.129935
0.182756
-0.0280081
-0.0889743
0.0415019
0.0474724
0.00131465
0.00154613
0.124074
0.0278306
0.235136
0.131757
-0.366893
0.056562
0.0237223
0.138207
0.0502605
-0.266624
-0.0308211
-0.127929
0.15875
0.00576487
-0.00673979
-0.0298535
-0.000805898
0.0306594
-0.0715745
0.0697392
0.00183533
-0.0237387
-0.0564732
-0.0280924
0.0530214
-0.176666
0.0563129
0.295859
-0.212399
-0.0834591
0.0541449
0.0244867
0.204446
0.0146895
0.0633227
-0.0780122
0.0336569
0.126169
-0.159826
-0.424012
0.294629
0.129383
0.0037011
0.0149854
-0.0186865
0.0165321
-0.0132946
-0.0032375
-0.222311
0.00678219
-0.00154431
0.131665
-0.122244
-0.0962087
0.106731
-0.0105226
-0.0210327
0.0821842
0.0507136
0.0140588
0.0526944
0.0247747
-0.0774691
0.529937
-0.326035
-0.203902
-0.453159
0.0533505
0.399808
-0.00823022
-0.0028547
0.0110849
-0.126149
0.266304
-0.14001
-0.137879
0.153588
0.229209
-0.0938428
-0.135367
0.0390766
-0.0515971
0.0125205
-0.00365562
-0.0767879
0.0804435
0.0186152
-0.00200262
0.00331156
-0.00130894
0.0327388
-0.129174
0.0783291
-0.0525292
0.164949
-0.0797069
0.377684
-0.0876907
-0.289993
0.171226
0.270706
-0.441933
-0.299579
-0.0913437
0.390923
0.00664808
-0.0067485
0.000714502
-0.0785757
0.0704114
0.00816435
0.345207
-0.0956438
0.361436
-0.1263
-0.112605
-0.129517
-0.148476
0.277993
0.0264844
-0.128566
-0.128785
-0.0265617
-0.0143803
0.00754257
0.0147628
-0.0223054
-0.0346036
-0.0782426
-0.0492301
0.0777926
-0.0285625
-0.0752972
-0.00327849
-0.139273
0.277045
-0.0800302
0.0180814
0.231389
0.0644692
-0.00287184
-0.0274669
-0.0603341
-0.0011227
-0.00112389
0.00224659
-0.0124754
0.0553436
-0.0428683
0.0438947
-0.191641
0.120009
0.0245905
-0.0693479
0.0251897
0.0441582
0.00279863
-0.0016824
-0.00111623
-0.00222658
-0.0996489
0.0624881
0.0371608
0.082833
-0.0826187
-0.00504589
0.00597893
0.343352
-0.457468
0.0921088
0.00473472
-0.0378866
-0.00285334
0.0972374
0.00437503
0.449001
-0.257779
0.126093
0.00210189
0.00033723
0.00105125
-0.00138849
-0.016505
-0.0237351
-0.0608334
0.0929017
-0.0320684
0.312093
-0.141241
-0.170851
0.0224483
0.136704
-0.159153
0.122499
-0.105805
-0.0166944
-0.0152924
0.0123597
0.147569
-0.199799
-0.0537989
-0.0269629
0.0807618
-0.13942
0.305334
-0.165913
0.0235173
0.0535526
-0.0842795
0.0307269
0.161448
-0.303946
-0.3456
0.206058
0.139543
-0.0752742
0.151976
-0.165938
0.0238334
-0.166896
0.398468
-0.231573
-0.124072
0.185345
-0.179706
0.0572869
-0.0122456
-0.0815222
0.0835654
-0.00204321
-0.0101478
0.00927128
0.32869
-0.0108486
-0.0699421
0.0807907
0.317025
-0.162715
-0.15431
-0.0160399
0.000753245
-0.0809765
-0.102537
-0.00279413
0.105331
-0.304367
0.164947
-0.167831
-0.0843243
-0.0204912
-0.0562296
0.10651
-0.0289637
-0.0775459
-0.109394
0.140826
0.00602258
-0.000187512
-0.00583507
0.0852428
0.0119946
-0.171278
-0.0852662
0.232198
-0.0470094
-0.000537733
-0.00295709
-0.0928657
0.00227748
0.0905882
-0.436652
0.247054
0.189598
-0.0846038
0.031614
0.0529898
0.243035
0.194226
-0.437262
0.108077
-0.137394
0.341628
-0.264827
-0.076801
0.0549673
-0.0800467
0.0250794
0.00156916
0.197006
-0.397214
0.200207
0.123589
0.153223
0.064222
-0.0783244
0.0141024
0.221251
-0.0655207
-0.00677906
-0.0300007
0.0367797
0.00844005
0.000161264
-0.00860131
-0.0915087
0.107888
-0.0163797
-0.117849
-0.357057
0.0567961
0.300261
0.0938287
0.247799
0.248609
-0.366714
0.00830442
0.0643767
0.0189896
0.0581997
0.209806
-0.171217
-0.0385889
0.00113687
-0.00184447
-0.396169
0.136108
-0.177726
-0.135616
0.0138445
-0.0245243
0.135811
0.159933
-0.295743
-0.0123559
0.00947398
-0.22386
0.402476
-0.178616
8.69542e-06
-0.107636
0.107627
0.139232
-0.142701
0.294004
-0.151302
-0.289627
0.254716
0.0349111
-0.182803
0.425839
0.000818318
0.00562497
-0.204165
0.0403559
-0.196072
-0.22794
-0.00883365
0.0493148
-0.0404811
0.126119
-2.62617e-05
0.471225
-0.252835
-0.21839
0.110714
-0.104106
0.00813393
0.128385
-0.100341
0.345926
0.0269742
0.210788
-0.110544
0.00800654
-0.00143241
-0.000221166
0.0758049
0.00856067
-0.0843656
0.148345
0.136034
-0.284379
0.0624666
0.0139404
-0.0219523
-0.0791566
0.101109
0.114991
-0.0220516
-0.0929394
-0.136387
-0.0295508
-0.023483
0.112674
-0.0891911
0.0582079
-0.201249
0.104385
0.0968638
-0.122176
0.0211795
-0.20361
0.292051
0.141647
0.17962
-0.321266
-0.158439
0.336526
-0.178087
-0.0134085
-0.0985453
0.111954
0.0781966
0.0580662
0.118754
-0.0106619
0.121548
0.149133
-0.270681
0.128941
-0.159762
0.0276612
-0.00193387
-0.0067764
0.00871027
0.0428787
-0.0884267
0.271495
0.360493
-0.0906366
-0.269857
-0.115753
0.110739
-0.0457619
-0.0649767
-0.145041
0.00944852
-0.000312918
-0.0091356
0.317257
-0.180093
-0.137163
-0.124214
0.274038
0.086456
0.0333081
0.02218
-0.0554881
-0.00290848
0.00169377
0.00121471
0.176112
-0.477406
0.0231424
0.149542
-0.172685
0.190279
0.21281
0.0238887
-0.104188
0.462486
-0.251528
-0.210958
-0.186903
-0.0778009
0.264704
-0.0650078
0.0688844
-0.00387656
-0.365399
0.461056
0.161302
-0.308357
0.147055
-0.409207
0.221573
0.187635
-0.105205
0.0516897
0.0535157
0.435935
-0.280276
-0.155659
0.285176
-0.137604
-0.147571
0.00777453
0.031801
-0.0395755
0.0160083
-0.0693722
0.0533639
0.0401625
-0.0236932
-0.0759557
0.00333633
-0.00130311
-0.00203322
0.113177
-0.0821866
-0.0309901
0.180348
0.136909
-0.35585
0.100149
0.000725196
0.00779267
0.0366579
-0.223561
0.0357929
0.0848591
-0.0190563
0.105237
0.126826
-0.100342
-0.12337
-0.0303809
0.153751
-0.0848465
-0.126779
0.211626
-0.136867
0.0193587
0.177403
-0.206086
0.0286839
0.23993
-0.439227
0.199296
0.0815316
-0.027979
0.0150853
-0.00467171
-0.0104136
0.127483
-0.0221615
-0.105321
0.155345
-0.454924
-0.0434607
0.0366817
0.0316085
0.00546699
0.00313259
0.00424772
0.000419095
-0.0153816
-0.0808272
0.262272
-0.460502
0.19823
-0.386377
0.13514
-0.00525689
0.418778
-0.413522
0.0231603
-0.455168
0.341841
0.113326
-0.242908
-0.0467191
0.00510792
0.00274049
-0.00784842
0.0327998
-0.105788
0.0923796
-0.196863
-0.158986
0.0960833
-0.0912941
-0.0717645
-0.00353277
-0.228077
-0.217066
0.0880817
0.0717286
-0.101439
-0.049522
0.059644
-0.0398248
-0.0198192
-0.101305
0.0845223
0.151323
-0.156765
-0.0377943
0.104955
-0.136522
0.425106
-0.21063
-0.214476
-0.0017333
0.0908748
-0.0891415
-0.17176
-0.0470499
-0.0296569
0.0566954
0.0212931
-0.0798226
-0.0209493
0.100772
-0.288039
0.147387
-0.0264987
0.126167
0.00349802
-0.00233726
-0.00116076
-0.0340073
0.0166131
0.0653354
0.0167244
-0.0820599
-0.0980339
0.0051682
0.000948809
0.00849971
-0.192895
0.119148
-0.322758
-0.0351696
-0.164499
0.199669
-0.00493173
-0.0514983
-0.305559
-0.126206
0.116674
0.0552628
0.0867814
0.108593
-0.00070429
-0.452232
0.175296
0.276936
-0.475743
0.20472
0.271023
-0.143909
0.234403
0.110651
-0.47605
-0.012314
-0.0692082
-0.0301692
0.0035223
-0.0819522
0.0690456
0.0129066
-0.285013
0.199278
-0.00728288
0.00857417
-0.00129129
0.0961131
0.0263859
0.273927
-0.459554
0.185627
-0.0750554
-0.0664846
0.4481
0.017814
-0.465913
-0.0170024
-0.0879455
0.104948
0.0474203
-0.202288
0.154867
0.159664
0.152429
-0.00209233
9.61903e-05
0.00199614
-0.00814387
0.000974444
-0.00211566
0.00114121
0.158194
-0.219524
0.0613299
-0.0033982
-0.00617491
-0.118247
0.00152344
-0.00266258
0.00113914
-0.000483223
-0.00160911
-0.458416
-0.115414
0.0919309
0.0698898
-0.0735455
-0.196722
-0.190597
-0.219145
0.409742
0.00604396
-0.00741932
0.00137536
0.133524
-0.21837
0.32357
-0.126229
-0.197342
0.0282647
0.0558639
-0.0841287
-0.0290757
0.345176
-0.0965669
0.129679
0.028758
-0.158437
0.450039
-0.138451
0.164362
-0.0259105
0.0466199
0.0598896
-0.270915
-0.188639
-0.000209575
-0.00101368
0.00122325
-0.138456
-0.261335
-0.214408
-0.0842342
0.0175387
0.0666956
-0.0860962
0.0995806
-0.0134844
0.0547358
-0.109668
0.376465
0.0815889
-0.0191223
0.161851
0.0990503
0.00238496
-0.288768
0.147527
-0.11934
0.313001
-0.193661
0.0567229
-0.00226883
-0.0544541
0.18888
0.216827
-0.405707
0.000589544
0.20989
-0.0770103
0.105544
0.0276574
-0.0401328
0.0186663
-0.0247109
-0.136667
-0.131554
0.141485
0.0832039
-0.198067
-0.147533
0.174121
0.00224368
-0.176365
-0.158274
0.0500141
-0.0798336
-0.0347976
0.114631
-0.234807
-0.186682
0.421489
-0.00197803
0.16371
-0.310235
0.146525
0.296669
-0.171145
-0.125524
-0.0792242
-0.0259812
-0.0255442
0.0738288
-0.0482846
0.0395384
0.0879442
-0.348738
0.47132
0.0163516
-0.0103076
-0.0990308
0.108437
-0.00940576
0.157768
0.123626
-0.100458
-0.0231682
0.140725
-0.289043
0.156643
-0.00260983
0.0387213
-0.0361115
-0.112963
-0.259629
0.14029
-0.129345
0.266825
-0.13748
-0.00212525
0.00381902
-0.154157
-0.119186
0.273343
0.319434
-0.200284
-0.11915
0.000865401
-0.17171
0.0332593
0.000241531
0.00355186
-0.00379339
-0.139004
0.0639482
-0.342196
-0.100798
-0.218197
0.408476
-0.00923316
0.171556
-0.144433
-0.0271232
0.155635
0.16139
-0.0324267
-0.00996578
0.00333062
-0.00327841
-5.22138e-05
0.323562
0.112373
-0.00216926
-0.00210362
0.00427287
-0.0865017
0.00667907
0.208886
0.0557283
-0.264614
-0.253749
0.143481
0.110268
-0.0494292
-0.0325814
-0.0387575
0.327946
-0.289188
0.0546741
0.0237513
-0.0784254
0.110613
0.0196808
-0.368419
0.0801559
-0.0642465
-0.00691862
0.00334177
0.00357686
-0.0146334
0.263932
-0.102866
-0.161066