/*--------------------------------*- C++ -*----------------------------------*\
| =========                 |                                                 |
| \\      /  F ield         | OpenFOAM: The Open Source CFD Toolbox           |
|  \\    /   O peration     | Version:  v2012                                 |
|   \\  /    A nd           | Website:  www.openfoam.com                      |
|    \\/     M anipulation  |                                                 |
\*---------------------------------------------------------------------------*/
FoamFile
{
    version     2.0;
    format      ascii;
    class       volVectorField;
    location    "200";
    object      U;
}
// * * * * * * * * * * * * * * * * * * * * * * * * * * * * * * * * * * * * * //

dimensions      [0 1 -1 0 0 0 0];


internalField   nonuniform List<vector> 
18758
(
(1.10049 -0.301205 0)
(1.25078 -0.0322009 -1.6113e-19)
(1.0152 -0.000225848 2.54476e-21)
(0.598823 0.155945 4.74361e-20)
(0.181723 0.0311522 0)
(0.214371 0.0236615 0)
(-0.20053 -0.00969594 -1.8134e-19)
(1.01223 -0.00497792 -1.12107e-22)
(1.24135 0.0269111 -1.88361e-20)
(1.01801 -0.101056 -2.75912e-21)
(1.0555 -0.0410982 0)
(0.209611 -0.048015 -1.4365e-20)
(1.00212 -0.000328751 -7.32301e-22)
(1.09413 0.167005 -2.50419e-20)
(1.04529 0.010421 0)
(0.595271 -0.512725 0)
(1.11196 0.0239413 -4.52695e-20)
(1.00411 -0.00754271 -5.92536e-22)
(1.03725 -0.00486911 0)
(1.02688 -0.126733 -7.20016e-21)
(-0.0508025 0.0140095 0)
(1.00002 -0.000797952 -3.35416e-22)
(-0.0237435 -0.0145671 2.73184e-20)
(1.24027 0.0621093 0)
(1.30012 -0.12573 7.92443e-20)
(1.01193 -0.00465655 9.99669e-23)
(0.800148 -0.657894 -3.3697e-21)
(0.151995 0.0194665 -4.83661e-20)
(0.89407 0.00099042 0)
(1.07 -0.684464 -1.41901e-19)
(1.11043 0.0840704 -4.30308e-21)
(0.0949842 0.0264445 3.77034e-20)
(1.00045 -0.000204486 6.89668e-23)
(1.05139 -0.0117179 -2.41089e-20)
(1.16225 0.110486 -3.31857e-20)
(0.999302 -0.00255276 -8.23846e-23)
(1.0002 -0.000261851 1.43584e-22)
(1.03442 -0.0220863 -5.15812e-21)
(1.04101 -0.0243206 -1.47009e-20)
(1.1204 0.0206058 -2.29772e-20)
(1.03517 -0.0202076 0)
(0.939146 -0.0793138 0)
(1.02178 -0.00726762 0)
(0.977789 -0.0944461 0)
(1.20068 -0.48538 -7.74617e-21)
(1.01323 -0.00138108 -2.2172e-21)
(-0.0444926 -0.0129944 -1.62474e-20)
(1.05036 -0.0544328 0)
(1.0153 -0.103431 2.35369e-21)
(1.0214 -0.00549512 0)
(1.21449 -0.134549 8.72889e-20)
(0.350147 0.0827303 2.40425e-20)
(1.01573 -0.00179764 4.57116e-21)
(1.05458 -0.0373981 0)
(0.118684 0.0161496 -2.04402e-21)
(1.26775 -0.217042 3.61938e-20)
(1.00026 -0.000205752 -1.46389e-22)
(0.538353 -0.320084 -2.36131e-20)
(0.993713 -0.0245546 0)
(1.10376 0.170911 5.23001e-20)
(1.11775 -0.25371 -9.77379e-20)
(-0.186859 -0.0116315 1.81012e-19)
(1.2026 0.0109847 -7.75563e-20)
(0.969899 -0.0460394 -1.40816e-20)
(1.01561 -0.00203317 -3.46679e-21)
(0.994187 -0.00489256 6.15634e-21)
(1.11789 0.0287294 -2.12236e-20)
(1.00052 -0.00014888 7.01125e-22)
(1.03245 -0.0196396 8.38828e-21)
(0.332526 0.0822676 1.35303e-20)
(0.225439 0.0592659 5.42139e-20)
(0.97179 -0.0294893 0)
(1.02173 -0.00579889 -4.06106e-22)
(0.0464922 -0.201527 -6.06215e-20)
(1.01721 -0.00811806 0)
(0.995502 -0.0243952 -1.9949e-21)
(1.23141 0.0825534 0)
(0.183762 0.0310917 -1.18648e-19)
(0.923266 -0.304916 -2.43969e-20)
(-0.0685033 -0.0260267 1.87385e-19)
(0.0692796 0.00560278 1.26015e-20)
(1.23437 -0.453972 -8.40892e-20)
(1.10819 0.171068 3.42537e-20)
(0.176302 0.0183393 0)
(1.23063 0.0843214 0)
(1.09767 -0.0262975 4.13579e-20)
(0.622964 -0.21573 0)
(1.20205 0.00734109 9.54012e-20)
(-0.0860669 -0.0183315 -1.10759e-20)
(0.996103 -0.0255891 3.16774e-21)
(0.13706 0.0159529 0)
(0.993358 -0.023523 -1.94536e-21)
(0.159241 -0.0658238 0)
(0.93735 -0.0837985 0)
(0.074257 0.00907058 4.60637e-20)
(0.130696 -0.0594988 0)
(1.22676 0.0902704 0)
(1.01768 -0.00836135 0)
(1.00225 -0.0184929 -3.28054e-21)
(-0.0299355 0.0173448 1.692e-22)
(1.03952 -0.122288 0)
(0.08007 0.0121677 0)
(1.16219 0.0536425 0)
(1.11655 -0.123093 -4.92612e-20)
(0.0719847 0.0185539 -4.13208e-20)
(1.0835 -0.678048 1.57938e-19)
(0.978852 0.130052 0)
(0.211455 0.0369474 1.25894e-19)
(1.04316 -0.0351716 -4.57688e-21)
(0.964882 -0.0139957 0)
(0.196743 -0.0744461 0)
(0.567462 -0.739616 0)
(1.01054 -0.00535775 -1.2946e-21)
(1.00951 -0.0363602 4.10326e-22)
(0.722704 0.0288096 0)
(-0.20682 0.00346931 1.37129e-19)
(-0.164752 0.00200224 1.11358e-19)
(1.04482 0.0106734 0)
(0.0533866 -0.0336137 0)
(0.0464133 0.0110919 6.65106e-21)
(1.11819 -0.0515868 1.91898e-20)
(0.987666 -0.0121556 -1.35888e-20)
(0.665287 -0.0392672 2.38169e-20)
(0.63072 -0.646666 0)
(1.18162 -0.392881 0)
(1.20314 -0.486035 2.28228e-20)
(1.26605 -0.0356745 1.26135e-19)
(1.26331 0.0241876 -2.26758e-20)
(0.107849 -0.0481174 3.10245e-20)
(1.00333 -0.000104968 3.85812e-22)
(1.11332 0.0267541 5.378e-20)
(0.805214 -0.672088 0)
(-0.0856932 0.00768178 -5.06453e-20)
(0.933477 -0.214031 -1.25765e-20)
(0.157649 -0.733863 -1.13831e-20)
(0.970373 -0.0634527 4.45353e-21)
(1.23069 0.0751856 0)
(1.12296 0.0241093 0)
(1.00267 -0.018324 0)
(0.787429 -0.278312 0)
(0.889503 -0.327614 3.07882e-20)
(0.967327 -0.441865 2.64576e-20)
(1.00503 -0.0315066 0)
(1.20444 -0.201457 2.32307e-19)
(1.03626 -0.0199284 -1.05202e-20)
(1.03873 -0.00245686 6.1227e-21)
(-0.135691 0.00517298 -9.17639e-20)
(0.256022 0.0217808 0)
(1.10672 0.0825599 0)
(0.652245 0.0418331 2.74535e-20)
(1.24676 -0.433539 7.07175e-20)
(1.16909 0.150071 2.86855e-20)
(1.09744 -0.0306226 -2.22264e-20)
(0.999996 -0.00085035 0)
(-0.040697 0.00283309 2.69456e-20)
(1.08706 -0.0443441 1.95072e-20)
(0.0151076 -0.0337606 0)
(1.04984 -0.0543009 0)
(0.991496 -0.0380453 5.35676e-21)
(1.00004 -0.000396347 -3.34662e-21)
(1.01106 -0.0133591 1.42528e-21)
(1.1143 0.165271 1.9472e-20)
(0.254056 -0.131039 1.30615e-19)
(0.99256 -0.0382929 1.69858e-22)
(1.11678 -0.254116 6.20183e-20)
(0.815401 0.0112273 -2.003e-20)
(1.0384 -0.00710527 1.16195e-20)
(0.573591 -0.0548067 -9.4837e-20)
(1.21072 -0.247807 8.04374e-20)
(0.243129 0.0221426 -7.148e-20)
(-0.123366 0.0112387 -8.13297e-20)
(1.00405 -0.00768797 1.6551e-21)
(0.234709 -0.102098 -3.63313e-21)
(0.158114 0.0215533 -3.28626e-20)
(1.11673 0.16536 1.18105e-21)
(1.25079 0.0669197 -5.14887e-20)
(0.700626 0.0212721 6.46318e-20)
(0.969568 -0.0480034 0)
(0.803712 -0.254216 0)
(1.0318 -0.0303665 0)
(1.009 -0.00514264 -8.08673e-22)
(-0.239801 -0.000869796 7.05968e-20)
(1.2031 0.14805 0)
(1.0264 -0.00510847 -9.11401e-21)
(1.0677 0.00485406 0)
(1.23933 0.137578 7.8216e-20)
(0.997551 -0.0195649 0)
(-0.194593 0.0048826 -1.17486e-19)
(1.02061 -0.00637504 8.67352e-21)
(0.995529 -0.0172915 6.10007e-21)
(0.938528 -0.22481 -1.08455e-20)
(1.26279 0.019109 0)
(1.01208 -0.0477098 -4.39872e-23)
(1.1056 0.0787259 0)
(0.97832 -0.151974 -1.28782e-21)
(1.20394 0.00557782 -8.77551e-20)
(1.03062 -0.123442 1.01405e-20)
(1.22184 -0.233479 -1.07905e-19)
(1.00075 -0.00249552 0)
(1.02148 -0.00684372 0)
(0.751756 -0.226925 -6.06721e-20)
(1.04762 -0.0567583 1.29431e-20)
(1.07499 -0.122943 0)
(1.18294 -0.00687041 9.07651e-21)
(1.00214 -0.000492956 0)
(0.977538 -0.14967 0)
(1.17018 0.0469711 -2.94765e-20)
(1.00002 -0.000470823 0)
(-0.0297095 0.0143231 0)
(1.01102 -0.100159 0)
(1.00443 -0.00759956 -2.29695e-21)
(1.11927 -0.129498 0)
(0.994054 -0.0406444 3.02678e-22)
(1.08205 -0.117238 0)
(0.862694 -0.302644 2.07883e-20)
(0.0786804 -0.00685342 3.09635e-21)
(0.863749 -0.298555 0)
(0.544724 -0.450968 -4.9364e-20)
(1.01565 -0.00459474 -1.81945e-21)
(0.232932 0.0244997 -7.33897e-20)
(1.00436 -0.00769413 1.86141e-21)
(1.04289 -0.0356226 -2.93131e-21)
(1.20875 0.104505 -7.61539e-20)
(-0.11878 0.00637306 1.11185e-19)
(1.25037 -0.164108 1.22573e-20)
(1.16671 0.0492062 7.20037e-21)
(1.15845 -0.0595312 0)
(0.987191 -0.209393 0)
(1.02571 -0.00272651 7.63573e-21)
(1.18632 -0.0155734 3.14534e-20)
(0.993754 -0.00537532 0)
(1.20344 0.0035393 7.67354e-20)
(-0.0460875 -0.0112615 1.21316e-19)
(1.22672 0.092534 -3.51886e-20)
(1.00191 -0.00029283 4.2262e-22)
(0.997376 -0.0189766 4.74347e-21)
(1.02556 -0.0029313 -4.43879e-21)
(1.01273 -0.00172409 1.34103e-22)
(0.736356 -0.0552178 0)
(1.09807 -0.0971084 5.76535e-20)
(1.00908 -0.0132448 0)
(1.27841 -0.26013 1.9481e-19)
(0.958926 0.131063 4.96983e-20)
(1.055 -0.0213264 -1.6246e-20)
(0.697715 0.0472311 -6.81797e-21)
(0.175001 -0.275525 1.11909e-19)
(1.22357 0.0979649 0)
(0.999406 -0.00250053 0)
(0.0700356 0.0081756 -1.15572e-20)
(0.897811 -0.082032 -3.39378e-20)
(0.999158 -0.00300483 7.09368e-21)
(0.514309 -0.0451193 0)
(1.09856 -0.0222667 -4.44105e-20)
(0.898973 -0.0816792 -6.53005e-22)
(1.04341 0.00539356 5.18356e-21)
(1.1252 -0.05484 0)
(1.25926 0.0889275 0)
(0.490874 -0.461216 -2.51929e-21)
(1.07754 -0.114504 0)
(0.939493 -0.313378 3.87081e-21)
(1.02892 0.00243738 1.93142e-22)
(1.1565 0.0356186 4.1435e-20)
(0.9995 -0.00769624 0)
(1.18038 -0.00495763 -1.48823e-20)
(1.00911 -0.103357 2.644e-22)
(1.2067 0.105241 1.79043e-20)
(-0.257044 -0.000140582 -1.92688e-20)
(1.01539 -0.00449638 1.52894e-21)
(1.04247 -0.0327256 4.71086e-21)
(1.0585 -0.466316 0)
(1.04137 -0.0311231 0)
(1.06647 0.00274932 0)
(1.18285 -0.00869614 -6.8934e-20)
(0.701779 0.00345912 1.49877e-19)
(-0.181183 0.00184555 -1.38249e-19)
(1.00272 -0.0310428 -1.79957e-21)
(1.20362 -0.124863 1.23251e-21)
(0.161411 -0.0251618 3.07254e-20)
(1.22658 -0.463833 8.42199e-21)
(1.00975 -0.0527333 -1.01142e-21)
(1.02997 -0.00850631 3.32097e-21)
(1.0789 -0.0735953 -1.53508e-21)
(1.10041 -0.0965918 1.89306e-20)
(1.00467 -0.0316659 0)
(0.187228 -0.0309546 -4.70607e-20)
(1.2705 -0.244914 -1.26738e-20)
(1.05517 0.249809 1.02778e-19)
(-0.104078 0.0077292 0)
(-0.0220249 -0.0147142 -1.07967e-19)
(1.02473 -0.00521324 -3.95938e-21)
(1.01529 -7.83138e-05 7.14418e-22)
(0.991744 -0.232958 1.40177e-21)
(0.144912 -0.00955053 -3.11699e-21)
(0.923053 -0.0431648 -3.14376e-20)
(0.917682 -0.328959 7.29705e-21)
(1.2035 -0.0241109 1.05125e-19)
(1.07182 -0.0813536 -9.45919e-21)
(0.038888 0.00725364 0)
(1.03643 -0.00551466 1.20916e-20)
(1.11212 0.231647 -2.30647e-22)
(0.195324 0.019473 0)
(1.01298 -0.00155478 -1.93974e-21)
(0.423014 0.105661 -2.46563e-20)
(0.964481 -0.168251 0)
(1.03327 -0.0203047 -1.14349e-20)
(1.07055 -0.110235 -2.19182e-20)
(1.18876 -0.060196 0)
(1.04877 0.00271105 1.67868e-21)
(0.999153 -0.00298602 -8.24318e-21)
(-0.225551 -0.00530697 0)
(1.06817 0.250744 -5.1012e-20)
(1.0019 -0.0134207 -2.49021e-21)
(-0.236118 -0.00483974 -1.84809e-19)
(0.0434719 0.00911938 -7.41783e-20)
(1.24653 -0.153516 -1.20576e-20)
(0.998092 -0.00819856 -2.32845e-22)
(1.00301 -0.000218384 -6.61117e-22)
(1.15948 0.215018 0)
(1.05413 -0.0232236 1.60249e-22)
(1.02573 -0.00547155 9.77088e-21)
(1.03061 -0.0102283 -4.58748e-21)
(0.94692 -0.0146112 0)
(1.21044 -0.245036 -7.75375e-20)
(1.19161 -0.065309 0)
(1.0771 -0.0741633 1.4039e-21)
(1.09243 -0.0941042 8.78735e-21)
(1.02388 -0.122858 1.0225e-20)
(0.953853 -0.229273 1.26944e-20)
(1.02854 0.00194738 -6.07536e-21)
(1.00004 -0.000689475 0)
(1.26309 0.0262079 -6.26524e-20)
(1.07294 -0.202234 -2.71329e-20)
(1.2122 -0.124751 -1.06965e-19)
(0.592407 0.160509 -3.83433e-20)
(0.919892 -0.0491271 -1.28006e-20)
(1.01257 -0.0459935 0)
(1.00561 -0.000153427 1.73128e-22)
(1.11034 0.232733 -3.20244e-20)
(0.479497 0.116339 0)
(1.02589 -0.00351803 0)
(1.00487 -0.00762844 0)
(1.02566 -0.00365016 -6.9195e-21)
(0.969638 -0.0635282 -4.50378e-21)
(0.986219 -0.203946 3.61961e-21)
(1.29294 -0.127422 8.72123e-20)
(0.988265 -0.0115529 -4.95431e-21)
(0.968743 -0.012694 -1.08947e-20)
(1.02229 -0.00490306 3.35685e-21)
(0.642618 -0.535457 0)
(0.973701 -0.440335 -2.36225e-20)
(1.22666 -0.0332712 3.2896e-20)
(1.13383 -0.313282 0)
(1.05251 -0.00504683 6.44719e-21)
(1.26154 0.0140828 0)
(1.08006 -0.307751 2.5652e-20)
(1.10858 -0.0761236 -1.84656e-20)
(0.892324 -0.0915204 0)
(0.159482 -0.0443414 0)
(-0.0935609 0.00784827 0)
(1.22366 0.141421 0)
(1.00202 -0.00234099 0)
(1.03381 -0.129028 0)
(1.26609 -0.0628708 4.18796e-21)
(0.644292 0.00984261 -1.63891e-19)
(1.02124 -0.0819058 0)
(1.02461 -0.00535229 -4.08717e-21)
(1.15906 -0.0338624 -3.78176e-20)
(1.03783 -0.0106308 6.00695e-21)
(1.09673 -0.0128917 0)
(1.15761 -0.0202781 0)
(0.494323 0.156002 0)
(1.12513 0.121877 5.9135e-20)
(1.01943 -0.124708 -3.69645e-22)
(-0.244699 0.000715854 1.67326e-20)
(0.989112 -0.0250696 9.16261e-21)
(1.04682 -0.0559031 -1.38667e-20)
(1.00304 -0.0242267 -1.77497e-21)
(1.04081 -0.0253984 1.20278e-20)
(1.15245 0.0948973 0)
(1.06105 -0.040115 -1.15494e-20)
(-0.222456 -0.00731386 1.72996e-19)
(0.920147 -0.466658 5.1831e-21)
(1.04288 0.00442332 -2.34534e-22)
(1.00174 -0.0133666 -2.32698e-21)
(-0.158685 0.00377411 -5.52635e-20)
(1.12572 0.120951 -3.83553e-20)
(1.23993 0.0261836 -9.40531e-20)
(0.988803 -0.0243586 -1.01744e-20)
(1.10405 0.0626408 -3.16124e-20)
(1.02927 -0.00865202 0)
(0.939225 -0.072292 -2.40116e-20)
(0.987692 -0.0121287 2.1302e-20)
(1.01505 -0.00468873 -1.90202e-21)
(-0.162685 0.00210268 3.0767e-20)
(-0.0190826 0.0154955 0)
(1.02258 -0.723718 -9.03944e-20)
(0.50913 -0.17737 0)
(1.00534 -0.000543029 4.73843e-23)
(1.22949 0.061373 -5.00766e-20)
(0.0756824 0.0368676 0)
(1.12644 -0.0600455 0)
(1.01075 -0.00561906 7.40041e-22)
(0.610613 0.174198 -2.79205e-20)
(1.02893 -0.0123557 -6.82402e-21)
(1.03976 -0.00126454 4.22783e-22)
(1.00918 -0.00551061 0)
(1.15368 0.103948 3.92206e-20)
(0.990688 -0.0133975 -4.2287e-21)
(0.973189 -0.0908903 -8.66471e-21)
(1.13503 -0.282001 0)
(0.659658 -0.0276277 2.05254e-19)
(1.03005 -0.0095827 -1.90396e-21)
(0.163699 0.0318157 1.63188e-20)
(1.13487 0.000614508 0)
(0.998278 -0.00752319 -3.90638e-22)
(1.07482 -0.00451708 0)
(0.992411 -0.0241261 -2.08048e-21)
(1.00475 -0.00780713 -5.27452e-22)
(1.07026 -0.075619 0)
(1.15372 0.029079 -2.18878e-22)
(0.957352 -0.220293 -1.52556e-20)
(0.218172 -0.125162 1.27611e-19)
(1.12203 -0.0551734 -2.89214e-20)
(0.996466 -0.00446794 -8.59712e-23)
(1.02348 -0.462427 0)
(0.698759 0.125029 0)
(0.835745 0.203541 0)
(-0.132254 0.0101061 9.559e-20)
(1.14011 0.106016 5.52316e-20)
(1.00718 -0.0514437 0)
(1.0148 -0.00439784 0)
(1.00889 -0.0128663 0)
(0.993124 -0.0405917 -6.79931e-21)
(1.11914 0.125781 0)
(1.12072 0.0105921 0)
(1.08752 0.0230564 -2.59778e-21)
(0.964209 -0.16494 6.64746e-21)
(1.0983 -0.027838 0)
(1.21172 0.175147 0)
(1.16598 0.0527546 -8.52443e-21)
(0.992139 -0.0240069 7.82024e-21)
(1.09068 -0.0917898 -7.25575e-21)
(-0.0766375 -0.0150059 9.62426e-21)
(0.98962 -0.0547519 3.97868e-21)
(0.501894 0.167464 0)
(1.0051 -0.000312708 0)
(0.99676 -0.000644388 0)
(0.328276 0.0225111 0)
(0.950501 -0.0999061 -9.22424e-21)
(1.04335 -0.0287089 -9.69079e-21)
(1.25809 0.096761 -3.6512e-20)
(1.16715 0.103352 3.55603e-20)
(0.997355 -0.220783 -2.70092e-21)
(0.0907186 -0.0576353 -3.21646e-20)
(0.994716 -0.0246291 0)
(0.987716 -0.0512469 0)
(0.559776 -0.498218 1.05728e-19)
(0.151897 -0.037928 -2.97143e-20)
(0.868129 -0.129271 0)
(1.15157 -0.157054 -3.2035e-20)
(1.08982 0.167459 2.76895e-20)
(1.21904 0.170775 0)
(-0.2198 0.00112505 -1.93975e-22)
(1.09997 0.164767 2.47295e-20)
(0.971486 -0.0261817 6.90562e-22)
(1.21909 -0.0671391 0)
(1.00853 -0.0362305 -5.98491e-22)
(1.11939 0.126922 5.44016e-20)
(1.04075 -0.0494565 5.07548e-21)
(0.153712 -0.0623463 0)
(1.10131 0.0624913 3.74786e-20)
(1.28071 -0.0720247 5.58582e-20)
(1.0874 0.0227829 2.50585e-23)
(1.11189 0.0931033 0)
(1.01298 -0.00159922 -1.3331e-22)
(1.24133 0.0599318 -6.26643e-20)
(1.02147 -0.00614975 -2.62628e-21)
(-0.110811 0.00640021 -1.63035e-20)
(1.00279 -0.0249786 0)
(1.15235 -0.387011 2.3305e-20)
(0.999431 -0.0062136 0)
(1.13423 0.228913 2.96227e-20)
(1.09892 -0.0124582 0)
(1.00007 -0.00529963 4.00592e-21)
(1.00197 -0.0176987 0)
(1.00953 -0.00542479 0)
(0.85616 0.148441 0)
(-0.152739 0.00439324 1.66387e-20)
(0.750282 0.0276154 7.45325e-20)
(1.11376 0.0332373 0)
(1.06438 0.00263133 0)
(1.1906 -0.0555225 7.68088e-20)
(1.00002 -0.000643835 0)
(1.00003 -0.000358533 -8.94275e-21)
(0.339637 0.0781821 -5.65169e-20)
(1.00155 -0.0182858 0)
(0.996123 -0.00183085 0)
(1.20583 -0.0308494 -7.90571e-20)
(1.00217 -0.0023492 1.18394e-22)
(1.14581 -0.155472 0)
(1.18808 -0.0541739 -8.16263e-20)
(0.99588 -0.00166559 0)
(0.990896 -0.013848 0)
(0.937332 -0.0924111 -3.03439e-21)
(0.9893 -0.0540091 -6.38817e-21)
(1.0883 -0.0447951 -2.49749e-20)
(0.712379 0.0487881 6.91306e-21)
(1.06072 0.0385363 -1.79701e-20)
(0.879016 -0.122929 0)
(1.04663 -0.0840619 9.53587e-21)
(0.996548 -0.00447634 0)
(0.494601 -0.68696 3.66167e-21)
(0.966222 -0.0174225 -6.49867e-21)
(1.04149 -0.0373175 -1.68562e-20)
(0.878349 -0.7452 -2.66386e-20)
(-0.194669 0.000808494 2.86631e-20)
(1.11006 0.0901667 0)
(1.13028 0.209069 0)
(1.02104 -0.0842711 0)
(1.04153 -0.0363158 9.5444e-21)
(-0.175009 0.00473161 -2.46369e-20)
(1.03773 -0.00590586 -1.15327e-20)
(-0.171889 0.00132089 -9.45079e-20)
(1.13607 -0.370167 0)
(0.999789 -0.00568061 0)
(0.679301 0.0503946 0)
(1.26193 0.0165786 0)
(1.16034 -0.0299726 -1.41994e-20)
(1.00816 -0.00068215 -4.33838e-22)
(1.07205 -0.194464 2.68243e-20)
(0.418488 0.0983094 2.45228e-20)
(1.03523 -0.0210592 6.29367e-21)
(1.02986 -0.0186111 0)
(1.04643 0.0100308 0)
(1.0488 0.00242251 0)
(1.03929 -0.00318465 -3.16923e-21)
(1.01158 -0.000971432 0)
(1.00004 -0.000211839 7.24124e-21)
(0.789623 -0.0414408 0)
(1.07316 -0.0318385 -2.28635e-22)
(0.801539 0.0113996 -1.0939e-19)
(0.987611 -0.0100571 5.59035e-21)
(1.22509 -0.074697 -5.61186e-20)
(1.21463 -0.0272568 9.89038e-20)
(0.999406 -0.00731262 1.63296e-21)
(1.02089 -0.00669729 -5.25756e-21)
(1.07178 -0.036554 1.43669e-20)
(1.00099 -0.00241735 -3.16988e-21)
(1.01038 -0.0532692 7.04182e-23)
(0.951624 -0.0384313 -7.04319e-21)
(1.03041 -0.0316002 0)
(1.19659 0.0170489 -7.80464e-20)
(0.637932 -0.58095 3.39226e-20)
(1.0174 -0.00229298 3.78017e-21)
(0.396868 0.0940862 -1.27207e-20)
(0.0636148 0.0139461 -3.48938e-20)
(0.865759 -0.113493 2.49667e-20)
(1.21753 -0.07047 -1.27564e-19)
(0.979291 -0.739103 -3.31885e-20)
(0.936747 -0.0744044 1.82919e-20)
(1.06044 0.0350314 -3.19761e-20)
(1.09034 -0.0269191 -2.3704e-20)
(0.23586 0.0620712 -4.05192e-20)
(1.07141 -0.031874 4.78156e-23)
(1.0999 0.0508369 0)
(1.00633 -0.0343787 0)
(0.264724 -0.0436175 4.45649e-20)
(1.1274 -0.0222229 -4.93863e-20)
(0.980113 -0.427664 0)
(1.2012 0.0558389 0)
(-0.194295 -0.00990901 0)
(1.07111 -0.0336827 0)
(0.999948 -0.0274691 0)
(1.15779 -0.0528706 -4.09381e-20)
(1.29982 -0.135778 0)
(1.00785 -0.052087 7.96391e-22)
(1.17963 -0.369462 0)
(0.978353 -0.0315479 -4.67587e-21)
(0.879779 0.12515 0)
(1.01376 -0.0550287 0)
(1.02889 -0.0141378 -6.26797e-21)
(1.00974 -0.00574954 7.20542e-22)
(1.00212 -0.00159898 0)
(0.0765053 0.0187148 9.35273e-21)
(0.854549 0.125673 -6.06133e-20)
(0.987227 -0.0237584 0)
(1.13955 0.186697 0)
(0.956234 -0.121385 -4.576e-21)
(0.783101 0.190809 -6.32738e-20)
(-0.135407 0.00676368 -2.86265e-20)
(1.15892 0.215052 -3.45061e-20)
(1.26681 -0.0291593 6.18982e-20)
(1.03474 0.00325087 -5.88806e-21)
(0.196644 0.0212105 1.55241e-20)
(1.10241 0.0783364 0)
(1.01568 -0.032476 0)
(1.12148 0.0269023 1.45801e-20)
(0.312603 0.0754508 3.27494e-20)
(0.301736 0.00967876 2.76583e-20)
(1.05111 -0.0117752 -2.24772e-20)
(0.955027 -0.00912438 -6.87444e-22)
(1.01246 -0.0339066 4.07313e-22)
(1.01494 -0.000456903 0)
(0.232999 0.0234394 -6.84908e-21)
(1.19461 0.0238293 -1.82271e-20)
(0.132947 0.0192296 1.13664e-19)
(0.0467973 0.0307134 0)
(0.98216 -0.0217497 7.93783e-21)
(1.00085 -0.00242213 2.03875e-21)
(1.15261 -0.00562258 -1.06387e-20)
(1.00002 -0.000691126 0)
(1.01085 -0.0127938 -5.4053e-22)
(0.952065 -0.039111 0)
(1.04636 0.00763405 -4.67328e-21)
(1.2008 0.0123304 1.18493e-19)
(1.12589 -0.0174121 4.64236e-20)
(1.22037 -0.220821 1.07785e-19)
(0.226526 0.041071 0)
(1.15321 -0.147524 7.86992e-20)
(0.999375 -0.00615601 -2.65437e-21)
(0.94989 -0.0979782 -8.00932e-21)
(1.19762 -0.14396 3.86951e-20)
(0.294378 0.0628176 3.78114e-21)
(1.09837 0.0467553 0)
(1.26638 -0.354391 4.43977e-20)
(1.14821 -0.0549794 0)
(0.986669 -0.0251663 -2.71278e-21)
(1.14042 0.187802 0)
(0.884178 0.189106 -8.26274e-20)
(1.01315 -0.0489761 2.32386e-22)
(1.02636 -0.0042141 -2.53038e-21)
(0.651094 -0.310253 0)
(0.117029 0.0147749 6.7573e-20)
(1.22187 -0.238953 0)
(1.00224 -0.00177334 -2.47966e-22)
(-0.11226 0.00638008 0)
(-0.0829466 0.0055164 5.19931e-20)
(1.29989 -0.145203 0)
(1.02161 -0.00519531 0)
(-0.15322 -0.0144984 0)
(-0.225613 -0.00536745 1.95401e-19)
(0.622936 -0.227806 1.1168e-19)
(1.06108 -0.0408 1.1781e-20)
(0.999383 -0.000915452 0)
(0.745739 0.023923 0)
(1.00001 -0.000116182 -4.04787e-21)
(1.17111 0.13503 -7.80369e-20)
(-0.146401 0.00253871 -4.96137e-20)
(1.23664 -0.0299529 1.40536e-19)
(-0.180971 -0.0113965 -4.18085e-20)
(1.15782 0.0621753 -2.77189e-20)
(-0.015539 0.0218865 0)
(1.15722 0.0273081 -2.62018e-20)
(0.990587 -0.0337977 1.16283e-20)
(0.955911 -0.0110305 0)
(-0.183718 0.00676666 0)
(0.745204 0.208286 0)
(-0.237689 -0.00474641 -1.05009e-20)
(0.514409 0.146889 4.12968e-21)
(1.03787 -0.00595811 -5.08375e-21)
(1.17267 0.137617 5.74295e-20)
(1.00003 -0.000419371 -1.92882e-21)
(1.16066 -0.0618808 -2.22879e-20)
(1.14502 0.0794178 -1.42505e-20)
(1.20795 -0.145832 -9.13774e-20)
(0.999872 -0.00533778 3.15015e-21)
(0.970232 -0.082984 4.52106e-21)
(1.22492 0.0623696 -4.83745e-20)
(0.35647 0.0847434 3.43989e-21)
(-0.172439 0.00778994 6.59897e-20)
(-0.256891 -0.00206016 -6.35523e-20)
(1.11087 -0.0800334 2.3432e-20)
(1.04414 -0.13025 9.86842e-21)
(1.22528 0.100588 0)
(0.967543 -0.014793 1.192e-20)
(1.02817 -0.00812575 6.48918e-21)
(0.996912 -0.0125218 1.20656e-21)
(1.0581 0.0183335 -2.41396e-20)
(1.11297 0.0830676 4.8497e-21)
(0.995972 -0.00463209 -3.2718e-21)
(1.1424 0.0743857 3.88019e-20)
(1.00757 -0.0125582 6.69754e-22)
(1.00305 -0.000305654 -8.91503e-23)
(1.00533 -0.00763512 3.32409e-23)
(0.175422 0.026791 -6.85688e-20)
(0.964488 -0.014862 6.76583e-21)
(1.00003 -0.000431778 0)
(1.14916 -0.00756083 -7.15417e-20)
(1.14869 -0.0291592 2.41801e-20)
(1.01764 -0.00253738 -2.7969e-21)
(-0.181319 0.00236526 0)
(1.03812 -0.00967582 7.37111e-21)
(1.03015 0.00171255 1.26045e-20)
(1.15116 -0.0752486 4.74432e-20)
(0.887745 -0.131421 2.442e-20)
(1.06522 0.00453772 0)
(1.02804 -0.0527074 -3.15425e-21)
(1.27553 -0.338847 0)
(0.866247 -0.110699 2.68948e-20)
(1.06612 -0.120613 1.24823e-20)
(0.900377 0.191278 8.96678e-20)
(1.0711 -0.117604 0)
(0.656765 0.189006 2.34662e-20)
(0.907795 -0.0212405 2.79679e-20)
(1.19672 0.0195626 0)
(0.632992 -0.291231 -7.03978e-20)
(0.21012 0.0177393 -1.66121e-20)
(1.02582 -0.00400367 2.18536e-21)
(0.254739 0.0636239 -5.47246e-20)
(1.26293 0.0358865 0)
(1.0125 -0.00382152 2.15011e-21)
(-0.0701878 0.0103445 -5.36614e-20)
(0.998224 -0.00533555 -4.5025e-22)
(1.00582 -0.007617 -6.16504e-22)
(1.12289 -0.0290328 2.45957e-20)
(1.00405 -0.00705945 -1.09803e-21)
(1.14481 -0.235102 0)
(0.272257 0.061158 0)
(1.02093 -0.00608413 8.38934e-21)
(0.283024 -0.138963 -7.39165e-20)
(1.03415 0.00294256 -5.37141e-21)
(1.11663 -0.0498843 2.00452e-20)
(0.765405 0.218567 0)
(1.01738 -0.00190965 -9.35199e-22)
(0.100392 0.0134471 0)
(1.01498 -0.0680086 5.95572e-22)
(1.03778 -0.0134211 -6.33335e-21)
(0.997819 -0.0181203 0)
(0.996637 -0.0134171 1.51559e-21)
(1.23719 -0.0193207 0)
(0.741872 -0.2047 2.67352e-20)
(-0.201871 0.00293804 9.45076e-20)
(1.16053 -0.147816 -4.54072e-20)
(0.168775 0.0216075 -3.87711e-20)
(1.15391 -0.0106063 -1.97265e-20)
(0.996129 -0.00477184 5.4975e-21)
(1.22965 0.0686521 9.53097e-20)
(-0.243589 -0.00358651 4.98462e-20)
(1.26068 -0.0265326 -1.02834e-19)
(0.763475 -0.217313 0)
(1.22542 -0.0299115 -9.92422e-20)
(1.09704 0.0796082 -7.81397e-21)
(1.071 -0.0613995 -1.60158e-20)
(1.23796 -0.022468 -8.64366e-20)
(1.02575 -0.0511803 -7.98097e-21)
(1.24633 -0.429724 0)
(1.00226 -0.0010439 -5.36039e-22)
(-0.138933 -0.0191966 -1.10162e-20)
(1.0524 -0.00993129 0)
(0.772688 -0.25107 0)
(0.932603 -0.0894774 2.85226e-21)
(1.04084 -0.0285672 4.75724e-21)
(1.01133 -0.00819952 0)
(0.954935 -0.00755127 0)
(1.0102 -0.0124015 -1.14419e-22)
(1.28536 -0.0734657 0)
(1.01289 -0.0690041 0)
(1.00518 -0.0079231 -1.66784e-21)
(1.12332 0.0135505 2.88326e-22)
(1.18942 -0.0738226 6.61394e-20)
(1.24012 -0.0183852 -4.6841e-20)
(1.29987 -0.13549 0)
(1.07197 0.195776 6.17746e-21)
(-0.107412 0.00562942 0)
(1.0009 -0.00257831 9.32625e-22)
(0.999466 -0.000842798 -3.93521e-21)
(-0.099741 0.00734471 -1.30413e-20)
(0.995456 -0.00870857 0)
(1.27323 -0.277572 -1.59547e-19)
(1.16094 0.0653249 3.04234e-20)
(1.05789 -0.0376725 -2.64691e-21)
(0.995985 -0.00131191 1.26487e-20)
(1.06486 -0.112512 3.10852e-21)
(0.990458 -0.00129049 9.00073e-21)
(1.03675 -0.0132503 5.99702e-21)
(1.08783 0.00135173 -2.54413e-20)
(1.26819 -0.271324 1.46356e-19)
(1.22129 -0.223365 9.61004e-22)
(0.66216 -0.308982 0)
(1.12763 -0.167709 1.25478e-20)
(1.00076 -0.00356595 6.50301e-23)
(1.12782 0.0527544 -4.45745e-20)
(0.724764 0.022015 -1.37588e-19)
(1.00711 -0.0120232 0)
(1.14313 0.0816117 0)
(1.06318 -0.0249374 2.30437e-20)
(0.273364 0.064359 8.42141e-20)
(0.955736 -0.0431433 -1.03165e-20)
(0.0246364 3.43451e-06 0)
(1.00236 -0.000966003 0)
(1.25944 0.0284411 5.27607e-20)
(1.00002 -0.000335004 -6.81088e-22)
(1.16503 0.042963 -5.10771e-20)
(1.01531 -0.0330309 -1.96261e-22)
(1.0573 0.015995 -2.12153e-20)
(1.06113 0.0329989 0)
(1.01754 -0.00200336 0)
(1.02961 0.00179467 -8.08433e-21)
(1.01689 -0.00349612 3.42226e-21)
(0.817085 0.140552 0)
(-0.204811 -0.00197311 1.2313e-19)
(1.09545 0.0135723 1.53326e-20)
(0.138525 0.0153821 0)
(0.985766 -0.0238071 -2.08586e-22)
(1.11828 0.0141705 1.1819e-20)
(1.0868 -0.0441336 -3.7517e-20)
(1.24198 0.0363241 0)
(-0.0521344 -0.0277234 -8.25952e-20)
(1.09521 0.0137379 0)
(1.01968 -0.00239125 0)
(0.997487 -0.426715 0)
(1.00752 -0.0121536 -4.25706e-22)
(0.985397 -0.0235435 1.51168e-21)
(1.08786 -0.0381275 0)
(-0.183605 0.00322358 -6.29074e-20)
(0.694636 -0.0148984 0)
(1.26439 -0.0202692 -9.50049e-20)
(1.16062 0.211822 4.16814e-20)
(0.722986 -0.206382 9.21053e-21)
(0.94947 -0.0188064 -1.27253e-20)
(1.00663 -0.0266549 0)
(1.2561 -0.409619 7.90315e-20)
(1.00566 -0.00787905 1.26378e-21)
(1.27584 -0.0487872 0)
(1.08707 -0.0247455 0)
(0.999221 -0.00127337 0)
(0.367964 0.0547346 6.21559e-20)
(0.328786 0.0281039 8.73479e-20)
(0.997048 -0.000553023 8.45874e-21)
(-0.187894 0.00277551 -1.32862e-19)
(1.04695 -0.0858892 0)
(1.0622 0.131707 0)
(0.938752 -0.346653 -5.23692e-21)
(1.1323 0.211381 -5.18691e-20)
(0.298686 0.0271165 8.31146e-21)
(1.26714 -0.332247 -7.46438e-20)
(1.00287 -0.000700977 1.22737e-21)
(1.01506 2.20914e-05 -5.57626e-22)
(0.240434 0.0445555 3.98296e-21)
(1.00243 -0.0307892 0)
(1.03171 -0.0206571 0)
(1.08932 -0.024701 3.48294e-20)
(1.001 -0.0318765 0)
(0.880638 0.167851 7.31909e-20)
(1.14719 0.175567 0)
(1.1548 -0.0088188 6.41103e-20)
(0.0686166 0.0200763 7.84642e-20)
(1.13751 -0.00546184 0)
(1.15962 0.105635 0)
(1.06277 -0.023868 -2.63872e-20)
(1.00311 -0.00425471 0)
(1.01539 -0.00146526 -2.61884e-21)
(1.01024 -0.0069561 0)
(-0.184095 0.00196401 0)
(0.233375 0.01955 -1.98239e-21)
(1.11439 0.19978 -6.41072e-20)
(0.995757 -0.00113984 -1.14175e-20)
(1.01944 -0.00219732 0)
(1.06191 0.0337832 3.66191e-20)
(1.01643 -0.0221989 0)
(1.12417 -0.0334815 -1.29232e-20)
(0.973487 -0.0865941 0)
(1.22019 -0.469058 -3.59542e-20)
(0.379794 0.0792864 2.86679e-20)
(1.144 0.0728503 2.59761e-20)
(1.22437 0.116762 0)
(1.11804 0.201723 0)
(1.03071 -0.019254 5.14466e-21)
(1.23605 -0.0259743 9.99887e-20)
(1.00705 -0.0262291 -9.46807e-22)
(-0.0451916 -0.0268541 -1.39199e-19)
(1.26171 0.0361521 1.20991e-19)
(0.0165021 -0.0230074 8.86497e-20)
(0.911281 0.0145536 5.85381e-20)
(1.04731 0.00733604 0)
(1.08778 0.00149731 2.64669e-20)
(1.1327 -0.627123 -1.86089e-20)
(0.0628546 0.0207784 8.35415e-20)
(0.0497056 -0.0277401 -8.21795e-20)
(0.794406 -0.10243 2.53e-20)
(1.2028 -0.150076 -4.24104e-20)
(-0.146548 0.00599453 1.8334e-19)
(1.00206 -0.00199971 0)
(1.2232 0.106351 0)
(0.612533 -0.633163 -3.91552e-20)
(1.11509 0.131195 -3.15981e-20)
(1.00219 -0.00204737 7.19968e-24)
(1.0335 -0.0210329 0)
(1.12657 -0.0157529 0)
(0.0179081 0.0270255 3.81863e-20)
(0.325795 -0.672855 0)
(1.02366 -0.316435 -3.9536e-20)
(0.988605 -0.00813988 1.80528e-20)
(1.05707 0.0140799 -1.15085e-20)
(0.891494 -0.0553665 3.88422e-20)
(0.277346 -0.238133 -1.29311e-19)
(1.03968 -0.0270946 -4.78488e-21)
(1.25016 -0.299816 -1.1537e-19)
(1.00435 -0.0150353 -2.07817e-21)
(0.987643 -0.0513567 0)
(1.23627 -0.0786848 7.91345e-20)
(1.00699 -0.0116856 0)
(0.998672 -0.00768178 3.14069e-21)
(1.04195 -0.0512766 -8.12463e-21)
(1.00529 -0.0983039 0)
(1.00337 -0.00426413 -1.5532e-21)
(1.02609 -0.0501268 8.2777e-21)
(1.02213 -0.00520272 -7.03852e-21)
(1.09542 0.200046 -1.2648e-20)
(1.07046 0.218784 0)
(0.278578 0.0326929 5.07941e-20)
(1.0253 -0.00464458 0)
(0.876697 -0.204037 0)
(0.99315 -0.00208697 1.48251e-20)
(1.23108 0.0721061 -1.07577e-19)
(1.23908 0.0200407 -3.67272e-20)
(1.03197 -0.160528 6.57978e-21)
(1.004 -0.0154005 1.95574e-21)
(1.05227 -0.00594381 2.74686e-20)
(1.18304 -0.391871 0)
(1.19194 0.0628873 0)
(1.0929 -0.0276641 0)
(-0.155238 0.002582 0)
(1.11025 0.130397 2.33515e-20)
(0.992656 -0.0231425 -6.1612e-21)
(0.982636 -0.0224319 -8.1293e-21)
(0.687893 0.191014 -4.42634e-20)
(-0.0867317 -0.0194692 -1.1128e-19)
(1.11186 -0.191 -4.19761e-20)
(1.0168 -0.00455849 0)
(1.14824 0.22166 3.43428e-20)
(1.00087 -0.00343315 0)
(1.11308 -0.049433 -2.07862e-20)
(1.02058 -0.00815203 -2.14939e-21)
(1.29913 -0.157914 -2.65987e-20)
(-0.0269905 0.00179854 -6.13786e-20)
(1.00708 -0.0080217 9.01586e-23)
(1.03893 -0.00236671 7.08311e-21)
(1.27102 -0.042652 0)
(0.99951 -0.0278539 -1.91184e-21)
(0.734803 0.0609298 -7.92277e-21)
(-0.223148 0.00384515 2.17092e-19)
(1.12389 0.056404 -2.85442e-20)
(0.966298 -0.0125724 -1.26626e-20)
(0.999073 -0.00197224 1.94895e-21)
(1.02075 -0.00824855 -1.87864e-21)
(1.00225 -0.000718703 1.07298e-21)
(-0.236152 0.00144664 1.53135e-22)
(1.28218 -0.206079 -5.8824e-20)
(1.21416 -0.137261 5.3158e-20)
(1.03537 -0.0488569 0)
(-0.0427478 0.0132211 0)
(1.00508 -0.000353792 0)
(0.995555 -0.0169831 0)
(0.62138 0.0235033 -1.01958e-22)
(1.02687 -0.0125012 -5.3339e-21)
(0.235917 0.0336574 6.23101e-20)
(1.01733 -0.00155973 5.81981e-21)
(0.924428 -0.0945646 -2.18364e-20)
(0.952621 -0.0411932 7.65557e-21)
(0.996102 -0.0161412 -5.38844e-21)
(1.01467 -0.0218689 0)
(1.00094 -0.00337074 0)