/*--------------------------------*- C++ -*----------------------------------*\
| =========                 |                                                 |
| \\      /  F ield         | OpenFOAM: The Open Source CFD Toolbox           |
|  \\    /   O peration     | Version:  v2012                                 |
|   \\  /    A nd           | Website:  www.openfoam.com                      |
|    \\/     M anipulation  |                                                 |
\*---------------------------------------------------------------------------*/
FoamFile
{
    version     2.0;
    format      ascii;
    class       volVectorField;
    location    "200";
    object      U_0;
}
// * * * * * * * * * * * * * * * * * * * * * * * * * * * * * * * * * * * * * //

dimensions      [0 1 -1 0 0 0 0];


internalField   nonuniform List<vector> 
18758
(
(1.10011 -0.302063 0)
(1.25065 -0.0324482 -1.61055e-19)
(1.0152 -0.000226136 2.51589e-21)
(0.59907 0.156867 4.74355e-20)
(0.181252 0.0313635 0)
(0.214063 0.0233401 0)
(-0.200411 -0.00969293 -1.81074e-19)
(1.01223 -0.0049789 -1.09835e-22)
(1.24157 0.0271491 -1.88273e-20)
(1.01799 -0.101388 -2.54981e-21)
(1.05548 -0.041108 0)
(0.209596 -0.0478757 -1.43442e-20)
(1.00211 -0.000328541 -7.60342e-22)
(1.09361 0.16702 -2.49931e-20)
(1.0453 0.0104048 0)
(0.593977 -0.513721 0)
(1.11192 0.0238984 -4.49195e-20)
(1.00411 -0.00754365 -6.12564e-22)
(1.03725 -0.00487876 0)
(1.02682 -0.126893 -7.10869e-21)
(-0.0509137 0.0140889 0)
(1.00002 -0.000798032 -3.38628e-22)
(-0.0236046 -0.0145082 2.72776e-20)
(1.2405 0.0626523 0)
(1.30003 -0.125685 7.90152e-20)
(1.01193 -0.0046574 9.77138e-23)
(0.801579 -0.654801 -3.1085e-21)
(0.151417 0.0195442 -4.84489e-20)
(0.89317 0.000846119 0)
(1.07038 -0.686662 -1.4996e-19)
(1.11023 0.0840932 -4.29608e-21)
(0.0954888 0.0265729 3.76822e-20)
(1.00045 -0.000204359 7.06415e-23)
(1.05138 -0.0117353 -2.40229e-20)
(1.16201 0.110682 -3.31821e-20)
(0.999302 -0.00254607 -8.2027e-23)
(1.0002 -0.000261713 1.46888e-22)
(1.03442 -0.0220987 -5.12546e-21)
(1.041 -0.0243337 -1.46224e-20)
(1.12037 0.0205607 -2.29608e-20)
(1.03517 -0.0202246 0)
(0.939159 -0.0793398 0)
(1.02178 -0.00727342 0)
(0.977734 -0.0943539 0)
(1.20005 -0.485081 -7.72424e-21)
(1.01323 -0.00138228 -2.18345e-21)
(-0.0443408 -0.0129465 -1.62238e-20)
(1.05033 -0.0544566 0)
(1.01527 -0.10342 2.17592e-21)
(1.0214 -0.00549944 0)
(1.21462 -0.133914 8.71434e-20)
(0.350456 0.0831537 2.40549e-20)
(1.01573 -0.0017991 4.51735e-21)
(1.05456 -0.0374129 0)
(0.118061 0.0162079 -2.04757e-21)
(1.26748 -0.217034 3.62466e-20)
(1.00026 -0.000205665 -1.49759e-22)
(0.538085 -0.321507 -2.36899e-20)
(0.993707 -0.0245455 0)
(1.10311 0.17084 5.22806e-20)
(1.11762 -0.252626 -9.74197e-20)
(-0.186746 -0.0116288 1.80745e-19)
(1.20257 0.0110895 -7.81076e-20)
(0.969884 -0.046037 -1.41524e-20)
(1.01561 -0.0020348 -3.42569e-21)
(0.994185 -0.00488687 6.18411e-21)
(1.11784 0.028784 -2.11935e-20)
(1.00052 -0.000148733 7.18381e-22)
(1.03244 -0.0196447 8.33276e-21)
(0.332828 0.0826795 1.35366e-20)
(0.225452 0.0596244 5.42425e-20)
(0.971783 -0.0294719 0)
(1.02173 -0.00580341 -4.02482e-22)
(0.0460994 -0.201598 -6.05757e-20)
(1.01721 -0.00812498 0)
(0.995496 -0.0243875 -2.0122e-21)
(1.23141 0.0830759 0)
(0.18336 0.0313474 -1.18834e-19)
(0.922615 -0.305053 -2.487e-20)
(-0.0684341 -0.0259823 1.87122e-19)
(0.069306 0.00559971 1.25842e-20)
(1.23474 -0.453031 -8.3996e-20)
(1.10749 0.1715 3.42042e-20)
(0.175919 0.0180733 0)
(1.23071 0.0850176 0)
(1.09764 -0.0262689 4.12819e-20)
(0.623494 -0.215452 0)
(1.20205 0.00719527 9.52712e-20)
(-0.0859869 -0.0183238 -1.10625e-20)
(0.996096 -0.0255807 3.19644e-21)
(0.136657 0.0157012 0)
(0.993352 -0.023514 -1.96014e-21)
(0.159498 -0.0656581 0)
(0.937352 -0.0838313 0)
(0.0742748 0.00904376 4.6001e-20)
(0.130946 -0.0593134 0)
(1.22679 0.0905595 0)
(1.01767 -0.00835841 0)
(1.00224 -0.0184897 -3.3286e-21)
(-0.0300289 0.0174445 1.69196e-22)
(1.0396 -0.122435 0)
(0.0796021 0.0119496 0)
(1.16209 0.0537942 0)
(1.11649 -0.12315 -4.91306e-20)
(0.0725252 0.0186442 -4.12944e-20)
(1.08313 -0.678044 1.66707e-19)
(0.979353 0.130788 0)
(0.211111 0.0372335 1.26087e-19)
(1.04315 -0.0351788 -4.55233e-21)
(0.964871 -0.0139903 0)
(0.197015 -0.07414 0)
(0.567248 -0.739661 0)
(1.01053 -0.00535762 -1.25684e-21)
(1.0095 -0.0363563 4.47428e-22)
(0.722226 0.028672 0)
(-0.206971 0.00342673 1.3711e-19)
(-0.165371 0.00194484 1.11465e-19)
(1.04483 0.0106463 0)
(0.0534188 -0.0335213 0)
(0.0464689 0.0110594 6.64237e-21)
(1.11818 -0.0516293 1.91528e-20)
(0.987662 -0.0121501 -1.36515e-20)
(0.664796 -0.0392209 2.3787e-20)
(0.632116 -0.645698 0)
(1.1806 -0.39285 0)
(1.20312 -0.485357 2.27422e-20)
(1.26601 -0.0358896 1.2609e-19)
(1.26372 0.0243893 -2.26977e-20)
(0.108137 -0.0479961 3.09717e-20)
(1.00333 -0.000104977 4.19816e-22)
(1.11325 0.0268015 5.37183e-20)
(0.808459 -0.671509 0)
(-0.0857521 0.00772436 -5.06433e-20)
(0.933002 -0.214738 -1.2634e-20)
(0.157796 -0.732767 -1.14224e-20)
(0.97038 -0.063391 4.48029e-21)
(1.23079 0.0756955 0)
(1.1229 0.0241292 0)
(1.00266 -0.0183208 0)
(0.787236 -0.277933 0)
(0.890099 -0.326883 3.13851e-20)
(0.966862 -0.44083 2.64561e-20)
(1.00502 -0.0314997 0)
(1.2042 -0.201321 2.31788e-19)
(1.03626 -0.0199424 -1.04596e-20)
(1.03872 -0.00247077 6.09924e-21)
(-0.136369 0.00521388 -9.18633e-20)
(0.257367 0.0219952 0)
(1.10654 0.0824619 0)
(0.652117 0.0419805 2.75005e-20)
(1.24649 -0.433333 7.06358e-20)
(1.1695 0.150817 2.87051e-20)
(1.09742 -0.0306643 -2.21811e-20)
(0.999996 -0.000851213 0)
(-0.0405486 0.00283556 2.69112e-20)
(1.08703 -0.0443673 1.9407e-20)
(0.0151306 -0.0336825 0)
(1.04981 -0.0542888 0)
(0.991489 -0.0380252 5.40326e-21)
(1.00004 -0.000395223 -3.4235e-21)
(1.01106 -0.0133593 1.34015e-21)
(1.11381 0.165318 1.94536e-20)
(0.254089 -0.130785 1.30554e-19)
(0.992547 -0.0382812 1.73661e-22)
(1.1166 -0.252788 6.18265e-20)
(0.814525 0.0110777 -2.00131e-20)
(1.0384 -0.00711575 1.15647e-20)
(0.573288 -0.0548788 -9.47121e-20)
(1.21054 -0.247605 8.02318e-20)
(0.242782 0.0218502 -7.1543e-20)
(-0.123282 0.0111465 -8.12799e-20)
(1.00405 -0.00768892 1.70381e-21)
(0.234865 -0.101688 -3.62936e-21)
(0.157555 0.0216634 -3.29187e-20)
(1.11644 0.165412 1.18365e-21)
(1.25102 0.0672821 -5.15537e-20)
(0.699911 0.0209579 6.46264e-20)
(0.969555 -0.047971 0)
(0.803189 -0.255557 0)
(1.03178 -0.0303734 0)
(1.009 -0.005142 -7.72598e-22)
(-0.240074 -0.000887759 7.06011e-20)
(1.20319 0.148856 0)
(1.0264 -0.00511457 -9.0494e-21)
(1.06768 0.00483549 0)
(1.23926 0.138495 7.82132e-20)
(0.997546 -0.0195597 0)
(-0.194726 0.00482608 -1.17472e-19)
(1.02061 -0.00638025 8.59036e-21)
(0.995523 -0.0172879 6.14586e-21)
(0.937862 -0.227039 -1.09323e-20)
(1.26317 0.0191858 0)
(1.01206 -0.0477091 -1.04536e-22)
(1.10542 0.0787192 0)
(0.97854 -0.151755 -1.31628e-21)
(1.20396 0.00544074 -8.77312e-20)
(1.03057 -0.12325 1.00393e-20)
(1.22172 -0.233071 -1.03525e-19)
(1.00075 -0.00249322 0)
(1.02148 -0.00684891 0)
(0.751742 -0.225993 -6.08608e-20)
(1.0476 -0.0567556 1.28738e-20)
(1.07505 -0.122689 0)
(1.1829 -0.00712751 8.24794e-21)
(1.00214 -0.000492788 0)
(0.977687 -0.149815 0)
(1.17017 0.0471021 -2.94677e-20)
(1.00002 -0.000470851 0)
(-0.0296999 0.0143945 0)
(1.01097 -0.0999412 0)
(1.00442 -0.00760014 -2.38094e-21)
(1.1192 -0.129628 0)
(0.994042 -0.040631 3.02942e-22)
(1.08207 -0.117365 0)
(0.862433 -0.302785 2.08391e-20)
(0.0787003 -0.0068399 3.09212e-21)
(0.863698 -0.297233 0)
(0.546209 -0.448942 -4.96899e-20)
(1.01565 -0.00459792 -1.79633e-21)
(0.232628 0.024169 -7.34167e-20)
(1.00436 -0.00769475 1.92701e-21)
(1.04287 -0.0356355 -2.91575e-21)
(1.20853 0.105025 -7.61501e-20)
(-0.119448 0.00642338 1.11303e-19)
(1.2502 -0.164049 1.22783e-20)
(1.1667 0.0493794 7.18794e-21)
(1.15842 -0.0595253 0)
(0.986834 -0.208527 0)
(1.02571 -0.00273044 7.58264e-21)
(1.18633 -0.0153167 3.11992e-20)
(0.993751 -0.00537227 0)
(1.20364 0.00376348 7.67168e-20)
(-0.0459336 -0.0112265 1.21139e-19)
(1.22662 0.092827 -3.52078e-20)
(1.00191 -0.000292692 4.37074e-22)
(0.997372 -0.0189713 4.78638e-21)
(1.02557 -0.00293436 -4.40796e-21)
(1.01272 -0.00172446 1.31923e-22)
(0.735836 -0.0551857 0)
(1.09801 -0.0971467 5.74872e-20)
(1.00908 -0.0132415 0)
(1.27832 -0.25996 1.94706e-19)
(0.95945 0.131793 4.97374e-20)
(1.05499 -0.0213552 -1.61678e-20)
(0.697622 0.0474103 -6.82952e-21)
(0.175313 -0.27515 1.12024e-19)
(1.2234 0.0986687 0)
(0.999406 -0.00249445 0)
(0.0700611 0.0081598 -1.15412e-20)
(0.897785 -0.0820408 -3.40338e-20)
(0.999157 -0.00299663 7.13228e-21)
(0.514006 -0.0451557 0)
(1.09853 -0.0222637 -4.43279e-20)
(0.898942 -0.0817708 -6.59032e-22)
(1.04342 0.0053842 5.16357e-21)
(1.12519 -0.0548644 0)
(1.25941 0.0897248 0)
(0.492519 -0.460245 -2.52977e-21)
(1.07751 -0.114574 0)
(0.939888 -0.313676 3.986e-21)
(1.02893 0.00243282 1.92005e-22)
(1.15649 0.0356376 4.14267e-20)
(0.999497 -0.0076917 0)
(1.18042 -0.00495507 -1.48846e-20)
(1.00905 -0.103361 2.09534e-22)
(1.20651 0.10572 1.79309e-20)
(-0.256823 -0.000145747 -1.9247e-20)
(1.01539 -0.0044997 1.50773e-21)
(1.04246 -0.0327361 4.68644e-21)
(1.059 -0.467949 0)
(1.04136 -0.0311361 0)
(1.06644 0.00271303 0)
(1.18289 -0.0086176 -6.34421e-20)
(0.701033 0.00329055 1.49741e-19)
(-0.181822 0.00180305 -1.38381e-19)
(1.00272 -0.0310251 -1.83428e-21)
(1.20351 -0.12496 1.26853e-21)
(0.163187 -0.0246741 3.0774e-20)
(1.22711 -0.464278 8.53457e-21)
(1.00973 -0.0527269 -1.11289e-21)
(1.02996 -0.008514 3.30011e-21)
(1.07886 -0.0736487 -1.53095e-21)
(1.10036 -0.096549 1.88846e-20)
(1.00466 -0.031665 0)
(0.189058 -0.0303402 -4.71588e-20)
(1.27026 -0.244997 -1.26707e-20)
(1.05517 0.249927 1.02697e-19)
(-0.104158 0.00776572 0)
(-0.0218854 -0.0146677 -1.07811e-19)
(1.02473 -0.0052185 -3.92961e-21)
(1.01529 -7.85305e-05 7.06492e-22)
(0.992121 -0.233201 1.33251e-21)
(0.144839 -0.00953876 -3.1126e-21)
(0.923035 -0.0431777 -3.15445e-20)
(0.917036 -0.328858 7.5225e-21)
(1.20352 -0.0241651 1.07076e-19)
(1.07176 -0.0813573 -9.425e-21)
(0.0389553 0.00724303 0)
(1.03643 -0.00551959 1.20323e-20)
(1.11117 0.231528 -2.5409e-22)
(0.194963 0.0191917 0)
(1.01297 -0.00155599 -1.90869e-21)
(0.423694 0.106087 -2.46571e-20)
(0.964857 -0.16787 0)
(1.03326 -0.0203146 -1.13602e-20)
(1.07051 -0.110293 -2.18443e-20)
(1.18874 -0.0601246 0)
(1.04877 0.00269105 1.67346e-21)
(0.999153 -0.00297813 -8.28795e-21)
(-0.225386 -0.00528925 0)
(1.06779 0.250784 -5.09587e-20)
(1.0019 -0.0134201 -2.52546e-21)
(-0.235976 -0.00482955 -1.84548e-19)
(0.0435358 0.00909758 -7.40798e-20)
(1.24644 -0.153559 -1.20346e-20)
(0.99809 -0.00819566 -2.34492e-22)
(1.00301 -0.000218407 -7.20599e-22)
(1.15915 0.21509 0)
(1.05412 -0.0232396 1.60387e-22)
(1.02573 -0.00547712 9.70161e-21)
(1.03061 -0.0102374 -4.55904e-21)
(0.946891 -0.0145867 0)
(1.21046 -0.244974 -7.73945e-20)
(1.19164 -0.0652684 0)
(1.0771 -0.0741523 1.401e-21)
(1.09239 -0.0941704 8.75724e-21)
(1.02384 -0.122828 1.00803e-20)
(0.954368 -0.228192 1.28044e-20)
(1.02854 0.00194294 -6.03873e-21)
(1.00004 -0.000690313 0)
(1.26351 0.02643 -6.27223e-20)
(1.07279 -0.202559 -2.70286e-20)
(1.21217 -0.124971 -1.06898e-19)
(0.592501 0.161449 -3.83537e-20)
(0.919896 -0.0491833 -1.28409e-20)
(1.01256 -0.0459951 0)
(1.00561 -0.000153409 1.58794e-22)
(1.10943 0.232804 -3.16846e-20)
(0.480213 0.116793 0)
(1.02589 -0.00352277 0)
(1.00487 -0.00762944 0)
(1.02566 -0.00365427 -6.87054e-21)
(0.969627 -0.0634861 -4.53079e-21)
(0.985925 -0.203959 3.72043e-21)
(1.29288 -0.127464 8.69931e-20)
(0.988263 -0.0115488 -4.9772e-21)
(0.968741 -0.012671 -1.09324e-20)
(1.02229 -0.00490758 3.32851e-21)
(0.642147 -0.535312 0)
(0.97309 -0.438681 -2.3412e-20)
(1.22667 -0.0331742 3.28775e-20)
(1.1337 -0.313766 0)
(1.0525 -0.00506086 6.42566e-21)
(1.26186 0.0138801 0)
(1.07998 -0.308995 2.55282e-20)
(1.10856 -0.0761644 -1.84222e-20)
(0.892278 -0.0913383 0)
(0.159449 -0.0442306 0)
(-0.0940597 0.00792726 0)
(1.22369 0.142075 0)
(1.00202 -0.0023399 0)
(1.03381 -0.129324 0)
(1.26573 -0.0630743 4.18388e-21)
(0.643531 0.00969976 -1.63749e-19)
(1.02127 -0.081911 0)
(1.02461 -0.00535749 -4.05648e-21)
(1.15907 -0.0340782 -3.7778e-20)
(1.03783 -0.0106397 5.97716e-21)
(1.09671 -0.0129186 0)
(1.15693 -0.0204914 0)
(0.493764 0.157295 0)
(1.12471 0.121875 6.06863e-20)
(1.0194 -0.124736 -3.7089e-22)
(-0.244474 0.000710842 1.67133e-20)
(0.989105 -0.0250584 9.22172e-21)
(1.04681 -0.0559323 -1.37925e-20)
(1.00304 -0.0242208 -1.80689e-21)
(1.0408 -0.025411 1.19639e-20)
(1.15221 0.0950348 0)
(1.06103 -0.0401347 -1.15086e-20)
(-0.222319 -0.00730192 1.72748e-19)
(0.918988 -0.463405 5.07904e-21)
(1.04289 0.00441131 -2.34402e-22)
(1.00173 -0.0133664 -2.35984e-21)
(-0.15911 0.00369393 -5.52915e-20)
(1.12539 0.120989 -3.92167e-20)
(1.24015 0.0261446 -9.3931e-20)
(0.988797 -0.024348 -1.024e-20)
(1.10392 0.0626214 -3.15661e-20)
(1.02927 -0.00866002 0)
(0.939171 -0.0721644 -2.41238e-20)
(0.987689 -0.0121219 2.14006e-20)
(1.01505 -0.00469172 -1.87563e-21)
(-0.163478 0.00208274 3.08093e-20)
(-0.0190485 0.0155867 0)
(1.0231 -0.724651 -9.01041e-20)
(0.509772 -0.177259 0)
(1.00534 -0.000543009 3.25971e-23)
(1.22945 0.0614296 -5.00904e-20)
(0.0757173 0.0370658 0)
(1.12642 -0.0600651 0)
(1.01075 -0.00561913 7.18072e-22)
(0.610574 0.175035 -2.7912e-20)
(1.02892 -0.012363 -6.77564e-21)
(1.03976 -0.00127497 4.08383e-22)
(1.00918 -0.00550986 0)
(1.15345 0.104094 3.91363e-20)
(0.990684 -0.0133935 -4.2507e-21)
(0.973177 -0.0908733 -8.73448e-21)
(1.13571 -0.28179 0)
(0.65915 -0.0276733 2.04984e-19)
(1.03005 -0.00959117 -1.89191e-21)
(0.16321 0.0320282 1.63435e-20)
(1.13485 0.000744413 0)
(0.998274 -0.00751945 -3.93522e-22)
(1.0748 -0.00453639 0)
(0.992404 -0.0241177 -2.09582e-21)
(1.00475 -0.00780713 -5.49815e-22)
(1.07024 -0.0756269 0)
(1.15371 0.0290049 -2.20855e-22)
(0.957364 -0.219594 -1.55201e-20)
(0.21801 -0.124897 1.27713e-19)
(1.12202 -0.0551982 -2.88699e-20)
(0.996464 -0.0044616 -8.57552e-23)
(1.02421 -0.463724 0)
(0.699424 0.125624 0)
(0.836369 0.203992 0)
(-0.132188 0.010015 9.55398e-20)
(1.13982 0.106136 5.51685e-20)
(1.00716 -0.0514317 0)
(1.01479 -0.00439974 0)
(1.00889 -0.0128665 0)
(0.99311 -0.0405797 -6.87132e-21)
(1.11877 0.125756 0)
(1.12069 0.0106039 0)
(1.08748 0.0230246 -2.59326e-21)
(0.964111 -0.164632 6.70271e-21)
(1.09827 -0.027831 0)
(1.21143 0.175708 0)
(1.16589 0.0528091 -8.50747e-21)
(0.992132 -0.023997 7.87755e-21)
(1.09065 -0.0918224 -7.23487e-21)
(-0.0765773 -0.0150148 9.61222e-21)
(0.98961 -0.0547497 4.01357e-21)
(0.501255 0.168605 0)
(1.0051 -0.000312664 0)
(0.99676 -0.000634432 0)
(0.329696 0.0230488 0)
(0.950461 -0.099847 -9.2811e-21)
(1.04333 -0.028709 -9.64287e-21)
(1.25818 0.0973152 -3.65378e-20)
(1.16693 0.103595 3.54174e-20)
(0.997571 -0.221437 -2.64373e-21)
(0.0909438 -0.0575518 -3.211e-20)
(0.994709 -0.0246216 0)
(0.987708 -0.0512172 0)
(0.561069 -0.496216 1.06636e-19)
(0.151903 -0.0377898 -2.96705e-20)
(0.868211 -0.128949 0)
(1.15152 -0.157411 -3.19782e-20)
(1.08912 0.167528 2.76345e-20)
(1.21859 0.171324 0)
(-0.22037 0.00110957 -1.90645e-22)
(1.09939 0.164583 2.46847e-20)
(0.971481 -0.0261624 6.93405e-22)
(1.21912 -0.0671739 0)
(1.00852 -0.0362236 -6.33016e-22)
(1.11903 0.126956 5.43075e-20)
(1.04075 -0.0494737 5.04213e-21)
(0.153955 -0.0623183 0)
(1.10118 0.0624946 3.74234e-20)
(1.28042 -0.0722827 5.57636e-20)
(1.08735 0.0227703 2.50139e-23)
(1.11165 0.0931012 0)
(1.01298 -0.00160189 -1.31143e-22)
(1.24154 0.0603523 -6.27637e-20)
(1.02147 -0.00615445 -2.60212e-21)
(-0.111282 0.00645807 -1.63133e-20)
(1.00278 -0.0249724 0)
(1.15228 -0.389362 2.27866e-20)
(0.999428 -0.00620905 0)
(1.1339 0.229103 2.96058e-20)
(1.09888 -0.0124581 0)
(1.00007 -0.00529356 4.0418e-21)
(1.00197 -0.017696 0)
(1.00953 -0.00542426 0)
(0.856839 0.149066 0)
(-0.153492 0.00442776 1.66607e-20)
(0.749777 0.0274658 7.46059e-20)
(1.11369 0.0332253 0)
(1.06437 0.00266267 0)
(1.19053 -0.0557318 7.6741e-20)
(1.00002 -0.000643962 0)
(1.00003 -0.00035885 -8.99422e-21)
(0.339895 0.0786146 -5.65517e-20)
(1.00155 -0.0182832 0)
(0.996123 -0.00182253 0)
(1.20575 -0.0308316 -7.89804e-20)
(1.00216 -0.00234826 1.22206e-22)
(1.14573 -0.155795 0)
(1.18801 -0.0543703 -8.15539e-20)
(0.995879 -0.00165758 0)
(0.990892 -0.0138439 0)
(0.93727 -0.0923406 -3.05638e-21)
(0.989289 -0.0540047 -6.44888e-21)
(1.08824 -0.0447716 -2.49589e-20)
(0.712322 0.0490163 6.92471e-21)
(1.06071 0.0384402 -1.7925e-20)
(0.879025 -0.122959 0)
(1.04663 -0.0839956 9.48305e-21)
(0.996547 -0.00446856 0)
(0.490702 -0.685673 3.63688e-21)
(0.96622 -0.0173809 -6.52127e-21)
(1.04147 -0.0373213 -1.67606e-20)
(0.879831 -0.743454 -2.65678e-20)
(-0.194924 0.000746658 2.86658e-20)
(1.10982 0.090167 0)
(1.13072 0.209663 0)
(1.021 -0.0842047 0)
(1.04151 -0.0363248 9.49006e-21)
(-0.175277 0.00466029 -2.46406e-20)
(1.03773 -0.00591875 -1.14798e-20)
(-0.172633 0.00128774 -9.46281e-20)
(1.13557 -0.371093 0)
(0.999787 -0.00567419 0)
(0.679248 0.0506269 0)
(1.26236 0.0166501 0)
(1.16036 -0.0300819 -1.4185e-20)
(1.00816 -0.000682251 -4.18082e-22)
(1.07205 -0.194533 2.67356e-20)
(0.419013 0.0987616 2.4527e-20)
(1.03522 -0.0210768 6.25649e-21)
(1.02986 -0.0186229 0)
(1.04644 0.0100174 0)
(1.04881 0.00240558 0)
(1.03928 -0.00320014 -3.15537e-21)
(1.01158 -0.000971718 0)
(1.00004 -0.000212167 7.2831e-21)
(0.789015 -0.041496 0)
(1.07313 -0.0318536 -2.28015e-22)
(0.800682 0.0112551 -1.09311e-19)
(0.987608 -0.0100549 5.61504e-21)
(1.22505 -0.074705 -5.60246e-20)
(1.21427 -0.0275178 9.88478e-20)
(0.999403 -0.00730835 1.64631e-21)
(1.02089 -0.00670248 -5.20743e-21)
(1.07175 -0.0365638 1.43263e-20)
(1.00099 -0.00241473 -3.23051e-21)
(1.01035 -0.0532895 1.60902e-22)
(0.951581 -0.0384505 -7.06696e-21)
(1.03039 -0.0316106 0)
(1.19669 0.0171056 -7.80619e-20)
(0.641291 -0.578184 3.42071e-20)
(1.0174 -0.0022949 3.73986e-21)
(0.397333 0.0945366 -1.27244e-20)
(0.0629176 0.0140128 -3.49508e-20)
(0.865721 -0.113481 2.50751e-20)
(1.21769 -0.0701577 -1.27285e-19)
(0.982786 -0.736355 -3.31219e-20)
(0.936721 -0.0743795 1.8377e-20)
(1.06043 0.0349662 -3.18897e-20)
(1.09033 -0.0269567 -2.36559e-20)
(0.235877 0.0624371 -4.05475e-20)
(1.07138 -0.0318865 4.76776e-23)
(1.09982 0.0508113 0)
(1.00632 -0.0343718 0)
(0.266421 -0.0420763 4.47673e-20)
(1.12738 -0.0222351 -4.93564e-20)
(0.978088 -0.427544 0)
(1.20126 0.0564087 0)
(-0.194178 -0.00990466 0)
(1.07109 -0.0336962 0)
(0.999938 -0.0274592 0)
(1.15772 -0.0528753 -4.08834e-20)
(1.29959 -0.136358 0)
(1.00783 -0.0520754 8.63186e-22)
(1.17938 -0.368843 0)
(0.978344 -0.0315354 -4.69973e-21)
(0.880311 0.12585 0)
(1.01378 -0.055025 0)
(1.02888 -0.0141452 -6.22364e-21)
(1.00973 -0.00574901 6.92743e-22)
(1.00211 -0.00159822 0)
(0.0758466 0.0188388 9.36726e-21)
(0.855109 0.12636 -6.06567e-20)
(0.987222 -0.0237471 0)
(1.13907 0.186575 0)
(0.956236 -0.121381 -4.61151e-21)
(0.783737 0.19132 -6.32825e-20)
(-0.136171 0.00680805 -2.86599e-20)
(1.15859 0.215174 -3.44605e-20)
(1.26692 -0.0294286 6.40366e-20)
(1.03474 0.00324363 -5.85965e-21)
(0.196131 0.0212903 1.55512e-20)
(1.10227 0.0783756 0)
(1.01567 -0.0324828 0)
(1.12146 0.0268382 1.45588e-20)
(0.312822 0.0758592 3.27715e-20)
(0.303283 0.0101823 2.7708e-20)
(1.05111 -0.0118017 -2.23947e-20)
(0.955015 -0.00907301 -6.89536e-22)
(1.01245 -0.0338946 3.16752e-22)
(1.01494 -0.000457385 0)
(0.234238 0.0235794 -6.84969e-21)
(1.19479 0.0240366 -1.82272e-20)
(0.132346 0.0193237 1.13855e-19)
(0.0468352 0.0308788 0)
(0.982155 -0.0217367 7.97692e-21)
(1.00085 -0.00241935 2.07566e-21)
(1.15264 -0.00564908 -1.06255e-20)
(1.00002 -0.000691133 0)
(1.01084 -0.0127936 -5.04975e-22)
(0.952044 -0.0391579 0)
(1.04636 0.00761229 -4.65667e-21)
(1.2009 0.0122076 1.19587e-19)
(1.12587 -0.0174318 4.6363e-20)
(1.22034 -0.221237 1.07844e-19)
(0.22624 0.0413837 0)
(1.1532 -0.147609 7.85652e-20)
(0.999373 -0.00615015 -2.67536e-21)
(0.949844 -0.0979342 -8.06495e-21)
(1.19722 -0.14409 3.863e-20)
(0.294412 0.0632202 3.78468e-21)
(1.09828 0.0467139 0)
(1.26618 -0.35439 4.39964e-20)
(1.14823 -0.0550402 0)
(0.986662 -0.0251559 -2.72899e-21)
(1.13978 0.187694 0)
(0.884996 0.1896 -8.26238e-20)
(1.01312 -0.048978 2.00471e-22)
(1.02636 -0.00421844 -2.51318e-21)
(0.651025 -0.310573 0)
(0.11659 0.0145398 6.76462e-20)
(1.222 -0.239321 0)
(1.00224 -0.00177262 -2.56574e-22)
(-0.112778 0.00644524 0)
(-0.0829111 0.00554755 5.19872e-20)
(1.29998 -0.144478 0)
(1.02161 -0.00519958 0)
(-0.15319 -0.0144736 0)
(-0.22546 -0.00535203 1.95123e-19)
(0.623459 -0.227425 1.11563e-19)
(1.06105 -0.0408073 1.17368e-20)
(0.999383 -0.000910868 0)
(0.745128 0.0236862 0)
(1.00001 -0.000116738 -4.06949e-21)
(1.17104 0.134784 -7.83628e-20)
(-0.147136 0.00249254 -4.96744e-20)
(1.23647 -0.0301867 1.4048e-19)
(-0.180855 -0.0113885 -4.17468e-20)
(1.15771 0.062168 -2.76331e-20)
(-0.0157671 0.0220234 0)
(1.15717 0.027313 -2.53804e-20)
(0.990578 -0.0337842 1.17247e-20)
(0.955905 -0.0110179 0)
(-0.183636 0.00671033 0)
(0.745279 0.208771 0)
(-0.237529 -0.00473215 -1.04859e-20)
(0.514073 0.14823 4.12633e-21)
(1.03787 -0.00596039 -5.06095e-21)
(1.1725 0.137981 5.74858e-20)
(1.00003 -0.000419605 -1.95737e-21)
(1.16065 -0.0619044 -2.22593e-20)
(1.14481 0.0795364 -1.42408e-20)
(1.20793 -0.146292 -9.12336e-20)
(0.999871 -0.00533082 3.17745e-21)
(0.97022 -0.0830208 4.37412e-21)
(1.22491 0.0624493 -4.8387e-20)
(0.356849 0.085167 3.44133e-21)
(-0.172337 0.00773072 6.59459e-20)
(-0.256697 -0.00205222 -6.34629e-20)
(1.11085 -0.0800949 2.3374e-20)
(1.04421 -0.13018 9.7979e-21)
(1.22521 0.100911 0)
(0.967538 -0.0147781 1.19622e-20)
(1.02817 -0.00813335 6.44602e-21)
(0.996909 -0.0125203 1.21551e-21)
(1.0581 0.0182825 -2.40683e-20)
(1.11279 0.083084 4.84193e-21)
(0.995969 -0.00462522 -3.28854e-21)
(1.14225 0.0744716 3.8772e-20)
(1.00757 -0.0125568 7.32027e-22)
(1.00305 -0.000305658 -9.63261e-23)
(1.00533 -0.00763633 3.33591e-23)
(0.174918 0.026969 -6.86804e-20)
(0.964491 -0.0148482 6.79509e-21)
(1.00003 -0.000431777 0)
(1.14921 -0.00760269 -7.14584e-20)
(1.1487 -0.0291272 2.4153e-20)
(1.01764 -0.00253955 -2.76799e-21)
(-0.182126 0.00235181 0)
(1.03811 -0.00968485 7.33521e-21)
(1.03016 0.00170653 1.25323e-20)
(1.15111 -0.0752485 4.73663e-20)
(0.88771 -0.131389 2.45177e-20)
(1.0652 0.00454732 0)
(1.02802 -0.0527201 -3.11975e-21)
(1.27542 -0.338944 0)
(0.866217 -0.110848 2.69621e-20)
(1.06609 -0.120464 1.2422e-20)
(0.901124 0.191779 8.96503e-20)
(1.07101 -0.11748 0)
(0.656754 0.189705 2.34544e-20)
(0.907764 -0.0211981 2.79883e-20)
(1.19688 0.019704 0)
(0.63233 -0.291716 -7.04147e-20)
(0.21134 0.0178416 -1.6618e-20)
(1.02582 -0.00400828 2.16978e-21)
(0.254816 0.0639972 -5.47591e-20)
(1.26336 0.0361243 0)
(1.01249 -0.0038229 2.10912e-21)
(-0.0708183 0.0104332 -5.37101e-20)
(0.998223 -0.00532913 -4.53055e-22)
(1.00581 -0.00761747 -6.61077e-22)
(1.12287 -0.0290314 2.45593e-20)
(1.00405 -0.00706105 -1.13467e-21)
(1.14468 -0.236311 0)
(0.272268 0.0615448 0)
(1.02093 -0.00608896 8.31143e-21)
(0.282886 -0.139595 -7.37688e-20)
(1.03416 0.00293801 -5.34511e-21)
(1.11661 -0.0499131 2.00079e-20)
(0.765363 0.218955 0)
(1.01738 -0.00191114 -9.25161e-22)
(0.0998619 0.0132747 0)
(1.01496 -0.0680146 5.69971e-22)
(1.03778 -0.013435 -6.30103e-21)
(0.997814 -0.0181157 0)
(0.996633 -0.0134157 1.52703e-21)
(1.23754 -0.0196951 0)
(0.741731 -0.20448 2.67637e-20)
(-0.202289 0.00290193 9.45497e-20)
(1.16056 -0.147938 -4.53325e-20)
(0.168464 0.021297 -3.87926e-20)
(1.15388 -0.0106217 -1.97025e-20)
(0.996126 -0.00476609 5.52579e-21)
(1.22978 0.0688777 9.53675e-20)
(-0.243399 -0.00357535 4.97761e-20)
(1.26077 -0.0268136 -1.02866e-19)
(0.763461 -0.217625 0)
(1.22553 -0.029781 -9.92035e-20)
(1.09687 0.0794974 -7.80129e-21)
(1.07098 -0.0614067 -1.59319e-20)
(1.23813 -0.0224231 -8.6268e-20)
(1.02573 -0.0511866 -7.86744e-21)
(1.24581 -0.429777 0)
(1.00226 -0.00104355 -5.56116e-22)
(-0.138903 -0.0191645 -1.10023e-20)
(1.0524 -0.0099498 0)
(0.772815 -0.25145 0)
(0.932585 -0.0895054 2.86626e-21)
(1.04084 -0.0285733 4.73215e-21)
(1.01043 -0.00836655 0)
(0.954943 -0.00752103 0)
(1.01019 -0.0123975 -1.06222e-22)
(1.28514 -0.0737304 0)
(1.01287 -0.0689988 0)
(1.00518 -0.00792369 -1.7568e-21)
(1.12328 0.0135242 2.87491e-22)
(1.18951 -0.0738052 6.60792e-20)
(1.24056 -0.0184712 -4.6845e-20)
(1.2995 -0.135912 0)
(1.0726 0.196329 6.17874e-21)
(-0.10787 0.00550896 0)
(1.0009 -0.00257495 9.50507e-22)
(0.999466 -0.000839002 -3.95027e-21)
(-0.100287 0.00741954 -1.30513e-20)
(0.995453 -0.00870673 0)
(1.2732 -0.277294 -1.593e-19)
(1.16087 0.0652668 3.04624e-20)
(1.05787 -0.0377069 -2.63698e-21)
(0.995985 -0.00130328 1.26978e-20)
(1.06485 -0.112689 3.09442e-21)
(0.990458 -0.00128714 9.03159e-21)
(1.03674 -0.0132634 5.96531e-21)
(1.08779 0.001319 -2.5396e-20)
(1.2682 -0.271045 1.46161e-19)
(1.22103 -0.224536 9.28526e-22)
(0.662323 -0.308885 0)
(1.12762 -0.16767 1.25137e-20)
(1.00075 -0.00356228 6.49379e-23)
(1.12773 0.0527948 -4.45263e-20)
(0.724059 0.0217018 -1.37592e-19)
(1.0071 -0.012021 0)
(1.143 0.0816508 0)
(1.06318 -0.0249442 2.29751e-20)
(0.273421 0.0647412 8.42764e-20)
(0.95571 -0.0431059 -1.03603e-20)
(0.0247088 6.46192e-06 0)
(1.00236 -0.000965709 0)
(1.25977 0.0286946 5.28132e-20)
(1.00002 -0.000334796 -6.93717e-22)
(1.16498 0.0430193 -5.09255e-20)
(1.0153 -0.0330332 -1.95504e-22)
(1.05731 0.015947 -2.11551e-20)
(1.06112 0.0329245 0)
(1.01754 -0.00200517 0)
(1.02961 0.00178983 -8.03817e-21)
(1.01689 -0.00349855 3.38328e-21)
(0.817766 0.141178 0)
(-0.205631 -0.00195623 1.23297e-19)
(1.09537 0.0135499 1.53037e-20)
(0.138034 0.0151945 0)
(0.98576 -0.0237914 -2.09803e-22)
(1.11826 0.0140983 1.17746e-20)
(1.08679 -0.0441539 -3.73269e-20)
(1.24218 0.0366872 0)
(-0.0520828 -0.0276869 -8.2482e-20)
(1.09518 0.0137353 0)
(1.01968 -0.00239367 0)
(0.997048 -0.423596 0)
(1.00751 -0.012152 -4.60084e-22)
(0.98539 -0.0235341 1.52001e-21)
(1.08782 -0.0381348 0)
(-0.184058 0.00316498 -6.29454e-20)
(0.694061 -0.0150131 0)
(1.26456 -0.0206756 -9.53151e-20)
(1.16041 0.21217 4.07475e-20)
(0.722937 -0.206203 9.2311e-21)
(0.949481 -0.0187737 -1.2764e-20)
(1.00663 -0.0266505 0)
(1.25557 -0.409366 7.89015e-20)
(1.00566 -0.00787996 1.3536e-21)
(1.27584 -0.0490603 0)
(1.08705 -0.0247647 0)
(0.999221 -0.0012674 0)
(0.36796 0.055134 6.22421e-20)
(0.328409 0.0277621 8.73723e-20)
(0.997048 -0.000543018 8.49065e-21)
(-0.188283 0.00272194 -1.3292e-19)
(1.04692 -0.0859054 0)
(1.06192 0.131563 0)
(0.939066 -0.346517 -5.4155e-21)
(1.13263 0.211773 -5.18778e-20)
(0.298339 0.0267782 8.31992e-21)
(1.26661 -0.33272 -7.45022e-20)
(1.00287 -0.000700888 1.28533e-21)
(1.01506 2.18102e-05 -5.51462e-22)
(0.24021 0.0448915 3.98833e-21)
(1.00242 -0.030786 0)
(1.0317 -0.0206594 0)
(1.08931 -0.024719 3.47593e-20)
(1.00099 -0.0318639 0)
(0.881363 0.168426 7.31928e-20)
(1.14664 0.175854 0)
(1.15482 -0.00895956 6.40405e-20)
(0.0684389 0.0198011 7.84675e-20)
(1.13752 -0.00539824 0)
(1.15932 0.105866 0)
(1.06274 -0.0239183 -2.63087e-20)
(1.0031 -0.00425512 0)
(1.01539 -0.00146651 -2.58789e-21)
(1.01023 -0.00695533 0)
(-0.184659 0.00192003 0)
(0.234689 0.0196904 -1.9826e-21)
(1.11381 0.199619 -6.40027e-20)
(0.995756 -0.00113161 -1.14617e-20)
(1.01944 -0.00219942 0)
(1.06189 0.0337112 3.65241e-20)
(1.01643 -0.0222166 0)
(1.12417 -0.0334836 -1.29038e-20)
(0.973435 -0.0866484 0)
(1.22 -0.47009 -3.6469e-20)
(0.380082 0.0797419 2.86906e-20)
(1.14381 0.0729113 2.59576e-20)
(1.22409 0.117238 0)
(1.11734 0.201657 0)
(1.0307 -0.0192572 5.10923e-21)
(1.23623 -0.0264427 9.99842e-20)
(1.00704 -0.0262244 -9.78207e-22)
(-0.0451297 -0.0267893 -1.38998e-19)
(1.26202 0.0365674 1.22166e-19)
(0.0165726 -0.0229018 8.85194e-20)
(0.910459 0.0143152 5.85548e-20)
(1.0473 0.00732084 0)
(1.08774 0.00147432 2.64194e-20)
(1.13069 -0.626557 -1.78242e-20)
(0.0627117 0.0205123 8.3534e-20)
(0.0497523 -0.0276245 -8.20578e-20)
(0.794386 -0.102762 2.53613e-20)
(1.20261 -0.15043 -4.2334e-20)
(-0.146786 0.00589787 1.83368e-19)
(1.00206 -0.00199881 0)
(1.22295 0.106755 0)
(0.606855 -0.637659 -3.94856e-20)
(1.11475 0.131186 -3.15503e-20)
(1.00219 -0.00204646 7.44131e-24)
(1.03349 -0.0210427 0)
(1.12655 -0.0157829 0)
(0.0178213 0.0271827 3.81874e-20)
(0.332791 -0.668511 0)
(1.02261 -0.316782 -3.7889e-20)
(0.988602 -0.00813311 1.81285e-20)
(1.05707 0.0140479 -1.14756e-20)
(0.891498 -0.055351 3.89587e-20)
(0.277467 -0.237453 -1.29403e-19)
(1.03966 -0.0271071 -4.75907e-21)
(1.24973 -0.300017 -1.15214e-19)
(1.00434 -0.0150342 -2.12114e-21)
(0.987636 -0.0513246 0)
(1.23636 -0.0785941 7.90321e-20)
(1.00698 -0.0116843 0)
(0.99867 -0.00767669 3.16575e-21)
(1.04193 -0.0513003 -8.07554e-21)
(1.00525 -0.0983124 0)
(1.00337 -0.00426463 -1.61093e-21)
(1.02607 -0.0501432 8.17185e-21)
(1.02213 -0.00520729 -6.97894e-21)
(1.09582 0.200592 -1.26501e-20)
(1.06965 0.21834 0)
(0.279861 0.0329363 5.08395e-20)
(1.0253 -0.00464977 0)
(0.876698 -0.204158 0)
(0.993149 -0.002083 1.48815e-20)
(1.23131 0.0723434 -1.0764e-19)
(1.23929 0.0204719 -3.67432e-20)
(1.03181 -0.160448 6.49402e-21)
(1.00399 -0.0153999 1.99587e-21)
(1.05226 -0.00595321 2.73757e-20)
(1.18219 -0.392099 0)
(1.19172 0.0630748 0)
(1.0929 -0.0276917 0)
(-0.156065 0.00256504 0)
(1.10982 0.130455 2.33133e-20)
(0.992649 -0.0231342 -6.20615e-21)
(0.982632 -0.0224215 -8.16931e-21)
(0.688001 0.19164 -4.42308e-20)
(-0.0866769 -0.019517 -1.11139e-19)
(1.11174 -0.19122 -4.18593e-20)
(1.0168 -0.00456235 0)
(1.14742 0.221975 3.43154e-20)
(1.00087 -0.00342994 0)
(1.11308 -0.0494665 -2.07474e-20)
(1.02058 -0.00815715 -2.12778e-21)
(1.2991 -0.157815 -2.97842e-20)
(-0.0268635 0.0017984 -6.12993e-20)
(1.00708 -0.00802143 1.34392e-22)
(1.03893 -0.00237885 7.06116e-21)
(1.271 -0.0428822 0)
(0.999501 -0.0278474 -1.93584e-21)
(0.734863 0.0613053 -7.93589e-21)
(-0.223019 0.00381649 2.16915e-19)
(1.12384 0.0563418 -2.85126e-20)
(0.966296 -0.0125364 -1.27081e-20)
(0.999073 -0.00196429 1.95777e-21)
(1.02074 -0.00825486 -1.85998e-21)
(1.00225 -0.000718449 1.11464e-21)
(-0.236431 0.00143015 1.49814e-22)
(1.28192 -0.205975 -5.86072e-20)
(1.21417 -0.137547 5.31112e-20)
(1.03536 -0.048861 0)
(-0.0433775 0.0133334 0)
(1.00508 -0.000353756 0)
(0.995551 -0.016982 0)
(0.620684 0.0231865 -9.78341e-23)
(1.02687 -0.0125111 -5.29283e-21)
(0.235535 0.033891 6.24162e-20)
(1.01733 -0.00156086 5.75961e-21)
(0.924401 -0.0945696 -2.19345e-20)
(0.952614 -0.0411448 7.68119e-21)
(0.996099 -0.0161387 -5.42566e-21)
(1.01466 -0.021862 0)
(1.00094 -0.00336745 0)