/*--------------------------------*- C++ -*----------------------------------*\
| =========                 |                                                 |
| \\      /  F ield         | OpenFOAM: The Open Source CFD Toolbox           |
|  \\    /   O peration     | Version:  v2012                                 |
|   \\  /    A nd           | Website:  www.openfoam.com                      |
|    \\/     M anipulation  |                                                 |
\*---------------------------------------------------------------------------*/
FoamFile
{
    version     2.0;
    format      ascii;
    class       volScalarField;
    location    "250";
    object      p;
}
// * * * * * * * * * * * * * * * * * * * * * * * * * * * * * * * * * * * * * //

dimensions      [0 2 -2 0 0 0 0];


internalField   nonuniform List<scalar> 
34253
(
-0.150886
0.0202046
-0.105676
0.0438764
-0.00710413
0.0052802
0.0155025
0.0127513
-0.0320523
-0.0993284
0.0178028
-0.110093
0.0218469
-0.53915
0.0107764
0.00774542
-0.166191
-0.274169
-0.0672062
0.0440818
0.010242
0.0243167
0.00586928
-0.0661718
0.0181765
0.0164699
0.0186732
-0.0389252
0.00706608
-0.00800846
-0.192484
0.022029
-0.0116528
0.021016
-0.0629283
-0.226099
-0.501814
-0.037678
0.0213057
-0.0315087
-0.334744
-0.151917
-0.3391
-0.225583
-0.154117
0.0108984
0.0425841
0.0149379
-0.0566803
-0.00701145
0.0201648
0.0191187
-0.189216
-0.261973
0.0243024
-0.00536824
0.0150658
-0.0380842
0.0149467
0.0230671
0.019482
-0.00272381
0.00596827
-0.0936694
-0.00109838
-0.19593
-0.33242
-0.331867
-0.0115099
0.0159676
-0.0463498
0.0213319
-0.151831
-0.00329061
-0.0107903
-0.0927185
-0.0494055
-0.0438773
-0.236927
-0.0249557
-0.277968
-0.00313674
-0.0120332
0.00285088
-0.191037
-0.13553
0.019371
-0.0257261
0.00241297
-0.100234
-0.155752
-0.0943584
-0.143804
0.029708
-0.134896
-0.188528
0.034823
-0.101859
-0.25499
-0.0114384
-0.00829647
-0.00138062
-0.153627
-0.337885
-0.259526
-0.00783969
0.00900261
0.00707894
-0.236484
-0.153673
-0.0198486
-0.300881
-0.0116704
0.0334637
-0.533551
-0.155226
0.034811
0.0219209
0.0110411
0.0557474
-0.320811
0.0100766
0.00640559
-0.234203
0.016484
-0.0935148
0.0216958
-0.107414
0.0116339
-0.0763252
-0.235303
-0.0907799
-0.102954
0.0124631
-0.101644
0.0116004
-0.00277609
-0.0409004
-0.162295
-0.0662664
-0.0444479
-0.0291267
0.0244241
-0.516201
-0.0914894
0.0240437
0.0219544
0.0241613
0.0148003
-0.0992878
-0.124778
0.0519917
-0.139867
-0.0433591
-0.0378427
-0.00129327
-0.347325
0.0198613
-0.00640492
-0.122441
-0.0458554
0.00744001
0.00533009
-0.192289
-0.0381399
-0.102697
0.188202
-0.0432969
-0.0802797
-0.045117
-0.0974336
0.0146513
-0.0023305
0.0192103
0.0140841
0.0426132
-0.132477
-0.0402097
0.0141222
0.0536369
0.0265897
-0.0104421
-0.120925
0.00613083
-0.0669992
0.0182581
-0.0995087
-0.303488
0.00945981
-0.104854
-0.152672
-0.237421
-0.0205459
0.00385192
-0.186455
0.00773637
-0.152607
-0.0189109
0.00122959
0.0165287
-0.00128244
-0.100144
-0.315925
0.0152556
-0.153527
-0.00652029
0.02385
-0.184935
-0.270218
0.0291175
-0.0255998
0.117584
0.0111654
-0.0219515
0.0186764
0.0139052
-0.0377631
-0.143485
0.0294842
-0.0113594
-0.161325
0.043035
-0.191137
-0.0171579
0.000186239
-0.0442245
-0.116902
-0.131284
0.0578493
-0.099652
-0.237038
-0.0112037
-0.107621
-0.00646796
0.0205659
-0.116892
-0.0146483
-0.296034
0.00956538
-0.142668
0.00926435
0.0356847
-0.00936003
0.0354521
-0.185364
-0.150594
0.0178691
-0.0589874
0.0922307
-0.248911
0.078692
-0.213552
0.00200745
0.00229073
-0.165495
0.0284461
-0.512652
-0.180431
-0.00244735
-0.0160953
-0.00145872
0.0239473
0.018574
-0.0357893
0.0106939
-0.00721444
-0.233731
0.0914119
0.0798628
-0.0516145
-0.0890399
-0.0277504
-0.000595771
0.0295622
-0.00461917
0.00574742
-0.153685
0.0210216
-0.100325
-0.0921511
-0.0193741
-0.19412
-0.0106102
0.0364697
-0.216895
-0.0595951
0.0093131
0.00892532
0.00934962
-0.00542424
-0.160064
-0.208847
-0.167132
-0.100928
-0.0830672
0.0294796
-0.0922541
-0.0057148
-0.00916189
0.185051
0.0179948
-0.101303
-0.00905418
-0.00960711
0.0224227
0.0538398
0.0278094
0.0576746
-0.0202641
-0.0218226
-0.0214284
0.0725826
0.0147833
-0.103435
0.023559
0.126779
-0.118534
-0.081543
0.0105274
-0.397439
0.0465938
-0.120414
0.0667466
0.0184226
-0.0917124
0.00222279
-0.00272795
-0.0158778
0.0106833
-0.0198247
0.00750183
-0.277258
-0.215168
-0.108334
0.116218
-0.00257819
0.0204678
-0.107221
-0.143525
-0.0432134
-0.0994941
-0.298097
-0.0150001
0.0297104
-0.00753667
-0.103034
-0.00583362
-0.0704407
-0.0883191
-0.0156011
0.0278309
0.0126286
0.0145949
-0.388474
-0.0575349
-0.0431857
0.035375
0.0427962
-0.152582
-0.00265881
0.0477321
-0.0437671
-0.00946063
-0.265986
-0.0200728
0.0213297
-0.00542927
-0.181574
-0.121354
-0.0692276
-0.0584324
0.0439111
-0.247801
0.00207668
0.0148599
-0.0213851
-0.345934
-0.00246256
-0.0196815
-0.00947665
-0.116765
0.0215468
0.0511926
-0.0453801
-0.269319
0.0025156
-0.532247
0.0521342
0.0328142
0.0528224
0.0596189
0.0678742
0.0111732
0.117201
-0.0675795
-0.418394
-0.0615979
0.00413537
-0.183704
0.00616376
-0.0109735
-0.0195882
0.00236686
0.0541507
0.0118748
-0.0775949
-0.0905378
-0.00345422
-0.277615
-0.00139635
-0.0331268
-0.105288
-0.0335363
-0.206469
0.0183592
0.0408867
-0.121778
0.0300336
0.010425
0.0197862
-0.134765
-0.231898
-0.0501647
-0.192632
-0.065405
-0.112517
-0.131162
-0.00459339
-0.0875178
-0.109281
-0.103199
-0.0355545
-0.00281482
-0.115263
0.0401802
0.0594642
0.0169935
-0.042579
-0.164422
0.110456
-0.107795
-0.0662379
-0.042517
0.0225042
-0.460953
-0.00287386
0.0202196
0.0399856
0.0803398
-0.0405154
-0.499329
-0.0944035
0.0514308
0.160903
-0.213085
0.00784233
-0.339183
0.00220849
0.0130827
0.00613263
-0.11344
0.020731
-0.247402
0.0306525
-0.0470128
0.0211364
-0.00924993
-0.489007
-0.102164
-0.150107
-0.0154622
0.0336302
0.0118383
-0.0688886
-0.0378739
-0.1175
-0.479155
-0.192832
-0.0670662
-0.527822
0.0021508
-0.0580615
-0.0101389
-0.0249111
-0.251504
-0.0697756
-0.115515
0.00720138
-0.0274781
-0.103074
0.0200709
0.0191983
-0.0643622
-0.152457
-0.101821
-0.0650574
-0.0203076
0.00298193
-0.189395
0.0791383
-0.00552874
-0.0629991
0.111254
-0.104287
-0.265557
-0.0419661
-0.025141
-0.0788305
0.0399772
-0.00275885
-0.0602285
-0.159813
0.00364701
-0.0816256
-0.0570574
-0.0618004
-0.301363
-0.0332309
-0.122564
-0.028891
-0.19244
0.0449223
-0.0029427
0.00280076
0.0121578
-0.103139
-0.0158132
-0.457519
0.00869864
-6.9822e-05
-0.154846
-0.0591514
0.0238333
0.156708
-0.0914555
-0.0285709
0.0284556
-0.0845917
0.0203
-0.0339161
0.031657
0.0110596
-0.171305
0.018146
0.0630164
-0.0100178
0.016291
0.0150758
-0.0066551
-0.51477
-0.0268599
0.00778565
-0.162266
-0.188854
-0.0328984
-0.08199
-0.10505
0.0350513
-0.025423
-0.051598
-0.118332
-0.0273981
-0.132303
0.0189095
-0.382914
-0.140559
-0.182602
-0.0333574
0.0460409
1.37129e-05
-0.0165123
-0.0360228
-0.26834
-0.0436322
0.0904703
0.00506336
-0.481012
0.0181257
-0.02668
0.0332658
0.0299241
0.088301
-0.0596013
-0.0167426
0.00989384
-0.11541
0.0293766
-0.19566
-0.0843993
-0.162781
0.0085992
-0.082949
-0.0193899
0.108631
0.0144392
0.022509
0.0192607
-0.152784
0.0322263
-0.155949
0.0085134
-0.346608
0.0216114
-0.0835152
0.00901444
-0.00300873
-0.184026
0.00980989
0.00889312
-0.213489
-0.0705184
-0.00972546
-0.00820647
0.048358
-0.0626068
0.0114923
0.0297248
-0.0910038
-0.0613762
-0.0511967
0.0504604
-0.00795862
0.0106969
-0.000468615
0.0118669
-0.0835368
0.0296496
-0.0385579
-0.0897984
0.0198871
-0.186608
-0.0256871
0.110295
-0.124621
-0.0905837
-0.556401
0.00664007
0.025489
-0.194698
-0.00422196
0.0685163
-0.0353117
0.0423335
0.0535515
-0.11201
-0.0616066
-0.103846
0.0297452
0.0138934
-0.107235
-0.469354
-0.0258665
-0.114969
0.0089076
0.014118
0.0302103
-0.0261952
0.049187
0.0243061
-0.38311
-0.180335
-0.313777
0.0271036
0.00116057
-0.105352
-0.0926031
-0.104658
0.00927801
-0.10526
0.0315765
-0.0444165
-0.196801
-0.00461792
-0.0335927
-0.0449891
-0.154073
0.0260966
-0.0405511
-0.0159194
-0.0251181
0.0279486
0.0320752
-0.0823902
-0.0826578
0.148499
-0.0189172
0.00482997
-0.0430867
0.019475
-0.110765
-0.00553293
0.0244177
-0.0206803
-0.0561318
0.0197858
-0.223954
0.0207534
-0.044449
0.026465
-0.0133961
-0.00251784
-0.122603
-0.2058
-0.0439641
-0.026144
-0.436084
-0.0274267
-0.00690054
0.00739252
-0.00552882
-0.0986113
0.0168712
-0.0165107
0.0126179
0.0321796
-0.0158956
-0.0253804
-0.205118
0.0166052
0.0625767
0.0110637
0.00638469
-0.0910951
0.102725
-0.0610302
-0.0135897
0.198057
0.00016624
-0.288593
-0.0633664
-0.579802
0.00426295
-0.0181807
0.0493033
-0.181442
0.012056
-0.0270507
0.0704761
0.0632958
-0.00964749
-0.0196528
-0.176699
-0.0160945
-0.00263677
-0.292891
-0.0166889
-0.0604329
0.019534
0.0444414
0.0180025
-0.192946
-0.0621969
-0.129631
-0.0902696
-0.236391
-0.0259987
-0.0162728
0.0281119
-0.0399488
-0.129922
0.0226614
0.0108792
-0.088967
-0.427098
0.00873076
-0.0661847
-0.0779907
0.0106693
0.0153041
0.0104958
-0.103638
-0.327433
0.0225534
0.181528
-0.064043
-0.207292
0.0123949
-0.021111
-0.0198965
-0.0659197
-0.00885874
-0.0608198
-0.101761
0.0208918
0.00658677
-0.0912235
-0.105849
0.00789419
-0.0719777
-0.0105122
-0.035751
-0.167211
0.0777229
0.0308674
-0.0824796
0.031573
0.244057
0.0330796
0.0307103
-1.64203e-06
-0.128502
-0.0136388
0.0364107
0.00977926
0.0179971
-0.0551627
-0.0737653
-0.00101921
0.0857694
0.0215186
0.050904
-0.0837086
0.0459845
-0.0983902
-0.146396
-0.0604277
-0.0158936
-0.180559
-0.0797175
-0.143098
-0.187886
0.00888093
-0.0986674
0.00584121
-0.000269431
-0.146362
-0.1706
0.022655
-0.189724
0.022668
0.180016
-0.0849805
0.0192346
-0.010485
-0.115291
-0.193653
-0.188057
-0.0644974
0.0128962
0.0186978
0.00609445
0.0105908
0.0188315
0.11287
-0.115472
-0.0180351
-0.000226689
-0.101007
0.0278295
0.0139872
-0.0764264
-0.329822
-0.0436398
0.0244403
-0.45728
-0.116895
-0.156263
-0.0111938
-0.00847632
-0.470267
0.0236558
0.175898
0.00542868
-0.082374
-0.109492
-0.140866
0.0078257
-0.0831875
-0.190891
0.0227446
-0.180806
-0.124624
-0.0483474
0.0103051
-0.067935
-0.148277
-0.451617
0.0122947
-0.0472876
0.0183617
-0.106368
-0.0108636
0.0121093
-0.0934707
-0.0159828
-0.0362127
-0.00852892
-0.0283668
-0.0728975
0.0135299
0.0230328
-0.200401
-0.0100897
-0.126396
-0.0812533
0.0940091
-0.0270397
-0.0198883
-0.00232181
-0.0332787
0.0519469
-0.0510137
0.00871726
0.111823
-0.0844293
-0.128791
-0.00580065
-0.0723006
-0.10445
-0.0373973
0.0117374
-0.0712215
0.0137611
-0.0521291
0.0104558
-0.0590066
-0.293233
0.0434853
0.0124967
0.0240473
0.00146251
0.00395762
0.0122519
0.0126891
-0.0255374
0.00633163
-0.557517
0.00652313
-0.167135
0.0061977
-0.220967
0.0464943
-0.00922066
-0.10857
0.0386754
-0.102644
-0.139624
-0.0271582
-0.103922
0.0178829
0.0283977
-0.10204
-0.138864
0.0145335
0.00883013
-0.0969786
0.0933554
0.0164797
0.0100441
-0.106663
-0.0259941
0.0595039
-0.194773
0.00344076
0.0146873
0.00616293
-0.0437404
-0.07549
-0.011667
-0.10201
0.00244065
-0.188466
0.0194379
-0.422065
-0.186074
0.0152728
0.0412524
0.0136194
0.00691463
-0.0409594
0.00297291
0.0448996
-0.122152
0.0434002
0.0258476
-0.0533387
-0.0289049
-0.247313
-0.0914324
-0.121786
0.0333625
-0.0835198
-0.0514234
0.0255497
-0.032676
-0.1518
-0.109892
-0.0232125
-0.0932702
-0.180378
0.0894988
-0.181562
-0.105222
-0.0545701
0.0141392
0.00490647
0.246285
0.0366238
-0.045534
-0.249781
0.0102061
0.0107623
-0.100759
0.0266215
-0.158805
-0.100245
-0.114658
0.0126556
0.0100927
-0.00610608
0.00455162
-0.111774
-0.0211453
0.0840358
0.00301627
-0.543687
-0.140584
-0.241673
-0.240341
0.0405046
0.00645834
-0.193961
0.00608492
-0.14068
0.0441168
0.00362176
-0.102297
-0.0509296
0.00880395
-0.191725
-0.164667
-0.102816
0.0199455
-0.00825128
-0.139443
0.0826541
-0.107219
-0.378221
-0.105447
-0.0566741
-0.203452
0.0227533
0.042521
-0.0647864
-0.0858735
-0.157583
-0.178383
-0.183756
-0.0236664
-0.159834
-0.119618
0.0119589
-0.259852
0.0688612
-0.0848486
-0.149668
-0.104526
0.0306165
-0.0853529
-0.00699533
0.0061117
0.0118506
0.0230272
0.0796252
-0.00160132
0.00256711
-0.142581
-0.515312
0.0243754
0.0055235
-0.0366499
-0.0300415
-0.146562
0.0286693
-0.0807575
-0.0524236
0.01033
0.0400918
-0.157266
-0.082475
-0.0256235
-0.0102663
-0.043807
-0.0808004
0.0136767
-0.0780925
0.019095
-0.111484
0.174596
0.0021716
0.0103914
-0.0926661
0.0879027
-0.0382557
-0.066898
-0.0842688
0.00620043
-0.136066
-0.193323
0.00436819
0.0276775
0.043151
-0.116343
0.0213374
-0.0724952
-0.461961
0.00472497
-0.0931271
0.0178466
-0.264413
1.33822e-05
0.023741
0.0208895
0.00357135
-0.06679
0.00368777
0.0124882
0.0253966
0.0277617
-0.0163804
-0.0986344
-0.101899
-0.0377391
-0.186462
0.0124623
-0.164807
0.0138642
-0.125748
-0.0947324
-0.0442314
-0.0928205
-0.374192
-0.167463
0.0262645
0.00325462
-0.00308464
-0.0311772
-0.101583
-0.00843959
-0.00523728
-0.108683
-0.26909
0.00853612
-0.102521
0.025266
-0.00685966
-0.127769
-0.23553
-0.544678
0.0119977
0.0351019
-0.12066
-0.0979529
-0.156232
-0.105231
-0.0547414
-0.103297
-0.010738
0.0114495
-0.521334
-0.00969041
-0.162734
-0.104992
-0.00252113
0.0101589
-0.370292
-0.0820983
-0.0443101
-0.0670573
0.010033
-0.267237
0.0222552
-0.100981
0.0101876
2.98282e-05
-0.116719
0.0186175
-0.0256282
0.00655072
0.0136642
0.0232601
-0.0207893
-0.158079
-0.0700921
-0.153975
-0.00190411
-0.105232
-0.217056
0.0169872
0.050462
-0.0665851
-0.102836
-0.107148
-0.00600934
-0.102639
0.0526842
-0.00178982
-0.123771
-0.011922
-0.145713
-0.00353113
-0.00292959
0.0465828
-0.0386178
0.15529
-0.0729328
0.0102728
0.0237191
-0.00305921
-0.0202777
-0.246682
-0.0315223
0.010764
0.0123752
-0.105915
0.0210324
0.102553
0.0395595
-0.0105549
-0.0486424
-0.0991482
-0.129571
-0.257869
-0.147507
0.00611603
-0.0262098
-0.0911112
-0.0719685
-0.0805197
0.0464976
0.0225597
-0.0245728
0.00903919
8.05629e-05
-0.26222
-0.0434764
-0.00297188
-0.486488
0.0148611
-0.0314976
-0.0612019
0.00132751
-0.172065
-0.0814802
0.00015209
-0.00673318
-0.28454
0.0384771
0.00912018
0.0701963
0.0103595
-0.0904349
0.00702055
0.0124232
0.0505698
-0.104446
-0.100611
-0.0632044
0.0048236
-0.131561
-0.0119106
-0.335175
0.0432942
0.152683
-0.0159946
-0.524663
0.0132727
-0.0340725
0.0103825
-0.0772523
-0.136068
-0.124637
-0.155511
0.0400177
0.0612177
-0.019503
-0.025821
0.0217856
-0.098839
0.0615075
0.0264401
0.0291302
-0.260072
-0.000492754
-0.00159543
0.0256815
0.0378371
0.012347
0.00231925
-0.0893232
0.0188975
-0.0734921
-0.017463
0.0147019
0.0125608
0.0293634
0.038699
-0.0733339
-0.159824
0.0220821
-0.214819
0.0789212
-0.00670256
-0.247904
-0.161714
-0.0764975
-0.487032
-0.0167026
0.0118317
0.0185571
-0.052014
-0.0903478
-0.116343
-0.0877593
-0.0315505
-0.446458
0.0334178
-0.0168122
0.0133664
-0.0117088
0.00254536
-0.390445
-0.189378
-0.0750565
0.00627849
0.0241307
0.00646289
0.0289467
-0.477975
-0.44696
-0.0901309
0.0040022
0.00897265
-0.222832
-0.0784407
-0.0570566
-0.128604
0.00121339
0.0606194
-0.123265
0.011271
-0.123267
-0.137258
-0.102311
-0.00562026
-0.560451
-0.0746733
-0.102308
-0.0147788
-0.0927323
-0.244781
-0.00683834
0.00573086
-0.173719
-0.0366583
0.00859889
0.00629743
-0.0905876
0.00881473
-0.0155468
-0.0585032
-0.0811366
-0.121467
0.0127734
-0.148045
0.0061526
-0.00741095
-0.0152321
-0.0211884
-0.467201
-0.465288
0.0258923
0.0137781
0.0224557
-0.0611926
-0.0278034
-0.309301
0.00204301
0.0233669
-0.31192
-0.239773
0.0143278
-0.096674
0.0239152
-0.00981235
0.000263975
0.0234847
-0.449935
-0.0676738
-0.0893069
-0.0926779
-0.0156824
-0.0666392
-0.000850205
0.00978161
0.0338077
-0.102349
-0.307973
-0.368703
-0.00301066
-0.107264
0.00689384
-0.146546
0.0431943
-0.00282124
-0.00912762
-0.227568
-0.0613155
-0.0156078
0.0213557
-0.0904814
-0.00321741
0.0110127
0.00929281
-0.39768
-0.0912945
0.00189999
0.0136051
0.0182462
-0.0687306
-0.0923189
0.0113888
0.00485827
-0.185881
0.0221115
-0.107017
0.00558636
-0.0614975
0.0233209
-0.236785
0.00249323
-0.105269
0.024139
0.0177474
0.027782
0.0260824
0.00591905
-0.323107
-0.0115068
-0.0318
-0.191287
0.0164661
-0.0591877
-0.397111
-0.0234529
-0.0038078
-0.0439326
0.0118533
-0.10462
0.0358448
-0.0898076
0.00927471
0.0222442
-0.057549
-0.0178197
0.00191857
0.010533
0.0114351
-0.0193188
-0.0165346
0.00818942
-0.153694
0.0184285
-0.179459
-0.0245893
-0.0119512
-0.181993
-0.0157627
-0.0832869
-0.0532235
-0.15295
-0.0113709
0.00610103
0.00924608
-0.0458126
-0.103124
-0.0779879
0.0248298
-0.0253052
-0.0829284
-0.0976142
-0.185162
2.87998e-05
-0.162238
0.0811405
-0.0293886
-0.200886
0.00672061
0.0226091
0.0212158
-0.00681553
-0.132879
0.00936658
-0.292406
0.0118355
0.00989943
0.0408138
0.0167319
-0.00324008
-0.184717
-0.018457
0.00355731
-0.00613619
0.194928
-0.00757336
-0.0924058
0.040165
-0.466125
-0.0733705
-0.0777658
0.0517282
-0.19935
0.114559
-0.286379
0.00705117
-0.101695
-0.0083069
-0.292125
0.0275672
0.00479909
0.00971877
0.000938824
0.00376486
-0.374855
-0.0523223
-0.00788258
0.0614123
0.0281614
0.00383702
-0.205968
0.0735606
-0.0996595
-0.00887025
-0.298324
-0.107799
-0.037669
0.0193414
-0.0606754
0.00605741
0.0449807
-0.178119
-0.00374055
-0.179329
-0.0283028
-0.0651817
-0.178843
-0.0613462
0.00665505
-0.0179186
0.0121028
-0.0224129
0.00687647
0.0211914
0.0360786
0.00243574
0.0182406
-0.00495336
0.0413706
-0.487365
0.00358937
-0.294402
-0.115903
0.00465973
0.00265718
0.0038982
0.0198276
0.110316
-0.0255418
0.00637461
-0.142195
0.0333098
-0.0285599
0.0627288
-0.0710614
-0.485346
0.0784768
0.0186354
-0.0576279
0.00662477
-0.0644371
0.00499499
0.0194624
-0.390953
-0.0993335
-0.101152
-0.00504751
-0.0745151
-0.00420859
0.0346024
0.0111979
-0.0325975
0.00944316
-0.00328842
0.0225014
-0.0889258
-0.00609796
-0.00987795
0.0276792
0.171046
-0.130776
-0.120223
0.00175324
0.0168785
-0.329043
-0.171115
0.0125219
-0.376215
-0.10838
-0.103438
0.00616733
-0.0331788
-0.00803902
0.0509942
-0.113745
-0.153222
0.00502965
-0.0953859
-0.196213
-0.00147432
0.0231437
-0.00554917
-0.477844
-0.161878
-0.0973914
0.0314252
0.0142043
0.0041766
-0.103218
-0.0764572
0.00540797
-0.205194
0.0736804
-0.117617
-0.000780861
0.0212063
-0.0675968
-0.0732977
0.0229078
-0.106817
-0.0843733
-0.0812517
-0.175605
0.0292323
-0.0371981
-0.397357
0.0630695
0.0195499
-0.0691497
0.00684233
-0.00996673
-0.128116
-0.0156601
-0.286717
-0.0248414
-0.0172008
-0.12806
0.0754781
0.0197769
-0.0291136
0.000599656
0.196825
-0.088432
-0.130104
0.0342861
-0.0915219
-0.0325524
0.00652461
-0.226841
0.0149518
0.0215006
-0.391251
0.0176629
0.0424832
-0.0677088
-0.143694
-0.158792
0.0158444
-0.102042
-0.226899
-0.261298
0.00257643
-0.000141294
-0.065648
-0.569454
-0.169148
-0.098769
0.00944176
-0.0684262
-0.0681414
-0.250877
-0.101236
0.0245597
-0.123918
-0.0693426
-0.0589726
0.0458001
-0.084162
0.0851847
-0.151041
0.010251
-0.143035
0.0158951
0.0417028
-0.00706114
0.0460803
-0.0417812
-0.105112
-0.0734551
-0.0960739
0.0476076
-0.0385526
-0.195744
0.102858
0.0217617
0.0046261
-0.0605343
-0.065408
0.0209249
-0.070257
-0.030628
-0.0823025
-0.0650646
-0.243533
0.00497409
-0.102324
0.0234802
-0.0268796
-0.093938
-0.0258106
-0.0191872
-0.122728
0.0111763
-0.139935
-0.333516
-0.290437
-0.101429
-0.0321562
0.0157712
-0.0262799
0.0286651
-0.148611
0.00606954
-0.107733
-0.0940989
-0.0681976
0.018422
0.190799
-0.180022
-0.00723703
-0.172955
-0.259873
-0.087899
0.0104814
-0.0711458
0.0344767
-0.262761
-0.0921266
-0.265153
-0.173305
0.0123918
-0.150839
-0.0889408
-0.0253954
-0.000888667
-0.00339498
-0.102668
-0.10247
-0.0706577
0.0109284
-0.231046
-0.480787
-0.0747235
-0.0148654
0.030656
-0.0754012
-0.0495341
-0.0980879
-0.125815
0.00851172
-0.0967012
0.0303328
0.0147385
-0.020215
-0.290549
-0.106909
0.114738
0.0216318
-0.000197758
-0.0202425
-0.253639
-0.127136
-0.0787158
0.0194426
0.0558878
-0.00128314
-0.343567
-0.0628351
-0.0728034
-0.0507867
0.0304611
-0.0333474
0.0144668
0.00382573
-0.150434
0.00554492
0.0100846
-0.0547976
-0.185695
-0.00662336
-0.320364
-0.0422586
0.032823
-0.168375
0.00910197
-0.0233691
0.019922
0.010605
-0.1692
-0.1029
-0.0871649
0.00955394
-0.065256
-0.0810928
-0.0123265
-0.10487
-0.118931
-0.0848357
-0.0773109
0.00790218
-0.0613837
0.0222346
-0.166913
-0.116941
0.0673713
-0.0507366
0.000302079
0.04904
-0.432995
-0.0215442
-0.232974
-0.375296
0.000989253
0.188659
0.0668772
-0.199582
0.00771048
-0.0265876
-0.0659324
0.0107588
-0.104928
-0.275452
0.0754694
-0.142418
-0.101425
-0.0155899
0.0294931
0.00968854
-0.0921526
-0.0449908
-0.129884
0.0300009
-0.0367071
-0.0316883
0.0195431
-0.231146
-0.00434876
-0.0893033
-0.139755
-0.0737871
0.0132133
-0.154911
-0.00845878
0.0257042
0.0263149
0.0177511
0.026594
-0.0849138
-0.156682
0.000113796
-0.0216649
0.0136924
-0.482131
-0.144146
0.0105307
-0.07615
-0.000558586
-0.0629664
-0.157277
-0.237874
0.030778
0.000681701
-0.339974
-0.109082
-0.104103
-0.0033859
-0.0128473
-0.49208
0.151477
0.0179011
-0.270852
-0.0520607
0.00912904
-0.0394115
0.010144
0.221919
0.0112401
0.0753849
-0.12233
-0.0231539
0.0111261
0.0103793
-0.0939898
0.0405575
-0.00488289
-0.00197251
-0.198277
-0.56927
0.0246965
-0.000524412
0.0352409
-0.0818071
-0.019847
0.0132271
-0.0436256
0.0146365
-0.238249
0.03889
-0.101558
0.0215519
0.0226658
-0.0571147
-0.187295
0.0150058
-0.055209
-0.0126551
-0.0194821
-0.315011
0.0298429
0.0134559
0.0340508
0.0167723
0.0106633
-0.266935
-0.0385413
0.025114
-0.0113972
-0.0881532
0.010617
-0.133059
-0.0972057
-0.11826
-0.0149341
-0.0116378
-0.031981
0.0518738
0.00817462
-0.012226
-0.172046
0.035351
0.0186903
0.0123649
-0.106114
-0.193924
0.00827873
-0.0825637
0.00476914
0.014843
0.0210188
-0.020927
-0.28393
-0.126677
-0.00890649
-0.0740867
-0.00798522
-0.139974
0.0183237
-0.0676889
-0.0441387
-0.0625165
0.0034357
0.0100031
0.01674
0.0578668
-0.0032231
-0.10588
-0.00485004
-0.346306
-0.300073
0.195829
0.00903989
-0.107547
-0.105654
-0.335196
-0.47217
-0.105954
-0.0203764
-0.10393
-0.103852
0.00538728
0.021698
-0.151655
0.0228364
-0.0902973
-0.0670845
-0.265368
-0.097533
-0.0252933
0.0105227
-0.000486089
-0.149109
0.0345236
0.0340751
0.0222973
-0.00317632
-0.10447
-0.115991
-0.0194358
-0.0743385
0.0420295
-0.0754786
0.00220083
-0.00316233
-0.0670251
-0.117697
0.0177339
-0.108131
-0.00125733
0.0173941
-0.255643
0.00771717
-0.0120955
-0.025304
0.021032
-0.124173
-0.106613
-0.0747284
-0.129583
-0.0323721
0.0116666
-0.125294
-0.424204
0.00548356
0.00467372
0.0105671
0.0159942
0.0541334
-0.164834
0.0404322
0.0197876
0.0165861
0.00614414
-0.100894
0.00664288
-0.477915
-0.0991194
-0.201102
-0.0145628
-0.00164925
0.0630787
-0.0106252
-0.0372832
-0.089061
0.0127734
-0.108994
-0.165245
-0.394717
0.0215918
0.018225
-0.129159
-0.0336694
-0.0415922
0.00857732
-0.115675
-0.159247
-0.132117
-0.439701
0.0143587
-0.0152569
-0.0317092
-0.00647773
-0.560966
-0.0471903
-0.016172
0.0259642
-0.124645
-0.0109519
-0.0113402
-0.145413
-0.286323
0.00934497
0.00594688
0.113913
-0.0441958
-0.0324178
0.0230381
-0.128543
0.00570192
-0.156427
-0.00113224
-0.111684
0.0346946
0.0773292
-0.0198056
0.0139486
-0.101094
-0.00309367
-0.0380947
0.0123727
-0.0564073
-0.125186
0.00241837
-0.0499724
-0.020318
-0.442876
-0.0261972
0.130441
-0.201106
-0.0303851
-0.115327
-0.604901
0.0467209
-0.0138531
0.021709
0.00433794
-0.0225638
-0.10204
-0.0366707
-0.148871
0.010951
-0.162749
0.0367245
-0.0244064
-0.287793
-0.0578766
0.0220212
-0.20153
-0.0171472
-0.0288569
-0.0969158
-0.000748635
0.0566279
-0.282712
-0.346027
0.00277942
-0.0639206
-0.0433874
0.0490065
0.0626658
-0.0746732
-0.10067
0.0157785
-0.0440961
-0.254006
-0.245431
-0.0150953
-0.0434122
0.00738916
0.0381541
0.00383494
-0.0865411
-0.0235217
0.0205503
-0.0513764
0.0618574
0.0215967
0.0501974
0.00659735
-0.161612
-0.104406
-0.0236937
-0.00254987
-0.131034
0.00564961
-0.000458428
0.0143343
0.0209527
0.0323948
0.0199485
0.0341352
-0.101113
-0.0136647
-0.148823
-0.254284
-0.106568
0.0160585
-0.0355169
-0.325544
-0.0319715
0.0176781
-0.017348
-0.00208715
0.0183041
-0.0206635
-0.120635
0.0118567
0.00565943
-0.128706
-0.0720347
-0.0693666
-0.0753457
-0.254445
-0.0557997
-0.128254
0.00684921
0.0121661
-0.102634
0.00355556
-0.0946938
0.0125987
-0.234426
-0.211034
0.0122556
0.0114318
0.0479626
-0.123197
-0.128281
-0.0270652
-0.0440402
-0.147304
0.0257518
0.0148104
0.0072474
-0.100025
0.0103808
0.0146999
-0.00885421
-0.020899
-0.0034692
0.0360694
0.00889992
0.0237832
-0.0927414
-0.125161
0.0167754
0.0800808
-0.00271133
0.0223266
0.0246939
0.189837
-0.112172
-0.0816764
0.00552635
0.0101427
0.0309737
0.0308795
-0.0166304
-0.0710782
0.0202203
0.0092058
0.0619129
0.00913694
0.0292709
0.0948891
0.02392
-0.0364389
-0.0740295
-0.0163547
-0.125878
-0.0319574
-0.122494
0.00872846
0.0112296
-0.3712
-0.0861998
-0.0410147
-0.0961481
-0.0282944
0.0199892
-0.0151209
-0.00659744
-0.0982196
-0.0614647
0.0203236
0.0013816
-0.0131727
-0.0827841
-0.0628388
0.00935727
-0.351702
-0.184336
0.00249428
-0.102946
-0.0225312
0.0229844
0.0519014
-0.156786
-0.0153231
-0.0198025
0.0157947
0.00419669
-0.100016
-0.0748785
-0.136997
0.00637588
0.0118978
-0.105696
0.00217742
-0.104808
0.109015
-0.128919
0.00781902
-0.00685287
-0.10344
0.0956908
-0.409336
-0.180127
-0.128494
-0.0120421
-0.255395
-0.206451
-0.1048
0.0959264
-0.0105278
-0.0139691
-0.0626148
-0.0494574
0.0165969
-0.0685286
0.0561474
-0.0499672
-0.0277212
-0.125956
0.0259743
0.049677
0.0222358
-0.054283
-0.0885914
-0.116158
-0.0336071
0.0455683
0.0192264
-0.00985054
-0.0685716
-0.190762
-0.256997
-0.0202995
-0.113379
0.00180336
0.034111
-0.0687391
0.0152026
0.014279
-0.158513
-0.0949036
-0.150908
-0.0909632
0.0150199
-0.208162
-0.013804
-0.396008
-0.135733
0.0143283
0.0166023
0.0128517
0.00459892
0.0206931
0.030808
0.00918796
0.0312259
0.00941842
-0.0321169
-0.0544312
-0.000602511
0.00923168
-0.0257657
0.0133402
0.00903212
-0.0348001
-0.0529426
0.00484781
0.0969725
0.0285977
-0.00667634
-0.0673243
-0.263987
-0.10587
0.00684288
0.0163478
0.0184353
-0.0111322
-0.0898204
0.0168121
-0.130263
-0.162516
-0.0146298
-0.112336
0.0167075
-0.0204895
-0.226041
0.0203192
-0.125732
-0.249336
-0.124201
0.109207
-0.10325
-0.075406
-0.514006
-0.0780572
-0.517777
0.0225026
0.0277356
0.00437999
0.0239952
0.0480559
-0.0123682
0.00895089
-0.00374368
-0.00383059
0.0148988
0.0118527
0.00638077
-0.023575
-0.290855
-0.208417
-0.000331192
-0.112653
-0.0036637
0.0216851
-0.167756
0.0063443
-0.0825898
-0.102354
-0.342974
-0.588811
-0.137293
-0.0371453
0.00453663
-0.0203401
-0.0750963
-0.0399383
-0.100323
-0.0692807
0.0119704
0.00460951
-0.191761
-0.0889221
0.21796
-0.220491
0.0251648
0.0107321
-0.0360809
-0.242803
-0.48374
0.00785282
0.116038
-0.393053
0.0232423
-0.0670191
0.00342845
-0.0556452
-0.281221
0.00566149
-0.25121
-0.201586
0.034095
-0.00725768
0.015635
0.0194209
0.0395381
0.00204759
-0.0563403
0.0111729
-0.0223506
0.00937167
-0.0719861
-0.00122189
-0.0933093
0.00253462
0.0139374
0.0530766
-0.00173977
0.0174912
0.00520282
-0.102927
0.00359787
-0.148041
0.0206224
-0.103238
-0.0656898
-0.00347963
0.0431478
-0.257109
0.00668222
-0.033616
-0.0177277
0.00884853
-0.346563
-0.00992567
-0.150297
-0.256163
-0.575959
-0.0533349
-0.172521
-0.183315
-0.032631
-0.15432
0.0116312
0.022705
-0.137419
-0.0439193
0.0459851
-0.020171
-0.0656194
0.00238916
-0.00779679
-0.00098783
-0.0185756
-0.0116184
-0.206867
0.0194036
0.0289415
0.017738
-0.00894804
-0.143759
-0.112132
0.00508477
-0.105822
0.00431352
-0.123773
-0.0768903
-0.104672
0.0248826
0.0336664
-0.0072765
-0.10237
-0.00527051
-0.00183072
0.0218854
-0.106808
-0.282539
-0.123994
0.0164772
-0.102207
0.00909832
0.0204314
-0.0384196
-0.105065
-0.131023
0.00538702
-0.0393157
-0.0305448
-0.147325
0.0257624
0.00732468
-0.421187
-0.2008
-0.0736833
-0.140958
-0.281367
-0.138444
-0.0285368
0.0126902
-0.209699
-0.0952475
-0.0869628
-0.00486284
-0.460941
-0.00542629
-0.0486387
-0.00333955
-0.0668526
-0.228345
0.0192235
-0.103597
-0.0960869
-0.026685
-0.445664
-0.0957385
-0.0834765
0.0241666
-0.0511446
-0.131521
-0.156404
0.00682208
-0.392312
-0.196483
-0.302679
-0.0406597
-0.128162
0.00333585
0.00357035
-0.0310858
-0.294821
-0.0582861
-0.00414984
0.00528553
0.0233721
-0.101991
-0.116905
-0.0196291
-0.0806581
-0.0984351
-0.14344
0.0294344
-0.156752
-0.0760984
-0.177485
0.190807
-0.00739292
0.0425741
0.0301269
-0.126611
0.0207685
0.0219942
0.00527526
-0.116638
-0.0310643
-0.100356
0.115378
0.0123572
0.0165267
-0.0949773
0.0130574
0.0146113
-8.36495e-05
0.0271253
-0.246069
0.0115422
-0.0269663
-0.0642686
-0.555206
0.00316971
0.0941021
0.0146647
0.0910188
-0.328678
-0.288196
-0.285912
-0.0771381
0.0056904
0.0330133
-0.0749108
-0.118833
-0.142758
-0.0846884
-0.141093
-0.253758
-0.0602728
-0.10222
-0.01929
0.0253234
-0.103117
-0.20005
0.0255485
-0.220198
-0.0554077
0.0775628
-0.0827776
-0.331997
-0.0208138
-0.401733
-0.120154
-0.0670951
-0.330826
-0.0188698
-0.030959
-0.00126556
-0.0798416
-0.00528617
-0.0281545
0.0117026
-0.00630496
0.00934565
-0.0504887
0.00193285
0.00436721
-0.000781569
0.0115794
-0.0104496
-0.202828
-0.122922
-0.245339
0.112609
-0.090054
-0.0030588
-0.0980747
0.0556585
0.00994558
-0.00249746
-0.137826
-0.00120664
0.0378456
0.0195966
0.114907
-0.0351802
-0.166263
-0.163823
-0.0417628
0.0282616
-0.0575702
-0.00416229
0.00470106
0.0499952
0.00586487
-0.00898927
-0.04725
-0.118387
-0.440806
0.02783
0.0305051
-0.125036
0.00729314
-0.0143288
-0.155441
0.0755974
0.0152321
0.0695976
-0.0628405
-0.204785
-0.147684
0.00412575
-0.199786
-0.0841848
0.0303927
-0.103965
0.0418579
-0.00530834
-0.0105729
-0.0261977
0.0245375
-0.0880537
0.0213233
-0.41918
-0.36107
-0.104466
-0.102895
-0.1063
-0.0371876
-0.063639
0.00774103
0.00724307
0.0208109
-0.00633678
0.0940233
0.0152936
-0.0511071
-0.115059
-0.0172829
-0.0432595
-0.102889
-0.0552896
-0.294931
0.0239546
-0.037533
-0.338855
-0.0823129
-0.140897
-0.0374835
-0.227834
0.00611626
-0.104294
-0.0971562
-0.0379232
0.00224204
-0.409834
-0.210501
0.0416776
-0.116333
-0.0363214
0.00925886
-0.00110714
0.0348953
-0.108409
-0.120859
0.00023056
-0.0752258
-0.101995
0.0119729
-0.226461
0.0075839
-0.00875796
0.00696418
-0.0318019
-0.0701834
-0.108266
-0.513092
-0.159092
-0.0406698
0.00584172
0.0714084
-0.0308402
-0.100666
0.0262034
-0.101212
0.0343542
0.00585106
-0.306504
0.000672123
0.00666315
0.0217682
-0.249696
-0.0370958
-0.174261
0.0177772
0.0178866
-0.143274
-0.0646052
-0.00656766
0.00492872
-0.031182
0.00306978
-0.104704