/*--------------------------------*- C++ -*----------------------------------*\
| =========                 |                                                 |
| \\      /  F ield         | OpenFOAM: The Open Source CFD Toolbox           |
|  \\    /   O peration     | Version:  v2012                                 |
|   \\  /    A nd           | Website:  www.openfoam.com                      |
|    \\/     M anipulation  |                                                 |
\*---------------------------------------------------------------------------*/
FoamFile
{
    version     2.0;
    format      ascii;
    class       surfaceScalarField;
    location    "250";
    object      phi;
}
// * * * * * * * * * * * * * * * * * * * * * * * * * * * * * * * * * * * * * //

dimensions      [0 3 -1 0 0 0 0];
oriented        oriented;


internalField   nonuniform List<scalar> 
51060
(
-0.0538047
0.0815144
-0.0277097
-0.321897
0.340124
-0.024907
0.0723717
-0.0474647
0.137116
-0.1
-0.0371155
-0.13368
0.326172
-0.192492
0.117292
-0.279296
0.162004
-0.00767496
-0.100265
0.10794
-0.144849
-0.193505
0.338354
-0.0670509
-0.0858889
0.15294
-0.0083127
-0.0224932
0.0831652
-0.136683
0.053518
0.0262625
-0.0390771
0.0128146
-0.168704
-0.0904154
0.259119
-0.00171212
0.00474509
-0.00303296
-0.129771
0.319636
-0.189866
0.0952258
-0.154042
0.0588165
0.0800598
-0.0555735
-0.0244863
-0.049438
0.0649053
-0.0154673
0.0316947
-0.105788
0.0740933
0.106299
0.0308163
0.242283
0.082436
-0.324719
0.191204
-0.111521
-0.0796834
-0.280036
0.158243
0.121793
0.106628
-0.074933
0.179236
-0.244568
0.065332
0.0754902
-0.0763672
-0.060316
0.170329
-0.119318
-0.0510117
-0.120367
0.194807
-0.0744405
0.173503
-0.288888
0.115386
-0.0760968
0.0547232
0.0213736
-0.289997
0.173546
0.116451
-0.300521
0.173076
0.127446
-0.347811
0.290681
0.0571296
0.0522508
-0.10595
0.0536994
-0.0153747
0.00304114
0.0123335
-0.0171183
-0.00689862
0.0240169
-0.163266
0.0790494
0.0842171
0.269716
-0.146464
-0.123252
-0.15792
0.0908696
-0.00130139
0.000197731
0.00110366
-0.0750303
0.0452336
0.0297967
0.00975583
-0.00713681
-0.00261902
-0.00533258
-0.0100421
0.0215592
-0.0604034
0.0388442
-0.347649
0.217878
-0.0333853
0.14859
-0.115205
-0.119751
0.225239
-0.105488
0.0544166
-0.120681
0.0662646
-0.336864
0.203184
-0.326334
0.0044377
0.142751
-0.211515
0.0687648
-0.0781136
0.0442459
0.0338676
-0.0650587
0.045853
0.0192057
-0.0906795
0.197386
-0.106706
0.261842
-0.151026
-0.110816
0.0577343
-0.12143
0.0636959
0.169456
-0.10912
-0.060336
-0.16757
0.198078
-0.0305074
0.138555
0.117918
-0.256473
-0.0841402
0.178346
-0.0942056
-0.317813
0.138811
0.179002
-0.383221
0.279847
0.103374
0.0717816
-0.0622303
-0.00955128
0.309373
-0.346568
0.0371949
0.0155798
-0.0107978
-0.00478201
0.0692297
-0.038241
-0.0309886
0.0319217
0.037308
-0.189823
-0.110698
0.336662
-0.139588
-0.197074
0.100533
-0.120199
0.0196668
0.0985254
0.17119
-0.0377115
0.0591414
-0.0214299
-0.166269
-0.116046
0.282315
-0.281062
0.135792
0.14527
-0.0574271
0.020197
0.0372302
-0.0188647
-0.0527156
0.0715803
0.105058
-0.119204
0.0141459
0.0747095
-0.0519988
-0.0227107
0.187231
-0.117186
-0.070045
0.0483606
0.00278796
-0.0511486
0.172869
-0.339138
-0.0746447
-0.0617306
0.136375
-0.092813
-0.00886002
0.101673
-0.0506597
-0.0274539
0.0717133
-0.0558058
-0.0159075
-0.0380474
0.180798
-0.194592
0.0987635
0.0958287
0.0183208
-0.324477
0.306156
-0.00931615
-0.0298192
0.0391354
0.0162792
-0.0744878
0.0582086
-0.0422269
-0.009973
0.0521999
0.0647685
-0.0509167
-0.0138518
-0.146323
0.110202
0.0361213
0.0791996
-0.0291089
-0.0500907
0.017592
-0.0557871
0.0381951
-0.163804
0.0150758
0.148728
-0.0419525
0.044972
-0.00301946
0.0644167
-0.0201495
-0.0442672
0.280721
-0.229854
-0.050867
-0.0945139
0.0895053
0.0050086
-0.172955
0.351635
-0.17868
-0.0775097
0.023705
-0.00152966
0.000228268
0.0136289
-0.0623812
0.0487524
-0.0946992
0.00274673
0.0919525
-0.263746
0.347031
-0.083284
-0.402024
0.231413
0.170611
-0.0677891
0.0147242
0.053065
-0.0570432
-0.0204665
-0.122397
-0.0605547
-0.0568656
0.04487
0.0119956
0.090898
-0.0953918
0.165837
-0.0704453
-0.00381775
0.00210563
0.0599976
-0.0384384
0.0167168
-0.180521
0.167695
-0.0391955
-0.1285
0.290231
-0.161717
-0.128515
-0.0510411
0.0575124
-0.00647127
0.0500971
-0.037372
-0.0127251
-0.083323
0.325606
0.0548571
0.024093
-0.0789502
-0.0170165
-0.0296531
0.0466695
-0.115809
0.243921
-0.128112
0.0143545
-0.309092
0.140388
-0.0294428
-0.00757832
0.0370211
0.413239
-0.246331
-0.166909
0.0575474
-0.0863
0.0287526
0.0355981
0.0391113
0.013942
0.048271
-0.062213
-0.00490841
-0.00946388
0.0143723
-0.124051
0.253681
-0.129631
0.00336614
-0.0453187
0.269411
0.143829
-0.124521
-0.161751
0.286271
-0.155505
0.10385
0.0516546
-0.0452397
0.0283827
0.0168571
-0.129032
0.0820604
0.0469712
-0.0765124
-0.0559507
-0.118682
0.179097
-0.0604151
-0.0253143
0.078499
-0.0531847
0.0289044
0.00367722
-0.0325816
-0.0530322
0.0480428
0.00498936
-0.207816
0.0719223
0.135893
-0.161008
-0.128989
-0.0077817
0.13654
-0.128758
0.0457416
-0.213312
-0.0590678
-0.00282798
0.0618958
-0.0238514
0.0761787
-0.0523274
-0.00822019
-0.0877268
0.095947
-0.00879756
-0.00534216
0.0141397
-0.0529347
0.0869536
-0.0340189
-0.0789058
-0.0843606
-0.351541
0.178586
-0.065188
0.0221715
0.0430165
-0.364648
0.103707
0.260942
-0.0861202
-0.00857908
0.0567606
-0.0447471
-0.0120136
-0.0106414
0.111174
-0.172965
-0.0339355
0.2069
0.257575
-0.140282
0.0852161
-0.0409702
0.0409757
-0.062294
0.0213183
0.0125216
-0.01743
-0.0554965
0.0472775
0.00821904
-0.0367688
0.141827
0.0692396
-0.100159
0.0309191
0.0597692
-0.150005
0.0902361
-0.0279982
-0.0542357
0.0822339
-0.241159
0.121408
0.169048
-0.337268
0.168221
0.110068
-0.194208
-0.277214
0.215497
0.0617172
-0.154301
0.120915
-0.0240265
0.0786565
-0.05463
0.0671078
-0.0261321
-0.118685
-0.15853
0.0152226
0.109572
-0.124795
0.044927
-0.0702413
0.121464
0.0685414
-0.190006
-0.0728746
0.0642755
0.00859907
-0.183878
-0.199343
-0.0336732
-0.0953584
0.194989
-0.285979
0.0909895
-0.000493012
-0.0585748
-0.0430383
-0.0138272
0.412865
-0.273085
-0.13978
0.024213
-0.0357778
0.0115648
0.0222861
0.0140168
-0.00922355
-0.00479321
0.0825461
-0.143089
0.0605432
0.0147986
-0.107612
-0.0085904
-0.00632637
0.0149168
0.14411
-0.0488844
0.0419947
-0.0783496
0.0363549
0.206153
-0.120105
-0.0860484
0.134979
-0.279425
0.144446
-0.359746
0.22651
0.133236
-0.0751843
0.384557
0.0364507
-0.0638088
0.0273582
0.0354693
0.0146278
-0.137095
0.255256
-0.118162
-0.0330355
-0.141811
0.267266
-0.125455
-0.133299
0.125517
-0.0504478
0.0184668
0.031981
0.0342835
-0.0534795
0.019196
0.00559609
-0.111883
0.106287
0.0109248
0.0387135
-0.0496383
0.0843147
-0.0207398
-0.0635749
0.381714
-0.233776
-0.147938
-0.197517
0.148133
0.0493834
0.207641
-0.285265
0.0776235
-0.285236
0.166551
-0.0909454
0.153028
-0.0620826
-0.0201274
0.0654969
-0.0453695
-0.144988
0.0793335
0.0656546
-0.150392
-0.079462
0.0546717
0.0128267
-0.0674984
0.0354046
-0.135405
0.0397736
0.0454425
-0.201388
0.116985
0.0844034
0.274406
-0.0727877
-0.201618
0.146642
-0.0868727
0.021521
-0.0665165
0.0449955
-0.0705209
0.0464944
-0.11985
0.0757765
0.0440738
0.0322207
-0.0415369
-0.0165641
-0.051225
-0.130538
0.0558934
-0.0883382
0.0612163
0.0271219
-0.259018
0.117208
-0.19089
-0.05597
0.24686
-0.0629546
-0.00991996
0.0923539
0.124515
-0.216868
0.000141824
-0.00160522
0.0014634
0.0432134
-0.182943
0.13973
0.0446411
0.196978
-0.153765
-0.121918
0.0511371
0.0707807
0.163294
-0.194181
0.030887
0.128852
0.0534182
-0.18227
-0.0273837
-0.0230641
0.0240586
0.0574558
-0.116742
-0.229145
0.345887
0.0489534
-0.102138
0.0531842
-0.114486
0.0704817
0.0440043
0.0673421
-0.0467958
-0.0205463
0.00283937
0.0820302
-0.0848696
-0.0429597
0.0361385
0.00682127
-0.380012
0.104101
0.275911
-0.172207
-0.0748462
0.247053
-0.0301569
-0.0150828
0.116204
-0.110608
0.0045458
-0.0216641
-0.00162053
-0.00190099
0.00352152
-0.148765
0.102465
-0.202677
0.100212
-0.0269891
-0.304023
0.331012
-0.125376
-0.08244
0.0090774
0.198564
0.032172
-0.127673
-0.115447
0.188214
-0.0727667
0.276913
-0.148065
-0.128848
0.0314716
-0.0484881
-0.0567504
-0.0577357
-0.0653795
0.0682189
-0.0885025
0.0661922
0.0223102
-0.0375601
-0.0513008
0.0888609
-0.0220475
0.0329723
0.412937
-0.184558
-0.228379
-0.0854168
-0.0595713
-0.274097
0.141293
0.132804
0.0688403
0.0891919
-0.158032
-0.0381777
-0.040172
-0.310664
0.268524
0.0421396
0.101331
-0.0732439
-0.028087
-0.0328352
-0.117356
0.213098
-0.0957417
0.0186883
-0.0574711
0.0387828
0.18259
-0.0611257
-0.0499495
-0.0719683
-0.0301282
-0.0128315
0.104825
-0.0558715
-0.366149
0.234557
0.131592
0.178895
0.0978775
-0.276772
0.232911
0.179954
0.220767
-0.26179
0.0410226
0.0645707
-0.0482915
-0.0143944
0.0496247
-0.0352303
0.0696808
0.0103791
0.07033
0.031001
0.111024
-0.0764869
-0.0345371
0.186207
-0.0873318
-0.0988752
0.0192674
0.0491866
-0.068454
0.335221
0.00649278
-0.341714
0.0104494
0.154537
-0.164987
-0.0410572
-0.0144393
0.172211
-0.288953
0.0387789
-0.0145659
0.0881153
-0.130929
0.0428134
0.173744
-0.0275241
0.100393
-0.0728691
-0.0770229
0.0922454
-0.19113
0.117445
0.073685
-0.0648041
-0.0550462
-0.0106862
0.0773268
-0.0666407
-0.135545
-0.061972
0.135792
-0.0532454
-0.000879789
0.0441238
-0.043244
0.117194
0.108044
0.00811484
-0.0136766
0.00556179
0.0631778
-0.0907019
0.0386085
-0.00287791
-0.0357306
0.063431
-0.00949951
-0.0539314
-0.0956018
0.0625865
0.0330153
-0.293523
0.180074
0.11345
0.0465224
-0.0597786
0.0132562
-0.115026
0.0733666
0.0416598
-0.0381273
-0.0369734
0.0751006
-0.0519209
0.204066
-0.0557482
0.0135213
-0.285898
-0.0941135
-0.277284
0.152764
0.105351
-0.159178
0.0538264
0.26801
0.0516265
-0.0632206
0.0525344
0.0589519
0.0301505
-0.0891024
0.0471078
0.0012528
0.0259811
0.0284919
-0.054473
-0.0364493
0.0216109
0.0148384
0.0268977
0.0117108
0.168347
-0.330098
0.135776
-0.326666
0.0393279
-0.0130654
0.00819874
-0.0195636
0.0113648
-0.139208
0.0915768
0.0476311
0.0653362
-0.0288855
-0.0068184
0.0130941
-0.00627567
0.211118
-0.118764
0.150482
0.0357247
0.191241
0.0856722
0.0236394
-0.0295512
0.00591175
0.282882
0.0523386
0.041263
-0.105538
0.0642751
0.0779133
-0.0117265
-0.0661868
-0.111813
0.143368
-0.0315552
-0.0749264
-0.341936
0.197087
-0.0214922
-0.208436
0.229929
0.00194849
0.00295121
-0.0048997
0.0962267
-0.04181
0.0277059
0.0690752
-0.0967811
0.145569
-0.0216201
0.100292
-0.0786715
-0.00250833
0.0477419
-0.391439
0.257072
0.134367
-0.0624621
-0.0525643
-0.164472
0.102041
0.0624306
-0.0881628
-0.135256
0.223419
-0.00120937
0.00185219
0.218033
-0.122672
-0.0953612
0.150297
-0.0685006
-0.0817961
-0.241409
0.131359
0.11005
0.00232133
-0.00394186
0.0507892
0.00597144
0.108364
-0.0671008
-0.126924
0.0487359
0.0781877
0.0703987
-0.0920188
-0.0549074
0.0391957
0.0157117
-0.0785551
0.134017
-0.0554622
-0.147228
-0.0939308
0.0656951
-0.165821
0.100126
0.00279209
0.00696374
-0.299845
-0.0915948
-0.213925
0.0965682
0.19712
-0.0425825
-0.0278128
-0.0345174
0.0623302
0.103025
0.0646698
-0.0379005
-0.00585775
0.0437583
0.0503508
-0.0692155
-0.0434539
0.0570828
0.0184106
-0.190617
-0.00159714
-0.00222061
-0.011584
0.0827535
-0.0711695
0.200676
-0.116419
-0.0842563
0.114549
-0.0530844
-0.061465
-0.128776
0.0639724
0.0474944
-0.00337062
0.210645
0.171069
0.0348006
0.0495142
-0.05979
-0.0381671
0.0979571
-0.0115004
0.0508196
-0.0393192
0.0752593
-0.120213
0.0449537
-0.269664
0.341475
-0.0718114
0.0496388
-0.0702157
0.020577
-0.394207
0.210329
0.170525
-0.273125
0.1026
0.112326
-0.234723
-0.170584
0.159174
0.0114098
-0.0692052
0.0576212
-0.154763
0.056408
0.0983554
-0.0380118
0.105239
-0.0672269
0.0413789
-0.078939
-0.0939477
0.054527
0.0394206
-0.04665
0.284719
-0.311708
0.15396
-0.0635812
-0.090379
0.0189542
0.0510661
-0.0700203
-0.142581
0.065498
0.0770829
-0.0597857
0.0453913
-0.0332211
0.0824333
-0.0492123
-0.0288303
0.106275
-0.0774452
0.0261482
0.11358
0.0369022
0.18115
-0.110283
-0.0708669
-0.0742214
-0.108619
0.18284
0.0527784
0.0189349
0.0203464
0.0418073
-0.0621537
-0.0491003
0.121973
-0.0728731
0.00743115
0.00520754
-0.0126387
0.0674386
0.0391891
-0.0190464
0.0184884
0.000558075
0.0236294
-0.0697369
0.0461075
0.193681
0.156711
-0.350392
0.0225103
0.055403
-0.0207393
-0.01571
-0.00565458
0.0137694
-0.0957749
0.145608
-0.0498329
0.12932
-0.243369
0.114049
-0.0166625
-0.00238395
0.0323707
0.0923339
-0.124705
-0.0666213
-0.0621552
0.195302
-0.101251
-0.094051
0.104995
-0.0772892
-0.0458553
0.0712339
-0.0253786
0.0901045
-0.0316161
-0.0584885
-0.0241114
-0.0149657
-0.111366
0.0750259
0.0363399
0.0910076
-0.127776
-0.14988
0.245747
-0.0958669
-0.0495025
0.0122576
0.0372449
-0.187119
0.32593
-0.227563
0.00797765
0.219586
0.0278381
-0.0468011
0.0189631
-0.117028
0.0516484
-0.077705
-0.0777997
-0.0362662
0.0153576
0.0209087
-0.00511026
-0.0571201
0.0520873
-0.0407925
-0.00822471
0.0490172
-0.024174
0.0501551
0.0356634
-0.208628
-0.000867463
-0.00626935
-0.146921
0.0683656
0.182529
0.123634
-0.306164
-0.157639
-0.122397
0.00124187
-0.0114192
0.0101773
0.0452779
0.047893
0.019449
0.179488
-0.0754192
-0.104069
0.0143922
0.240049
-0.116449
-0.1236
0.14179
-0.229953
0.0030181
0.0164232
-0.0194413
0.0282476
-0.0046082
0.0416795
0.0174619
0.0627413
-0.174554
0.036726
-0.132118
0.222129
0.0348472
-0.256976
-0.0614905
0.0687871
-0.00729664
0.0995811
0.0698749
0.0674687
-0.0459477
-0.00936024
-0.0232946
0.0326549
0.0133101
0.00226974
-0.0972875
0.0374975
-0.00266532
0.00106818
0.341729
-0.0483334
-0.293396
0.0485495
0.0673075
-0.115857
-0.28329
0.175648
0.107642
0.0560559
0.131175
-0.0348977
-0.0200097
-0.0593638
-0.0298814
0.0892452
-0.0290335
-0.00851014
0.0375437
-0.173763
-0.22826
0.121404
-0.181742
0.0603384
-0.0139836
0.0235768
-0.00959321
0.0705941
-0.298157
-0.109595
-0.10192
-0.0996701
0.0582216
0.0414484
-0.0760735
0.0378959
0.025553
-0.00668743
-0.0188656
-0.0708389
-0.0288312
0.155997
0.0620363
-0.107348
0.262089
-0.15474
0.0136678
-0.00623662
-0.0607169
-0.056311
-0.112672
0.333439
0.0527329
-0.122358
0.0696246
0.0429424
0.0471621
-0.0326169
-0.0122816
0.0448985
-0.00128276
7.33888e-05
0.140637
-0.0496293
0.106843
-0.227394
0.120551
-0.10143
0.0634178
0.134127
-0.101757
0.385721
-0.128649
-0.0266779
0.0769312
-0.0502533
-0.0131829
0.0121092
0.00107369
0.211998
-0.376732
0.164735
0.123537
-0.0592571
-0.0642802
-0.0714647
0.120014
0.118817
-0.0660845
-0.0113587
0.00454032
-0.0196488
-0.051659
0.0713078
-0.0668103
0.0429589
-0.0731434
-0.0656405
0.138784
-0.0498806
0.0363469
0.0135337
-0.025627
0.131926
0.184269
0.201452
-0.0232822
-0.147302
-0.268227
0.168014
0.100213
0.0237403
-0.0295404
0.00580015
0.0648405
-0.0538092
-0.0110313
-0.0262856
-0.0232169
0.180452
0.104326
-0.284778
0.0650813
0.209325
0.047255
0.0232879
-0.0705429
0.0620478
-0.104607
0.0425589
-0.174289
0.0836098
0.022031
-0.0628235
0.0673102
-0.116847
0.0203238
0.0965228
-0.0818935
0.186062
-0.104169
0.0111503
-0.0585011
0.0473508
0.0739295
-0.0445653
-0.091259
0.135824
-0.133959
0.0616381
0.0723206
-0.377823
0.200142
0.177682
0.0490944
-0.0511105
0.00201605
-0.303124
0.106235
0.196889
-0.0424987
0.00459818
-0.208843
-0.0744473
-0.259526
0.143717
0.138522
-0.275617
-0.0917672
-0.0145642
-0.021702
0.167997
-0.0695735
-0.0984237
-0.163776
0.0434092
-0.00185658
-0.0113263
0.0502075
-0.00111309
-0.0968018
-0.0457791
0.0915733
-0.0580517
-0.0335216
-0.0664787
0.0415716
-0.0180291
0.0458672
-0.195869
0.0786828
-0.0600539
0.108403
-0.0483487
0.016704
0.046727
0.106576
0.0614215
-0.0468915
0.120832
0.0846517
-0.205483
0.0659342
-0.0277155
-0.0382187
-0.0130871
0.00428951
-0.0108292
0.0767521
-0.0659229
-0.154258
0.109693
0.140695
-0.0644973
-0.0761982
0.0892567
-0.130203
0.0409465
-0.104824
0.225982
-0.121158
0.0353576
-0.131133
-0.0212907
0.0555742
-0.0502912
-0.114181
0.0100069
0.0604748
-0.0907518
0.159592
-0.00407697
-0.00237928
0.00645625
-0.149305
-0.153819
0.100598
0.0520078
-0.152605
0.133369
0.0673062
-0.110993
-0.0353305
0.0661158
-0.0561089
-0.0400899
-0.224369
0.119545
-0.118121
0.0624205
0.0557001
0.0253882
-0.034193
0.00880478
-0.15883
0.047837
0.0558791
-0.0371908
0.11019
-0.08955
-0.0206404
-0.00657299
-0.00753544
0.0141084
-0.092101
0.208419
-0.116318
-0.109796
0.0743896
0.0354067
-0.109946
0.213586
-0.10364
-0.0519985
0.000298193
0.0517003
-0.214111
0.192619
0.249959
-0.135524
-0.114435
-0.363652
0.150213
0.213439
0.0690269
-0.0217719
-0.0502748
-0.0836839
-0.0265812
-0.0338222
0.294828
-0.114376
-0.0332664
-0.272312
0.111304
0.0850122
-0.0464063
-0.0386059
-0.0132348
-0.250512
0.262099
-0.132779
-0.0184616
-0.0334849
0.0519465
0.0874036
0.0937462
0.104877
-0.00865834
-0.0065703
0.0152286
0.0506057
-0.0544464
0.00384075
-0.0424228
-0.150602
0.265377
-0.114775
-0.026375
0.0863142
-0.0599392
-0.0382955
0.113555
0.213001
0.144142
-0.183158
0.0712748
0.0762793
-0.0223671
-0.0539122
-0.0547671
-0.00672344
-0.108118
0.0480641
0.0563785
0.272687
-0.0991841
-0.159231
-0.134292
0.0955556
-0.00629896
-0.0408081
-0.0773125
0.0763104
0.03388
-0.194944
0.107613
0.0914236
-0.013101
0.0809821
-0.0678812
-0.181545
-0.100295
0.28184
0.0680003
0.00396363
-0.0719639
-0.0877491
-0.0855421
0.0335436
0.0517216
-0.0402633
-0.0114582
-0.0514386
0.056428
0.00318136
-0.00684383
0.123437
0.167627
-0.291064
-0.132231
0.267127
-0.134896
-0.0332922
-0.0165884
-0.116122
-0.157974
0.0554237
-0.096309
0.0408853
0.032581
0.00974002
-0.042321
0.0714613
-0.0704109
0.0621907
0.00917532
-0.00793346
-0.0783052
-0.0419079
-0.0366329
0.0307581
0.00587478
-0.0900645
-0.0930935
0.0459996
0.169498
-0.0507312
-0.0343778
0.085109
0.0312336
-0.0405938
-0.0652578
0.154123
-0.0888652
-0.00152168
-0.0275119
-0.195049
0.0426424
0.152406
-0.245699
0.14484
0.100859
-0.0348299
0.145032
-0.0659428
0.16654
0.128545
-0.0641246
-0.0644208
0.0811581
0.110046
0.0201781
0.0457561
-0.00182449
0.00414582
-0.0149215
0.0503908
0.017187
0.100258
0.286596
-0.151617
0.0115679
0.0033634
-0.0149313
0.0585646
-0.00937802
-0.0282903
-0.00834256
0.19982
0.145697
-0.345517
-0.0873119
0.0365807
0.161629
-0.116887
-0.044742
-0.0705128
-0.0525093
0.123022
0.0408176
0.0137144
-0.054532
0.288498
-0.0948171
-0.086093
-0.0623665
0.148459
-0.0479639
-0.0510193
-0.0250542
-0.271728
0.102901
0.168827
0.0176633
0.0790083
-0.0966716
0.0964303
0.048544
-0.144974
-0.128478
-0.0989156
-0.196113
0.11422
-0.170468
0.0866236
0.0838444
0.0758644
-0.0214488
-0.0544156
0.0694174
0.0155948
0.0276381
0.0305969
-0.0582349
0.0893406
0.116813
-0.00263823
0.0574954
-0.033436
0.110831
-0.077395
-0.0303352
0.0951749
-0.0648397
-0.046785
0.0603299
-0.0135449
-0.115221
0.290827
-0.175606
-0.186775
0.147103
0.0396715
0.0610796
0.00376087
0.0451886
-0.116653
0.159696
-0.264082
0.104387
0.0402681
-0.027206
-0.013062
0.0700579
0.072089
0.0745529
0.109065
-0.0918785
0.0399295
0.114546
-0.154475
-0.107177
0.191736
-0.0845591
-0.00189736
-0.0282315
0.0301289
-0.00185374
-0.000704471
0.00255821
-0.128493
0.0579806
-0.1359
0.0706425
-0.037786
-0.127633
0.0107863
0.119201
-0.152742
0.118807
-0.248051
0.132831
0.0543595
-0.0823577
-0.115198
0.200801
-0.0856034
0.141536
0.0844459
-0.156688
-0.185249
-0.0844869
-0.0859811
0.00233779
-0.0636925
0.0613547
-0.131995
-0.0638738
0.0078997
-0.0120985
0.00419878
-0.205829
0.0906316
0.052142
-0.0793505
0.0272085
-0.167179
-0.0272512
0.0862031
0.0793405
-0.0675734
-0.0117672
0.0703712
-0.0504955
-0.0198758
-0.0512925
0.12385
-0.0725575
-0.103868
0.151685
-0.0478161
0.0406291
-0.0580659
-0.0540466
-0.0399011
-0.000898163
0.00110535
-0.000207184
0.0992618
-0.0470109
-0.00269007
0.00613266
0.0664989
-0.336162
-0.100287
0.144963
-0.0446757
0.0771648
0.0513806
0.0031344
-0.00495889
-0.20317
0.126193
0.0769771
-0.0342742
0.155678
0.094847
-0.0394233
0.105035
-0.0431368
-0.0618984
-0.187727
0.0223847
0.165342
-0.193611
0.083665
-0.0481526
0.0763064
-0.0281538
0.159172
0.299001
-0.130654
0.00175892
-0.00161709
-0.0989231
-0.12755
0.0492444
0.104124
-0.028819
0.09028
-0.061461
0.262243
-0.133862
-0.128381
0.0590405
-0.0182229
0.0675249
-0.0415766
-0.0417942
0.0833708
0.0662396
0.0117107
0.00230603
-0.038348
-0.104423
0.142771
-0.083514
0.22505
0.0632571
-0.15839
0.0951329
0.11663
-0.098967
0.0683087
-0.0844512
0.0161426
-0.257491
0.0597082
0.197783
0.0804284
0.209803
0.0692556
-0.00077402
0.00882187
-0.00804785
0.283221
0.0475302
0.00428505
-0.0518152
0.0923477
-0.0834468
-0.00890097
0.0578688
-0.148165
0.0902962
0.374442
-0.221871
-0.152571
-0.250057
-0.0110337
0.261091
-0.0187139
0.00473027
0.00802304
-0.045395
0.202496
0.0584946
-0.260991
0.0483069
-0.0367512
-0.0115556
-0.108053
0.0700568
0.0379966
0.00196311
-0.00381685
-0.0978914
-0.105278
-0.209442
0.132896
0.0765461
-0.239935
0.0745174
0.165417
0.0389143
-0.00633326
-0.116745
0.229124
-0.112379
0.045571
-0.0722489
0.0315442
-0.00179658
-0.0297477
-0.205439
-0.105225
0.180937
-0.348663
0.167726
-0.0374966
-0.0475244
-0.104141
-0.111649
0.21579
0.0810723
0.0171485
-0.0982208
-0.308026
0.15999
0.148036
-0.0524843
-0.0858796
0.138364
0.00553618
-0.0223887
0.0872758
-0.0648871
0.173818
-0.0871949
0.0659142
0.0576232
0.114247
-0.0433937
-0.0708528
-0.0367863
0.0284101
0.163338
-0.0944198
-0.0689186
0.0884017
-0.110994
0.33924
-0.228246
0.0133619
-0.0483189
0.034957
-0.0829745
0.122904
-0.0362569
0.113451
-0.0771941
-0.117785
0.239201
-0.121416
0.159676
0.102567
-0.0745952
0.119784
0.0986988
-0.0556608
-0.043038
0.318152
-0.351905
0.0337536
-0.0133773
0.0737176
-0.0603403
-0.135824
-0.136488
0.102689
0.0229759
-0.125665
-0.0755589
-0.0342374
0.110569
-0.0368836
-0.0736853
-0.0700514
0.0661628
0.00388865
0.0544087
-0.0493672
-0.00504151
0.0658521
-0.0910347
0.0251827
-0.0590885
0.0614263
-0.0186912
0.06833
-0.0109676
0.103315
0.0149653
-0.00676653
0.00507736
0.345286
-0.35252
0.00723333
-0.00471523
0.283379
-0.125136
0.0927279
0.073304
-0.166032
0.0734052
-0.0273646
-0.0460406
-0.00408642
0.0137408
-0.00965434
0.100079
0.0538015
-0.0362094
0.141157
0.104589
0.00600381
0.042303
-0.0518252
0.0861429
-0.0343176
-0.19561
-0.168042
-0.221265
-0.0867608
-0.0213053
0.00464277
-0.0137643
-0.0438975
0.0576619
0.0759123
-0.062066
-0.0138463
0.0678428
-0.108892
0.0410493
-0.143467
0.325997
0.18148
-0.0606482
0.0793485
0.0748702
-0.154219
-0.286127
0.126896
0.11479
0.0816035
-0.196393
-0.0834056
0.0517895
0.0257976
-0.0590905
0.033293
-0.216817
0.115157
0.101661
-0.329266
-0.00369053
0.332957
0.029534
0.00924498
-0.151104
0.0924979
0.0586065
-0.164706
-0.12053
0.0645856
-0.00703822
-0.0568527
0.0217375
0.0351151
-0.086484
-0.0527239
-0.0502351
-0.00189781
0.00339801
-0.0015002
-0.0160057
-0.0052996
0.0209232
0.0427337
-0.0636569
0.0256473
0.144877
-0.106078
0.22088
-0.114802
-0.00792862
-0.0155927
0.0235214
-0.15942
0.0623445
0.0970755
0.0467204
-0.0513301
0.00460972
0.0834994
0.0975103
-0.18101
-0.00514253
-0.0414793
0.0207401
-0.00758737
-0.0054997
0.120045
-0.0576245
0.0989529
-0.06665
-0.0323029
-0.0583235
0.0445591
-0.0129322
0.215428
0.0680552
-0.00228181
-0.0657734
-0.0334798
0.0315824
0.0697642
-0.0194134
0.146523
-0.088654
-0.0356427
-0.0701453
0.0165659
-0.00551764
-0.0110482
-0.0026735
0.000775691
0.154299
-0.278349
-0.0583643
-0.0301382
0.162931
0.0163052
0.00988511
-0.163657
-0.109467
-0.243546
0.178772
0.0647748
0.0573075
0.0104877
-0.0677952
0.143497
-0.227011
0.0827283
-0.135213
0.105507
-0.211584
-0.137137
0.0184546
-0.0443808
-0.042913
-0.31404
0.193682
0.120358
0.236466
-0.0979114
0.0290952
-0.0410235
0.0119283
0.101018
0.150729
-0.251747
0.041394
-0.0829705
-0.00938311
0.0737466
-0.0643635
-0.1107
0.0539497
0.119201
-0.0671936
-0.131772
-0.108163
-0.206825
0.0996475
-0.0538545
-0.100404
0.110474
0.0134154
-0.12389
-0.121383
0.0722825
-0.340317
0.195189
0.145129
-0.0284061
-0.0549995
-0.0855813
0.033756
0.0453783
-0.0320164
0.132955
0.128887
-0.0860373
0.0580722
0.0279651
-0.00284743
-0.0103359
0.0131833
0.0471542
-0.1381
0.36004
-0.137911
-0.0487477
0.060318
-0.0115704
-0.32755
0.190909
0.136641
-0.0778592
-0.0341197
0.111979
0.0597135
-0.309771
-0.0890967
-0.0378269
-0.010776
0.00730532
0.0034707
0.0136085
0.0597581
-0.330043
0.173355
0.140992
-0.0609894
-0.0800031
0.11397
-0.0398546
-0.0741156
0.236882
0.104593
-0.111138
-0.132408
-0.395811
0.28278
0.113031
-0.143209
0.104861
-0.222369
-0.171838
0.0053599
-0.00217853
-0.0538197
0.222797
-0.168978
-0.0712649
0.0254096
-0.13374
0.234803
-0.101062
0.0101398
0.149862
-0.112439
-0.0374232
-0.0294274
-0.158299
-0.0405552
-0.047783
-0.0360512
0.113035
-0.076984
-0.0297024
0.0260736
0.00362872
0.0320182
-0.0537111
0.0216929
-0.0296186
0.0847931
-0.0551745
-0.0450033
0.0123865
-0.271417
0.122112
-0.0651048
-0.0859996
-0.0294274
0.00496955
0.0244579
0.057381
-0.0253628
0.156137
-0.283566
0.127429
-0.194778
-0.145539
0.0333272
-0.0875629
-0.0504126
-0.0602875
-0.232846
-0.1269
-0.0137298
0.10518
-0.0914502
0.00845263
-0.0123113
0.00385864
-0.0921305
0.159164
-0.0670336
-0.012812
0.064954
0.038693
0.0115145
-0.0978673
-0.0490534
0.0425806
-0.0521355
0.00955497
0.165549
-0.0862009
0.0715591
0.0868218
-0.0302697
-0.0565521
-0.282735
0.0961608
0.186574
-0.0221539
0.0283539
-0.00619996
-0.267577
0.0181364
0.0423364
-0.0604728
0.203006
-0.345605
0.1426
0.0110867
-0.0118607
0.0650831
0.260933
0.113509
0.0755255
-0.061917
-0.130511
-0.183529
-0.00981313
0.0523937
-0.0870866
0.0341519
0.0335076
-0.0810186
0.0475109
0.0550617
-0.116712
0.0616504
0.0418527
-0.0238794
-0.0179733
-0.0104875
0.110549
-0.100062
-0.162381
-0.109346
0.0242602
0.0722594
-0.0965197
0.0494859
-0.122629
-0.0750649
0.0304197
0.0446452
-0.0516361
0.0564346
-0.00479848
0.0207283
0.0211243
0.090938
0.0724003
-0.107967
0.0324082
-0.0281635
0.098925
-0.0707615
-0.0412215
-0.010914
-0.154555
0.1007
0.0462405
0.0227864
-0.0052635
-0.0505346
0.0557981
0.0250582
0.0522686
-0.0531832
-0.0340865
0.0872697
0.0285995
0.0460295
-0.00694504
-0.0390845
-0.00268653
0.0129308
-0.0044782
0.0660073
-0.103694
0.0376866
0.0293127
0.0531206
0.399628
-0.25
-0.149628
-0.00415113
-0.116089
-0.0226156
0.138705
0.135804
-0.0637147
-0.0484225
-0.0266425
0.17809
-0.275787
0.0976975
0.119495
-0.28045
0.160955
0.03875
-0.00921602
0.131861
-0.0579612
-0.0738994
-0.0158423
0.070514
0.0532613
0.0339804
-0.0872417
-0.0324535
0.0582511
-0.12791
-0.2679
0.237824
-0.0974253
-0.140399
-0.126064
0.405849
-0.232368
-0.173481
-0.0211693
-0.02031
-0.116504
-0.0176286
0.134133
0.00278549
-0.253135
0.145787
0.00715022
-0.00610189
0.0255825
-0.0568699
0.0312874
-0.0637407
0.0117419
-0.0374712
0.0578177
-0.133376
0.129578
0.00379769
-0.262604
0.208785
-0.0363232
0.0772309
0.0428141
0.0102459
-0.0155881
-0.0937957
0.0833083
0.31146
-0.0994626
-0.00599163
-0.0114852
0.0174768
-0.0996891
0.0715256
-0.367073
0.172295
-0.014361
-0.0439962
0.0583572
0.00329824
-0.0248932
-0.00480918
0.23029
0.122085
-0.028624
0.0542065
-0.0241146
0.0814484
-0.0573337
0.00758327
0.00236987
-0.00995315
0.00253088
0.0556201
-0.058151
0.0583715
-0.00268706
-0.0556844
-0.0461106
0.115582
-0.0694711
-0.015832
-0.0449597
0.0607917
0.21734
0.0275162
-0.244857
-0.0266982
0.116594
-0.0898957
-0.0402105
0.0496914
0.0105215
-0.0602128
-0.0389211
0.0598442
0.0035401
0.0645151
0.0657185
0.0809166
-0.0558584
0.0573763
-0.0482373
-0.00913902
0.019792
-0.0668487
0.0470567
-0.243396
0.278244
0.0460852
0.0183315
-0.0634088
-0.0329002
-0.0615767
0.00994057
0.0687653
-0.0225248
0.0705636
-0.0121921
0.0894233
-0.0469659
-0.0129928
0.198451
-0.185458
0.0704572
-0.166431
0.095974
-0.15366
0.182802
-0.0291419
0.0724919
-0.0210423
0.0868031
-0.0657609
0.104742
-0.206339
0.101598
-0.352445
0.0279681
0.00461045
-0.0121978
-0.00419013
0.0195477
0.0720102
-0.20947
0.374998
-0.165528
-0.161212
0.0759658
0.0852459
0.0642971
-0.127289
0.0629916
-0.0448903
-0.0240956
0.0689859
0.0940226
0.0920396
-0.0562287
0.0468456
0.100662
-0.0764021
-0.340945
-0.00816039
0.349105
0.0702242
-0.00797125
0.0130804
-0.00510915
-0.0695183
-0.0260835
0.0890405
-0.138127
0.0490863
0.241639
-0.140621
0.0739094
-0.129693
0.055784
0.124999
-0.0590843
0.199408
-0.323275
0.123867
0.0773197
-0.0959266
0.0186069
-0.0498921
0.164682
-0.0649771
0.0181921
0.0554711
-0.00875069
-0.0821778
-0.0616302
0.143808
0.00159502
-0.34254
-0.0312239
0.0527385
0.152408
-0.0733589
-0.0293054
-0.0316567
-0.20906
0.0753199
0.0235038
0.0556958
-0.0123005
0.0509935
0.239029
0.16682
0.143143
-0.0798863
-0.047298
-0.0949573
0.142255
0.0287477
-0.00335954
-0.0623745
0.267044
-0.204669
-0.00644948
0.0539796
-0.010772
0.0420055
0.16726
-0.0098006
-0.048909
0.0587096
-0.148622
-0.122795
-0.0323155
-0.0327432
-0.137084
-0.15968
0.296764
-0.155691
-0.0792251
0.234916
-0.206121
-0.141689
-0.144243
0.0463752
-0.0462294
0.0834686
-0.0372392
0.116692
0.0901527
-0.206845
-0.121617
-0.208426
-0.0149127
0.119968
-0.105055
-0.0938794
-0.102234
-0.0813977
0.0565109
0.0248868
-0.0324069
-0.00990075
0.0423077
0.0150194
-0.0210111
0.0602998
-0.136796
0.0764963
-0.06226
0.047899
0.0768586
-0.0475459
-0.026288
-0.0447213
0.0710093
-0.128142
-0.00581303
0.0095616
-0.00374858
0.0333338
-0.0862662
0.0529324
0.0532123
-0.129725
0.0846232
-0.0512893
0.0109236
-0.00821577
-0.00270784
-0.0038182
0.00120794
0.00261026
-0.108173
-0.0137275
0.1219
-0.0889303
0.205623
-0.189444
0.327731
-0.138287
0.123614
-0.0593168
-0.0356583
0.0842769
-0.0486186
0.0430621
-0.114279
0.0712173
0.100753
-0.25178
0.0492604
-0.0156852
-0.0335752
0.0274224
0.0374829
-0.327332
-0.0104144
0.337746
0.00307755
-0.0380033
0.0349258
0.0970241
-0.229255
-0.20338
0.190388
-0.00854343
0.00273041
-0.0453567
0.0157036
0.00127402
-0.0219506
-0.13171
-0.0486722
0.00745076
0.0848896
-0.0343863
-0.0505033
-0.0268546
-0.00704302
-0.0728855
-0.0321151
0.0463774
-0.0142623
-0.0369255
0.00432275
0.0212303
-0.121072
-0.137398
0.000923528
-0.00139651
0.000472985
0.11375
-0.269044
0.155294
0.00323915
0.00157421
-0.00481336
-0.0551435
-0.0321684
-0.0321021
-0.245182
0.123199
-0.305998
0.182799
0.00770517
0.00321844
-0.103738
0.0342197
-0.054584
0.057441
-0.10182
0.0443786
0.305386
-0.182187
0.0375132
-0.054931
0.0174178
-0.310445
0.132169
0.178277
0.0272284
-0.0158565
-0.0113718
-0.25833
0.143399
0.11493
-0.318709
-0.0105569
0.0275539
-0.0553667
-0.147294
0.330495
-0.183201
-0.05047
0.13951
-0.187373
0.368309
-0.0470801
0.104814
0.237105
-0.000638553
0.0559634
-0.148718
0.0927542