/*--------------------------------*- C++ -*----------------------------------*\
| =========                 |                                                 |
| \\      /  F ield         | OpenFOAM: The Open Source CFD Toolbox           |
|  \\    /   O peration     | Version:  v2012                                 |
|   \\  /    A nd           | Website:  www.openfoam.com                      |
|    \\/     M anipulation  |                                                 |
\*---------------------------------------------------------------------------*/
FoamFile
{
    version     2.0;
    format      ascii;
    class       surfaceScalarField;
    location    "250";
    object      phi_0;
}
// * * * * * * * * * * * * * * * * * * * * * * * * * * * * * * * * * * * * * //

dimensions      [0 3 -1 0 0 0 0];
oriented        oriented;


internalField   nonuniform List<scalar> 
27688
(
-0.291677
0.177149
0.114527
-0.0069826
-0.0515993
0.0585819
-0.18518
-0.0247406
0.209921
0.290428
-0.189786
-0.100642
0.122973
0.138357
-0.26133
0.168695
0.0510965
-0.219791
-0.0105832
-0.0446805
0.0552637
0.0186655
-0.0218339
0.00316838
-0.0534139
0.0755384
-0.0221245
0.000691358
0.0775698
-0.0782612
0.262816
-0.139843
-0.11725
0.229365
-0.112114
-0.0435648
0.424984
-0.381419
0.106656
-0.230978
0.124322
0.217915
-0.279502
0.0615869
-0.00558201
0.174277
-0.202584
-0.0290318
0.231616
-0.157494
-0.134182
-0.250993
-0.102478
0.353471
0.0588276
-0.00664336
-0.0521843
0.3203
-0.102386
-0.0298425
0.03379
-0.00394748
-0.489501
0.140217
0.349284
-0.241103
0.123852
0.0116374
0.037776
-0.0494133
-0.0802435
0.0268295
-0.077161
0.0824357
-0.00527465
0.036702
0.0216664
-0.0583684
0.0754831
-0.0692571
-0.00622607
-0.260296
0.0751156
-0.208202
0.117697
0.090505
-0.0787479
0.236709
-0.157961
0.0747241
0.0486119
-0.123336
0.194629
0.191846
-0.386475
-0.18666
0.091351
0.0953094
0.0543516
-0.0449067
-0.00944488
0.297236
-0.162297
-0.134939
-0.00504047
-0.0595968
0.0646373
-0.00674928
0.0254148
-0.297148
-0.192353
-0.0129687
0.0123743
0.000594389
0.0324341
-0.0320862
-0.000347868
0.000136143
0.027649
-0.0277851
0.0241476
0.00381231
-0.0279599
0.0596903
0.0719057
-0.131596
-0.0123398
-0.0928089
0.105149
-0.00313726
-0.0159158
0.0190531
0.1254
-0.0547632
-0.0706367
-0.0817874
0.0849162
-0.00312882
0.0435839
0.00317379
-0.0467577
-0.0834594
0.00629834
0.100125
-0.1966
0.0964755
-3.97831e-05
-0.0770591
0.0770989
-0.0773428
0.0778786
-0.00053575
-0.0617625
0.0576081
0.00415438
0.0615095
-0.06655
-0.00444244
0.0861768
-0.0817344
0.0920881
-0.0119242
-0.0801638
-0.0128968
-7.18404e-05
-0.0584221
0.0557715
0.00265069
0.0174175
-0.0182461
0.000828618
0.0618287
-0.0189362
-0.0428925
-0.0788456
-0.00294187
0.508375
-0.476309
-0.0320653
-0.065399
0.0737664
-0.00836739
-0.0766289
0.0849629
-0.00833406
-0.0563427
-0.00207941
0.0699056
-0.141402
0.071496
-0.345645
0.30208
-0.0120114
-0.000885418
0.0888986
-0.0783337
-0.0105649
0.0457123
-0.296705
0.253478
-0.451834
0.198356
0.0525224
-0.0692678
0.0167454
-0.0180106
0.0180106
0.0164024
0.0379493
-0.478817
0.27791
0.200907
0.300401
-0.245234
-0.0551663
-0.177013
-0.207995
0.385009
0.00544056
-0.0820694
0.0970415
0.0520958
-0.149137
-0.186049
0.380678
-0.271536
0.25683
0.0147066
-0.173541
0.106081
0.0674598
0.00243674
-0.0322792
0.194917
-0.314818
0.119901
-0.00759968
-0.0567262
0.0643259
0.0138035
-0.00142918
0.0237124
0.0381163
-2.9254e-05
-0.00270788
0.00273714
0.173794
-0.345223
0.171429
0.000486397
0.0169311
-0.0144599
-0.0515055
0.0659654
-0.152031
0.385886
-0.233855
-0.000308819
0.0191535
-0.0188447
-0.0668834
0.030739
0.0361444
0.140617
0.0646631
-0.20528
0.0696629
-0.068
-0.00166295
0.0166714
0.401672
-0.418343
-0.00159833
0.0264399
-0.0248416
0.0461634
-0.00257948
-0.000765433
0.00196449
-0.00119905
-0.23507
0.156322
0.0602335
-0.0746934
0.0323512
0.0431319
0.0881688
-0.0785488
-0.00962
0.0652407
-0.0536033
0.282094
-0.530175
0.248081
-0.0326858
-0.0341976
-0.0818971
0.0492114
-0.0175063
0.0187466
-0.00124029
-0.0578848
-0.0824817
0.140366
0.0217935
-0.0249308
0.0241476
-0.368944
0.276203
0.0927415
0.42061
-0.286589
-0.134021
0.0432851
-0.0538683
0.233047
0.0573809
0.076338
-0.0763778
0.0199777
-0.0199777
0.0866398
-0.195206
0.108567
-0.0912359
-0.0883028
0.179539
-0.058496
0.132167
-0.0736713
0.17054
0.0552121
-0.225752
0.0862924
0.0106274
-0.0969198
0.0771652
-0.0735722
-0.00359302
-0.0548435
0.145545
-0.0907016
0.00173499
-0.067134
-0.00214934
-0.0653814
0.0675307
-0.0109179
-0.0713981
0.0823159
-0.0262805
-0.00126969
0.0275502
0.0198725
0.0275903
-0.0474629
0.0560976
0.00273004
-0.0903883
0.0859459
-0.140089
0.355761
-0.215672
-0.0709342
0.125402
-0.0544678
-0.377077
0.221351
0.155726
-0.0152621
-0.00224419
0.0365413
-0.0356511
-0.000890218
-0.327593
0.250322
0.0772714
0.0204592
-0.023525
0.00306575
-0.04027
-0.0416271
0.215171
-0.392184
-0.436262
0.0500237
0.386238
-0.161111
0.103226
-0.235275
-0.133669
-0.388736
0.467535
-0.078799
-0.231243
-0.0402934
0.340694
-0.324022
0.0856948
-0.205082
0.119387
0.0435473
-0.0693473
0.0258
0.164864
-0.287478
0.122615
0.0444231
-0.117341
0.0729175
0.224405
-0.150015
-0.0743899
-0.177327
0.118831
0.022312
-0.00185282
-0.00221255
0.0369444
-0.0347318
0.114532
-0.0805292
-0.0340033
0.102353
-0.225734
0.123381
0.0307607
0.0918962
-0.0056038
-0.0565607
0.129559
-0.0729983
-0.0425705
0.0435095
-0.000938951
0.0437608
-0.0679505
0.0241898
0.302154
-0.220381
-0.0817728
-0.164781
0.110395
0.0543856
-0.104757
-0.0687838
0.0282499
-0.0291448
0.000894889
-0.176139
-0.0699846
0.246123
0.0708788
-0.00121592
0.439542
-0.310806
-0.128736
-0.0463626
0.121087
-0.0776114
0.0837229
-0.0061115
-0.0640658
0.0768244
-0.0127586
0.024471
-0.0243348
0.275649
-0.102611
-0.173038
-0.0751307
0.0458311
0.0292996
0.163056
0.0613486
0.276602
-0.52845
0.251847
-0.136419
0.0371531
0.0992654
-0.0174341
0.0609815
-0.111266
-0.0753943
0.0628525
-0.0261505
-0.201783
0.422074
-0.220291
0.305859
-0.499567
0.193708
0.104499
-0.109619
0.00512048
-0.0163338
0.0600946
0.0493488
0.0094438
-0.0587926
0.0582419
-0.0658416
-0.136452
0.243108
0.42599
-0.23823
-0.187759
0.122103
-0.0499276
-0.0721755
-0.0889413
-0.0758394
0.044313
-0.246897
-0.179706
0.394877
0.0711567
-0.0293232
-0.0418335
-0.233769
-0.0938249
-0.0675853
-0.0148395
-0.00671753
0.021557
0.156374
-0.0966835
0.0804734
-0.00330816
-0.0345218
0.0366822
-0.00216039
0.0639365
-0.0499946
-0.0139419
0.00575512
-0.0205946
-0.0321793
-0.0429514
-0.191286
0.105786
0.0854994
-0.0221858
0.0227156
-0.000529844
-0.00249104
0.0017256
0.308376
-0.49518
0.186804
-0.239005
-0.155023
0.394028
0.0028065
0.0614294
-0.0642359
-0.0699214
0.0727279
-0.152682
0.0376219
0.11506
0.0509138
-0.439649
0.114926
0.111362
-0.226288
-0.27146
0.524793
-0.253333
-0.0481019
0.00221019
0.0458917
-0.0769452
0.0372487
0.0396965
0.11547
0.0698388
-0.185309
-0.111849
-0.095522
0.207371
0.21726
-0.131565
-0.0802857
0.0313393
-0.0179466
-0.0133927
-0.484467
0.363322
0.121145
-0.0135735
-0.000836781
0.0144103
0.142078
0.160076
-0.178983
0.0877475
-0.0837321
0.00656097
0.0771711
0.0653283
-0.0674776
-0.0632746
0.13318
-0.126408
-0.0293865
0.155795
0.0562682
-0.126909
0.070641
-0.167942
0.450036
0.000126225
-0.107758
-0.0286605
0.16031
0.211056
-0.371366
0.293236
-0.463289
0.170053
-0.0524467
0.0735217
-0.0210749
0.0572931
-0.101719
-0.0823938
0.184113
-0.0579132
0.0509306
-0.119746
0.21987
-0.182692
0.421599
-0.238907
-0.0166929
0.0150946
0.0766784
0.0154097
-0.115198
0.108743
0.00645481
0.0170445
0.0541122
0.404157
-0.243848
0.0153971
-0.0149322
-0.000464946
-0.22338
-0.0195219
0.242902
-0.38522
0.23319
-0.0301332
0.0342659
-0.00413278
0.0688392
0.0515498
-0.0316773
0.106211
-0.0214551
-0.0847556
-0.130616
0.0757725
0.0690418
-0.0656032
-0.00343866
-0.211646
0.371773
-0.160127
0.111645
-0.4074
0.295755
0.0962292
-0.208078
0.117626
0.158577
-0.0430987
-0.00500317
-0.0391692
0.0989425
0.0546147
-0.153557
-0.0269258
0.0324176
-0.00549181
-0.0671899
0.0488874
0.0183025
-0.0670831
0.0744471
-0.007364
-0.119409
0.064646
-0.0698673
0.080141
-0.0102737
0.124703
-0.0674941
-0.0572085
-0.079042
-0.00469005
-0.221219
-0.155859
0.0750078
0.0905885
-0.165596
0.250893
-0.133267
0.275594
0.163949
0.119575
-0.123688
0.00411266
-0.119028
0.10705
0.0119777
-0.230882
0.160949
0.0699324
-0.23085
0.0964371
0.134412
0.00898544
0.0223539
-0.224574
-0.174995
0.399569
-0.0838356
-0.00983977
0.0936753
-0.258513
0.0991285
0.159385
0.0690197
0.101159
-0.170178
-0.0289568
0.0188254
0.0101315
0.03364
-0.25702
-0.337683
0.265042
0.0726409
0.00780475
0.0688137
-0.0766185
-0.075983
0.0883215
-0.0123385
-0.0862338
0.0770519
0.00918191
-0.12581
0.283936
-0.158126
0.0803738
0.001472
-0.0818458
-0.31862
0.213715
0.104905
0.111551
-0.067128
-0.0303005
0.0390726
-0.00877205
-0.0755701
0.0115043
-0.0210881
0.0207792
-0.0417111
-0.00400928
0.0457203
-0.0340649
-0.00850563
-0.123834
-0.108073
0.231907
0.0158594
0.0886396
0.0747919
0.433583
-0.116607
0.0459319
0.0706756
-0.0889513
-0.102334
-0.432941
0.220901
0.21204
0.435096
-0.12672
0.271254
-0.212292
-0.058962
-0.000995486
0.0274758
-0.0264803
0.00735147
-0.0372213
0.0350087
-0.0634952
0.0697399
-0.00624479
0.362829
-0.251184
0.0631233
-0.0137745
-0.327229
-0.157238
0.453057
-0.272294
-0.180764
-0.0427511
-0.191017
0.186801
-0.117781
-0.131967
0.0526784
0.0792888
0.0153601
-0.0945533
0.0791932
0.00724308
0.0482342
-0.0554772
-0.346429
0.397343
0.052406
-0.0698402
-0.293913
-0.0964547
0.390368
0.00212383
-0.0366457
-0.224993
0.453928
-0.228935
0.0501454
0.00845569
-0.0586011
0.0530464
-0.0693803
-0.221805
0.179054
-0.0662544
-0.118841
0.185095
0.000393274
-0.0455537
0.0451604
-0.0577725
-0.0446192
0.102392
-0.0382531
0.00795256
0.109202
0.162051
0.255701
0.197356
-0.110254
0.0393197
0.35324
-0.131889
-0.0542403
-0.00465588
0.0588961
-0.0389793
-0.113703
-0.185219
0.0834994
0.0385404
-0.0493293
0.0107889
-0.0629411
0.0911962
-0.0282551
0.0823923
-0.00662398
-0.0757683
0.0362936
0.000247664
-0.0780695
0.0749441
0.00312531
-0.249673
-0.183268
0.0912817
-0.0784554
-0.0128264
-0.076063
0.155251
-0.0791879
-0.0698329
0.0804051
-0.0105722
0.0914498
-0.011076
0.123461
-0.115578
-0.167617
0.283195
0.156478
0.0868699
-0.243348
0.0528332
-0.0438178
-0.00901539
-0.28698
-0.12269
0.40967
-0.124486
0.27125
-0.146764
0.433527
-0.127668
-0.451657
0.157744
0.0285087
-0.0172545
0.187795
0.171589
-0.0965811
0.196594
-0.398174
0.20158
-0.0162287
-0.0127281
0.0288415
0.00359255
-0.0982372
0.0147083
0.0835289
-0.000131405
-0.0235993
0.0237307
0.00686418
-0.3935
0.210808
-0.244113
0.497591
0.0857313
-0.0850399
-0.068965
0.0165182
0.336371
-0.162577
-0.128073
-0.190547
0.0343147
0.0421254
0.0827033
-0.124829
-0.475476
0.129047
0.231948
0.0684523
0.0837279
-0.00848556
-0.0752423
-0.0235062
0.138977
0.176133
-0.400707
-0.0661895
-0.052171
-0.0704329
-0.00763661
-0.383388
0.0154582
0.36793
-0.220525
-0.117158
0.122695
-0.18895
-0.0786627
0.00131983
0.188423
-0.384217
0.195794
-0.0777204
-0.00774825
0.0854686
-0.0368849
0.0372782
0.209952
-0.0824495
-0.00138609
-0.0146595
0.177716
-0.150551
-0.174462
0.325013
-0.038767
-0.0305803
0.00013502
-0.276842
0.161264
-0.00316465
0.0522065
-0.0490418
-0.0138949
-0.00435119
0.0482663
-0.00339401
-0.0448723
-0.209102
-0.218022
0.427124
0.0281057
-0.0291012
-0.304273
0.1762
-0.075112
0.143227
-0.0681155
0.0769491
-0.147226
0.070277
-0.029771
0.0362454
-0.00647437
-0.402203
0.254965
0.147238
-0.0297445
-0.0382061
-0.388956
0.167737
-0.0492809
0.155362
-0.101254
-0.0307136
-0.367
0.131725
0.145909
0.0566933
-0.202602
0.0928026
-0.310794
-0.0914088
-0.108387
0.264866
-0.171287
0.0665306
-0.0848443
0.0984462
-0.0136019
0.172774
-0.412736
0.239962
0.101928
0.0672647
-0.169192
0.0633724
0.0511601
-0.0656326
0.070422
-0.309427
-0.0211542
-0.00237073
0.07229
-0.149188
0.0768984
-0.0666404
0.138546
0.37035
-0.181926
-0.037276
0.0382941
-0.00101806
-0.0946841
-0.0750977
-0.086013
-0.0568772
0.0693378
-0.0124607
0.00445235
-0.336632
0.186082
0.136267
0.235506
-0.100074
0.0877339
-0.429547
0.0349978
0.394549
0.369069
-0.173625
-0.195444
0.0461359
0.0785666
-0.233094
-0.245723
-0.253774
0.0618943
0.19188
-0.0472866
0.0664668
-0.0191802
-0.082542
0.0741068
0.00843521
-0.137785
0.0928996
0.0448859
0.00881958
-0.0656967
0.126453
0.149196
0.0634102
-0.116746
0.0533355
-0.00690169
0.0257271
0.0159132
-0.0237092
0.119556
-0.0958466
0.0331334
-0.0287021
-0.00443129
-0.0856716
0.0778696
0.00780196
0.428979
-0.232131
-0.196849
-0.157881
0.0689397
-0.479007
0.207547
0.0929897
-0.00990173
-0.083088
-0.0791264
-0.0248886
0.104015
0.240967
0.184191
-0.425158
-0.0066961
0.064938
-0.200368
-0.166632
-0.115789
0.218142
-0.0809171
0.188504
-0.107587
-0.0303222
0.0281672
0.00215503
-0.037127
0.00735598
-0.142346
0.0317596
0.110586
-0.00126196
0.0578441
-0.0565821
-0.239478
-0.177317
0.416795
-0.0730175
0.0825425
-0.00952499
-0.157378
0.222041
-0.217381
0.458348
0.306136
0.170055
-0.0581879
-0.00209825
0.0602862
0.179999
-0.38486
0.204861
-0.0346421
-0.107704
0.0315899
-0.112119
-0.161229
0.0861312
-0.0625952
0.0294937
0.0331014
0.156505
-0.116869
-0.0396356
-0.152066
0.073614
0.0784523
-0.0196092
-0.00154505
0.147584
-0.0998788
-0.0477053
0.0122909
-0.0757861
0.0466132
-0.104386
0.0533382
-0.0565028
-0.225299
0.14623
0.0790687
-0.00778093
0.0463213
-0.0877168
-0.116739
-0.0198592
0.0690769
-0.0492177
-0.220134
0.00192667
0.127997
0.0184794
-0.146477
0.00858015
0.0775967
-0.0735271
0.13963
-0.0661033
-0.0738265
0.0657597
0.00806677
0.00179653
-0.130271
0.245197
-0.451489
0.179195
-0.00477575
-0.0207469
0.0255227
-0.0541232
0.0577023
-0.00357905
-0.0549105
-0.0253329
0.0234876
-0.0334728
0.00998518
-0.156069
-0.06923
-0.443096
0.218103
-0.418013
0.0194787
0.398535
0.181701
0.129156
-0.310857
0.00153119
0.189502
0.161684
-0.0847349
0.0138901
-0.193979
0.131578
0.0624012
-0.114786
0.0910771
0.0648133
-0.0603488
-0.0141098
0.0744586
-0.0449042
-2.49697e-06
-0.174808
0.373043
-0.198235
0.120492
0.0270926
0.157597
-0.0983769
-0.0592198
0.000823462
0.0904583
0.0331297
-0.314365
0.281235
-0.152342
-0.0498558
0.202197
-0.238456
-0.213033
-0.0793448
0.0859185
-0.00657368
-0.0223463
-0.000761958
0.0231083
-0.0949368
0.240846
0.322618
-0.289488
0.0672829
-0.00116266
-0.0661202
0.0887065
-0.0762978
-0.0124087
0.168896
-0.254848
0.0859526
0.195055
0.0268052
-0.0263843
-0.000420936
-0.3486
0.113975
0.234626
0.00706508
0.0129126
-0.270411
0.499014
-0.228603
0.0583806
-0.0647152
0.0063347
0.0175663
0.0181301
-0.0356964
-0.0881928
-0.0729251
-0.0849559
-0.100274
0.0652146
0.0350599
-0.569362
0.357485
0.211877
-0.0171822
0.00328729
0.0581771
-0.197088
-0.181095
0.378182
0.111826
-0.23566
-0.115155
0.0648994
0.0502557
0.154752
-0.0558092
-0.0928618
0.0266723
-0.0783233
0.086128
-0.452808
0.27605
0.176758
-0.433253
0.197536
0.235717
-0.00749716
0.0682134
-0.0607163
0.00916326
0.0346383
-0.0438015
-0.207506
0.366541
-0.159035
-0.214147
-0.0443666
0.41402
-0.251468
-0.162552
-0.087098
0.0784484
0.00864963
0.00747388
-0.0678227
-0.12054
0.315457
0.0702379
-0.00490967
0.153686
0.142593
-0.296279
-0.0226075
0.0226075
0.252773
-0.43009
0.00934446
0.0672414
-0.0765859
-0.0360855
-0.064189
0.0378816
-0.0337849
-0.00409673
-0.092702
-0.0925167
0.0211808
0.0119526
-0.182873
0.0680867
-0.318665
0.199316
0.11935
-0.0112703
0.0857942
-0.0745239
-0.0384054
-0.123189
0.265663
-0.142474
0.0105378
0.284731
-0.175529
-0.538883
0.319289
0.219594
0.0245003
-0.031402
-0.316873
0.041534
0.275339
-0.0311929
0.0357891
-0.00459612
0.038803
-0.0153154
0.0243396
0.042616
-0.0353729
0.0906939
-0.0820335
-0.00866034
-0.0371441
-0.0321237
0.132583
-0.270592
0.138009
0.126946
-0.0521047
-0.0748409
-0.0993678
-0.0384177
-0.0366589
-0.082369
-0.110635
0.194603
0.123537
-0.31814
-0.153349
0.285932
-0.057564
-0.271404
0.328968
0.202562
0.167788
0.00243381
-0.00246306
0.00920065
-0.0568991
0.0476985
-0.219944
0.422012
-0.202068
0.372417
-0.175822
-0.0932436
0.204606
0.214601
0.0826357
0.105884
0.0737968
0.0531488
0.00690429
-0.0722857
0.0461861
-0.0416975
-0.00448854
-0.0654088
0.0795306
-0.0141218
0.18806
0.221138
-0.409198
-0.164758
-0.171874
-0.0841774
-0.00621089
-0.0829665
0.214251
-0.131285
0.126407
-0.108288
0.0636685
-0.315481
-0.223402
-0.0740742
0.19677
0.410394
-0.133791
-0.133979
0.0548526
-0.0190185
0.0717452
-0.0527267
-0.0201041
0.0229724
-0.00286827
-0.00128825
0.0289372
-0.0117086
0.0549937
0.00169284
0.000805911
-0.00249875
-0.541264
0.34429
0.196974
0.0577178
-0.0069571
-0.0313056
0.0382627
-0.170769
0.269897
-0.0851505
-0.0977225
0.000924806
-0.153266
0.376532
-0.17397
-0.0605859
0.0105913
0.00723449
-0.318217
-0.251145
-0.07421
0.0664721
0.00773789
0.132654
0.0879957
-0.220649
-0.138478
0.276768
-0.13829
-0.067526
0.0608299
-0.205139
-0.143462
-0.0435433
0.129629
-0.0860857
0.0343937
-0.226955
0.192562
-0.0396599
-0.00112133
0.0407812
0.127437
-0.201511
-0.0267463
0.0532506
-0.0265043
-0.066175
0.0188883
-0.00722321
-0.0540665
0.0612897
-0.180629
0.142912
0.0377177
0.0447179
-0.0271516
0.0695619
-0.0804798
0.122533
0.111912
-0.234445
-0.125245
0.26273
-0.137485
0.0540713
0.00159696
-0.0556683
0.00234645
0.0509917
0.392834
-0.212835
-0.0559936
0.0644493
-0.0261549
-0.0320589
0.0582137
-0.267388
0.132612
0.134776
-0.081886
-0.0928404
0.174726
0.115388
-0.162069
0.0466811
-0.0288585
0.000782026
0.0280764
-0.252721
-0.200086
-0.141311
0.294998
-0.0757103
-0.00363453
0.116373
-0.191901
0.0755285
0.00135672
-0.0932135
0.0918568
0.201119
-0.421063
-0.00271604
0.0610966
0.0861877
-0.371019
0.284832
0.0971845
-0.277247
0.180062
0.0047607
-0.00667746
-0.00900813
-0.0638779
0.0728861
-0.327059
0.269495
0.21662
-0.402839
0.186219
0.0845069
-0.0964312
0.29124
-0.11409
-0.0550222
0.119091
-0.0640693
-0.54977
0.320144
0.229626
0.0601402
-0.0577937
0.0760126
0.0275118
-0.026877
-0.000634876
0.31764
0.15855
-0.445896
-0.133954
-0.0969275
-0.463174
0.0269126
0.00827887
-0.0272193
0.0247483
0.00247095
-0.0409217
0.0600407
-0.0191191
0.00223055
-0.0927484
-0.00182457
0.0945729
0.000229933
0.0541911
-0.0975423
0.0433512
-0.0943677
0.0835916
0.010776
-0.326199
-0.223571
-0.0715096
0.34942
0.00415976
0.0297756
-0.0339353
-0.00646536
0.0588714
-0.311761
-0.0051113
-0.0749361
0.232511
-0.379344
0.146834
0.0634846
-0.021835
-0.0416497
-0.169281
0.394231
-0.22495
0.322
-0.224816
0.280374
-0.0813367
-0.199037
-0.029415
-0.0341083
0.0635233
0.032855
0.0243754
-0.0572304
-0.244455
0.0567945
0.187661
0.450033
-0.23033
-0.219703
0.245484
0.204549
0.0442571
-0.00611666
0.0591631
-0.15317
0.0596119
0.0935584
0.0663653
0.0631937
-0.0789312
0.0714072
0.00752401
-0.137169
0.165177
-0.0280083
-0.399518
0.219812
-0.0560627
-0.00134334
0.0277832
0.0663126
0.0689822
-0.135295
-0.200398
0.388458
0.243461
0.174034
-0.417495
0.151331
0.105499
0.0935878
0.0629168
-0.00370778
-0.0504154
-0.00349221
4.64018e-05
0.0034458
0.0531108
-0.0670527
-0.136802
0.0653551
-0.0164677
0.176052
-0.353298
0.177246
0.0100545
-0.387382
0.377328
-0.0685432
0.117155
-0.234626
0.00663669
-0.00406615
-0.0327422
0.0279665
-0.000983511
0.022777
0.0531005
-0.114166
0.0610658
0.0170656
0.0357676
-0.132076
-0.112873
0.244949
0.21698
-0.182586
0.0925769
-0.104582
0.0120055
0.0134145
0.075484
0.000228122
-0.0265087
-0.222416
-0.171084
0.11745
-0.0540396
0.00174579
-0.0394974
0.0377516
-0.101436
0.234089
0.000439294
0.0266518
0.00086
-0.390616
0.221335
0.536533
-0.302646
-0.233886
0.102879
0.0192237
-0.403927
0.221292
0.182635
0.156479
0.00329181
0.0414261
-0.0442081
0.0282508
0.0159573
0.00468239
-0.0184606
0.0137782
0.00632843
0.0608834
-0.0672118
-0.0764914
0.0793255
-0.00283408
-0.0215588
-0.0275203
0.00042189
0.0270984
-0.341114
0.213004
0.128111
0.10266
-0.0211586
-0.081501
-0.326865
0.162108
-0.145909
-0.0347197
0.0201517
-0.0232505
0.00309879
0.424521
-0.18106
0.0578313
0.000708065
-0.0585393
0.187984
0.103255
0.135348
-0.00318018
0.0517792
-0.0466054
0.0967852
0.0847375
-0.181523
0.536404
-0.314087
-0.222317
0.0970477
0.00916302
0.0882226
-0.264361
-0.0649554
-0.00496602
0.0524263
0.00164503
0.247062
-0.159066
-0.0755068
-0.0172415
0.00326506
-0.511496
0.329948
0.181548
-0.0346353
-0.0827424
0.117378
-0.0530417
-0.055246
-0.192011
0.376201
-0.186457
0.279271
-0.0928142
-0.22489
0.215196
0.00969376
0.00261154
-0.0483955
0.0578393
0.307325
0.218445
-0.450576
0.108692
-0.107335
0.00835964
-0.00359894
0.465161
-0.0716651
-0.393496
-0.111923
-0.19235
0.0106818
-0.0106818
0.178701
-0.375789
0.171083
0.223148
0.0575847
-0.0603007
-0.02443
-0.00309023
0.0635231
-0.00622357
-0.0572996
-0.41567
0.198289
-0.189246
-0.210272
0.000127926
-0.109241
-0.158147
-0.19914
-0.197606
0.396746
-0.00309558
0.0311261
-0.0280305
-0.0809403
0.0915817
-0.0106414
0.00104189
-0.0193897
-0.0423728
-0.0282695
0.111854
-0.0835848
-0.00114351
-0.243311
0.0790478
0.0523947
-0.131443
0.130947
-0.288653
0.157706
-0.0805335
0.0102559
0.322298
-0.146245
-0.00139628
-0.0166144
0.112168
-0.0543763
-0.0577917
-0.0521495
-0.119578
0.171728
-0.0304969
0.0302922
0.000204741
0.00525251
0.0618847
-0.0671372
0.0436223
0.0630266
-0.106649
-0.081622
0.0554672
0.104136
-0.0510358
-0.151764
0.0585501
0.148743
-0.235012
0.100141
0.134872
-0.40844
0.219194
0.0532313
-0.203246
-0.187024
-0.0844471
-0.060862
0.08494
-0.132303
0.299535
-0.167232
-0.0300145
0.0317603
-0.0569203
-0.0536933
0.110614
0.0211923
-0.0242879
0.0383876
-0.0500962
0.0613932
-0.12523
0.0638365
-0.059275
0.0667489
-0.0726428
0.365879
-0.265311
-0.246186
0.145715
0.0861566
-0.231872
0.0554134
-0.0618787
0.00308733
0.120335
-0.215857
-0.0986995
0.248959
-0.150259
-0.0328049
0.0326808
0.000124083
-0.0954708
-0.172695
0.268166
-0.169712
-0.17265
0.342362
-0.232862
0.0754841
0.0547982
-0.0609149
0.154968
-0.098275
-0.0139945
-0.0409103
0.0549049
-0.254602
0.163258
0.0913442
0.0938164
-0.138654
0.0448374
0.0288444
-0.0301326
0.168537
-0.266756
0.171286
-0.370328
0.162822
-0.476345
0.189364
-0.00259231
0.00269069
-9.83741e-05
0.0434258
0.0141823
0.0173592
0.00280832
-0.0201675
-0.193694
-0.0266871
0.0113029
-0.0200575
0.00875458
-0.00626764
0.0274599
0.00256983
-0.032703
0.0231953
-0.00304363
0.111422
-0.0678002
0.0271142
-0.0277615
0.000647216
0.27148
-0.122183
-0.149297
-0.142598
0.0497892
-0.0978705
0.156769
-0.058898
0.0878708
-0.07485
-0.0130208
0.0551648
-0.0623881
-0.12199
0.0437975
0.0648943
-0.0769468
-0.0748168
-0.0230466
0.0553978
-0.0855103
0.275995
-0.190485
0.159988
-0.314867
0.154879
-0.0295575
-0.00324734
-0.399316
0.198918
0.197609
-0.0115284
0.0410221
-0.0742313
0.205702
-0.13147
-0.0891511
0.0802686
0.00888252
-0.000798199
0.129489
-0.20372
0.134841
0.03323
-0.168071
0.152598
-0.0177571
-0.258632
-0.0824825
-0.025946
-0.089252
-0.0526166
0.120867
-0.0682503
-0.533207
0.317325
0.215883
-0.0524158
0.0230926
-0.036411
0.0333307
0.00308023
-0.059027
0.0683715
0.104777
-0.180515
0.0757374
-0.0299656
0.00110715
-0.032756
-0.00690385
0.0268793
-0.110674
0.0837943
0.303221
0.118407
0.173584
-0.291991
-0.0443382
-0.0203229
0.0646611
0.29425
-0.210157
-0.0840935
0.221441
0.315091
0.10862
-0.243663
0.135044
0.165993
-0.298296
0.100507
0.170973
0.398938
-0.21449
-0.237344
-0.105913
0.0448854
0.0610271
-0.303358
0.506062
-0.202704
0.336062
-0.326008
0.00498129
-0.0720644
0.151623
-0.29836
0.15827
0.520845
-0.200701
0.12577
-0.276194
-0.0147902
0.290984
-0.217653
0.0836986
-0.0965933
0.242308
-0.368878
0.195007
0.173871
-0.00475534
-0.0316556
0.099867
0.0663006
0.00393734
-0.429391
0.190935
0.177589
-0.0612165
-0.0784861
-0.0707024
-0.190891
0.0981889
0.106274
-0.0793947
0.0236678
-0.147356
0.0406029
-0.0242005
0.00777018
0.0102405
0.0266446
-0.0279879
0.407528
-0.236101
-0.171427
0.140418
-0.0612178
0.0202961
0.0822883
-0.0551373
-0.027151
0.00354673
-0.203257
-0.196059
-0.142902
-0.144577
0.0765027
-0.163828
0.0873257
0.143111
-0.273657
0.130546
-0.00891352
-0.0359821
0.0448956
-0.000776614
-0.0203115
-0.142628
0.274382
-0.131755
-0.393204
0.11701
0.0257437
-0.0267272
0.015223
-0.0105407
-0.0757207
0.0901692
-0.0144485
0.0179505
0.0702183
-0.0362028
0.00500988
0.0026133
-0.00243581
-0.000177498
-0.00275145
-0.191594
0.194345
-0.0758404
-0.0655613
-0.08163
-0.0129233
0.00931096
0.083266
-0.0696226
0.0748751
-0.222582
0.127645
0.0953507
0.110073
-0.205424
0.0525612
-0.0197063
0.0316008
-0.0846425
-0.282837
0.243493
-0.409831
0.166338
-0.231671
0.131012
0.100659
0.220709
0.300136
0.17513
-0.0471322
-0.001469
-0.0306172
0.0587113
-0.122454
0.0637424
-0.192177
0.30193
-0.109753
-0.0847263
-0.281557
0.115267
0.16629
0.107793
-0.170211
-0.0648012
-0.0280771
-0.016131
0.0283734
-0.00172154
0.106985
0.124942
-0.231927
0.0954382
-0.193518
0.0980794
0.00581738
0.0576672
-0.175689
-0.219688
0.0876127
0.186049
0.28426
-0.153313
0.00197871
0.0263947
-0.17703
-0.0538194
-0.0723485
-0.0593611
0.13171
-0.213564
0.143185
0.0703792
0.000390894
0.00883512
-0.00922602
-0.309247
0.263407
-0.132535
-0.130873
0.00549818
0.0287678
-0.122568
0.106537
0.0160303
0.0324862
-0.443369
0.378732
0.0646368
-0.0232911
0.000944779
0.184077
-0.383217
0.159192
-0.285773
0.126581
-0.0245118
0.00367298
0.0208388
0.207574
0.121288
-0.328862
0.0220951
-0.0228717
0.224261
0.197751
-0.00305152
0.0606362
0.0380555
-0.0357907
-0.00226481
0.077866
-0.0900356
0.0121696
0.00468586
-0.0406338
-0.00427046
0.00131437
-0.0798632
0.0262061
-0.242209
-0.187182
0.223714
-0.226465
0.411329
-0.187068
-0.0907672
0.00658975
0.427646
-0.239468
-0.188178
-0.0774134
-0.00219767
0.0796111
-0.0821981
-0.024824
0.0788511
0.00985539
0.168209
-0.342665
0.174456
0.122819
-0.0790217
-0.216128
-0.187799
-0.497641
0.179424
-0.201184
-0.0237056
-0.221518
-0.23014
-0.0727293
0.174657
-0.155185
0.0573148
-0.183259
-0.185619
0.209068
-0.366366
0.157298
-0.076414
0.0181299
0.0582841
-0.490146
0.0467774
0.0132238
-0.0886058
0.0753819
-0.132219
0.08038
-0.0338104
-0.0465696
0.334592
-0.200747
-0.133844
-0.00881178
-0.0241041
0.0329159
0.0123942
0.0631442
-0.037708
0.0418677
0.0864984
-0.0787374
-0.00776096
0.114066
0.0643615
-0.0112507
0.008998
0.0192519
0.053816
0.069842
-0.123658
-0.00878431
-0.000195899
0.00898021
0.39487
-0.159113
-0.235757
-0.0494644
-0.0111215
0.0171337
0.385839
-0.233453
-0.152386
0.0160001
-0.0948172
0.0788171
-0.127316
-0.0984176
-0.0328695
-0.00333328
0.0486275
0.0682053
-0.116833
-0.142106
-0.18433
0.326436
-0.0862989
0.329792
-0.0860503
-0.00471684
-0.158519
0.0749538
0.0835649
0.0315029
0.0488771
0.425982
-0.227861
-0.198121
0.0519624
-0.0713587
0.0193962
-0.0954527
0.3248
0.0972732
-0.000857664
0.0114849
-0.0106272
-0.209177
0.0531085
-0.150796
-0.0614959
-0.0446413
0.046727
-0.103647
-0.0534269
-0.0935892
0.147016
0.00427062
0.0405894
0.06229
0.328096
-0.124704
-0.203392
0.0714902
-0.0195278
-0.410949
0.207692
-0.248796
0.420955
-0.172159
-0.00885882
0.0871515
-0.0782926
-0.191135
0.111795
0.0793399
0.229558
0.156282
-0.0655932
-0.00839706
-0.108472
-0.0781462
0.0897426
-0.0115964
-0.0325852
0.00297622
0.029609
0.397604
-0.206025
-0.191579
0.010295
0.17172
0.2237
-0.39542
0.466845
-0.256558
-0.210287
0.220611
-0.138499
-0.0821122
-0.011751
0.140338
-0.128587
0.191373
-0.114781
-0.0765917
0.0677167
-0.00620723
0.00475078
-0.0621881
0.0574373
-0.102742
-0.0198259
-0.238009
-0.295198
-7.17727e-05
0.0455815
-0.0201634
-0.0254181
-0.0250781
-0.00406666
-0.106957
0.314531
0.359496
-0.164893
0.0821255
0.116836
-0.145868
0.197564
-0.063879
-0.124386
-0.140091
0.12834
0.0739468
0.0794526
-0.153399
-0.214138
0.129084
0.114632
-0.243716
-0.0940608
-0.128522
-0.197458
0.41875
0.134086
-0.0677731
-0.114726
0.257837
-0.124855
-0.164236
0.289091
0.00476966
-0.0831033
0.0472941
-0.0506881
-0.0522882
-0.0536243
-0.0274129
-0.00517231
0.0905581
-0.0126921
-0.0835895
0.082083
0.00150659
0.196433
0.036477
-0.0323425
-0.00413444
0.0597032
0.0140631
0.0276679
-0.0826901
0.142597
-0.0717652
-0.0708318
-0.0762469
0.0759635
0.00028337
0.00309931
0.0333776
-0.0663991
0.0111466
0.0552525
0.424982
-0.172209
0.0733527
-0.107356
-0.00953131
0.00376738
0.0169982
-0.0207656
0.065564
-0.00586082
0.313703
-0.176402
-0.137301
-0.00630107
0.073584
-0.0620461
-0.165144
0.0473546
0.150915
-0.236425
-0.0805028
0.0899467
-0.00944387
0.0722617
-0.148325
0.118596
-0.0447991
0.130253
0.0611196
-0.0525017
0.115092
-0.0625902
-0.0012677
-0.00222451
-0.0628944
-0.00347121
0.0663656
-0.120579
-0.138262
0.258841
-0.11078
-0.162032
0.272812
0.239439
0.327522
-0.189148
-0.138375
0.0710739
-0.0665516
-0.0045223
0.143945
-0.206195
0.0622501
0.0845351
-0.0769947
-0.00754041
-0.128085
-0.108288
0.306453
-0.140371
-0.166082
0.449579
-0.0245952
-0.304997
0.0586316
0.246365
0.0666297
-0.00520026
-0.127685
0.0553361
0.0778648
-0.00828412
-0.0695807
-0.15013
0.283612
-0.133481
-0.254772
0.0610781
0.0974103
0.00524926
0.066335
-0.0850328
0.0186978
0.0150703
-0.23188
0.444102
-0.212223
-0.279938
0.159359
0.0444992
-0.0412074
0.179384
0.100989
-0.146198
0.340207
-0.194009
0.0897029
0.243727
-0.437284
0.193556
0.00472226
0.0242996
-0.0290219
-0.151033
0.317026
0.0845034
-0.0181684
0.00418992
0.0527339
-0.0569238
-0.238201
0.130128
0.011573
-0.00747996
-0.0287139
0.0361939
0.458649
-0.213165
0.231297
0.210509
-0.441806
0.0623556
0.0525748
-0.11493
-0.156734
-0.158083
-0.00806085
0.0867794
-0.0787185
0.263889
-0.0991676
-0.164722
-0.0526872
-0.00192154
0.0546087
-0.00373712
-0.0746638
0.0784009
0.154806
0.132916
0.096153
-0.229069
0.00303916
-0.227498
-0.248847
0.000449001
-0.00304131
0.0113302
0.0465011
0.165599
-0.290454
-0.0367318
-0.049502
-0.0470372
0.0518375
-0.00480037
0.0842702
0.0371198
-0.0572763
0.0201565
0.267262
-0.402314
0.135052
0.115462
-0.0640171
-0.0514449
-0.0862682
0.0105475
0.0415292
0.00405228
0.208976
0.139744
-0.0876482
0.160095
-0.118785
-0.0413109
0.155432
-0.050655
-0.158624
0.324222
-0.165598
-0.0131437
0.0145422
-0.00139851
0.00575825
0.0876129
0.0676381
0.0283693
-0.0012551
0.375817
0.159704
-0.0306541
-0.12905
-0.17805
-0.140616
-0.0961986
-0.0307106
-0.267978
0.142168
0.14016
0.123247
0.227311
0.309093
0.532143
-0.302912
-0.229231
-0.0548181
-0.0564151
0.00372789
-0.18545
-0.0307538
0.216204
0.11972
-0.242584
0.122863
-0.228781
0.127345
-0.0014948
0.0296005
0.0818215
0.0930845
-0.161409
0.0683244
0.00678302
-0.0415356
0.0461221
-0.00458651
-0.107099
0.054597
-0.357229
-0.11908