/*--------------------------------*- C++ -*----------------------------------*\
| =========                 |                                                 |
| \\      /  F ield         | OpenFOAM: The Open Source CFD Toolbox           |
|  \\    /   O peration     | Version:  v2012                                 |
|   \\  /    A nd           | Website:  www.openfoam.com                      |
|    \\/     M anipulation  |                                                 |
\*---------------------------------------------------------------------------*/
FoamFile
{
    version     2.0;
    format      ascii;
    class       volScalarField;
    location    "400";
    object      ddt0(k);
}
// * * * * * * * * * * * * * * * * * * * * * * * * * * * * * * * * * * * * * //

dimensions      [0 2 -3 0 0 0 0];


internalField   nonuniform List<scalar> 
18166
(
-0.00037239
2.13728e-08
0.0037506
-0.00136698
0.00137598
-9.03406e-07
-2.33412e-08
1.68063e-08
1.83914e-08
-0.000244798
-8.24459e-10
3.38247e-07
1.80087e-08
4.34857e-08
1.82596e-08
2.0236e-08
0.00417394
-2.89795e-09
6.01194e-08
0.00016187
-2.37106e-08
-1.51919e-08
2.17048e-08
-3.93048e-09
0.000148861
-9.89542e-05
3.60076e-08
-0.000628178
7.42838e-09
-1.10577e-08
-9.34521e-10
0.000202541
4.30716e-08
0.000151771
0.000149635
1.84919e-08
-3.23489e-09
1.3325e-09
-1.12789e-08
5.65823e-07
2.25012e-08
-2.17828e-08
2.65871e-09
3.39665e-08
0.00165541
-3.95831e-09
-1.09267e-08
0.000202557
-2.55786e-11
0.000166111
7.38658e-06
0.00509893
-1.15938e-09
1.58521e-08
2.76228e-09
-2.08155e-08
-0.000366155
-8.80425e-09
0.000269273
-4.91475e-08
-1.16755e-09
5.63775e-09
-1.33722e-09
9.61906e-09
-2.32389e-09
-2.11402e-09
5.73423e-09
2.55805e-08
0.00410502
1.06271e-08
2.78684e-08
-0.0017576
-1.01206e-06
-1.47284e-08
5.71975e-09
6.02923e-08
-0.00349369
0.00291649
0.00425569
-7.93594e-09
4.80747e-10
-1.93265e-08
0.00187501
-4.92284e-09
5.42133e-09
-8.9758e-10
5.83925e-09
1.81291e-08
9.91722e-09
-0.00393374
-5.18947e-09
-4.96686e-09
-1.42756e-08
1.2438e-08
-2.24233e-08
-2.26039e-08
0.000306111
9.98795e-09
0.00199523
0.00291946
-2.23226e-08
-4.43589e-09
-2.80157e-09
-0.000787462
7.82865e-09
-0.0004819
-2.28229e-09
-1.57987e-09
3.35594e-09
5.75167e-08
0.000138046
0.00278031
0.00203003
0.00300048
-3.2242e-09
-0.000310074
0.00312198
2.40746e-08
1.37014e-08
-1.31714e-09
-1.3986e-08
2.03558e-09
2.93781e-08
-5.68351e-09
-6.5089e-10
9.32284e-09
-9.64332e-09
1.22825e-08
1.01448e-09
8.30464e-09
-2.84664e-08
8.12111e-09
-7.43771e-07
6.46088e-09
-5.70596e-08
-0.000411799
-1.90859e-08
-0.000568976
1.62226e-09
-0.00100778
-4.09929e-08
-1.52815e-08
-8.4244e-09
-0.00234985
-9.81368e-10
0.00140214
-0.0020718
-6.36135e-09
4.71989e-09
0.00412466
1.10161e-08
8.94073e-09
-0.000907513
-0.00890449
-2.23337e-06
3.78969e-09
1.26252e-08
-9.2844e-09
-1.5106e-06
-1.10348e-08
-1.56077e-08
-9.93508e-09
0.00522323
6.94126e-09
-5.01065e-09
5.76151e-09
-8.51959e-08
1.54247e-08
-0.0101372
-2.11764e-09
-7.41897e-08
0.000501569
-2.9991e-08
0.000391653
3.19736e-09
-4.41213e-05
-1.81027e-09
-0.000517697
-2.815e-09
-1.79426e-08
-5.88228e-09
-7.37713e-09
-0.000707538
0.00108265
7.27756e-09
-9.31146e-10
-3.5033e-08
4.33418e-08
-3.19883e-08
-1.75341e-09
-1.51794e-08
-1.24494e-08
0.00165079
6.99303e-09
-3.00994e-09
0.000220617
8.13787e-06
-1.01742e-05
-3.32533e-08
1.8178e-10
-8.07442e-09
0.00297452
-0.010544
-2.45034e-09
-2.653e-08
-2.39834e-06
4.31882e-09
-0.00140673
-2.84748e-06
-3.21854e-09
-4.28097e-08
-1.40581e-06
-3.47836e-06
-1.07912e-09
3.58944e-09
-5.70357e-08
-0.000969436
4.6409e-08
-9.75204e-09
1.35479e-08
-2.32719e-08
2.64853e-05
7.11055e-08
-3.95177e-09
5.49159e-09
-0.00256373
4.43111e-09
9.66538e-09
-1.23352e-07
-1.07488e-09
-1.826e-09
-2.1013e-09
0.000151294
-1.28898e-09
-0.00744652
5.51687e-05
6.31876e-05
-2.34146e-09
1.21564e-08
-1.1209e-08
-7.4953e-09
5.60587e-08
-2.18328e-09
-0.00204545
1.16558e-10
3.9013e-09
0.00551877
5.21344e-09
1.81518e-08
-1.86758e-06
-5.40153e-07
1.17948e-08
-2.09032e-08
1.90933e-07
-1.97325e-08
2.9524e-09
-4.59726e-08
1.53204e-08
-2.89616e-08
-8.0982e-09
2.20369e-08
7.72038e-08
3.05354e-08
-5.92799e-10
4.3904e-09
-7.74441e-09
3.30379e-05
-4.77416e-09
-1.09168e-09
5.14374e-05
-6.92818e-09
-2.00179e-08
1.50707e-08
0.000564323
3.03564e-08
-2.80679e-09
2.40254e-05
2.6928e-09
5.08472e-09
0.000512017
-3.21927e-08
1.49538e-08
-1.55585e-07
-4.81418e-08
1.08962e-08
8.76413e-09
-2.10651e-06
2.13734e-07
5.4799e-09
-2.62017e-10
5.03762e-09
-7.51965e-06
3.04369e-08
-1.92972e-08
-6.77353e-09
-1.37385e-08
1.71493e-09
-0.000959058
-5.91047e-09
2.20994e-05
-3.54769e-08
-1.52412e-07
0.00647087
-1.2638e-08
8.24548e-09
2.37079e-08
-4.63473e-08
1.81222e-08
3.86386e-09
-1.72557e-08
-2.63467e-08
2.66999e-09
-2.49428e-08
1.73384e-09
-2.1101e-08
9.1565e-10
3.23042e-09
-7.7079e-06
-1.88163e-06
-1.00451e-08
-0.00113296
-3.02536e-08
-0.00955345
-1.31617e-08
8.54132e-09
3.58314e-09
-4.07481e-08
0.00318148
-1.50175e-08
-1.48701e-06
-1.73952e-09
1.77167e-09
1.40914e-09
-2.61951e-08
-1.46154e-07
-1.39825e-08
-1.37211e-06
1.11615e-07
9.39601e-09
1.19192e-08
3.22545e-07
-2.1951e-08
-9.07123e-06
-1.41422e-08
-1.66307e-08
4.29435e-08
-0.00976826
-6.95805e-09
4.00213e-08
9.86235e-09
-4.92155e-08
6.77178e-09
3.49085e-08
-5.96223e-09
0.000335507
1.04053e-07
-2.95578e-08
1.19988e-08
-0.00041636
-2.65879e-08
4.83649e-10
-1.54487e-08
-5.24542e-09
-7.88766e-09
-1.57126e-05
-4.5072e-09
-1.0362e-10
-8.23888e-09
3.07129e-08
4.31719e-08
8.01586e-10
-1.16928e-08
2.09233e-08
0.00481662
-7.22374e-09
-2.40511e-09
1.05449e-09
2.87839e-08
-2.20281e-09
-1.13675e-08
-8.37107e-09
-3.01821e-10
8.09323e-07
0.00101124
-6.86367e-09
-3.12131e-08
6.13481e-09
2.38109e-06
-2.34272e-08
-0.00973238
-9.20199e-09
0.000107963
5.07658e-10
2.02288e-08
0.000384828
0.000215067
5.44231e-09
-5.74169e-09
9.18395e-11
0.00155906
-7.71219e-09
-1.83735e-09
-5.30422e-08
7.95855e-09
1.97991e-08
-1.0675e-10
-1.86331e-09
-6.89145e-07
0.000292875
9.18477e-10
1.10274e-08
0.000442752
5.70017e-08
4.39976e-09
-2.39127e-09
-0.00308114
-1.67478e-08
-3.20566e-08
-1.27042e-08
-1.95086e-08
1.14259e-09
-1.36379e-09
6.66029e-05
5.39389e-05
-2.31348e-08
6.30232e-09
3.35422e-09
-2.21087e-09
-7.97036e-10
-8.23522e-08
4.22507e-08
-1.71728e-10
5.30757e-09
-7.94792e-07
-5.3041e-10
2.757e-09
9.24197e-09
0.000465185
-0.00452184
2.26305e-06
-0.00579892
0.00493032
2.68561e-05
3.03034e-06
-5.04534e-10
-5.3954e-08
-0.0023572
-4.56085e-09
-3.29202e-09
-1.28724e-07
-5.77984e-08
-3.95218e-08
2.18596e-09
-1.59229e-10
1.92521e-10
3.37654e-10
2.72456e-08
-2.01371e-08
4.47463e-09
-8.6895e-09
1.36389e-09
-3.74405e-09
5.38407e-10
5.25902e-08
6.303e-09
3.00404e-08
1.69499e-09
1.26118e-08
-1.40192e-07
-6.22143e-09
-2.35898e-07
-2.4745e-10
2.38531e-08
5.61231e-09
0.00465404
-2.13275e-08
-1.78872e-08
3.34252e-09
-9.79806e-09
0.000990266
7.46283e-10
-3.40111e-09
0.000143076
3.11979e-08
5.35147e-08
5.2521e-09
0.000259644
-6.56863e-09
-2.25247e-09
-1.17428e-09
5.44123e-10
-6.97589e-09
4.30925e-09
4.37933e-08
-0.000106388
4.4638e-09
1.19467e-08
-2.58686e-08
-6.03955e-09
1.33655e-08
-2.01168e-08
-2.34552e-08
4.19278e-08
0.00236455
1.38732e-08
1.94899e-09
2.21039e-10
-3.89426e-10
-1.69539e-09
4.96549e-05
-1.19832e-08
-6.61391e-09
-3.22049e-10
-1.1768e-08
7.29227e-05
-9.39339e-07
-5.3157e-07
2.0565e-08
-0.0015163
5.56138e-09
2.38845e-09
0.00142091
-2.16275e-06
-1.12332e-09
-0.00813283
2.83419e-09
1.12617e-08
-1.70975e-09
1.169e-09
-5.12569e-09
0.00120476
-7.14844e-09
-0.00457558
0.000111045
4.43758e-08
-0.000447132
1.04502e-09
-2.71443e-09
7.9578e-09
4.94761e-08
8.99419e-09
-2.14871e-06
8.37691e-08
-1.52011e-06
7.12195e-09
-4.09563e-08
1.1776e-08
-6.78939e-09
5.8625e-06
-2.40844e-09
2.26523e-08
1.62934e-08
1.29613e-09
7.46129e-08
1.58128e-09
-6.33993e-09
-6.5745e-06
-5.9094e-06
2.17111e-08
-0.00062788
-1.97293e-08
-3.08156e-08
-2.40856e-07
1.18746e-09
1.2697e-08
0.00380225
5.79047e-08
9.93555e-09
-3.6987e-09
4.29197e-08
-1.92493e-08
-5.99694e-09
-0.00101834
-1.1985e-08
0.000110895
0.000506344
-4.55325e-08
-2.66702e-08
9.25721e-09
-2.24111e-08
-1.5962e-08
0.000127119
3.58564e-08
1.61738e-08
1.28425e-06
2.27042e-09
-4.51601e-09
-4.92229e-09
-2.16909e-07
1.66814e-08
0.000693847
8.39055e-11
2.26697e-07
6.4958e-08
2.83144e-08
1.39122e-08
1.45508e-08
-0.000156571
-4.20246e-06
0.00211134
-5.07216e-09
1.21026e-08
-5.11884e-09
2.58296e-08
8.40876e-08
-1.54467e-09
-6.32626e-07
-0.000189538
-7.90723e-07
-2.69754e-08
-1.61946e-09
5.2001e-08
-1.58098e-08
4.66373e-09
1.38892e-08
-4.37202e-09
1.06968e-07
-2.8851e-08
1.79936e-08
-4.39377e-06
-2.80764e-07
2.76457e-09
-0.000936409
-0.0110941
8.8483e-09
-3.03928e-07
-2.53663e-09
-6.12695e-09
0.0010399
-2.54336e-08
-6.07414e-09
-1.1254e-08
-1.7994e-08
-0.00308573
-1.32332e-07
-1.32857e-08
-9.13263e-10
-6.4703e-09
-4.59634e-09
-8.65216e-06
-2.80593e-08
3.64827e-09
8.4299e-05
7.7844e-09
-2.13628e-08
-1.61493e-08
0.000285575
-4.55298e-09
-2.1661e-08
4.59482e-09
4.28792e-09
5.6275e-10
-8.85581e-09
0.000242298
-4.65092e-09
-0.00489077
9.94905e-10
-1.69764e-08
9.06964e-09
1.78377e-08
-8.81867e-09
-2.67179e-08
-3.87507e-08
-1.13563e-08
-3.45876e-10
7.23965e-08
-1.21864e-09
0.000148636
1.06271e-08
-1.0232e-06
5.22129e-07
7.70441e-10
3.00568e-08
-0.000259714
-0.000481872
-0.00011713
-1.21968e-07
-2.31552e-08
1.41154e-09
-2.73119e-08
-5.99231e-10
-1.70249e-08
-5.95409e-09
-6.25544e-06
-8.99966e-07
9.0644e-05
-0.000463747
-0.00117132
0.000168829
1.97184e-09
-1.14028e-08
-2.68736e-10
-7.68994e-10
-2.15493e-07
3.58818e-05
2.26489e-05
1.14008e-08
3.08858e-07
-1.66057e-08
-1.62517e-08
-5.28679e-08
-8.0598e-06
1.26372e-08
0.00275997
-1.32121e-08
-4.33424e-08
-4.58054e-09
5.0882e-10
4.70826e-09
2.3348e-08
0.00269501
-5.47334e-05
1.52702e-07
-3.56221e-07
0.000614965
5.00702e-08
-1.82954e-08
-2.43087e-08
-8.09517e-09
5.19292e-08
-1.4727e-06
3.65919e-08
1.01798e-05
-1.04349e-08
-2.54038e-08
-3.73418e-09
-1.29254e-06
6.82115e-09
2.53853e-09
0.000533297
-1.32594e-07
-1.60226e-08
3.98164e-09
-1.25968e-06
-2.31913e-09
-1.12172e-08
3.02613e-08
-2.37422e-05
2.33184e-08
3.539e-06
0.00146272
0.000203965
4.40468e-09
-1.05524e-08
-1.20986e-09
-1.20208e-08
6.51816e-08
-1.18483e-06
2.23013e-08
2.61582e-08
-1.45459e-08
1.59947e-08
-1.6546e-08
-1.13475e-10
0.00476702
2.74738e-08
0.000218573
-2.02279e-11
7.12745e-09
-1.03324e-07
3.6106e-09
-1.98569e-09
2.2563e-08
2.46238e-07
-7.92144e-09
-1.69895e-08
-2.50171e-09
7.29743e-10
-0.0193163
-1.7176e-09
-3.1885e-08
7.42394e-09
4.06216e-09
-2.61828e-10
-1.20722e-09
2.5124e-06
0.00099826
-0.000522689
-3.99317e-08
0.000139224
-0.00673242
1.38625e-07
-0.000366274
-1.01152e-07
0.00106598
-1.52067e-08
4.56547e-08
1.06075e-08
-2.21838e-08
-2.86033e-05
-1.32085e-08
3.57804e-09
5.55741e-08
-4.57937e-09
0.00376596
-3.19148e-08
-2.74124e-09
1.72701e-07
3.71554e-08
5.85355e-08
1.81634e-08
-1.0149e-08
-1.29633e-09
-4.71648e-06
-1.92127e-08
-1.54946e-08
-9.62041e-07
1.55566e-07
-3.15968e-09
-0.000200678
4.17983e-08
1.58696e-05
9.72226e-09
2.71484e-09
-0.000419547
3.9623e-10
-0.00047788
-2.08905e-06
2.23258e-08
8.3753e-09
4.75528e-08
1.69325e-09
3.20382e-09
-2.13127e-09
7.05154e-09
-0.0192287
-1.32668e-08
7.30904e-08
5.2681e-09
-1.062e-07
1.25052e-08
7.01621e-09
4.62623e-09
-1.4792e-09
-1.94038e-08
-8.2919e-09
-1.19816e-08
-1.26171e-08
2.78121e-09
2.58672e-07
2.67926e-05
5.26532e-09
-4.43688e-05
-7.83156e-07
6.85514e-09
3.39806e-10
1.53237e-06
1.91891e-08
-4.47328e-09
-2.93821e-09
2.51291e-07
1.48124e-09
-6.58585e-08
-1.04118e-08
6.81451e-05
-1.90438e-08
-0.000124497
-0.000122716
-3.08564e-09
-9.80391e-09
1.24924e-09
1.41833e-08
0.000116968
1.53475e-08
-0.0001836
-1.16891e-08
6.06711e-09
1.28912e-07
-0.0036303
-7.29693e-05
-7.3829e-09
6.84815e-08
1.1211e-08
-1.13464e-05
-1.37356e-09
-5.33601e-06
4.56457e-06
0.00275277
-1.26535e-08
-1.85942e-08
-4.77563e-08
0.00600532
-2.71125e-08
0.00817069
-7.85846e-09
4.57192e-05
0.000214358
-1.06193e-08
1.52527e-08
0.000315482
-1.21803e-07
-3.90557e-05
-1.56272e-08
-5.94547e-09
-5.4925e-08
-1.60772e-08
-1.1362e-08
-6.27583e-05
0.000403955
5.70216e-08
1.58365e-09
1.42131e-08
-5.0349e-09
1.15483e-09
8.57908e-09
-0.00237743
1.19901e-08
0.00572245
0.00486099
3.06682e-08
2.32437e-05
1.91794e-08
-4.85397e-10
-3.82558e-06
5.59673e-05
0.00059507
-3.2014e-07
0.000397643
-9.88895e-10
-2.49563e-09
0.000201099
-0.00613326
8.16516e-06
-3.9964e-09
-1.63552e-08
-5.19067e-06
3.39819e-10
-2.53843e-08
2.91824e-08
2.6983e-08
1.55957e-08
-1.64203e-08
-3.31786e-07
5.6755e-09
-7.05851e-05
3.72249e-08
-2.74182e-05
-0.00186996
1.7572e-06
0.00509941
0.000189572
-6.76976e-06
0.00811346
1.19455e-09
1.36197e-08
-1.56456e-09
1.79555e-08
2.22251e-08
5.17488e-06
2.01904e-08
-0.00414209
2.12717e-08
0.000201754
-2.88907e-08
-2.333e-09
-1.0738e-06
-1.3602e-09
1.72215e-08
-0.00076951
1.82246e-08
-1.30303e-08
-0.0198187
1.0526e-05
-0.000464786
3.14245e-06
-1.46587e-09
0.00062421
7.55629e-09
2.41162e-09
-1.98364e-09
-2.08644e-08
-0.000771018
-3.76265e-09
-3.26572e-08
2.48727e-08
1.4429e-08
6.74078e-09
-3.96675e-10
6.53816e-09
1.54335e-09
0.00112062
1.14968e-08
-4.04977e-09
0.000175688
3.43698e-09
-4.05497e-05
-5.62297e-05
1.17314e-08
-6.87531e-09
1.14899e-08
-0.00260704
0.000165588
0.00306546
2.54669e-08
4.71361e-09
-2.30134e-07
-0.0207224
1.22824e-08
8.51224e-08
5.18087e-10
-1.52907e-08
-2.86603e-09
0.000313467
0.000152914
2.44171e-09
1.53141e-08
1.02008e-09
1.01419e-08
-1.13748e-08
9.72167e-08
4.27782e-09
-0.000819475
-8.2441e-06
4.56115e-09
0.00629342
-1.88112e-08
-4.82085e-09
1.36439e-09
3.38557e-10
-4.03372e-07
-9.36322e-09
-7.14295e-05
1.7109e-08
-1.51733e-08
1.01625e-08
0.000608531
2.30261e-07
-7.55089e-09
-3.072e-07
1.4475e-08
6.62911e-08
-0.00224144
-0.000160378
-1.55906e-08
-6.37673e-09
1.37144e-08
4.67644e-08
-9.98231e-09
-6.07149e-06
-9.63793e-07
0.005847
-4.75729e-07
4.2401e-08
3.20416e-08
5.91561e-08
0.000815934
1.41848e-08
0.000579728
-1.38229e-08
0.00111669
2.10767e-09
-0.00133421
-1.02216e-09
-3.60318e-10
5.7541e-09
-3.40619e-09
1.66381e-08
1.73303e-07
3.47314e-08
-0.000133336
1.75452e-05
-0.00076445
-3.36489e-10
2.52635e-08
1.82747e-08
-0.00117426
-0.00208527
-2.03822e-09
3.23578e-07
4.5309e-08
-2.57381e-08
2.45222e-08
-2.76329e-10
-4.66439e-09
3.9455e-08
4.15227e-09
1.01757e-07
0.000372351
7.731e-05
-3.77104e-08
-0.000159941
-7.01629e-05
6.90178e-05
-1.17298e-06
1.46018e-08
-3.62457e-08
0.000586972
-2.59753e-08
7.52841e-10
-2.18769e-07
-3.08261e-08
0.00560833
1.66411e-08
0.00633845
2.58887e-08
7.40051e-09
-1.57854e-09
-8.78417e-10
-1.32241e-07
-1.21138e-08
0.000376253
-1.16709e-08
9.00609e-09
-3.65672e-09
1.565e-08
1.75089e-08
-3.22791e-07
3.55865e-09
0.00430146
2.84077e-08
3.0812e-08
-3.67492e-08
-0.00144312
9.53366e-09
-2.94535e-08
-5.24409e-08
-8.5737e-11
8.64701e-10
-2.50545e-08
1.58274e-08
7.34746e-09
3.13207e-09
2.28173e-08
-0.0011024
-3.38044e-06
-1.8843e-08
-1.31445e-08
2.81743e-09
-1.21625e-08
1.2326e-08
1.99403e-08
-9.41889e-09
-4.47356e-07
0.00590046
1.36335e-08
2.85965e-09
6.3621e-08
-3.29913e-08
-7.59362e-06
6.23728e-08
-5.60799e-09
4.59421e-07
0.000509431
-4.42976e-08
-8.6908e-09
-6.46686e-09
-5.38007e-06
9.33145e-08
1.58488e-08
-2.49068e-08
-3.29706e-08
-1.7169e-08
-1.6598e-08
-4.76852e-06
2.23588e-09
0.000121418
4.55946e-07
2.36554e-09
-0.000359874
-6.86496e-08
-0.000375055
4.32927e-07
1.88706e-08
-7.4912e-11
-1.55014e-08
-0.00595975
1.29614e-08
-8.08722e-09
4.11652e-08
5.22804e-08
-5.30358e-09
-0.000319503
0.00409456
0.000145994
5.85272e-09
1.02951e-08
5.43682e-07
0.00503088
1.50433e-09
-1.46454e-08
0.00028421
-5.93743e-09
-1.3979e-08
8.0198e-09
5.07486e-07
2.21201e-07
8.36879e-09
-1.43862e-08
-5.78549e-10
-3.18659e-08
-7.65122e-09
3.76612e-09
4.3242e-09
-3.16616e-07
0.0053828
-0.0106705
1.06574e-09
-5.64644e-09
8.2797e-08
0.000116385
2.28558e-05
5.17216e-09
-5.66468e-09
3.45214e-06
-2.12537e-08
-3.24049e-08
1.25349e-07
-4.55033e-09
-7.70667e-08
9.57744e-15
2.52336e-08
0.000364917
0.00068157
-1.08453e-09
1.00697e-08
-2.41505e-08
-1.18344e-05
-1.61456e-09
0.000335659
1.08364e-08
-3.30991e-10
7.42511e-10
3.47275e-08
-1.97184e-08
2.82717e-08
-3.79614e-09
0.000298326
0.00645511
7.31229e-08
-1.08406e-09
-4.42217e-09
0.00461271
-4.53213e-10
-3.18646e-05
-1.66627e-08
1.79159e-08
0.000333408
8.21739e-09
1.92618e-09
8.70149e-06
0.00154327
1.17786e-05
-1.02176e-08
8.20918e-10
3.28998e-09
-2.42099e-08
4.20916e-07
9.54957e-09
-4.94726e-08
-2.18238e-09
-1.23972e-08
-2.81228e-07
-1.17957e-06
6.35242e-09
-1.28291e-09
-2.94474e-08
3.2834e-08
0.00109434
8.70727e-08
-0.000286406
-1.25778e-07
-1.90646e-08
-1.14802e-08
5.23153e-10
0.000299657
-4.01134e-09
0.000827591
-6.25829e-09
7.28904e-05
0.00469778
-9.69181e-09
-1.07864e-08
-6.27875e-10
-2.24736e-08
-6.45356e-10
1.08458e-08
4.80283e-08
1.66403e-07
-7.32363e-09
-0.000304619
-6.40964e-09
1.25389e-08
-3.08173e-09
0.00126469
-5.22313e-09
5.98279e-10
-2.93878e-08
8.30701e-06
-4.15461e-09
6.03899e-10
1.59531e-08
4.75199e-09
1.32388e-08
5.82358e-10
8.53298e-08
-1.60136e-08
1.69138e-09
1.5256e-05
-8.92071e-09
-0.00389687
3.12573e-09
0.0027542
-0.0114478
7.23445e-11
-1.82195e-08
2.37999e-09
-6.52641e-09
-2.31467e-09
-2.45901e-07
-6.49583e-07
-1.0685e-08
1.06162e-09
-5.9915e-09
4.47581e-09
2.49029e-09
-1.12226e-08
-7.13723e-09
-1.95043e-05
0.00581648
-4.88068e-09
-1.66123e-08
1.39905e-09
-4.77582e-09
-2.49513e-08
-8.53632e-09
-4.20908e-09
6.15881e-08
8.89458e-10
3.54526e-09
-0.000631225
-5.98675e-09
-1.45787e-08
-1.41119e-08
-3.59048e-08
6.83793e-08
4.69648e-06
6.70258e-09
-8.38264e-09
0.000978171
0.00591705
-1.72289e-08
0.000780452
1.38195e-09
2.27418e-10
0.00656481
-0.0038095
1.37443e-08
7.46337e-09
2.5301e-09
0.000578931
-0.00391809
-3.56606e-08
3.23751e-08
7.78373e-09
-7.64338e-08
0.00117247
-1.71742e-05
4.023e-09
3.66432e-09
-1.55033e-08
1.18838e-06
-6.43121e-09
5.86335e-10
1.79973e-08
-9.24257e-08
-1.43885e-09
5.82628e-09
3.91603e-08
1.15399e-08
5.48652e-09
0.000609869
1.31228e-07
-7.51204e-09
3.84815e-05
0.000391536
-3.0246e-09
-9.99161e-08
1.29731e-07
1.52898e-08
-5.0343e-09
3.09963e-06
-5.19257e-07
-4.11682e-09
9.42695e-05
-0.000873025
-4.05063e-09
-1.90252e-08
-4.44632e-09
-1.62737e-08
8.89865e-09
0.000103204
0.00119822
-4.65018e-09
4.71729e-09
-3.28774e-09
3.78784e-09
0.000703118
2.6098e-09
-8.54783e-09
3.15642e-10
-6.1988e-09
3.12519e-09
4.76769e-08
4.14228e-09
0.000694723
1.07573e-08
0.00692087
-0.00407358
-1.67314e-08
8.41977e-09
1.04998e-08
-1.52905e-10
1.34593e-08
4.17436e-09
-0.000227497
0.00065898
-0.000566447
7.34011e-09
-0.00797713
4.65711e-08
0.000941568
-5.52948e-09
-2.91684e-07
1.09743e-08
1.52336e-06
-2.22673e-08
2.14118e-09
-7.41097e-09
8.43472e-06
-1.10938e-07
7.12044e-08
1.26973e-08
8.20641e-09
0.00112378
9.7058e-08
-3.59959e-06
0.00033118
-4.15527e-09
-1.45588e-09
-3.57635e-09
-1.72049e-09
-1.03948e-08
-5.16171e-08
5.81773e-08
1.35359e-08
8.48949e-05
-1.77806e-08
-6.48889e-09
-1.16433e-08
-4.13618e-07
-8.83565e-09
2.61188e-09
1.87483e-08
-2.67086e-09
-3.7826e-09
1.58691e-08
-1.01795e-08
2.31449e-09
0.000562828
-0.000913169
8.97922e-10
9.15396e-09
3.27855e-09
1.8127e-09
-2.38264e-09
7.87436e-09
0.00021696
6.69622e-06
-0.000155275
2.63951e-09
-1.24461e-08
-1.12274e-10
7.48484e-09
7.847e-09
4.44588e-08
-3.35341e-06
-1.2759e-08
0.00567239
-7.62915e-09
-3.63295e-08
9.17018e-05
-4.91306e-09
-1.11773e-08
-0.000651805
0.00102069
-1.00126e-06
-3.42079e-09
-9.62361e-09
6.75146e-09
2.11355e-05
-0.00333083
-1.05661e-05
-0.0107178
8.34118e-08
-1.89712e-06
-6.8791e-07
-1.92011e-07
-5.34753e-09
-1.62643e-05
1.24384e-07
-5.48459e-06
4.77535e-08
-4.02573e-09
4.02369e-07
0.00327946
3.15795e-09
-2.79346e-07
-4.05679e-07
-2.31337e-09
-1.1309e-08
-4.07304e-10
-5.74835e-09
3.82428e-08
-4.99306e-08
-1.33468e-08
2.06112e-09
-2.26382e-08
0.000793399
0.00269356
3.93588e-10
-7.61876e-09
-7.60823e-09
-8.54086e-06
-1.66382e-05
-1.61086e-08
-0.00377706
-2.66588e-08
0.000114443
-1.62542e-07
1.6808e-05
4.05136e-08
4.00756e-08
-4.71138e-08
-3.45e-09
-0.00926593
1.26008e-08
-2.24613e-08
-0.000186172
2.81876e-07
1.32698e-08
-8.8578e-09
1.03038e-08
-1.09972e-09
-0.00236355
-8.26669e-05
3.66587e-09
-1.98609e-08
5.3574e-07
0.000562251
-2.17721e-08
1.23728e-08
-4.82777e-08
8.88555e-09
2.86496e-09
0.00153923
-0.000129324
7.21423e-05
-1.08291e-09
1.83496e-09
-1.74601e-05
6.20645e-09
-3.68109e-07
-5.88356e-09
0.00604383
-3.21392e-08
-2.2293e-08
-3.87835e-07
-2.79693e-08
-5.23469e-05
-2.32176e-08
-2.86594e-08
5.64455e-09
-5.92299e-08
5.62344e-08
1.2439e-07
8.99778e-09
-4.12538e-09
6.46865e-10
-1.47856e-08
-2.21878e-09
5.25442e-09
-1.31592e-08
-3.08305e-07
-1.04555e-08
-2.41531e-09
5.7031e-09
-2.20701e-05
6.94181e-09
3.00811e-07
-1.12635e-06
1.09912e-08
-0.000331671
-1.68888e-11
-4.24982e-08
1.51116e-09
-6.16506e-09
2.30407e-08
3.29857e-08
0.00261461
0.00709376
-3.38311e-07
1.33533e-08
-9.03659e-09
0.00715271
-0.0023443
-0.000979782
2.14403e-10
5.40321e-09
-3.05605e-08
1.91876e-08
1.39456e-07
-1.55436e-08
1.34651e-08
1.60273e-08
-3.18631e-07
-0.000787629
-4.10236e-08
1.17026e-08
5.57408e-08
2.1836e-09
0.00413475
0.000633629
3.86511e-08
-8.67283e-06
0.000160786
-3.57388e-07
0.000926315
5.3186e-08
2.69455e-08
1.19203e-08
1.54402e-05
5.38796e-08
-7.42524e-07
-0.0010665
8.27893e-09
-1.47703e-06
-2.44409e-09
-5.10612e-10
-3.93133e-08
-3.11419e-08
4.96825e-05
-1.63647e-08
3.61318e-09
-0.00236252
-2.33961e-08
0.000511627
1.3202e-08
-3.06136e-09
-0.00764586
1.97964e-09
-5.2211e-09
0.00235502
-2.06882e-08
8.85533e-09
-2.68288e-09
2.56026e-09
0.00131273
1.6593e-09
-1.70805e-08
0.0016662
-1.27862e-08
5.34596e-09
5.85744e-08
-9.73843e-09
2.85248e-07
1.29018e-08
-2.61545e-07
1.59135e-07
1.50982e-08
-1.64629e-09
-2.69973e-08
2.16929e-08
0.000519932
2.74664e-08
5.98476e-06
-1.38975e-08
0.00106053
1.55525e-09
-2.97818e-08
5.55108e-07
-9.98921e-09
-1.94039e-05
1.12218e-09
0.00263995
4.2205e-08
-4.39994e-09
5.1261e-09
-1.43889e-08
-1.61363e-08
6.86041e-09
-2.32632e-07
-4.70681e-08
3.70832e-05
3.71604e-10
2.13271e-08
7.56043e-05
-0.000140983
-0.000173167
4.61498e-07
-0.000160002
6.89445e-08
-0.000919391
-2.64152e-08
9.72484e-10
7.27906e-06
-1.20891e-08
6.15815e-07
2.15921e-06
-1.94848e-09
1.28718e-08
3.76752e-09
-1.57948e-09
4.45451e-08
-9.55484e-06
-2.67779e-08
0.00759837
-1.19198e-09
-2.26312e-09
1.00774e-05
4.71811e-10
6.45925e-09
-1.54692e-08
-9.63344e-09
4.85032e-09
-0.00100924
-2.67237e-08
-1.81869e-08
1.99606e-08
-1.23369e-06
9.993e-06
3.80002e-08
3.60155e-05
5.19837e-09
-4.60672e-08
3.60484e-09
-5.31885e-07
-2.35139e-08
1.76603e-09
2.07986e-09
5.57531e-05
0.000172438
-2.86794e-08
5.04067e-08
9.51845e-08
-1.48643e-09
-2.83541e-08
3.98579e-06
5.72282e-09
-6.49569e-09
0.00482474
7.944e-07
3.88241e-08
-1.12203e-08
0.00100135
-6.70778e-09
-9.47423e-05
7.94357e-09
-8.80858e-09
-3.12606e-08
1.39462e-08
9.25395e-09
-1.06495e-09
6.46395e-09
3.96545e-08
6.36235e-09
-3.21248e-06
-0.0111216
4.94721e-09
8.47947e-09
-3.6019e-08
-0.00402282
1.57612e-08
3.00714e-09
-0.010694
-5.6685e-06
1.41524e-09
-2.27639e-08
8.65213e-09
-1.63773e-07
9.83904e-09
-0.000660607
-2.37816e-07
-1.85832e-06
-0.000948017
4.44777e-09
-3.2565e-09
-0.000569124
0.00205035
1.39116e-09
8.2606e-09
2.66728e-08
-1.07364e-08
6.01196e-09
0.00198384
2.61488e-09
2.19829e-08
1.066e-08
6.47867e-05
5.66033e-08
0.000819332
-7.68076e-09
2.98073e-08
1.16372e-08
2.91877e-05
5.15115e-09
-1.23417e-05
-4.6027e-09
-4.91452e-09
5.30162e-09
-2.74451e-09
-2.26068e-08
3.86385e-09
-1.82676e-08
0.000612152
-5.54041e-08
-4.84484e-09
6.66582e-09
-1.24564e-08
-2.74076e-06
-1.55111e-09
-3.54622e-08
6.04404e-09
-2.38731e-08
-3.97752e-09
2.66436e-08
-4.4516e-07
0.00112097
1.09323e-09
-3.09972e-10
0.00245881
-0.000454164
7.90819e-09
2.55045e-09
1.77916e-08
-9.39329e-09
-1.39549e-05
7.44384e-09
-6.30266e-06
-1.06129e-07
1.82351e-08
7.05386e-08
-2.33352e-08
4.35168e-05
-3.55858e-08
-0.00263368
7.33264e-09
-1.69232e-09
1.03943e-07
3.18708e-07
9.48664e-09
2.5896e-08
-6.90261e-07
-0.00338505
1.45963e-05
3.04239e-09
7.22225e-09
4.0829e-05
3.3611e-09
5.23361e-09
4.25352e-09
-3.70453e-09
6.59519e-09
6.04216e-09
-1.72002e-05
-1.25166e-06
-3.86183e-09
1.14259e-08
1.66278e-06
-3.63273e-09
5.07146e-09
1.09089e-05
-1.12393e-06
4.60619e-08
2.89767e-08
0.000142599
-4.88347e-06
0.000941916
-1.58643e-08
-0.00178643
-4.66362e-08
-3.34885e-09
-0.00133635
2.62797e-08
0.000516559
-4.07001e-08
8.81424e-09
-1.66283e-08
-1.74848e-09
-5.542e-09
1.37107e-08
3.1758e-06
1.23784e-05
0.00269442
-0.00125336
3.52537e-08
-3.46767e-09
4.35843e-09
-6.70461e-09
1.10692e-09
-1.54506e-08
1.13126e-08
0.00210492
-5.58865e-08
-1.213e-09
4.77182e-09
0.000140946
0.000303484
2.63382e-06
-3.37373e-09
-2.02298e-09
9.43338e-09
7.87864e-10
3.17812e-08
-0.00137157
8.48118e-09
2.83943e-08
1.2278e-08
-0.000286738
4.24056e-08
-0.000699513
0.00027854
-1.37086e-09
2.44973e-08
-2.74517e-08
4.7518e-08
-1.09453e-08
-5.98393e-07
-4.02194e-05
1.33683e-09
5.63965e-08
-4.43126e-08
0.00076763
1.38232e-07
0.00406073
0.00635998
-3.31777e-08
-5.70454e-07
-1.51828e-06
7.90415e-09
1.53295e-08
9.27995e-10
-2.19987e-09
4.28101e-08
1.64523e-08
-7.38145e-10
2.17899e-05
1.4416e-08
-4.05791e-08
3.89885e-09
5.2404e-09
0.00670717
-3.59922e-05
-1.21586e-08
0.000334809
-3.4033e-09
1.73494e-08
-2.94165e-06
5.1894e-05
-3.84027e-05
-4.14132e-08
3.61587e-08
1.50157e-08
3.18014e-09
0.000467322
-7.03969e-09
5.64368e-09
4.71621e-07
0.000434425
1.14303e-08
1.07221e-08
2.28256e-08
3.13338e-09
5.75117e-06
3.69962e-05
1.4182e-08
-1.79741e-08
-0.00474897
-4.4009e-09
2.11026e-05
5.89633e-08
8.09338e-10
-7.57224e-09
2.10527e-08
-8.29526e-09
-1.17096e-09
-3.45333e-09
-6.44792e-08
-0.00694694
-5.36436e-09
1.42247e-09
0.000342414
-1.03835e-08
-6.50643e-09
3.14032e-07
7.55962e-09
-2.04532e-08
7.32337e-09
-4.89196e-06
2.62304e-08
9.52222e-09
1.40164e-08
0.00148575
0.0016122
6.4648e-09
-1.15255e-08
2.77793e-08
1.36655e-07
4.37764e-09
4.53226e-08
6.74975e-06
-1.5946e-08
1.54355e-08
-4.94069e-05
-3.66079e-09
-7.25973e-07
-4.33712e-09
-3.02874e-08
0.00083132
0.00111997
8.58644e-09
-4.6672e-06
1.17934e-08
2.03331e-08
-4.08253e-07
3.95278e-09
1.71503e-08
-5.85756e-09
-1.93692e-08
2.04974e-08
3.02051e-08
5.3626e-08
7.25663e-08
-7.92422e-07
0.000507892
-1.70138e-06
0.0026931
2.46083e-10
0.000249841
6.06387e-09
1.51625e-08
8.85677e-09
-1.30657e-08
1.06942e-09
7.2137e-09
-0.00264029
-2.21148e-08
1.01111e-08
-1.66437e-09
3.04974e-09
-0.002776
3.23965e-05
5.51636e-08
1.12265e-08
-2.52989e-07
-2.95503e-08
3.79425e-09
0.00202996
-0.00189397
1.26826e-08
-2.25202e-08
-5.82469e-09
0.00618585
3.89644e-09
-3.88167e-09
-0.00932248
4.35806e-06
4.59022e-09
6.92212e-05
3.87705e-08
1.21103e-08
1.70734e-08
-6.31537e-11
-0.000726225
-7.2598e-10
-3.79621e-10
-0.000183085
3.04193e-10
5.21843e-08
-6.15976e-09
4.72068e-09
3.51661e-05
0.000167958
1.20369e-08
4.85696e-08
-5.34302e-07
5.49119e-09
-2.98329e-09
5.07362e-09
2.15509e-09
-3.6167e-08
1.03898e-08
-1.25807e-08
-2.76782e-09
2.43438e-08
1.02569e-05
-0.00377734
-4.52795e-06
-4.36762e-08
-8.67618e-07
-2.09233e-08
-2.61971e-07
-3.92957e-09
-1.69822e-08
-5.04057e-08
2.95471e-10
-7.77454e-09
1.12629e-09
1.34091e-08
1.0043e-08
0.000554864
2.08403e-08
-2.19998e-09
1.71253e-09
-6.02342e-09
-2.54277e-09
-1.44253e-08
-8.61822e-09
-3.31004e-07
-0.000326197
-4.17174e-09
-0.00963225
2.70805e-09
-4.31068e-09
7.09028e-09
-8.02814e-09
2.40512e-08
1.29506e-08
-2.11449e-08
0.00251185
1.66492e-05
-0.00779924
-0.000482414
-0.000529453
-2.44152e-07
-0.000353897
-9.98089e-09
-6.45914e-09
4.61503e-08
-1.14596e-10
1.94808e-09
2.67318e-07
8.70579e-10
9.88225e-05
2.31426e-08
5.29131e-08
7.16674e-09
6.46456e-09
-2.53047e-08
-2.71106e-08
1.4505e-05
-1.80345e-08
3.56637e-08
0.00351372
9.92079e-09
0.0010346
7.19092e-09
3.76363e-08
3.41869e-08
6.15936e-09
-6.43308e-09
-2.63266e-08
-2.54277e-08
-4.17088e-08
4.48849e-09
9.86829e-09
0.00446427
0.000674868
-2.2666e-08
-5.40831e-09
-6.06241e-08
1.38859e-09
2.18407e-09
-0.00106145
-4.05735e-09
-0.00121016
-0.00676837
2.30747e-08
-9.56241e-09
5.7423e-05
4.15171e-08
-1.64895e-06
1.28885e-06
4.72602e-09
5.15126e-09
-1.64771e-07
3.17304e-07
-4.57539e-05
0.00205622
-1.64361e-08
6.12422e-09
-6.48831e-08
1.82416e-08
1.20822e-07
7.15443e-11
1.23594e-09
-2.35985e-09
-1.57785e-07
-2.9754e-09
-1.83551e-05
-3.18705e-08
-3.99836e-06
5.11998e-09
1.59651e-06
-3.82045e-09
4.90047e-08
-5.55588e-09
-0.0102155
-1.01129e-08
-1.99019e-08
0.000709979
0.000589391
2.46507e-08
1.80818e-05
0.000897162
-1.32194e-08
-1.93181e-08
-4.43165e-09
-9.00252e-09
4.60496e-05
2.79419e-09
3.94112e-07
-1.89458e-09
-0.00113034
-9.77306e-07
-7.60923e-07
9.04692e-05
-2.45726e-08
2.28882e-09
0.0050731
-6.57318e-05
-1.83025e-07
-1.82824e-09
-6.41651e-09
2.13963e-06
1.96021e-08
-3.11487e-08
1.42349e-06
-9.48617e-09
3.64441e-06
4.20189e-08
-1.36667e-08
-1.18382e-08
-2.01456e-08
5.96077e-09
1.30195e-06
1.61112e-08
8.74653e-09
1.21366e-08
3.09359e-09
0.000885878
-3.4129e-08
-2.11015e-08
6.23571e-09
0.00128019
3.13535e-05
1.48222e-07
4.29434e-07
3.92891e-09
-2.24258e-07
1.71254e-08
4.58742e-09
-7.03245e-09
2.15671e-08
-1.28453e-09
-0.010443
-4.49277e-09
6.70513e-08
9.10751e-06
0.00017958
-1.18131e-08
2.3191e-08
4.22908e-08
-4.51768e-09
-1.09365e-08
-3.90907e-09
-0.00287162
6.33955e-09
4.37507e-09
-4.59724e-08
2.56482e-05
-2.09383e-07
4.34021e-08
-1.659e-06
1.55766e-08
1.08067e-08
0.000984452
-3.02735e-08
1.12965e-08
-0.000433175
6.85103e-10
1.89697e-08
-1.67006e-09
4.22739e-09
-9.49902e-10
7.31266e-09
2.5395e-05
0.000245068
-0.00277451
-2.62416e-08
0.00115862
-4.28402e-10
3.21646e-09
-0.00210472
6.96034e-09
1.89806e-05
3.67718e-08
-1.7033e-05
6.06566e-10
-1.91695e-05
-0.00274727
4.38625e-09
4.34708e-09
2.68734e-08
2.97806e-08
2.79732e-08
1.98735e-05
-9.62556e-10
4.59298e-09
4.05566e-08
3.48419e-08
-4.05797e-10
7.10599e-06
1.08521e-09
-1.33913e-08
-5.87626e-09
-3.8062e-08
-3.54246e-09
4.42233e-06
-5.10442e-09
-0.00274593
2.32699e-05
2.70729e-07
-2.35521e-08
2.70773e-08
1.3882e-09
-1.1227e-08
9.38978e-09
-2.88359e-08
0.000271445
-6.7462e-09
0.000164649
-2.72178e-09
-8.42055e-09
-8.43154e-09
8.72103e-09
-4.64717e-05
4.84284e-08
-3.00382e-08
-1.99099e-08
0.00177144
-1.09166e-08
-4.57928e-09
2.52135e-09
2.33745e-07
5.11598e-07
5.50428e-09
-5.35335e-09
-2.53301e-10
-5.16689e-11
-5.07431e-09
2.64303e-08
3.44436e-08
-5.88096e-09
3.86935e-09
1.1955e-08
-6.70765e-09
2.51107e-06
0.00742802
-1.19036e-08
-2.6057e-08
6.96365e-06
-3.58178e-05
-2.91921e-08