/*--------------------------------*- C++ -*----------------------------------*\
| =========                 |                                                 |
| \\      /  F ield         | OpenFOAM: The Open Source CFD Toolbox           |
|  \\    /   O peration     | Version:  v2012                                 |
|   \\  /    A nd           | Website:  www.openfoam.com                      |
|    \\/     M anipulation  |                                                 |
\*---------------------------------------------------------------------------*/
FoamFile
{
    version     2.0;
    format      ascii;
    class       volVectorField;
    location    "400";
    object      U;
}
// * * * * * * * * * * * * * * * * * * * * * * * * * * * * * * * * * * * * * //

dimensions      [0 1 -1 0 0 0 0];


internalField   nonuniform List<vector> 
18166
(
(1.02564 0.0124648 -1.03105e-22)
(1.0245 -0.00176353 -1.14022e-21)
(1.03423 -0.0369152 1.71902e-22)
(1.05589 -0.0315067 -1.04921e-21)
(1.00703 -0.0164357 0)
(1.06158 -0.0130884 1.06085e-20)
(1.02012 -0.0011437 1.15054e-22)
(1.0216 -0.00247758 -4.37333e-22)
(1.03193 -0.0120444 0)
(1.02909 0.013175 1.03176e-22)
(1.02465 -0.00169402 0)
(1.0346 -0.0245456 0)
(1.04714 -0.00235247 6.2989e-23)
(1.03238 -0.0156611 -3.10447e-21)
(1.03989 -0.00692833 2.88607e-21)
(1.02479 -0.00330865 0)
(0.529743 -0.0589827 0)
(1.02021 -0.000304516 -3.7954e-24)
(1.04096 0.00338384 6.10077e-21)
(1.02484 -0.00112866 1.53813e-22)
(1.0347 0.00394853 3.62439e-21)
(1.00882 8.11052e-05 0)
(1.04123 0.00244415 1.55351e-21)
(1.03051 -0.0034885 0)
(1.02137 -0.00448255 -7.23659e-23)
(1.02809 0.00401722 -9.86436e-24)
(1.02169 -0.00254932 2.67431e-22)
(0.938528 0.00978501 7.7622e-23)
(1.0268 0.000478803 0)
(1.02007 -0.000482681 6.75595e-22)
(1.01658 1.25032e-05 0)
(1.01615 -0.00537946 -3.43294e-24)
(1.02042 -0.00385813 2.08336e-22)
(1.02195 -0.0049944 0)
(1.00748 -0.00867014 -9.07147e-22)
(1.02391 0.00357112 1.25555e-21)
(1.01745 -0.000211275 1.76236e-24)
(1.01743 -8.09505e-05 -3.10931e-23)
(1.02158 -0.00353663 -1.74074e-24)
(1.03397 -0.0242045 0)
(1.03143 -0.0120018 -2.1468e-21)
(1.0435 0.00294044 0)
(1.0173 -0.000155324 -6.98094e-23)
(1.04054 0.0037756 2.79596e-21)
(0.975056 -0.0137409 0)
(1.01837 -0.000335639 -4.37189e-23)
(1.0191 0.000202236 6.63231e-23)
(1.02504 0.0018192 8.87672e-22)
(1.01699 -6.66483e-06 2.79254e-24)
(1.0238 -0.00127944 2.45945e-22)
(1.02089 0.000153863 7.53513e-23)
(0.527989 -0.0585162 -2.51361e-20)
(1.01695 -6.69719e-08 -4.22545e-24)
(1.02301 -0.00316414 4.7689e-22)
(1.01828 -0.000319655 1.43852e-22)
(1.02166 0.00174586 2.11796e-21)
(0.945152 0.00553802 0)
(1.01771 0.000374475 0)
(1.0108 -0.00956432 -3.25588e-22)
(1.02191 0.00185976 -1.15014e-21)
(1.02051 2.1343e-05 9.45968e-24)
(1.01746 -0.000278363 3.60104e-22)
(1.01802 -8.3581e-05 -1.46111e-22)
(1.02249 0.00400226 -8.10299e-22)
(1.01956 -0.000141565 -4.03879e-22)
(1.01751 -0.000271688 0)
(1.01836 -0.000497362 0)
(1.02461 -0.0031614 5.11766e-22)
(0.882893 -0.0634322 4.13902e-21)
(1.01883 -3.0669e-05 -6.73888e-23)
(1.04651 -0.00202403 0)
(1.05493 -0.0328367 9.56703e-21)
(1.02052 -0.00489656 0)
(1.03239 -0.0116621 0)
(1.0188 -2.60325e-05 4.54248e-23)
(1.02042 -0.00280531 -3.10037e-22)
(0.522449 -0.0377025 0)
(0.95672 -0.0159332 -6.81531e-22)
(1.07674 -0.0322183 8.17514e-21)
(1.02102 -0.002292 0)
(1.0342 0.00403684 1.48173e-21)
(1.02067 -0.00109215 0)
(0.993515 -0.0148085 4.37311e-23)
(1.01727 -4.79792e-05 0)
(1.01718 -0.000146764 -1.56335e-22)
(1.02049 -4.16205e-05 1.12082e-24)
(1.02136 -0.000189542 4.14655e-25)
(1.02227 0.00387216 5.05726e-22)
(1.01959 -0.000253068 -1.04791e-21)
(0.585966 -0.0402605 0)
(1.01727 -4.71659e-05 -4.33959e-23)
(1.02014 9.08398e-05 0)
(1.04366 0.00341256 0)
(1.01955 -0.000215234 1.03602e-21)
(1.03243 -0.0113163 0)
(1.03002 0.00187548 0)
(1.06462 -0.0278295 0)
(1.01744 0.000447173 0)
(0.993738 -0.0180741 0)
(0.438234 -0.0623346 -3.20974e-21)
(1.02106 -0.00158735 -5.35826e-24)
(1.02033 -0.000287184 -1.62735e-23)
(1.02006 -0.000541263 0)
(0.962577 0.00865746 8.87828e-23)
(1.01811 -4.64114e-05 1.18424e-23)
(0.971681 0.0040857 1.24325e-22)
(1.01794 5.30294e-06 -1.10592e-22)
(1.01878 -0.000179799 5.12949e-22)
(1.01968 8.75067e-05 6.5455e-24)
(1.02597 0.000770606 0)
(0.650301 -0.0528133 -2.53303e-20)
(0.919034 -0.0162421 0)
(0.597158 -0.053707 0)
(0.901836 -0.0620566 0)
(1.03149 -0.00380659 -1.28975e-21)
(0.958505 0.00727861 -3.61057e-22)
(0.953426 -0.0126631 -2.01616e-21)
(1.02613 -0.00823845 -1.33718e-21)
(1.03042 -0.00321078 0)
(1.01827 -0.00019863 4.01624e-23)
(1.02518 -0.00282164 1.45407e-21)
(1.01826 -0.000204283 0)
(1.02632 -0.00803486 8.67012e-22)
(1.01723 -0.000197546 2.7098e-22)
(1.01981 0.000104018 6.59361e-22)
(1.03657 -0.00368214 1.02425e-22)
(1.0363 -0.00330577 0)
(1.02128 -0.000687004 7.17629e-24)
(1.01765 -4.43079e-05 -4.63575e-23)
(1.02217 0.00350403 9.54835e-23)
(1.01999 -0.00110831 5.82221e-23)
(1.02308 0.00413397 -1.04388e-22)
(1.02307 0.00141789 2.09445e-23)
(1.021 -0.00154586 0)
(1.02035 -0.0036607 -5.32459e-23)
(0.979145 0.00618352 3.67678e-22)
(1.02073 -0.00176259 0)
(1.07579 -0.0320961 -6.56665e-21)
(1.01782 -6.464e-05 -5.86234e-23)
(1.00208 0.00216216 -8.86576e-23)
(1.02328 -0.00278328 9.01978e-22)
(1.025 -0.00283747 -2.35316e-21)
(1.03854 -0.00131938 3.5691e-21)
(1.01097 0.0104841 -4.53734e-22)
(1.01789 1.35244e-05 -1.78125e-24)
(0.973555 -0.0132184 0)
(1.01483 0.00989785 6.35524e-22)
(1.01752 -0.000218678 -9.23066e-23)
(1.02023 -0.000166094 -4.31579e-24)
(0.427265 -0.0647837 0)
(1.02104 1.20852e-05 -7.96098e-23)
(1.03457 0.00522784 -1.63994e-21)
(1.00264 0.00154831 0)
(0.837536 -0.0393372 0)
(1.07013 -0.0150224 0)
(1.02023 -0.000198791 4.40984e-24)
(1.02056 -0.000935823 2.53414e-24)
(1.02361 -0.00433451 -2.60361e-22)
(1.07091 -0.0144133 0)
(1.0315 -0.0035333 -2.02374e-21)
(1.02135 -0.00232337 -7.81458e-23)
(1.02068 -0.00035499 1.13646e-24)
(0.691932 -0.0642448 1.99877e-20)
(1.01586 0.000113896 3.31989e-23)
(1.02306 0.0043599 1.84289e-21)
(1.02079 -0.000154877 -3.62439e-23)
(1.02127 -0.00532655 6.57244e-22)
(1.02158 -0.00238937 -7.00022e-23)
(0.875055 -0.0366566 2.91302e-20)
(1.02051 -0.000904201 -1.16044e-23)
(1.02175 0.000552097 8.17305e-23)
(0.94398 0.00149371 -9.69057e-23)
(1.02066 -0.00170209 0)
(1.00698 -0.0196939 0)
(1.01599 -5.70278e-05 -5.17673e-23)
(1.03109 0.00176305 7.8577e-23)
(1.02042 -5.90027e-05 -8.45835e-24)
(1.02869 0.00564659 1.26319e-22)
(1.02171 0.00159558 -9.3132e-22)
(1.03077 0.00430892 0)
(1.01723 -0.000192449 -1.35914e-22)
(1.02019 8.78788e-05 7.9094e-24)
(1.02942 0.00463439 -7.53724e-23)
(0.757416 -0.0334385 3.58425e-22)
(1.02854 -0.00659548 1.72044e-22)
(1.01841 -3.2355e-05 0)
(1.02129 -0.00214062 2.31349e-22)
(1.03022 0.00521116 -3.30837e-21)
(1.02844 -0.00452574 -3.0015e-22)
(1.01756 -8.93188e-05 1.04115e-22)
(1.02354 -0.00417234 2.81323e-22)
(1.02882 -0.00656009 -1.80473e-21)
(0.706288 -0.0353782 -6.04396e-22)
(1.01823 2.45025e-05 0)
(1.02064 -0.00025012 5.09074e-24)
(1.0838 -0.0241684 9.72432e-21)
(1.08174 -0.0232167 7.79179e-21)
(1.02261 -0.00118498 1.3384e-22)
(1.02342 -0.00280041 3.54717e-22)
(1.01844 -0.000523275 4.65755e-23)
(1.02065 -0.000647179 -3.47324e-23)
(0.980286 -0.0183471 0)
(0.87721 -0.0352262 9.67234e-21)
(1.03174 -0.00403181 -1.32114e-21)
(1.02158 0.00208039 0)
(1.0654 -0.0189638 -7.11791e-21)
(1.02491 -0.0030762 0)
(1.05727 -0.0312129 0)
(1.0654 -0.0173695 6.7412e-21)
(1.02172 -0.000234228 0)
(1.02055 -0.00163062 0)
(1.06472 -0.0194569 6.28736e-21)
(1.06581 -0.0179849 -7.69241e-21)
(1.02156 -0.000183787 -3.02475e-23)
(1.04277 2.19588e-05 7.00022e-21)
(1.02331 -0.0029393 0)
(1.02704 0.0018758 1.15578e-21)
(1.0229 -0.00302814 0)
(1.02342 -0.00414057 5.3295e-22)
(1.02138 -0.00178559 2.60475e-23)
(1.02062 -0.00100356 -9.99852e-23)
(0.916831 -0.000606512 0)
(1.034 -0.0158986 -1.74981e-21)
(1.01849 -0.000120668 1.25448e-22)
(1.01863 3.8686e-05 0)
(0.983191 0.00732312 -3.47335e-22)
(1.01741 -0.000258475 -2.11963e-22)
(1.02059 -0.00151949 0)
(1.02026 7.28964e-06 0)
(1.0184 -0.000114091 -8.48459e-23)
(1.01756 -5.18043e-05 9.68064e-23)
(1.01787 -0.000156039 1.65234e-23)
(1.0264 0.00292833 -8.19811e-23)
(1.01788 -0.000153775 -1.86646e-23)
(0.798467 -0.0418435 0)
(0.891194 -0.00097725 -1.05662e-23)
(0.88955 0.000423827 1.10523e-22)
(1.01749 -0.000258585 -2.61875e-23)
(1.02078 -0.000323117 0)
(1.03279 -0.0225289 -2.94775e-21)
(1.01748 -0.000255626 -1.27051e-22)
(1.03295 -0.0155087 2.82491e-21)
(1.01666 -8.12403e-05 0)
(0.982121 0.00627295 0)
(1.01841 -0.000125617 -5.4205e-22)
(1.0184 -0.000220567 0)
(1.02053 -0.0500428 -1.52741e-21)
(1.01841 -0.000214005 0)
(1.02097 -0.00236818 -1.39981e-23)
(1.06191 -0.0138937 0)
(0.918336 -0.000879787 7.90754e-23)
(1.02132 -0.00178559 -2.29457e-23)
(1.02144 -0.00234801 -4.39946e-22)
(1.03501 -0.0232015 7.16077e-23)
(1.02505 -0.00304511 1.24105e-21)
(1.01902 1.7118e-05 -1.25435e-22)
(1.0232 -0.00292643 -6.2404e-22)
(1.02241 0.00290962 0)
(1.02138 -0.00231085 8.59855e-23)
(1.02974 0.00213549 0)
(1.02314 -0.0107745 -4.6567e-22)
(1.02288 -0.0104501 0)
(1.02979 0.00530856 1.37536e-21)
(1.01809 -5.34286e-05 0)
(1.01874 -4.38227e-05 4.28635e-22)
(1.02244 -0.0045768 -7.55117e-23)
(1.01797 -0.0218687 2.38412e-22)
(1.02148 -0.0023138 -1.04162e-22)
(1.0179 3.54662e-05 6.06189e-23)
(1.01569 0.00720367 -2.1315e-22)
(1.01823 -0.000401191 3.75016e-22)
(1.02155 0.00223483 0)
(1.02143 -0.00513788 1.1633e-22)
(1.00402 -0.00664924 -1.12511e-23)
(1.02236 0.000207577 -2.18932e-23)
(1.0183 -0.000519419 1.58039e-22)
(1.01278 0.000539646 9.99262e-23)
(1.01715 -0.00015864 -1.66435e-22)
(1.0243 -0.00164382 1.56066e-21)
(1.06432 -0.0272704 8.49914e-21)
(1.01995 -0.00112222 -5.69838e-23)
(1.02143 -0.000237668 3.91398e-23)
(1.0564 -0.00562668 -1.31896e-22)
(1.02188 0.00202101 0)
(1.02239 0.00364798 2.12348e-22)
(1.02144 -0.00074659 -6.59581e-24)
(1.06997 -0.016731 0)
(1.03502 -0.0226126 -3.01757e-21)
(1.01785 -0.000311554 0)
(1.02387 -0.0042345 0)
(1.01958 6.76021e-05 -6.345e-24)
(1.02543 0.00198852 -5.00242e-23)
(1.02386 0.00380713 -1.25843e-21)
(1.02907 -0.00514041 -2.40063e-21)
(1.01813 -0.000185829 -1.95029e-23)
(1.01318 -2.71593e-05 8.3548e-23)
(1.01713 -2.29256e-06 1.41043e-23)
(0.946513 0.00653314 0)
(1.01814 -0.000179702 1.77568e-23)
(1.01724 -0.0210019 -2.28278e-22)
(1.03618 -0.0120787 -6.08872e-21)
(1.0197 -0.00240429 -1.32432e-22)
(0.846589 -0.06163 7.65047e-21)
(1.02149 -0.00345418 1.89037e-24)
(1.02072 -0.000659906 2.03368e-22)
(1.02254 4.75598e-05 0)
(1.02842 -0.0183995 -9.57943e-22)
(1.02083 -0.00170558 3.94387e-22)
(1.02023 -0.000266138 1.55548e-23)
(1.02374 -0.00409781 -3.2919e-22)
(1.02371 -0.00149316 4.42706e-22)
(1.01995 9.28168e-05 -8.35444e-22)
(1.02902 -0.000948879 -6.85584e-22)
(1.02116 -0.00210657 -3.24707e-22)
(1.01984 -0.00107402 5.54198e-23)
(1.01603 -2.81544e-05 -3.27411e-23)
(1.01722 -6.20613e-05 5.06e-23)
(1.06523 -0.0207053 7.12091e-21)
(1.07056 -0.0159961 0)
(1.01819 -0.000396461 -1.81998e-22)
(0.963496 -0.0271885 9.98262e-22)
(1.02917 -0.00618181 0)
(0.843831 -0.037212 -1.67378e-20)
(1.02888 -0.00623222 0)
(1.01829 -0.000307137 -1.22841e-24)
(1.01722 -6.63117e-05 -5.02746e-23)
(1.02355 -0.00136268 -4.16672e-22)
(1.03483 -0.0377728 -2.34444e-21)
(1.01968 9.787e-06 -3.40089e-22)
(1.06609 -0.0162823 0)
(1.01786 -7.68606e-05 1.36953e-22)
(1.01751 -0.000139265 -1.08261e-23)
(1.01797 -0.000184495 0)
(1.02311 -0.00305331 -5.24991e-22)
(1.05559 -0.00593313 -8.29801e-21)
(1.01904 0.000532077 0)
(1.06565 -0.0156578 0)
(1.02219 -0.0102133 0)
(1.02063 -0.00103524 8.33136e-24)
(1.01969 -0.000710203 3.31543e-22)
(1.01999 -0.00227615 -2.14205e-22)
(1.02928 -0.0011072 9.12733e-22)
(1.06459 -0.02126 6.08067e-21)
(1.01968 6.87494e-05 -6.11889e-22)
(1.03633 -0.00252553 -1.88774e-21)
(1.02603 0.000990814 0)
(1.07285 -0.0364724 1.81789e-20)
(1.02644 0.000216822 -8.76088e-22)
(1.01875 -0.000624381 1.24937e-22)
(1.0181 -4.76937e-05 -1.0243e-23)
(1.02164 -0.00518288 0)
(1.01504 -6.28013e-05 0)
(1.0323 -0.0226989 8.40398e-23)
(1.0289 -0.000468317 0)
(1.01828 -0.0204025 0)
(1.04179 0.00257447 3.61235e-21)
(1.02141 -0.00236161 8.16749e-23)
(1.02057 -0.00100352 -1.70493e-23)
(1.0328 0.0146 5.33979e-23)
(1.02897 -0.0183791 6.3455e-22)
(1.02036 -0.000557651 3.13589e-25)
(1.02132 -0.00193517 3.89493e-22)
(1.01794 -0.000170187 3.50808e-23)
(1.03661 -0.00286541 -2.03948e-21)
(1.02275 -0.0011824 -1.40519e-22)
(1.01805 -0.000170849 -3.65657e-23)
(1.01821 -0.000294212 0)
(1.01863 0.000160744 -8.13227e-23)
(1.02043 -0.00157058 3.1749e-22)
(1.02549 -0.00734742 -4.624e-22)
(1.01729 -0.000192269 0)
(1.02051 -0.00130896 0)
(1.02065 -0.0015245 -3.17885e-22)
(1.09198 -0.0235991 -1.3096e-20)
(1.01957 -0.000679586 -5.17565e-22)
(1.01577 -6.98446e-05 0)
(1.02031 -0.000319924 0)
(1.02199 -0.000244165 -2.77855e-23)
(1.01836 -0.00013253 1.56313e-22)
(1.02673 0.000304741 0)
(1.01843 -0.000237852 5.44557e-23)
(1.02077 0.00128791 -1.67357e-21)
(1.05843 -0.0208422 0)
(0.927229 0.000692461 4.07846e-22)
(1.01854 -0.000240155 -7.0232e-23)
(1.02642 0.00127267 -2.20335e-21)
(1.03391 -0.0142089 0)
(1.0581 -0.0218306 2.23015e-21)
(1.03477 0.0037197 -3.19395e-21)
(1.07508 -0.0351346 9.66805e-21)
(1.01846 -0.000246077 1.94297e-23)
(1.01352 -0.00843884 7.05366e-22)
(1.03303 -0.0106983 -1.35981e-21)
(1.03295 -0.000558881 0)
(1.02054 -0.00641641 5.58172e-23)
(1.05797 -0.0263208 -2.16278e-21)
(1.01897 -0.000135054 0)
(1.01813 -0.000223476 1.07095e-26)
(1.01829 0.00020321 -2.91938e-22)
(1.03985 -0.0319797 -7.41471e-21)
(1.01815 -0.000230718 -7.60956e-23)
(1.01783 -0.000208342 5.44557e-23)
(1.02323 -0.0030678 -6.0695e-22)
(1.0181 -7.48796e-05 -5.96139e-26)
(1.03322 -0.000790323 -6.04289e-21)
(1.01832 -0.000179394 -4.84944e-22)
(1.01669 -9.65136e-05 -1.00943e-22)
(1.02023 -0.00519326 -1.09855e-21)
(0.952887 -0.00067402 0)
(1.01799 -7.38457e-05 -2.33044e-23)
(1.02022 -0.000295134 1.87502e-23)
(1.01855 -0.00530754 1.82505e-22)
(1.02204 0.00127702 0)
(1.01649 -0.000113289 4.9676e-23)
(1.01685 3.13817e-06 0)
(1.06568 -0.0276635 -2.26443e-20)
(1.03038 0.00196143 -8.04377e-22)
(1.01937 0.00187823 0)
(1.01762 -0.000297752 -1.23512e-22)
(1.02871 -0.0046857 -6.7237e-22)
(1.01815 -0.000173047 0)
(1.0168 -3.8517e-06 1.75568e-24)
(1.02203 0.0109661 0)
(1.02471 0.0115717 1.33192e-22)
(1.02068 -0.000509797 -6.07535e-23)
(1.01918 -0.000107073 -2.13975e-22)
(1.02642 7.11062e-05 1.05961e-21)
(1.01667 2.7249e-06 0)
(1.01651 5.99703e-06 0)
(1.02084 -0.00185478 0)
(1.03282 0.000105955 -3.43985e-21)
(1.01748 -6.28276e-05 0)
(1.02059 -0.000664057 0)
(1.02236 0.00120554 8.78539e-23)
(1.01815 -0.000137882 0)
(1.02131 -0.00169924 1.94491e-22)
(1.02053 -0.00162917 -3.92691e-22)
(1.0329 -0.0262526 5.09961e-21)
(0.723678 -0.0372122 0)
(1.01801 -0.00399236 0)
(0.759388 -0.045005 0)
(1.03138 -0.0364943 0)
(1.01974 -0.0140923 0)
(1.01999 -0.0139079 -1.28959e-22)
(1.02154 -0.00143201 -5.01255e-22)
(1.02156 0.000557989 1.29544e-23)
(0.983651 -0.0252803 0)
(1.02495 -0.0032737 0)
(1.03441 -0.0141182 0)
(1.02032 -1.9487e-05 2.16593e-24)
(1.02075 -0.0017173 3.62421e-23)
(1.02134 -0.00216533 0)
(1.02063 0.00120778 1.39838e-21)
(1.01738 -6.79993e-05 0)
(1.01723 -1.98814e-05 -6.37247e-24)
(1.02667 -0.00705866 0)
(1.02188 -0.00043628 -6.60552e-24)
(1.01942 -0.000679999 -6.46013e-23)
(1.02139 -0.00170121 -2.29841e-22)
(1.02054 -0.00134191 -2.81842e-23)
(1.01736 7.83569e-06 0)
(1.01831 -6.02927e-05 6.43915e-23)
(1.01802 -0.00010345 0)
(1.04082 0.00283337 -3.74809e-21)
(1.04018 -0.00648592 -4.23811e-21)
(1.02205 -0.000372411 0)
(1.0293 -0.00466463 0)
(1.01978 0.00018469 4.03758e-22)
(1.02088 -0.0021723 -4.14035e-23)
(1.02341 -0.00259029 0)
(1.02018 -0.00150958 9.29845e-24)
(1.01916 0.000383848 3.18935e-22)
(1.02624 -0.00726935 0)
(1.02041 -0.000116456 2.49373e-24)
(1.02868 -0.0490556 0)
(1.01881 0.000156857 -8.14273e-23)
(1.02071 -0.000429402 7.26454e-23)
(1.01686 -0.00010634 1.97906e-23)
(1.02029 -0.00058507 8.11527e-24)
(0.805416 -0.0197392 -4.68575e-22)
(1.0231 -0.00632627 4.17323e-22)
(1.02155 5.51297e-05 0)
(0.965719 0.00199416 6.64097e-23)
(1.02076 -0.00169153 -4.63552e-22)
(1.02047 -0.00303214 0)
(1.0211 0.000141919 3.85132e-23)
(1.03234 -0.0261096 -2.38021e-21)
(1.01835 -0.000145384 -9.17985e-23)
(1.02395 -0.00462103 -8.21797e-22)
(1.0169 -4.64814e-05 2.50674e-22)
(1.01791 -0.000327981 4.92862e-23)
(1.02041 -0.00135828 0)
(1.02045 -0.000564085 7.01158e-22)
(1.02908 -0.0198858 -1.96081e-21)
(0.946323 -0.000180798 -8.95641e-23)
(1.02302 -0.00620564 -3.45737e-22)
(1.0211 -0.00207537 0)
(1.04494 0.00270021 7.79912e-21)
(1.02122 0.00242988 1.19406e-22)
(1.02157 0.00136104 3.10102e-22)
(1.03874 -0.000905049 -5.80651e-21)
(1.02014 0.00279613 3.7312e-22)
(1.03331 0.00454442 0)
(0.925901 -0.015456 0)
(1.02082 -0.000241446 0)
(1.02476 0.00351719 0)
(1.02046 -0.00137167 0)
(1.01838 -0.00054806 1.61496e-22)
(1.02078 -0.000256172 8.03929e-23)
(1.01673 0.00772495 0)
(1.02312 -0.00317697 5.90318e-22)
(1.01866 3.54857e-05 8.26504e-22)
(1.01816 -0.000198484 5.36252e-22)
(1.01323 3.23288e-05 0)
(1.03139 -0.0264424 2.39665e-21)
(1.06979 -0.0184 -2.39379e-21)
(1.01747 -0.0044815 -1.50823e-22)
(1.02636 0.00104792 1.30779e-21)
(0.884348 -0.0358764 7.03716e-22)
(1.02265 0.00303235 -9.21676e-22)
(1.02331 -0.00400945 -5.23722e-22)
(1.0032 -0.0169489 1.43331e-22)
(1.02266 0.00156298 -2.2856e-22)
(1.02847 -0.0197846 3.68759e-21)
(0.80691 -0.0396036 0)
(1.0215 -0.000658528 -5.94484e-24)
(1.02037 0.00279741 -4.80746e-22)
(1.01904 0.000366512 -2.93663e-22)
(1.01738 -8.23952e-05 2.97524e-23)
(1.01873 -0.000182118 0)
(1.04088 -0.03232 4.00806e-21)
(1.02119 -0.00241198 8.56784e-23)
(0.673483 -0.0400444 -5.96417e-22)
(1.01379 -0.0099823 0)
(1.02206 -0.000798079 0)
(0.896253 -0.0367492 -7.74142e-22)
(1.01763 -5.90773e-05 0)
(1.0174 -2.7603e-05 4.17363e-23)
(1.02117 -0.0024993 -3.67582e-23)
(1.02434 -0.00340844 0)
(1.02088 -4.55067e-05 -4.15425e-23)
(1.06084 -0.017762 0)
(1.02105 0.000365667 -1.27704e-23)
(1.07041 -0.0176855 2.46327e-21)
(1.02453 0.00365688 0)
(1.04452 0.00242829 -6.92558e-21)
(1.01479 0.000128813 3.42517e-23)
(1.01835 -0.000240281 0)
(1.01602 -0.0114299 1.39885e-22)
(1.02022 -0.000561266 -8.69545e-24)
(1.0394 -0.00700415 7.27928e-21)
(1.02044 -0.000656983 0)
(1.01824 -0.000533396 -7.41124e-23)
(1.02244 -0.0105696 -2.35085e-22)
(1.01778 2.82887e-06 0)
(1.01823 -0.00022637 0)
(1.05648 -0.0230836 -9.32627e-21)
(1.05761 -0.0255352 -6.82657e-21)
(1.02027 -0.001478 7.59466e-23)
(0.97799 0.000690132 8.22571e-23)
(1.02351 -0.00110403 0)
(1.03609 -0.0124686 -2.81574e-21)
(1.02101 -0.00532214 -3.9023e-22)
(1.01808 -9.3705e-05 4.7145e-23)
(1.01969 -0.00104137 -1.07423e-22)
(0.736831 -0.0628195 -6.85054e-21)
(1.02446 -0.00319776 9.74667e-22)
(1.02119 -0.000700543 0)
(1.01805 -0.000224734 3.74238e-23)
(1.02897 0.00160013 2.02755e-21)
(1.02067 -0.000554861 0)
(1.01793 -0.000213767 3.71317e-23)
(1.02683 0.00634243 6.57069e-23)
(1.02044 -0.00135868 0)
(0.857866 0.000353599 0)
(1.01806 -0.00594058 0)
(1.04332 0.000296762 -1.1692e-20)
(1.02146 -0.00134017 9.11165e-22)
(1.03374 0.00473714 0)
(1.0207 -0.00173534 0)
(1.02082 -0.00168189 0)
(1.02156 -0.00488701 0)
(1.02541 -0.00705804 3.09989e-22)
(1.02039 -0.000629588 0)
(1.02013 -0.000593336 2.23931e-23)
(1.01739 -0.000144876 -3.01919e-23)
(1.01853 6.49579e-05 -1.23968e-21)
(1.01729 -0.000182405 -1.65956e-22)
(1.02277 -0.0145248 -3.55009e-22)
(1.02656 0.000645638 -1.34569e-21)
(0.662218 0.00424771 -2.17916e-22)
(1.01808 -3.19799e-05 1.0342e-22)
(1.01968 -0.00273722 -1.18262e-22)
(1.03075 -0.0124917 -1.95766e-21)
(1.02409 0.00423927 1.13207e-21)
(1.01484 6.88717e-05 0)
(1.01574 -0.000147231 0)
(1.02633 0.00375201 0)
(1.07592 -0.0155388 -2.00255e-21)
(0.952428 -0.0162071 -6.35362e-23)
(1.01756 -0.000259952 6.31805e-25)
(1.02831 -0.0100468 8.18194e-22)
(1.01921 -0.000200394 0)
(1.0216 -0.000849039 -9.85031e-22)
(1.02253 -0.00838267 0)
(1.01824 -0.000139641 4.81427e-23)
(1.02016 0.0030142 -1.13203e-22)
(0.94863 -0.000380863 2.01888e-23)
(1.03045 -0.023544 0)
(1.02069 -0.00122703 9.10015e-24)
(1.018 -0.000102384 5.8878e-24)
(1.02132 0.0028683 0)
(1.02301 -0.0036033 -1.14798e-22)
(1.01888 -0.000112921 0)
(1.02083 -0.000397412 2.37131e-24)
(1.01782 -0.000236308 -5.62039e-22)
(1.04494 -0.0149651 -5.83307e-21)
(1.02064 -0.00120701 3.60536e-24)
(1.02094 -5.80232e-05 0)
(1.02615 -0.00238677 9.39001e-23)
(1.02249 -0.0142384 0)
(1.01934 -0.00015038 1.60527e-23)
(1.01205 -0.0186978 0)
(1.02929 -0.0313295 -1.23897e-20)
(1.01832 -0.000396461 0)
(1.02051 0.00288947 8.93568e-23)
(1.01849 8.46718e-05 9.39284e-22)
(1.0198 -0.00108545 -5.99123e-23)
(0.384786 -0.0610923 3.10604e-21)
(1.0202 4.02999e-05 0)
(1.02373 -0.00436612 4.43034e-22)
(1.02311 -0.00373206 0)
(1.02086 -0.00169922 9.77557e-23)
(0.419256 -0.0396385 1.56419e-21)
(1.02616 -0.0178918 -5.40548e-22)
(1.033 -0.0111025 0)
(1.02036 7.64168e-05 -2.0805e-23)
(1.02126 0.000118005 3.88319e-23)
(1.01948 -0.000172216 -2.49044e-23)
(1.02539 0.000787303 0)
(1.02131 -0.00129807 -4.49987e-22)
(1.01644 6.51e-06 -2.76786e-24)
(1.04854 -0.0359998 -5.22711e-21)
(1.01795 0.000320106 -1.636e-22)
(1.0196 0.00189386 -6.62496e-22)
(1.01743 -0.000270883 -2.39496e-22)
(0.949651 0.00380406 -2.24715e-22)
(1.0206 -0.000774878 4.87814e-23)
(1.02054 -0.00127299 -4.33374e-23)
(1.01946 8.09376e-05 0)
(1.03061 -0.0166053 0)
(1.01717 -5.20332e-05 -5.55509e-23)
(1.01917 -7.44689e-05 0)
(1.02264 -0.00472151 -4.26862e-23)
(1.02137 0.000136077 -7.62118e-23)
(0.728622 -0.0458649 0)
(1.03459 0.0047995 0)
(1.02914 -0.000640393 1.63987e-21)
(1.01756 -0.000253285 0)
(1.02089 -0.000396896 -4.86835e-25)
(1.02015 -0.000583101 0)
(1.03632 -0.00178956 -4.17999e-21)
(1.02929 0.00581836 -5.25708e-23)
(1.01918 0.000523887 0)
(1.01677 -5.11581e-05 0)
(1.0202 -0.00271437 4.91909e-22)
(1.01796 -8.051e-05 -1.99273e-22)
(1.02343 -0.00364867 0)
(1.02154 -0.000903059 9.97861e-22)
(1.07095 -0.0137395 3.49555e-21)
(1.02309 0.00103836 -3.18732e-23)
(1.02323 -0.00376092 0)
(1.0245 -0.00339155 0)
(1.04792 -0.0464902 0)
(1.02873 0.00375042 8.24505e-23)
(1.03151 -5.66905e-05 1.88827e-22)
(1.02077 -0.00202967 2.30114e-23)
(1.02035 -0.00132875 -6.98789e-22)
(1.03845 0.00509105 5.52218e-21)
(1.01908 -6.94925e-05 0)
(1.01729 -6.29444e-05 -1.09431e-22)
(1.02003 -0.000240249 9.59069e-24)
(1.01839 -0.000346893 -1.556e-22)
(1.06951 -0.0200749 0)
(1.0607 -0.0130839 -1.96233e-20)
(1.01888 -0.0215442 0)
(1.03016 0.0146881 -2.96004e-22)
(0.943003 0.0107035 -2.62697e-22)
(1.02196 -0.00126323 6.4953e-23)
(1.02064 -0.00167179 0)
(1.02818 -0.00969956 1.16063e-21)
(1.01788 -0.000222856 5.45815e-22)
(1.02032 -0.000227591 0)
(1.05705 -0.00614606 9.36767e-21)
(1.0824 -0.0220432 -9.39172e-21)
(1.01922 -0.00212767 -9.88309e-22)
(1.04707 -0.0116942 -9.01789e-21)
(1.02088 -0.00497974 1.14156e-22)
(1.02126 0.0022737 8.30877e-22)
(1.02033 -0.000563028 -5.3354e-22)
(1.02478 -0.0142339 0)
(1.02541 -0.00108047 2.52821e-23)
(1.0207 -0.00168981 0)
(0.666641 -0.0303534 1.74077e-21)
(1.02116 0.00055664 -7.59945e-24)
(1.02067 -0.00171905 3.22234e-22)
(1.02123 -0.00234923 -2.46786e-24)
(1.0202 -0.000493367 -9.39387e-22)
(1.01603 5.17941e-05 0)
(1.02596 -0.00720364 0)
(0.661176 -0.0294572 -2.0617e-22)
(1.0675 -0.0264226 4.603e-21)
(1.02064 -0.0104617 0)
(1.01995 -0.00147659 -2.66649e-22)
(0.962311 -0.000974061 -1.0892e-22)
(1.03 -0.0128968 0)
(1.0366 -0.00212845 2.01424e-21)
(1.02364 -0.00123815 0)
(1.01813 0.000179894 0)
(1.03118 -0.0125396 -3.03574e-22)
(1.01707 -0.00806997 -3.92494e-22)
(1.02202 0.00137486 1.65543e-22)
(1.08117 -0.0211018 -4.57279e-21)
(1.0238 -0.00634166 3.04782e-22)
(1.02188 -0.000554688 1.66121e-23)
(1.02034 -0.000300951 -1.63312e-23)
(1.03109 -0.0236107 2.11637e-21)
(1.04642 -0.00905146 1.33998e-21)
(1.03069 -0.0162111 -1.37943e-21)
(0.791485 -0.0194301 4.71592e-22)
(1.02007 -0.00199021 0)
(1.02024 -0.000188294 0)
(1.04691 -0.00875553 -7.31202e-21)
(1.06586 -0.0139412 7.30309e-21)
(1.02036 9.91632e-05 9.93311e-24)
(1.02128 -0.00223648 0)
(1.03311 -0.000126983 0)
(1.0485 -0.0455894 -4.29469e-21)
(1.02558 -0.0068484 0)
(1.02554 -0.00158669 -3.1368e-23)
(0.594774 -0.0278732 0)
(1.03176 0.000214541 2.98841e-23)
(1.01755 -4.92344e-05 -2.72429e-24)
(1.0208 -0.00171029 -7.40703e-24)
(1.0181 -5.5357e-05 -1.65834e-24)
(1.01972 -0.000476835 -3.40211e-22)
(1.03046 -0.0129604 2.34502e-21)
(1.02272 0.000783605 0)
(1.02546 -0.00660963 0)
(1.02622 0.000602876 8.61306e-22)
(1.0217 -0.00147534 4.90256e-22)
(1.02286 -0.00606728 -6.21041e-23)
(1.02007 -0.000558414 -2.64675e-23)
(1.01928 -0.000199627 -7.29257e-22)
(0.950841 -0.0603895 0)
(1.02343 0.00409091 0)
(0.958327 -0.000624303 0)
(1.01729 -6.1327e-05 3.16734e-23)
(1.01797 -7.51459e-05 2.14583e-22)
(1.02433 -0.0145021 4.0782e-22)
(1.0221 -0.000645017 0)
(1.01683 -6.11565e-05 5.77333e-24)
(1.04665 -0.0111619 2.71606e-21)
(1.02745 -0.0204804 1.65311e-21)
(1.03874 -0.0017024 -3.24627e-21)
(1.02051 -0.000843211 0)
(1.02123 -0.00242599 0)
(1.0241 -0.00613599 0)
(1.06634 -0.0399424 1.83256e-20)
(1.02002 1.9358e-05 7.39651e-22)
(1.02171 -0.00160504 -2.68247e-22)
(1.01884 -0.000787496 -2.37986e-22)
(1.01857 -0.000699689 2.63512e-22)
(1.01651 2.8772e-06 2.38622e-24)
(1.0179 -7.52558e-05 -2.26062e-23)
(1.03444 -0.0249766 4.96943e-22)
(0.99764 -0.0043713 -5.35513e-23)
(1.02805 0.0117871 0)
(1.02647 -0.0174366 5.96176e-22)
(1.03363 -0.0257595 -3.73997e-21)
(0.768729 -0.0424519 -1.63118e-20)
(1.02085 -0.00216974 0)
(1.0516 -0.0399332 -3.71555e-22)
(1.03277 -0.022096 0)
(0.997969 -0.00496419 0)
(1.03475 0.00115858 2.39025e-21)
(1.02436 -0.00356975 0)
(1.01892 -0.000808188 1.28148e-22)
(1.02364 -0.00643178 -3.24669e-22)
(0.976218 0.00457454 4.61593e-22)
(1.02125 -0.00218169 3.45414e-22)
(1.01696 -0.000157725 -2.34485e-23)
(1.02139 0.00127153 0)
(1.02381 -0.00457776 0)
(1.09492 -0.0239036 1.36518e-20)
(1.01954 -0.000707281 0)
(1.01996 -1.64466e-05 4.25645e-22)
(1.0209 -0.00208334 -1.61936e-23)
(1.01883 -0.000651648 0)
(1.02421 -0.00356769 0)
(1.02198 0.00152994 -8.66668e-22)
(1.0204 0.00312745 0)
(1.01929 -0.000123494 9.97496e-27)
(1.07018 -0.0193533 0)
(1.02046 -0.000807458 2.93477e-24)
(1.01962 -0.000454941 6.98904e-22)
(1.02273 0.000535791 0)
(1.02106 0.00321631 0)
(1.02125 -0.00235363 2.76617e-24)
(1.02878 0.00152285 -1.21235e-21)
(1.0237 0.000200519 0)
(1.02599 0.00311109 -4.17747e-23)
(1.01818 -5.42701e-05 4.70695e-23)
(1.01686 -4.48222e-05 0)
(0.881414 -0.00373981 3.38256e-23)
(1.01936 6.74956e-05 -3.82232e-24)
(0.976752 0.000896815 -9.24581e-24)
(1.07503 -0.0155402 7.3107e-21)
(1.01072 -6.5428e-06 0)
(1.01787 -0.000436085 0)
(1.02576 -0.00743538 -1.68271e-22)
(1.0212 -0.0021396 -4.80559e-23)
(1.02265 -0.00417431 -1.42675e-22)
(1.01811 -7.57523e-05 -1.62408e-22)
(1.0192 -0.000115691 0)
(1.03768 -0.0456434 -8.06682e-21)
(1.02348 -0.00268501 0)
(1.02266 -0.00810175 0)
(1.01902 -0.000137907 -6.35626e-22)
(1.02149 -0.00506129 -3.20984e-22)
(1.02111 -0.0020726 3.07097e-22)
(1.01545 -4.36157e-05 2.48426e-23)
(1.02639 -0.00700549 0)
(1.02 -0.000575895 -5.21293e-24)
(1.02143 0.000661972 0)
(1.01845 -0.000265751 0)
(1.02422 0.00347573 0)
(1.02157 -0.00301489 4.07581e-23)
(1.02138 6.52677e-05 -9.39047e-25)
(1.0209 -0.00997599 3.15674e-23)
(1.00545 -0.000111962 -4.26266e-23)
(1.02056 0.0032386 0)
(1.06768 -0.027285 4.85294e-21)
(1.02123 -0.000229574 -8.35604e-24)
(1.02103 -0.00152108 -2.73243e-23)
(1.01703 -0.000116705 4.90142e-23)
(1.01887 -0.00238527 0)
(1.02685 -0.00781944 0)
(1.01769 -0.000310235 0)
(1.02151 -0.00294295 0)
(1.02177 -0.00175497 0)
(1.01997 -0.000651766 5.53595e-22)
(1.02024 3.47389e-05 -2.81782e-24)
(1.02939 0.00203757 0)
(1.03313 -0.0254952 5.4561e-21)
(1.0206 -0.0012917 0)
(1.02801 -0.00494874 -6.0596e-23)
(0.83196 -0.00179402 1.4703e-23)
(1.02001 -0.000630352 -5.38317e-22)
(1.03592 0.000993538 4.93189e-21)
(1.01699 -1.02074e-05 -1.83019e-23)
(1.02101 -0.00149303 5.96492e-23)
(0.92878 0.000305022 -6.91696e-23)
(1.02544 0.00279985 -2.46986e-21)
(0.843347 -0.00182523 -3.00479e-23)
(1.01836 -0.000255008 -3.75729e-23)
(1.0218 -0.00169721 2.76763e-22)
(1.02811 -0.0205586 -1.761e-21)
(0.715447 -0.0494714 1.43851e-20)
(1.02703 -0.00098434 -9.19044e-24)
(1.01729 -0.000224196 0)
(1.03342 -0.0160547 3.35485e-21)
(1.02192 -0.00147273 -5.50551e-22)
(1.02418 -0.00722082 1.36772e-22)
(1.0176 -0.000152408 0)
(1.02529 -0.00037375 -1.20515e-23)
(1.02957 -0.0242262 6.58669e-22)
(0.788044 -0.0315169 4.8758e-22)
(1.01854 -2.8337e-05 0)
(1.0178 0.000334732 0)
(1.02332 -0.00214822 -8.21859e-22)
(0.85093 -0.0628339 -2.24066e-20)
(1.02132 -0.00218967 -3.53504e-22)
(0.656794 -0.0664918 0)
(1.01776 -0.000372223 0)
(0.739963 -0.0189305 0)
(1.03172 -0.0268133 -1.87502e-21)
(1.02416 -0.00635293 0)
(1.02816 -0.00694742 0)
(0.923002 -0.0116033 4.45721e-23)
(1.05495 -0.00547123 0)
(1.05336 -0.0298896 0)
(1.02377 -0.00395169 3.4954e-22)
(1.01262 3.25518e-05 0)
(1.02134 -0.00511261 3.82362e-22)
(1.02918 -0.00536721 -4.62787e-22)
(1.02079 0.000625992 -3.50094e-25)
(1.02639 0.00146528 -1.57783e-22)
(1.02078 -0.00614897 2.22793e-22)
(1.02278 -0.00302031 0)
(1.01839 -9.43991e-05 1.85168e-22)
(1.02296 -0.00244721 0)
(1.01837 0.000224692 3.6753e-23)
(1.0172 -8.53967e-06 2.3053e-23)
(1.02248 -0.00298741 -4.16696e-22)
(1.08084 -0.0279438 3.17711e-20)
(1.01862 -0.000718631 -1.48749e-22)
(1.0143 -0.0429806 -1.7067e-21)
(0.296126 -0.0533024 -6.03662e-21)
(1.02272 -0.00610444 6.36449e-23)
(1.06424 -0.0228443 0)
(1.02051 0.00268324 1.4578e-22)
(1.01808 -0.00011447 -2.58538e-23)
(1.01657 -0.00579464 0)
(1.01472 -0.00787045 -6.31179e-22)
(1.01414 -0.0131968 0)
(1.05525 -0.0126136 0)
(0.964813 -0.0317248 -4.58049e-23)
(1.01833 -0.000562112 -7.53006e-23)
(1.01003 0.000122618 0)
(1.02072 -0.0101035 0)
(0.644053 -0.039733 1.85322e-20)
(1.02527 -0.00254587 1.37376e-22)
(1.03413 0.00542112 1.58523e-21)
(1.02076 0.00050925 1.55905e-25)
(1.06918 -0.0217398 -9.39896e-21)
(1.01837 -0.000346617 -1.97324e-22)
(1.0212 -0.00186088 0)
(1.01954 -0.00100445 0)
(1.01893 -3.048e-05 -2.5929e-23)
(1.02545 -0.00618348 -6.71343e-22)
(1.02584 0.00135663 -1.66046e-21)
(1.05438 -0.0126525 0)
(1.01824 -0.000208804 1.21794e-22)
(0.735248 -0.0190127 -8.91249e-22)
(1.02269 -0.00311822 0)
(1.02689 -0.00223477 4.64494e-23)
(0.979951 -0.0271812 -1.00695e-21)