/*--------------------------------*- C++ -*----------------------------------*\
| =========                 |                                                 |
| \\      /  F ield         | OpenFOAM: The Open Source CFD Toolbox           |
|  \\    /   O peration     | Version:  v2012                                 |
|   \\  /    A nd           | Website:  www.openfoam.com                      |
|    \\/     M anipulation  |                                                 |
\*---------------------------------------------------------------------------*/
FoamFile
{
    version     2.0;
    format      ascii;
    class       volScalarField;
    location    "400";
    object      k;
}
// * * * * * * * * * * * * * * * * * * * * * * * * * * * * * * * * * * * * * //

dimensions      [0 2 -2 0 0 0 0];


internalField   nonuniform List<scalar> 
18540
(
0.000161538
0.000184225
0.000142801
0.000203795
0.000151361
0.000131331
0.000148018
0.00917911
0.000135471
0.000157069
0.000154297
0.000223528
0.000154425
0.0168668
0.000151574
0.000135368
0.000174875
0.00014412
0.000136825
0.000147926
0.000175063
0.000181771
0.000132896
0.000153903
0.000141257
0.00015191
0.000148984
0.0451356
0.00020015
0.0159845
0.0600527
0.000181692
0.000149269
0.000209363
0.000151335
0.00015584
0.000385259
0.00014822
0.000145953
0.000165523
0.000174083
0.000193913
0.000144512
0.000146857
0.000142569
0.000149747
0.00182581
0.000166488
0.000146671
0.000214234
0.000284849
0.000161968
0.000173925
0.000173305
0.000194121
0.0660821
0.000165883
0.000151905
0.000161825
0.000174277
0.00015118
0.000141585
0.000139969
0.000137143
0.000136875
0.000134628
0.000160243
0.000197955
0.000247903
0.000137212
0.000142884
0.000201439
0.000143434
0.000137543
0.000146696
0.00859189
0.000154164
0.000151607
0.000142824
0.0101475
0.00014198
0.00014626
0.000185976
0.000138748
0.000154718
0.000142699
0.000190381
0.000178495
0.000146332
0.000217613
0.00444758
0.0128798
0.000213212
0.000146294
0.000134385
0.000144739
0.000192643
0.000143261
0.0074202
0.00014758
0.000134256
0.000193646
0.000147668
0.000133996
0.000134651
0.000134321
0.000148365
0.000225964
0.000162067
0.000143439
0.000158773
0.0001375
0.000145899
0.000144503
0.000134191
0.000134126
0.000140686
0.000143628
0.000147425
0.000142855
0.00014321
0.0134995
0.000124381
0.000141631
0.000158292
0.000192624
0.000148291
0.00446434
0.000136865
0.000151996
0.0829431
0.000147379
0.000139998
0.000132657
0.000133292
0.000151821
0.000147597
0.00015882
0.000139936
0.000134059
0.000131437
0.000149441
0.000143397
0.00015102
0.000209326
0.000175452
0.000208175
0.00984037
0.00013717
0.000160998
0.0002507
0.000181613
0.000138719
0.000148021
0.000138838
0.000174202
0.000267027
0.000142287
0.00014139
0.0083497
0.000267233
0.000553819
0.000176399
0.0105212
0.000191287
0.000141944
0.000155849
0.000141588
0.000141778
0.000158344
0.00021723
0.000142757
0.000156689
0.0729883
0.00765363
0.00025571
0.000177935
0.0186268
0.000152594
0.000141465
0.000854
0.000162751
0.000144763
0.000169086
0.000147348
0.00015602
0.0203199
0.000723246
0.000239481
0.000176424
0.000169917
0.0120447
0.000147209
0.00902713
0.000152168
0.000141623
0.000255807
0.00047972
0.000146526
0.000188983
0.000145166
0.0237001
0.000141638
0.000151467
0.000158724
0.000150824
0.0102559
0.000197364
0.0114667
0.0166847
0.000142527
0.000147238
0.00014695
0.000143961
0.0001893
0.0561877
0.000144983
0.00016552
0.000158821
0.00835801
0.000180827
0.000133633
0.0100434
0.000188793
0.000154753
0.000143775
0.00903166
0.000188149
0.000219856
0.000157893
0.000214837
0.000149351
0.0281677
0.000191667
0.000194561
0.000173961
0.000177948
0.000154365
0.00013356
0.000146232
0.000173483
0.000175828
0.000153978
0.000157661
0.000134551
0.000139986
0.000215144
0.000153649
0.000154023
0.000182249
0.000146824
0.0172333
0.000139019
0.000142224
0.014463
0.000182252
0.000256074
0.00897782
0.000223921
0.00845772
0.00773083
0.0106267
0.0141819
0.000151185
0.000143034
0.00124934
0.000140396
0.000148767
4.4907e-05
0.000144041
0.000133471
0.000192873
0.000149604
0.000134729
0.000137237
0.000140403
0.000148751
0.000176923
0.00737971
0.000163321
0.000137909
0.000145215
0.000220969
0.000142412
0.000205466
0.0512602
0.000144267
0.000147957
0.000214097
0.000593349
0.00014268
0.000153467
0.000189375
0.00015638
0.000143709
0.000144354
0.000168496
0.000151042
0.000154297
0.000189284
0.000135362
0.000183671
0.000142376
0.000172292
0.000177573
0.000142194
0.000225039
0.00014294
0.00436608
0.000135292
0.000146015
0.000154593
0.000160009
0.000152308
0.000173422
0.00014355
0.000170712
0.000155164
0.00013889
0.000219804
0.000143427
0.000148854
0.000145571
0.000133619
0.00074007
0.000159419
0.000141108
0.000180259
0.000144505
0.000155277
0.000149926
0.000133574
0.000142979
0.000142483
0.000153695
0.000158981
0.00627358
0.000137728
0.000176099
0.000145973
0.000155058
0.000141827
0.000149649
0.000141659
0.000149238
0.000933093
0.000155129
0.00897711
0.000162061
0.000148038
0.000162892
0.000132824
0.00015665
0.00432034
0.000183455
0.00745589
0.000147216
0.000137656
0.000460312
0.000144342
0.000142799
0.000159859
0.000195941
0.000179152
0.000174589
0.000143475
0.000148606
0.000143943
0.000152859
0.00021004
0.000142936
0.00010221
0.000146257
0.00461928
0.000105118
0.00339422
0.000149142
0.000170803
0.000151781
0.00014259
0.0264004
0.000151249
0.000155506
0.000143481
0.000182396
0.000154903
0.000147604
0.000148584
0.000262369
0.000200273
0.000146214
0.000190299
0.000138566
0.00148868
0.0119771
0.000191586
0.00013445
0.000146491
0.000885053
0.000144784
0.000133198
0.00230757
0.000175283
0.00017385
0.000142695
0.000152497
0.000142207
0.000250528
0.000170307
0.000151778
0.00958819
0.000137266
0.00014237
0.000143726
0.00016892
0.000197788
0.000137445
0.00018074
0.000141671
0.00101761
0.00639566
0.000142417
0.000133131
0.000183822
0.00019339
0.000147446
0.00014964
0.000144553
0.0150154
0.000141594
0.000155337
0.000150746
0.00013301
0.000148265
0.000145088
0.000133078
0.000136919
0.0070561
0.00013995
0.000158067
0.0102625
0.00810007
0.0395857
0.0001502
0.00013871
0.00014344
0.00014236
0.00824206
0.000133086
0.000136952
0.000188907
0.000138464
0.000133349
0.000173186
0.000166034
0.000188647
0.0166551
0.000138606
0.000168868
0.000143877
0.000143351
0.000147122
0.00737237
0.00013386
0.0601918
0.000455679
0.000143036
0.00867321
0.000137329
0.00498136
0.000163479
0.0066321
0.000141587
0.000144195
0.000146409
0.000143468
0.0077127
0.00013569
0.000169061
0.000152593
0.000188467
0.000147458
0.000179328
0.000100894
0.000141643
0.000184925
0.000200001
0.000153931
0.0092159
0.000166807
0.000189881
0.000135361
0.000231262
0.000167785
0.00454659
0.000101592
0.000171936
0.000135313
0.000144411
0.000130335
0.000761237
0.000144248
0.050922
0.000165438
0.00451556
0.000139794
0.000137418
0.000142967
0.000144296
0.000144097
0.000161691
0.0633802
0.000167304
0.00288743
0.000149888
0.000187324
0.000147793
0.000143474
0.000159545
0.000154926
0.000141631
0.000148214
0.000137407
0.0818189
0.000232892
0.00814689
0.000143241
0.000138163
0.000148916
0.0083933
0.000141349
0.00951847
0.000155264
0.000130158
0.000133915
0.00013534
0.000143491
0.000138112
0.000145378
0.000173141
0.00181563
0.000159032
0.00902421
0.000143896
0.000139665
0.046649
0.000166507
0.000147538
0.00125955
0.000174527
0.000149311
0.000133865
0.00616974
0.000119276
0.000132672
0.000167998
0.00848578
0.000135375
0.00275733
0.000141053
0.000149348
0.00947814
0.00155915
0.000155029
0.0430272
0.00013453
0.000158397
0.000149249
0.000147284
0.000175999
0.00014921
0.0704933
0.016624
0.00015692
0.000201292
0.000191073
0.000193672
0.00018344
0.000133716
0.00481728
0.0035537
0.000143812
0.000144073
0.000232799
0.00015484
0.000184099
0.00014437
0.000143648
0.000147403
0.000147413
0.000149545
0.000180441
0.000146852
0.000146035
0.000137005
0.0137987
0.000140794
0.000141755
0.00146367
0.000138419
0.000142357
0.00339482
0.000143384
0.000132675
0.000132755
0.000240938
0.000163971
0.000156375
0.000157489
0.00015895
0.000130265
0.000181467
0.000201064
0.006489
0.000139742
0.000141533
0.000142173
0.00015554
0.000144292
0.000142976
0.000149016
0.000139276
0.000147417
0.000138881
0.000171786
0.000142492
0.000144007
0.00442026
0.000147239
0.000143569
0.000145694
0.000132958
0.000141198
0.000155419
0.000153643
0.000187958
0.000138894
0.000229851
0.00597413
0.000142217
0.00022337
0.000148872
0.000140995
0.000178866
0.00507989
0.00017631
0.000137965
0.0761076
0.000146076
0.000146406
0.000177579
0.00423735
0.000141568
0.000154117
0.00021423
0.000150652
0.000150033
0.000166033
0.000153678
0.000147379
0.000145544
0.00982439
0.000143197
0.000161741
0.000155404
0.000143725
0.000130162
0.000182064
0.000950598
0.000142948
0.000150419
0.000139277
0.000142708
0.000175275
0.000143088
0.000133492
0.000139518
0.0114173
0.000175167
0.000149661
0.000152824
0.000151847
0.000143487
0.000120132
0.000141553
0.000174907
0.00761842
0.000138316
0.000133769
0.000141263
0.0083305
0.000135597
0.000135509
0.000138204
0.00115764
0.0625721
0.0384395
0.000186515
0.000132912
0.000145658
0.000181108
0.000185507
0.000160089
0.000155749
0.000195357
0.00618876
0.000141474
0.00017472
0.000227088
0.000140249
0.00014388
0.000148491
0.000141001
0.000171153
0.000154589
0.000138171
0.000166492
0.000154327
0.000133401
0.000191022
0.000173113
0.000142022
0.00469542
0.000141639
0.00603004
0.000139929
0.000202428
0.00667925
0.000133777
0.000157399
0.000161211
0.00013933
0.0626828
0.000157373
0.000145498
0.00980202
0.000143629
0.00013094
0.000166971
0.000141068
0.000203669
0.000165029
0.000169451
0.000161522
0.000157028
0.000143858
0.000140029
0.000159914
0.000155763
0.000150893
0.000157203
0.000143836
0.000175847
0.000137019
0.000133712
0.0167859
0.00504427
0.000205662
0.000236601
0.000139434
0.000235733
0.000139582
0.0157202
0.000143811
0.000137038
0.000181207
0.000228502
0.000196221
0.000152541
0.000139028
0.000131164
0.000192019
0.000141583
0.000195124
0.000160866
0.000243838
0.0586171
0.000160161
0.000143323
0.00667182
0.00014338
0.00817358
0.000142617
0.000167938
0.000195981
0.000141151
0.000149494
0.00018977
0.000146639
0.000253353
0.000141939
0.000137066
0.000138595
0.000145865
0.000151776
0.000139092
0.00923709
0.000144051
0.000146984
0.000155058
0.000243775
0.000160864
0.000139352
0.000181526
0.0179895
0.000139305
0.000142237
0.017077
0.000202825
0.00751041
0.000139304
0.0133316
0.000152228
0.000138538
0.000139495
0.000174018
0.000146526
0.00024362
0.000139299
0.000143341
0.00647913
0.000222869
0.000142435
0.00015855
0.00013934
0.0184883
0.000139536
0.000183206
0.00021712
0.0068224
0.00014205
0.011613
0.000143458
0.05021
0.000154797
0.000139841
0.00015085
8.73681e-05
0.000152144
0.0116316
0.000172107
0.000171818
0.000139455
0.000165523
0.00015586
0.000147028
0.00255335
0.000190298
0.000139708
0.000134871
0.000238542
0.000144033
0.000187609
0.000162084
0.000139464
0.000142406
0.000134718
0.000144171
0.000153363
0.000152489
0.000152581
0.0001752
0.000162132
0.000132944
0.00015734
0.000141593
0.00014217
0.00232433
0.00866661
0.000143877
0.000145148
0.000140681
0.000156393
0.000155867
0.000142676
0.000162608
0.000141828
0.000154023
0.000139381
0.000177776
0.000178995
0.000141535
0.000142174
0.000132201
0.0733545
0.000588946
0.000143778
0.0149399
0.00014334
0.00870323
0.000153003
0.000133932
0.000143786
0.000150966
0.000153686
0.000516501
0.000152631
0.000146071
0.000137463
0.000201026
0.000471191
0.000133821
0.000152989
0.000156
0.000147282
0.000138716
0.0130431
0.000147721
0.000143384
0.000141342
0.000157372
0.000143231
0.000141017
0.000141138
0.000136801
0.000153765
0.000144089
0.000114325
0.000145328
0.000139402
0.000185843
0.000193392
0.000175107
0.00015347
0.000133499
0.012531
0.000141858
0.000156387
0.000144012
0.000143954
0.000133881
0.000159648
0.0085879
0.0168155
0.0139566
0.0207647
0.000143972
0.00584788
0.000143345
0.000137054
0.000143847
0.00024065
0.000142336
0.000172688
0.00017867
0.00948031
0.000148906
0.00013584
0.0116011
0.000143109
0.000146171
0.0122741
0.0029964
0.0813299
0.000147438
0.000205735
0.000142239
0.0001857
0.000143356
0.0002249
0.000149927
0.000140063
0.00019557
0.000152446
0.00743035
0.000142084
0.0168099
0.000143011
0.000162729
0.000178225
0.000165813
0.000198219
0.000141438
0.000139289
0.00017586
0.000129897
0.000177205
0.013742
0.0679464
0.00148556
0.000156952
0.00600166
0.000197272
0.00667067
0.000159376
0.000172302
0.000176165
0.000142374
0.000139975
0.000144349
0.00015402
0.000143883
0.000147606
0.000136961
0.000142309
0.000143528
0.000133036
0.000166261
0.00018314
0.000176186
0.000201881
0.000185044
0.000138298
0.000182955
0.000156839
0.000153673
0.000141332
0.0173398
0.000145015
0.000145743
0.000141584
0.0829041
0.000141445
0.000923116
0.000165391
0.000148438
0.00153505
0.000154433
0.00015035
0.000140201
0.000133873
0.000139337
0.000155111
0.000156673
0.000202115
0.000148391
0.000176045
0.000149918
0.000159007
0.000294029
0.000146833
0.00152498
0.000143047
0.000143902
0.000144064
0.000143446
0.000172424
0.000139064
0.00753406
0.000143008
0.000145233
0.000144278
0.000159046
0.000150114
0.000143921
0.000140114
0.000169478
0.000138853
0.000138408
0.000185551
0.000143349
0.000789723
0.000141381
0.000142415
0.000158061
0.0170226
0.000191441
0.000133934
0.000148364
0.000149078
0.000133102
0.0094658
0.000146507
0.000136291
0.000216569
0.000176915
0.000140166
0.000214542
0.000142657
0.00263633
0.000131866
0.0001411
0.000153287
0.000184713
0.00014428
0.00807276
0.000145845
0.000146105
0.000141524
0.000136754
0.000135931
0.000143457
0.000146419
0.000158813
0.000140314
0.000143327
0.000141945
0.000142502
0.000184899
0.000172567
0.000140657
0.00100469
0.000141508
0.000157836
0.000286596
0.000132725
0.000143781
0.00204014
0.000140953
0.000136716
0.000144642
0.000181653
0.000202268
0.000165413
0.000141505
0.000218367
0.0465452
0.000158276
0.000140835
0.000194901
0.000173013
0.0001544
0.00488595
0.000149298
0.0586809
0.000134592
0.000149197
0.000175643
0.000154184
0.00016289
0.00919589
0.000203942
0.00757242
0.000173044
0.000143627
0.000139969
0.00014296
0.000143999
0.000142525
0.000133976
0.000453764
0.000151332
0.000137097
0.000134575
0.000144465
0.00020072
0.000141034
0.00016942
0.000150621
0.00772054
0.000159459
0.000140078
0.000142419
0.000146079
0.0143771
0.000144056
0.000169394
0.000140411
0.00163526
0.000143825
0.000175753
0.00448598
0.000143752
0.000148727
0.000132878
0.00016966
0.0001489
0.00804835
0.000169196
0.000174267
0.000132717
0.000164945
0.000143033
0.000132775
0.000134863
0.00013527
0.000155503
0.000200542
0.00795964
0.000140059
0.000138603
0.00015975
0.00013446
0.000153819
0.00014096
0.000163678
0.00891185
0.00270941
0.000141717
0.00893518
0.000153236
0.000136152
0.000192842
0.000165174
0.00014257
0.000140484
0.000177807
0.000132935
0.000160997
0.000144359
0.00014079
0.00013322
0.000140405
0.000144709
0.000151825
0.000147515
0.000145963
0.000185457
0.000140834
0.0130716
0.0309911
0.0160597
0.000163264
0.000140953
0.000148884
0.000146931
0.000144621
0.000149556
0.00370899
0.000142083
0.000148035
0.000188855
0.000137861
0.000889344
0.000135556
0.0113154
0.000143971
0.00013531
0.000148243
0.00013905
0.000138331
0.000134653
0.0083937
0.000133245
0.000185918
0.000163342
0.000182646
0.000137326
0.000141516
0.000142555
0.000189301
0.000164448
0.000141984
0.000154911
0.000137399
0.000132959
0.000140998
0.000167198
0.000155116
0.000149794
0.000138893
0.000172074
0.000164008
0.000142319
0.000168302
0.00621481
0.00016249
0.000165414
0.000183773
0.000247121
0.000133912
0.000214794
0.000142631
0.000141285
0.000142762
0.000188545
0.00015703
0.000139176
0.000134591
0.000133762
0.000138884
0.000215396
0.000173628
0.000181451
0.000128918
0.000254658
0.000132609
0.000159454
0.000207779
0.00018861
0.000152181
0.000133051
0.00733876
0.066611
0.000130249
0.000155243
0.000142744
0.00989281
0.00013983
0.000135027
0.00014113
0.000218812
0.000163498
0.000165908
0.000171902
0.000144114
0.000253211
0.000168502
0.000137106
0.000205844
0.000156714
0.000623387
0.00457737
0.000162087
0.000185921
0.000142036
0.00014106
0.0108076
0.000194046
0.000148415
0.000164272
0.000182634
0.00014198
0.000137798
0.00016911
0.000132617
0.000181396
0.000550951
0.000142435
0.053834
0.0507816
0.000152012
0.000143481
0.0735794
0.000155227
0.000141929
0.000141219
0.00794775
0.0113528
0.000225723
0.000132603
0.000134767
0.0736035
0.000132807
0.000174017
0.000146907
0.000132342
0.00309113
0.000139327
0.00012979
0.0120127
0.000157673
0.000143113
0.000138534
8.56143e-05
0.000149914
0.000130131
0.000151001
0.000157405
0.0001419
0.000135324
0.000160301
0.00013266
0.000154821
0.000132633
0.00015437
0.00013249
0.000132617
0.000135191
0.0088486
0.00847333
0.000141725
0.000157413
0.000144099
0.000143579
0.000165032
0.000132667
0.000172417
0.000146275
0.00361595
0.018575
0.000132734
0.000142142
0.000156615
0.000239426
0.000162578
0.000165246
0.00013269
0.0445727
0.000164746
0.000132696
0.000132699
0.000143977
0.0170465
0.00017076
0.000144304
0.000132952
0.000135363
0.000147285
0.000157944
0.000138588
0.000162799
0.00239762
0.000143756
0.000155162
0.000135088
0.00013324
0.000130083
0.000142328
0.0594929
0.0001465
0.000134423
0.000182552
0.00491229
0.000154541
0.00334737
0.00018039
0.000142547
0.000184811
0.000149735
0.0760541
0.000142584
0.000143157
0.000150396
0.017414
0.00711204
0.000147707
0.0186197
0.000184957
0.000172953
0.000148771
0.000141388
0.00017096
0.000137061
0.000139932
0.000159495
0.00941525
0.000133837
0.000137497
0.000132663
0.000179056
0.000160284
0.00183382
0.000135118
0.000153131
0.000151355
0.00891997
0.000147688
0.0106126
0.00866606
0.000155759
0.000200922
0.000187957
0.000148844
0.000139421
0.000172802
0.000135232
0.000216934
0.000135312
0.000153222
0.00015576
0.000147431
0.000148346
0.000135561
0.000142396
0.000177531
9.11042e-05
0.0168789
0.000203408
0.00013019
0.000148857
0.000141421
0.000222055
0.000140799
0.00015906
0.0108726
0.00013518
0.000142099
0.000141235
0.000142726
0.000137052
0.00014247
0.000146055
0.00014671
0.000144856
0.00013599
0.000180996
0.0153626
0.00560411
0.000136437
0.000140011
0.00728897
0.000130803
0.000162981
0.000155728
0.000149945
0.000141923
0.000146483
0.000187905
0.000136966
0.000136984
0.00014589
0.00013933
0.000168136
0.000147456
0.000152718
0.000142186
0.00384966
0.000141764
0.000154637
0.000172351
0.000151303
0.000211213
0.000158492
0.000143049
0.000137021
0.0177359
0.00721933
0.0014758
0.000178484
0.00016265
0.000134384
0.000133389
0.00015483
0.000146254
0.000142505
0.000132651
0.00927297
0.00013568
0.000141619
0.0749304
0.000143412
0.000142294
0.000136547
0.000139386
0.000139973
0.000133161
0.0179126
0.00108505
0.000157807
0.000156603
0.000154648
0.000479329
0.000152143
0.000147193
0.000148683
0.000247851
0.0154622
0.000169803
0.00128884
0.000173003
0.000188451
0.000141187
0.0014245
0.0781754
0.0161592
0.00016989
0.00014332
5.58217e-05
0.000133761
0.000439996
0.000137112
0.000140759
0.000155335
0.00014147
0.000115753
0.000139993
0.00018273
0.0556572
0.000143201
0.00830754
0.000143197
0.000137513
0.000172971
0.00255908
0.000144521
0.000143435
0.000139049
0.000134765
0.000225357
0.00198705
0.000154247
0.000224621
0.000136998
0.000141798
0.0120934
0.000142293
0.000171474
0.00892706
0.00831193
0.036786
0.000148188
0.000132609
0.000139454
0.000156833
0.00014098
0.00785739
0.000153992
0.000191247
0.000146155
0.00013264
0.000142226
0.000255283
0.000147537
0.00014902
0.000184756
0.000143452
0.000139721
0.0453407
0.0118617
0.000179774
0.000137755
0.000132542
0.000141554
0.000147659
0.000137865
0.000141563
0.000187879
0.000198145
0.000139426
0.000129093
0.000139407
0.00945052
0.000150975
0.000228313
0.000148274
0.000147121
0.000167736
0.00014331
0.00013772
0.000171614
0.000174885
0.000139456
0.000143756
0.000172526
0.000143378
0.000144104
0.00013477
0.0228139
0.000147902
0.000163986
0.00013946
0.000141097
0.000199852
0.000140865
0.000159362
0.000182429
0.00018228
0.000160012
0.000183073
0.0115248
0.000141516
0.000348711
0.000444475
0.000134499
0.000183067
0.000141341
0.000143821
0.0123653
0.0133217
0.000142633
0.000142831
0.000941571
0.0619439
0.000138762
0.000154625
0.000165864
0.00014271
0.000143378
0.000140054
0.00019012
0.000145678
0.000150545
0.000144139
0.000134528
0.000149086
0.0800928
0.00015608
0.00013906
0.0102939
0.000182787
0.000153536
0.000347185
0.000133206
0.000163158
0.000140273
0.000149608
0.000135707
0.0523682
0.00017603
0.000136378
0.0578678
0.000148786
0.000316112
0.000148394
0.000141615
0.00560054
0.00015429
0.0125278
0.00239967
0.000328163
0.000191039
0.000136147
0.000142137
0.00017334
0.000137156
0.000155755
0.000236266
0.0135474
0.00109496
6.10345e-05
0.00019312
0.00583394
0.000141377
0.000140098
0.000141238
0.000136089
0.0154949
0.000140219
0.000321802
0.000143697
0.00016571
0.000163097
0.000142944
0.000139107
0.000135007
0.000167482
0.000142301
0.000148036
0.0631539
0.00016805
0.0406771
0.000136429
0.000175935
0.000139142
0.000133265
0.0034622
0.000134624
0.000231359
0.000684987
0.000152011
0.000180078
0.00013936
0.043863
0.0001346
0.000142048
0.000158513
0.000145508
0.000134957
0.000144128
0.000165175
0.000166234
0.000144504
0.00014192
0.00018648
0.00015955
0.00822269
0.000149682
0.00013491
0.000141885
0.00720255
0.000134588
0.00016285
0.000152633
0.000167371
0.0001373
0.000184343
0.000177015
0.00016294
0.00016432
0.000139093
0.000271376
0.000138941
0.000135957
0.000382436
0.00223986
0.000154785
0.00250619
0.000134509
0.00491087
0.00314776
0.000161893
0.000138031
0.000138485
0.0242618
0.000130153
0.000141987
0.000135992
0.000158056
0.000144607
0.000143724
0.000142253
0.0001425
0.000171589
0.000146173
0.0001421
0.000161472
0.00022998
0.000157144
0.000145118
0.00016119
0.0081806
0.000174895
0.00139333
0.000149661
0.00922745
0.00111947
0.000136018
0.000203308
0.000143236
0.0793959
0.000136907
0.000157468
0.0109473
0.000140976
0.000141715
0.0210866
0.00376544
0.000158781
0.000102083
0.000206763
0.000218289
0.000150096
0.000139319
0.000141693
0.000143311
0.000174135
0.000137118
0.000133252
0.000144328
0.000143975
0.000217716
0.0154534
0.000142664
0.00726248
0.000139602
0.000137065
0.000142437
0.000145603
0.000155591
0.000169446
0.000145634
0.000183923
0.0432322
0.0777504
0.000161824
0.000153891
0.000146392
0.000141284
0.000176748
0.00013272
0.00015036
0.00672576
0.0504091
0.0135396
0.00017691
0.000144681
0.000152929
0.00022814
0.000154094
0.000141473
0.000182309
0.0177247
0.000197907
0.000143175
0.00529007
0.000166615
0.00014133
0.00316051
0.000132666
0.000149579
0.000141253
0.000146237
0.000140446
0.000148532
0.000175263
0.000143381
0.00013968
0.00773959
0.00711125
0.000154044
0.000132773
0.000148845
0.000166468
0.000143382
0.0493979
0.00444937
0.000152066
0.00805118
0.00859852
0.000153998
0.000148488
0.0034503
0.00014518
0.000164734
0.00471182
0.000137971
0.00735009
0.000172092
0.000155092
0.000140878
4.75651e-05
0.000144141
0.000140522
0.000149049
0.000141074
0.000141706
0.0158016
0.000166794
0.000132495
0.000159516
0.0002296
0.000143705
0.000145711
0.000148826
0.000141812
0.000139009
0.00734156
0.000162726
0.00014249
0.000166952
0.00899882
0.000143123
0.000267337
0.00026291
0.000147346
0.000132607
0.000131143
5.16626e-05
0.000138099
0.00752485
0.000163624
0.000157888
0.000135391
0.00242588
0.000191537
0.00405767
9.59222e-05
0.000141657
0.000159494
0.000160691
0.000135273
0.0213427
0.000132531
0.000144944
0.000138709
2.95145e-05
0.000143669
0.000137015
0.000146257
0.000174119
0.000139203
0.000141867
0.000148943
0.000157931
0.000144169
0.000194465
0.000132638
0.000145774
0.000143088
0.0281855
0.000764326
6.38882e-05
0.000140912
0.000148946
0.00013625
0.000185903
0.00013775
0.000135478
0.000142684
0.00013247
0.000143008
0.000141268
0.000142977
0.000319859
0.000200494
0.000139513
0.0062674
0.00013242
0.000179324
0.000140837
0.00822606
0.000143355
0.000141244
0.000182364
0.000148036
0.000135887
0.000194944
0.000152478
0.000162986
0.000215648
0.000144122
0.000219127
0.0166213
0.000177603
0.000169006
0.000138179
0.000143908
0.00172974
0.00034973
0.000149071
0.00475413
0.000134642
0.000165592
0.000147284
0.000130188
0.000197526
0.000197126
0.000138896
0.00015754
0.00015004
0.00755019
0.00899455
0.000157778
0.00016722
0.0147657
0.000145292
0.000132914
0.000137089
0.0815761
0.000161868
0.000187181
0.000184514
0.000135821
0.000203043
0.0401345
0.000146678
0.000177667
0.000134678
0.000140349
0.000189397
0.000136225
4.77792e-05
0.000198968
0.000117885
0.000141986
0.000189868
0.000379048
0.058547
0.000184263
0.000137049
0.000146456
0.000142697
0.000100612
0.0458924
0.000140651
0.000184548
0.000135678
0.000188444
0.000323346
0.00183865
0.000195077
0.000166244
0.000147361
0.000138937
0.000153675
0.000142285
0.00159382
0.000178951
0.000180177
0.000137936
0.000135512
0.00018242
0.00389698
0.0367998
0.000139947
0.000139189
0.000132961
0.000135015
0.000151927
0.000168697
0.000158526
0.000140145
0.000135091
0.000196978
0.000136289
0.000152598
0.000167812
0.000140566
0.000132552
0.000147804
0.000134503
0.00167012
0.000135151
0.000141331
0.000142338
0.000141747
0.000176843
0.000139296
0.000336419
0.00013455
0.000143798
0.000159621
0.000289803
0.000133451
0.000152227
0.000178764
0.000134338
0.000140991
0.000184811
0.00014032
0.00013593
0.00558066
0.000135753
0.00986273
0.000140855
0.000135345
0.000194478
0.00803178
0.00990794
0.000147873
0.000185729
0.000181441
0.000189864
0.000132664
0.000155866
0.000159577
0.0131889
0.00857327
0.00641096
0.000167195
0.00754915
0.000140842
0.0229583
0.000452628
0.00825101
0.000138269
0.000161402
0.000158797
0.000140763
0.000176939
0.000137263
0.000148316
0.000141153
0.000142969
0.000152093
0.000142291
0.00018418
0.010292
0.000143775
0.000137916
0.000156113
0.0350355
0.000140013
0.000151521
0.000135413
0.000139545
0.000159855
0.00838328
0.000172415
0.00802739
0.0830184
0.000157015
7.52235e-05
0.000138201
0.000138093
0.000147369
0.000154829
0.000143491
0.000149739
0.00596539
0.000139473
0.000134747
0.000145399
0.000140241
0.000149804
0.082277
0.000149954
0.000137172
0.000151429
0.000155131
0.000139225
0.00146442
0.000149318
0.00261836
0.000136858
0.000139836
0.000143041
0.00293692
0.000141233
0.000143875
0.0136157
0.000144028
0.00013777
0.000196788
0.000153608
0.000172426
0.00013737
0.000143252
0.000175893
0.00183022
0.000140108
0.000162918
0.00930608
0.000134543
0.000139852
0.000139101
0.000160854
0.000143136
0.000265675
0.00015907
0.000246439
0.000209462
0.00122548
0.000194984
0.000159263
0.000212893
0.000152256
0.000140998
0.000169757
0.000197611
0.00361853
0.000171744
0.000470108
0.000139307
6.511e-05
0.00015307
0.000140634
0.00707478
0.000138956
0.000135326
0.00841924
0.000143758
0.000139927
0.000141141
0.00468283
0.000171977
0.000170972
0.000134883
0.000147818
0.000144637
0.000187106
0.000158731
0.000177171
0.000141977
0.000139344
0.000157467
0.000142153
0.000150646
0.000150999
0.000176332
0.000151311
0.000135735
0.000145809
0.000224782
0.000143492
0.000183749
0.000142329
0.000203387
0.00014297
0.000141331
0.000135951
0.00017046
0.000140871
0.000149389
0.000200744
0.000144162
0.000259686
0.000226341
0.000152128
0.000177536
0.000142875
0.000142937
0.000136904
0.000140229
0.000184778
0.000147717
0.000169561
0.000139756
0.00015957
0.000398205
0.000140957
0.000157843
0.000141294
0.00803178
0.000150906
0.000137615
0.0114183
0.000178215
0.000135613
0.000171221
0.00016854
0.0109444
0.000156215
0.000134382
0.000141364
0.000141044
0.00787702
0.0134862
0.000319994
0.000152846
0.000170779
0.000156621
0.000153488
0.000159398
0.0061272
0.000142717
0.0001854
0.000179827
0.00908348
0.000221133
0.000145951
0.000186564
0.000133109
0.000160847
0.000172217
0.000149987
0.000261894
7.20947e-05
0.000178567
0.000139087
0.000146262
0.000140512
0.000783778
0.0159632
0.000141648
0.00015389
0.00680826
0.000139066
0.000183213
0.00015148
0.000143723
0.000141338
0.000132549
0.000215434
0.000155446
0.000141334
0.000184576
0.000164281
0.000146391
0.000838868
0.000159738
0.000137695
0.0104619
0.000166487
0.000169017
0.000142765
0.000152771
0.000141356
0.0104603
0.000132194
0.000149838
0.000141615
0.000159427
0.000184329
0.052778
0.000141536
0.00013473
0.000181074
0.000145475
0.00894114
0.000143525
0.00017058
0.000147185
0.0081305
0.000169087
0.000147456
0.000141372
0.000143674
0.00817918
0.000145546
0.000135496
0.000143118
0.0028127
0.000167847
0.000173286
0.00309532
0.000148097
0.000173173
0.00749478
0.000139088
0.00017187
0.000210545
0.000135204
0.000141382
0.000152307
0.000142227
0.000141807
0.00014927
0.000132254
0.00017232
0.00014071
0.000149135
0.0818354
0.000216451
0.000161792
0.000141755
0.000159148
0.000135606
0.00399289
0.000141105
0.00812189
0.000143869
0.000141504
0.000192815
0.0795417
0.000139438
0.000147227
0.000142339
0.000146067
0.000149725
0.000141784
0.000137243
0.000148207
0.0115832
0.000166166
0.000153551
0.000163524
0.000142361
0.000159105
0.000163573
0.000140101
0.000139253
0.00291223
0.000170058
0.000138739
0.000556866
0.000149537
0.000142205
0.0449675
0.000149652
0.0001511
0.000138005
0.000148626
0.0196114
0.0069593
0.000178157
0.010403
0.000138098
0.000141965
0.000137872
0.000147993
0.00014874
0.000142145
0.000141037
0.00383356
0.000142241
0.000153335
0.000161971
0.000140917
0.000163736
0.000150407
0.0392382
0.000240301
0.000162677
0.000283684
0.000141755
0.00344781
0.000143896
0.0117354
0.000147959
0.000150531
0.0143201
0.000166076
0.000141478
0.000471043
0.000135499
0.0116109
0.0150598
0.000202164
0.00821888
0.000143286
0.000182637
0.000148625
0.000146128
0.00018424
0.000149438
0.000161127
0.000146669
0.000157112
0.00506686
0.000141405
0.000134808
0.000157443
0.000141061
0.000142434
0.000138508
0.000155269
0.000159303
0.000224936
0.000134691
0.000161427
0.00347621
0.000169334
0.000151721
0.000143141
0.000184549
0.000138683
0.000152238
0.000183108
0.000141484
0.000159879
0.000150309
0.000132493
0.000158839
0.000113435
0.000140755
0.000147211
0.000140493
0.000154622
0.000147031
0.0139128
0.000143449
0.000138032
0.000142456
0.000179407
0.00822941
0.0146435
0.0791128
0.000141793
0.000160863
0.00014125
0.000143943
0.000155529
0.000143063
0.000140086
0.000144295
0.000134772
0.000168603
0.000157069