/*--------------------------------*- C++ -*----------------------------------*\
| =========                 |                                                 |
| \\      /  F ield         | OpenFOAM: The Open Source CFD Toolbox           |
|  \\    /   O peration     | Version:  v2012                                 |
|   \\  /    A nd           | Website:  www.openfoam.com                      |
|    \\/     M anipulation  |                                                 |
\*---------------------------------------------------------------------------*/
FoamFile
{
    version     2.0;
    format      ascii;
    class       volScalarField;
    location    "400";
    object      p;
}
// * * * * * * * * * * * * * * * * * * * * * * * * * * * * * * * * * * * * * //

dimensions      [0 2 -2 0 0 0 0];


internalField   nonuniform List<scalar> 
18540
(
-0.00447278
0.00615728
0.0149606
-0.00101857
0.00874991
0.000603507
0.0154297
-0.0262005
0.00628587
0.00941428
0.00288947
-0.0456255
0.0355667
-0.255496
0.00947122
0.00623102
0.0109372
0.0149261
0.00868217
0.0155845
-0.000493141
0.00109255
0.00368558
-0.00243577
0.00950593
0.00916134
0.00328346
-0.14382
0.00337211
-0.266138
-0.153548
0.00251513
0.0169258
0.00459554
0.00828306
0.00987136
0.0111718
0.011914
0.00687923
-0.00662069
-0.029262
0.00604303
0.0122547
0.0168597
0.0104079
0.00479265
0.00837096
0.00989932
0.00831296
-0.00788677
0.0111987
0.00833536
0.00353611
-0.0441131
0.00578323
-0.149531
-0.00792495
0.013926
-0.0053703
0.00109527
-0.000936649
0.0145205
0.0132542
0.00979976
0.0087915
0.00566552
0.0104672
0.00480515
-0.0363909
0.00987694
0.0153898
0.000988747
0.00406064
0.00976397
0.00826346
-0.0430008
0.030955
0.00983182
0.0154002
-0.0293647
0.0104486
0.0140935
0.000997554
0.0108935
0.00284954
0.0153293
0.0425756
0.00241838
0.0159164
-0.0120024
0.011198
-0.342268
0.0317272
0.00877427
0.00560034
0.00840043
0.0460515
0.0139827
-0.00227808
0.0151835
0.00547477
0.0164837
0.0150223
0.00523844
0.00549728
0.00551544
0.0158341
0.0259363
0.0165247
0.0144955
-0.0026605
0.00967703
0.0158169
0.0123768
0.00539788
0.00535177
0.0105621
0.0148354
0.0171076
0.0150223
0.0139634
-0.3633
0.0849396
0.014482
0.0139606
0.0167967
0.0160059
0.0100555
0.00883856
-0.00530403
0.0569434
0.0170745
0.0133218
0.0818606
0.00438329
0.00881348
0.0127218
-0.00153885
0.0132381
0.00527634
0.00057999
0.0127978
0.0145438
-0.000201609
-0.0049397
0.0182108
-0.00441219
-0.0348699
0.00707538
0.00570973
-0.0656252
0.0168763
0.0106469
0.0117942
0.0109401
0.00398696
-0.00186527
0.0121907
0.0144244
-0.00163473
-0.0176284
0.0562018
0.0185055
-0.0752556
0.0219475
0.0121334
0.0197392
0.0144563
0.0147164
0.0146388
0.0174289
0.0153365
0.0198402
0.0806786
0.00324936
0.00232915
0.00359715
-0.157135
0.0135051
0.0144693
0.046267
0.0162097
0.0154021
0.00404804
0.0145924
0.0199164
-0.104553
0.00281598
-0.0280829
-0.0188438
0.0224898
-0.0840168
0.0108065
-0.0202751
0.0129996
0.0145296
-0.00913258
-0.102528
0.0153195
0.0221336
0.0145265
-0.091178
0.01033
-0.00126458
0.000556861
0.0112249
-0.00930992
0.0121461
-0.0226887
-0.217987
0.0143955
0.0148026
0.0103133
0.0129965
-0.0372659
-0.24881
0.00687503
0.0102995
-0.0587917
-0.00750999
0.00992418
0.000364096
-0.0333174
0.0137307
0.0100782
0.0148392
-0.00427646
0.0301717
0.00989521
0.0161521
0.0043418
0.00335346
-0.0833766
-0.0319466
0.0333032
-0.0330284
-0.0121149
-0.000978013
0.000511039
0.00881626
0.0110928
0.0122157
-0.00892941
0.00822962
0.00561172
0.0132674
0.011197
0.0141398
-0.00834354
0.0118911
0.0168401
-0.202955
0.0110826
0.0146468
-0.0957802
0.00931617
-0.00510017
0.00558987
-0.0159769
-0.010674
-0.00933605
0.00193287
-0.102119
0.00947079
0.0125653
0.00930622
0.0136601
0.0162794
-0.0970252
0.0123672
0.0045509
0.012259
0.0029433
0.00555587
0.00988318
0.0136736
0.0164634
-0.0309804
-0.0045026
0.0110749
0.00651745
0.0143466
-0.0371238
0.0144112
0.0126059
0.0457748
0.0150257
0.016513
0.0169357
-0.0109257
0.012505
0.0189342
0.0338505
0.0199811
0.0142443
0.0125285
0.00413801
0.0152636
-0.00156736
0.0132622
0.00675218
0.0117036
0.0143907
-0.00450214
-0.0170964
0.0146645
0.0246869
0.0154544
0.0179896
0.00670009
0.0141716
0.00965456
0.0143068
0.0113126
-0.040034
0.016919
0.00105142
0.0196566
0.0112329
0.0121052
0.014857
0.00383739
0.00905189
0.00454462
-0.00231007
0.00807361
0.0102261
0.0150838
0.0144737
0.00973924
0.00682157
0.00447549
0.0144693
0.0143829
0.0129299
0.0148499
-9.96602e-05
0.00983593
0.015827
0.0144086
0.019662
0.0145202
0.00687143
0.0144429
0.0167397
0.000770055
0.0197552
-0.0416746
0.0142663
0.0167292
0.00572416
0.00363835
0.00958622
0.0145886
0.0170413
-0.00417995
0.0105663
0.00978229
0.00732687
0.0126205
0.0139708
0.0146902
0.0247481
-0.00988468
0.0153168
0.0153399
0.00888909
0.0146918
0.00176741
0.0236722
0.0143567
0.00290066
0.0083766
-0.039404
-0.0708084
0.00656433
0.00288294
0.0190921
-0.00447869
0.0150966
-0.0805952
0.0128737
-0.00149492
0.0147387
0.0266316
0.00337013
0.0117825
0.0092093
-0.013075
0.0547177
0.0118818
-0.0854523
0.0104941
0.00377565
0.00796969
0.0464155
0.00564473
0.016636
-0.00856175
0.015308
0.00414611
-0.0319499
0.0253608
0.0211043
0.00961889
0.0141827
0.0149165
0.0355575
0.00590371
0.00803813
0.000966468
0.00939131
0.0149936
0.0141037
0.020054
0.00246157
0.00984266
0.0262745
0.0146421
0.0134049
-0.034082
0.0142805
0.00410305
0.00922317
0.0245444
0.0118637
0.00806326
0.00833176
-0.0113066
0.0144946
0.0102843
5.52907e-06
0.00398977
0.0111871
0.00944346
0.00403565
0.00893526
-0.00393177
0.0100207
0.00618627
-0.0466038
-0.0059361
0.0468408
0.0081504
0.0116869
0.012786
0.014307
-0.017362
0.00392965
0.00910043
-0.0823038
0.01044
0.00442802
0.00903872
0.00111051
0.00895805
-0.218742
0.0105954
0.0197392
0.0147759
0.0147439
0.00999173
-0.00256539
0.00479019
-0.235231
0.0100125
0.0127003
-0.0195095
0.00942773
0.00177388
0.0106139
0.000184883
0.0143724
0.0130985
0.0146979
0.0129243
-0.00156066
0.000846788
0.0105742
0.011539
0.0427326
0.0147348
0.0240243
0.00241455
0.0145026
0.00374471
0.0515102
-0.00166827
-0.0407713
0.00581877
0.0421306
0.0063541
-0.0187043
0.00724423
0.00286585
0.0108345
0.00968706
0.00638705
0.0141503
0.000273538
0.0269499
0.0155874
-0.0506042
0.00121695
0.00221318
0.00630477
0.00969923
0.0151048
0.0142474
0.0131944
0.010356
-0.0387998
0.00697178
0.00945826
0.0084757
-0.0347795
0.00814132
0.0153081
0.0113079
0.00181971
0.0144388
0.0108704
0.00971665
0.0656816
0.022203
0.0101756
0.0153804
0.0100299
0.0176627
-0.0194829
0.00479082
-0.0313513
0.00344658
0.000285699
0.00485601
0.00662476
0.0152486
0.00993596
0.0146707
0.0112576
0.0147594
0.00837071
-0.0165496
0.0155043
0.0126461
-0.00742156
-0.0349024
0.0137296
-0.00485887
-0.039786
0.00293218
0.00459676
0.00676136
0.0113917
0.00353577
0.0227625
-0.0129743
0.0065931
0.0109585
0.0106479
0.00660386
-0.0360371
0.0169154
0.000483725
0.0383188
0.00564036
0.0162197
0.00987493
0.0169437
0.00193605
0.00958338
-0.0445122
-0.230749
0.0162427
0.0363726
-0.0910025
0.0308832
0.0144998
0.00468303
0.00947755
0.0161355
0.0146095
0.0131149
-0.0256309
0.00488344
0.00373104
0.0154712
0.0132538
0.00766095
0.00805391
0.00648385
0.015137
0.0162801
0.0160811
0.00919542
-0.0134681
0.0104494
0.0144951
0.0146617
0.0103359
0.0150346
0.0140375
0.0148844
0.00343388
0.00348243
0.0041119
0.00198668
0.0200009
0.0114599
0.00190413
0.000188523
0.0111091
-0.105906
-0.0015228
0.012534
0.0136851
0.0149253
0.00955211
0.0143798
0.0151444
0.00453789
0.0118347
0.0116677
0.0119374
0.0211499
0.00649012
0.0124285
0.00959369
0.0150919
0.0132188
0.0144504
0.00381924
0.0139885
0.0187217
-0.00865084
0.0171672
0.0110192
0.0125297
0.0104133
0.0149464
-0.0634951
0.016851
0.0140449
0.0239419
0.000389983
0.0188308
0.0071845
0.0705737
0.016001
0.0116352
0.015376
0.00471822
0.0118491
0.00239132
0.0114842
-0.000351487
0.0148804
0.0179996
-0.00261141
0.00749065
0.00630382
-0.00165122
0.0151906
0.00109814
0.00414151
0.0153263
0.000275316
0.0169862
0.00151624
0.0150697
-4.56371e-05
0.0125193
0.0149797
0.0126223
0.0143258
0.0044314
0.012811
0.00495743
0.0114536
0.0134327
0.00979273
0.0135428
0.014377
0.00748088
0.0143845
-0.0285059
-0.00595651
0.0102795
0.00475188
0.0117991
0.0185078
0.00614328
0.00616856
0.0110285
0.00970442
0.106124
0.0383007
0.0287828
0.0037582
0.0116793
0.0273509
7.38664e-05
-0.00697349
0.00428935
0.0109375
0.00363059
0.0145469
-0.0363731
0.0262924
0.0100952
0.0127282
0.00468331
0.0140474
0.0109056
-0.00303316
0.0109957
0.0176089
0.0190517
0.00450299
0.0146802
-0.00131553
0.0148138
0.0087807
0.0143903
0.00682163
0.0132192
-0.0948399
0.00389394
0.00487304
-0.0141227
0.00252199
0.0118224
0.102923
0.00179679
0.011729
-0.0280373
0.0168332
0.000250947
0.00062412
0.0140885
-0.000692357
0.0318025
0.00799632
0.000777578
-0.0139783
0.0127332
0.0133191
-0.00619765
0.0193401
0.0120419
0.00113572
0.014499
0.0115157
0.00945208
0.00458692
-0.137226
-0.00278696
-0.00438398
0.00686391
0.0127108
0.00480746
0.0125677
-0.15935
0.0128511
0.00908355
0.0133606
0.0136703
0.00900834
0.00959897
0.0101154
0.000477878
-0.0232151
0.0138214
-0.0123066
0.0155228
0.0230704
-0.0152607
0.00807514
0.0150902
0.00920951
0.0105678
0.0189987
0.0151165
0.0111053
0.0263627
0.0142828
0.0145615
0.0267029
0.0157819
0.0186357
0.014607
0.0095336
0.0115208
0.00846278
0.0127984
0.0102142
-0.00514123
0.0127996
0.0121486
0.00935859
0.0144056
0.0162482
0.0126035
0.0182876
-0.0469431
0.00783626
0.014868
-0.141183
-0.00140921
-0.000830881
0.00548366
0.00819231
0.0133749
0.0114387
0.00736746
0.00877487
0.0158276
-0.0846224
0.00541911
0.0151852
0.00942004
0.0124267
0.0150488
0.00671458
0.0115158
-0.0189107
0.0124764
0.012237
0.0125305
0.00967065
0.0146403
0.00664568
0.0107264
-0.0662863
0.00948692
0.0126174
0.00528571
0.0152878
0.00298078
0.0239909
-0.00677306
0.0198859
0.0123992
0.0110627
0.00929029
0.0119998
0.0106281
0.0433503
0.00700017
0.0049647
-0.0269429
0.00895019
0.0101782
0.00856622
0.012744
0.0134606
0.00501279
0.0130438
0.00823419
0.0180538
0.000640574
0.0252512
-0.02346
0.00374497
0.00352509
0.0143904
0.014873
-0.0108414
-0.00639391
0.0127222
0.00816672
0.0112578
0.00495008
0.0125431
0.0135119
0.0221029
0.0147526
0.00942106
0.0116379
0.00106989
0.00125134
0.0104089
0.0148911
0.000367955
0.0963959
0.0146723
0.0129586
-0.0543341
0.0145664
-0.00920288
0.0139535
0.00516484
0.0129437
0.0134858
0.0187941
0.0130228
0.000903603
0.0144783
0.0098181
0.0389994
-0.198626
0.00496774
0.0136696
0.00496168
0.00986533
0.0116777
-0.0402599
0.0119485
0.0149991
0.0144073
0.0161532
0.0153559
0.0139385
0.0139598
0.0086259
0.014624
0.0147913
0.0149053
0.0113208
0.0126674
0.0185219
-0.00929306
0.0122296
0.0128519
0.0045249
-0.0469677
0.0145534
-0.0136425
0.0124703
0.0129285
0.00503623
0.0115046
-0.00334387
-0.215461
-0.0600615
-0.138838
0.0149654
0.00633259
0.0150165
0.00936266
0.0143284
0.0155525
0.0143377
-0.0449563
0.022563
0.00105818
0.00954043
0.000162757
0.00757372
0.0143714
0.0143681
-0.0303811
-0.00605687
0.0542392
0.011627
-0.0994776
0.0144005
0.0188606
0.0154632
-0.0151644
0.013392
0.0132668
0.0265249
0.00964006
0.00131943
0.0146366
-0.177419
0.0154723
0.0223458
0.0153335
-0.00442762
0.00427116
0.0143283
0.0117227
-0.0320659
0.000287067
-0.0261058
-0.0507784
0.0184688
0.00688094
0.0135794
0.00436232
0.0177158
-2.16392e-05
0.00451922
0.0173546
-0.02324
0.0143148
0.0132426
0.0157705
0.00871548
0.0145996
0.00772194
0.00906106
0.00650804
0.0141918
0.0038657
0.00437996
0.00153639
0.0780292
-0.112586
0.0112199
0.0100398
0.00970776
0.00896139
0.00970042
0.0144181
-0.067203
0.0142347
0.0107021
0.0145587
0.0760801
0.0143186
-0.210579
-0.00398735
0.0151608
-0.0371995
-0.00794536
-0.00036407
0.00443733
0.00506596
0.0117283
-0.00156115
0.012884
0.0198077
0.0174968
0.00827444
0.0150303
0.00314919
0.0275544
0.0164813
-0.0803692
0.0153108
0.0126541
0.0136355
0.00453572
0.0114543
0.0109491
-0.00329876
0.0153338
0.0113777
0.0156936
0.00959824
-4.08296e-05
0.012591
0.0133306
0.00807749
0.00438234
0.00437454
0.0270692
0.0134984
-0.0842428
0.0144804
0.0142646
0.00828182
-0.0141717
0.0441831
0.00513476
0.0165656
0.00638876
0.00441379
-0.00093176
0.0141701
0.000241737
0.0274545
0.00864363
0.0101961
0.0114918
0.0123709
-0.203089
0.00028578
0.0142567
0.00830039
0.0175808
0.0139141
-0.0200564
0.0149728
0.00834369
0.0145729
0.00586153
0.00739603
0.0141209
0.016671
0.00995843
0.0112155
0.0148352
0.0148155
0.0150011
0.0109909
0.0117662
0.0138029
-0.0389669
0.0144754
0.0106572
-0.0327652
0.00360221
0.0147134
0.00578097
0.0139843
0.00581513
0.0113785
0.0162009
0.0126115
0.000718972
0.0145081
0.0114634
-0.0705505
-0.0122307
0.0139031
-0.0195462
0.01805
-0.00857561
0.0016909
0.00625629
0.0251591
0.00449135
0.00408364
0.00846487
0.0018067
0.0169842
0.000123205
0.0136637
0.000299125
0.0205535
0.0131864
0.0130435
0.0152542
0.013236
0.0148439
0.000422581
0.00421204
0.01442
0.00970088
0.00575888
0.0107767
0.00994194
0.0142026
0.00559899
0.00862885
0.0123085
0.00283439
0.0111525
0.0142781
0.00932877
-0.00141668
0.0141967
-0.00310971
0.00985966
0.00528004
0.0148397
0.00413301
0.0299945
0.013142
0.00448506
0.00294277
-0.000780302
0.0040711
-0.0117327
0.0203541
0.0110023
0.00288066
0.0050603
0.0152111
0.00378443
0.00568385
0.000695081
0.00866586
0.0182496
-0.000202172
0.0131202
0.00730341
0.00943148
0.0056013
0.0126258
0.0135484
-0.000497712
-0.0094974
0.0154423
0.0136467
-0.0304928
0.00949978
0.00650937
0.000126052
0.0050575
0.0151256
0.010265
0.0114124
0.000817938
0.0019042
0.0155132
0.0139196
0.00423171
0.00974763
0.014436
-0.00407173
0.00876919
0.00864366
0.0270948
0.0139583
-0.0477302
-0.0149208
-0.256379
0.000448736
0.0134713
0.00926254
0.0105678
0.0113677
0.0142477
0.0124709
0.0145619
0.0115336
0.0180757
0.00461704
-0.0515339
0.00624769
-0.0259096
0.0142627
0.00626652
0.00579568
0.0105229
0.00994437
0.00562933
-0.00900787
0.0042128
0.00573427
0.00459098
0.00456639
0.00912081
0.0145477
0.0148137
0.00565558
0.0171229
0.0136891
0.0121055
0.00915826
0.00392155
0.0090332
-0.0332676
0.0189416
0.0130989
0.0111439
0.0118436
0.0177169
0.0123197
0.0825363
-0.00157136
0.00845244
0.00943598
0.00235877
-0.112167
0.00466423
0.0250702
0.0152544
0.0138492
0.0148943
0.00887066
0.0141692
0.0104925
0.00497266
0.00455702
0.0119284
0.0220178
0.0112059
-0.0358324
-0.0590699
-0.0208264
0.00361144
0.00943186
-0.020415
0.0285598
0.00495868
0.00394498
-0.00544434
0.0553658
0.000223442
-0.00669192
0.0151284
0.00413154
0.00644069
0.00500493
0.0136175
0.0278527
0.0172579
0.00464381
0.00390154
0.0150933
-0.0176209
0.0111146
0.00945436
0.0120036
0.000812618
0.0276562
0.00804842
0.01688
0.0122203
0.0145483
0.0140848
0.00934893
-0.00202463
0.00880637
0.000144194
0.0280054
0.014609
0.00980053
0.01077
0.00336828
0.0115122
0.0087649
0.0149945
0.105736
-0.302803
0.00992918
0.0133234
0.062237
0.00307063
0.0147127
0.0143336
-0.00252277
0.0252134
0.0256574
0.00329238
0.00451992
0.0987198
0.00355178
0.00367316
0.0167512
0.0034822
0.00482501
0.012577
0.000201777
0.00437912
0.0103234
0.0153946
0.00993388
0.0269121
0.0147704
0.000197229
0.00574109
0.0136348
0.0147124
0.00650806
0.0113078
0.00335715
-0.00737591
0.00314329
0.0122555
0.0029515
0.00321615
0.0051115
-0.0338917
-0.014212
0.0144664
0.0207341
0.0153833
0.0132728
0.00869004
0.00328261
0.0103065
0.00902611
0.00416814
-0.175719
0.00275682
0.0146774
-0.0146961
0.0231245
0.00874751
0.0188939
0.00320657
0.0499107
-0.00766402
0.00351836
0.0031354
0.0131509
-0.0188066
0.0211242
0.00800579
0.00300571
0.00647236
0.0169989
-0.012158
0.0100319
0.0045734
0.00659619
0.0143223
-0.00736816
0.00522472
0.00431831
0.00020723
0.0148778
-0.107217
0.00744807
0.00487296
0.014888
0.00295114
0.0185147
0.0057623
0.0242363
0.0150506
0.00471217
0.00910133
-0.00896464
0.0149431
0.0143963
0.0155399
-0.254045
-0.0130077
0.0165956
-0.184174
0.0137881
-0.00475279
0.00473073
0.0142928
0.0147241
0.00957562
0.00991342
-0.0065284
0.00278496
0.00493903
0.0089465
0.00372646
0.0120061
0.0166014
0.00736145
0.00529475
0.0188204
0.00407361
-0.0167064
0.00841284
0.00826721
-0.00171217
0.0149515
0.00859138
0.0116642
0.00310745
0.0126951
0.0129694
0.00590337
0.0147244
0.00684827
0.0184038
0.0100939
0.00995866
0.00516842
0.0049945
0.015017
0.020752
0.0041865
-0.0130314
0.0443318
0.000165079
0.0169799
0.0138856
-0.0383207
0.0133834
0.0159602
-0.00874841
0.00583879
0.0147957
0.0101066
0.0141933
0.00932437
0.0148995
0.00811889
0.00426527
0.0082362
-0.11252
0.00230748
-0.336177
0.000386427
0.00888086
0.00878106
0.0288579
0.00031227
-0.00200057
0.0170031
0.0107395
0.0146457
0.00699253
0.0116741
0.00932967
0.00899222
0.0148047
0.0122388
0.00799303
0.0102668
0.0179359
0.0144192
0.0255702
0.0146648
0.0119555
0.0187082
0.00372061
0.0222681
-0.00936258
0.0148695
0.00911708
-0.296017
0.0042276
0.00707662
0.00640774
-0.023635
0.00497458
0.000318422
0.00853337
0.0159805
0.0144771
0.0030742
-0.00785095
0.00763888
0.014629
-0.026515
0.0154352
0.0149715
0.00896776
0.0126521
0.00868349
0.00445815
-0.123549
0.00710549
0.00830308
8.66293e-05
-0.00229804
-0.0537394
0.0182815
0.0163099
0.00342027
0.0242615
-0.137821
0.0110212
0.00549982
-0.0336046
0.00432537
0.0143373
0.00679902
0.0934783
-0.189895
0.00444572
0.0162454
0.0363035
0.00465483
-0.0141986
0.00965777
0.0138838
0.0141602
0.00940012
0.00385521
0.0132762
-0.0394326
0.105725
0.0150752
-0.00599431
0.014814
0.00903235
0.0135723
-0.0573576
0.0115959
0.0133914
0.0122003
0.00532571
0.0151809
0.00819376
-0.00309507
0.0254564
0.00923128
0.0146717
-0.00645026
0.0149268
-0.0163739
-0.00207763
-0.0105205
0.0567848
0.0148073
0.00367331
0.0127255
0.00436915
0.0141722
0.00159023
0.0192172
0.0323951
0.0124895
0.00281667
0.00922692
0.0117445
0.00836156
0.00607422
0.01593
0.0143909
0.0126336
-0.0863879
-0.0396108
0.0260085
0.0104741
0.00366172
0.00789095
0.00815458
0.00987762
0.0095109
0.0234797
0.0514072
0.0044282
0.0127314
0.0123098
-0.256129
0.0150664
0.028935
0.00895652
0.00614656
0.00152269
0.0135155
0.0103834
0.0112319
0.0188699
0.00313615
0.00900276
0.00577282
0.013726
0.0137103
0.00564018
0.0366615
0.01728
0.00183763
0.0127183
0.0142683
0.00758814
0.0140391
-0.00578215
0.0264343
0.0129784
0.00735446
0.0154959
0.00847799
0.00906946
0.00678702
-0.0586493
0.00470007
-0.0494483
0.0142593
0.0150101
-0.0514766
-0.0138907
0.0151967
0.0151315
0.0259651
-0.0871646
0.0107452
0.0044436
-0.0211528
0.014518
0.0109907
0.0131978
0.0477715
0.00448728
0.0133879
0.0151782
0.00476457
0.0127145
0.0828165
0.0161411
0.0122202
0.00904237
0.0268623
0.0139854
0.0242511
0.00455646
0.00527537
0.013566
0.010265
0.00779852
-0.28944
0.0116334
0.00862145
0.0512798
0.00623617
0.00740749
0.00540717
0.0146023
0.0305618
0.0043071
-0.00255639
-0.21313
-0.0610189
0.0354521
0.00811322
0.0148532
0.0164056
0.0059564
-0.00588661
0.00683752
0.015281
0.0842587
0.00781257
0.0176019
0.0284222
0.0144396
0.0132644
0.0143774
0.00806464
-0.00304096
0.0135153
0.0303686
0.0153714
-0.00216251
0.00375435
0.0148065
0.0110481
0.00404416
0.0196841
0.0146664
0.00720287
0.086851
0.00447894
-0.0483716
0.00871214
0.00810701
0.0121287
0.00429793
0.00537214
0.00394774
-0.0117277
0.00791305
0.00523035
0.0112407
0.0126188
-0.0977533
0.00554758
0.014501
-0.00825151
0.012343
0.0039945
0.0143929
0.00815894
0.0185924
0.0115896
0.0143996
0.0100114
0.00752832
0.0127574
0.0135548
0.00567862
0.0147329
0.105761
0.00572333
0.00881429
0.00982676
0.00309621
0.00433088
0.0264114
0.0196983
-0.00330793
-0.00692405
0.0122613
-0.119064
0.0108922
0.00792585
0.00715307
0.00649465
-0.00809323
-0.00343672
0.00571594
0.00257378
0.00522715
0.0163369
0.0108449
0.0110909
0.0154166
0.000156374
0.0147833
0.00747868
0.00285247
0.0135386
0.0148013
0.014821
0.0151164
0.0108518
0.0122924
0.0148926
0.00868028
-0.0211512
0.00842175
0.0124644
0.0158463
0.00444916
0.0110738
0.00467456
0.0109407
-0.0432817
0.0132409
0.00797309
-0.024713
0.015112
-0.0312801
0.00897292
-0.0131128
-0.00352896
0.00891198
0.00874726
-0.143022
0.103108
0.00389727
0.011415
-0.00876151
0.0524962
0.000557579
0.0123573
0.0145932
0.0135303
0.0166838
0.0093497
0.00462607
0.00600865
0.0111042
-0.0335856
-0.283919
0.0149396
-0.00410955
0.00865223
0.0092532
0.0149221
0.0152719
-0.000833854
0.0104305
0.0146586
0.000902897
0.00647535
0.000914471
0.00974767
0.0137909
0.00784161
0.0142445
0.00512245
0.00373549
0.0153348
-0.000485761
0.0664703
0.0175604
0.017339
0.0111802
0.0151196
0.0269489
0.0194598
0.0145312
-0.0453395
-0.0156244
-0.104075
0.0148853
0.000844231
-0.0312307
0.0144464
0.00450594
0.0036623
0.00993024
0.0143632
0.0145824
0.00880548
0.011787
0.0168403
0.0164092
0.0125431
-0.00436435
0.0165696
0.0180009
0.00281601
0.0128299
-0.00713467
0.0152718
0.061259
0.0150142
-0.00441707
0.0267987
-0.0170433
0.0120398
0.00610956
0.0101266
0.0158193
0.00461289
0.0116858
0.0104409
-0.00607958
0.0251133
0.00967154
0.014056
0.00379973
0.0151426
0.0132852
0.0137813
0.0141982
0.014378
-0.00706084
0.000966409
0.00354344
0.0157721
0.0292222
0.0130069
0.0123626
0.00520242
0.0143914
0.0121649
-0.00363049
0.00781928
0.000372815
0.0111097
-0.000661204
0.0146977
0.00514675
0.00705245
0.0108271
0.00363391
0.000316911
0.00388768
0.0109921
0.0101101
0.00166778
0.0156845
0.00671202
0.00340201
2.52339e-05
0.00955331
0.0116403
0.014592
0.00836533
0.0203255
0.00673031
-0.0121186
0.00301492
0.0157468
0.00748454
0.00394115
0.0154325
0.00942165
0.0164543
0.0138965
0.0121985
0.0143949
0.017613
0.0021656
0.0135601
0.00872488
0.00294795
0.0119625
0.0149419
-0.114495
0.0132433
0.00384237
0.0140579
0.00740624
0.00410656
0.0137838
0.0102444
0.00760424
0.0141703
0.00360614
0.0134506
0.0143562
0.0133093
0.00838475
0.0253016
0.0128015
-0.00043528
0.00353267
0.011382
0.0139347
0.00180214
0.0134691
0.0143773
0.0119618
0.00599229
0.00783301
0.00828555
0.0058017
0.00991502
0.00406852
0.0152715
0.0107577
-0.0169246
-0.0550654
0.0212701
0.00753059
0.0112322
0.00317116
0.02566
0.0146222
0.0101976
0.00460889
0.00635979
0.00582075
0.000226007
0.00599758
0.0139902
0.0120261
0.0160258
-0.00028461
-0.00253284
-0.0436916
0.00648321
0.00776265
-0.265289
0.0125068
0.00405867
0.00589937
0.0856666
0.0076744
-0.0226836
0.0291868
0.0077831
0.0246261
-0.306186
0.0103484
0.00225351
0.004669
0.00755475
0.0135961
0.00824271
0.0028558
0.0109013
0.0108587
0.0147844
0.00975582
0.00910336
0.072778
0.0124031
0.0031842
0.0101764
0.014142
0.00424754
-0.121024
0.013374
0.00898963
0.00767665
0.00737624
0.0182169
0.0129681
0.0124573
0.0112919
0.00878652
0.00867501
0.0149767
0.014456
0.00773109
0.0116179
0.0117403
0.00747637
0.00506803
0.0250536
0.0148391
0.0436001
0.0128774
0.00854684
0.00412587
0.00508061
0.00453845
0.0229197
-0.00441459
0.0134521
0.00427967
0.012907
0.0083305
0.0147224
0.00805506
0.013799
0.00359898
0.00603552
0.00500724
0.000397357
0.00433016
0.0142577
0.0147186
0.0144978
-0.0585245
0.0122538
0.00945989
0.00490046
0.0146534
0.00492892
0.0919658
0.0044532
0.0136066
0.000735803
0.00490438
0.00956866
0.00866326
0.0135441
0.00415188
-0.0071695
0.00768883
-0.0461468
0.0140114
0.004961
-0.0364182
-0.0230978
-0.0402462
0.00809879
-0.0188568
0.0228294
-0.0195655
0.00370612
0.00877375
0.00449166
-0.0896912
-0.00169596
6.79187e-05
-0.0353074
-0.0056821
0.0100277
-0.120236
0.00885254
-0.0192806
0.00637176
0.0142187
-0.00473957
0.0139671
-0.0520061
0.00860442
0.00651899
0.0140258
0.0147337
0.00150825
0.0147887
0.0191678
0.0700066
0.014738
0.0103526
0.0181054
-0.0661599
0.0133478
-0.004045
0.00407752
0.0100606
0.0204538
-0.0449826
0.0126689
0.0221042
0.067525
0.0162312
0.00427906
0.00593516
0.00445439
0.00429279
-0.000938102
0.0153404
0.00776044
0.000447272
0.00834328
0.00542036
0.0116356
0.0134866
0.000109158
0.0879126
0.000585932
0.00857723
0.0143185
0.0164628
0.0124456
0.00327396
0.0143579
-0.0458697
0.00915097
0.00661092
0.0154497
0.000738165
0.0142219
0.0080907
0.0804969
0.00602893
0.00734203
0.00738758
0.0133798
0.0062976
0.00868829
0.0138771
-0.0555181
0.00414655
0.0134075
0.00795444
-0.0428487
0.0044352
0.0128005
0.00829142
0.0161258
0.0146184
0.0131326
-0.0210043
0.0293704
-0.0105141
0.0282413
0.0247507
-0.000878333
0.0131942
0.000913186
0.00968699
-0.0244765
-0.023626
0.00815108
-0.0389253
0.0775098
0.00769053
0.00427572
0.0176919
0.013199
-0.00394459
0.0120849
0.0068163
-0.0240477
0.00913071
0.0129656
0.0137219
-0.0481729
-0.0426379
0.00763284
0.00314211
0.0168167
0.012054
0.036123
0.00805793
0.0202354
0.0147433
0.0123416
0.0168751
0.0147828
0.00476499
0.0037463
0.0185057
-0.0033166
0.00776838
0.0117511
0.0585262
0.0154661
0.0090119
0.0144539
0.0472814
0.0154143
0.0142499
0.00314748
0.00772783
0.00416641
0.0125083
0.0100396
0.0132957
0.0123609
0.0115458
-0.00401344
0.0150285
0.0146647
0.0145401
0.00920359
0.0134831
0.0099032
0.0114235
0.00585555
0.0130603
0.0147832
-0.0561259
0.0141575
-0.0132367
0.0143493
-0.0190808
0.000762486
0.00981833
-0.0676256
0.0180503
0.00774554
0.0112036
0.00312931
-0.354539
0.0185108
0.00480976
0.0100057
0.0142267
-0.018853
-0.0812948
0.0309883
0.0186654
-0.0144617
0.0159246
0.0123355
0.00432643
-0.084964
0.00898358
0.0339805
0.00576688
-0.0389074
0.0305701
0.0122489
0.0085486
0.00463469
-0.00516395
-0.0149935
0.00420497
-0.0210171
0.00279737
0.02607
0.0112122
0.00952898
0.0137518
0.00300076
-0.154206
0.0143627
0.0180767
0.0127368
0.00820665
0.010004
0.00549946
0.0149604
0.0142746
0.00364037
0.0465894
-0.00518657
0.0144428
-0.0772169
0.0161247
0.0127801
0.00315965
0.00679443
0.0101586
0.0108221
-0.000754511
0.00590359
0.0150557
0.00827297
0.0143934
0.00704361
0.00322676
0.0123788
0.0145498
0.00434956
0.0117317
-0.0527876
0.0143482
0.00435367
0.00991877
0.0120625
-0.0638961
0.0143857
0.0200343
0.016819
-0.00670567
-0.0225866
0.00940294
0.0123316
0.0166979
-0.0278276
0.0153244
0.00421605
0.0155835
0.00521668
0.0202269
-0.0265167
0.000762846
0.0149384
0.0119176
0.00676203
0.00753714
0.0108356
0.0391941
0.00518375
0.0142849
0.00646667
0.0144746
0.0143972
0.00479264
0.0032963
0.00450983
0.0139298
0.00385472
0.0880385
0.0176743
-0.00290038
0.0143927
0.00647881
0.00426239
-0.00408281
0.0122582
-0.0313507
0.0151306
0.00917648
0.0165584
0.0925729
0.012517
0.0167769
0.0147133
0.00980086
0.000920871
0.00885372
0.0101066
0.0122031
0.0147259
0.00658615
0.00754671
0.0160897
0.0147533
0.0155043
0.00885687
0.0131967
0.0122843
0.00610642
0.0163481
0.00818109
0.00398666
0.0150481
0.0147535
0.0486042
0.00070012
0.000255652
0.00738341
0.0135088
-0.056249
-0.00386438
0.00230837
0.0108208
0.0109642
0.0145485
0.0107843
0.0058164
0.0143761
0.0146616
0.0141861
-0.00882205
0.014484
0.0174598
0.008207
0.014118
0.00133262
0.0132997
-0.111114
0.0143149
0.00532082
0.00302226
0.0106096
0.0123336
0.00495785
0.0175753
0.0123327
0.00852272
-0.0870685
0.00716705
0.01447
0.00782682
0.00366813
-0.337741
0.0290535
0.0325776
-0.0353132
0.0153121
0.0223219
0.013217
0.0129146
-0.0606486
0.00106604
0.0216818
0.0101292
0.00451577
0.00826822
0.0144046
0.0053898
0.0158515
0.00873992
0.0148061
0.0110665
0.0135243
0.0164848
0.0471473
0.00384205
-0.00239943
0.00635772
0.0103654
0.00443999
0.0149974
0.0131974
0.0107909
0.0103458
0.029606
0.0143443
0.00804035
0.00835833
0.00356455
0.0112168
0.0109402
0.0130082
0.0081788
0.0132003
0.00390708
0.00848664
0.0159953
0.00661284
0.0108695
0.0148509
0.0254562
-0.0405214
-0.0795817
0.0372337
0.0145088
-0.01605
0.01434
0.0152369
0.0185434
0.0152616
0.00553089
0.0103724
0.00389236
0.00993829
0.0148777
0.014264
0.00871122
0.0142406
0.0155045
-0.000265003
0.0913616
0.00710768
0.0120434
0.0136084
0.0135951
0.0113137
0.0140562
0.00328543
0.00365668
-0.0783163
0.0149917
-0.03305
0.0144933
0.00234586
0.00386512
0.00153349
0.00971185
0.0152353
0.0152941
0.0167541
0.0166785
0.0166713
0.00881525
0.00440864
0.0210387
0.0289849
0.018103
0.00934292
0.0117891
0.0212757
0.0157598
0.0119764
0.0184973
-0.00262225
-0.0197995
0.0488998
0.0143451
0.00414932
0.0236315
0.0108617
-0.010974
0.00937386
0.017457
0.0278201
0.0663676
0.00474701
-0.26386
0.00415453
0.0152179
0.0177426
0.0166786
0.00440777
0.0104315
0.0222641
0.0226568
0.015487
0.0130697
0.0296282
-0.00687172
-0.000241808
0.0100361
0.00204413
0.0142365
0.0112462
0.00434245
0.0147116
-0.0106432
0.00561195
0.010926
0.0138072
-0.0187375
0.00226889
-0.179729
-0.350787
0.0110179
0.0166032
0.0115188
0.0150929
0.00379017
0.0265538
0.0047057
0.00219692
0.014543
-0.32465
0.0113124
0.00889808
0.00906749
0.0126077
0.00706385
-0.0875792
0.00407763
0.0117267
-0.00982783
0.0125086
0.0190097
0.0151362
0.016734
0.0158534
0.00882588
0.00421932
0.0152852
-0.0404458
0.00835017
0.00467538
0.0129315
-0.267809
0.00753904
0.0123558
0.0184954
0.00643881
-0.00109348
0.0133867
0.0145441
0.00647439
0.014561
-0.0279344
0.0159789
-0.0172698
0.0131102
0.0112919
0.0160348
0.0149342
0.0102443
-0.0165955
0.0118439
0.00958668
0.0118371
0.00294787
0.0125043
0.00868165
0.0169556
0.013108
0.0053364
0.0139688
0.0135992
0.00828892
0.00492222
-0.0307333
0.0161202
0.0269395
0.0190692
-0.000974286
-0.0483617
-0.0001908
0.0211541
0.00765583
0.0156879
0.01662
0.000937948
0.00385058
0.0451021
0.00234127
0.0144482
0.0138265
0.0127292
0.00332199
0.0183977
0.0138873
0.0144083
0.0739548
0.059598
0.0395534
-0.0100334
0.0115025
0.074742
0.000604069
0.0140722
0.0150298
0.0148641
0.00888821
0.0146652
0.00521725
-0.018894
-0.0251365
0.00290715
0.0112173
0.0189449
0.00211743
0.0129452
0.0634097
0.0504254
-0.0066811
-0.041038
0.0125867
0.00970815
0.0115447
0.00302354
0.0109278
0.0192508
0.0169356
0.0131702
0.0305182
0.00859122
-0.0241538
0.00326104
0.0112078
0.0087463
0.0140414
0.0824725
0.014189
0.00996624
0.0117355
0.013945
0.0770256
0.0130398
0.00958983
0.0625434
0.0103123
0.00378746
-0.00267248
0.103358
-0.0171861
0.0170474
0.0140238
0.0216524
0.00310507
0.0145616
0.0144653
0.076177
0.0104224
0.0141737
0.0208557
-0.0933865
-0.00935755
-0.0291734
0.0207222
0.0102912
0.0134326
0.00596574
0.00290217
-0.0178158
0.0122351
-0.020656
-0.0541787
0.00161692
0.0164478
-0.212067
0.0149792
0.00575884
0.014325
0.0150649
0.00891141
0.0151147
0.00858465
-0.0511997
0.0212957
0.00389693
0.0187467
0.0082638
0.0152001
-0.0451437
0.00911659
0.0156071
0.0194277
-0.0035005
0.0034059
0.00396355
0.0720503
-0.0117816
0.0155049
0.0587338
0.0311684
0.0154713
0.00902005
0.000847206
-0.00426675
0.00278731
0.0141247
0.013462
0.0224445
0.014708
-0.00328003
0.00383743
0.00300866
-0.0598931
0.0132942
0.0117781