/*--------------------------------*- C++ -*----------------------------------*\
| =========                 |                                                 |
| \\      /  F ield         | OpenFOAM: The Open Source CFD Toolbox           |
|  \\    /   O peration     | Version:  v2012                                 |
|   \\  /    A nd           | Website:  www.openfoam.com                      |
|    \\/     M anipulation  |                                                 |
\*---------------------------------------------------------------------------*/
FoamFile
{
    version     2.0;
    format      ascii;
    class       surfaceScalarField;
    location    "400";
    object      phi_0;
}
// * * * * * * * * * * * * * * * * * * * * * * * * * * * * * * * * * * * * * //

dimensions      [0 3 -1 0 0 0 0];
oriented        oriented;


internalField   nonuniform List<scalar> 
27551
(
-0.109392
-0.0495489
0.158941
0.105978
-0.456235
0.350257
-0.50883
0.266679
0.242151
0.121745
-0.226206
0.10446
-0.287762
0.129424
0.158338
0.130313
0.35683
-0.487144
0.341813
-0.18368
-0.158133
-0.463561
0.109951
0.35361
0.364279
0.0676622
-0.431941
0.140043
-0.220219
0.0801762
0.0552111
-0.168385
0.113174
-0.117773
-0.0950776
0.212851
0.178754
-0.0883344
-0.0904198
0.30524
-0.092297
-0.212943
-0.166237
0.259285
-0.0930482
-0.125764
0.490043
-0.493173
0.339996
0.153176
0.0291455
-0.282519
0.253373
-0.53505
0.267998
0.267052
0.181167
0.160647
0.0835066
0.0264266
-0.109933
0.488189
-0.121415
-0.366774
0.361015
-0.540771
0.179756
0.205875
-0.144928
-0.0609472
-0.60032
0.440528
0.159792
-0.257072
0.0908354
0.179363
0.0158631
-0.195226
0.0901303
0.245492
-0.0808678
-0.164624
0.144313
0.160927
0.139337
0.0268683
-0.166205
0.476148
0.0123309
-0.488479
-0.298694
0.195249
0.103445
0.585927
-0.247143
-0.338784
-0.156826
-0.130936
0.491237
-0.340944
-0.150293
0.358501
-0.0182432
-0.340258
-0.14581
-0.0932314
0.239042
0.149442
-0.444709
0.295267
-0.100686
0.156109
-0.0554229
-0.131846
0.0692444
0.0626019
-0.320484
0.426462
0.331621
-0.232607
-0.0990135
0.138188
-0.346495
0.208307
-0.122942
-0.233252
0.356194
0.0206581
-0.434451
0.413793
0.210988
-0.406523
0.195535
-0.506607
0.344242
0.162365
0.489536
-0.204063
-0.285473
-0.0892553
-0.125615
0.21487
-0.0370588
0.39556
0.481059
-0.473428
-0.00763058
-0.449816
0.0419245
0.407891
0.133027
-0.0808137
-0.0522137
0.0620171
0.123648
-0.185665
-0.0378677
0.177205
0.0236981
-0.124384
0.11734
-0.250645
0.133305
0.0242011
-0.133593
-0.0562217
0.139728
0.127133
0.0576951
-0.184828
-0.44735
0.306586
0.140763
-0.273208
-0.12699
0.400199
-0.401865
0.492981
-0.0911165
-0.196132
-0.338918
0.337406
0.107722
-0.445128
-0.353913
0.495324
-0.141411
-0.121419
0.183436
0.0980051
-0.215778
-0.0157529
-0.386112
0.262091
-0.434971
0.17288
0.072683
0.172809
-0.537572
0.246455
0.291117
0.518423
-0.381773
-0.13665
0.285143
0.204394
-0.402965
0.252624
0.0723273
0.106427
0.123149
0.136136
0.473091
-0.211001
0.395865
-0.0942287
-0.301637
0.377755
-0.500698
0.212374
0.0429222
-0.255296
0.479486
0.00870297
-0.348578
0.485053
-0.136475
0.169837
-0.114626
-0.275094
0.465437
-0.190344
-0.071569
0.125889
-0.0543205
0.409667
0.066481
0.197465
-0.340056
0.142591
0.120583
-0.209839
0.412547
-0.320432
-0.0921154
0.0427692
0.00828898
-0.0510582
-0.123704
-0.0592307
0.182934
-0.20847
0.244316
-0.0358462
0.511517
-0.388834
-0.122683
-0.372591
0.540171
-0.16758
0.0608465
-0.132416
-0.0932145
-0.195969
0.289183
-0.268634
-0.245439
0.514074
-0.338091
0.154411
-0.366125
0.512789
-0.146664
0.408728
-0.219721
-0.189007
-0.176426
-0.161664
-0.363709
0.547472
-0.183763
-0.420252
-0.0965589
0.516811
0.145392
0.333229
-0.152063
-0.22713
0.099212
0.127918
0.358438
-0.169048
-0.18939
0.336076
-0.0436401
-0.292436
0.193796
-0.120881
-0.0729145
0.102557
0.415866
0.367781
-0.170316
0.226901
0.10472
0.357086
0.155703
0.520181
-0.163095
-0.324383
0.465861
-0.141477
-0.217477
-0.096374
0.313851
-0.307767
0.117747
0.19002
-0.301521
-0.207308
-0.317836
0.224622
0.0364162
0.00635299
-0.105357
0.053016
0.0523407
0.0300199
0.284521
-0.314541
0.284214
-0.185507
-0.0987073
0.193588
0.21514
0.175152
0.158077
0.0611048
0.351442
-0.506588
0.310456
0.109019
0.0918446
-0.109962
0.103808
0.00615445
-0.169579
0.472841
-0.337976
-0.134865
-0.0731261
-0.0322306
-0.382931
0.549874
-0.166943
-0.127649
-0.51724
0.370365
0.146874
0.122944
0.0708513
0.237796
0.235044
0.156472
-0.323327
0.453641
-0.304897
-0.212343
0.369062
-0.032986
-0.068211
0.195344
-0.215262
0.0896474
0.231674
-0.0847703
-0.146904
-0.093517
0.0918868
0.303978
-0.533048
0.368248
0.1648
-0.527886
0.376793
0.151094
0.00999873
-0.0917539
0.0817552
-0.289775
-0.0810836
0.370859
0.32611
-0.484257
0.158147
0.148421
-0.294231
-0.442761
0.0941827
-0.495426
0.513953
-0.0185268
0.0309818
-0.155283
0.124301
0.253123
-0.392476
0.139353
-0.285428
0.415115
-0.129687
0.448108
-0.121224
-0.326884
0.0657229
-0.202237
0.136515
-0.0780027
0.0518903
0.0261124
0.158351
0.0733238
0.413153
-0.289708
-0.123444
0.102158
0.0877787
-0.189936
0.390624
-0.1375
0.287894
-0.220122
-0.0677712
-0.261541
0.291561
0.264716
-0.397327
0.132611
0.175092
0.109123
-0.356805
0.151713
0.205092
0.197998
-0.323676
0.226172
0.0975041
0.110745
-0.0572693
-0.0534758
0.0984894
0.287664
-0.386154
0.151694
-0.120712
-0.499135
0.0493194
-0.0328362
0.0497149
-0.0168786
0.466643
-0.468438
0.00179487
-0.413898
0.128471
-0.0529636
-0.025039
0.242855
0.115584
-0.345557
0.197189
0.148368
-0.460243
-0.0351831
0.342526
-0.175761
-0.166765
0.178096
0.109798
0.0514831
-0.0136028
-0.0378803
-0.323616
-0.131923
0.455539
0.216533
-0.118528
0.0530579
-0.11676
0.0637019
0.17637
-0.264024
0.0876549
0.337461
0.0756919
-0.319185
0.156037
0.163147
-0.365313
-0.0982476
-0.0943763
0.235571
-0.141195
-0.2311
-0.21625
0.0329214
-0.17533
0.142409
-0.0338996
0.0901146
-0.0562151
0.252569
-0.501031
0.248462
-0.0957599
0.197918
-0.292483
0.13316
0.159322
0.0292384
0.0222448
0.30017
-0.518843
0.218672
0.177852
-0.120157
0.528393
-0.296298
-0.232095
-0.55561
0.203548
0.352063
0.0951665
-0.414763
0.319596
0.382355
-0.0650137
-0.317342
0.478356
-0.383189
-0.188395
-0.200569
0.388965
0.401148
-0.133172
-0.267976
0.1661
-0.203414
0.283747
-0.0803326
0.256906
-0.393362
0.136456
0.0744164
0.0149008
-0.0893173
0.116369
-0.180218
0.063849
0.44158
-0.292138
-0.189261
-0.317346
-0.213553
0.118476
0.0857658
0.362342
0.0291164
0.131835
-0.160952
-0.394995
-0.11612
0.511115
0.412444
-0.146338
-0.174005
0.320343
-0.212759
0.0898092
0.12295
0.0802735
-0.297751
-0.316273
-0.0927448
-0.0548138
0.147559
0.247493
-0.0765528
-0.17094
0.34516
-0.250663
-0.0944961
0.258225
0.327702
-0.243923
0.10425
0.139673
0.200975
-0.0914403
-0.109535
0.114303
-0.0398868
-0.129026
0.005322
-0.0674354
-0.0644109
-0.115132
0.0535468
0.0615848
-0.192901
0.0902624
0.102638
-0.469504
0.0745089
-0.000537152
-0.207933
-0.189474
-0.303699
-0.208295
0.125179
0.0831168
0.188751
-0.108059
-0.0806922
0.0576351
0.423424
-0.12203
0.459436
0.206098
-0.479306
-0.179615
-0.171384
0.351
-0.0861617
0.228662
-0.142501
0.0881451
0.100606
0.0224899
0.391627
-0.414117
-0.162264
-0.184231
-0.35292
0.164525
0.246803
0.210235
-0.457038
0.150929
-0.379918
0.228988
0.14485
-0.44996
0.30511
0.156936
-0.12782
-0.122361
-0.173661
0.475299
-0.301637
0.212155
-0.0915721
0.466835
-0.381069
0.361805
0.211195
-0.572999
-0.479659
0.143362
0.336297
-0.282249
0.427099
-0.47818
0.194198
0.283982
0.263789
-0.388706
0.124917
0.401175
-0.190187
0.117427
0.292738
-0.410164
0.34398
-0.168828
-0.0810111
0.0471116
-0.209153
0.340995
-0.131842
0.3481
0.123364
-0.471464
0.404845
-0.525526
0.365827
0.159699
-0.429901
0.009649
-0.320944
0.305191
-0.281926
0.399353
0.149835
0.194145
-0.0634312
0.118485
-0.0550542
0.565555
-0.20375
-0.371478
0.511765
-0.140287
-0.00379453
0.438598
-0.434804
-0.127199
-0.165284
0.0817508
-0.0117041
-0.0700467
0.428836
-0.290247
-0.138589
0.16021
-0.339825
-0.0459905
0.0197751
0.0262154
0.223492
-0.194347
0.312863
-0.223409
-0.0894535
-0.163217
0.012356
-0.137583
0.125227
0.395361
-0.131572
-0.223411
0.317351
-0.0939397
0.0461437
-0.138888
0.0166558
-0.236778
0.123687
0.207173
-0.33086
0.306639
-0.0797384
-0.279347
0.390081
-0.137513
-0.105011
-0.0878893
-0.100573
-0.0661692
0.166742
0.340298
0.127347
-0.467645
0.369737
0.02189
0.320984
0.107852
0.153285
-0.140929
-0.0620737
-0.232642
0.383572
-0.119361
-0.107769
-0.0433718
-0.391599
0.388534
-0.327429
-0.103857
0.444155
0.311004
-0.0986298
-0.0897518
-0.123007
0.48997
-0.07022
-0.41975
-0.267916
-0.287695
0.0635764
0.069451
0.326402
0.153241
-0.269883
-0.217202
0.487085
-0.322813
0.133789
0.189024
-0.148827
0.477388
-0.328561
0.161974
0.085519
0.277584
0.080666
-0.35825
0.244128
-0.0647643
0.499126
-0.225874
-0.273252
0.482727
-0.336718
-0.14601
0.0149453
0.13834
0.0475265
-0.426016
0.37849
-0.157758
0.457929
-0.108944
0.227812
-0.118868
-0.0823232
-0.211661
0.293985
0.328515
0.162722
-0.0479221
-0.133303
0.181225
0.354905
0.127822
0.492145
-0.315414
-0.176731
0.110901
0.429002
0.0151178
-0.44412
-0.00140297
0.176494
-0.515495
0.203832
0.311662
0.356948
0.0575607
-0.414509
-0.14279
-0.0869997
0.22979
0.186384
0.12462
-0.124569
-0.198244
0.315693
-0.0303453
-0.285348
-0.201425
0.153503
0.450099
-0.276203
-0.173896
-0.148859
0.189498
-0.238008
0.0485099
-0.0842262
0.262322
-0.284635
-0.11833
0.48997
0.216324
0.0965385
-0.298284
-0.229602
0.493375
-0.13236
-0.0703041
0.210347
0.0520305
0.336503
0.0209502
-0.310725
-0.367245
0.195123
-0.126354
-0.192831
-0.0740019
0.43095
-0.27615
0.257907
0.0946452
0.211994
-0.0252188
0.461803
-0.436584
0.16107
-0.162473
0.136254
0.0811183
-0.217372
0.111449
-0.0579022
0.0266695
-0.169459
0.373241
-0.26785
-0.105391
0.28792
-0.178774
-0.109146
0.0938711
0.206859
-0.300731
-0.539726
0.351135
0.188592
0.229397
-0.0782521
-0.151145
0.304957
0.187189
0.214357
-0.537972
-0.46779
0.0951985
0.356681
-0.257262
-0.0994185
0.123051
0.100423
-0.223474
-0.433513
0.126684
0.306829
0.150234
-0.134371
0.229059
-0.155989
-0.0730697
0.191928
-0.0829091
-0.34809
0.215924
0.132165
0.1305
0.0704749
0.393506
0.0354963
-0.10473
0.193864
-0.0891337
0.223018
-0.319392
-0.299405
0.109051
0.190354
0.0534304
0.116407
-0.130599
-0.261029
0.391629
0.125145
0.162775
-0.109607
-0.110747
0.0562409
0.0545057
0.273581
-0.404181
0.0104586
-0.068446
0.0579874
0.32549
-0.449178
0.123688
0.126423
-0.111477
0.45955
-0.1677
-0.29185
0.0793751
0.0465144
0.114753
-0.503587
0.331461
-0.133971
-0.19749
0.253701
-0.0642031
-0.173834
-0.171723
0.369488
-0.539445
0.169956
0.242857
0.113824
0.280811
-0.146993
-0.133818
0.199912
0.075772
-0.275684
-0.285056
-0.315264
-0.147555
0.264895
-0.252915
0.380267
-0.127351
-0.147565
0.440275
0.0216992
-0.461974
-0.450382
0.169143
0.281239
0.131515
-0.482687
0.351172
-0.327513
-0.0965906
0.424103
0.122573
-0.375489
0.328272
-0.204586
0.30172
-0.280413
-0.0213076
-0.292135
0.506491
0.131732
-0.446893
0.315162
-0.131227
-0.168178
0.397479
-0.132763
-0.405206
0.261006
0.1442
-0.355125
0.097863
0.390428
-0.240272
-0.150157
0.510154
-0.140666
0.476058
-0.189228
-0.28683
0.197038
-0.0607846
0.0969268
-0.253709
0.156782
-0.334521
0.382047
0.336108
-0.331803
0.365672
-0.0338689
-0.468039
0.236939
-0.120052
0.209862
-0.187534
0.119323
-0.318469
0.497786
-0.179316
-0.273384
0.19744
0.0759448
-0.0440448
0.484572
0.191684
-0.313357
-0.193231
0.147361
-0.430873
0.283512
-0.333153
0.501376
-0.168223
0.113293
0.0598564
-0.17315
-0.312113
-0.0430124
-0.281147
0.428508
-0.0256818
-0.0203087
-0.181599
-0.268783
0.143822
0.281351
-0.425173
0.259637
-0.393525
0.133887
0.22874
0.161689
-0.486058
0.277125
0.208933
0.544546
-0.21296
-0.331586
-0.491533
0.187166
0.304367
0.0832704
-0.0728118
0.456019
-0.130529
-0.490519
0.107588
-0.316504
0.496242
-0.179739
-0.423675
0.302259
0.159554
0.279196
-0.306857
0.0276618
-0.123067
0.266731
0.0349892
0.134258
0.20281
-0.337068
0.327443
-0.104425
-0.000954675
-0.202459
0.297088
-0.513957
0.216869
-0.491478
0.30844
0.183038
0.181412
-0.0650431
-0.25409
-0.143051
0.397141
-0.129069
-0.504387
0.17577
0.328617
-0.464776
0.137263
-0.578654
0.337382
0.241271
0.105905
-0.459818
0.543607
-0.246519
-0.446039
0.226716
0.219323
0.368923
-0.187213
-0.18171
-0.532471
0.23885
0.293621
-0.136619
0.240978
-0.509612
0.342254
0.127132
-0.469386
0.445901
0.289714
0.162937
-0.452652
-0.0787455
0.132184
-0.0534386
-0.310877
-0.221593
0.0636687
-0.152866
0.0891977
0.211464
-0.503598
-0.183517
-0.00146803
-0.382156
0.383624
-0.0581603
-0.0525863
0.100864
-0.146004
-0.333267
0.479271
0.386104
0.0541701
0.128226
-0.0488512
-0.125171
0.447063
-0.321892
-0.0909463
-0.123966
0.214913
0.0986079
-0.161501
0.0628934
0.0632446
-0.3969
0.333656
-0.152779
-0.241912
0.394691
0.134527
-0.0880148
-0.0465124
-0.43586
0.310689
0.29778
-0.242847
-0.0549327
0.462936
0.0395143
-0.50245
0.172894
-0.0614767
-0.111418
0.398087
0.0317858
-0.429873
-0.144224
0.191495
-0.0472716
0.490209
0.00181727
-0.492026
-0.314586
-0.264068
0.00564417
-0.420286
0.414642
-0.0821443
-0.294593
0.376737
-0.270604
0.373499
-0.102894
0.323365
-0.0255847
0.36583
-0.247439
-0.118392
0.306063
-0.0449402
-0.0992834
0.149191
-0.0505828
-0.178584
-0.233002
0.411587
0.180364
-0.491582
0.311218
0.0763157
-0.0614149
0.277879
-0.459478
0.150204
0.223037
-0.406869
-0.301919
-0.237807
0.188558
-0.144594
-0.12879
-0.438608
0.356463
-0.0313884
-0.0785737
-0.116854
0.224967
-0.108113
-0.465181
0.166766
0.298415
0.0575216
0.248141
-0.305663
0.49125
-0.0828448
-0.408405
-0.115904
0.28341
-0.167505
-0.137978
-0.366409
-0.39836
0.419018
-0.329791
0.439742
0.158503
-0.105072
0.118808
0.365717
-0.484525
-0.301023
-0.190455
0.125614
-0.445329
0.319716
-0.0856162
-0.284374
0.36999
0.416824
0.0744259
-0.170407
0.303567
0.079687
-0.182142
0.102455
0.356543
-0.0214647
-0.335079
0.483358
-0.302994
0.101522
0.355165
0.0429227
0.321167
0.104976
-0.426143
0.0215789
0.130457
-0.152036
0.0629895
0.0759785
0.347736
-0.487171
0.139436
0.184508
0.0202673
-0.204775
0.124423
-0.0608462
-0.0936892
-0.482852
0.325772
0.157079
0.343989
-0.517651
0.143282
-0.385194
-0.493718
0.176871
0.316847
0.270523
-0.0941531
-0.500057
0.362079
0.443457
-0.317843
0.2441
0.157075
0.104887
-0.42927
0.0705308
-0.209542
0.139012
0.0602303
0.112664
0.147758
0.380635
0.0497314
-0.0111861
0.356406
-0.478436
0.236423
0.108737
-0.250296
0.0946656
0.15563
-0.138519
0.318792
-0.180273
0.0961212
-0.0696947
-0.1166
-0.133695
-0.12208
0.0771395
-0.292866
0.354258
-0.117835
-0.0716332
-0.0573926
0.0182621
-0.107409
0.179736
0.161285
-0.307623
-0.546684
0.193309
0.353375
-0.479569
0.230129
0.24944
0.387738
-0.335707
0.433107
-0.496221
0.063114
0.242059
0.123772
-0.00230936
0.0840601
-0.470721
0.0362702
0.333134
-0.334602
-0.382832
0.262817
0.120015
-0.192151
-0.120458
0.312609
-0.234983
0.150469
0.0845143
-0.151351
-0.0915448
0.242896
-0.130894
0.174664
-0.27773
0.103067
0.311573
-0.199424
-0.112149
-0.358055
0.168747
0.189309
-0.1973
-0.294232
-0.263494
-0.0683091
0.141087
0.324774
-0.0775321
0.393225
-0.0340269
0.39057
0.298385
0.157633
-0.296358
0.479952
-0.183594
0.366273
-0.0619377
0.339521
-0.340963
0.519846
-0.178884
-0.511689
0.170726
0.215648
-0.144767
-0.0708814
0.405634
-0.455222
0.0495881
-0.189887
0.399435
-0.109721
0.386135
0.0194986
-0.0807284
0.543664
-0.253093
0.396375
-0.026067
-0.040146
0.066213
-0.367748
-0.147747
-0.293458
-0.105585
0.399043
-0.479131
0.276793
0.202338
-0.375168
0.207994
0.167174
-0.112804
0.196121
-0.0833161
0.241042
-0.465833
0.331085
0.134748
-0.130435
-0.0843776
0.214812
0.109803
0.280258
-0.390061
0.0678168
0.252429
-0.320246
0.140856
0.296626
-0.437482
0.281603
-0.0816908
-0.342936
-0.10074
0.443676
0.0369345
-0.246087
-0.261891
0.402659
-0.140768
-0.534715
0.376515
0.1582
0.147829
0.200779
-0.348608
0.303444
-0.11706
0.529351
-0.338094
-0.191257
-0.326558
0.30134
-0.315501
0.218329
0.0971711
0.0762508
0.420469
-0.26402
-0.15645
-0.195958
0.234335
-0.0723611
-0.218045
-0.247136
-0.180431
-0.194737
0.0727962
-0.0627974
-0.0708023
0.266052
-0.143702
-0.280982
0.424684
-0.0758018
0.147328
-0.0715257
0.518538
-0.35202
-0.166518
-0.049949
0.147451
-0.0975021
-0.304215
-0.228833
0.0793567
-0.188879
-0.169176
0.312724
-0.244908
-0.109371
0.284035
0.261502
0.257036
0.244388
-0.393637
0.149249
-0.172084
0.00369864
-0.420716
0.167624
-0.0662262
-0.121308
0.437325
-0.461897
0.0245724
0.289127
-0.260852
-0.0282751
0.0038209
-0.148749
-0.139038
-0.0959452
-0.434505
0.440149
0.486048
-0.354533
-0.35622
0.0665344
0.0460017
0.112501
0.0742839
-0.358658
0.429218
-0.310411
0.242061
0.178409
-0.0535003
0.247277
0.126222
-0.189185
0.122958
-0.347964
0.488461
-0.140497
0.383544
-0.136267
-0.124588
-0.0837074
0.0429441
0.262012
-0.134216
0.489121
0.333265
0.115212
-0.448477
-0.345909
-0.13375
0.18838
-0.108693
0.393756
0.0728868
-0.120022
-0.0925781
0.2126
-0.143595
-0.10705
0.288184
-0.24524
-0.359402
0.205672
0.15373
-0.464734
0.292362
0.172372
-0.0482495
0.117494
-0.214016
-0.299941
-0.14719
0.445576
-0.238245
0.391901
-0.147513
0.21206
-0.176187
-0.0358731
-0.0886904
-0.305767
0.394457
-0.379897
0.291206
0.115778
-0.356055
0.240277
-0.402113
0.223528
0.0221655
0.0332118
-0.0553774
0.0510818
0.0957314
-0.150545
0.199756
0.329595
0.0361895
0.172028
-0.208217
0.147466
-0.0837971
-0.308332
-0.178722
0.0978185
-0.148795
0.050977
0.156517
-0.110515
0.0646941
-0.164825
0.100131
0.236397
0.30721
0.254478
-0.393392
0.138914
0.0569872
0.221273
-0.122061
-0.459221
0.126068
0.181542
0.09269
-0.274232
0.0815894
0.139811
-0.221401
-0.42111
0.277408
-0.0469508
-0.16172
0.208671
0.191949
-0.103283
-0.0886662
0.366715
-0.250937
0.259868
0.0292586
0.0692226
-0.292634
-0.142419
0.0681341
-0.168707
-0.122653
0.0664311
-0.252638
0.372339
-0.1197
-0.39655
0.134659
-0.297431
-0.148608
-0.503763
0.230984
0.272779
-0.442872
0.291024
0.151848
-0.0114839
0.0750812
-0.0635972
-0.267365
-0.523414
0.213612
0.309802
-0.0596932
0.142875
-0.0831813
-0.180115
0.0887871
0.0913279
0.362906
-0.253103
0.0275
0.0232128
-0.0507128
-0.178118
0.0879604
0.0901572
-0.184779
0.220968
-0.42402
-0.0792492
0.405651
-0.234596
-0.26204
0.496636
-0.432779
0.136481
0.155733
-0.430971
0.275238
0.215522
-0.163741
-0.0517811
-0.168885
0.463805
-0.328108
-0.135697
0.400632
-0.496479
0.0958472
0.0820877
-0.141781
-0.282169
0.34991
-0.0677419
0.472077
-0.244441
-0.227636
-0.035808
0.133627
0.295395
0.458638
-0.0774587
-0.381179
-0.0946585
-0.0834591
0.128429
-0.336957
0.208528
0.0982999
0.0900802
-0.511625
0.234377
0.277248
0.180136
-0.516854
0.0590058
0.263421
-0.322427
-0.288775
0.131904
0.0836189
0.0838185
0.13183
0.125422
0.319058
-0.44448
0.0818356
-0.0207673
-0.0610683
0.44256
-0.121392
-0.317498
0.0440179
0.27348
-0.102243
0.283785
0.505832
-0.192717
-0.313115
-0.0951588
0.174331
-0.0791722
0.137715
0.09662
-0.0964374
0.161132
-0.149665
-0.467927
0.375449
0.0924779
0.550262
-0.193432
0.0610113
0.0532919
-0.301743
-0.177389
0.0552945
-0.105692
0.0503972
0.268118
-0.107049
-0.104808
0.209812
-0.105003
-0.0777046
-0.260654
0.429796
-0.245749
-0.0387927
0.284542
0.270196
0.132463
-0.452714
0.219462
-0.0126121
0.224672
-0.202104
-0.145986
-0.000545889
-0.370932
0.0925855
0.104453
0.409188
-0.275403
-0.133784
-0.267329
0.14753
0.119799
-0.258592
0.165966
0.0926257
-0.345492
0.227284
0.118209
-0.353086
0.138463
0.214623
-0.267233
0.434749
-0.167516
-0.203397
-0.308228
0.42794
-0.144895
-0.283045
-0.332475
-0.135314
-0.229419
0.135042
-0.132482
-0.335444
0.13149
0.354559
0.24236
0.0982382
-0.340598
0.389503
-0.258074
-0.131429
-0.265303
0.459501
0.311521
-0.242726
-0.0687957
0.116044
0.152074
-0.327634
-0.120242
0.447876
0.0724958
-0.219501
0.147005
-0.0504516
0.0485001
0.00195158
-0.205435
-0.291156
0.496591
-0.467413
0.300083
0.16733
-0.0533047
0.0204685
-0.0943021
-0.276791
0.51777
0.441036
-0.301758
-0.139278
0.178335
-0.118104
0.0919763
0.305374
0.122566
0.446805
0.00719065
-0.453995
0.337147
0.159095
-0.137418
-0.208075
-0.0814577
-0.0102962
0.402933
0.0381033
-0.415455
0.169706
-0.134697
0.404893
0.428819
-0.178501
-0.250318
0.177759
-0.474117
-0.0854541
0.198748
-0.546773
0.211772
0.335001
-0.370827
0.260841
0.109986
0.315967
0.126592
-0.135953
-0.0693703
0.205323
0.178096
0.250723
0.450629
-0.239969
-0.21066
-0.212152
0.432124
-0.219972
0.113641
-0.157672
-0.295042
0.0574099
0.134085
-0.470399
0.426354
0.120898
-0.414357
0.512605
-0.222819
-0.289787
0.286395
0.0729578
-0.359353
-0.298946
-0.22658
-0.171248
-0.0219178
0.193166
0.0534641
-0.11969
0.0662255
0.154864
0.0741954
0.445276
-0.129309
0.322291
-0.183109
0.267771
0.121731
-0.15245
0.0494808
-0.101594
0.469841
-0.130801
-0.355932
0.486733
0.125587
0.165185
0.333942
-0.0550542
-0.147091
0.202145
-0.131332
0.192306
-0.060974
0.457096
-0.123831
-0.0838155
-0.259634
0.34345
0.351959
-0.48276
0.121485
-0.458373
0.136422
0.321951
-0.215841
0.31437
-0.0985282
0.170511
-0.0478889
-0.122622
0.149584
0.0586079
0.0702781
-0.128886
-0.341015
-0.412651
0.454576
-0.238018
0.493225
-0.310936
-0.182289
0.213232
0.0404697
-0.126787
0.487428
-0.36064
-0.341621
0.253222
0.0883985
-0.473669
0.176724
0.296945
0.352541
-0.501368
-0.025766
0.12655
-0.100784
0.0617318
-0.204672
0.14294
0.250585
-0.3344
0.285407
-0.159228
-0.126178
-0.235717
-0.16161
0.112781
-0.202533
-0.338672
-0.208101
-0.536061
0.266178
0.245542
-0.462744
0.127628
0.34524
0.144699
-0.489939
-0.0196543
0.0471543
0.0662359
0.245285
-0.286676
0.289773
-0.00309708
0.201241
-0.227162
0.432363
0.000744411
-0.361054
0.492543
-0.233717
0.252712
0.29476
-0.277987
-0.00868944
-0.099196
-0.128153
0.227349
0.112608
0.204743
-0.22711
0.149199
0.0213125
0.401395
-0.16979
-0.231605
-0.306876
-0.136986
0.0653531
-0.0904992
0.0352814
0.0552177
-0.555782
0.222095
0.333688
-0.0747905
0.422526
0.130751
0.169711
-0.170666
0.443321
-0.299498
-0.178089
-0.187139
0.365228
0.245348
0.348203
-0.41014
0.148436
0.266679
0.105896
0.248362
0.106887
0.209771
-0.316658
0.100716
-0.371684
0.270968
0.36516
-0.264444
-0.0882907
0.356289
0.182408
0.0462541
-0.188647
-0.0746913
0.361086
-0.0168231
0.186378
-0.169555
0.129462
-0.204709
0.0776892
0.12702
0.101471
-0.0461765
-0.0666728
0.191851
0.0886096
0.481541
-0.358177
0.259885
-0.058644
-0.256971
0.226626
-0.0833992
0.143852
-0.0604525
0.226565
0.11443
0.291237
-0.0488771
-0.256559
-0.299224
-0.12435
-0.0784749
0.202825
-0.266699
0.059853
0.206846
-0.0136709
-0.031937
-0.285456
0.317393
0.0361121
0.333646
-0.248584
0.30941
-0.52287
0.208033
0.314838
-0.200672
0.329101
0.00461937
0.0772163
-0.419666
0.271828
0.147838
0.0114136
-0.0922274
-0.0778462
-0.0750202
0.310879
-0.432103
-0.255127
0.138526
-0.384618
-0.0105101
0.395128
-0.387215
0.16189
0.225325
-0.418954
0.168033
0.250921
0.254246
0.14715
0.300267
0.221119
-0.00788754
0.000636747
0.103171
-0.165393
-0.0883166
-0.0742224
0.0627385
0.269728
0.114273
-0.384001
-0.110101
0.0493318
0.0607693
0.237223
-0.179702
0.0881891
-0.205816
0.160509
0.0453071
-0.446258
0.20945
0.236808
-0.0883751
0.180961
0.0947587
-0.214781
-0.216789
-0.04991
-0.386778
0.174626
-0.293914
-0.102668
0.436024
-0.333356
0.165355
0.120051
-0.195943
0.0822276
0.0738813
0.349325
0.204991
-0.554315
-0.123097
-0.277534
0.400632
0.0336409
0.329265
-0.111681
0.501382
-0.204153
-0.297229
0.0602896
0.0581958
-0.317931
0.285994
-0.03935
0.0183508
0.0209992
-0.385412
-0.0481007
-0.191373
0.0351061
0.156267
0.470673
-0.181811
-0.171275
-0.351539
0.555371
0.483506
-0.344662
-0.138844
0.238321
-0.162592
-0.0757285
-0.0564702
-0.190927
0.188698
0.283379
0.369532
-0.290344
-0.0791874
-0.518471
0.353915
0.164556
-0.202699
-0.244641
0.0932897
-0.315699
0.502865
-0.446393
0.103458
-0.227891
0.361541
-0.13365
0.206452
0.362345
0.121161
0.0447826
-0.424413
0.379631
-0.0800208
0.117789
-0.0377682
0.0419857
-0.0680526
-0.10019
0.189582
-0.0893917
0.360863
-0.443708
-0.109441
0.0552406
0.0542004
-0.116695
-0.103524
-0.106063
0.218844
-0.410974
0.275596
0.135378
-0.00582769
-0.044624
0.146804
-0.274003
-0.169141
-0.228813
0.397954
0.277722
-0.398173
0.12045
-0.0164518
0.081387
-0.0649352
0.275887
-0.398985
-0.0574714
-0.0330277
0.14636
-0.0641325
-0.267984
-0.26673
-0.315257
0.0978005
0.217457
-0.190066
0.101274
0.0887918
-0.0671626
-0.122022
0.490659
-0.345613
-0.145046
-0.576677
0.320118
-0.305031
0.086834
-0.191564
-0.129641
0.114694
-0.194129
0.0794345
0.181939
-0.297843
0.477283
-0.193414
-0.283869
-0.29291
0.126176
0.166733
0.440061
0.0180789
-0.45814
0.0813883
-0.206027
0.124639
0.0709578
0.240615
-0.0935227
0.216574
0.263065
0.225961
-0.489026
-0.115056
-0.367309
0.180456
0.186853
-0.330971
-0.125884
0.456856
-0.105634
-0.0765078
-0.486764
0.341426
0.145338
0.249263
-0.494703
0.542509
-0.279444
0.1699
-0.186723
0.0732085
0.296323
-0.482932
0.0125331
-0.193772
0.126609
-0.245234
-0.268022
-0.178236
-0.174229
-0.185173
-0.343267
0.504784
-0.161517
0.147392
-0.149541
-0.202213
-0.121162
0.323376
0.0724977
0.0176169
0.390789
-0.136311
-0.0329925
-0.207279
0.32565
0.157708
-0.280814
-0.0900132
-0.0874666
0.141721
-0.0542547
-0.323965
-0.294212
0.0740993
-0.21486
0.14076
-0.320262
0.492989
-0.172726
0.454241
0.204656
-0.161733
0.0367296
-0.421348
0.131301
0.0899712
0.0603479
-0.120106
0.0597583
-0.331754
-0.127466
0.364382
-0.256629
-0.107753
0.262038
0.133324
-0.0818395
0.0520751
0.0297644
0.48614
-0.1409
0.280713
0.128474
-0.132723
-0.132213
0.4829
-0.0210974
-0.31413
-0.171928
-0.295365
0.129059
0.166306
0.0372556
0.145562
-0.182818
-0.263997
-0.129394
0.478043
-0.333175
-0.144869
-0.491516
0.190414
0.301102
-0.261096
0.0332045
0.169197
0.105675
-0.446619
0.234291
-0.371668
0.137377
0.207895
0.119548
0.179766
0.31346
0.283487
-0.452225
0.168738
-0.191007
0.0902181
0.044309
-0.277753
0.390864
-0.113111
0.327233
-0.0843765
-0.107312
-0.214379
0.130738
0.083641
0.223007
0.104226
-0.144307
-0.349411
-0.0908912
-0.214424
-0.225364
0.439787
0.279271
-0.386623
0.107353
0.335668
0.142375
0.315097
-0.146642
-0.168455
0.136615
0.0911966
0.200283
-0.0246486
-0.175635
-0.0321468
0.406193
0.301009
0.0633731
-0.0571267
0.13341
-0.0762836
-0.0702367
-0.0652195
0.135456
-0.092148
0.371419
-0.0446804
0.153551
-0.101921
0.164331
0.249297
-0.413628
-0.135443
-0.0195749
-0.330605
0.485225
-0.15462
-0.207678
0.0772432
0.132225
-0.0718769
-0.0340067
-0.138077
0.296504
-0.0337722
-0.262732
0.375773
-0.430397
0.054624
0.187594
0.0126893
-0.528597
0.251806
0.16713
0.114473
0.318157
-0.170328
-0.303839
0.427536
-0.123697
0.286595
0.255914
0.32199
-0.0799309
-0.334818
0.208125
0.126694
0.380267
-0.496387
0.124319
0.342787
-0.467106
0.420348
0.0243154
-0.444663
0.172945
0.320036
0.138504
0.343113
-0.481617
-0.326814
-0.345613
0.397178
-0.116465
-0.0941407
0.470933
-0.322838
-0.168743
0.265448
0.185181
-0.103949
0.469776
-0.155567
0.389858
0.277419
-0.310412
-0.141036
0.266439
-0.125403
-0.277769
0.350622
-0.0728527
0.297042
-0.322626
0.120753
-0.0686554
-0.0520972
0.475453
-0.201346
-0.274106
-0.41389
0.199466
-0.161898
0.364709
-0.489908
0.0296652
0.211663
-0.164608
-0.0470551
0.102471
-0.294622
-0.1407
0.222289
0.327719
-0.492398
0.164679
0.0633557
0.0573968
0.103428
0.48832
-0.113283
-0.178673
0.185404
-0.00673151
0.513395
-0.185676
-0.534661
0.220098
0.314563
-0.239872
0.327315
-0.480701
0.153386
0.327817
0.108412
-0.436228
-0.12725
-0.322897
0.466463
-0.143566
0.186644
-0.0719493
-0.397024
0.289361
0.107663
-0.457225
0.153386
0.389292
0.0575122
-0.0130976
0.439451
0.471159
-0.0897395
0.460105
0.399728
-0.276543
-0.123185
0.00225024
-0.111057
0.108806
0.1107
-0.471754
0.279712
-0.0421179
-0.237594
-0.0628516
0.339645
-0.320129
0.495899
-0.198641
0.364806
-0.368601
0.127707
-0.436039
-0.300638
-0.234023
-0.478727
0.294898
0.183828
-0.489513
-0.0913696
0.18967
-0.321376
0.448508
-0.071972
-0.108143
-0.175863
-0.206968
-0.456247
0.25552
0.200727
0.244322
-0.581033
0.336711
0.173432
0.30202
0.137931
-0.349592
0.0740928
0.117835
-0.139476
-0.0984531
0.237929
0.196509
-0.159253
-0.0604938
0.156225
-0.194414
-0.261832
-0.414265
0.227125
-0.0551137
0.18557
-0.137842
0.282155
-0.243703
-0.238629
0.482333
0.286297
0.11343
-0.129982
0.157393
0.196258
0.118839
-0.194693
-0.0726362
0.246675
0.0330369
0.0337463
0.215254
-0.249001
-0.0967917
-0.126088
0.203777
0.189379
-0.52035
0.0096035
-0.0734225
0.063819
-0.312235
0.0188488
-0.402038
0.0523075
0.244734
0.321299
-0.142451
-0.0817463
0.224197
0.126375
0.255007
-0.381382
-0.0947542
0.455617
0.445748
-0.338026
-0.377379
-0.122678
-0.295122
0.472238
-0.335216
-0.137022
0.0838247
-0.167877
0.0840527
-0.0564208
-0.0530202
-0.320139
0.423468
-0.103328
-0.269348
0.395415
-0.126067
-0.198343
-0.136476
0.301393
0.170845
0.263506
0.0329986
0.26449
-0.327341
0.136692
0.0691447
-0.205837
-0.424783
0.104644
0.18865
0.309136
-0.311561
0.458158
-0.146597
0.063122
-0.133913
0.0707913
-0.202892
-0.197954
-0.00786124
0.419174
0.0582145
0.14943
-0.0592114
-0.225346
0.137456
0.0878901
-0.130439
-0.108978
0.0289574
0.12053
-0.428446
0.307916
0.042476
-0.173808
-0.164042
0.170207
-0.00616509
0.425178
-0.0155112
0.0133536
0.063751
-0.0771046
-0.169923
-0.312929
0.110036
0.198951
0.266486
0.0356407
0.320988
-0.356629
-0.0389054
0.305584
0.0111315
-0.158223
-0.1111
-0.264931
0.376031
-0.228427
0.354802
-0.12994
0.481899
0.505909
0.426835
-0.285979
-0.195107
0.000119022
-0.178792
-0.0501142
-0.0462553
0.0963696
-0.11313
0.210283
-0.149622
-0.0606612
-0.331057
-0.147181
0.478238
-0.454531
-0.0483771
0.0913303
-0.0429532
0.0406029
-0.106935
0.0663325
0.147208
-0.207777
0.0605686
0.310417
-0.523378
-0.310343
-0.105272
-0.0111283
0.1164
0.430116
-0.510844
-0.174408
0.0835675
0.0908405
0.248138
-0.370339
0.122201
0.334932
0.140367
0.442316
-0.00371791
-0.478321
0.122389
-0.42502
0.148477
-0.134993
0.21571
-0.0807178
-0.0922852
-0.133061
-0.241463
-0.320724
0.562187
0.127662
0.38629
-0.362448
0.212151
0.150297
0.138864
0.071419
-0.137112
-0.0622619
0.199374
-0.318064
-0.204807
0.258219
-0.323233
-0.180926
0.0862677
-0.194804
0.0741017
0.120702
0.223077
-0.106619
-0.116458
-0.234549
0.142263
-0.184813
0.0846227
0.255629
-0.221883
-0.265377
0.273722
-0.441422
0.052268
0.049203
-0.00174309
-0.177031
0.106636
-0.104386
0.0862298
0.061236
0.164891
-0.422888
0.480448
-0.184063
0.206488
0.313358
-0.0895267
-0.0948075
0.184334