/*--------------------------------*- C++ -*----------------------------------*\
| =========                 |                                                 |
| \\      /  F ield         | OpenFOAM: The Open Source CFD Toolbox           |
|  \\    /   O peration     | Version:  v2012                                 |
|   \\  /    A nd           | Website:  www.openfoam.com                      |
|    \\/     M anipulation  |                                                 |
\*---------------------------------------------------------------------------*/
FoamFile
{
    version     2.0;
    format      ascii;
    class       volVectorField;
    location    "400";
    object      U;
}
// * * * * * * * * * * * * * * * * * * * * * * * * * * * * * * * * * * * * * //

dimensions      [0 1 -1 0 0 0 0];


internalField   nonuniform List<vector> 
18540
(
(1.0426 0.00640225 1.17202e-21)
(1.03386 0.00673649 0)
(1.01598 0.00142306 3.5829e-21)
(1.11912 -0.083158 -6.4641e-22)
(1.02907 -0.00503341 0)
(1.03352 0.00204018 0)
(1.01535 -0.00325171 7.1151e-23)
(0.987902 0.191276 1.07556e-20)
(1.02826 0.00204996 0)
(1.0362 -0.0132385 -1.36247e-21)
(1.03728 -0.00114438 0)
(1.19665 -0.196109 -1.74941e-20)
(1.11246 0.124962 1.73446e-20)
(1.00286 0.0940845 -5.83432e-20)
(1.02839 -0.00643582 0)
(1.02825 0.00204855 5.58151e-22)
(1.01606 0.0114892 2.36949e-21)
(1.0174 0.000545139 0)
(1.02508 0.00215708 0)
(1.01519 -0.0029375 -2.04948e-23)
(1.01329 0.00892051 8.24767e-23)
(1.02273 -5.83412e-05 2.04353e-22)
(1.03049 0.00166575 -1.75625e-22)
(1.03781 0.00296304 0)
(1.02227 0.000106892 -1.84069e-21)
(1.02908 -0.00667589 0)
(1.02939 0.00470062 1.68628e-22)
(0.69025 0.655596 5.39609e-20)
(1.14366 -0.0337305 -5.48977e-22)
(1.00232 0.0230851 -6.10899e-20)
(1.01034 0.398594 0)
(1.0209 7.70282e-06 1.39045e-21)
(1.01217 -0.00191303 -1.21739e-21)
(1.02896 0.0092342 -4.32748e-22)
(1.02963 -0.00466026 -1.81382e-21)
(1.02461 0.0106271 0)
(0.996977 -0.0657913 1.93656e-21)
(1.02195 -0.00384662 -5.83097e-21)
(1.02879 0.00584312 0)
(1.03748 0.00833082 2.08326e-21)
(1.02437 -0.012282 0)
(1.03453 0.00796125 -1.07614e-23)
(1.02033 0.00128027 0)
(1.01546 0.00339137 0)
(1.02327 0.00557487 0)
(1.02573 -5.41055e-05 1.79405e-21)
(0.922803 -0.135546 1.25647e-22)
(1.02233 0.0133897 0)
(1.0268 0.000964654 0)
(1.1214 -0.122237 -5.86299e-22)
(0.987437 -0.0629368 0)
(1.01965 -5.14828e-05 -1.41533e-21)
(1.0224 -4.30257e-05 0)
(1.03416 -0.0195963 -9.88737e-21)
(1.06716 -0.0968948 1.12436e-21)
(1.05965 0.342123 8.34145e-21)
(1.03675 0.0076767 -2.9167e-21)
(1.01943 -0.0104044 2.52683e-21)
(1.04244 0.00651924 -9.20607e-22)
(1.01473 0.0131497 0)
(1.03382 0.0048047 -1.59159e-22)
(1.01812 0.00202465 1.99135e-21)
(1.01948 0.00181102 5.79619e-21)
(1.02301 0.00079413 0)
(1.02496 0.00225195 0)
(1.02844 0.00171554 1.13145e-21)
(1.02014 0.0104243 0)
(1.06778 -0.104048 0)
(1.18841 -0.175123 0)
(1.02296 0.000776886 0)
(1.01531 0.000964189 -2.01668e-21)
(1.14357 -0.0412292 -5.63435e-22)
(1.03031 0.00864102 4.03523e-22)
(1.02397 0.00228811 0)
(1.02629 0.00161199 3.7278e-21)
(0.827367 0.0207698 -4.06619e-21)
(1.13414 0.111248 6.31258e-21)
(1.02786 -0.00699632 0)
(1.01529 0.000922029 -3.16152e-21)
(0.891004 0.18257 -5.85257e-21)
(1.02329 0.00523975 0)
(1.01811 -0.0020599 -4.20845e-21)
(1.02061 -7.41801e-07 0)
(1.02309 0.00328749 -1.01878e-21)
(1.03789 -0.00155806 5.47559e-22)
(1.01539 0.000782989 0)
(0.980356 0.0582714 -3.34348e-21)
(1.02174 -4.89136e-05 -7.10981e-22)
(1.01997 0.00294213 -3.27402e-21)
(1.13845 -0.130155 0)
(0.96703 0.142404 -4.40134e-22)
(0.327535 -0.5471 7.445e-20)
(1.10748 0.102421 0)
(1.02383 0.00335788 -7.54425e-22)
(1.02823 0.00138796 4.87657e-22)
(1.02742 0.00145279 0)
(0.973121 0.0552171 7.10512e-22)
(1.01831 0.000775537 -2.79093e-21)
(1.06922 0.0540212 -4.31814e-22)
(1.01604 -0.00306355 -2.72771e-22)
(1.02832 0.00127684 7.63063e-22)
(1.00136 -0.0266284 0)
(1.01623 -0.00335437 2.88726e-22)
(1.02849 0.00108362 0)
(1.02875 0.00190854 1.90107e-21)
(1.02832 0.00136015 0)
(1.01441 -0.0031181 -4.63682e-21)
(0.904607 -0.0749891 2.67512e-21)
(1.03207 -0.00241415 3.27568e-21)
(1.01658 0.00282579 -6.67463e-22)
(1.04272 0.00378094 6.02567e-22)
(1.02409 0.00224647 -1.04308e-21)
(1.01976 0.00278378 3.10043e-21)
(1.02021 0.00119299 0)
(1.02841 0.00122657 -7.5199e-22)
(1.02841 0.00117928 0)
(1.0234 0.0047164 1.21444e-21)
(1.01759 0.00079096 -2.44671e-21)
(1.01565 0.00455078 4.30465e-21)
(1.0159 0.00147964 3.23212e-21)
(1.01831 0.000893419 -5.90335e-24)
(0.256799 -0.578567 0)
(0.85483 0.065665 -9.66241e-21)
(1.01791 0.00172587 -5.14052e-22)
(1.02297 -0.0226328 3.09619e-21)
(0.996949 -0.0230396 0)
(1.01428 -0.00276327 0)
(0.976106 0.165458 -5.8892e-22)
(1.02482 0.00203713 -8.70134e-22)
(1.03568 0.00703471 0)
(0.676466 0.295845 0)
(1.0152 0.00408032 -4.49767e-21)
(1.01924 0.0015946 0)
(0.851172 0.0488364 7.94706e-21)
(1.02945 0.00116793 -6.86962e-22)
(1.02957 -0.00575525 0)
(1.01772 6.55799e-05 0)
(1.04273 0.00322066 -2.50193e-22)
(1.01934 0.00157847 -2.96115e-21)
(1.02849 0.00113877 0)
(1.0336 0.00215662 0)
(1.01732 0.000103363 0)
(1.01654 0.00274407 -5.7002e-22)
(1.03337 0.00415485 0)
(1.11538 -0.111839 0)
(1.00599 -0.0589076 3.48059e-21)
(1.12665 -0.102288 1.73401e-21)
(0.873725 0.151214 0)
(1.02535 8.41243e-05 2.47542e-21)
(1.02322 -3.43136e-05 0)
(0.962966 -0.169202 2.29181e-20)
(0.997084 0.00779216 0)
(1.02345 0.00331747 0)
(1.02208 -0.00325485 3.53333e-21)
(1.02309 0.00333759 0)
(1.02042 1.2817e-05 0)
(0.934415 -0.222418 0)
(1.02342 0.00442123 1.68624e-21)
(1.01819 0.00209464 2.53446e-21)
(0.976675 0.194074 5.37109e-23)
(0.988127 -0.270259 -3.72283e-21)
(0.791186 -0.10378 -9.87757e-21)
(1.00056 -0.0563352 -4.13449e-21)
(0.883985 0.4301 -2.33058e-20)
(0.967636 -0.0637669 7.48956e-21)
(1.02329 0.00419518 1.70313e-21)
(1.00159 0.000871635 2.66148e-21)
(1.0179 0.00172186 -6.1331e-21)
(1.01849 0.00258461 0)
(1.02184 -0.0229747 -2.93224e-21)
(0.98846 -0.0236769 3.25913e-21)
(1.0154 0.000813624 0)
(1.01198 0.0153121 2.41918e-21)
(0.679658 0.211812 -1.807e-20)
(1.1128 0.139263 -1.00473e-21)
(0.933516 -0.220161 -4.92156e-22)
(1.02003 -2.80522e-05 -1.73778e-22)
(0.399447 -0.465452 -7.71839e-21)
(1.01607 8.79644e-05 5.10882e-21)
(1.01819 0.0021022 -2.05641e-21)
(0.789479 -0.113196 -4.98333e-22)
(1.03117 -0.00446395 -2.6715e-21)
(1.01674 0.000571895 3.60943e-21)
(1.0227 4.01892e-05 7.45593e-22)
(1.01706 -0.0031738 2.07509e-21)
(1.00138 0.00172259 5.7493e-21)
(0.365481 -0.422 3.43711e-20)
(1.03687 0.00915664 8.13475e-22)
(1.17002 -0.163292 -2.6053e-22)
(1.01324 -0.0108658 -4.03943e-21)
(0.997335 0.028567 3.44198e-21)
(0.880501 0.431389 7.37477e-22)
(1.02299 -0.00116337 3.17443e-21)
(0.988545 0.200143 3.6483e-21)
(1.02208 -0.0112123 1.38084e-21)
(1.01806 0.00196311 2.45006e-21)
(0.95747 -0.245765 -3.84506e-21)
(0.953225 -0.262898 3.89918e-21)
(1.01448 0.000137331 -2.07564e-21)
(0.965376 -0.0590706 -9.14904e-21)
(1.0176 -0.000751986 -3.80206e-21)
(0.305288 -0.416348 -3.26811e-20)
(1.02383 0.00520855 1.00676e-21)
(1.03439 0.00433915 0)
(1.02778 5.49795e-05 2.35845e-22)
(1.01898 8.91212e-05 9.57957e-22)
(1.1701 0.148426 1.73375e-21)
(1.00947 -0.00818373 -1.74466e-21)
(1.1817 0.193601 0)
(1.1506 0.0439669 5.89828e-20)
(1.01711 0.00142632 2.35196e-21)
(1.01682 -0.00298991 -4.22398e-21)
(1.02337 -0.000132962 -3.35743e-21)
(1.02291 0.00597452 0)
(0.99636 -0.0534356 1.02649e-21)
(1.1443 0.189773 -5.73131e-20)
(1.02883 0.00625884 -2.22871e-23)
(1.02071 0.0141228 0)
(1.22094 -0.212374 1.74975e-20)
(0.982207 0.206158 0)
(1.07467 -0.0481546 0)
(1.03423 0.00247 0)
(0.841802 0.131135 -8.17131e-22)
(1.05249 -0.0150328 2.16984e-21)
(1.0315 -0.011606 -3.33974e-21)
(1.01758 0.00062587 0)
(1.12935 0.189553 9.42729e-22)
(1.0701 0.07188 1.01395e-21)
(0.980666 -0.156641 -2.23892e-21)
(1.02575 -0.00351988 -1.70679e-21)
(1.03003 0.00906325 1.21465e-21)
(1.02993 0.00399109 -8.60223e-22)
(0.687728 0.0395917 0)
(0.986608 -0.0575454 5.04974e-21)
(1.09268 0.0845675 0)
(1.02591 -0.0168773 -2.99279e-22)
(1.00634 -0.00934515 -1.57703e-21)
(1.03803 0.00236698 1.29823e-22)
(1.03412 0.00258678 0)
(1.0237 0.00355896 -8.47453e-22)
(1.0148 0.00975848 2.11602e-21)
(1.07785 0.00364012 0)
(1.0384 0.00649643 0)
(1.02099 -8.93823e-05 3.05833e-21)
(1.02844 0.00167611 -1.6855e-21)
(1.01943 0.00177882 -3.653e-21)
(1.07338 -0.0132645 -2.09165e-21)
(1.01906 -0.0135699 2.72851e-21)
(1.03839 0.00639875 1.61062e-21)
(1.01194 -0.00272008 -1.39597e-21)
(1.01517 0.00311171 0)
(1.21127 0.158019 -9.77495e-20)
(1.02295 0.00344743 -5.94568e-22)
(1.01652 0.000969843 6.12247e-21)
(1.19775 -0.0576248 4.90439e-20)
(1.07684 -0.0512967 0)
(0.952994 -0.237879 1.87226e-21)
(1.00823 0.0646918 -7.00633e-22)
(1.14352 -0.141777 5.87174e-22)
(0.959267 0.212685 0)
(1.11316 -0.0363247 0)
(1.01069 0.145864 -1.36427e-22)
(1.14844 -0.0788094 0)
(1.02739 0.00832965 1.06602e-21)
(1.02347 0.00541311 -3.10527e-21)
(0.926711 -0.111187 1.62657e-22)
(1.01877 0.00163297 1.73513e-21)
(1.01343 -0.0026739 0)
(0.957906 -0.227406 9.4038e-21)
(1.01978 0.00232402 0)
(1.02937 0.00118471 -1.26981e-21)
(1.00848 -0.00592724 0)
(1.02738 9.46889e-07 6.58806e-22)
(1.02871 0.00192568 -2.03332e-21)
(1.023 0.000818702 0)
(1.01882 0.00173667 -1.74179e-21)
(1.01326 -0.00243797 4.32933e-21)
(1.01753 -0.0223087 -7.3114e-21)
(1.10947 -0.0438489 0)
(1.01629 0.00712113 2.41112e-21)
(1.02572 0.000124336 -2.08859e-21)
(1.0178 -0.00096732 -3.82684e-21)
(0.939008 -0.127213 0)
(1.01711 0.00131613 -2.05771e-21)
(1.06842 -0.0037183 0)
(0.30504 -0.255104 1.17213e-20)
(1.01727 0.000408162 0)
(1.01354 -0.000739235 1.08767e-21)
(0.992661 -0.0282945 3.20348e-21)
(0.786153 -0.25679 -5.21496e-21)
(1.02344 0.00502861 2.10423e-21)
(1.01452 0.0125932 -5.69594e-21)
(1.06353 0.0759801 0)
(1.00077 -0.00194948 2.41441e-21)
(1.01684 0.00337329 5.71247e-21)
(1.02002 0.00117082 0)
(1.02976 0.00986059 -1.3224e-21)
(1.01354 0.000197882 0)
(1.03806 0.00237893 -3.32356e-22)
(1.11344 0.0107498 2.84361e-21)
(1.02725 0.00157534 0)
(1.01121 -0.00133033 0)
(1.01713 0.00125995 -2.64615e-21)
(0.80501 -0.237854 1.78231e-21)
(1.00801 -0.0139162 5.65788e-21)
(1.01649 0.0008604 0)
(0.910204 -0.0865671 7.89328e-21)
(1.01522 0.00103812 1.80838e-21)
(0.969194 0.0980709 5.02795e-21)
(1.02725 0.00154451 0)
(1.01799 -0.00198465 3.74261e-21)
(1.03211 -0.0108071 6.16924e-22)
(1.01289 1.04299e-05 1.30101e-21)
(1.01849 0.000165661 -9.42875e-22)
(1.0316 -0.0163692 0)
(1.01338 0.000789314 -9.10987e-21)
(1.03492 0.00389113 1.78865e-22)
(1.01032 0.0125524 -4.77223e-21)
(1.02092 0.000424555 -2.13687e-21)
(0.973444 -0.145729 0)
(1.01608 0.00267708 0)
(1.029 0.00416436 6.22605e-22)
(1.02213 0.000139324 -1.83314e-21)
(1.0296 0.00136807 -8.65148e-22)
(0.778407 -0.222755 2.16816e-22)
(1.02077 -0.000109037 0)
(1.02411 0.00527995 -2.36769e-21)
(1.01927 -0.0713859 -1.79384e-21)
(1.01776 -0.000295908 4.20361e-21)
(1.02571 0.00988786 -2.25878e-21)
(1.02912 -0.00142594 0)
(1.02968 0.00139988 0)
(1.01881 0.00399372 0)
(1.01713 0.00137514 2.50539e-21)
(1.01662 7.38505e-05 -1.35854e-21)
(1.01921 -0.0230846 0)
(1.09771 -0.0437365 -8.24626e-23)
(1.02408 0.00246674 -1.30468e-21)
(1.01646 -0.0627171 -4.58766e-21)
(1.01764 -0.00159398 0)
(1.00878 0.0121437 0)
(1.01783 0.00156254 5.17221e-21)
(1.02879 -0.000753751 0)
(1.0178 0.00157249 -1.04196e-21)
(1.01232 -0.00219495 -1.32342e-21)
(0.897666 0.304349 1.16001e-21)
(1.00296 0.00360361 -4.58473e-21)
(0.845644 0.0689018 1.19175e-20)
(1.01146 3.75246e-05 0)
(1.01343 -0.000484097 -5.50267e-21)
(1.02234 3.4215e-05 0)
(1.03049 0.00161495 0)
(1.03535 -0.012847 1.39579e-21)
(0.976617 0.11712 -4.87492e-21)
(0.99603 0.0023289 0)
(0.839735 0.0576201 7.19676e-22)
(1.02327 -0.000691726 0)
(1.02409 0.00244652 3.02584e-21)
(0.989979 -0.0717168 -7.47042e-22)
(1.01991 0.00103116 -3.32979e-21)
(1.0169 0.000211174 5.06601e-21)
(1.01982 -0.025421 0)
(0.947727 -0.0532835 7.46866e-21)
(1.00052 -0.0119872 -2.59195e-21)
(1.01847 -0.0569203 4.75045e-21)
(1.01895 0.00301217 0)
(1.02604 -0.00133652 9.84453e-22)
(1.01766 0.000399546 -1.5741e-21)
(1.02772 6.95873e-06 0)
(0.930604 -0.0887674 0)
(1.01889 0.00405603 0)
(1.03344 0.00702393 -8.65675e-22)
(1.02789 0.00125696 0)
(0.970739 -0.356458 0)
(1.28236 -0.183308 2.47621e-20)
(1.00483 0.0203073 -1.29328e-21)
(1.02996 0.00447791 -2.25264e-22)
(1.00018 -0.0480162 2.12922e-21)
(1.0352 0.00660978 -1.65996e-22)
(1.01865 0.00286586 0)
(0.699396 0.127524 0)
(1.0167 4.51741e-05 1.15331e-21)
(1.03974 0.00191567 -4.21019e-22)
(1.01769 0.000722321 -1.5889e-21)
(0.970447 0.0193504 0)
(1.03817 -0.0017601 -1.12937e-21)
(1.02546 0.00228234 0)
(1.02567 -0.00164624 -8.47323e-22)
(0.977258 -0.260815 4.24912e-21)
(0.952973 0.0651033 1.11903e-20)
(1.02514 0.00301522 -2.77044e-21)
(1.03925 -0.0700023 -5.22864e-20)
(1.02363 0.00322243 1.12485e-21)
(0.777233 -0.208038 -2.66566e-22)
(0.954563 0.0695727 0)
(0.988449 0.0717214 1.18828e-20)
(1.02823 0.00142848 0)
(1.01517 0.00240548 -8.44626e-21)
(0.920014 0.328159 -1.60182e-21)
(1.01678 0.000453373 0)
(1.02985 0.001431 -9.36411e-22)
(0.951993 -0.338418 -1.59199e-21)
(0.97245 0.00789032 4.22181e-21)
(1.00975 0.0344328 -5.93438e-21)
(1.02199 0.000155171 4.31009e-22)
(1.01894 -0.0122889 -2.27197e-21)
(1.01871 0.0028476 0)
(1.10622 0.108002 -9.4098e-21)
(1.02072 -2.64132e-05 -2.49612e-21)
(1.02314 0.00216819 1.76051e-21)
(1.06245 0.0942367 1.95825e-22)
(1.0243 0.00222672 0)
(1.0187 0.00286158 6.41748e-22)
(1.01703 0.00345897 2.83714e-21)
(1.02221 0.0290523 9.9241e-21)
(1.03431 0.00610331 -8.98913e-22)
(1.02359 0.00180672 3.95402e-21)
(0.968669 0.016498 1.20157e-20)
(1.01853 0.00257845 -1.772e-21)
(0.945685 -0.0111276 2.58014e-21)
(1.01013 -0.331523 0)
(1.01765 0.00118285 0)
(1.02984 0.00140572 -4.31413e-24)
(1.02914 0.0127926 -1.04358e-21)
(0.946677 -0.0492391 -1.11601e-20)
(1.02174 -0.00241733 0)
(1.02262 -3.08195e-05 -1.92026e-21)
(1.02695 0.00188269 0)
(1.16718 0.175781 8.16939e-22)
(1.01801 0.00186719 0)
(1.03194 -0.0124978 0)
(1.03299 0.00472897 0)
(1.0299 0.0013927 7.89317e-22)
(1.02304 -0.00310179 -2.02487e-21)
(1.02184 0.00012287 4.08336e-21)
(1.02991 0.00143142 -3.85443e-22)
(1.0247 0.00212334 -8.83922e-22)
(1.14091 -0.0448092 0)
(1.02473 0.00460674 0)
(1.04198 -0.00662523 -2.31238e-21)
(1.03756 -0.3393 0)
(1.13893 -0.0624166 -1.98624e-21)
(0.353792 -0.254113 -1.67313e-20)
(1.02362 0.00125947 3.40415e-21)
(1.02111 0.00173347 2.86175e-21)
(1.02322 0.005663 3.19289e-21)
(1.01764 0.00117277 2.58314e-21)
(1.08933 -0.0588947 -1.95447e-21)
(1.0302 0.00161867 3.62067e-22)
(1.02434 0.00179858 -2.7898e-21)
(1.03676 -0.0679654 0)
(1.02366 0.00314714 1.02526e-21)
(1.02944 0.00118974 -4.10291e-22)
(1.03068 0.010634 0)
(1.02644 -7.2977e-05 0)
(1.03052 0.011365 3.09918e-21)
(1.01138 0.394106 0)
(1.02348 0.00326987 1.24454e-21)
(1.02442 0.0290728 -9.96421e-21)
(1.01614 0.00372355 2.69223e-21)
(1.01769 0.000872736 2.3344e-21)
(1.02374 -0.00011257 0)
(1.06145 -0.0908589 2.53099e-22)
(1.02938 0.0013751 -1.24036e-21)
(1.18576 0.125064 0)
(1.05396 0.0289474 6.81403e-22)
(1.02327 0.00553235 -2.09163e-21)
(1.14693 0.0832339 -3.32136e-21)
(1.02431 0.00224905 -5.6012e-22)
(1.07702 0.0287522 3.58519e-22)
(1.01892 0.00970187 -1.19284e-21)
(1.06021 -0.0895788 -2.20275e-22)
(1.01765 0.00138787 3.90251e-21)
(1.01815 0.00446885 -2.5819e-21)
(1.01526 8.46172e-05 2.17884e-22)
(1.02293 0.00584066 0)
(1.07956 0.0635448 -9.32773e-23)
(1.03399 0.00288668 7.6691e-23)
(1.01762 0.0125771 -1.28826e-21)
(1.01839 3.47691e-05 1.91578e-21)
(1.00672 0.0763302 0)
(1.01511 0.000110364 -2.05828e-22)
(1.03916 0.0454778 -7.30948e-21)
(1.03356 0.00575926 9.32779e-22)
(1.01797 0.00181829 -2.13491e-21)
(1.01217 -0.000104533 -6.87631e-22)
(0.948284 0.0565294 1.26373e-20)
(1.03764 0.00286745 4.86889e-23)
(1.11218 0.0953518 0)
(1.02088 3.5721e-05 2.97758e-21)
(0.997153 0.068214 0)
(1.02803 0.00195779 -6.22481e-24)
(1.12874 -0.171862 4.414e-21)
(1.04992 0.0125093 6.31172e-22)
(1.05263 -0.113709 -8.93569e-22)
(1.04605 0.0229297 -3.74242e-21)
(1.03519 0.0255906 0)
(1.02791 0.00186665 6.87825e-22)
(1.01818 -0.00018352 -4.2281e-21)
(1.0329 0.00123595 -6.42076e-23)
(1.13517 0.181959 7.11332e-21)
(1.01465 0.000379813 3.11762e-21)
(1.17812 0.193067 -5.55726e-21)
(1.02645 2.86158e-05 -1.81008e-22)
(1.06858 0.0294815 4.99252e-22)
(1.02578 0.000123707 1.22805e-21)
(1.02389 0.00202385 -2.32144e-21)
(1.01889 0.00297258 -3.01421e-21)
(1.01808 -0.000219121 3.48408e-21)
(1.0181 0.00420056 2.84073e-21)
(1.02142 0.0111802 0)
(1.11641 0.229383 -1.20119e-20)
(1.05074 0.0127356 0)
(0.977227 0.00417331 -2.41085e-21)
(1.03147 0.00375157 9.16524e-22)
(0.998094 -0.0472822 -6.00966e-21)
(1.0246 0.00187806 -1.66721e-21)
(1.01896 0.0029887 2.56335e-21)
(1.04714 0.029723 0)
(1.02726 3.59819e-05 -3.99369e-22)
(1.01783 0.00157922 -1.26263e-21)
(1.02352 -0.00263165 5.15401e-22)
(1.02382 0.00194837 0)
(0.659516 0.267464 0)
(0.915777 -0.108663 2.38178e-21)
(0.971627 0.0227549 0)
(1.01839 0.00283157 2.99295e-21)
(1.02414 0.00294274 0)
(1.01479 0.00615181 0)
(1.13566 0.125708 -2.21074e-21)
(1.02698 2.44843e-05 -9.25645e-22)
(0.954956 0.183087 -5.66545e-21)
(1.03863 -0.00248803 0)
(1.03247 0.000773258 5.63676e-23)
(1.0293 0.00137604 -1.8251e-21)
(1.02748 0.00167988 0)
(1.01896 0.00294306 1.18982e-21)
(1.02425 0.00297119 -1.10386e-21)
(1.01733 -0.000952101 3.74865e-21)
(1.07209 -0.00783029 6.51257e-23)
(0.993643 0.0617783 0)
(1.03272 0.00276481 0)
(0.958638 0.21372 -1.14975e-23)
(1.01476 0.000314647 -8.25822e-21)
(1.02082 0.0028653 -1.42293e-21)
(1.12364 0.217057 -2.39705e-21)
(1.04185 -0.00249664 0)
(1.01647 8.46432e-05 5.8512e-21)
(0.858123 0.302712 -1.61043e-21)
(1.02875 -0.0209095 0)
(1.03006 0.00416989 0)
(1.02976 0.00153265 9.36646e-22)
(1.00223 0.0316577 0)
(1.04022 0.0244213 3.08915e-21)
(1.03045 0.00146916 0)
(1.0007 0.0301826 4.49082e-22)
(1.13768 0.118445 1.47296e-21)
(1.0276 0.00176992 -6.87231e-22)
(0.916575 -0.093511 -1.48878e-22)
(1.02324 0.00470138 -1.25907e-21)
(1.02856 -2.95483e-05 2.94926e-21)
(0.821767 0.0906553 -7.96574e-22)
(1.17254 0.161884 6.83159e-21)
(1.02836 1.04823e-05 1.26911e-22)
(0.301897 0.226888 5.94773e-21)
(1.02834 0.00158092 0)
(1.02453 -0.00400717 -1.67998e-21)
(1.02556 -0.00342764 0)
(1.01441 0.00264681 2.0855e-21)
(1.01056 0.00963748 -9.63062e-22)
(1.02588 -0.00310592 -2.20423e-21)
(1.08564 0.254543 0)
(1.08479 0.189541 5.82263e-20)
(1.0229 -0.00440857 3.31025e-21)
(1.08363 0.102434 -6.00512e-21)
(1.04402 -0.0716538 5.06426e-20)
(1.13783 0.136042 0)
(1.04957 -0.00787404 9.47856e-23)
(1.02942 0.00132266 0)
(0.972538 -0.0925445 -8.07798e-22)
(0.978584 0.0761253 -2.98098e-22)
(1.01584 0.000147896 -1.46113e-21)
(1.01818 0.00413774 0)
(0.920319 -0.12277 0)
(1.02475 -3.54855e-05 -2.14025e-21)
(1.01753 -4.59435e-05 7.90674e-22)
(1.01913 0.00287979 -2.62502e-21)
(1.01904 0.00130579 8.07633e-22)
(1.02555 0.00263768 1.69636e-21)
(1.02542 0.00194127 2.17118e-22)
(1.02895 -0.000285048 -6.73461e-23)
(1.03297 -0.0202837 0)
(1.01464 0.000749424 0)
(1.0155 0.000861302 -3.30909e-21)
(1.02422 0.00182342 9.60078e-22)
(1.16201 0.196132 -1.06835e-21)
(1.02365 0.00488271 -1.08255e-21)
(1.01785 0.00160391 -4.13901e-21)
(0.99848 0.0707653 -1.03378e-21)
(1.0238 0.00314965 -1.05547e-21)
(1.01579 0.00058159 0)
(0.984484 0.0903423 0)
(1.01605 0.0026029 -3.21953e-22)
(1.03074 0.0015879 6.44636e-22)
(1.03075 0.00166335 -9.81888e-22)
(0.899229 -0.215298 -4.17634e-22)
(1.02595 -6.39858e-05 0)
(1.00967 0.0163187 5.29836e-21)
(1.01691 0.000106494 -2.6787e-21)
(1.02638 -1.59083e-05 0)
(1.03297 0.00123883 8.21897e-23)
(1.03992 0.0172305 0)
(1.04108 -0.106926 0)
(1.10781 -0.0283253 8.22302e-23)
(1.02118 0.00320574 -1.5443e-21)
(1.02008 0.00406952 -3.11504e-23)
(1.01848 0.00263949 0)
(1.03368 -0.0114164 2.36071e-21)
(1.01793 -2.8744e-05 0)
(1.01569 0.00155813 -9.37526e-24)
(1.02907 0.0030206 7.85787e-22)
(1.022 0.00332838 1.41533e-21)
(1.02408 0.00166876 1.61974e-21)
(1.02075 0.00164081 0)
(1.01261 0.0348965 5.97671e-21)
(1.03093 0.00494251 -2.42909e-21)
(1.01967 0.00248096 1.03449e-21)
(0.92904 -0.0121047 4.02555e-21)
(1.01465 0.000163769 0)
(1.01893 0.00172969 0)
(1.01758 -0.00141716 -1.02809e-22)
(1.03026 0.0015781 -2.98923e-24)
(1.01716 0.000268779 1.79595e-21)
(1.01833 0.014652 0)
(1.03802 0.00703942 -1.55332e-22)
(0.989504 0.008188 0)
(1.02295 0.00337674 0)
(0.958324 -0.165071 0)
(0.96172 0.00536496 2.02843e-21)
(1.01843 0.00261456 3.0988e-21)
(0.964646 -0.14109 1.12206e-20)
(1.01244 -0.00108741 -2.60853e-21)
(1.01761 0.0010187 5.17628e-21)
(1.02476 0.0444462 6.70402e-21)
(1.02847 -0.146371 3.46554e-22)
(1.03026 0.0397739 8.32431e-21)
(1.02516 0.000105559 0)
(0.696429 0.233758 -5.07852e-21)
(1.01548 0.000698825 -3.98918e-21)
(1.02359 0.00226737 1.67709e-21)
(1.02915 -0.0192296 0)
(1.01402 -0.123703 1.2077e-21)
(1.02315 0.00397955 -4.09063e-22)
(1.03717 -0.000924357 4.01712e-22)
(1.03576 0.018254 0)
(1.03291 0.00497918 1.76899e-22)
(1.01453 9.72957e-05 0)
(1.03074 0.0204387 9.15043e-21)
(1.03757 0.00335004 0)
(1.02561 0.00289247 0)
(1.02491 1.63271e-05 -3.53072e-23)
(1.07545 0.123466 -3.53863e-22)
(1.01891 0.0029614 -1.25704e-21)
(1.02644 6.71099e-06 4.33193e-22)
(1.03879 -0.00307265 8.11857e-22)
(1.019 0.00296669 -6.30807e-22)
(1.03252 0.000823411 -3.14831e-23)
(0.989395 0.00935616 -2.86044e-21)
(0.862805 0.303826 -9.59596e-22)
(1.01889 0.00298174 5.76063e-21)
(1.03245 0.0053603 3.07431e-23)
(1.01976 0.00100961 5.70114e-21)
(1.01889 0.0029951 -5.10427e-21)
(1.07682 0.00589004 -2.56611e-21)
(1.019 0.00441902 0)
(1.02967 0.00137038 8.69544e-22)
(1.01964 0.00137096 -1.3236e-21)
(0.991583 0.118622 0)
(1.07761 -0.00977126 -2.18901e-21)
(1.01639 7.13894e-05 -5.22014e-21)
(1.02935 -0.00860701 2.40082e-21)
(1.02046 -0.0108573 2.60817e-21)
(1.01877 0.00458113 -4.82672e-21)
(1.08913 -0.0224624 0)
(1.01775 0.0015094 2.05551e-21)
(1.02116 -0.0154729 0)
(1.0741 -0.0865966 1.04495e-21)
(1.02384 0.00303441 -5.59083e-22)
(1.02935 0.00130812 8.92897e-22)
(1.02304 0.00390718 -4.17321e-22)
(0.777921 0.14835 -7.28929e-21)
(1.02856 0.00217388 1.31337e-23)
(1.02846 0.00209919 1.37123e-21)
(1.02193 0.00147654 1.29671e-21)
(0.983804 -0.00388745 -6.38915e-22)
(0.513765 0.0263791 -1.94843e-20)
(0.328955 0.26702 -9.39119e-21)
(1.06632 0.0601701 -7.41957e-21)
(1.03033 0.00159275 -7.78913e-22)
(1.02139 6.30934e-05 -2.92385e-21)
(1.03856 0.055516 7.67438e-21)
(1.02282 -7.93195e-06 -3.86662e-23)
(1.0421 0.00540701 -8.60906e-22)
(1.03927 -0.00347145 1.48565e-21)
(1.13032 0.0118837 0)
(1.05049 -0.0814019 -9.13742e-22)
(1.01864 0.00264457 6.82191e-21)
(1.02627 -0.0172622 -3.43279e-22)
(0.886476 -0.0885676 -1.03429e-20)
(1.02457 0.00459509 0)
(1.0191 0.00304809 -4.38566e-22)
(1.02828 0.00413283 0)
(1.01757 0.000939354 0)
(1.05868 -0.0326205 -2.53249e-21)
(1.03858 0.00309858 6.01992e-22)
(1.02192 0.00146793 -7.83263e-24)
(1.03351 0.0188966 -1.03514e-20)
(1.01347 0.0124643 4.8169e-21)
(1.02936 0.00116125 8.64384e-22)
(1.11584 0.0190824 -3.13788e-21)
(1.01847 0.0097637 1.40698e-22)
(1.01875 0.00284723 5.96162e-22)
(0.91934 -0.0380914 -4.83475e-21)
(1.01762 0.00132958 2.41041e-21)
(1.01447 -0.0905583 0)
(1.01891 0.000963298 4.80961e-21)
(1.02717 -0.106365 0)
(1.02309 -0.0952068 1.23771e-21)
(1.02907 0.0011882 0)
(1.0414 0.00555984 -1.68888e-22)
(1.04623 0.00256521 -5.31514e-22)
(1.02207 0.0034155 -4.79954e-21)
(0.46902 -0.0230916 2.61328e-21)
(1.04205 -0.000117698 -4.18497e-22)
(1.02124 0.000222966 2.80695e-21)
(0.921992 0.195309 5.68717e-21)
(1.01339 0.000785113 8.68046e-21)
(1.03361 0.00182493 0)
(1.02666 -1.3434e-05 -2.59538e-22)
(1.01744 0.000837894 3.34566e-21)
(1.13821 -0.0681073 0)
(1.13754 0.144571 -2.15544e-21)
(1.01998 0.0043525 -8.90847e-22)
(1.02719 1.12898e-05 2.64397e-22)
(1.04134 0.00588427 -3.80379e-21)
(1.01929 0.00239048 -2.50096e-21)
(1.01964 0.00212189 8.78438e-22)
(1.04225 0.00519201 1.84771e-21)
(1.01334 0.0158551 0)
(1.01786 0.000118342 -1.12261e-21)
(1.04187 0.000182615 0)
(1.01649 0.00366736 3.87265e-21)
(1.07805 -0.0140491 2.11741e-21)
(1.02353 0.00100853 5.07804e-22)
(1.02962 0.00140909 4.34044e-22)
(1.21253 0.274734 8.66879e-21)
(1.04946 -0.127575 0)
(1.13718 -0.0725125 4.74297e-22)
(0.886373 -0.196808 0)
(1.01958 0.00107011 -2.68952e-21)
(0.892911 -0.103981 -3.36547e-22)
(1.02086 0.00281683 1.4074e-21)
(1.05149 0.468155 4.35273e-20)
(1.01895 0.00292849 -4.26637e-22)
(1.02457 0.00217545 2.69932e-21)
(1.09271 0.00920777 0)
(0.951594 -0.153133 -3.42046e-21)
(1.14297 0.0107678 2.34886e-21)
(1.02649 0.00933466 1.14179e-21)
(1.02431 0.00390885 -2.63794e-21)
(1.03356 0.00201109 1.63994e-23)
(0.980348 -0.0501511 -6.62208e-21)
(1.01994 0.0039667 3.91892e-21)
(0.966115 -0.0475262 1.56219e-22)
(1.01864 -0.0283612 3.65448e-21)
(0.868474 -0.110642 -4.90127e-21)
(1.09671 0.234445 0)
(1.02192 0.00266246 1.37799e-23)
(1.01576 0.00230064 -5.83787e-21)
(0.930183 -0.00112577 0)
(1.02259 0.00574758 3.08865e-21)
(0.79372 0.16223 7.08622e-21)
(1.0186 0.00283131 0)
(1.01506 0.00602056 2.76446e-21)
(0.943181 -0.0421157 0)
(1.01836 0.00215418 -2.05479e-21)
(1.01724 -0.00621136 0)
(0.966746 0.0278199 1.32239e-20)
(1.0196 0.00206519 -3.32933e-21)
(0.964129 -0.0405507 1.69257e-21)
(1.01652 0.000630676 -3.61162e-21)
(1.02344 0.00102963 -4.98517e-22)
(1.02136 0.00178844 2.72393e-21)
(1.02845 0.00127973 1.86186e-21)
(1.02207 -0.01037 0)
(1.02422 0.0038217 2.69819e-21)
(1.09355 0.124407 -6.36252e-22)
(1.01963 0.00127392 0)
(1.02601 0.00413558 1.79206e-21)
(1.02821 0.00975981 2.1686e-21)
(0.919706 -0.0942746 0)
(1.01654 -0.0268916 0)
(1.01983 0.00131444 2.69674e-21)
(1.00233 -0.0664885 0)
(0.443157 -0.353406 7.72781e-21)
(1.0244 0.000114402 1.51235e-21)
(1.01607 0.000569704 0)
(0.484051 -0.43742 8.39662e-21)
(1.12504 -0.0798156 2.98076e-22)
(1.08819 0.0502654 0)
(1.02827 0.00256725 0)
(1.16239 0.182219 -3.00155e-21)
(1.02123 -0.0109952 1.41698e-21)
(1.02147 0.00178062 0)
(1.02483 9.39798e-05 0)
(1.03177 0.00983131 0)
(1.01982 0.00225186 0)
(0.980589 -0.166283 -9.99513e-21)
(1.02825 0.00262671 1.8944e-22)
(1.01562 0.00227636 7.21088e-21)
(0.936791 0.012138 1.24489e-22)
(0.969541 -0.0266591 -4.0908e-21)
(1.01579 0.000627724 3.31646e-21)
(1.0426 -0.00799215 1.9946e-21)
(1.0225 0.00355832 2.70571e-21)
(1.20109 0.0935988 0)
(1.02099 0.00289764 0)
(1.04982 -0.0722433 1.71587e-21)
(0.968047 -0.0261716 -1.1546e-23)
(0.911716 -0.0931481 -1.93295e-21)
(1.01648 0.000692976 -3.18697e-21)
(0.971901 0.108864 0)
(1.02239 0.00523394 -3.19111e-21)
(1.21334 0.159614 5.47651e-21)
(1.02007 2.75885e-05 3.43174e-21)
(1.02114 0.00324495 0)
(1.02497 2.61538e-05 -5.01182e-22)
(1.01125 0.0441656 0)
(1.0269 3.42657e-05 5.01794e-22)
(0.82213 0.128097 -1.07536e-20)
(1.02224 0.00600188 -4.21759e-22)
(0.9961 -0.0426492 4.42534e-21)
(1.02103 0.00284864 0)
(1.01659 0.00762554 -4.24328e-21)
(1.03453 -0.0117902 -5.09562e-21)
(1.02597 0.00388466 3.46004e-21)
(0.922277 -0.0639597 0)
(1.00301 0.0755602 0)
(1.02508 9.34307e-05 -1.88098e-21)
(1.02971 0.00206144 0)
(1.14909 -0.185222 -1.09677e-20)
(1.02253 8.77192e-05 -7.01175e-24)
(1.05902 -0.082848 -2.94561e-21)
(1.04844 -0.0124918 0)
(1.01968 0.00130336 1.02259e-23)
(1.021 0.00507637 -5.64633e-21)
(1.0296 0.00194026 2.45801e-22)
(1.01822 0.00440336 -3.10664e-21)
(1.03058 0.000494489 -9.73303e-22)
(1.01929 0.0112855 7.74754e-21)
(1.03561 0.00167866 6.88527e-23)
(0.974036 0.0116756 -3.90527e-21)
(1.04205 0.00323919 -3.57174e-21)
(1.03043 0.0016552 1.85522e-22)
(1.02563 3.48251e-05 -6.31648e-22)
(1.01772 0.00145407 0)
(1.01593 0.000392208 -7.6153e-22)
(0.95011 0.333861 1.76233e-21)
(1.09636 0.162037 -2.30909e-21)
(1.01945 0.00208179 0)
(1.02563 0.00227296 -9.39777e-22)
(1.02059 0.000265836 1.9305e-21)
(1.04017 -0.00428131 5.7402e-22)
(1.026 -0.0168061 -2.83436e-21)
(1.02094 0.00524852 0)
(0.995019 0.0138934 0)
(1.01843 0.00251246 0)
(1.03167 -0.0096 0)
(1.0224 0.00357207 -2.66219e-21)
(1.0349 0.00391855 -2.63626e-22)
(1.03489 0.00410986 2.31363e-22)
(1.02354 0.00528849 9.50535e-22)
(1.01875 0.00287461 0)
(1.03399 0.00224192 0)
(0.418773 -0.010369 0)
(0.908698 -0.0738991 0)
(1.01929 0.00169395 0)
(0.822861 0.231138 -1.06607e-20)
(1.01594 0.000138147 -1.2536e-23)
(1.09855 0.144272 1.18084e-21)
(1.01983 -0.012737 -2.45459e-21)
(1.02856 0.00106436 -7.9599e-25)
(1.0193 0.00172079 -1.85368e-21)
(1.02002 -0.00923898 -2.86545e-21)
(1.01603 0.0121507 1.18765e-21)
(0.948991 -0.0160771 2.62311e-21)
(1.03557 0.0016416 -1.32556e-22)
(1.01797 0.00619721 0)
(1.02367 0.00193662 0)
(1.07902 0.0963077 0)
(1.07764 -0.249959 2.38605e-20)
(1.0289 0.00113937 9.49432e-22)
(1.01571 9.47766e-05 -6.84045e-21)
(1.03966 -0.00425752 1.36901e-21)
(1.02398 -0.000276374 0)
(1.02119 0.00186596 0)
(1.21343 0.123365 -4.40707e-22)
(1.02169 -0.00304532 -5.42187e-22)
(1.01587 0.00246008 0)
(1.01826 0.0021576 -2.58206e-21)
(1.02178 -0.0048074 1.62956e-21)
(1.0181 0.00251401 -3.37611e-21)
(1.01956 0.00317745 -1.04863e-21)
(1.01956 0.00326102 2.16246e-21)
(1.02518 0.00225389 0)
(1.01833 -0.0138377 0)
(1.01752 0.000324426 5.47069e-21)
(1.01503 0.0454139 1.21811e-21)
(1.02157 0.000997767 2.20514e-21)
(1.01979 0.00138197 -1.3301e-21)
(0.993761 -0.0732128 2.30256e-21)
(0.965846 -0.0422521 -2.7329e-21)
(1.07735 -0.00224578 2.60698e-21)
(1.01672 7.27493e-06 -1.36656e-21)
(1.02947 0.00125909 1.26363e-21)
(0.823032 0.245922 1.14462e-20)
(1.01785 0.00160143 3.11163e-21)
(1.04097 0.00614491 0)
(1.0197 0.00228465 -1.50933e-21)
(1.01948 0.00123711 1.34967e-21)
(1.02883 0.00114605 0)
(1.03524 -0.0204084 -3.44223e-21)
(0.795555 -0.116923 -9.4394e-22)
(1.06611 0.286212 -2.39035e-20)
(1.09932 -0.239888 -3.72789e-20)
(0.345456 -0.458018 -7.45808e-21)
(1.0174 0.000653825 0)
(0.981691 -0.101193 8.18823e-22)
(1.01587 0.00245097 0)
(1.02389 0.00152908 0)
(1.01671 0.00374172 0)
(0.877203 -0.0906612 -3.35959e-22)
(1.01768 0.00116566 0)
(1.03657 -0.017016 1.36295e-20)
(1.03466 0.0479414 2.77307e-21)
(0.983564 0.169965 -4.12893e-23)
(1.02564 -0.00245412 3.26788e-23)
(1.03109 8.94781e-05 0)
(0.829696 -0.0260302 1.53169e-21)
(1.01688 0.00228215 0)
(1.01839 0.00653681 7.2704e-21)
(1.20797 0.136278 0)
(0.962429 0.337054 0)
(0.725808 0.288678 -7.36669e-21)
(1.02212 -0.00227495 -4.05834e-21)
(1.02786 -0.113299 0)
(1.0172 0.00118811 2.71657e-21)
(0.976851 0.0113642 4.13635e-21)
(1.0184 0.0029117 4.15231e-21)
(1.12882 -0.152955 5.77033e-21)
(1.01976 -0.00699879 0)