/*--------------------------------*- C++ -*----------------------------------*\
| =========                 |                                                 |
| \\      /  F ield         | OpenFOAM: The Open Source CFD Toolbox           |
|  \\    /   O peration     | Version:  v2012                                 |
|   \\  /    A nd           | Website:  www.openfoam.com                      |
|    \\/     M anipulation  |                                                 |
\*---------------------------------------------------------------------------*/
FoamFile
{
    version     2.0;
    format      ascii;
    class       volScalarField;
    location    "50";
    object      k_0;
}
// * * * * * * * * * * * * * * * * * * * * * * * * * * * * * * * * * * * * * //

dimensions      [0 2 -2 0 0 0 0];


internalField   nonuniform List<scalar> 
18618
(
0.000147652
0.000197917
0.000146504
0.000148277
0.000147089
0.00015018
0.000251539
0.0216104
0.000191403
0.000179323
0.000147044
0.000147706
0.000146457
0.000147807
0.000146311
0.000150212
0.000146771
0.000147614
0.000144185
0.000237258
0.000146287
0.0552595
0.0001441
0.000147633
0.000233687
0.000193322
0.000172852
9.34168e-05
0.000167045
0.000146456
0.000149734
0.000148169
0.000166517
0.000146021
0.000153859
0.0169759
0.000145737
0.000200565
0.0256054
0.000144149
0.0272464
0.0528148
0.0198594
0.00687908
0.000159778
0.000156493
0.0256056
0.000158295
0.000176119
0.000851918
0.000172492
0.000148442
0.000166988
0.00016499
0.000207446
0.000198101
0.000164726
0.000176291
0.0272174
0.000234189
0.0270867
0.00135013
0.000175922
0.000146578
0.000198729
0.000182419
0.000243561
0.000160317
0.000144941
0.0318206
0.000181141
0.000144182
0.000148981
0.000215964
0.0115424
0.0202052
0.000148743
0.000147231
0.000145058
0.000183131
0.000154262
0.000146002
0.000148697
0.000151538
0.0576131
0.000145989
0.000197724
0.0321559
0.000721298
0.0156589
0.000145822
0.0305377
0.000199671
0.000144547
0.029579
0.000144884
0.000149527
0.000190526
0.000146437
0.0248419
0.000458717
0.030924
0.000148045
0.000197256
0.000167137
0.000183393
0.000223467
0.000145721
0.000414643
0.000135135
0.0297216
0.000155226
0.0280398
0.00767892
0.000147516
0.000144238
0.000249815
0.0001483
0.00016763
0.0108716
0.00015178
0.000149605
0.000154987
0.000149432
0.000177142
0.000182164
0.000155632
0.000198782
0.00019773
0.0001785
0.0140502
0.000239525
0.000232546
0.000164392
0.000145934
0.000165776
0.000147262
0.0345116
0.0375908
0.000147167
0.0244169
0.000256931
0.000145089
0.000146056
0.000154831
0.000147518
0.000144145
0.000148649
0.000146282
0.000148817
0.000231359
0.000147229
0.000167021
0.000149827
0.000154713
0.0292531
0.00475368
0.000165196
0.000148058
0.000440859
0.000176782
0.000158244
0.00807286
0.000240289
0.000147876
0.000155849
0.000151452
0.0581518
0.000147724
0.000190554
0.000149916
0.000166016
0.000181907
0.000190185
0.0187485
0.000148491
0.000184707
0.000149895
0.000147319
0.000161354
0.000221735
0.000153687
0.000506956
0.000148933
0.000147715
0.000159647
0.000231658
0.000174814
0.000195263
0.000147777
0.000147141
0.000157489
0.000155891
0.000146859
0.00014504
0.000204772
0.00014715
0.000149688
0.018049
0.000160512
0.000182431
0.0402304
0.000219559
0.0155474
0.000185298
0.000152216
0.0286293
0.0312179
0.000148419
0.000144334
0.000195915
0.000193268
0.000151674
0.000144173
0.000148391
0.000149598
0.00138499
0.000257083
0.000151946
0.000148601
0.000148789
0.000154622
0.0363907
0.000149442
0.0325321
0.00014788
0.000149422
0.000181124
0.000194561
0.000160646
0.00015211
0.000161717
0.000145884
0.024928
0.000161342
0.000148044
0.000148812
0.000188872
0.000222975
0.000150776
0.000195569
0.000148315
0.000147621
0.0230856
0.000176651
0.000171971
0.000204298
0.000148025
0.0339764
0.000148418
0.000144556
0.052895
0.000158559
0.000225735
0.000168284
0.000155988
0.000191896
0.000147532
0.000143909
0.000148735
0.000147512
0.00145495
0.000250495
0.000152937
0.0541931
0.000202497
0.000191521
0.000158671
0.000182539
0.000156822
0.000181068
0.000147331
0.000150679
0.000147469
0.000149837
0.000155401
0.000165682
0.000149243
0.000148187
0.0356982
0.000146941
0.000177032
0.000147848
0.000150068
0.0294067
0.000148415
0.000145948
0.00016292
0.000176832
0.00018366
0.000145375
0.000176324
0.000148141
0.000167712
0.0270045
0.000190507
0.0350755
0.000288312
0.0093367
0.000147734
0.000159731
0.000146513
0.000167883
0.00015204
0.000147447
0.000148401
0.000147637
0.0171648
0.000182783
0.00135178
0.000205682
0.000143891
0.000175684
0.000149487
0.000148963
0.000147191
0.000150007
0.000163257
0.0001741
0.000240047
0.000144072
0.00020697
0.000148164
0.044666
0.000149148
0.000200571
0.000222508
0.000147218
0.000149423
0.00454257
0.000164511
0.036199
0.000147667
0.000148904
0.00016637
0.000147235
0.000234513
0.000151526
0.000150572
5.61787e-05
0.000175652
0.000175777
0.0435764
0.000178731
0.000147506
0.000176787
0.00015391
0.000181909
0.000176378
0.000144189
0.000147912
0.000145328
0.00025815
0.00014829
0.000147405
0.000147763
0.000148206
0.000176425
0.000149499
0.000150488
0.000145766
0.0298582
0.055769
0.000176447
0.0151673
0.0573505
0.000147651
0.000148941
0.000178216
0.000189813
0.000145763
0.000148122
0.000154098
0.000160615
0.000144098
0.000147221
0.000181752
0.00015185
0.000146977
0.000176493
0.00017777
0.000149896
0.000145961
0.000149235
0.000164838
0.000145281
0.000173802
0.011628
0.000147567
0.000177561
0.000150079
0.000147896
0.000226356
0.0296377
0.000147932
0.00016895
0.0305979
9.10206e-05
0.000147916
0.0179907
0.000148134
0.000165711
0.00015949
0.011562
0.000145373
0.000221674
0.00014736
0.00015173
0.000163426
0.00014755
0.000148262
0.000149955
0.000145417
0.000145224
0.00015117
0.000175614
0.000143984
0.000151551
0.00016545
0.000161002
0.000144355
0.0262188
0.000158745
0.000159259
0.000145252
0.0300475
0.000176137
0.000154678
0.000204786
0.000734806
0.000147921
0.000147478
0.000156227
0.000146686
0.000145519
0.000156973
0.000148793
0.000148554
0.000199548
0.000185276
0.000154538
0.000206707
0.000148556
0.00016198
0.0313224
0.00017724
0.000153589
0.0105396
0.000185041
0.000147794
0.000155971
0.000149623
0.000176483
0.000159897
0.000147509
0.000194452
0.000147562
0.000148244
0.000149962
0.0583383
0.00973714
0.000155527
0.000165989
0.000147686
0.000179864
0.000149448
0.000147468
0.000149958
0.000198947
0.000145308
0.000155599
0.000165664
0.00015439
0.000163914
0.000157979
0.000154813
0.0291954
0.000159224
0.000205482
0.000164003
0.000168666
0.00015139
0.000104334
0.000151197
0.000174016
0.000148474
0.000179
0.000153247
0.00016505
0.000161759
0.000195588
0.0358234
0.000148323
0.000148999
0.0140936
0.000152794
0.0001938
0.0389577
0.000151193
0.00014918
0.000149903
0.000145998
0.000250211
0.000147722
0.000160081
0.000182298
0.000152124
0.000153738
0.000212164
0.000174553
0.0241797
0.000145672
0.000159162
0.000159665
0.000177087
0.000148612
0.000150033
0.00014906
0.000168624
0.0155498
0.000148186
0.000148595
0.000194549
0.000176368
0.000147073
0.000147937
0.0135761
0.000148223
0.0102283
0.000148744
0.000209191
0.0117254
0.000152158
0.000155927
0.000177826
0.000149481
0.0252253
0.000149958
0.000145762
0.000147833
0.000171129
0.00015322
0.000176936
0.000162732
0.000147828
0.00014849
0.000204844
4.64992e-05
0.000144261
0.000147844
0.000147249
0.000183267
0.000173315
0.000145908
0.000193413
0.000145377
0.00610552
0.000147727
0.000173443
0.000177818
0.0341771
0.000150534
0.0111443
0.000153421
0.000146989
0.00018244
0.000151348
0.000147119
0.000182801
0.000147611
0.000147958
0.0336208
0.000148535
0.0360384
0.0266328
0.0175696
0.00028146
0.000171901
0.000214479
0.000145339
0.000162643
0.000154339
0.000165638
0.000148556
0.0001482
0.000145267
0.000148386
0.00014518
0.0192379
0.000167317
0.000147148
0.000145748
0.000148503
0.000145708
0.00015007
0.000162782
0.000198605
0.00139119
0.000179584
0.00014621
0.000147994
0.000201774
0.000163887
0.000148776
0.00014745
0.000164755
0.000148032
0.000149091
0.000147452
0.000159439
0.000220258
0.0290917
0.0197592
0.000237377
0.031482
0.000145905
0.000159638
0.00286772
0.000147802
0.000153657
0.000149902
0.000145155
0.000221257
0.000172515
0.000149544
0.000196309
0.000147967
0.000147719
0.000191976
0.000148256
0.000153804
0.000147248
0.0105806
0.000148925
0.000175152
0.000200946
0.000209056
0.000151544
0.0108011
0.00017777
0.000148231
0.000147089
0.000167928
0.000168809
0.000145269
0.000198489
0.000162888
0.000149359
0.000150285
0.000151775
0.0109706
0.000147873
0.000145336
0.00016838
0.000149648
0.000154283
0.000147182
0.000205994
0.000146193
0.000147038
0.0234462
0.000189015
0.000148389
0.000145868
0.000175443
0.000147619
0.000166564
0.000148352
0.00016833
0.000154034
0.0133306
0.00014996
0.000148972
0.000149176
0.000146154
0.000200196
0.0585034
0.00019805
0.0413983
0.000171013
0.0278757
0.00016667
0.000176918
0.000148407
0.000148689
0.0109481
0.000206185
0.000148566
0.000159367
0.000147609
0.00020789
0.000144695
0.000147028
0.000147222
0.000195102
0.000180974
0.000148919
0.000147697
0.000147642
9.67876e-05
0.000211603
0.000155253
0.00015857
0.000185428
0.000150427
0.000145057
0.000166148
0.0251003
0.000158345
0.000146171
0.000143942
0.000148776
0.000157937
0.000143692
0.0198453
0.00021459
0.000161217
0.000200523
0.000145691
0.000151628
0.000167264
0.000143976
0.0271264
0.0131961
0.0285831
0.000173835
0.000207298
0.000145924
0.000147211
0.000171605
0.000181581
0.0123907
0.000147708
0.000162695
0.00382213
0.000147845
5.2358e-05
0.0117947
0.000144706
0.000147258
0.000157685
0.000148936
0.000151952
0.00988423
0.0101277
0.0355947
0.000170884
0.00017926
0.000176131
0.0131693
0.000145853
0.00017172
0.000148017
0.000151397
0.0132516
0.000143913
0.000249304
0.000147614
0.000154966
0.000191087
0.000174698
0.000149263
0.000149472
0.000168411
0.000147665
0.000190881
0.000175125
0.000148043
0.000170916
0.0273321
0.000148127
0.00015547
0.00016443
0.000147461
0.000148017
0.000147681
0.0253937
0.0001737
0.000146172
0.000147826
0.000154042
0.0288323
0.000143868
0.000148118
0.00910756
0.000145789
0.000144632
0.0002052
0.0145373
0.000203496
0.000147506
0.000145124
0.000176629
0.000149249
0.000148996
0.022369
0.00017556
0.000191987
0.000190894
0.00015591
0.000148855
0.000158606
0.000146369
0.000161259
0.000176016
0.000145625
0.0144255
0.000165579
0.000151338
0.0107394
0.000191597
0.000160314
0.000162553
0.000174364
0.000154274
0.000147107
0.00014807
0.000145142
0.000149675
0.0001503
0.000165778
0.000155658
0.000144776
0.00911592
0.000162756
0.0223895
0.000218342
0.000159314
0.000172296
0.00014877
0.00014819
0.000145649
0.00020684
0.00203562
0.000148416
0.000147146
0.024206
0.000147977
0.000145848
0.000149268
0.00020394
0.000148411
0.000195613
0.000149441
0.000154462
0.0194844
0.000145087
0.000147972
0.000144305
0.000148338
0.0248683
0.000214708
0.0439046
0.000147877
0.0319352
0.0217668
0.0562055
0.0155966
0.000160149
0.0131836
0.000148233
0.000156327
0.000153305
0.000176394
0.000206144
0.000149297
0.00015417
0.000154191
0.000167334
0.000147565
0.000146303
0.0218236
0.000146199
0.000145689
0.000178846
0.000148098
0.000161271
0.032029
0.000148136
0.000151815
0.000151898
0.000145888
0.000171733
0.000157816
0.000148675
0.000206426
0.016578
0.00017463
0.00015109
0.0122146
0.0113976
0.000164417
0.000147174
0.000144794
0.000193398
0.000147978
0.000147077
0.000147519
0.000144769
0.000148253
0.000149906
0.000149048
0.000187285
0.000147579
0.000148643
0.000166357
0.000192098
0.000147196
0.000145917
0.000148301
0.000147175
0.000147442
0.000149022
0.000145587
0.000145707
0.0146896
0.000174968
0.000194831
0.000149098
0.000149505
0.000158685
0.000150323
0.000164749
0.000155091
0.0330286
0.0107515
0.0257521
0.000147959
0.000147147
0.000199508
0.000178611
0.00017615
0.000146264
0.000147189
0.000154076
0.000147837
0.000176615
0.0377123
0.000147361
0.000147472
0.0297126
0.0295494
0.000172733
0.000183817
0.0410771
0.0293749
0.000148152
0.000160199
0.000173827
0.00017145
0.000189714
0.000148038
0.000148461
0.00017982
0.000164629
0.000145821
0.000148265
0.000148369
0.00014824
0.000153063
0.0555448
0.000164155
0.000145292
0.000154355
0.000148586
0.000147987
0.000148073
0.00986914
0.0132054
0.000147916
0.000150057
0.000207154
0.000151904
0.000146023
0.00014587
0.000146427
0.0119496
0.000148205
0.000160241
0.000149527
0.0330372
0.000147754
0.000147576
0.0555424
0.00016221
0.000191334
0.000146272
0.0136645
0.000149027
0.000147876
0.0499556
0.000145979
0.0414914
0.000147078
0.000204019
0.0324879
0.000171637
0.000182135
0.0163252
0.000183884
0.0162579
0.000149162
0.000148134
0.000147045
0.000163787
0.000147886
0.000169377
0.000149416
0.0584579
0.000176871
0.00015163
0.00014533
0.000154071
0.000149001
0.000149602
0.000147668
0.000148271
0.000151354
0.000153037
0.000145748
0.000147389
0.000206192
0.000147509
0.00017693
0.00014586
0.000192476
0.00014605
0.0184935
0.000191896
0.00766211
0.000176665
0.00014604
0.00021062
0.0585438
0.00015866
0.0298077
0.0001478
0.000220043
0.000180692
0.000145645
0.000176239
0.000147985
0.0384885
0.000163756
0.000145414
0.000148234
0.000163311
0.000152557
0.000192865
0.000148895
0.000174025
0.000150276
0.000148884
0.0310695
0.000150992
0.000147598
0.000206614
0.000162317
0.00015232
0.0401031
0.000157973
0.000146941
0.000174593
0.000146291
0.000143816
0.000181371
0.000151972
0.00014562
0.000158398
0.000157632
0.000176645
0.0584265
0.000148482
0.000210292
0.000144793
0.000148864
0.000149258
0.000150028
0.000150866
0.000196708
0.000211715
0.000162222
0.000148744
0.0118908
0.0114806
0.0584639
0.000145945
0.000148188
0.000156124
0.00014661
0.000149542
0.00015276
0.000149828
0.000153774
0.000144627
0.000147867
0.000148009
0.0001489
0.000158675
0.000147874
0.000145929
0.000181783
0.000180108
0.000187433
0.0572484
0.000171809
0.000177027
0.00014878
0.04476
0.000198845
0.000166035
0.000158176
0.00016245
0.0467249
0.000206454
0.000147689
0.000164242
0.0254328
0.0423742
0.000197198
0.00014664
0.000193447
0.000164261
0.000153685
0.000147565
0.000171318
0.000154088
0.000162492
0.000150883
0.000162738
0.0233931
0.000204567
0.00014738
0.000144743
0.000149081
0.000147608
0.000190041
0.000149407
0.00017643
0.000148012
0.000151455
0.000146678
0.000147698
0.00014666
0.000196944
0.000159667
0.000176749
0.000147695
0.000147902
0.000171812
0.000173384
0.0370147
0.000149352
0.000147332
0.00756075
0.000147208
0.000146855
0.000150482
0.000149209
0.0525824
0.000144716
0.000173192
0.000194861
0.000147597
0.000176805
0.01023
0.000147602
0.000148558
0.000161482
0.000146
0.00017108
0.000146933
0.000245323
0.000164624
0.000147911
0.000148069
0.000180208
0.000148408
0.0272566
0.000238254
0.000145927
0.000183134
0.000193107
0.000177328
0.000217567
0.000148466
0.000169056
0.000173237
0.0111826
0.000147547
0.000153951
0.000151223
0.000150941
0.00014616
0.0330983
0.00020184
0.000153942
0.0113645
0.000149911
0.000152478
0.000147021
0.000161793
0.000145284
0.000147617
0.000149398
0.000148514
0.000165689
0.000234095
0.000148431
0.000148076
0.000147766
0.0177897
0.000183105
0.000151805
0.000173936
1.73153e-05
0.000163123
0.000146644
0.000147593
0.000199006
0.000146685
0.00014801
0.000147916
0.000148792
0.000151203
0.000147815
0.000152462
0.000147913
0.000148134
0.000147886
0.000175484
0.000162545
0.000178901
0.000174719
0.000152828
0.00649186
0.000148789
0.000148454
0.00708526
0.0126149
0.000165353
0.000148036
0.000146881
0.000146976
0.000149356
0.000146931
0.0459791
0.0162929
0.000145965
0.000149438
0.000163875
0.000147887
0.00893024
0.000174954
0.00014776
0.000160612
0.000165374
3.99543e-05
0.000147009
0.0324263
0.00016627
0.0115363
0.000160035
0.000196156
0.000165835
0.000144559
0.000149163
0.000145359
0.0143927
0.0276757
0.000153035
0.000147198
0.000144273
0.000190857
0.000194874
0.000153021
0.00014606
0.000146952
0.000156091
0.00016511
0.000187422
0.000148029
0.000203511
0.000147863
0.00024678
0.000151216
0.000165949
0.00014584
0.000146373
0.000260494
0.014445
0.000171789
0.000151618
0.0001482
0.000152491
0.000179265
0.000148002
0.000147949
0.000157161
0.000144733
0.000148853
0.000149843
0.000148736
0.000168075
0.000166053
0.000149993
0.000176875
0.000188964
0.000153553
0.000157881
0.000149669
0.000145841
0.00014646
0.000158209
0.000153286
0.000145587
0.000158074
0.0172062
0.000167895
0.000151918
0.000194187
0.000162095
0.000165146
0.000144856
0.000145504
0.0002568
0.000165717
0.000145732
0.00019759
0.00015547
0.000194834
0.000150109
0.000147691
0.000179186
0.000147733
0.000174226
0.000177187
0.000192457
0.00022209
0.030023
0.000189714
0.000167493
0.000148232
0.000157724
0.000189304
0.000149714
0.000148211
0.00014843
0.0137774
0.000146565
0.0396939
0.000164666
0.0341358
0.000148249
0.00017302
0.000154591
0.000148198
0.000145722
0.000165434
0.000150866
0.000148514
0.00016124
0.000191952
0.000227541
0.000190491
0.0106683
0.000192987
0.000149791
0.000171965
0.000150291
0.000144773
0.000205005
0.00014742
0.000183246
0.000170125
0.0426603
0.0058643
0.01256
0.000166966
0.0382141
0.0396777
0.000192329
0.000153533
0.000156153
0.000147954
0.000149718
0.0369929
0.000249246
0.000156872
0.000184102
0.000152013
0.000153557
0.00014779
0.000177042
0.000201046
0.000152405
0.000206263
0.0517275
0.000148771
0.0264937
0.000145484
0.000134148
0.0108046
0.000145398
0.000146631
0.000166846
0.000149454
0.000147596
0.00014622
0.000158323
0.000148555
0.000147601
0.000144334
0.000200919
0.000153194
0.0109568
0.000168828
0.000155767
0.000177224
0.000184497
0.000183334
0.000147169
0.000146727
0.000161393
0.000165886
0.000178196
0.000155894
0.00014817
0.0150099
0.00019078
0.000150985
0.000148203
0.000145247
0.0001449
0.000153019
0.000154737
0.000143774
0.000149122
0.000175734
0.000184971
0.000192514
0.000145933
0.0314683
0.000146767
0.000153261
0.000151892
0.000171829
0.000149794
0.00014804
0.000145337
0.000154109
0.000160932
0.000220236
0.000177184
0.0381986
0.013867
0.000146025
0.00016068
0.0353517
0.000145276
0.000185153
0.000196921
0.033406
0.000147655
0.0454454
0.0071892
0.000147646
0.0113753
0.000211663
0.000153725
0.00017733
0.00019349
0.000162562
0.000190188
0.000148364
0.000195893
0.000148851
0.000162977
0.000184646
0.000154062
0.000156295
0.000160364
0.000191166
0.00237064
0.000148437
0.0226777
0.000160176
0.0307648
0.0272919
0.035553
0.000144861
0.000159145
0.00014852
0.00578595
0.000146378
0.00014938
0.000241746
0.0252018
0.000172063
0.000158674
0.000173239
0.000148596
0.000148298
0.000206242
0.000157658
0.0110378
0.000234582
0.000145719
0.000210576
0.00014758
0.000156686
0.000145416
0.000182887
0.000190424
0.000238595
0.00016348
0.000171084
0.000148224
0.00019539
0.000169366
0.000149806
0.000194309
0.000151862
0.0422137
0.00017771
0.000182881
0.000148747
0.000198586
0.000180932
0.0285886
0.0127937
0.000171707
0.000381069
0.000146957
0.000151345
0.000149427
0.000150929
0.000148209
0.000156682
0.000146799
0.000183553
0.000147176
0.000148868
0.000175851
0.029707
0.000168482
0.000156812
0.000146976
0.0566716
0.000154432
0.000181821
0.000148494
0.000177097
0.0184638
0.000152126
0.000148446
0.00017136
0.000145374
0.000183018
0.0580402
0.0214879
0.000165251
0.000205261
0.000147875
0.000157423
0.000159083
0.000157985
0.000194739
0.000152828
0.000152009
0.000171533
0.000114166
0.000166707
0.000173257
0.00015591
0.0001519
0.00796344
0.000151101
0.000147764
0.000153432
0.000147661
0.0319977
0.000162839
0.000162631
0.00704862
0.000147173
0.00851038
0.000146398
0.000145727
0.000164226
0.000195514
0.0461487
0.000148062
0.00014639
0.000147823
0.000173204
0.000145229
0.000147693
0.000208513
0.051216
0.038039
0.0156026
0.000195721
0.000145217
0.0431164
0.000148039
0.000199758
0.000144502
0.000151898
0.00014671
0.000153485
0.000148902
0.000143848
0.000185025
0.000175853
0.0286566
0.000144714
0.000161527
0.000179927
0.000147417
0.000183002
0.0166733
0.00014694
0.000148441
0.000148852
0.000157326
0.000148991
0.000151761
0.000148825
0.000145214
0.000210091
0.000128742
0.000147004
0.00015438
0.000147811
0.000147703
0.000149691
0.000150428
0.000161425
0.000149416
0.000174112
0.000158235
0.000148193
0.0249602
0.000147059
0.00014915
0.000148565
0.000204688
0.000263246
0.000148628
0.000148675
0.000151878
0.000148301
0.012056
0.000120556
0.00689079
0.0375648
0.000145222
0.000165729
0.000153913
0.000147646
0.000167151
0.000148015
0.000148652
0.0291812
0.000153389
0.000148269
0.0539838
0.0335279
0.000178813
0.00015449
0.000152782
0.000148344
0.000145616
0.000221308
0.000148278
0.000151394
0.000165238
0.000145206
0.000149852
0.0315589
0.000163645
0.0330939
0.000104858
0.000218868
0.000161747
0.000148561
0.000155575
0.000151507
0.000237419
0.000182701
0.00775829
0.000155707
0.000148958
0.0278723
0.00014981
0.000158913
0.00016811
0.000149869
0.000149827
0.000207786
0.0425691
0.000191115
0.000145372
0.0299409
0.000166974
0.000161245
0.000145156
0.000150131
0.000206555
0.000160095
0.00014736
0.000150717
0.000157518
0.00017678
0.000145158
0.000146278
0.000205027
0.000153163
0.000144707
0.000149899
0.000127623
0.0280873
0.000203149
0.00157554
0.000153437
0.000201363
0.000222356
0.000146528
0.000148247
0.00014653
0.000147393
0.00017377
0.000148383
0.000144749
0.000147961
0.00014804
0.000147741
0.000146333
0.000161874
0.000148483
0.000146673
0.000149797
0.013427
0.000158384
0.0180222
0.000149911
0.000145963
0.000146562
0.000176693
0.00919243
0.000181183
0.000153411
0.0429817
0.000145737
0.000148238
0.000153436
0.000147361
0.000165849
0.000150016
0.000145598
0.000147051
0.000192444
0.00019864
0.0282033
0.000149664
0.000188527
0.000232682
0.000148563
0.000158986
0.000147077
0.000147278
0.000149856
0.000135129
0.000763737
6.57642e-05
0.00017229
0.00014824
0.000179589
0.000148181
0.00017658
0.000148048
0.00014929
0.000146765
0.000149353
0.0587435
0.000184683
0.0459636
0.00019211
0.000192883
0.000147826
0.026986
0.000147909
0.019201
0.000148523
0.000188707
0.0587114
0.000194698
0.00014752
0.030287
0.000148307
0.000192336
0.000147579
0.00015212
0.000151042
0.000147905
0.000156018
0.000156066
0.000149386
0.000152239
0.000147792
0.000161053
0.000148375
0.000156771
0.00016016
0.000176439
0.0118261
0.000158804
0.000149707
0.000190617
0.000161621
0.0002081
0.000144401
0.0242813
0.000201619
0.000184398
0.0420723
0.000148224
0.000147178
0.000144157
0.000164086
0.0287943
0.00014788
0.000152566
0.000157303
0.025443
0.00245999
0.012207
0.000148343
0.000186816
0.000147817
0.000178425
0.0123629
0.000180203
0.000152232
0.000148504
0.00017669
0.000149847
0.000167009
0.000146744
0.00017108
0.000143618
0.000156489
0.000144382
0.0187208
0.000146495
0.000206662
0.0119449
0.000147738
0.012364
0.000166452
0.022758
0.000149743
0.000153758
0.000144319
0.000197793
0.00014833
0.000148816
0.0304065
0.0301634
0.00014996
0.000179678
0.000169288
0.000181936
0.0147267
0.000163803
0.000148551
0.000156087
0.00015786
0.000150487
0.000147144
0.000147377
0.000149812
0.00018099
0.00017593
0.000199625
0.000195045
0.000212953
0.000151347
0.000188847
0.000148556
0.000161796
0.000148869
0.000153187
0.0001473
0.000165767
0.0475982
0.000164493
0.000148302
0.000157071
0.000144111
0.000162037
0.000148648
0.000149171
0.000148528
0.000257416
0.000150154
0.000147658
0.000157171
0.000191866
0.000197372
0.000153702
0.00015515
0.0437682
0.000169606
0.000144807
0.0538555
0.000146692
0.000145116
0.00284138
0.000148958
0.00483125
0.000182381
0.000148929
0.000225595
0.000156513
0.00018975
0.000147824
0.000171533
0.000145205
0.00015906
0.000176808
0.000155911
0.000233762
0.000174085
0.000166656
0.00014845
0.000162981
0.000151102
0.000190087
0.000146644
0.000145788
0.000147033
0.0401215
0.000148363
0.00014655
0.000148155
0.000146958
0.0001764
0.0001549
0.000181537
0.000163281
0.00014709
0.000147741
0.000253055
0.000204854
0.000147687
0.000193748
0.000147087
0.000148341
0.000205761
0.000144496
0.0461421
0.000199259
0.000148018
0.000145294
0.000148073
0.000161413
0.0016642
0.00025882
0.000172759
0.000188681
0.000160173
0.000148134
0.000187132
0.000174517
0.000148312
0.000169165
0.000163364
0.000166193
0.0451435
0.00018216
0.000155771
0.000149218
0.000148894
0.000171923
0.000175258
7.08229e-05
0.000194809
0.000177426
0.00014939
0.000145414
0.0161594
0.00015307
0.000541183
0.0196134
0.00020196
0.0177861
0.000183538
0.000145565
0.000147921
0.000181995
0.000150107
0.000155731
0.00018278
0.000195039
0.000149391
0.00698462
0.000177356
0.000144606
0.000147785
0.000175515
0.0382363
0.000146846
0.000144857
0.000204284
0.0313685
0.000150185
0.0194264
0.0195401
0.000213933
0.00021256
0.000147858
0.00014831
0.0473876
0.000174563
0.000149118
0.000177295
0.000207512
0.000148295
0.000150593
0.000151599
0.000150634
0.000148068
0.00020926
0.000148187
0.00261899
0.000148892
0.0135718
0.000161733
0.024284
0.000149274
0.000147447
0.000146729
0.000175336
0.00644776
0.000206421
0.000145841
0.000228466
0.000145601
0.000178751
0.000144523
0.000148415
0.0153931
0.000189277
0.0435179
0.00276314
0.00014682
0.000161853
0.000148251
0.000147989
2.65699e-05
0.000155269
0.000148384
0.000152076
0.000148362
0.000148896
0.000159143
0.000149084
0.0490177
0.000341171
0.000144854
0.000149656
0.000186522
0.000519158
0.00635654
0.000149248
0.000147206
0.0482216
0.000209097
0.000160363
0.000171844
0.000151025
0.0247457
0.000146577
0.000183432
0.000146158
0.000158905
0.000147984
0.000153317
0.00017401
0.000149366
0.000157945
0.00598929
0.000155167
0.0495799
0.000148877
0.000173265
0.00145447
0.000146598
0.000147824
0.000146118
0.000180634
0.000146409
0.000145428
0.000146159
0.0440421
0.0120817
0.000170573
0.000148405
0.000148031
0.000148483
0.000166295
0.000144015
0.000153885
0.000149698
0.000146697
0.000154996
0.000156423
0.0538978
0.000165359
0.0312703
0.000177875
0.000148254
0.000177575
0.000147596
0.0497779
0.000190856
0.000148632
0.00147407
0.000158585
0.000148627
0.000149233
0.000147985
0.000146157
0.0001481
0.000148187
0.000186468
0.000147407
0.000143975
0.000148042
0.000182886
0.000153537
0.000197666
0.000148179
0.000164934
0.000190183
0.000176966
0.000163435
0.000147888
0.0117772
0.000147525
0.000189352
0.000168547
0.000173406
0.000147606
0.000189815
0.000148268
0.000149727
0.000148017
0.000175944
0.00021214
0.0426652
0.00015816
0.0269116
0.000145664
0.000148416
0.000147053
0.000167346
0.000196236
0.000163226
0.000161946
0.0498051
0.00020606
0.000171723
0.000148836
0.000146378
0.000147288
0.000146114
0.000182157
0.000147012
0.000149273
0.000165646
0.000161125
0.0239057
0.00018911
0.000155487
7.63643e-05
0.000150261
0.000193405
0.0334682
0.000165743
0.000154257
0.000216859
0.00014464
0.000147281
0.000211486
0.0236516
0.00014571
0.000151479
0.000165513
0.000147253
0.000206473
0.00014864
0.000175093
0.000196172
0.000158423
0.000146414
0.0267096
0.000172375
0.029408
0.000144867
0.000145008
0.000194613
0.000153615
0.000148279
0.000145294
0.000145473
0.000178068
0.000204564
0.000151095
0.000148026
0.000185936
0.00170652
0.0412493
0.0001589
0.000603564
0.000192934
0.0169989
0.0181689
0.0461848
0.000146353
0.000145122
0.000187342
0.000148451
0.000171091
0.000173912
0.000146864
0.0147377
0.000178222
0.000146109
0.000151621
0.0301027
0.00524171
0.0447757
0.000148619
0.0183689
0.000154908
0.000163113
0.000160784
0.000217239
0.000192026
0.000145623
0.000148097
0.000155478
0.00524358
0.000161522
0.000255793
0.000200802
0.000187572
0.000153562
0.0001468
0.000147863
0.000148974
0.000148457
0.000158972
0.000143997
0.000156679
0.000148211
0.000153348
0.000191974
0.000148169
0.000145761
0.000501016
0.000145825
0.000173937
0.000149556
0.031437
0.000191629
0.000169515
0.000172047
0.000144915
0.000175972
0.000145689
0.0147454
0.000152902
0.00021053
0.000150741
0.000156505
0.000147028
0.000149064
0.000148111
0.000230698
0.000190102
0.000147792
0.000191531
0.0222516
0.000191116
0.000150977
0.0586055
0.000146329
0.0520199
0.000217109
0.000149019
0.00015167
0.0490595
0.000149864
0.048761
0.000150065
0.0377483
0.000153663
0.000148578
0.000187568
0.000145302
0.000209426
0.000156343
0.000144252
0.000233481
0.000183055
0.000149959
0.000147573
0.000149933
0.000206375
0.000187423
0.000177619
0.0333825
0.000148875
0.000233841
0.000148528
0.000149452
0.000154888
0.000213826
0.03913
0.00014762
0.000180405
0.00014712
0.000156373
0.000148949
0.000144815
0.000147519
0.0383197
0.000158028
0.000149025
0.000182967
0.000146032
0.000188696
0.000181023
0.0404808
0.000188625
0.000150827
0.000174824
0.000189046
0.000165424
0.000144149
0.000145691
0.000144575
0.000163031
0.000160684
0.000164873
0.00017285
0.000147736
0.000152285
0.00014594
0.000146207
0.000178567
0.000147834
0.000144567
0.000149743
0.000147035
0.000168923
0.000167868
0.00773129
0.000147916
0.0325327
0.000256714
0.0438253
0.0373846
0.00025079
0.000174671
0.000180036
0.0209079
0.000148055
0.000171842
0.000150424
0.00018369
0.000182191
0.000147614
0.00014807
0.0240737
0.000144521
0.00018514
0.000183526
0.000198171
0.000188844
0.000231332
0.000146649
0.000168985
0.000168451
0.000149686
0.000152666
0.000148088
0.000160889
0.000147656
0.000167391
0.000148186
0.000147992
0.000161721
0.000145205
0.000180579
0.000146353
0.000160285
0.031379
0.000164301
0.000160306
0.000148399
0.0349441
0.000154089
0.000148798
0.000144047
0.000153981
0.000149024
0.000148039
0.000188915
0.000146136
0.000160618
0.000147755
0.000146306
0.000175749
0.000166193
0.000147958
0.000149458
0.0298164
0.000170189
0.000148523
0.000149387
0.000147738
0.000745749
0.0111697
0.000146347
0.000146944
0.000174008
0.0127362
0.000149335
0.000173081
0.000178305
0.000182406
0.000151014
0.000155605
7.2058e-05
0.000144758
0.000146317
0.000205875
0.000175741
0.00805656
0.0466463
0.0118477
0.00564848
0.000255753
0.000145978
0.0595829
0.000147931
0.000147784
0.000154003
0.000149628
0.0521289
0.000148455
0.000162811
0.0263232
0.000223379
0.000220941
0.000187032
0.00014762
0.00014578
0.00732995
0.00014494
0.000203988
0.000155399
0.000149
0.000148949
0.00014836
0.000152942
0.000147744
0.000145484
0.00015109
0.000149159
0.0490944
0.000144662
0.000160712
0.000176155
0.000163231
0.000147458
0.000149306
0.000168273
0.00702426
0.000149186
0.00015043
0.000170588
0.00017898
0.00019038
0.0372036
0.000166229
0.000145362
0.000148423
0.000165362
0.000149296
0.0445118
0.000161555
0.000147277
0.00014909
0.000150489
0.000171275
0.000174888
0.000158377