/*--------------------------------*- C++ -*----------------------------------*\
| =========                 |                                                 |
| \\      /  F ield         | OpenFOAM: The Open Source CFD Toolbox           |
|  \\    /   O peration     | Version:  v2012                                 |
|   \\  /    A nd           | Website:  www.openfoam.com                      |
|    \\/     M anipulation  |                                                 |
\*---------------------------------------------------------------------------*/
FoamFile
{
    version     2.0;
    format      ascii;
    class       volScalarField;
    location    "50";
    object      nut;
}
// * * * * * * * * * * * * * * * * * * * * * * * * * * * * * * * * * * * * * //

dimensions      [0 2 -1 0 0 0 0];


internalField   nonuniform List<scalar> 
18618
(
0.00454232
0.000612177
0.00540879
0.00440977
0.00621875
0.00128245
0.000266504
0.00188381
0.0013723
0.000599484
0.00532488
0.00491765
0.00674771
0.00354092
0.00671657
0.0022224
0.00676049
0.00531513
0.00671815
0.00057088
0.00671667
0.00347462
0.00671041
0.00402281
0.000163823
0.00128681
0.000415387
2.54905e-05
0.000118968
0.00645239
0.00179916
0.00360711
0.00118062
0.00671441
0.000793156
0.00182195
0.00673201
0.000374743
0.00274434
0.00671063
0.0026101
0.00355725
0.0032786
0.000361588
0.00137029
0.000297673
0.00356483
0.000590609
0.000769971
0.000310181
0.00032859
0.00334513
0.000426381
0.000122604
0.000393595
0.000455
0.000212738
0.00113129
0.00268199
0.000202235
0.00255152
0.000617573
0.00052441
0.00671452
0.000336755
0.000422151
0.000240594
0.00134932
0.00671312
0.00352628
0.00144304
0.00671735
0.00672365
0.000594527
0.000255902
0.0020431
0.0067238
0.00673058
0.0067134
0.000548602
0.0015822
0.00671438
0.00230936
0.00131303
0.00416886
0.0067373
0.000430026
0.00359017
0.000552151
0.00167114
0.00672487
0.00339812
0.00098584
0.00671245
0.00337302
0.000318901
0.00172733
0.00143859
0.00671806
0.00369102
0.000235332
0.00507983
0.00364294
0.00107951
0.00013624
0.00085262
0.000127788
0.00671168
0.000246895
0.00025506
0.00308756
0.00438422
0.00400897
5.40369e-05
0.00672834
0.00671098
0.000279209
0.00341137
0.000294781
0.000196048
0.000933922
0.0025271
0.00198879
0.00176827
0.000738147
0.000450048
0.00125553
0.000303463
0.000218868
0.000846025
0.00207021
0.000555191
0.000542315
0.000206105
0.00671831
0.00154497
0.00671745
0.00402709
0.00202718
0.00673596
0.00225229
0.000264976
0.00671318
0.0067133
0.00286086
0.0067279
0.00670814
0.00369296
0.00671499
0.00206062
0.000513378
0.00567321
0.000922136
0.00202417
0.0017345
0.0035873
0.00106299
0.000609763
0.00414245
0.000177613
0.000879082
0.000633988
0.00184795
0.00048123
0.00673034
0.000754649
0.00124085
0.00558169
0.00452978
0.0014268
0.00672615
0.00147149
0.000511534
0.000163
0.00305724
0.00367334
4.93593e-05
0.0016444
0.00671808
0.00152909
0.000547684
0.000565629
0.000120422
0.00672333
0.0067188
0.000294988
0.000489395
8.02089e-05
0.000415409
0.00357658
0.00671712
0.000347545
0.000875157
0.00663401
0.00671292
0.000705329
0.00673485
0.0021913
0.00190563
0.00170363
0.000979815
0.0036681
0.000564067
0.00137278
4.78318e-05
0.00108968
0.00333239
0.0048288
0.0067207
0.00671232
0.000253589
0.000224828
0.00160685
0.00670809
0.00314728
0.00672558
0.000587446
0.000262497
0.000950194
0.00364574
0.00235751
0.00156611
0.00474656
0.00672529
0.00361961
0.00650875
0.0042762
0.000430095
0.000237862
0.00135789
0.00089785
0.00120289
0.00671652
0.00231761
0.00176438
0.00671949
0.00672341
0.00150589
0.000553061
0.00539897
0.000634978
0.00391146
0.0067193
0.00339533
0.00090156
0.000558541
0.000511266
0.00671943
0.00387589
0.00411154
0.00671224
0.00354661
0.000328083
0.000581
0.000982891
0.00120817
0.00138819
0.00671906
0.00670897
0.00379525
0.00672939
0.000505866
0.000245307
0.000771658
0.00328285
0.000487583
0.0013789
0.000369659
0.000527596
0.000504874
0.000372986
0.0067177
0.00222162
0.00672865
0.00672587
0.000483357
0.00124965
0.00244197
0.00524121
0.00471533
0.00671584
0.00131989
0.00589269
0.00180468
0.00406883
0.00459936
0.00673203
0.000221515
0.000849644
0.00149279
0.00674123
0.000997033
0.00471953
0.00125489
0.00129611
0.000133901
0.00439927
0.000212387
0.00206267
0.00375121
0.000387436
0.00671435
0.000612063
0.0010122
0.0067178
0.00672113
0.00523602
0.00294819
0.000547362
0.000460001
0.000805928
0.00670909
4.35426e-05
0.0067254
0.00672388
0.00454684
0.00197096
0.00155478
0.00103847
0.00035778
0.00670749
0.000628041
0.00672049
0.00428114
0.00672399
0.000370399
0.000539057
0.00498162
0.00674366
0.00040522
0.000478126
0.00165518
0.00439581
0.00672375
0.00125982
0.00671735
0.000173395
0.00163511
0.00486134
7.87416e-05
0.0011914
0.000526103
0.00238891
0.000234931
0.00671804
0.000592889
0.00127025
0.000496196
0.00143394
0.00671085
0.00672498
0.00674402
0.000288158
0.00672049
0.00672864
0.00671955
0.00672051
0.00120957
0.00249419
0.001976
0.00671355
0.00398186
0.00413459
0.00100055
0.00206812
0.00424305
0.00671949
0.00672347
0.00057766
0.00144584
0.006724
0.00484307
0.000541074
0.000936726
0.00670746
0.00673094
0.000330576
0.00185914
0.00671597
0.000303585
0.000270518
0.00672608
0.00673155
0.00674839
0.000133424
0.00671429
0.000464554
0.000587662
0.00671915
0.00168616
0.00140111
0.00672052
0.000531687
0.00303134
0.00672502
6.73713e-05
0.0033825
0.000278203
0.00671907
0.00312887
0.00494337
0.00126491
0.0017777
0.00190952
0.0067144
0.000458725
0.00671779
0.00122417
0.0014185
0.00672783
0.00498306
0.0067263
0.00671443
0.00674205
0.00126118
0.00113354
0.00670907
0.00416852
0.000563201
0.00106917
0.00671215
0.00254494
0.00188884
0.00160817
0.00671406
0.00148182
0.00148851
0.00359388
0.000200436
0.000292052
0.00672048
0.00671892
0.000344444
0.00671473
0.0067255
0.000485278
0.00672394
0.00225638
0.000372323
0.000653886
0.000679353
0.000249695
0.00276249
0.000784327
0.00431829
0.000953341
0.000646322
0.00103958
0.00104893
0.00671884
0.000765255
0.00672552
0.000602222
0.000318385
0.00671795
0.000386781
0.00672742
0.00346475
0.00187918
0.00543064
0.00167715
0.00294688
8.0097e-05
0.00671849
0.000264068
0.00191727
0.00671778
0.00672631
0.00057288
0.00671511
0.00267654
0.000537066
0.0033885
0.000298289
0.00209494
0.00106512
0.00327212
0.00253592
0.000765201
0.000512075
7.62697e-05
0.000969537
0.00020141
0.00667233
8.28371e-05
0.00288142
0.000252828
0.00208402
0.00013577
0.00124863
0.00118352
0.00173002
0.003023
0.00672405
0.00277208
0.000575482
0.00127329
0.0026537
0.00111329
0.00672416
0.00672611
0.00671931
0.000224582
0.00671859
0.0018188
0.000590216
0.00133235
0.000610658
0.00064722
6.50942e-05
0.00230534
0.00671392
0.00261025
0.00224335
0.00140832
0.00672161
0.0067249
0.00672414
0.00019621
0.00210792
0.00387318
0.00672151
0.000612561
0.000758989
0.00676229
0.00671914
0.00218188
0.00672353
0.000396805
0.00672191
0.000675315
0.00261947
0.00152946
0.000688591
0.00124987
0.00672458
0.0022268
0.0067263
0.00671421
0.00401006
0.00123005
0.000701277
0.000336495
0.000147614
0.00672098
0.00672119
0.000749956
0.000100676
0.00671243
0.00525172
0.00671758
0.00163019
7.87208e-05
0.00673602
0.00026089
0.00671877
5.42111e-05
0.00671864
0.000223705
0.00218551
0.00179078
0.0044462
0.00122707
0.00146535
0.00672199
0.000410311
0.000284327
0.00520288
0.000528492
0.00436391
0.0067189
0.00452502
0.00672343
0.0034055
0.00193106
0.0027653
0.000363982
0.000345734
0.000614707
0.00672575
0.000638094
0.000663329
0.000952855
0.00672136
0.00672531
0.00672454
0.0067208
0.00671389
0.00265125
6.77811e-05
0.00671653
0.00671366
0.00330594
0.00673192
0.00213942
0.000724215
0.000215244
0.000493806
0.000285407
0.00671388
0.00672057
0.000304896
0.000305613
0.0025872
0.00672939
0.000409833
0.00671927
0.00671345
0.00671937
0.000446379
0.000117929
0.00360598
0.00328347
0.000291442
0.00542441
0.0067258
0.00236428
0.000761614
0.00588217
0.0010707
0.00672868
0.00671373
0.0005092
0.000336327
0.00672481
0.00119681
0.00428981
0.00533135
0.000331371
0.00672348
0.000653444
0.00672278
0.00232627
0.00675682
4.65095e-05
0.000436476
0.000764569
0.00117704
0.00241098
0.000923221
0.00399364
0.0054137
0.000142026
7.34963e-05
0.00671476
0.000827552
0.000103792
0.00151259
0.002502
0.000856331
0.00116733
0.00672104
0.00671824
0.00023513
0.00567275
0.000856687
0.00671666
0.000719489
0.00671414
0.00671679
0.00205568
0.00149264
0.00672087
0.00671422
0.00099407
0.00603135
0.001206
0.00672053
0.000102298
0.000643442
0.00210296
0.00672631
0.00672347
0.00216931
0.00671419
0.000550871
0.00523221
0.000463979
0.00219205
0.00132691
0.00272316
0.00117181
0.00118913
0.00672072
0.00672367
0.00216939
0.000530821
0.00672347
0.00194874
0.00672092
0.000747096
0.00671244
0.00671674
0.00672829
0.000773672
6.24803e-05
0.00192876
0.00671884
0.00671863
0.000165876
0.000567764
0.00102241
0.00039959
0.000573854
0.00634792
0.00671282
0.00106522
0.00374041
0.00133727
0.00671374
0.00670854
0.00236719
0.00189859
0.000613998
0.00184797
0.00066861
0.00147002
0.000426678
0.00672611
0.00682447
0.000919056
0.00670915
0.00309434
0.00261607
0.00408283
0.000627878
0.000613501
0.00674986
0.00672213
0.000728986
0.00166758
0.00130471
0.00671967
0.000599832
0.000808365
0.00413489
8.2639e-05
0.00134241
0.00671229
0.00671852
0.000585378
0.00672455
0.000778378
0.00224085
0.00218227
0.00427268
0.000128014
0.000376637
0.000840806
0.0014098
0.00672418
0.000989712
0.00672053
0.00133871
0.00108443
0.00670838
2.83071e-05
0.00499346
0.00242784
0.000261343
5.26894e-05
0.00397133
0.00672454
0.00151802
0.00506865
0.000308778
0.000112549
0.00385485
0.000997573
0.00297032
0.00671978
0.000566881
0.000504115
0.00671778
0.00617939
0.00520633
0.00259798
5.18982e-05
0.00671394
0.00671891
0.000860257
0.00316058
0.00671482
0.0056968
0.000283591
0.00671406
0.00671226
0.000806574
0.00200811
0.000883683
0.00671788
0.00671296
0.000478181
0.00229714
0.0067229
0.00347124
0.00143014
0.00137495
0.000391158
0.000561527
0.00255943
0.0004476
0.00673644
0.00112024
0.00145091
0.0067251
0.000743565
0.000807899
0.00205603
0.00120845
0.000852218
0.000543534
0.000159779
0.000890047
0.00076772
0.00671695
0.00555888
0.00671285
0.00165137
0.00671471
0.00107097
0.00058629
0.00671764
0.00154786
0.000397261
0.00353334
0.000251708
0.000521813
7.46394e-05
0.00672322
0.00671998
0.00673448
0.00072482
0.000596022
0.00417368
0.00512232
0.00289607
0.00672851
0.00671802
0.00265355
0.000552879
0.00316926
3.8518e-05
0.00112554
0.00107085
0.00320575
0.0067136
0.00672804
0.00671285
0.0067206
0.00307906
0.000488027
0.00547877
0.00672964
0.00359985
0.00343461
0.0040887
0.00178482
0.000487585
0.00236749
0.00482599
0.000392014
0.000759196
0.000664871
0.000832647
0.00198889
0.000972976
0.000960819
0.000282608
0.0067219
0.0067412
0.00290842
0.00671378
0.00671366
0.000224524
0.00328181
0.000181493
0.00613898
0.00396685
0.00135876
0.00138927
0.00672406
0.000894387
0.000600468
0.00672161
0.000430032
0.00245362
0.000232294
0.00401128
0.00179478
0.00245373
0.00135806
0.00613771
0.00672822
0.000137369
0.00673446
0.00671783
0.00438946
0.00671711
0.00580922
0.00672612
0.00672385
0.000260655
0.00671866
0.00678637
7.79095e-05
0.00134392
0.00543141
0.00671744
0.00672036
0.00666212
0.00671908
0.0025735
0.00673357
0.00672504
0.00223094
0.0010136
0.000275479
0.00672428
0.00633986
0.00194952
0.00462581
0.00145952
0.00058787
0.00270002
0.000362795
0.00377364
0.00672125
0.0062578
0.000430541
0.00102857
0.000598127
0.00671392
0.00618081
0.00366662
0.0063686
4.86131e-05
0.00478303
0.00672894
0.00671906
0.00414845
0.00306464
0.000536848
0.000741325
0.00414789
0.00319208
0.00672406
0.00130113
0.00110484
0.000533137
0.00144257
0.00395876
0.00317713
7.75436e-05
0.000472589
0.00673356
0.00672209
0.00478332
0.00672016
0.00241817
0.00409616
0.000689504
0.00672362
0.00340742
0.00397073
0.00603197
0.00676386
0.00213945
0.00211065
0.00438074
0.00452004
0.000773523
0.00129358
0.00675178
0.00671806
0.00673812
0.00146264
0.00572719
0.00152932
0.00194469
0.00393137
0.00514601
0.0053235
0.00407675
0.00163394
0.000135825
0.0067514
0.00133334
0.00672301
0.00672517
0.00595784
0.00671871
0.00521016
0.00671629
0.000847936
0.00165123
0.00096954
0.000452159
0.00170733
0.000744685
0.00272551
0.00672438
0.00672378
0.00671617
0.000213974
0.00671952
0.000313211
0.00319823
0.00445959
0.000766757
0.00101929
0.00672075
0.000967124
0.00672474
0.00672502
0.00586828
0.00672068
0.00499988
0.000743545
0.00672514
0.00671848
0.000387158
0.00676744
0.000600467
0.0067249
0.000882914
0.00673223
0.00227918
0.00134252
0.00162111
0.00105799
0.00673273
0.000723008
0.00456905
0.000653527
0.0032053
0.00671986
0.000526972
0.000319359
0.00671662
0.000841498
0.00368509
0.00353392
0.00195417
0.0067232
0.0067222
0.000262705
0.00221105
0.00085237
0.0067242
0.000138434
0.00408189
0.00672317
0.00337042
0.00122814
0.00421938
0.000689417
0.000435035
0.00102884
0.0020524
0.000286409
0.00671636
0.000125755
0.00671392
0.00670808
0.00226722
0.00142161
0.00671672
0.000450254
0.0017938
0.00104429
0.00439161
0.006724
0.000703074
0.0067124
0.00672234
0.00223082
0.00238315
0.00384419
0.000428355
0.000251633
0.0015633
0.00672188
0.00131789
0.00287554
0.00472004
0.00671849
0.00672564
0.000571841
0.00655367
0.00672551
0.00657424
0.00359544
0.00167323
0.00671247
0.00541043
0.00425495
0.00672438
0.0014965
0.00638334
0.00672266
0.00165035
0.000383237
0.000388414
0.00381372
0.00118541
0.000817055
0.00672204
0.00432894
0.000312127
0.000719699
0.00169601
0.000162561
0.0047599
0.000361022
0.00671853
0.000642798
0.00234994
0.0052851
0.000372122
0.00672298
0.000547181
0.00147701
0.000607985
0.00672154
0.000479356
0.0010727
0.000632386
0.00465115
0.000625303
0.00297315
0.000237239
0.00661169
0.00671834
0.00672384
0.00672699
0.000311778
0.0030565
0.000588603
0.00386959
0.00245517
0.00672236
0.00676814
0.00671701
0.000470505
0.00157133
0.000495431
0.00564425
0.00672947
0.00118267
0.000439051
0.00444545
0.00672445
0.00661097
0.00180738
0.00672852
0.00671602
0.00246241
0.00672465
0.00454745
0.00671656
0.000397351
0.000625624
0.00445491
0.000745262
0.00207998
0.00671845
0.00672127
0.000602309
0.00673681
0.00036519
0.00677618
0.000223634
0.00041387
0.00672121
0.00336695
0.000338465
0.00672083
0.00371367
4.27493e-05
0.00672228
0.00168936
0.000668312
0.000824786
8.30944e-05
0.00672137
0.000702333
0.000489845
0.00276036
0.00671824
0.00290217
0.00134876
0.00453936
0.00673347
0.00370977
0.000410163
0.0012638
0.00125183
0.00672614
0.00368443
0.00672185
0.00215901
0.00673881
0.00434012
0.00672427
0.00672109
0.000659053
0.00019452
0.00247021
0.00388434
0.00427364
0.00311685
0.00153011
0.00115906
0.000421424
9.9064e-05
0.000700252
0.00671478
0.00672126
0.000665345
0.006717
0.00672763
0.00532322
0.00672315
0.00226
0.00671885
0.0028636
0.00672897
0.00525783
0.00440773
0.00137928
0.00075078
0.00101535
0.000520446
0.00276585
0.00130244
0.00676128
0.00672088
0.00125932
0.00193809
0.0012723
0.0046406
0.0067162
0.00671597
0.00194896
0.00623578
0.00471724
0.00239072
0.00671905
0.00226402
0.000775698
0.00672376
0.00200695
7.86094e-05
0.00545528
0.00120182
0.00136386
4.00594e-05
0.00672097
0.00366684
8.30363e-05
0.00286154
0.00060561
0.000408586
0.000848462
0.00671484
0.00672569
0.00671518
0.00126163
0.00203718
0.000658063
0.00671737
0.00672452
0.000895997
0.0009973
0.000691317
0.00671298
0.0067772
0.00101172
0.00102923
0.00161719
0.00551662
0.000879972
0.00672545
0.00039559
0.00141857
0.00142607
0.00671328
0.00673253
0.000302403
0.00279123
0.0010741
0.00168495
0.00455664
0.00226348
0.00105215
0.00672762
0.0033896
0.00122434
0.00671767
0.00272881
0.00224974
0.00672285
0.000109533
0.00147336
0.0022878
0.000658344
0.000949079
0.000730444
0.00170218
0.00672526
0.0067142
0.0067421
0.00199773
0.000798966
0.00672511
0.000418461
0.00300105
0.000914736
0.00103304
0.00027605
0.000146431
0.00124703
0.00672996
0.00672591
0.000375978
0.00108365
0.0067262
0.000677458
0.000608221
0.00116114
0.00142717
0.00454323
0.000758408
0.00590681
7.1855e-05
0.00100755
0.00129958
0.000303134
0.00252662
0.00144826
0.000987392
0.00554781
0.00254699
0.00111051
0.00672542
0.00435562
0.00672125
0.00220724
0.00672042
0.00482254
0.000728233
0.00409936
0.00672044
0.000438996
0.00103724
0.00391513
0.00675628
0.00150533
0.0011132
0.00367724
0.00153315
0.000255985
0.000282796
0.000448361
0.00158125
0.00132673
0.00427474
0.000845623
0.00258016
0.00671249
0.000451982
0.00671842
0.000563701
0.000213333
0.00320226
0.00149467
0.000772277
0.000129986
0.00458271
0.00471576
0.000365914
0.00239316
0.000507744
0.00587223
0.00672556
0.00306735
0.000348717
0.001054
0.000150557
0.00116556
0.000794782
0.0067199
0.000709249
0.000933744
0.000992927
0.000789249
0.00602174
0.0067229
0.00271408
0.00672425
6.75925e-05
0.00118879
0.00672234
0.00672335
0.00012372
0.00209806
0.0067275
0.006714
0.00222892
0.00603552
0.00509688
0.006709
0.000948061
0.00207694
0.00175211
0.000400909
0.000433948
0.000964358
0.000818017
0.000781995
0.00671718
0.00647934
0.0013408
0.000446386
0.000982122
0.000918554
0.00379349
0.00233141
0.00113252
0.00385612
0.0067201
0.00672085
0.00672382
0.00246357
0.000893401
0.0067084
0.00225163
7.058e-05
0.000785315
0.000396867
0.00675759
0.00343844
0.00671568
0.00247571
0.00130376
0.000478708
0.00672572
0.00672502
0.00672144
0.0015487
0.000216271
7.09154e-05
0.00107772
0.00190023
0.00213374
0.00671462
0.00164099
0.00241861
0.00672256
0.000688654
0.000527895
0.00237562
0.00672662
0.00561978
0.00156147
0.00497023
0.0018889
0.00037778
0.00389133
0.00161287
0.000968958
0.000751491
0.0006173
0.00672405
0.00043969
0.00242084
0.000720903
0.000847094
0.00313752
0.000626887
0.000551313
0.000587179
0.000557224
0.00672401
0.00245692
0.00175116
0.00331855
0.00263028
0.00830103
0.00671667
0.000405797
0.00672114
0.00137787
0.00674283
0.00179054
0.000378806
0.0022673
0.000995846
0.00143125
0.000224633
0.00567891
0.00672135
0.000222748
0.00271973
0.00114924
0.000577817
0.00672392
0.000266895
0.00671817
0.00243517
0.00672469
0.000720545
0.000273251
0.000123195
0.000134322
0.00137409
0.00343617
0.00122736
0.000314867
0.00672575
0.001231
0.00111787
0.00527528
0.00077494
0.000199458
0.00672294
0.000470585
0.000343713
0.00310422
0.00214675
0.000979559
0.000298363
0.00671651
0.00170462
0.00312071
0.00457158
0.00567
0.00338327
0.00671568
0.000350501
0.00673455
0.00672356
0.000601292
0.00303127
7.5846e-05
0.000321695
0.00671594
0.00410727
0.00126767
0.00127543
0.00320248
0.00075932
0.00306834
0.00462402
0.00672091
9.08786e-05
0.00672079
0.000883021
0.00351072
0.00335512
0.00109257
0.000787385
0.00672402
0.000425155
0.000552623
0.00043841
0.00122972
0.000649044
0.0022628
0.000453328
0.000519334
0.00191931
0.000648127
0.000601826
0.00344942
0.00149085
0.00462854
0.00458142
0.00060438
0.00671991
0.00217726
0.0001385
0.000165537
0.000365156
0.00673367
0.0018831
0.00674054
0.00671695
0.000273742
0.00114459
0.00399181
0.00605982
0.00671563
0.00498827
0.000511493
0.00672741
0.00671858
0.000165913
0.00409646
0.00459938
0.0019555
0.000868337
0.0067147
0.00432416
0.00672422
0.000551501
0.00671247
0.00108088
0.00635755
0.00159017
0.00672248
0.0067082
0.000228014
0.00111015
0.00338413
0.00671507
0.000413509
0.000523796
0.00667887
0.00181248
0.00277011
0.00671582
0.00338956
0.0067223
0.000279685
0.0024306
0.00394191
0.00672399
0.0067361
0.000590837
0.000243652
0.00602421
0.00129879
0.00475306
0.00569401
0.00672536
0.00145294
0.000173742
0.00205465
0.000534659
0.00192093
0.0060825
0.00366308
0.00657041
0.00672338
0.0029481
0.000870569
0.000172545
0.0067215
0.00672166
0.00269872
0.0067207
0.0013378
0.000616956
0.000345652
0.00457835
0.00671282
0.000122023
0.00073194
0.00672725
9.25452e-05
0.00521054
0.00316591
0.00405763
0.000714055
0.00672127
0.00475162
0.00446226
0.00143651
0.000712675
0.000819523
0.00672205
0.00671401
0.000119477
0.00475414
0.0013475
8.95246e-05
0.00671295
0.00672592
0.00354546
0.000466338
0.00397141
0.00035527
0.000563161
0.000181265
0.00672128
0.00038519
0.000966353
0.000473169
0.00160419
0.000543026
0.000445903
0.00672275
0.00341392
0.00672578
0.000574783
0.000169391
0.00672598
0.00672584
0.000217106
0.00528129
0.000239812
0.0067418
0.00428214
8.01447e-05
0.00103959
0.00671497
0.0016984
0.000732977
0.000661879
0.00671848
0.000910823
0.000688652
0.000626225
0.00672617
0.00673694
0.000512935
0.00256242
0.00671591
0.00672608
0.000208896
0.00412852
2.30044e-05
0.000510769
0.00174445
0.000931621
0.000383567
0.00673027
0.00362687
0.00671459
0.00672943
0.000615361
0.00672452
0.00671208
0.00378639
0.00669959
0.00671971
0.0067409
0.000646325
0.00248606
0.00672305
0.00672579
0.00196428
0.00166692
0.00116679
0.00187724
0.00671826
0.00671473
0.00121643
0.00195694
0.00160669
0.00162797
0.00536588
0.00673338
0.0067202
0.0023996
0.00671728
8.82187e-05
0.00428647
0.00671421
0.00671622
0.000241094
0.00103365
0.00276802
0.00672524
0.000390932
0.000216522
0.00672127
0.000809728
0.00672457
0.00671761
0.00672593
0.000206937
0.000324845
0.000222017
4.61571e-05
0.00273249
0.000369422
0.0034234
0.000748828
0.00517721
0.0020862
0.00674811
0.00672424
0.00444033
0.00056044
0.00566397
0.000203366
0.000469315
0.00671931
0.00256607
0.0067242
0.000893446
0.00672115
0.000976233
0.00444611
0.00118675
0.00672241
0.00322901
0.00672059
0.000608001
0.00671799
0.0011783
0.00086624
0.00672471
0.000440937
0.00133002
0.0067253
0.00632492
0.00672069
0.000637834
0.00672424
0.00368387
0.000348398
0.00113227
0.0028255
0.00039916
0.0067254
0.001371
0.000195988
0.000235849
0.00671502
0.00225286
0.000926708
0.000618744
0.00521214
0.00527693
0.00671664
0.00671276
0.00168158
0.00308305
0.00475968
0.000994873
0.000781806
0.00115607
0.000585498
0.00135956
0.00672055
0.00167645
0.00672059
0.0010048
0.00266192
0.000154416
0.000929092
0.00672391
0.000997615
0.0067259
7.22874e-05
0.00671497
0.00155801
0.00670724
0.00504907
0.00671521
0.00247932
0.00672809
0.000616832
0.00233117
0.00470817
0.00135757
0.000106641
0.000809434
0.00177523
0.000641396
0.00670933
0.000396241
0.00386955
0.0067236
0.00511688
0.00137551
0.00672631
0.000335138
0.000901982
0.000520917
0.00227159
0.000146346
0.00404212
0.000634904
0.00153079
0.00306912
0.00671652
0.0067272
0.00672577
0.00132451
4.73036e-05
0.000621148
0.000229623
8.96962e-05
0.000846541
0.00107136
0.00672395
0.00169763
0.00219786
0.000647701
0.00672219
0.00116372
0.00561979
0.000900304
0.00672186
0.000317938
0.00671227
0.00042027
0.00376896
0.00672451
0.00672116
0.000246279
0.00174369
0.00672104
0.000385617
0.00107206
0.000821034
0.000625792
0.00108087
0.00545741
0.00091494
0.0067138
0.00325347
0.00671486
0.00671467
0.000587288
0.00349449
0.00104116
0.000161759
0.00672437
0.000225479
0.000660103
0.000524793
0.00394123
0.000836562
0.00672089
0.000638234
0.000878732
0.000524626
8.46489e-05
0.000213341
0.000143385
0.00452161
0.00043237
0.00109573
0.000620723
0.00675616
0.0067143
0.00672385
0.00426796
0.00672149
0.00672997
0.0048778
0.00671778
8.95906e-05
0.00111369
0.00041937
0.000302472
0.00672544
0.00475746
0.000200054
0.000434737
0.00471887
0.000781189
0.00671631
0.00572877
0.000812073
0.00672517
0.00568994
0.000360456
0.00671985
0.00674088
0.00575718
0.00177872
0.000261843
0.000154309
0.000461283
3.02508e-05
0.00154028
0.00671989
0.000131338
0.000515127
0.00672148
0.000267504
0.00150954
0.000193723
0.0024825
0.000434937
0.00137174
0.00253537
0.00206734
0.000479308
0.00117026
5.15599e-05
0.00117292
0.000236237
0.00171919
0.00672521
0.00285466
0.00273944
0.000192124
0.00185269
0.000906372
0.00113567
0.000583461
0.00671644
0.00672348
0.000144078
0.00217192
0.00136295
8.96443e-05
0.00124844
0.00672438
0.00170841
0.000455812
0.00671535
0.00671876
0.000746289
0.00482795
0.00601359
0.00671616
0.000855834
0.00306216
0.00233885
0.00303039
0.0020653
0.000773643
0.000449813
0.00673132
0.00672043
0.00395476
0.00137083
0.00222391
0.00102933
0.000578662
0.00672074
0.00145009
0.00340009
0.0010708
0.00384099
0.000700751
0.00377845
0.000656123
0.00672245
0.00123813
0.00166919
0.00268647
0.00186461
0.00671874
0.00675545
0.000635406
0.00117722
0.000377141
0.0067135
0.000599442
0.00672677
0.000949185
0.00671174
0.00672079
0.0026963
0.000856888
0.00430745
0.000735053
0.00486139
0.000116368
0.00672192
0.00672335
5.83054e-05
0.000434255
0.00249307
0.000969364
0.00672461
0.00672246
0.000483142
0.0021806
0.0030051
0.000120838
0.00672684
0.0017412
0.000163236
0.000314419
0.000496752
0.0067243
0.00637601
0.00573545
0.000188297
0.000577841
0.000952966
0.00139209
0.0023743
0.00672423
0.00011668
0.006722
0.000393396
0.00671979
0.00351556
0.000589711
0.00672481
0.000400924
0.00106057
0.000540847
0.00594052
0.00672379
0.000303593
0.000241294
0.00672523
0.00671991
0.00673211
0.000502539
0.00671546
0.00672154
0.00671692
0.00541488
0.00170062
0.000338187
0.00672219
0.00397281
0.00672223
9.78208e-05
0.00671456
0.000683911
0.0067256
0.00675695
0.000501929
0.000870654
0.00305994
0.00109323
0.0042508
0.00105088
0.00455897
0.000298468
0.00424195
0.00589886
0.000868684
0.00269891
0.00021254
0.00030963
0.0067641
0.00199842
0.00397543
0.00673205
0.00671979
0.00466751
0.00171817
0.0067174
0.00671462
0.00672136
0.000701248
0.000698375
0.000572899
0.00672513
0.000355765
0.000480209
0.00109487
0.000526542
0.00671907
0.00183457
0.00672216
0.00104822
0.000317229
0.000537372
0.00671807
0.000776586
0.00672267
0.00672547
0.00355489
0.000871902
0.000246651
0.00521943
0.000279803
0.0033418
0.00672312
0.00672412
0.00672732
0.000674784
0.00111156
0.00021081
0.000160307
0.0059515
8.82474e-05
0.00105977
0.00672417
0.00671411
0.00671704
0.00673059
0.000432785
0.00672592
0.00672474
0.000189223
0.000675114
0.00225569
0.000191647
0.000551787
0.000173458
0.00680702
0.000482197
0.00353572
0.000190802
0.000917936
0.000428741
0.00671156
0.00672228
0.000670117
0.00217531
0.00671402
0.0017441
0.00155326
0.00671691
0.000751631
0.00292712
0.00119039
0.000166013
0.00308809
0.00674217
0.00321623
0.000745568
0.00433248
0.00671535
0.00671688
0.000458449
0.00142504
0.0067231
0.0067215
0.0067216
0.000379866
0.000599358
0.00126017
0.00362555
0.000236888
0.00055717
0.00361956
0.000265466
0.000302353
0.000586574
0.0018144
0.00284064
0.00547389
0.00673104
0.00672089
0.00161583
0.00672165
0.000629163
0.000536056
0.00677661
0.00286739
0.000968399
0.00672383
0.00118175
0.00337293
0.00139183
0.00550453
0.00418899
0.00181363
0.000568491
0.000183306
0.00124864
0.000170267
0.000691832
0.00672643
0.00556551
0.00106821
0.00124079
0.00136244
0.000255258
9.04135e-05
0.00161291
0.000843894
0.00610877
0.00455117
0.00406735
0.00672132
0.000298654
0.00671559
0.000406993
0.0035116
0.00627263
0.00050559
0.00672624
0.00671393
0.000263105
0.00671361
0.000585455
0.00661253
0.00338189
0.000620467
0.00120541
0.00125259
0.00672862
0.00134386
0.00671685
0.00197683
0.00221603
0.000569562
0.00151889
0.000535893
0.00672311
0.0067233
0.00347948
0.000590611
0.00101241
0.00671917
0.00133658
0.00314279
0.000241216
0.00549514
0.00450366
0.00671612
0.00604021
0.000204531
0.0067229
0.0012554
0.00398295
0.00672597
0.0055821
0.00679083
0.00460986
0.00317556
0.00672388
0.00165929
0.00673834
0.000167055
0.000338846
0.00671007
0.000344538
0.000868638
0.00672631
0.00673874
0.00266467
0.000798766
0.00153426
0.000403555
0.00306898
0.00672326
0.000507354
0.00300739
0.00403512
0.00180537
0.000642864
0.00473498
0.0067224
0.000460635
0.00622217
0.000380348
0.00249364
0.00671524
0.00671843
0.00389588
0.000514658
0.00249976
0.000175683
0.00675111
0.000512509
0.000356597
0.00237773
0.000976938
0.0014155
0.000553508
0.000671309
0.000876055
0.00671591
0.00673688
0.00671743
0.00073706
0.00124234
0.00101735
0.000759868
0.006719
0.00111241
0.00673498
0.00673654
0.000712832
0.0067199
0.00671597
0.00263751
0.00672069
0.000283951
9.35019e-05
0.00176544
0.00671955
0.00438546
0.000227033
0.00520194
0.00445917
0.000293489
0.000573446
0.00039922
0.00263732
0.00672816
0.000312395
0.0025365
0.000205642
0.00131456
0.00671827
0.00397875
0.00312605
0.00672494
0.000150121
0.000709312
0.000622155
6.95951e-05
0.000255054
0.00676636
0.000678895
0.000567969
0.00483701
0.000751279
0.00672343
0.00221707
0.00672226
9.76841e-05
0.00342591
0.00672135
0.000725856
0.00671501
0.000458192
0.00671403
0.00230077
0.00629141
0.00114358
0.00101799
0.0067216
0.00410844
0.000813483
0.0026023
0.00670925
0.000631731
0.0067232
0.0037574
0.0015272
0.00673369
0.000679486
0.00527061
0.00675639
0.00110991
7.32244e-05
0.00673325
0.00672474
0.00332925
4.50673e-05
0.00672117
0.00672458
0.00586712
0.00036788
0.00282438
0.00671403
0.00671585
7.61679e-05
0.00125131
0.00672407
7.35206e-05
0.000940899
0.000581045
0.00428803
0.000248134
0.000116282
0.00671554
0.00671581
0.00082533
0.000454954
0.00129021
0.00369466
0.00175801
0.00128806
0.000268987
0.00672099
0.00401655
0.00450585
0.00672464
0.00128818
0.00361156
0.00336717
0.00672092
0.000310099
0.00136246
0.000521511
0.000246539
0.000278372
0.00671833
0.00674015
0.00172894
0.00672346
0.000844572
0.000900765
0.00254388
0.00259721
0.00316574
0.000806502
0.0067212
0.00673256
0.00321601
0.00244269
0.00446594
0.00671496
0.00115498
0.000131982
0.000733915
0.00671818
0.00305875
8.19438e-05
0.00119597
0.00227097
0.00259818
0.000342026
0.000149131
0.00138479
0.0036811
0.000165707
0.00671458
0.0067221
0.00147349
0.00672393
0.00550355
0.0004866
0.00675072
0.00672472
0.00135529
0.00121019
0.000138417
0.00360272
0.000896292
0.00483553
0.00064492
0.000308469
0.00671657
0.0067243
0.0067119
0.00338165
0.00132995
5.27617e-05
0.000161637
0.00671828
0.00671958
0.0067173
0.000133442
0.000324537
0.000247745
0.00293628
0.00193982
0.00398226
0.000349544
0.0067154
0.0067134
0.000862726
0.00671337
0.000695088
0.0014313
0.00672128
0.00147805
0.00672579
0.000656846
0.000140256
0.000148204
0.00671663
0.00147437
0.00137712
0.00672292
0.000282254
0.00400362
0.00100391
0.00037017
0.00512549
0.00671782
0.00671384
0.00130875
0.000651198
0.00509117
0.00671622
0.000128774
0.00115974
0.000164737
0.000379561
0.00066722
0.00671404
0.00609085
0.0018891
0.00424866
0.00657313
3.29833e-05
0.00423701
0.00152597
0.000457463
0.000853656
0.000374501
0.000248158
0.00672532
0.00672379
0.00671733
0.00672593
0.00152782
0.000103009
0.00152984
0.00124944
0.00313976
0.000499306
0.000528127
0.00676848
0.0028804
0.00278958
0.00671544
0.000516647
0.000420933
0.000408023
0.00674116
0.00105905