/*--------------------------------*- C++ -*----------------------------------*\
| =========                 |                                                 |
| \\      /  F ield         | OpenFOAM: The Open Source CFD Toolbox           |
|  \\    /   O peration     | Version:  v2012                                 |
|   \\  /    A nd           | Website:  www.openfoam.com                      |
|    \\/     M anipulation  |                                                 |
\*---------------------------------------------------------------------------*/
FoamFile
{
    version     2.0;
    format      ascii;
    class       volVectorField;
    location    "50";
    object      U;
}
// * * * * * * * * * * * * * * * * * * * * * * * * * * * * * * * * * * * * * //

dimensions      [0 1 -1 0 0 0 0];


internalField   nonuniform List<vector> 
18618
(
(0.99304 0.0165386 -1.22076e-22)
(1.10528 0.035991 0)
(1.01629 0.0145135 3.01527e-21)
(0.980765 -0.00629224 7.24968e-21)
(0.997044 0.0144607 8.57591e-21)
(0.95563 -0.0182887 -7.91129e-21)
(1.16995 0.121126 -5.81407e-20)
(0.395568 0.0192454 0)
(1.08491 0.0158915 0)
(1.0759 -0.0103175 -2.43485e-20)
(0.997556 0.0144607 0)
(0.98949 0.0150843 -3.94609e-21)
(1.00701 0.000486413 -2.72169e-21)
(0.990673 0.0168871 -1.522e-20)
(1.00152 0.00723551 -2.97937e-21)
(0.95378 -0.0222733 1.14236e-21)
(1.01817 0.0132735 1.93299e-22)
(0.992806 0.0164978 1.07583e-20)
(1.0148 0.00522409 0)
(1.08305 0.00521948 1.89532e-20)
(1.0018 0.00724691 0)
(0.571371 0.00113978 9.19771e-20)
(1.01202 0.00374889 0)
(0.990054 0.0140668 8.85883e-21)
(1.15565 0.234133 0)
(1.08578 0.0158143 -1.76197e-20)
(1.07249 0.104232 0)
(1.00857 0.513117 -2.83977e-20)
(0.918317 0.204576 1.40737e-20)
(1.01585 0.0144961 -2.80807e-21)
(0.985888 0.0315341 1.10934e-20)
(1.00519 0.0261514 -3.55615e-21)
(1.04257 -0.00898357 -6.52118e-21)
(1.00404 0.00506765 -3.00042e-21)
(0.915435 0.0105733 -2.37737e-20)
(1.01304 0.0317346 0)
(1.01083 0.0132466 -1.84688e-21)
(1.10397 -0.00491428 4.60283e-20)
(0.430162 0.0147406 1.86807e-21)
(1.01183 0.0040155 -3.87828e-21)
(0.00854767 -0.00940911 5.92452e-20)
(0.634145 -0.0013772 -2.4556e-21)
(0.772212 0.0360207 -3.23022e-20)
(0.935185 0.0484418 2.8703e-20)
(1.04605 0.0369169 -6.06306e-21)
(0.888754 0.0209401 1.84244e-20)
(0.555281 0.0196289 0)
(0.969958 0.0926413 -1.85156e-20)
(1.0845 0.0690522 4.64069e-21)
(1.08274 0.0279944 6.52859e-20)
(1.06875 0.109469 1.1417e-20)
(1.01383 0.0257113 0)
(1.02078 0.144029 5.14156e-21)
(0.910954 0.187916 0)
(1.10318 0.0051051 -5.1951e-21)
(1.10102 -0.00949948 0)
(0.977697 0.155783 0)
(1.07053 0.000931761 8.16334e-21)
(0.00314511 -0.0112355 -5.92201e-20)
(1.13294 0.00280272 0)
(0.2179 0.00517754 -4.01442e-20)
(1.16225 0.0770313 -3.42562e-20)
(1.08337 0.0718742 3.75086e-21)
(1.00308 0.00103781 0)
(1.12895 0.086592 0)
(1.09865 0.0699636 -9.54239e-21)
(1.12789 0.00923613 0)
(1.0473 0.0328829 6.35231e-21)
(1.00743 0.000600727 -5.5382e-21)
(0.0185003 -0.012343 4.379e-20)
(1.07658 0.0157025 9.16434e-21)
(1.01454 0.00533881 6.20586e-22)
(0.998742 -0.00254074 -8.75733e-21)
(1.08843 0.00867384 0)
(0.279477 0.0162546 0)
(0.997096 0.0307316 0)
(0.997487 -0.00549057 0)
(0.990649 0.00761961 -1.07702e-20)
(1.00833 0.00526668 9.53125e-21)
(1.10026 0.0733507 5.83562e-21)
(1.03454 0.0267 3.04964e-21)
(1.00417 0.00490586 6.0525e-21)
(0.977171 -0.0155094 9.0872e-21)
(0.972758 0.0408468 1.17619e-20)
(0.495855 -0.00334374 -9.05557e-20)
(1.01104 0.0145774 0)
(1.1238 0.076216 -1.0441e-20)
(0.0344981 -0.0136649 -3.44448e-20)
(1.1616 0.0758475 3.34865e-20)
(0.0157037 0.159129 -6.88547e-20)
(1.00693 0.0115752 0)
(0.244749 0.00444872 3.42963e-20)
(1.08137 0.0113928 0)
(1.01075 0.00519011 -4.02694e-21)
(0.306381 0.00670985 -3.19566e-20)
(1.16612 0.0844065 0)
(0.985175 0.0298498 0)
(1.07996 0.0122178 -2.60472e-20)
(1.00361 0.000317767 0)
(0.65292 0.0225441 0)
(1.08613 0.0285636 -5.12915e-20)
(0.187316 0.116639 0)
(1.00511 0.0250133 0)
(1.08102 0.0116089 1.59595e-20)
(0.92764 0.208117 8.76308e-21)
(1.08576 0.031184 1.89192e-20)
(1.14683 0.229714 3.28695e-20)
(1.00508 0.000664951 8.59779e-25)
(1.1645 0.0853654 -3.39514e-20)
(1.16015 0.0915696 3.71192e-20)
(0.078374 -0.00708112 2.11658e-20)
(1.03448 0.00859366 0)
(0.58768 0.015926 0)
(0.908144 0.0741148 -3.52723e-20)
(0.98929 0.00257581 4.78663e-21)
(1.01158 0.00424776 -1.18774e-21)
(1.16303 0.127398 3.92294e-20)
(0.979972 -0.00569111 0)
(1.02268 0.146389 2.35945e-21)
(0.367911 0.0207308 0)
(0.934059 -0.0175683 -2.67314e-20)
(1.01656 0.0290517 2.10241e-22)
(1.03724 0.0252531 4.55433e-21)
(0.964263 -0.00933753 0)
(1.0794 0.0392339 -2.45921e-20)
(1.09429 0.0514734 4.71852e-21)
(1.02855 0.0499008 0)
(1.12787 0.0914588 0)
(1.13108 0.126534 -3.27228e-22)
(1.07399 -0.00272541 -3.82877e-20)
(0.750482 0.0503037 0)
(1.10265 0.0148336 1.84727e-20)
(1.08208 0.00570388 -5.48697e-21)
(0.981944 0.142711 4.04628e-21)
(1.00464 0.00780272 2.87962e-21)
(1.05607 0.0193719 1.3113e-20)
(0.998872 0.00421609 4.02984e-21)
(0.0987958 -0.00767004 -9.88823e-21)
(0.770866 0.0990248 7.70706e-22)
(0.993254 0.011647 0)
(0.310549 0.0121075 -6.86735e-21)
(1.16178 0.0888664 2.89865e-20)
(1.00816 0.00494467 -4.97845e-21)
(1.00419 0.000635856 -4.39356e-23)
(1.0341 0.00939518 2.6993e-21)
(0.98961 0.002161 -9.63064e-21)
(1.01047 0.00138273 1.21668e-21)
(0.978201 -0.015026 -2.97703e-22)
(1.00368 0.000377339 -4.5943e-21)
(0.977674 0.0167179 -1.07179e-20)
(1.10266 0.0121468 1.17981e-22)
(0.996293 0.0150869 2.26008e-21)
(1.03852 -0.0121509 -5.61644e-21)
(0.959351 0.00709964 0)
(1.03628 0.0250674 -1.31885e-21)
(0.34428 0.00856126 -6.89359e-21)
(1.03443 0.00879063 0)
(1.04646 0.0775787 -4.97574e-21)
(1.01434 0.0233395 0)
(1.05323 0.596409 -2.5305e-20)
(1.07838 0.0368753 3.12875e-20)
(0.976163 0.089463 -3.5239e-21)
(1.13852 -0.0255428 7.1646e-20)
(1.11513 0.024658 -2.3118e-20)
(0.988721 -0.00376811 0)
(0.960092 0.071601 -4.57815e-21)
(0.971771 0.0399125 -2.43483e-21)
(0.432872 -0.00795595 -3.69344e-20)
(0.984931 0.00531678 0)
(1.07994 0.0116939 3.43438e-20)
(0.999996 -4.12215e-05 -1.73505e-20)
(1.04095 -0.00877323 -1.20109e-20)
(1.09674 0.065993 -3.75495e-20)
(1.10967 0.182068 3.83683e-20)
(0.739145 0.0395994 -4.96361e-21)
(0.981305 -0.013058 1.83954e-21)
(0.971661 0.373282 -7.28516e-21)
(0.958766 0.00583509 8.76295e-21)
(1.00159 0.0002453 -2.45089e-21)
(1.04886 0.0410552 9.08745e-21)
(1.10084 0.0122771 4.75598e-20)
(0.917497 0.00861305 0)
(1.06269 0.51601 0)
(0.998743 -0.00229981 -8.59983e-21)
(1.00099 0.000189438 -6.33074e-21)
(0.945157 0.101997 8.36335e-21)
(1.11347 0.0224601 -2.05576e-20)
(0.79907 0.321446 0)
(1.12105 0.0795721 1.02785e-20)
(0.991542 0.0169872 6.52253e-21)
(0.998616 0.004799 8.5988e-21)
(0.908858 0.0653808 -3.4222e-20)
(0.958666 0.0740616 4.04733e-21)
(1.0182 0.0135026 -2.56647e-22)
(1.00828 0.00482238 0)
(1.10125 0.00448019 2.98661e-20)
(0.993227 0.0117451 4.45376e-21)
(0.984859 0.031198 7.13518e-22)
(0.564919 0.031898 0)
(1.04752 0.0363318 1.22675e-20)
(1.09419 0.0500753 6.208e-22)
(0.791872 0.00109283 0)
(1.0844 0.00633071 0)
(0.538514 0.0337573 0)
(0.945309 0.384806 1.96458e-21)
(0.962753 0.0406647 1.75345e-21)
(0.359813 0.00938055 2.77174e-20)
(0.199686 0.117869 9.76007e-20)
(1.00043 8.29129e-05 -1.04936e-20)
(1.01195 0.00504917 -2.6087e-22)
(1.12687 0.102266 0)
(1.12006 0.102798 1.7051e-20)
(1.00527 0.0451143 2.94677e-21)
(1.01034 0.00130883 0)
(0.992385 0.0234297 1.31852e-20)
(0.999784 -0.00176396 -3.14117e-21)
(1.0709 0.0226518 0)
(1.1658 0.231054 1.1613e-20)
(0.935385 -0.0111302 1.69594e-21)
(1.01996 0.0213035 -3.61932e-23)
(0.978869 0.01742 0)
(1.03585 0.0263721 1.60651e-21)
(0.523845 0.00105502 0)
(0.999556 -0.00266113 0)
(0.0471758 -0.0113516 -4.53835e-20)
(0.988218 -0.00328809 -7.12728e-23)
(1.01619 0.0294087 0)
(1.09963 0.0829101 0)
(1.12581 0.12637 2.84314e-20)
(1.04859 0.0320199 -4.96089e-22)
(0.969066 0.0443124 -1.90138e-20)
(1.05038 0.0367235 -3.89235e-21)
(1.00502 0.00065746 -4.28163e-21)
(0.330296 0.0108148 -3.52173e-20)
(1.049 0.0408082 0)
(1.00053 0.000904589 6.61964e-21)
(0.998107 -0.00352152 -8.94952e-21)
(1.07927 0.0111565 -2.72704e-20)
(1.08342 0.0069924 3.50461e-20)
(1.02825 0.0129669 -3.5846e-21)
(1.10384 0.0383663 -1.73296e-20)
(1.01404 0.0248674 0)
(0.997619 0.0028462 -3.8263e-21)
(0.621272 0.025621 -2.13189e-22)
(1.07074 -1.82476e-05 0)
(1.04683 -0.0234053 -2.43261e-21)
(1.10264 0.00597462 -1.44237e-20)
(1.00055 0.000811837 0)
(0.0864251 -0.0076829 0)
(0.978433 -0.00786324 -1.04878e-21)
(1.01059 0.00493582 -7.89198e-21)
(0.62618 -0.000122358 0)
(0.974457 0.0907819 -8.22215e-21)
(1.10252 0.0142529 5.14499e-20)
(1.06062 0.0185374 8.71616e-21)
(1.02884 0.0513973 0)
(1.08066 0.0127097 0)
(0.997368 0.0032135 4.44544e-23)
(1.01192 0.00291605 -3.37914e-21)
(1.02014 0.0219439 -4.01481e-22)
(0.989307 0.00300019 1.27746e-22)
(1.06957 0.0221458 0)
(1.16514 0.227447 -1.11652e-20)
(0.923016 0.00349351 -2.16839e-20)
(0.6008 0.00119772 0)
(1.10289 -0.000932043 0)
(1.08266 0.0149085 0)
(0.968325 0.0924275 4.82449e-21)
(1.09593 0.0579841 2.32946e-20)
(0.89734 0.0469726 -1.9949e-20)
(1.0991 0.0888594 2.20863e-20)
(0.998834 0.00394491 5.56396e-21)
(1.01415 0.0363909 0)
(0.989704 0.00328034 1.04501e-20)
(0.999971 -0.000110939 7.66681e-21)
(0.923165 0.0461743 1.85102e-20)
(1.05798 0.0371846 -1.37062e-20)
(0.979496 0.0233117 -5.77856e-21)
(1.02122 0.0167884 1.49848e-22)
(0.521407 0.00358686 2.55526e-20)
(1.00129 0.0036612 0)
(1.07166 0.00690544 1.61986e-20)
(0.984474 0.000614464 0)
(0.992624 0.0370361 0)
(0.501318 0.0132326 0)
(0.978876 -0.00727512 2.46942e-22)
(1.00876 0.0135945 -3.86962e-21)
(0.911051 0.153513 -1.58817e-20)
(1.07831 0.0346072 7.8882e-21)
(1.07875 0.0166748 4.26041e-20)
(1.01722 0.00833291 1.0337e-21)
(1.07249 0.020298 1.76372e-21)
(0.982406 -0.0042908 1.9851e-20)
(1.03813 -0.013643 0)
(0.879286 0.169708 3.3028e-20)
(1.11054 0.191095 -3.73522e-20)
(0.349639 0.00244735 0)
(1.09025 0.029812 0)
(1.12024 -0.0180049 -9.64291e-20)
(1.00603 0.0234261 6.68946e-21)
(0.94944 0.103935 -8.90911e-21)
(1.00326 0.00106112 2.24096e-21)
(1.05864 0.0709061 -1.46034e-20)
(0.962012 0.040561 -1.49045e-21)
(0.999832 0.00325712 0)
(1.00043 9.8938e-05 9.47023e-21)
(0.986676 0.00979624 8.40493e-21)
(0.792137 0.0442303 0)
(1.09883 0.0685163 4.62996e-20)
(1.0664 0.0105177 0)
(1.0869 0.0104632 1.36126e-23)
(1.01206 0.00303642 1.95176e-21)
(0.805797 0.3284 -1.9738e-20)
(0.999611 -0.00234061 0)
(0.998568 -0.00328874 -5.77774e-22)
(0.992738 0.0111974 -2.34272e-21)
(0.993592 0.0360452 3.82141e-21)
(1.04139 -0.00277727 -3.40599e-22)
(1.06689 0.000524119 1.44544e-20)
(1.14469 0.0773371 -1.65077e-20)
(1.01027 0.00100618 -7.60225e-21)
(1.10063 0.0141004 2.49595e-23)
(0.998654 0.000787743 0)
(0.736748 0.000723389 3.60179e-21)
(0.999164 -0.0019218 8.43513e-21)
(1.09753 0.000869854 6.42402e-20)
(1.11289 0.0253557 1.84106e-20)
(0.992065 0.0114619 1.2694e-20)
(1.02551 0.00914066 2.01051e-22)
(1.15312 0.3565 3.53654e-20)
(1.02498 0.10657 0)
(0.734179 0.155969 -1.88614e-20)
(0.986947 0.0103431 -1.01241e-22)
(0.998393 -0.00341937 5.78203e-22)
(1.05675 0.0199957 -7.5706e-21)
(0.998723 0.00430992 -1.606e-20)
(1.13864 -0.00619322 8.32969e-20)
(1.00404 0.0458917 -1.95898e-21)
(1.02784 0.0131782 3.67798e-21)
(1.07939 0.0127384 -3.15296e-20)
(1.07147 0.0175718 -4.14263e-22)
(1.08282 0.0756231 -8.94348e-21)
(0.707174 0.0870293 3.33328e-20)
(1.09202 0.13015 0)
(0.999794 0.00309072 0)
(1.08093 0.0440909 -6.61876e-21)
(1.00753 0.0576248 -2.50396e-21)
(1.0964 0.0624734 -1.18261e-20)
(1.07292 0.019103 0)
(1.01179 0.00414123 3.83772e-21)
(0.992208 -0.00315696 9.06136e-21)
(1.01791 0.00723201 4.06914e-23)
(1.09747 0.0258165 0)
(0.999617 0.000902096 -5.68371e-21)
(0.989572 0.00394378 -9.63356e-21)
(1.00098 0.000180522 0)
(0.998825 0.000748121 -9.43951e-22)
(1.07251 0.0188204 1.52544e-20)
(0.962548 -0.01064 -1.09452e-20)
(1.01427 0.0356439 -2.78585e-22)
(1.00515 0.00413432 1.08275e-20)
(0.499589 0.0110028 -1.6685e-20)
(0.574845 -0.00236501 -1.04623e-20)
(1.07012 -0.0036382 0)
(0.697054 0.0456004 -4.75095e-20)
(0.510273 -0.00472531 -1.29079e-22)
(0.997467 0.00262592 5.4782e-21)
(0.998678 -0.00265481 5.51864e-21)
(1.07321 -0.0101254 -3.47075e-20)
(1.07931 0.0114911 3.25327e-20)
(1.00707 0.0113371 -4.58044e-21)
(0.983002 -0.00480909 -1.27075e-20)
(0.907285 -0.0160455 1.12955e-20)
(1.04652 0.0421931 2.00092e-20)
(1.01016 0.00101109 7.7258e-21)
(0.990762 0.00781678 1.24787e-20)
(1.09957 0.093132 0)
(0.934889 -0.0156725 1.41229e-22)
(1.00129 0.00359998 0)
(1.03026 -0.0459995 -1.1922e-22)
(1.08793 0.13324 0)
(0.99999 0.000127926 0)
(1.0082 0.0137398 2.0416e-21)
(1.02518 0.0093067 1.1715e-21)
(0.902807 0.176212 0)
(1.00749 0.00587624 0)
(1.07522 0.0907421 0)
(1.04158 0.303467 1.76472e-21)
(0.9976 0.00303982 3.89429e-21)
(1.07205 0.00724694 0)
(0.956915 0.00836617 -2.0454e-20)
(0.997153 0.00132753 1.17897e-20)
(1.10427 0.0131211 2.19286e-20)
(0.0649886 -0.0066824 2.89467e-20)
(0.992166 -0.00332317 -1.98565e-20)
(0.813302 0.246336 3.72444e-20)
(0.227576 0.00304001 -1.75563e-20)
(1.09375 0.0247922 0)
(1.00066 0.000893389 0)
(0.826991 0.0414144 2.28521e-20)
(0.982958 -0.00531794 -3.36224e-21)
(1.04482 -0.00587218 -1.1096e-20)
(1.04377 0.0114804 0)
(0.981188 0.00207642 0)
(1.00708 0.00559809 0)
(1.11696 0.0256116 5.1865e-20)
(0.998977 0.00386009 -4.70052e-21)
(0.971846 0.0427176 8.07446e-21)
(1.04259 -0.0013843 1.18994e-20)
(0.989536 0.00180096 1.07969e-20)
(1.01749 0.0225585 1.97099e-22)
(0.999994 5.06181e-05 0)
(1.00683 0.00553663 0)
(1.01774 0.00696882 0)
(0.972477 0.0376186 2.44642e-21)
(1.06964 0.00680176 0)
(1.0116 0.00282866 -4.05828e-21)
(1.02941 0.0115777 5.52373e-21)
(1.04828 0.0748132 -5.86913e-21)
(1.04819 0.041934 -9.82373e-21)
(1.0117 0.00495426 0)
(0.308177 0.0101725 0)
(1.04343 0.0131173 -1.39914e-20)
(1.04536 0.0356057 6.51666e-21)
(1.00755 0.00565771 -2.83686e-21)
(0.842826 0.145392 -6.73647e-20)
(1.07046 0.00744796 -1.54337e-20)
(1.03436 0.00993715 -2.9165e-21)
(1.11884 -0.0413298 0)
(1.08656 0.0290895 0)
(0.997372 0.00128124 -9.8888e-21)
(0.997329 0.00332726 0)
(0.892791 0.0344485 3.83502e-20)
(1.00284 0.000841584 0)
(1.00992 0.0117302 1.50819e-21)
(0.895966 0.0443275 2.69318e-20)
(0.997793 -0.0054274 -8.29869e-21)
(0.977151 -0.00836843 1.65351e-20)
(1.11683 0.0589431 -5.3577e-20)
(1.08999 0.0334186 1.07229e-20)
(0.930963 0.0403908 -1.21855e-20)
(1.12079 -0.0381402 -1.51381e-20)
(0.980146 -0.013645 -2.57948e-21)
(1.03081 0.0821781 5.80866e-22)
(0.542019 0.0102236 1.41309e-20)
(1.07907 0.0365832 0)
(0.953162 0.0493902 -1.98215e-20)
(0.939254 0.0478817 0)
(1.08711 0.0279908 2.5212e-20)
(1.00036 0.00181638 0)
(0.955198 0.0715337 1.07594e-20)
(0.999817 -0.00153576 6.36568e-21)
(1.0393 -0.0445197 -1.26076e-20)
(0.972473 0.106287 1.80565e-21)
(1.00024 0.00279095 7.44064e-21)
(1.11924 0.0759403 1.95033e-20)
(0.989791 0.00144348 -8.73667e-23)
(1.01488 0.0240056 0)
(0.995324 0.0363772 -2.19936e-21)
(0.399017 -0.0138878 0)
(0.997954 0.00118941 -6.55034e-21)
(1.03753 0.014893 -9.4445e-21)
(0.745554 0.138594 -4.57519e-20)
(1.00041 0.00209883 7.1798e-21)
(1.09591 0.12177 0)
(0.986772 0.0291114 -7.70173e-21)
(1.00041 0.00286332 0)
(0.999996 3.60128e-05 -5.88629e-21)
(1.11505 0.055099 3.19573e-20)
(1.00766 0.00680883 -3.26097e-21)
(1.03774 0.0153399 7.39067e-21)
(1.04715 0.0791594 4.32566e-21)
(1.03393 0.0102746 0)
(1.11705 0.0213312 7.97401e-21)
(1.04314 0.0167917 0)
(1.00768 0.0610769 2.24388e-21)
(0.320655 0.00808673 1.37298e-20)
(1.04195 0.00810161 1.32274e-20)
(1.088 0.0102291 -2.8109e-20)
(1.02252 0.103424 -1.72916e-21)
(0.815722 0.236077 -3.53283e-20)
(0.938968 -0.0173686 2.46771e-20)
(1.07918 0.0133132 1.16604e-20)
(1.02793 0.00706989 -1.57258e-21)
(0.90214 0.298575 1.37211e-20)
(0.978344 -0.00855572 0)
(1.09384 0.127306 -5.34184e-21)
(1.03012 0.0312349 8.02732e-21)
(0.988075 0.151351 0)
(1.05082 0.0320367 7.60709e-21)
(1.08397 0.0144553 -7.33845e-21)
(0.761417 0.140879 7.43779e-20)
(0.9935 0.0231385 -6.31062e-21)
(0.998671 -0.00322048 0)
(0.986575 0.0310066 0)
(1.07944 0.0115703 4.22185e-21)
(1.08618 0.015863 4.93612e-23)
(0.830453 0.0528799 -4.97522e-20)
(0.94125 -0.0215081 -3.31692e-20)
(0.999212 -0.00184918 -8.58645e-21)
(0.999987 -0.00012011 -1.23939e-20)
(1.00401 0.00870854 -4.808e-21)
(1.13197 0.0020174 -7.19258e-20)
(1.00043 0.0019823 0)
(1.04442 0.0101916 3.65283e-21)
(1.09761 0.0652365 2.48836e-20)
(0.965499 0.0417054 0)
(0.949614 0.0518282 2.23158e-20)
(1.08755 0.00826949 8.11206e-21)
(0.952774 0.278804 4.71982e-21)
(0.967658 0.0301063 0)
(1.00554 0.00472639 -4.43275e-21)
(1.04196 0.00816958 -1.92257e-20)
(1.04294 0.00898092 3.95381e-21)
(1.08082 0.0425148 -1.38796e-20)
(0.999269 2.87253e-05 8.32762e-21)
(1.02641 0.00755994 -1.06803e-22)
(0.998837 -0.00302761 0)
(1.03735 0.144262 9.30854e-22)
(0.685221 0.0441645 0)
(1.01752 0.0222796 0)
(0.999308 7.17234e-05 0)
(1.09302 -0.000656207 -1.95331e-20)
(1.0816 0.0504669 -3.14696e-20)
(1.01874 0.0142123 -5.79012e-22)
(1.00061 0.000946079 -7.0607e-21)
(0.786091 0.0521829 -3.19487e-20)
(0.99454 -0.00556321 0)
(0.396453 0.0278111 7.94276e-21)
(1.00009 0.00046781 0)
(1.08368 0.0153611 -5.48771e-21)
(1.09992 -0.0753967 0)
(0.964782 0.0435637 0)
(0.953994 0.0719104 -2.93754e-20)
(1.07301 0.0100186 0)
(0.999884 0.000172211 -5.80243e-21)
(0.193308 0.00555919 0)
(0.999997 -3.90762e-05 1.31506e-20)
(1.00512 0.00518871 6.28689e-21)
(1.00553 0.0238302 -3.48808e-21)
(1.06428 0.0120619 1.94598e-20)
(0.919519 0.00227367 3.31388e-20)
(1.03375 -0.0459242 -6.1743e-21)
(0.917637 0.146858 1.32523e-20)
(0.995962 0.00107389 2.67942e-21)
(0.999236 0.000198645 -4.05711e-21)
(1.09008 0.00999512 0)
(1.15475 0.0699293 -3.73296e-20)
(1.01231 0.0050135 2.34254e-21)
(0.984799 0.000167216 0)
(0.99836 0.0044209 0)
(1.07734 0.0142759 -2.10833e-20)
(0.932236 0.296682 0)
(1.01113 0.0141029 0)
(1.12465 0.122865 -7.18001e-20)
(1.00839 0.00907591 -3.98774e-21)
(0.688238 0.0531906 4.80219e-20)
(1.00031 0.00207867 -6.33861e-21)
(1.05991 0.161965 -6.46414e-21)
(1.073 0.00981042 -2.19171e-20)
(0.803822 0.112173 1.71699e-20)
(1.02768 0.0137107 3.24045e-21)
(0.961706 0.0399446 0)
(0.948867 0.0461872 5.71762e-22)
(0.994143 0.00675165 -2.1787e-21)
(1.0781 -0.026999 -1.77015e-20)
(1.11823 0.021877 2.14708e-20)
(0.994982 0.0129963 0)
(1.09723 0.0613792 -2.40487e-20)
(0.987689 0.0109573 -5.82533e-21)
(1.00076 0.000247947 0)
(0.589358 0.00608524 0)
(0.996441 -0.00628144 -1.52028e-20)
(0.828088 -0.00296022 3.04201e-20)
(0.948511 0.064849 6.05803e-20)
(0.72802 0.0420573 0)
(1.14895 0.0744456 6.76173e-20)
(1.06504 0.115668 -5.09648e-21)
(1.08969 0.00787288 2.34273e-20)
(1.01166 0.0110449 0)
(1.03477 0.0793481 2.61814e-21)
(0.930635 0.0401443 -2.44697e-20)
(1.05749 0.0391316 0)
(0.999307 5.05842e-05 4.6475e-21)
(0.993424 -0.00943514 7.83125e-21)
(1.01165 0.0108618 0)
(0.999464 0.000698726 4.47445e-21)
(1.00784 0.00573083 0)
(0.0420545 0.145774 6.56559e-20)
(0.74822 0.17953 -5.64701e-20)
(1.00121 0.00299211 0)
(1.00521 0.00440247 -8.31351e-21)
(0.992333 0.0242492 -6.05214e-21)
(1.01126 0.013418 -2.24027e-21)
(0.994646 0.0369301 -1.41749e-20)
(1.03663 0.078046 8.11164e-21)
(1.13345 0.131675 0)
(1.06515 0.0200598 7.1317e-21)
(1.09429 0.115938 2.68097e-21)
(1.00352 0.0040156 -6.56684e-21)
(0.997518 0.000868065 0)
(1.10157 0.00162573 -4.20996e-20)
(0.977335 0.143676 -4.39448e-21)
(0.980082 0.018658 -1.11528e-20)
(0.989287 0.00378169 0)
(1.02553 0.107783 4.64992e-21)
(1.00066 0.000247875 0)
(1.0249 0.00903972 -1.57439e-21)
(1.00153 0.000260368 2.83904e-21)
(0.972362 0.0962246 -3.96497e-21)
(1.14125 -0.108518 3.2476e-20)
(0.380741 0.0102614 -1.44118e-20)
(0.798791 0.0355375 3.96663e-20)
(1.15974 0.118173 -5.38322e-20)
(0.168078 0.140203 -1.04185e-19)
(1.00607 0.000430899 0)
(1.04282 0.00911789 1.29567e-20)
(1.05115 0.0138915 -1.64142e-20)
(0.984757 0.000934368 0)
(0.948015 0.050499 -1.62785e-20)
(1.02628 0.00771765 0)
(1.00793 0.0054529 2.53659e-21)
(1.08504 0.00650508 -1.16215e-23)
(1.06884 0.110405 -1.24134e-20)
(0.999917 0.000173356 0)
(1.08172 0.0125252 0)
(1.01218 0.0240731 -2.15482e-21)
(0.985927 0.00175013 0)
(1.11566 0.0791908 -5.37863e-20)
(0.994886 -0.00565783 0)
(0.957074 0.0524439 -1.51675e-20)
(0.993051 0.00474587 1.02682e-20)
(1.11754 -0.0510769 7.41365e-20)
(1.02457 0.0091487 0)
(0.890092 0.323946 -2.86832e-20)
(1.11935 0.0625641 3.16485e-20)
(1.08275 0.00818761 0)
(1.00832 0.0434696 -1.13943e-21)
(1.11867 -0.0815124 0)
(1.07235 -0.00175341 0)
(1.00749 0.0265125 -2.83145e-21)
(0.995833 0.0135035 -4.88368e-21)
(1.15632 -0.0106545 -1.01047e-20)
(0.832636 0.232483 0)
(1.00776 0.006592 3.11281e-21)
(1.09661 -0.0013488 0)
(0.818989 0.117589 -1.12083e-19)
(0.965566 -0.0136005 0)
(1.01536 0.0343028 -6.79526e-22)
(0.936768 -0.00107147 8.38632e-21)
(0.842061 0.0560173 -1.21574e-19)
(0.996157 0.000770146 -2.62039e-21)
(1.00851 0.00890512 8.31788e-21)
(1.03203 0.146261 -2.20412e-21)
(1.02594 0.0101381 0)
(0.985412 0.0645763 1.12603e-20)
(1.00121 0.00289414 -4.42328e-22)
(1.0844 0.0141043 -2.0687e-20)
(1.00351 0.0044222 -3.7347e-21)
(0.998792 0.00512079 -6.06093e-21)
(-0.105893 -0.0186702 0)
(1.07917 0.0105398 -6.92833e-21)
(0.9994 0.000592894 9.29976e-21)
(1.00464 0.00534383 -3.48839e-21)
(1.06892 0.00148552 -7.7879e-21)
(0.993847 0.0173163 -5.54204e-21)
(1.05919 0.0272821 7.51212e-21)
(1.00023 0.000689914 9.69103e-21)
(0.841727 0.235061 2.9241e-20)
(0.953957 0.0536523 1.8229e-20)
(0.796366 0.0525069 -2.5372e-20)
(0.999995 -7.95905e-05 6.17396e-21)
(0.998815 -0.0021966 0)
(0.979023 0.0225894 0)
(1.00404 0.000543899 5.62942e-21)
(1.11649 0.0581503 -3.11199e-20)
(0.366258 -0.0151842 -4.36547e-20)
(1.10671 0.0382919 1.19376e-20)
(0.71817 0.0969716 -5.09847e-20)
(1.06228 0.00300242 2.68617e-20)
(0.0176432 -0.0114859 5.05818e-20)
(1.05861 0.0222066 -3.15292e-20)
(1.0716 0.00384861 0)
(1.00022 0.000630401 3.27452e-21)
(0.997301 -0.00567056 5.54543e-21)
(1.01706 0.0337715 0)
(1.09872 0.0138084 -9.68296e-21)
(0.996629 -0.00635027 1.50524e-20)
(1.04407 0.0122074 1.44199e-20)
(0.99497 0.00204362 0)
(1.07996 0.0132815 -1.20734e-20)
(1.00993 0.00505408 9.78972e-21)
(0.999012 0.00501544 2.36409e-21)
(0.99085 0.00667135 0)
(1.09381 0.0218651 4.59271e-20)
(0.884183 0.355631 0)
(0.974151 -0.0173916 -2.82361e-20)
(0.999463 0.00261845 7.50003e-21)
(0.999488 0.00274997 1.16295e-21)
(1.09456 0.0249832 0)
(1.11085 0.0236567 2.07842e-20)
(1.01508 0.0587534 1.9294e-22)
(0.979422 0.0903116 4.37839e-21)
(1.09946 0.0551478 0)
(1.02693 0.00741965 0)
(1.00814 0.00454541 -1.26473e-21)
(1.0574 0.0209493 3.2468e-22)
(0.680858 0.0214241 0)
(1.04237 0.0372357 -2.20979e-23)
(1.00362 0.00384794 7.11918e-21)
(1.01139 0.00227727 2.48819e-21)
(0.9762 -0.0158104 1.31277e-20)
(1.04273 0.0162665 5.69199e-21)
(1.07975 0.0108604 2.60759e-22)
(0.0131189 0.238053 -2.11028e-20)
(1.08492 0.00863834 3.5833e-20)
(1.04934 0.0333787 -1.57209e-20)
(1.10243 -0.00129997 -2.63625e-20)
(1.00864 0.012157 4.83408e-22)
(1.0062 0.000154703 4.14107e-21)
(1.04271 -0.0101976 1.42399e-20)
(1.01172 0.00302064 0)
(-0.117007 -0.0223578 0)
(1.0116 0.0287811 7.35115e-20)
(0.618913 0.014852 -3.89606e-21)
(1.06161 -0.0142797 -6.58348e-21)
(1.09997 0.0267307 1.788e-20)
(1.01725 0.0106017 0)
(0.993374 0.00503106 0)
(1.07133 0.0638335 -1.04485e-20)
(1.07664 0.0151187 0)
(0.726608 0.0523868 6.59291e-21)
(0.997518 0.00240269 0)
(1.03284 0.0831174 -5.55591e-21)
(1.06352 -0.00331144 0)
(1.01246 0.0236185 0)
(1.09768 0.0256366 0)
(0.783526 0.0543511 3.60843e-20)
(1.00977 0.00477403 1.50918e-23)
(1.0018 0.000299461 5.75128e-22)
(0.910051 0.0696461 2.35457e-20)
(0.998233 -0.00503481 1.96056e-20)
(0.933304 -0.0201197 2.34007e-20)
(1.13671 -0.0918272 0)
(1.10295 -0.00332565 -6.82533e-20)
(0.177419 -0.000650377 0)
(1.01972 0.194001 3.39717e-21)
(1.09572 0.109966 1.07235e-20)
(1.06989 -0.00201277 1.47329e-20)
(0.717936 0.0457092 -1.43906e-20)
(1.00643 0.0111326 4.40004e-21)
(1.05995 -0.00912354 -1.18702e-20)
(0.997704 0.000941414 0)
(1.00639 0.0444107 0)
(0.625755 0.0438646 -2.99455e-20)
(1.01142 0.00209763 4.90225e-22)
(0.926559 0.519967 4.94221e-21)
(0.994088 0.0169567 -7.23006e-21)
(1.03753 0.0244993 2.51318e-23)
(1.15002 0.0747273 0)
(0.897918 0.300679 1.19226e-20)
(1.01503 0.0294045 -7.60843e-22)
(1.00008 7.67783e-05 0)
(1.06097 0.0178959 5.31466e-21)
(0.985692 0.00519138 0)
(1.1184 0.106077 -4.70092e-20)
(1.15662 -0.00825917 0)
(1.01252 0.0248633 3.74839e-21)
(1.06199 0.00389101 -3.88869e-20)
(-0.118154 -0.0176211 4.8509e-20)
(1.00041 0.000896742 6.35606e-21)
(0.927095 0.0502042 2.71169e-20)
(1.02129 0.11178 -2.90243e-21)
(1.00019 0.0031087 -8.14734e-21)
(0.985955 -0.00526404 -9.89033e-21)
(0.999046 0.0199014 -2.68725e-21)
(0.347322 0.011782 2.59434e-20)
(0.813545 0.32071 1.67102e-20)
(1.00354 0.0040697 -3.93047e-21)
(1.00039 0.0016906 -6.9774e-21)
(0.986476 0.0620314 -5.18733e-21)
(-0.0764848 -0.0203434 -3.43129e-20)
(1.01137 0.000574818 0)
(0.983511 -0.00580309 3.26454e-21)
(-0.0295107 -0.00783566 0)
(1.00501 0.00492261 6.70068e-21)
(1.01018 0.00484874 0)
(1.08475 0.013732 2.0741e-20)
(0.718318 0.0480655 1.16794e-20)
(1.08129 0.0130074 3.80285e-20)
(1.00042 0.00269636 7.48422e-21)
(1.00786 0.00460195 1.19683e-21)
(1.03876 -0.0411762 7.79186e-21)
(0.966731 -0.0146695 -7.72019e-23)
(0.999583 -0.000211555 0)
(0.782486 0.0258338 -1.77203e-20)
(1.07075 0.016215 0)
(1.08044 0.0123164 0)
(1.10444 0.00510366 0)
(0.964885 0.0714335 0)
(0.974935 -0.0166871 2.69566e-20)
(0.984299 0.0895285 2.57761e-21)
(1.00565 0.0146585 -5.92502e-21)
(1.04939 0.0338235 7.39517e-21)
(1.07133 0.0172784 -7.01066e-21)
(1.00875 0.0118285 -4.05074e-21)
(0.310646 0.021106 7.0475e-21)
(1.0561 0.0545673 -1.38404e-20)
(1.00985 0.0421948 0)
(0.902734 0.0538917 -5.19259e-20)
(1.08475 0.00523998 9.83922e-22)
(1.00445 0.0953743 -1.42215e-21)
(0.828982 0.106298 8.51748e-20)
(1.06294 -0.0172642 0)
(0.983203 0.0632274 0)
(0.998641 0.00464739 -4.99794e-23)
(1.02261 0.0118344 2.30513e-22)
(1.00772 0.00430794 0)
(0.961311 0.00477588 -8.31505e-21)
(1.02667 0.00787118 0)
(1.02961 -0.00993735 0)
(0.923533 0.0475257 -1.46711e-20)
(1.01201 0.0077036 -1.59432e-21)
(1.01911 -0.00486757 -1.37294e-20)
(0.998591 0.116777 3.39878e-21)
(0.739758 0.0283722 -5.77152e-20)
(1.15452 0.124533 1.92876e-20)
(0.98391 0.0940384 -6.91247e-21)
(0.942474 0.262677 5.91858e-21)
(0.997986 -0.00364654 8.91002e-21)
(1.00038 0.000764692 -7.19957e-21)
(1.01297 0.0126574 -2.61866e-22)
(1.09726 0.0160464 4.53338e-20)
(1.06433 0.0203062 -7.69417e-21)
(1.0193 0.0210018 3.84327e-23)
(0.994241 0.0123876 -9.49233e-21)
(0.891293 -0.00934651 -4.27465e-20)
(0.990369 -0.00537903 -5.09715e-21)
(1.00495 0.00824212 9.89158e-22)
(0.987059 0.0281213 8.63612e-21)
(1.10976 0.0259448 -5.37318e-20)
(1.0179 0.0225609 0)
(0.833024 0.45756 0)
(0.963568 -0.0122537 0)
(1.00496 0.0599363 0)
(0.839519 0.0327766 4.04174e-20)
(1.00824 0.00553178 -5.49599e-21)
(0.990388 -0.00549341 -1.0362e-20)
(1.01234 0.00524023 -4.93548e-21)
(0.999696 0.00075509 6.92772e-21)
(0.0900941 0.135423 2.90643e-20)
(1.10114 0.00327635 -1.06311e-20)
(0.256823 -0.00284334 -8.98163e-21)
(0.988908 -0.00381727 1.81784e-21)
(0.133956 -0.000460517 2.21177e-20)
(0.728036 0.0304465 4.64516e-20)
(0.55181 -0.00494603 -2.08945e-20)
(0.654448 0.0423585 3.07183e-20)
(1.00538 0.0944113 0)
(0.835035 0.053007 -4.57696e-21)
(0.985359 -0.0110101 -1.34566e-20)
(0.887815 0.0226673 -1.83223e-20)
(0.938834 0.0362721 -1.85742e-20)
(1.08213 0.0538 0)
(1.08271 0.00950669 0)
(0.965259 -0.0115216 0)
(0.98838 0.0627112 -1.03569e-20)
(0.981697 0.06239 -1.01023e-20)
(0.931343 0.207012 2.99706e-20)
(0.99385 0.00185313 -4.11703e-21)
(1.0092 0.0159772 8.01068e-21)
(0.914862 -0.00886784 2.79236e-20)
(1.00359 0.00362567 0)
(1.00546 0.00446659 -4.48711e-21)
(1.12033 0.0198629 0)
(0.982649 0.0119824 5.31625e-21)
(0.841418 0.0877107 -2.41963e-20)
(0.163722 0.143146 1.13995e-19)
(0.981845 0.0116243 1.11677e-20)
(0.985751 0.048097 1.68114e-21)
(0.985819 0.0486066 1.96943e-21)
(1.00601 0.0110179 0)
(1.04776 -0.0210698 0)
(0.962867 0.0875713 5.42889e-21)
(1.00032 0.000101657 0)
(1.10086 0.00515368 -6.26259e-20)
(0.947909 -0.00376773 0)
(1.06313 0.168762 -5.81531e-22)
(1.02868 0.0143729 0)
(0.849331 0.0544649 7.94899e-20)
(1.10184 -0.0365768 -1.15466e-19)
(1.03388 -0.00681968 8.04677e-21)
(0.99689 0.0150489 -8.15385e-21)
(1.0158 0.00726887 -2.58417e-21)
(1.12301 0.174171 6.88344e-21)
(0.987047 -0.00499583 -3.03439e-21)
(1.00202 0.000255226 -5.83838e-22)
(1.00511 0.0217885 4.76802e-21)
(1.01185 0.0076559 -1.67256e-21)
(0.984628 -0.010828 -7.06879e-21)
(0.999995 0.00013196 1.64704e-21)
(0.998898 -0.00246295 8.38154e-21)
(1.0624 -0.0651139 0)
(1.00114 0.000202098 0)
(1.00716 0.000260287 4.22077e-21)
(0.729807 0.134775 0)
(1.08323 0.0153554 0)
(0.993608 0.0126539 0)
(1.00452 0.00725882 4.85518e-21)
(1.00027 0.000701134 -9.90075e-21)
(0.994441 0.0132664 -4.88578e-21)
(0.996704 0.00361752 1.97034e-21)
(0.979837 0.0213381 0)
(1.01302 0.012351 1.1693e-22)
(1.00804 0.0117599 0)
(0.962433 -0.00378547 -1.84456e-20)
(1.06813 -0.000216754 -1.43226e-20)
(1.12697 0.119647 3.15424e-20)
(0.99893 -0.00295228 -1.01509e-20)
(1.02565 0.00972431 9.86309e-22)
(1.04349 0.013904 5.64915e-23)
(1.02718 0.0140476 -1.7283e-21)
(1.03413 -0.00752969 -8.81059e-21)
(0.925823 0.0401091 5.95917e-21)
(0.880385 0.0207481 0)
(0.306581 0.0193143 1.04554e-20)
(0.727309 0.0175294 0)
(0.996291 0.000225414 0)
(0.995269 0.0137225 -5.28212e-21)
(1.10888 0.0411987 0)
(1.07448 -0.000566082 -2.12008e-20)
(1.08373 0.0733186 -4.99647e-21)
(1.00339 0.00360157 0)
(0.995956 0.0145491 1.19438e-20)
(1.03373 0.011296 -5.36962e-21)
(0.987323 -0.00187325 1.34733e-20)
(0.865343 0.334303 4.86053e-20)
(0.365724 4.39808e-06 3.81795e-21)
(0.98964 0.00467122 0)
(0.996902 0.00326641 0)
(0.662664 0.010988 4.5591e-20)
(0.141061 0.000328708 0)
(1.07313 0.0823487 -6.44842e-21)
(1.08562 0.0305609 -1.75886e-20)
(0.770013 -0.00323273 -7.92574e-21)
(0.231827 0.0665148 -1.10894e-19)
(0.994002 -0.0052385 5.29498e-21)
(1.04704 0.0338556 1.37874e-20)
(1.06665 0.00166016 -4.39249e-20)
(1.07066 0.0624945 1.06084e-20)
(1.08426 0.00430069 -3.09329e-20)
(1.01701 0.0212732 0)
(1.00988 0.0268907 -3.30032e-21)
(0.881857 0.356516 -1.4249e-20)
(1.02093 0.110952 3.65062e-21)
(1.01076 0.0136054 0)
(0.996136 -0.00272051 6.11988e-21)