/*--------------------------------*- C++ -*----------------------------------*\
| =========                 |                                                 |
| \\      /  F ield         | OpenFOAM: The Open Source CFD Toolbox           |
|  \\    /   O peration     | Version:  v2012                                 |
|   \\  /    A nd           | Website:  www.openfoam.com                      |
|    \\/     M anipulation  |                                                 |
\*---------------------------------------------------------------------------*/
FoamFile
{
    version     2.0;
    format      ascii;
    class       volVectorField;
    location    "150";
    object      U;
}
// * * * * * * * * * * * * * * * * * * * * * * * * * * * * * * * * * * * * * //

dimensions      [0 1 -1 0 0 0 0];


internalField   nonuniform List<vector> 
34253
(
(1.01367 0.000500555 -3.2336e-25)
(1.01408 0.00191086 -2.04097e-22)
(1.03069 0.026016 -2.77386e-22)
(0.999093 0.0215499 -6.97784e-22)
(1.01051 2.24671e-05 4.09226e-25)
(0.95068 -0.0194491 -2.00285e-22)
(1.02492 -0.00160932 1.146e-21)
(0.946078 0.0332475 0)
(0.0470418 -0.014276 -4.02468e-21)
(0.964042 0.0368392 -2.15121e-22)
(1.03793 0.0262954 7.18779e-23)
(0.753195 0.0621547 0)
(1.01212 0.000483445 -2.39448e-23)
(1.03024 0.0199428 -6.04027e-22)
(1.01391 -0.000493544 -2.5287e-24)
(1.0185 2.26983e-05 1.35237e-22)
(0.931037 0.0688361 1.59906e-21)
(1.013 6.64116e-06 -3.23471e-26)
(1.01056 -0.00935945 2.35242e-22)
(0.266152 0.0439027 2.33263e-21)
(0.853642 -0.016233 5.56963e-22)
(1.03631 0.00546665 -8.00822e-22)
(0.966519 0.035456 1.13572e-22)
(0.745883 -0.0437668 2.71381e-22)
(1.01059 0.0301115 8.69731e-23)
(1.05899 0.0403298 0)
(0.970292 -0.00594934 0)
(1.02633 0.0197916 -4.54285e-22)
(0.69251 -0.0310091 0)
(1.01787 0.00558451 -3.62176e-22)
(1.01481 0.0161401 -9.48429e-23)
(1.05258 0.0115863 -4.2903e-21)
(1.0582 0.0406375 -1.59577e-21)
(1.01311 -1.28226e-05 8.39692e-25)
(1.02774 0.0149672 4.43091e-22)
(1.04598 0.016526 9.11425e-21)
(1.01788 0.00384325 0)
(1.00964 6.50465e-05 3.35835e-23)
(1.01434 0.00200332 0)
(1.01444 0.00206013 0)
(1.00933 6.001e-05 4.39784e-23)
(1.01385 0.00220843 -4.82733e-24)
(1.00951 5.6277e-05 -5.26532e-23)
(1.03219 0.0055335 0)
(0.956629 -0.0189929 -1.98898e-24)
(1.03816 0.025921 2.58673e-21)
(0.587325 0.0453543 2.29652e-20)
(1.0137 -0.000219625 -2.8513e-27)
(1.0136 -0.000166059 -1.94112e-23)
(1.01371 0.000292256 0)
(0.841884 -0.0182921 -4.91767e-22)
(1.02152 0.00296146 -2.35954e-22)
(1.01792 0.00652591 -4.67793e-22)
(0.797262 -0.000137689 -1.24448e-22)
(1.03178 0.0331419 -2.41622e-22)
(0.922576 0.0127353 -1.41725e-23)
(1.0132 0.00170163 0)
(1.03883 0.0260372 0)
(1.02219 0.00320095 1.06627e-21)
(1.02208 0.00328387 3.61601e-21)
(1.01317 0.00169442 0)
(1.01644 0.00410633 -9.9547e-23)
(0.869987 -0.00854977 -2.35562e-23)
(0.926272 0.00885629 0)
(0.800429 0.000370914 1.25978e-22)
(1.00857 0.0269434 1.03584e-22)
(1.03909 0.0256387 0)
(1.02085 0.00684755 0)
(1.02646 0.0194587 3.96684e-22)
(1.01061 2.33688e-05 0)
(1.00926 1.17959e-05 -7.7641e-23)
(1.01669 0.00962713 1.12082e-23)
(1.01782 0.00638515 -4.15842e-22)
(0.890257 -0.0135861 -2.08228e-23)
(1.01374 -0.000423152 6.65095e-24)
(0.0959266 0.0372241 3.49399e-20)
(0.572013 0.0428274 -1.66167e-20)
(1.02116 0.00292905 1.62489e-21)
(1.01389 -0.000237819 1.58661e-23)
(1.02755 0.00473496 -2.20421e-21)
(1.05095 0.0273138 0)
(1.01779 0.00546873 1.48081e-21)
(1.01375 -0.00017521 -1.61801e-23)
(0.972864 0.0335368 0)
(0.741166 -0.0426629 0)
(1.01838 5.49136e-05 6.38372e-22)
(0.469632 0.00462605 -4.23461e-23)
(0.901948 -0.0168217 -1.12043e-23)
(1.04625 0.0160593 -8.92569e-21)
(1.01405 0.00193986 1.74526e-22)
(1.02106 0.0029851 0)
(1.02177 0.00973932 -5.35014e-22)
(1.01815 0.00122895 1.11105e-21)
(1.01322 0.00174152 0)
(0.0598915 -0.0163871 0)
(0.990447 -0.0296738 -3.59635e-22)
(1.0167 0.00918189 -1.05104e-22)
(1.01638 0.00404451 1.02024e-22)
(0.926152 0.00464995 -8.60286e-23)
(1.05661 0.0732423 -5.24837e-21)
(1.01239 0.000713966 3.29647e-23)
(1.07421 0.050075 -1.27854e-20)
(1.02749 0.00201832 7.10373e-22)
(0.701197 -0.0280802 0)
(0.392877 -0.0652434 -8.69187e-21)
(1.01205 -0.0116634 3.01979e-24)
(0.79965 0.00912737 2.84367e-23)
(1.01318 0.00172457 3.31554e-22)
(1.01374 0.00214463 0)
(0.844309 -0.0293147 4.67775e-22)
(1.00962 4.47529e-05 0)
(1.01947 0.0207904 1.73891e-22)
(1.02168 0.0096321 -5.1587e-22)
(1.01273 0.000510599 -9.21567e-23)
(1.02141 0.00302806 2.71189e-22)
(1.01276 -0.0124147 0)
(1.00937 4.52435e-05 1.06712e-24)
(0.909108 -0.0103769 0)
(0.805475 0.0110314 -9.86767e-23)
(1.01365 0.000674478 0)
(1.06598 0.0467828 9.96247e-21)
(1.02151 0.00844479 -1.74766e-21)
(1.01203 0.000525018 -7.17209e-23)
(0.043192 0.0481396 2.04944e-21)
(1.01207 0.0002554 -2.42851e-23)
(1.01879 0.00231353 0)
(1.02168 0.00934905 0)
(1.01678 0.003686 -9.65241e-23)
(1.01678 0.0035004 4.18784e-22)
(1.02361 0.00190273 1.15774e-21)
(1.02524 -0.00163408 1.38075e-21)
(0.840163 -0.0300578 -2.15578e-22)
(1.01263 0.000512059 4.10948e-23)
(1.01968 0.00914405 -1.92085e-22)
(1.04569 0.0154266 0)
(1.0495 0.0253323 0)
(0.123829 0.0454823 -1.65694e-20)
(1.01388 -0.000526209 2.80004e-24)
(0.992801 -0.00935665 1.21975e-22)
(-0.0889551 0.00417543 -2.19329e-20)
(0.914458 0.0338028 5.8985e-22)
(0.646026 0.0497922 6.56932e-21)
(0.42381 0.0884772 0)
(1.02018 0.00924141 0)
(1.01329 0.000499739 5.67039e-23)
(1.05143 0.0265144 0)
(1.02755 0.00448903 3.05923e-21)
(1.02476 0.00805228 0)
(1.00999 5.18763e-05 0)
(1.00867 3.27904e-05 0)
(1.07517 0.0373981 -2.84891e-21)
(1.02608 0.0185985 -7.44639e-22)
(1.02754 0.0152501 -1.16243e-21)
(1.0313 0.0298342 -2.40993e-21)
(1.0225 0.0764297 0)
(1.01162 0.000856787 1.8351e-22)
(0.784394 0.0602089 -9.03875e-23)
(1.05387 0.0508227 0)
(0.864923 0.068406 -7.60741e-21)
(1.01408 0.0168106 0)
(0.913346 0.0387126 -3.4541e-23)
(1.02053 -0.0104625 6.03807e-23)
(1.06817 0.0169614 1.23189e-20)
(1.02601 0.0190686 -8.69996e-22)
(1.0175 0.000315078 6.22317e-23)
(1.0305 0.00036604 8.78206e-22)
(1.02396 0.00665912 1.94014e-21)
(1.01179 -5.5231e-05 0)
(1.01184 0.000554998 -1.20454e-23)
(1.0297 0.0180677 2.14412e-21)
(1.02466 -0.00181147 -1.05231e-21)
(1.00928 4.18547e-05 -7.15703e-26)
(1.01917 0.00685625 0)
(0.642987 0.0499749 5.6565e-21)
(0.364061 -0.0474843 -3.20078e-21)
(0.87797 0.0404959 -1.18349e-22)
(1.00961 0.000132713 2.3663e-22)
(0.896346 -0.0287292 -1.06067e-23)
(0.960264 -0.0121056 0)
(0.680605 -0.0298164 0)
(1.08123 0.0599472 0)
(1.01946 0.0202122 -3.70723e-23)
(1.01377 0.00176398 4.8642e-22)
(1.01988 0.00881461 3.328e-23)
(1.04591 0.0149648 0)
(1.01607 0.0766592 0)
(1.01893 0.00229836 1.20345e-21)
(0.921373 0.00330461 1.69345e-23)
(1.01376 0.00047334 -1.15657e-25)
(1.00972 1.96193e-05 -8.57291e-25)
(1.0178 0.00116127 2.19745e-21)
(1.01281 0.00130201 0)
(1.02465 0.00785687 0)
(1.00933 3.12152e-05 -3.24056e-24)
(0.998832 0.0196057 2.00522e-21)
(1.0137 0.00168993 4.21237e-22)
(0.97482 0.000468857 1.83351e-23)
(1.046 0.0683429 0)
(1.00963 6.73394e-05 2.24152e-23)
(1.01328 -0.000175881 1.68593e-23)
(0.667976 0.0774164 0)
(1.05179 0.0238462 0)
(1.05196 0.0231244 0)
(1.01157 0.000845031 -1.72531e-22)
(1.01398 -0.000135014 -5.85972e-23)
(1.01803 0.00393885 0)
(0.921465 0.00508 -4.60873e-25)
(1.01553 -0.00444461 -1.74201e-25)
(1.01743 0.00612439 6.68117e-22)
(1.02244 0.00997389 1.37013e-23)
(1.00961 2.50063e-05 1.01174e-24)
(1.01361 0.000727294 -4.85106e-23)
(1.04398 0.0745648 0)
(0.481825 0.00415496 9.52614e-22)
(1.03483 -0.00121697 2.16633e-21)
(1.00356 -4.3719e-05 -1.643e-22)
(1.01149 0.000809014 1.78286e-22)
(1.03694 0.0274525 0)
(0.0376117 0.0421436 -3.80992e-21)
(1.02049 0.0029247 -8.06752e-22)
(1.01033 0.000224142 6.24937e-23)
(0.749745 0.081952 -9.67765e-21)
(1.04008 0.0253999 6.89766e-22)
(0.741031 -0.00876195 3.48296e-22)
(1.03455 -0.000994754 1.44789e-21)
(1.01567 0.00342064 0)
(1.01031 0.000215037 -7.88893e-23)
(0.80336 0.0185936 -8.91272e-23)
(1.01322 -6.35769e-05 -2.78315e-24)
(1.00882 0.000120733 0)
(1.03978 0.0258339 -1.4377e-21)
(0.709289 0.0504978 0)
(1.07347 0.0505738 1.61744e-20)
(0.812246 0.0209103 6.03454e-23)
(1.04106 0.0251103 -7.81698e-22)
(1.0117 0.000889459 2.72398e-22)
(1.01145 0.000794176 -3.46018e-22)
(1.0236 0.0143318 -5.14454e-22)
(1.01338 0.00100566 0)
(1.05782 0.0516785 0)
(0.429719 0.065815 -1.54175e-20)
(1.01311 -5.24542e-05 -2.85715e-24)
(1.01043 -0.00745564 -2.33591e-22)
(1.04964 0.0246445 0)
(0.396881 0.0617596 3.48153e-20)
(1.0915 0.062403 0)
(1.02122 -0.00958395 -1.6195e-23)
(1.01004 0.000141642 4.19941e-23)
(1.03022 0.0195871 9.15529e-22)
(1.02576 0.0149712 -4.10983e-23)
(1.01741 0.0157591 -1.31007e-22)
(1.01767 0.00029137 -6.34139e-23)
(1.01859 0.00676067 0)
(1.0102 8.28363e-05 0)
(1.01904 0.0019821 -6.26202e-22)
(1.01731 -0.000104132 1.55332e-21)
(0.471378 0.00265734 1.30453e-21)
(1.03946 0.014315 -6.14694e-21)
(1.05473 0.049964 0)
(1.01375 -0.000556198 -2.08539e-24)
(0.405589 -0.0618788 0)
(1.00964 5.30272e-05 0)
(1.01276 0.000184778 -3.98386e-23)
(0.480274 0.00499041 -7.91225e-22)
(1.0264 0.015314 7.28529e-22)
(1.02553 0.0151044 -2.50366e-21)
(1.01372 -0.00051552 2.19725e-24)
(1.02771 0.00276109 3.21169e-21)
(1.0203 0.00284768 2.43575e-21)
(1.02026 0.0200324 8.27511e-22)
(1.03598 0.00667823 2.4371e-21)
(1.0365 0.0272077 0)
(0.932804 0.00293447 -1.05626e-23)
(1.01539 0.00321203 -1.25893e-21)
(1.01777 0.00107207 1.18158e-21)
(0.995595 0.0388546 -1.70431e-22)
(1.01499 0.00113914 0)
(1.03254 0.0054146 1.33919e-21)
(1.0795 0.0595209 7.20489e-21)
(1.00998 0.000136797 -1.32437e-22)
(1.00979 6.20641e-05 -1.07046e-26)
(1.00801 3.46017e-05 7.06246e-23)
(1.01106 0.00021101 0)
(1.03907 0.0145074 -2.22747e-21)
(1.04339 0.0351675 -4.12905e-21)
(1.01771 0.00020202 -3.41066e-24)
(1.01798 0.0330113 0)
(0.993293 0.0399046 8.96745e-23)
(0.6878 0.0490464 -1.47969e-20)
(0.84097 -0.0353885 -3.43854e-22)
(1.00964 2.78012e-05 1.7184e-24)
(1.0144 0.00242908 -2.28845e-22)
(1.04589 0.0676003 0)
(1.01964 0.00175407 1.30197e-21)
(1.01561 0.00326049 -3.23313e-22)
(1.02057 -0.010604 -7.01906e-23)
(1.01794 0.00367277 1.74394e-22)
(0.839237 -0.0370284 -8.77874e-23)
(0.976202 -0.00847746 7.01793e-22)
(0.932822 -0.000699446 4.30563e-23)
(0.984038 -0.000185927 -2.59797e-22)
(0.840609 -0.041557 -1.15199e-22)
(1.0528 0.0121162 6.165e-21)
(1.03483 0.00500861 -3.13663e-21)
(1.02035 0.0151724 0)
(1.01337 3.33381e-05 -1.77894e-23)
(0.962473 -0.0068047 -9.62978e-23)
(0.84174 -0.043857 1.8094e-22)
(1.02613 0.0150888 1.8219e-21)
(1.02437 0.00778533 0)
(1.01923 0.00206372 1.95464e-21)
(1.01258 0.00120477 2.55799e-22)
(1.02038 0.0195105 -9.22714e-22)
(0.757555 -0.0387205 -2.78311e-22)
(1.01468 0.00232609 -2.14431e-23)
(1.04303 0.00326045 0)
(1.00837 0.0204781 1.81969e-23)
(1.0223 0.00985492 -5.82726e-22)
(0.657579 0.0568159 -2.34961e-20)
(1.0364 0.00601474 0)
(1.05098 0.025857 -2.86872e-21)
(1.05249 0.0286901 8.60567e-21)
(1.0094 0.0193858 -7.06047e-24)
(1.03493 0.00544494 3.08365e-21)
(0.767945 0.0575023 0)
(1.01959 -0.0110086 4.41625e-23)
(1.05142 0.0278798 0)
(1.01353 1.62159e-05 2.07393e-23)
(1.01558 0.00336713 0)
(1.04078 0.0255721 -7.82949e-22)
(1.01609 0.00374922 0)
(1.03435 0.00488374 0)
(0.712445 0.0822361 0)
(1.0671 0.0468157 -1.09308e-20)
(1.01463 0.00228144 2.46271e-23)
(1.05289 0.0229746 0)
(1.02392 0.00756036 1.06597e-21)
(1.01335 6.78599e-05 1.64387e-23)
(1.01228 0.000211987 6.49839e-23)
(0.417149 -0.0467148 -2.15247e-22)
(1.05402 0.0214745 0)
(0.0663281 -0.0304367 1.25719e-20)
(0.826971 0.0803385 -1.03957e-20)
(1.0118 -5.30739e-05 1.09152e-23)
(1.01334 5.83952e-05 -1.7748e-23)
(1.01157 0.000858105 0)
(1.01161 0.000877256 0)
(1.01321 9.02285e-05 1.64786e-23)
(0.381448 0.015001 -7.84094e-22)
(0.466193 0.00288131 5.99079e-23)
(1.01673 0.0063299 -2.81213e-22)
(1.01128 8.52915e-05 1.91603e-25)
(0.416758 -0.0603178 0)
(1.01247 0.000501917 1.37208e-22)
(0.271925 0.0565079 0)
(1.01568 0.000337327 -2.08534e-23)
(0.41569 -0.0473399 -4.87827e-23)
(1.06598 0.0286939 -8.73197e-22)
(0.722978 0.0628361 -2.3317e-22)
(1.01869 0.00809031 1.46109e-23)
(1.00094 0.0329349 0)
(0.957688 -0.00536361 9.60564e-23)
(1.01751 0.00528027 0)
(1.01234 0.000537127 0)
(1.0143 0.00237452 4.35352e-22)
(1.00455 -0.00462441 -3.58444e-24)
(1.02027 0.0088787 0)
(0.227369 0.0471825 0)
(1.0393 0.0226683 4.72018e-23)
(0.40524 0.0188149 4.23891e-22)
(0.244101 0.0828852 -4.34856e-21)
(1.0238 0.00738096 6.75073e-24)
(1.01271 0.00126366 0)
(1.08036 0.0392166 0)
(0.416013 0.0823846 2.0141e-21)
(0.958323 -0.00817022 0)
(1.01886 0.00827492 0)
(0.958504 -0.0186171 0)
(0.950986 -0.00108451 0)
(0.996189 -0.0048396 8.26214e-24)
(0.837557 -0.0394155 0)
(0.956997 -0.00726262 -6.59461e-23)
(1.06904 0.0423159 0)
(1.01941 0.00746133 3.38493e-22)
(0.905382 -0.0269434 1.90167e-23)
(0.868755 -0.00756395 -4.41557e-23)
(1.01317 0.000119216 -3.25078e-23)
(1.05305 0.0223496 3.02703e-21)
(1.01268 0.00123466 -1.69462e-22)
(1.01267 0.00019534 3.34449e-23)
(1.01237 0.000497113 -8.8326e-23)
(0.88964 -0.0319787 2.16067e-23)
(1.01998 0.0091809 -1.32329e-22)
(1.05589 0.0394311 0)
(1.00974 6.102e-05 4.2778e-24)
(1.0121 0.00107774 2.81613e-22)
(1.01377 -0.000390133 -5.34438e-24)
(1.01302 0.000130997 1.51814e-23)
(1.01639 0.00323762 7.19831e-22)
(1.01664 0.00357987 1.46774e-21)
(1.0125 0.000188624 8.38574e-24)
(1.01408 -0.00671593 8.07414e-22)
(1.01544 0.0032993 -4.77197e-22)
(1.01534 0.0032071 4.67536e-22)
(1.01943 0.00167968 2.01409e-21)
(1.02044 0.00866401 -1.30169e-22)
(0.286892 -0.0659009 0)
(1.04361 0.00653012 -5.02668e-21)
(1.06581 0.0293376 0)
(0.569786 0.0702779 8.91896e-21)
(1.01246 -1.1013e-05 0)
(1.01569 0.00327741 0)
(0.588224 0.07196 0)
(1.01872 0.00740969 0)
(1.05224 0.0142086 2.62607e-21)
(0.438763 0.0881065 -9.46408e-21)
(0.335588 0.0894044 0)
(1.01794 0.0036453 -1.01387e-21)
(-0.0542256 0.0182446 -2.44947e-20)
(0.797494 -0.0202577 -6.06769e-22)
(1.02423 0.00760805 2.08207e-21)
(1.01137 0.000760703 -2.04686e-24)
(1.01182 0.000465507 0)
(1.01603 0.00367988 0)
(1.01717 -0.00221617 -2.68933e-24)
(0.972976 0.0342289 -2.16123e-22)
(0.329732 0.0857352 1.25431e-20)
(1.06085 0.0147818 -7.80429e-21)
(0.946778 -0.0292605 0)
(1.0322 0.0141964 2.77754e-21)
(1.06734 0.0592431 -5.27236e-21)
(1.00952 5.73629e-05 -3.85485e-23)
(1.01261 0.000607354 0)
(0.271711 0.0830787 -6.59018e-21)
(1.01289 -0.000136805 5.79109e-25)
(1.02251 0.00195255 0)
(0.784155 -0.0215581 5.40884e-22)
(1.03158 0.0320778 0)
(1.05828 0.0529582 0)
(1.0271 0.00250812 1.46032e-21)
(1.01049 0.000133125 -2.58465e-23)
(1.01845 0.00664949 2.99679e-22)
(0.902286 -0.0128677 5.56044e-23)
(1.02811 0.00277741 -2.86907e-21)
(1.01767 0.00660317 0)
(0.407767 -0.0652851 0)
(-0.0918556 0.00251062 1.49764e-20)
(1.0126 0.000585004 1.69096e-24)
(1.01116 0.000660652 -8.91202e-23)
(1.04565 0.0092315 3.5126e-23)
(1.0131 -0.000109771 4.83283e-24)
(0.932859 -0.00485147 -1.56834e-23)
(1.01579 0.00333507 -5.95488e-22)
(0.890273 -0.0301427 1.22484e-23)
(1.0097 6.5098e-05 0)
(0.930782 0.0674711 0)
(1.03476 0.0274613 0)
(1.01891 0.0169366 0)
(1.02463 0.00672742 0)
(1.0165 0.00552265 1.21744e-22)
(1.02847 0.00494316 7.00298e-24)
(1.01976 0.00170666 -1.37098e-21)
(-0.0743426 0.001471 2.53154e-22)
(1.01041 0.000130634 5.52892e-23)
(1.01409 0.00606547 -1.18364e-23)
(1.00927 2.70676e-05 7.48171e-24)
(1.03204 0.0329395 0)
(1.00986 4.75804e-05 0)
(0.839779 0.0664737 2.20493e-20)
(1.03191 0.0214599 3.34156e-22)
(1.03834 0.0139585 -6.12748e-21)
(1.01113 0.000643879 8.7864e-23)
(0.924287 0.006518 -5.44559e-23)
(1.02968 0.00733729 0)
(1.03186 0.0319406 -6.49578e-22)
(1.06005 0.0646926 1.15677e-21)
(0.901641 -0.0201215 -2.65425e-23)
(1.03398 0.000153881 2.83589e-21)
(1.01337 0.000525139 6.31465e-23)
(1.0216 0.00928109 0)
(1.01681 0.00151724 4.80012e-22)
(1.07598 0.0289505 3.7544e-21)
(1.0121 0.000484086 -2.4065e-23)
(1.03017 0.0179662 -3.01829e-21)
(1.05906 0.0176469 3.72496e-21)
(0.76815 -0.00815368 0)
(1.01122 0.000693075 -1.73965e-22)
(1.03911 0.0220949 6.08479e-21)
(1.01524 0.00039843 0)
(1.01914 0.00753747 1.50953e-21)
(1.02422 0.0058306 0)
(1.0319 0.0138878 2.25903e-24)
(1.0225 0.00839986 1.72469e-22)
(1.00927 3.09679e-05 5.09345e-24)
(1.03002 0.00730443 -2.33198e-21)
(1.00924 6.64749e-06 -2.0759e-23)
(1.01678 0.00356326 0)
(1.01228 0.000573409 0)
(1.01302 -0.000231103 -2.43523e-24)
(0.875841 0.0436234 1.7249e-22)
(1.01296 0.000311137 0)
(1.00929 2.97946e-05 1.30835e-25)
(1.00985 6.51507e-05 0)
(0.865575 0.0376084 0)
(1.01456 -0.000106852 3.78097e-25)
(0.835241 0.0565386 0)
(1.01186 0.000159444 -4.28528e-22)
(1.01539 0.000140294 0)
(0.983185 -0.0289383 0)
(1.00944 5.35097e-05 0)
(0.883312 -0.0322955 0)
(1.01935 0.00202292 -6.64251e-22)
(1.01665 0.0177571 2.26887e-22)
(1.02335 0.00182471 -1.96956e-21)
(1.01188 0.00101412 0)
(1.00936 4.02873e-05 -3.31437e-24)
(1.01384 -9.20532e-05 1.15313e-23)
(1.013 -0.00010153 1.69924e-25)
(0.0974354 0.00230766 -3.10727e-21)
(1.0231 0.00629552 9.31692e-22)
(0.86617 0.0395658 1.83566e-22)
(1.05292 0.0139733 -2.75379e-21)
(1.06477 0.030497 -7.99004e-21)
(1.01335 0.00171252 2.18688e-22)
(0.25393 0.039156 -2.37052e-21)
(1.01455 0.00637049 -4.94277e-24)
(1.01185 0.000993034 0)
(1.04828 0.0507738 0)
(1.01385 0.00214738 0)
(0.95832 0.0185285 0)
(1.02323 0.05543 -1.99437e-21)
(0.888354 -0.0322859 3.41986e-23)
(1.02141 0.00903359 1.50832e-22)
(1.00867 5.04972e-05 4.24876e-23)
(1.0138 0.00212068 0)
(1.01745 0.000178398 1.85147e-21)
(1.02247 0.00852346 2.24132e-22)
(1.01256 -6.33197e-05 0)
(1.02698 0.0293044 0)
(1.00841 0.000157962 -2.86909e-22)
(1.02425 0.0210364 9.07147e-22)
(1.01672 0.0015329 -1.439e-21)
(1.01334 0.00175115 5.37617e-22)
(1.01331 0.00168412 -1.43746e-22)
(1.01542 0.000262581 -5.39301e-23)
(1.0437 0.0049207 5.79796e-21)
(1.02132 0.008989 -1.25067e-22)
(1.00957 6.77478e-05 -4.03472e-23)
(1.04176 0.0252675 7.78441e-22)
(1.01562 0.000198328 0)
(0.94907 -0.0105509 0)
(0.0808377 0.0418778 -1.30671e-21)
(1.02226 0.00963537 1.55647e-22)
(1.02312 0.00708839 -1.99997e-21)
(1.01793 0.00120832 -1.09519e-21)
(0.855562 -0.0463582 1.40506e-23)
(0.0825435 -0.0021568 -1.98716e-20)
(1.03147 0.0309929 2.04291e-22)
(1.05988 0.0174327 -4.99143e-21)
(1.01272 0.00062051 0)
(1.01212 0.000536279 1.00874e-22)
(1.04307 0.00483285 -4.10144e-21)
(1.01236 0.000121246 0)
(1.0156 0.000326972 -5.26137e-23)
(1.01565 0.00337992 5.93899e-22)
(0.907323 0.0438674 -1.62011e-22)
(0.676734 -0.0234542 0)
(0.986852 -0.00445892 3.25481e-22)
(0.951502 -0.00435849 0)
(1.01236 0.000244382 -8.35601e-22)
(1.03518 0.044347 -5.66847e-23)
(1.06484 0.0298755 6.65146e-21)
(1.00955 4.99332e-05 0)
(1.01249 0.000574374 -1.24639e-22)
(1.03331 0.0199252 -3.56929e-22)
(0.408727 0.00420203 -5.62735e-22)
(0.779753 0.0515091 -3.74843e-22)
(0.468812 0.0274748 1.35162e-22)
(0.62449 0.077306 5.80399e-21)
(0.858311 -0.0424628 8.80396e-23)
(0.988836 -0.0286593 8.88509e-23)
(0.0690215 0.0386793 0)
(1.03124 0.0307113 -2.04194e-23)
(1.05999 0.0144556 0)
(1.01234 -1.6778e-05 0)
(1.00978 2.53087e-05 9.78073e-25)
(1.0729 0.0396649 1.17709e-20)
(1.01239 0.000585116 6.39292e-23)
(1.03228 0.0243676 0)
(0.629359 0.0808773 -2.37253e-21)
(-0.0590859 0.0156246 2.91631e-20)
(1.0604 0.0167629 4.35304e-21)
(1.06021 0.0161337 7.53084e-21)
(0.547818 -0.0396052 0)
(1.0157 -0.00530679 -1.99707e-21)
(1.01924 0.00707553 -7.00026e-22)
(0.905954 -0.0281144 0)
(1.02124 0.00883948 0)
(1.04423 0.0525468 0)
(1.01516 0.00288344 5.47053e-22)
(0.891453 -0.0268632 1.064e-22)
(1.02469 0.00803009 3.21562e-23)
(1.0115 9.7467e-05 -1.9155e-26)
(0.525961 -0.0364334 -8.65044e-22)
(0.97656 -0.0226076 1.79354e-22)
(0.9905 -0.00565535 -4.80536e-22)
(1.04529 0.00160357 -4.3368e-21)
(1.01892 0.00201895 6.00055e-22)
(0.894849 -0.0302127 -1.45438e-23)
(1.01766 -0.00296988 9.35536e-24)
(1.01383 0.00217563 0)
(1.04576 0.00123748 2.11789e-21)
(0.904669 -0.0273482 0)
(1.06865 0.0233395 -3.45671e-21)
(0.43215 0.0864383 1.71028e-21)
(0.961849 0.0680323 0)
(1.01349 0.00104696 -1.03834e-23)
(1.01553 0.00317663 3.15832e-22)
(1.01678 0.00536039 -1.43546e-22)
(1.03266 0.0161312 -1.69846e-22)
(1.02296 0.00691378 2.02434e-21)
(1.01803 0.00116809 0)
(-0.0819289 0.00074816 -1.04085e-20)
(0.654928 0.0817528 -2.61775e-21)
(1.07473 0.0678958 0)
(0.668009 0.0813437 8.4972e-21)
(0.458376 0.0814914 0)
(1.00951 6.94769e-05 1.02115e-23)
(1.01967 0.00158229 -7.62386e-22)
(1.01509 0.000155119 1.47401e-23)
(0.910117 -0.0223586 0)
(0.067177 -0.0297728 -1.40216e-20)
(0.999576 0.00425413 8.24959e-22)
(1.0151 0.00284741 1.51049e-22)
(1.01468 -0.000224773 1.40622e-25)
(0.849648 0.0467904 0)
(1.01837 0.00670216 2.66571e-22)
(1.01935 0.00722639 -1.02643e-21)
(0.772579 0.0824524 0)
(0.102847 0.00436993 -9.79554e-22)
(1.01931 0.00795084 -2.96305e-22)
(1.02861 0.00983971 0)
(1.01928 0.00699216 7.54474e-22)
(1.01654 0.00578375 0)
(1.01271 0.000167601 3.8914e-23)
(1.07731 0.0601922 4.78074e-22)
(0.817753 0.0583975 0)
(1.00915 4.39356e-05 1.3774e-23)
(0.105224 0.0133602 0)
(1.01173 -6.7979e-06 0)
(0.865049 0.0446584 6.06092e-22)
(1.01709 -0.0096539 1.26501e-23)
(0.868 0.0814158 5.0213e-21)
(1.0214 0.0569387 0)
(1.01563 0.0112526 0)
(1.01224 0.00113028 0)
(1.02819 0.0246509 1.86553e-22)
(1.04642 0.043308 0)
(1.01666 0.00339279 -4.08253e-22)
(0.902338 -0.0229112 1.79394e-24)
(1.01204 0.0252398 -8.93213e-24)
(1.0271 0.00198285 0)
(1.01266 -9.28373e-05 0)
(0.802195 0.067997 0)
(1.02096 0.00702728 0)
(0.950923 -0.0160892 9.44456e-23)
(0.72232 -0.0176376 4.50285e-23)
(1.01494 0.000549824 3.85075e-23)
(1.02115 0.00879794 4.48648e-22)
(1.01864 0.0103624 -1.73365e-22)
(1.01607 0.00367595 0)
(1.04147 0.00343596 -4.83179e-21)
(1.0096 8.44355e-05 3.24499e-23)
(0.841669 0.0583804 0)
(0.837522 0.0807615 0)
(1.00088 0.00391452 0)
(1.0923 0.0591332 8.53495e-21)
(0.410656 0.0880579 6.30963e-21)
(0.973315 -0.000192457 -3.30193e-22)
(1.05586 0.00651618 0)
(1.01266 -0.000117438 -5.4773e-24)
(1.01574 0.00343625 -2.81976e-22)
(1.03009 0.00684511 -1.26882e-22)
(0.952282 -0.0142194 -1.04549e-22)
(1.01899 0.0105696 5.17381e-23)
(1.01047 0.000284469 -5.85591e-23)
(1.01712 -0.00249038 0)
(1.02264 0.00447285 -1.75057e-23)
(1.01756 -0.00329626 -9.53091e-24)
(0.570985 0.041341 2.43094e-20)
(0.971173 0.0386198 -5.45665e-22)
(1.01044 0.000120529 5.20269e-23)
(1.01808 0.00410624 -6.26661e-23)
(0.373826 -0.063282 1.71986e-20)
(0.868952 0.0427485 -1.67132e-22)
(0.118618 -0.0123272 0)
(1.01797 0.0104214 8.55759e-23)
(0.901323 -0.015522 -2.49079e-23)
(1.02088 0.00797785 0)
(1.01366 0.00636868 4.10846e-23)
(1.0308 0.00118964 -5.1416e-21)
(1.02355 0.00610056 0)
(1.02758 0.0725685 1.1107e-20)
(0.974451 -0.0067692 -2.41538e-22)
(1.0198 0.00153979 -7.20096e-22)
(1.01203 0.00102631 -2.8902e-22)
(1.00973 4.5927e-05 2.42294e-23)
(1.01155 -2.74068e-05 -1.53782e-24)
(1.03193 0.0333625 1.10425e-21)
(1.01026 0.000191053 -4.62671e-23)
(1.01828 0.0106345 0)
(-0.0239606 -0.0517555 -4.48513e-21)
(1.07934 0.041112 -7.86134e-21)
(0.873052 -0.00198992 -1.10538e-23)
(1.02433 -0.00172177 1.1905e-21)
(0.878298 -0.00199182 9.71454e-23)
(1.072 0.0398798 -2.05217e-20)
(0.980492 -0.00720142 6.43658e-24)
(0.910578 -0.0170342 1.24893e-22)
(1.01812 0.00405107 6.01991e-22)
(0.358702 -0.0488075 -1.44092e-21)
(1.01523 0.00036959 0)
(0.869986 0.0436692 -1.77469e-23)
(1.01219 0.000498234 2.39227e-23)
(0.998783 -0.00306247 1.26066e-22)
(1.01034 0.000190175 4.9008e-23)
(-0.0274786 0.0342386 -3.75303e-21)
(1.01169 0.000120894 6.44519e-24)
(1.06309 0.0313263 5.96415e-21)
(1.01825 0.00658984 -2.58477e-22)
(0.989393 -0.00823649 1.8286e-22)
(0.967786 -0.0083352 5.20022e-23)
(0.982088 -0.0269642 0)
(0.298013 0.0489172 -2.33043e-21)
(0.262903 0.0729492 0)
(1.01765 0.00483615 0)
(1.01388 0.00220358 0)
(1.01486 0.00116409 -1.13469e-22)
(1.01815 0.00361974 1.85227e-22)
(1.01339 0.000498468 -7.18715e-23)
(1.02892 0.00990054 0)
(1.00959 4.44018e-05 0)
(1.01158 0.000111123 -1.38553e-23)
(1.01887 0.00217366 -2.43029e-21)
(0.922424 0.0125138 5.65055e-24)
(1.00929 2.72385e-05 0)
(1.00935 6.13079e-05 2.37638e-23)
(1.00927 3.09714e-05 -5.15634e-24)
(1.02234 0.0066468 -1.39492e-21)
(0.894465 0.000720957 0)
(1.01293 0.000616267 6.16295e-23)
(1.01235 0.00930124 -4.36742e-23)
(0.685379 -0.0268624 -1.76387e-23)
(1.02403 0.0127198 1.06408e-21)
(1.0252 0.00831784 -9.53892e-23)
(0.445587 -0.0510932 -2.8616e-22)
(1.01823 0.00430187 0)
(0.437892 0.0246445 1.1396e-22)
(0.924586 0.0120356 1.60092e-23)
(1.01678 0.00374377 -7.02401e-22)
(0.668526 0.0717389 -4.19566e-21)
(1.0157 0.00331846 0)
(1.02 0.000598149 -9.81112e-23)
(0.354914 0.0378986 -9.90927e-22)
(1.04417 0.00679056 0)
(1.01009 0.00849343 3.5551e-23)
(1.02157 0.00855868 0)
(0.91094 -0.0144261 -8.58999e-23)
(1.01363 0.000318188 4.38398e-22)
(0.296471 -0.0661229 1.19735e-20)
(0.823883 -0.00662624 -9.92074e-23)
(1.0075 1.56855e-05 -3.44049e-23)
(1.01224 4.00076e-06 0)
(1.0232 0.0182611 0)
(0.890067 -0.00212308 2.21593e-23)
(1.01753 0.0047588 4.21558e-22)
(0.463232 -0.0523149 7.15981e-22)
(1.03149 0.0302578 3.02842e-21)
(1.0134 0.00161497 4.99894e-22)
(1.01381 0.00214685 0)
(1.00783 4.43344e-05 0)
(1.01743 -0.00580702 3.9932e-22)
(1.03732 0.0058178 0)
(1.01054 0.000292294 -4.86825e-23)
(1.03057 0.0009683 3.78618e-21)
(1.02644 0.0218287 -7.86752e-22)
(1.01187 0.000472997 0)
(1.01649 0.00313859 0)
(1.01257 -3.50095e-05 0)
(0.103485 0.0190811 -3.79867e-21)
(0.900997 -0.0143729 1.38598e-23)
(1.01572 0.000381566 -6.6582e-22)
(1.01893 0.00376132 -1.47354e-21)
(1.0531 0.0103726 -6.10445e-21)
(0.44947 -0.0506493 2.87585e-22)
(0.973425 -0.0303454 0)
(1.04205 0.0247813 0)
(-0.0332276 0.0323683 -2.04771e-20)
(0.443204 -0.066333 9.42992e-21)
(1.03863 0.014355 2.5982e-21)
(1.07811 0.0683205 1.10363e-20)
(1.02213 0.00953029 -1.44209e-22)
(0.92425 0.00696394 8.91554e-24)
(1.04308 0.0244464 1.71196e-21)
(1.03595 0.006254 -4.32571e-21)
(1.02468 0.0115037 2.23676e-24)
(1.04753 0.051303 2.7833e-21)
(1.01756 0.00643636 0)
(1.03454 0.0095808 -2.97275e-21)
(0.977089 -0.0185514 -8.27988e-23)
(1.01548 0.00326667 -2.74e-22)
(1.01007 7.60428e-05 0)
(0.702671 0.0808607 -2.40316e-20)
(1.07021 0.0422106 2.34095e-21)
(1.03133 0.00213103 3.24135e-23)
(1.00818 4.35037e-05 4.29708e-23)
(1.01817 0.000193575 -1.10459e-21)
(1.02376 0.00647915 0)
(1.01707 0.000248141 -8.47254e-22)
(1.00932 -4.8799e-05 -2.90879e-22)
(1.00984 9.5575e-05 5.38471e-23)
(0.920045 0.00244954 -4.11758e-23)
(0.860179 0.0425598 4.50829e-22)
(0.961445 0.0455513 0)
(1.0118 0.000463498 0)
(1.02218 0.00648659 9.42447e-22)
(0.908822 -0.0181138 -5.00454e-23)
(1.0178 0.00355461 -2.98205e-24)
(1.013 -0.000147597 5.42684e-24)
(0.978697 0.000325234 0)
(1.02458 0.0117643 0)
(0.85222 -0.0447378 -7.53952e-23)
(1.04622 0.00957056 0)
(1.07915 0.0608014 -8.24945e-21)
(0.975086 -0.0300791 6.84441e-23)
(1.01096 3.57871e-06 -7.49647e-24)
(1.01244 0.000193395 1.56762e-23)
(1.01081 0.00973252 2.44733e-23)
(0.978416 0.0314327 0)
(0.433255 -0.0539343 4.06709e-21)
(0.803664 0.0572645 0)
(1.01015 7.70429e-05 -1.17209e-25)
(0.102423 -0.00579427 4.38194e-21)
(1.03418 0.00926128 -4.35041e-21)
(1.01231 0.000191136 2.71829e-25)
(-0.0091098 0.0347999 -6.62687e-21)
(1.01386 0.00217627 2.80549e-22)
(1.02479 0.00851901 2.73693e-22)
(0.761684 -0.0442981 0)
(1.05256 0.0502869 5.1234e-21)
(1.01057 8.78368e-05 0)
(1.04748 0.0289931 0)
(1.01661 0.00221618 0)
(1.01469 0.00116862 5.23301e-23)
(1.0358 0.00534109 0)
(1.05124 0.0293977 3.01795e-21)
(1.03105 0.00191807 1.49094e-21)
(1.01376 0.0186044 0)
(1.01166 9.72911e-05 0)
(1.02371 0.014063 -1.14639e-21)
(1.02944 0.000655189 -3.74286e-21)
(1.02104 0.0086255 -6.36227e-22)
(1.03491 0.0451185 3.30146e-22)
(1.08804 0.0601698 0)
(0.612916 0.0579974 0)
(1.023 -0.00542417 -4.56081e-23)
(1.0094 6.21632e-05 -2.38224e-23)
(1.03194 0.0326402 0)
(1.07607 0.0368601 2.97418e-21)
(0.533853 0.073714 8.38295e-23)
(1.01471 0.00116628 1.26157e-22)
(1.01562 0.0165297 5.45475e-23)
(0.715045 -0.0217365 -5.07504e-23)
(1.01893 0.00367168 2.14759e-21)
(0.986984 0.0750296 -1.22689e-20)
(0.916064 0.00495559 7.0792e-23)
(0.849196 -0.0472291 6.85838e-23)
(1.00787 0.000116121 0)
(1.01052 0.000282493 8.65282e-23)
(0.345944 0.00622691 5.06814e-23)
(1.02113 0.00648975 -1.47282e-21)
(1.015 0.000360861 -6.27825e-22)
(0.875486 0.0463277 -2.34711e-23)
(1.01776 0.000156973 -6.87992e-25)
(1.01932 0.00172732 -6.51501e-22)
(1.04621 0.0423843 0)
(1.01188 0.000998359 0)
(1.01949 0.00276245 0)
(1.02528 0.00966742 -2.26059e-24)
(0.876991 0.0456378 1.29859e-22)
(-0.0213517 -0.0514061 0)
(0.716228 0.0804942 1.10886e-20)
(-0.0133103 0.0372809 0)
(1.01039 0.000111017 2.36142e-23)
(1.01864 0.00721865 -5.84831e-22)
(1.02563 0.00993948 2.1854e-24)
(0.939263 0.0167366 3.83542e-22)
(0.444886 -0.0497224 -3.12005e-22)
(1.0144 -0.000536817 -5.77617e-24)
(0.955069 -0.00994144 0)
(1.04681 0.0288245 7.75362e-21)
(1.02023 0.0146386 0)
(0.644474 0.0571582 2.04555e-20)
(1.01657 0.0021829 0)
(0.00347243 -0.00844027 2.6414e-21)
(0.853365 0.0705235 2.36488e-23)
(1.01521 0.00313612 4.22868e-22)
(1.01823 0.00513822 -4.75875e-22)
(1.00966 5.03528e-05 0)
(1.01447 0.00209781 -8.36325e-22)
(0.84682 0.0629914 -2.5766e-22)
(1.01281 0.00139279 1.15796e-22)
(1.05174 0.0113727 6.86384e-21)
(1.01203 0.00107682 0)
(1.01276 0.00136112 0)
(-0.0690911 -0.0039307 9.68886e-21)
(0.955753 -0.001358 0)
(0.913117 -0.0181799 -1.32177e-24)
(1.00957 7.79666e-05 -3.11921e-23)
(1.01208 0.000179723 0)
(1.02197 -0.00776621 -2.03822e-23)
(1.01824 0.00423977 7.88974e-23)
(0.678082 0.0731143 7.52671e-21)
(1.00999 4.27424e-05 -4.79305e-22)
(1.02095 0.00859761 2.3687e-22)
(1.0353 0.0196754 2.1185e-21)
(1.01277 -0.000444872 3.86906e-22)
(1.03004 0.000384377 9.34113e-22)
(0.285937 0.0735969 0)
(0.901997 0.00372649 1.07734e-22)
(1.05039 0.050505 1.19118e-23)
(1.0209 0.00677056 0)
(1.01692 0.0163 5.84906e-23)
(1.0133 0.00170975 -5.943e-22)
(1.05507 0.0477667 5.81627e-21)
(1.01277 -0.000151943 1.87677e-23)
(0.480386 -0.0310304 -1.41456e-21)
(1.09151 0.0612679 6.81502e-21)
(1.01764 -0.0133861 4.20284e-23)
(1.03384 0.0720078 0)
(0.901214 0.00298411 -7.43774e-23)
(1.02087 0.002983 -4.6188e-22)
(1.03503 0.0200017 2.17186e-21)
(1.02461 0.00615295 -3.78283e-23)
(1.06828 0.0394684 0)
(1.0145 -0.00379734 0)
(1.01297 0.00106758 -5.80867e-22)
(1.0889 0.0608725 -1.20322e-20)
(1.01206 0.00109794 0)
(0.502126 0.00682051 -8.99706e-22)
(1.04744 0.00773302 2.04541e-21)