/*--------------------------------*- C++ -*----------------------------------*\
| =========                 |                                                 |
| \\      /  F ield         | OpenFOAM: The Open Source CFD Toolbox           |
|  \\    /   O peration     | Version:  v2012                                 |
|   \\  /    A nd           | Website:  www.openfoam.com                      |
|    \\/     M anipulation  |                                                 |
\*---------------------------------------------------------------------------*/
FoamFile
{
    version     2.0;
    format      ascii;
    class       volScalarField;
    location    "100";
    object      k_0;
}
// * * * * * * * * * * * * * * * * * * * * * * * * * * * * * * * * * * * * * //

dimensions      [0 2 -2 0 0 0 0];


internalField   nonuniform List<scalar> 
18540
(
9.34291e-05
5.71238e-05
8.44978e-05
0.000101949
8.67249e-05
4.46409e-05
8.22178e-05
0.00435053
5.49486e-05
8.75017e-05
8.89413e-05
0.000162252
0.000143409
0.0334368
8.64044e-05
5.48303e-05
6.50309e-05
8.05586e-05
5.97978e-05
8.20376e-05
0.000112332
5.0177e-05
4.92985e-05
9.01642e-05
6.20328e-05
8.65684e-05
8.9485e-05
0.0586446
0.000105417
0.032245
0.0211928
5.33853e-05
8.14319e-05
5.3987e-05
8.68638e-05
6.36008e-05
0.000504494
8.47585e-05
5.74236e-05
9.72194e-05
0.000113543
5.65685e-05
8.50027e-05
7.92079e-05
6.38035e-05
5.30665e-05
0.0108799
6.41858e-05
6.03168e-05
0.000108503
0.00034146
6.48523e-05
5.42352e-05
0.000113596
9.52838e-05
0.0156292
9.77387e-05
8.44306e-05
9.36975e-05
0.000110519
9.00472e-05
7.64142e-05
7.10516e-05
6.19877e-05
5.99547e-05
5.34861e-05
6.44057e-05
9.6358e-05
0.000136496
6.20399e-05
8.52399e-05
0.000105212
5.2013e-05
6.20991e-05
6.01492e-05
0.00645701
0.000141731
8.62539e-05
8.50869e-05
0.00512642
6.4017e-05
8.27124e-05
5.13867e-05
6.45825e-05
8.90256e-05
8.45591e-05
0.000147284
5.30061e-05
7.5491e-05
0.00011269
0.000103377
0.0279877
0.000128206
8.80491e-05
5.32682e-05
6.04076e-05
0.00015548
8.17482e-05
0.00311025
8.22574e-05
5.2999e-05
7.69382e-05
8.24368e-05
5.24763e-05
5.32487e-05
5.31004e-05
8.20068e-05
9.88016e-05
7.66277e-05
8.7003e-05
9.14852e-05
6.18956e-05
7.53527e-05
8.47581e-05
5.28379e-05
5.27347e-05
6.41202e-05
8.03203e-05
7.89713e-05
8.47182e-05
8.19894e-05
0.0272152
0.00450796
7.70568e-05
8.58243e-05
7.67266e-05
8.18278e-05
9.36187e-05
6.00617e-05
9.10519e-05
0.00993014
7.91847e-05
7.13259e-05
0.00494788
5.07407e-05
8.6711e-05
7.1214e-05
9.13976e-05
7.1117e-05
5.2584e-05
4.45232e-05
7.20724e-05
8.68408e-05
8.98586e-05
0.000104231
8.81272e-05
0.000105061
0.00563905
5.65167e-05
5.57923e-05
0.0105166
7.40026e-05
6.40825e-05
8.48495e-05
6.46618e-05
5.70046e-05
0.000282461
6.74528e-05
7.58277e-05
0.0024796
0.000561051
0.015567
8.81043e-05
0.0176837
9.03604e-05
6.73892e-05
8.18666e-05
7.69681e-05
7.53995e-05
8.57556e-05
7.7679e-05
8.47233e-05
7.98036e-05
0.00837007
0.000136609
0.000239943
5.657e-05
0.0361218
7.61681e-05
7.59798e-05
0.0158381
7.64452e-05
8.03349e-05
5.44472e-05
8.26635e-05
8.17306e-05
0.0387219
0.000439487
0.000131409
0.000119057
8.18282e-05
0.0177721
8.54911e-05
0.00347163
8.49604e-05
7.66156e-05
0.000225179
0.0173552
8.40623e-05
8.96919e-05
8.18628e-05
0.037566
6.3694e-05
8.99938e-05
4.62741e-05
6.84344e-05
0.00015588
6.77814e-05
0.00458233
0.0360897
8.23082e-05
8.24785e-05
8.59859e-05
6.89497e-05
0.000187324
0.0307655
5.74759e-05
6.43681e-05
0.000179559
0.00235905
9.2791e-05
4.45001e-05
0.00593813
7.85993e-05
8.66933e-05
8.04767e-05
0.000112791
0.000114573
0.000104985
7.58573e-05
5.37112e-05
8.92202e-05
0.00565584
0.000207717
0.000124236
0.00011376
0.000122919
8.99929e-05
4.4621e-05
8.82223e-05
6.52394e-05
9.52544e-05
9.15735e-05
6.30875e-05
5.33852e-05
7.1135e-05
8.16167e-05
8.46024e-05
9.14541e-05
6.67219e-05
7.94023e-05
0.0359412
6.49847e-05
8.16427e-05
0.0203895
9.31169e-05
0.000179723
0.00134424
0.000118972
0.00253159
0.00628016
0.00227379
0.0186533
6.30556e-05
6.81865e-05
0.0102928
7.282e-05
8.18034e-05
0.0171672
8.56896e-05
5.10821e-05
6.74061e-05
4.91684e-05
5.33635e-05
6.2035e-05
7.27404e-05
8.16298e-05
0.000122705
0.00618109
6.52251e-05
5.54619e-05
8.20915e-05
0.00738223
8.1818e-05
8.01468e-05
0.0495854
8.03805e-05
8.11049e-05
7.80193e-05
0.00951639
6.81164e-05
7.92493e-05
0.000117752
8.21279e-05
8.8137e-05
8.46345e-05
5.2838e-05
8.81525e-05
9.00673e-05
0.000102407
5.57372e-05
6.65294e-05
8.17586e-05
0.00456217
0.00012311
8.14463e-05
9.9043e-05
8.55573e-05
9.28495e-05
5.56301e-05
8.25784e-05
8.68475e-05
9.1936e-05
6.94212e-05
0.000113247
8.9936e-05
4.20803e-05
7.99131e-05
6.55333e-05
0.000103727
8.73228e-05
8.93367e-05
6.17667e-05
5.11137e-05
0.00236041
6.31128e-05
6.35014e-05
8.97287e-05
8.15543e-05
6.34211e-05
8.73715e-05
5.09539e-05
7.17735e-05
8.21631e-05
7.40547e-05
8.56046e-05
0.00574557
6.22824e-05
8.86619e-05
8.23557e-05
8.01375e-05
7.78452e-05
8.74074e-05
7.75145e-05
8.16098e-05
0.000171915
8.14315e-05
0.00641411
9.9928e-05
8.09012e-05
5.68407e-05
4.91953e-05
8.73102e-05
9.3412e-05
7.43012e-05
0.00425355
8.57014e-05
6.215e-05
0.000968303
8.43891e-05
7.61165e-05
8.573e-05
9.05925e-05
0.000127286
8.84363e-05
7.53559e-05
8.65408e-05
8.08747e-05
4.75657e-05
9.62317e-05
7.1698e-05
0.000417275
6.05634e-05
0.0273098
0.00023691
0.000672081
8.93894e-05
8.69092e-05
9.09026e-05
7.56623e-05
0.0042962
7.3732e-05
9.02097e-05
8.04322e-05
8.46652e-05
8.89259e-05
6.72441e-05
8.63685e-05
0.000383243
0.000183224
6.73334e-05
0.000213852
6.37434e-05
0.00118195
0.00540758
0.000146182
5.33727e-05
7.96621e-05
0.000200163
8.05163e-05
5.02744e-05
0.0258318
8.4522e-05
8.13328e-05
6.23851e-05
8.44042e-05
7.51101e-05
0.00013559
5.90979e-05
5.95536e-05
0.000462044
6.12332e-05
7.52914e-05
8.81009e-05
8.00614e-05
0.000203514
6.21678e-05
8.4836e-05
7.53228e-05
9.85896e-05
0.0279148
8.0987e-05
5.01627e-05
6.35111e-05
9.01412e-05
8.46844e-05
6.02251e-05
6.02231e-05
0.000154477
7.67225e-05
8.67388e-05
8.98958e-05
4.99219e-05
8.52196e-05
6.24341e-05
5.00317e-05
6.0226e-05
0.00826176
6.30622e-05
8.89275e-05
0.0288911
0.0104952
0.0494653
5.97663e-05
6.65211e-05
6.85705e-05
8.06683e-05
0.00629569
4.97913e-05
6.05658e-05
0.000202035
6.36305e-05
5.08329e-05
6.30862e-05
4.7308e-05
6.33186e-05
0.035701
6.39813e-05
8.00509e-05
8.95076e-05
8.02513e-05
8.61044e-05
0.0056763
5.16412e-05
0.0226103
7.50345e-05
6.84899e-05
0.00624498
6.13548e-05
0.000325521
6.4584e-05
0.0057632
7.75891e-05
8.93114e-05
8.10669e-05
6.88651e-05
0.00230329
4.48589e-05
6.47911e-05
6.88202e-05
0.0001333
8.15988e-05
0.000108849
0.000115848
7.69533e-05
7.61602e-05
0.000189558
9.00721e-05
0.00777519
5.89831e-05
0.000139938
5.50537e-05
0.000124915
9.51772e-05
0.011558
7.21559e-05
0.000101899
5.50818e-05
8.19682e-05
4.43682e-05
0.000190751
8.51516e-05
0.0011308
4.76967e-05
0.000479581
5.50017e-05
6.17141e-05
7.45719e-05
8.18421e-05
8.88551e-05
6.42009e-05
0.00163544
9.46867e-05
0.00436751
6.17056e-05
0.000174068
5.96833e-05
7.51162e-05
7.37959e-05
4.7891e-05
7.74432e-05
8.54013e-05
6.19124e-05
0.00997783
0.000101243
0.00467189
7.67073e-05
6.27599e-05
7.91616e-05
0.00510447
5.21511e-05
0.00506959
8.89542e-05
4.43642e-05
5.17894e-05
5.55121e-05
7.46733e-05
6.26692e-05
8.18285e-05
9.2986e-05
7.92168e-05
6.18556e-05
0.00311249
8.50541e-05
6.86833e-05
0.000657555
0.000100333
7.54713e-05
0.000211142
0.000116307
8.93552e-05
5.126e-05
0.00143939
7.13534e-05
4.90162e-05
8.14857e-05
0.00331385
5.54881e-05
0.0088786
6.42319e-05
8.75859e-05
0.00625176
0.000179743
4.59333e-05
0.0516277
5.34199e-05
7.56752e-05
8.59934e-05
7.97816e-05
0.00011389
8.614e-05
0.00250669
0.0358185
7.54708e-05
0.000127969
0.000232559
0.000152575
7.8234e-05
5.14062e-05
0.00468687
8.42787e-05
8.0201e-05
8.86945e-05
0.00858156
5.3828e-05
5.96659e-05
7.49513e-05
8.37268e-05
8.79071e-05
8.75495e-05
8.75981e-05
7.70012e-05
8.05832e-05
8.02292e-05
6.0742e-05
0.000133217
6.38714e-05
7.75546e-05
7.92634e-05
6.34102e-05
8.29911e-05
8.51591e-05
8.71413e-05
4.87842e-05
4.88874e-05
0.000323199
4.88218e-05
8.00126e-05
7.50527e-05
4.86345e-05
4.42937e-05
7.07655e-05
0.000603284
0.00542253
6.83268e-05
7.06741e-05
7.5876e-05
8.70771e-05
8.16176e-05
8.54365e-05
8.87908e-05
6.66841e-05
6.68604e-05
6.72101e-05
8.10347e-05
5.67534e-05
8.587e-05
0.00353092
8.39584e-05
8.41889e-05
8.21908e-05
4.95709e-05
7.56233e-05
7.88944e-05
9.15327e-05
7.4934e-05
6.49552e-05
0.000108372
0.00578703
7.60554e-05
0.00785225
8.12665e-05
7.58085e-05
0.000111969
0.0115955
0.000107438
5.67174e-05
0.00820191
8.04095e-05
6.67227e-05
7.66862e-05
0.0115495
6.67395e-05
8.90797e-05
7.05236e-05
9.00415e-05
8.30859e-05
7.88745e-05
9.01969e-05
8.80887e-05
5.56789e-05
0.000673164
7.47204e-05
4.75706e-05
8.88551e-05
7.47884e-05
4.43056e-05
7.48573e-05
0.0001979
7.43409e-05
9.00633e-05
6.90448e-05
7.42004e-05
9.54871e-05
7.13168e-05
5.08641e-05
6.98215e-05
0.00302383
9.37159e-05
7.54755e-05
8.63979e-05
8.46054e-05
7.14363e-05
8.16637e-05
7.73663e-05
0.00011617
0.00592772
6.3279e-05
5.1546e-05
6.66675e-05
0.000153408
5.47529e-05
5.47495e-05
6.47519e-05
0.00418511
0.015082
0.0522631
0.000111336
4.94669e-05
8.4943e-05
0.000111522
4.86769e-05
9.29135e-05
8.88883e-05
0.000106105
0.00571761
7.46204e-05
0.00011616
0.000103247
6.31742e-05
8.64968e-05
8.90551e-05
7.58579e-05
9.0277e-05
9.03903e-05
6.47538e-05
7.88637e-05
7.94376e-05
5.09883e-05
0.00010414
0.000108082
7.47355e-05
0.00533989
7.795e-05
0.00503205
7.15342e-05
0.000853917
0.00508592
5.17889e-05
9.27729e-05
9.14514e-05
6.66656e-05
0.0183716
9.00153e-05
8.48793e-05
0.00457279
8.93114e-05
4.43894e-05
4.67659e-05
7.62009e-05
0.000104651
0.000163123
5.9975e-05
4.66593e-05
9.26589e-05
8.56973e-05
7.0877e-05
9.27076e-05
7.9561e-05
7.09068e-05
9.01569e-05
8.90542e-05
9.34895e-05
6.11714e-05
5.1212e-05
0.0312638
0.0117338
0.000104557
0.000314646
6.96087e-05
0.00847255
6.8524e-05
0.0352586
8.63608e-05
6.05656e-05
9.83034e-05
0.000107198
0.000108659
6.32401e-05
6.32326e-05
4.45759e-05
0.000200681
7.07641e-05
0.000225793
8.59027e-05
0.000111936
0.0012074
5.97656e-05
8.69632e-05
0.00228438
6.42071e-05
0.000149423
7.58589e-05
6.5432e-05
8.99473e-05
7.50306e-05
8.3412e-05
8.52661e-05
7.4902e-05
8.0709e-05
8.05424e-05
6.13848e-05
6.60327e-05
6.07522e-05
8.49429e-05
6.32949e-05
0.00120677
8.43407e-05
6.78958e-05
6.30992e-05
0.000130717
8.57422e-05
6.92098e-05
8.91725e-05
0.0443337
5.81619e-05
8.20881e-05
0.0391245
0.000102334
0.00201759
5.37496e-05
0.000250076
8.48012e-05
6.58639e-05
5.72316e-05
6.28572e-05
7.5112e-05
0.0110615
5.36793e-05
8.71179e-05
0.00131021
9.52474e-05
8.31239e-05
8.89421e-05
6.60381e-05
9.92343e-05
6.82967e-05
9.16019e-05
8.57603e-05
0.00473063
8.10273e-05
0.00430028
6.42785e-05
0.00100948
6.54595e-05
6.85095e-05
5.43113e-05
7.46059e-05
4.95558e-05
0.000127497
0.000106476
8.68654e-05
6.81284e-05
6.50331e-05
8.72315e-05
6.77242e-05
0.00715291
0.00013933
5.65581e-05
5.22769e-05
0.000129991
6.12087e-05
9.3027e-05
8.93693e-05
6.96372e-05
6.97519e-05
5.23157e-05
8.90954e-05
6.13174e-05
7.84336e-05
8.93474e-05
8.42677e-05
9.5859e-05
4.9409e-05
5.12232e-05
7.7596e-05
8.19386e-05
0.000218663
0.00148637
8.51061e-05
5.97628e-05
6.59327e-05
8.87944e-05
8.58016e-05
6.973e-05
8.19072e-05
7.57035e-05
8.68028e-05
6.6208e-05
4.33001e-05
4.09187e-05
6.38671e-05
7.49089e-05
4.44794e-05
0.023553
0.000117659
8.4442e-05
0.000458632
8.00874e-05
0.00160574
8.46482e-05
5.23476e-05
8.45164e-05
8.44124e-05
7.90367e-05
0.000108737
8.92765e-05
7.12975e-05
6.21835e-05
0.000130995
0.0183694
5.19741e-05
7.75544e-05
8.87967e-05
8.60359e-05
6.64642e-05
0.0134218
8.46422e-05
8.72485e-05
7.555e-05
7.52936e-05
7.73962e-05
7.15886e-05
7.15479e-05
5.96954e-05
8.45429e-05
8.08381e-05
7.3946e-05
8.54697e-05
6.93766e-05
8.98786e-05
0.000207808
9.45417e-05
7.27903e-05
5.10513e-05
0.000603356
7.77675e-05
9.25114e-05
8.55723e-05
8.4194e-05
5.20964e-05
8.72499e-05
0.000660627
0.0360325
0.0186234
0.0356121
8.04045e-05
0.00467208
8.69876e-05
6.1054e-05
8.89565e-05
0.00917659
8.04525e-05
0.000111926
0.00010909
0.0027788
8.61761e-05
4.46309e-05
0.00570756
8.52079e-05
7.11115e-05
0.00837206
0.000286534
0.00804504
8.48757e-05
0.00130867
8.10467e-05
0.000143756
7.64925e-05
0.000119016
8.42425e-05
7.04647e-05
8.96751e-05
8.64108e-05
0.00089518
8.11685e-05
0.0352307
8.55381e-05
8.17277e-05
8.91728e-05
9.7145e-05
5.26749e-05
7.71561e-05
6.6402e-05
0.000119046
4.44325e-05
0.000122468
0.0193838
0.0478672
0.000971521
8.57615e-05
0.000700076
8.08298e-05
0.00609536
5.25751e-05
8.7728e-05
0.000119284
8.06571e-05
7.0682e-05
7.68341e-05
6.26127e-05
8.9381e-05
8.76823e-05
6.04899e-05
5.69093e-05
8.16172e-05
4.96738e-05
5.23305e-05
5.21233e-05
0.000436658
0.000712307
9.78645e-05
6.28082e-05
0.000136857
8.76179e-05
8.66093e-05
7.5236e-05
0.043704
8.2145e-05
6.4521e-05
7.60775e-05
0.0122551
7.73226e-05
0.0184271
9.65275e-05
8.4544e-05
0.018675
9.1383e-05
9.02159e-05
5.19204e-05
5.21592e-05
6.6259e-05
9.02182e-05
8.58923e-05
0.000132855
7.91541e-05
6.09181e-05
8.32321e-05
5.03882e-05
0.000108673
8.03406e-05
0.000704773
8.58992e-05
8.51667e-05
8.94495e-05
5.18564e-05
9.31916e-05
6.47565e-05
0.00328072
8.56086e-05
8.55996e-05
7.67516e-05
6.72919e-05
9.02372e-05
8.58308e-05
7.06503e-05
8.40296e-05
5.17211e-05
5.18459e-05
8.54033e-05
8.36166e-05
0.0173311
7.44896e-05
8.09612e-05
6.17105e-05
0.00013234
0.000133632
5.22858e-05
8.12619e-05
8.77779e-05
5.07648e-05
0.0020048
8.2575e-05
4.47264e-05
0.000103024
0.000114927
6.34112e-05
7.20487e-05
6.78247e-05
0.0180477
4.44212e-05
7.47629e-05
6.1462e-05
8.99018e-05
7.61626e-05
0.0064551
8.16845e-05
8.95673e-05
7.48941e-05
5.43536e-05
5.71292e-05
8.1732e-05
7.94382e-05
6.37897e-05
6.53353e-05
8.00298e-05
8.14472e-05
8.31793e-05
9.21141e-05
0.000101852
7.1614e-05
0.0246397
7.62415e-05
8.71649e-05
0.022661
4.91386e-05
8.07301e-05
0.00634965
7.18832e-05
5.43121e-05
8.88932e-05
8.96773e-05
9.54892e-05
4.73629e-05
7.589e-05
7.15011e-05
0.0502277
9.27736e-05
7.17204e-05
0.000235208
8.77145e-05
9.15011e-05
0.0104613
8.77993e-05
0.0489717
5.11716e-05
8.89088e-05
0.000112596
8.91593e-05
7.78742e-05
0.000704359
9.60981e-05
0.00142995
8.0716e-05
8.40892e-05
6.9719e-05
8.54028e-05
8.84035e-05
7.84078e-05
4.45537e-05
6.03994e-05
8.06304e-05
6.17037e-05
5.36378e-05
6.45062e-05
8.30964e-05
7.46224e-05
6.00982e-05
6.18751e-05
0.00499188
5.03371e-05
6.52438e-05
8.12268e-05
8.76298e-05
0.000101703
8.18252e-05
0.000101811
6.28187e-05
0.00516712
8.92832e-05
5.74702e-05
0.000104847
8.39111e-05
8.90117e-05
4.76758e-05
0.000101717
8.91818e-05
0.00627233
8.04674e-05
9.12414e-05
4.75908e-05
5.55676e-05
8.57327e-05
4.95112e-05
5.36611e-05
4.47739e-05
6.22381e-05
0.000126294
6.12953e-05
6.98823e-05
5.71152e-05
6.71597e-05
5.33203e-05
7.41681e-05
7.04436e-05
9.40333e-05
0.00155661
0.0001059
7.02464e-05
0.0073737
8.6584e-05
5.52978e-05
5.08141e-05
5.6221e-05
8.36863e-05
6.35222e-05
9.41615e-05
4.50096e-05
9.1641e-05
7.51452e-05
7.52542e-05
5.04545e-05
6.26271e-05
8.17744e-05
9.07594e-05
8.69177e-05
8.95955e-05
0.000108955
7.55379e-05
0.0160665
0.00044132
0.0293262
4.44656e-05
7.02148e-05
8.63321e-05
8.57738e-05
8.86946e-05
8.35981e-05
0.000106078
7.8512e-05
8.50178e-05
9.08149e-05
5.15455e-05
0.0172505
5.49477e-05
0.00575323
8.17358e-05
5.48711e-05
8.85895e-05
6.38963e-05
6.27194e-05
5.34611e-05
0.00205464
5.03926e-05
5.95952e-05
9.21251e-05
0.000137679
6.07736e-05
7.52423e-05
7.86415e-05
6.01662e-05
7.78126e-05
7.03558e-05
8.5907e-05
6.08952e-05
4.97928e-05
6.14903e-05
0.000101171
7.91041e-05
8.43065e-05
6.54278e-05
0.000100831
8.58903e-05
6.77566e-05
0.000622343
0.00350229
8.95747e-05
9.04411e-05
5.36279e-05
0.0110764
5.14182e-05
9.59281e-05
8.41824e-05
7.10098e-05
8.42622e-05
9.34638e-05
7.07368e-05
6.38202e-05
5.22146e-05
5.11711e-05
6.71391e-05
9.78205e-05
9.12445e-05
0.000142234
0.000200236
0.000296708
4.91942e-05
6.33209e-05
0.00114059
0.000152845
8.81381e-05
4.98447e-05
0.00672624
0.00409325
4.43229e-05
9.12221e-05
7.53534e-05
0.000909256
5.5335e-05
5.23682e-05
7.06085e-05
9.65069e-05
8.60044e-05
5.2977e-05
5.47919e-05
7.33181e-05
0.000181517
8.95325e-05
6.12518e-05
6.86497e-05
9.00784e-05
0.000116313
0.000181554
8.58066e-05
9.90941e-05
7.85386e-05
7.61603e-05
0.00574387
0.000202493
8.65623e-05
9.4276e-05
0.000111208
8.06853e-05
6.22349e-05
8.98324e-05
4.86647e-05
9.57646e-05
6.9403e-05
8.30106e-05
0.0138624
0.043049
8.6234e-05
8.40438e-05
0.00565668
5.02403e-05
7.40554e-05
7.51471e-05
0.00145542
0.000129971
0.0152487
4.84994e-05
5.12654e-05
0.0181525
4.90154e-05
5.6545e-05
7.97783e-05
4.90263e-05
4.84659e-05
6.91876e-05
4.43464e-05
0.00551055
8.72482e-05
8.6243e-05
6.28144e-05
0.000116859
8.33954e-05
4.42614e-05
5.81456e-05
8.58155e-05
8.09282e-05
5.52948e-05
8.74863e-05
4.86142e-05
9.12989e-05
4.81677e-05
8.57178e-05
4.77867e-05
4.83354e-05
5.26278e-05
0.00734464
0.00220324
7.77304e-05
8.22265e-05
7.47769e-05
8.37811e-05
9.04662e-05
4.84474e-05
0.000102785
8.78095e-05
0.00778624
0.0348755
4.73111e-05
7.32711e-05
9.26756e-05
0.000100959
6.24385e-05
8.57287e-05
4.82917e-05
0.0492792
9.65428e-05
4.89618e-05
4.81287e-05
8.82757e-05
0.000146713
8.59779e-05
5.93984e-05
4.78141e-05
5.52644e-05
7.95634e-05
9.26971e-05
6.2887e-05
9.17941e-05
0.0103318
7.11852e-05
9.1338e-05
5.28228e-05
5.06166e-05
4.42743e-05
7.75849e-05
0.00238608
9.01942e-05
5.19556e-05
9.94759e-05
0.000175567
7.86805e-05
0.00017618
0.000133692
7.51858e-05
5.32027e-05
6.25201e-05
0.0430402
7.81027e-05
8.54407e-05
8.30523e-05
0.027621
0.015884
8.07428e-05
0.0354225
0.000144259
0.000108279
8.88446e-05
7.70747e-05
7.58142e-05
6.14238e-05
6.28584e-05
9.24779e-05
0.000481242
5.19157e-05
6.05796e-05
4.9412e-05
9.4905e-05
7.6588e-05
0.0110896
5.29749e-05
8.14863e-05
8.84081e-05
0.0179807
8.71356e-05
0.00446313
0.00114216
7.66961e-05
6.30782e-05
6.97268e-05
8.9685e-05
6.95474e-05
9.57943e-05
5.41607e-05
0.000125628
5.58655e-05
7.86296e-05
8.69031e-05
8.60202e-05
8.89159e-05
5.24351e-05
7.5489e-05
0.000109338
0.000254153
8.72384e-05
0.000138472
4.42641e-05
9.07975e-05
7.09105e-05
0.0211491
7.00593e-05
7.60676e-05
0.000259017
5.40638e-05
7.4228e-05
6.33065e-05
8.2807e-05
6.09902e-05
7.79631e-05
5.94574e-05
5.09121e-05
5.99468e-05
0.0170224
5.36175e-05
0.027231
0.0113036
5.99082e-05
6.08419e-05
0.000106276
4.44028e-05
9.39891e-05
9.72838e-05
8.56125e-05
8.0443e-05
5.75559e-05
6.97766e-05
6.09182e-05
6.03748e-05
8.1895e-05
6.77258e-05
5.9709e-05
8.58415e-05
7.82293e-05
8.08968e-05
0.000127232
8.04855e-05
7.14661e-05
8.7267e-05
8.85398e-05
9.48285e-05
9.24519e-05
7.94814e-05
6.06391e-05
0.0277615
0.000129225
0.00800859
5.73875e-05
9.618e-05
5.21521e-05
4.44776e-05
6.20727e-05
7.56966e-05
7.20088e-05
4.80005e-05
0.000211449
5.73644e-05
7.49987e-05
0.00357451
7.73382e-05
8.25723e-05
6.01743e-05
6.94637e-05
6.06183e-05
5.08263e-05
0.0290974
0.00564772
6.05839e-05
9.0207e-05
9.02953e-05
0.0133849
8.16393e-05
8.07205e-05
8.96869e-05
0.000105243
0.0340806
9.08057e-05
7.11043e-05
0.00011107
5.2336e-05
7.38676e-05
0.00141844
0.0170686
0.0357499
5.27471e-05
8.82161e-05
0.0152781
5.136e-05
0.0145291
6.16879e-05
7.17684e-05
7.06835e-05
6.21395e-05
5.85019e-05
7.17823e-05
0.000148139
0.0163816
8.63939e-05
0.0016244
7.98586e-05
6.06912e-05
0.000100688
0.0176035
8.84796e-05
8.37744e-05
6.80105e-05
5.29501e-05
0.000162919
0.00207125
9.03695e-05
0.000126239
6.07951e-05
7.41299e-05
0.000302727
8.24707e-05
0.000106341
0.00119554
0.00221604
0.00125991
8.27296e-05
4.93249e-05
6.94823e-05
5.21732e-05
7.43412e-05
3.86858e-05
8.1556e-05
0.000162957
8.41862e-05
4.74573e-05
6.19172e-05
0.000249619
6.09377e-05
8.79649e-05
7.66221e-05
8.69047e-05
6.86231e-05
0.0549197
0.0117824
0.000111485
6.34548e-05
4.9296e-05
5.85316e-05
5.98691e-05
6.23459e-05
6.2357e-05
0.000152629
0.000168903
5.20461e-05
7.00058e-05
6.79005e-05
0.0184443
8.47943e-05
0.000101562
8.65339e-05
9.01991e-05
4.85814e-05
8.40535e-05
6.34044e-05
9.0563e-05
8.77112e-05
4.80143e-05
6.17158e-05
5.79482e-05
8.26111e-05
8.96974e-05
5.3553e-05
0.0528022
7.89712e-05
4.84296e-05
6.93972e-05
7.37121e-05
9.56643e-05
7.44588e-05
9.23277e-05
8.55625e-05
9.80386e-05
8.91652e-05
7.66919e-05
0.00547299
6.15929e-05
0.000618286
0.0174163
5.16209e-05
0.000152972
7.75459e-05
8.94144e-05
0.0146668
6.77428e-05
8.40472e-05
8.4673e-05
0.000127813
0.00261026
6.42942e-05
5.26786e-05
9.8815e-05
7.19508e-05
6.4972e-05
7.01839e-05
0.000139789
5.71199e-05
8.44015e-05
8.00774e-05
5.17662e-05
8.43998e-05
0.0106534
7.34641e-05
6.80631e-05
0.00522931
0.000108689
7.04722e-05
0.000111386
5.10116e-05
9.16247e-05
7.22828e-05
8.58002e-05
5.76177e-05
0.0376241
0.000112146
5.9338e-05
0.0503502
8.79853e-05
0.000916582
8.8719e-05
7.54525e-05
0.000107219
4.13039e-05
0.000221276
0.0182788
0.0170747
0.000121752
5.83447e-05
8.19512e-05
8.80564e-05
5.4633e-05
9.11619e-05
0.000638401
0.000162894
0.000752456
0.00151385
7.84242e-05
0.000103423
7.54714e-05
7.03639e-05
7.40967e-05
5.82582e-05
0.00010712
7.20862e-05
9.98987e-05
7.50782e-05
9.64143e-05
9.23003e-05
7.95269e-05
6.49796e-05
5.00467e-05
8.58914e-05
8.20312e-05
5.7953e-05
0.00740251
5.4473e-05
0.0400283
5.95885e-05
6.05532e-05
6.75429e-05
5.0567e-05
7.0942e-05
4.98087e-05
0.000124582
0.00364968
8.80105e-05
6.55251e-05
6.92721e-05
0.00153915
5.3273e-05
7.25855e-05
9.23645e-05
8.43149e-05
4.98925e-05
7.11724e-05
6.00527e-05
8.60044e-05
8.8321e-05
7.96718e-05
9.75475e-05
8.89622e-05
0.00534257
7.59947e-05
5.35438e-05
8.09995e-05
0.0100325
5.35996e-05
6.26397e-05
6.53252e-05
4.76238e-05
5.16056e-05
8.54512e-05
0.000106888
9.40423e-05
9.6057e-05
6.81574e-05
0.0133341
6.4639e-05
5.79597e-05
0.00116793
7.52163e-05
9.14137e-05
8.38168e-05
5.354e-05
0.000351698
0.0102985
8.59332e-05
6.44106e-05
6.50106e-05
0.000319723
4.42671e-05
8.14329e-05
5.72884e-05
8.9973e-05
8.29021e-05
8.86996e-05
7.76889e-05
8.35277e-05
9.10176e-05
8.43617e-05
8.19959e-05
8.77492e-05
0.000124997
6.33449e-05
8.42706e-05
7.61898e-05
0.000115204
8.16757e-05
0.00386274
8.54793e-05
0.00762292
7.99894e-05
5.80411e-05
0.00052507
8.65027e-05
0.00489526
6.03181e-05
9.26689e-05
0.00033301
6.12656e-05
6.10567e-05
0.0354885
0.00999631
8.99216e-05
8.24945e-05
0.000125418
0.000604547
4.52279e-05
6.81051e-05
8.00073e-05
8.37257e-05
7.36436e-05
6.10794e-05
5.11859e-05
5.55474e-05
6.50535e-05
0.00507243
0.0296764
7.4008e-05
0.00618477
6.05199e-05
6.0905e-05
7.77384e-05
7.32099e-05
9.01626e-05
9.09388e-05
8.19749e-05
4.9649e-05
0.000745154
0.0446135
6.86977e-05
7.02565e-05
8.97047e-05
7.66259e-05
0.000115901
4.94215e-05
8.32119e-05
0.00116945
0.0442811
0.000153193
8.85751e-05
6.6885e-05
8.41894e-05
9.74524e-05
8.13525e-05
7.50309e-05
0.000148448
5.99862e-05
0.000386818
7.96302e-05
0.0066159
0.000100378
7.42424e-05
0.00748985
4.92856e-05
8.59734e-05
7.50725e-05
8.22684e-05
6.09423e-05
8.48238e-05
0.000106259
8.85254e-05
6.83836e-05
0.00334855
0.0228508
7.8055e-05
4.74398e-05
8.42843e-05
9.80613e-05
8.73348e-05
0.00199207
0.000102454
9.07667e-05
0.000103271
0.00268406
8.56764e-05
8.8194e-05
0.00586201
7.56374e-05
7.1297e-05
8.21278e-05
6.35203e-05
0.00475538
8.41896e-05
6.63618e-05
7.43969e-05
2.77327e-05
7.35258e-05
6.9954e-05
7.61318e-05
7.72271e-05
7.85567e-05
0.000100966
9.67872e-05
4.90931e-05
0.000103581
9.63615e-05
8.59368e-05
8.42925e-05
5.37429e-05
7.92193e-05
6.79319e-05
0.000165782
5.93546e-05
4.51302e-05
8.92192e-05
0.000661624
8.565e-05
0.000229055
0.00137273
8.54361e-05
4.92298e-05
4.44601e-05
3.22446e-05
6.4726e-05
0.00681807
4.84861e-05
9.55636e-05
5.57028e-05
0.00763809
0.000187989
7.92845e-05
8.27685e-05
7.39594e-05
8.86172e-05
8.35376e-05
5.56497e-05
0.0469418
4.7921e-05
7.56068e-05
5.8002e-05
8.75234e-05
7.54712e-05
6.1122e-05
7.97165e-05
9.64148e-05
6.77059e-05
7.93525e-05
7.89634e-05
9.01303e-05
8.99203e-05
6.31304e-05
4.77614e-05
8.47035e-05
7.34546e-05
0.0349942
8.75161e-05
8.87404e-05
7.47953e-05
5.83039e-05
5.01928e-05
0.000100684
6.30794e-05
5.73152e-05
8.24753e-05
4.92453e-05
6.97354e-05
7.54174e-05
6.9484e-05
0.000821763
0.00024744
6.97251e-05
0.00385016
4.90708e-05
6.57201e-05
7.51008e-05
0.000690696
8.39604e-05
7.44233e-05
9.66885e-05
8.86263e-05
5.77334e-05
0.00010247
6.1397e-05
6.39761e-05
0.000250787
7.97694e-05
8.05615e-05
0.00077891
0.000129107
8.56509e-05
5.80103e-05
0.000133385
2.0778e-05
0.00010899
8.32537e-05
0.00465462
5.14515e-05
9.31833e-05
9.0109e-05
4.43127e-05
5.69597e-05
7.20235e-05
6.75395e-05
7.32653e-05
9.03906e-05
0.00184065
0.00622161
8.86893e-05
9.41102e-05
0.0316478
8.42041e-05
5.0049e-05
5.45643e-05
0.0219013
5.92525e-05
0.000168296
0.000111496
5.76596e-05
0.000283383
0.056993
8.6017e-05
5.15305e-05
5.15936e-05
5.82363e-05
7.16821e-05
5.85914e-05
3.2584e-05
8.35307e-05
0.000568387
7.4519e-05
0.000118759
0.00131919
0.0447301
7.02568e-05
4.81138e-05
8.62746e-05
8.24117e-05
7.26111e-05
0.0567257
7.01273e-05
9.36994e-05
5.73701e-05
9.41326e-05
8.46822e-05
7.8619e-05
7.90241e-05
8.8922e-05
6.19686e-05
6.04225e-05
8.43102e-05
8.1504e-05
7.14539e-05
9.04224e-05
9.09516e-05
5.79063e-05
5.26041e-05
0.000106555
9.75967e-05
0.0500901
6.91953e-05
6.02033e-05
5.0186e-05
5.25392e-05
5.26515e-05
8.20526e-05
9.17184e-05
7.18336e-05
5.06812e-05
7.47899e-05
5.8804e-05
8.42659e-05
9.46232e-05
7.34274e-05
4.9176e-05
8.88493e-05
5.22416e-05
0.000107576
5.08325e-05
7.70052e-05
7.31964e-05
7.96172e-05
0.000125724
6.7794e-05
0.000709629
5.20538e-05
8.06608e-05
8.98878e-05
0.0039167
5.08917e-05
7.00593e-05
0.00012316
5.19892e-05
6.23798e-05
9.33703e-05
7.30071e-05
5.03889e-05
0.000178396
5.743e-05
0.0102937
7.46164e-05
5.23434e-05
0.000230406
0.0044189
0.0103128
8.87022e-05
0.000160168
0.000104731
0.00018617
4.93723e-05
6.3546e-05
5.09986e-05
0.033019
0.000226705
0.0021103
0.00010132
0.00374431
6.31545e-05
0.0337689
0.00180108
0.00318618
5.51638e-05
9.2246e-05
9.18134e-05
7.3991e-05
0.000125994
5.98455e-05
8.80443e-05
7.60562e-05
7.97761e-05
8.91733e-05
8.14541e-05
0.000137353
0.0219365
8.89214e-05
6.33445e-05
8.34788e-05
0.0382945
7.14188e-05
9.09258e-05
5.01359e-05
6.29345e-05
8.32911e-05
0.00184939
9.96467e-05
0.000144012
0.0120954
7.36744e-05
0.00020563
5.47017e-05
5.97259e-05
5.12278e-05
8.99757e-05
8.80005e-05
8.70466e-05
0.00755808
5.97811e-05
5.30963e-05
8.52575e-05
7.26716e-05
9.04176e-05
0.0181945
9.00945e-05
5.95781e-05
7.94573e-05
7.63437e-05
6.8786e-05
0.000259362
8.02131e-05
0.00710378
6.05476e-05
5.56892e-05
8.5824e-05
0.000102599
7.63839e-05
5.95682e-05
0.020427
5.53116e-05
5.76038e-05
0.000102229
7.60116e-05
0.000132878
6.00772e-05
8.22885e-05
0.00012239
8.36922e-05
7.17253e-05
5.95564e-05
0.0070094
5.10249e-05
6.90172e-05
5.96744e-05
7.5223e-05
8.54802e-05
7.66967e-05
9.41e-05
0.000100081
0.000972814
0.0168823
0.000115674
9.13967e-05
8.02779e-05
8.93322e-05
6.25837e-05
0.000103962
0.00026701
8.41455e-05
0.000109127
0.000525337
5.84323e-05
8.05652e-05
7.78477e-05
6.96763e-05
0.00559406
6.76583e-05
5.58399e-05
0.00424519
6.19193e-05
6.94891e-05
7.08503e-05
0.00344956
0.000109672
0.000100675
4.80201e-05
7.72613e-05
8.50992e-05
0.000139616
8.8485e-05
0.00010302
8.09647e-05
6.80176e-05
0.000103044
7.75164e-05
8.82111e-05
8.85487e-05
0.000101744
9.0785e-05
5.76195e-05
8.48972e-05
0.000488403
8.8117e-05
9.53012e-05
7.97426e-05
0.000147639
8.54866e-05
7.74783e-05
4.8019e-05
9.97817e-05
3.83012e-05
6.86586e-05
7.00453e-05
8.94696e-05
7.3061e-05
8.09992e-05
9.06302e-05
0.00011533
7.98071e-05
7.96856e-05
6.06462e-05
7.26064e-05
9.6509e-05
8.50808e-05
9.88236e-05
7.09704e-05
7.1364e-05
0.0461052
7.33201e-05
9.27632e-05
7.57456e-05
0.00328138
8.95437e-05
6.22225e-05
0.0239219
0.000114944
5.75884e-05
9.39165e-05
4.80546e-05
0.035134
8.33656e-05
5.18016e-05
6.3042e-05
7.34855e-05
0.0030855
0.0280512
9.86136e-05
8.16691e-05
0.000105176
7.30571e-05
8.54908e-05
9.00477e-05
0.0207782
6.1594e-05
0.000133025
5.90295e-05
0.00726912
9.42449e-05
8.44465e-05
6.27317e-05
5.11732e-05
9.30794e-05
0.000108054
8.85462e-05
0.00106011
5.01222e-05
8.49905e-05
6.52636e-05
8.71428e-05
7.18319e-05
9.08671e-05
0.0343085
7.84028e-05
7.82609e-05
0.00507633
5.94668e-05
0.000178634
8.78984e-05
8.88809e-05
7.68356e-05
4.92832e-05
0.000879681
9.09737e-05
7.46174e-05
0.0149978
7.2708e-05
8.39199e-05
0.00010043
8.93012e-05
6.28822e-05
0.00559122
9.69516e-05
9.80468e-05
8.43546e-05
6.04844e-05
7.58779e-05
0.00573675
4.85056e-05
6.849e-05
7.37318e-05
4.13181e-05
9.15704e-05
0.0386459
7.76028e-05
5.08589e-05
9.44172e-05
6.8558e-05
0.0237708
8.73259e-05
8.65258e-05
7.77009e-05
0.000101898
0.000102923
8.64057e-05
6.77205e-05
8.97811e-05
0.00540931
7.34208e-05
5.0526e-05
8.61753e-05
6.34728e-05
8.57663e-05
0.000111443
1.45746e-05
8.34025e-05
9.37683e-05
0.000101863
5.81127e-05
9.01774e-05
0.000476061
5.27961e-05
7.71617e-05
8.76074e-05
8.13047e-05
7.92648e-05
5.29776e-05
4.8651e-05
5.29521e-05
7.37831e-05
8.91093e-05
0.0228676
9.66002e-05
9.33098e-05
7.91296e-05
8.92047e-05
5.06574e-05
7.69402e-05
6.75752e-05
0.00599634
8.97578e-05
6.18128e-05
7.65243e-05
0.0145369
6.85235e-05
7.74811e-05
8.21052e-05
8.69994e-05
9.01169e-05
6.12656e-05
6.26162e-05
8.45164e-05
0.000156688
9.35855e-05
8.7375e-05
7.29154e-05
8.23844e-05
9.5514e-05
8.98595e-05
7.00772e-05
6.79295e-05
0.0113098
7.33827e-05
5.93613e-05
5.09686e-05
8.30494e-05
8.16994e-05
0.00105723
9.02816e-05
8.97374e-05
5.77074e-05
8.37914e-05
0.000239293
0.00563516
5.07345e-05
0.00462025
6.47017e-05
7.82324e-05
6.42632e-05
8.88092e-05
8.32791e-05
8.14613e-05
7.68327e-05
0.000424411
7.22999e-05
7.76485e-05
6.14441e-05
7.41918e-05
9.3647e-05
6.96582e-05
0.00136085
0.000111998
9.13308e-05
3.2623e-05
6.42693e-05
8.41682e-05
5.29748e-05
0.000147666
8.44049e-05
8.67103e-05
0.0187616
9.30073e-05
7.35692e-05
0.00149705
4.93212e-05
0.0339071
0.0530841
0.000232987
0.000199521
8.7008e-05
0.000104488
8.39848e-05
8.37825e-05
0.000160172
9.02917e-05
8.17068e-05
8.62347e-05
7.68976e-05
0.00333772
7.61707e-05
5.30781e-05
7.28501e-05
6.09404e-05
8.27531e-05
6.49498e-05
8.52986e-05
8.51268e-05
0.00145277
4.95091e-05
9.29835e-05
7.99198e-05
9.30962e-05
8.82703e-05
7.91902e-05
9.93896e-05
6.43365e-05
6.59486e-05
0.000125941
7.72278e-05
8.88374e-05
6.10828e-05
4.91188e-05
8.71539e-05
0.000861143
6.92092e-05
8.76253e-05
6.9742e-05
8.86995e-05
8.74843e-05
0.000163622
5.71291e-05
6.44399e-05
8.28294e-05
8.41152e-05
0.00639846
0.0182218
0.0121212
7.97756e-05
9.45369e-05
7.81198e-05
7.96881e-05