/*--------------------------------*- C++ -*----------------------------------*\
| =========                 |                                                 |
| \\      /  F ield         | OpenFOAM: The Open Source CFD Toolbox           |
|  \\    /   O peration     | Version:  v2012                                 |
|   \\  /    A nd           | Website:  www.openfoam.com                      |
|    \\/     M anipulation  |                                                 |
\*---------------------------------------------------------------------------*/
FoamFile
{
    version     2.0;
    format      ascii;
    class       volScalarField;
    location    "100";
    object      nut;
}
// * * * * * * * * * * * * * * * * * * * * * * * * * * * * * * * * * * * * * //

dimensions      [0 2 -1 0 0 0 0];


internalField   nonuniform List<scalar> 
18540
(
0.000465511
0.000436751
0.000448666
0.000501983
0.000452275
0.000426742
0.00044928
0.0138542
0.000433568
0.000455345
0.000454727
0.000752838
0.000604814
0.0343878
0.000452176
0.000433487
0.00044407
0.000447558
0.000436409
0.000449109
0.000518517
0.000433313
0.000429737
0.000455248
0.00043899
0.000452432
0.000452209
0.0219523
0.000510151
0.034314
0.00908761
0.000438181
0.000449536
0.000444175
0.000452245
0.000441074
0.00113999
0.000450254
0.000436474
0.000475742
0.000519229
0.000428506
0.000449388
0.000447841
0.000439823
0.000435015
0.0221086
0.000442817
0.000439019
0.000509834
0.000884854
0.000449997
0.000438461
0.000518204
0.000483916
0.0071552
0.000477227
0.000451557
0.000466276
0.000513658
0.00045359
0.000445224
0.00044251
0.00043767
0.00043655
0.000432605
0.000442071
0.000486766
0.00080115
0.000437636
0.000448654
0.000509949
0.000420544
0.000437781
0.000438799
0.0176564
0.000587939
0.000452178
0.000448909
0.0149143
0.000439738
0.000448846
0.000435861
0.000439307
0.000454998
0.000448702
0.00060849
0.000439889
0.000445983
0.000506027
0.00054632
0.00977139
0.000565084
0.000450876
0.000432407
0.000438438
0.000620949
0.000447801
0.0134143
0.000449124
0.000432225
0.000456415
0.000449305
0.000431863
0.000432547
0.000432253
0.000449327
0.00050475
0.000449927
0.000449916
0.000460118
0.000437672
0.000445893
0.000449292
0.000432056
0.000432024
0.000439607
0.000447346
0.000447828
0.000448764
0.000447864
0.0111389
0.00309296
0.00044551
0.000454942
0.000454858
0.000449181
0.000476651
0.000436555
0.000454437
0.00553554
0.000447884
0.000442629
0.00303873
0.000430688
0.000452426
0.000445485
0.000460363
0.000442526
0.000431903
0.00042665
0.000446979
0.000449813
0.000453393
0.000514523
0.000464605
0.000513516
0.0158602
0.000435075
0.000441289
0.00489696
0.000451441
0.000439019
0.000450159
0.000439277
0.000442377
0.0362169
0.000441377
0.000444895
0.00788077
0.000888365
0.0063922
0.000465074
0.0252283
0.000474819
0.000441342
0.000452099
0.000445391
0.000444842
0.000454921
0.000463904
0.000448522
0.000451188
0.00466575
0.00038791
0.00491904
0.00044289
0.00849222
0.000450256
0.000444997
0.00622124
0.00044983
0.000447628
0.000438499
0.000449317
0.000452184
0.00892118
0.00192151
0.000695631
0.000534553
0.000456668
0.0257165
0.000450242
0.0126794
0.000451985
0.000445308
0.0046306
0.0065137
0.000448749
0.000472886
0.000448324
0.00992328
0.000439417
0.000453855
0.000429136
0.00044643
2.03194e-05
0.000451441
0.00736001
0.0331356
0.000447462
0.000449136
0.000450221
0.000442432
0.000701398
0.0118877
0.00043744
0.000443065
0.000737123
0.00833586
0.000473777
0.000427003
0.0167185
0.000456252
0.000453804
0.000447434
8.09159e-05
0.000530132
0.000505881
0.000448571
0.000443957
0.000452415
0.00407798
0.00074825
0.000562142
0.000519519
0.000545418
0.000455599
0.0004274
0.000450949
0.000444164
0.000476967
0.000456102
0.000444513
0.000432566
0.000442593
0.000471498
0.000452428
0.000455952
0.00044504
0.000447916
0.031638
0.00043956
0.000447484
0.0284396
0.000474741
0.00157844
0.00376055
0.00053168
0.00903692
0.016403
0.00632957
0.0277435
0.000440775
0.000441919
0.02085
0.000443326
0.000449415
0.00664584
0.00044937
0.000430878
0.000449251
0.000431603
0.000432557
0.000437629
0.000443238
0.000449335
0.000543559
0.0162683
0.000442998
0.000434418
0.000448459
0.00395092
0.000447429
0.000459795
0.0086476
0.000447545
0.00044887
0.000466219
0.00600402
0.00044178
0.000449922
0.000538632
0.000452568
0.000450229
0.000449229
0.000433057
0.000456997
0.000455462
0.000499135
0.000433952
0.000444949
0.000447449
0.00316042
0.000545817
0.000447298
0.000504016
0.000448813
0.000505814
0.000433959
0.000448706
0.000453882
0.00047545
0.000448136
0.000517536
0.000450741
0.000426336
0.000450871
0.000439906
0.000507498
0.000449833
0.000451983
0.000440355
0.000431013
0.00179347
0.000445428
0.000439351
0.000468798
0.000447957
0.000441011
0.000451913
0.000430864
0.000443563
0.000447543
0.000449955
0.000455163
0.0157916
0.000437844
0.00046557
0.000448563
0.000451003
0.000445771
0.000451591
0.000445675
0.000449489
0.000481732
0.000451693
0.01752
0.000495698
0.000448858
0.000443074
0.00042965
0.000455159
0.000507114
0.00045234
0.014977
0.000450146
0.000437788
0.00187165
0.000449053
0.000445467
0.000455484
0.000476613
0.000557473
0.000464488
0.000445238
0.000451004
0.000447645
0.000430571
0.000494347
0.000443518
0.00176809
0.000438647
0.0254187
0.000616311
0.00214258
0.000452535
0.000461879
0.000454217
0.000445188
0.0032152
0.000449942
0.000456518
0.000447317
0.000463406
0.000455153
0.000442239
0.000451001
0.000566365
0.000703957
0.000442182
0.00075629
0.000438875
0.00101353
0.0144699
0.000606677
0.00043245
0.000447985
0.00060827
0.000447759
0.000430354
0.0240474
0.000461515
0.000456686
0.000439669
0.000451889
0.000444747
0.00057544
0.000446355
0.000439164
0.00165579
0.000437246
0.000444871
0.000450265
0.000454423
0.000954036
0.000437777
0.000463208
0.000444957
0.000537446
0.0254317
0.00044701
0.000430289
0.000442674
0.00047607
0.00044977
0.000440524
0.000438205
0.00160256
0.000445349
0.000454188
0.000453212
0.00043015
0.000450288
0.000440416
0.000430195
0.000436707
0.0158454
0.000438952
0.00045711
0.0263184
0.0195654
0.00813749
0.000439255
0.000440107
0.000442189
0.000446918
0.0159695
0.000430059
0.000436832
0.000729272
0.000438793
0.000430742
0.000442274
0.000430558
0.00044266
0.0335383
0.000439005
0.000454663
0.000450775
0.000447201
0.0004502
0.0151866
0.000431322
0.00960996
0.000472676
0.000442047
0.0153522
0.000437302
0.00104577
0.000442227
0.0156727
0.000445601
0.0004508
0.000448324
0.000442298
0.0109615
0.000427886
0.000443644
0.000447004
0.000579273
0.000449111
0.000512862
0.000570494
0.000445443
0.000476059
0.000730392
0.000455409
0.0175276
0.000446823
0.000594372
0.000433621
0.000621505
0.000472954
0.0222704
0.000455077
0.000491574
0.000433607
0.000448114
0.000426043
0.000787793
0.000449191
0.00114172
0.000430717
0.00170267
0.00043439
0.000437538
0.000444722
0.000448023
0.000450486
0.000441852
0.00151558
0.000471629
0.0121173
0.000440309
0.000670647
0.000438912
0.000445103
0.000466403
0.000431029
0.000445684
0.000450369
0.000437655
0.00530544
0.000505968
0.0127349
0.000445688
0.000438243
0.000448308
0.0137938
0.000432809
0.0147297
0.000455269
0.000426078
0.000431475
0.000433817
0.000444949
0.000438297
0.000448536
0.000471063
0.000471076
0.000441095
0.0112903
0.00044908
0.000441286
0.000850222
0.000481145
0.000447093
0.000610306
0.000526059
0.000452227
0.000431155
0.00423071
0.000449511
0.000429475
0.00045574
0.0127748
0.000433876
0.0183401
0.000439668
0.000451595
0.0174361
0.00082061
0.000428696
0.0139591
0.000432491
0.000448451
0.000451018
0.000448135
0.000522631
0.000451037
0.00213482
0.0342037
0.000448257
0.000566834
0.00080107
0.000642405
0.000455701
0.000431155
0.0146196
0.000496823
0.000447178
0.000450427
0.00429986
0.00043686
0.000446952
0.000445089
0.000448524
0.000450909
0.000450924
0.000451695
0.000453039
0.000448314
0.000448054
0.00043693
0.000830802
0.000439416
0.00044569
0.000475639
0.000438646
0.000447981
0.000503727
0.000449699
0.000429344
0.000429444
0.00233301
0.000432422
0.000451448
0.000458036
0.000432284
0.00042595
0.000449867
0.00129156
0.0152218
0.000441188
0.000442769
0.000445158
0.000454482
0.000447872
0.000448974
0.000451937
0.000440287
0.000441989
0.000440475
0.000455912
0.000436101
0.000449483
0.00774036
0.000450069
0.000448654
0.000448761
0.000429909
0.000444754
0.000450142
0.000455696
0.000455055
0.000439559
0.00050424
0.0155953
0.000445281
0.00401529
0.000449251
0.00044484
0.000520223
0.0228143
0.000507633
0.000435098
0.00477191
0.000448071
0.000442398
0.00045261
0.022846
0.000440935
0.000454738
0.000449744
0.000453294
0.000451205
0.000452505
0.000455118
0.000451047
0.000436173
0.00308083
0.000444854
0.000430653
0.000455369
0.000445005
0.000426036
0.000455526
0.000616409
0.000444613
0.000453099
0.000441539
0.000444576
0.00047723
0.00044333
0.000430803
0.000441784
0.00814895
0.000473203
0.000449781
0.000452714
0.000451681
0.000443502
0.000418622
0.000445514
0.000526306
0.0155203
0.000438573
0.000431256
0.000440925
0.000658528
0.000433508
0.000433531
0.000439145
0.0115738
0.0059837
0.0141391
0.000520739
0.000429841
0.000449445
0.000519856
0.000431642
0.00046318
0.000455543
0.000509614
0.0158951
0.00044434
0.000525968
0.000505896
0.000438942
0.000449609
0.000451808
0.000444726
0.000465289
0.000455801
0.000439156
0.000452737
0.000450194
0.000430817
0.00050404
0.000507114
0.000444661
0.0115016
0.000445816
0.0150315
0.000442674
0.00136015
0.014702
0.000431377
0.000460246
0.00046195
0.000440308
0.00578972
0.000457546
0.000449381
0.0138574
0.000450522
0.000426481
0.000429876
0.0004448
0.00050942
0.000688282
0.000439649
0.000429548
0.000459724
0.000449375
0.000442477
0.000462683
0.00045086
0.000448985
0.000457721
0.000450453
0.000473073
0.000437091
0.000431055
0.0260912
0.022813
0.00050951
0.0323643
0.000441686
0.0043409
0.000441309
0.0304677
0.000449575
0.000436878
0.000486411
0.000486254
0.000518026
0.000440818
0.000438735
0.000426754
0.000734371
0.000442827
0.000794322
0.000456315
0.000517438
0.00117034
0.000439848
0.000449685
0.00500238
0.000440127
0.000644527
0.000445325
0.000443283
0.000475798
0.000444591
0.000450227
0.000465995
0.000445858
0.00045011
0.000446985
0.000437337
0.000439818
0.00043883
0.000451699
0.000438719
0.0109741
0.000449061
0.000442449
0.000440765
0.000957593
0.000456117
0.000441529
0.000468051
0.00720007
0.000436372
0.000447351
0.00721039
0.000502926
0.011528
0.00043408
0.000715922
0.000451942
0.000439713
0.0004359
0.000441498
0.0004459
0.00502966
0.000433978
0.000449712
0.00287576
0.000608935
0.000447829
0.00045741
0.000440067
0.000208897
0.000441224
0.000472479
0.000581075
0.0152431
0.000447206
0.011534
0.00044012
0.00108433
0.000447346
0.000441306
0.000436479
0.000461688
0.000432163
0.000607211
0.000502124
0.000462395
0.000441211
0.000442772
0.000454667
0.000442493
0.0151488
0.000596097
0.000435461
0.000432186
0.000693516
0.000439281
0.00047693
0.000459856
0.000441744
0.000442423
0.000431968
0.00045066
0.000440732
0.00044907
0.000454044
0.000461426
0.000468761
0.000429836
0.000434178
0.000445627
0.00044752
0.000675234
0.0574875
0.000449117
0.000438147
0.000440569
0.000455659
0.000453769
0.000442512
0.000454962
0.000445017
0.000453526
0.000440159
0.000437453
0.000427143
0.000439503
0.000444658
0.000426731
0.0059435
0.000842454
0.000448934
0.00108099
0.000447049
0.0185647
0.000452153
0.000431758
0.000448927
0.000451049
0.000449786
0.00051552
0.000453889
0.000444069
0.000437813
0.000573705
0.00674611
0.000431487
0.000451932
0.000455643
0.000450293
0.000440121
0.0181107
0.000449948
0.000449774
0.000444662
0.000448158
0.000445989
0.000443087
0.000443152
0.000436358
0.000452263
0.000447636
0.000459533
0.000449528
0.000441559
0.000470965
0.000751459
0.000474997
0.000448927
0.000430884
0.0014862
0.000445623
0.000458994
0.000449315
0.000448916
0.000431581
0.000456455
0.00083902
0.0331122
0.0277114
0.0094645
0.000447459
0.0142939
0.000449582
0.000437048
0.000450561
0.00456187
0.000446856
0.000513698
0.000512847
0.00791867
0.000450927
0.000426746
0.0175879
0.000448862
0.000444061
0.0122041
0.00131828
0.00466485
0.000449925
0.00160663
0.000447176
0.000601788
0.000445658
0.000534772
0.000450828
0.00044229
0.000474987
0.000452597
0.00107523
0.000447079
0.0305026
0.000449043
0.000454716
0.000466853
0.000475958
0.000433033
0.000445338
0.000440214
0.000533998
0.000426241
0.000543155
0.0279117
0.0109594
0.0030629
0.000454199
0.00206224
0.000451484
0.0162969
0.000435398
0.000462815
0.000535118
0.000446973
0.000442373
0.000446045
0.000443799
0.000450668
0.000450948
0.000436817
0.000436771
0.0004478
0.000429984
0.000435252
0.000434505
0.000769115
0.00142486
0.000486402
0.000438328
0.000583665
0.00045547
0.000453299
0.000444526
0.00681243
0.000448384
0.000440636
0.000445077
0.00575852
0.000445334
0.00679908
0.000474204
0.00045107
0.0181887
0.000456264
0.000453147
0.000432839
0.000431645
0.000440214
0.000456246
0.000454184
0.000572541
0.000448251
0.000444527
0.000450367
0.000433312
0.000512801
0.000448243
0.000952822
0.000449181
0.000449129
0.000450618
0.000433145
0.000471149
0.00043945
0.0137328
0.000449024
0.000449588
0.000445976
0.000449792
0.000452935
0.000449476
0.000442346
0.00044397
0.000433943
0.00043405
0.000465653
0.000448481
0.00630949
0.000444279
0.000447025
0.000441148
0.00043182
0.000580101
0.000431732
0.000449119
0.000451508
0.000430741
0.00623354
0.000449021
0.000426815
0.000507654
0.00052603
0.000439215
0.000460359
0.000441653
0.00633012
0.00042686
0.000444395
0.000440644
0.000471044
0.00044613
0.016442
0.000448567
0.000451196
0.000444605
0.000433829
0.000434794
0.000447807
0.000447793
0.000441328
0.00044006
0.000447035
0.000447207
0.000447855
0.000473792
0.000491687
0.00044292
0.0233689
0.000445145
0.000455493
0.0214646
0.000429633
0.0004476
0.015972
0.000443147
0.00043379
0.000450726
0.000468816
0.000487366
0.000430287
0.000444981
0.000453987
0.015547
0.000461254
0.000443071
0.000803594
0.000463418
0.000456372
0.019879
0.000451612
0.00996349
0.00043136
0.000451992
0.000519777
0.000454819
0.000451044
0.00323499
0.000489976
0.00765477
0.00045554
0.00044872
0.000442033
0.000448933
0.000450306
0.000446187
0.000427496
0.000493441
0.000451292
0.00043742
0.000432589
0.000440527
0.000483485
0.000444392
0.000446326
0.000440229
0.0162567
0.000433354
0.000440097
0.000447111
0.000450324
0.000466434
0.000447916
0.000489238
0.000438893
0.0136769
0.000450556
0.00044365
0.000527742
0.000448648
0.000451855
0.000428755
0.000489353
0.000451899
0.0160567
0.000455105
0.00046822
0.000428731
0.00044082
0.000449158
0.000429793
0.000432751
0.000427937
0.00044038
0.0005606
0.000146161
0.00044203
0.00043566
0.000450262
0.000432419
0.000451831
0.000442509
0.00046833
0.011592
0.000547487
0.000442516
0.017003
0.000453032
0.000433997
0.000434659
0.000441407
0.000448061
0.00043918
0.000475152
0.000428735
0.000462222
0.000445272
0.000444437
0.000430475
0.000438618
0.000448067
0.000454223
0.000450795
0.000451248
0.000514482
0.000444665
0.0214044
0.000684174
0.0326563
0.000427652
0.000442389
0.000451017
0.000450193
0.000450678
0.000450397
0.000551359
0.000446328
0.00045024
0.000474703
0.000432016
0.00606546
0.000433656
0.0090321
0.000447895
0.000433495
0.000451563
0.00043907
0.000438314
0.000432636
0.0230163
0.000430438
0.000476639
0.000464494
0.000584867
0.000437026
0.00044477
0.000446382
0.000486953
0.000451193
0.000442662
0.000453497
0.000437115
0.000430013
0.000438277
0.000483978
0.000450319
0.000450667
0.000439948
0.000488708
0.0004579
0.000441536
0.000901312
0.00780378
0.000460364
0.0004629
0.000438998
0.00500363
0.00043134
0.000493591
0.000448308
0.000442854
0.000448606
0.000477631
0.000445414
0.000439113
0.000432056
0.000431122
0.000440428
0.000501098
0.000468177
0.000593931
0.000658342
0.0249795
0.000429677
0.000441137
0.00130891
0.000627284
0.00045341
0.000430072
0.0131026
0.00292467
0.000425946
0.00045684
0.000445128
0.00255113
0.000434643
0.000432103
0.000442573
0.000497284
0.000457822
0.000430262
0.000438983
0.000444515
0.000248431
0.000462996
0.000437283
0.000454864
0.00045719
0.00055118
0.000657171
0.000456994
0.000490117
0.000446271
0.000444949
0.0153609
0.000740136
0.000451066
0.000468981
0.000519634
0.000446894
0.000437872
0.000463834
0.000429252
0.00047999
0.000457945
0.000448047
0.00601002
0.0164087
0.000452276
0.000448676
0.00368978
0.00043328
0.000444401
0.000444473
0.0323654
0.00059995
0.00630213
0.000429191
0.000431359
0.00591001
0.000429565
0.000441116
0.000448099
0.000429542
0.00097414
0.00044151
0.000426186
0.0167418
0.000455508
0.000449356
0.0004384
0.000556415
0.000450409
0.000425992
0.00043508
0.000454678
0.000447148
0.000433711
0.00045696
0.000429279
0.000456522
0.000428997
0.000453323
0.000428754
0.000429105
0.000432373
0.016975
0.0165302
0.00044573
0.000452939
0.000445128
0.000448496
0.000462864
0.000429197
0.000493696
0.000450589
0.0188416
0.0302954
0.000428737
0.000444062
0.00045926
0.000509673
0.000440498
0.000458338
0.000429259
0.0119927
0.000473685
0.000429452
0.000429123
0.000450249
0.0020899
0.000461042
0.000437734
0.000429003
0.00043375
0.000448108
0.000460746
0.000438425
0.000463549
0.0200839
0.000443511
0.000456991
0.000432373
0.00043062
0.00042601
0.00044589
0.00209462
0.00045156
0.000431811
0.000489779
0.000347817
0.000449849
0.000686123
0.000576233
0.000444909
0.000427896
0.000441839
0.0133291
0.000446034
0.00044892
0.000450543
0.0314886
0.0225294
0.000448576
0.0314333
0.00060194
0.000507114
0.000451775
0.000445203
0.000462348
0.000437262
0.000438699
0.000461959
0.0013919
0.000431474
0.000437024
0.000429764
0.000477304
0.00044952
0.0225334
0.000432634
0.000450892
0.00045312
0.0254043
0.00045094
0.0121296
0.0311838
0.000466789
0.000444444
0.000447941
0.000451926
0.000441685
0.000476808
0.000433138
0.000561187
0.000433972
0.000449429
0.000454376
0.000450219
0.000451684
0.000432327
0.000445026
0.000513056
0.0399661
0.00018182
0.000585002
0.000425992
0.000452952
0.00044284
0.0204667
0.000442349
0.000448749
0.000804929
0.000433078
0.000444443
0.000439104
0.000447918
0.000437063
0.000445999
0.000438384
0.00042556
0.000438394
0.00663831
0.000439439
0.0124288
0.0215145
0.000436603
0.00043779
0.000544469
0.000426353
0.000467756
0.000465262
0.000451204
0.000447006
0.000436019
0.000447513
0.000436954
0.000436777
0.0004487
0.000440866
0.000438066
0.00045033
0.000449039
0.000447144
0.000604081
0.000446802
0.000449677
0.000462853
0.000452984
0.000488151
0.000461062
0.000446802
0.000436897
0.0131555
0.000445391
0.0158183
0.000438216
0.000470026
0.000431936
0.000427678
0.000440357
0.000446037
0.000443546
0.000428808
0.000909364
0.000434999
0.000444677
0.00274298
0.000446015
0.00044766
0.000436762
0.000441743
0.000437609
0.000430717
0.0239933
0.0116173
0.00043924
0.000457344
0.000455925
0.0106668
0.000450646
0.000448472
0.000452032
0.000494315
0.0288905
0.000465737
0.000685016
0.000512263
0.00043087
0.000443944
0.0042976
0.00600278
0.0325769
0.000435315
0.000450058
0.00645712
0.000431224
0.00814028
0.00043752
0.000442935
0.000444823
0.000438617
0.000497275
0.000442835
0.000608143
0.00590381
0.000449387
0.0278521
0.000446945
0.00043707
0.000488759
0.00532726
0.000450641
0.000448509
0.000440887
0.000432329
0.00138269
0.00609044
0.000455619
0.000565981
0.0004369
0.000444372
0.000662429
0.00044777
0.000500769
0.0312892
0.0223706
0.00121768
0.000450526
0.00042978
0.000441652
0.000434859
0.000444109
4.15704e-05
0.000451332
0.000642778
0.00044948
0.000428551
0.000438666
0.00129012
0.000439211
0.000451554
0.000454153
0.000449825
0.000441305
0.0179231
0.0158378
0.000519722
0.000438407
0.000429681
0.000437176
0.000439092
0.000437969
0.000438774
0.000622707
0.000665315
0.000432919
0.000457843
0.000440998
0.00352287
0.000452716
0.000508998
0.000450551
0.000451771
0.00043176
0.000448669
0.000438392
0.000466127
0.000464184
0.000429179
0.000438761
0.000447662
0.000448145
0.000450745
0.000432663
0.0148723
0.0004479
0.00043246
0.000441607
0.000444015
0.000485462
0.000444009
0.000461745
0.000464575
0.00048618
0.000458583
0.000454494
0.0171401
0.000438394
0.0027407
0.013931
0.000431466
0.000619291
0.000445448
0.000450603
0.019685
0.00143617
0.000448481
0.000448662
0.00060949
0.00220247
0.000439169
0.0005324
0.000478547
0.000443589
0.000440496
0.000442165
0.000595448
0.000673804
0.000450946
0.000447365
0.000431701
0.000450409
0.00565928
0.000447219
0.000440832
0.0165494
0.000513441
0.000444387
0.00050468
0.000430851
0.00046351
0.000443025
0.000451119
0.000435072
0.0141058
0.000519161
0.000436068
0.00888417
0.000451444
0.00321558
0.000451588
0.000444949
0.000539069
0.000280355
0.000868739
0.00650379
0.00643868
0.000554307
0.000435463
0.000447563
0.000463669
0.000434001
0.000457307
0.00341984
0.00066001
0.000938531
0.00480034
0.000464517
0.000530061
0.000444673
0.000442224
0.000444142
0.000435552
0.00050208
0.000442922
0.000507922
0.000445197
0.000474296
0.000464579
0.000446804
0.000439674
0.000430862
0.00045947
0.000447585
0.000437042
0.00434603
0.000439494
0.0111456
0.000436282
0.000440615
0.000440719
0.000430566
0.000701765
0.000430683
0.000548405
0.00768457
0.000453139
0.000444737
0.00044151
0.00146766
0.000432458
0.000443751
0.000461012
0.000449255
0.000430859
0.000443705
0.000440469
0.000458985
0.000450507
0.0004465
0.000486073
0.000458105
0.0175495
0.000449884
0.000432707
0.000446987
0.0052164
0.000432645
0.000441155
0.000445364
0.000424632
0.000434657
0.000464985
0.000506559
0.00046771
0.000472351
0.000440908
0.00563507
0.000439426
0.000435355
0.00406716
0.000701834
0.000456638
0.000412154
0.000432586
0.000946674
0.0199818
0.000456994
0.000438961
0.000439401
0.000762557
0.000426022
0.000447369
0.000434992
0.000458017
0.000448543
0.000450132
0.000445871
0.000448243
0.000466859
0.000449519
0.0004474
0.000485651
0.00056746
0.000444845
0.00044909
0.000449494
0.00100034
0.000439104
0.00625746
0.00045104
0.0172588
0.000515308
0.000435289
0.00114057
0.000449434
0.00359604
0.000436703
0.000460219
0.000596632
0.000438127
0.000438191
0.0317478
0.00512945
0.000458468
0.000466958
0.000551693
0.000943755
0.000430893
0.000440928
0.00044671
0.000448532
0.000449981
0.000437074
0.000431016
0.000433867
0.000440625
0.00318688
0.00954585
0.000444481
0.0163295
0.000437609
0.000436997
0.000445911
0.000444863
0.000456396
0.000465615
0.000448653
0.000433475
0.000873842
0.0132787
0.000452879
0.000444395
0.000451269
0.000445096
0.000528101
0.000429816
0.000450467
0.0419613
0.00746516
0.000627596
0.000465669
0.000442994
0.000451899
0.000500268
0.000451189
0.000444621
0.000608552
0.000133861
0.00111948
0.000446812
0.0162196
0.000481754
0.00044405
0.0181572
0.000429638
0.000451128
0.000444504
0.000448794
0.00043784
0.000450476
0.000504216
0.000450171
0.000441196
0.0130835
0.00458817
0.000449228
0.000428799
0.000450201
0.000478202
0.000449815
0.00174956
0.000558934
0.000454358
0.000532161
0.0116491
0.000453026
0.000451503
0.0157062
0.000446171
0.00215492
0.000511334
0.000438574
0.0160983
0.000460286
0.000447569
0.000444046
0.000132046
0.000444651
0.000442253
0.000448226
0.0004456
0.000446135
0.000581403
0.000475943
0.00042962
0.000487193
0.000497121
0.000449429
0.000449433
0.000435358
0.000446312
0.00044085
0.000602256
0.000438292
0.000427462
0.000461967
0.00474351
0.000449073
0.00443855
0.00500634
0.000450209
0.000429607
0.000426628
0.00018036
0.000439069
0.0144796
0.000431694
0.000469532
0.000433961
0.0114132
0.00070564
0.000478937
0.000468216
0.000444262
0.00045768
0.000455183
0.000433856
0.00765778
0.000428943
0.000445381
0.000436161
0.0014186
0.000445287
0.000437203
0.000447914
0.00047895
0.00044071
0.000446357
0.000448346
0.000458211
0.000450893
0.000442832
0.000428979
0.000449382
0.000444313
0.01161
0.000532027
0.00133015
0.000444204
0.000437621
0.000430846
0.000494218
0.00043827
0.000435014
0.00044796
0.000429714
0.000442655
0.000444627
0.000442424
0.00192889
0.000870621
0.000441774
0.0115636
0.000429543
0.000444711
0.000444326
0.0143105
0.00044858
0.00044426
0.000482733
0.000451471
0.000435114
0.000500518
0.0004819
0.000442737
0.0141891
0.000447181
0.000429435
0.00183705
0.000559086
0.000460104
0.000435987
0.000573639
8.02817e-05
0.000510429
0.000449918
0.0148798
0.000431461
0.000467883
0.00045182
0.000426024
0.000430718
0.000450816
0.000440733
0.000447121
0.000452996
0.0142099
0.0167992
0.000456493
0.000470538
0.00797721
0.000449185
0.000430171
0.000433991
0.00647314
0.00043861
0.000657874
0.00052092
0.000435174
0.000995196
0.022242
0.000450285
0.000437216
0.000431714
0.000436518
0.000449757
0.000435599
0.000208093
0.000454678
0.00134592
0.000444563
0.000424111
0.00298811
0.00760816
0.000460655
0.000428519
0.000450321
0.000448022
0.00104575
0.0193488
0.000442342
0.00047695
0.000434907
0.000478985
0.000486514
0.000488265
0.000456539
0.000461227
0.000439925
0.000437456
0.00045222
0.0004473
0.000481559
0.000468777
0.000470243
0.000436002
0.000432497
0.000508177
0.000531825
0.012563
0.000441738
0.000437399
0.000430319
0.000432426
0.000435065
0.000456644
0.000460175
0.000442806
0.000431147
0.000487271
0.000435843
0.000451859
0.000471832
0.000443721
0.000429587
0.000451434
0.000431815
0.00305503
0.000431381
0.000445334
0.000444054
0.000446488
0.000549213
0.00044078
0.00167799
0.000431779
0.000447492
0.000458995
0.00261184
0.000430802
0.000444075
0.000547306
0.000431666
0.00043859
0.000476097
0.00044334
0.000431574
0.000666611
0.000434952
0.0184821
0.000444129
0.000432258
0.000802981
0.0143849
0.0184949
0.0004978
0.00063841
0.000502869
0.000699891
0.000429756
0.00044561
0.000483613
0.0290998
0.00150856
0.00470873
0.000484026
0.0141794
0.000439159
0.0296812
0.00397012
0.0140732
0.000434288
0.000477252
0.000460474
0.000443959
0.000551143
0.000436595
0.000451435
0.000444933
0.000446855
0.000453573
0.000447416
0.000585628
0.00502388
0.00045024
0.000438455
0.000453057
0.0111265
0.000442649
0.000454073
0.000431147
0.000438879
0.000454451
0.00420151
0.000485771
0.00062319
0.00605515
0.000447482
0.017618
0.000434313
0.000739484
0.00042829
0.000455806
0.000450114
0.000451543
0.0180044
0.000437167
0.000432302
0.000449516
0.000443125
0.000452814
0.00612117
0.000452811
0.000436458
0.000450153
0.000448413
0.000441273
0.00623146
0.000450337
0.0114249
0.000436883
0.000434872
0.000449142
0.00132221
0.000444986
0.000437657
0.00519484
0.000432168
0.00043578
0.000500344
0.000450838
0.000565825
0.000436692
0.000447982
0.000541174
0.00311647
0.000442781
0.000440219
0.0163869
0.000431182
0.000441622
0.000437117
0.000448669
0.000448965
0.000503257
0.000462986
0.000507851
0.0013231
0.00594478
0.000535053
0.000460512
0.000465096
0.000453832
0.000438829
0.000493147
0.000872459
0.000467299
0.000506599
0.000774391
0.000436511
0.00146582
0.000448889
0.000442161
0.0154231
0.000440669
0.000434078
0.0141538
0.000438742
0.000441877
0.000442785
0.00630295
0.000507803
0.000487594
0.000429623
0.000447202
0.000449383
0.000597714
0.000457108
0.000496688
0.000447174
0.000440999
0.000478621
0.000445828
0.000452365
0.000453034
0.000492996
0.000453963
0.000435112
0.000449486
0.00100416
0.000450096
0.000479984
0.000446586
0.000610091
0.000448968
0.000445538
0.000429811
0.000485117
0.000240035
0.000443172
0.000454633
0.000450913
0.000480798
0.000462217
0.000454361
0.000527631
0.000446823
0.000446967
0.000436778
0.000443178
0.000482945
0.000450082
0.000482358
0.000442481
0.000446369
0.0265002
0.000443841
0.000460709
0.0004447
0.0129834
0.000453138
0.0004378
0.0193022
0.000527149
0.000435136
0.000472074
0.00042896
0.00402556
0.000453195
0.000431552
0.000439495
0.000443847
0.0130085
0.0227825
0.000504987
0.000450867
0.000497543
0.000446835
0.000452712
0.000459171
0.0039013
0.000438484
0.000578179
0.00047994
0.0167788
0.000491613
0.000449453
0.000442714
0.00043101
0.000464326
0.000505793
0.000452259
0.0009754
0.000461359
0.000463074
0.000439783
0.000450308
0.000443037
0.00386221
0.0292725
0.000446097
0.000449365
0.0166938
0.000436934
0.000533005
0.000452711
0.000450379
0.000445091
0.000429776
0.00108014
0.000456984
0.000444296
0.00618141
0.000448151
0.000449421
0.00169656
0.000458576
0.000438141
0.0183573
0.000475976
0.000480148
0.000448541
0.000440546
0.000444756
0.0175601
0.000429143
0.000443146
0.000444138
0.000275915
0.000472885
0.0124331
0.000445623
0.000431239
0.000477053
0.000442797
0.0193202
0.000449958
0.000461438
0.000447198
0.000460519
0.000490239
0.000450409
0.000441227
0.000450751
0.0153358
0.000444945
0.000431167
0.000449369
0.000433953
0.00045964
0.000514082
7.49564e-06
0.000450863
0.000472717
0.000633794
0.000436269
0.000465613
0.00100589
0.000432639
0.000445368
0.000453136
0.000447272
0.00044628
0.000431605
0.000429295
0.000431977
0.000443936
0.000452112
0.00629757
0.000617754
0.000465684
0.000446258
0.000458105
0.000431111
6.8727e-05
0.000441319
0.0160486
0.000450862
0.000438504
0.000454466
0.0060283
0.000441267
0.000447157
0.000447601
0.000450297
0.000452622
0.000438222
0.000438091
0.000450169
0.000660393
0.000468961
0.000453524
0.000448245
0.000447648
0.000470751
0.000461183
0.000442093
0.000440878
0.0227037
0.000449528
0.00043692
0.000382309
0.000449984
0.000447219
0.0011314
0.000452739
0.000453343
0.000435751
0.000450005
0.000638398
0.0143561
0.000436547
0.0170946
0.00043912
0.000445989
0.00043895
0.000451483
0.000449939
0.000447169
0.000445266
0.00231845
0.000443641
0.000448853
0.000441756
0.000444061
0.000467672
0.000443829
0.00137133
0.000504564
0.000462683
0.000198711
0.000439753
0.00051683
0.000434138
0.000633989
0.000449948
0.000451753
0.0279732
0.000467899
0.000444063
0.00339936
0.000434208
0.00478871
0.0154512
0.000897735
0.00080811
0.000449655
0.000502874
0.000449966
0.000449361
0.000635994
0.000452643
0.000453953
0.000450241
0.0024834
0.00934642
0.000444978
0.000432544
0.000446688
0.000437954
0.000447781
0.000439462
0.000453386
0.0004553
0.0014809
0.000430465
0.000464678
0.000426167
0.000469783
0.000453224
0.000446708
0.000490332
0.000439108
0.000445946
0.000556168
0.000445359
0.000458183
0.000440226
0.000429577
0.00045597
0.00198805
0.000441913
0.000450841
0.000442064
0.00045475
0.000450776
0.000633166
0.000437377
0.000438929
0.000447833
0.000461837
0.0164951
0.0274679
0.00616536
0.000446372
0.000466235
0.000445772
0.000447141
0.000452738
0.000446048
0.000434299
0.000441122
0.0004305
0.000468296
0.00045419
0.000448678
0.000437415
0.00044782