/*--------------------------------*- C++ -*----------------------------------*\
| =========                 |                                                 |
| \\      /  F ield         | OpenFOAM: The Open Source CFD Toolbox           |
|  \\    /   O peration     | Version:  v2012                                 |
|   \\  /    A nd           | Website:  www.openfoam.com                      |
|    \\/     M anipulation  |                                                 |
\*---------------------------------------------------------------------------*/
FoamFile
{
    version     2.0;
    format      ascii;
    class       surfaceScalarField;
    location    "100";
    object      phi;
}
// * * * * * * * * * * * * * * * * * * * * * * * * * * * * * * * * * * * * * //

dimensions      [0 3 -1 0 0 0 0];
oriented        oriented;


internalField   nonuniform List<scalar> 
27551
(
-0.110804
-0.0519806
0.162784
0.106697
-0.450958
0.344261
-0.511777
0.268409
0.243367
0.100634
-0.208997
0.108363
-0.291764
0.130901
0.160862
0.130242
0.350643
-0.480886
0.347347
-0.187489
-0.159858
-0.456032
0.234224
0.221808
0.361046
0.0681297
-0.429175
0.142431
-0.222806
0.0803752
0.0559156
-0.170734
0.114818
-0.07509
-0.112373
0.187463
0.169174
-0.105631
-0.0635422
0.198632
-0.0613946
-0.137238
-0.168941
0.262981
-0.0940398
-0.125697
0.486743
-0.495212
0.334459
0.160754
0.0311287
-0.285984
0.254855
-0.532416
0.267471
0.264945
0.185214
0.162133
0.0870591
0.0320164
-0.119076
0.486834
-0.120815
-0.366018
0.356835
-0.535624
0.178788
0.209196
-0.147058
-0.0621382
-0.598957
0.439503
0.159454
-0.260659
0.0917182
0.182228
0.0153412
-0.197569
-0.0281036
0.223553
-0.0732367
-0.150317
0.0615395
0.137093
0.0550146
0.0651108
-0.120125
0.474981
0.0123193
-0.4873
-0.304197
0.19691
0.107287
0.580734
-0.250771
-0.329963
-0.158752
-0.133012
0.488446
-0.335331
-0.153115
0.394055
-0.0345917
-0.359463
-0.147975
-0.0945576
0.242532
0.151311
-0.442126
0.290814
-0.103055
0.162245
-0.0591899
-0.141407
0.0733107
0.0680966
-0.313372
0.420069
0.335232
-0.234938
-0.100295
0.142658
-0.350768
0.20811
-0.125764
-0.230544
0.356307
0.0205384
-0.432343
0.411804
0.274817
-0.450387
0.175571
-0.505022
0.337496
0.167526
0.489787
-0.204239
-0.285549
-0.100671
-0.0996476
0.200319
-0.0329457
0.427001
0.480315
-0.472733
-0.00758284
-0.448799
0.0417433
0.407055
0.141988
-0.0840065
-0.0579817
0.0442507
0.13241
-0.17666
-0.0748301
0.129845
0.0266882
-0.129743
0.119164
-0.255168
0.136004
0.026496
-0.1373
-0.0636522
0.150711
0.129535
0.0578657
-0.187401
-0.449539
0.306613
0.142926
-0.274588
-0.125977
0.400565
-0.399933
0.490978
-0.0910452
-0.196045
-0.336372
0.334204
0.107739
-0.441943
-0.348763
0.494586
-0.145823
-0.132521
0.176771
0.113715
-0.188805
-0.0152522
-0.384681
0.263423
-0.437313
0.17389
0.062799
0.160754
-0.531406
0.248378
0.283028
0.51665
-0.379567
-0.137082
0.284586
0.205201
-0.434584
0.253506
0.0892475
0.0799261
0.124542
0.138438
0.475609
-0.212186
0.4243
-0.236795
-0.187505
0.374481
-0.500245
0.214574
0.0443682
-0.258942
0.478123
0.00871068
-0.345936
0.483712
-0.137776
0.172159
-0.116243
-0.27647
0.467887
-0.191417
-0.0649915
0.137022
-0.0720307
0.40877
0.0662112
0.196198
-0.341632
0.145434
0.0895595
-0.190231
0.357951
-0.335018
-0.0229329
-0.00296761
0.00275578
0.00021183
-0.134231
-0.0365994
0.17083
-0.210507
0.247135
-0.0366277
0.507511
-0.385209
-0.122302
-0.372054
0.539518
-0.167464
0.0812223
-0.146214
-0.0950888
-0.197196
0.292285
-0.308187
-0.139579
0.447766
-0.34335
0.155862
-0.362694
0.508694
-0.146
0.421789
-0.223606
-0.198182
-0.179859
-0.163491
-0.360273
0.54291
-0.182636
-0.416369
-0.0966962
0.513065
0.144817
0.338853
-0.153639
-0.260403
0.108506
0.151896
0.35704
-0.168931
-0.188109
0.338406
-0.0439495
-0.294456
0.197121
-0.12362
-0.0735005
0.103021
0.413628
0.36947
-0.173273
0.229069
0.106163
0.353724
0.15497
0.51594
-0.162216
-0.321819
0.465064
-0.143244
-0.21834
-0.0986208
0.31696
-0.311594
0.122341
0.189253
-0.30342
-0.208357
-0.321034
0.225945
-0.00223826
-0.000729352
-0.132748
0.0515491
0.0811987
0.0284189
0.286961
-0.31538
0.290623
-0.188017
-0.102606
0.198998
0.222791
0.179389
0.159464
0.00929652
0.348654
-0.504285
0.30824
0.111472
0.0926086
-0.153523
0.0789982
0.0745253
-0.168936
0.473226
-0.339093
-0.134133
-0.102161
-0.0305871
-0.379004
0.544868
-0.165864
-0.129758
-0.518893
0.371468
0.147424
0.125842
0.0712788
0.239033
0.234193
0.155667
-0.317696
0.447938
-0.306102
-0.21279
0.37164
-0.0332345
-0.0686037
0.198139
-0.19975
0.100103
0.239805
-0.0799984
-0.159806
-0.0991162
0.20971
0.21459
-0.530043
0.366191
0.163852
-0.526392
0.37588
0.150512
0.0261902
-0.109349
0.0831583
-0.289964
-0.0890525
0.379016
0.323801
-0.482946
0.159145
0.150415
-0.29839
-0.441487
0.095551
-0.494236
0.512717
-0.0184805
0.0913748
-0.200044
0.108669
0.251074
-0.39208
0.141006
-0.285291
0.417033
-0.131742
0.460559
-0.269988
-0.190571
0.135592
-0.234692
0.0990996
-0.0961344
0.0585527
0.0375817
0.171008
0.068797
0.366769
-0.137957
-0.228812
0.118435
0.0885846
-0.20702
0.390236
-0.139163
0.296151
-0.222941
-0.0732097
-0.263736
0.292155
0.263777
-0.399011
0.135235
0.177619
0.113004
-0.370602
0.157298
0.213305
0.199139
-0.327797
0.222354
0.105443
0.149191
-0.0361997
-0.112991
0.132905
0.217555
-0.350461
0.196343
-0.104968
-0.498127
0.0493278
0.00222229
0.00454235
-0.00676464
0.468799
-0.470532
0.00173259
-0.415905
0.130614
-0.0574278
-0.0387066
0.242539
0.114501
-0.349546
0.19794
0.151606
-0.459194
-0.0350423
0.347587
-0.177732
-0.169855
0.178894
0.117257
0.00624347
-0.00712309
0.000879617
-0.333242
-0.111727
0.44497
0.19585
-0.0821346
0.0575884
-0.126864
0.0692756
0.169099
-0.269695
0.100596
0.17608
0.190689
-0.323327
0.158115
0.165213
-0.228711
-0.227321
-0.0955421
0.239671
-0.144129
-0.233362
-0.216177
0.0996763
-0.212409
0.112733
-0.0124027
0.0779853
-0.0655827
0.25441
-0.504576
0.250165
-0.0969591
0.215394
-0.296198
0.135923
0.160274
-0.00296967
0.00921314
0.297178
-0.517693
0.220515
0.180267
-0.122401
0.524241
-0.294191
-0.23005
-0.556181
0.203806
0.352375
0.112648
-0.356728
0.24408
0.388137
-0.0648283
-0.323309
0.376529
-0.263881
-0.10992
-0.127432
0.237352
0.403835
-0.13442
-0.269415
0.167728
-0.206006
0.287316
-0.08131
0.254191
-0.392745
0.138554
0.0805612
0.0217701
-0.102331
0.0559508
-0.114477
0.0585259
0.43904
-0.287728
-0.193891
-0.311131
-0.176929
0.064556
0.238948
0.221611
0.0214219
0.1336
-0.155022
-0.387471
-0.116217
0.503689
0.464807
-0.139351
-0.175702
0.315053
-0.215552
0.0902643
0.125288
0.0825202
-0.30086
-0.223823
-0.0787384
-0.0683799
0.147118
0.277153
-0.109372
-0.167781
0.345831
-0.250365
-0.0954657
0.260892
0.319841
-0.247296
0.106141
0.141155
0.236639
-0.0593647
-0.177275
0.131361
-0.0508002
-0.121885
-0.0123456
-0.0739667
-0.0674405
-0.126142
0.0591973
0.0669451
-0.195997
0.0916666
0.104331
-0.46317
0.075699
-0.000192971
-0.210314
-0.196542
-0.298671
-0.204107
0.119721
0.0843862
0.19226
-0.109503
-0.0827562
0.0574967
0.422819
-0.121826
0.45603
0.20532
-0.479909
-0.167453
-0.171038
0.338491
-0.0870962
0.232967
-0.145871
0.0892836
0.102976
0.0256679
0.394576
-0.420244
-0.16663
-0.184138
-0.222788
0.112868
0.244432
0.211345
-0.455777
0.151387
-0.381854
0.230467
0.0268948
-0.297464
0.270569
0.149196
-0.127774
-0.100368
-0.241042
0.488915
-0.247873
0.194859
-0.105299
0.485422
-0.246475
0.354163
0.132101
-0.486264
-0.496749
0.271329
0.225421
-0.262612
0.289507
-0.474875
0.195128
0.279748
0.261133
-0.387781
0.126648
0.455469
-0.180652
0.119001
0.292553
-0.411554
0.349968
-0.170579
-0.07486
0.0624573
-0.211244
0.34426
-0.133016
0.344537
0.122825
-0.467362
0.413805
-0.522029
0.363529
0.1585
-0.426981
0.0106121
-0.319453
0.304201
-0.281527
0.400528
0.154037
0.195931
-0.0669819
0.128684
-0.0617018
0.491731
-0.137568
-0.369835
0.515001
-0.145167
-0.003682
0.436004
-0.432322
-0.1297
-0.166497
0.0892183
-0.001732
-0.0874863
0.431734
-0.291807
-0.139926
0.15961
-0.327063
-0.0348821
-0.00358204
0.0384642
0.226814
-0.195685
0.318016
-0.225323
-0.0926925
-0.171605
0.0688746
-0.201572
0.132697
0.394591
-0.133458
-0.220258
0.320414
-0.100155
0.0629683
-0.141707
0.020925
-0.243866
0.124418
0.208777
-0.333195
0.309922
-0.0808534
-0.270514
0.392884
-0.138473
-0.10659
-0.089407
-0.0895972
-0.0679366
0.157534
0.337453
0.127111
-0.464564
0.376158
0.0184182
0.322794
0.10894
0.226494
-0.15762
-0.068554
-0.234089
0.385476
-0.128127
-0.132275
-0.043554
-0.393759
0.350536
-0.341239
-0.103759
0.441212
0.315296
-0.100722
-0.0903141
-0.125238
0.491677
-0.0705493
-0.421128
-0.26839
-0.287791
0.0658261
0.076162
0.328293
0.153955
-0.269149
-0.208886
0.478034
-0.326919
0.141494
0.185424
-0.14889
0.476677
-0.327787
0.162461
0.114692
0.279435
0.0811886
-0.360623
0.247241
-0.0650135
0.497896
-0.225455
-0.272441
0.478551
-0.333235
-0.145316
0.0646749
0.161819
0.0473932
-0.425367
0.377974
-0.159316
0.456494
-0.102309
0.232748
-0.13044
-0.0844022
-0.213108
0.29751
0.323427
0.165019
-0.0481986
-0.135363
0.183561
0.351253
0.127298
0.492371
-0.317636
-0.174735
0.112027
0.4306
0.0150719
-0.445671
-0.00421753
0.181837
-0.453493
0.135219
0.318274
0.354793
0.0582755
-0.413069
-0.139428
-0.0976438
0.237072
0.187776
0.12752
-0.120887
-0.206031
0.316538
-0.0291107
-0.287428
-0.204009
0.155811
0.452344
-0.276559
-0.175785
-0.15016
0.260149
-0.224168
-0.0359808
-0.090342
0.269236
-0.245945
-0.188639
0.491677
0.217762
0.100254
-0.297694
-0.228698
0.488633
-0.131797
-0.0705194
0.212951
0.0149678
0.335568
0.0286922
-0.318656
-0.394686
0.104849
-0.127983
-0.195344
-0.0746367
0.42943
-0.310997
0.276405
0.0960091
0.213913
-0.0250509
0.463764
-0.438713
0.163271
-0.167489
0.152515
0.0861535
-0.238669
0.123258
-0.0640607
0.0344458
-0.173874
0.375633
-0.267472
-0.108161
0.291814
-0.181047
-0.110767
0.0962733
0.207775
-0.304048
-0.535903
0.348806
0.187098
0.259303
-0.0993709
-0.159932
0.307282
0.185089
0.200396
-0.533639
-0.46662
0.094566
0.341931
-0.14928
-0.192651
0.0704693
0.107143
-0.177612
-0.461435
0.176262
0.285172
0.151883
-0.136541
0.238365
-0.166661
-0.0717041
0.194844
-0.0833719
-0.350037
0.215165
0.134873
0.0848178
0.151821
0.394857
0.0357427
-0.106507
0.197001
-0.0904931
0.223915
-0.322536
-0.315958
0.126447
0.189511
0.0541515
0.118007
-0.131644
-0.260056
0.3917
0.126706
0.165108
-0.0768168
-0.127232
0.0510384
0.0761938
0.272237
-0.403882
0.0194816
-0.0789469
0.0594653
0.323063
-0.447888
0.124825
0.195318
-0.130643
0.495691
-0.256184
-0.239507
0.0715702
0.0654521
0.114519
-0.499728
0.335195
-0.133286
-0.20191
0.219981
0.0401683
-0.177033
-0.172512
0.365517
-0.534529
0.169012
0.13753
0.204401
0.294318
-0.160604
-0.133715
0.189173
0.0885434
-0.277716
-0.284197
-0.31476
-0.150886
0.270051
-0.252204
0.382115
-0.129911
-0.142231
0.439447
0.02165
-0.461097
-0.452345
0.172834
0.279512
0.196134
-0.471869
0.275735
-0.325239
-0.0970948
0.422333
0.12522
-0.377424
0.33066
-0.206242
0.307264
-0.276957
-0.0303076
-0.297083
0.497479
0.132154
-0.445418
0.313264
-0.146624
-0.169335
0.399256
-0.135479
-0.437815
0.26247
0.175344
-0.343775
0.194495
0.3929
-0.242281
-0.150619
0.505467
-0.13995
0.470375
-0.190561
-0.279814
0.216319
-0.0638034
0.098426
-0.2572
0.158774
-0.333515
0.380908
0.335279
-0.25677
0.312434
-0.0556637
-0.470131
0.236769
-0.122394
0.212658
-0.190108
0.121504
-0.314925
0.493135
-0.17821
-0.277206
0.200204
0.0770018
-0.0440434
0.483547
0.190542
-0.311142
-0.193143
0.0780867
-0.367144
0.289057
-0.330224
0.499472
-0.169248
0.114434
0.0605349
-0.174969
-0.21039
-0.133385
-0.28449
0.362577
-0.00694072
-0.0279414
-0.184046
-0.268299
0.144605
0.280241
-0.424846
0.256674
-0.392715
0.136041
0.230809
0.162091
-0.406811
0.287104
0.119707
0.539545
-0.211659
-0.327886
-0.489361
0.187067
0.302294
0.092343
-0.0728614
0.454494
-0.131431
-0.486153
0.107149
-0.310415
0.490421
-0.180006
-0.42101
0.300195
0.15996
0.140093
-0.210272
0.0701785
-0.124087
0.262376
0.0448883
0.134841
0.204492
-0.339332
0.330542
-0.106627
-0.00103062
-0.204975
0.345882
-0.46088
0.114997
-0.487325
0.305292
0.182033
0.117688
-0.0617373
-0.249848
-0.132236
0.382084
-0.131107
-0.419139
0.166096
0.253043
-0.462693
0.137454
-0.538696
0.294436
0.24426
0.111881
-0.460644
0.506892
-0.161009
-0.448048
0.228708
0.21934
0.371809
-0.188277
-0.183532
-0.536074
0.240429
0.295645
-0.138524
0.159722
-0.467909
0.335624
0.127468
-0.463092
0.44634
0.290097
0.163246
-0.453343
-0.0702622
0.139799
-0.0695371
-0.313149
-0.222925
0.0756856
-0.158989
0.0833033
0.200903
-0.497986
-0.18317
-0.0015052
-0.382703
0.384208
-0.0575182
-0.069714
0.102606
-0.155624
-0.231761
0.387386
0.38542
0.0540275
0.137094
-0.065524
-0.12505
0.444112
-0.319063
-0.114039
-0.0880138
0.202053
0.0966499
-0.16388
0.0672305
-0.038511
-0.351791
0.390302
-0.144369
-0.239904
0.384273
0.140006
-0.0868219
-0.0531838
-0.433022
0.307972
0.30058
-0.245886
-0.0546942
0.456047
0.0398932
-0.49594
0.158916
-0.0845701
-0.074346
0.40056
0.0319694
-0.432529
-0.101703
0.168916
-0.067213
0.487096
0.00181648
-0.488913
-0.318763
-0.219933
0.00559934
-0.417765
0.412166
-0.082814
-0.29279
0.375604
-0.26969
0.37537
-0.10568
0.32732
-0.0267401
0.368667
-0.249662
-0.119004
0.300694
0.00338262
-0.105085
0.151034
-0.0543841
-0.218252
-0.226527
0.444779
0.177948
-0.487525
0.309578
0.0882333
-0.0664632
0.276565
-0.460611
0.153484
0.222149
-0.394216
-0.300024
-0.23588
0.188609
-0.146646
-0.13056
-0.437177
0.354363
-0.0916549
-0.0618686
-0.11936
0.256951
-0.137591
-0.510035
0.239133
0.270902
0.0603892
0.247846
-0.308235
0.48857
-0.0812541
-0.407316
-0.120842
0.287156
-0.166315
-0.159365
-0.259774
-0.395584
0.416122
-0.205165
0.439389
0.160612
-0.10646
0.117778
0.360496
-0.478274
-0.29796
-0.189365
0.125417
-0.442412
0.316995
-0.0884997
-0.283379
0.371879
0.4156
0.0729697
-0.171632
0.307555
0.0795452
-0.179603
0.100058
0.333499
0.00653874
-0.340037
0.479406
-0.301458
0.256711
0.357345
0.0432141
0.319614
0.106742
-0.426355
0.0638548
0.083483
-0.147338
0.0645763
0.0805479
0.349432
-0.48967
0.140238
0.101248
0.121338
-0.222587
0.133308
-0.0674815
-0.0954137
-0.478693
0.322351
0.156343
0.303851
-0.544893
0.136841
-0.376745
-0.488992
0.175881
0.313111
0.273733
-0.104634
-0.430851
0.271486
0.440545
-0.315128
0.281981
0.173488
0.107132
-0.428951
0.0711023
-0.212218
0.141116
0.0833104
0.0756057
0.146451
0.377791
0.0192897
-0.021119
0.353026
-0.474852
0.236883
0.108948
-0.253772
0.0958333
0.157939
-0.142961
0.32326
-0.180299
0.106151
-0.0741344
-0.118068
-0.135704
-0.0990172
0.1024
-0.188827
0.355817
-0.118933
-0.0508915
-0.0709939
0.0143655
-0.0760635
0.165311
0.162051
-0.301402
-0.541987
0.192176
0.349812
-0.487923
0.164327
0.323596
0.360744
-0.345776
0.435687
-0.49915
0.0634635
0.244162
0.124505
-0.0150738
0.104292
-0.468504
0.0361617
0.332727
-0.334232
-0.384825
0.261921
0.122904
-0.193608
-0.122029
0.315636
-0.237813
0.152568
0.085245
-0.153477
-0.0924055
0.245882
-0.132907
0.179204
-0.276629
0.0974256
0.316396
-0.200477
-0.115919
-0.362378
0.16896
0.193418
-0.197109
-0.292252
-0.240658
-0.0161124
0.143212
0.321851
-0.0793067
0.395845
-0.0556419
0.38914
0.296125
0.158369
-0.29776
0.482384
-0.184623
0.367283
-0.0623299
0.341764
-0.336838
0.514716
-0.177879
-0.506724
0.169887
0.270939
-0.145404
-0.125535
0.40325
-0.45262
0.0493699
-0.186302
0.399909
-0.109812
0.383856
0.0193942
-0.080325
0.536372
-0.251866
0.388707
-0.0386202
-0.0355338
0.074154
-0.348695
-0.104798
-0.291912
-0.107407
0.399318
-0.478761
0.278487
0.200273
-0.377214
0.207486
0.169728
-0.115011
0.198679
-0.0836674
0.242918
-0.468589
0.332913
0.135676
-0.132566
-0.0849988
0.217565
0.111615
0.278424
-0.390039
0.0664598
0.253382
-0.319842
0.141693
0.29558
-0.437272
0.281045
-0.0918724
-0.338182
-0.101129
0.439311
0.0371586
-0.248403
-0.259041
0.446817
-0.187777
-0.538529
0.379203
0.159326
0.149607
0.202228
-0.351835
0.307388
-0.119612
0.524371
-0.334304
-0.190068
-0.327648
0.302597
-0.317717
0.214149
0.103568
0.0783177
0.426819
-0.274293
-0.152526
-0.197055
0.267513
-0.105052
-0.269924
-0.240111
-0.18293
-0.194284
0.0882864
-0.0620962
-0.0739353
0.270845
-0.144947
-0.281388
0.426335
-0.0883031
0.155646
-0.0673433
0.537532
-0.295888
-0.241644
-0.0443884
0.152486
-0.108097
-0.302599
-0.227445
0.0575359
-0.189425
-0.172952
0.312409
-0.245949
-0.106131
0.285335
0.208295
0.329237
0.242468
-0.393379
0.150911
-0.174585
0.00385179
-0.414136
0.16227
-0.066532
-0.123576
0.440449
-0.465109
0.0246597
0.290637
-0.256476
-0.034161
0.00413933
-0.151197
-0.141029
-0.0967835
-0.432611
0.43821
0.45283
-0.256696
-0.358189
0.0660857
0.0466219
0.11399
0.077097
-0.360476
0.423823
-0.306045
0.253167
0.173652
-0.12292
0.246354
0.129016
-0.191729
0.125197
-0.347286
0.488375
-0.141089
0.385347
-0.138993
-0.125574
-0.0785324
0.0463906
0.260891
-0.133581
0.484834
0.332513
0.116262
-0.448775
-0.263111
-0.233638
0.184453
-0.104908
0.395442
0.0733569
-0.121234
-0.094379
0.215613
-0.146511
-0.108657
0.290013
-0.243622
-0.341109
0.207848
0.133261
-0.467091
0.292856
0.174236
-0.0534789
0.12679
-0.128855
-0.332025
-0.148046
0.444171
-0.236696
0.391622
-0.149154
0.202574
-0.23321
0.0306358
-0.0890384
-0.303089
0.392127
-0.377671
0.288632
0.114522
-0.354852
0.24033
-0.437643
0.219391
0.0186849
0.0774902
-0.096175
0.00340731
0.0839767
-0.152357
0.198516
0.325856
0.0363791
0.174216
-0.210595
0.152619
-0.076933
-0.307401
-0.177871
0.0994554
-0.152532
0.0530762
0.158498
-0.111876
0.0650414
-0.153693
0.0886514
0.149674
0.357218
0.253775
-0.395082
0.141307
0.0593409
0.260055
-0.151549
-0.457743
0.127519
0.183089
0.0935534
-0.276642
0.0820943
0.142048
-0.224142
-0.422757
0.27781
-0.0442487
-0.162523
0.206772
0.195139
-0.104855
-0.0902838
0.36543
-0.250907
0.255364
0.0352736
0.0761926
-0.296451
-0.141616
0.0706181
-0.160215
-0.131715
0.0680632
-0.25181
0.37414
-0.12233
-0.451636
0.192595
-0.299527
-0.148521
-0.489712
0.149343
0.340369
-0.443508
0.29079
0.152718
-0.0246625
0.0876307
-0.0629682
-0.340038
-0.518986
0.21225
0.306737
-0.0605972
0.146176
-0.0855792
-0.182716
0.0913784
0.0913375
0.363137
-0.251522
0.0585777
0.0340608
-0.0926385
-0.180636
0.0895539
0.0910824
-0.187026
0.223405
-0.441961
-0.0795976
0.407891
-0.232512
-0.257193
0.489706
-0.430003
0.135811
0.156961
-0.432675
0.275715
0.195345
-0.15315
-0.0421954
-0.160634
0.467752
-0.327053
-0.140699
0.398017
-0.493109
0.095092
0.084366
-0.144963
-0.284667
0.353178
-0.0685106
0.472732
-0.245935
-0.226798
-0.0373741
0.136829
0.298547
0.45954
-0.0774437
-0.382096
-0.0963635
-0.0842728
0.129029
-0.339278
0.21025
0.0963614
0.0880917
-0.509374
0.233737
0.275637
0.179158
-0.512393
0.0656886
0.156101
-0.22179
-0.334399
0.128893
0.0664523
0.137258
0.133681
0.126239
0.318456
-0.444695
0.0959202
-0.0179996
-0.0779205
0.442592
-0.122978
-0.20862
0.0947479
0.113872
-0.103177
0.286265
0.503631
-0.192692
-0.310939
-0.0874745
0.168406
-0.0809313
0.137181
0.130333
-0.0828192
0.147861
-0.151449
-0.465502
0.374756
0.0907454
0.542767
-0.192123
0.0665838
0.0647777
-0.303397
-0.175364
0.0671886
-0.122985
0.0557959
0.274926
-0.111654
-0.113947
0.252619
-0.138672
-0.0412307
-0.259838
0.432672
-0.247305
-0.0390312
0.286336
0.244651
0.202167
-0.451705
0.221161
-0.0727013
0.275276
-0.201418
-0.14862
0.00518184
-0.375017
0.101888
0.114431
0.41087
-0.2751
-0.13577
-0.271953
0.15051
0.121444
-0.273576
0.162518
0.111058
-0.34716
0.226446
0.120714
-0.375886
0.146693
0.229193
-0.268278
0.436853
-0.168575
-0.202884
-0.30649
0.427406
-0.145601
-0.281805
-0.331944
-0.134676
-0.233261
0.137719
-0.130475
-0.335027
0.200909
0.251921
0.244472
0.0995863
-0.344058
0.388853
-0.256343
-0.132511
-0.260119
0.455247
0.346891
-0.278938
-0.0679535
0.116833
0.158092
-0.326851
-0.121101
0.447952
0.0654889
-0.226423
0.160934
-0.0267695
0.0101139
0.0166557
-0.204563
-0.289637
0.4942
-0.469766
0.301427
0.16834
-0.0117319
0.0139542
-0.0801038
-0.295528
0.45525
0.440382
-0.299865
-0.140517
0.159634
-0.0763237
0.0931604
0.304095
0.123311
0.444515
0.00715041
-0.451666
0.331799
0.158622
-0.14011
-0.20705
-0.0826148
-0.0267337
0.400645
0.0397367
-0.418056
0.170751
-0.191372
0.436022
0.456199
-0.188324
-0.267875
0.178805
-0.476565
-0.0862215
0.200656
-0.545429
0.209905
0.335524
-0.31163
0.216734
0.0948964
0.314407
0.128185
-0.144251
-0.0601274
0.204379
0.199829
0.25637
0.473595
-0.163293
-0.310302
-0.212932
0.434255
-0.221323
0.23258
-0.155225
-0.29648
0.0780719
0.090844
-0.470164
0.42612
0.122633
-0.414545
0.510026
-0.221841
-0.288185
0.271713
0.0889303
-0.360643
-0.297139
-0.22489
-0.16152
-0.0726967
0.234217
0.0593337
-0.127932
0.0685979
0.165235
0.0731298
0.445237
-0.13083
0.31846
-0.185531
0.266299
0.122554
-0.169655
0.066832
-0.101113
0.467304
-0.130741
-0.35209
0.48283
0.0818108
0.164772
0.333124
-0.0446207
-0.154429
0.19905
-0.131965
0.19316
-0.061195
0.457276
-0.124763
-0.080537
-0.261244
0.341781
0.34825
-0.478991
0.122147
-0.455833
0.133759
0.322075
-0.212491
0.316145
-0.103655
0.172884
-0.0483026
-0.124582
0.147695
0.0599482
0.0731318
-0.13308
-0.337108
-0.41025
0.451993
-0.238383
0.495718
-0.312376
-0.183342
0.111938
0.108043
-0.18317
0.4356
-0.25243
-0.344962
0.255487
0.0894742
-0.47404
0.178185
0.295855
0.352222
-0.501112
-0.0261486
0.128081
-0.101933
0.0611913
-0.207752
0.14656
0.252273
-0.33281
0.292087
-0.168247
-0.123839
-0.238401
-0.16061
0.114861
-0.205175
-0.339276
-0.206153
-0.527723
0.258575
0.244535
-0.453421
0.130305
0.338938
0.144163
-0.483101
-0.0319017
0.0904794
0.0682256
0.278666
-0.289597
0.292426
-0.0028297
0.0782014
-0.237922
0.434809
0.000878179
-0.243696
0.444605
-0.237983
0.25097
0.291939
-0.280541
-0.009056
-0.100794
-0.130605
0.231399
0.118963
0.201451
-0.237986
0.151438
0.0214464
0.402528
-0.172715
-0.229813
-0.305023
-0.136026
0.0851342
-0.0758525
0.0151139
0.0607386
-0.551089
0.220639
0.330449
-0.0752182
0.42465
0.13235
0.171854
-0.172885
0.442882
-0.298276
-0.149084
-0.125306
0.274389
0.248841
0.350446
-0.412776
0.150635
0.266398
0.106575
0.249241
0.109749
0.209609
-0.319358
0.10305
-0.372815
0.269765
0.366341
-0.26329
-0.0869181
0.354389
0.18638
0.046588
-0.18971
-0.0871527
0.358866
-0.0171334
0.188569
-0.171436
0.130425
-0.211592
0.0706271
0.140965
0.118132
-0.0509434
-0.0684299
0.18815
0.0887548
0.477346
-0.354522
0.237907
-0.159705
-0.257983
0.228872
-0.0857974
0.146937
-0.0611397
0.228569
0.115691
0.294181
-0.0497087
-0.254785
-0.296303
-0.127195
-0.0779663
0.205161
-0.339757
0.0827882
0.256968
-0.0487332
0.122421
-0.282629
0.160208
-0.00258073
0.337375
-0.33858
0.311415
-0.520647
0.207771
0.312875
-0.20238
0.331409
-0.00175225
0.0976724
-0.422591
0.273056
0.149535
0.0141757
-0.0981822
-0.0729967
-0.0859922
0.180956
-0.450944
-0.258611
0.140543
-0.38025
-0.0103031
0.390553
-0.405556
0.13944
0.266116
-0.421815
0.169384
0.252431
0.252025
0.150503
0.227445
0.203635
-0.0916975
-0.059082
0.13808
-0.167571
-0.0896297
-0.088035
0.0633725
0.270801
0.115516
-0.386318
-0.125035
0.0611355
0.0638993
0.239838
-0.179449
0.106845
-0.209257
0.163171
0.0460867
-0.446853
0.211004
0.235848
-0.0957998
0.197687
0.0965505
-0.217785
-0.281586
-0.0581709
-0.388663
0.175732
-0.157099
-0.103168
0.438418
-0.33525
0.162387
0.1297
-0.199952
0.0831957
0.0790493
0.341527
0.206356
-0.547882
-0.124788
-0.277826
0.402614
0.0357178
0.327419
-0.120461
0.49489
-0.201716
-0.293174
0.0664921
0.0621916
-0.170744
0.293165
-0.0151259
0.0191148
-0.00398881
-0.384678
-0.0767569
-0.194182
0.0337812
0.160401
0.480114
-0.188568
-0.187318
-0.362876
0.498095
0.477852
-0.338105
-0.139747
0.243921
-0.171583
-0.0723379
-0.0603719
-0.191782
0.190169
0.282564
0.370993
-0.293328
-0.0776647
-0.517778
0.353502
0.164276
-0.204438
-0.24765
0.0941731
-0.313553
0.50062
-0.44199
0.103808
-0.23084
0.36511
-0.134269
0.205241
0.356065
0.121787
0.0445867
-0.423517
0.37893
-0.071732
0.136649
-0.0649165
0.036532
-0.0751522
-0.0930765
0.180772
-0.0876956
0.360646
-0.4419
-0.122951
0.0655357
0.0574152
-0.118512
-0.104294
-0.106937
0.221799
-0.412865
0.275281
0.137585
-0.0129636
-0.013806
0.147784
-0.277484
-0.172063
-0.225719
0.397782
0.277539
-0.400247
0.122708
-0.0818208
0.13038
-0.0485592
0.276269
-0.401057
-0.0384058
-0.0374467
0.151476
-0.0682805
-0.269729
-0.2688
-0.311473
0.180779
0.130695
-0.193636
0.102794
0.090843
-0.0674074
-0.124322
0.485409
-0.340468
-0.144941
-0.571812
0.317027
-0.303558
0.0882052
-0.194713
-0.13299
0.0905382
-0.177994
0.0874563
0.181076
-0.301917
0.482387
-0.197746
-0.284641
-0.29828
0.129034
0.169246
0.437545
0.018001
-0.455546
0.0995605
-0.248866
0.149305
0.0741081
0.242288
-0.10046
0.170929
0.264489
0.227383
-0.491872
-0.116393
-0.37006
0.18146
0.1886
-0.328628
-0.125151
0.45378
-0.102358
-0.0772447
-0.485894
0.339193
0.1467
0.274664
-0.414243
0.545594
-0.281105
0.171689
-0.188822
0.0717479
0.299245
-0.482712
0.0125484
-0.196316
0.128909
-0.247509
-0.267047
-0.179805
-0.159441
-0.181668
-0.33857
0.499458
-0.160888
0.146839
-0.147129
-0.203587
-0.122693
0.326279
0.0835936
-0.00560828
0.392414
-0.138639
-0.0339577
-0.208324
0.324804
0.154602
-0.222353
-0.0892767
-0.073625
0.145326
-0.0717008
-0.320842
-0.299258
0.0746952
-0.217592
0.142896
-0.317106
0.488463
-0.171357
0.452285
0.20804
-0.163672
0.0363248
-0.416575
0.158382
0.101673
0.0603249
-0.129477
0.0691524
-0.328797
-0.128946
0.371564
-0.265455
-0.106109
0.259733
0.134858
-0.0643635
0.0571731
0.00719043
0.47914
-0.140202
0.280346
0.130524
-0.13103
-0.146103
0.485132
-0.021368
-0.287907
-0.118904
-0.299443
0.132011
0.167432
0.0383679
0.146643
-0.185011
-0.263302
-0.131781
0.475702
-0.330883
-0.144819
-0.488529
0.189867
0.298662
-0.263619
0.0327789
0.168565
0.109689
-0.44502
0.232233
-0.371404
0.139171
0.208544
0.121998
0.180777
0.314941
0.284822
-0.454612
0.16979
-0.188872
0.0878204
0.0521852
-0.276705
0.391858
-0.115154
0.316172
-0.178643
-0.109292
-0.2169
0.133325
0.0835756
0.12915
0.187022
-0.143587
-0.345405
-0.0930848
-0.178014
-0.259497
0.437511
0.27815
-0.387835
0.109685
0.333408
0.142294
0.317911
-0.147566
-0.170345
0.149158
0.0835909
0.198016
-0.00915511
-0.188861
-0.0319858
0.408153
0.309483
0.0620816
0.0378881
0.0252367
-0.0631248
-0.0718052
-0.0669161
0.138721
-0.0943231
0.372473
-0.0564008
0.163923
-0.104353
0.0771415
0.294236
-0.371378
-0.137523
-0.018708
-0.326965
0.48098
-0.154015
-0.210371
0.0778052
0.142461
-0.0821365
-0.0345346
-0.140051
0.296278
-0.0373946
-0.258883
0.256527
-0.429301
0.172774
0.202765
-0.00474828
-0.479548
0.18402
0.156232
0.124813
0.321142
-0.171534
-0.302523
0.427923
-0.1254
0.288111
0.257483
0.324455
-0.0802925
-0.337348
0.208346
0.129001
0.373149
-0.489367
0.133988
0.327285
-0.461273
0.423177
0.0243693
-0.447546
0.172606
0.318372
0.138125
0.339916
-0.478041
-0.327288
-0.330479
0.398779
-0.118432
-0.0940493
0.46993
-0.320259
-0.167266
0.332675
0.140919
-0.103488
0.467017
-0.157187
0.38942
0.27876
-0.312717
-0.142928
0.269414
-0.126486
-0.22475
0.30765
-0.0828997
0.299641
-0.326381
0.126773
-0.0700063
-0.0567665
0.47347
-0.202085
-0.271385
-0.403868
0.225854
-0.162683
0.367174
-0.488884
0.0296904
0.244993
-0.161432
-0.0835616
0.103882
-0.297489
-0.143011
0.225106
0.323273
-0.487167
0.163894
0.063747
0.0630258
0.10423
0.419206
-0.120725
-0.174138
0.183364
-0.00922664
0.507859
-0.184585
-0.533142
0.219232
0.31391
-0.241206
0.323643
-0.476136
0.152493
0.324771
0.108534
-0.433305
-0.127546
-0.318946
0.461678
-0.142732
0.169494
-0.0789563
-0.341382
0.231544
0.109839
-0.457618
0.155095
0.387276
0.0572396
-0.0130731
0.439194
0.467545
-0.0900495
0.461518
0.400366
-0.274938
-0.125428
0.00515582
-0.11476
0.109604
0.196929
-0.440625
0.329906
-0.0570657
-0.27284
-0.0598221
0.338309
-0.231577
0.397673
-0.201316
0.362391
-0.366073
0.127827
-0.435227
-0.300043
-0.233099
-0.48124
0.296321
0.18492
-0.488113
-0.0880785
0.18444
-0.314829
0.442297
-0.0718015
-0.110914
-0.178935
-0.20589
-0.457621
0.255913
0.201707
0.242593
-0.575733
0.33314
0.17419
0.29928
0.140695
-0.353803
0.0746059
0.120238
-0.141429
-0.0995059
0.240935
0.198787
-0.160419
-0.0714763
0.155453
-0.19539
-0.262231
-0.298749
0.173444
-0.0770231
0.160506
-0.125456
0.186995
-0.242024
-0.232162
0.474186
0.284739
0.115627
-0.131905
0.159333
0.198312
0.119599
-0.198251
-0.0737019
0.278036
0.0518691
0.0325833
0.217558
-0.250141
-0.0981853
-0.143018
0.213645
0.187923
-0.516551
-0.0124901
-0.0632162
0.0757063
-0.309541
0.0777405
-0.341622
0.0519876
0.247653
0.318415
-0.144662
-0.0823082
0.22697
0.127659
0.252914
-0.380573
-0.0931512
0.453797
0.442523
-0.334784
-0.272527
-0.158324
-0.291936
0.464943
-0.331532
-0.133412
0.0830512
-0.170073
0.087022
-0.0648911
-0.0580598
-0.317894
0.421692
-0.103798
-0.2689
0.397264
-0.128364
-0.198631
-0.138717
0.299811
0.165132
0.260341
0.0359369
0.266197
-0.326019
0.139802
0.0690561
-0.208859
-0.422966
0.105071
0.187486
0.305649
-0.308939
0.45592
-0.146981
0.0670752
-0.140233
0.0731582
-0.198754
-0.201238
-0.00801963
0.418342
0.0583352
0.15437
-0.0665493
-0.232021
0.144192
0.0878298
-0.132347
-0.130811
0.0590789
0.0721685
-0.371407
0.299238
0.0426828
-0.174648
-0.164333
0.170113
-0.00578084
0.424308
-0.0155386
-0.00213004
0.0781254
-0.0759953
-0.169056
-0.309637
0.131176
0.200082
0.267805
0.038275
0.319503
-0.357778
-0.0389233
0.307333
0.00135098
-0.15578
-0.115991
-0.259358
0.375349
-0.22635
0.354008
-0.129766
0.478016
0.501509
0.426585
-0.284893
-0.218731
0.00245365
-0.176591
-0.0585717
-0.0479308
0.106502
-0.0697861
0.232715
-0.128093
-0.104622
-0.327306
-0.14627
0.473575
-0.45068
-0.0503691
0.109875
-0.0595061
0.0534409
-0.122676
0.0692347
0.149443
-0.210655
0.0612119
0.30689
-0.518549
-0.294975
-0.0826397
-0.063512
0.146152
0.423839
-0.504164
-0.177695
0.0849797
0.0927151
0.247353
-0.372352
0.125
0.268316
0.220599
0.439716
-0.0037118
-0.474638
0.122548
-0.425867
0.150929
-0.156423
0.248024
-0.0916015
-0.0923946
-0.139627
-0.234945
-0.321769
0.556714
0.127137
0.38558
-0.364291
0.211025
0.153266
0.109842
0.122873
-0.138878
-0.0598228
0.198701
-0.31613
-0.204517
0.266235
-0.331063
-0.183635
0.0872714
-0.242613
0.0993086
0.143305
0.24425
-0.174386
-0.0698642
-0.240788
0.148393
-0.176323
0.0832462
0.256808
-0.224224
-0.265796
0.229657
-0.485841
0.0617978
0.0563343
-0.00155198
-0.179495
0.110557
-0.105401
0.0781743
0.0744442
0.165977
-0.420586
0.478862
-0.183127
0.205191
0.309525
-0.0877175
-0.089917
0.177635
0.142824
0.255886
-0.39871
0.463627