/*--------------------------------*- C++ -*----------------------------------*\
| =========                 |                                                 |
| \\      /  F ield         | OpenFOAM: The Open Source CFD Toolbox           |
|  \\    /   O peration     | Version:  v2012                                 |
|   \\  /    A nd           | Website:  www.openfoam.com                      |
|    \\/     M anipulation  |                                                 |
\*---------------------------------------------------------------------------*/
FoamFile
{
    version     2.0;
    format      ascii;
    class       volVectorField;
    location    "100";
    object      U_0;
}
// * * * * * * * * * * * * * * * * * * * * * * * * * * * * * * * * * * * * * //

dimensions      [0 1 -1 0 0 0 0];


internalField   nonuniform List<vector> 
18540
(
(1.06869 -0.00334865 1.00883e-20)
(1.01855 0.00321337 0)
(1.02184 0.000937643 9.0626e-23)
(1.05063 -0.0142687 -2.22371e-21)
(1.0437 -0.00369334 0)
(1.01935 -0.00105182 0)
(1.03185 -0.0077921 -2.56581e-23)
(0.898331 -0.113343 1.33728e-21)
(1.02117 0.000353798 0)
(1.04845 -0.00905282 2.82342e-21)
(1.05199 -0.000941591 0)
(1.04765 0.00584584 -1.51234e-21)
(1.05219 -0.0461449 -1.77982e-20)
(0.660683 0.0864251 3.22405e-21)
(1.04322 -0.00476906 0)
(1.02109 0.000315447 2.56365e-22)
(1.01644 -0.0054432 9.99541e-22)
(1.02799 -0.00429987 0)
(1.01986 0.000107529 0)
(1.03145 -0.00784859 -3.34074e-24)
(1.09391 -0.0164687 -6.56996e-21)
(1.01933 -2.66153e-05 9.99914e-23)
(1.02046 -0.000161498 -9.34428e-23)
(1.05471 0.0044529 0)
(1.0198 -8.14473e-05 -5.77944e-22)
(1.04391 -0.00480083 0)
(1.04285 0.0077164 -9.17515e-22)
(0.272279 -0.113862 1.01061e-20)
(1.04718 -0.0201857 2.3591e-22)
(0.661637 0.111544 2.02444e-21)
(0.768911 -0.0654203 0)
(1.0182 -1.85311e-05 6.9353e-22)
(1.02987 -0.00958859 3.17201e-22)
(1.0185 -0.00590367 -2.61427e-22)
(1.04405 -0.00322896 3.76871e-21)
(1.01788 0.000314286 0)
(1.07783 -0.0402377 -3.82353e-22)
(1.03679 -0.00417093 5.03971e-21)
(1.02019 -8.41598e-05 0)
(1.07772 -0.00591283 1.5731e-20)
(1.10083 -0.00207364 0)
(1.0177 0.00373135 -9.24857e-24)
(1.0311 0.000388306 0)
(1.02624 -0.00692057 0)
(1.02047 -0.000949402 0)
(1.02029 -4.29011e-05 8.36493e-22)
(1.03484 -0.0209825 -3.58419e-22)
(1.01561 -0.00101516 0)
(1.02683 0.000621883 0)
(1.05249 -0.0102938 -1.00868e-21)
(1.06595 -0.0412621 0)
(1.01817 -1.74927e-05 -4.92479e-22)
(1.01952 -7.88269e-05 0)
(1.10207 0.00537826 -1.6046e-20)
(1.05465 -0.0175784 -2.51098e-21)
(0.829164 -0.0537273 -3.87836e-22)
(1.07916 -0.00577834 -2.06474e-20)
(1.0384 -0.00961821 -1.96143e-21)
(1.06977 -0.00323161 -8.05604e-21)
(1.09166 -0.0165404 0)
(1.04913 0.00794719 -3.05507e-21)
(1.0231 -0.00231786 8.76194e-23)
(1.02053 -0.00127546 1.01274e-21)
(1.01869 -5.09791e-05 0)
(1.01984 0.000107648 0)
(1.02058 4.92342e-05 5.33982e-22)
(1.0179 -0.00260413 0)
(1.05524 -0.0169787 0)
(1.04574 0.000644001 0)
(1.01873 -5.67543e-05 0)
(1.02078 0.00079245 -1.54176e-22)
(1.04671 -0.0189602 6.83548e-21)
(1.01519 -0.00428263 3.21349e-22)
(1.01985 2.38543e-05 0)
(1.02684 -9.39099e-05 1.49325e-21)
(0.878828 -0.0344968 -7.84954e-22)
(1.04898 -0.0440911 -7.72812e-21)
(1.04292 -0.00524656 0)
(1.0207 0.000701129 -2.52447e-22)
(0.880988 -0.13005 -1.43468e-21)
(1.02061 -0.000888371 0)
(1.03211 -0.00517434 1.80493e-21)
(1.01827 1.10238e-05 0)
(1.02044 -0.000484948 -3.28137e-22)
(1.05252 -0.00127997 -4.38964e-21)
(1.02075 0.000553442 0)
(1.09273 -0.0413882 5.26644e-21)
(1.01945 -2.88758e-05 -3.4532e-22)
(1.02427 -0.00491609 -5.12437e-22)
(1.05052 -0.00913014 0)
(0.957438 -0.0200371 -4.06349e-22)
(0.0184709 0.0299075 3.10741e-20)
(1.0545 -0.0406394 0)
(1.03542 0.00483283 8.59705e-22)
(1.02007 6.58828e-05 2.29355e-22)
(1.0257 0.00129522 0)
(1.09545 -0.0431487 1.46124e-22)
(1.02769 -0.00177766 6.17946e-22)
(0.933293 -0.0785037 1.00627e-22)
(1.03184 -0.00724488 1.07031e-22)
(1.02 5.72048e-05 3.5664e-22)
(1.03216 -0.0181998 0)
(1.0322 -0.00716707 -1.14518e-22)
(1.01987 5.56499e-05 0)
(1.02087 -2.30193e-05 9.1576e-22)
(1.02009 5.69238e-05 0)
(1.03141 -0.00839723 1.59461e-21)
(1.04363 -0.0582029 -9.96241e-22)
(1.02745 -0.00306422 8.43354e-22)
(1.02365 0.00284226 2.92495e-23)
(1.06254 -0.00145469 7.41571e-21)
(1.01989 4.66813e-05 -3.57503e-22)
(1.02415 -0.00484838 4.78283e-22)
(1.03109 7.84276e-05 0)
(1.02002 5.22089e-05 -3.60168e-22)
(1.01994 5.45647e-05 0)
(1.02079 -0.00074221 4.53622e-22)
(1.02735 -0.00379651 3.94314e-22)
(1.02579 -0.00696637 -8.97559e-23)
(1.02183 0.00103373 8.80263e-23)
(1.02749 -0.00159303 -3.85845e-23)
(-0.0038938 0.0330762 0)
(1.10185 -0.0659753 1.01974e-20)
(1.02326 -0.00201261 -1.01999e-23)
(1.04329 -0.0137162 -2.96374e-21)
(1.03002 -0.0197714 0)
(1.031 -0.00842395 0)
(0.95942 -0.0129841 -8.78717e-22)
(1.01972 9.23801e-05 -3.20897e-22)
(1.05204 0.0118232 0)
(0.940887 -0.107184 0)
(1.02605 -0.00713809 2.11499e-22)
(1.02045 -0.00116948 0)
(1.10098 -0.0629176 -1.13329e-20)
(1.02005 5.67283e-05 -3.49334e-22)
(1.04419 -0.0042919 0)
(1.02092 -0.00029652 0)
(1.06199 -0.00209681 -6.32744e-21)
(1.02038 -0.00113873 -5.08765e-22)
(1.01995 5.20641e-05 0)
(1.01933 -0.00112504 0)
(1.02058 -0.000346451 0)
(1.02358 0.00267847 1.48235e-23)
(1.04853 0.00749427 0)
(1.05217 -0.0122396 0)
(1.04666 -0.0242397 -2.44911e-21)
(1.05052 -0.0127492 6.98255e-21)
(0.877854 -0.113269 0)
(1.01943 3.40068e-05 9.99517e-22)
(1.02006 -0.000127025 0)
(1.08912 -0.00926455 3.4735e-20)
(1.01646 -0.0131928 0)
(1.02049 -0.00037767 0)
(1.0366 -0.00365467 -3.00443e-21)
(1.02051 -0.000526426 0)
(1.0184 4.38112e-05 0)
(1.10976 -0.0394657 0)
(1.02202 -0.000532105 5.6743e-22)
(1.0227 -0.00218136 1.4784e-22)
(0.933673 -0.166545 1.76978e-21)
(1.11007 -0.00507914 -5.38585e-21)
(0.971745 -0.0434522 2.03404e-20)
(1.0461 -0.0255838 2.62279e-21)
(0.788326 -0.0743743 -1.00282e-22)
(1.04508 -0.0358067 -3.39508e-21)
(1.02196 -0.000617364 5.66878e-22)
(1.02776 -0.0147269 -4.46625e-22)
(1.02313 -0.00196249 -1.4636e-22)
(1.02317 -0.00296729 0)
(1.04269 -0.013966 2.78783e-21)
(1.02796 -0.0245148 7.26183e-22)
(1.02079 0.000644357 0)
(1.0213 -0.00918203 2.59982e-22)
(0.989615 -0.102897 1.46878e-20)
(0.967177 0.0262459 -2.86953e-21)
(1.10305 -0.0412577 3.08599e-21)
(1.01808 -3.65845e-05 -8.84771e-23)
(0.100704 0.0200868 -8.19297e-21)
(1.02035 -0.00014457 6.30623e-22)
(1.02285 -0.0022619 -1.20646e-22)
(0.968179 -0.0390961 3.08711e-22)
(1.02804 -0.00368933 -7.45343e-22)
(1.02795 -0.00522335 -6.01274e-22)
(1.01973 -1.01512e-05 3.71167e-22)
(1.03254 -0.00649868 -9.64489e-22)
(1.02687 -0.0145579 -6.9873e-22)
(0.111344 0.017335 5.50551e-20)
(1.017 -0.0257217 2.04956e-22)
(1.04842 -0.0011528 -8.52883e-23)
(1.10269 -0.00891725 -1.67182e-20)
(1.01589 -0.0133761 5.39096e-22)
(0.782535 -0.0554063 2.89811e-23)
(1.03632 -0.00125643 -2.97719e-21)
(0.907018 -0.126762 1.01191e-21)
(1.04 -0.00898896 -1.43303e-21)
(1.02319 -0.00228564 8.10808e-23)
(1.11599 -0.0239322 -1.16822e-20)
(0.951582 -0.00781028 1.1262e-20)
(1.02166 0.000121627 -1.6071e-22)
(1.04319 -0.0351082 4.16073e-21)
(1.03017 -0.00470195 1.22992e-21)
(0.0821022 0.0217721 -5.18692e-20)
(1.02047 -0.000397074 3.88236e-22)
(1.04981 0.00769116 0)
(1.01991 -2.24267e-05 8.48239e-23)
(1.02002 -0.000188059 2.54526e-22)
(0.956043 0.0441458 -1.65378e-21)
(1.02887 -0.0126804 -5.33967e-22)
(0.937105 0.0499568 0)
(0.719245 0.089988 -5.64529e-21)
(1.02359 0.00022282 -9.90732e-23)
(1.03216 -0.0066273 1.70049e-21)
(1.03618 -1.21207e-05 3.19111e-21)
(1.02107 -0.000408256 0)
(1.12311 -0.00887184 -3.33195e-22)
(0.728127 -0.0423791 3.44535e-21)
(1.01973 -0.000164018 -4.68008e-24)
(1.01611 -0.0020896 0)
(1.04434 0.00763079 1.51619e-21)
(0.92474 -0.156373 0)
(1.05217 -0.0174013 0)
(1.01875 -0.00165356 0)
(0.878332 -0.109877 2.53232e-23)
(1.03418 0.00257379 8.37154e-22)
(1.04574 -0.00799009 5.67114e-21)
(1.02762 -0.00391066 0)
(0.954902 0.0304663 -1.72707e-21)
(1.06421 -0.0358649 -1.468e-21)
(1.07034 -0.031781 3.81956e-21)
(1.02676 -0.00505654 -4.15616e-22)
(1.01759 -0.00489625 8.92665e-22)
(1.04373 0.00665991 3.92185e-21)
(0.829758 -0.203191 0)
(1.12497 -0.0109607 1.13022e-20)
(1.05703 -0.0395039 0)
(1.10126 -0.000131939 -3.87262e-22)
(1.10364 -0.0125446 -8.09626e-21)
(1.05475 0.00258569 5.08597e-21)
(1.01876 -0.00181276 0)
(1.03515 0.00512146 9.19585e-22)
(1.01775 -0.00621986 8.47538e-22)
(1.05693 -0.0195349 0)
(1.0573 0.0112093 0)
(1.01934 -1.94034e-05 1.08859e-21)
(1.02049 4.55172e-05 -7.96056e-22)
(1.02051 -0.00125388 -6.36727e-22)
(1.03392 0.0108238 -1.33831e-21)
(1.03948 -0.0111101 -2.23647e-21)
(1.05722 0.0104453 5.92394e-21)
(1.02604 -0.0100489 -4.6613e-22)
(1.02651 -0.00704648 0)
(0.752022 0.0837166 8.60871e-21)
(1.02062 -0.000615068 -1.92275e-22)
(1.02199 0.0001363 9.66143e-23)
(0.867923 0.130088 -2.35588e-21)
(1.05212 -0.0175088 0)
(1.1083 -0.0291123 6.18338e-21)
(1.01579 -0.0912499 3.88524e-22)
(1.0505 -0.00640665 4.34516e-22)
(0.909758 -0.158591 0)
(0.956226 0.057904 0)
(0.973488 -0.13856 -3.21753e-22)
(0.847726 0.143673 0)
(1.01864 0.00222855 4.87141e-22)
(1.02169 -0.000325815 -1.02876e-21)
(1.04774 -0.0385935 -3.14088e-22)
(1.02085 -0.00130612 2.36121e-22)
(1.03091 -0.00897108 0)
(0.980269 -0.00848795 1.17047e-20)
(1.02951 0.00190312 0)
(1.02016 6.27871e-05 -6.40916e-22)
(1.0269 -0.012574 0)
(1.02028 -3.30066e-05 3.2753e-22)
(1.02097 -2.17204e-05 -9.85319e-22)
(1.0188 -5.73708e-05 0)
(1.02091 -0.00138134 -2.29323e-22)
(1.03047 -0.0090202 -1.19281e-21)
(1.10608 -0.00394363 -1.75981e-20)
(0.968422 0.0590322 0)
(1.01989 -0.00558301 9.73025e-22)
(1.01958 2.89535e-05 -8.87956e-22)
(1.03047 -0.00453089 1.36751e-21)
(1.11191 -0.0183583 0)
(1.02342 4.14728e-05 8.82159e-23)
(1.03118 0.00893727 0)
(0.353858 -0.0232028 -3.93323e-20)
(1.02812 -0.00450708 0)
(1.02937 -0.008336 -2.35455e-22)
(1.03077 -0.0229822 6.75356e-22)
(1.05786 -0.112194 -2.48545e-20)
(1.02172 -0.000421121 7.07005e-22)
(1.0228 -0.00811027 -4.46138e-22)
(1.06572 -0.037741 0)
(1.02824 -0.0154266 -4.43433e-22)
(1.02424 0.00394365 -3.45387e-22)
(1.0307 -8.56223e-06 0)
(1.01593 -0.00563459 -1.019e-21)
(1.02091 0.00023569 0)
(1.05496 0.00319879 -5.57883e-21)
(1.05233 -0.0243379 -5.72075e-21)
(1.0202 0.000264886 0)
(1.02445 -0.00959405 0)
(1.02343 -3.73431e-05 1.11511e-22)
(1.09448 -0.117175 1.07862e-20)
(1.10438 -0.0103019 2.5804e-20)
(1.02185 0.000124385 0)
(1.04737 -0.0554167 -3.29554e-21)
(1.02074 0.000869323 1.36869e-22)
(0.970334 -0.0120605 2.97937e-21)
(1.02013 0.000249318 0)
(1.03167 -0.00505062 -1.60212e-21)
(1.04615 -0.00745493 -1.10461e-21)
(1.0188 -8.49509e-05 8.93252e-23)
(1.01961 -0.000231831 -2.41376e-22)
(1.10169 0.00355143 0)
(1.01882 0.00110309 -1.63324e-21)
(1.01614 -0.00455803 6.82056e-23)
(1.02252 -0.00984386 -2.50081e-22)
(1.01929 -0.000155628 -5.54115e-22)
(1.06966 -0.0352126 0)
(1.02284 0.00278687 0)
(1.04239 0.00735572 -2.514e-21)
(1.01974 -5.21993e-05 -6.27416e-22)
(1.02043 6.00378e-05 -4.41951e-22)
(1.09749 -0.134826 -7.67728e-21)
(1.01913 -2.18392e-05 0)
(1.02052 -0.000202817 -9.11252e-22)
(1.0505 -0.023291 1.76784e-21)
(1.02933 -0.00406213 -1.1967e-21)
(1.01781 0.00112409 -1.02537e-21)
(1.04325 0.000199699 0)
(1.02045 6.15802e-05 0)
(1.02144 -0.00331022 0)
(1.02361 0.000113448 -1.07115e-22)
(1.0198 -0.000216548 -2.29242e-22)
(1.04259 -0.0150423 0)
(0.992452 0.0562569 3.30324e-22)
(1.02005 3.27011e-05 -4.48854e-22)
(1.0485 -0.0228166 4.05261e-21)
(1.03133 -0.00528808 0)
(1.02284 -0.0104864 0)
(1.02366 -0.00204137 1.06232e-23)
(1.04274 0.000512955 0)
(1.0232 -0.00181076 -9.09663e-24)
(1.03034 -0.00955167 3.99415e-22)
(0.913002 -0.0416012 -7.88585e-21)
(1.02662 -0.0137113 6.00545e-22)
(0.876986 -0.0673212 2.51242e-21)
(1.01239 -2.11729e-05 0)
(1.02894 -0.00839468 1.11065e-21)
(1.0196 -0.000174921 0)
(1.02037 -0.000163061 0)
(1.04785 -0.00890642 -2.82257e-21)
(0.971965 -0.00619156 -2.85739e-21)
(1.01722 -0.0145719 0)
(0.866887 -0.157607 2.36435e-22)
(1.0365 -0.000840276 0)
(1.02 3.96534e-05 1.04114e-21)
(1.0879 -0.0462127 2.23817e-22)
(1.03066 -0.000309827 1.4101e-21)
(1.02136 -0.000245191 4.52769e-22)
(1.04302 -0.0153357 0)
(1.03916 -0.0409081 -2.3976e-21)
(1.10526 -0.0141141 -1.74414e-20)
(1.04817 -0.0220879 -4.31044e-21)
(1.02378 -0.00414095 0)
(1.03979 -0.000537321 -1.49699e-21)
(1.02814 -0.00388377 3.34317e-22)
(1.02018 -4.56952e-05 0)
(1.04988 -0.048329 0)
(1.02133 -0.00317609 0)
(1.02021 -0.0220104 -1.79237e-22)
(1.0261 0.00182317 0)
(0.930262 0.0718674 0)
(1.03487 0.00424393 9.72792e-22)
(1.02475 -0.0561132 -3.16096e-22)
(1.04347 0.00757184 1.22549e-21)
(1.04286 -0.0241088 -1.37568e-21)
(1.05134 0.0113606 -9.40191e-22)
(1.02368 -0.00366695 0)
(0.835157 -0.197633 0)
(1.02048 -0.000246662 1.9879e-22)
(1.05672 0.00136704 -8.08609e-21)
(1.02729 -0.00352905 2.42073e-22)
(1.0162 -0.0246943 0)
(1.05226 -0.00199947 8.23974e-21)
(1.02427 9.35926e-05 0)
(1.03955 -0.000940805 1.2e-21)
(1.10988 -0.0117464 6.12939e-21)
(1.09867 -0.0488412 -1.57017e-20)
(1.02379 -5.816e-05 -1.01128e-21)
(1.12766 0.00915029 -5.84561e-20)
(1.02043 -0.000265881 3.85606e-22)
(1.10036 -0.131839 9.44543e-21)
(0.995086 -0.127921 0)
(1.08985 -0.0434376 -1.72115e-20)
(1.02015 6.87439e-05 0)
(1.02697 -0.00691908 8.69364e-22)
(0.906391 -0.0359739 9.36913e-21)
(1.02822 -0.00518034 0)
(1.02028 2.12315e-05 -4.86765e-22)
(0.947418 0.0399461 -5.34977e-22)
(1.02128 -0.0251051 -1.4801e-22)
(1.01405 -0.00893536 -1.34439e-21)
(1.01976 -0.000106715 1.3693e-22)
(1.03853 -0.0103491 1.76433e-21)
(1.0233 -0.00342384 0)
(1.05489 -0.0440543 1.02156e-20)
(1.01827 -8.18494e-05 -1.08803e-21)
(1.02604 -0.00382286 6.92454e-22)
(0.985204 -0.0648123 2.53007e-22)
(1.0198 7.27003e-05 0)
(1.02343 -0.00354119 5.96536e-23)
(1.02455 0.00399638 -2.59842e-22)
(1.01689 -0.00491086 2.71188e-21)
(1.01677 -0.0169854 -1.93577e-22)
(1.0195 -3.4477e-05 1.30768e-21)
(1.01797 -0.025716 1.49557e-22)
(1.02302 -0.00286782 -1.41155e-22)
(1.0145 -0.0513233 3.64337e-22)
(0.969544 0.0615649 0)
(1.02471 -0.000852733 0)
(1.02021 1.12998e-05 -1.41092e-24)
(1.0162 0.00334978 -5.35088e-22)
(1.03713 -0.0398049 3.5914e-21)
(1.03579 -0.00321056 0)
(1.01973 1.84748e-05 -7.12124e-22)
(1.02592 0.000720534 0)
(0.979807 0.0422288 -2.11189e-21)
(1.02311 -0.00214944 0)
(1.04604 -0.00860043 0)
(1.04789 0.00786202 0)
(1.02014 -1.24923e-05 4.07073e-22)
(1.03748 -0.00322696 2.0019e-21)
(1.01982 -4.7587e-05 1.30412e-21)
(1.02022 -6.17868e-06 -1.99759e-22)
(1.01969 8.76679e-05 -3.20038e-22)
(1.00596 0.0704258 0)
(1.02067 0.000149813 0)
(1.05292 -0.00710119 9.1609e-21)
(0.94553 0.0873627 0)
(0.996343 0.0813669 4.44872e-22)
(0.407943 -0.0258818 5.51879e-20)
(1.02681 -0.00307267 1.33795e-21)
(1.0194 -0.000496738 7.19257e-22)
(1.02139 -0.000324453 1.07157e-21)
(1.0246 -0.000937404 -1.87797e-22)
(0.938443 0.0720709 1.09911e-22)
(1.02044 -5.04278e-05 1.91012e-22)
(1.01946 5.40647e-05 -9.80612e-22)
(1.12563 0.00880038 0)
(1.02037 -0.000227768 3.44345e-22)
(1.02012 5.8833e-05 -2.1098e-22)
(1.0179 0.00463425 0)
(1.01997 -6.15229e-05 0)
(1.0167 0.00459337 1.62638e-21)
(0.670164 0.0399232 0)
(1.02042 -0.000333566 4.14467e-22)
(1.01677 -0.00378897 -2.71152e-21)
(1.02318 0.0047785 -3.47651e-24)
(1.02703 -0.00342286 -3.79633e-22)
(1.03664 0.00011495 0)
(0.992761 0.104341 -1.24809e-23)
(1.02047 3.23948e-05 -6.24538e-22)
(0.792482 -0.0308851 0)
(1.01293 0.0191384 5.10737e-22)
(1.02148 -0.000397966 -7.10584e-22)
(0.92793 0.00619128 4.82007e-22)
(1.01986 7.82809e-05 -1.9649e-22)
(0.99637 -0.0297189 2.83612e-22)
(1.01779 -0.0035126 -5.05852e-22)
(1.00634 0.0950459 -1.73187e-22)
(1.02284 -0.00146323 7.68082e-23)
(1.02634 0.00591939 4.60388e-22)
(1.02217 -0.0001205 1.09318e-23)
(1.02119 -0.000461501 0)
(0.949088 -0.077752 1.95582e-22)
(1.01901 -0.00205616 2.91518e-23)
(1.01654 -0.00412966 -5.38179e-22)
(1.01991 -0.000183376 4.75535e-22)
(1.08211 -0.0415162 0)
(1.02198 -0.000152386 -1.03326e-23)
(1.07473 -0.0293274 1.49755e-20)
(1.01827 -0.0138695 1.98582e-22)
(1.02324 -0.00213043 -4.82827e-23)
(1.01353 -0.000113212 -3.78872e-22)
(1.10171 -0.0469203 -1.8846e-20)
(1.05434 0.0037668 1.25662e-22)
(0.894806 0.00295028 0)
(1.01925 -0.000101213 1.29598e-21)
(1.08722 -0.0419155 0)
(1.02086 0.000321198 -9.46566e-25)
(1.05498 -0.00224308 1.41992e-21)
(1.0674 -0.0141176 -2.7267e-21)
(1.04265 0.0681583 1.75457e-21)
(1.01628 0.0144822 -2.3594e-21)
(1.07768 -0.0187953 0)
(1.02073 0.000300637 3.09749e-22)
(1.02962 -0.00356137 1.25025e-21)
(1.01903 -0.000509952 -3.50232e-23)
(1.04325 -0.0530319 -8.25365e-21)
(1.02099 0.000293644 2.5745e-22)
(1.01199 -0.0453329 -1.15269e-21)
(1.01985 -8.03428e-06 -8.45555e-23)
(1.00212 -0.0352014 3.58899e-22)
(1.01976 3.6598e-05 5.25857e-22)
(1.0197 1.38517e-05 -7.87521e-22)
(1.02327 -0.00387527 -4.06795e-22)
(1.0293 -0.0035463 -1.0327e-21)
(1.02625 0.005363 -4.91584e-22)
(1.01733 -0.00181859 0)
(1.00748 -0.0500429 -4.055e-21)
(1.06644 -0.0136145 0)
(1.05329 -0.0722289 1.73524e-21)
(1.02387 0.00516097 4.29713e-22)
(1.12062 -0.00894066 -1.53065e-20)
(1.02625 -0.00227391 -6.6359e-22)
(1.02366 -0.00412701 3.18558e-22)
(1.01285 0.0160421 0)
(1.0201 -6.17679e-05 -2.00903e-22)
(1.02312 -0.00183111 -2.11444e-23)
(1.03776 -0.00272865 -5.19497e-22)
(1.01962 1.13018e-06 0)
(0.949255 -0.108708 0)
(1.05601 -0.0534519 -1.34842e-21)
(1.03257 -0.0984112 0)
(1.02448 -0.00406814 1.09197e-22)
(1.02035 1.21209e-05 0)
(1.02533 -0.00766508 0)
(0.931667 -0.00813915 6.25041e-22)
(1.01997 2.29672e-05 -4.38559e-22)
(0.888339 -0.115899 -8.2388e-22)
(1.0527 -0.0025268 0)
(1.01885 -0.000275244 2.76315e-23)
(1.02047 2.16737e-05 -9.1272e-22)
(1.02036 0.000281572 0)
(1.02343 -0.00411905 1.62756e-22)
(1.02034 4.08135e-05 -3.89757e-22)
(1.03022 -0.0050674 -1.21176e-21)
(1.0557 -0.0173411 -5.55529e-23)
(0.98953 -0.00367452 0)
(1.02445 0.00620385 0)
(0.902552 -0.144232 2.80939e-22)
(1.02095 0.000297267 -7.24687e-22)
(1.02052 -0.00112121 -3.49444e-22)
(1.02521 -0.0542993 -4.55973e-21)
(1.08757 0.00994005 0)
(1.02166 -0.000289598 5.68583e-22)
(0.909262 -0.0635898 3.91836e-21)
(1.10348 0.00245783 0)
(1.04381 0.00718103 0)
(1.02068 5.36186e-05 4.84906e-22)
(1.02644 -0.0778489 0)
(1.01604 0.0119558 1.95699e-21)
(1.02019 -0.000158994 0)
(1.01665 -0.0123641 6.66511e-23)
(0.944276 -0.00728632 -7.42436e-22)
(1.02049 0.000301762 -3.03832e-22)
(1.04373 -0.0708388 2.88783e-22)
(1.02085 -0.000913284 -4.70327e-22)
(1.04237 0.00145142 -6.81598e-21)
(0.879413 -0.0865572 6.46028e-23)
(1.03941 -0.0498047 -1.30899e-20)
(1.01996 1.06301e-07 2.19826e-23)
(0.148569 -0.0779073 -1.19339e-20)
(1.02036 6.06814e-05 0)
(1.02698 -0.00557848 -4.03328e-22)
(1.03992 -0.00274875 0)
(1.02694 -0.0075453 -1.81649e-22)
(1.09529 -0.017572 2.47277e-20)
(1.04015 -0.00232336 3.09904e-21)
(0.99482 -0.0532615 0)
(0.68531 0.0763403 -3.16782e-21)
(1.02657 -0.00592193 8.03059e-22)
(1.05952 -0.0418766 7.22515e-21)
(1.12841 0.0109789 5.1365e-20)
(1.04574 -0.0463696 0)
(1.03207 0.00167531 -3.49784e-23)
(1.02039 5.06168e-05 0)
(1.03589 0.0900078 1.04641e-21)
(0.980686 -0.00712639 -1.85546e-22)
(1.02184 -7.23573e-05 -8.33871e-23)
(1.02644 0.00517648 0)
(1.09904 -0.0213264 0)
(1.02012 -4.87397e-05 -9.91671e-22)
(1.01734 -1.20652e-05 4.16077e-22)
(1.02371 -0.00446111 -3.94312e-22)
(1.0287 -0.000270059 -2.43164e-22)
(1.03803 0.00417691 -2.68048e-21)
(1.03804 0.00325091 -3.10089e-22)
(1.04286 0.00121917 -1.17143e-22)
(1.0336 -0.00482374 0)
(1.02848 -0.00730454 0)
(1.02801 -0.00661347 5.1953e-22)
(1.01944 4.58635e-05 3.36013e-22)
(0.971981 0.0400031 2.47045e-21)
(1.02068 -0.000571978 -4.05231e-22)
(1.02349 -0.00200652 -8.45961e-24)
(0.991733 -0.000679555 -6.64676e-22)
(1.02039 -0.000164612 -3.64516e-22)
(1.02094 0.000291758 0)
(0.982843 -0.00311063 0)
(1.02274 0.00262299 -4.2522e-25)
(1.02035 -0.000246883 3.48782e-22)
(1.02045 -0.000256864 -5.2844e-22)
(1.10803 -0.0591131 6.6051e-21)
(1.02004 -6.20893e-05 0)
(1.02169 -0.00991268 3.7587e-22)
(1.01825 8.98955e-05 -6.61472e-22)
(1.02016 -7.83311e-05 0)
(1.01899 -0.000483179 4.40805e-23)
(1.01858 0.0107307 0)
(1.13774 0.00908705 0)
(0.983264 0.0462548 -3.27831e-22)
(1.02064 -0.00108691 -4.01967e-22)
(1.02112 -0.00213982 -3.08136e-24)
(1.02359 -0.00332072 0)
(1.04707 -0.0081114 -4.77599e-21)
(1.02919 -0.00375652 0)
(1.02164 0.00126937 -1.47869e-23)
(1.04253 0.00551766 -3.01688e-21)
(1.02052 -0.000804955 4.08469e-22)
(1.02437 -0.000782097 6.05423e-22)
(1.01944 -0.000548327 0)
(1.01514 -0.00815098 1.34499e-21)
(1.02053 0.0018105 -1.26303e-21)
(1.02926 0.00204631 -3.66902e-22)
(1.04442 -0.112988 -4.94715e-21)
(1.02194 -7.10907e-05 0)
(1.02823 0.000407581 0)
(1.03092 -0.00509932 3.63842e-23)
(1.02035 -8.40696e-05 -3.38521e-24)
(1.02094 -0.000276469 1.53467e-22)
(1.02185 -0.00671562 0)
(1.05651 0.0117996 -8.29071e-23)
(1.01387 -0.016958 0)
(1.02052 -0.000574702 0)
(1.0735 -0.0382798 0)
(1.04296 -0.0829618 -2.37521e-21)
(1.02371 -0.00332865 1.79215e-22)
(1.11092 -0.00975538 2.10324e-20)
(1.02956 -0.00918217 6.2549e-22)
(1.02106 -0.000800148 3.90929e-22)
(1.08062 -0.0290241 -1.72696e-20)
(1.038 0.0739304 4.3799e-21)
(1.0788 -0.0255113 -2.56684e-20)
(1.01945 2.63193e-05 0)
(0.989926 -0.101579 4.47531e-21)
(1.02832 -0.00662136 7.47187e-22)
(1.024 -0.00090261 5.98546e-22)
(1.03276 -0.0059577 0)
(1.04707 0.0527407 -4.19522e-21)
(1.02202 -0.000821595 -1.38308e-22)
(1.05191 -0.000168735 -4.87878e-21)
(1.01825 0.00880885 0)
(1.04782 0.00856443 3.38593e-21)
(1.02144 -8.31348e-05 0)
(1.02022 -0.00223606 2.7154e-21)
(1.05433 0.0050026 0)
(1.03802 0.004638 0)
(1.02004 3.09089e-05 -1.5153e-23)
(0.974498 -0.0721827 2.57461e-22)
(1.02341 -0.00398899 -1.70766e-22)
(1.01997 -2.70239e-05 2.11255e-22)
(1.05239 -0.0032149 -4.56472e-21)
(1.02356 -0.00422576 -9.65151e-23)
(1.01887 -0.000307536 -1.55172e-23)
(1.01251 -0.0157802 -1.02108e-21)
(0.913825 -0.0556529 -3.87053e-21)
(1.02314 -0.00386689 8.42985e-22)
(1.04718 0.00880697 3.19013e-21)
(1.01948 -0.000545441 1.1194e-21)
(1.02301 -0.00373832 -7.35817e-22)
(1.05788 -0.0195866 6.48076e-21)
(1.02119 -0.00306055 0)
(1.02038 6.053e-05 4.46535e-22)
(1.01988 -0.000810644 -2.52404e-22)
(0.986694 -0.138558 0)
(1.05533 -0.0180658 5.34206e-21)
(1.02116 -0.000178561 -6.42545e-22)
(1.04419 -0.00635943 -4.1266e-21)
(1.03892 -0.00926685 -2.19097e-21)
(1.0211 -0.00314652 -1.24492e-21)
(1.04055 0.0159679 0)
(1.02287 -0.00162769 4.51373e-23)
(1.1024 -0.00346825 0)
(0.978136 0.0940192 -4.94454e-22)
(1.02033 -0.000130812 -1.92498e-22)
(1.02038 4.36776e-05 4.49645e-22)
(1.0219 -0.000864697 -1.39411e-22)
(0.952811 -0.0813153 -4.82401e-21)
(1.02155 0.000358968 4.45342e-24)
(1.02141 0.000334267 6.3618e-22)
(1.0192 -0.000309823 3.67907e-22)
(1.05959 -0.0601909 3.37895e-22)
(0.92338 -0.0953773 2.20219e-20)
(0.165878 -0.086638 3.24477e-20)
(1.06539 -0.0336883 1.15361e-20)
(1.02036 -0.000108015 -4.09921e-22)
(1.03358 -0.000654819 1.99204e-21)
(1.0745 -0.0317968 -1.57037e-20)
(1.01925 0.000261157 6.14885e-23)
(1.06786 -0.000159479 -5.2796e-21)
(1.05277 -0.00374402 -9.44937e-21)
(1.04949 -0.0250517 0)
(1.02065 0.0957615 6.93634e-22)
(1.02266 -0.00276195 7.12275e-22)
(1.10328 0.000584074 -4.04885e-22)
(1.04466 -0.0637994 4.34897e-21)
(1.02063 7.12137e-05 0)
(1.02807 0.00291613 1.27707e-22)
(1.04138 0.00666805 0)
(1.021 -0.000735629 0)
(1.05195 -0.0162107 5.07842e-21)
(1.05614 0.00407208 5.28189e-21)
(1.01915 -0.000294679 3.56224e-24)
(1.02054 -0.00136452 -3.09284e-21)
(1.02252 -0.00859323 3.66739e-22)
(1.02009 6.26554e-05 4.37516e-22)
(1.05228 -0.0256726 6.36799e-21)
(1.09066 -0.0144729 2.92467e-21)
(1.02305 -0.0033008 6.9399e-23)
(1.04226 -0.109929 6.31071e-21)
(1.02295 -0.00142659 2.19584e-23)
(1.03294 0.101068 0)
(1.02001 -0.000727628 7.31728e-22)
(1.13973 0.00468468 0)
(1.02082 0.109931 -1.40296e-21)
(1.02018 4.79863e-05 0)
(1.06587 0.00907741 -2.28687e-22)
(1.06156 -0.00684896 7.04514e-21)
(1.02059 -0.000810105 -1.38899e-21)
(0.872141 -0.0902647 -3.44895e-21)
(1.05677 -0.00310722 6.08171e-21)
(1.03321 -0.000557602 -1.82055e-21)
(0.886502 -0.130832 1.39846e-21)
(1.01901 0.000927174 1.5515e-21)
(1.01918 -0.000933479 0)
(1.01987 -3.59222e-06 -9.32396e-23)
(1.02099 -0.000648319 2.48765e-22)
(1.04802 -0.0161863 0)
(1.04603 -0.0505783 2.22103e-21)
(1.02565 -0.00692424 -3.33294e-22)
(1.01995 1.53112e-05 1.21853e-22)
(1.06511 0.00963997 -1.03363e-20)
(1.02859 0.00195002 8.47962e-22)
(1.02069 -0.00142097 1.65172e-22)
(1.06692 -0.000451747 1.15139e-20)
(1.02172 -0.00854299 0)
(1.02022 -0.000141842 -2.41839e-22)
(1.05718 -0.00250004 0)
(1.02372 0.00460408 -7.53518e-23)
(1.05463 -0.0179542 -4.87319e-21)
(1.01889 -1.70536e-05 1.68265e-22)
(1.0205 5.70048e-05 2.22132e-22)
(0.800367 0.062881 -1.49278e-21)
(1.03636 0.0764524 0)
(1.04828 -0.0148859 -1.21718e-22)
(1.10503 -0.0685873 0)
(1.01966 -0.000637083 -5.11205e-22)
(1.09898 -0.0291782 1.02984e-20)
(1.02045 -0.00107193 3.39194e-22)
(0.712751 0.0162351 -5.85236e-21)
(1.02781 0.00275888 1.18012e-22)
(1.01974 8.81539e-05 9.69463e-22)
(1.05564 -0.0223732 0)
(1.07266 -0.0424705 4.67723e-21)
(1.04786 -0.0251774 -6.10246e-21)
(1.01843 0.00149261 5.17235e-22)
(1.02064 -3.37375e-05 -9.55531e-22)
(1.0193 -0.000990339 8.09972e-24)
(1.12419 -0.0136147 -3.24937e-20)
(1.02117 -0.0022444 9.64083e-22)
(1.12589 -0.0189658 -6.45608e-22)
(1.04284 -0.0161235 -3.18339e-21)
(1.0519 -0.0727753 2.65617e-21)
(1.01463 -0.0547666 0)
(1.02646 -0.00486706 -1.68437e-23)
(1.02218 0.00231902 -2.00509e-22)
(1.02915 -0.122589 0)
(1.02047 -0.00130358 1.19789e-21)
(0.952384 -0.0718211 4.61308e-21)
(1.0238 -0.00367775 0)
(1.02054 -0.00654151 1.06274e-21)
(1.03432 -0.0407719 0)
(1.02223 -0.00205524 -1.65532e-22)
(1.03495 -0.00821379 0)
(1.01219 -0.0246124 1.48127e-21)
(1.02404 -0.00504111 -5.90372e-22)
(1.02682 -0.0365388 3.12888e-22)
(1.02144 -6.7395e-05 -1.2878e-22)
(1.01888 -2.39167e-05 -1.63884e-22)
(1.01937 -0.000460598 7.01821e-22)
(1.02554 0.00238836 7.96229e-22)
(1.03977 -0.00842634 0)
(1.02064 -0.000103943 9.81315e-22)
(0.964376 -0.0614588 2.87277e-22)
(1.02994 -9.75229e-05 0)
(1.02313 0.000824014 6.69491e-22)
(1.01803 0.00285095 1.04167e-21)
(1.03813 -0.0674155 0)
(1.04219 -0.0166167 0)
(1.0197 -0.000702332 5.35216e-22)
(1.04849 -0.0265533 0)
(0.263734 0.000635382 2.4936e-20)
(1.01952 5.0099e-06 5.74005e-22)
(1.02112 0.000195815 0)
(0.176189 0.00917535 8.76783e-21)
(1.04972 -0.0149784 1.22965e-23)
(0.954334 -0.0596861 0)
(1.02414 -0.00173949 0)
(1.03626 -0.0516067 7.87218e-21)
(1.03958 -0.00942179 -1.29205e-21)
(1.01937 -0.000441145 0)
(1.01963 1.89375e-05 0)
(1.01863 0.00560813 0)
(1.02413 -0.00498056 0)
(1.08188 -0.00662149 -1.89316e-20)
(1.02397 -0.0020343 9.42297e-23)
(1.02199 0.00233154 2.55304e-22)
(1.02561 -0.112251 -4.42583e-23)
(1.03251 -0.0427191 -5.49808e-22)
(1.021 0.000348746 1.76824e-22)
(1.05306 -0.00773397 -7.94666e-21)
(1.02073 -0.000771513 8.33551e-22)
(1.00152 0.0544023 0)
(1.02044 -0.00103184 0)
(1.05246 -0.0189828 -2.42853e-21)
(1.0258 -0.0433479 1.39129e-22)
(0.989983 0.108314 3.32554e-21)
(1.02155 8.7158e-06 -1.0177e-22)
(0.98237 -0.142196 0)
(1.02064 -0.00152195 -1.19821e-21)
(1.00837 -0.0391346 9.7515e-22)
(1.01949 -4.95425e-05 1.07034e-21)
(1.02069 -0.00113562 0)
(1.02003 -2.76133e-05 -2.31461e-22)
(1.00248 -0.000166323 0)
(1.02019 -4.74053e-05 2.52988e-22)
(0.964253 -0.0582326 -5.41046e-21)
(1.09065 -0.0111844 -3.22021e-21)
(1.04207 -0.0251549 -2.40876e-21)
(1.02037 -0.000986031 0)
(1.01885 -0.00525242 -1.71144e-21)
(1.04764 -0.00820699 1.04385e-20)
(1.02353 0.000630843 1.29968e-21)
(1.05193 -0.0839282 0)
(1.08421 -0.0434032 0)
(1.01966 2.49075e-05 -7.57076e-22)
(1.02124 -0.000267118 0)
(1.05244 0.000224002 -4.09605e-21)
(1.01984 -5.78761e-05 -4.27979e-24)
(1.05319 -0.0184461 5.21456e-21)
(1.05353 -0.0111585 0)
(1.0198 -0.000761981 -2.70362e-24)
(1.02092 -0.00157763 -1.61168e-21)
(1.02119 -0.000219115 1.261e-22)
(1.02649 0.0056943 5.34267e-22)
(1.02673 0.00441475 -4.13917e-22)
(1.02318 -0.00632627 8.95306e-22)
(1.05095 0.0033576 -4.74435e-21)
(1.01966 -0.0241576 -4.09349e-23)
(1.07732 0.00846061 -7.82208e-21)
(1.02046 -0.000131454 9.86056e-23)
(1.02015 1.78487e-05 -3.05486e-22)
(1.02293 -0.00157665 0)
(1.02108 9.14479e-05 -4.11002e-23)
(0.906464 -0.0228625 -4.4114e-21)
(0.95192 -0.0370014 8.33392e-22)
(1.02912 0.00123861 0)
(1.02595 -0.00105396 -3.84634e-22)
(1.01973 -0.000125506 4.98988e-22)
(1.0529 -0.00496395 -2.88629e-21)
(1.04333 -0.0112885 3.25031e-21)
(1.02085 -0.00157357 0)
(1.02108 -0.0160411 0)
(1.0233 -0.00296695 0)
(1.04587 -0.00689145 0)
(1.02075 -0.000786246 -8.05747e-22)
(1.01719 -0.00432856 -8.92159e-23)
(1.01571 -0.00544345 7.23513e-23)
(1.02056 -0.000633133 3.67382e-22)
(1.02318 -0.00341637 0)
(1.0191 -0.00136536 0)
(0.803371 -0.0943918 0)
(1.02995 -0.0722331 0)
(1.02903 0.00044077 0)
(0.869918 -0.141271 7.20687e-23)
(1.0217 -0.000116273 -7.17323e-25)
(0.95358 -0.0656551 -2.04367e-22)
(1.03929 -0.0105254 2.03184e-21)
(1.01988 5.5446e-05 -1.74182e-24)
(1.02892 0.000611118 6.39408e-22)
(1.03806 -0.00855542 2.34077e-21)
(1.02257 -0.0075408 1.05133e-22)
(1.02254 -0.0519575 4.1356e-22)
(1.05092 0.00297454 2.66634e-21)
(1.02026 -0.00324223 0)
(1.01958 -2.26552e-05 0)
(1.06069 -0.0436249 0)
(0.959064 0.00538375 1.44596e-20)
(1.02008 4.9249e-05 4.64469e-22)
(1.02081 -7.64478e-05 -6.76963e-22)
(1.05248 -0.00459457 -6.41481e-21)
(1.03708 -4.41617e-05 0)
(1.01945 -0.000516541 0)
(0.918316 0.0692429 9.03874e-23)
(1.03605 -0.00362391 4.23683e-22)
(1.02245 0.00255625 0)
(1.02261 -0.00220282 -1.7572e-22)
(1.0266 -0.00646688 4.04321e-22)
(1.02487 -0.00404782 -3.63267e-23)
(1.02145 -0.00236212 -2.1116e-22)
(1.02144 -0.00241539 4.63195e-22)
(1.01993 0.000121154 0)
(1.03903 -0.0114497 0)
(1.02822 -0.00409547 -1.17721e-21)
(1.00447 0.0014891 6.48979e-22)
(1.03321 0.000599262 -1.55658e-21)
(1.01977 -0.00074857 -2.68923e-22)
(1.04917 -0.0291476 -1.57152e-21)
(1.12274 -0.0197007 -2.4691e-20)
(1.05654 -0.0187427 -6.40851e-21)
(1.02021 -0.000368456 -2.33474e-22)
(1.02026 6.05055e-05 6.43726e-22)
(0.872759 -0.129269 -7.73395e-23)
(1.02377 -0.00210818 -2.80505e-23)
(1.06358 0.0107121 0)
(1.02945 0.00165869 5.86561e-22)
(1.02961 -0.000161034 -4.85978e-22)
(1.02008 4.69484e-05 0)
(1.04761 -0.0122905 5.54812e-21)
(1.00276 -0.164653 -3.91437e-21)
(0.691729 0.0547049 2.2496e-21)
(0.923633 0.152286 -5.19604e-21)
(0.0717495 0.0226127 -7.84955e-21)
(1.02767 -0.00419203 0)
(1.02793 0.108843 -1.06146e-21)
(1.02239 0.00242198 0)