/*--------------------------------*- C++ -*----------------------------------*\
| =========                 |                                                 |
| \\      /  F ield         | OpenFOAM: The Open Source CFD Toolbox           |
|  \\    /   O peration     | Version:  v2012                                 |
|   \\  /    A nd           | Website:  www.openfoam.com                      |
|    \\/     M anipulation  |                                                 |
\*---------------------------------------------------------------------------*/
FoamFile
{
    version     2.0;
    format      ascii;
    class       surfaceScalarField;
    location    "350";
    object      phi_0;
}
// * * * * * * * * * * * * * * * * * * * * * * * * * * * * * * * * * * * * * //

dimensions      [0 3 -1 0 0 0 0];
oriented        oriented;


internalField   nonuniform List<scalar> 
27274
(
0.132062
0.031331
-0.163393
0.00618829
-0.0038465
-0.00234179
0.228696
-0.310086
0.0813899
-0.319948
0.517279
-0.19733
0.28929
-0.243617
-0.0456725
0.136863
-0.1263
-0.0105628
0.360754
-0.417603
0.0568494
-0.166251
0.0802766
0.0859747
-0.143224
0.15365
-0.00247389
0.000458183
0.0020157
0.433733
-0.212318
-0.221415
-0.00952563
0.0105832
-0.00105753
-0.0369245
0.0939532
-0.0570287
0.217423
0.0939637
-0.311386
-0.05808
0.283794
-0.225714
0.0348511
0.147753
-0.182604
-0.00843525
-0.00269069
0.0111259
0.0410225
0.247792
-0.288814
-0.296186
0.249307
0.0468785
0.0514235
-0.0353025
-0.016121
-0.118464
0.165222
-0.0467581
-0.0370554
-0.14449
0.181546
-0.00261861
-0.00556299
0.00818161
0.25646
0.0328302
-0.22385
-0.0249496
0.372553
0.038982
-0.411535
-0.422328
0.171675
-0.156347
0.165384
-0.00903717
-0.0100368
0.000444877
0.00959195
-0.214883
-0.0589282
0.273811
0.139741
-0.26868
0.128938
-0.272419
0.109935
0.162484
-0.291919
0.332941
0.209184
-0.529425
0.320241
-0.0521018
-0.0792309
0.131333
0.166561
-0.0344993
-0.215786
0.0828563
0.0667802
-0.110928
0.0441476
-0.199865
0.0435185
0.420006
-0.309878
-0.110128
-0.0243767
0.241799
-0.0982691
0.0722896
0.0259795
0.308991
-0.0802947
0.000772088
-0.000367226
-0.000404862
-0.524854
0.363125
0.161729
0.0826525
-0.0158722
-0.127409
0.151761
-0.0243519
0.0631637
0.10628
-0.169444
0.129376
-0.154034
0.0246579
-0.479257
0.210705
0.268552
-0.41639
0.0846778
0.331712
0.188782
0.128567
-0.317349
0.286816
0.170936
-0.457752
0.00683747
-0.0165031
0.00966564
-0.0808444
0.384508
-0.303663
-0.461226
0.487021
-0.0257954
0.0761872
-0.128368
0.052181
-0.197109
0.139029
-0.0238332
0.0155487
0.00828454
-0.0463442
0.118364
-0.0720202
-0.241007
-0.23825
0.145826
-0.156045
0.0102194
0.0620167
-0.355061
0.293045
-0.00553604
-0.118753
0.124289
-0.000545747
-0.00897988
-0.142213
0.173544
-0.00818561
0.00659534
0.00159027
-0.118939
0.123759
-0.00482052
-0.237361
0.162293
-0.199348
-0.137226
0.104882
0.0323437
0.560134
-0.320365
-0.23977
-0.105439
0.0590943
0.400507
-0.283575
-0.116932
-0.086364
-0.0798872
0.0626326
0.298121
0.0399723
-0.019934
-0.0200383
0.28488
-0.245712
-0.0391679
0.0261233
0.158991
-0.185114
0.18272
0.156783
-0.339503
-0.338794
-0.0788092
0.0716687
0.015498
-0.0871667
-0.171744
0.0532806
-0.126716
0.011569
0.115147
0.0552105
0.317342
-0.0917318
0.0548073
-0.00265326
0.0120253
-0.00937204
0.0267664
0.0246572
-0.0115955
0.00155866
0.0105491
0.00460392
-0.015153
-0.0622106
0.111769
-0.0495583
-0.441023
-0.0838314
0.480504
-0.165834
-0.31467
-0.297882
-0.119625
0.417507
-0.0106449
0.0106449
-0.00607304
0.00345443
-0.360654
0.245455
0.115199
0.213598
-0.21674
0.00314209
0.0139246
-0.00708715
-0.00750007
0.00871795
-0.00121788
-0.00932142
0.0108009
-0.00147943
0.0107821
-0.0082885
-0.00249359
-0.176135
0.12223
0.0539049
-0.0883263
0.0490913
0.039235
0.303217
-0.22286
-0.0803566
-0.064423
0.115949
-0.0515255
-0.0120145
0.0122305
-0.000215979
-0.0271056
-0.0632122
0.0903178
-0.00390933
-0.117789
0.121699
-0.0368686
0.017119
-0.317567
0.113267
0.2043
0.15945
-0.207746
0.0482955
-0.435895
0.0654175
0.370477
-0.014344
0.173794
0.0101326
0.00483125
-0.0149638
-0.411503
0.549487
-0.137984
-0.0103863
0.0118725
-0.00148618
0.0215378
0.0184345
-0.0154797
0.0143327
0.00114698
-0.146795
-0.0293399
-0.000406338
-0.00206755
0.0403168
0.0476456
-0.0879624
0.210649
0.074231
-0.102705
-0.0345209
-0.14212
-0.218534
-0.0903307
0.0632251
-0.153808
0.34259
0.2808
0.194554
-0.475354
0.0392965
-0.0814827
0.0421862
-0.413857
0.115975
-0.307028
-0.109362
0.0808116
-0.0692357
-0.0115759
-0.0231835
0.13045
-0.107266
0.192431
0.0211666
0.0793214
-0.10999
0.0306683
-0.171453
0.452253
-0.193348
0.00856756
0.18478
0.274774
0.158959
-0.217029
-0.0495418
0.26657
0.060077
-0.123063
0.062986
-0.000523647
-0.00879777
0.00780023
0.0021804
-0.00998062
-0.215749
-0.0398831
0.255633
-0.267136
-0.0504308
-0.0257801
0.0210628
0.00471736
0.258513
-0.108511
-0.150002
-0.157449
0.0429674
0.114481
0.00571419
0.0035837
-0.00929789
-0.130617
0.209473
-0.0788563
0.00940289
-0.0036887
-0.141608
-0.120817
0.262424
0.114022
0.0410864
-0.0931882
-0.0156988
-0.00813445
0.109611
-0.134296
0.0246846
0.0351959
0.424873
-0.460069
0.0657794
0.0150323
-0.00476007
-0.0107197
0.350247
-0.315051
-0.148774
0.0404906
0.108283
0.00558733
-0.122967
0.11738
-0.0303717
0.191233
-0.160861
-0.138849
0.0180241
0.120825
0.2202
-0.0277694
-0.0514617
0.103414
-0.0519518
0.0303083
0.00953018
-0.0398385
-0.0062736
0.0125504
-0.00627676
-0.175794
0.145616
0.0301776
0.112661
-0.0506626
-0.0619986
-0.345192
0.321007
0.0241848
-0.0139805
0.00935422
0.00462627
0.000815536
-0.00385904
0.00304351
0.000127176
-0.380874
0.380747
-0.3691
-0.0192195
0.38832
-0.158414
0.193266
-0.000748259
0.00475394
-0.00400568
0.141428
-0.14954
0.00811198
-0.36211
0.0237135
0.338396
0.0920224
-0.0527259
-0.0111646
-0.0138235
0.024988
0.0434798
0.0122269
-0.0557067
0.0603956
0.0522655
0.199578
-0.201072
0.00149479
-0.442829
0.369983
0.0728459
0.102233
-0.0461833
-0.0560495
-0.00338533
0.00693217
-0.00354684
-0.00433408
0.0142913
-0.00995725
-0.0376229
0.104842
-0.0672191
-0.031652
-0.135028
0.16668
-0.0114055
0.00297028
-0.0344993
-0.184777
-0.140576
0.325352
0.190272
0.0299282
-0.0324791
-0.0347268
0.0672059
0.111002
-0.0743348
-0.0366672
-0.284232
0.127927
0.156305
-0.100028
0.03702
0.0630075
0.17791
0.0216679
0.170452
-0.154038
-0.0164139
-0.368973
-0.273693
0.108063
0.16563
-0.181651
0.0332247
0.148426
-0.00305385
0.00699515
-0.0039413
-0.00966991
0.00533583
-0.0110987
0.00198215
0.0091165
0.17045
-0.199925
0.029475
-0.000293883
-0.0100924
-0.00197505
0.00412628
-0.00215123
-0.00144833
-0.000861865
0.00231019
0.150399
0.0200534
-0.385466
0.192118
0.0823071
-0.223915
-0.045762
0.0253219
0.02044
-0.244024
0.0282743
0.0853641
-0.430556
0.0969879
-0.0253192
0.0217633
-0.0763671
0.0546038
-0.0189956
-0.365806
-0.0700887
0.0846959
-0.215313
-0.0414037
-0.0508392
0.092243
-0.0285428
-0.273938
0.302481
0.0109601
-0.137676
0.234184
-0.225616
-0.000346926
-0.00592667
0.121369
-0.260422
0.139053
0.00265034
-0.00528691
0.00263657
-0.00416324
-0.00401799
0.00818123
-0.0436948
0.0358203
0.00787455
-0.160924
-0.224542
-0.189248
0.476064
-0.168724
0.194848
-0.152501
-0.0137371
0.166238
0.00415216
-0.00150182
-0.144733
-0.0640263
0.208759
0.339454
0.0738304
-0.413284
0.0281303
-0.39024
-0.0517318
-0.034365
0.0860968
-0.11293
0.0683676
0.0445623
-0.0110987
0.154823
-0.158733
0.0706854
-0.116126
0.0454407
-0.0352106
-0.240689
-0.416238
0.156466
0.259773
0.117642
-0.240542
0.1229
-0.00591863
0.0017554
-0.0469103
0.0833342
-0.036424
-0.00255324
-0.00338884
0.00594207
0.132887
-0.0232765
-0.140635
0.146222
-0.149143
-0.12455
-0.0251194
-0.00616414
0.0312835
0.204817
-0.0269069
-0.000434126
-0.0010142
-0.285757
0.061837
0.22392
-0.0117057
0.00511689
0.00658877
-0.0771168
0.0451097
0.0320071
-0.0794032
-0.0693706
0.129429
0.124251
-0.25368
-0.488916
0.444
0.0449159
-0.162684
0.0204707
-0.0259781
0.106916
-0.0809378
-0.0166757
0.0136219
0.10274
-0.125923
0.129684
-0.416206
0.286522
0.280259
-0.381648
0.101388
0.0772111
-0.352711
0.2755
-0.112402
0.0617391
0.066716
0.0188314
-0.0855473
-0.0472574
0.0446053
0.00265209
-0.235394
0.213252
0.0221417
0.00807523
-0.00172853
-0.00634669
-0.094084
0.0564611
-0.103639
0.0392158
-0.241714
0.0139286
0.227785
-0.0560574
-0.0439701
-0.1605
0.34322
-0.436539
0.157174
0.279365
-0.0585336
-0.0115783
0.0701119
-0.575056
0.313324
0.261733
0.307893
-0.24526
-0.134252
0.0778995
0.0563527
-0.264659
-0.0484432
0.313103
-0.00349158
0.00947407
-0.00598248
0.17323
0.0315871
-0.177104
0.130863
0.0462408
-0.296278
-0.278778
-0.136569
-0.0392245
-0.00473267
-0.00714732
0.01188
-0.0617703
0.0934937
-0.413442
-0.128116
0.283481
-0.155366
0.0590397
-0.109657
0.0506172
0.0074774
-0.00821712
0.00073972
-0.345528
0.422739
0.40085
-0.46223
0.0613801
0.0597053
-0.037942
-0.159307
0.0881295
0.0711772
-0.100816
0.131402
-0.0305851
-0.0600485
0.0381637
0.0218848
-0.253468
-0.183071
0.0789042
-0.0416089
-0.161225
0.202834
-0.000903695
0.401754
-0.0209218
-0.0391267
-0.101306
0.0498447
0.0440746
-0.0967039
0.0526293
0.111839
-0.0527992
-0.29929
-0.114568
-0.0143914
0.0578712
-0.126369
-0.179568
-0.0894931
-0.206692
-0.0878334
0.0409231
0.339496
-0.113186
-0.22631
-0.0417163
-0.0671783
-0.0310908
0.241707
0.238796
-0.398706
0.122822
0.275884
-0.0806541
-0.035472
0.00487874
-0.00244215
-0.00243659
-0.00141387
-0.000561179
0.255778
-0.0136915
-0.242086
-0.000489274
-0.13836
0.000627578
0.00014451
0.347246
-0.139533
-0.207713
-0.0590762
-0.0538537
0.174135
-0.18971
0.0155746
0.135498
-0.0414164
-0.0940815
-0.100406
0.0413298
-0.419029
0.119739
0.0443907
-0.0140824
0.179934
0.0997335
-0.279667
-0.0373046
0.116626
0.533356
-0.357592
-0.175764
0.032071
0.00870774
0.000867072
-0.00957482
-0.390422
-0.0140375
0.40446
0.000790585
-0.0119552
-0.158372
0.181851
-0.0234788
-0.3886
0.236003
0.152597
0.0134162
-0.140825
0.0236314
0.122194
0.0851596
-0.0508882
-0.0342714
-0.0061158
0.0187404
-0.0126246
-0.0763933
0.0439141
-0.0582685
-0.227489
0.257795
-0.195779
0.00170527
0.00333221
-0.00503748
-0.0781059
0.0479952
0.0301108
0.404848
-0.251571
-0.153277
0.170561
0.0301087
-0.200669
-0.0456232
0.0896978
0.0702174
0.0320153
-0.0355083
0.0103889
0.0073428
-0.00563753
-0.253813
-0.0357971
0.28961
0.238778
-0.208176
-0.0306023
0.00311678
-0.00535693
0.00224015
0.304275
-0.191008
-0.205394
0.060661
0.0930451
-0.0281053
-0.0649399
-0.155177
0.138201
0.016977
0.254357
-0.0329247
-0.221432
0.000575172
0.00430357
0.267035
0.210916
-0.477951
0.0834626
-0.0946418
0.0111791
0.0461099
-0.0875137
-0.0106372
0.0106372
-0.305296
0.39879
0.270606
-0.163522
-0.107085
-0.350928
0.290701
0.0602267
0.370957
-0.199047
-0.17191
-0.0899531
0.0681542
0.0217989
0.22021
0.150747
-0.0998796
0.149608
-0.0497286
-0.233744
-0.117184
0.0519429
0.135744
-0.187687
0.136074
-0.389887
0.0368674
-0.180091
-0.120795
0.26763
-0.146834
0.0173973
-0.218272
0.200875
0.308474
-0.265926
-0.0425485
0.284662
0.0238118
-0.024334
-0.165127
0.189461
-0.0485933
0.0115579
0.0370354
0.00175276
-0.00844468
0.00669192
0.0809129
0.153271
-0.0475053
0.0587034
-0.0111981
-0.134943
0.0466839
0.088259
0.0101798
-0.00842702
-0.148347
-0.0283845
0.176732
0.134538
-0.0791782
-0.0553598
-0.0979574
0.215599
-0.043968
0.0779758
-0.0340078
-0.123281
-0.437344
0.025841
-0.0173343
0.356788
0.382791
-0.155181
-0.22761
-0.01312
0.00700418
0.000643087
-0.183972
0.183329
0.458391
-0.0952657
-0.0162766
-0.115948
0.132224
-0.147983
0.0481037
0.130676
0.173599
0.180536
0.16671
-0.00225546
-0.000193522
0.00244898
-0.12194
-0.314308
-0.0260738
0.281829
-0.38368
0.101851
-0.00415515
0.00160192
0.00676356
-0.00969915
0.00293559
0.0516073
0.0414378
-0.0213904
-0.136058
0.176848
0.00433207
-0.00906474
0.271145
0.288989
-0.23523
-0.107107
0.342337
-0.0160421
-0.0194662
-0.366634
-0.0870558
0.45369
-0.329531
-0.0513437
-0.00381664
-0.00758889
0.298551
0.101956
-0.0012949
0.0100026
0.140143
-0.129355
-0.0107886
-0.142412
0.145004
-0.00259192
-0.00325387
0.0100174
0.0151385
0.180074
-0.195213
-0.33579
0.100559
0.0151941
-0.0364083
0.0212142
0.123063
0.0137995
-0.00515794
-0.0481755
-0.0401508
0.347025
-0.209585
-0.13744
-0.343843
-0.0989864
-0.265823
0.157312
-0.0253271
-0.035802
0.0611292
0.0524875
0.06203
-0.114518
0.0121419
0.237165
-0.443873
0.388586
0.055287
-0.223095
-0.020929
0.0173083
0.0661543
-0.0037026
0.00681938
0.20499
-0.14895
-0.05604
-0.141837
-0.123986
-0.285928
0.398211
-0.112283
-0.176286
0.0279382
0.10664
-0.069497
-0.0371431
-0.000919522
0.00839693
-0.00891555
-0.00279011
-0.0588044
0.0613455
-0.00254116
0.0592063
-0.076923
0.0177167
0.0661761
0.0189688
-0.0851449
-0.000885838
0.000518612
-0.192777
-0.065869
0.258646
-0.405399
0.275747
0.129652
-0.270847
-0.192903
0.273816
-0.0857024
0.0573051
0.0283973
0.369322
-0.220017
-0.149305
0.181239
-0.0094621
0.00196203
-0.036388
0.0536963
0.142792
0.0199552
-0.00940613
0.0709618
-0.0117554
-0.00506478
0.00167945
-0.210491
-0.0739748
0.284466
0.163867
0.128172
0.182912
-0.311084
0.110023
-0.448817
0.0117497
-0.455623
-0.475176
-0.406618
0.15315
0.00109298
0.0103406
-0.0114336
0.0561865
0.199591
0.396335
-0.281474
-0.114861
-0.0500759
0.0903927
0.123659
-0.0844446
-0.0392148
-0.31909
-0.0863082
0.15465
-0.236396
0.081746
-0.0987496
0.0227612
0.0759884
0.00760566
-0.0661393
0.0236259
-0.18204
0.057111
0.214693
-0.271804
0.0369841
-0.197179
0.015528
-0.00743684
0.0123442
-0.00490738
-0.0354178
-0.400985
0.201938
7.01711e-05
0.0065904
-0.00666057
0.0684589
0.0552005
0.106714
0.266433
-0.373147
0.00232469
-0.00216713
-0.000157562
-0.00783659
-0.00114931
0.0089859
-7.70831e-05
0.00207959
-0.00200251
-0.195494
-0.205491
0.267234
-0.210123
0.00407651
-0.156578
-0.100487
0.111318
-0.0108315
-0.136708
-0.0805715
0.217279
-0.0021964
0.0102716
-0.0675057
0.0421786
0.021785
-0.0692903
-0.0276506
0.0883712
-0.0607206
0.137179
0.245612
0.0154391
0.124704
-0.00676032
-0.000996224
0.00775655
-0.0052575
0.012559
-0.0258829
0.0133239
0.211872
-0.277728
0.0658562
0.125997
0.0371914
-0.163189
0.0334111
-0.156378
0.00210211
-0.00259432
0.000492209
0.0060244
0.00475769
-0.0871342
0.0249236
-0.12462
0.245989
0.0246611
-0.24169
0.377118
-0.0872392
-0.289879
-0.0490768
0.101564
-0.228519
-0.178099
-0.0327615
0.0479556
-0.106727
0.140138
-0.00862334
0.0187559
-0.295261
0.227833
0.0674284
-0.275341
0.052246
-0.425979
-0.0629367
-0.119269
0.000330669
-0.0237744
-0.11927
0.143045
0.0635584
0.0430817
-0.268984
0.3816
-0.112616
0.123233
-0.0667187
-0.0565145
0.0139822
0.0353005
-0.0492826
-0.157179
0.17673
-0.0195513
0.303535
-0.174106
0.211565
-0.126229
-0.0853358
0.183768
-0.167867
-0.015901
0.487311
-0.250005
-0.237306
0.131069
-0.16449
0.0334204
-0.00477867
-0.173408
0.0162293
-0.0438738
-0.0469686
0.0908424
-0.0348331
-0.294092
0.400806
-0.196975
-0.500428
0.110005
-0.147695
0.0111254
0.187813
0.0665444
-0.115555
0.0895847
-0.300076
0.134288
0.122171
0.0125247
0.266563
0.14251
-0.409074
0.0202376
0.0788099
-0.0990475
0.186385
-0.19689
0.0105051
-0.056803
-0.0435128
0.100316
-0.171913
-0.00519111
-0.0156134
0.00249339
-0.262983
0.0879501
0.175033
0.00297027
-0.00297027
0.131968
0.0290473
-0.161015
-0.0904984
0.153662
-0.0585105
-0.0186063
0.00883555
-0.0405032
-0.027144
0.0676472
0.139606
0.0371242
0.19359
-0.192947
-0.395195
0.199701
0.210606
0.112183
-0.322789
-0.136001
0.0791908
0.0568106
0.152396
-0.128098
-0.0242973
-0.0449982
0.133798
-0.0888002
-0.108062
0.0720841
0.0359781
0.00889321
-0.0504701
0.106182
-0.0557117
-0.356029
0.505961
-0.149933
0.000876881
-0.00256354
0.00168666
-0.00710678
0.0512096
-0.0441028
0.142731
-0.228505
0.0857735
0.238432
-0.0278255
-0.0581143
0.0783519
0.0110003
-0.00639643
-0.13493
-0.027754
-0.276225
-0.137892
0.414118
-0.0826477
0.0261827
0.056465
-0.0973852
0.0535115
-0.144148
0.0649172
0.102129
0.0123126
-0.114442
-0.0404546
-0.00891861
0.0493732
-0.1638
-0.05294
0.0636609
0.0340478
-0.0977087
0.00217361
-0.00234907
0.000175462
-0.0595085
-0.0408976
-0.0401878
0.0994175
-0.0570025
-0.042415
0.0327155
-0.0844472
0.147009
-0.185286
0.0382767
-0.402106
-0.05912
-0.102981
-0.319266
0.104383
-0.00396254
-0.0218176
0.0205846
0.0136934
-0.034278
0.00451989
-0.00526815
-0.00997343
-0.0386199
-0.00619141
0.00873227
-0.00254086
0.00434418
-0.00520621
0.000862037
-0.0698
-0.0128477
-0.0353435
0.183096
-0.00203639
-0.00253055
0.00456693
0.00891164
0.0312501
-0.0401618
0.207688
0.0254757
-0.048812
0.0233363
-7.54518e-05
0.00759919
-0.00752374
0.056491
0.0166023
-0.0730933
0.0829721
0.122018
-0.108744
0.402596
-0.293852
-0.194153
0.0303534
-0.213467
0.184281
0.0291864
0.156431
0.027337
-0.063
-0.0594236
0.122424
0.0786907
0.260806
0.00201101
-0.00201101
-0.190721
0.166387
0.143239
0.0176343
-0.160873
-7.82088e-05
0.00218032
-0.217786
-0.0976221
0.315408
-0.148665
0.12489
0.0297016
-0.0171426
-0.238295
-0.0974948
0.026642
0.183381
-0.210023
-0.000158984
0.00226087
-0.00210188
-0.114767
0.416763
-0.301996
0.0425656
0.0806677
-0.152465
-0.00846429
0.00387712
0.00458718
0.186737
-0.0471311
0.129831
-0.142713
0.0128815
0.0904997
-0.194559
0.047854
0.146705
0.013091
-0.113578
-0.11139
0.00698201
0.104408
0.0124585
-0.00305559
0.113133
-0.124334
0.0112005
0.148214
-0.271952
0.123738
0.0030905
-0.00326645
0.000175953
0.148199
-0.0183678
0.00393613
0.0141305
-0.00544175
-0.00868879
0.0401946
-0.0902705
0.0422719
-0.0804105
-0.186726
0.138712
0.230486
-0.369198
-0.00883902
0.00100243
0.105024
0.106541
-0.0276079
0.158677
0.442764
-0.305211
-0.137553
-0.054063
-0.000600541
-0.0582038
-0.0164812
-0.0148002
0.0312814
0.00191347
0.000141999
0.00282827
-0.0330817
-0.0526207
0.135849
-0.186414
0.0505652
-0.382223
0.273479
0.166539
-0.12851
0.112233
0.110827
-0.0441109
0.328872
-0.200953
-0.127919
0.0347678
-0.0752711
0.136667
0.0337835
-0.0370763
-0.45451
0.442236
0.0122738
0.00189056
0.0018967
0.180728
-0.239657
-0.329098
-0.12594
0.0144645
0.111475
0.169488
-0.474699
-0.106361
0.372794
-0.00602078
0.00097641
0.00504437
0.0370337
-0.226542
0.176708
0.0498342
-0.25222
0.364402
-0.0533367
0.114775
-0.0614386
-0.0338945
-0.12014
-0.0234883
0.182479
-0.0202763
-0.0578296
-0.213885
0.231282
0.00410743
-0.0108678
-0.128169
0.0194093
0.10876
0.103677
0.153693
-0.25737
0.0313753
-0.0162869
-0.0150884
-0.0041655
0.000306453
0.255462
-0.402539
0.147078
-0.0357848
0.0193037
0.236399
0.28088
-0.331701
0.0934067
-0.244567
0.107859
-0.084014
-0.0170518
0.101066
-0.000315844
-0.00298222
0.00329806
-0.0345265
-0.123845
0.000487434
0.00168618
0.0326273
0.109174
-0.141801
0.00367139
-0.0188495
0.0151782
-0.0740334
0.0463828
-0.161722
-0.0235645
-0.00673716
0.11064
0.159966
0.0155335
-0.0325707
0.0170372
-0.0738544
0.00499432
-0.00764758
0.00366743
0.00252086
0.0763799
0.170873
-0.247253
-0.0151377
0.027756
-0.0126183
0.166503
-0.19415
0.0276472
0.00155703
0.130411
-0.0251979
0.0598301
-0.0346323
0.0214297
-0.061968
0.0405383
-0.00409406
0.00842613
-0.392839
0.28734
0.105499
-0.00954814
-0.00606522
-0.143721
0.319783
-0.176062
-0.00194368
0.0144022
0.0415245
0.165551
-0.207076
-0.212838
0.106111
-0.173027
0.00516074
-0.344571
0.188899
0.155672
0.19844
-0.49896
0.300521
-0.0263501
-0.109012
0.135363
0.0708763
-0.0245636
0.0810546
-0.442676
0.0988331
0.00873222
-0.0090391
0.000306881
-0.184942
0.0232209
-0.239823
-0.104748
0.110571
0.266547
0.064895
0.0739618
-0.138857
0.0553912
0.0532486
-0.10864
0.0251341
-0.050332
0.111939
-0.146466
-0.157694
0.366878
0.136537
-0.171437
0.0349002
-0.0064321
0.0112633
-0.129866
-0.329377
0.216191
0.337461
-0.148562
-0.0366755
0.173213
-0.0173728
-0.14688
0.164253
-1.91968e-05
0.00203021
-0.317994
0.100208
-0.0510977
0.0734689
-0.0223712
0.0494015
0.0616005
0.050047
-0.0571538
0.000367022
-0.000444105
-0.00355831
-0.0046273
-0.113112
-0.284301
0.397412
0.0273598
-0.153928
0.126568
0.124214
0.236302
-0.198513
-0.0377895
-0.195405
0.171257
0.0241476
0.00840767
-0.00848312
-0.315265
-0.0672996
0.382564
-0.164998
-0.230197
-0.498651
0.214833
0.283819
0.0406677
0.112129
0.0522885
-0.164417
0.249821
-0.101607
0.102585
0.0403391
-0.142924
0.0279605
-0.16289
-0.00789422
0.0167041
-0.00880984
-0.00288062
-0.00913393
0.366224
-0.22768
-0.138544
0.169813
0.131272
-0.301084
0.00639711
-0.156745
0.00249352
-0.00199
-0.000503521
0.00213934
-0.00598584
0.0012583
0.00189098
-0.00314927
-0.0613405
0.0404187
-0.0432415
-0.0176463
0.0608878
0.0797645
-0.0400677
-0.0396968
0.0137098
-0.419481
0.0536752
-0.117687
0.275971
-0.0960371
0.166962
0.0518282
-0.218791
0.146095
0.258753
-0.0595795
0.0285778
0.0319637
-0.0605415
-0.00278014
-0.00786472
-0.24245
0.000735898
-0.0189304
-0.0351744
0.0541049
0.100317
0.317309
-0.417627
-0.068601
0.20445
-0.121533
-0.0264504
0.298461
-0.379306
-0.0285058
-0.141112
0.167754
0.00566914
0.0153936
-0.0075587
0.00416987
0.0921897
-0.143019
0.0508292
0.00286625
-0.00696032
0.0855761
-0.0193999
0.000905529
0.00568981
-0.0617542
0.0805856
0.0427617
-0.0174397
0.00163576
-0.00379917
0.00216341
-0.121028
-0.00714076
0.0565241
-0.0425419
-0.102409
0.0519393
0.00710043
0.00703011
0.219814
-0.301615
0.0818005
0.113281
0.332614
-0.449266
0.116652
-0.0231952
0.0532381
-0.0326468
-0.0205914
0.365624
-0.476477
0.0926157
0.383861
0.0970731
-0.00430955
-0.0927635
-0.233477
0.398226
-0.164749
-0.0878885
0.0823525
0.015829
-0.134582
-0.53406
0.310298
0.223762
-0.0727355
0.0572361
0.0154995
0.19005
-0.281457
0.0914071
0.263776
-0.111482
0.0581453
-0.26823
-0.101154
0.369384
-0.0494084
0.0882343
-0.0388259
-0.0123285
0.0329131
0.283998
-0.110019
-0.17398
-0.243378
0.170015
0.0733629
-0.350695
0.110872
-0.10271
0.0685957
0.0341142
-0.270808
0.400491
0.061835
0.15018
-0.212015
0.0353197
0.0541849
-0.0895046
-0.137442
-0.15665
0.294092
-0.00429998
-0.000305961
0.00460594
-0.202093
-0.0642172
0.26631
0.00295048
0.00439232
0.237501
-0.020432
-0.217069
0.0845807
-0.128767
0.0441862
-0.236384
0.329181
-0.0927973
0.00122185
-0.114155
0.112933
-0.15072
0.0291867
-0.349547
-0.0699343
0.169897
0.114101
-0.00676295
0.00246297
0.23455
-0.263093
-0.00710043
-0.00548503
0.0125855
-0.00897963
0.012359
-0.00337935
-0.168853
-0.0665408
0.296306
0.23705
0.302018
0.0824897
0.388382
-0.0624635
-0.325918
-0.00112669
-0.0048941
0.104474
-0.356694
0.00956553
-0.00661505
0.00801944
0.00262543
-0.0145489
0.102678
0.00225775
-0.00205942
-0.00019833
-0.398035
-0.13139
0.226567
0.0847554
-0.311323
-0.000536992
0.00111045
0.000525309
0.0648646
-0.176255
0.132967
0.223711
-0.356677
-0.145593
0.273765
-0.27409
0.0728688
-0.241749
0.16888
0.0757262
-0.101734
0.0260079
-0.00533963
-0.0186869
0.0240265
0.167768
-0.166268
-0.00149982
-0.00963324
0.0115209
-0.00278867
0.0356711
-0.0830616
0.0473905
0.122877
-0.0433864
-0.0794902
-0.278188
0.248345
0.0298425
-0.00485791
6.48294e-05
0.00479308
0.00766131
-0.0391981
0.141783
-0.325738
0.0893542
-0.276809
0.110446
0.166362
0.00394988
0.00188653
-0.00583641
0.140803
-0.00390122
-0.00456308
-0.032648
-0.525295
0.341225
0.184069
-0.0596726
0.124568
0.188095
0.176408
-0.364504
-0.0521372
0.164076
-0.218746
0.122991
0.0957553
-0.400861
0.167384
-0.105838
-0.280865
0.386703
0.2556
-0.182731
0.00164982
-0.00124596
-0.000403861
-0.0920706
-0.306561
0.398631
0.010895
0.000810335
-0.000352152
-0.0973481
-0.179461
0.0602748
-0.324934
-0.0721044
-0.0225374
-0.00989553
0.00270858
0.00718695
0.146111
-0.171851
0.0257395
0.00146184
-0.00110722
-0.000354619
-0.236249
0.112969
0.0813539
0.123899
-0.155551
-0.00308559
0.0010492
0.0215047
0.00987065
0.0110648
-0.00439592
-0.00666887
-0.445045
0.0470099
-0.0171402
-0.188376
0.28811
0.000303853
0.00115798
-0.35324
0.130057
0.223184
-0.0497517
-0.0229839
0.094695
0.00600242
-0.00712911
-0.103324
-0.291461
0.394785
0.138176
0.310888
-0.449064
-0.0600269
0.0167853
-0.327972
0.0618373
0.266135
0.00162009
2.97311e-05
0.0696096
-0.262387
0.00992004
-0.0250577
-0.175048
-0.111585
-0.270063
-0.029041
0.135321
-0.0865237
0.035426
-0.0098357
0.00339132
0.00644438
0.151581
-0.165318
0.164867
0.0791144
-0.243981
-0.171083
0.186222
-0.0819023
0.216542
0.11233
-0.0588104
-0.417666
-0.110568
0.0730477
0.0375205
0.280559
-0.131139
-0.14942
0.00778202
0.0146558
-0.0224379
0.00937178
-0.163648
0.154276
-0.000509546
0.00300307
0.214536
0.0784314
-0.292968
-0.290331
0.39462
-0.104289
-0.0392516
0.0886609
-0.0494093
-0.002436
0.00145574
0.00098026
0.0186998
-0.0398865
0.0211867
-0.194512
-0.0194667
0.213979
0.0111035
0.00092178
-0.0631667
0.277703
0.0124944
-0.0050624
-0.007432
0.138466
0.0671006
0.0227065
-0.0898071
-0.170795
0.327577
-0.00218318
0.0025502
0.0911803
0.230326
-0.321507
-0.115389
-0.103356
-0.215379
-0.173221
0.333248
-0.235344
-0.0979042
0.277765
0.209546
0.0111869
-0.0198102
0.0436675
0.0405819
-0.0842493
-0.00477568
-0.00668162
0.0114573
0.0665324
0.0563441
-0.194439
0.169332
0.0251069
0.148167
-0.178539
-0.469878
0.150469
0.31941
-0.409968
0.104672
-0.424648
0.309881
-0.167095
0.0369736
-0.0863821
0.251238
-0.209714
0.00526531
-0.00348219
-0.00178313
-0.0557138
-0.0590243
0.114738
0.348818
-0.215851
0.156426
0.029959
0.00688215
0.00561225
-0.0760635
-0.0599378
-0.0563902
0.168519
0.147556
0.0436772
0.11086
-0.125422
0.0145618
-0.00195605
-0.0079471
0.00990314
0.0925367
-0.118887
0.0268365
-0.0179248
-0.0205061
-0.129034
0.115344
-0.120407
0.00506253
-0.0386225
-0.022718
0.146039
0.221272
0.101945
-0.323216
-0.109465
0.0464648
-0.0853245
-0.0246652
0.298245
-0.0729523
0.0289843
0.0432068
0.087024
-0.130231
0.00656882
-0.00755136
0.000982539
0.14761
0.132949
-0.0231752
-0.103393
0.0193786
-0.120079
0.0165848
0.103495
0.1689
-0.0429026
0.388533
-0.199203
-0.18933
0.0491196
-0.2507
0.20953
0.0411703
0.00165025
0.00361506
0.220329
-0.223759
0.00342938
0.173154
-0.00253707
0.00167521
-0.0301743
0.168902
-0.194389
0.0254871
0.0326862
0.214613
-0.308704
0.0940904
-0.000473128
-0.0467843
-0.00130397
0.00114214
0.000161835
0.0904645
0.0598752
-0.0830739
0.0231987
-0.000495361
-0.00080861
0.169496
0.0278586
-0.197355
-0.0967224
-0.210366
-0.0403349
0.0314618
0.152049
-0.18351
-0.155924
0.212006
-0.0560822
-0.0211622
-0.0684467
0.0357206
0.0327262
-0.0781852
-0.163564
-0.0228978
-0.140058
0.162956
0.0146872
-0.322283
-0.137227
0.45951
0.000810372
-0.00909887
0.186775
0.0507255
-0.145469
0.207304
0.038408
0.0472033
-0.0856113
0.00563004
-0.00555987
-0.109932
0.427555
-0.317624
0.342104
-0.217368
0.0614445
0.0851437
0.255041
-0.340185
0.477365
-0.170652
-0.306713
0.015852
-0.0425781
0.0267261
-0.239404
0.506439
-0.187186
0.018462
-0.284522
-0.114184
-0.0666762
0.0712987
-0.00462258
-0.392518
0.0984259
-0.00200849
-0.0416864
-0.0313475
0.0260079
-0.153769
-0.0896092
-0.00324376
0.00515708
-0.00191332
-0.326455
-0.116221
-0.178886
-0.0244206
0.203306
-0.0643103
-0.209834
0.274144
0.00120322
-0.00251567
0.00131245
-0.0779071
-0.400459
0.400463
-4.24711e-06
0.123459
0.226338
-0.349797
-0.240361
0.191687
0.0486736
-0.08551
-0.227254
0.312764
-0.083392
-0.0508602
0.000244828
-0.000560673
0.00308947
0.00914106
-0.00214588
0.00440364
0.0718431
0.278626
-0.350469
0.0419134
-0.212997
-0.110423
0.111645
0.209551
0.00232089
-0.266483
-0.0867572
-0.0403149
0.0498451
0.00040579
-7.29164e-05
-0.000332874
-0.133219
0.142591
-0.0738511
-0.136514
-0.00113792
-0.00371999
-0.325667
-0.208393
-0.304071
0.375914
-0.0131775
0.00840178
-0.00287638
-0.040696
0.0303561
0.00912535
-0.287313
0.006642
-0.0079369
-0.070301
-0.141232
0.211533
-0.127046
0.0409662
0.0860797
-0.379032
0.286962
0.156465
-0.175483
0.0190175
-0.287405
0.14605
0.141355
0.0880299
0.0465081
0.117432
-0.0503317
0.110825
0.0373739
0.347831
0.0772859
-0.425117
-0.00567406
0.0077035
-0.00202944
-0.0840659
-0.12368
-0.411614
0.0111551
-0.426906
0.426906
0.0189091
0.20142
-0.21719
-0.110782
0.0762719
-0.278365
-0.0443105
0.00790217
0.0215873
-0.216099
0.0270876
-0.261258
0.0677393
0.193518
-0.0221756
-0.0016727
-0.000763304
0.174467
-0.3871
0.212633
0.00286452
0.0548389
-0.0577034
-0.0239803
-0.134858
0.158838
0.383934
-0.209468
0.0981271
-0.188626
-0.116488
-0.00485345
0.121342
-0.401681
0.134824
0.266856
0.385275
-0.219782
-0.165493
-0.0932259
0.389007
-0.295781
-0.137346
-0.157915
-0.0975191
0.120968
-0.0234486
0.427959
-0.146664
-0.281295
0.0971147
-0.240787
0.143673
-0.122924
0.122435
-0.0712379
0.419069
-0.116037
0.00360016
-0.0107006
-0.0101918
0.0138632
0.0300128
-0.0306906
0.0465426
-0.0257392
-0.0913452
-0.0287342
0.0172238
-0.0459816
0.0287578
-0.023037
0.0483718
-0.0253347
-0.00804426
0.409238
-0.401194
-0.188586
0.240414
0.164872
-0.399599
0.234727
0.0141591
0.0278772
-0.0420363
-0.0251053
0.0518823
-0.026777
-0.138392
0.107416
0.0309761
0.170579
-0.362596
0.0722652
-0.271278
0.206968
-0.101283
-0.304395
0.405678
0.156315
0.0824634
-0.0468611
0.0330377
-0.0084343
-0.00824145
-0.00804229
-0.00165686
0.0137632
0.081718
-0.0954812
0.374901
-0.351188
-0.387382
0.516175
-0.128793
-0.0930458
-0.287921
0.380967
-0.0100279
-0.0539217
0.0892414
-0.310782
0.201577
0.109205
-0.00609734
0.00361419
0.00248315
0.280034
-0.140433
-0.0240571
0.254407
-0.144472
0.107088
-0.132078
0.02499
0.0214647
-0.161897
0.0870389
-0.0486308
-0.151328
0.127348
0.0425968
-0.412843
0.0905605
-0.403114
0.281608
0.121506
0.0972931
-0.0372161
0.0998337
-0.368818
0.325217
0.161804
-0.122374
0.0248549
0.0419613
-0.104052
0.0620909
0.288177
-0.381403
0.0199507
-0.0814467
0.061496
0.270541
-0.374295
0.103754
0.203804
-0.228181
-0.381328
0.0908485
0.29048
-0.248096
0.198555
0.05158
-0.0270766
-0.0245034
0.119364
0.0319385
-0.151302
-0.196116
0.0309896
-0.177843
0.107542
-0.0036501
-0.0412028
0.0113407
0.0298621
-0.398209
0.19093
0.207279
-0.104789
-0.0222569
0.137451
0.00773573
-0.00116691
0.0225814
0.0488038
-0.0713852
6.26601e-07
-0.000402232
0.000401605
-0.0579476
-0.129169
-0.101973
0.115064
0.106767
-0.0513763
0.0394176
0.0714092
0.00790309
-0.0103016
0.00239855
-0.285793
0.408616
-0.120067
-0.263613
-0.121069
-0.208308
0.0335529
0.0022674
-0.0868491
0.000165978
-0.01019
0.010024
-0.171025
-0.0949009
-0.162136
0.238516
-0.00182241
-0.000714666
0.0199676
0.0817789
-0.101746
0.204657
-0.0279493
0.0575676
-0.0453407
0.371983
-0.116521
0.137249
-0.151593
0.0390584
0.0485901
-0.0876485
-0.0341038
0.0736399
-0.0395361
-0.223937
-0.107764
-0.0411614
-0.0498374
0.0909988
-0.110463
0.0813375
0.0291257
-0.00962067
0.0033876
0.00623307
0.0218852