/*--------------------------------*- C++ -*----------------------------------*\
| =========                 |                                                 |
| \\      /  F ield         | OpenFOAM: The Open Source CFD Toolbox           |
|  \\    /   O peration     | Version:  v2012                                 |
|   \\  /    A nd           | Website:  www.openfoam.com                      |
|    \\/     M anipulation  |                                                 |
\*---------------------------------------------------------------------------*/
FoamFile
{
    version     2.0;
    format      ascii;
    class       volScalarField;
    location    "350";
    object      ReThetat_0;
}
// * * * * * * * * * * * * * * * * * * * * * * * * * * * * * * * * * * * * * //

dimensions      [0 0 0 0 0 0 0];


internalField   nonuniform List<scalar> 
18355
(
640.839
34.1827
597.164
604.689
571.669
483.382
594.2
575.127
430.437
33.3181
602.665
32.3554
568.619
534.549
616.769
591.055
36.42
605.291
602.699
37.3568
574.738
525.376
31.6985
565.094
513.598
579.933
562.523
439.48
27.5761
585.57
576.104
546.808
605.576
597.845
651.513
642.355
457.043
663.623
436.619
606.261
534.521
544.353
597.377
33.1198
591.586
664.526
654.462
429.464
647.634
606.848
606.533
608.897
584.52
32.7072
588.568
590.391
416.035
616.17
213.365
662.654
605.184
501.932
606.212
596.633
32.3697
640.719
28.3019
369.858
564.967
530.878
657.011
585.303
657.984
602.862
561.662
593.911
36.2011
561.14
504.039
608.317
593.541
607.332
575.503
620.851
578.318
550.225
33.9261
37.7763
27.4661
32.0174
559.34
598.896
586.983
605.706
26.7886
31.7621
614.416
567.445
32.8535
43.4094
27.6497
40.3752
637.698
76.8761
555.827
519.535
32.4277
642.091
614.618
261.059
590.448
448.031
578.824
442.307
33.5828
592.37
229.493
36.077
222.477
635.773
33.2202
448.381
551.184
653.765
612.212
643.34
609.431
584.549
254.367
606.081
606.615
111.102
549.503
554.421
528.032
584.987
612.921
603.709
560.794
660.377
27.4335
26.8134
598.595
587.002
244.62
511.526
400.72
33.1001
624.256
32.0082
596.066
514.917
649.999
219.483
445.678
584.931
122.778
227.669
584.758
509.857
603.777
628.381
440.949
537.162
422.625
253.353
39.6435
647.172
500.956
604.725
26.8949
31.8221
607.344
606.714
593.553
34.6198
430.776
587.794
459.862
78.1642
297.466
507.709
586.633
596.381
438.292
34.6095
31.7193
547.676
442.908
35.9921
415.016
598.611
553.546
64.5436
510.349
546.952
257.995
569.326
536.248
607.428
619.692
449.719
51.5849
31.8035
32.0612
593.23
230.85
33.5193
32.7586
527.911
615.635
604.172
36.4409
598.403
604.798
621.264
75.1598
36.1645
580.762
619.608
592.105
572.478
617.23
613.275
39.2305
577.815
34.1591
34.5245
271.32
613.67
584.003
500.739
616.093
34.3468
612.436
582.708
587.592
649.715
416.82
32.0629
630.733
480.463
571.554
603.909
560.904
34.5926
198.457
232.82
440.069
605.36
619.048
212.895
564.227
32.8479
582.448
34.6325
58.0683
512.8
593.09
594.491
639.599
658.301
55.4022
542.135
599.051
603.904
584.543
477.521
630.095
280.326
581.765
28.6809
553.736
544.533
621.696
283.932
608.818
571.564
254.596
599.047
594.173
513.983
594.957
26.6512
577.139
412.75
598.022
647.271
32.5509
541.215
604.282
544.839
502.394
33.4127
583.562
584.637
66.6841
642.415
440.791
329.597
572.178
658.321
486.95
584.808
325.505
420.83
475.975
498.729
606.31
292.304
559.207
601.66
313.97
593.926
466.879
532.317
587.439
605.616
488.38
31.6091
33.6254
614.307
439.892
33.1383
603.034
438.633
501.291
566.01
653.407
606.126
243.866
598.314
524.635
588.819
441.957
33.0568
582.431
71.1824
637.431
563.52
652.184
519.181
67.8226
32.9666
76.4591
581.326
605.257
31.7042
306.247
585.969
609.934
497.92
432.426
218.482
31.6638
577.571
624.035
231.945
592.49
612.23
518.996
529.12
579.325
31.6748
584.625
411.038
598.665
32.1136
604.257
550.617
565.335
611.752
453.87
611.396
644.765
564.113
621.728
575.361
426.686
612.682
607.558
611.955
610.867
598.632
276.86
27.2199
612.47
51.1224
556.588
27.0705
561.124
646.078
547.495
60.3884
460.935
591.856
581.719
605.91
33.0437
630.26
599.3
617.962
643.399
592.757
600.329
34.6949
538.954
608.57
215.444
595.174
230.384
36.9402
530.133
403.421
552.07
32.6072
585.456
589.91
217.366
584.905
607.204
35.8647
603.143
33.1556
462.851
432.476
37.5724
478.023
590.001
38.3469
479.122
26.8241
79.5251
564.349
595.772
514.843
60.1007
555.969
601.342
584.451
597.058
409.254
231.521
589.409
528.22
584.284
569.742
616.792
33.3786
34.5301
55.6181
327.819
446.602
33.0183
602.06
599.587
547.069
613.341
437.947
571.497
595.216
41.4769
364.13
649.034
31.9707
323.874
34.6653
606.684
611.58
585.929
593.266
584.015
584.722
571.584
26.9027
615.497
606.028
491.562
670.644
599.198
577.946
534.312
216.217
593.37
611.663
64.8214
457.307
28.2017
491.778
612.139
47.908
674.465
604.754
33.022
26.9765
36.8106
611.942
611.388
615.553
488.017
479.038
28.6044
66.5756
55.9029
588.418
606.058
466.16
34.4328
31.7527
34.3236
524.687
585.367
601.456
32.3858
40.7123
627.176
581.21
553.547
573.728
552.66
571.592
41.1558
600.12
33.544
534.595
597.145
595.459
373.029
608.152
630.591
593.681
518.143
256.723
506.31
595.75
444.876
482.087
584.688
641.012
529.694
509.031
674.432
611.035
604.567
546.725
582.935
646.118
563.406
504.27
606.513
576.742
27.8704
606.017
365.621
473.812
666.093
415.672
33.007
623.335
33.2544
435.996
428.199
56.4249
27.5495
63.7818
499.909
631.589
612.56
565.207
439.284
649.707
573.07
619.57
26.8837
411.335
595.019
33.6542
81.7285
572.738
560.47
364.96
32.1482
638.806
586.018
308.911
673.394
651.633
377.612
287.27
584.691
536.078
34.112
655.312
323.785
438.075
652.706
618.256
589.941
572.278
586.506
245.828
254.323
34.5568
281.173
32.4816
27.457
312.937
590.693
34.4677
41.7212
602.626
272.299
28.0765
89.3405
591.438
605.521
585.784
563.013
486.166
546.429
594.117
33.5979
596.999
573.172
32.3556
604.14
605.854
34.8748
589.455
627.472
31.829
600.428
508.244
606.078
26.7099
496.264
490.579
568.976
629.931
475.098
409.278
31.3402
446.715
586.115
32.331
487.064
251.813
34.2194
490.435
543.53
584.614
606.353
26.9425
440.133
641.095
585.151
616.093
60.9672
33.4387
645.717
33.1049
432.148
611.875
605.72
585.588
600.516
631.475
609.779
82.311
593.773
640.657
593.327
32.9135
34.4735
583.071
607.136
467.275
585.112
605.164
28.0813
271.974
495.359
566.982
428.717
648.223
499.288
309.059
607.47
34.3557
512.201
561.609
250.053
31.8335
594.014
34.7858
604.912
589.571
474.31
356.525
35.0824
627.545
34.1067
599.804
34.0472
497.602
625.622
32.4254
552.721
37.7617
577.112
33.888
34.2259
595.352
215.451
616.606
422.753
51.9615
296.211
32.6944
601.291
32.902
545.274
32.2017
593.007
596.578
481.82
603.415
603.625
485.17
64.3955
117.527
595.29
233.489
623.153
603.1
572.749
544.371
514.103
45.0127
612.1
592.445
616.888
33.727
594.919
592.406
603.769
617.814
628.026
33.4399
603.641
608.206
515.372
106.81
37.0078
28.2681
605.201
437.544
598.454
615.738
574.31
27.8169
598.529
612.548
597.747
40.7096
497.422
585.456
618.332
637.824
31.6962
32.423
595.071
539.482
31.7554
573.687
32.6037
34.0747
34.1168
338.043
443.62
58.6453
482.286
580.718
603.579
598.307
500.351
585.604
497.326
54.8966
26.8023
621.568
296.75
600.212
613.965
642.423
588.082
572.744
626.615
241.783
236.563
655.55
32.7463
439.658
28.1727
630.672
35.2084
32.2392
513.78
293.105
404.343
34.3167
607.745
563.72
593.178
566.457
42.6524
604.496
583.342
558.372
597.957
594.996
592.552
586.066
62.6203
589.974
536.343
430.404
605.448
580.891
250.263
598.479
558.76
602.786
542.433
598.827
628.001
571.319
540.564
31.6994
620.398
31.6579
535
427.373
589.011
430.271
641.057
580.071
599.573
31.6741
571.974
33.5696
33.2264
580.491
589.245
588.83
606.48
28.2894
569.539
31.6196
26.9847
643.041
42.1322
598.478
596.32
33.5524
32.2104
408.488
589.486
588.209
603.994
552.976
474.514
239.235
628.242
28.2137
234.043
90.5197
370.023
617.453
32.0789
27.0364
620.29
588.895
519.642
32.0735
571.265
26.8
450.318
585.318
551.956
601.461
616.997
634.843
597.311
605.832
553.613
32.7122
585.925
430.437
33.4132
518.429
594.834
398.296
27.8213
598.331
31.8233
463.664
606.294
442.651
34.5177
245.954
232.39
594.834
374.551
599.806
31.8412
608.875
64.8233
469.366
28.2046
586.718
594.737
429.929
589.983
32.752
604.287
218.441
584.873
603.408
423.205
609.882
36.8589
614.764
620.852
478.927
590.458
609.802
583.033
505.585
604.195
34.2823
607.15
32.5557
604.845
606.913
587.078
32.2739
36.9644
612.736
33.7527
603.089
27.9865
480.395
490.485
608.284
37.6924
598.103
633.702
563.917
596.959
584.821
33.4334
105.541
34.2751
367.993
540.65
628.993
592.763
603.92
600.459
594.635
642.61
602.831
32.6244
628.567
589.848
464.216
28.2193
445.745
516.868
629.499
554.163
36.0803
488.275
38.7171
431.604
455.708
335.587
542.474
602.701
559.767
521.713
605.544
71.0082
526.936
40.4665
605.226
259.431
359.017
622.309
584.478
565.589
595.342
613.246
32.5801
509.758
564.7
32.685
583.641
512.094
51.7222
606.036
284.585
33.9284
569.256
611.075
33.8319
597.843
603.068
613.376
590.892
632.093
449.344
54.2262
554.696
593.436
33.478
603.765
39.1272
524.778
628.274
502.256
51.4865
600.694
595.293
630.018
608.51
604.94
43.5496
584.793
507.39
605.589
311.491
604.179
275.314
249.426
558.224
33.0634
594.93
630.634
604.26
32.8741
590.427
597.249
588.584
618.633
599.73
525.809
35.2377
32.4678
43.4102
586.354
476.927
428.737
518.769
609.175
277.04
32.2804
608.496
614.524
32.0556
585.856
586.297
34.2304
472.552
76.9556
443.51
616.071
33.2526
495.128
365.042
585.895
509.091
535.488
623.033
493.272
482.775
588.096
45.7628
462.042
597.163
588.642
502.011
589.568
620.114
37.5175
612.102
58.1769
621.68
577.513
32.3246
598.61
625.416
561.363
598.928
432.696
460.683
581.713
611.956
587.948
540.124
470.058
604.73
538.476
455.769
588.244
602.157
33.5955
33.9753
57.763
47.6633
531.349
630.103
44.8412
37.2435
597.331
499.462
605.056
273.332
45.8978
594.233
617.112
606.75
603.781
587.543
620.341
91.6376
58.0895
36.7115
550.152
587.696
585.692
587.343
32.4756
454.372
610.968
236.026
604.876
641.707
553.782
617.73
640.24
476.371
549.785
275.564
601.912
595.311
660.921
593.48
590.994
478.039
481.327
587.825
474.969
593.881
536.655
602.006
560.52
42.8317
602.822
598.529
507.341
33.106
267.961
568.927
368.6
630.669
41.791
595.472
34.0466
491.434
429.277
478.783
511.482
634.573
33.4774
605.494
594.808
591.869
267.215
551.986
32.1422
613.367
596.683
32.6732
647.103
487.425
299.547
594.117
445.686
679.706
550.015
589.379
525.902
606.158
32.0742
33.5049
553.639
32.3325
595.538
618.946
597.667
598.682
34.0315
514.612
618.746
600.493
33.3657
614.653
61.761
49.4872
584.478
608.476
409.341
38.0691
616.905
495.107
562.246
485.957
537.061
623.419
607.451
613.223
446.684
317.974
48.0337
549.154
481.663
34.2998
592.551
27.9274
644.634
329.662
586.662
560.021
594.262
594.844
593.919
32.1172
666.85
32.603
545.765
521.303
595.812
538.076
35.5649
571.049
598.219
597.787
41.5671
34.0906
661.611
498.17
528.697
27.6947
625.543
410.274
511.079
602.676
609.031
464.122
33.9958
584.721
32.0922
64.0235
32.0302
32.1392
638.128
492.806
445.095
315.944
33.0033
612.881
576.547
607.296
585.212
37.7928
550.952
31.6832
604.738
597.498
42.8716
593.752
46.7865
625.685
245.431
625.879
576.927
31.6261
520.456
468.555
597.212
612.178
454.059
417.256
573.072
473.618
594.027
437.78
237.146
583.298
589.542
606.015
588.581
550.739
526.006
604.682
34.6877
599.167
578.267
655.033
32.5197
599.014
545.031
600.087
563.854
544.81
234.486
565.645
76.0254
526.272
638.742
397.264
594.978
649.985
33.2794
594.102
496.992
30.4782
604.353
680.224
32.6972
492.572
528.38
79.6574
588.097
483.706
663.751
608.607
523.289
596.613
530.134
546.901
36.8548
553.129
594.545
638.519
32.2636
298.455
26.6244
589.509
33.366
609.357
635.174
611.747
599.686
34.4915
611.122
598.426
520.085
612.32
31.8115
465.339
584.166
31.834
569.211
36.0884
609.143
27.7346
334.639
621.918
406.856
599.826
605.055
589.566
467.582
636.671
588.427
524.127
27.291
32.308
465.46
35.4361
44.8444
600.393
32.142
600.59
403.914
591.681
500.202
601.26
643.406
138.538
456.321
559.202
34.8023
254.723
599.476
33.3504
597.773
659.034
34.5547
606.06
552.069
54.8642
495.065
596.438
34.1358
467.135
27.8471
375.789
637.188
610.399
612.089
609.123
605.336
36.3808
497.312
353.699
513.22
596.093
229.385
560.936
605.12
487.18
570.581
627.779
581.212
584.952
757.581
597.058
619.532
32.1933
603.527
597.901
440.092
598.299
462.309
510.181
657.868
236.81
593.286
428.813
554.556
613.501
636.487
631.174
286.58
235.081
651.4
31.9489
288.667
618.052
529.984
40.4792
466.962
599.677
577.472
270.001
545.176
35.0107
240.008
631.753
27.5144
630.422
488.491
53.3038
598.852
588.38
588.802
592.728
121.015
481.571
605.631
500.545
425.538
649.463
620.084
584.579
654.956
593.985
597.826
72.8633
584.994
210.992
600.953
592.617
583.518
606.523
590.895
645.209
617.269
623.588
31.7761
26.7108
232.177
441.837
402.34
621.576
31.6716
558.892
27.3043
316.621
598.08
640.722
590.377
619.499
599.457
294.344
450.459
32.0525
594.808
699.13
615.049
612.165
602.37
453.689
32.5325
456.605
231.116
603.057
32.8422
581.71
593.397
621.905
546.488
555.851
549.747
460.304
603.703
233.07
367.753
29.4013
620.281
613.407
526.28
605.331
506.671
232.866
31.6143
634.81
606.191
31.5841
322.23
588.225
612.905
611.428
624.69
605.923
534.745
630.427
622.344
647.783
608.826
43.2278
606.034
591.537
466.771
631.555
600.746
612.667
615.413
584.544
629.26
604.929
628.672
237.675
66.4119
481.652
474.292
33.2052
594.949
587.349
606.77
451.19
612.341
605.599
214.487
597.498
32.2936
28.5773
573.72
620.578
614.598
604.664
63.0162
42.3592
32.8358
622.818
565.917
601.194
237.811
540.528
249.79
585.297
658.079
35.1156
437.134
590.211
338.886
35.0929
31.9955
481.01
608.537
36.8446
236.034
601.642
570.282
244.455
619.119
487.842
237.467
603.636
618.71
218.581
473.083
596.171
605.143
641.185
474.639
478.984
599.046
620.284
600.38
545.889
583.975
600.462
611.94
593.88
34.5591
36.5017
32.6069
606.939
597.569
433.578
515.679
578.681
502.617
595.173
599.965
53.8549
539.802
578.477
537.565
607.409
41.6023
32.4633
611.375
618.136
592.953
442.59
32.6806
452.506
661.865
583.993
533.505
516.498
504.192
35.6036
616.581
644.123
31.7918
625.954
598.772
628.099
633.434
562.646
611.572
609.586
425.434
552.011
224.364
554.344
592.381
623.089
37.4456
582.885
577.656
540.021
393.321
31.7196
27.9748
610.683
256.129
469.408
249.085
544.124
602.303
570.644
221.176
336.792
609.976
590.879
520.129
229.379
36.0688
588.959
407.093
511.755
503.28
651.174
587.041
655.975
575.621
478.841
586.836
33.2154
613.195
573.478
631.139
48.8989
585.084
591.98
624.676
299.577
577.765
587.494
630.069
179.652
640.391
614.879
601.851
592.053
272.24
588.988
592.88
571.901
31.699
606.972
584.817
467.863
505.722
550.352
621.619
26.8288
595.269
602.35
630.192
32.0945
32.0615
510.52
513.573
34.3305
26.9955
121.434
42.3726
622.183
584.976
608.197
536.261
596.921
567.747
596.673
507.343
603.927
33.0411
624.996
32.0311
603.081
32.1729
558.017
631.618
605.42
614.107
468.211
673.679
615.983
600.225
629.853
32.2464
596.419
516.053
576.969
630.278
26.7066
347.932
231.871
603.65
501.345
621.497
32.6982
34.5006
596.402
31.7132
27.3062
597.968
601.907
649.596
640.493
648.279
603.172
32.4566
362.665
656.854
602.017
593.202
525.605
45.8213
294.013
42.3684
638.178
35.6875
525.609
125.958
614.182
232.268
593.209
614.869
465.643
469.784
480.842
603.782
613.922
36.332
186.242
593.392
577.973
592.337
31.6496
602.496
31.7305
36.6779
611.333
34.0817
631.05
32.3184
542.149
612.561
577.851
654.397
591.454
617.936
600.144
34.143
528.882
32.0369
588.801
605.449
404.315
595.898
368.372
599.193
291.351
623.468
583.345
26.6182
591.345
593.252
619.895
596.933
34.298
628.515
593.523
32.4255
277.724
241.38
590.517
659.74
230.39
615.305
629.619
622.078
578.25
594.186
544.181
631.048
539.619
33.7892
507.476
549.372
584.678
591.999
39.822
478.641
594.023
620.18
29.4284
31.9221
557.885
32.3608
561.614
243.286
583.89
34.4446
600.865
556.99
588.924
595.963
478.551
32.4122
603.921
31.9129
496.65
316.989
71.9229
588.713
531.493
43.0892
577.098
283.959
558.763
419.864
615.38
32.3647
32.3875
33.4134
589.668
33.082
47.4949
33.063
256.052
398.634
663.586
605.145
684.012
31.8084
511.5
34.2831
599.072
561.344
602.095
98.1701
595.437
467.417
592.807
66.5321
502.717
451.807
598.467
636.988
257.18
560.697
522.438
636.433
428.243
598.977
596.962
32.5155
32.0207
603.315
37.0238
539.238
589.425
37.1403
33.9773
572.446
515.522
605.929
589.884
515.673
32.2145
609.083
46.3163
619.583
588.905
43.6861
617.555
465.951
597.847
230.35
569.97
43.2154
609.995
317.841
600.53
405.107
262.311
31.9924
326.099
96.5431
526.078
33.0673
50.4317
34.365
598.173
34.6679
45.8785
26.7176
627.022
541.325
600.102
613.925
240.435
577.888
613.683
420.273
585.539
32.4993
619.109
38.1977
597.309
585.727
523.767
603.357
468.876
602.611
579.307
580.249
26.7307
599.775
596.832
31.923
45.8516
584.959
636.652
613.728
619.655
41.3818
31.9244
32.4309
522.597
36.2103
66.035
435.115
595.615
600.816
598.803
593.919
549.57
32.8825
35.7392
589.17
629.939
589.924
385.9
42.2138
252.484
527.026
573.04
456.531
33.8702
419.591
33.1453
517.686
620.379
31.6806
33.0131
28.2647
580.321
619.704
648.431
475.008
606.529
592.286
585.446
597.558
557.811
34.7955
598.745
603.4
32.572
588.64
31.9489
639.644
32.0117
659.004
593.077
32.3427
270.377
237.825
586.672
546.674
590.814
446.947
35.4929
466.163
662.903
615.019
594.219
272.383
629.578
566.89
395.95
593.603
32.1786
592.351
43.1542
32.0277
452.773
592.923
32.1201
598.223
604.379
286.358
612.221
627.051
655.399
230.198
32.7441
600.45
437.255
612.039
31.9154
26.7066
575.728
484.005
598.796
607.717
627.839
610.846
592.007
509.318
585.372
622.316
574.941
599.933
610.972
594.393
224.042
33.0023
58.4959
682.659
77.0939
278.026
623.9
35.3413
30.1997
67.8008
569.348
592.574
230.479
303.565
622.936
554.356
46.3684
588.877
587.634
34.1201
598.402
438.01
534.642
600.484
34.0472
39.8087
585.133
57.4131
33.5307
319.448
246.198
544.308
91.1442
589.489
31.7104
597.818
304.585
26.7602
595.179
498.727
592.03
616.282
595.892
32.9635
587.389
539.117
595.662
486.373
33.6132
601.492
584.957
532.208
49.7311
590.34
603.361
653.624
243.323
610.518
292.458
320.456
592.413
415.815
612.647
570.199
518.083
588.695
479.786
31.8457
484.406
554.546
47.0467
26.8326
572.571
35.5559
492.484
578.079
32.1738
521.737
417.201
646.027
624.599
597.496
600.819
588.742
604.727
33.7631
33.0796
32.6266
598.846
405.351
662.417
589.646
32.2055
588.177
38.4372
612.567
33.3884
600.167
32.6013
446.403
49.6267
33.9205
515.837
31.8721
475.127
598.912
296.885
42.8091
51.1743
628.104
469.849
593.35
561.512
634.969
582.388
597.633
602.092
558.15
557.137
31.7791
585.973
32.8149
608.089
461.996
39.0588
528.264
67.6824
590.552
632.239
623.759
578.434
592.648
248.365
649.01
607.705
415.021
539.477
35.0714
607.799
655.055
533.846
530.489
517.174
568.124
585.683
329.526
570.363
634.887
37.1223
589.297
32.0915
561.668
598.072
605.897
32.0003
552.116
31.9746
536.159
582.942
26.9669
506.871
60.4236
531.241
592.413
587.123
649.509
49.9709
583.894
644.909
508.119
416.193
227.423
26.8438
34.3315
81.2998
605.113
26.6145
621.124
32.6432
522.225
622.57
613.231
481.112
606.808
523.609
556.171
610.012
579.687
567.955
478.254
300.86
417.889
294.731
589.845
438.109
583.325
588.807
628.291
31.8449
611.765
32.7789
293.574
432.29
47.8556
617.525
648.56
33.5537
539.35
616.207
243.724
546.571
588.327
585.519
240.385
41.6398
633.672
571.302
34.3735
39.5441
475.881
584.874
425.404
31.5868
608.122
280.591
664.341
597.906
485.014
605.748
46.0512
592.922
38.5094
34.0835
33.4573
626.778
363.961
611.251
601.491
26.6144
600.919
32.93
33.5876
660.537
598.198
608.9
245.631
582.013
317.524
38.9324
625.981
88.6567
601.047
32.9914
234.491
525.754
247.474
32.7464
28.0493
574.851
46.6864
605.609
82.2051
517.971
254.07
603.77
647.201
586.891
588.717
34.4175
565.155
600.881
41.7784
33.908
603.042
32.1838
26.8243
131.452
585.595
32.5519
583.758
26.655
586.425
576.811
586.245
547.643
33.2686
478.578
609.077
34.0661
36.5342
604.848
608.826
548.548
490.264
425.648
648.174
109.672
33.1397
32.8853
33.28
435.162
478.275
439.571
664.696
42.24
65.8771
34.0237
459.945
457.652
628.221
36.7476
564.289
562.433
577.535
602.266
64.0847
588.054
609.145
257.307
627.319
609.943
586.839
628.73
31.9286
270.659
608.813
600.344
83.7044
403.883
480.893
237.681
26.8316
648.941
502.71
33.7363
455.491
32.0216
436.68
26.9221
572.139
604.431
26.9056
37.0785
33.8057
34.229
34.7088
579.222
520.253
583.56
34.3718
613.239
591.236
525.747
601.601
663.014
32.7898
517.534
217.757
32.5746
579.953
530.545
578.978
399.887
668.906
598.108
32.9062
32.9184
33.9918
238.542
634.463
545.539
598.073
547.255
440.61
32.288
32.8151
32.164
484.18
605.328
532.241
634.004
31.9593
588.277
32.8277
649.64
32.0472
589.028
76.6812
659.467
444.777
430.105
611.34
27.6275
34.5165
602.462
621.818
31.9599
616.036
582.466
553.685
623.501
585.041
34.2069
642.384
248.894
515.56
35.7022
609.491
605.047
597.203
590.215
593.844
41.6062
260.759
32.2866
579.157
610.295
34.4391
533.247
33.7529
455.543
594.139
230.677
375.338
495.457
31.9651
522.089
126.672
243.941
393.972
605.468
273.947
605.663
251.167
32.2212
501.692
605.83
32.4
247.185
572.553
27.3765
575.282
32.2655
33.3728
580.508
600.879
487.111
635.739
590.393
607.453
531.938
161.569
408.908
229.019
242.19
32.0115
674.273
670.986
602.273
454.634
36.8435
406.318
604.805
555.856
581.787
53.4827
659.212
32.0652
591.734
29.7938
233.734
35.6736
34.6092
573.316
225.997
26.7341
606.401
583.897
232.393
34.0373
636.23
431.058
226.589
34.7535
625.893
439.338
242.265
644.396
612.442
586.47
588.463
561.385
32.8612
307.804
441.231
45.4122
456.698
608.413
521.894
282.004
464.236
434.467
608.995
607.878
235.525
217.272
632.715
598.365
211.681
605.395
568.253
27.6023
606.223
608.236
574.121
586.455
602.616
33.5835
467.065
584.608
277.053
567.671
31.9294
489
34.3078
443.235
351.207
444.816
32.2504
606.725
592.639
601.529
34.0643
511.343
31.8794
74.9724
435.866
608.574
631.289
623.162
590.666
33.8243
605.516
40.7337
34.237
92.5733
512.475
533.535
584.675
568.849
608.618
481.552
67.0763
34.141
118.255
239.261
222.439
439.172
681.175
473.589
449.808
540.62
607.571
402.869
626.69
609.04
34.9383
593.003
624.192
31.5681
310.384
589.18
586.779
563.371
464.649
45.6676
587.639
543.14
242.65
227.309
528.292
511.289
246.707
632.242
31.575
501.737
605.507
588.937
544.078
601.132
35.6453
727.127
492.591
506.547
497.257
597.68
464.521
449.762
589.128
572.325
33.8646
32.5187
607.78
250.649
597.523
558.437
455.39
541.586
572.675
514.285
644.622
33.7006
55.5211
50.2224
32.0015
83.4511
32.0358
536.732
609.099
31.7447
605.19
37.1616
591.734
219.132
589.353
529.318
555.202
600.589
582.376
607.611
234.456
592.853
608.578
606.553
605.005
604.792
622.722
573.068
31.8382
651.752
592.182
67.5113
562.253
596.778
623.979
31.6317
579.543
626.669
607.514
604.773
32.1656
620.252
405.459
664.86
36.2907
34.0648
32.2672
31.6176
37.6928
57.4467
124.432
70.8256
586.52
455.137
583.942
599.236
583.396
533.812
234.466
620.861
522.243
475.604
247.344
521.112
643.503
629.509
592.515
485.624
588.217
601.414
245.515
566.419
31.9497
32.6931
664.772
607.572
41.3098
507.8
36.1925
246.72
598.455
139.137
31.7515
495.997
632.382
637.61
76.5165
34.2369
628.358
69.4545
652.318
448.07
31.7557
558.905
27.927
558.066
592.4
611.197
230.206
491.74
258.652
32.4392
594.934
333.233
235.917
606.511
31.6939
608.246
236.711
50.5519
32.0507
664.38
32.4225
609.463
617.794
595.33
34.1509
509.316
619.359
601.518
605.44
596.272
581.423
548.604
534.031
466.641
610.543
608.57
32.0744
592.042
225.771
625.17
603.335
575.226
585.687
517.391
569.683
33.4645
244.819
31.5823
534.471
605.648
225.632
599.539
576.361
494.839
608.157
560.249
544.868
617.607
600.519
66.0191
584.113
600.488
609.486
34.4103
453.624
658.024
598.317
33.0685
442.037
297.811
33.7094
654.601
430.035
557.679
238.491
458.086
636.816
462.898
605.564
583.729
666.191
467.532
51.7802
280.937
32.3547
347.032
601.907
632.352
586.186
31.897
619.055
231.515
592.904
595.626
604.99
541.924
31.6273
623.884
595.837
570.802
540.508
27.6628
281.284
231.222
478.014
299.565
524.657
307.87
586.951
609.359
32.6399
506.532
566.464
276.956
27.8001
390.991
580.758
296.076
303.885
632.643
27.9184
602.513
31.977
554.813
28.0635
508.953
28.0379
32.4217
623.37
34.928
66.754
515.394
496.411
285.954
460.678
563.95
632.41
311.723
85.367
521.538
91.8071
33.3893
605.807
607.243
32.5587
571.801
596.577
605.905
45.3264
26.8182
28.0685
636.707
90.4526
410.468
27.9104
224.055
647.784
619.431
150.952
226.519
485.721
659.249
591.887
601.499
591.717
588.854
487.672
662.337
371.01
627.667
580.646
542.678
584.535
550.455
32.0367
626.571
27.9299
34.1305
315.533
586.913
33.5696
357.112
238.446
596.808
68.4474
285.458
582.332
33.0189
60.748
621.481
601.657
588.254
580.361
561.42
298.115
336.01
498.27
434.582
624.788
373.465
570.444
407.375
603.043
33.3302
200.682
642.044
577.592
44.4179
609.365
522.728
544.95
36.153
34.2161
31.6533
575.633
610.85
586.421
508.038
580.863
222.914
633.335
595.686
592.725
510.321
494.489
589.137
34.4328
566.365
322.935
37.8865
587.368
261.99
34.0176
524.338
584.457
543.045
384.082
225.783
107.63
621.607
47.0614
610.022
289.159
236.695
582.008
604.103
32.6667
28.2579
32.1079
35.0079
582.326
590.679
289.411
409.19
541.378
604.981
59.4855
629.116
34.0379
34.2021
597.914
32.3065
598.807
597.929
35.5437
512.015
652.661
26.6255
421.418
27.8545
585.887
446.397
32.1905
27.1492
60.0248
625.832
465.204
603.008
32.601
443.332
605.265
531.052
316.836
635.226
74.6609
35.8095
34.3481
417.317
621.58
556.809
402.349
471.155
92.9368
613.731
643.688
528.685
37.3015
661.526
618.595
583.04
603.769
110.161
585.616
603.26
596.618
631.936
633.995
582.357
607.91
32.9175
597.136
98.8717
506.753
588.982
488.649
459.08
484.106
594.011
619.601
27.7799
34.2959
33.7664
365.377
431.507
609.132
493.257
596.071
559.204
33.2207
608.045
538.578
34.3634
33.0967
312.555
320.304
552.478
575.008
32.8759
500.591
34.3158
595.151
31.8311
321.528
635.613
34.6632
425.88
406.531
603.477
31.5453
444.125
493.409
605.885
607.926
550.906
495.575
624.502
594.553
59.1371
584.143
34.0254
620.88
31.7904
64.7248
33.4558
533.835
448.638
537.494
32.9936
479.618
485.986
516.797
481.555
229.597
600.183
646.319
620.973
483.78
545.676
571.322
77.5823
77.3577
608.186
605.039
282.571
584.044
33.625
126.363
647.288
76.0449
487.505
27.1528
541.698
603.56
654.114
569.445
32.9876
608.339
292.155
572.784
357.861
411.384
664.138
33.3509
647.435
607.514
338.709
404.361
603.144
451.746
601.689
628.273
603.773
233.518
590.015
607.176
649.236
591.496
608.731
573.477
608.47
40.978
31.6042
509.109
602.082
33.4704
602.884
29.3629
233.153
597.808
352.229
496.649
497.267
645.32
603.005
37.2414
633.516
32.2568
26.6377
656.888
472.608
497.203
34.4955
574.042
570.336
597.219
34.6043
366.059
66.7003
608.282
62.9898
29.0249
519.083
302.595
500.197
587.572
535.521
31.5843
589.502
660.198
475.803
30.4909
606.264
565.059
606.039
607.451
47.8027
642.932
461.759
602.737
420.279
33.7866
36.1569
357.635
547.56
31.9015
503.503
66.7047
575.593
559.017
473.644
344.859
588.202
77.3014
33.8547
628.011
575.231
76.5249
636.936
652.783
77.3004
33.8994
561.458
488.961
31.9913
596.949
53.9283
27.5483
552.752
602.272
603.906
611.249
545.211
32.7657
607.231
618.913
627.144
29.4445
509.863
592.577
525.098
600.568
26.6626
254.993
585.433
620.177
571.448
34.7426
583.375
622.041
575.266
652.41
345.989
32.2928
32.0536
35.906
32.3008
597.66
618.471
618.893
455.398
51.5576
590.139
260.285
168.136
524.005
581.744
572.365
241.498
587.846
589.314
417.964
34.1753
29.4633
27.0416
595.26
464.003
547.186
34.0013
590.213
621.317
27.0212
33.8713
609.242
31.6423
34.3297
588.357
35.4251
583.166
610.6
27.5911
662.658
602.156
39.471
28.3196
26.6633
33.781
573.675
92.017
585.915
558.793
534.935
661.548
482.401
623.87
601.491
638.583
32.6232
597.161
32.7513
29.4463
647.525
609.269
298.73
635.227
649.038
32.038
553.359
534.262
605.713
48.3082
636.549
40.3854
592.147
32.8943
615.201
619.858
31.9108
625.231
551.984
31.9488
596.951
516.264
43.0639
390.517
647.557
570.373
61.6644
691.787
597.93
578.741
32.0693
31.9559
593.423
645.317
550.344
35.9123
506.227
32.5851
34.4969
26.6942
607.778
606.68
635.188
606.08
588.717
32.1967
572.421
607.819
55.7756
616.122
67.913
649.528
587.219
629.401
28.6398
647.877
32.29
265.076
32.0479
587.484
33.2097
581.861
29.798
33.993
588.975
43.9582
622.093
582.784
588.707
31.8021
33.2855
26.6469
601.237
468.362
497.795
34.231
34.6243
101.011
34.0589
33.4755
587.776
607.782
26.887
75.6449
26.6777
603.313
33.864
577.99
345.231
518.91
462.068
233.689
423.994
33.7922
606.591
493.022
313.915
231.138
93.1581
605.178
87.8253
202.155
48.2187
33.679
544.52
542.443
31.8284
601.46
459.801
29.0457
52.8467
470.593
650.521
490.463
603.952
605.603
716.473
596.443
590.132
211.691
596.167
282.324
619.826
605.611
33.8875
26.8153
228.505
605.707
32.6782
618.308
521.287
607.962
601.958
495.842
556.444
613.261
585.772
539.542
315.467
429.02
551.626
337.066
26.6552
599.039
614.084
293.692
622.104
588.553
59.002
621.087
441.433
585.986
34.6116
651.42
26.6244
75.9695
227.427
485.412
432.635
637.781
32.1194
558.395
606.043
33.8409
677.522
502.658
453.546
587.391
586.58
446.994
32.4941
607.404
319.96
33.742
552.328
620.968
612.206
334.632
586.475
50.235
648.77
40.8225
563.875
26.6564
592.001
597.807
296.201
653
452.998
33.5332
618.884
542.856
227.388
550.836
371.791
642.3
587.245
608.369
489.5
26.6505
585.673
32.3684
44.051
556.527
32.0847
328.378
31.6571
291.863
26.6336
565.772
33.9191
628.883
636.382
605.001
508.773
570.554
628.206
467.991
66.9739
72.1287
584.591
419.682
686.404
418.476
320.402
624.294
288.844
32.8488
46.4392
26.6823
318.957
610.43
609.598
90.195
604.638
33.493
375.669
701.06
424.472
248.428
603.732
248.466
434.865
648.905
32.621
499.168
592.525
602.96
536.147
501.82
249.682
32.6065
46.9213
47.7021
631.056
154.93
638.884
364.72
607.784
34.2693
65.0785
643.371
33.8021
562.196
485.377
594.784
614.845
33.339
44.4322
568.453
442.617
31.8678
72.6204
54.1895
53.6118
363.784
222.973
64.989
237.545
632.1
34.3138
479.466
648.134
491.291
122.524
635.14
618.27
646.882
40.1533
34.1641
590.488
597.734