/*--------------------------------*- C++ -*----------------------------------*\
| =========                 |                                                 |
| \\      /  F ield         | OpenFOAM: The Open Source CFD Toolbox           |
|  \\    /   O peration     | Version:  v2012                                 |
|   \\  /    A nd           | Website:  www.openfoam.com                      |
|    \\/     M anipulation  |                                                 |
\*---------------------------------------------------------------------------*/
FoamFile
{
    version     2.0;
    format      ascii;
    class       volVectorField;
    location    "350";
    object      U_0;
}
// * * * * * * * * * * * * * * * * * * * * * * * * * * * * * * * * * * * * * //

dimensions      [0 1 -1 0 0 0 0];


internalField   nonuniform List<vector> 
18355
(
(1.09876 0.0803148 -2.06716e-20)
(0.118182 -0.0173723 0)
(1.00427 0.0222577 -1.18918e-21)
(1.01487 0.00478985 -1.15009e-21)
(1.04224 -0.00478115 2.71995e-21)
(1.13997 -0.0616476 3.21438e-20)
(1.00412 0.00712868 0)
(1.15252 0.022994 -3.18193e-20)
(0.937895 -0.0073103 0)
(0.0529082 -0.0114759 0)
(1.02151 0.00047162 -3.84569e-21)
(-0.235468 -0.0120527 7.76605e-20)
(1.18768 0.0110085 6.6433e-20)
(0.987523 0.00586671 7.94741e-21)
(1.02644 0.0338544 0)
(0.989225 0.0697686 -4.11236e-21)
(-0.260161 0.00894072 2.05544e-20)
(1.0153 0.00950635 0)
(1.00578 0.0359393 -8.09251e-22)
(0.617905 -0.0934304 -1.05448e-20)
(0.970376 0.0891593 -1.87452e-20)
(0.975551 0.0344565 1.42801e-20)
(0.166123 -0.0295367 0)
(1.04146 -0.00580015 -1.3825e-21)
(1.04988 -0.0209514 0)
(0.999395 0.00423097 -7.4933e-21)
(0.996156 0.000214777 9.13734e-21)
(0.942815 0.00731714 -2.28883e-20)
(0.0573683 0.205698 7.63404e-21)
(0.994397 0.0246686 -1.06798e-20)
(1.03505 -0.00512902 7.32613e-21)
(1.04783 -0.00892729 -7.15961e-21)
(1.01531 0.00943949 -1.47767e-21)
(1.00972 0.000569007 -4.62342e-22)
(1.13733 0.122699 -7.03728e-21)
(1.10433 0.0754482 3.09378e-20)
(0.955472 -0.00192047 0)
(1.19221 0.258226 -9.69919e-20)
(0.944095 0.00806113 2.4593e-20)
(1.0221 0.000929552 2.09993e-21)
(0.986801 0.00565375 -6.23767e-21)
(0.960454 0.325428 0)
(1.00422 0.0224307 0)
(-0.0113066 -0.00636758 0)
(1.01437 -4.12799e-05 0)
(1.20751 0.244884 1.2096e-19)
(1.14615 0.0647334 1.98842e-20)
(0.936779 0.025769 3.27731e-20)
(1.13303 0.073928 4.92252e-21)
(1.01494 0.0106883 -1.49813e-21)
(1.01919 0.00272526 8.13392e-22)
(1.01704 0.0215979 -3.44266e-22)
(1.00003 0.000475442 3.96322e-21)
(0.314059 -0.042784 -2.08166e-20)
(1.00058 0.00599484 0)
(1.00183 0.000381887 -1.47264e-22)
(1.09328 -0.138772 0)
(1.02632 0.034498 -2.36315e-21)
(0.120841 0.47517 3.52145e-20)
(1.22157 0.114895 3.25888e-20)
(1.01443 0.0112734 6.24459e-22)
(1.14175 -0.0304184 0)
(1.01634 0.0091959 -5.07404e-22)
(1.02611 0.199723 4.95308e-21)
(-0.219632 -0.0149836 -1.18093e-19)
(1.09653 0.0694413 1.79281e-20)
(0.0545208 0.15831 0)
(0.857822 0.0605241 4.06956e-20)
(0.996514 0.000496022 -7.39288e-21)
(0.977766 0.0354335 3.95264e-21)
(1.15766 0.0944964 0)
(1.0001 0.000516638 1.64854e-21)
(1.22731 0.128702 0)
(1.01156 0.0112399 1.61398e-22)
(1.15242 0.0212491 2.89122e-20)
(1.00421 0.00708855 5.37484e-22)
(0.67202 -0.0699491 -1.85832e-20)
(1.04947 -0.00674591 0)
(1.06009 -0.0283882 4.37474e-21)
(1.01633 0.0185466 3.42614e-22)
(1.0037 0.00683678 -1.62172e-21)
(1.26769 0.353763 -7.66419e-20)
(0.971968 0.0834609 1.95742e-20)
(1.07434 0.177139 2.14687e-20)
(0.999205 0.00436432 4.5409e-21)
(1.18451 0.0139696 3.0175e-20)
(0.247894 0.0160255 0)
(0.630021 -0.0956614 -9.82757e-21)
(0.0435932 0.212559 2.48631e-20)
(0.296302 -0.0349542 -2.02324e-20)
(1.21142 -0.0632821 7.36751e-20)
(1.01428 -4.65502e-05 -2.46341e-21)
(1.00007 0.00573792 -7.81911e-21)
(1.01839 0.000413389 0)
(-0.00927429 0.217269 0)
(0.134746 -0.0269513 -2.63717e-20)
(1.02529 0.0147864 0)
(1.07088 -0.00297428 2.63968e-22)
(0.275962 -0.0396727 2.11699e-20)
(-0.198483 0.0119631 0)
(0.00535784 0.241985 0)
(-0.22047 0.0100792 -4.16388e-20)
(1.10124 0.132771 0)
(1.1356 -0.0653511 8.55321e-20)
(1.04126 -0.00934372 5.18404e-21)
(1.17265 -0.0390041 -1.18843e-20)
(-0.291455 -0.00579759 -4.4792e-21)
(1.14116 0.297445 6.72666e-20)
(1.10259 0.0233453 -2.44192e-20)
(0.489354 -0.280979 2.54543e-20)
(0.998474 0.0236201 -4.68414e-21)
(0.951514 0.0166344 0)
(0.999126 0.00370222 -1.00269e-20)
(0.947997 0.0176186 0)
(0.29663 -0.0450829 0)
(1.00297 0.000908241 1.87752e-21)
(0.0888847 -0.287331 9.41368e-20)
(0.666894 -0.0720683 -1.94124e-20)
(0.10621 0.356719 2.16226e-19)
(1.09842 0.137382 1.21357e-20)
(0.061698 -0.0127044 -3.69699e-21)
(1.32964 0.0746381 0)
(1.04862 -0.00766226 0)
(1.15769 0.0931243 -2.00434e-20)
(1.02449 0.0149254 3.26523e-21)
(1.1414 0.325042 -4.11888e-20)
(1.01732 0.0212706 7.50293e-22)
(0.999963 0.00118436 2.99875e-21)
(1.35484 0.211169 -5.84898e-22)
(1.01822 0.000688602 1.20042e-21)
(1.01914 0.00268732 0)
(1.18116 -0.0416693 -4.83943e-20)
(1.12893 -0.00858567 1.06523e-20)
(1.06955 -0.0048612 0)
(0.918512 0.192045 2.24826e-20)
(1 0.00128791 -6.29528e-21)
(1.02307 0.0259955 -2.22965e-23)
(1.02151 0.000515804 0)
(0.992094 0.0152308 0)
(1.16619 0.167426 4.95387e-20)
(0.00462069 0.242603 0)
(-0.0220201 0.229311 1.84781e-20)
(1.00018 0.0466787 0)
(0.997957 0.0228879 5.80707e-21)
(0.379961 0.0291989 -9.68725e-21)
(0.975311 0.0318253 -1.56726e-20)
(0.909973 0.00917031 -2.19632e-20)
(0.208843 0.0497458 2.93333e-20)
(1.06115 0.00722383 6.70042e-21)
(0.191121 0.0607313 -2.62973e-20)
(1.04246 -0.000438191 5.30719e-21)
(0.974868 0.0318863 1.08529e-20)
(1.13371 0.114684 2.02933e-20)
(0.126038 0.407175 8.62582e-20)
(1.11314 -0.0925462 5.15385e-21)
(1.00007 0.000596834 2.98483e-21)
(1.18065 -0.0424318 0)
(0.0556252 0.346235 -1.46225e-19)
(1.00006 0.000579085 5.04326e-21)
(1.14789 -0.0270932 0)
(1.01437 0.0998113 -2.09023e-22)
(1.05174 0.0581845 0)
(0.910883 0.0921031 4.05701e-20)
(1.06961 -0.00594631 0)
(1.15417 -0.150118 0)
(0.524187 0.671949 5.00169e-22)
(0.215865 0.052276 -5.12621e-20)
(1.12373 0.087642 -2.26596e-20)
(1.21934 0.00010362 0)
(1.01375 0.0108274 1.11951e-21)
(-0.0829916 0.187566 0)
(0.0986698 -0.0243066 2.73641e-20)
(1.02062 0.00109816 1.70362e-21)
(1.02132 0.00110649 -7.03394e-22)
(0.992274 0.0684365 3.38778e-21)
(0.136054 -0.0118043 5.09077e-20)
(1.07568 -0.0867425 -5.22571e-21)
(1.00042 0.00584268 -4.57624e-21)
(1.35197 0.21224 5.53928e-20)
(0.477007 0.232071 2.94165e-20)
(0.67068 -0.102547 -4.90604e-20)
(1.21909 -0.000737239 0)
(1.08367 0.00442167 3.73556e-22)
(1.00561 0.00665034 0)
(1.17854 -0.133432 0)
(0.157256 -0.014239 -2.18133e-20)
(0.268724 -0.0334691 0)
(1.19963 -0.0566356 3.47525e-20)
(0.93985 0.00542802 -4.38092e-20)
(-0.280083 0.00566486 0)
(1.08947 -0.137994 2.87654e-21)
(1.00475 0.0245646 -6.21006e-22)
(1.06853 -0.00721436 8.91147e-21)
(1.0776 -0.0748919 3.1882e-20)
(0.898524 0.209016 0)
(0.978505 0.0362848 0)
(1.24966 -0.0201164 1.99482e-23)
(1.08212 0.00399222 0)
(1.11057 -0.0111789 0)
(1.02111 0.00132874 0)
(1.05281 0.0152323 0)
(0.943409 0.0487969 1.06788e-20)
(0.149323 0.0696419 0)
(0.232954 -0.0299178 0)
(-0.254243 -0.00341663 -5.62872e-20)
(1.00234 0.113132 -1.85031e-21)
(0.070625 -0.26989 0)
(-0.071728 -0.0134235 -8.82958e-20)
(-0.0303671 -0.0340383 0)
(1.10825 -0.013163 5.64228e-21)
(1.02243 0.0275068 -1.40876e-22)
(1.04176 0.00147509 0)
(0.588524 -0.0786889 3.25231e-20)
(0.999991 0.0458578 0)
(1.01331 0.0106378 -8.36504e-22)
(1.27053 0.325893 0)
(1.05751 -0.197847 1.73433e-20)
(0.576043 -0.0761942 -1.18971e-20)
(0.999173 0.00340852 5.40945e-21)
(1.05948 0.00824609 -1.40485e-20)
(1.29864 0.21648 -4.03464e-20)
(0.993722 0.0162868 0)
(1.06476 0.179567 -2.41314e-20)
(1.023 0.0260368 -4.64551e-21)
(0.113159 0.0447997 8.4132e-20)
(0.986108 0.0350367 -5.37934e-21)
(-0.120505 -0.00060111 -1.18388e-19)
(0.182734 -0.0099465 0)
(0.55003 0.0139364 -9.27403e-20)
(1.02103 0.0278905 1.11814e-22)
(1.00005 0.000848797 -1.96542e-21)
(1.05856 -0.0261166 -1.20839e-20)
(1.03346 0.0900575 -2.64914e-21)
(-0.0870561 0.00147856 1.70134e-19)
(1.01696 0.053353 3.3111e-22)
(0.999512 0.00454536 4.85242e-21)
(1.00037 0.00546238 4.64121e-21)
(1.17187 0.314774 -3.99249e-20)
(1.21984 -0.0844376 2.09107e-20)
(-0.256614 0.000711694 5.89786e-20)
(1.09953 0.0209079 -1.77144e-20)
(1.22256 0.0132702 8.14969e-20)
(1.0352 -0.00640018 0)
(1.0128 0.0110485 -5.51106e-22)
(0.982903 0.035783 2.73542e-21)
(0.15948 -0.0058615 -1.26245e-20)
(1.30935 0.0505845 -2.63634e-20)
(0.0598456 -0.114337 0)
(1.10926 -0.0929955 4.53834e-21)
(1.01642 0.0986742 -6.51414e-22)
(1.05257 0.0147009 0)
(0.125734 0.812579 3.0312e-20)
(1.08307 0.000763493 -7.00153e-21)
(0.00260439 -0.0345535 -7.45878e-20)
(0.991076 0.0350608 -2.08212e-22)
(-0.22559 0.00811218 -1.82222e-19)
(0.943186 -0.187089 0)
(1.14937 -0.0268496 -2.85745e-20)
(0.999677 0.0283635 -2.75288e-22)
(1.00593 0.000549499 6.38371e-22)
(1.09126 0.0771419 -3.74968e-20)
(1.16966 0.0922339 -2.26267e-20)
(0.27586 0.107841 0)
(1.13178 -0.00872479 1.1657e-20)
(1.00833 0.00642945 0)
(1.01275 0.0097569 -4.13306e-22)
(0.999962 0.0007985 -4.12271e-21)
(1.2237 0.00593776 0)
(1.09892 0.261596 -2.36854e-21)
(0.591195 -0.0263796 5.647e-20)
(0.984151 0.0538184 7.59482e-21)
(0.143375 0.110818 2.70826e-21)
(1.20312 -0.0547529 8.6065e-20)
(1.17195 -0.0356255 0)
(1.03815 0.0276552 4.03801e-21)
(1.24887 -0.0194289 2.96283e-20)
(1.01693 0.0196826 -4.57392e-22)
(0.996143 0.00985887 -7.69594e-21)
(1.03483 0.83605 6.2644e-20)
(1.0086 0.000660601 2.40834e-22)
(1.00424 0.00754951 1.79537e-21)
(1.17367 -0.0285985 -2.11731e-20)
(1.00339 0.0160202 -4.33289e-21)
(-0.0229345 0.213171 0)
(1.08208 7.58872e-05 6.41706e-21)
(0.924911 0.0172553 3.22209e-20)
(1.00825 0.000872945 -2.4426e-22)
(1.12365 0.0848923 3.49329e-20)
(-0.233669 -0.012147 9.82213e-20)
(1.04867 -0.00846938 4.80893e-21)
(1.01443 0.00445018 1.45066e-21)
(0.98946 0.000461397 1.13636e-20)
(1.17603 -0.0614561 -6.33516e-20)
(0.172951 -0.0267717 -5.42711e-20)
(0.999981 0.000986385 0)
(1.00002 2.65581e-05 4.31957e-22)
(1.01343 -0.190146 4.59956e-20)
(1.11223 0.131971 -6.90927e-20)
(1.10616 -0.0977431 1.92473e-20)
(0.650462 0.387068 0)
(0.996349 0.00943554 3.73124e-21)
(1.16235 0.0865238 2.13112e-20)
(0.964138 0.030018 5.68349e-21)
(1.00003 9.76559e-05 -6.75318e-24)
(0.638022 0.377477 -3.34467e-20)
(1.157 -0.155273 0)
(1.14078 -0.200627 2.33247e-20)
(1.17768 -0.0675359 5.53043e-20)
(1.0182 0.000784825 -2.63393e-21)
(0.640681 -0.110536 -1.51271e-20)
(1.03953 -0.00974481 4.40094e-21)
(1.00457 0.03492 0)
(1.32489 0.0608118 -4.69235e-20)
(1.00096 0.021282 -3.20306e-21)
(1.22456 0.0060919 5.24666e-20)
(0.934146 0.325809 5.33594e-21)
(1.00011 0.00571201 -4.51043e-21)
(1.01655 0.00308184 -1.19187e-21)
(1.22462 0.011913 -2.62617e-20)
(0.0635042 0.0474123 -1.89489e-22)
(-0.0279036 -0.0169889 1.24713e-19)
(1.01881 0.0389938 -1.62058e-21)
(0.914762 0.0908253 0)
(-0.0234778 -0.00551999 2.89238e-22)
(1.02851 0.00121371 -9.3937e-21)
(1.21886 -0.0811689 1.96719e-20)
(1.05443 -0.0296245 -2.02477e-20)
(0.965249 0.144933 1.19039e-20)
(1.21985 -0.0795205 0)
(1.01794 0.00108308 2.40285e-21)
(0.505971 0.771409 -6.67343e-22)
(1.0027 0.033444 0)
(0.914988 0.200358 1.48868e-20)
(1.00108 0.000328861 0)
(1.10579 -0.0970722 -2.21134e-20)
(-0.240596 -0.00633385 9.0868e-21)
(0.999923 0.000193508 0)
(0.174816 0.112781 -1.70492e-19)
(1.1132 0.0195168 -6.31123e-21)
(0.995233 0.00306033 -9.86843e-21)
(1.14136 0.0731587 1.37038e-21)
(1.14263 -0.0295568 0)
(1.08597 -0.0619605 3.22654e-20)
(0.342881 -0.04913 9.69759e-22)
(1.13525 -0.0706323 1.95944e-25)
(0.991302 0.0347067 -2.28014e-21)
(1.01621 0.00852644 -7.56007e-22)
(0.113504 -0.0323478 -2.39247e-20)
(0.700196 -0.0657117 1.3489e-21)
(0.999821 0.00548633 -2.432e-21)
(1.01329 0.0514207 1.08976e-22)
(1.14009 -0.216445 -5.54019e-20)
(1.17739 -0.131327 0)
(0.351775 0.740386 2.16924e-21)
(0.145661 -0.0369222 0)
(0.998081 0.00436779 9.778e-21)
(1.05936 0.0163648 1.13585e-22)
(0.0440745 -0.159261 3.24392e-20)
(0.999508 0.0240852 4.13119e-21)
(1.01653 0.0533313 -3.29368e-22)
(1.20863 -0.0449201 0)
(1.10735 -0.0174378 -2.71039e-20)
(1.0606 -0.0031681 1.20383e-20)
(0.0846307 0.0615853 -1.6785e-20)
(1 0.000527039 -9.87935e-24)
(0.832884 0.162873 0)
(1.30373 0.231524 5.10532e-20)
(-0.289595 -0.00323169 -7.56659e-20)
(1.01427 0.00413178 0)
(0.986402 0.0226486 0)
(0.993657 0.0124425 -3.55646e-21)
(1.02334 0.0164892 2.6131e-21)
(0.837325 0.259332 -2.80641e-20)
(1.02376 0.0157562 0)
(1.11608 0.0921144 2.60536e-20)
(0.993927 0.0118091 -7.87292e-21)
(1.03706 0.0691136 1.05832e-20)
(0.998069 0.00439903 -3.46918e-21)
(0.940191 -0.00401981 0)
(1.03211 0.00896318 0)
(1.01094 0.0351552 1.96294e-21)
(1.03074 0.00991135 1.37455e-21)
(1.03065 0.0101233 0)
(0.999101 0.0649028 0)
(0.563086 0.12354 1.50648e-19)
(-0.0778146 0.18179 -3.43913e-20)
(1.02356 0.0247261 3.28773e-21)
(0.963518 -0.0657536 3.286e-20)
(0.952357 0.161095 4.35117e-21)
(-0.0818409 0.190154 2.99472e-20)
(1.09813 -0.00489294 5.05146e-21)
(1.17605 0.0456102 1.2954e-21)
(0.980922 0.0383405 6.27606e-21)
(1.04113 -0.0597195 1.56231e-20)
(0.957741 -0.00261003 0)
(1.0028 0.000637477 -2.00839e-21)
(0.999376 0.00490671 -7.69704e-21)
(1.01666 0.00457091 -2.51325e-21)
(0.304039 -0.0434927 2.0632e-20)
(1.06003 0.0422492 7.48827e-22)
(1.0146 -8.2634e-05 -9.94067e-22)
(1.12859 0.0170582 -8.55361e-20)
(1.11132 0.09158 0)
(0.999807 0.0251192 8.89486e-21)
(1.02841 0.000960301 6.65108e-22)
(-0.0480436 0.00504653 5.5224e-20)
(0.978383 0.036569 -8.31133e-21)
(1.01668 0.0197247 -8.17315e-22)
(0.195412 -0.640395 0)
(1.0038 0.0150453 -3.74607e-21)
(0.0625158 -0.0757892 -9.69934e-20)
(-0.266751 0.00534154 -2.2032e-19)
(1.20782 -0.0451722 -5.42549e-20)
(0.913188 -0.000809526 0)
(1.04049 -0.0100085 -9.8735e-21)
(-0.204646 -0.0156161 1.34367e-20)
(1.00013 0.000572425 0)
(0.999078 0.0161612 -3.27716e-21)
(0.0478332 0.701672 4.85663e-20)
(1.00005 0.000834136 1.05312e-21)
(1.02041 0.001419 2.27382e-21)
(-0.278727 0.00706347 -9.55e-20)
(1.01196 0.0109179 3.84846e-22)
(-0.226384 -0.00708239 1.67436e-20)
(1.09029 -0.052268 6.62217e-21)
(1.08558 -0.0894911 1.28247e-20)
(-0.247118 0.00837489 2.61649e-19)
(0.964092 0.0258133 2.21619e-20)
(0.999381 0.0156932 1.6841e-21)
(0.735154 -0.0814698 2.13382e-20)
(1.13716 -0.0668569 1.27835e-20)
(-0.0855722 0.185753 4.35154e-23)
(1.13315 -0.0660634 -9.47041e-20)
(0.994143 0.0108096 -5.67129e-21)
(1.0052 0.00648228 0)
(0.97506 0.0280087 -9.84524e-22)
(1.00719 -0.155108 6.851e-20)
(0.957496 0.202773 3.79635e-21)
(1.00588 0.0365559 0)
(0.999989 0.000515322 1.18967e-21)
(0.998772 0.0440221 -4.56173e-22)
(0.824183 0.185289 5.07503e-20)
(0.0644945 -0.166093 7.04546e-21)
(0.992071 0.108013 4.08593e-21)
(0.975841 0.0284899 1.24961e-21)
(1.00004 0.000786361 0)
(1.09731 -0.000381592 4.37257e-21)
(1.21439 -0.0673043 4.44722e-20)
(0.189365 -0.0291522 3.31145e-20)
(-0.222359 0.00784656 5.94447e-20)
(0.996782 -0.051186 -6.27051e-20)
(0.774453 0.133825 5.9162e-20)
(0.847005 0.186966 -3.81058e-20)
(0.0134556 -0.00861429 7.07691e-20)
(1.03811 0.00051596 0)
(1.0086 0.00894577 1.01771e-21)
(0.98969 -0.000119009 0)
(1.0236 0.0246746 0)
(0.830099 0.239356 -3.2086e-20)
(0.996507 0.00782026 3.33907e-21)
(1.01466 -7.1353e-05 -1.17868e-21)
(-0.219085 0.00807769 1.07077e-23)
(0.815242 0.176053 -7.21545e-20)
(1.13679 0.0656134 -2.25966e-20)
(0.3327 -0.0388961 0)
(0.760198 0.151905 0)
(0.134821 -0.00919319 0)
(1.01264 0.0262431 -5.89871e-22)
(1.03121 0.00904249 -4.66124e-21)
(0.995392 0.0220901 -2.54973e-21)
(1.00366 0.00639542 1.3234e-21)
(0.999991 0.00029582 1.48761e-22)
(1.00007 0.000601915 -9.83679e-22)
(0.996191 0.00897629 2.12649e-21)
(-0.0203802 0.226596 -1.79346e-20)
(1.02049 0.0384671 1.43075e-21)
(1.01788 0.00182884 -7.29068e-22)
(1.32002 0.0741438 0)
(1.22558 0.102167 -5.2063e-20)
(1.00829 0.00917048 -5.8768e-22)
(1.04917 -0.00276673 9.6574e-22)
(0.939299 0.24614 1.52088e-20)
(1.03418 0.870492 -1.01341e-19)
(0.992211 0.0668793 6.81947e-21)
(1.02634 0.0136517 1.85922e-21)
(1.07984 -0.062467 6.27588e-20)
(0.946427 0.0426027 -3.07461e-20)
(0.162742 0.138856 1.45677e-20)
(1.05366 -0.0317751 1.15527e-20)
(1.02339 0.017075 -2.61264e-21)
(-0.1867 0.00471796 1.96459e-19)
(1.22758 0.105032 1.38155e-21)
(1.01433 0.00801286 0)
(0.0434236 -0.035315 -7.79923e-20)
(-0.00970514 0.237407 2.17777e-20)
(-0.00489307 0.0283885 1.05851e-19)
(1.02287 0.0174361 0)
(1.02584 0.013029 -5.86215e-21)
(1.03125 0.0857435 6.88228e-21)
(1.17042 -0.0691566 0)
(0.964156 0.0185258 0)
(0.157338 0.115853 -1.85684e-21)
(1.05138 -0.158022 -2.08905e-20)
(1.008 -0.0658762 -9.21587e-20)
(1.33853 0.14416 -7.17835e-20)
(1.01686 0.00431692 0)
(1.08838 -0.0525139 0)
(0.194058 -0.0254009 -3.61274e-20)
(0.130812 -0.027318 -2.43439e-20)
(0.464526 -0.0731554 3.09476e-20)
(0.978844 0.0251711 0)
(0.985061 0.0993682 0)
(1.01043 0.102636 -8.05123e-22)
(0.0492661 -0.0129376 -1.78528e-21)
(-0.219984 0.00869854 -4.12116e-20)
(1.21392 -0.0610145 -6.85768e-20)
(0.987417 0.0373115 2.96022e-21)
(0.992571 0.0138887 -1.2595e-21)
(0.998199 0.00270984 1.93525e-21)
(0.955771 0.203691 0)
(0.996396 0.00857051 -2.0208e-21)
(0.801634 -0.0877291 7.68696e-21)
(1.01058 0.100877 -1.21441e-21)
(0.330486 -0.0508564 -8.11102e-21)
(0.986066 0.0154147 0)
(0.998945 0.0436418 0)
(1.00579 0.000633443 -6.63627e-22)
(0.865129 0.0542797 -2.26548e-20)
(1.03353 0.131455 6.71238e-21)
(1.21433 -0.0673309 -4.44553e-20)
(1.00272 0.0140211 0)
(1.16457 -0.0515161 0)
(0.987783 0.884404 0)
(1.07328 -0.0281519 3.21577e-21)
(1.00084 0.0284062 -6.38483e-21)
(0.941148 0.0404033 0)
(1.06563 -0.0363388 -3.89687e-20)
(1.00003 0.00085414 0)
(1.10369 0.0429725 0)
(1.10935 -0.0162392 2.88453e-20)
(1.07303 -0.0276291 0)
(1.22648 0.146842 5.74402e-20)
(1.01431 0.0526665 -1.22714e-23)
(1.0142 0.00754964 0)
(0.990246 -8.82174e-05 0)
(0.999967 0.000229277 0)
(1.11898 0.0880262 -5.15405e-22)
(1.05946 -0.00437242 -1.11417e-20)
(1.14419 -0.025638 0)
(1.01234 0.0249872 3.99425e-22)
(1.04151 -0.00584616 0)
(0.0162912 0.181548 1.136e-20)
(1.01762 0.00134969 0)
(0.847924 -0.0197364 1.46284e-20)
(0.960735 0.0182222 -1.79023e-20)
(1.2085 0.21542 -9.64381e-20)
(0.928803 0.0154284 -3.21089e-20)
(0.291176 -0.0426054 -2.17701e-20)
(1.04626 0.0229968 -6.58796e-21)
(-0.0797528 -3.77348e-05 8.19292e-20)
(0.930007 0.0563634 -3.23669e-20)
(0.936396 0.0281503 -4.77802e-22)
(0.931644 -0.179861 0)
(-0.0133708 0.185041 -2.99693e-20)
(1.12751 0.0574016 -9.57811e-20)
(1.071 -0.0306896 5.44415e-21)
(1.0587 0.0384153 -7.27259e-22)
(1.023 0.0183284 -1.23257e-21)
(0.99391 0.0140167 0)
(1.13329 -0.102838 -5.36006e-20)
(1.13749 0.0784636 2.36339e-20)
(0.977619 0.148282 1.03229e-20)
(1.08288 0.26972 0)
(-0.0178107 0.229209 0)
(1.14339 -0.160871 -7.55128e-20)
(1.00485 0.000655993 1.19413e-21)
(0.0339586 -0.0205001 0)
(1.13951 -0.0427415 -4.98112e-20)
(1.04925 -0.00457275 -7.66079e-21)
(0.993264 0.0145078 0)
(0.84532 -0.0229352 -1.82111e-20)
(0.259132 -0.0321997 5.13161e-20)
(1.09026 0.0750982 1.9443e-20)
(1.00009 0.00218559 5.91243e-21)
(0.703361 0.0483875 1.11428e-19)
(1.21831 0.154761 0)
(1.13872 0.131038 0)
(0.874119 0.0520582 -2.38253e-20)
(0.616842 0.839048 2.77008e-21)
(1.07123 -0.00227256 0)
(1.17388 -0.024717 0)
(0.0495286 -0.00690029 -3.34338e-20)
(1.21972 -0.0740758 0)
(1.32647 0.071298 -6.07046e-20)
(0.833597 0.232493 -4.43195e-20)
(1.16018 0.311976 0)
(1.0831 0.00830961 5.41234e-21)
(1.00167 0.00032981 0)
(1.04967 -0.00623416 -7.89107e-21)
(0.995042 0.0236757 1.02768e-20)
(0.416408 0.0231303 1.31953e-19)
(0.484339 -0.226101 0)
(0.158006 -0.0164175 0)
(0.589265 0.111152 -4.27547e-20)
(-0.179179 -0.0195588 0)
(-0.032285 0.113075 2.60667e-20)
(0.717629 0.00667132 -1.25839e-19)
(0.988944 0.072041 7.05181e-21)
(0.108927 -0.0119098 2.62499e-20)
(0.779638 0.0429444 0)
(1.02198 0.000896781 0)
(0.551413 0.0930792 0)
(0.0322275 0.215218 3.31632e-20)
(1.18121 -0.0265501 0)
(0.997314 0.103331 4.07731e-21)
(1.01594 0.00338992 -1.16377e-21)
(1.07072 0.000365954 -1.1062e-22)
(1.06848 -0.0103546 2.05925e-20)
(1.06406 -0.0365803 3.05274e-20)
(1.17569 0.00273493 -4.10668e-20)
(1.00129 0.0223443 1.7163e-21)
(-0.0588812 -0.00105592 1.11699e-22)
(0.996626 0.0680976 -5.77304e-21)
(0.971116 0.0794531 8.05365e-21)
(0.0609188 -0.0139745 -1.59414e-20)
(1.01035 0.0243337 0)
(1.03235 0.13618 4.76455e-21)
(0.515774 -0.0824561 2.75716e-20)
(0.999146 0.0149731 -8.31167e-21)
(1.0446 0.0405327 0)
(0.0448443 -0.0367061 1.89623e-21)
(1.00984 0.00286838 2.07878e-22)
(1.16348 -0.0498307 0)
(1.01793 0.00114302 0)
(-0.030571 0.177789 0)
(1.07121 -0.032045 0)
(1.09873 -0.0404905 0)
(0.97083 0.149002 -1.26022e-20)
(1.05553 0.0636544 0)
(1.16978 -0.0657258 1.17814e-20)
(0.918434 0.00831548 -2.48333e-20)
(0.194587 0.0723376 0)
(1.11632 -0.0878271 9.91325e-21)
(1.0354 -0.00261264 0)
(-0.0856455 -0.00625165 -4.28442e-20)
(1.09877 -0.0412839 0)
(0.618941 0.795176 0)
(-0.301422 0.00452476 1.11394e-19)
(1.31553 0.0828054 -5.29092e-20)
(1.21044 -0.0630931 0)
(0.998071 0.0224609 -6.83637e-21)
(1.01752 0.00520231 -6.90721e-22)
(-0.0116114 0.237373 -4.90577e-20)
(0.940058 0.0410325 3.56849e-22)
(1.10631 0.0386294 0)
(1.00003 0.00168953 0)
(1.08382 0.00593601 0)
(1.02396 -0.0506231 6.60421e-20)
(0.558619 -0.0524093 1.95004e-20)
(1.1194 0.0880682 -8.96983e-21)
(-0.0666809 -0.00286012 -7.7959e-20)
(0.829841 0.235771 0)
(1.01784 0.0665871 -9.54727e-22)
(1.01617 0.00365023 3.77062e-21)
(1.00008 0.00193804 -5.45789e-21)
(1.13108 0.0178568 9.19864e-20)
(1.10158 0.258105 0)
(1.0267 0.00691467 -4.18737e-21)
(1.24608 0.0804676 1.46718e-21)
(1.00248 0.117419 4.9298e-21)
(1.11006 0.13313 1.90387e-20)
(1.01381 0.000147197 9.81452e-23)
(0.00292722 -0.0342201 1.26811e-19)
(-0.0858581 0.00322936 -3.06237e-20)
(0.993336 0.0247012 -7.2045e-21)
(1.02181 0.00132982 2.82498e-22)
(1.13432 -0.072735 0)
(1.00005 0.00136597 0)
(1.01474 0.00807771 0)
(-0.0498458 0.113329 7.50497e-22)
(0.554892 0.0954565 -5.1575e-20)
(0.969008 0.0270134 5.05375e-21)
(0.994308 0.014949 0)
(1.12848 -0.139007 3.11001e-20)
(1.1335 0.0713739 0)
(1.05942 -0.0298321 -4.21332e-21)
(0.704536 -0.0567581 -7.36e-20)
(1.01144 0.0347767 0)
(0.211436 -0.0293263 3.80307e-20)
(1.12777 -0.0280918 -4.23856e-20)
(0.984441 0.0334759 -2.99577e-21)
(0.433865 0.153464 -9.28756e-20)
(0.0886501 -0.0240533 -3.12819e-20)
(1.00394 0.00778385 0)
(0.618134 -0.0550321 1.97692e-20)
(1.0151 0.00447651 -2.20202e-21)
(0.999443 0.0146909 6.5265e-21)
(0.96472 0.0174338 -3.16131e-21)
(0.829452 0.00868434 0)
(-0.0666263 0.0100678 -1.73175e-19)
(1.1111 0.0252609 0)
(0.0622621 -0.00890422 0)
(1.02086 0.136906 0)
(0.384707 -0.0384039 5.36946e-20)
(1.34992 0.153676 -3.05423e-20)
(1.08307 0.0100074 -2.86189e-21)
(-0.191994 -0.0174157 -1.53735e-20)
(0.986177 0.0232706 1.16288e-20)
(0.61857 0.017718 -1.54167e-19)
(1.0497 -0.00375078 0)
(0.213047 0.0253893 0)
(0.121024 -0.016755 2.57979e-20)
(0.998182 0.0405154 -1.02367e-20)
(0.119136 0.580147 -6.66044e-20)
(1.03063 0.0798388 -2.36624e-21)
(0.925556 0.0627489 4.63066e-20)
(1.00024 0.0514602 7.4567e-20)
(0.663818 0.0760329 -1.50446e-19)
(-0.182785 -0.0175845 0)
(1.01004 0.00957581 0)
(0.302037 -0.0431509 0)
(0.988997 0.0133037 1.41307e-22)
(0.254536 0.057811 1.14921e-20)
(1.04041 0.00159331 -9.11197e-21)
(1.00424 0.104882 0)
(1.06665 -0.0340934 -1.3652e-20)
(1.01209 0.0132544 -1.27538e-22)
(1.01346 0.00059209 0)
(1.11799 -0.0457837 -3.45239e-20)
(1.08472 -0.0672228 -1.45454e-20)
(1.19904 -0.0289351 -3.81793e-20)
(1.00503 0.00607296 6.41374e-22)
(0.164587 0.172936 -7.74878e-20)
(1.08166 0.0125061 2.75562e-21)
(1.01154 0.0131379 -1.44854e-24)
(0.99805 0.00303806 8.34476e-21)
(0.94599 0.0988418 -3.34765e-20)
(1.17941 -0.0504173 -3.83187e-20)
(0.861484 0.0402321 -3.83041e-20)
(1.10716 0.0244287 0)
(1.00911 0.000553115 3.38779e-22)
(1.03873 0.0931006 1.00259e-20)
(0.26415 -0.0413663 -6.03008e-20)
(1.00143 0.104069 2.55331e-21)
(1.00002 0.0216395 3.486e-21)
(1.01229 0.0133152 -2.00773e-22)
(1.04205 0.094579 -1.03366e-20)
(1.09607 0.0177717 -3.82554e-20)
(-0.0442335 -0.00267967 -7.68248e-20)
(1.01013 0.0231256 -4.71584e-22)
(1.18006 0.452387 1.04556e-19)
(0.905167 0.222969 1.13625e-20)
(1.17762 -0.040484 4.77138e-20)
(-0.0145112 0.0279503 -1.26988e-19)
(0.0442235 0.172878 1.76295e-20)
(1.01578 0.00255041 1.06545e-21)
(1.08574 -0.083438 -4.18011e-20)
(1.00484 0.0231942 0)
(1.02199 0.0429757 0)
(1.08213 -0.00390147 -6.0142e-21)
(0.0384636 0.211535 9.97892e-21)
(1.00798 0.00557992 3.16839e-23)
(1.02244 0.0185375 1.27547e-21)
(1.01214 0.000404545 5.4583e-22)
(0.737823 0.0228855 1.38819e-19)
(0.960957 0.0490971 -6.02666e-22)
(1.03574 -0.00347524 0)
(1.05426 0.122221 3.60077e-21)
(1.08623 0.0813857 0)
(0.307195 -0.0357164 -3.86409e-20)
(-0.27598 -0.0080646 -6.82396e-20)
(1.00405 0.0109597 -1.78295e-21)
(0.988075 0.00693661 0)
(0.270858 -0.032652 0)
(0.985833 0.0347418 0)
(-0.00749845 -0.0365602 5.53631e-20)
(0.140883 -0.0213662 0)
(-0.0708055 -0.00387559 9.04463e-20)
(0.664808 0.371737 3.19527e-20)
(0.811116 0.472593 0)
(1.02094 -0.123004 5.46455e-20)
(1.06895 -0.0336991 2.29258e-20)
(0.999283 0.00335879 3.75014e-21)
(1.01231 0.0114352 2.84346e-22)
(1.00247 0.0342293 0)
(0.971574 0.0253036 -5.09046e-21)
(0.999821 0.00554038 -5.22985e-21)
(0.969614 0.0245774 -5.33274e-21)
(1.01871 -0.0154433 -6.12253e-20)
(-0.00858345 0.219373 1.0988e-20)
(1.03776 0.0277096 -8.05753e-21)
(0.667666 0.196021 0)
(1.00959 0.00357516 5.43143e-22)
(1.02009 0.0696612 9.06921e-22)
(1.10822 0.0981884 0)
(1.00045 0.00628923 0)
(0.970219 0.080585 -4.57399e-21)
(1.04561 0.0407691 0)
(0.363822 0.0337069 0)
(0.102183 -0.0988754 6.65912e-20)
(1.16423 0.083202 -4.38138e-20)
(-0.153019 -0.0209201 0)
(0.837501 0.200392 7.05293e-22)
(0.0753417 0.154185 -1.93914e-20)
(1.10195 0.264417 -1.27888e-20)
(0.545797 -0.059442 -1.07733e-20)
(0.0462029 -0.0440208 -1.57294e-20)
(1.1296 -0.0241729 2.2804e-20)
(0.943575 0.795627 0)
(1.14698 -0.166579 2.2541e-20)
(-0.300786 0.00358588 6.88489e-20)
(1.03333 0.00240276 4.50688e-21)
(0.993864 0.0112552 -3.16032e-21)
(1.00362 0.0058877 0)
(1.06955 -0.0087702 -2.34074e-20)
(0.744506 -0.134449 1.08007e-20)
(1.01321 0.0100786 0)
(0.999956 0.000476026 -2.53181e-21)
(1.17452 0.0172206 0)
(1.00736 0.00299436 -1.18201e-22)
(1.02537 0.195392 4.72114e-21)
(1.01948 0.185156 0)
(1.00025 0.000708113 1.74937e-21)
(1.05265 -0.13155 -8.58131e-21)
(1.03524 -0.00145446 -3.7159e-21)
(0.987483 0.00661596 0)
(1.1318 -0.143801 -1.83752e-20)
(1.01592 0.00680983 2.11968e-21)
(1.23563 0.056529 -2.89668e-20)
(0.444825 -0.263642 -2.01047e-20)
(1.00141 0.037738 -2.2498e-22)
(1.04485 -0.00818204 -7.20722e-21)
(1.01128 0.0127731 0)
(0.953899 0.269713 0)
(1.00831 0.00613707 0)
(1.04911 0.0487357 5.11e-21)
(1.34226 0.176537 -8.33911e-20)
(0.988552 0.00105678 3.05044e-23)
(0.119615 -0.038542 -3.54747e-20)
(1.03746 0.0231708 0)
(0.149341 -0.035745 -2.50558e-20)
(1.05622 -0.0138042 -2.9553e-21)
(1.11537 -0.119985 -1.44002e-20)
(0.999343 0.0127299 0)
(1.09191 -0.100684 0)
(1.10348 0.097694 0)
(0.999316 0.00309507 -6.08446e-21)
(1.00224 0.0390072 -2.81685e-21)
(0.143273 -0.0390593 -2.59229e-20)
(0.993217 0.0153278 0)
(-0.313632 0.00143435 5.65088e-21)
(-0.308281 0.000310326 0)
(0.983343 0.0508062 -8.59272e-21)
(1.00126 0.000299003 0)
(1.00072 0.00631274 -1.16294e-21)
(1.01882 0.0030279 9.25534e-22)
(-0.0540563 0.11927 0)
(0.99492 0.0143271 4.22842e-21)
(0.185397 -0.038672 4.76431e-20)
(-0.00693321 0.23046 -2.58107e-20)
(1.11176 0.131422 2.45292e-20)
(-0.0057606 0.0417703 0)
(1.00937 0.000701772 -1.65846e-22)
(1.0038 0.0207769 -2.7667e-21)
(-0.0194609 -0.019501 1.50245e-19)
(0.00810068 -0.0387734 3.43158e-20)
(0.921782 -0.000425426 2.42263e-20)
(1.00057 0.0094789 0)
(0.996102 0.0226758 1.18921e-20)
(1.01281 0.0109142 -8.33236e-22)
(1.04559 -0.0115609 -3.93551e-21)
(0.867594 0.180238 -2.88413e-20)
(0.355703 0.400337 6.50732e-20)
(1.05123 0.0646277 -1.04015e-20)
(0.153981 0.135802 -4.90503e-20)
(0.12481 0.193816 0)
(1.10631 -0.200913 1.80362e-20)
(0.858694 0.0738205 -2.80306e-20)
(1.0336 0.0144898 0)
(-0.135562 -0.0072153 1.07649e-19)
(-0.0763034 0.1827 0)
(1.05627 0.124564 0)
(0.999548 0.0126313 0)
(0.978289 0.0230304 9.80281e-21)
(0.111509 -0.0478469 -7.92043e-20)
(0.996292 0.00821383 1.16521e-21)
(-0.0337762 0.169626 0)
(0.835572 0.262129 2.61905e-20)
(1.00007 0.000709123 -2.41321e-21)
(0.949974 0.102879 1.83808e-20)
(1.01465 8.19441e-05 -2.60469e-22)
(1.10603 0.0219587 1.14378e-20)
(1.07057 0.0620635 1.20684e-20)
(1.00717 0.00301227 0)
(1.0171 0.00139482 0)
(1.04451 -0.0109409 0)
(-0.0289931 -0.00598721 3.47574e-20)
(1.00022 0.00122936 0)
(1.07417 -0.0895679 -1.10292e-20)
(0.0302134 -0.0105291 -4.32488e-20)
(0.978759 0.0220742 1.05553e-20)
(1.0034 0.0157114 3.37488e-21)
(0.830443 0.167536 0)
(0.104687 0.179132 1.75999e-20)
(1.09741 0.00394794 0)
(0.0191677 -0.0319076 7.72733e-20)
(0.958445 0.00011944 1.461e-20)
(1.01877 0.00298437 0)
(0.939987 0.00493733 2.46957e-20)
(0.0890385 -0.00774258 0)
(0.421434 0.175451 4.28644e-20)
(0.18566 0.127867 -9.93908e-20)
(1.0089 0.000499564 6.23239e-22)
(0.867879 0.0507698 2.34088e-20)
(1.00372 0.0327994 -8.89812e-22)
(-0.00583875 -0.0289612 -3.87037e-20)
(1.02307 0.00712917 0)
(1.05721 -0.131638 1.44733e-20)
(0.860906 0.191774 3.09558e-20)
(-0.0601691 0.142808 0)
(1.00042 0.00165761 5.41759e-21)
(1.00479 0.00195002 1.38124e-21)
(0.808226 0.449405 0)
(0.998045 0.0213302 0)
(-0.0455151 -0.00493218 0)
(1.03757 0.00156708 0)
(0.225698 0.510348 1.18295e-19)
(1.00005 0.000666567 -2.29119e-21)
(1.01234 0.0100176 0)
(0.933346 0.0292578 -4.17973e-20)
(1.16487 0.45251 -9.38174e-20)
(-0.211248 0.0144821 -1.34307e-19)
(1.0326 0.092296 0)
(1.04709 0.0169755 -3.39084e-21)
(0.962877 0.0241899 -1.19777e-20)
(1.03567 -0.00198645 -4.14526e-21)
(1.02681 0.00669945 0)
(0.99997 0.00028798 -8.0857e-21)
(1.1917 0.00514761 -3.4012e-20)
(1.00615 0.0465643 2.61008e-22)
(0.422041 -0.0555102 2.78888e-22)
(1.01367 0.0701749 4.45774e-22)
(-0.0456236 -0.0328873 -7.67677e-20)
(1.03474 0.0021434 0)
(1.01875 0.00358289 0)
(1.3268 0.133298 2.36661e-19)
(0.00677113 -0.0411912 4.29863e-20)
(0.690719 -0.0574381 2.04334e-20)
(1.01741 0.0496064 2.71688e-22)
(0.274236 0.0159035 2.13873e-21)
(1.03526 0.0015243 0)
(0.00263389 0.236396 0)
(0.963391 0.0274814 -6.84195e-21)
(1.22243 0.016923 -2.53095e-20)