/*--------------------------------*- C++ -*----------------------------------*\
| =========                 |                                                 |
| \\      /  F ield         | OpenFOAM: The Open Source CFD Toolbox           |
|  \\    /   O peration     | Version:  v2012                                 |
|   \\  /    A nd           | Website:  www.openfoam.com                      |
|    \\/     M anipulation  |                                                 |
\*---------------------------------------------------------------------------*/
FoamFile
{
    version     2.0;
    format      ascii;
    class       volVectorField;
    location    "400";
    object      ddt0(U);
}
// * * * * * * * * * * * * * * * * * * * * * * * * * * * * * * * * * * * * * //

dimensions      [0 1 -2 0 0 0 0];


internalField   nonuniform List<vector> 
18540
(
(-0.000171212 -0.000411336 -4.4096e-22)
(-0.00200701 0.00026802 0)
(-3.42443e-07 -1.22972e-06 1.44165e-22)
(-0.00438635 0.00321775 8.35492e-22)
(-4.62988e-05 0.000127251 0)
(-2.93115e-05 -0.000206459 0)
(9.83298e-05 -9.05606e-05 1.6536e-24)
(0.0214429 -0.0452788 7.34121e-22)
(3.14288e-05 5.71341e-05 0)
(-0.000214142 0.000332468 -2.46418e-22)
(-0.000192696 1.9057e-05 0)
(-0.0110333 0.00667545 3.00006e-21)
(-0.00206635 -0.00493772 1.13543e-21)
(-0.00906325 -0.019873 6.65194e-21)
(-2.65149e-05 0.000146786 0)
(3.613e-05 4.86634e-05 -1.0041e-22)
(-0.000493518 -0.00251162 4.34214e-22)
(-1.371e-05 -3.42559e-05 0)
(1.68105e-05 7.17828e-06 0)
(9.00823e-05 -0.000100993 2.79891e-24)
(0.000774029 -0.000837613 1.57901e-22)
(-1.12692e-05 -1.42068e-06 -3.29895e-23)
(5.26255e-05 -1.06716e-05 3.13945e-23)
(-0.000128144 -6.8887e-05 0)
(5.73168e-06 7.72664e-07 3.28659e-23)
(-4.25401e-05 0.000153597 0)
(-4.18466e-05 7.71266e-07 6.39395e-23)
(0.00807054 -0.020256 -5.43702e-22)
(-0.00467373 0.000126812 4.61323e-23)
(-0.0129198 -0.0133528 6.24042e-21)
(0.0108792 -0.0155047 0)
(-8.35035e-07 -1.41532e-06 -2.26427e-22)
(7.53019e-05 -0.000220865 -1.58018e-23)
(-0.00128523 -0.00273994 9.77844e-23)
(-5.58858e-05 0.000118993 -2.98558e-22)
(-0.00111349 -0.000703579 0)
(0.0181802 0.000683915 -3.50239e-21)
(5.20784e-05 4.7579e-05 -4.13413e-22)
(-0.000827473 -0.000573767 0)
(6.27374e-05 -0.000600887 -5.56833e-22)
(0.000653658 -0.000282497 0)
(-0.002449 0.000311925 7.40805e-24)
(8.20375e-06 2.7778e-06 0)
(-0.00016828 -8.96296e-05 0)
(-0.000135629 -0.000436333 0)
(9.18021e-06 -4.56672e-07 -2.82716e-22)
(0.0322804 0.0145449 -3.05841e-22)
(-0.00153276 -0.00149688 0)
(0.00119899 0.000540882 0)
(-0.00515416 0.00497158 4.36452e-22)
(0.016599 -0.0016568 0)
(7.9894e-06 2.14073e-07 8.3059e-23)
(6.16373e-06 -8.36701e-07 0)
(0.000544097 -0.000112272 3.7223e-22)
(-0.00164011 0.00405824 6.20731e-22)
(0.00540697 -0.0140505 -3.51309e-22)
(0.000108427 -0.00060364 7.24724e-22)
(0.000202245 0.000124311 1.52167e-22)
(-0.000143292 -0.000427875 3.54826e-22)
(0.000698547 -0.000883044 0)
(-7.05838e-05 -2.70964e-05 1.79357e-22)
(4.86035e-07 1.02685e-05 5.57525e-23)
(-2.46232e-06 -1.39588e-06 1.79508e-22)
(4.6569e-06 1.72703e-06 0)
(1.57447e-05 9.04265e-06 0)
(3.26069e-05 -1.21732e-05 -2.0403e-22)
(-0.000593003 -0.00147148 0)
(-0.00187978 0.00448132 0)
(-0.00985808 0.00565427 0)
(4.46337e-06 1.67486e-06 0)
(-5.55546e-08 -5.55419e-07 -8.37225e-23)
(-0.00492047 0.000492 -1.67178e-21)
(-0.00286912 -0.00254257 -5.51072e-23)
(-4.60126e-06 9.15179e-06 0)
(0.00129026 0.000320333 -3.20968e-22)
(-0.00105073 -0.0749646 -1.26336e-22)
(-0.00270145 -0.00489485 6.72178e-22)
(-1.37834e-05 0.000154928 0)
(-5.33346e-08 -5.22163e-07 -1.31008e-22)
(0.0197874 -0.0554739 -2.3814e-22)
(-9.52363e-05 -0.000380138 0)
(5.20636e-05 -3.16715e-05 -1.25453e-22)
(-1.24056e-05 -1.20958e-06 0)
(1.58499e-05 -3.63379e-05 -3.19137e-23)
(-0.000205714 1.20551e-05 2.92711e-22)
(-3.01856e-07 -7.20725e-07 0)
(0.00171687 -0.00213839 -9.74915e-23)
(-9.96415e-07 -1.67775e-06 1.15622e-22)
(0.000119332 0.000249663 -5.59786e-23)
(-0.00603808 0.00472844 0)
(-0.0085014 -0.0182502 8.61308e-24)
(0.00136489 0.000422811 -6.84316e-22)
(-0.00210937 -0.00399595 0)
(-1.15149e-05 1.25302e-05 -8.06904e-23)
(1.85548e-05 -7.20819e-06 -8.25351e-23)
(0.000816128 0.000618044 0)
(0.00197572 -0.00208501 -1.09947e-23)
(7.84043e-07 -1.09182e-05 -8.9462e-23)
(0.0160251 -0.0377232 7.53896e-22)
(8.60229e-05 -7.67266e-05 -7.014e-24)
(1.5359e-05 -9.07519e-06 -1.27385e-22)
(0.00527779 2.98951e-05 0)
(9.09645e-05 -6.67394e-05 7.50463e-24)
(9.02316e-06 -8.54932e-06 0)
(3.66852e-05 -3.17557e-05 -3.64415e-22)
(1.66704e-05 -9.73026e-06 0)
(0.000101292 -0.000119385 -1.03277e-22)
(0.00904836 0.000119771 1.29854e-22)
(0.00024602 0.00188375 -1.10619e-23)
(-4.49557e-08 -5.21131e-08 -3.32835e-23)
(-0.000234799 -0.000236274 -3.74618e-22)
(-4.05416e-06 1.17782e-05 4.71421e-24)
(0.000126414 0.000211514 5.22484e-23)
(9.21426e-06 1.73738e-06 0)
(1.36248e-05 -1.0406e-05 1.32209e-22)
(1.17312e-05 -9.56548e-06 0)
(-3.98263e-05 -0.000253673 7.15333e-23)
(-1.61331e-05 -2.21314e-05 -4.87669e-23)
(-0.000217973 -7.78953e-05 -5.42105e-23)
(-2.50162e-07 -1.12336e-06 1.33495e-22)
(4.99219e-07 -9.95921e-06 -7.77546e-25)
(0.00179894 0.000551203 0)
(0.00511211 -0.000963673 2.66595e-23)
(-2.03666e-06 7.74331e-06 -1.30657e-23)
(0.000252833 0.000527379 3.02238e-22)
(0.00525375 -0.000832208 0)
(8.88092e-05 -0.000132727 0)
(-0.00993615 -0.0161851 -6.35568e-22)
(1.36267e-05 8.32651e-06 3.26256e-23)
(-5.23304e-05 -5.5662e-05 0)
(0.00919369 -0.0107844 0)
(-0.000196963 -0.000103236 4.30822e-23)
(-1.08138e-06 -1.25613e-06 0)
(0.00490932 -0.000458147 2.81174e-23)
(6.63096e-06 1.01578e-05 1.24146e-22)
(-5.34027e-05 0.000142367 0)
(1.35875e-06 2.15017e-07 0)
(-0.000257127 -0.000225539 3.34872e-22)
(-1.23075e-06 -7.45631e-07 -8.87835e-23)
(9.62987e-06 -9.94141e-06 0)
(-3.85703e-05 -0.000246934 0)
(1.19535e-06 2.10191e-07 0)
(3.65584e-08 -2.79269e-07 -2.76526e-23)
(-7.12877e-05 -2.16047e-05 0)
(-0.00462845 0.00438363 0)
(0.00146092 0.00184882 3.6081e-22)
(-0.00491931 0.00363381 -2.47887e-21)
(0.0156676 -0.0641931 0)
(7.95079e-06 4.44237e-07 -2.43096e-22)
(1.04542e-05 9.94953e-09 0)
(0.000502637 0.00157866 -6.43701e-22)
(0.00112477 -0.00290776 0)
(-3.00521e-06 -4.96499e-05 0)
(4.52758e-05 4.309e-05 2.46934e-22)
(2.17898e-05 -3.90631e-05 0)
(7.83929e-06 -3.3621e-07 0)
(0.0102932 0.0160296 0)
(8.43418e-05 0.000266373 6.66047e-23)
(2.94147e-06 7.53624e-06 7.23356e-23)
(0.0270622 -0.041715 2.66522e-22)
(0.00122435 0.0209487 1.53766e-21)
(0.00315135 0.00358716 -1.3313e-22)
(0.0017728 0.00176971 -3.80394e-22)
(0.0197698 -0.0562317 -5.35569e-20)
(0.00397962 0.00150765 5.03551e-22)
(0.000100268 0.000230449 7.02233e-23)
(0.000242807 -0.00068215 -3.76645e-23)
(-1.41504e-06 7.30571e-06 -1.57876e-22)
(1.13333e-05 1.73427e-05 0)
(0.000302446 0.000501306 -2.84295e-22)
(0.00596455 -0.00228261 3.96258e-22)
(-2.74625e-07 -7.22378e-07 0)
(-0.000903261 -0.000551851 -1.78272e-22)
(0.00842991 -0.00814693 3.57546e-22)
(-0.0195066 -0.0032977 -2.66449e-21)
(0.00983445 0.0146865 -3.92099e-22)
(6.40582e-06 -5.74491e-07 2.85895e-23)
(0.000172026 0.0016187 1.93444e-22)
(8.99794e-07 1.39739e-07 1.42246e-22)
(2.41317e-06 8.86905e-06 -5.79715e-23)
(0.00260871 0.00366954 -2.33817e-23)
(0.000549427 0.00189437 -7.58765e-23)
(-2.72343e-05 -5.21927e-05 5.75687e-23)
(7.81017e-06 -4.9757e-07 -1.22488e-22)
(8.15478e-05 -4.55857e-05 6.60362e-23)
(0.000165775 -0.000746 -1.41501e-22)
(0.000419921 0.00267457 -1.19736e-21)
(0.00808397 -0.0110184 9.37907e-23)
(-0.00870762 0.00603512 7.22213e-23)
(0.000864566 -0.000379836 3.61162e-22)
(-0.00122963 -0.00183771 -4.63859e-22)
(0.0163697 -0.0573336 8.07724e-22)
(1.62981e-05 3.31735e-05 2.6334e-22)
(0.0249915 -0.039721 3.52028e-22)
(0.000146486 0.000177421 1.20998e-22)
(-3.47096e-07 9.98935e-06 6.62943e-23)
(0.00686578 0.0187236 2.19304e-21)
(-0.000204424 0.00226559 -2.31185e-22)
(-2.86063e-08 -1.55676e-07 -8.38917e-23)
(0.00381013 0.00121581 -6.14743e-22)
(2.1685e-05 -4.23486e-05 -8.59e-23)
(0.00148394 0.00290388 1.15722e-21)
(-0.000203171 -0.000289254 7.3747e-23)
(-7.52789e-05 -3.03636e-05 0)
(-1.38063e-05 -1.52178e-06 -3.92477e-23)
(4.5108e-06 2.1498e-07 1.29683e-23)
(-0.0303207 0.000123133 -1.6898e-21)
(0.00412866 -0.00192162 4.9835e-22)
(-0.0317283 0.00045634 0)
(-0.0192484 -0.00815007 -1.08351e-20)
(-1.16084e-06 -2.13358e-06 8.89736e-23)
(7.80828e-05 -5.60891e-05 -1.13278e-22)
(6.25905e-06 2.91346e-05 -2.96975e-22)
(-0.000282745 0.000233138 0)
(0.00117319 0.000299776 -7.64479e-24)
(0.00535772 -0.0134316 2.02461e-21)
(-0.00100742 -0.000680789 1.83028e-24)
(-0.00119898 -0.0016831 0)
(-0.0124451 0.00610863 -3.00517e-21)
(0.0281102 -0.0369211 0)
(-0.00189185 0.0016898 0)
(-0.000281338 -0.000779043 0)
(0.0126075 -0.0708522 -6.6617e-23)
(0.00041051 0.00481812 7.90634e-23)
(-7.63105e-05 0.000277288 -4.82737e-22)
(-1.43684e-05 -2.56338e-05 0)
(-0.0269712 -0.00490166 -1.73159e-21)
(-0.0010032 -0.00289864 8.13545e-23)
(0.00420499 0.00843761 -7.7392e-22)
(0.000636591 0.00120089 -4.44302e-23)
(-0.0018005 -0.00248239 -2.04962e-22)
(-4.95512e-05 4.1921e-06 -2.72136e-22)
(0.016421 0.000375323 0)
(0.00129102 0.000366875 -2.07732e-22)
(-0.00183182 -0.00368553 0)
(0.000644428 -0.000235922 -1.48775e-24)
(0.00098962 -0.000446108 1.71745e-22)
(-0.000156839 -5.99079e-05 -2.95452e-22)
(-0.000171809 -0.000891999 0)
(-1.13932e-05 1.13516e-05 -8.96866e-23)
(1.04875e-05 -0.00245612 2.36265e-22)
(-0.00174265 -0.000465907 0)
(-5.56126e-05 -9.62047e-05 0)
(8.09611e-06 1.3281e-07 -1.70264e-22)
(2.82094e-05 -1.33254e-05 3.03873e-22)
(-1.97849e-06 -1.2906e-06 -1.13061e-22)
(-0.00153636 0.00648679 -2.6498e-22)
(0.000253098 0.000197637 1.92287e-22)
(-6.21393e-05 -9.60396e-05 -2.86456e-22)
(0.00295966 -0.0017782 2.6252e-22)
(-0.000149515 -0.000107198 0)
(-0.0198469 -0.00525108 1.72445e-20)
(3.59453e-05 -3.49614e-05 -2.09673e-23)
(-1.0523e-06 -7.32583e-07 2.27004e-22)
(-0.0434386 0.024333 -9.03813e-21)
(-0.00209041 0.00174454 0)
(0.00740689 0.0171997 -1.30037e-21)
(0.0121924 -0.0282909 2.15123e-22)
(-0.00672228 0.00544977 -2.4911e-22)
(0.0281978 -0.0362545 0)
(-0.0259153 0.00681785 0)
(0.0200056 -0.0440858 -1.7109e-22)
(-0.0420345 0.0209335 0)
(-0.00122646 -7.57875e-05 1.8789e-22)
(-8.83478e-05 0.000307442 -1.67522e-22)
(0.0436222 -0.00390025 -2.67938e-22)
(1.166e-06 -1.86706e-06 5.14807e-23)
(0.000100865 -0.000156462 0)
(-3.9918e-05 0.00215234 -2.40609e-22)
(2.62946e-06 1.85553e-06 0)
(-9.72341e-07 8.2896e-06 2.30419e-22)
(0.00364895 -0.00230163 0)
(2.93376e-06 -2.6304e-06 -1.06533e-22)
(4.42486e-05 -3.07092e-05 3.93029e-22)
(4.47573e-06 1.73197e-06 0)
(1.27262e-06 -2.28513e-06 -5.22227e-23)
(8.566e-05 -0.000172107 6.68968e-23)
(0.000805357 -0.000179458 3.74708e-22)
(-0.0257647 0.0128394 0)
(0.000487713 -0.00184804 1.96126e-22)
(9.18218e-06 9.7673e-07 2.45906e-22)
(2.56886e-05 -3.77152e-05 -9.77257e-23)
(0.00114672 0.00157469 0)
(-1.40094e-06 -1.78044e-06 -7.61287e-23)
(-0.00170983 0.00553124 0)
(-0.00181233 0.00748646 3.36736e-22)
(-1.43489e-05 -3.81232e-05 0)
(2.31427e-05 -0.000172038 1.13008e-23)
(0.00613411 -0.00126412 3.02134e-22)
(-0.00337387 0.0194111 -1.86095e-21)
(-5.02882e-05 0.000283241 1.14976e-22)
(-0.00072908 -0.000273908 3.10033e-22)
(-0.000771221 -0.00312186 0)
(0.000330181 -0.000696724 -2.91357e-23)
(-4.27364e-07 9.61647e-07 3.03615e-22)
(8.76266e-06 1.97206e-07 0)
(-0.00236193 -0.0030017 2.06525e-22)
(-2.69401e-07 -3.5146e-08 0)
(-0.000147758 -6.6863e-05 3.16658e-22)
(-0.00306772 -0.00108527 6.99546e-22)
(7.00521e-07 1.53544e-05 0)
(0.00249031 -0.00199626 0)
(-1.49862e-06 -1.62998e-06 -9.48035e-23)
(0.0107122 0.0155028 8.35411e-22)
(0.000943971 -0.000360484 -5.54436e-22)
(-1.2395e-06 -8.2603e-07 0)
(0.0086725 0.00120874 4.34661e-22)
(-1.08363e-08 -4.90698e-07 7.36201e-23)
(-0.00940157 -0.0137503 2.86418e-21)
(3.45692e-06 1.50361e-05 0)
(4.64757e-05 -3.4081e-05 1.11354e-22)
(-9.83553e-05 0.000256012 9.33225e-23)
(-6.91197e-07 4.42601e-08 4.28356e-23)
(4.32696e-06 2.71487e-07 -1.52322e-23)
(0.000570645 -0.000140124 0)
(8.95023e-08 1.69858e-07 -4.08897e-22)
(0.000435587 -0.00366813 1.04891e-23)
(-0.000663847 -0.000568064 2.65269e-22)
(4.39374e-06 4.81648e-07 -3.20593e-23)
(0.00512154 0.00796735 0)
(-2.82741e-08 2.12919e-08 0)
(-4.08546e-05 3.29969e-06 1.80748e-22)
(6.95455e-06 6.94941e-07 5.52605e-23)
(-1.12016e-05 1.60234e-05 1.60672e-22)
(0.0166402 0.0107329 -7.0055e-22)
(8.05996e-06 1.50129e-07 0)
(-0.00020294 -0.000221843 -1.71588e-22)
(0.000980525 0.00271293 -2.9812e-22)
(8.63057e-06 -3.41538e-05 9.73487e-23)
(-0.00127342 -0.000508865 -4.1563e-22)
(-5.30631e-05 5.86178e-05 0)
(-7.37381e-06 2.18427e-05 0)
(6.45381e-07 -0.000165136 0)
(-1.32583e-06 -2.05828e-06 9.2438e-23)
(1.11803e-06 1.2549e-07 -3.49814e-23)
(0.000382754 0.000551905 0)
(-0.0221635 0.0222096 3.05778e-22)
(-1.21091e-05 8.67816e-06 -1.11932e-23)
(0.00101101 0.00215109 -6.35874e-22)
(4.36473e-05 -4.33299e-05 0)
(-0.00056783 -0.000637041 0)
(-4.31821e-06 7.1047e-06 1.34685e-22)
(-4.98262e-05 5.74504e-05 0)
(-2.37879e-06 6.33211e-06 -2.80675e-23)
(9.54843e-05 -0.00020109 -2.31396e-23)
(-0.00713975 -0.0301337 -1.15857e-20)
(7.8092e-05 -0.00069986 1.09695e-22)
(0.00441981 -0.076041 3.72763e-22)
(-5.99072e-07 4.40209e-08 0)
(2.38934e-06 -0.000184496 -5.17194e-23)
(1.04021e-05 3.98422e-08 0)
(4.63368e-05 -1.43667e-05 0)
(-0.00018058 0.000328191 2.41642e-22)
(-0.0103245 -0.0120783 -2.75656e-21)
(0.00156133 -0.00299266 0)
(0.00707833 -0.0368976 1.18459e-21)
(1.18207e-05 3.36043e-05 0)
(-9.69414e-06 9.9243e-06 3.06384e-23)
(0.0220167 0.000542428 1.7778e-21)
(9.62701e-06 -1.00432e-06 -1.71279e-22)
(7.53213e-07 3.71485e-07 1.57279e-22)
(0.000392325 0.000590907 0)
(0.00493556 2.76667e-05 2.90765e-22)
(0.00108516 -0.000430099 3.50846e-22)
(0.000861662 0.00196544 6.73784e-22)
(4.48392e-05 7.58726e-05 0)
(-1.16971e-05 5.54687e-05 1.24223e-22)
(-7.13651e-06 -2.89837e-05 -3.20552e-23)
(-6.89346e-06 -2.86627e-06 0)
(0.00721424 0.00213371 0)
(-1.91021e-05 -0.000161854 0)
(0.00794983 -0.00868048 -9.74148e-23)
(0.0008358 0.000813562 0)
(-0.0534285 0.0670985 0)
(-0.0135778 0.0032468 -3.31113e-21)
(0.00642548 -0.0165689 6.07511e-22)
(-4.46857e-05 3.67001e-07 -8.54049e-23)
(0.0016018 0.00106534 1.89388e-22)
(-5.4373e-05 -5.09401e-05 5.13646e-23)
(1.82659e-05 4.26859e-05 0)
(0.0201932 -0.00431244 0)
(1.17239e-06 1.96363e-07 2.90183e-23)
(-0.00018461 -8.9246e-05 4.51639e-22)
(-1.37276e-05 -1.93054e-05 -3.23735e-23)
(0.000484177 -0.00313317 0)
(-0.000214716 2.80469e-05 -5.55979e-22)
(0.000507371 0.000733482 0)
(-6.86997e-06 5.75051e-05 -1.02002e-22)
(0.00337669 0.0191869 -1.75432e-21)
(0.00252528 -0.00222371 2.02643e-22)
(0.000417401 0.00062835 -2.52446e-23)
(0.000609646 0.000464707 1.15678e-21)
(-1.62605e-05 -4.09469e-05 3.80648e-23)
(0.0241153 0.00814058 8.60104e-22)
(0.0292675 -0.0538041 0)
(0.00163004 -0.00244568 3.06842e-22)
(2.08836e-05 -7.0531e-06 0)
(-0.000110737 -0.000108274 -3.10288e-23)
(0.000404981 -0.0251409 1.69353e-20)
(-1.97777e-05 -5.36715e-05 0)
(1.97657e-05 1.96302e-05 1.71062e-22)
(-0.0512189 0.0655241 1.52783e-22)
(0.00108112 -0.00230823 -2.03075e-22)
(-0.00214079 -0.00141998 8.95865e-22)
(5.50397e-06 6.82403e-07 -6.75778e-24)
(0.000231072 0.000142219 -1.36882e-22)
(2.6609e-05 2.77982e-05 0)
(-0.00183147 -0.00446808 -6.70942e-22)
(1.01345e-05 1.34814e-07 3.3591e-22)
(0.00153174 -0.0009807 -3.54203e-22)
(1.35095e-05 -0.0260828 3.90171e-22)
(3.65662e-06 1.38527e-05 0)
(2.62771e-05 3.38526e-05 1.40348e-23)
(-4.20906e-07 1.01872e-06 1.53867e-22)
(-0.00224324 -0.000277096 -1.21762e-21)
(0.00522927 -0.00750018 -7.54228e-23)
(2.79527e-07 4.87429e-06 2.0554e-24)
(0.000907494 -0.0029009 -8.26829e-22)
(1.18185e-05 1.45114e-05 -4.70347e-23)
(0.00848626 -0.0151412 -5.21348e-21)
(-0.0443233 0.0604644 0)
(-2.93075e-06 -2.33337e-06 0)
(2.09468e-05 1.5612e-05 6.15319e-25)
(-0.00213437 -0.000221199 -2.98011e-22)
(0.00461438 -0.000294776 -4.39742e-22)
(4.03284e-05 3.09071e-05 0)
(8.11674e-06 1.36016e-07 1.18431e-22)
(0.000946962 0.000466071 0)
(-0.0179178 0.00134449 3.419e-21)
(-5.06488e-07 8.6262e-06 0)
(-8.41298e-05 0.000307401 0)
(-6.60825e-05 -1.88759e-05 0)
(2.50233e-05 1.00047e-05 -1.41079e-22)
(3.41865e-05 5.32171e-05 -1.67544e-22)
(5.90513e-06 6.24667e-07 -7.46356e-23)
(2.51933e-05 1.37309e-05 6.96348e-23)
(1.24171e-05 9.51863e-06 2.70783e-23)
(-0.0101233 0.0257531 0)
(-0.000175279 -8.26258e-05 0)
(-0.000365541 0.000129095 -6.85989e-22)
(-0.0490792 0.0611279 0)
(-0.0140822 0.0322427 6.53054e-22)
(-0.00305867 0.00677646 -4.40206e-22)
(0.00166601 -0.000626195 -5.49458e-22)
(5.4734e-06 3.10239e-06 6.6335e-23)
(-0.000188817 0.000284762 2.04585e-22)
(-3.1381e-06 -1.94096e-06 8.56562e-23)
(-0.0271126 0.000633669 2.13133e-22)
(4.15173e-05 1.59252e-05 -6.56246e-23)
(8.84698e-06 7.96148e-06 6.77889e-23)
(0.000624528 0.000427256 0)
(-1.825e-05 -3.40834e-05 3.01922e-23)
(4.26707e-06 1.11622e-05 7.55007e-23)
(-0.00187253 0.00041917 0)
(-1.1033e-05 -1.70443e-06 0)
(-0.00221184 0.000201837 9.55223e-22)
(0.000923634 -0.0288403 0)
(-6.77859e-06 -4.2631e-05 3.91957e-23)
(-0.00241985 -9.05212e-05 1.21746e-21)
(-7.1275e-07 1.13053e-06 1.45567e-22)
(-1.47888e-05 -1.65202e-05 4.70423e-23)
(3.30589e-06 3.12984e-05 0)
(-0.0282549 0.0334287 -7.1814e-22)
(-1.85496e-05 -4.77496e-06 2.31907e-22)
(0.00115978 -0.0114537 0)
(-0.00592178 0.00350737 2.42332e-22)
(-0.00013919 0.000272533 -1.35092e-22)
(-0.0156364 -0.0107888 2.47833e-23)
(2.15981e-06 1.48144e-05 3.93706e-24)
(0.00404208 -0.0201104 4.60769e-22)
(-0.000453113 -0.00174378 -2.04883e-22)
(-0.0252937 0.0369778 3.41741e-22)
(-1.7257e-06 4.6425e-06 1.07307e-22)
(-1.94722e-06 2.08538e-06 -1.64472e-22)
(-7.63248e-07 -6.02561e-08 7.74707e-24)
(-0.000228983 0.000232571 0)
(0.0165752 -0.0374384 2.39489e-22)
(0.000129942 -0.000922367 -4.56923e-25)
(-0.000699172 -0.00214378 -2.49292e-22)
(4.13146e-06 2.81225e-07 3.18244e-23)
(0.000959 -0.00273246 0)
(-7.78525e-07 -5.63479e-08 -7.32242e-24)
(-8.30467e-05 -0.00198918 -5.644e-22)
(0.00477264 -0.0056952 7.73648e-23)
(-1.71388e-06 8.87348e-06 -5.39298e-23)
(7.49146e-06 -3.16389e-07 1.13133e-22)
(0.002564 -0.00190654 2.06407e-22)
(-0.000135268 -6.15743e-05 -4.5128e-24)
(-0.00986609 -0.0249341 0)
(1.02833e-05 1.35224e-07 -4.00136e-22)
(0.00136487 -0.00248098 0)
(1.98652e-05 4.23153e-05 -1.83506e-24)
(-0.00688951 0.00761238 -1.2412e-21)
(-0.000520969 -0.000766255 1.4496e-22)
(0.0167197 0.0355598 1.73006e-21)
(-0.00417834 0.00297318 -1.00088e-21)
(2.97569e-05 -0.00119355 0)
(1.6431e-05 3.5317e-05 -1.14595e-22)
(1.20452e-05 -2.67691e-05 -1.03704e-22)
(-4.0248e-05 -3.05161e-05 8.40565e-24)
(-0.00306595 -0.00691184 5.86887e-22)
(8.66583e-08 -1.31098e-07 1.29591e-22)
(-0.00628167 -0.00918959 5.92909e-22)
(-1.04992e-05 -2.01678e-06 3.26117e-23)
(0.00744955 -0.0200543 2.87727e-22)
(9.77084e-06 7.93816e-07 -1.49803e-22)
(-1.20213e-06 8.30975e-06 1.79266e-24)
(6.92427e-05 3.53053e-05 -6.889e-23)
(9.19751e-06 -2.67703e-05 8.56655e-23)
(-1.56018e-06 2.07508e-06 1.74937e-22)
(-0.000883221 -0.00137075 0)
(-0.00470962 -0.010393 1.31046e-21)
(-0.000554544 -0.00070327 0)
(0.0287384 -0.0238526 1.39063e-21)
(-0.000282742 0.00145893 1.24709e-22)
(0.00115069 0.000243879 2.80834e-22)
(0.00138953 -0.000446719 2.62869e-22)
(5.77105e-05 7.05232e-05 4.179e-23)
(-0.00534596 0.00271694 0)
(-6.22529e-06 -2.79591e-06 6.50195e-23)
(-2.00624e-06 6.68702e-06 -3.3583e-23)
(2.60362e-05 5.35524e-05 4.38151e-23)
(-1.47723e-07 7.58195e-06 0)
(0.00924127 -0.00981851 0)
(0.00877884 0.00333009 1.50877e-22)
(0.0314646 -0.0360167 0)
(-1.84564e-05 5.45048e-05 5.0631e-23)
(-3.20851e-05 -4.56563e-06 0)
(-0.00030108 -0.000145678 0)
(-0.0127 -0.0150777 -9.72486e-23)
(9.13705e-06 -6.5172e-07 1.46334e-22)
(0.0201778 -0.0513088 -3.48303e-22)
(-0.000231598 2.59371e-05 0)
(-2.45623e-05 -9.56386e-06 -8.27071e-24)
(-1.68171e-05 -1.06655e-05 3.41969e-22)
(3.19917e-06 2.18743e-05 0)
(8.71128e-05 5.39114e-05 2.38752e-23)
(-3.13275e-05 1.27159e-06 -2.33918e-23)
(2.46352e-05 -4.88304e-05 8.4632e-23)
(-0.00154684 1.70437e-05 1.43483e-23)
(-0.00667781 -0.00701511 0)
(-0.000289461 0.00181927 0)
(0.0268383 -0.0390974 -4.11272e-23)
(1.50273e-08 -1.61896e-07 -3.43391e-22)
(-7.2294e-06 1.8496e-05 -5.47687e-23)
(-0.00420422 -0.00932653 7.9792e-22)
(0.000265505 -0.00022327 0)
(1.10791e-06 9.79356e-08 1.73288e-22)
(0.00823136 -0.0319694 7.58536e-21)
(0.000640775 -0.000136102 0)
(-4.82776e-05 1.08433e-06 0)
(-3.20238e-05 2.01083e-05 -1.78461e-22)
(0.0119802 -0.0223356 0)
(-0.00380941 0.00229354 8.41022e-22)
(3.37086e-05 -1.91456e-05 0)
(-0.00127106 -0.00159623 -5.30011e-23)
(-0.017635 -0.0144617 1.33991e-22)
(2.93575e-06 2.66392e-05 1.05447e-22)
(0.0476342 -0.020752 2.4613e-22)
(-9.77446e-06 -0.000288302 -7.32378e-23)
(-4.30429e-05 4.28326e-05 5.27472e-22)
(0.00753814 -0.0780208 -1.02327e-23)
(-0.00400103 -0.00682339 1.4426e-21)
(-1.43416e-05 -1.4673e-06 -2.0745e-23)
(0.00410787 0.00586595 1.99467e-21)
(2.55522e-05 -9.60292e-06 0)
(0.000849852 0.00114303 -7.1439e-23)
(6.2744e-06 7.85052e-05 0)
(-0.000126784 -0.000149376 3.99822e-24)
(0.00086055 -0.00086083 -5.88696e-22)
(-9.89427e-07 7.58021e-05 -2.565e-22)
(-0.00388878 -0.0111531 0)
(-0.0100683 -0.0178423 -6.61606e-21)
(0.000887436 0.000934625 1.13898e-22)
(-0.0014277 -0.0038727 -4.0339e-22)
(0.000562299 0.00048058 -1.01896e-21)
(-0.00307118 -0.00552821 0)
(0.000138252 0.00414744 -3.55291e-24)
(-1.35834e-05 4.11918e-06 0)
(-0.0137037 0.0665797 -7.41015e-23)
(-0.00796416 -0.0101841 -1.68891e-22)
(-7.81938e-07 4.14323e-08 -5.17179e-23)
(-1.47493e-06 2.1216e-06 0)
(0.00125133 0.00174572 0)
(9.3196e-06 -3.81893e-07 3.35166e-22)
(6.87206e-06 -3.27226e-07 -1.31097e-22)
(0.000107111 9.9471e-05 -3.78618e-23)
(5.1815e-06 -4.97428e-06 3.57598e-23)
(-1.93327e-05 1.93669e-05 2.24962e-22)
(-1.82941e-05 2.29989e-05 2.68039e-23)
(-4.97908e-05 4.86801e-05 3.00235e-24)
(0.00209941 0.00307018 0)
(-2.7861e-05 -0.00013343 0)
(-4.57586e-05 -0.000100207 -4.67421e-23)
(7.9549e-06 8.36586e-06 -2.20315e-23)
(-0.018595 -0.001049 -6.57807e-21)
(-9.56291e-05 -0.000247702 -6.39025e-23)
(-3.44589e-06 7.30967e-06 -1.07255e-22)
(-0.00695752 -0.00578185 -5.00022e-22)
(-2.57307e-05 -2.99804e-05 -3.323e-23)
(-6.22324e-07 -5.77765e-07 0)
(-0.00860158 -0.00865142 0)
(5.94841e-10 -1.22305e-07 -1.52247e-23)
(3.86231e-05 -3.79168e-05 -1.13832e-22)
(4.72545e-05 -3.80602e-05 1.72092e-22)
(0.0151472 0.0138012 -2.66209e-22)
(-4.81094e-06 -2.43976e-06 0)
(-0.000784693 -0.00064057 -3.56102e-22)
(3.99925e-06 2.29205e-07 -4.49828e-23)
(-5.23327e-06 -2.56151e-06 0)
(-4.23389e-05 -2.53608e-05 -1.05948e-23)
(-0.00290475 0.00245692 0)
(0.000571589 0.000712381 0)
(-0.0223672 0.0159155 -3.03409e-22)
(-6.43903e-06 2.88963e-05 -6.23146e-23)
(-7.39126e-05 -5.29611e-05 -5.06132e-24)
(8.63071e-06 2.89066e-05 0)
(-0.000137892 0.000286812 4.05393e-22)
(7.22208e-06 -2.99892e-05 0)
(-9.03898e-08 -9.10561e-07 -9.24778e-25)
(-4.47609e-05 1.33733e-05 2.133e-22)
(2.57768e-05 1.89714e-05 4.96911e-23)
(0.00071104 0.000486759 -1.98735e-23)
(4.23304e-06 4.22795e-06 0)
(-0.00209041 -0.00114654 -8.94553e-22)
(-0.00100264 0.000124376 6.52822e-22)
(2.02243e-06 1.61646e-06 5.89419e-23)
(0.0364453 -0.0323146 -6.08762e-21)
(-3.36274e-07 -1.45315e-07 0)
(3.51478e-06 -3.4382e-06 0)
(3.45679e-05 -4.38112e-05 -2.48603e-24)
(4.16627e-05 4.36804e-06 1.29983e-24)
(7.71694e-07 4.87776e-07 5.60212e-23)
(-0.00100452 -6.29502e-05 0)
(-5.26325e-05 -8.82703e-05 7.99974e-25)
(0.0014383 -0.00421618 0)
(2.90343e-05 -3.21627e-05 0)
(0.00609293 0.00896435 0)
(0.0368144 -0.0320453 -1.3881e-21)
(4.69532e-06 2.9536e-05 7.19724e-23)
(0.00064675 0.00145259 -3.78232e-22)
(4.93941e-05 -0.000211068 -2.89088e-23)
(6.82977e-07 1.50399e-06 1.56085e-22)
(0.000374424 -0.00183471 5.45703e-22)
(0.00713107 0.0490376 4.07144e-21)
(0.000171798 -0.00162875 8.63978e-22)
(7.80815e-06 3.15748e-07 0)
(0.00787004 -0.00902522 1.11384e-22)
(-3.29534e-05 -0.000102092 -6.33834e-23)
(0.000664786 0.000410021 5.54698e-24)
(0.00223906 0.00262002 0)
(0.0196456 0.0382783 -3.86988e-21)
(0.000187236 0.00014855 -1.40793e-23)
(-0.000179389 6.46647e-06 3.14545e-22)
(-0.00262988 0.00195223 0)
(-6.16673e-05 -2.1976e-05 -2.00433e-22)
(-6.60842e-07 -8.37427e-08 0)
(-0.00193975 0.000735303 -6.40424e-22)
(-0.000121825 -6.41541e-05 0)
(-2.03288e-05 1.72116e-05 0)
(9.73935e-06 6.0263e-07 4.3385e-24)
(0.00199812 -0.0286081 5.94349e-22)
(7.04196e-05 4.72674e-05 -2.50501e-23)
(-1.08553e-05 -2.03443e-06 -7.52219e-23)
(-0.000242579 4.6337e-05 3.16932e-22)
(8.7237e-05 6.879e-05 -1.12732e-23)
(-2.61559e-05 -1.06002e-05 4.66487e-24)
(0.000931537 -0.00430849 -6.54248e-22)
(-0.00134905 -0.0302813 -3.20495e-22)
(7.83232e-05 2.41093e-05 1.43233e-22)
(-5.76579e-05 -1.94166e-05 -1.95346e-22)
(1.30417e-06 2.47244e-06 1.42593e-22)
(7.2415e-05 1.36946e-05 -1.25479e-22)
(-0.00162437 -0.000585307 -5.60763e-22)
(-4.60987e-05 -0.000179833 0)
(-1.85395e-06 2.1038e-05 -1.6065e-22)
(-2.1025e-07 2.40465e-06 -3.54968e-23)
(0.0217174 -0.0503469 0)
(-0.00172587 -5.02016e-06 -5.51858e-22)
(1.11763e-06 2.28532e-07 -1.44936e-22)
(-3.49362e-05 0.00019957 3.40661e-22)
(0.000178103 0.00014219 1.70094e-22)
(-5.04284e-05 -0.000202357 -3.44875e-22)
(-0.00127774 0.00909685 0)
(-1.45584e-06 5.54991e-06 5.43574e-23)
(0.000712095 -0.000262771 0)
(-0.0287265 0.0241571 -6.60674e-22)
(-2.54085e-05 -2.26204e-05 -1.53514e-23)
(-1.39072e-05 -1.32664e-06 -1.66754e-22)
(0.000179733 0.000114423 -1.34965e-23)
(0.00612829 -0.0227664 -2.13292e-21)
(6.27719e-05 7.32718e-05 -1.60419e-24)
(5.35591e-05 6.26675e-05 -2.55868e-22)
(5.18765e-06 -6.72828e-07 2.31388e-23)
(0.0266208 -0.0185483 3.271e-22)
(0.0090653 -0.000100767 1.84844e-22)
(0.00467141 0.00472018 3.47745e-22)
(-0.000937674 -0.00260066 -6.26001e-22)
(4.35371e-05 -1.2573e-06 1.38402e-22)
(1.50833e-05 1.18668e-05 -1.95638e-22)
(-5.2394e-05 -0.00220318 5.91673e-22)
(-1.43889e-05 -7.97625e-07 4.66133e-24)
(-0.000129882 -0.000328649 2.38407e-22)
(-0.000261437 4.58871e-05 6.43252e-22)
(-0.00376862 -0.00125297 0)
(-0.022726 0.0441657 -7.8549e-22)
(1.62411e-05 6.96748e-06 1.87922e-22)
(0.00069589 -0.000174277 3.87529e-25)
(0.0103943 1.15928e-07 -5.22208e-22)
(-0.000189191 -0.000116629 0)
(5.10395e-07 1.37378e-06 -2.49706e-23)
(-3.65982e-05 8.52332e-06 0)
(6.54291e-07 1.41029e-06 0)
(-0.00107713 0.00102793 -6.58315e-22)
(-0.000138729 -8.57761e-05 -2.83818e-22)
(4.91163e-06 -6.04871e-07 -2.6862e-25)
(-0.00200437 0.000986051 7.30454e-22)
(-0.000753141 -0.000373608 -2.65803e-22)
(1.91683e-06 8.30928e-06 -1.58102e-22)
(-0.00309476 -0.0013959 -7.868e-22)
(0.000613231 -0.000837426 -7.69704e-23)
(3.11135e-05 1.80226e-05 1.52968e-23)
(0.0436318 -0.0349307 7.60168e-21)
(-2.13118e-06 4.48943e-06 6.70526e-23)
(-0.0195228 0.0561289 0)
(3.84859e-07 -1.06398e-07 1.32289e-22)
(0.000668776 0.000795498 0)
(-0.0235301 0.0500837 1.19351e-21)
(-3.96059e-06 -6.80594e-06 0)
(-3.36765e-05 -0.000186906 1.53734e-24)
(-0.000420605 -0.000262789 -4.10554e-22)
(2.99846e-05 2.06008e-05 -1.76511e-22)
(0.00713091 0.00214681 -1.59621e-23)
(-0.000294403 -7.31246e-05 -3.75064e-22)
(1.42603e-05 1.06911e-05 1.84391e-22)
(0.0223377 -0.0499017 2.32099e-22)
(1.57029e-07 1.38937e-07 3.89958e-22)
(-0.000101364 -0.000143333 0)
(-1.33025e-05 -1.38296e-06 4.31418e-23)
(4.86915e-07 1.44557e-06 1.03243e-22)
(-0.00493926 0.00174867 0)
(-0.00270465 -0.00613392 -1.47216e-22)
(0.00180332 -0.00202791 2.25227e-22)
(-1.27649e-05 -1.78192e-06 -4.32443e-23)
(-3.50396e-05 -0.000175049 4.25444e-22)
(2.03817e-06 5.06784e-07 -1.42652e-22)
(-5.2072e-06 -2.33262e-06 2.96535e-23)
(-0.000151097 -0.000316058 -5.10972e-22)
(-0.000887605 -0.000419184 0)
(2.91275e-06 4.43205e-07 -2.37677e-23)
(-0.000278472 -8.94128e-05 0)
(-6.92118e-07 1.21498e-06 2.09102e-22)
(-0.00179803 0.000181412 5.53805e-22)
(5.6875e-06 3.26614e-06 -7.0315e-24)
(-1.7407e-05 1.48673e-05 -8.15701e-23)
(-0.0122673 -0.00541122 -1.42561e-21)
(0.00852334 0.0427569 0)
(-0.00507547 0.00231561 -4.56593e-23)
(0.0171663 0.0121549 0)
(6.50334e-07 2.10278e-06 -6.86835e-23)
(0.00187669 0.00175185 -1.36674e-22)
(-4.5157e-06 1.8052e-05 5.06635e-23)
(0.00577746 -0.0276723 -6.25936e-21)
(6.74608e-07 9.41974e-07 -2.34855e-23)
(1.03069e-05 1.20196e-05 -6.25087e-23)
(-0.00224261 -0.000817039 0)
(0.00701092 0.0083836 -6.2452e-22)
(-0.0041731 -0.00136358 9.76641e-22)
(-0.00115866 -0.000299098 2.19629e-22)
(-8.23072e-05 -5.56548e-05 -1.15232e-22)
(-5.69446e-05 -0.000181441 -1.21569e-24)
(0.00140778 0.000310121 5.45735e-22)
(-6.63098e-05 -6.38139e-05 2.24586e-22)
(0.00166495 0.000343876 -2.03085e-24)
(0.00047746 0.000646017 3.5767e-22)
(0.0128711 0.00110337 -2.29418e-22)
(-0.00384556 -0.0100645 0)
(0.00179206 -0.00125452 -2.19988e-23)
(3.26947e-08 -2.62162e-07 -2.68535e-22)
(0.029774 -0.0345675 0)
(-9.50606e-05 -0.000528609 2.44411e-22)
(0.00357976 -0.0217402 8.75155e-22)
(1.15788e-05 4.38804e-05 0)
(0.000810594 -0.00199344 3.81542e-23)
(0.0047021 -0.000976853 0)
(4.99794e-06 3.90989e-06 -5.79556e-23)
(0.000153991 -4.40428e-06 0)
(6.30837e-05 -0.00377916 -1.55457e-21)
(0.00023984 0.00019923 -5.72529e-23)
(0.00889524 -0.00477387 1.98499e-22)
(-1.03201e-06 5.57862e-09 -1.25564e-22)
(5.31413e-06 3.05272e-06 6.84844e-24)
(6.01221e-06 2.02611e-06 6.11223e-23)
(0.000613769 0.000914756 4.38788e-23)
(0.000130772 0.000157636 0)
(-7.61456e-05 -7.04969e-05 1.18342e-22)
(0.000712445 -0.0273689 9.43648e-23)
(7.55574e-06 -2.14347e-06 0)
(6.37349e-05 0.000776157 7.24567e-23)
(-0.00150899 -2.64995e-05 4.78067e-22)
(0.0178531 -0.00693773 0)
(0.000558856 0.000613796 0)
(6.52365e-07 3.23131e-06 7.26968e-23)
(0.00187943 0.00234603 0)
(-0.00270744 0.00340331 -5.15432e-22)
(7.97079e-06 -2.81911e-08 -1.05283e-22)
(-8.1049e-07 -5.58003e-07 0)
(-0.00135157 0.00174817 -2.02142e-22)
(-0.00450928 0.00262829 -1.72384e-23)
(0.0133664 -0.0323151 0)
(0.000654115 -0.000489227 0)
(-0.00429852 -0.00766489 -8.99346e-22)
(0.000171949 0.000169412 1.05507e-22)
(6.15032e-06 1.42392e-06 0)
(7.85793e-06 1.63547e-07 0)
(-0.0018278 0.000802494 0)
(0.000199615 0.000223305 0)
(0.000336502 0.00155363 3.40898e-22)
(0.00061067 -0.000607681 -4.9474e-23)
(4.71043e-08 -1.54875e-07 3.30527e-22)
(0.0227932 -0.029888 -1.61628e-22)
(0.0112935 -0.00866682 7.53765e-21)
(-5.59499e-07 -6.73384e-07 1.29023e-22)
(-0.000398707 0.000142399 5.9667e-22)
(4.83191e-05 6.51566e-06 9.85275e-23)