/*--------------------------------*- C++ -*----------------------------------*\
| =========                 |                                                 |
| \\      /  F ield         | OpenFOAM: The Open Source CFD Toolbox           |
|  \\    /   O peration     | Version:  v2012                                 |
|   \\  /    A nd           | Website:  www.openfoam.com                      |
|    \\/     M anipulation  |                                                 |
\*---------------------------------------------------------------------------*/
FoamFile
{
    version     2.0;
    format      ascii;
    class       volScalarField;
    location    "400";
    object      k;
}
// * * * * * * * * * * * * * * * * * * * * * * * * * * * * * * * * * * * * * //

dimensions      [0 2 -2 0 0 0 0];


internalField   nonuniform List<scalar> 
18540
(
9.35538e-05
5.70376e-05
8.45342e-05
0.000102793
8.67798e-05
4.4819e-05
8.22716e-05
0.00823908
5.50184e-05
8.75787e-05
8.90153e-05
0.000164261
0.000145006
0.032834
8.64576e-05
5.48981e-05
6.47601e-05
8.0622e-05
5.98652e-05
8.20948e-05
0.000112895
5.18049e-05
4.93814e-05
9.02338e-05
6.22147e-05
8.66235e-05
8.95302e-05
0.05726
0.000106188
0.0321459
0.0270621
5.49568e-05
8.14793e-05
5.31827e-05
8.69196e-05
6.35641e-05
7.23385e-05
8.48006e-05
5.74479e-05
9.73493e-05
0.000114239
5.70526e-05
8.50495e-05
7.92932e-05
6.38716e-05
5.34492e-05
0.00157966
6.39958e-05
6.02437e-05
0.000109218
7.26126e-05
6.6086e-05
5.5402e-05
0.000114327
9.60589e-05
0.0201175
9.78713e-05
8.44699e-05
9.38252e-05
0.000111011
9.01103e-05
7.64743e-05
7.11054e-05
6.20537e-05
6.00218e-05
5.3551e-05
6.4307e-05
9.71638e-05
0.000134467
6.21042e-05
8.52728e-05
0.00010598
5.30002e-05
6.21698e-05
6.00851e-05
0.00520456
0.000143005
8.63042e-05
8.51213e-05
0.00796198
6.40909e-05
8.27665e-05
5.34955e-05
6.46589e-05
8.91047e-05
8.4589e-05
0.000149831
5.45679e-05
7.55794e-05
0.000113289
9.09017e-05
0.0269718
0.000129388
8.80899e-05
5.33356e-05
6.04049e-05
0.000158533
8.17986e-05
0.00297983
8.23083e-05
5.30669e-05
7.62204e-05
8.24838e-05
5.25415e-05
5.3318e-05
5.31681e-05
8.20617e-05
9.63108e-05
7.67309e-05
8.70196e-05
9.1585e-05
6.19656e-05
7.54373e-05
8.48055e-05
5.2907e-05
5.28029e-05
6.41958e-05
8.03811e-05
7.90562e-05
8.47534e-05
8.20408e-05
0.0261676
0.00578168
7.71096e-05
8.58509e-05
7.60886e-05
8.18844e-05
8.99736e-05
6.01284e-05
9.11042e-05
0.0121575
7.92666e-05
7.13905e-05
0.00605515
5.08161e-05
8.67675e-05
7.14608e-05
9.14962e-05
7.11797e-05
5.26496e-05
4.47075e-05
7.24313e-05
8.68463e-05
8.99239e-05
0.000105133
8.81688e-05
0.00010594
0.00744184
5.66392e-05
5.64244e-05
0.0113752
7.35756e-05
6.41622e-05
8.48955e-05
6.47368e-05
5.84861e-05
0.000137975
6.75492e-05
7.58906e-05
0.00304673
0.000284918
0.0162817
8.80999e-05
0.0214677
8.98083e-05
6.74806e-05
8.18258e-05
7.70148e-05
7.54653e-05
8.57796e-05
7.62642e-05
8.47558e-05
7.98118e-05
0.0104397
7.91156e-05
0.000132397
5.81926e-05
0.0351161
7.66864e-05
7.60445e-05
0.0165191
7.65423e-05
8.04013e-05
5.54184e-05
8.27069e-05
8.16918e-05
0.0376474
5.8236e-05
0.000129521
0.000119972
8.1465e-05
0.0213911
8.55284e-05
0.00762887
8.49906e-05
7.66746e-05
0.00017904
0.0178065
8.40575e-05
8.91626e-05
8.19272e-05
0.0363974
6.37752e-05
9.0059e-05
4.69644e-05
6.90331e-05
1.48986e-05
6.68001e-05
0.000413422
0.0303851
8.2363e-05
8.25246e-05
8.60383e-05
6.90468e-05
0.000192992
0.0315927
5.7414e-05
6.41698e-05
0.00018905
0.00485348
9.33383e-05
4.46886e-05
0.00637846
7.81248e-05
8.67499e-05
8.05398e-05
4.37987e-05
0.000115173
0.000104157
7.59688e-05
5.30103e-05
8.92641e-05
0.0296987
0.000216456
0.000125445
0.000114478
0.000124003
9.00614e-05
4.47785e-05
8.8259e-05
6.49656e-05
9.56072e-05
9.16355e-05
6.40107e-05
5.34503e-05
7.11888e-05
7.95743e-05
8.4634e-05
9.15169e-05
6.63466e-05
7.94804e-05
0.0276348
6.50611e-05
8.16818e-05
0.014599
9.36846e-05
0.00015583
0.000105972
0.000118415
0.00640797
0.00690118
0.000125743
0.0174228
6.30293e-05
6.82806e-05
0.000914375
7.28746e-05
8.18534e-05
0.0176901
8.57363e-05
5.11593e-05
6.66163e-05
4.95289e-05
5.34324e-05
6.20953e-05
7.2795e-05
8.16813e-05
0.000123836
0.00566033
6.50898e-05
5.55834e-05
8.21546e-05
0.00825968
8.18703e-05
7.91074e-05
0.0488888
8.04435e-05
8.11623e-05
7.64393e-05
0.00500164
6.82107e-05
7.93049e-05
0.000118416
8.20747e-05
8.81619e-05
8.46815e-05
5.31017e-05
8.86681e-05
9.0134e-05
0.000103002
5.58033e-05
6.61887e-05
8.18108e-05
0.00276106
0.000124218
8.149e-05
9.65578e-05
8.55876e-05
7.94232e-05
5.56963e-05
8.26423e-05
8.69087e-05
9.40108e-05
7.01798e-05
0.000113954
8.99615e-05
4.55938e-05
7.99339e-05
6.56243e-05
0.000102884
8.73538e-05
8.93802e-05
6.21307e-05
5.11938e-05
0.00142108
6.40747e-05
6.35783e-05
8.99583e-05
8.16164e-05
6.33888e-05
8.74323e-05
5.10354e-05
7.1852e-05
8.22256e-05
7.4643e-05
8.56176e-05
0.00272978
6.23532e-05
8.8788e-05
8.24148e-05
8.01398e-05
7.79029e-05
8.74673e-05
7.75705e-05
8.16561e-05
0.000105264
8.14082e-05
0.00576673
0.000103335
8.09603e-05
5.76404e-05
4.92785e-05
8.73872e-05
7.94264e-05
7.38099e-05
0.00444759
8.57463e-05
6.22189e-05
7.27301e-05
8.44339e-05
7.6205e-05
8.57369e-05
8.96509e-05
0.000128618
8.85675e-05
7.54336e-05
8.6584e-05
8.09387e-05
4.80616e-05
9.48197e-05
7.17768e-05
5.52192e-05
6.0553e-05
0.0117831
0.00027519
6.58476e-05
8.94367e-05
8.68109e-05
9.09512e-05
7.5733e-05
0.0302749
7.43283e-05
9.02851e-05
8.04875e-05
8.38146e-05
8.90091e-05
6.73256e-05
8.64185e-05
0.000227128
0.000188736
6.74196e-05
0.000221541
6.38263e-05
0.000808653
0.000406695
0.000148726
5.34371e-05
7.97379e-05
0.000274101
8.05813e-05
5.03513e-05
0.00984692
8.38973e-05
8.09527e-05
6.26143e-05
8.4441e-05
7.51829e-05
0.000137178
6.02177e-05
5.94055e-05
6.31661e-05
6.13012e-05
7.5363e-05
8.81291e-05
7.98823e-05
4.93665e-05
6.22314e-05
8.40359e-05
7.53843e-05
7.29719e-05
0.00698374
8.10542e-05
5.02408e-05
6.32693e-05
8.91303e-05
8.47429e-05
6.06967e-05
6.02295e-05
0.000100562
7.67757e-05
8.67956e-05
8.99564e-05
5.00014e-05
8.52739e-05
6.27418e-05
5.01114e-05
6.02897e-05
1.87347e-05
6.31429e-05
8.90153e-05
0.00961129
0.000469271
0.0487497
5.95981e-05
6.65836e-05
6.86664e-05
8.07411e-05
0.00822213
4.98798e-05
6.06304e-05
0.000208744
6.37129e-05
5.09097e-05
6.28803e-05
4.80857e-05
6.30808e-05
0.0339101
6.40585e-05
7.98529e-05
8.95296e-05
8.03102e-05
8.61543e-05
0.00706248
5.17174e-05
0.0236281
7.14561e-05
6.85884e-05
0.00495481
6.14221e-05
8.8864e-05
6.44817e-05
0.00581247
7.76382e-05
8.93424e-05
8.11471e-05
6.89635e-05
0.00142056
4.4996e-05
6.45539e-05
6.93396e-05
0.000134964
8.17239e-05
0.000109245
4.60499e-05
7.7011e-05
8.0327e-05
0.000197316
9.0141e-05
0.01036
6.01347e-05
0.000142015
5.51202e-05
0.000123052
9.53764e-05
0.000647396
7.06308e-05
0.00010214
5.51486e-05
8.20206e-05
4.45175e-05
0.000210789
8.51956e-05
0.0018179
4.84838e-05
9.93853e-05
5.51495e-05
6.17831e-05
7.46487e-05
8.18952e-05
8.88784e-05
6.41153e-05
0.00268568
9.48781e-05
0.000159552
6.16074e-05
0.000178863
5.95819e-05
7.51914e-05
7.12788e-05
4.84535e-05
7.74949e-05
8.54576e-05
6.19796e-05
0.0125151
9.88867e-05
0.000222217
7.67804e-05
6.28331e-05
7.92448e-05
0.00354699
5.23376e-05
0.00842373
8.90389e-05
4.45015e-05
5.18634e-05
5.558e-05
7.47467e-05
6.27432e-05
8.18826e-05
9.33369e-05
7.55717e-05
6.16478e-05
0.00740497
8.50934e-05
6.87646e-05
0.00116046
0.000100527
7.56645e-05
0.000141224
0.000117149
8.93954e-05
5.13402e-05
8.20068e-05
7.04302e-05
4.91011e-05
8.11961e-05
0.000852284
5.55569e-05
0.000639682
6.431e-05
8.76433e-05
0.00554911
0.000188028
4.65412e-05
0.0522941
5.3486e-05
7.57794e-05
8.60413e-05
7.98531e-05
0.000114549
8.61892e-05
0.00387061
0.0330653
7.55656e-05
0.000129248
0.000242337
0.000154583
7.79115e-05
5.14817e-05
0.00549947
7.70893e-05
8.02498e-05
8.87198e-05
0.00946563
5.43628e-05
6.18056e-05
7.50259e-05
8.37699e-05
8.79578e-05
8.7602e-05
8.76596e-05
7.68865e-05
8.06449e-05
8.02927e-05
6.08048e-05
0.000103879
6.39532e-05
7.76127e-05
7.49428e-05
6.34882e-05
8.30307e-05
7.6637e-05
8.71828e-05
4.8879e-05
4.89789e-05
0.000154552
4.95479e-05
8.00006e-05
7.67386e-05
4.93791e-05
4.44442e-05
7.00136e-05
0.000714334
0.00272948
6.84024e-05
7.07547e-05
7.59396e-05
8.71412e-05
8.16715e-05
8.54735e-05
8.88274e-05
6.67629e-05
6.69377e-05
6.72697e-05
8.07219e-05
5.68018e-05
8.59176e-05
0.000168463
8.40889e-05
8.4235e-05
8.22474e-05
4.96546e-05
7.56813e-05
7.89597e-05
9.15949e-05
7.4063e-05
6.50341e-05
0.000107166
0.000290453
7.61192e-05
0.00866514
8.13174e-05
7.5859e-05
0.000112485
0.00237178
0.0001078
5.68295e-05
0.0101138
8.04733e-05
6.67769e-05
7.65894e-05
0.0017448
6.68296e-05
8.9151e-05
6.99697e-05
9.01006e-05
8.33185e-05
7.88451e-05
9.02677e-05
8.81277e-05
5.59646e-05
1.62765e-05
7.47953e-05
4.83899e-05
8.89425e-05
7.48646e-05
4.44461e-05
7.39706e-05
0.000151301
7.44167e-05
9.01148e-05
6.91022e-05
7.42714e-05
9.58219e-05
7.13997e-05
5.09464e-05
6.98823e-05
0.000141175
9.40853e-05
7.59368e-05
8.64515e-05
8.4645e-05
7.1516e-05
8.08378e-05
7.74157e-05
0.000116981
0.0069939
6.33586e-05
5.16211e-05
6.67531e-05
0.000128697
5.48223e-05
5.48182e-05
6.48153e-05
0.000131846
0.0171431
0.0532426
0.000111796
4.95478e-05
8.49993e-05
0.000111996
5.05869e-05
9.30135e-05
8.89831e-05
0.000106751
0.00567226
7.46777e-05
0.000116986
9.94835e-05
6.32597e-05
8.65399e-05
8.91123e-05
7.59088e-05
9.05847e-05
9.04573e-05
6.48158e-05
7.88222e-05
7.94836e-05
5.10677e-05
0.000104728
0.000108481
7.48101e-05
0.000257321
7.8e-05
0.00589429
7.15903e-05
0.00103079
0.00623976
5.18613e-05
9.28453e-05
9.15725e-05
6.67397e-05
0.0211033
9.0119e-05
8.49301e-05
0.00820034
8.93368e-05
4.45682e-05
4.76258e-05
7.62535e-05
0.000105486
0.000165496
5.93617e-05
4.73767e-05
9.27278e-05
8.57387e-05
7.09485e-05
9.28077e-05
7.95831e-05
7.15437e-05
9.02573e-05
8.90842e-05
9.38828e-05
6.1232e-05
5.12917e-05
0.0194819
0.00150117
0.000105386
0.000138172
6.96646e-05
0.00942997
6.86046e-05
0.0329543
8.63993e-05
6.06311e-05
9.87504e-05
0.000105927
0.000109367
6.32131e-05
6.33202e-05
4.47472e-05
0.00020831
7.08454e-05
0.000237505
8.5911e-05
0.000106549
0.00202648
5.94544e-05
8.69806e-05
0.000132482
6.42704e-05
0.000125458
7.59297e-05
6.52845e-05
8.88221e-05
7.50899e-05
8.345e-05
8.41219e-05
7.49857e-05
7.77777e-05
8.05693e-05
6.14476e-05
6.60984e-05
6.0741e-05
8.4982e-05
6.33826e-05
0.000283146
8.43801e-05
6.79867e-05
6.30406e-05
8.44988e-05
8.57419e-05
6.92716e-05
8.92485e-05
0.0432739
5.83179e-05
8.21303e-05
0.0381882
0.000103182
0.00116724
5.37178e-05
0.000336809
8.48337e-05
6.59287e-05
5.73872e-05
6.27018e-05
7.51984e-05
0.0118925
5.36537e-05
8.71333e-05
0.000107256
7.09614e-05
8.3158e-05
8.90337e-05
6.61186e-05
0.000100179
6.8372e-05
9.20904e-05
7.05445e-05
0.00558822
8.10645e-05
0.000276591
6.4344e-05
0.00164709
6.63933e-05
6.85843e-05
5.47623e-05
7.26451e-05
4.99812e-05
0.000108563
0.000106835
8.67129e-05
6.81967e-05
6.49029e-05
8.73006e-05
6.78085e-05
0.000375994
0.000141433
5.6709e-05
5.23441e-05
0.00012769
6.14802e-05
9.36546e-05
8.95098e-05
6.96965e-05
6.98449e-05
5.23873e-05
8.91131e-05
6.1122e-05
7.8523e-05
8.94138e-05
8.36154e-05
9.59621e-05
4.94918e-05
5.17848e-05
7.76458e-05
8.1979e-05
0.000634177
0.000172818
8.51541e-05
5.97405e-05
6.60443e-05
8.88889e-05
8.58447e-05
6.98193e-05
8.16899e-05
7.57665e-05
8.68636e-05
6.62876e-05
4.56482e-05
4.58372e-05
6.39467e-05
7.4982e-05
4.46652e-05
0.0277472
8.51562e-05
8.4483e-05
0.0182852
8.01358e-05
0.00209346
8.46802e-05
5.24112e-05
8.45605e-05
8.44604e-05
7.91019e-05
7.30461e-05
8.93417e-05
7.13609e-05
6.22495e-05
0.000132422
0.0188637
5.20462e-05
7.81495e-05
8.88908e-05
8.60905e-05
6.65263e-05
0.00215471
8.46948e-05
8.72782e-05
7.56149e-05
7.53789e-05
7.74701e-05
7.16587e-05
7.16198e-05
5.97661e-05
8.45743e-05
8.09033e-05
7.22962e-05
8.55122e-05
6.9437e-05
8.98842e-05
0.000217013
9.48927e-05
7.32515e-05
5.11307e-05
0.0173019
7.78218e-05
9.25751e-05
8.56221e-05
8.4234e-05
5.2168e-05
8.73576e-05
0.00028321
0.0331755
0.0118265
0.0345174
8.04668e-05
0.00603138
8.7017e-05
6.11157e-05
8.89846e-05
0.01013
8.05213e-05
0.000112574
0.000109498
0.00110669
8.62269e-05
4.48847e-05
0.00265158
8.52622e-05
7.11787e-05
0.000256033
9.67487e-05
0.0103005
8.49227e-05
0.00158127
8.10886e-05
0.000146276
7.65672e-05
0.000118337
8.42829e-05
7.0538e-05
8.8511e-05
8.6465e-05
0.000309917
8.1212e-05
0.0269682
8.55713e-05
8.15218e-05
8.93701e-05
9.72776e-05
5.26796e-05
7.72091e-05
6.64788e-05
0.000119988
4.45659e-05
0.000123561
0.0074131
0.0469534
6.82103e-05
8.58029e-05
7.21199e-05
7.78414e-05
0.00456047
5.23435e-05
8.77807e-05
0.000120215
8.07243e-05
7.07502e-05
7.69082e-05
6.32917e-05
8.94142e-05
8.7733e-05
6.05542e-05
5.69004e-05
8.16758e-05
4.97597e-05
5.22076e-05
5.38678e-05
0.000592357
0.000856219
9.84232e-05
6.28822e-05
0.000138793
8.77034e-05
8.66672e-05
7.53003e-05
0.0426857
8.22044e-05
6.45662e-05
7.61407e-05
0.0155645
7.73752e-05
0.01896
9.66603e-05
8.4726e-05
0.0121794
9.14499e-05
9.02695e-05
5.19326e-05
5.22257e-05
6.63384e-05
9.02873e-05
8.59344e-05
0.000134157
7.92384e-05
5.97333e-05
8.32702e-05
5.09244e-05
0.000103136
8.04048e-05
0.000740793
8.5928e-05
8.52141e-05
8.94874e-05
5.21137e-05
9.3522e-05
6.48426e-05
0.00306262
8.56453e-05
8.56414e-05
7.68249e-05
6.8443e-05
9.02892e-05
8.58775e-05
7.0726e-05
8.08108e-05
5.16768e-05
5.17905e-05
8.43435e-05
8.36672e-05
0.017762
7.45477e-05
8.10234e-05
6.14777e-05
9.98341e-05
0.000135284
5.2351e-05
8.13166e-05
8.78344e-05
5.0838e-05
0.00124243
8.26249e-05
4.4953e-05
9.91818e-05
0.000115622
6.34895e-05
6.80116e-05
6.79184e-05
0.0184674
4.45945e-05
7.48164e-05
6.12875e-05
8.99143e-05
7.62975e-05
0.00818963
8.17361e-05
8.96042e-05
7.49521e-05
5.44054e-05
5.71967e-05
8.17885e-05
7.95161e-05
6.37416e-05
6.54195e-05
8.00935e-05
8.14867e-05
8.32123e-05
9.26708e-05
0.000102095
7.16993e-05
0.0129175
7.63048e-05
8.72421e-05
0.0114245
4.92187e-05
8.07929e-05
0.000142451
7.19589e-05
5.43629e-05
8.89347e-05
8.98906e-05
9.58861e-05
4.8348e-05
7.59529e-05
6.79706e-05
0.056512
9.28489e-05
7.17947e-05
0.000249775
8.77154e-05
9.15659e-05
0.000145627
8.78569e-05
0.0480339
5.12612e-05
8.89533e-05
0.000113174
8.92322e-05
7.79328e-05
0.00046206
9.62486e-05
0.000175842
8.04358e-05
8.41336e-05
6.97862e-05
8.54419e-05
8.84369e-05
7.84676e-05
4.47096e-05
5.39874e-05
8.09472e-05
6.17659e-05
5.3703e-05
6.45601e-05
8.01982e-05
7.4674e-05
6.14617e-05
6.17886e-05
0.00511197
5.10178e-05
6.53223e-05
8.12831e-05
8.76764e-05
9.08621e-05
8.18845e-05
0.000102038
6.28986e-05
3.90213e-05
8.92975e-05
5.89879e-05
9.65338e-05
8.39511e-05
8.90596e-05
4.77989e-05
0.000101939
8.92256e-05
0.00771935
8.02332e-05
9.16234e-05
4.77116e-05
5.6408e-05
8.57645e-05
4.95945e-05
5.37292e-05
4.49035e-05
6.21486e-05
0.000127424
7.93248e-05
6.99553e-05
5.72568e-05
6.82965e-05
5.33905e-05
7.50085e-05
7.05328e-05
9.41747e-05
0.00249759
8.6006e-05
7.03288e-05
0.00744604
8.66395e-05
5.53836e-05
5.33965e-05
5.71454e-05
8.37169e-05
6.36086e-05
9.45849e-05
4.49323e-05
9.17627e-05
7.52217e-05
7.52967e-05
5.05288e-05
6.27165e-05
8.18352e-05
9.08092e-05
8.69656e-05
8.96299e-05
0.000109387
7.55795e-05
0.00454079
0.000713899
0.0309539
4.49179e-05
7.03046e-05
8.63811e-05
8.58105e-05
8.87326e-05
8.36325e-05
8.73299e-05
7.85651e-05
8.5068e-05
9.06652e-05
5.16888e-05
0.0176729
5.50188e-05
0.000463296
8.17929e-05
5.49389e-05
8.86436e-05
6.39745e-05
6.27967e-05
5.35284e-05
0.000566666
5.04693e-05
5.64309e-05
9.22549e-05
0.000139701
6.08452e-05
7.53004e-05
7.86959e-05
5.63208e-05
7.78692e-05
7.04373e-05
8.59478e-05
6.09678e-05
4.98771e-05
6.15681e-05
0.000101401
7.91578e-05
8.4355e-05
6.55178e-05
0.000101069
8.58417e-05
6.78492e-05
0.00088904
2.62078e-05
8.97281e-05
9.06577e-05
5.5351e-05
0.0118948
5.14953e-05
9.44823e-05
8.42142e-05
7.10885e-05
8.4294e-05
9.41297e-05
7.07006e-05
6.38981e-05
5.22798e-05
5.12518e-05
6.72026e-05
9.63112e-05
9.16238e-05
0.000144578
0.000215608
0.000213616
4.92712e-05
6.32306e-05
0.00140922
0.000155844
8.81922e-05
4.99289e-05
4.64241e-05
0.0058323
4.44712e-05
9.12944e-05
7.542e-05
0.000100428
5.54894e-05
5.24446e-05
7.06958e-05
9.35958e-05
8.59835e-05
5.28947e-05
5.58768e-05
7.33902e-05
0.000174737
8.97793e-05
6.13168e-05
6.70919e-05
9.01724e-05
0.000108796
0.000189344
8.57893e-05
9.96822e-05
7.85901e-05
7.62158e-05
0.000479136
0.000210552
8.66087e-05
9.44198e-05
0.000111658
8.07124e-05
6.23082e-05
9.01033e-05
4.87593e-05
9.62507e-05
6.49916e-05
8.30464e-05
0.0156355
0.0365259
8.62847e-05
8.4091e-05
0.00763909
5.07948e-05
7.41238e-05
7.52158e-05
0.000118873
0.000112905
0.0159491
4.85948e-05
5.13607e-05
0.0217769
4.91034e-05
5.80202e-05
7.98501e-05
4.91048e-05
6.97622e-05
6.92438e-05
4.44791e-05
0.00311595
8.73337e-05
8.62691e-05
6.28934e-05
0.00010887
8.3433e-05
4.4403e-05
5.75132e-05
8.58456e-05
8.09695e-05
5.53617e-05
8.75943e-05
4.87102e-05
9.13706e-05
4.82703e-05
8.57552e-05
4.7897e-05
4.84321e-05
5.26989e-05
0.00881607
0.00468216
7.77942e-05
8.21527e-05
7.48503e-05
8.38305e-05
9.06789e-05
4.85474e-05
0.000103022
8.78552e-05
0.000934923
0.019895
4.74346e-05
7.33476e-05
9.27377e-05
9.85873e-05
6.23381e-05
8.56404e-05
4.83873e-05
0.0552951
9.66684e-05
4.90517e-05
4.82333e-05
8.83278e-05
0.000103279
8.57257e-05
5.93928e-05
4.79277e-05
5.53343e-05
7.96391e-05
9.27736e-05
6.29668e-05
9.19219e-05
0.000283723
7.12656e-05
9.14114e-05
5.28963e-05
5.06897e-05
4.44145e-05
7.76477e-05
0.00336452
9.02273e-05
5.20323e-05
9.9941e-05
6.39131e-05
7.87559e-05
0.000126155
0.000134954
7.52563e-05
5.30566e-05
6.30145e-05
0.0421608
7.81685e-05
8.5489e-05
8.30899e-05
0.0302448
0.000547004
8.08033e-05
0.0211909
0.000146777
0.000108701
8.88911e-05
7.71383e-05
7.33132e-05
6.14838e-05
6.29465e-05
9.25735e-05
8.0968e-05
5.19923e-05
6.06544e-05
4.94863e-05
9.53498e-05
7.67031e-05
0.00213762
5.30394e-05
8.14989e-05
8.84549e-05
0.00183444
8.718e-05
0.000295582
5.03098e-05
7.3837e-05
6.25943e-05
6.93143e-05
8.97297e-05
6.96048e-05
9.60751e-05
5.42332e-05
0.000126849
5.59306e-05
7.87116e-05
8.6963e-05
8.60748e-05
8.89764e-05
5.25046e-05
7.55592e-05
0.000109752
5.69351e-05
9.61356e-05
0.000140119
4.44071e-05
9.08711e-05
7.09929e-05
0.0134148
7.01445e-05
7.61845e-05
0.00016161
5.41376e-05
7.42983e-05
6.33907e-05
8.28476e-05
6.10555e-05
7.80294e-05
5.93952e-05
5.14116e-05
5.99127e-05
0.0176092
5.53905e-05
0.0261502
0.000686612
5.9982e-05
6.09144e-05
9.64252e-05
4.45782e-05
9.41192e-05
9.79799e-05
8.56583e-05
8.04864e-05
5.76277e-05
6.94342e-05
6.09753e-05
6.04374e-05
8.19427e-05
6.77932e-05
5.92165e-05
8.58934e-05
7.83267e-05
8.09365e-05
0.000113827
8.05232e-05
7.22394e-05
8.71871e-05
8.85877e-05
9.37927e-05
9.2535e-05
7.95533e-05
6.07022e-05
0.0266453
7.75073e-05
0.000170688
5.71932e-05
9.6286e-05
5.2222e-05
4.46139e-05
6.19723e-05
7.57899e-05
7.20842e-05
4.8115e-05
0.000150999
5.74239e-05
7.50594e-05
0.00511814
7.74091e-05
8.26085e-05
6.02466e-05
6.95215e-05
6.06938e-05
5.08971e-05
0.0139009
5.37571e-05
6.03254e-05
9.02967e-05
9.03625e-05
0.0330825
8.16559e-05
8.07828e-05
8.97344e-05
0.00010174
0.0324137
9.11065e-05
6.71197e-05
0.00011167
5.25186e-05
7.39494e-05
7.31603e-05
0.0208707
0.0341138
5.24831e-05
8.82488e-05
0.0159801
5.14352e-05
0.00815103
6.17535e-05
7.18496e-05
7.06951e-05
6.22238e-05
5.33024e-05
7.18382e-05
0.000150868
0.0185354
8.64256e-05
0.000163915
7.99266e-05
6.07678e-05
0.000100943
0.0179912
8.85123e-05
8.38246e-05
6.80736e-05
5.30212e-05
8.45578e-05
8.53331e-05
9.04396e-05
0.00012754
6.08566e-05
7.41997e-05
0.000249084
8.2514e-05
0.000106724
3.78916e-05
0.000464988
0.00216481
8.29326e-05
4.94028e-05
6.95427e-05
5.2075e-05
7.43924e-05
7.89764e-05
8.15535e-05
0.000166738
8.42318e-05
4.75856e-05
6.19949e-05
8.41972e-05
6.09024e-05
8.80226e-05
7.62824e-05
8.69294e-05
6.87036e-05
0.0578932
0.00325708
0.000111969
6.35208e-05
4.93688e-05
5.8749e-05
5.97599e-05
6.24184e-05
6.24371e-05
0.000155669
0.000173288
5.20515e-05
6.72719e-05
6.79673e-05
0.0186865
8.50911e-05
9.7523e-05
8.65829e-05
9.02448e-05
4.94931e-05
8.41009e-05
6.34703e-05
9.08897e-05
8.76549e-05
4.80655e-05
6.17799e-05
5.89948e-05
8.26625e-05
8.97248e-05
5.36218e-05
0.0538607
7.90546e-05
4.91691e-05
6.9461e-05
7.37879e-05
9.63101e-05
7.45199e-05
9.24268e-05
8.47235e-05
9.85344e-05
8.92658e-05
7.63603e-05
0.00396404
6.16717e-05
5.46528e-05
0.0339935
5.17159e-05
0.000156023
7.75819e-05
8.94301e-05
0.0052274
9.4864e-05
8.4081e-05
8.47165e-05
0.000114537
0.00362579
6.43698e-05
5.12013e-05
9.896e-05
7.20261e-05
6.50416e-05
7.02589e-05
0.000141886
5.16201e-05
8.44495e-05
8.01401e-05
5.18499e-05
8.44465e-05
0.012692
7.34407e-05
6.8123e-05
0.0046072
0.00010908
7.05064e-05
0.000106161
5.10788e-05
9.17511e-05
7.23431e-05
8.58501e-05
5.76809e-05
0.0326939
0.000112695
5.94009e-05
0.0498129
8.80348e-05
5.6408e-05
8.87797e-05
7.55112e-05
9.84718e-05
5.12067e-05
0.000276169
0.0187072
0.0175354
0.000122769
5.84083e-05
8.19929e-05
8.81282e-05
5.46889e-05
9.12334e-05
5.4951e-05
0.000142053
0.00121592
6.13359e-05
7.6613e-05
9.46677e-05
7.55351e-05
7.04416e-05
7.41696e-05
5.83214e-05
9.35873e-05
7.21482e-05
9.55984e-05
7.5153e-05
9.65538e-05
9.24306e-05
7.95917e-05
6.50588e-05
5.0138e-05
8.57517e-05
8.20729e-05
5.79466e-05
0.0092665
5.5365e-05
0.038886
5.96547e-05
5.95714e-05
6.76142e-05
5.06414e-05
7.44977e-05
4.98935e-05
0.00012517
5.6803e-05
8.80631e-05
6.52093e-05
6.93302e-05
0.0021407
5.33425e-05
7.26568e-05
9.24463e-05
8.43675e-05
4.99802e-05
7.12514e-05
5.96717e-05
8.59071e-05
8.83569e-05
7.97242e-05
9.81627e-05
8.90634e-05
0.00388879
7.64604e-05
5.36123e-05
8.1041e-05
0.011488
5.36631e-05
6.25126e-05
6.6018e-05
4.80361e-05
5.15361e-05
8.45185e-05
0.000107225
9.41753e-05
9.61851e-05
6.82211e-05
0.0141213
6.47208e-05
5.80255e-05
5.58649e-05
7.30296e-05
9.14843e-05
8.9946e-05
5.36041e-05
6.60074e-05
0.000383778
8.59335e-05
6.44716e-05
6.50767e-05
0.000489363
4.44087e-05
8.14735e-05
5.73586e-05
9.00799e-05
8.29505e-05
8.87436e-05
7.7749e-05
8.35633e-05
9.13502e-05
8.44083e-05
8.20333e-05
8.0039e-05
0.000123807
6.4238e-05
8.4327e-05
7.62849e-05
8.42352e-05
7.99478e-05
7.60178e-05
8.55253e-05
0.0108191
7.04205e-05
5.81035e-05
0.000632394
8.65315e-05
0.00646564
6.0384e-05
9.27456e-05
0.000275083
6.13419e-05
6.11222e-05
0.0195058
0.0114147
9.00274e-05
8.05536e-05
0.000125898
0.000793216
4.49317e-05
6.81727e-05
8.00475e-05
8.37707e-05
7.33705e-05
6.11455e-05
5.12534e-05
5.56443e-05
6.51244e-05
0.00589476
0.02863
7.40801e-05
0.00603426
6.0587e-05
6.09698e-05
7.78044e-05
7.3281e-05
9.02343e-05
9.12337e-05
8.20222e-05
5.12693e-05
0.00127994
0.0437404
7.01044e-05
7.02858e-05
8.97395e-05
7.66927e-05
0.000116642
4.94985e-05
8.3251e-05
3.30212e-05
0.0446017
0.000133991
8.86786e-05
6.72043e-05
8.42267e-05
9.47596e-05
8.13533e-05
7.50846e-05
0.000151224
9.73641e-05
0.000433308
7.97004e-05
0.000140932
0.000100578
7.43105e-05
0.000258245
4.93662e-05
8.60202e-05
7.51359e-05
8.23149e-05
6.1021e-05
8.48745e-05
0.000106591
8.85573e-05
6.84624e-05
0.00298335
0.023243
7.81584e-05
4.75615e-05
8.43324e-05
9.82027e-05
8.7368e-05
0.0034492
8.54283e-05
9.08185e-05
9.4852e-05
0.00644139
8.57099e-05
8.8236e-05
0.00026283
7.57285e-05
5.22173e-05
7.35914e-05
6.35902e-05
0.00462865
8.36603e-05
6.72855e-05
7.44627e-05
5.18502e-05
7.36001e-05
7.00326e-05
7.63959e-05
7.7279e-05
7.86047e-05
9.06041e-05
9.69428e-05
4.91719e-05
0.00010565
9.34911e-05
8.5968e-05
8.43426e-05
5.40965e-05
7.92778e-05
6.79946e-05
0.000108145
5.90222e-05
4.54795e-05
8.9437e-05
0.000180743
8.56878e-05
0.000124975
5.15384e-05
8.54718e-05
4.93071e-05
4.46378e-05
5.21308e-05
6.47847e-05
0.000507323
4.93007e-05
9.66885e-05
5.57716e-05
0.000109825
0.000194459
7.26183e-05
8.07172e-05
7.40265e-05
8.87235e-05
8.33965e-05
5.57173e-05
0.0458383
4.80235e-05
7.56907e-05
5.80596e-05
5.43054e-05
7.55512e-05
6.11849e-05
7.97895e-05
9.67185e-05
6.77773e-05
7.94092e-05
7.90508e-05
9.02384e-05
8.99447e-05
6.27804e-05
4.78677e-05
8.47672e-05
7.35298e-05
0.0337769
7.17343e-05
5.39021e-05
7.48493e-05
5.82488e-05
5.03052e-05
0.000101234
6.31464e-05
5.7386e-05
8.25017e-05
4.93203e-05
6.98248e-05
7.54858e-05
6.95749e-05
5.84239e-05
0.000269212
6.97863e-05
6.63638e-05
4.91442e-05
6.53982e-05
7.51514e-05
5.88973e-05
8.40121e-05
7.44891e-05
9.72046e-05
8.86777e-05
5.77962e-05
0.000103209
5.73723e-05
6.38051e-05
5.64932e-05
7.98335e-05
7.99536e-05
8.45996e-05
0.000130684
8.54173e-05
5.80822e-05
0.000134248
5.55564e-05
0.000103508
8.32983e-05
0.00540116
5.15421e-05
9.33496e-05
9.01533e-05
4.44537e-05
5.73434e-05
7.14258e-05
6.76012e-05
7.32338e-05
9.04464e-05
9.84473e-06
0.00705939
8.87783e-05
9.43088e-05
0.0307083
8.42585e-05
5.01268e-05
5.46176e-05
0.02987
5.88756e-05
0.000172556
0.000111971
5.77254e-05
0.000315532
0.0471192
8.60619e-05
5.28979e-05
5.16752e-05
5.82816e-05
7.11993e-05
5.86522e-05
4.91226e-05
7.95972e-05
6.6433e-05
7.45931e-05
6.25244e-05
5.97005e-05
0.0456027
6.72917e-05
4.81799e-05
8.63249e-05
8.24341e-05
5.24863e-05
0.0579691
7.02088e-05
9.43233e-05
5.74316e-05
9.48301e-05
7.90993e-05
7.01958e-05
7.84135e-05
8.91158e-05
6.19477e-05
6.04942e-05
8.43464e-05
8.15509e-05
6.63572e-05
9.07963e-05
9.13791e-05
5.79695e-05
5.26697e-05
0.00010693
8.37568e-05
0.0557728
6.92697e-05
6.02709e-05
5.02612e-05
5.26058e-05
5.30757e-05
8.16972e-05
9.18172e-05
7.18981e-05
5.07825e-05
6.8975e-05
5.88675e-05
8.43009e-05
9.48288e-05
7.34812e-05
4.92506e-05
8.88921e-05
5.23172e-05
8.85116e-05
5.09226e-05
7.7057e-05
7.3275e-05
7.96641e-05
0.000127119
6.78638e-05
6.12064e-05
5.21309e-05
8.07184e-05
8.99902e-05
0.00511379
5.0969e-05
7.01039e-05
0.000124228
5.20679e-05
6.24677e-05
9.39957e-05
7.30591e-05
5.04609e-05
0.000242382
5.74884e-05
0.0101316
7.46758e-05
5.24177e-05
0.000242475
0.007018
0.00789464
8.03481e-05
0.000163817
0.000105097
0.000192351
4.94517e-05
6.43651e-05
5.10365e-05
0.0349762
2.3714e-05
3.48417e-05
0.000101553
0.00377945
6.32331e-05
0.0131102
5.87266e-05
0.00608298
5.52902e-05
9.45122e-05
9.19119e-05
7.40616e-05
0.000127365
5.99163e-05
8.80876e-05
7.61126e-05
7.98431e-05
8.92358e-05
8.14977e-05
0.000139369
0.0227831
8.89509e-05
6.34138e-05
8.34484e-05
0.0371235
7.14827e-05
9.09724e-05
5.0221e-05
6.30529e-05
8.31797e-05
0.0180717
9.98947e-05
0.00012604
0.0152301
7.36536e-05
5.58276e-05
5.47361e-05
5.1741e-05
5.15418e-05
9.00448e-05
8.80307e-05
8.70998e-05
0.000877468
5.98479e-05
5.31709e-05
8.5304e-05
7.27242e-05
9.04701e-05
0.0238347
9.01451e-05
5.96517e-05
7.96997e-05
7.64717e-05
6.88402e-05
1.43239e-05
8.05237e-05
0.020332
6.06142e-05
5.58449e-05
8.58555e-05
8.78184e-05
7.64465e-05
5.95783e-05
0.0215022
5.55175e-05
5.76636e-05
0.000102994
7.65844e-05
0.000133664
6.0149e-05
8.23408e-05
0.000123583
7.24147e-05
7.17922e-05
5.92698e-05
0.0106615
5.1116e-05
6.90904e-05
5.97335e-05
7.52827e-05
8.55205e-05
6.96556e-05
9.42167e-05
9.58098e-05
0.0012269
0.0174494
0.000116422
9.15017e-05
7.85657e-05
8.9399e-05
6.26637e-05
0.000104299
0.000288027
7.42589e-05
0.00010965
0.000797113
5.84843e-05
5.31129e-05
7.79611e-05
6.9755e-05
0.00376533
6.77206e-05
5.59048e-05
0.00756582
6.19943e-05
6.95562e-05
7.09314e-05
0.0193246
0.000110222
0.000100895
4.80821e-05
7.73637e-05
8.5148e-05
0.000141718
8.85724e-05
0.000103323
8.10047e-05
6.80862e-05
0.000104404
7.75715e-05
8.82662e-05
8.85983e-05
0.000102042
9.08328e-05
5.76826e-05
8.49565e-05
0.000640124
8.81546e-05
9.58897e-05
7.98073e-05
0.000149771
8.55206e-05
7.75211e-05
4.80838e-05
9.99903e-05
5.12789e-05
6.8729e-05
6.88915e-05
8.94775e-05
6.81742e-05
7.91751e-05
9.06854e-05
0.000116026
7.98678e-05
7.9735e-05
6.07084e-05
7.26632e-05
9.70894e-05
8.51286e-05
9.90171e-05
7.10297e-05
7.1274e-05
0.0450267
7.33837e-05
9.28403e-05
7.58213e-05
0.00611572
8.96063e-05
6.22941e-05
0.031443
0.000115616
5.76564e-05
9.42089e-05
4.81885e-05
0.034464
8.33258e-05
5.18883e-05
6.32169e-05
7.35575e-05
0.00672717
0.0329422
9.42313e-05
8.16793e-05
0.000105525
7.30258e-05
8.55229e-05
9.01522e-05
0.0209461
6.16693e-05
0.000134695
5.59725e-05
0.0103396
9.11516e-05
8.44986e-05
6.23964e-05
5.12446e-05
9.31975e-05
0.000108487
8.85932e-05
0.000407523
4.83928e-05
8.42576e-05
6.53399e-05
8.71814e-05
7.19063e-05
4.6072e-05
0.0290176
7.84423e-05
7.83558e-05
0.00457929
5.95292e-05
6.27268e-05
8.79489e-05
8.89098e-05
7.6904e-05
4.93577e-05
0.00116136
9.10458e-05
7.46782e-05
0.0157193
7.25423e-05
8.398e-05
4.49129e-05
8.94024e-05
6.29501e-05
0.00370018
9.70963e-05
9.82358e-05
8.43986e-05
6.0276e-05
7.59414e-05
0.00217327
4.85845e-05
6.8565e-05
7.37955e-05
5.10082e-05
9.20585e-05
0.0375307
7.76473e-05
5.09467e-05
9.49512e-05
6.87489e-05
0.0331111
8.73703e-05
8.63703e-05
7.7794e-05
9.39142e-05
0.000103223
8.64577e-05
6.78125e-05
8.98061e-05
0.00818287
7.34958e-05
5.06229e-05
8.61966e-05
6.95456e-05
8.55924e-05
0.000112037
7.75192e-05
8.36421e-05
9.41088e-05
7.68232e-05
5.81682e-05
9.04953e-05
0.000592973
5.28553e-05
7.72107e-05
8.7666e-05
8.13457e-05
7.93122e-05
5.2886e-05
4.87351e-05
5.27589e-05
7.38453e-05
8.91453e-05
0.0294012
8.1568e-05
9.34407e-05
7.91795e-05
8.92952e-05
5.07654e-05
8.90107e-05
6.76593e-05
0.00850953
8.97657e-05
6.18921e-05
7.6062e-05
0.017593
6.85861e-05
7.75768e-05
8.2147e-05
8.70484e-05
9.0162e-05
6.13381e-05
6.26862e-05
8.45594e-05
0.000135471
9.37662e-05
8.74429e-05
7.27535e-05
8.24231e-05
9.67275e-05
9.00342e-05
7.01542e-05
6.79974e-05
0.00180507
7.31236e-05
5.94156e-05
5.39416e-05
8.30952e-05
8.17457e-05
0.00192406
9.03305e-05
8.98034e-05
5.77786e-05
8.38392e-05
0.0167346
0.000438204
5.19382e-05
0.00270757
6.47638e-05
7.8284e-05
6.4328e-05
8.88648e-05
8.33243e-05
8.1511e-05
7.68819e-05
0.000271017
7.23739e-05
7.77663e-05
6.11777e-05
7.42463e-05
9.37859e-05
6.9714e-05
0.0018926
0.000110282
9.14545e-05
5.15091e-05
6.43464e-05
7.24068e-05
5.29217e-05
0.000129266
8.44528e-05
8.67622e-05
0.0141685
9.31843e-05
7.36333e-05
5.46121e-05
4.91525e-05
0.0332488
0.0539787
0.000249144
0.000241667
8.70363e-05
0.000104877
8.40339e-05
8.38362e-05
0.000163792
9.03386e-05
8.15625e-05
8.62872e-05
5.22473e-05
0.000124151
7.62373e-05
5.31444e-05
7.28157e-05
6.10138e-05
8.27879e-05
6.50184e-05
8.53302e-05
8.5113e-05
0.00194836
4.95945e-05
9.31129e-05
7.46207e-05
9.33676e-05
8.83198e-05
7.92583e-05
9.99201e-05
6.44115e-05
6.65645e-05
0.000127143
7.72797e-05
8.89403e-05
6.09332e-05
4.91918e-05
8.72411e-05
6.70011e-05
6.92905e-05
8.76828e-05
6.98218e-05
8.87805e-05
8.75425e-05
0.000143916
5.70881e-05
6.45e-05