/*--------------------------------*- C++ -*----------------------------------*\
| =========                 |                                                 |
| \\      /  F ield         | OpenFOAM: The Open Source CFD Toolbox           |
|  \\    /   O peration     | Version:  v2012                                 |
|   \\  /    A nd           | Website:  www.openfoam.com                      |
|    \\/     M anipulation  |                                                 |
\*---------------------------------------------------------------------------*/
FoamFile
{
    version     2.0;
    format      ascii;
    class       surfaceScalarField;
    location    "400";
    object      phi;
}
// * * * * * * * * * * * * * * * * * * * * * * * * * * * * * * * * * * * * * //

dimensions      [0 3 -1 0 0 0 0];
oriented        oriented;


internalField   nonuniform List<scalar> 
27551
(
-0.111763
-0.0515603
0.163324
0.107779
-0.453733
0.345953
-0.512794
0.268813
0.243982
0.103604
-0.210971
0.107367
-0.292523
0.130868
0.161655
0.129708
0.352705
-0.482413
0.348593
-0.187745
-0.160848
-0.434103
0.182158
0.251945
0.361223
0.0685166
-0.42974
0.143156
-0.223474
0.0803184
0.0555968
-0.171047
0.11545
-0.0811745
-0.108471
0.189646
0.172286
-0.10583
-0.0664565
0.205506
-0.074425
-0.131081
-0.169739
0.263619
-0.0938803
-0.126074
0.487297
-0.496918
0.337547
0.15937
0.0308454
-0.286817
0.255972
-0.533306
0.268125
0.265181
0.185455
0.163138
0.0881281
0.030911
-0.119039
0.487341
-0.120994
-0.366347
0.357409
-0.536313
0.178904
0.209784
-0.147062
-0.0627218
-0.600095
0.440292
0.159804
-0.261301
0.0915629
0.182972
0.0148766
-0.197849
-0.0170406
0.226855
-0.074952
-0.151903
0.079128
0.126378
0.0580423
0.0634037
-0.121446
0.475332
0.0123204
-0.487653
-0.305388
0.19821
0.107178
0.581711
-0.248292
-0.333419
-0.158834
-0.133689
0.491327
-0.337446
-0.153881
0.379049
-0.0370807
-0.341968
-0.147901
-0.0953401
0.243241
0.151267
-0.443294
0.292027
-0.103996
0.162641
-0.0586446
-0.141277
0.0725196
0.068757
-0.315848
0.423628
0.335933
-0.235748
-0.100185
0.143064
-0.352324
0.209261
-0.126172
-0.231281
0.357453
0.0205793
-0.43278
0.4122
0.249511
-0.449725
0.200213
-0.508163
0.340324
0.167839
0.489249
-0.205082
-0.284166
-0.0983654
-0.103038
0.201404
-0.0274458
0.406495
0.481019
-0.473413
-0.00760572
-0.449091
0.0417815
0.407309
0.141949
-0.0834914
-0.0584577
0.0460165
0.131336
-0.177352
-0.0754367
0.133479
0.0259481
-0.129944
0.118887
-0.255752
0.136865
0.0258691
-0.137633
-0.0627285
0.150857
0.130218
0.0574788
-0.187696
-0.450865
0.307613
0.143252
-0.275389
-0.126272
0.401661
-0.400594
0.491904
-0.09131
-0.196606
-0.336699
0.334482
0.107926
-0.442408
-0.351265
0.49695
-0.145685
-0.130945
0.176961
0.110142
-0.191317
-0.015149
-0.385445
0.264017
-0.438152
0.174135
0.0647732
0.162081
-0.533303
0.246059
0.287245
0.517774
-0.380141
-0.137633
0.283513
0.205735
-0.404691
0.270618
0.0895763
0.0827102
0.124451
0.139168
0.476506
-0.212489
0.398848
-0.184367
-0.214481
0.375521
-0.501693
0.215643
0.0440282
-0.259671
0.478624
0.00871766
-0.34649
0.484871
-0.13838
0.172494
-0.116897
-0.277074
0.468777
-0.191703
-0.0673921
0.137857
-0.0704646
0.409065
0.0662668
0.196784
-0.342814
0.14603
0.0937741
-0.192139
0.381683
-0.344686
-0.0369973
-0.00203309
0.00170097
0.000332124
-0.135156
-0.0387035
0.173859
-0.210632
0.247743
-0.0371107
0.508032
-0.385537
-0.122495
-0.370735
0.539375
-0.16864
0.079671
-0.147063
-0.0949457
-0.198001
0.292947
-0.276326
-0.174179
0.450505
-0.344558
0.156814
-0.363013
0.509217
-0.146204
0.418917
-0.221099
-0.197818
-0.180107
-0.164451
-0.360607
0.543467
-0.18286
-0.416743
-0.0968442
0.513587
0.145019
0.3401
-0.154645
-0.256511
0.102423
0.154088
0.357644
-0.17034
-0.187304
0.33924
-0.0443018
-0.294938
0.197915
-0.123664
-0.0742512
0.103491
0.414284
0.370706
-0.173922
0.229913
0.10602
0.354044
0.155172
0.51647
-0.162426
-0.322601
0.466404
-0.143802
-0.21934
-0.0986473
0.317987
-0.313032
0.122713
0.190319
-0.303868
-0.208926
-0.321782
0.226836
-0.00206351
3.04179e-05
-0.131139
0.0532868
0.0778522
0.0286677
0.287701
-0.316369
0.291382
-0.188169
-0.103213
0.195185
0.223732
0.179616
0.160484
0.0189852
0.362698
-0.505182
0.308576
0.112105
0.0924161
-0.152198
0.083724
0.0684745
-0.169968
0.47449
-0.340027
-0.134463
-0.0992131
-0.0319259
-0.37944
0.545488
-0.166048
-0.130433
-0.52021
0.372393
0.147816
0.125864
0.0720506
0.239722
0.234768
0.155863
-0.319607
0.449315
-0.306893
-0.213316
0.372285
-0.0330455
-0.068313
0.198531
-0.201247
0.0982085
0.239118
-0.0792888
-0.159829
-0.0976432
0.157909
0.240939
-0.530724
0.366614
0.16411
-0.526916
0.376219
0.150697
0.0262512
-0.107899
0.0816479
-0.293385
-0.087141
0.380526
0.32434
-0.484128
0.159787
0.151238
-0.299139
-0.442528
0.0960377
-0.494574
0.513065
-0.0184913
0.0853122
-0.19016
0.104848
0.251236
-0.393241
0.142005
-0.28621
0.418244
-0.132034
0.439161
-0.214856
-0.224305
0.123626
-0.226015
0.102389
-0.0930489
0.0560082
0.0370408
0.171178
0.0679402
0.338326
-0.145741
-0.192584
0.119932
0.0863319
-0.206264
0.391287
-0.140051
0.297572
-0.224966
-0.0726062
-0.264394
0.293061
0.264688
-0.400276
0.135587
0.177665
0.113717
-0.367435
0.152513
0.214921
0.199433
-0.330355
0.224273
0.106081
0.148819
-0.0404411
-0.108378
0.141608
0.226533
-0.36814
0.187375
-0.102063
-0.498428
0.0493372
0.00138991
0.00419132
-0.00558122
0.469979
-0.471714
0.00173472
-0.417119
0.130909
-0.0552909
-0.037758
0.241758
0.115886
-0.350783
0.198928
0.151854
-0.459513
-0.0350609
0.348821
-0.17876
-0.170061
0.180666
0.116906
0.00584209
-0.00569576
-0.000146337
-0.324091
-0.118193
0.442284
0.197371
-0.0872291
0.056713
-0.126684
0.0699712
0.171718
-0.272626
0.100908
0.184899
0.153427
-0.324105
0.158107
0.165998
-0.257023
-0.17708
-0.0953267
0.240235
-0.144908
-0.23396
-0.216905
0.0907567
-0.202651
0.111894
-0.0120879
0.0763119
-0.064224
0.254941
-0.505572
0.250631
-0.0949243
0.214856
-0.29713
0.135964
0.161165
-0.00158401
0.00742611
0.297927
-0.519322
0.221395
0.180485
-0.123006
0.525189
-0.294674
-0.230515
-0.557444
0.204305
0.353138
0.127602
-0.383341
0.255739
0.387295
-0.0665643
-0.320731
0.418364
-0.290762
-0.138987
-0.125193
0.26418
0.404706
-0.134535
-0.270171
0.168714
-0.206834
0.287935
-0.0811006
0.254612
-0.394359
0.139747
0.0796717
0.0225576
-0.102229
0.0582688
-0.118387
0.0601178
0.440468
-0.289201
-0.194145
-0.314019
-0.180907
0.0724357
0.184972
0.254189
0.0223734
0.133653
-0.156026
-0.390466
-0.115423
0.505889
0.431414
-0.142662
-0.171927
0.314588
-0.216084
0.090121
0.125963
0.0824712
-0.301811
-0.241733
-0.0809144
-0.0678241
0.148739
0.271471
-0.106008
-0.165463
0.346452
-0.250206
-0.0962463
0.258579
0.323131
-0.247944
0.106784
0.14116
0.185495
-0.0590519
-0.126443
0.131018
-0.0513462
-0.12399
-0.0111658
-0.0744938
-0.0667828
-0.125906
0.0581808
0.0677256
-0.196507
0.0915272
0.104979
-0.464851
0.0743851
0.000195808
-0.210828
-0.195207
-0.301711
-0.205718
0.120868
0.0848507
0.192724
-0.109422
-0.0833021
0.0576217
0.423398
-0.122022
0.456505
0.205832
-0.481221
-0.172814
-0.165822
0.338636
-0.0866753
0.233351
-0.146676
0.0891177
0.103606
0.0235365
0.394775
-0.418312
-0.167098
-0.185226
-0.249724
0.110737
0.244751
0.2121
-0.456851
0.151863
-0.382741
0.230879
0.0704972
-0.34958
0.279083
0.150322
-0.127949
-0.0994035
-0.20285
0.466451
-0.263601
0.196138
-0.102364
0.460241
-0.275268
0.365464
0.143463
-0.508928
-0.472161
0.216753
0.255407
-0.256911
0.327408
-0.477712
0.19697
0.280742
0.261317
-0.389033
0.127716
0.444926
-0.195414
0.119325
0.293339
-0.412664
0.351316
-0.171701
-0.073398
0.0613102
-0.211428
0.345037
-0.133609
0.34493
0.122968
-0.467898
0.410832
-0.522603
0.363933
0.15867
-0.427419
0.0106763
-0.319998
0.304849
-0.282299
0.401624
0.154148
0.197168
-0.0661946
0.128462
-0.0622674
0.51602
-0.150555
-0.371531
0.515844
-0.144313
-0.0036272
0.436485
-0.432858
-0.129721
-0.167409
0.0874534
-0.00104039
-0.086413
0.43265
-0.292601
-0.140049
0.155673
-0.328487
-0.0326803
-0.00184555
0.0345258
0.227388
-0.196543
0.319273
-0.226685
-0.0925873
-0.17225
0.0725364
-0.191665
0.119129
0.395777
-0.13446
-0.221951
0.322627
-0.100676
0.0621313
-0.143046
0.0199014
-0.244867
0.124356
0.209357
-0.333713
0.310646
-0.0807338
-0.274724
0.393652
-0.138711
-0.106515
-0.0899919
-0.0908313
-0.0686167
0.159448
0.337695
0.127481
-0.465177
0.374549
0.0202262
0.323616
0.109034
0.215421
-0.142884
-0.0691934
-0.234501
0.386364
-0.123101
-0.133411
-0.0437207
-0.394431
0.369368
-0.350382
-0.104087
0.441783
0.316264
-0.100621
-0.0901438
-0.12594
0.492555
-0.0707116
-0.421844
-0.26901
-0.288433
0.0651836
0.0767655
0.328849
0.154114
-0.267733
-0.212571
0.480303
-0.329296
0.14221
0.187087
-0.149269
0.47774
-0.328471
0.159104
0.112366
0.280159
0.0810868
-0.361246
0.247725
-0.0647527
0.498774
-0.225887
-0.272887
0.479151
-0.333663
-0.145488
0.0742997
0.141121
0.0474922
-0.425964
0.378472
-0.160034
0.457961
-0.102053
0.231994
-0.12994
-0.0842664
-0.21415
0.298417
0.325132
0.166195
-0.0477821
-0.136024
0.183806
0.351701
0.127451
0.494213
-0.318777
-0.175436
0.112105
0.431682
0.0150969
-0.446779
-0.00489093
0.182556
-0.481008
0.15819
0.322818
0.355315
0.058671
-0.413986
-0.139018
-0.0975351
0.236553
0.188873
0.127391
-0.122251
-0.207045
0.31755
-0.0293584
-0.288191
-0.204324
0.156542
0.453623
-0.277463
-0.17616
-0.15124
0.273339
-0.244601
-0.028738
-0.0899822
0.270648
-0.266077
-0.138615
0.492555
0.219081
0.100192
-0.297994
-0.228922
0.48926
-0.131851
-0.0704093
0.213565
0.0217503
0.347617
0.0255662
-0.318951
-0.393819
0.14438
-0.127831
-0.196275
-0.0750586
0.430373
-0.293269
0.256188
0.0958946
0.214752
-0.0251308
0.464919
-0.439788
0.163213
-0.168104
0.154744
0.0829953
-0.237739
0.122972
-0.064791
0.0346494
-0.173667
0.376902
-0.268406
-0.108496
0.292633
-0.181247
-0.111386
0.0962199
0.208756
-0.304976
-0.536638
0.349301
0.187338
0.25627
-0.100459
-0.155811
0.308433
0.18578
0.204045
-0.528136
-0.466952
0.0962171
0.354875
-0.183352
-0.171522
0.0778722
0.104656
-0.182529
-0.439778
0.146485
0.293293
0.151976
-0.137099
0.23799
-0.167104
-0.0708859
0.195205
-0.0831008
-0.351199
0.215931
0.135268
0.0825923
0.102902
0.395838
0.0358441
-0.106338
0.19746
-0.0911227
0.224898
-0.323546
-0.318581
0.125347
0.193234
0.0538152
0.118678
-0.133102
-0.259677
0.392779
0.126697
0.165936
-0.0790242
-0.127533
0.0530066
0.0745269
0.271888
-0.40499
0.0199523
-0.0790041
0.0590518
0.323557
-0.44898
0.125424
0.191158
-0.116858
0.472115
-0.228193
-0.243922
0.0739141
0.0639425
0.114706
-0.500243
0.336669
-0.134171
-0.202498
0.241381
0.031958
-0.177382
-0.173401
0.365984
-0.535175
0.169192
0.165174
0.1897
0.296678
-0.159939
-0.136739
0.191643
0.0895241
-0.281167
-0.284691
-0.315404
-0.151843
0.27073
-0.25308
0.383357
-0.130277
-0.144533
0.439861
0.0216531
-0.461514
-0.451003
0.17166
0.279343
0.163347
-0.459878
0.296531
-0.325603
-0.0975426
0.423146
0.125583
-0.378662
0.331184
-0.206828
0.311157
-0.279968
-0.0311884
-0.292133
0.496178
0.132681
-0.446381
0.3137
-0.145783
-0.172798
0.400501
-0.135813
-0.430107
0.271406
0.158701
-0.360757
0.177405
0.393984
-0.242789
-0.151196
0.506069
-0.140086
0.474419
-0.192499
-0.28192
0.215996
-0.0612524
0.0982481
-0.25783
0.159582
-0.334005
0.381498
0.334293
-0.264159
0.329874
-0.0657148
-0.47152
0.23756
-0.123057
0.213178
-0.190435
0.122122
-0.315338
0.493716
-0.178378
-0.277904
0.201204
0.0767004
-0.0441624
0.484454
0.190731
-0.311484
-0.193699
0.112484
-0.395083
0.2826
-0.330882
0.500944
-0.170062
0.114454
0.0611489
-0.175603
-0.24822
-0.112537
-0.28525
0.397733
-0.00729565
-0.0253846
-0.183614
-0.267389
0.145075
0.280816
-0.425891
0.256886
-0.394154
0.137268
0.231269
0.162715
-0.419757
0.291345
0.128412
0.540218
-0.211865
-0.328353
-0.490252
0.187604
0.302648
0.0922049
-0.0722526
0.455568
-0.132011
-0.486709
0.107269
-0.31198
0.494339
-0.182359
-0.421644
0.30065
0.162439
0.143531
-0.214549
0.0710177
-0.12464
0.264892
0.0462648
0.134786
0.205064
-0.33985
0.331586
-0.106688
-0.00149855
-0.205336
0.329147
-0.476886
0.147739
-0.487908
0.305665
0.182243
0.123389
-0.06512
-0.259212
-0.129734
0.388945
-0.132146
-0.440144
0.156933
0.28321
-0.46355
0.137946
-0.536921
0.30414
0.232781
0.111003
-0.462268
0.522833
-0.193685
-0.449288
0.229228
0.22006
0.372395
-0.188283
-0.184112
-0.537278
0.240953
0.296326
-0.139542
0.184718
-0.461044
0.338081
0.126691
-0.464771
0.44855
0.290735
0.163652
-0.454388
-0.0724619
0.14092
-0.0684578
-0.313837
-0.223441
0.0750241
-0.159971
0.0849465
0.203743
-0.495876
-0.183819
-0.00149846
-0.382687
0.384186
-0.0591892
-0.0683443
0.103269
-0.137705
-0.261305
0.39901
0.385763
0.0540981
0.138088
-0.064174
-0.125425
0.444664
-0.319239
-0.109574
-0.0928043
0.202378
0.0977681
-0.164777
0.067009
0.0161574
-0.384111
0.367954
-0.142168
-0.2473
0.389468
0.140629
-0.0880774
-0.0525516
-0.433588
0.308163
0.301721
-0.24651
-0.0552102
0.457747
0.0394637
-0.49721
0.162962
-0.0846504
-0.0783114
0.401281
0.0320657
-0.433347
-0.106185
0.174896
-0.0687109
0.487791
0.00183238
-0.489623
-0.307304
-0.229617
0.00556927
-0.418222
0.412652
-0.0832654
-0.293199
0.376465
-0.270619
0.376613
-0.105994
0.328211
-0.0264903
0.369227
-0.250304
-0.118924
0.302806
0.00166657
-0.107852
0.151846
-0.0540778
-0.197937
-0.223714
0.421651
0.181002
-0.48967
0.308668
0.0884478
-0.0658902
0.276043
-0.459657
0.153981
0.222922
-0.401379
-0.300409
-0.236229
0.18923
-0.147388
-0.130516
-0.438136
0.35487
-0.0868479
-0.0653506
-0.114565
0.251888
-0.137322
-0.483541
0.207776
0.275765
0.0605045
0.248776
-0.30928
0.489446
-0.0810977
-0.408348
-0.121217
0.288623
-0.167405
-0.146916
-0.293228
-0.395966
0.416545
-0.23376
0.415918
0.160958
-0.107142
0.117728
0.361574
-0.479302
-0.298327
-0.189581
0.125787
-0.443001
0.317214
-0.0887661
-0.284349
0.373116
0.416634
0.0728119
-0.172573
0.308538
0.0799652
-0.18075
0.100785
0.344594
0.00256993
-0.347164
0.481255
-0.300254
0.203218
0.358035
0.0432462
0.32034
0.107246
-0.427586
0.0636273
0.087916
-0.151543
0.0641503
0.0811396
0.35032
-0.490912
0.140592
0.122211
0.11606
-0.238272
0.13315
-0.0679659
-0.0959679
-0.479334
0.3228
0.156534
0.317323
-0.520173
0.134883
-0.382184
-0.489591
0.175964
0.313627
0.276787
-0.105068
-0.449672
0.302756
0.441124
-0.315337
0.270748
0.174177
0.107521
-0.430123
0.0707672
-0.212572
0.141804
0.0838663
0.0790955
0.146684
0.378505
0.0153475
-0.015756
0.353322
-0.475345
0.23679
0.109662
-0.254419
0.095708
0.158711
-0.143246
0.324679
-0.181432
0.105703
-0.0747917
-0.118022
-0.136397
-0.10282
0.104486
-0.199618
0.356283
-0.119493
-0.0532437
-0.0707462
0.0140279
-0.0793451
0.168921
0.159481
-0.302143
-0.542638
0.192404
0.350234
-0.48828
0.205343
0.282938
0.37563
-0.35388
0.436649
-0.500279
0.0636303
0.244779
0.124449
-0.0153247
0.102778
-0.46896
0.0361801
0.332908
-0.334407
-0.386125
0.262804
0.123321
-0.194387
-0.122022
0.316408
-0.238322
0.153241
0.0850817
-0.154175
-0.0922594
0.246434
-0.133557
0.177385
-0.276023
0.0986378
0.317595
-0.201664
-0.115931
-0.363852
0.169954
0.193898
-0.197654
-0.292598
-0.255264
-0.00889544
0.143801
0.322602
-0.0793785
0.396928
-0.0543955
0.39899
0.296544
0.159024
-0.298427
0.483351
-0.184924
0.3782
-0.0622265
0.342385
-0.337468
0.515413
-0.177946
-0.5074
0.169932
0.257801
-0.138092
-0.119709
0.40374
-0.453161
0.0494216
-0.188145
0.400761
-0.110026
0.384343
0.0193965
-0.0801382
0.537885
-0.257987
0.39287
-0.038877
-0.0350513
0.0739283
-0.364227
-0.116781
-0.292567
-0.107939
0.400506
-0.480414
0.27957
0.200844
-0.378433
0.208218
0.170215
-0.11574
0.199221
-0.0834811
0.243944
-0.469438
0.333662
0.135776
-0.133219
-0.0847875
0.218006
0.112187
0.278936
-0.391123
0.0655743
0.254255
-0.319829
0.142149
0.296207
-0.438357
0.284431
-0.0927883
-0.339346
-0.101766
0.441112
0.0375369
-0.248965
-0.267233
0.426789
-0.159556
-0.539635
0.380008
0.159627
0.149633
0.203014
-0.352647
0.308416
-0.119543
0.525023
-0.334789
-0.190234
-0.328448
0.303318
-0.320072
0.215518
0.104554
0.0789251
0.430655
-0.273822
-0.156832
-0.197777
0.261116
-0.102011
-0.25028
-0.233262
-0.183448
-0.194985
0.0872968
-0.0610456
-0.0737136
0.271924
-0.145252
-0.282134
0.427387
-0.0875437
0.156422
-0.068878
0.545544
-0.336674
-0.208871
-0.0457734
0.153525
-0.107751
-0.303032
-0.227692
0.0619711
-0.190561
-0.173291
0.312523
-0.246948
-0.106931
0.284316
0.249419
0.296125
0.242659
-0.394391
0.151732
-0.175283
0.00423614
-0.418784
0.160798
-0.0662484
-0.124186
0.441395
-0.466112
0.0247174
0.29409
-0.258482
-0.0356085
0.00456242
-0.151625
-0.141657
-0.096665
-0.433127
0.438696
0.445918
-0.282572
-0.359385
0.0661467
0.0463064
0.114651
0.0773408
-0.36169
0.424679
-0.306951
0.252856
0.177799
-0.122389
0.247201
0.129412
-0.192044
0.125796
-0.348083
0.48957
-0.141487
0.386617
-0.139417
-0.126237
-0.0794815
0.0465467
0.261887
-0.133737
0.485438
0.333296
0.116636
-0.449931
-0.281581
-0.19058
0.185712
-0.105746
0.396434
0.073545
-0.121121
-0.0950083
0.216129
-0.147329
-0.108423
0.291156
-0.244609
-0.341007
0.201986
0.139022
-0.468367
0.293754
0.174613
-0.0541272
0.126647
-0.151666
-0.32522
-0.148697
0.445242
-0.236973
0.392578
-0.149919
0.22116
-0.238358
0.0171973
-0.0894416
-0.303192
0.392634
-0.378206
0.288764
0.114607
-0.355588
0.240981
-0.415453
0.217516
0.0216319
0.0704138
-0.0920457
0.00459307
0.0859412
-0.153765
0.198682
0.326341
0.03697
0.174419
-0.211388
0.153709
-0.0786854
-0.307777
-0.178204
0.100233
-0.152915
0.0526823
0.158894
-0.112588
0.0661302
-0.155839
0.0897092
0.187625
0.335208
0.254607
-0.396305
0.141698
0.0586557
0.255765
-0.153342
-0.459116
0.128234
0.183762
0.0934436
-0.277205
0.081865
0.142713
-0.224578
-0.423788
0.278535
-0.0444846
-0.163074
0.207559
0.195586
-0.104676
-0.0909101
0.366173
-0.251567
0.256975
0.0371155
0.0765696
-0.298521
-0.141778
0.0713993
-0.162231
-0.131813
0.0690844
-0.252674
0.375345
-0.122671
-0.432492
0.165259
-0.300252
-0.149036
-0.496703
0.190252
0.306451
-0.444631
0.291504
0.153127
-0.0250271
0.0874172
-0.0623902
-0.309078
-0.519562
0.212495
0.307066
-0.0602447
0.146437
-0.0861923
-0.183438
0.0912815
0.0921569
0.364184
-0.251996
0.0522831
0.03483
-0.0871131
-0.181236
0.0894753
0.091761
-0.187278
0.224248
-0.418127
-0.0796505
0.4085
-0.232623
-0.258939
0.491562
-0.430695
0.136021
0.157289
-0.433717
0.276428
0.197954
-0.154106
-0.0438478
-0.163996
0.465636
-0.326803
-0.138833
0.398688
-0.493903
0.0952149
0.0849736
-0.145218
-0.285553
0.353872
-0.0683192
0.474079
-0.246688
-0.22739
-0.036934
0.137167
0.300843
0.460622
-0.0776078
-0.383014
-0.0963045
-0.0849318
0.128949
-0.339805
0.210855
0.0970596
0.0886521
-0.510295
0.234274
0.276021
0.179376
-0.51304
0.0825028
0.168051
-0.250554
-0.320516
0.128774
0.0691799
0.133575
0.124225
0.126616
0.319195
-0.445811
0.0936894
-0.0169657
-0.0767237
0.443836
-0.123496
-0.217114
0.0949818
0.122132
-0.103096
0.286858
0.504558
-0.193271
-0.311287
-0.0885876
0.170031
-0.0814437
0.133254
0.127861
-0.0840222
0.150152
-0.152579
-0.466549
0.375877
0.0906725
0.544715
-0.19201
0.0655908
0.065427
-0.304518
-0.175896
0.0678114
-0.1225
0.0546889
0.275429
-0.112215
-0.106332
0.246533
-0.1402
-0.0442246
-0.259367
0.431028
-0.247589
-0.0392915
0.286881
0.264497
0.162293
-0.453052
0.221771
-0.0638867
0.285047
-0.202149
-0.149049
0.00325259
-0.374784
0.105144
0.110853
0.412053
-0.275957
-0.136096
-0.272862
0.150537
0.122325
-0.276297
0.166404
0.109892
-0.34827
0.227125
0.121145
-0.370884
0.138788
0.232095
-0.268957
0.437821
-0.168864
-0.203363
-0.306932
0.428438
-0.146071
-0.282367
-0.330662
-0.136291
-0.233824
0.138497
-0.130524
-0.336025
0.165407
0.280511
0.245384
0.0995205
-0.344904
0.390192
-0.256194
-0.133999
-0.26142
0.45839
0.330697
-0.274396
-0.0563007
0.116547
0.158882
-0.327607
-0.121476
0.449084
0.0647205
-0.225535
0.160814
-0.0254036
0.0103203
0.0150833
-0.204911
-0.29001
0.494921
-0.470727
0.30212
0.168607
-0.0114839
0.0128738
-0.0821965
-0.271658
0.456377
0.439824
-0.299675
-0.140149
0.164391
-0.0805248
0.0929055
0.304702
0.123736
0.445143
0.00712057
-0.452264
0.332749
0.16159
-0.140631
-0.207639
-0.0813029
-0.0265962
0.400537
0.0392866
-0.418793
0.171204
-0.156446
0.420942
0.448246
-0.190649
-0.257597
0.179079
-0.477506
-0.0868609
0.201315
-0.54674
0.210208
0.336531
-0.325209
0.21411
0.111098
0.3151
0.128736
-0.14363
-0.0607821
0.204413
0.186134
0.262112
0.470601
-0.206119
-0.264482
-0.213506
0.435216
-0.22171
0.190534
-0.155793
-0.297259
0.0806152
0.094281
-0.471014
0.426852
0.123213
-0.41578
0.510548
-0.222079
-0.288469
0.277126
0.0892879
-0.366414
-0.297456
-0.225148
-0.174877
-0.0658445
0.240721
0.0585348
-0.128001
0.069466
0.165927
0.0720626
0.446468
-0.131368
0.320638
-0.186149
0.266103
0.124089
-0.161743
0.0656262
-0.10129
0.467904
-0.130761
-0.35272
0.483481
0.0877977
0.165101
0.333674
-0.0455194
-0.153671
0.19919
-0.132721
0.193868
-0.0611474
0.458442
-0.125147
-0.0805056
-0.262384
0.34289
0.348803
-0.479564
0.122092
-0.456841
0.136442
0.320399
-0.213724
0.318145
-0.104421
0.173097
-0.0479906
-0.125106
0.150895
0.0594403
0.0737544
-0.133195
-0.337631
-0.410653
0.452435
-0.239139
0.496749
-0.313076
-0.183673
0.130321
0.111059
-0.162712
0.4462
-0.283488
-0.34561
0.256238
0.0893716
-0.473468
0.178304
0.295163
0.352989
-0.502258
-0.0257778
0.128298
-0.10252
0.0608407
-0.208177
0.147336
0.253469
-0.333975
0.294649
-0.168839
-0.12581
-0.239077
-0.161199
0.11552
-0.205664
-0.340311
-0.206429
-0.529367
0.261635
0.243142
-0.455712
0.130683
0.341336
0.143691
-0.485027
-0.0309635
0.0832466
0.0530863
0.27761
-0.290109
0.293235
-0.00312677
0.0821475
-0.20516
0.435804
0.000844935
-0.273049
0.438457
-0.238518
0.251258
0.292209
-0.28131
-0.00879862
-0.100566
-0.131404
0.23197
0.119816
0.202811
-0.243973
0.151944
0.021153
0.404356
-0.173416
-0.23094
-0.305455
-0.137877
0.0846334
-0.0746115
0.0148342
0.0597773
-0.55168
0.220894
0.330787
-0.0753945
0.425715
0.133117
0.172007
-0.173506
0.443967
-0.298892
-0.178138
-0.13206
0.310198
0.249486
0.351225
-0.413451
0.150998
0.267245
0.106951
0.249331
0.110006
0.210431
-0.320437
0.103446
-0.374044
0.270598
0.367579
-0.264133
-0.0868132
0.354938
0.187127
0.0462239
-0.190598
-0.0879323
0.365058
-0.0167434
0.188822
-0.172079
0.130835
-0.210311
0.0695119
0.140799
0.117675
-0.0498635
-0.0686568
0.189524
0.0889448
0.477917
-0.354949
0.213047
-0.130899
-0.25879
0.229432
-0.086393
0.14721
-0.0608172
0.229385
0.115652
0.294906
-0.049522
-0.255076
-0.296605
-0.127763
-0.0778917
0.205655
-0.314763
0.0512313
0.263532
-0.0560863
0.0670334
-0.285028
0.217995
-0.00150444
0.338443
-0.298029
0.311933
-0.521617
0.208332
0.313285
-0.202961
0.33191
-0.00230444
0.0959939
-0.423699
0.273942
0.149758
0.0147046
-0.0981961
-0.0745229
-0.0854477
0.216019
-0.430876
-0.259282
0.14126
-0.380966
-0.0104281
0.391394
-0.405391
0.178681
0.22671
-0.422687
0.169525
0.253162
0.253187
0.151169
0.240226
0.222128
-0.091807
-0.0543147
0.138039
-0.168394
-0.0894365
-0.087793
0.0627659
0.271636
0.115622
-0.387258
-0.124783
0.0597424
0.0650407
0.240643
-0.180139
0.103334
-0.209571
0.163884
0.045687
-0.448169
0.211713
0.236456
-0.0935055
0.198649
0.0971851
-0.218306
-0.280306
-0.0344566
-0.389551
0.176044
-0.167221
-0.103497
0.439276
-0.335779
0.164669
0.12998
-0.199588
0.0841272
0.0785137
0.345
0.204838
-0.549838
-0.125002
-0.278681
0.403683
0.0361266
0.328057
-0.120322
0.495865
-0.201966
-0.293899
0.0671214
0.0613406
-0.232572
0.299606
-0.0142991
0.0159636
-0.00166446
-0.380298
-0.0594806
-0.194456
0.0333201
0.161136
0.463808
-0.181946
-0.188938
-0.364354
0.522544
0.479727
-0.34077
-0.138957
0.243464
-0.171579
-0.0718845
-0.0595629
-0.19243
0.190785
0.283294
0.372384
-0.294389
-0.0779946
-0.518625
0.354039
0.164585
-0.205019
-0.248191
0.0940164
-0.31392
0.501525
-0.443799
0.104452
-0.231259
0.366184
-0.134925
0.20543
0.358629
0.121097
0.044623
-0.423856
0.379233
-0.0745112
0.137304
-0.0627932
0.0360243
-0.0749013
-0.0938908
0.182501
-0.0886101
0.361794
-0.442892
-0.122725
0.064269
0.0584564
-0.119141
-0.104333
-0.106791
0.222311
-0.414081
0.276156
0.137925
-0.0115538
-0.0138499
0.148577
-0.278297
-0.1723
-0.226666
0.398967
0.278453
-0.401436
0.122983
-0.0750069
0.126682
-0.0516753
0.277091
-0.402093
-0.0377407
-0.0368708
0.151941
-0.067814
-0.270303
-0.269332
-0.303746
0.170368
0.133378
-0.194114
0.102666
0.0914478
-0.0671303
-0.124914
0.487243
-0.342391
-0.144852
-0.572409
0.317333
-0.304184
0.0888767
-0.195214
-0.133615
0.0930885
-0.181444
0.0883557
0.182163
-0.30338
0.479433
-0.195968
-0.283464
-0.299217
0.128938
0.170279
0.437989
0.0180144
-0.456004
0.0904866
-0.244438
0.153952
0.0740341
0.243561
-0.0982604
0.176133
0.265127
0.227644
-0.492771
-0.116225
-0.370652
0.181461
0.189191
-0.328941
-0.125292
0.454233
-0.103223
-0.0775277
-0.487121
0.33981
0.147311
0.250809
-0.424989
0.54663
-0.281503
0.172438
-0.189182
0.0720536
0.30033
-0.483565
0.0125512
-0.196632
0.129501
-0.248016
-0.267762
-0.180407
-0.164335
-0.176673
-0.340212
0.501376
-0.161165
0.147031
-0.150949
-0.20438
-0.122676
0.327056
0.0816967
-0.00538483
0.39362
-0.139013
-0.0337947
-0.208994
0.323338
0.157917
-0.223665
-0.101543
-0.0761762
0.146952
-0.0707758
-0.321151
-0.300399
0.0744019
-0.217987
0.143585
-0.317401
0.488932
-0.17153
0.432773
0.208443
-0.164415
0.0364668
-0.417433
0.161678
0.0940866
0.0616587
-0.129929
0.0682708
-0.329513
-0.129603
0.366816
-0.261319
-0.105496
0.259909
0.135868
-0.0632431
0.0561467
0.00709642
0.481223
-0.139887
0.281205
0.130847
-0.133503
-0.145591
0.486332
-0.0214133
-0.303542
-0.116215
-0.300424
0.132051
0.168373
0.0388783
0.146646
-0.185524
-0.264181
-0.132123
0.476026
-0.330804
-0.145222
-0.489236
0.190329
0.298906
-0.264395
0.0331362
0.169571
0.109985
-0.447431
0.232581
-0.372315
0.139734
0.209454
0.122132
0.181098
0.315651
0.285481
-0.455512
0.170031
-0.18915
0.0891645
0.0514645
-0.277531
0.393095
-0.115564
0.319755
-0.154581
-0.109506
-0.217478
0.133949
0.0835288
0.145617
0.174138
-0.143653
-0.345938
-0.0930548
-0.202964
-0.242364
0.445328
0.279004
-0.389086
0.110082
0.333433
0.142593
0.318439
-0.147502
-0.170937
0.148811
0.0831826
0.196402
-0.00960811
-0.186794
-0.0320073
0.409362
0.30591
0.060906
0.0269831
0.0280196
-0.0550028
-0.0714017
-0.0675199
0.138922
-0.0946711
0.373676
-0.0569094
0.164175
-0.104996
0.123628
0.2728
-0.396428
-0.13817
-0.0161447
-0.327609
0.481844
-0.154235
-0.210813
0.0775942
0.14277
-0.0811111
-0.0349946
-0.140288
0.299153
-0.03903
-0.260123
0.289985
-0.422322
0.132337
0.200349
-0.0039475
-0.476071
0.204413
0.157763
0.126668
0.321929
-0.172296
-0.303291
0.429197
-0.125907
0.288769
0.257861
0.324897
-0.0801182
-0.338394
0.20915
0.129244
0.375947
-0.491371
0.126803
0.336126
-0.462929
0.424165
0.0244261
-0.448591
0.173044
0.31886
0.138353
0.340191
-0.478544
-0.328093
-0.330157
0.399921
-0.118715
-0.0941098
0.470329
-0.319829
-0.169841
0.290299
0.180302
-0.103577
0.467511
-0.157806
0.390387
0.279638
-0.313433
-0.143647
0.269978
-0.126331
-0.22749
0.319454
-0.0919639
0.300764
-0.327254
0.127171
-0.0709278
-0.0562427
0.474943
-0.203059
-0.271884
-0.412739
0.209775
-0.162687
0.36775
-0.489207
0.0296939
0.249724
-0.171089
-0.0786352
0.103837
-0.298224
-0.143696
0.225561
0.324443
-0.488158
0.163715
0.0646919
0.0624786
0.104029
0.434808
-0.122205
-0.175074
0.184081
-0.0090066
0.508945
-0.184503
-0.533603
0.219453
0.31415
-0.241794
0.324069
-0.476672
0.152603
0.325028
0.108723
-0.433751
-0.126771
-0.319107
0.464346
-0.145239
0.172761
-0.0796729
-0.357408
0.234272
0.123136
-0.45899
0.155699
0.387774
0.0573697
-0.0131066
0.439958
0.468028
-0.0902636
0.462657
0.401734
-0.27575
-0.125984
0.00435567
-0.11486
0.110504
0.156322
-0.429371
0.317312
-0.0435221
-0.27379
-0.0598424
0.339413
-0.261876
0.41881
-0.2018
0.362818
-0.366445
0.127878
-0.435655
-0.300295
-0.233308
-0.482179
0.296985
0.185194
-0.489547
-0.0886905
0.18575
-0.317248
0.443939
-0.0725358
-0.110903
-0.179544
-0.206582
-0.458731
0.256555
0.202176
0.242867
-0.576409
0.333542
0.175207
0.299736
0.140745
-0.354896
0.074365
0.12084
-0.142171
-0.0993724
0.241544
0.199317
-0.160438
-0.0711257
0.157067
-0.195836
-0.262896
-0.335946
0.203885
-0.0780526
0.165969
-0.108847
0.187975
-0.241283
-0.2352
0.476483
0.285548
0.116187
-0.132585
0.160104
0.198937
0.119502
-0.198546
-0.0743157
0.282115
0.0351976
0.0328782
0.218064
-0.250942
-0.0979352
-0.142467
0.211979
0.188119
-0.517059
-0.0120573
-0.0616994
0.0737567
-0.309689
0.084885
-0.375647
0.052459
0.248305
0.31859
-0.145337
-0.0820854
0.227423
0.128251
0.253327
-0.381577
-0.093042
0.454836
0.442978
-0.335053
-0.304464
-0.145208
-0.292308
0.468587
-0.332583
-0.136003
0.083874
-0.170804
0.0869298
-0.0638081
-0.0589173
-0.318229
0.422498
-0.104269
-0.269793
0.398474
-0.128681
-0.199416
-0.138977
0.299411
0.169176
0.261284
0.0378689
0.267299
-0.327141
0.140519
0.0687798
-0.209299
-0.423778
0.105549
0.187657
0.30606
-0.308886
0.457143
-0.148257
0.0676462
-0.140372
0.0727262
-0.200256
-0.201928
-0.00764281
0.419234
0.058506
0.155155
-0.0659902
-0.232179
0.144937
0.0872421
-0.133332
-0.130862
0.0563507
0.0976319
-0.392295
0.294664
0.0425803
-0.175301
-0.164884
0.170912
-0.00602848
0.424611
-0.0155457
-0.00236902
0.0772604
-0.0748914
-0.169255
-0.310079
0.133169
0.200389
0.268388
0.0385118
0.320511
-0.359023
-0.0391615
0.307974
0.00234009
-0.156011
-0.116953
-0.261219
0.378173
-0.226718
0.354969
-0.129833
0.478636
0.502176
0.427646
-0.285496
-0.215024
0.00231343
-0.177387
-0.0591368
-0.0471647
0.106301
-0.0762503
0.225634
-0.129167
-0.0964672
-0.32775
-0.146359
0.474109
-0.45392
-0.0492997
0.109072
-0.0597724
0.051931
-0.122444
0.0705131
0.150189
-0.211211
0.0610216
0.307319
-0.519184
-0.297451
-0.0873371
-0.0599541
0.147291
0.425299
-0.505438
-0.178131
0.0847807
0.0933499
0.24822
-0.373594
0.125374
0.286694
0.179757
0.440239
-0.00375397
-0.475211
0.122491
-0.427338
0.151588
-0.159768
0.246377
-0.0866095
-0.0919466
-0.140232
-0.237556
-0.320522
0.558078
0.127253
0.385813
-0.365495
0.211804
0.153691
0.112052
0.113582
-0.139337
-0.0600171
0.199355
-0.316556
-0.20506
0.261779
-0.328343
-0.184241
0.0879363
-0.238352
0.0884311
0.149921
0.261061
-0.174737
-0.0863244
-0.241078
0.149132
-0.178173
0.084282
0.257602
-0.224724
-0.266498
0.236819
-0.465013
0.0625304
0.0551445
-0.00108296
-0.180164
0.110626
-0.106271
0.0799324
0.0737771
0.166259
-0.421297
0.479968
-0.183822
0.205281
0.310133
-0.0884846