/*--------------------------------*- C++ -*----------------------------------*\
| =========                 |                                                 |
| \\      /  F ield         | OpenFOAM: The Open Source CFD Toolbox           |
|  \\    /   O peration     | Version:  v2012                                 |
|   \\  /    A nd           | Website:  www.openfoam.com                      |
|    \\/     M anipulation  |                                                 |
\*---------------------------------------------------------------------------*/
FoamFile
{
    version     2.0;
    format      ascii;
    class       volVectorField;
    location    "400";
    object      U;
}
// * * * * * * * * * * * * * * * * * * * * * * * * * * * * * * * * * * * * * //

dimensions      [0 1 -1 0 0 0 0];


internalField   nonuniform List<vector> 
18540
(
(1.07208 0.00102515 1.06427e-20)
(1.02508 0.00256856 0)
(1.02388 0.00133924 -6.42694e-22)
(1.05722 -0.0259894 -3.84898e-21)
(1.04651 -0.00161242 0)
(1.02312 0.00077672 0)
(1.03553 -0.00574661 -4.38085e-23)
(0.876803 -0.0125264 -7.60128e-22)
(1.02231 -0.00019875 0)
(1.0515 -0.00723166 3.396e-21)
(1.05495 0.00152387 0)
(1.0603 -0.0270737 -7.43727e-21)
(1.07187 -0.03505 -2.18716e-20)
(0.676513 0.0493452 1.83383e-21)
(1.04603 -0.00268796 0)
(1.0222 -0.000194516 7.46395e-23)
(1.02133 -0.000579817 3.6294e-22)
(1.03148 -0.00319287 0)
(1.02151 -0.000438618 0)
(1.03521 -0.00582542 6.44996e-24)
(1.09546 -0.00746923 -6.49808e-21)
(1.02049 -8.92222e-07 3.34427e-23)
(1.02181 0.000116223 -3.14666e-23)
(1.05735 0.00719083 0)
(1.02172 -0.000191085 -3.66589e-23)
(1.04673 -0.00271504 0)
(1.04507 0.00977613 -1.06916e-21)
(0.23969 -0.0534049 1.75409e-20)
(1.06065 -0.0260575 1.26301e-22)
(0.676649 0.0547088 5.95953e-22)
(0.778372 -0.0504301 0)
(1.01883 -2.02824e-05 2.09121e-22)
(1.0342 -0.00735978 6.18108e-22)
(1.02084 0.0017263 -1.19701e-22)
(1.04686 -0.001145 4.54546e-21)
(1.02368 0.000511262 0)
(1.02627 -0.0289716 -1.21278e-22)
(1.0397 -0.00223308 6.80677e-21)
(1.02353 0.000851287 0)
(1.08073 -0.000145326 1.61728e-20)
(1.10053 0.0048649 0)
(1.02528 0.00311059 -1.14758e-23)
(1.03367 0.001767 0)
(1.03096 -0.00600135 0)
(1.02364 -0.00098096 0)
(1.02132 -8.43159e-05 2.33249e-22)
(1.02583 -0.0936125 -1.25345e-22)
(1.02274 0.00104992 0)
(1.02534 -0.0022765 0)
(1.05685 -0.0272968 -1.7736e-21)
(1.02258 -0.0268903 0)
(1.01958 -6.23623e-05 -6.08198e-23)
(1.02028 -9.39749e-05 0)
(1.10141 0.011323 -1.5775e-20)
(1.05375 -0.02547 -3.51204e-21)
(0.84933 -0.0452575 1.25781e-21)
(1.08198 0.000130597 -2.12059e-20)
(1.04134 -0.00722662 -2.65944e-21)
(1.07307 0.001259 -8.50735e-21)
(1.09365 -0.00768567 0)
(1.05144 0.0103425 -3.41495e-21)
(1.02612 -0.00201827 -4.23459e-22)
(1.02333 -0.00142487 -5.34264e-22)
(1.02057 -0.000294605 0)
(1.02152 -0.000445817 0)
(1.02161 -0.000116792 1.60486e-22)
(1.02268 -0.000327031 0)
(1.054 -0.0261614 0)
(1.05823 -0.0275411 0)
(1.02063 -0.000314205 0)
(1.02268 0.00104722 2.36657e-22)
(1.06001 -0.0261376 1.08132e-20)
(1.02123 0.0040807 1.50548e-22)
(1.02189 -0.000612699 0)
(1.02505 -0.00239599 4.24281e-22)
(0.838279 0.0494623 -2.32919e-22)
(1.06981 -0.0347181 -1.0038e-20)
(1.04575 -0.00316334 0)
(1.0226 0.000931674 3.60865e-22)
(0.850166 -0.0300693 -1.19565e-22)
(1.02365 -0.00103338 0)
(1.0354 -0.0034556 2.93231e-21)
(1.01918 3.11018e-05 0)
(1.0229 -0.00110277 -3.26749e-23)
(1.05553 0.00120839 -4.9677e-21)
(1.02268 0.000761314 0)
(1.09636 -0.0262029 5.19399e-21)
(1.02032 -2.39646e-05 -9.6687e-23)
(1.02775 -0.0052557 4.01968e-22)
(1.05719 -0.0274137 0)
(0.995661 0.0126619 -3.12123e-22)
(0.00784996 0.0230547 3.01722e-20)
(1.07198 -0.0317018 0)
(1.03767 0.006483 1.11703e-21)
(1.0211 -7.97693e-05 6.72352e-23)
(1.0253 -0.00175577 0)
(1.0983 -0.0272737 1.23579e-22)
(1.03059 -0.000763715 1.32509e-21)
(0.939179 -0.0185242 2.29776e-22)
(1.03546 -0.00528335 1.77481e-22)
(1.02104 -6.25576e-05 1.04875e-22)
(1.02507 -0.0130422 0)
(1.03575 -0.00518857 -1.89894e-22)
(1.02091 -3.0354e-05 0)
(1.02189 -0.0001136 2.83177e-22)
(1.02113 -7.05698e-05 0)
(1.03525 -0.00628276 2.77062e-21)
(1.03219 -0.0366254 -7.09904e-22)
(1.02927 -0.00731488 -1.56115e-22)
(1.02558 0.0035838 1.64019e-22)
(1.06585 0.0020402 7.98304e-21)
(1.02191 -0.000605092 -5.0742e-23)
(1.0276 -0.00509714 -3.75178e-22)
(1.0337 0.00145693 0)
(1.02106 -5.27318e-05 -1.08471e-22)
(1.02097 -4.5863e-05 0)
(1.02361 -0.00112063 9.50155e-23)
(1.03074 -0.00280879 1.02434e-21)
(1.0307 -0.00620513 -1.22233e-21)
(1.02383 0.00144057 -5.65704e-22)
(1.03035 -0.000601741 -3.96683e-23)
(-0.0138988 0.0259113 0)
(1.08562 -0.0428565 9.07979e-21)
(1.02619 -0.0016632 1.20592e-22)
(1.04554 -0.011557 -3.83608e-21)
(1.02386 -0.0128686 0)
(1.03492 -0.00634147 0)
(0.999206 0.0147484 -5.56587e-22)
(1.02141 -0.000431358 -5.71628e-23)
(1.05415 0.0143638 0)
(0.934333 -0.0650838 0)
(1.03092 -0.006234 1.38205e-21)
(1.02319 -0.00127492 0)
(1.08318 -0.0413014 -1.00626e-20)
(1.02121 6.45503e-05 -1.11076e-22)
(1.04701 -0.00220177 0)
(1.02353 -0.00034071 0)
(1.06538 0.00133231 -6.86283e-21)
(1.02312 -0.00126036 2.80527e-22)
(1.021 -3.60243e-05 0)
(1.02322 0.000817384 0)
(1.02316 -0.000394436 0)
(1.02552 0.00340324 1.28942e-22)
(1.05086 0.00986119 0)
(1.05679 -0.0268919 0)
(1.04454 -0.0217913 -3.14885e-21)
(1.05731 -0.0265829 1.19303e-20)
(0.844563 -0.0125313 0)
(1.02072 -7.8295e-05 2.22074e-22)
(1.02111 -0.000175151 0)
(1.07295 -0.00488363 3.27003e-20)
(1.02099 -0.00599415 0)
(1.02297 -0.00103174 0)
(1.03948 -0.00174831 -4.06533e-21)
(1.02299 -0.00114718 0)
(1.01901 2.50894e-05 0)
(1.05817 -0.0459693 0)
(1.02482 -0.00205598 6.86957e-23)
(1.02568 -0.00193844 -5.0831e-22)
(0.913846 -0.0524001 -6.51345e-22)
(1.06976 -0.039816 -4.64604e-21)
(0.939824 -0.0348548 1.77246e-20)
(1.04361 -0.02234 3.36066e-21)
(0.724793 0.00869091 3.18911e-21)
(1.03919 -0.0272992 -4.14381e-21)
(1.02469 -0.00202645 6.0169e-23)
(1.0332 -0.0109486 -1.04589e-21)
(1.02603 -0.00162152 1.4097e-21)
(1.02639 -0.00275529 0)
(1.04491 -0.0116848 3.60842e-21)
(1.02165 -0.013833 2.93166e-22)
(1.02272 0.000875763 0)
(1.02945 -0.00835406 -3.95599e-22)
(0.979681 -0.0625691 1.41125e-20)
(1.01865 0.0251799 -1.26035e-21)
(1.05434 -0.0452514 2.08974e-21)
(1.01863 -4.91211e-05 -2.89952e-23)
(0.0873018 0.0105593 -7.85398e-21)
(1.02287 -0.000147019 -6.73426e-22)
(1.02586 -0.00200419 4.09105e-22)
(0.937257 -0.0322143 2.15371e-22)
(1.02914 -0.00759954 8.43546e-23)
(1.0317 -0.00405344 -1.53231e-21)
(1.02053 -3.47227e-05 1.18226e-22)
(1.03596 -0.00458578 -1.51648e-21)
(1.03265 -0.0108394 -1.99922e-21)
(0.0961068 0.00606362 5.2011e-20)
(1.00891 -0.00983451 2.27397e-22)
(1.05766 -0.0276657 -2.16613e-22)
(1.10232 -0.00084812 -1.63156e-20)
(1.02733 -0.0101138 -3.45094e-22)
(0.72302 0.0211959 -6.21015e-23)
(1.03904 0.000537764 -3.97388e-21)
(0.884974 -0.0243042 -4.30534e-22)
(1.04284 -0.00672259 -1.85618e-21)
(1.02619 -0.00196776 -5.42988e-22)
(1.06581 -0.0435801 -8.53814e-21)
(0.931767 -0.00734116 1.04592e-20)
(1.0237 0.000182678 2.56695e-22)
(1.03849 -0.0265076 5.00404e-21)
(1.03356 -0.00323651 2.23583e-21)
(0.0658632 0.00839423 -4.90308e-20)
(1.02369 -0.000814623 8.71793e-23)
(1.05215 0.0101161 0)
(1.02175 5.97262e-05 -7.17398e-25)
(1.02236 -0.000248313 -1.27679e-23)
(1.02815 0.0330545 -4.00494e-22)
(1.02244 -0.00761301 -1.7982e-22)
(1.03214 0.0425546 0)
(0.78663 0.0446184 -2.7501e-21)
(1.02594 0.000787423 -6.26198e-22)
(1.03565 -0.004726 2.79688e-21)
(1.0388 0.00174473 4.25688e-21)
(1.02513 -0.00201686 0)
(1.11933 -0.000917588 -2.53206e-22)
(0.756978 -0.0408772 -3.8756e-21)
(1.02347 0.00108123 -7.15758e-24)
(1.02245 0.00053033 0)
(1.0614 -0.0267717 7.45162e-21)
(0.9042 -0.0423231 0)
(1.0566 -0.0210289 0)
(1.02351 0.00138486 0)
(0.840492 -0.0113347 6.13708e-23)
(1.03218 -0.00815428 -3.10452e-23)
(1.04861 -0.00599144 6.9327e-21)
(1.03101 -0.00288423 0)
(1.01985 0.0313808 -6.39083e-22)
(1.0764 -0.0266304 -1.67472e-21)
(1.04927 -0.0354337 3.86326e-21)
(1.02836 -0.00722853 7.25099e-23)
(1.02123 0.00250149 4.02428e-22)
(1.04603 0.00876638 4.58303e-21)
(0.646671 -0.0829591 0)
(1.12079 -0.00271704 1.08013e-20)
(1.07318 -0.0305832 0)
(1.10084 0.00653608 -3.42179e-22)
(1.10321 -0.00381187 -7.89032e-21)
(1.05753 0.00531819 5.62622e-21)
(1.02343 0.00128018 0)
(1.03736 0.0067572 1.20326e-21)
(1.0214 -0.0013429 3.02039e-22)
(1.06514 -0.018005 0)
(1.05946 0.0140765 0)
(1.02086 -7.52263e-05 1.64288e-22)
(1.02152 -0.00010299 -2.39591e-22)
(1.02329 -0.00138947 3.41492e-22)
(1.0341 -0.0061366 -2.18687e-23)
(1.04227 -0.00863583 -2.99372e-21)
(1.05943 0.0133194 6.37634e-21)
(1.02252 -0.00578638 -1.54664e-22)
(1.03119 -0.00600806 0)
(0.838863 0.0431007 3.79537e-21)
(1.02311 -0.00123725 -1.89596e-23)
(1.02422 0.00046818 -1.25383e-21)
(0.970062 0.0520053 3.24814e-21)
(1.05682 -0.0215637 0)
(1.06055 -0.0432287 4.78458e-21)
(0.98193 -0.0200239 -3.1999e-22)
(1.05708 -0.0276773 8.82714e-22)
(0.888522 -0.0481397 0)
(0.998434 0.0524941 0)
(0.947798 -0.0333245 -3.67946e-23)
(0.926029 0.0590718 0)
(1.02452 0.00075973 1.35873e-22)
(1.02505 -0.0020384 -1.08863e-22)
(1.0273 -0.0864518 -5.83641e-23)
(1.02361 -0.00131002 -2.16171e-22)
(1.03492 -0.00678892 0)
(0.960929 -0.00722006 1.10228e-20)
(1.03188 0.00313358 0)
(1.02134 5.96199e-05 -2.04004e-22)
(1.02183 -0.00680537 0)
(1.02143 -1.75776e-05 1.01329e-22)
(1.02198 -0.000132656 -3.05423e-22)
(1.0207 -0.000330812 0)
(1.02369 -0.00138969 2.26104e-22)
(1.03459 -0.00686279 -2.27286e-21)
(1.10505 0.00339073 -1.71336e-20)
(1.0158 0.0449257 0)
(1.0222 -0.00203075 3.32563e-22)
(1.02076 -6.46179e-05 -2.20519e-22)
(1.0338 -0.0030428 2.38377e-21)
(1.09587 -0.011609 0)
(1.0258 0.00056924 5.55146e-22)
(1.03305 -0.00603255 0)
(0.319678 -0.0335623 -3.40269e-20)
(1.03165 -0.00337658 0)
(1.03362 -0.00644848 -5.09404e-22)
(1.02308 -0.014208 2.06014e-22)
(0.991812 -0.0720303 -7.94107e-21)
(1.02495 -0.00203177 8.03598e-23)
(1.02985 -0.00770592 1.09813e-21)
(1.07781 -0.0275378 0)
(1.03351 -0.0113927 -9.69013e-22)
(1.02609 0.00478413 -1.48022e-21)
(1.03331 0.00133458 0)
(1.02052 0.00330619 -4.74234e-22)
(1.0229 0.000289642 0)
(1.0577 0.00595533 -6.14719e-21)
(1.06498 -0.0241788 -7.50385e-21)
(1.02144 -0.000173482 0)
(1.02211 -0.00501421 0)
(1.02583 0.000485865 7.11071e-22)
(1.02579 -0.0720042 3.55649e-21)
(1.10376 -0.0019585 2.51721e-20)
(1.02408 0.000441267 0)
(1.03433 -0.036466 -2.85006e-21)
(1.02262 0.00113148 -2.07943e-22)
(1.00449 0.0106829 1.84452e-21)
(1.02136 -0.000168433 0)
(1.03498 -0.00337792 -2.60279e-21)
(1.04905 -0.00544827 -1.34377e-21)
(1.02096 -7.7113e-05 -2.14571e-22)
(1.02192 -0.000294287 1.98714e-23)
(1.10112 0.00973301 0)
(1.02034 0.00127367 -1.84313e-22)
(1.02058 0.00101748 3.98292e-23)
(1.02999 -0.00850184 9.99627e-22)
(1.02154 -0.000258082 4.61378e-23)
(1.04791 -0.0361272 0)
(1.02471 0.00345079 0)
(1.04463 0.00939513 -2.95993e-21)
(1.02153 -0.000141453 -8.8341e-23)
(1.0217 7.84936e-05 -1.42679e-22)
(1.02936 -0.07401 -2.2507e-21)
(1.02059 -7.45015e-05 0)
(1.02368 -0.00077807 -2.05367e-22)
(1.04743 -0.0233241 2.2792e-21)
(1.03266 -0.00275073 -2.29313e-21)
(1.02396 0.000770299 -2.93654e-22)
(1.04591 0.00227705 0)
(1.02175 8.35637e-05 0)
(1.02522 -0.00321334 0)
(1.02598 0.000674224 -6.74078e-22)
(1.0223 -0.000244014 1.3002e-22)
(1.04467 -0.0126544 0)
(1.04472 0.0275774 -1.67432e-22)
(1.02218 -0.000672355 -6.41461e-23)
(1.04651 -0.0217585 5.19794e-21)
(1.03471 -0.00362897 0)
(1.03021 -0.00875734 0)
(1.02658 -0.00162187 -1.29802e-21)
(1.04538 0.00256275 0)
(1.02606 -0.00143829 2.4885e-22)
(1.03455 -0.00728974 7.23527e-22)
(0.986766 -0.00280586 -5.31034e-21)
(1.03248 -0.0103254 1.66019e-21)
(0.838701 0.0272008 8.24129e-22)
(1.01383 -1.18084e-05 0)
(1.03331 -0.0065534 2.49519e-21)
(1.0206 -0.000221462 0)
(1.02171 0.000124762 0)
(1.05085 -0.00704456 -3.40164e-21)
(1.0072 0.0118921 -1.7778e-21)
(1.02088 -0.00672983 0)
(0.878355 -0.0764237 7.42479e-23)
(1.03918 0.000951638 0)
(1.0221 -0.000650391 1.48359e-22)
(1.02558 -0.0327474 7.55711e-23)
(1.03332 0.00103169 2.28524e-21)
(1.02387 -0.000213885 -7.89641e-22)
(1.04498 -0.0129816 0)
(1.03475 -0.0279661 -2.91629e-21)
(1.10457 -0.00506321 -1.69168e-20)
(1.04676 -0.0209726 -5.52943e-21)
(1.02726 -0.00406917 0)
(1.04245 0.00140616 -1.86683e-21)
(1.03149 -0.00277215 7.48591e-22)
(1.02163 5.68066e-06 0)
(1.03717 -0.0342233 0)
(1.02515 -0.00312846 0)
(1.01212 -0.0095357 -2.05751e-22)
(1.02568 -0.00180747 0)
(0.965762 -0.0369462 0)
(1.06045 -0.0269747 8.6522e-21)
(0.998784 -0.0111785 -5.88508e-22)
(1.04571 0.00965408 1.4281e-21)
(1.04206 -0.0200275 -1.78768e-21)
(1.05348 0.0138681 -1.03306e-21)
(1.02709 -0.00348913 0)
(0.649077 -0.0817802 0)
(1.02305 -0.000279258 -1.07391e-22)
(1.05963 0.00424304 -8.8657e-21)
(1.03061 -0.00255648 6.49633e-22)
(1.02648 -0.0153483 0)
(1.05531 0.000443786 9.34654e-21)
(1.02584 -0.00266849 0)
(1.04223 0.00100281 1.5105e-21)
(1.06654 -0.0401321 5.29471e-21)
(1.10087 -0.0309951 -1.51648e-20)
(1.02563 -0.00255358 -1.73616e-22)
(1.12397 0.0144029 -5.63197e-20)
(1.02289 -0.000950759 5.52237e-23)
(1.04106 -0.0706717 2.76476e-21)
(0.960302 -0.0753667 0)
(1.09455 -0.0278394 -1.70044e-20)
(1.02119 -8.82618e-05 0)
(1.03146 -0.00577246 3.06112e-21)
(0.980913 0.00056878 6.30544e-21)
(1.03192 -0.00397111 0)
(1.02153 8.41337e-05 -1.59584e-22)
(0.972542 -0.0495326 -1.64582e-22)
(1.02892 -0.0161748 -8.39949e-22)
(1.02684 -0.00825897 4.06408e-22)
(1.02171 -0.000214629 1.12208e-23)
(1.04144 -0.00789784 2.39218e-21)
(1.02663 -0.00326615 0)
(1.07292 -0.0334977 1.25417e-20)
(1.01913 -0.000115181 -2.75697e-22)
(1.02337 -0.0026461 2.46145e-22)
(0.98126 0.00218251 4.14516e-22)
(1.0217 -0.000536403 0)
(1.0268 -0.00338107 -1.12331e-22)
(1.02643 0.00486432 -8.35456e-22)
(1.02796 -0.00699996 -5.29832e-22)
(1.0133 -0.00641812 -1.80395e-22)
(1.02151 -0.000553851 1.47024e-22)
(1.0272 -0.0160669 -1.89766e-21)
(1.02621 -0.0026671 3.23926e-22)
(1.00294 -0.0150602 6.63438e-22)
(1.02116 -0.0403569 0)
(1.02735 -0.000203553 0)
(1.02143 8.25131e-05 -3.40876e-25)
(1.02453 0.00202583 -1.55807e-22)
(1.03412 -0.0269486 4.27828e-21)
(1.03867 -0.00136985 0)
(1.02127 -5.02212e-05 -1.30686e-22)
(1.02512 -0.00191993 0)
(1.02435 0.0142048 -6.33226e-22)
(1.02608 -0.00182702 0)
(1.0489 -0.00664131 0)
(1.05019 0.0101828 0)
(1.02135 8.82114e-05 1.32344e-22)
(1.04031 -0.00130824 2.6466e-21)
(1.02173 -0.000138125 1.03044e-22)
(1.02146 8.63964e-05 -6.53279e-23)
(1.02142 -0.00044175 -5.54559e-23)
(1.06424 0.00962808 0)
(1.0236 -0.000729985 0)
(1.05641 -0.00494381 1.0579e-20)
(1.00595 -0.0281046 0)
(1.07045 0.0115434 -3.93385e-22)
(0.374332 -0.0345087 4.77204e-20)
(1.02387 -0.00286023 4.35212e-22)
(1.02179 -0.000780556 -7.6096e-23)
(1.02511 -0.00202162 1.0951e-22)
(1.02726 -0.000306526 -8.06738e-22)
(0.965781 0.0653817 -6.94714e-23)
(1.02175 9.21448e-05 6.36785e-23)
(1.02122 -0.000422118 -1.51403e-22)
(1.12214 0.0141418 0)
(1.0228 -0.000917718 4.47028e-23)
(1.02129 6.55004e-05 -6.7806e-23)
(1.02538 0.0017011 0)
(1.02149 -2.67753e-05 0)
(1.02514 0.00215958 4.68875e-22)
(0.685288 0.037978 0)
(1.02288 -0.000992106 5.18643e-23)
(1.02794 -0.00664547 5.29764e-22)
(1.02489 0.00557842 -5.00934e-22)
(1.03033 -0.00249625 -9.79706e-22)
(1.03924 0.00189305 0)
(1.0121 0.0402817 1.12026e-21)
(1.02171 5.74176e-05 -1.99942e-22)
(0.828017 -0.0368669 0)
(1.02975 0.00562303 1.1366e-22)
(1.02503 -0.00202462 -7.87292e-23)
(0.987908 0.0496232 1.27016e-22)
(1.02178 -0.000557171 -2.93532e-23)
(0.995445 -0.00220764 2.00811e-22)
(1.02233 -0.000525835 -1.73709e-22)
(1.02926 0.0284315 -6.88714e-22)
(1.02559 -0.00111916 -8.86061e-22)
(1.02816 0.00698089 9.98881e-22)
(1.02449 -7.87711e-05 -3.70337e-23)
(1.02507 -0.00202549 0)
(0.951347 -0.0200767 2.91238e-22)
(1.02334 0.000859945 8.14403e-24)
(1.02182 -0.000233167 -2.05807e-22)
(1.02228 -0.000236264 -5.63041e-23)
(1.08912 -0.0272486 0)
(1.02426 -0.000114167 3.50038e-23)
(1.08218 -0.019862 1.58348e-20)
(1.01593 -0.00602087 1.85052e-22)
(1.02621 -0.00178897 4.93866e-22)
(1.01352 -0.000122406 -1.43096e-22)
(1.10292 -0.0296048 -1.79271e-20)
(1.05702 0.00648244 1.25461e-22)
(0.928464 0.0567599 0)
(1.02023 -0.000140074 3.30675e-22)
(1.09264 -0.0269912 0)
(1.02203 -0.000181101 5.42754e-25)
(1.05729 -0.028313 3.54193e-21)
(1.07285 -0.00927352 -2.97372e-21)
(1.07531 -0.0300934 9.69682e-22)
(1.02899 0.00320304 -5.43793e-22)
(1.08256 -0.0111783 0)
(1.02189 -0.000175908 8.75911e-23)
(1.03282 -0.00224112 2.35118e-21)
(1.02196 0.000526743 -1.05637e-23)
(1.07034 -0.0400273 -1.10847e-20)
(1.02291 0.000387747 -3.52196e-22)
(1.04832 -0.0404992 -3.5367e-21)
(1.02127 3.79285e-05 -1.30033e-23)
(0.996451 -0.00765679 2.75573e-22)
(1.02092 -3.90993e-05 1.33455e-22)
(1.0217 -0.000569884 -1.02745e-22)
(1.02667 -0.00378497 4.14325e-22)
(1.03251 -0.00226349 -1.94217e-21)
(1.02811 0.00640305 -1.08683e-21)
(1.0228 0.000118478 0)
(1.04125 -0.0420077 -1.02666e-20)
(1.07185 -0.00903014 0)
(1.00201 -0.0397504 -3.16975e-22)
(1.02673 -0.000354791 1.01771e-22)
(1.11725 -0.000932941 -1.4626e-20)
(1.02401 -0.00248553 -2.14506e-22)
(1.02713 -0.00406126 -3.70662e-22)
(1.02866 0.00476552 0)
(1.02149 -1.61585e-05 -6.09951e-23)
(1.02598 -0.00147127 2.89241e-22)
(1.04056 -0.00082082 -6.85353e-22)
(1.02161 -0.000559912 0)
(0.939525 -0.0659835 0)
(1.03809 -0.0379427 -1.07438e-21)
(0.985832 -0.0500217 0)
(1.02805 -0.00380233 -6.8495e-22)
(1.02267 -0.000775293 0)
(1.03073 -0.00682862 0)
(0.986451 0.0453742 3.07337e-22)
(1.02099 -1.47166e-05 -1.28932e-22)
(0.863288 -0.014246 3.14442e-22)
(1.05582 -6.50179e-05 0)
(1.02124 0.000365313 8.05091e-24)
(1.02168 4.54666e-05 -2.9092e-22)
(1.02159 -0.000171384 0)
(1.02685 -0.00405642 -1.59717e-22)
(1.02263 -0.000755247 -6.19072e-23)
(1.03367 -0.00355949 -2.20281e-21)
(1.06247 -0.0166476 -9.64739e-23)
(1.01437 0.00667608 0)
(1.02732 -0.00033097 0)
(0.879066 -0.038571 1.95876e-22)
(1.02288 0.000400218 8.58793e-22)
(1.02337 -0.00156891 4.72712e-23)
(1.05835 -0.0428874 -8.48176e-21)
(1.08832 0.0148655 0)
(1.02428 -0.000294043 -9.05247e-22)
(0.977488 -0.0124693 3.11985e-21)
(1.1027 0.00882122 0)
(1.04608 0.00928879 0)
(1.02206 0.000105145 1.58603e-22)
(0.990347 -0.0185127 0)
(1.02813 0.00256291 4.54459e-22)
(1.02152 0.000144703 0)
(1.02768 -0.00971455 -4.72908e-23)
(1.00122 0.0409821 -2.88054e-22)
(1.02171 -0.000172387 -8.32903e-23)
(1.0145 -0.0852148 5.36081e-23)
(1.02364 -0.0012015 -1.0152e-22)
(1.04495 0.00349893 -8.21672e-21)
(0.838112 0.00971917 4.97402e-23)
(1.06828 -0.0392051 -1.93872e-20)
(1.02187 9.25918e-05 -2.03351e-23)
(0.114733 -0.0488186 -9.31021e-21)
(1.0214 -9.99776e-05 0)
(1.02814 -0.00740669 5.64177e-23)
(1.04268 -0.000755147 0)
(1.03166 -0.00627324 -7.2393e-22)
(1.09668 -0.00829346 2.44507e-20)
(1.04289 -0.000333695 3.89065e-21)
(1.0272 -0.0432539 0)
(0.724099 0.0450565 -1.80858e-21)
(1.02784 -0.00724614 -1.26294e-22)
(1.0749 -0.0312738 8.34977e-21)
(1.12473 0.0159888 4.95432e-20)
(1.06894 -0.036436 0)
(1.03151 -0.00784583 -8.62611e-24)
(1.02162 6.38131e-05 0)
(1.01322 -0.0113704 1.00958e-21)
(1.00991 0.00863935 -1.06206e-22)
(1.02415 -8.11799e-06 2.45428e-22)
(1.02833 0.00622239 0)
(1.08124 -0.0145198 0)
(1.0211 -9.10643e-05 -2.76521e-22)
(1.01777 -2.28412e-05 1.42236e-22)
(1.02716 -0.00447173 3.25796e-22)
(1.03133 0.000872789 -4.472e-22)
(1.04036 0.00599141 -3.34805e-21)
(1.04045 0.00505835 -3.91133e-22)
(1.04546 0.00328008 -1.14902e-22)
(1.02993 -0.00966276 0)
(1.03271 -0.00576071 0)
(1.03214 -0.00528123 1.38379e-21)
(1.02122 -0.000430794 5.11639e-23)
(1.02047 0.0159466 8.677e-22)
(1.02362 -0.00100349 -8.48799e-23)
(1.0264 -0.00160761 1.03367e-21)
(1.01632 0.0068478 -2.99259e-22)
(1.02281 -0.000883622 -5.44049e-23)
(1.02299 0.000471048 0)
(1.01212 0.00930921 0)
(1.02462 0.00326888 6.23612e-23)
(1.02178 0.000173148 1.19608e-22)
(1.02188 0.000160924 -1.80305e-22)
(1.05403 -0.0501401 3.61518e-21)
(1.02124 -5.21611e-05 0)
(1.02966 -0.00861708 -9.84901e-22)
(1.02043 7.67596e-05 8.00558e-23)
(1.02147 -4.63845e-05 0)
(1.02191 0.000514825 1.32249e-23)
(1.02833 0.00146552 0)
(1.13329 0.0139061 0)
(1.03948 0.0321929 1.66175e-22)
(1.02352 -0.00162592 3.20249e-23)
(1.02474 -0.00249019 9.84469e-25)
(1.02691 -0.00308755 0)
(1.05002 -0.00616152 -5.7598e-21)
(1.03246 -0.00248484 0)
(1.02358 0.00168717 -1.68392e-23)
(1.04488 0.00756249 -3.55075e-21)
(1.02315 -0.00139576 5.0243e-24)
(1.02547 -0.00283451 1.11502e-22)
(1.02188 -0.000802041 0)
(1.02727 -0.00801187 -4.05109e-22)
(1.02453 0.00112133 -4.00229e-22)
(1.03161 0.00325356 -6.25222e-22)
(0.993334 -0.0535068 3.06873e-22)
(1.02408 -2.56811e-05 0)
(1.03076 0.00150989 0)
(1.0343 -0.003501 6.37286e-23)
(1.02164 0.000101833 -1.7326e-24)
(1.02342 -0.000236348 -2.85217e-22)
(1.02933 -0.00737899 0)
(1.05865 0.0146042 -7.54284e-23)
(1.01895 -0.00657763 0)
(1.023 -0.00118793 0)
(1.04815 -0.0383627 0)
(0.995841 -0.0586099 1.18685e-22)
(1.02703 -0.00307538 -6.37138e-22)
(1.09646 -0.00463586 1.97251e-20)
(1.03391 -0.00708339 1.27504e-21)
(1.02361 -0.000671487 -8.8562e-22)
(1.08647 -0.0186479 -1.77774e-20)
(1.06798 -0.0430874 3.02188e-21)
(1.08459 -0.0163021 -2.65654e-20)
(1.02076 -8.58011e-05 0)
(0.984209 -0.0619958 4.48003e-21)
(1.0324 -0.00522665 1.79387e-21)
(1.02524 -0.00276193 1.06336e-22)
(1.02932 -0.00965741 0)
(1.06582 -0.0540373 -2.19945e-21)
(1.02447 -0.00200027 -1.69845e-23)
(1.05482 0.00233124 -5.4938e-21)
(1.02766 0.00101035 0)
(1.05008 0.0108837 3.78894e-21)
(1.02362 -5.24704e-05 0)
(1.02889 -0.0063897 -5.07559e-22)
(1.05692 0.00770829 0)
(1.04033 0.00644453 0)
(1.02123 -3.22972e-05 -3.83844e-24)
(0.972622 0.00379335 4.65108e-22)
(1.02683 -0.00390724 1.67577e-22)
(1.02151 3.89759e-05 5.01517e-23)
(1.05555 -0.000812725 -5.20894e-21)
(1.027 -0.00418213 7.69432e-23)
(1.02134 0.0003849 -4.50487e-24)
(1.01875 -0.00570962 -3.97308e-22)
(0.983534 -0.00912258 -2.80777e-21)
(1.02654 -0.00377478 -7.26685e-22)
(1.04941 0.0110916 3.59609e-21)
(1.02197 -0.000683909 -4.12908e-22)
(1.0264 -0.00364199 6.28761e-22)
(1.06603 -0.0175164 7.68014e-21)
(1.0251 -0.00305015 0)
(1.02165 8.06633e-05 1.44796e-22)
(1.02248 -0.000973927 1.03536e-22)
(0.954901 -0.0455921 0)
(1.06255 -0.0176586 6.52525e-21)
(1.02377 -0.000183367 6.86157e-22)
(1.04703 -0.00428686 -5.04813e-21)
(1.04182 -0.00693562 -2.93546e-21)
(1.02509 -0.0030838 9.12467e-23)
(1.0368 -0.00647474 0)
(1.02567 -0.00129741 -4.6856e-22)
(1.10191 0.00371188 0)
(1.00697 0.0473408 7.47888e-22)
(1.02272 -0.000851542 -2.78599e-23)
(1.0216 5.57516e-05 1.43958e-22)
(1.02435 -0.00194411 -1.7955e-23)
(0.99033 -0.0296426 -3.80045e-21)
(1.02261 -0.000238075 -2.0717e-26)
(1.02249 -0.000222985 1.88048e-22)
(1.02145 -0.000627906 -2.62803e-24)
(1.00778 -0.0352825 -5.2834e-23)
(0.879668 -0.0614548 1.83729e-20)
(0.129066 -0.0506428 2.6573e-20)
(1.07663 -0.0249734 1.29852e-20)
(1.02166 0.00010834 -1.36876e-22)
(1.03628 0.000930181 2.85508e-21)
(1.08244 -0.0216842 -1.66033e-20)
(1.02077 0.000275546 8.06764e-23)
(1.07088 0.00392697 -5.59397e-21)
(1.05598 -0.00133474 -1.07294e-20)
(1.06412 -0.026091 0)
(1.034 0.0176655 1.96503e-21)
(1.02584 -0.00261549 -1.07898e-21)
(1.10257 0.00720844 -3.55777e-22)
(1.03131 -0.0390322 3.19593e-21)
(1.02365 -0.000740273 0)
(1.03026 0.00404179 2.31289e-22)
(1.04363 0.00865151 0)
(1.02353 -0.000613524 0)
(1.05588 -0.0169852 6.41593e-21)
(1.05883 0.00691778 5.76081e-21)
(1.02138 -0.000604572 5.16229e-24)
(1.02899 -0.00621794 5.61444e-22)
(1.02984 -0.00795616 -9.42748e-22)
(1.02125 5.84323e-05 1.40039e-22)
(1.06573 -0.0248608 8.36819e-21)
(1.09269 -0.00609797 2.91661e-21)
(1.02636 -0.00316413 -9.0134e-23)
(0.996464 -0.0657767 -3.92798e-22)
(1.02569 -0.00106245 -5.67283e-22)
(1.02481 0.00594981 0)
(1.02258 -0.000781784 -5.23523e-22)
(1.13455 0.00987852 0)
(1.02108 0.0202467 -3.06657e-21)
(1.02132 2.47612e-05 0)
(1.06807 0.0126023 -2.15363e-22)
(1.06564 -0.00349963 7.75151e-21)
(1.02322 -0.00142541 -2.00654e-23)
(0.818191 -0.0618213 -2.82265e-21)
(1.06014 -0.000311576 6.77056e-21)
(1.03589 0.00101328 -2.62783e-21)
(0.858701 -0.0295173 1.16515e-22)
(1.02056 0.0010762 1.63742e-22)
(1.02303 0.000830183 0)
(1.02155 3.64121e-05 7.88577e-25)
(1.02349 -0.000523927 -5.68419e-22)
(1.05862 -0.0260084 0)
(1.07023 -0.0383571 2.83824e-21)
(1.022 -0.00307291 -1.3249e-22)
(1.02167 9.01385e-05 3.55687e-23)
(1.06728 0.0130909 -1.08473e-20)
(1.03092 0.00310315 1.47951e-21)
(1.02358 -0.00160638 -7.07877e-23)
(1.07 0.00353785 1.21718e-20)
(1.02954 -0.00804016 0)
(1.02271 -0.000183469 6.4107e-23)
(1.0605 0.000361602 0)
(1.02548 0.00543493 -8.07876e-22)
(1.0617 -0.0180948 -6.06703e-21)
(1.0207 -0.000320677 1.87142e-23)
(1.02181 8.34061e-05 7.18888e-23)
(0.904066 0.0379083 -5.99162e-22)
(1.07473 -0.0329981 0)
(1.05808 -0.0261388 1.99909e-23)
(1.05103 -0.0521708 0)
(1.02218 -0.000770908 2.10298e-22)
(1.0795 -0.0202421 9.43453e-21)
(1.02326 -0.00151299 -5.14649e-23)
(0.745405 0.027729 -3.20669e-21)
(1.03001 0.00385955 2.18923e-22)
(1.02152 -0.000473727 1.59279e-22)
(1.06579 -0.0210512 0)
(1.0468 -0.0392923 3.68747e-21)
(1.06363 -0.026871 -8.76623e-21)
(1.0242 0.000634105 1.5192e-22)
(1.02326 -0.000846561 -1.72817e-22)
(1.02305 0.000791419 2.34129e-24)
(1.12001 -0.00484614 -3.08333e-20)
(1.0248 -0.00254329 -1.18823e-22)
(1.12125 -0.00925013 -5.23452e-22)
(1.04459 -0.0136998 -4.15257e-21)
(1.03177 -0.0441327 1.69376e-21)
(1.04691 -0.0437703 0)
(1.02307 -0.00302155 1.7302e-24)
(1.02404 0.00288714 9.05608e-22)
(0.98242 -0.0447671 0)
(1.0236 -0.00109856 2.99915e-22)
(0.990716 -0.0255186 3.53407e-21)
(1.02721 -0.0034797 0)
(1.0221 -0.00252913 3.48581e-22)
(1.03249 -0.0266405 0)
(1.02518 -0.00188234 3.65203e-22)
(1.03823 -0.00597451 0)
(1.02463 -0.0147793 -1.0413e-21)
(1.02727 -0.00522937 3.15688e-22)
(1.01757 -0.0179292 2.35249e-22)
(1.0237 0.000154902 6.78144e-22)
(1.02071 -0.000326825 -1.8227e-23)
(1.02174 -0.000764555 -5.86836e-23)
(1.02578 -0.00150757 1.95366e-22)
(1.04264 -0.00618689 0)
(1.02329 -0.000876901 1.7748e-22)
(0.970509 0.0121925 4.09354e-22)
(1.03256 0.00117515 0)
(1.02591 -0.00221668 1.05714e-22)
(1.02466 0.00117002 3.00856e-22)
(1.01298 -0.0325909 0)
(1.04389 -0.0139854 0)
(1.02224 -0.000877004 -1.92348e-22)
(1.04459 -0.0240135 0)
(0.247387 -0.0108041 2.32403e-20)
(1.02099 -0.00010531 1.13146e-22)
(1.02324 0.000394338 0)
(0.164385 0.000350404 8.39741e-21)
(1.05768 -0.025759 1.10361e-22)
(0.95916 -0.00826578 0)
(1.02335 -0.00104212 0)
(1.06754 -0.0405447 1.19569e-20)
(1.04244 -0.00710138 -1.70387e-21)
(1.02171 -0.000755768 0)
(1.02101 -8.38173e-05 0)
(1.02593 0.00166434 0)
(1.02743 -0.0052389 0)
(1.06592 -0.00278519 -1.77692e-20)
(1.02322 -0.000993995 3.55407e-23)
(1.02382 0.00288413 -1.11241e-21)
(0.982871 -0.0353045 4.6238e-23)
(1.01303 -0.0188304 -6.30638e-22)
(1.02304 0.000551108 -5.0876e-22)
(1.05665 -0.00563626 -9.18198e-21)
(1.02329 -0.00142174 5.61263e-23)
(1.03375 0.0123713 0)
(1.02323 -0.00149593 0)
(1.05238 -0.022784 -3.2403e-21)
(1.0105 -0.0166042 -3.12344e-23)
(0.964226 -0.00131538 2.44535e-21)
(1.02379 0.000257736 6.05251e-22)
(0.951075 -0.0617817 0)
(1.0236 -0.00124341 -2.84293e-22)
(1.04612 -0.038536 3.15958e-21)
(1.02136 -0.000113812 6.36263e-23)
(1.02362 -0.00168303 0)
(1.02107 -6.90742e-05 -6.632e-23)
(1.02017 0.00328199 0)
(1.02131 -3.62913e-05 7.91019e-23)
(0.997031 -0.0216105 -3.60559e-21)
(1.09242 -0.00337888 -3.21256e-21)
(1.04118 -0.020419 -3.16208e-21)
(1.02313 -0.00143962 0)
(1.02202 -0.00148362 -5.9744e-22)
(1.05064 -0.00626308 1.25765e-20)
(1.02591 -0.00236744 2.14832e-22)
(1.01044 -0.0730155 0)
(1.09075 -0.0282884 0)
(1.02096 -7.35424e-05 -1.66528e-22)
(1.02262 0.000108451 0)
(1.05774 -0.0280574 -9.68709e-21)
(1.02162 -0.000150198 -3.72692e-24)
(1.05319 -0.0239769 7.20962e-21)
(1.05754 -0.00952463 0)
(1.02238 -0.000924648 -4.83632e-24)
(1.02481 -0.00229783 2.16822e-24)
(1.02249 6.9603e-05 4.18597e-23)
(1.02835 0.00676181 1.1812e-21)
(1.02704 -0.00153551 -9.90688e-23)
(1.02956 -0.00698122 -1.30087e-21)
(1.05359 0.00583276 -5.31123e-21)
(1.02821 -0.0155169 6.42091e-22)
(1.07899 0.0128868 -7.99906e-21)
(1.0218 0.000107258 3.32052e-23)
(1.02112 1.50017e-05 -8.55753e-23)
(1.02572 -0.00123112 0)
(1.02321 0.000223069 1.22365e-22)
(0.988698 0.00842651 -2.97923e-21)
(0.986122 0.0272705 1.61994e-21)
(1.03155 0.00242797 0)
(1.0244 -0.00219023 -1.10897e-22)
(1.02204 -0.000209932 -4.15476e-23)
(1.05622 -0.00263745 -3.30067e-21)
(1.04592 -0.00916583 4.1479e-21)
(1.02484 -0.00229928 0)
(1.02956 -0.0115505 0)
(1.02652 -0.00273174 0)
(1.04876 -0.004855 0)
(1.02334 -0.00144828 -4.67427e-23)
(1.02129 0.00064728 -4.27194e-23)
(1.02001 0.000377279 2.64554e-23)
(1.02364 -0.000945219 8.30921e-23)
(1.02652 -0.00327436 0)
(1.0235 0.00111217 0)
(0.740284 -0.0653049 0)
(1.00876 -0.0327923 0)
(1.03158 0.00161626 0)
(0.746358 -0.080714 1.80754e-21)
(1.02401 -4.81556e-05 2.12339e-24)
(0.957981 0.0130999 -4.4635e-22)
(1.04213 -0.00809203 2.71972e-21)
(1.02092 -2.3166e-05 -1.01711e-24)
(1.03143 0.00177688 1.11718e-21)
(1.04104 -0.00626537 3.15561e-21)
(1.02966 -0.00752771 -2.19335e-22)
(1.00581 -0.0183912 5.33797e-22)
(1.05361 0.00543541 3.0057e-21)
(1.02486 -0.00301512 0)
(1.0216 -0.000567492 0)
(1.07606 -0.0320465 0)
(0.943191 0.00597501 1.38742e-20)
(1.02118 7.69626e-06 1.44498e-22)
(1.02335 -6.66873e-05 1.04717e-21)
(1.05573 -0.00225673 -7.35979e-21)
(1.0397 0.00174273 0)
(1.02186 -0.000818728 0)
(1.03656 0.0462627 1.56652e-23)
(1.03895 -0.00174779 5.83826e-22)
(1.02431 0.00316604 0)
(1.0256 -0.00198018 4.88538e-22)
(1.02757 -0.00738328 -4.21455e-23)
(1.02846 -0.00365072 8.50994e-22)
(1.0248 -0.00251648 7.48843e-23)
(1.02484 -0.00257176 -1.29725e-22)
(1.02157 -0.000435634 0)
(1.04183 -0.00889666 0)
(1.03164 -0.00296356 -2.59746e-21)
(1.02136 0.00318662 2.36039e-22)
(1.03577 0.00213111 -2.20965e-21)
(1.02234 -0.00092569 9.06716e-23)
(1.04366 -0.0256549 -1.8944e-21)
(1.11862 -0.00971967 -2.33428e-20)
(1.06427 -0.0175118 -7.73445e-21)
(1.02275 -0.000416849 1.31263e-22)
(1.02147 6.66301e-05 2.07082e-22)
(0.76749 -0.0743725 -1.93962e-21)
(1.02673 -0.00168653 -8.18306e-22)
(1.06571 0.0140227 0)
(1.03184 0.00288901 9.69607e-22)
(1.03224 0.00108509 -8.31887e-22)
(1.02116 -8.59272e-07 0)
(1.05034 -0.0107772 6.83661e-21)
(0.993721 -0.0688217 2.16589e-21)
(0.730459 0.0413561 1.01977e-21)
(0.999636 0.0115989 -8.34245e-21)
(0.0569749 0.0115098 -7.49755e-21)
(1.03115 -0.00314434 0)
(1.01089 0.00628108 -1.02349e-21)