/*--------------------------------*- C++ -*----------------------------------*\
| =========                 |                                                 |
| \\      /  F ield         | OpenFOAM: The Open Source CFD Toolbox           |
|  \\    /   O peration     | Version:  v2012                                 |
|   \\  /    A nd           | Website:  www.openfoam.com                      |
|    \\/     M anipulation  |                                                 |
\*---------------------------------------------------------------------------*/
FoamFile
{
    version     2.0;
    format      ascii;
    class       surfaceScalarField;
    location    "150";
    object      ddtCorrDdt0(phi);
}
// * * * * * * * * * * * * * * * * * * * * * * * * * * * * * * * * * * * * * //

dimensions      [0 3 -2 0 0 0 0];
oriented        oriented;


internalField   nonuniform List<scalar> 
27740
(
-9.73748e-05
4.36041e-05
5.37708e-05
-0.000192847
0.000148558
4.42908e-05
0.000164648
-0.000165042
3.96421e-07
-0.000315453
0.000346021
-3.05676e-05
-7.21074e-05
1.62903e-05
5.58016e-05
-0.000184899
0.000130474
5.44243e-05
0.000246513
0.000326835
-0.000573384
0.000752504
-0.000484485
-0.000268039
0.000110677
-8.39555e-05
-2.66945e-05
-6.30655e-05
-3.61898e-05
9.92587e-05
6.02001e-05
-0.000417051
0.00035685
0.000164078
8.81683e-05
-0.00025225
-0.00299977
0.00258078
0.000418999
-6.61434e-06
0.000171265
1.90613e-05
-8.02863e-05
6.12251e-05
7.26221e-05
9.03545e-05
-0.000162986
-3.4845e-06
1.39378e-05
-1.0453e-05
0.000174766
-0.000102143
-0.000322493
9.58171e-05
0.000226676
-0.000503941
0.000147501
0.00035644
0.000219463
-0.000278569
5.91068e-05
3.75131e-05
-0.000103118
6.56037e-05
-5.48244e-05
4.89724e-05
5.84976e-06
-0.00169369
0.00239354
-0.000699884
-3.94261e-05
3.44992e-05
4.92623e-06
-5.97242e-05
-0.000444215
2.86523e-05
5.96975e-05
-8.835e-05
0.000251603
-8.75291e-05
-0.000933821
1.03028e-05
0.000923514
1.6875e-05
9.12921e-07
-1.7788e-05
7.58318e-05
-8.81959e-05
1.23648e-05
0.000251754
-0.000162128
-8.9626e-05
-2.13314e-05
-2.42756e-05
4.56072e-05
3.94825e-05
8.6836e-05
-0.000126319
-6.56053e-05
-4.53776e-05
0.000110983
0.000285365
-1.39797e-05
-0.000271388
2.24937e-05
0.000118032
-0.000140528
-6.40374e-05
1.21436e-06
6.28232e-05
1.32853e-05
1.61249e-05
-2.94102e-05
0.000292674
0.000459831
0.000152786
-4.20767e-05
-0.00226969
0.000576012
-0.000369328
0.000294576
7.47837e-05
0.000218222
-0.000402714
0.000184492
-0.000142165
-5.06825e-05
2.40481e-05
-7.17263e-06
0.000132843
-0.000438902
0.000306059
-1.18721e-05
-0.00030358
1.81048e-05
0.000155647
-0.000173754
8.93779e-06
-3.14301e-05
2.24935e-05
-0.00415085
0.00109442
0.00305641
0.000121615
-0.000204277
8.26604e-05
-0.000258085
-2.5163e-05
0.000283248
-0.000308075
-0.00127688
0.00158494
2.8345e-05
-4.96757e-05
8.08408e-05
-6.27368e-05
3.7771e-05
0.000361344
-0.000399121
-8.60678e-05
-0.000192807
0.000278926
6.75315e-05
-0.000112626
4.50914e-05
-0.000100963
3.78982e-05
-6.37199e-05
-3.36551e-05
-1.88137e-05
7.21075e-05
-5.32938e-05
-0.000111518
-0.000257796
-8.84499e-05
0.000324423
-0.000235973
-8.8456e-05
2.44188e-05
-0.000352095
0.000263645
7.05835e-05
-2.19612e-05
-4.86214e-05
-0.000575902
4.35982e-05
0.000532314
-9.93658e-05
0.000239781
-0.000140416
-0.000933877
-0.00028017
0.00121406
0.000160415
-4.14362e-05
-0.00011898
6.24231e-05
-1.94346e-05
-4.29886e-05
-0.000158111
-1.15887e-05
0.0001697
0.000197138
-0.000138529
-5.86092e-05
-6.96158e-05
-7.44555e-05
0.000144072
-1.43597e-05
0.000233822
-0.000182131
0.000168728
1.34019e-05
0.000170082
2.51265e-05
-0.000195207
0.000110077
8.70589e-05
-8.83665e-05
-5.93363e-05
0.000147705
-1.06352e-05
7.15094e-06
0.000452102
-0.000319259
0.000372178
-0.000469217
9.70388e-05
2.11184e-05
-0.000279204
0.000166829
-0.000199033
3.22044e-05
-1.36258e-05
2.69102e-05
-3.58289e-05
0.000139414
-0.000103588
-6.65479e-05
0.000188163
-0.000185593
-4.3289e-05
0.000228885
-0.000215303
0.00012424
9.10664e-05
0.000122115
4.33527e-05
-0.000165467
8.08421e-05
-3.54434e-05
-4.53993e-05
7.12029e-05
-5.19766e-05
-1.92272e-05
-0.000645569
0.00074197
-9.64027e-05
0.00010542
-6.79073e-05
0.000386083
-0.000325883
4.67369e-05
5.31393e-05
-9.98746e-05
-0.000202177
7.88563e-05
0.000123321
0.00026203
-0.000149756
-0.000112275
-5.7441e-05
8.60936e-05
-3.78988e-06
-5.10351e-05
-0.00010015
0.000196041
-9.58914e-05
-1.41106e-05
1.42724e-05
-1.61976e-07
-0.00285485
-0.00129611
0.000210648
5.13819e-05
-0.000117671
-8.66057e-05
-3.40421e-05
-8.326e-06
4.23686e-05
0.000100092
-1.72641e-05
-8.28283e-05
-0.000160957
6.08065e-05
0.000115647
-0.000170036
5.43885e-05
0.000228493
5.68708e-05
0.000133922
-0.000137953
4.03412e-06
5.10837e-05
2.01192e-05
-0.000145128
0.000118123
2.70041e-05
-0.00086686
0.000754387
0.000112535
0.000172828
-1.0399e-05
-0.000162414
-1.88964e-05
4.7242e-05
0.000510315
-0.000853836
0.000343587
0.00041931
-0.000201088
4.70776e-05
-3.24659e-05
-1.46168e-05
3.73099e-07
6.71572e-05
9.45516e-05
-9.9359e-05
4.80707e-06
9.36436e-05
5.32608e-05
9.16215e-06
0.00059017
-0.00044978
-0.00014039
-3.81547e-05
-1.27291e-06
-2.52746e-06
2.52733e-06
-0.000591292
-7.41856e-05
0.000665481
8.5611e-05
8.94059e-06
0.000910825
-0.000400553
3.20123e-05
1.66986e-05
-4.87144e-05
0.000445823
-7.36449e-05
5.69523e-05
-7.16178e-06
-4.97913e-05
-6.25809e-05
-5.00493e-05
-0.000112156
0.000134653
1.61512e-05
-5.73663e-06
-1.04148e-05
-0.000368561
0.000160224
0.000208337
-0.000504357
0.000542128
-8.45322e-05
0.000206646
0.000189784
-1.96998e-05
-8.46881e-05
-3.56464e-05
0.000120333
-2.46149e-05
6.18776e-05
-3.72624e-05
-1.84566e-05
2.03618e-05
-1.90485e-06
4.34518e-05
-3.55054e-05
-7.94626e-06
-5.17204e-05
-7.83557e-06
5.95565e-05
-0.000132334
-0.00035641
0.000488718
4.19886e-06
-2.26553e-05
3.00504e-05
6.06413e-05
-9.0691e-05
-6.21993e-05
3.79698e-05
2.4229e-05
0.000111282
-0.000426581
0.00134067
-0.000914071
-6.54501e-06
2.66649e-06
3.87836e-06
3.33467e-05
0.000406653
-0.000440001
1.35003e-06
-7.25744e-05
7.12243e-05
-9.34604e-05
8.45347e-05
8.92542e-06
3.91277e-05
4.3241e-06
9.92461e-05
3.14043e-05
-0.000130652
0.000113129
-0.000201494
2.25315e-05
-2.70576e-05
4.52629e-06
3.4639e-05
1.64524e-05
-5.10875e-05
0.000133409
-7.83825e-05
-5.5025e-05
0.000603169
-0.00027669
-0.000326472
0.000100769
-0.000100396
-6.95037e-05
7.08533e-05
0.000146874
0.000443294
-5.84021e-05
-0.000808434
1.60067e-05
-5.00488e-05
6.13989e-05
-3.56399e-05
-2.5759e-05
-8.46011e-05
-8.85953e-06
-2.99659e-05
0.000202797
4.76694e-05
-1.5659e-05
-9.06593e-05
9.73944e-05
-6.74029e-06
-0.000269598
0.000183561
-1.49429e-05
-5.71679e-05
-7.49571e-05
4.82587e-05
2.66989e-05
-0.00159175
0.000784461
0.000807286
-1.4107e-05
-4.80927e-05
0.000162524
-0.000133135
-2.93901e-05
-6.43733e-06
2.89688e-05
0.000223554
-0.00115743
0.00115281
9.70691e-05
-0.00124986
1.26364e-05
-1.52029e-06
-1.11166e-05
2.04219e-06
-1.49835e-06
-5.43724e-07
-0.000181174
-0.000184325
0.000125303
5.90231e-05
8.83117e-05
3.09777e-06
-9.14057e-05
-5.70815e-05
5.36135e-06
3.45911e-05
-5.92059e-05
-0.000307813
0.000248404
5.94696e-05
-0.00014833
-1.20467e-06
0.000149533
0.000143346
-8.29197e-06
-0.000135053
-8.75965e-05
2.92932e-05
5.83034e-05
6.82496e-06
5.15648e-06
-1.19814e-05
6.3362e-05
-8.79555e-05
2.45937e-05
1.43164e-05
-1.74765e-05
3.16024e-06
2.02473e-05
-1.05214e-05
-9.72611e-06
-0.000128144
9.23136e-05
-0.000110092
0.000193551
-8.34596e-05
7.1386e-05
-0.000141001
1.41162e-06
6.3053e-07
-6.77849e-05
9.78354e-05
-0.000118984
-0.000500373
0.000619397
-2.14119e-05
-0.000554483
-2.62949e-05
-0.000123471
0.000149763
5.53816e-05
-0.000240974
0.000176335
-0.00011251
-6.38323e-05
0.00040046
0.000841523
-0.00124199
-0.000231435
-0.000207467
7.09944e-06
9.29924e-05
0.000317105
1.13053e-05
-0.00032841
6.30088e-05
-2.54693e-05
-3.75433e-05
0.000107295
-0.000153156
4.58578e-05
-9.6554e-05
8.59722e-05
1.05819e-05
8.52506e-06
-1.70106e-06
-0.000432795
-2.08504e-05
0.000453646
-4.33723e-05
5.75375e-05
-1.41647e-05
-4.34463e-05
-0.000119004
0.00016245
4.87952e-05
-4.12063e-05
-7.58976e-06
-0.00020771
-0.000242071
6.27538e-05
-6.36295e-05
8.67948e-07
-0.000642875
0.000641619
1.27307e-06
3.21408e-05
-6.41826e-05
3.20419e-05
-7.05485e-05
1.67821e-05
5.37673e-05
-8.13942e-05
-9.26688e-06
-9.8942e-05
-0.000345668
0.000444612
0.0009945
-0.000206383
-0.000788126
2.63993e-06
-4.60117e-05
5.07585e-05
1.19955e-05
0.000260742
2.87273e-05
-0.00028947
-0.000618569
-0.000973185
0.000390529
-0.000202374
-0.000188091
-5.32317e-05
5.49684e-05
-1.73507e-06
-5.93414e-05
-1.07871e-05
7.01259e-05
3.75387e-05
0.000118307
-0.00015586
-0.000364202
0.000511706
0.000476393
-0.000586861
0.000110471
-6.17267e-05
0.000160969
0.000141965
-0.000195495
5.3511e-05
1.45043e-06
5.55025e-05
0.000394562
-7.85026e-05
-0.000316059
7.7462e-06
-1.94368e-06
-5.80267e-06
7.98851e-05
0.000208001
-0.000287891
0.000109364
0.000281197
3.21182e-06
9.42462e-06
-2.94813e-05
-0.000182292
3.39602e-05
0.000112382
-0.000298834
0.000186452
-1.2083e-05
4.67229e-05
-0.000304355
0.000450392
-0.000146043
0.000104897
-0.00021499
-0.000205403
0.000235868
-3.04649e-05
0.000515747
-0.000269247
-3.93113e-05
0.000127625
4.21099e-05
-0.000107715
-8.1798e-05
-0.000102526
-0.000202013
-0.000135094
0.00033711
6.70302e-05
-3.48893e-05
2.31768e-05
3.98348e-05
0.000159403
-4.12816e-05
-0.000107404
-6.26319e-05
3.43838e-05
-7.25946e-06
-2.71245e-05
-3.7284e-05
0.000171203
0.000323922
-6.81687e-06
-5.57859e-05
4.97096e-05
6.08138e-06
1.76737e-05
-3.35724e-06
0.000344479
0.000107622
-0.000652649
0.000307927
0.000344723
5.62293e-06
1.46243e-05
-0.000599606
0.000418401
-1.85352e-05
1.74446e-05
1.09095e-06
-0.000460312
0.000327974
0.000207861
-0.000298836
9.09737e-05
0.00028186
1.46148e-05
-0.000318971
-0.000306687
-1.58062e-05
9.23277e-05
-2.89665e-05
1.57084e-05
1.96528e-06
-0.00198291
-0.00101686
0.000738975
0.00025552
-0.000462967
0.000255257
-5.00172e-05
-7.064e-06
4.80147e-05
7.80995e-07
-0.00043389
0.000467237
-1.54797e-05
0.000146105
-0.000130637
0.000887454
-0.00112567
0.000238211
-9.18515e-05
3.25081e-05
-2.49874e-06
-8.04309e-05
8.29293e-05
-0.000135261
-4.687e-05
-2.36063e-06
4.54318e-06
-2.18266e-06
-2.26224e-05
1.82235e-05
4.39762e-06
-0.000606665
-3.62362e-05
-0.000261466
5.60555e-05
-1.01421e-05
-0.000556286
0.000566401
-4.29593e-05
-8.4257e-05
9.89223e-05
-0.00109391
0.000994986
0.000127256
-8.82501e-05
-3.90053e-05
-0.00141433
0.000987748
-0.000935043
1.21893e-06
-1.29453e-05
-4.53113e-06
-0.000292228
-0.000360434
1.91276e-05
1.63882e-07
-1.92914e-05
-7.20705e-05
0.000111553
-4.67718e-05
9.35097e-05
4.69274e-05
-7.79968e-06
2.60346e-05
2.10432e-05
0.000109024
3.29287e-05
1.37905e-05
6.75056e-05
-1.12193e-05
-5.62886e-05
-8.37116e-05
-0.000111777
0.000158222
-0.000497132
0.000437409
-5.8086e-05
-4.28745e-05
-4.83698e-05
4.03364e-05
8.03643e-06
7.89337e-05
-5.98725e-05
-7.50736e-05
-5.17813e-05
-0.000138273
7.96461e-06
0.000130309
3.12004e-07
5.28962e-07
-8.40801e-07
1.30282e-05
-0.000434504
0.000173139
0.000261369
-4.63588e-06
-2.51135e-05
2.97498e-05
5.88979e-05
7.45125e-05
1.17884e-05
0.000141013
3.6269e-07
-4.96163e-07
1.33494e-07
4.51856e-05
1.74195e-06
-4.69458e-06
4.95441e-05
-4.48493e-05
4.49893e-06
-5.45157e-05
0.0001109
5.88171e-05
-0.000169717
0.000228016
0.000439449
-0.000667457
9.14047e-05
8.49232e-05
0.000267492
-0.00024892
-1.85722e-05
2.46094e-05
3.67895e-05
-2.89195e-05
-6.5904e-05
9.4825e-05
0.000385601
-0.000213339
-0.000172263
2.03054e-05
-2.748e-05
7.17475e-06
1.2511e-05
-4.85322e-05
3.6021e-05
0.000804277
-9.50173e-06
-0.000794767
8.05986e-05
-0.000163079
8.24785e-05
0.000772594
0.00136264
-0.00213523
9.72759e-05
-0.000123572
0.000411582
0.000191589
-6.75215e-06
-0.000226094
2.84729e-05
0.000197628
-1.0943e-05
9.919e-05
2.76166e-05
-0.000126807
6.44591e-05
1.59242e-05
-8.03834e-05
1.25713e-05
-6.94843e-06
8.05965e-07
6.9402e-06
-7.22469e-05
-0.000112772
0.000185022
0.00016014
-0.000122608
-2.69815e-05
9.00179e-05
-6.30353e-05
-0.000254374
0.00343477
-0.00318039
-8.14917e-05
5.45108e-05
-5.20286e-05
4.73344e-05
0.000262233
-0.000237491
-2.47408e-05
0.00197353
-0.000735523
-0.00123804
-3.54429e-05
-0.000102831
0.000524357
-0.000206221
-0.000318141
0.000511004
-3.4606e-05
-0.000364921
-9.80456e-05
-0.000450891
0.000586503
-0.000135641
0.000123354
-2.41644e-05
-0.000568135
0.000117235
-2.31333e-05
-5.8357e-05
0.000130329
-2.38573e-05
-0.000106474
4.71652e-05
-9.55336e-05
-0.000100287
4.2201e-05
0.000108026
-0.000153382
4.53562e-05
0.000178476
-9.78783e-05
-7.01241e-06
8.2844e-05
-1.66959e-05
-7.09006e-05
1.58134e-05
4.54867e-06
4.63784e-05
-0.000117305
7.09254e-05
-0.000112337
-0.000231331
0.000343662
-5.48385e-05
0.00016574
-0.000463143
0.000316595
-0.000275775
-4.08206e-05
-9.94473e-05
0.0008788
-0.000779359
0.000178779
0.000129029
-0.000307809
0.00012737
3.327e-05
-0.000160642
-1.47831e-06
-1.04922e-06
-6.51519e-05
0.000368513
-0.000303315
-5.66556e-05
5.19188e-05
4.73757e-06
0.000121179
2.21682e-05
-3.79667e-07
3.73179e-07
6.48401e-09
-3.78279e-07
-6.1668e-06
-5.25686e-05
-1.79234e-05
7.04786e-05
0.000426976
-0.000437118
0.000112953
-5.46106e-05
-5.83426e-05
1.24285e-05
2.07034e-05
-3.3131e-05
-8.13005e-05
-0.000460666
0.000541965
0.000256413
-0.000228279
-2.81362e-05
-5.1888e-05
6.04378e-05
-8.55069e-06
-0.00169753
0.0012213
0.000476217
0.000191633
-9.71798e-05
-9.44503e-05
0.000140307
-3.22832e-05
5.21278e-05
-0.000263905
0.000211776
-3.51295e-05
-7.93407e-05
0.000114468
-4.68787e-07
5.0119e-06
-0.000831463
0.000105377
0.000726097
0.000257795
-0.000370132
-3.90951e-05
0.000108536
-6.94349e-05
2.48873e-05
-5.60132e-05
3.1126e-05
6.45314e-05
-9.34501e-05
-7.72956e-05
-0.000286366
0.000363654
0.000776971
2.73093e-05
9.50223e-06
-5.07089e-05
-0.000464774
-0.000330722
0.000795487
-1.84343e-05
1.65606e-05
1.87397e-06
-4.03133e-05
-3.03074e-05
7.06208e-05
0.000995802
-0.000491092
-0.000504764
1.40847e-05
2.08778e-05
-3.4963e-05
-0.000636989
0.000865002
-0.000120799
8.56689e-05
-0.00183113
0.000561095
0.00126999
0.00022262
-4.38408e-05
0.00232641
-0.000226482
0.00101094
-4.71302e-05
3.41056e-06
4.37196e-05
-6.01059e-05
0.000180972
-0.000120861
4.60244e-05
-6.91561e-05
-0.00280355
0.000820642
-6.6037e-05
0.000302173
-0.000236135
0.000129539
-0.000155233
2.56983e-05
0.00119176
2.57653e-05
-0.00121752
-5.79058e-06
2.16043e-05
6.54455e-06
-5.14116e-05
0.000167146
0.000227417
0.000381225
6.76827e-05
-0.000448908
-4.84028e-05
-0.000177685
0.000227556
0.000222831
6.08769e-05
5.20762e-05
-5.74406e-05
0.000115179
-5.77385e-05
-1.65362e-05
1.55878e-05
9.48413e-07
0.000573011
0.000337808
0.000970376
0.00246438
3.61768e-05
-9.62804e-05
-8.55593e-05
-2.63679e-06
3.31329e-05
4.77119e-05
-6.90831e-05
1.65144e-05
-0.000540819
0.000468365
7.24521e-05
8.0498e-05
-0.00012465
4.41522e-05
-2.53325e-05
3.7761e-05
-3.69367e-06
-1.47404e-05
-0.000453505
8.85846e-05
1.0915e-05
-0.000602205
1.62835e-05
2.37495e-05
-4.00323e-05
0.00011089
-5.28337e-05
-5.80569e-05
-0.000243646
5.31913e-05
0.000190454
2.61789e-05
-3.35627e-05
7.38308e-06
0.000438206
-3.88522e-06
-0.000434321
2.96416e-05
-0.000176179
0.000176178
0.000199201
5.72118e-05
-9.50819e-05
0.000135364
-4.02818e-05
-4.77466e-05
-0.00012038
0.000168129
0.0012191
-0.00152717
6.87227e-06
0.000309722
0.000147718
-3.80232e-05
-0.000109692
-3.76874e-05
-4.62535e-05
-0.000116544
5.91036e-05
-2.68019e-05
2.48304e-05
1.99738e-06
-3.80139e-05
0.000165385
4.6975e-05
-4.5392e-05
-1.58198e-06
-0.000133024
0.00011754
-7.61744e-06
-7.48572e-05
8.24762e-05
-5.17721e-06
-1.74449e-05
0.000118115
-4.29531e-05
-7.51603e-05
-5.14071e-05
-0.000489413
1.8272e-05
-1.90354e-05
7.63723e-07
8.90729e-06
3.66412e-06
-0.00202123
-0.000782331
4.07749e-05
-3.7878e-06
-3.69868e-05
-0.000440721
0.000277456
0.000163267
-9.08667e-05
-6.07567e-06
9.69428e-05
-0.000122252
2.76518e-06
0.000119487
-0.000106919
4.113e-05
6.57895e-05
-0.000197721
8.84716e-05
0.000109247
9.47759e-05
9.68601e-05
2.8323e-07
1.90485e-06
-2.18817e-06
0.000141786
-7.51473e-05
-6.66379e-05
2.23404e-05
-6.26538e-05
0.000155202
-0.000167447
1.22444e-05
0.000139145
-8.02453e-05
-0.000118926
0.000185751
-6.68254e-05
-0.000214174
-0.00018854
-4.38527e-06
4.66865e-06
-0.000646259
0.00147807
-0.00083181
0.000160191
-0.00011489
-4.53028e-05
0.000495575
-0.000527026
3.14353e-05
0.000655012
-0.000776202
0.000121219
-0.000773776
0.00052936
0.000244433
-0.000523823
0.000299738
0.000224082
-0.000115057
-8.26663e-05
0.000149418
-0.000334081
0.000184667
-0.000267502
0.000429026
9.17929e-06
2.0713e-05
2.71577e-05
-4.78766e-05
-3.4973e-06
0.00028863
-0.000285133
-6.76435e-05
0.000150827
-8.31832e-05
-0.000138671
-0.000698498
0.000579562
0.00025788
-0.000240625
-1.72555e-05
3.67675e-07
-4.98989e-09
9.47537e-05
-1.69532e-05
-7.78025e-05
-0.000175328
0.000790705
-0.000615364
0.000341102
0.000654647
-6.51888e-05
2.53235e-05
3.98653e-05
0.000272432
-0.000220303
8.55993e-05
-0.00015344
6.78413e-05
0.000562864
7.05335e-05
-0.000633472
-1.06561e-05
-0.000103822
0.000114478
-0.000317162
0.000251126
0.000491331
-0.000304757
-0.000186574
1.34454e-05
-1.80813e-05
3.14936e-05
7.93972e-05
-0.000118764
-3.05984e-05
3.56816e-05
-5.08127e-06
-3.52338e-05
-0.000166942
3.07685e-07
3.20333e-05
-3.23401e-05
-9.88604e-05
-8.60386e-05
-3.08426e-05
9.05402e-05
0.000162755
4.92722e-05
-0.000212017
2.83202e-06
3.7944e-05
4.77223e-05
-0.000134401
8.66796e-05
-2.91229e-06
2.59013e-06
3.23936e-07
0.000592214
-0.00107619
0.000483968
-3.19135e-05
-3.32752e-05
-0.000295947
-0.000227879
0.000746275
-0.00234704
0.00160077
-0.000115749
-0.000529828
0.000394378
-0.000489609
9.52316e-05
7.07584e-05
4.73553e-05
0.00154134
0.000432175
3.83042e-05
-6.51012e-05
0.000719429
-0.00101403
0.000294595
-8.28234e-06
4.81501e-05
-3.20727e-05
-1.60804e-05
2.4006e-05
0.000131198
-0.00113002
-0.000701158
5.79986e-05
-0.00013052
7.25217e-05
-0.00119187
0.0020521
-0.000860285
-1.70867e-05
8.74999e-05
-7.0413e-05
-3.34394e-05
-4.83488e-05
0.000106348
1.71042e-05
-1.58841e-05
-1.22007e-06
-2.60473e-06
-3.07103e-07
-9.31005e-05
7.60139e-05
5.51163e-05
0.000355775
-0.000410895
-3.35466e-07
-1.81995e-05
3.83316e-05
9.90238e-06
-4.82339e-05
-9.48653e-05
-0.000120439
0.000146679
-7.42271e-05
-7.24511e-05
5.70978e-05
0.000773689
-3.17208e-05
-2.69738e-05
4.76812e-05
0.000274107
-0.000767455
0.000679845
8.7608e-05
0.000255686
2.19282e-06
7.32412e-05
8.30122e-06
0.000304178
-0.00031248
0.00116724
-0.00178581
-0.000312507
0.000204269
0.000108237
-0.00164328
0.00045137
-0.00019843
7.00472e-05
4.939e-05
-0.000119437
0.000166064
-0.000158173
-7.89192e-06
-0.000156778
1.74199e-05
-0.000108287
0.00108687
-0.000987955
4.08547e-05
1.37105e-05
-5.45653e-05
-7.86492e-05
9.60688e-05
-1.25035e-05
2.06559e-05
-8.1525e-06
0.000260265
0.000392177
-0.000652456
3.52467e-05
0.000305037
-0.000596949
0.000291907
-0.00015494
0.000186119
-3.11725e-05
5.74395e-05
-3.11811e-05
-2.62584e-05
-0.000327442
0.000250143
-0.000201644
-0.000150451
-0.000118185
0.000109895
1.8011e-05
-0.000136937
-7.34722e-05
0.0001565
-8.30161e-05
0.000847732
-0.000640143
-0.000207593
2.22565e-05
-3.12889e-06
0.000757921
-0.000228548
4.188e-05
0.000104801
-0.000117027
3.45732e-06
0.000113571
2.19751e-05
-9.56501e-05
7.36759e-05
0.000125528
-8.78772e-05
-3.76507e-05
0.000234035
-0.000118352
-0.000115683
-8.65069e-05
8.24579e-05
-3.47358e-05
0.000110545
-0.000158295
6.08351e-05
6.64209e-05
5.01924e-06
-1.01724e-05
5.15021e-06
0.000243901
-0.00030447
6.05709e-05
-1.4358e-05
-3.15293e-05
4.58859e-05
-0.000209551
0.000928981
0.000185359
-0.000142007
0.00398028
-0.00229327
-0.00168713
4.547e-05
3.90648e-05
-0.000200072
0.000230599
-3.0529e-05
-5.84046e-05
0.000221166
-0.000252698
-5.03801e-05
0.000303084
-3.53928e-06
2.31591e-05
-1.96198e-05
-0.000113428
8.95681e-05
0.000272835
-0.000261069
-1.17476e-05
0.000100257
-1.43224e-05
-8.5941e-05
0.000542946
-0.000281644
-0.000261384
0.000373919
-0.000524566
0.000150646
-0.000225289
0.000176891
-0.000372328
0.000677365
-5.18558e-05
-3.41461e-05
8.60017e-05
3.4845e-05
0.0011655
-0.000877609
-0.000287948
0.000156686
-2.62124e-05
-4.06668e-05
1.63917e-05
8.20624e-05
-0.000155559
0.000136023
-7.99671e-05
-5.60557e-05
0.000226421
-0.000419886
0.000193404
-6.37949e-06
4.4711e-05
3.88128e-05
-4.17564e-05
2.94478e-06
-7.25266e-05
3.68807e-05
-6.47937e-05
0.000285295
-0.000220497
-2.31534e-05
-0.000402992
0.000426146
8.96738e-07
-5.84668e-07
-0.000241747
-0.000198974
-2.89044e-05
-2.52514e-06
-9.61505e-05
-2.63416e-05
0.000122494
-7.8407e-05
-2.05925e-05
8.08856e-06
7.76376e-05
-4.542e-05
-3.22166e-05
-4.71462e-05
-0.00266669
0.00145724
0.00120948
4.3132e-05
5.02602e-05
-9.33912e-05
0.000324482
-0.000175065
3.20451e-05
0.000530828
1.36925e-05
-0.000147074
0.000133381
-7.42522e-05
2.43618e-05
4.98906e-05
5.06157e-05
-2.60071e-06
8.01842e-05
7.92166e-05
0.00137329
-0.000227213
-0.00114606
4.96503e-05
-6.84638e-05
-0.000135949
0.00015231
-1.63604e-05
-1.21389e-05
-1.97175e-06
-0.00182273
0.00327013
-0.00144733
4.45024e-06
-5.23148e-06
7.81262e-07
0.000136118
-0.000111764
-2.43505e-05
-0.000152066
5.16458e-05
0.000100422
1.79366e-05
-1.51537e-05
0.000500888
-0.000676206
2.00526e-05
-8.83605e-05
6.83054e-05
2.03592e-05
0.000253151
-2.02413e-05
-0.000232911
5.15686e-05
0.000133791
2.3536e-05
-7.41107e-06
0.000339578
-0.000270683
-6.88835e-05
8.42786e-05
-5.3808e-05
-8.53574e-05
0.000139164
5.52177e-05
1.53665e-05
0.00124874
0.000124546
-3.92324e-05
-0.0001285
0.000167747
-6.09754e-05
-2.46703e-05
8.56456e-05
6.11836e-06
-0.00044001
-0.000326916
1.78944e-05
0.000309023
3.26167e-05
-8.44724e-05
9.50627e-05
-0.000127243
3.21793e-05
-0.000206809
-0.000119517
0.000326328
8.8681e-05
-6.67078e-05
-4.74691e-05
3.31098e-05
0.000134469
-1.32885e-05
0.000161367
-9.55833e-07
-3.2209e-07
5.34189e-06
0.00136596
-0.000117207
3.60261e-05
-5.7544e-05
2.15224e-05
-0.000361123
-3.61858e-05
0.000397306
-3.80782e-05
2.43825e-06
4.33743e-05
-4.05678e-05
-2.80646e-06
1.40503e-05
9.48564e-06
0.00029452
2.99034e-05
3.73807e-06
-5.37934e-06
1.64134e-06
-2.81228e-05
-4.68346e-05
0.000334277
0.000513438
-0.000516987
0.000433142
8.38461e-05
3.14156e-05
-0.000103855
7.24426e-05
-0.00169783
0.000603929
0.000124764
-0.000106753
-4.29483e-05
2.40525e-05
-0.000789202
0.000657588
0.000131606
-6.491e-06
-0.000132039
0.000210702
-0.000275495
-0.000103338
2.07845e-05
8.25543e-05
2.2169e-05
-0.000251761
0.000229593
-4.30285e-05
2.49059e-05
1.81222e-05
-0.000141216
-8.40688e-05
-1.1071e-08
-5.36715e-06
5.37824e-06
-0.000374385
0.000120813
0.000253578
-1.23744e-05
-9.72745e-05
0.000444294
-0.000347022
0.000259796
7.24806e-05
-0.000332277
0.000542333
7.63457e-05
-0.000618678
-2.57748e-05
0.000121166
-9.53923e-05
-7.22791e-05
2.70083e-05
0.000114385
-0.000141397
-8.3977e-05
-0.000284584
-0.000774852
0.00060325
0.000171594
0.000712159
-8.67374e-05
-8.91217e-06
2.56092e-05
-0.000421466
0.000190031
-0.000476862
0.000184636
-0.000691419
0.00109187
5.94102e-05
0.000326672
-0.000270184
2.95576e-05
0.000110838
-9.28566e-06
0.000157003
0.00106704
9.842e-05
4.51579e-05
0.000217076
2.02573e-05
3.7182e-05
7.40579e-05
5.48245e-05
-0.000128882
-0.000588829
2.87556e-05
0.000560072
-0.00173944
-0.000207687
0.00194713
0.000211385
-8.18442e-05
0.000325667
0.000283362
-0.000609021
2.10923e-06
-2.09525e-05
1.88433e-05
-2.76689e-05
-8.93602e-05
0.000177564
0.000137421
0.000215362
-0.000352782
2.04038e-05
-5.47317e-06
-1.49305e-05
0.000214445
-0.000161867
-5.25881e-05
-8.27754e-07
0.000118025
-4.69085e-05
-7.11156e-05
0.000119792
-0.000130448
-0.00159338
0.00233965
-0.000244473
-2.57113e-05
8.09878e-05
-2.03464e-05
-7.08679e-05
-5.55364e-05
0.000126404
0.000366615
0.000124716
4.28399e-05
-7.45526e-05
3.17158e-05
7.54946e-05
8.46973e-05
4.0939e-05
-2.12584e-06
-1.97009e-05
1.61616e-05
-4.63714e-05
5.81552e-05
-1.17815e-05
-0.00015791
0.000188917
-3.10022e-05
-9.53662e-05
0.000162502
-6.71371e-05
-0.000771107
0.000781406
3.02109e-05
0.000513937
-0.000119559
-8.38855e-05
-0.000384825
0.000468656
-3.75188e-06
2.27366e-06
0.00111088
0.00133265
-0.00244351
0.00014674
-0.00013866
-8.078e-06
-1.53165e-06
-0.000128182
0.000129713
0.000306817
-0.000771593
-6.24352e-05
7.83591e-05
4.29057e-05
4.0689e-06
2.68757e-05
2.12743e-05
-7.80244e-05
7.47768e-06
0.000997767
-0.000258791
-4.21262e-05
5.89088e-05
4.63497e-05
3.24989e-06
-4.96012e-05
9.53858e-05
8.30905e-05
-3.0255e-05
1.66284e-05
2.20971e-05
-8.04657e-06
-3.10711e-05
4.35822e-05
3.0225e-06
9.68151e-05
-9.98363e-05
-0.000121924
0.000135614
0.00234603
-0.00416864
3.29728e-05
-0.000168921
4.42778e-05
-9.03496e-07
0.000191985
3.9778e-05
7.82473e-05
-0.000167198
0.000123752
-2.56361e-05
4.3335e-05
-1.76989e-05
0.00041643
-0.000900854
0.000484439
-0.000413744
0.000390592
5.27959e-05
-3.25384e-05
-0.000160388
0.000270288
-0.000109901
-0.000551579
0.000470279
1.0464e-05
8.25087e-05
-9.29755e-05
0.000170158
-7.47725e-05
-7.3376e-05
7.39589e-05
-5.82127e-07
-3.13321e-05
0.000138628
0.000282019
-0.000285516
0.000163816
-6.199e-05
-0.000101826
0.00189509
-0.00377258
0.00187747
4.07781e-05
-6.27391e-05
0.00112542
-0.000225133
-0.000420299
0.000645434
-0.000409488
1.28912e-05
0.000396596
0.000121552
-2.64887e-05
-3.2258e-05
0.00043891
0.000614135
-0.000575951
-3.81972e-05
9.23471e-05
8.67991e-05
-0.000179151
1.52464e-05
0.000151582
-0.000183195
-0.000129312
4.32237e-06
-3.67916e-05
-4.86223e-05
0.00136383
2.13481e-06
-0.00144365
-0.00122303
-5.91631e-05
-7.54259e-05
-2.54555e-05
0.000141031
-0.000115576
0.00137637
-8.56862e-05
2.8245e-05
-0.000139573
0.000681905
-8.56546e-05
-1.76834e-05
3.24748e-05
-0.000250232
0.000217755
0.000184495
-1.843e-05
-8.42875e-05
0.000176631
-0.00027281
0.000533043
-3.47236e-05
5.82054e-06
-0.000411951
0.000718765
-0.000169081
0.000232931
-6.38498e-05
-0.000240249
0.000565932
0.000131304
-0.000484651
0.000353343
0.000581441
0.000416336
6.10706e-05
-2.03867e-05
-4.06824e-05
-0.00030708
0.000366491
-0.000160769
6.85677e-05
9.22043e-05
-0.000494133
0.000629238
-0.000135101
-1.98697e-05
-5.511e-05
4.08295e-05
1.42802e-05
0.000241411
-0.00218476
-0.00179836
0.00398311
4.9347e-05
-3.59149e-05
-1.34308e-05
-0.000483147
-0.000146786
0.00062993
0.000506761
-0.000112093
-0.000394666
2.46321e-06
1.79407e-05
-0.00041918
0.00101139
-5.44815e-05
7.45731e-05
2.73599e-05
-0.000101933
0.000149093
-0.000233518
8.44276e-05
-0.000149766
-0.00040886
0.000558625
4.492e-05
4.42751e-06
-0.000138489
-0.000130765
0.000269251
7.58153e-06
-5.94728e-05
4.86156e-05
-7.52046e-06
-4.10955e-05
4.49944e-05
-2.08907e-06
-0.000128962
0.000169342
-4.03806e-05
1.86417e-05
4.12271e-05
-1.36686e-05
-2.75585e-05
-0.000409997
0.000326098
2.60976e-06
-2.62093e-06
-0.000133149
-4.9323e-05
-3.89177e-05
8.82399e-05
-0.00022987
-0.000246974
3.97344e-05
0.000142742
-0.000182475
4.25339e-05
1.85386e-05
-1.37784e-05
3.98145e-05
0.000110924
-0.000249414
6.85056e-05
1.89944e-05
-0.000126784
9.37854e-05
3.29983e-05
-8.37054e-05
2.30989e-06
0.000143011
4.31127e-05
-0.00139404
0.00074779
9.24146e-05
-8.9392e-05
-0.000141765
-6.47818e-05
0.000206552
0.000227988
0.00428929
-0.000921318
-8.63794e-05
0.000113388
-1.51257e-06
4.03516e-05
-3.8839e-05
0.00018058
-3.75669e-05
8.27752e-05
0.000102976
-0.000870557
0.000145204
-0.000151816
-4.04535e-05
-1.66001e-05
5.70535e-05
-3.56426e-06
7.10766e-05
1.61118e-05
-0.000208839
0.00038391
-0.000175077
-0.000260575
3.22937e-05
-8.24697e-05
7.01598e-05
1.23101e-05
-9.55487e-05
2.77644e-05
0.000169524
-1.93219e-05
-0.0001502
2.55325e-05
0.000120559
-7.55978e-05
-8.10715e-06
7.59858e-06
3.43612e-05
-4.19608e-05
-2.06076e-05
1.92334e-05
1.37458e-06
-4.09048e-05
6.09553e-05
5.23994e-05
-1.82727e-05
-3.41296e-05
-0.00138227
0.00052234
0.000859941
0.000240385
-0.00014435
-9.60362e-05
-0.000124901
8.68832e-05
0.000882098
-0.000465651
-1.36035e-05
-5.97721e-05
-0.000157048
0.00012918
-6.46472e-05
0.000469979
-0.000338667
-7.83519e-05
-4.84327e-05
0.00257544
-0.000105096
0.000207758
-0.000102678
1.86235e-05
8.4151e-06
-2.70384e-05
8.60381e-05
0.000383943
-0.000114287
0.00043887
-0.000401106
-3.77639e-05
0.000801527
-4.35936e-05
-0.000102368
0.000152594
-5.02298e-05
-0.000177192
-0.000181181
0.000358377
-0.00015455
-9.72572e-05
0.00025178
7.63374e-06
-0.000114644
0.00010701
4.49209e-05
7.40113e-05
-0.000118935
7.77667e-05
-0.000470491
0.000392725
-2.94024e-05
0.000117928
-8.8529e-05
3.42735e-05
-5.79819e-05
2.37086e-05
-0.00242182
0.00343318
-0.00101134
0.00286547
-1.88152e-05
-1.79229e-06
-0.000149791
0.00155402
-0.00102745
-0.000526542
0.00172651
-0.00095391
-4.43782e-05
0.000147663
-0.000189094
-0.00140705
0.00278259
-0.00137554
0.000358902
-0.000285073
-7.38309e-05
-0.000111241
0.000368342
-0.000257102
0.000129302
-0.00099348
0.000864126
0.000529307
-0.000449626
0.00010538
-0.000259947
2.277e-05
1.02935e-05
-3.30633e-05
0.00015095
-0.00012943
-2.1512e-05
-8.52983e-05
0.000234389
1.11159e-05
-5.28385e-05
4.17217e-05
-2.1596e-05
9.61691e-05
0.000591639
-0.000333527
-0.000258112
0.000175724
-8.09503e-05
-0.000325664
0.000118861
0.000196044
-0.000326102
0.000130053
-0.000133128
5.47769e-05
-0.000793671
0.00151234
-0.00071868
1.89871e-05
0.000149739
2.85667e-05
0.000858885
0.000269376
0.000215509
-0.000484879
0.000205551
0.000165488
-0.000371035
7.03565e-07
-1.74484e-07
7.93934e-05
2.14069e-05
-1.92977e-05
0.00151282
-0.000321063
-6.55805e-05
-0.000295547
-1.86612e-05
8.13959e-06
-9.57163e-05
-0.000511007
-3.93328e-05
0.00116933
-0.000293639
-0.000875688
0.000632384
0.000169147
0.00026607
2.04356e-06
0.00022441
-0.000226455
3.01969e-05
-2.38983e-05
-6.30005e-06
-7.12831e-06
-0.000411842
-9.33706e-05
0.000301232
4.57831e-05
0.000174433
-0.000220219
1.1871e-05
1.83255e-05
-5.03809e-05
9.92737e-06
-2.16789e-05
4.44121e-05
-2.27329e-05
-7.33648e-05
0.000118286
-0.000258026
-2.54995e-06
-2.5577e-06
-4.45721e-05
-1.60063e-06
5.33861e-06
-6.64293e-06
0.000109885
-2.42858e-05
7.21955e-05
-3.54433e-05
-3.67524e-05
0.000235322
0.000378805
-3.73598e-05
3.58472e-05
0.000172981
-9.02066e-05
4.44048e-05
-3.99287e-05
-4.47487e-06
9.57703e-05
7.9956e-05
-0.0019908
-0.000326258
0.00231704
0.00189265
-0.000349371
-0.00154328
8.7561e-05
-0.000232575
0.0003928
-0.000231408
0.00110714
-0.000875732
0.000102286
-7.53329e-06
0.000759503
0.00032737
-7.84764e-05
-7.49621e-05
-5.55192e-05
-0.000112142
0.00016766