/*--------------------------------*- C++ -*----------------------------------*\
| =========                 |                                                 |
| \\      /  F ield         | OpenFOAM: The Open Source CFD Toolbox           |
|  \\    /   O peration     | Version:  v2012                                 |
|   \\  /    A nd           | Website:  www.openfoam.com                      |
|    \\/     M anipulation  |                                                 |
\*---------------------------------------------------------------------------*/
FoamFile
{
    version     2.0;
    format      ascii;
    class       volScalarField;
    location    "150";
    object      k_0;
}
// * * * * * * * * * * * * * * * * * * * * * * * * * * * * * * * * * * * * * //

dimensions      [0 2 -2 0 0 0 0];


internalField   nonuniform List<scalar> 
18649
(
0.00847732
0.000105818
9.24372e-05
0.0206241
0.00118366
0.000101519
0.0882022
0.000579106
0.000126993
0.00010925
0.000445077
0.0343555
0.047176
9.26248e-05
0.000121975
0.000111118
0.000110841
0.000111177
0.000504289
0.0655943
0.0518804
0.000103446
0.0182402
0.000384098
0.000112093
0.0622499
0.000105095
0.0358434
0.0061252
9.61905e-05
0.000101532
0.000195186
0.000125345
0.000107449
0.000108759
0.0149615
0.000110039
0.000109274
0.000100504
0.00052339
0.000131454
0.00036144
0.000134394
0.0317621
0.000105762
9.5982e-05
0.0400032
0.0216267
0.0530205
0.000103398
0.073998
0.0001058
0.081488
0.0943395
0.000125827
0.0555791
0.0508112
0.000153818
0.0209534
0.000109417
0.00860366
0.000122423
0.000133414
0.0236064
0.000109136
0.0255786
0.000102272
0.0524228
0.0206281
0.00099877
0.0283867
0.000120572
0.000206352
9.85621e-05
0.000107397
0.0503788
0.000123508
0.000109071
9.84235e-05
0.00112156
0.000110436
0.0371106
0.023961
0.0837923
0.000172767
0.000100341
0.000112285
0.000105028
0.000118368
9.93248e-05
0.000101303
0.000111379
0.000112207
0.074729
0.000103681
0.000381495
0.000109416
0.000630776
0.0204244
0.000105245
0.0180321
0.000133547
0.000107372
0.0758184
0.0193068
0.000105897
0.000138906
0.000101228
0.000134869
0.000107625
0.0167783
0.000276521
0.000112496
0.000107674
0.000332185
9.33138e-05
0.000126568
0.0630453
0.030839
9.98965e-05
0.0205021
0.000106575
0.000196848
0.000120841
0.0442417
0.000111462
0.000149317
0.0668213
0.000106635
0.0649932
0.000115554
0.0250088
0.000111427
0.0240197
0.000110733
0.000141129
0.0264769
0.0520084
0.000101
0.000108507
0.0127836
0.000107563
0.000103328
0.000120037
0.000136481
0.039501
0.000103047
0.000126647
0.0186858
0.0194837
0.00168243
0.000142438
0.0231626
9.71834e-05
0.000107112
0.000120364
0.000578583
0.000876116
0.000125857
0.000113512
0.000128542
0.00521202
0.0221519
9.7401e-05
0.0456639
0.000333839
0.000138501
0.000119276
0.000106848
9.33127e-05
0.000115749
0.0286357
0.000147538
0.00119454
0.000109047
0.0947254
0.0165132
0.000105635
0.000126291
0.00163566
0.00312164
0.000100007
0.000145359
0.0458337
0.000103214
0.000110505
0.000137233
0.000107103
0.000104495
0.000115936
0.0480111
0.000108523
0.0101359
9.77328e-05
0.000108366
0.000139719
0.000111692
0.000158546
0.000107382
0.000146871
0.000127284
0.000243819
0.0518654
0.000109662
0.000120619
0.000219869
0.0142185
0.0417519
0.00010139
0.0102339
0.000112726
0.000105597
0.00010717
0.0078289
0.025108
0.000103727
0.0001534
0.000108978
0.0443933
0.000111812
0.000162306
0.000109225
0.0414348
0.0300796
0.0677916
0.0713993
0.000103417
0.000112034
0.0813222
0.0906382
0.00010441
0.000111758
0.0175645
0.000111133
0.0675558
0.00513508
0.000501146
0.00109693
0.000111745
0.0143282
0.000105415
0.0424165
0.000104279
0.000100349
0.000107586
0.000116086
0.0745056
0.000113694
0.0722189
0.000155272
0.0188108
0.0866455
0.00010975
0.000108606
0.000103257
0.0335608
0.000109538
0.000112955
0.000107721
0.00010754
0.000103436
0.000260788
0.0112917
0.000113659
0.000108953
0.0357209
0.0976454
0.000140264
0.0480478
0.00010638
0.0378814
0.000242643
0.0793633
0.0761291
0.000532471
9.74922e-05
0.000109286
0.035351
0.0723084
0.045852
0.00013652
0.000109383
0.0248143
0.000105574
0.0753906
0.019134
9.68208e-05
0.000124625
0.000142731
9.85399e-05
0.00015357
0.0214851
0.0931372
0.00969033
0.00957874
0.000107242
0.00277063
0.00871249
0.000108001
0.0969922
0.000124828
0.000107453
0.0001096
0.000120881
0.000100228
0.00113541
0.000141741
0.000117469
0.00125488
0.000107443
0.0605877
0.000109232
0.0313574
0.00012235
9.70211e-05
0.000111487
9.6426e-05
0.000147551
0.0242002
0.0368184
0.000140326
0.000129169
0.000131347
0.000143988
0.000121351
0.000103447
0.000137185
0.000113815
0.0643797
0.000215687
0.0108142
0.000119704
0.000131245
0.000132369
0.000124777
9.15581e-05
0.0441375
0.000108558
0.0306593
0.00011013
0.00554518
0.000125102
9.52807e-05
0.000107024
0.000101517
0.000123946
0.000141399
0.000105827
0.000100759
0.000111187
0.000122823
0.0464536
0.00012244
0.000103539
0.010461
0.0573256
9.64155e-05
0.0571084
0.00388692
0.044768
0.0915203
0.000101536
0.0899939
0.000122032
0.0671036
0.0590675
0.000109373
0.000108126
0.000108205
0.000101623
0.000108186
0.000103603
0.000124831
0.0463062
0.000114446
0.065791
0.0108349
0.00500774
0.0725038
9.76901e-05
0.000148267
0.000103872
0.000112863
0.0502045
0.000147009
0.000142918
0.0262875
0.0942103
0.000100878
0.000103491
0.011866
0.000131163
0.000112342
0.0643899
9.24568e-05
0.000108076
0.0143477
0.000100958
0.000143113
0.0452758
0.0457556
0.000109485
0.000116656
0.000131445
0.0461867
0.0453598
0.000108758
0.0160261
0.000105379
0.000107185
0.0861269
9.93037e-05
0.0658972
0.000101065
0.000325674
0.0691958
0.0520874
0.0962606
0.000113155
0.0400817
0.000121697
0.0308045
0.000170945
0.065271
0.0921954
0.000103979
9.04434e-05
0.014865
0.0456369
9.54415e-05
0.0754425
0.000100965
0.000103836
0.00011012
0.066326
0.0507563
0.0272863
0.000101266
0.000111501
0.0284226
0.0259084
0.000108021
0.000107546
0.000103765
0.000105057
0.0459026
0.0649334
0.000127035
9.45804e-05
0.0167372
0.000101193
0.0125006
0.000103608
0.0043393
0.000129271
0.0661503
0.000109344
0.0941793
0.00950431
0.000105822
0.000126763
0.000103782
0.000120024
9.75027e-05
0.000114601
0.0001058
0.0316301
9.86412e-05
9.91327e-05
0.0249878
0.000106288
0.000141012
0.0190676
0.000113524
0.0341801
9.64654e-05
9.60216e-05
9.40786e-05
0.000100369
9.23004e-05
0.000148866
0.00789086
0.000106906
0.000128045
0.000130223
0.000105107
0.0309215
0.000147995
0.0836237
0.000103339
0.0896974
0.0422801
0.0421561
0.0133565
0.000100597
0.00018761
0.000104361
0.0141418
0.00011315
0.000277059
0.000107345
0.000656595
0.000275026
0.000150862
0.000143542
0.0066005
0.000328337
0.0870524
0.000101876
0.0170175
0.000107967
0.000164186
0.000129582
0.000182742
0.0298293
0.000140971
9.46269e-05
0.0412211
0.000101195
0.000599574
0.000101962
0.000101648
0.000105064
0.000109202
0.000113865
0.00126199
0.000147201
0.0917035
0.000101749
0.0135354
0.0299229
0.0744751
0.0286351
9.91573e-05
0.0524973
0.000120062
0.073413
0.00949198
9.92784e-05
0.000131183
0.000304568
9.70368e-05
0.000906739
0.000107871
0.000139705
9.72163e-05
0.000128199
0.000147949
0.000107664
0.0784748
0.000106136
0.000106781
9.94811e-05
0.000103973
0.00891808
0.0731035
0.000112951
0.000133342
0.00147328
0.00015242
0.000130103
0.0493747
0.0878061
0.0613533
0.000976216
0.000104508
0.000103488
0.000101532
0.000100984
9.62941e-05
0.00790832
0.000113715
9.61024e-05
0.000100384
0.0646412
0.0643099
0.0409846
0.000108109
0.000116928
0.0452547
0.0267437
0.0487888
0.000105535
0.000140524
0.0541172
0.000125479
0.0409129
0.000104084
0.000108357
0.000109949
0.0109561
0.0204116
9.66512e-05
0.0010914
0.000109852
0.000107374
0.00652818
0.0054814
0.00011826
0.074468
0.000101311
0.0788744
0.000107271
0.0858375
0.000108742
9.66531e-05
0.000117682
0.0649467
0.000125706
0.000127796
0.00013614
0.0337906
9.5693e-05
0.0426046
9.92278e-05
0.000108741
0.0846215
0.000101517
0.000124772
0.000144913
9.79914e-05
0.000127434
0.000107028
0.000115992
0.0166171
0.012251
0.040793
0.000146621
0.0334502
0.000102991
0.00188736
0.000109906
0.000100512
0.000103164
0.000109247
0.0254312
0.000109759
0.000192762
0.000167773
0.000124549
0.000108166
0.000109629
0.000107793
0.0901044
0.000122798
0.000112252
0.000106924
0.0713219
0.000146805
0.000108264
9.30522e-05
0.000106502
0.0145747
0.000302915
0.029907
0.000105698
0.0862957
0.000101216
0.00010093
9.77377e-05
0.0193876
0.000100605
0.000102581
0.0917694
0.0936516
0.000126387
0.025585
0.0620651
9.92541e-05
9.55856e-05
0.00014082
0.000110223
0.000118675
0.0534678
0.028951
0.00889995
0.0925391
0.000120144
0.0740587
0.000118924
0.000119331
0.000101014
0.0226137
0.000106179
0.000108708
0.0548247
0.025952
0.00010006
0.0154219
0.000105908
0.000127057
0.0963418
9.85385e-05
0.00824272
0.000107322
0.00250591
9.29551e-05
9.58052e-05
0.000148382
0.000793986
0.000108007
0.0247619
0.0788215
0.000346536
0.0215674
0.0445309
0.000109517
0.0255905
0.0295457
0.000164459
0.000109832
0.000103263
0.0402145
0.0962226
0.0179887
0.000368991
0.000155061
0.000124447
0.000105832
0.0857468
0.00917461
0.000117371
0.000102952
0.0554625
0.0934016
0.062848
0.000240887
0.000121182
0.000108204
0.0315935
0.0494447
0.000112901
9.87552e-05
0.000109825
0.0557369
0.000130037
0.0405099
0.000154081
0.000126368
9.1866e-05
0.0301358
0.000121575
0.000103341
0.000116117
0.000115684
0.000114443
0.0331393
0.000302331
0.00498785
0.0917587
0.0277646
0.0604847
0.000148082
0.0290897
0.00010813
0.000101988
0.0134036
0.000123651
0.000114794
9.9602e-05
0.0446434
0.0708361
0.0417299
0.000118595
0.000108219
9.99049e-05
0.000101508
9.15777e-05
0.000106482
0.000123633
0.072389
0.000111498
0.000119562
0.000790817
0.0564684
0.000148256
0.000119819
0.0710412
0.038785
0.000117667
0.0207964
0.00991355
0.000110867
0.000107862
0.000135098
0.000105668
0.000255731
0.0206877
0.0453836
0.000102109
0.0768129
0.0452888
0.014511
9.54789e-05
0.0223754
0.000556834
0.0341739
0.00016848
0.0676486
9.97317e-05
0.0250211
0.0936834
0.0301093
0.000108798
9.41984e-05
0.000105975
0.0020161
0.000105069
0.000331806
0.00010718
0.00430363
0.000101561
0.0341032
0.0627704
0.000102841
0.010422
0.000146456
0.000220802
0.000183607
0.0716602
0.000120495
0.000322759
0.000302096
0.00251502
0.0636271
0.000113164
0.0705758
0.102011
0.000117811
0.0768395
0.000502855
0.000113399
0.0907792
0.0441548
0.00010585
0.000114403
0.0540942
0.000117731
0.0666697
0.000112172
0.000117119
0.000115177
0.000102774
0.00012007
9.41749e-05
0.059271
0.000149053
0.00010076
9.87923e-05
0.0946061
0.000127094
0.000120728
0.000100517
0.0671497
0.000108133
0.0178407
0.0291351
0.000108375
0.0789138
0.000106631
9.85364e-05
0.0844518
0.00178341
0.000109552
0.000115023
0.000107812
0.000105035
0.00588001
9.29321e-05
0.000122405
0.000117095
0.000141655
0.0410529
0.00013105
0.000108626
0.000127633
0.000102566
0.000105401
0.0308084
0.000115368
0.000108009
0.0300522
0.000115755
0.00866288
0.0478259
0.000105934
0.0731038
0.000135583
0.0360062
0.000132192
0.00018333
0.0146028
0.00276059
0.000108804
0.000121434
0.000181759
9.60806e-05
0.0248379
0.0407597
0.039834
0.0017165
0.000122516
0.000107359
0.000105332
0.0260492
0.031868
0.000115796
0.104481
0.053204
0.000107735
0.000228576
0.00360224
0.0385227
0.000100739
0.0292601
0.10231
0.0361607
0.047899
0.0877133
0.0278559
0.000122859
0.000127034
0.000108212
0.000113207
0.000119991
0.000105977
0.0449127
9.20005e-05
0.000147716
0.0371648
0.00885028
0.0688253
0.0001254
0.0679731
0.000393331
0.000190715
0.00014817
0.0197971
0.000119787
0.0936192
0.0641305
0.000139535
0.000151956
0.000113463
0.0873877
0.0418736
0.00551923
0.0299527
9.73232e-05
0.000107456
0.0277319
0.000223944
0.00894989
9.7148e-05
0.000121846
0.000128865
0.000105453
0.000132902
0.000112915
0.000106378
0.000108159
0.000107963
0.000110456
0.000486822
0.000114804
0.000104564
0.00011711
9.18395e-05
0.00156867
0.080748
0.0543094
0.0282184
0.090734
0.00789295
0.00570701
0.000107876
0.000155063
0.0310809
9.2926e-05
0.000118666
0.00012682
0.000101159
0.0181337
0.000207839
0.0469308
0.000149178
0.000105615
0.0341762
0.0386585
0.049631
0.00034979
0.0318046
0.000107204
0.000120818
0.00012442
0.000149359
0.000107547
0.000638491
0.0251214
0.000187038
0.00301602
0.0275608
0.0749155
0.000105152
0.000120512
0.000303295
0.000105797
0.000244051
0.0213255
9.84282e-05
0.102464
0.0711511
0.00115056
0.0296655
9.40443e-05
0.000103929
0.00010241
0.0433379
0.00010359
0.000132067
0.000110327
0.000108259
0.000121107
0.0432298
9.71498e-05
0.000147958
0.00011247
0.000710018
0.000107286
0.000101773
0.0204772
0.000108274
0.00325765
0.000109748
0.000117543
0.000107348
0.046859
0.000112519
0.000244603
0.027384
0.0897635
0.000101663
0.0747008
0.000113072
0.000101721
0.00011612
9.76015e-05
0.000183131
0.00010289
0.000103423
0.0434236
0.00197241
9.97019e-05
0.0496536
0.0419348
0.000117157
0.000111811
0.000101314
9.96941e-05
0.000109769
0.0940291
9.21432e-05
0.000121977
0.000109266
0.0773589
0.0254235
0.000107009
0.0889939
0.000108827
0.00981304
0.0550686
9.95347e-05
0.000138001
0.000463651
9.99119e-05
0.0978088
0.0765245
0.0255533
0.000122574
0.000142064
0.0433231
0.000118998
0.0328238
0.0482747
0.0697662
0.000113973
0.000128813
0.0815771
0.00010888
0.000104605
9.69302e-05
0.000104607
0.000108359
0.000108293
0.000110906
0.0360157
0.000146253
0.000126536
0.00417339
0.000128166
0.0677972
0.000122447
0.0528696
9.32539e-05
0.0330592
0.000271679
0.000125266
0.00247526
0.000114019
0.0436883
0.0765104
9.39377e-05
0.0313183
9.58933e-05
0.00012298
0.0125217
0.000104639
0.00451342
0.000109046
0.000138419
0.0619595
0.000101064
0.000173019
0.000130642
0.000105231
9.32815e-05
0.000106373
0.000131215
0.000110408
0.000102535
9.2751e-05
0.00010144
0.0880866
0.000127557
0.0112903
0.0202476
9.71253e-05
0.045843
0.000112175
0.000118242
0.0510378
0.0647234
0.00166563
0.042202
0.000107895
0.00010721
0.000119931
0.000117519
0.000108675
9.18312e-05
0.000131538
0.103128
0.000288262
0.000102893
9.78126e-05
0.0488054
0.0388514
0.000112968
0.0332052
0.000111595
0.000388213
0.0395632
0.047202
0.0729446
0.0514034
0.000122654
0.0327833
0.0097615
0.000119764
0.000116111
0.00012422
0.0808298
9.79116e-05
0.00207027
0.0718637
0.000109028
0.000108014
0.00012391
0.0799726
0.0616435
0.000122981
0.0302987
9.80382e-05
9.93932e-05
0.0210883
9.22672e-05
0.000123193
0.00936668
0.00010749
0.000174638
0.0436005
0.0972804
0.000107653
0.000148035
0.0379124
0.000167342
0.0294744
0.000113154
0.0745615
0.00183412
0.0193625
0.000137105
0.0485367
9.9754e-05
0.000105692
9.96976e-05
0.000127722
0.00022153
0.000118268
0.000113452
0.000148689
0.000104523
0.0582232
0.0492278
0.000136792
0.0947147
0.000282355
0.087312
0.0543114
0.0731022
0.000106939
9.93956e-05
0.00282267
0.000104877
0.000148674
0.000109554
0.000108011
0.000233725
0.00013493
0.0307601
0.0238246
0.000147226
0.000107428
0.00011691
0.000129152
0.000303245
0.0459688
0.00012361
0.0727654
0.0513107
0.000114417
0.0956299
9.09126e-05
0.0510457
0.000119694
9.34683e-05
0.0309187
0.0768734
0.000127518
0.0457456
0.000108325
0.0371953
0.000103411
0.000122837
0.0504426
0.000103473
0.00517714
0.0584288
9.53142e-05
0.000750112
0.00010486
0.0663728
0.0951442
9.74379e-05
0.056047
0.000110215
0.000126908
0.000129982
0.000207923
0.0253359
0.000105499
0.0290057
0.0332961
0.000119633
0.0902741
9.82604e-05
0.0427533
0.000117002
0.000289923
0.000109612
9.91517e-05
0.00013747
0.0332028
0.0304719
9.8427e-05
0.000167802
0.0705442
9.54405e-05
0.0001759
0.073013
0.0184859
0.0585238
0.0545919
0.000327142
0.000133971
0.00010138
0.000124826
0.0936978
0.0534159
9.29151e-05
0.000848937
0.0627723
0.000120218
0.0755882
0.000975859
0.0549743
0.0630866
9.88741e-05
0.04941
9.7592e-05
0.000278685
0.0542469
0.0938118
0.0905786
0.000305583
0.0329211
0.0326983
0.00010654
9.13831e-05
9.50473e-05
0.000103261
0.000121737
0.000109277
0.00424088
0.0506496
0.020899
0.000118755
0.0610333
0.05124
0.000295783
0.0023232
0.000100957
0.0559548
0.0268833
0.000121258
0.0121038
0.000319028
0.000115857
9.18252e-05
0.0370181
0.000104671
0.0807836
0.000107679
0.000106981
0.00010152
0.0481566
0.0118981
0.000114905
0.00291998
0.014568
0.0418945
0.0967343
9.10781e-05
0.000616173
0.0661311
0.00503749
0.000113694
0.000192448
0.044612
0.00474151
0.000122642
0.000145968
0.0658897
0.00139164
0.000151245
0.0855074
0.0746982
0.0345359
0.000124995
0.000116304
0.000129379
0.000150129
0.00783711
0.000108858
0.000112885
0.000974618
0.000220673
0.000134665
0.000128536
9.10559e-05
0.000115664
0.000164137
9.18458e-05
0.000306127
9.26722e-05
0.000130591
0.0216357
0.0735126
0.0940359
9.24569e-05
0.000102895
0.0653364
0.000105404
9.1375e-05
9.96779e-05
9.82868e-05
0.0134302
0.000121752
0.00011966
0.000109483
0.000139171
0.000116805
0.0232349
0.000104919
0.000267845
0.00159412
0.000118109
0.000149401
0.000103738
0.000264611
0.000188863
0.000147531
0.000130011
0.000156408
0.00362775
9.49275e-05
0.000157235
0.00010155
0.00536555
9.72865e-05
0.000159739
0.000101715
0.0119347
0.053651
0.000409919
0.000147205
0.035914
0.000118027
0.000111998
0.000257316
0.000147658
0.000121437
0.000167398
0.000111198
0.000120333
0.000112625
0.000133342
0.000119505
0.000128005
9.23441e-05
0.0187051
0.0655602
0.000104739
0.000109554
9.88369e-05
0.00041192
0.000142037
0.000135147
0.000109355
0.000123425
9.90288e-05
9.73125e-05
0.0945739
0.000131082
0.000186488
9.19708e-05
0.000109301
0.00010586
0.000274387
0.00012363
0.000116282
0.000106492
0.00010896
0.000111272
0.0409756
0.000115355
0.0320101
0.00321142
0.00013001
0.0631926
0.0398559
0.0331813
0.0199212
0.00010794
0.00011843
0.0109293
0.000303235
9.91955e-05
0.000108854
0.000106852
0.0134138
0.000118173
0.00011704
0.00014246
0.000147242
0.00104944
0.000115511
0.000105569
0.000128531
0.00011612
0.000107599
0.000121149
0.000105541
0.00863239
0.000183878
0.00012288
9.78363e-05
0.000123148
0.000115035
9.1559e-05
0.0265182
0.000116047
0.000109049
0.0646165
0.000235431
9.50153e-05
0.000124416
0.000107506
0.000122237
9.84451e-05
9.7e-05
0.000114205
0.0231793
0.000200137
0.070066
0.000436716
0.000126536
0.000116676
0.000182599
0.000107965
0.000903416
0.000116794
0.0504921
0.000115998
0.000112337
0.000109107
0.000314664
0.0804604
0.0200813
0.0927391
0.000121642
0.000108558
0.068093
0.0647527
0.0508501
0.0366503
9.52424e-05
0.000241507
0.000105648
0.000108047
0.00012939
9.88117e-05
0.000107031
0.00010434
0.0659467
9.99885e-05
0.000102267
0.03808
9.75332e-05
0.000109926
0.000125465
0.061738
0.000314783
0.000103036
0.000126366
0.000108058
0.000288024
0.00696153
0.000147334
0.000125705
0.000114638
0.0001898
0.000126533
0.0363268
0.000114283
0.0772653
0.000127682
9.24399e-05
9.1607e-05
0.000147902
0.000116334
0.000106836
0.045499
0.0784867
0.000147296
0.0636564
0.0167004
9.69758e-05
0.000115607
0.0840959
0.000919097
0.000289081
0.0239382
0.000119793
0.0001068
0.000110523
0.0747428
0.000110744
0.000219389
0.0465588
0.047401
0.000109968
0.000103126
0.00119766
0.000128133
0.000103359
0.000176967
0.00011128
0.074597
0.000146506
0.0193459
0.0194544
0.0612478
0.00012666
0.00718855
9.94113e-05
0.00099672
0.000112375
0.000219001
0.000115147
0.00326886
0.00201961
9.27839e-05
0.0117609
0.0310387
9.0848e-05
0.0146246
0.0001103
0.000104197
0.000112743
0.00123569
0.000113975
0.0944893
0.00308162
0.0656071
0.000146185
0.000130457
9.74328e-05
0.0798495
0.000109559
0.000131521
0.000119033
0.0102242
0.000101714
0.000169202
0.0254439
0.000115036
0.074819
0.000117142
0.000218567
0.000128149
0.000107835
0.000114858
0.000105044
0.000153711
0.000116353
9.50613e-05
0.000605016
0.000105035
0.0369256
0.00046719
0.000119556
0.0308664
0.000103311
0.0285327
0.027498
0.0821678
0.0700253
0.000110112
0.0031912
0.0942603
0.000104995
0.000108486
0.000102856
0.000142529
0.000107838
0.00050635
0.000116443
0.000124347
0.000237246
0.0725811
9.93833e-05
0.000217082
0.0141096
0.0930749
0.0441626
9.56438e-05
0.000111465
9.9148e-05
0.0658601
0.000405054
0.000247549
0.0188804
0.000109959
0.000100898
0.000108634
0.000116316
0.000102822
0.0619644
0.000118679
0.000103806
0.0713233
0.000105806
0.000152024
9.95422e-05
0.0840746
0.00010835
9.65064e-05
0.000128164
0.000107523
0.0909007
0.000107822
0.000106913
0.00723366
0.000117141
0.000114076
9.58316e-05
0.000119726
0.000293108
0.000120273
0.000229902
0.000110265
9.93109e-05
0.000119593
0.000159701
0.0455616
0.000167274
0.00546303
0.00010402
9.67158e-05
0.0353434
0.000135677
0.000104362
0.000109347
0.000104625
0.000106507
0.000106424
0.0107077
0.00360967
0.000208105
0.0737263
0.0131004
0.000123945
0.0198751
0.000279636
0.00265065
0.000107087
0.00010204
0.0801016
0.000111132
0.000102728
0.0478008
0.000111622
0.000120998
0.0798833
0.000202672
0.000136418
0.000111834
9.20172e-05
0.0215461
0.000733212
0.000115348
0.00010132
0.000120831
0.0580815
0.000308289
0.000124758
0.000128469
0.000135247
0.0678138
0.0280749
9.4899e-05
0.000119031
9.82738e-05
9.54276e-05
0.000103208
0.0262942
0.0373288
0.000104336
0.000126673
0.093774
0.000111319
0.000104671
0.000107626
9.69557e-05
0.000104807
0.0417723
0.000135626
0.000330867
0.0675702
0.00012716
0.000127159
0.000133535
0.034553
0.00010302
0.0538436
0.0108621
0.000944223
0.000148019
0.00250398
0.0395416
9.31438e-05
0.0679629
0.0252693
0.0940866
0.000104911
0.000114726
0.00232773
0.000105003
0.0592935
0.00071339
0.0588214
0.00011921
0.000109664
0.0452978
0.0717164
9.89039e-05
0.000131117
0.000132878
0.000132483
0.0302986
0.0346325
0.0896375
0.000127126
0.000105961
0.000147713
0.0313635
0.016806
0.000115015
0.0292835
0.000276145
0.0478057
9.85284e-05
0.000123954
0.0196435
0.0272332
0.000117709
0.00677771
0.000106921
0.000187206
0.000112415
0.000109233
0.000143161
0.00012164
9.79852e-05
0.0451866
0.056499
0.0598016
9.97195e-05
0.104915
0.000148695
0.00899371
0.000122417
0.0517396
0.0249624
0.000127876
0.00010213
0.000109276
0.000116359
0.000117768
0.00161247
0.0196588
9.19926e-05
0.00963513
0.000125896
0.000104367
0.0570939
0.0177213
0.000108615
0.000179449
0.0323104
0.0100521
0.00195178
0.00011256
0.000109251
0.000121795
0.000119669
0.000121236
0.0738696
9.1081e-05
0.000109108
9.22014e-05
0.000105833
0.000105405
0.000131551
0.00011045
0.000131835
0.0273319
0.00012328
0.000107283
9.73477e-05
0.0262133
9.43889e-05
0.000111548
0.000104328
0.000108921
0.0482896
0.000140573
0.000116568
0.000116533
0.000526229
0.000109314
0.000111961
0.0820297
0.000450391
0.0379246
9.99842e-05
0.0415858
0.0172035
0.000100018
0.000103959
0.0331202
9.35918e-05
0.00012627
0.000131022
0.00629321
0.0120238
0.0001052
0.000147543
0.0599633
0.000107939
0.000111896
0.000100901
0.079623
0.000120686
0.0292578
0.000147675
0.000119346
0.0372873
0.000105948
0.030043
0.000290679
0.00725453
0.000121851
0.000112139
0.000108238
0.000117885
0.000117336
0.051901
0.0384004
0.000100074
0.000148597
0.000102333
0.000105564
0.00129859
0.00901152
0.0656132
0.00011654
0.000137122
0.0489628
0.000138952
0.000137829
0.000106128
0.00864503
0.0329456
0.000901547
0.000102195
0.000200565
0.0292875
0.000148033
0.00016301
0.00010012
0.000107384
0.000111885
0.0395662
0.000101551
0.0787826
0.000131806
0.000108675
0.0155345
0.000108194
0.000135678
0.000108779
9.98068e-05
0.0129607
0.000118027
9.59958e-05
0.000117461
0.0986783
9.5799e-05
0.0619988
0.0321034
0.000118075
9.60199e-05
0.0485349
0.000102551
0.0593288
0.0763517
0.0690721
0.000167917
0.0397705
0.00360167
9.18584e-05
0.000114652
0.000151572
0.000126556
0.0910459
0.00010754
0.000187528
0.000111419
0.000122835
0.0753785
0.00012685
0.00011844
0.000110744
0.0340483
0.0194579
0.0339975
0.0735569
9.85036e-05
0.0526979
0.000133804
0.052792
0.0306906
0.000638306
0.000266037
0.00355594
0.0338927
0.055004
0.000114854
0.000208463
0.000104567
0.000104207
0.000107358
0.000107233
0.000109184
0.0750376
0.000111872
0.000741013
0.0031266
0.0146225
0.00465746
0.000111737
0.000104201
0.000105305
0.000120742
0.0117008
0.0201224
0.000218657
9.49471e-05
0.0881578
0.00103505
9.74091e-05
0.0293591
0.0356014
0.000126374
0.00011216
0.0119242
0.0736046
0.000107489
0.000103887
0.000119651
0.000101239
0.07503
0.00142239
0.000122491
0.000100993
0.0863168
0.000110106
0.000104274
0.000107832
0.0334813
0.000217213
0.00012409
0.0001009
0.000119353
0.000203651
0.000109086
0.0450536
0.000426796
0.0369963
0.00017014
0.0644507
0.0225982
0.0660338
0.0338174
0.000101354
9.77932e-05
0.055965
0.0847139
0.0510347
0.000125911
0.000100864
0.000104474
0.000160708
0.000116969
0.0256716
0.0115882
0.00985615
0.000109524
9.35117e-05
0.000139655
0.000100135
0.0317677
0.0804024
0.000104265
0.0951796
0.0540617
0.0750282
0.000110188
0.0925434
0.000105609
0.000126498
0.0563083
0.000112448
0.000101641
0.000110506
0.0763815
0.0210133
0.000127155
0.000198759
0.0901383
0.000147089
0.000116742
0.000106754
0.000108078
0.0373206
0.0695136
0.000126688
0.0696806
0.0368325
0.000139715
0.061973
0.0691361
0.000224043
9.79479e-05
0.000105711
0.0755033
0.000100862
0.000116166
0.000117182
0.00017866
0.000115206
0.0362048
0.0147936
0.000107733
0.000103988
0.0503851
0.0933897
0.0606674
0.000138219
0.00033415
0.000112516
0.0142207
0.0318876
0.0378791
0.000101043
0.000147035
9.667e-05
0.000129313
0.0730742
0.000110011
0.00011819
0.0124951
0.000135273
0.000109754
9.81607e-05
0.073222
0.0442392
0.00199408
0.000132788
0.0932162
9.35899e-05
9.03229e-05
0.000382109
0.0982548
0.0442475
0.0551752
0.000107327
0.0315483
0.0105587
0.000121998
0.0042858
0.000139084
0.000118399
0.000112914
0.000128158
0.000115646
0.000108503
0.000101288
0.0188024
0.000109047
0.00011102
9.37602e-05
0.000110926
0.000188958
0.000128654
0.000131435
0.000119929
0.0684729
0.000114317
0.000110026
9.50639e-05
0.0001125
0.000977256
0.000115543
0.0483757
0.0593912
0.000104251
0.0195045
0.000110091
0.000205744
0.0649231
0.000126095
0.0236294
0.000577082
0.000371275
0.000112239
9.73034e-05
0.0105211
0.0897752
0.000120753
9.75463e-05
0.00010828
0.0373046
0.000111207
0.0979986
0.000115359
0.000114551
0.000114693
0.0268117
9.80895e-05
0.000115411
0.0001221
0.000151098
0.000151585
0.000107754
0.00147458
0.0786883
0.000137627
0.0917788
0.000124499
0.000126749
0.0160501
0.000107366
0.0577484
0.030582
0.000106932
0.000111989
0.000114744
0.0349635
0.0922046
0.000106776
0.0265301
0.0762508
0.000115927
0.000108103
0.00202759
0.000637533
0.0188761
0.0268463
9.26764e-05
0.014185
0.000147582
0.000121593
0.000111091
0.00010748
0.000124176
0.000102725
0.000134255
0.000137273
0.000101205
0.000123255
0.0481678
0.000115376
0.000381824
0.000118861
0.000104547
0.042352
0.0132768
0.0473797
0.000101103
0.000161699
0.000115093
0.00010535
0.000144018
0.000104426
0.000179573
0.000145481
0.0157326
0.0119945
0.000248154
0.00612148
0.000103892
0.00990185
0.000118333
9.91172e-05
0.0166725
0.000104762
0.0768092
0.000130066
0.0130572
0.00997071
0.000131397
0.0725698
0.000120677
0.0195959
0.000105536
9.27928e-05
0.000124382
0.0686651
0.000266584
0.000109984
0.000120001
0.000102592
0.000127537
0.000108817
0.0418097
0.00472411
0.000101753
0.000688839
0.000122589
0.000173985
0.00216282
0.0751947
9.36289e-05
0.0225491
0.000111963
0.0751808
0.0677339
0.000132104
0.000136175
9.6912e-05
0.000205216
0.00935029
0.0921468
0.000108057
0.000100785
0.000108298
0.000106595
0.000102389
0.0242636
0.000105458
0.000156523
0.000122075
0.000111964
0.000128645
0.00010065
0.000116001
0.000138368
0.0252258
9.65134e-05
0.000156082
0.000127997
0.0187933
0.000334447
0.0318193
0.000228003
0.000112365
0.000110169
0.0148912
9.86536e-05
0.000147707
0.000132429
0.00011298
0.000107056
0.000110518
9.4947e-05
0.000585792
0.000102901
0.000452311
0.0478647
0.000143663
0.0244544
0.000123013
0.0489562
0.000165661
0.000108374
0.00010441
0.000266137
0.0818065
0.000106281
0.000108632
0.0712608
0.000114326
0.000103862
0.00029308
0.0635667
0.000113588
0.000104184
0.0717709
0.0736128
0.0735001
0.00011092
0.000121407
0.0654535
9.68688e-05
0.000118452
0.000113967
0.000108051
0.000156102
0.0001071
0.0761076
9.7673e-05
0.000229477
0.000109538
0.000136282
0.000108644
0.0527033
0.0217568
0.105534
9.56889e-05
0.0236439
0.00484076
0.0403748
0.000116838
0.000104162
0.0518412
0.000107016
0.0370007
0.028397
0.0245652
0.000106229
9.39559e-05
0.000109377
9.42767e-05
0.000111263
0.0246924
0.0512944
0.000113458
0.0821101
0.000105509
0.0450116
0.000119277
0.000116652
0.0709263
0.079754
9.59673e-05
0.000102675
0.00279172
0.00011108
0.0725848
9.75384e-05
0.0841136
0.000131927
0.0146525
0.0536896
9.56132e-05
0.034213
0.0362881
0.0759668
0.00130809
0.000134935
0.000187883
0.0198788
0.000115678
9.46056e-05
0.000117078
0.0648395
0.000121866
0.000110358
0.000139679
0.000132147
0.00011904
9.16516e-05
0.0754926
0.0461198
0.000273786
0.0197598
0.0411502
0.000148261
0.00142412
0.0263656
0.00010662
0.000118604
0.000105331
0.000108805
0.0168224
0.0806403
0.0887564
0.000110026
0.0380355
0.0556225
0.0251988
0.0512293
0.000104095
0.000247128
0.000106197
0.000103635
0.0541025
0.000512097
0.000162845
0.00012315
0.000133108
0.000114455
0.0115164
0.0116202
0.0972465
0.000101427
0.0144406
9.48156e-05
0.00464956
0.0296316
0.0292166
9.37339e-05
0.000114154
0.0121058
0.000118337
0.0115715
0.000109274
0.0178041
0.000113598
0.00012793
0.0710529
0.00010133
0.076944
0.000107605
0.0113663
0.000119467
0.071841
0.000115875
0.062166
0.025177
0.0773409
0.0261002
0.000115348
0.0241662
0.000927399
0.000105492
0.000206424
0.0490094
0.00010161
0.000118872
0.0712332
0.000103484
9.97133e-05
0.0526411
0.00014777
0.000147846
0.090188
0.0409067
0.0890493
0.000128164
0.0163073
0.000115862
0.000103118
0.0287842
0.000100148
0.000100736
0.0232697
0.0285568
0.000822172
0.0865249
0.000121536
0.000223996
0.0123971
0.0120072
0.000112757
0.000242875
0.0702431
0.0855854
0.0121074
0.000101294
0.000108361
0.00010982
9.67739e-05
0.000104743
0.000101818
0.00011576
0.00729831
0.0304696
0.000111542
9.81236e-05
0.000110344
0.000115475
0.000127666
0.054985
0.000555345
0.0133956
0.000737824
9.52586e-05
0.000103459
0.00130858
0.000104288
0.0190353
0.000118266
0.0133062
0.000421133
0.0514996
0.000135546
0.000106669
0.000134043
0.0329736
0.000157987
0.000120441
0.0207771
0.000110688
0.000107558
0.000107823
0.000114086
0.00519435
0.0122738
0.000136261
0.0934572
0.0499212
0.000105004
0.045794
0.000211071
0.0905026
0.000157453
9.3695e-05
0.058483
0.0781594
0.000108162
0.0284636
0.000143349
0.000116808
0.000132212
0.000100004
0.0277099
0.000115098
9.38498e-05