/*--------------------------------*- C++ -*----------------------------------*\
| =========                 |                                                 |
| \\      /  F ield         | OpenFOAM: The Open Source CFD Toolbox           |
|  \\    /   O peration     | Version:  v2012                                 |
|   \\  /    A nd           | Website:  www.openfoam.com                      |
|    \\/     M anipulation  |                                                 |
\*---------------------------------------------------------------------------*/
FoamFile
{
    version     2.0;
    format      ascii;
    class       volScalarField;
    location    "150";
    object      p;
}
// * * * * * * * * * * * * * * * * * * * * * * * * * * * * * * * * * * * * * //

dimensions      [0 2 -2 0 0 0 0];


internalField   nonuniform List<scalar> 
18649
(
-0.429177
0.0161874
-0.0516016
-0.428181
0.406612
-0.0823274
-0.371143
-0.290121
-0.187518
0.0757247
-0.239959
-0.421526
-0.288428
-0.0505648
0.042594
-0.151698
-0.00603866
-0.151704
-0.159916
-0.436488
-0.421064
-0.0188128
-0.430151
-0.227232
-0.0025644
-0.436938
-0.00987909
-0.421664
-0.358867
-0.0211032
-0.0303109
-0.0586205
0.00837571
0.0698165
0.0523743
-0.435412
0.148126
0.0126113
-0.0207154
-0.282407
-0.192713
-0.227757
-0.190467
-0.434431
0.0131884
-0.0214612
-0.428146
-0.428253
-0.390309
-0.0166372
-0.31927
-0.0837522
-0.423554
-0.422959
0.00822883
-0.390109
-0.425612
-0.220626
-0.426724
0.0740552
-0.42947
0.0200884
-0.187189
-0.428222
0.0110432
-0.428218
-0.0239751
-0.421747
-0.428084
-0.334534
-0.432424
0.0193082
-0.0454273
-0.0810611
0.0656131
-0.421927
0.153739
-0.013175
-0.0788204
-0.0475358
-0.00625765
-0.428725
-0.43113
-0.421592
0.153112
-0.0207098
0.138416
-0.0816759
-0.123926
-0.0856253
-0.114872
0.0695864
0.0235335
-0.366262
-0.0183448
-0.231733
0.0680806
-0.00617817
-0.427689
-0.00939623
-0.430756
0.0905826
-0.00944596
-0.317771
-0.426909
-0.0873673
0.0362213
-0.0339244
0.0886165
0.0679258
-0.435122
0.28261
0.0236417
0.07228
-0.292747
-0.0589182
0.00862117
-0.415041
-0.434742
-0.0247922
-0.428458
0.0055156
-0.0479369
0.0200089
-0.436512
-0.00260186
0.0190634
-0.437558
0.00648942
-0.415124
0.0304253
-0.430511
0.00316243
-0.428141
0.152593
0.032287
-0.434944
-0.425131
-0.1131
-0.010374
0.270502
-0.00152806
-0.0157412
0.00674903
0.0246668
-0.408855
-0.0163449
0.0223058
-0.426953
-0.42865
-0.337468
0.0362074
-0.432496
-0.0388353
0.00211141
0.00708193
0.335638
-0.0380574
0.00542834
0.0446163
0.0249397
-0.320077
-0.427304
-0.0382855
-0.434642
-0.29239
0.0360984
0.0174847
0.00134206
-0.0573783
0.0312574
0.425412
-0.216418
0.401923
0.00920968
-0.316985
-0.426714
0.00877298
0.00568526
-0.341948
-0.352404
-0.0181173
0.0104084
-0.350557
-0.0661658
-0.152504
0.0243226
-0.00224742
-0.128809
0.046858
-0.197537
0.0105616
-0.432922
-0.0342568
-0.00837402
0.0202104
0.135017
0.0195834
0.0660746
0.0102525
0.0224381
-0.272946
-0.418957
0.137906
-0.128525
0.269702
-0.381172
-0.427591
-0.0327727
-0.430123
0.0451295
0.0115584
0.0092577
-0.433711
-0.430793
-0.0178024
0.168841
-0.00330311
-0.431739
0.0312439
-0.20593
0.0036394
0.15159
0.413834
-0.43616
-0.37823
-0.0184
0.0313229
-0.419108
-0.311644
-0.128018
0.00224621
-0.424497
-0.151199
-0.436141
-0.327065
0.335361
0.416127
0.00317588
-0.302365
-0.0117094
-0.429359
-0.126993
-0.0177761
0.0714787
0.041502
-0.42271
0.043874
-0.410146
0.0173912
-0.413991
-0.376275
-0.150053
0.0529895
-0.0695335
-0.433308
0.00329398
0.0450829
0.0746676
0.0661162
-0.0169069
0.282436
-0.430052
0.0464532
-0.00763218
-0.428549
-0.340722
0.0206878
-0.350444
-0.0107511
-0.408971
-0.0838713
-0.417793
-0.42517
-0.168937
-0.0341848
-0.00744034
-0.285897
-0.381688
-0.434749
0.0236361
-0.00225995
-0.432185
-0.0333682
-0.40763
-0.423943
-0.0406893
0.150472
0.0326417
-0.0203897
-0.202374
-0.413073
-0.376251
0.48144
-0.377125
0.0290329
-0.344472
-0.367766
-0.00860614
-0.342241
0.0038976
0.0723225
0.067138
0.00771238
-0.0240491
0.419999
0.0326073
-0.172656
0.424508
0.069214
-0.435875
0.0730565
-0.169841
0.0421249
-0.0402113
0.00235706
-0.0487734
0.00938209
-0.430627
-0.434605
0.0362168
0.0254362
-0.194013
0.0087826
0.0080598
-0.0179632
0.0232671
0.100201
-0.425452
0.279809
-0.429608
0.0180581
0.0265133
-0.184096
0.00479194
-0.0238465
-0.35916
0.0347728
-0.400301
0.141486
-0.319089
0.00505243
-0.0699267
0.00834837
-0.043266
0.0295876
0.0208492
-0.0113523
-0.113193
-0.149881
0.0355802
-0.279641
0.0358939
-0.0180975
-0.429248
-0.374412
-0.0494954
-0.434526
-0.317881
-0.432423
-0.374019
-0.0420103
-0.374723
0.0353524
-0.431235
-0.0421751
0.071165
0.126996
0.0350641
-0.0293122
0.00950026
-0.0148858
0.0289878
-0.430579
0.105169
-0.435283
-0.429543
-0.355773
-0.424697
-0.0608413
0.019557
-0.123635
0.00457052
-0.197377
0.0088212
0.0357968
0.513261
-0.370708
-0.03851
-0.0169093
-0.355147
-0.090672
0.0349303
-0.337492
-0.0483181
0.124959
-0.435449
-0.0561712
0.0330024
-0.363099
-0.432989
-0.149437
0.0223775
0.0263548
-0.428595
-0.360134
-0.00346527
-0.373491
-0.0120222
-0.00546754
-0.383852
-0.0227922
-0.4225
-0.0563037
-0.246929
-0.421114
-0.285046
-0.324185
0.00360217
-0.426259
0.0356306
-0.290237
-0.148063
-0.432595
-0.431529
-0.0146524
-0.0239806
-0.304377
-0.432784
-0.070957
-0.399573
-0.0369878
-0.0165794
-0.00662461
-0.413508
-0.271324
-0.431249
-0.0319909
0.0696345
0.506921
-0.433117
0.12633
0.034605
-0.0165876
-0.0127066
-0.432767
-0.435405
0.00791134
-0.0354155
-0.43471
-0.0208559
-0.43469
-0.016256
-0.430307
-0.0841849
-0.430948
0.0815248
-0.41707
-0.429589
0.00447832
-0.186789
-0.0177855
-0.177037
-0.0600399
0.0442461
-0.0334534
0.345087
-0.0204339
-0.0496235
-0.433244
-0.010924
0.0213339
-0.285582
-0.000651512
-0.435283
-0.0427943
-0.0487002
-0.0348929
-0.0927382
-0.0473004
0.0223949
0.235845
-0.00567189
0.183997
0.0255265
-0.0638962
-0.434824
0.02248
-0.384254
-0.0494168
-0.36403
-0.377205
-0.380361
-0.433679
-0.0954276
-0.176758
-0.126107
-0.434588
0.0564334
-0.166586
0.0613386
0.394026
-0.278892
-0.0719462
0.00870312
0.399228
-0.282949
-0.386975
-0.0242583
-0.435257
0.105705
-0.20994
0.0370198
-0.153029
-0.433532
0.0360539
-0.034948
-0.378416
-0.0220354
-0.0161463
-0.0203168
-0.0846257
-0.00889154
-0.123095
-0.000667735
0.159933
0.0135964
-0.337766
-0.0253917
-0.433989
-0.400117
-0.36042
-0.433591
-0.0479175
-0.376811
-0.175595
-0.419227
-0.429623
-0.0255771
0.190162
-0.243506
-0.0511489
-0.271288
0.0113693
0.0359631
-0.0500731
0.00539711
0.0139013
0.0120131
-0.418151
-0.0110732
-0.00855144
-0.0884339
-0.0188386
0.263194
-0.367177
0.0576746
-0.187178
-0.333946
-0.0672743
0.0260563
-0.426005
-0.308669
-0.4209
-0.274121
-0.129447
-0.0213631
-0.0966351
-0.114718
-0.0442261
-0.37367
0.0147723
-0.0445009
-0.0193471
-0.361604
-0.430488
-0.401638
-0.00200423
0.0202268
-0.428852
-0.427701
-0.244921
-0.0656125
0.245343
-0.386897
0.0041176
-0.381974
-0.016698
0.07775
0.0771052
0.184243
-0.427554
-0.0422895
0.170982
0.082831
0.0305086
-0.434415
-0.157988
0.0339257
-0.423695
-0.115715
-0.314834
0.00340638
-0.411689
-0.122148
-0.0932848
-0.0016034
-0.428206
-0.162162
-0.18947
-0.183667
-0.433951
-0.0710391
-0.401533
-0.0363396
-0.00452521
-0.40425
-0.0797523
0.00807408
0.251891
-0.0486203
-0.176988
-0.00817001
0.0379458
0.260808
-0.268598
-0.431672
0.00930207
-0.434909
-0.0174981
-0.0187987
-0.15153
-0.0192285
-0.0206809
0.0700272
-0.393666
0.0620452
-0.177263
-0.213702
0.0471251
0.00022905
-0.00216388
0.0758737
-0.422024
0.0196265
0.111222
-0.0100759
-0.319517
0.0180946
0.0820546
-0.0468346
-0.0106303
-0.434902
-0.278063
0.436427
0.0117707
-0.414463
-0.113344
-0.0201188
-0.0989694
-0.42751
-0.0586355
-0.0225813
-0.425581
-0.354379
0.0238667
-0.431859
-0.417314
-0.036491
-0.0445739
-0.163901
0.0754747
0.0331508
-0.245046
-0.432792
-0.435571
-0.427317
0.0328726
-0.405271
0.0177727
0.011003
-0.0194573
-0.427575
-0.0110641
0.00825203
-0.388275
-0.433542
-0.0460454
-0.386575
-0.0645934
0.00850195
-0.343741
-0.082627
-0.250599
0.023369
-0.113119
-0.0235585
-0.0723113
0.0309875
-0.233024
-0.000442638
-0.429377
-0.421813
-0.297288
-0.427469
-0.433268
0.116566
-0.434532
-0.384704
-0.209625
0.0772419
-0.0195678
-0.42737
-0.346643
-0.384418
-0.222118
-0.0821779
0.0296965
0.00697442
-0.407392
-0.429709
0.0205465
-0.0328121
-0.423256
-0.327006
-0.431882
-0.271765
0.00129828
0.0759697
-0.434871
-0.427918
-0.00425865
-0.0967114
-0.00682328
-0.188883
0.0367245
-0.409794
-0.0862674
0.0227734
-0.0408521
-0.434895
0.0340208
-0.046403
0.0386693
-0.00161954
0.0256548
-0.263404
0.0935394
-0.353949
-0.377242
-0.433848
-0.354592
0.0196672
-0.400833
0.124466
-0.0611274
-0.366981
0.0300241
0.0450521
-0.0247941
0.103956
-0.385775
0.182959
0.0316368
0.0394307
-0.021402
-0.0188957
-0.0237189
0.0342511
0.0472895
-0.318791
0.105738
0.011204
-0.0164557
-0.198816
0.163893
0.0123832
-0.390604
-0.432248
0.0199207
-0.428171
-0.348817
-0.153468
0.0403568
0.0277232
0.0129551
-0.158868
-0.42735
-0.270641
-0.0243222
-0.317619
-0.400813
-0.435116
-0.0446017
-0.432582
-0.29462
-0.427055
0.157817
-0.420726
-0.0248825
-0.433312
-0.425984
-0.392741
0.0100982
-0.0353903
-0.00798016
-0.34416
-0.0104789
-0.292423
0.0213916
-0.218986
-0.0941632
-0.427577
-0.361288
-0.0181085
-0.35804
-0.0521156
-0.265445
-0.224531
-0.386295
0.0273289
-0.21382
0.269489
-0.314664
-0.431157
0.0338124
-0.423939
-0.289849
0.0392381
-0.436169
-0.256589
-0.00368215
-0.33558
-0.361964
0.000852478
-0.0996739
-0.433658
0.0397423
-0.431679
0.0337782
0.0299232
0.0445393
-0.115958
0.0119186
-0.0232853
-0.353458
0.0310679
-0.0589699
-0.0375674
-0.340796
0.14009
0.0280122
-0.0231544
-0.429517
0.0124153
0.123702
0.40357
0.00331558
-0.376801
0.0333485
-0.0991786
-0.408446
-0.226512
0.119821
0.020194
0.00584888
-0.0596738
-0.359274
-0.0502948
0.0155048
-0.168919
0.0363298
-0.418927
-0.0959689
0.0149693
0.0219079
-0.0739451
-0.029309
0.382885
0.0519808
-0.0086798
0.443956
0.0278973
-0.378351
-0.384508
0.00517412
-0.390199
0.027287
-0.435347
0.0266429
-0.2242
0.11069
-0.228345
-0.132967
0.00308654
-0.218836
-0.0494555
-0.429624
-0.382101
-0.377714
-0.264361
-0.166201
0.0265256
0.00720775
-0.433787
-0.429794
0.0210764
-0.293342
-0.280417
-0.00891602
0.271834
-0.352964
-0.40657
-0.0229599
-0.433039
-0.301491
-0.434794
-0.42664
-0.410683
-0.392495
-0.167226
0.00649876
0.123426
-0.0966502
0.0258899
0.00235799
-0.435437
-0.0473394
-0.169022
-0.419264
0.125154
-0.337188
0.161427
-0.402903
-0.258254
-0.187226
0.00931506
-0.428227
0.00136876
-0.430501
-0.392424
0.0200018
-0.198098
0.0456263
-0.410785
-0.383682
-0.140281
-0.371112
-0.0219521
0.0110179
-0.433512
-0.0722421
-0.4297
-0.0219419
0.0151947
0.00896103
0.00759738
-0.101658
0.00361554
-0.0105105
0.126705
0.10813
0.015099
-0.286628
0.0194543
-0.0577346
0.0388928
-0.0463764
-0.273546
-0.385963
-0.264191
-0.434722
-0.427409
0.409609
-0.365267
0.105087
0.0917577
-0.43394
-0.0490782
0.000309034
0.0235346
-0.0331006
-0.183318
-0.0683775
-0.303669
-0.0578722
0.00629712
-0.433805
-0.419509
-0.38837
0.354235
-0.430124
0.0276467
0.0409106
0.0271737
0.0172986
-0.0059135
0.345455
-0.43351
-0.230066
-0.347861
-0.4278
-0.434275
-0.0292306
0.032819
0.261755
-0.00830917
0.28819
-0.382106
-0.100867
-0.304947
-0.421731
0.195406
0.420027
-0.0232265
-0.0160116
-0.07177
-0.427494
-0.0202565
0.0271319
0.0613109
0.125627
0.040276
-0.429256
-0.058526
0.00887031
0.00383243
-0.23593
0.0624177
-0.0618486
-0.42738
-0.00842975
-0.354706
0.104278
-0.17125
-0.00665928
-0.427051
0.0461051
-0.27034
-0.235799
-0.370466
-0.0200392
-0.34994
0.0465826
-0.0380326
0.167495
-0.04958
-0.0214988
-0.0313941
-0.0171938
-0.428874
-0.311179
-0.0479393
-0.432543
-0.427148
0.0394927
0.0196889
-0.113671
-0.0352594
0.065175
-0.425864
-0.0237351
0.0338447
0.0105981
-0.37299
-0.389907
-0.0693284
-0.410189
-0.125643
-0.372405
-0.384933
-0.047854
0.031592
-0.24954
-0.0461115
-0.321958
-0.422639
-0.393444
0.044317
-0.0370387
-0.430466
0.0315976
-0.427824
-0.432485
-0.335712
0.0460653
0.00741903
-0.377988
0.114585
-0.0126342
-0.0951247
-0.0131425
0.0142388
0.0988406
0.017156
-0.433997
-0.0434157
0.00801061
-0.312835
0.00717952
-0.420294
-0.162796
-0.339345
-0.0477031
-0.34704
-0.216319
0.0228962
-0.342179
0.0143995
-0.400366
-0.348819
-0.0580575
-0.427628
-0.0336287
0.0437864
-0.43518
-0.0147588
-0.429946
-0.133344
0.0317702
-0.432371
-0.0215371
-0.0142925
0.0084748
-0.00235
-0.0232768
-0.0669292
0.00867525
0.000407835
-0.0188674
-0.0369191
-0.0298826
-0.367277
0.0208202
-0.43031
-0.427397
-0.0604642
-0.427582
0.00294162
0.000838399
-0.427218
-0.421293
-0.122681
-0.373871
0.0880086
0.0244678
-0.0921156
0.030003
0.0313178
-0.0417403
-0.180406
-0.290614
-0.284746
-0.0639151
-0.0702739
-0.324413
-0.434566
0.0503237
0.335855
0.119235
-0.250578
-0.418807
-0.382763
-0.317438
-0.36353
-0.169466
-0.4346
-0.43036
-0.0873819
0.0280733
0.00393917
-0.394675
-0.0686817
-0.0416364
-0.319079
-0.129314
0.0982992
0.0277486
-0.41043
-0.436665
0.137818
-0.43406
-0.0470328
-0.0461614
-0.427413
-0.03658
0.0360893
-0.429419
0.0188567
0.144252
-0.432186
-0.339903
0.0204757
0.0132313
-0.428365
-0.215642
-0.395811
0.00446094
-0.413252
-0.245863
-0.427531
0.0161314
-0.42562
-0.0220582
0.0116109
-0.0353468
0.00824814
-0.262792
8.65883e-05
0.0583121
0.0168759
-0.00946354
-0.394036
-0.349194
0.0164869
-0.323132
0.149497
-0.298612
-0.39231
-0.425489
-0.0100304
-0.0255959
0.353288
-0.0058492
0.0186028
-0.00287582
0.101184
-0.236527
0.0355971
-0.433272
-0.428762
0.0129606
0.0630757
0.0218087
0.00568186
-0.218615
-0.425548
0.0357876
-0.435583
-0.423516
0.0162817
-0.317959
-0.0378574
-0.422797
0.0264791
-0.0233943
-0.434431
-0.417947
0.0048691
-0.435942
0.0969581
-0.42688
-0.0205507
-0.170917
-0.434013
-0.0555621
0.453232
-0.437568
-0.0509924
0.264057
-0.0837446
-0.436729
-0.370615
-0.0506815
-0.377378
0.0754851
-0.0239639
0.0357475
0.301828
-0.431379
0.00886637
-0.384515
-0.432569
-0.0113226
-0.303132
-0.0192658
-0.434659
0.0325745
-0.24388
0.0640865
-0.0228283
-0.187418
-0.433271
-0.391598
-0.102071
-0.219512
-0.43554
-0.0663931
-0.235979
-0.362926
-0.390054
-0.432954
-0.421538
-0.291972
-0.120374
-0.0213554
0.0283926
-0.42876
-0.430362
-0.037584
0.236151
-0.436624
-0.120179
-0.364843
0.204845
-0.378765
-0.431244
-0.0763851
-0.433352
-0.0976296
0.170934
-0.424774
-0.298508
-0.431826
0.11824
-0.434066
-0.428413
0.0385244
-0.036921
-0.0427479
-0.0513748
0.00338196
-0.00724325
0.393947
-0.378949
-0.428342
0.0478925
-0.349479
-0.429307
0.163749
0.341062
-0.108659
-0.392439
0.41743
0.0318872
-0.431924
0.0833342
0.0126922
-0.0259739
-0.433771
-0.0137748
-0.405187
0.0347211
-0.00881345
-0.0289018
-0.435082
0.214985
-0.166378
-0.277969
-0.435528
-0.387382
-0.321346
-0.0370112
-0.324755
-0.336393
-0.429966
0.0572676
-0.186727
-0.433579
-0.430143
0.0208344
0.0274407
-0.431024
-0.138458
0.233272
-0.412017
-0.435982
-0.4344
0.0229723
0.0220534
0.0359838
-0.193808
-0.238582
0.0500599
0.0337968
0.407346
-0.258499
-0.118105
0.0327746
-0.0239348
0.0209676
0.0880294
-0.0268412
0.144242
-0.023445
0.0369899
-0.408497
-0.43588
-0.328571
-0.0372277
-0.118227
-0.330384
-0.000615836
-0.0453945
-0.0177222
-0.0187632
-0.438819
0.00940495
0.0306801
0.0218234
0.00803484
0.00898877
-0.427093
-0.0122061
0.19379
-0.27556
0.0202437
0.0164886
-0.0181493
-0.239875
-0.196193
0.017731
0.00807215
0.16479
0.4574
-0.0425053
-0.101373
-0.0736214
-0.429832
-0.0612821
0.0350871
-0.0204882
-0.431264
-0.424158
-0.259187
0.00897059
-0.402197
0.00350447
0.019005
0.24551
0.0153316
0.0088983
-0.220052
-0.156168
-0.00597592
0.0349679
0.0214413
0.00624661
-0.190528
-0.0254479
-0.391126
-0.433493
-0.0888433
0.12902
-0.0377715
-0.251949
0.0234338
0.0105047
0.0212234
-0.164432
-0.0842075
-0.072251
-0.349741
0.00635923
-0.16494
-0.0265026
0.0838349
0.0132124
0.253089
0.0345129
0.00755894
0.0358267
0.11738
0.0177177
-0.395286
0.045181
-0.433736
-0.347447
0.0102481
-0.437398
-0.14775
0.279808
-0.428219
0.0446424
0.0196337
0.0668657
-0.215255
-0.0754753
-0.00496226
-0.11583
-0.387337
0.0291713
0.00968756
0.0231927
0.0278429
0.22835
0.0250989
0.00663313
0.0317259
0.00124365
0.0128578
-0.0230954
0.0092035
-0.364199
-0.233603
0.0328664
-0.049776
0.0347532
-0.165514
-0.0463696
-0.429155
0.0135249
0.00290598
-0.437759
-0.0905493
-0.0354646
0.0359279
-0.00929538
0.0106053
-0.0940868
-0.0201419
0.0447152
-0.353608
0.294321
-0.435169
-0.146318
0.0188823
0.0208347
0.287248
0.0971862
-0.331996
0.0273168
-0.361618
0.00765835
0.00628074
0.125789
-0.223807
-0.340593
-0.428237
-0.298154
0.0102603
0.0934163
-0.382907
-0.332706
-0.429685
-0.375837
-0.0215453
0.248172
0.00626016
0.0452057
0.00784629
-0.0781654
-0.00850303
-0.013154
-0.424159
-0.020946
-0.0195391
-0.0522199
-0.0731944
0.00413296
0.0291189
-0.398327
0.106475
-0.0153905
-0.173464
0.0107859
-0.286305
0.18676
0.0294724
-0.169774
0.00076356
-0.17331
0.0316431
0.243636
0.0248664
-0.430134
0.00675731
-0.0494655
-0.0376661
0.0119606
0.0507395
-0.00880858
-0.431956
-0.373202
0.0121091
-0.335079
-0.432732
-0.0259028
5.74439e-05
-0.332926
0.256848
0.186116
-0.429661
-0.0230984
-0.0091567
0.00606181
-0.426856
0.0157234
-0.259783
-0.426111
-0.36314
0.06121
-0.0314192
-0.23241
-0.165146
-0.125664
0.277217
0.113966
-0.420323
0.00906308
-0.411664
-0.427419
-0.392113
0.0397998
-0.373864
-0.0446912
-0.227853
0.0325697
-0.141862
-6.94145e-05
0.434061
-0.105778
-0.0470564
-0.430881
-0.433468
-0.0379618
-0.435299
-0.00115157
-0.0130878
0.0248593
-0.30083
0.0156633
-0.404491
-0.212358
-0.397336
0.0298655
0.0351505
-0.0976686
-0.420696
0.0923528
-0.180253
0.0480931
-0.430874
-0.0394162
-0.22328
-0.431619
0.0530257
-0.429651
-0.170865
-0.262978
0.00868897
0.0822655
0.166909
-0.00410815
0.238609
0.0448098
-0.0348221
-0.225265
-0.013417
-0.344619
-0.00417516
-0.174731
-0.434475
-0.0540839
-0.434254
-0.432772
-0.328922
-0.437683
0.0622487
0.39732
-0.289205
-0.0259733
0.00848447
-0.0247644
0.0254204
0.0876554
-0.248806
0.014072
-0.184953
-0.14885
-0.422331
-0.0191143
0.239415
-0.430928
-0.409645
-0.432105
-0.0344849
0.019036
-0.0192994
-0.328911
0.375118
-0.274316
-0.42098
-0.148451
-0.110395
-0.00520322
-0.0708393
-0.0258116
-0.39401
0.00105041
-0.0127226
-0.418898
-0.108741
-0.197766
-0.106799
-0.344124
0.0825121
-0.0223369
0.031322
0.0678412
-0.352152
-0.00905974
-0.00629076
0.370071
0.0460823
-0.00302679
-0.0227404
0.128561
-0.164238
-0.120996
-0.232036
0.0790931
-0.0248639
0.132832
-0.218621
-0.426281
-0.216958
0.460496
-0.0166281
-0.0203892
-0.42929
0.00944889
-0.0131629
-0.00625139
-0.00681395
-0.112208
-0.0370593
-0.431978
-0.356817
-0.0307031
-0.402014
-0.248216
0.0337548
-0.427251
-0.284328
0.447281
-0.00606832
-0.0148141
-0.367613
-0.0238485
-0.032657
-0.150557
0.00378519
0.0391419
-0.369317
-0.198903
-0.204743
0.0176799
-0.0235229
-0.406019
-0.291553
0.0373446
-0.0739869
0.0320418
-0.373158
-0.216803
0.0296988
0.0306409
0.00954364
-0.434214
0.496631
-0.0693353
0.00345772
-0.0458044
-0.0518813
-0.125118
-0.427165
-0.425964
-0.0149013
0.024763
-0.430072
-0.0586796
-0.0077141
0.0452023
-0.0578216
-0.0120501
-0.435581
0.035454
-0.290598
-0.325078
0.0212579
0.0191138
0.0302548
-0.398006
-0.015524
-0.429802
-0.429746
-0.242568
0.00960204
0.422735
-0.426156
-0.0229972
-0.42891
-0.213241
-0.403149
-0.012639
0.0366481
0.387552
-0.0122582
-0.386203
-0.288509
-0.397624
0.0307623
0.0996064
-0.369604
-0.437273
-0.101214
0.0366959
-0.110278
0.00928213
0.508726
-0.428581
-0.423035
-0.186979
0.0210948
0.00951785
-0.397922
-0.421702
0.0248824
-0.28413
-0.207217
-0.397526
-0.0773052
0.0362233
-0.434503
-0.431799
0.0108887
0.104278
0.0435412
-0.234858
-0.0987661
-0.129984
0.0253743
0.0423368
-0.0850581
-0.428238
-0.39421
-0.406387
-0.0929898
-0.285881
0.0160868
-0.430643
0.0330337
-0.431063
-0.408664
0.00517118
-0.0663175
-0.00408022
0.0272425
0.0291727
-0.141948
-0.427293
-0.0367465
-0.42966
0.0235247
-0.0540561
-0.410765
-0.393134
-0.129327
0.289754
-0.0392315
-0.430751
-0.126034
0.00604641
0.0087975
0.0197894
0.00389376
0.00202448
-0.41972
-0.0266753
0.0535198
-0.0258003
0.0188299
0.00643821
-0.192406
0.106461
0.00908779
-0.429127
0.0199131
0.063404
-0.0973769
-0.433347
-0.0222497
0.0303265
-0.0113722
0.0540012
-0.431598
-0.20938
0.0496712
0.0384348
-0.128375
-0.00579223
0.0171135
-0.3331
-0.267508
-0.368505
-0.0568052
-0.434469
-0.432484
-0.0918943
-0.0164104
-0.424354
-0.0230881
0.0396263
0.0349435
-0.355524
-0.432698
0.00132571
-0.214626
-0.350942
0.0565061
0.00562882
-0.0430839
-0.425722
0.018804
-0.39486
0.0185958
-0.163413
0.253815
0.023395
-0.43258
-0.28871
0.455426
-0.152484
0.00130992
0.0464951
-0.125126
0.033691
-0.400314
-0.442248
-0.0323168
0.0177234
-0.122142
0.00749418
-0.317194
-0.354708
-0.43199
0.0453656
0.0367557
-0.42693
0.0368098
0.244087
-0.0371441
0.0489331
-0.427446
-0.329815
-0.0633559
-0.256734
0.491042
-0.177258
-0.127062
-0.0317891
-0.129202
0.0688382
-0.428328
-0.0391078
-0.418817
-0.194243
-0.00242224
0.152776
0.0540198
0.00906422
-0.141122
-0.0892565
-0.435297
0.0167766
-0.0456966
0.0329797
-0.335469
-0.0250966
-0.430682
-0.434273
0.049453
-0.0247464
-0.436488
-0.0288632
-0.425799
-0.435697
-0.436693
-0.0179453
-0.435919
-0.357482
-0.0375682
0.0171583
0.0855525
0.00491388
-0.434361
0.00377275
-0.239333
-0.0631729
-0.157779
-0.437797
-0.167064
0.0394633
0.00132547
-0.423638
-0.430502
-0.426834
-0.42858
-0.0998609
-0.434412
0.00989549
-0.434239
0.330255
-0.273839
0.0926905
-0.307515
-0.32079
-0.422257
0.0257751
0.306286
-0.00865968
-0.0159067
0.0325423
-0.00961194
0.0480791
-0.409363
0.00453296
-0.29021
-0.351317
-0.435257
0.423193
-0.00717365
-0.0859793
0.00304872
0.039825
-0.432095
-0.435265
-0.237621
-0.0221879
-0.414786
-0.300467
-0.0984641
0.369036
-0.427111
0.0127218
0.0455588
-0.437499
-0.358983
-0.00427591
-0.0151236
-0.148022
-0.0178064
-0.435445
-0.331489
0.130482
-0.0258438
-0.39249
-0.00496113
-0.011675
0.0802462
-0.310505
-0.0877468
-0.0585376
-0.0712252
-0.173465
-0.25457
0.0498825
-0.435497
0.324579
-0.429795
0.281655
-0.335284
-0.427316
-0.398379
0.296662
-0.0414612
-0.0964829
-0.423527
-0.411133
-0.428551
-0.0596696
-0.0266265
-0.0128464
-0.207219
0.0448013
-0.427672
-0.430674
-0.43165
0.0834739
-0.0571656
0.0366366
-0.052865
-0.43479
-0.34781
-0.0137766
-0.318028
-0.382466
-0.426832
-0.151539
-0.333726
-0.00215784
0.0244515
-0.373281
0.00137811
-0.0308258
0.0748418
-0.371238
-0.428446
-0.0235539
0.29846
-0.394099
0.0150035
-0.138578
-0.0593894
0.0939452
-0.40532
-0.427891
0.0405487
-0.429793
-0.428507
0.00818187
-0.430804
-0.433567
-0.264053
-0.0865499
0.0122239
-0.396461
-0.0446455
0.000908493
0.0453123
-0.240133
-0.068812
-0.432823
-0.432139
0.00499009
-0.0150113
-0.365085
-0.342127
-0.352186
0.0307771
0.35381
-0.00417359
-0.431368
0.355368
-0.380919
-0.111494
0.00878569
-0.0223851
0.00999667
-0.405982
0.081023
0.0169509
-0.435731
0.0091371
-0.0068649
-0.100939
-0.402066
-0.368014
-0.296331
0.0218466
-0.427072
-0.022744
-0.0242558
-0.240614
-0.323713
-0.374199
-0.423135
0.0640752
-0.432944
-0.252289
0.00238729
0.467881
0.0307109
0.0485264
0.00286282
0.0399904
0.0511994
-0.00802469
-0.113659
-0.427074
-0.0024739
0.00228748
-0.0583641
-0.0954674
-0.244309
0.0136045
0.0343833
0.024549
-0.324609
0.000968157
-0.00122342
-0.070625
0.0540924
-0.12131
0.038145
-0.36537
-0.392303
-0.0809533
-0.433207
-0.00460371
-0.256476
-0.43606
0.0192883
-0.0098905
-0.269376
0.363583
0.0547546
-0.0247004
-0.429535
-0.351026
-0.179216
-0.0247291
0.079798
-0.43356
0.0289218
-0.338099
0.011022
0.055394
0.0548804
-0.427626
-0.0630554
0.0022298
0.0288083
-0.096452
-0.195796
0.0177052
-0.229798
-0.409698
0.0363994
-0.433331
0.0335647
-0.173324
-0.289448
0.019552
-0.397838
0.504941
-0.0485222
0.0461812
-0.00259284
-0.149401
-0.425269
0.0413244
-0.427408
-0.43374
0.051541
-0.00467785
-0.346933
-0.206729
-0.307661
-0.43037
-0.0403663
-0.434951
0.0160766
0.0325258
0.0709274
0.069245
0.0219879
-0.0258439
0.0301327
0.0104197
-0.0418879
0.0115865
-0.431904
0.0469858
0.360702
0.0198871
-0.0139643
-0.257687
-0.429615
-0.36669
-0.0712613
-0.216398
-0.0368714
-0.0109708
0.0357249
-0.0478738
0.119677
-0.212161
-0.430446
-0.431618
-0.147048
-0.435531
-0.0171288
-0.430514
0.0399361
-0.0771802
-0.43338
-0.0260298
-0.436461
0.0308287
-0.429768
-0.42885
-0.190722
-0.355563
-0.177873
-0.414264
-0.0114594
-0.0238265
0.00769357
-0.421571
-0.218334
0.0587107
0.0314009
-0.0278152
0.0403476
0.0163475
-0.390203
-0.298256
-0.0296224
-0.289238
0.0112279
-0.234088
0.321847
-0.374197
-0.0268478
-0.427455
-0.00472185
-0.368371
-0.436106
0.0994226
-0.201849
-0.0705389
-0.252089
-0.428879
-0.396936
0.0925788
-0.0736477
0.0889701
-0.0450478
-0.0686008
-0.271422
-0.109005
-0.224178
0.029356
0.0674567
0.100601
-0.030538
0.00113795
-0.0216456
-0.431013
-0.0208324
-0.122467
-0.164947
0.036558
-0.287202
-0.39491
-0.267542
0.0393928
0.00526954
-0.43598
-0.0255917
0.0329407
0.014496
0.0520005
-0.0625306
0.103856
-0.0412927
0.382513
-0.0607329
-0.203995
-0.353399
0.0486616
-0.431131
0.0410554
-0.429739
-0.139506
0.119479
-0.0148952
0.0792707
-0.35115
-0.0108205
0.0756434
-0.415841
-0.0407692
-0.0165304
-0.285047
-0.336824
-0.00351916
-0.0155434
-0.437066
-0.428448
-0.367506
-0.00848671
0.0202938
-0.42914
-0.0265127
0.0299606
0.0613557
0.0543695
0.149138
-0.00494058
-0.434659
-0.0886498
0.290654
-0.00389637
0.0350034
0.0914236
-0.418146
-0.429326
-0.27349
-0.0457033
-0.427291
-0.360042
-0.430119
0.0328652
-0.0143252
-0.429027
-0.00207616
-0.429406
-0.432677
-0.43146
0.0039927
-0.0225595
-0.00305245
-0.0461604
0.0692203
-0.431765
-0.34926
0.177156
-0.31269
-0.00223714
-0.430729
0.00165914
0.0391102
-0.429166
-0.352427
-0.0227834
-0.0586014
0.459581
0.029936
-0.429216
-0.0976783
-0.418149
0.00650143
-0.43485
-0.371171
-0.0657678
-0.345346
-0.434391
-0.416698
-0.27808
-0.201497
-0.0732711
-0.345308
0.0260925
-0.0365148
0.0282
-0.329884
0.0416494
0.0457812
0.0185565
-0.197568
0.0423656
-0.0262826
-0.369659
-0.391466
-0.224798
-0.435097
-0.375071
0.0202932
-0.269224
-0.410044
-0.125718
0.00116937
-0.0115324
0.0834817
-0.434625
-0.410281
-0.346328
-0.00196811
-0.406265
-0.417425
-0.426337
-0.4248
-0.0161837
-0.221679
-0.0104178
-0.0175199
-0.423375
-0.30919
0.0264737
0.033423
0.00970048
0.0212994
-0.428561
-0.42914
-0.32355
-0.0259605
-0.435152
-0.0369055
0.434607
0.500575
0.353039
-0.0353059
0.0358408
-0.43429
0.000643383
-0.430159
-0.00359365
-0.299096
0.0608822
-0.185519
-0.431285
-0.0433521
-0.436074
-0.137116
-0.430491
0.047439
-0.407405
-0.00343457
-0.427884
-0.41541
-0.41727
-0.426741
0.0535514
-0.42863
0.0925318
-0.135296
-0.224083
-0.352271
-0.0505075
0.000657912
-0.421863
-0.0198968
-0.0416314
-0.435237
0.0146309
0.0205548
-0.419146
-0.385802
-0.34793
0.0323759
-0.431736
0.0296588
-0.0449207
-0.416436
-0.0545308
-0.0295343
-0.426659
-0.433374
-0.0696599
-0.417133
0.0144583
-0.155094
0.467564
-0.428597
-0.0796084
-0.162389
-0.388893
-0.418992
-0.433437
-0.0175495
0.0896218
0.146604
-0.0495215
-0.0143009
-0.0762338
0.0447129
-0.43076
-0.433693
0.00913868
-0.0241641
0.0429798
0.181834
0.0187109
-0.342694
-0.196905
-0.363324
0.381605
-0.0363295
-0.0181628
-0.255128
-0.0152936
-0.422715
0.0324356
-0.436121
-0.301664
-0.425432
-0.202202
-0.00196439
-0.107882
-0.396306
-0.201686
0.0247023
-0.434308
-0.0060276
0.0712319
-0.129477
-0.129547
-0.42608
-0.428378
0.220163
-0.397625
-0.431133
-0.0879223
-0.430254
-0.144974
-0.397286
0.139154
-0.0229758
-0.399755
-0.425466
0.116279
-0.398396
0.0731277
-0.102946
0.00621162
-0.0937145
-0.430358
0.0535807
-0.0270749
0.045331
-0.220012
-0.435411
-0.429123
-0.000446261
-0.363234
-0.249401
-0.424592
-0.431229
-0.371823
0.0342054
-0.431903
-0.432181
-0.00577427
0.130963
-0.0403258
0.00788307
0.0370558
0.185848
-0.425372
-0.112569
-0.398497
-0.0105996
0.0307461
-0.291686
-0.240732
-0.276646
0.121851
-0.0481106
-0.292061
-0.434848
-0.333433
-0.432369
-0.431989
-0.405341
0.27376
0.0679726
-0.431134
0.0175496
-0.434955
-0.434177
0.369021
-0.416255
-0.410847
0.0167558
-0.00327231
-0.358599
-0.236027
0.293975
0.0324014
-0.0047459
-0.437488
-0.319356
-0.333194
-0.127444
0.0761578
0.000634188
0.0209842
0.000815798
0.0608393
-0.139381
-0.036089
-0.42871
-0.422989
0.0438855
0.0315469
0.00171912
0.421004
-0.142927
-0.405172
0.0286756
0.00252489
-0.267594
0.0112509
-0.309292
0.292368
-0.2076
0.370245
-0.422806
-0.00405625
-0.373072
0.230778
0.0370592
-0.0841463
-0.0174686
-0.438766
-0.0614133
-0.42876
-0.428624
0.0116692
-0.403341
0.0916247
0.353935
-0.155718
-0.0710419
0.228323
-0.429199
-0.0250937
-0.435333
-0.0942523
-0.280019
0.0528162
-0.409536
-0.240439
0.0526991
-0.431061
-0.322192
-0.00445526
-0.026444
-0.396401
-0.0716827
-0.436079
-0.106823
0.502595
-0.417901
-0.358603
-0.387489
-0.428242
0.0134354
0.0181231
-0.435705
-0.435544
-0.435193
0.0500714
-0.0364852
-0.166674
-0.428944
-0.3258
-0.435028
-0.435815
-0.435045
0.0046396
-0.0321097
0.00269586
0.0339236
-0.133657
-0.0181446
-0.295239
-0.206073
-0.365658
-0.38557
0.00672991
-0.0210909
-0.386012
-0.166639
0.0399514
-0.391766
-0.430611
-0.357303
-0.0581446
-0.429821
-0.429016
-0.430677
-0.417427
0.0391211
0.00503198
-0.430638
0.176559
0.110495
0.0844791
-0.361408
0.139907
-0.160107
-0.01801
-0.430075
-0.329304
-0.432977
0.0340553
-0.133071
-0.431529
-0.328668
-0.352281
-0.437372
-0.412948
0.0225509
-0.109042
-0.239709
-0.390953
-0.0694944
-0.11277
0.0359432
0.0132939
-0.0412791
-0.430753
-0.37371
-0.407292
-0.00107711
-0.43309
0.00940151
-0.0680834
0.0943742
0.192702
-0.0433002
-0.207109
0.118928
0.0255345
0.0251876
-0.0467547
0.293891
-0.423156
0.049017
0.0148358
-0.376736
-0.420481
-0.0183646
0.159699
-0.0610753
-0.00817358
0.027629
-0.432714
-0.399768
0.440197
-0.21869
-0.421657
-0.178984
-0.430256
-0.402585
-0.423285
-0.392547
0.00711191
0.373404
-0.303485
0.0103524
-0.38184
-0.00701895
-0.431722
0.010292
-0.429677
-0.435706
-0.0256406
-0.42751
0.221248
-0.423241
-0.11434
0.0197607
-0.378389
0.0154235
0.00198919
-0.431029
-0.342934
-0.024149
0.211473
-0.135445
-0.0400319
-0.014923
-0.0981376
-0.434607
-0.0639875
-0.431753
-0.0679843
0.0396413
-0.431164
-0.342416
-0.434579
0.100899
-0.0158913
0.052663
-0.432892
-0.0218896
0.116552
-0.392602
-0.435239
0.000988787
-0.432123
-0.037088
-0.0410392
-0.427546
0.0132613
0.470153
-0.433346
-0.435627
-0.394158
0.122521