/*--------------------------------*- C++ -*----------------------------------*\
| =========                 |                                                 |
| \\      /  F ield         | OpenFOAM: The Open Source CFD Toolbox           |
|  \\    /   O peration     | Version:  v2012                                 |
|   \\  /    A nd           | Website:  www.openfoam.com                      |
|    \\/     M anipulation  |                                                 |
\*---------------------------------------------------------------------------*/
FoamFile
{
    version     2.0;
    format      ascii;
    class       volVectorField;
    location    "150";
    object      U_0;
}
// * * * * * * * * * * * * * * * * * * * * * * * * * * * * * * * * * * * * * //

dimensions      [0 1 -1 0 0 0 0];


internalField   nonuniform List<vector> 
18649
(
(-0.192785 -0.0380281 9.94115e-23)
(1.01107 -0.112522 2.19547e-21)
(1.07071 -0.00179255 0)
(-0.19317 -0.0469994 -1.07258e-19)
(0.474233 -0.167612 1.1843e-19)
(1.10654 -0.073142 -2.5588e-20)
(0.0926647 0.0620105 -6.13573e-20)
(1.27092 -0.242647 -1.59608e-20)
(1.20578 -0.0130609 2.15563e-20)
(0.957847 -0.0495164 -8.76968e-22)
(1.21535 -0.300995 6.80954e-20)
(-0.277491 -0.043606 -2.18832e-20)
(1.01793 0.106248 -8.60591e-20)
(1.06936 -0.0020772 0)
(0.991764 -0.0179369 0)
(1.1732 -0.0589671 3.16096e-20)
(1.01514 -0.00236219 2.73367e-22)
(1.17323 -0.0560758 1.37333e-20)
(1.11717 -0.390584 3.60425e-20)
(0.0262185 -0.0401367 -1.35264e-19)
(0.0961927 -0.0611756 -9.6572e-21)
(1.04365 -0.0646971 0)
(-0.320463 -0.0589393 0)
(1.23197 0.070479 0)
(1.01584 -0.0155703 0)
(-0.0071335 -0.0421234 -2.90723e-20)
(1.03383 -0.0551475 -3.71321e-22)
(-0.270791 -0.0422163 -6.41065e-20)
(1.34483 -0.198673 0)
(1.03005 -0.00203689 -8.77311e-21)
(1.05232 -0.0460731 3.10912e-21)
(1.04534 -0.318953 7.0317e-21)
(1.00473 -0.00944446 -8.02353e-23)
(0.960068 -0.0990555 -2.63854e-20)
(0.979104 -0.0656207 5.41218e-21)
(-0.308815 -0.0560259 -3.21867e-20)
(0.879537 -0.0656182 6.09655e-20)
(1.01321 -0.0504662 9.40014e-22)
(1.03362 -0.0142855 4.73501e-21)
(1.26402 -0.244546 -4.77124e-20)
(1.21021 -0.0124015 -6.51307e-20)
(1.23276 0.0691779 -2.83644e-21)
(1.20868 0.0107235 -3.22267e-21)
(-0.241779 -0.0556061 -1.32783e-23)
(1.01417 -0.112542 8.46873e-22)
(1.03039 -0.00194921 -7.83465e-21)
(-0.0771395 -0.0497254 -1.09392e-19)
(-0.18601 -0.0476043 7.69357e-20)
(1.04283 -0.289769 5.97457e-22)
(1.03114 -0.0198304 7.81731e-21)
(-0.113718 0.0352189 2.95568e-20)
(1.10734 -0.113086 -4.00431e-21)
(0.402911 -0.0887809 2.50315e-20)
(0.501512 0.0144421 0)
(1.00458 -0.00896183 -1.69625e-21)
(1.01529 -0.284137 8.54633e-20)
(-0.178969 -0.0264018 0)
(1.2339 -0.0247251 0)
(-0.114574 -0.0370254 -1.15429e-19)
(0.959764 -0.0493709 9.99634e-22)
(-0.192377 -0.037045 -7.96396e-20)
(1.00302 -0.0204778 3.60923e-21)
(1.20569 0.0121679 0)
(-0.164465 -0.0468047 -4.54089e-20)
(1.01452 -0.0503228 0)
(-0.150993 -0.0469108 1.62754e-19)
(1.04409 -0.0377592 0)
(-0.175169 -0.0215531 0)
(-0.160319 -0.0441545 -8.4675e-20)
(1.33212 -0.0469672 8.03206e-20)
(-0.281277 -0.0553957 1.12058e-20)
(1.0039 -0.0229292 4.89398e-22)
(1.03069 -0.327846 1.907e-21)
(1.10529 -0.0411092 -8.24772e-23)
(0.964795 -0.0921711 2.11796e-20)
(0.0854553 -0.0631713 1.04941e-20)
(0.860719 -0.162584 1.24479e-20)
(1.03606 -0.160754 3.28821e-21)
(1.10294 -0.0404518 -8.59809e-21)
(0.962064 -0.501053 0)
(1.01554 -0.00199547 0)
(-0.100233 -0.0500775 0)
(-0.20021 -0.0507193 1.87514e-19)
(0.435523 -0.0929907 -2.39175e-20)
(0.835662 -0.263313 0)
(1.03336 -0.0134509 -6.6224e-21)
(0.886277 -0.115701 5.55094e-20)
(1.10544 -0.109834 3.03434e-20)
(1.14114 -0.155224 1.66377e-20)
(1.10986 -0.0461979 0)
(1.13964 -0.0263197 -3.83152e-20)
(0.965737 -0.0293811 0)
(1.00387 -0.0438108 -3.30754e-21)
(-0.090147 0.0372906 -7.32527e-20)
(1.04295 -0.0629278 0)
(1.21006 -0.294199 9.73367e-20)
(0.965087 -0.0541864 0)
(0.93813 -0.45941 5.68586e-22)
(-0.153045 -0.0438064 -4.28049e-20)
(1.03309 -0.0535441 2.9942e-22)
(-0.32054 -0.0574776 -1.08814e-19)
(0.916957 -0.231131 0)
(1.01949 -0.00712731 2.601e-23)
(-0.105166 0.0370805 0)
(-0.162419 -0.0431322 4.69107e-20)
(1.11067 -0.113166 -6.48414e-22)
(0.999081 -0.0042249 -4.92751e-21)
(1.05661 -0.0494887 -7.2332e-22)
(0.917864 -0.237556 -2.11155e-20)
(0.963025 -0.084198 1.80917e-20)
(-0.307501 -0.0562962 -5.87324e-20)
(0.680606 -0.213951 -1.34603e-19)
(1.00365 -0.0427108 -2.99255e-21)
(0.958854 -0.0815641 -5.67626e-21)
(1.29323 -0.0298916 6.07717e-20)
(1.07964 -0.00295127 -9.93638e-21)
(1.00418 -0.00854831 -2.95555e-23)
(-0.107555 0.000490529 0)
(-0.248846 -0.0558172 0)
(1.03991 -0.0189092 0)
(-0.120398 -0.0374941 1.15093e-19)
(1.02089 -0.0637271 0)
(1.03504 -0.321172 -1.7867e-21)
(1.00345 -0.0227258 5.3512e-23)
(-0.125604 -0.0530754 3.6663e-20)
(1.01614 -0.0161518 0)
(1.00002 -0.000331401 -7.07975e-21)
(0.0157202 -0.0357711 2.55752e-20)
(1.01991 -0.0626752 -1.25834e-21)
(-0.0928364 0.00384805 4.94349e-20)
(0.99831 -0.0350545 5.08007e-22)
(-0.196316 -0.0509152 -1.21001e-19)
(1.0166 -0.0299377 9.18461e-22)
(-0.0926244 -0.0400095 9.24322e-20)
(0.874488 -0.0653218 -2.19502e-20)
(0.999673 -0.00392142 -1.14304e-20)
(-0.268787 -0.0565717 -1.21275e-23)
(-0.173043 -0.0246881 0)
(1.1378 -0.0245049 3.36064e-20)
(1.03338 -0.157102 0)
(0.4711 -0.544032 -2.36642e-20)
(1.02403 -0.0428902 0)
(1.02866 -0.0156473 0)
(1.00809 -0.0145896 1.10088e-21)
(1.00005 -0.00757215 -1.2422e-20)
(-0.261261 -0.0301775 0)
(1.02919 -0.0154288 0)
(1.00136 -0.0160156 -9.38411e-21)
(-0.319251 -0.0551441 0)
(-0.164915 -0.0438778 9.44044e-20)
(1.33637 -0.0162136 -4.58415e-20)
(0.999581 -0.00252765 0)
(-0.232649 -0.0528735 0)
(1.05692 -0.0213182 -9.89352e-21)
(1.02283 -0.054621 0)
(1.00769 -0.0142043 0)
(0.588096 -0.241684 0)
(0.960285 -0.48387 -4.66052e-21)
(1.00468 -0.00488583 -6.35145e-22)
(0.987482 -0.0390973 3.98269e-21)
(1.00039 -0.0137272 6.93409e-21)
(1.28858 -0.32076 1.09241e-19)
(-0.111403 -0.0381505 -9.49439e-20)
(1.05639 -0.0221668 -9.3722e-21)
(-0.117834 -0.0528883 0)
(1.29329 -0.0341037 -6.0243e-20)
(0.999065 -0.00449254 0)
(1.00512 -0.0240925 -1.58655e-21)
(1.02375 -0.0556844 2.52108e-22)
(1.07779 -0.00338641 -1.60575e-20)
(0.997694 -0.0346676 0)
(0.139025 -0.439821 1.18541e-19)
(1.22993 -0.0268359 0)
(0.480681 -0.188541 0)
(1.01587 -0.0485568 2.47153e-21)
(0.537968 0.105537 -9.26037e-20)
(-0.322647 -0.0554469 -3.81052e-23)
(1.01848 -0.115537 -2.4553e-21)
(1.00438 -0.00469553 -6.19641e-22)
(1.34061 -0.0465086 0)
(1.35242 -0.0383043 0)
(1.02779 -0.00511498 0)
(1.00003 -0.000662194 2.06068e-21)
(-0.197657 -0.0130068 -5.55545e-20)
(1.0909 -0.0968856 0)
(1.17508 -0.0311031 0)
(1.0001 -0.00719106 9.37743e-21)
(1.02459 -0.0424642 0)
(1.15395 0.00877721 0)
(0.971072 -0.194807 0)
(0.877207 -0.791878 -1.98428e-20)
(1.01536 -0.0531424 0)
(-0.167448 -0.0261929 -6.66708e-20)
(1.05144 -0.0205208 0)
(1.01816 -0.00611547 1.7128e-21)
(1.00029 -0.00493911 0)
(0.89033 -0.11347 -1.99432e-20)
(0.977394 -0.291818 -1.16393e-21)
(0.964083 -0.0950316 1.11678e-20)
(1.00005 -0.000580706 0)
(1.00126 -0.0152813 0)
(1.27699 -0.035215 0)
(-0.181368 -0.0209669 -6.50567e-21)
(0.89005 -0.0781354 -1.71737e-20)
(1.14476 -0.158905 8.30056e-21)
(0.708464 -0.182818 1.93718e-20)
(1.32896 -0.188229 3.26225e-20)
(-0.0593442 -0.0496474 7.07799e-20)
(1.05519 -0.0486805 0)
(-0.23084 -0.0439507 -1.40412e-19)
(0.986808 -0.0421376 -4.12001e-21)
(1.01629 -0.0979248 8.1181e-22)
(1.01735 -0.0617126 0)
(-0.180378 -0.0277949 1.4575e-19)
(-0.200704 -0.0516683 1.5914e-19)
(1.03596 -0.0310149 -3.55909e-21)
(0.829276 -0.224647 0)
(1.02198 -0.0300161 8.03797e-22)
(-0.120589 -0.0529811 -1.05268e-22)
(0.997953 -0.0474471 1.08589e-20)
(1.22048 0.0300157 1.52783e-20)
(1.01889 -0.040049 -4.982e-22)
(0.314711 -0.803925 3.8891e-20)
(0.164472 -0.454669 -1.06341e-21)
(0.0586978 -0.0422962 1.0119e-19)
(-0.0959006 0.0322772 3.83055e-20)
(1.03694 -0.0318439 4.17325e-21)
(0.997882 -0.0461063 -4.76572e-21)
(0.374772 -0.0829466 0)
(0.611291 0.106405 1.18572e-19)
(1.15342 0.0152956 6.11136e-21)
(1.01651 -0.0275685 1.93497e-22)
(-0.321144 -0.0564228 0)
(1.1722 -0.0658897 -2.94071e-20)
(0.0494673 -0.0402674 1.05997e-19)
(1.29715 -0.304533 1.47526e-20)
(0.595997 -0.22213 7.16877e-20)
(0.477579 -0.110001 6.26449e-20)
(1.01624 -0.0291351 -1.09914e-21)
(1.22785 -0.453177 -7.91208e-20)
(1.02119 -0.00481749 0)
(-0.221097 -0.0419933 -3.39935e-20)
(1.15257 0.0134553 1.35711e-21)
(1.02729 -0.00488403 2.18591e-22)
(0.959592 -0.0841846 1.19652e-20)
(0.976756 -0.193229 1.22451e-20)
(0.246889 -0.0621309 1.13108e-19)
(0.988164 -0.03858 0)
(0.773827 -0.348801 1.95946e-20)
(0.980597 -0.286011 -5.88194e-21)
(-0.314226 -0.052205 7.00052e-20)
(0.0754308 0.0583954 7.83515e-20)
(1.17263 -0.0291401 0)
(0.978485 -0.0676328 6.19985e-21)
(1.09413 -0.0969031 2.66297e-20)
(-0.24334 -0.0545107 0)
(1.01889 -0.0389528 5.62226e-22)
(0.986889 -0.041169 0)
(0.956226 -0.0819224 5.94226e-21)
(0.964548 -0.0866714 -1.89831e-20)
(1.03279 -0.0237581 -1.48403e-21)
(0.685071 -0.200587 8.02307e-20)
(-0.23039 -0.0443624 1.32993e-19)
(0.986007 -0.0379764 1.37009e-20)
(1.01745 -0.00611537 -1.59719e-21)
(-0.114339 -0.0504613 3.80238e-20)
(0.369622 0.0916671 -5.09385e-20)
(1.00023 -0.00489401 0)
(-0.19512 -0.00991275 -2.76692e-20)
(1.022 -0.0112205 0)
(-0.267235 -0.0325732 1.91295e-20)
(1.06333 -0.342187 -1.09078e-20)
(0.349255 -0.0801256 2.76237e-20)
(0.676096 -0.314151 0)
(1.12677 -0.388166 0)
(1.0512 -0.0194749 1.56502e-21)
(1.01711 -0.00555189 0)
(1.0956 0.102688 -5.48777e-20)
(-0.0867786 0.0330501 0)
(-0.106679 -0.0532212 -2.02879e-21)
(1.00017 -0.00754343 1.39615e-21)
(1.02095 -0.0297474 1.26436e-21)
(-0.224146 -0.0531897 2.38771e-20)
(1.05821 -0.128401 -1.19837e-20)
(0.878449 -0.137862 8.30924e-20)
(-0.31897 -0.0553024 0)
(1.05907 -0.0207985 0)
(0.8631 -0.170248 0)
(0.999742 -0.00317971 0)
(1.03054 -0.00629544 0)
(1.21771 0.0274878 -1.49691e-20)
(-0.310624 -0.0511202 2.89822e-20)
(0.233533 0.0667918 -6.5022e-20)
(0.296667 -0.0571029 -1.73229e-19)
(1.35186 -0.155621 -1.54614e-22)
(1.00012 -0.0778973 -9.37898e-21)
(1.34388 -0.0132126 0)
(1.34637 -0.198203 0)
(1.01852 -0.00656341 0)
(0.423527 0.0940901 0)
(1.00514 -0.000890999 -1.14162e-21)
(0.957658 -0.100445 3.61331e-20)
(0.966136 -0.0520586 0)
(1.00737 -0.014379 -2.51289e-22)
(1.03881 -0.0185956 4.78112e-21)
(0.466948 -0.123224 4.09868e-20)
(0.999715 -0.00373988 1.30725e-20)
(1.19234 -0.0327681 3.57153e-20)
(0.462766 -0.0924711 -5.45945e-20)
(0.960779 -0.0959349 -2.30784e-20)
(-0.0266556 -0.042118 0)
(0.960479 -0.0520143 3.5857e-20)
(0.490444 -1.13751 -2.41289e-20)
(0.992201 -0.017453 1.04728e-20)
(1.05858 -0.0216359 9.31732e-21)
(1.01676 -0.0285761 0)
(1.06892 -0.0225359 2.49052e-20)
(1.00003 -0.000295589 -4.09319e-21)
(-0.204179 -0.0514047 -9.33602e-20)
(-0.219325 -0.0539949 -6.98368e-20)
(0.999302 -0.00350644 0)
(1.00021 -0.0135989 -3.82475e-21)
(1.21121 -0.00935534 4.92606e-20)
(1.00023 -0.000433744 2.51245e-21)
(1.00695 -0.0139365 -1.72454e-21)
(1.03859 -0.0392935 0)
(1.00023 -0.00712557 0)
(0.921096 -0.159219 -3.30139e-20)
(-0.067118 -0.00999764 0)
(0.698635 -0.169091 6.62391e-20)
(-0.221379 -0.0435128 3.59436e-20)
(1.00466 -0.0236614 0)
(0.99982 -0.0117596 3.56639e-21)
(1.20313 0.0170844 1.23198e-20)
(1.00521 -0.00485522 5.92528e-22)
(1.03253 -0.000549505 0)
(-0.210832 -0.01357 -5.85643e-20)
(0.989975 -0.150227 0)
(1.24465 -0.130651 5.9396e-20)
(0.886057 -0.0802884 0)
(1.28506 -0.327744 -5.36775e-20)
(1.0049 -0.00467122 0)
(1.09263 -0.0128995 0)
(1.0183 -0.0629626 1.45799e-21)
(1.06822 -0.0705434 8.96515e-21)
(0.998725 -0.019493 3.09012e-21)
(1.0002 -0.00428576 -4.15035e-21)
(1.02072 -0.004342 -2.92277e-21)
(1.13774 -0.0203217 -1.92773e-20)
(1.1708 -0.0681971 0)
(0.995707 -0.0200747 7.16301e-21)
(1.01796 0.105266 -4.95843e-20)
(0.995445 -0.0207318 0)
(1.03852 -0.0386449 0)
(-0.216895 -0.042333 -1.27169e-19)
(1.03011 0.0524436 0)
(1.07012 -0.0234041 0)
(-0.0342376 -0.0469879 0)
(1.28848 -0.304403 0)
(-0.11175 -0.0530295 -1.60576e-20)
(0.173702 0.0664718 0)
(1.06676 -0.068631 -8.00198e-21)
(0.137842 0.0632452 0)
(0.995665 -0.0214457 0)
(0.122436 -0.0526864 1.05748e-19)
(0.518877 -0.940315 1.80332e-20)
(0.962285 -0.0519654 -2.54945e-20)
(0.904483 -0.0421438 -3.96823e-20)
(0.990051 -0.146607 7.83214e-21)
(1.05106 -0.0447572 0)
(1.01635 -0.0542874 -1.60326e-21)
(1.02777 -0.0152629 0)
(0.998988 -0.0182345 4.67051e-21)
(-0.190621 -0.0401806 -3.39534e-20)
(0.915414 -0.160852 0)
(0.0348725 -0.0423043 -1.05674e-19)
(-0.223807 -0.0436654 1.56345e-20)
(1.34694 -0.179432 0)
(0.211796 -0.0590975 -7.17462e-20)
(1.08375 -0.035124 -9.99058e-21)
(0.999962 -0.000515387 4.89871e-21)
(1.14973 0.0188435 0)
(1.01444 -0.0269823 0)
(0.835071 -0.822376 0)
(1.00005 -0.000120755 5.1437e-21)
(0.99966 -0.00248409 -7.73953e-21)
(0.0740095 -0.201558 0)
(0.260552 0.0709797 0)
(1.06131 -0.0510248 -3.8638e-21)
(1.032 -0.0213857 0)
(1.31697 -0.293981 6.8443e-20)
(1.10067 -0.220584 -8.32866e-21)
(0.994998 -0.0456257 1.1625e-20)
(-0.14874 0.0157282 -3.69945e-20)
(1.06658 -0.00204822 1.27431e-20)
(0.907077 -0.0405981 4.99547e-20)
(-0.302294 -0.0561666 1.72394e-19)
(1.08095 -0.0690128 -6.61385e-21)
(0.999756 -0.00297362 -3.92978e-21)
(-0.214745 -0.0116222 0)
(-0.192279 -0.0412989 0)
(1.17207 -0.0240324 -1.63487e-20)
(1.00334 -0.0306903 0)
(0.999897 -0.011342 0)
(-0.198991 -0.0370575 0)
(-0.210829 -0.0118374 7.21886e-20)
(1.02238 -0.0310543 0)
(1.3087 -0.267755 6.25532e-20)
(1.02369 -0.012371 0)
(1.02646 -0.039097 3.35858e-23)
(0.102325 0.0516586 0)
(1.03572 -0.0133816 2.32017e-22)
(-0.0557056 -0.00737037 0)
(1.08108 -0.0709291 0)
(1.24923 0.0547919 0)
(0.172129 -0.0541962 1.11476e-19)
(0.980516 0.108508 6.43928e-20)
(0.496368 0.102658 1.35499e-19)
(1.01448 -0.0249372 0)
(0.0290417 -0.0754257 5.47615e-20)
(0.995448 -0.0221311 0)
(1.1251 0.100544 7.72921e-20)
(1.14739 -0.249695 0)
(0.0865831 -0.0492936 6.20143e-20)
(0.391339 -0.0100741 9.80483e-20)
(1.02724 -0.0147818 -1.96248e-21)
(1.03275 -0.00012402 -1.41134e-22)
(1.22259 -0.463362 0)
(-0.0959588 -0.0526647 -3.24901e-20)
(1.09392 -0.0137523 7.91256e-21)
(0.684402 -0.301039 -5.62669e-20)
(1.05968 -0.0509222 3.47926e-21)
(1.04294 -0.0841355 8.88172e-21)
(1.01617 -0.00500863 -1.9075e-21)
(-0.0779361 0.00457116 2.11957e-22)
(0.978547 0.108083 5.37337e-20)
(-0.0552951 -0.0494976 -3.2556e-20)
(1.05398 -0.0455774 5.6459e-21)
(0.965771 -0.0281906 -7.22143e-21)
(0.0926675 -0.215416 0)
(-0.230995 -0.0547597 -8.05518e-20)
(0.905628 -0.0359944 -5.73907e-20)
(0.995072 -0.0768801 -1.19254e-20)
(1.03188 -0.0221957 0)
(1.02438 -0.0123925 -3.92888e-21)
(-0.100499 -0.0527389 0)
(0.00188931 -0.0360023 4.81205e-20)
(1.00407 -0.00743123 -1.08626e-22)
(1.05093 -0.0101806 -8.05552e-21)
(-0.309483 -0.0565739 0)
(1.03512 -0.0180052 4.54062e-22)
(-0.279781 -0.0515649 1.86108e-19)
(1.03104 -0.0205263 -5.74909e-21)
(-0.154014 -0.0273985 0)
(1.09481 -0.218317 -2.56277e-20)
(0.103479 -0.050511 5.62221e-20)
(0.944194 -0.13536 -1.59696e-20)
(0.536552 0.0180586 -4.14464e-20)
(-0.226771 -0.0431759 9.11576e-21)
(1.022 -0.124242 -1.58534e-21)
(1.20508 -0.0173376 -2.38956e-20)
(1.04398 -0.0825773 -4.04887e-21)
(1.19649 -0.0225323 2.02482e-20)
(1.08265 -0.033434 0)
(0.98804 -0.0352162 0)
(1.05802 -0.131446 7.98725e-22)
(0.200125 -0.579698 -6.40118e-20)
(1.03072 -0.00679578 0)
(1.0723 -0.0435287 0)
(-0.233699 -0.0544648 2.18705e-20)
(1.02281 -0.0130531 6.20623e-21)
(1.00017 -0.00427367 0)
(1.19111 0.0969932 0)
(1.01415 -0.0153939 3.03324e-22)
(-0.23379 -0.0550045 -3.64941e-20)
(1.06141 -0.0201022 0)
(1.06867 -0.020125 0)
(1.04968 -0.00802427 0)
(1.1171 -0.0528601 -2.6318e-20)
(1.06527 -0.00143331 1.0996e-20)
(1.00004 -0.000490978 1.13508e-22)
(0.541847 -0.548732 0)
(1.02699 -0.0402249 -1.01478e-22)
(0.828372 -0.144046 0)
(1.00021 -0.0127387 -3.57957e-21)
(1.08782 -0.118778 3.17803e-20)
(-0.244622 -0.0558809 -8.49664e-20)
(1.00004 -0.000982861 -1.1702e-22)
(0.766886 0.0586021 1.6304e-20)
(1.07469 -0.100066 0)
(0.0965312 0.0662222 0)
(-0.235211 -0.0164206 6.00926e-20)
(-0.238653 -0.0170677 0)
(-0.268046 -0.0525571 0)
(1.11981 -0.0535212 2.95588e-20)
(1.17587 -0.239402 6.23617e-22)
(1.1523 0.0178501 7.09915e-21)
(-0.279205 -0.0522197 -9.32261e-20)
(0.977759 -0.0341275 0)
(1.14755 -0.315732 -4.72445e-20)
(0.969193 -0.088468 1.79307e-20)
(0.533637 -0.0318584 9.7179e-20)
(1.28229 -0.0332649 -5.26938e-20)
(1.07414 -0.265186 0)
(1.00026 -0.000416436 -2.0495e-21)
(0.385735 -0.343626 -7.37242e-20)
(1.28399 -0.000914907 6.82978e-20)
(0.122522 0.0514498 9.57105e-21)
(1.04358 -0.0342299 0)
(-0.298036 -0.0563027 -2.26652e-19)
(0.927523 -0.0433176 -5.99946e-22)
(1.22395 0.0252831 -1.57637e-20)
(0.99676 -0.0110791 6.06669e-21)
(1.15009 -0.256788 -3.31206e-20)
(-0.231856 -0.0558231 6.5e-20)
(0.999423 -0.00320656 -7.91256e-21)
(1.05007 -0.00952412 0)
(-0.238373 -0.018113 0)
(1.03714 -0.0202038 0)
(0.952075 -0.450754 -5.48897e-22)
(1.03539 -0.0206903 0)
(1.10915 -0.0736682 2.37006e-20)
(1.033 -0.0561711 1.20734e-21)
(1.14499 -0.103152 1.42272e-20)
(1.01386 -0.0148094 -1.37426e-22)
(0.724879 -0.480373 -2.3029e-20)
(1.00008 -0.000879011 1.41434e-21)
(0.069291 0.069827 -1.64485e-20)
(1.04479 -0.0343362 0)
(-0.267426 -0.0510902 -1.21193e-19)
(1.24965 -0.0966717 0)
(-0.0944276 0.0366186 4.37216e-20)
(-0.226278 -0.055359 -8.37808e-20)
(1.07042 -0.0426835 0)
(1.06972 0.0460064 6.87408e-21)
(1.19526 -0.0259106 3.90913e-20)
(0.0183651 0.00181297 9.57199e-20)
(-0.22462 -0.0433664 -1.98999e-20)
(1.0404 -0.0175667 5.7506e-22)
(0.820906 -0.142108 2.61902e-20)
(1.24655 0.0529971 -5.00431e-20)
(1.07207 -0.026903 1.28815e-20)
(1.26926 0.0686227 8.21179e-21)
(1.0153 -0.0591702 0)
(0.999231 -0.00393906 4.4891e-21)
(1.07099 -0.0278699 -4.73614e-21)
(1.00355 -0.000637963 1.0846e-21)
(1.00006 -0.000716835 3.42664e-21)
(1.01482 -0.0606947 2.29468e-21)
(0.41191 -0.161624 1.11856e-19)
(1.02252 -0.0118114 0)
(1.02704 -0.03118 0)
(1.11267 -0.0466611 -1.00364e-20)
(1.04514 -0.0918405 7.31979e-23)
(0.507419 -0.531921 4.4792e-20)
(-0.0993402 0.0350194 3.4423e-20)
(0.976661 -0.0339141 -7.33852e-22)
(1.20587 0.0159297 1.39654e-20)
(1.32332 -0.179903 0)
(1.06835 -0.269356 0)
(1.00003 -0.0126458 7.49637e-21)
(0.0292809 -0.0517476 0)
(0.65589 0.107822 -4.19161e-20)
(0.174428 -0.0716482 0)
(1.27176 0.0659988 -9.83081e-21)
(1.15468 0.0108383 0)
(1.0474 -0.0815309 1.41967e-21)
(1.12074 -0.0630183 7.40831e-21)
(1.13933 -0.0220297 0)
(1.06309 -0.0199427 -5.67731e-21)
(1.35745 -0.149873 2.94248e-20)
(1.00908 -0.0344278 0)
(1.06341 -0.0190874 -6.48533e-21)
(1.03075 -0.0102849 3.00284e-21)
(-0.156965 0.0194338 0)
(0.088635 -0.0515147 -1.7686e-19)
(-0.255091 -0.0246456 -3.23696e-20)
(1.02567 -0.154051 1.48769e-22)
(1.00455 -0.0296996 -3.74986e-21)
(-0.203617 -0.0387971 0)
(-0.139249 -0.0466283 -8.7048e-20)
(0.904136 -0.790732 1.58591e-20)
(1.08999 -0.120911 -1.49146e-20)
(0.762967 -0.0528019 -1.62158e-21)
(-0.201947 0.0016561 -6.79237e-21)
(1.00484 -0.000683037 9.05413e-22)
(-0.241841 -0.0192679 0)
(1.04298 -0.0910813 -6.22085e-23)
(0.954822 -0.062683 0)
(0.95764 -0.0362963 0)
(0.588874 -0.603553 -2.97798e-20)
(-0.14719 -0.0433419 2.27353e-20)
(1.06093 -0.0209815 0)
(0.719736 -0.460515 0)
(0.942498 -0.140036 -9.39962e-21)
(0.99879 -0.0767579 1.12152e-20)
(-0.186992 -0.0267628 -8.67084e-20)
(1.0511 -0.561054 -3.00981e-20)
(0.996013 -0.0285184 4.62186e-21)
(0.0337428 0.000683075 -9.02652e-20)
(1.13961 -0.0292084 1.00567e-20)
(-0.0867127 0.0398566 -5.47081e-20)
(1.02174 -0.0550142 7.7675e-22)
(0.62857 -0.140247 -7.16811e-20)
(1.14424 -0.100907 2.59807e-20)
(1.11834 0.00994856 -1.20426e-20)
(1.01087 -0.000449425 -3.27594e-22)
(0.104795 -0.0522811 -7.04262e-20)
(1.17772 -0.134728 2.31794e-20)
(1.2073 -0.0238714 0)
(1.20294 0.0273283 1.27611e-20)
(-0.20328 -0.0553745 0)
(1.09374 -0.0159158 7.43746e-23)
(-0.249248 -0.0223694 5.95352e-20)
(1.05624 -0.0318044 0)
(1.02796 -0.158112 0)
(0.128517 0.034069 -8.11081e-20)
(1.10413 -0.0747898 1.32957e-20)
(1.00508 -0.00976503 0)
(0.753895 -0.0568452 -1.4883e-21)
(1.06989 -0.0328941 -1.35285e-20)
(1.19736 0.0200876 6.57749e-20)
(1.0264 -0.0303347 2.78298e-23)
(0.992991 -0.033378 6.17915e-21)
(0.464572 -0.577849 -3.44842e-20)
(1.18457 -0.497159 0)
(-0.121826 -0.0535556 -7.67475e-20)
(1.00007 -0.000405838 0)
(-0.235826 -0.0551071 3.79886e-20)
(1.03198 -0.0196484 0)
(0.908033 -0.542184 1.69054e-21)
(1.17407 -0.0259708 9.77839e-21)
(1.03078 -0.0108993 -3.1705e-21)
(1.04071 -0.0379931 -5.26021e-21)
(0.963205 -0.0543264 -8.87342e-21)
(1.2741 -0.0457515 0)
(0.970842 -0.0542372 -1.4541e-20)
(1.17477 -0.245615 4.51208e-22)
(1.22707 0.02433 1.19266e-20)
(0.965657 -0.224554 1.72935e-20)
(1.02214 -0.0419612 0)
(1.02058 -0.0288048 -8.10423e-22)
(0.955143 -0.0794837 0)
(0.279971 0.0143142 3.98346e-20)
(1.0031 -0.0198465 3.45169e-21)
(0.912362 -0.137334 -1.55839e-20)
(1.02012 -0.007151 -2.71592e-21)
(-0.133471 0.0365647 1.58673e-20)
(1.00003 -0.00136726 0)
(0.950371 -0.0634537 2.47328e-20)
(1.06488 -0.00511656 -3.12259e-21)
(1.02231 -0.0124488 -3.23206e-21)
(-0.310906 -0.0563361 1.04342e-19)
(1.28029 -0.00331754 -3.13388e-20)
(0.18452 -0.385792 0)
(1.01543 -0.115804 3.46345e-21)
(0.530184 -0.11726 -1.53676e-21)
(1.13729 -0.0302363 0)
(1.03301 -0.0145629 1.66799e-21)
(1.1245 0.0144684 2.98481e-20)
(-0.156692 -0.0431799 0)
(1.0834 -0.0655521 1.14844e-20)
(1.04271 -0.0378667 3.08033e-21)
(0.323201 0.0170775 3.89249e-20)
(0.536171 0.0879748 0)
(1.00088 -0.0164949 9.74065e-21)
(-0.217358 -0.0531291 0)
(0.193061 -0.0870925 0)
(1.05659 -0.0330548 5.12194e-21)
(1.06336 -0.016589 0)
(1.17358 -0.182562 2.40189e-20)
(0.959376 -0.0353659 -1.4104e-20)
(0.996533 -0.0283044 0)
(0.829177 -0.857008 0)
(-0.280135 -0.0552444 -1.33954e-20)
(-0.180838 -0.0236158 0)
(0.356085 0.0135545 -8.24802e-20)
(0.996795 -0.0255074 -1.80334e-20)
(0.778854 -0.281948 0)
(1.00513 -0.0249548 0)
(1.00751 -0.0197744 -1.01387e-21)
(1.03213 -0.0140529 -3.00814e-21)
(-0.172999 -0.0464928 0)
(1.02043 -0.0011189 -4.08385e-21)
(1.01689 -0.0495485 -2.06767e-21)
(-0.198178 0.0024423 7.50754e-23)
(-0.235135 -0.0548984 -1.27911e-19)
(1.06922 -0.0503996 1.84651e-20)
(1.32972 -0.152973 1.06666e-19)
(1.08876 -0.124039 -9.05144e-21)
(1.00404 -0.00808195 0)
(0.202 0.0833213 0)
(1.10696 -0.0400425 -2.26444e-22)
(1.17221 -0.490493 0)
(1.00542 -0.0740172 0)
(1.00949 -0.546157 -4.20298e-22)
(1.03243 -0.00122114 -4.68292e-21)
(1.09555 -0.0165555 -8.47009e-21)
(0.999961 -0.000834038 8.68101e-21)
(1.19186 -0.364436 5.90215e-20)
(1.02294 -0.0426453 0)
(-0.18557 -0.0496389 2.07364e-20)
(0.324661 -0.0748943 0)
(1.2949 -0.116746 -7.43698e-20)
(-0.11931 -0.0397382 -1.74521e-23)
(-0.108438 -0.0529486 0)
(0.910935 -0.101357 3.9204e-20)
(-0.270832 -0.0563199 -1.00677e-19)
(1.22918 -0.257096 0)
(1.22349 0.0289837 1.69265e-20)
(0.957258 -0.0381344 4.74343e-21)
(1.03951 -0.0377063 5.12178e-21)
(-0.0683198 -0.0496489 -3.63454e-20)
(0.45023 0.0934149 0)
(1.30872 -0.190006 -3.72386e-20)
(1.20129 -0.295999 -9.16353e-20)
(1.0823 -0.269202 -2.59812e-20)
(0.998692 -0.0189189 5.19579e-21)
(1.01967 -0.122018 2.2704e-22)
(0.151086 0.0331462 9.28321e-20)
(-0.22127 -0.042362 1.93702e-19)
(1.00421 -0.0287837 1.66204e-22)
(1.05843 -0.0857207 0)
(-0.148348 -0.0194539 -2.61883e-20)
(0.0557329 0.0696438 -8.00871e-20)
(0.0583829 -0.0489168 -9.30997e-20)
(1.27644 -0.0504961 5.83318e-20)
(1.00793 -0.000332387 1.81684e-22)
(0.956656 -0.0637356 2.87904e-20)
(-0.246752 -0.0556903 7.92191e-20)
(-0.00511778 -0.0503641 0)
(1.01346 -0.00317736 9.08615e-22)
(1.12114 -0.0276416 -3.33719e-20)
(1.01649 -0.00553476 1.62228e-21)
(0.732188 -0.898855 -5.55413e-22)
(0.997017 -0.0105802 0)
(1.19082 -0.0965464 -6.05951e-20)
(1.08796 -0.264404 3.026e-20)
(1.00122 -0.0164557 8.32978e-21)
(1.05694 -0.00142955 0)
(-0.23223 -0.0561249 2.39758e-20)
(0.996303 -0.022723 0)
(1.07175 -0.099107 6.67506e-21)
(0.992502 -0.0327439 -6.23026e-21)
(1.01104 -0.000762513 8.36055e-23)
(1.00171 -0.0370993 7.38625e-23)
(1.07917 -0.642032 -1.88309e-20)
(0.866747 -0.371237 -3.24047e-20)
(1.34349 -0.191736 -2.56803e-20)
(0.191524 0.0636479 -7.09585e-20)
(-0.233535 -0.0554872 6.44642e-20)
(-0.172781 0.010932 0)
(1.00001 -0.000860918 -9.93349e-21)
(1.25609 -0.0873198 0)
(0.907047 -0.0487917 5.21578e-20)
(1.08602 -0.0838996 -2.56557e-20)
(1.32118 -0.263544 -6.91376e-20)
(0.998489 -0.020119 0)
(0.987467 -0.0344193 -1.73108e-21)
(1.03931 -0.0171152 0)
(0.331859 -0.867633 -3.25312e-20)
(-0.0948256 0.0300017 -8.84113e-20)
(0.343999 -0.760957 1.69826e-20)
(0.997477 -0.0283773 -1.49042e-20)
(0.985941 -0.144295 -8.05922e-21)
(1.03406 -0.0131807 -2.57256e-23)
(1.03158 -0.0143696 1.11516e-22)
(1.03239 -0.000381877 -1.00519e-20)
(0.99525 -0.0929697 -7.69527e-21)
(0.965655 -0.219946 -1.86915e-20)
(-0.131194 0.0379493 7.10199e-23)
(0.91826 -0.137736 1.36707e-20)
(1.0072 -0.0193765 0)
(0.940637 -0.476105 -6.33818e-22)
(0.67036 -0.923153 -1.71933e-20)
(0.837171 -0.218398 1.12557e-21)
(1.00655 -0.0194278 2.55909e-21)
(-0.0810751 0.0279802 -1.13023e-19)
(-0.138426 -0.0538902 0)
(1.00446 -0.0281679 7.80546e-21)
(-0.164916 -0.0447373 -9.01535e-20)
(1.3166 -0.290324 -6.29786e-20)
(1.17584 -0.0148321 0)
(0.985554 -0.140188 0)
(0.999675 -0.00845725 0)
(1.01502 -0.0952986 -1.49938e-21)
(1.14316 -0.307339 0)
(-0.134363 -0.0418948 -1.03339e-19)
(1.01791 0.109638 -1.50779e-20)
(1.04426 -0.0367017 -7.36596e-22)
(-0.0978043 0.0375575 -2.97012e-20)
(-0.238365 -0.0176059 6.51838e-20)
(-0.281605 -0.0528818 -7.1943e-20)
(1.06329 -0.0158612 1.72602e-21)
(-0.238549 -0.0528566 0)
(1.27912 -0.221471 -2.48431e-21)
(-0.270268 -0.0479323 0)
(0.83314 -0.252812 0)
(0.238905 -0.0839728 -6.71391e-20)
(1.04041 -0.0196275 0)
(-0.238178 -0.0546883 1.39187e-19)
(0.405747 0.0174539 0)
(1.24082 -0.0391288 0)
(1.01555 -0.0516219 0)
(1.05048 -0.00865085 0)
(1.03374 -0.131522 8.35931e-22)
(1.34386 -0.0387204 0)
(1.03396 -0.0525111 1.58586e-21)
(1.29095 -0.119392 1.02126e-19)
(1.00716 -0.0742473 0)
(1.14191 -0.491465 2.1478e-20)
(1.1184 -0.064421 0)
(-0.269751 -0.0479688 0)
(-0.165259 0.0163101 5.89828e-20)
(1.03287 -0.0204036 -7.53677e-22)
(1.32622 -0.264529 0)
(1.0549 -0.262719 8.81605e-21)
(1.27129 -0.0508353 -1.04428e-19)
(1.22905 -0.162005 0)
(-0.0841344 0.0309859 3.88353e-20)
(0.999889 -0.0247347 -6.38571e-21)
(1.19586 -0.289133 0)
(0.687536 -0.245801 2.81561e-20)
(1.28806 -0.288597 -9.97823e-20)
(0.0741258 -0.0501263 0)
(0.995893 -0.0423654 0)
(0.197257 -0.0578013 -9.10743e-20)
(0.132327 0.0770673 -2.09296e-20)
(0.992429 -0.0283739 -1.08041e-20)
(0.137292 -0.0319745 -8.78024e-20)
(1.23223 -0.289047 -3.74041e-20)
(1.01289 -0.00313062 6.47487e-24)
(0.0529545 0.0688126 0)
(-0.214646 -0.0132703 -1.58324e-20)
(1.0253 -0.0662905 1.95075e-22)
(1.11868 -0.157055 0)
(-0.120303 -0.0372948 2.79981e-22)
(0.992094 -0.0278659 -6.69884e-21)
(0.0670244 -0.0471569 -9.48344e-20)
(0.995962 -0.0462175 -1.18145e-20)
(0.998569 -0.031306 -8.24541e-21)
(0.987983 -0.0332785 1.75162e-21)
(1.13992 -0.0493173 -4.20612e-20)
(1.00674 -0.0192095 0)
(1.03248 -0.00215683 6.71243e-21)
(-0.17569 0.00927118 4.62521e-20)
(0.999952 -0.000436702 -1.14216e-20)
(1.08365 -0.0677482 -1.97218e-20)
(1.05717 -0.0297995 1.00277e-20)
(0.511424 0.096113 5.64098e-20)
(0.871623 -0.186947 0)
(0.999509 -0.0243734 8.54941e-22)
(1.03798 -0.0189754 -9.04295e-22)
(0.0722856 -0.0452033 -6.46552e-20)
(1.01425 -0.0578611 0)
(0.627114 -0.666687 3.95958e-20)
(0.154045 -0.49287 0)
(1.02066 -0.154602 -1.57853e-22)
(0.821963 0.0616038 -2.97764e-20)
(0.996063 -0.0915869 1.26773e-20)
(1.12385 -0.0192469 4.08851e-20)
(0.443647 -0.0963301 -2.65603e-20)
(1.23441 0.0871977 0)
(0.907466 -0.102763 -3.72668e-20)
(1.00512 -0.0334391 0)
(1.01846 -0.150573 4.53502e-22)
(1.08387 -0.118376 0)
(1.34767 -0.185937 0)
(1.06915 -0.0037203 0)
(1.00463 -0.0184467 0)
(1.18933 -0.0296057 -3.81038e-20)
(0.99949 -0.00284958 8.32343e-21)
(-0.248827 -0.0339944 2.8517e-23)
(1.10614 -0.215651 -3.0374e-20)
(1.012 -0.0566014 0)
(1.00135 -0.0148888 -5.17615e-23)
(1.0988 -0.0877449 3.25041e-20)
(1.05457 -0.125996 -5.05663e-21)
(0.179952 -0.515377 0)
(0.98251 -0.0280719 -1.90945e-20)
(1.01993 -0.0111606 -5.92967e-22)
(0.162369 -0.386839 0)
(1.00001 -0.0342093 -4.68281e-22)
(1.35799 -0.107534 -5.27676e-20)
(1.08091 -0.362568 -1.57561e-19)
(1.02161 -0.126985 1.50611e-21)
(-0.061567 0.0312578 6.88659e-20)
(0.999789 -0.00823008 0)
(-0.222364 -0.0541951 0)
(0.999886 -0.0107734 -6.83288e-21)
(1.22811 -0.169314 -1.22848e-20)
(0.659685 -0.659975 -1.01416e-20)
(1.23435 0.0897662 5.37895e-20)
(1.15521 -0.0830448 0)
(1.00701 -0.00576382 -6.84822e-22)
(1.22298 -0.171031 4.11445e-20)
(1.06964 -0.0212491 7.84291e-21)
(-0.190277 -0.0503666 -1.26799e-19)
(-0.243804 -0.0196793 -1.04757e-19)
(1.13258 -0.498041 -5.06881e-20)
(1.21863 -0.37926 6.28113e-20)
(1.18369 -0.110104 0)
(1.00252 -0.0757545 4.46682e-21)
(1.02071 -0.0964681 7.96609e-22)
(-0.238807 -0.0550978 -9.39626e-20)
(-0.27518 -0.0517447 4.62963e-20)
(1.00434 -0.0319501 0)
(0.298371 0.0981001 2.05868e-20)
(0.971494 0.108386 -2.04107e-20)
(1.02038 -0.0118101 6.16579e-22)
(0.702953 -0.196491 0)
(1.35286 -0.0269344 -1.30924e-20)
(1.19699 -0.130183 5.0138e-20)
(1.03809 -0.0198535 -3.76322e-21)
(-0.276111 -0.055301 0)
(0.18274 0.0862948 -1.37634e-20)
(-0.234239 -0.052649 1.0212e-19)
(0.00308204 -0.0508843 0)
(0.200797 0.0305752 -4.44108e-20)
(-0.278829 -0.0409024 1.05952e-19)
(1.18435 -0.11383 1.16424e-20)
(1.0041 -0.00552293 1.44799e-21)
(0.907628 -0.055987 2.53805e-20)
(1.11595 -0.153097 1.03035e-20)
(1.00074 -0.0254928 5.94077e-21)
(1.02401 -0.0672059 0)
(-0.144217 -0.0517631 -1.28915e-19)
(1.06533 -0.000160534 -1.21629e-20)
(1.17747 -0.186803 -3.29653e-20)
(-0.267005 -0.0390983 0)
(0.66961 -0.621363 0)
(-0.132926 0.0228561 -3.73977e-20)
(0.852256 -0.16048 1.40639e-20)
(0.967155 -0.160638 -7.85549e-20)
(1.24247 -0.252171 -8.87055e-20)
(1.18615 -0.231767 0)
(1.00002 -0.000212749 4.0281e-21)
(-0.169169 -0.0444691 0)
(1.00788 -0.000680663 2.35411e-22)
(0.460731 -0.0101824 -2.05858e-20)
(0.926757 -0.34719 -6.17215e-20)
(1.00037 -0.00524867 0)
(1.21448 0.0289372 1.44072e-20)
(0.986576 -0.0387623 -2.32853e-20)
(0.713177 -0.0976633 1.28154e-19)
(-0.242961 -0.0183326 9.00714e-20)
(1.02986 -0.565249 0)
(1.2161 -0.391912 2.04839e-21)
(1.03221 -0.00599498 0)