/*--------------------------------*- C++ -*----------------------------------*\
| =========                 |                                                 |
| \\      /  F ield         | OpenFOAM: The Open Source CFD Toolbox           |
|  \\    /   O peration     | Version:  v2012                                 |
|   \\  /    A nd           | Website:  www.openfoam.com                      |
|    \\/     M anipulation  |                                                 |
\*---------------------------------------------------------------------------*/
FoamFile
{
    version     2.0;
    format      ascii;
    class       volScalarField;
    location    "450";
    object      nut;
}
// * * * * * * * * * * * * * * * * * * * * * * * * * * * * * * * * * * * * * //

dimensions      [0 2 -1 0 0 0 0];


internalField   nonuniform List<scalar> 
18232
(
0.00062168
0.00367355
0.00672217
0.00309952
0.000634798
0.000973036
0.00275745
0.00672265
0.000412245
0.000848468
0.00221528
0.000734247
0.000933845
0.000734182
0.00058078
9.67192e-05
0.00671892
0.00672432
0.00585673
0.000517456
0.00114583
0.00214811
0.003027
0.00187729
0.000438189
0.000430012
0.0067323
0.000905452
0.00672426
0.00672138
0.0067258
0.00763082
0.00672872
0.00605626
0.000777765
0.000934699
0.000964336
0.00672322
0.00115943
0.00672609
0.00138556
0.00110489
0.00056764
0.00201187
0.00671687
0.000600054
0.00542593
0.000869239
0.000844824
0.00677024
0.00673069
0.0067234
0.00287101
0.00140085
0.000919804
0.000464253
0.00672238
0.00672973
0.00111874
0.00476412
0.00029177
0.00671677
0.00114798
0.0029563
0.000431115
0.00222697
0.00127079
0.0080796
0.00673106
0.00107265
0.00672302
0.00671516
0.00641146
0.000735888
0.000365502
0.000435874
0.00103676
0.00127778
0.000199045
0.0023051
0.00738359
0.000532509
0.00102124
0.00217026
0.000146751
0.000323135
0.00671894
0.00430132
0.000567211
0.000524986
0.00464722
0.00673631
0.00672559
0.000753724
0.00517731
0.000991989
0.00672707
0.00295966
9.74243e-05
0.00501452
0.000212778
0.00104904
0.000763331
0.000251149
0.00163162
0.000646147
0.00672194
0.000182535
0.00672454
0.000933534
0.00342912
0.000475208
0.00569103
0.00324965
0.0067297
0.00131964
0.000492821
0.000837673
0.000987104
0.000956943
0.00672248
0.00672302
3.13115e-05
0.00137543
0.000826542
0.000559122
0.000122376
0.0067201
0.000814732
0.000272724
0.00672794
0.00231317
0.000557142
0.00673824
0.0048768
0.00066155
0.00057659
0.00672558
0.00477982
0.00105874
0.000860576
0.000681408
0.00711588
0.00672947
0.000801183
0.000470119
0.000582085
0.0067261
0.00165659
0.000736492
3.41108e-05
0.00107618
0.000442339
0.00108284
0.00058294
0.00170841
0.000156265
0.000307271
8.70516e-05
0.00452541
0.00459092
0.00673764
0.00673472
0.00204742
0.000288339
0.00347103
0.000165532
0.0055055
0.00115184
0.000237059
0.00615114
0.00672287
0.00672656
0.00226787
0.00201234
0.000148313
0.00254966
0.00672586
0.000516188
0.00672954
0.000813336
0.000883761
0.00671527
0.00080278
0.00028038
0.00672628
0.00217075
0.000139058
0.00672589
0.00179435
0.00057833
0.00673198
0.000329301
0.00162047
0.00672854
0.00278381
0.00618425
0.00225983
0.00673769
0.00672989
0.00672582
0.000807383
0.000359458
5.24701e-05
0.000301579
4.78233e-05
0.000140684
0.00877261
0.000378405
0.000972996
0.00674401
0.000401179
0.000211128
9.67168e-05
5.95111e-05
0.00160906
0.000410605
0.0067388
0.00672142
0.00287325
0.00134709
0.00468596
3.0486e-05
0.00113527
0.00676072
0.00593916
0.000486993
0.00183015
0.00672793
0.0067299
0.00384491
0.00079461
0.0124774
0.000146214
0.00672853
0.000881371
0.00266312
0.000121282
0.00595409
0.00672275
0.00290231
0.00095505
0.000108192
0.000365413
0.00109707
0.000147221
0.00672535
0.00163048
0.00204855
0.000877199
0.000526561
0.000460452
0.00604121
0.000613804
0.00264961
3.09572e-05
0.000797939
2.59839e-05
0.000137372
0.000729733
0.0014326
0.000869448
0.000751956
0.00672566
0.0067621
0.00672501
0.00181991
6.01752e-05
0.000369617
0.000659538
0.00224904
0.00652148
0.000226609
0.00671556
0.00515929
0.00160489
0.00111551
0.00184222
0.00672265
0.000125582
0.00184253
0.00162027
0.00449028
0.00170508
0.00082507
0.00145311
0.00103627
0.00222544
0.000945327
0.000482946
0.00673289
0.000537826
0.00233212
0.000487756
0.000936006
0.000745043
0.00197215
0.00479851
0.00671664
0.00103295
0.0028037
0.00672339
0.000394378
0.000458631
0.00672357
0.00673032
0.000254045
0.00116263
0.0067191
0.0012099
0.000311795
0.00672328
0.000202926
0.00127525
0.00391034
0.000601505
0.00192304
0.00673641
0.000648967
0.00672716
0.00125983
0.00227842
0.000285093
5.15708e-05
0.000290601
0.00309737
0.000129023
0.00139916
0.00147574
0.000865651
0.000852885
0.00644252
0.000442068
1.49242e-05
0.000733247
0.00763127
0.000635717
0.000108382
0.00672909
0.000809859
0.00673043
0.000216322
0.00672564
0.00672338
0.0067344
0.000385218
0.00479031
0.00120141
0.000288948
0.00160939
0.000178202
0.000482296
0.000349364
0.00609403
0.000852026
0.000937134
0.000281114
0.00367295
0.00672232
0.00672299
0.000141227
0.000474223
0.00119769
0.00142387
0.00147739
0.0006107
0.000253979
0.00325972
0.000628409
4.57931e-05
0.00109495
0.00141553
0.00371397
0.00331675
0.00673081
0.00454119
0.00541544
0.00671464
7.82496e-05
0.000126647
0.000527193
0.000552265
0.00672593
0.00210665
0.00211923
0.00129496
0.00238297
0.00671455
0.00458514
0.0010353
0.000854746
0.000141457
0.00184883
0.00221966
0.00149629
0.00121509
2.96103e-05
0.00671523
3.69876e-05
0.00671497
0.000901793
9.42515e-05
0.000140239
1.2267e-05
0.00102084
0.00672242
0.000894574
0.00672319
0.0061855
0.000891327
0.000997311
0.00510231
0.00105729
0.00238251
0.0010994
0.000974567
0.00672033
0.00672493
0.00113761
0.00217682
0.000964598
0.000175026
0.000429343
0.0067422
0.00112478
0.000469198
0.000335237
0.000533475
0.000167288
0.000776972
0.00673303
0.000513817
0.00566804
0.00234754
0.000464996
0.00672305
0.00672772
0.00673009
0.00620489
0.00297588
0.00014907
0.000480097
0.000546621
0.000581649
0.00380386
0.000796052
0.000607318
0.0024068
0.00033463
0.000199549
0.000847464
0.00163997
0.00672173
0.00672318
0.000803616
0.00672582
0.00514206
0.00672511
0.000299749
0.000723258
0.0067447
0.000430082
0.000966008
0.000230675
0.00674508
0.00307793
0.00673177
0.000756967
0.000528174
0.00092309
0.00672047
0.000634301
0.000557536
0.000102981
7.96451e-05
0.000296943
0.00532682
0.000857681
0.00695714
0.00118316
0.0006846
0.00627447
0.00672238
0.000722251
0.00672579
0.000339769
0.00137625
0.00204159
0.00244324
0.00146396
0.00672069
0.000814346
0.00672656
0.0017194
0.000344573
0.000385359
0.00671972
0.00105174
0.000848546
0.00671933
0.00281443
0.00210082
0.000855933
0.000427487
0.00540192
0.000711051
0.00673524
0.00167344
0.00671544
0.00376112
0.000993697
0.00139935
0.00123131
0.00150774
0.00672064
0.00544746
0.00286955
0.000801884
0.00248752
0.00527971
0.000837329
0.00252228
0.000677942
0.00191435
0.000699014
0.00354181
0.00676306
0.00672558
0.00125116
0.0040295
0.00672128
0.000107108
0.000709264
0.000449381
0.00600561
0.00671542
0.000332981
0.00672612
0.000129453
0.000458242
0.00180254
0.000957261
0.0067154
0.00672059
0.00671965
0.00022631
0.00106274
0.000865758
0.00672511
0.000637306
0.000563748
0.00673027
0.00241043
0.00672083
0.00138026
0.00635062
0.00469501
0.00243226
0.00343275
0.000394696
0.000186728
0.00672584
0.00010453
0.00672382
0.000294127
0.00671776
0.00671926
0.000112692
3.61435e-05
0.000593096
0.00672678
0.00464209
0.00145328
0.00240456
0.00668675
0.00417174
0.000839094
0.000277266
0.000196036
0.00672813
0.00206486
0.00672792
0.000333337
0.000425976
0.00671549
0.000857929
0.00672667
0.000900048
6.11969e-05
0.00134224
0.00672899
0.00672013
0.000587619
0.00671851
4.93595e-05
0.00191632
0.00632832
0.00779051
0.00129723
0.000817016
0.00216059
0.00671517
0.00601145
0.000455424
0.00673966
0.000385059
0.00672125
0.000703865
0.00672029
0.000378043
0.00542841
0.00553925
0.00132117
0.000173619
0.000420808
0.00671886
0.00672623
0.00244615
0.0067188
0.0031827
0.00492735
0.00672397
2.37995e-05
0.00189821
0.000983316
0.000543425
0.000364614
0.00378632
0.00161308
0.00267531
0.00673432
0.0040287
0.00673063
0.00671436
0.00135751
0.00248663
0.000168707
0.00115858
6.56134e-05
0.000940047
0.000242428
0.000910495
0.0067257
0.000855559
0.00316865
0.000728175
0.000468996
0.0040618
0.00143475
0.00263101
0.00253625
0.00482236
0.00128747
0.00267123
0.00161258
0.000774274
0.00499303
0.00017406
0.000509529
0.000793513
0.00191361
0.00652588
0.0021607
0.00053669
0.00331505
0.000239369
0.00015359
0.00672495
0.0035502
0.00449765
0.00671611
0.00182581
0.00158757
0.00354548
0.00141619
0.000343415
0.001954
0.000184706
0.00672771
0.00417033
0.000655394
0.000410089
0.00588044
0.00673089
0.00194555
0.000821444
4.6283e-05
0.00423163
0.00110242
5.15328e-05
0.00181747
0.00671777
0.000487754
0.000781503
0.000209815
0.000414115
0.00125423
0.000350221
0.000911705
0.000879633
0.000370185
0.0076692
0.000573357
0.00170908
0.000920211
0.00672643
0.000217632
0.00672293
0.00671852
0.0067159
0.00613313
9.56751e-05
0.00672544
0.000687954
0.00672577
0.000800755
0.00074162
0.000574663
0.00054158
0.000374606
0.00322023
0.00675054
0.00673577
0.00521418
0.000310601
0.000958886
0.00672567
0.000575558
0.00672376
0.00672341
0.00108956
0.00671969
0.00114659
0.000702156
0.000365114
0.006726
8.29425e-05
0.00671487
0.000306213
0.000568885
0.000968845
0.00687231
0.00674853
0.000627665
0.00542026
0.00673471
0.00180574
0.000331486
0.00151447
0.000251124
0.000849126
0.00671604
0.0022478
0.00404525
0.000594131
0.000404372
0.00127619
0.00440011
0.00672486
0.00149623
0.00810841
0.00128989
0.00671598
8.39808e-05
0.00672385
0.00102762
0.00411232
0.000295006
0.0140438
0.00193008
0.0018201
0.00841501
4.51525e-05
0.00121879
0.00671781
0.000627565
0.000880188
0.000603646
0.0067281
0.00052452
0.000206718
0.000144793
0.00581272
0.000484101
0.00672372
0.00672558
1.75676e-05
0.000308384
0.00220639
3.36116e-05
0.000703484
0.000682529
0.00143856
0.00337694
0.00106567
0.000398416
0.000259186
0.00251193
0.000722798
0.00209757
0.000364583
0.00109218
0.00671808
0.00672385
0.00380164
0.00027045
0.00377971
1.97318e-05
0.00102896
0.00262035
0.000917432
0.000666614
0.000424224
0.00246958
9.99775e-05
0.000801251
0.000923489
0.00157393
0.00671556
0.000664033
0.0033583
0.000399387
0.000973876
2.19074e-05
0.00403306
0.00233782
0.0023717
0.00636024
0.00327422
0.000683697
0.000513412
0.0067272
5.80984e-05
0.000169219
0.0019594
0.00488416
0.00471097
0.00671577
0.00061921
0.00672415
0.00101574
0.00672458
0.0028579
0.00185847
7.97144e-05
0.000211409
0.00173275
0.00671588
0.00184488
0.000690883
0.00468398
0.00136735
1.79611e-05
0.0144042
0.000329905
0.000655199
0.00672262
0.00671677
0.00106098
0.00672481
0.0019398
0.000829142
0.000276153
0.00174617
0.00672568
0.000418777
0.000275186
0.00672576
0.000917362
0.000453194
0.0067239
0.00671602
0.000663819
0.00130876
0.00672679
0.00109573
0.000297241
0.00672568
0.00671997
0.000477958
1.86053e-05
0.000378861
0.000204678
0.000186647
0.00373998
0.000585886
0.00111235
0.000637908
0.00152865
0.00283665
0.000908081
0.00102827
0.00672596
0.000390395
0.000195083
0.000765783
0.0067212
0.00672684
0.00180419
0.00672618
0.00672587
0.00123693
0.00118925
0.00672545
0.00672918
0.00189526
0.00116107
0.0049115
0.00672725
0.00672936
0.000143352
0.00277248
0.00108861
0.00235351
0.00671478
0.00671928
0.00672268
0.00108543
0.00671982
0.00672253
0.00672222
0.00598067
0.00682807
0.00478839
0.00156552
0.00646896
0.000526925
7.52992e-05
0.00170171
0.000535516
5.49201e-05
0.0067159
0.00672455
0.00245261
0.00577445
0.00671843
0.00672876
0.00672599
0.000744256
0.000588101
0.00120933
0.000834286
0.000595669
0.00672458
0.00556505
0.00121639
7.33866e-05
4.60031e-05
0.000381742
0.00114588
0.00246076
0.00672252
0.0136169
0.0144434
0.000714438
0.0067184
6.16393e-05
0.00219666
0.00671814
0.000318344
0.00753929
0.00127823
0.00182437
0.000282433
0.00444585
0.000316813
0.00672336
0.00672629
0.000619419
0.00602838
0.00136227
0.000357897
7.65222e-05
0.00406365
0.00675448
0.00671829
0.00325664
0.00106203
0.00671851
0.00590215
0.00147222
0.000716949
0.00163039
0.00672403
7.43322e-05
0.00401441
0.000942392
0.00671947
0.000223474
0.00672527
0.00603245
0.000904953
0.000999989
0.00115695
0.000231112
0.0067206
0.00174771
0.000765016
0.000973175
0.000463202
0.000819539
0.000244188
0.000474703
0.0028436
0.0014672
0.0011034
0.000101517
9.17588e-05
0.00148116
0.00672039
0.00737991
0.0011273
0.00676728
0.00040566
0.00214716
0.00115426
0.00168365
0.00174435
0.000588242
0.00672569
4.8646e-05
0.00643968
0.000427094
0.006721
0.000637311
0.000687439
0.000718375
0.00672536
0.00171765
0.0007849
0.0025051
0.000102218
0.0065147
0.00671651
0.00330449
0.00673025
0.00241121
0.000686319
0.00642124
0.00167706
8.47324e-05
0.00127298
0.00018746
0.000883524
0.000333448
0.00220077
0.0020469
0.00567911
0.00100179
0.00671585
0.000575649
0.00126245
0.00727624
0.00142922
0.000504095
0.000910552
0.00671577
0.00672566
0.00158967
0.00673098
0.000779161
0.00178168
8.46078e-05
0.00671867
0.000627723
0.00662162
0.00075665
0.00671858
0.00313012
0.00186376
4.38433e-05
0.000857753
0.000542983
0.00484852
0.00276739
0.00119231
0.00041011
0.00671632
0.00574439
0.00461748
0.00329762
0.0046093
0.000163077
0.00176054
0.00672454
0.00144058
0.000494331
0.000563108
0.000197797
0.00517898
0.00543974
0.00419871
0.000374548
0.000225506
0.000393446
2.78665e-05
0.00154359
0.00671646
0.00438799
0.000701668
0.000107789
0.00671617
0.0019783
0.000666168
0.0067248
0.00671365
0.00671617
0.00672105
0.00671369
0.000404996
0.00673032
0.000395954
0.00201671
0.00129536
0.00029832
0.00292457
0.00673249
0.000562737
0.00198185
0.0018411
0.00239289
0.00190081
0.000648674
0.00672981
0.00182255
0.00651694
0.000668331
0.00710823
0.00109552
0.00150037
0.000285961
0.00674788
0.00465188
0.000533353
0.00483803
0.00470039
0.00333809
0.00693237
0.00263644
0.000150676
0.00188896
0.00451691
0.0026058
0.00672607
0.00812503
0.000586384
0.000368748
0.000480275
0.000191958
6.26791e-05
0.00298944
0.00112757
0.00637502
0.00197798
0.00672587
0.00672573
0.000763589
0.00141054
0.000368044
0.000934154
0.00424788
0.000427845
0.00671874
0.006719
0.000680915
0.00718612
0.00672604
0.00671633
0.00671586
0.00671883
0.000120365
0.00672594
0.000838677
0.00673378
0.00185978
0.000112311
0.00672606
0.00671647
0.000600594
0.00443238
0.00188815
0.000346079
0.000934787
0.000116673
0.00672926
0.000527234
6.48705e-05
0.00672117
0.00177528
0.000671487
0.000822829
0.000522595
0.00103717
0.000644727
0.00106846
0.000450674
0.00671439
0.00672548
0.00671604
0.000937406
0.0055455
0.000535774
3.31317e-05
0.000337175
0.00672522
0.000105017
0.00464325
0.00672707
0.00224227
0.00672043
0.000850528
0.00482803
1.64299e-05
0.00106662
0.00336899
6.27233e-05
0.000801125
0.00522624
0.00189383
0.0013775
0.00309708
0.0067145
0.00220038
0.000934056
0.00540013
0.00350724
0.000668904
0.00497352
0.00672543
0.00274354
0.00175839
0.000590315
0.00674366
0.000969181
0.00108416
0.000234813
0.000139189
0.00672005
0.0015919
0.00673913
0.006714
0.000830069
0.000531369
0.00513922
0.000901825
0.00237953
0.000519744
0.00203679
0.000193275
0.000498872
0.00407377
0.000744517
0.00353491
0.000440348
0.000463973
0.00672611
0.00114045
0.00671515
0.0134659
0.00504967
0.00120993
7.09756e-05
0.00167109
0.000434374
0.000412562
0.00282188
0.00527135
0.0038842
0.00040165
0.000167794
0.000205465
0.000554151
0.00672171
0.00672129
0.00672621
0.000783098
0.00672172
0.000848854
0.000501378
0.000675835
0.000549214
0.00672533
0.00671845
0.00231099
0.00151653
0.00430794
0.00672143
0.00068617
0.00146041
0.000814519
0.00363201
0.00343807
0.00100824
0.00672578
0.0067158
4.60513e-05
0.000422944
0.00672698
0.00194459
0.00672587
0.00214163
0.000722666
0.000326759
0.00673752
7.07634e-05
0.000482962
0.000944935
0.00671522
0.000153323
0.00672292
0.00181571
0.00671726
0.00106016
3.37101e-05
0.00042906
0.00671412
0.00671866
0.00116037
3.12053e-05
0.00103696
0.00671518
0.00672593
0.00118737
0.00672279
0.000241243
0.00181122
0.000434563
0.00676622
0.00672039
0.000262241
0.000885192
0.000617573
0.000746764
0.00179004
0.00106664
0.00672688
0.0039175
0.000360862
0.00672764
0.00441752
0.000719604
0.00400741
2.20608e-05
0.00426822
0.00575275
0.00674221
0.00560771
0.00336143
0.00120852
0.00103618
0.00147813
8.94471e-05
0.00672412
0.00120276
0.000761108
0.00270935
0.000377126
0.00044226
0.000194706
0.00579781
0.0048687
0.000336891
0.00389666
0.00671543
0.00672112
0.000695421
0.00521087
0.00121524
0.000744346
0.000188189
0.0045146
0.00644734
0.00514038
0.00356331
0.000873245
0.00115572
0.00672301
0.000849078
0.000725861
0.00674607
0.00672095
0.00674457
0.000713044
0.00197009
0.000686099
0.00106794
0.00672001
0.000531611
0.000749383
2.06019e-05
0.00671406
0.0067351
0.00671546
0.00204549
0.00672349
0.000444111
0.00271417
0.00628551
0.00672571
0.00672813
0.00672404
0.00025935
0.00671733
0.000973353
0.00118117
0.0008269
0.00129099
0.00476161
0.00138514
0.00107212
0.000485764
0.0010475
0.000632891
0.00594007
0.000802039
0.0058258
0.000464373
0.00151188
0.00261934
0.00279251
0.00255836
0.00671651
0.00270193
0.00129826
0.000342174
0.00386663
0.000468003
0.00676547
0.00015942
4.70509e-05
0.00105961
0.000109608
0.000179258
0.0015605
0.000210253
0.0009855
0.000730566
0.00317657
0.000159177
0.000200295
0.000532881
0.000288305
0.00395425
0.00672614
0.00672019
0.0039585
0.000370158
0.000530854
0.0067208
0.0036088
0.000815277
0.00671646
0.000636507
0.00112141
0.006716
0.000940138
0.00174298
0.000383254
9.73756e-05
0.00672516
0.00377794
0.00671946
0.000157445
0.000525876
0.000172156
0.00672612
0.00465479
0.00057877
0.00273753
0.00084767
0.00225327
6.67459e-05
0.000895735
0.00676338
0.000883008
0.000971121
0.000398448
0.00672046
0.000685346
0.00351675
0.00672267
6.96356e-05
0.000910214
0.00171925
0.00151454
0.000666342
0.0071746
0.00512544
0.000961956
0.0067195
0.00224576
0.00147369
0.00118151
0.00369618
0.00033359
0.000125246
0.000227984
0.00671674
0.00231532
0.000846024
0.000987909
0.00419289
0.000889399
0.00516699
0.00549642
4.65878e-05
0.00145781
0.00284644
0.00671665
0.000141215
8.08473e-05
0.00671682
0.00256288
0.000670085
0.000844373
0.000760668
0.00676829
0.00671415
5.00004e-05
0.000549484
0.00672999
0.00672298
0.00671588
0.00444423
0.000103919
0.000646042
0.000754576
0.00672457
0.00671631
0.00157145
0.00462477
0.00674376
0.000440032
0.00432897
0.00672449
0.00246895
0.000608522
0.0032921
0.00019076
0.000142388
0.00124243
0.000751113
0.00049832
0.000127981
0.000194995
0.00674043
0.000461397
0.0067211
0.0067234
0.00210379
0.000973611
0.000553406
0.006722
0.00673783
0.00160103
0.00168855
0.000604153
0.000731234
0.000532622
4.3956e-05
0.00671591
0.000240634
0.00672881
0.000439791
9.19947e-05
0.000650275
0.00672532
0.00113123
0.000655564
0.00672457
0.000459655
0.000287906
0.00168487
0.000248958
0.00492073
0.00074258
0.0067195
0.000427295
0.00112324
9.67407e-05
0.00518317
0.00672216
0.00191729
0.00664629
0.00133583
0.000679952
0.00606572
7.98763e-05
4.11083e-05
0.00671622
0.00381977
0.00671645
0.0017327
0.00672027
0.000278676
0.00066784
0.000491421
0.00171518
0.00672609
0.00578071
0.00392289
0.00672075
0.000999329
0.000778055
6.90754e-05
0.00261397
0.000877197
0.00320214
0.000377202
4.12519e-05
0.00120153
0.0140171
0.00087981
0.000412995
0.000231001
0.000386672
0.00103282
0.00672555
0.000189313
0.00671596
0.000110577
0.00561627
0.00674021
0.00181989
0.00672586
0.0067271
0.000617699
0.000330092
9.15099e-05
0.00015185
0.000207291
0.00672079
0.00542328
0.000710197
0.000644799
0.000460671
0.000625375
0.000750694
0.00450658
0.000840501
0.000571774
0.00135526
0.000235436
0.000736661
0.000508169
0.000202313
0.00791702
0.00056206
0.0010241
6.79256e-05
0.00672513
0.000779574
0.000970903
0.00671622
0.00139025
0.000172924
0.0058435
0.00671893
0.000954486
0.000670293
0.00128107
3.94086e-05
0.00119232
0.00102554
0.00019636
0.000648531
0.00671738
0.000193212
0.00722638
0.00671571
0.000436133
0.000881579
0.000473391
0.000462436
0.00251665
0.000941532
0.000618333
0.000957451
0.000209103
0.00499811
0.00469737
0.00146044
0.000200591
0.00112806
0.00100803
0.000770893
0.000682419
0.000941722
0.000716952
0.000908072
0.00672983
0.000787666
8.33562e-05
0.000734084
0.00673802
0.000826697
0.00084686
0.00671945
0.000504595
0.00093735
0.00176966
0.00672232
0.006721
0.000494522
0.00672604
0.00671615
0.000681333
0.00672617
0.00367126
0.00676164
7.14541e-05
0.00440092
0.00671618
0.000410436
0.00015165
5.10351e-05
0.000115341
0.00672699
0.00673
0.000136961
0.00115009
0.00187187
9.91377e-05
0.00673819
0.00466884
0.0067299
0.000324528
0.00126907
0.00132788
0.000111248
0.000898718
0.0023593
0.000526537
0.00116953
0.000653515
0.00143725
0.00711812
0.000184544
0.000141837
0.00372079
0.000148146
0.000514365
8.1124e-05
0.00672511
0.00671822
0.000278503
0.0025927
0.00293794
0.00145637
0.000939153
0.000469598
0.000762132
0.00671662
0.000419615
0.00221931
0.00600877
0.00693737
0.00399695
0.000372455
0.00067619
5.05519e-05
0.00762869
0.00671852
0.00672633
0.00530984
0.00672313
0.000922064
0.000193428
0.00247775
0.00672637
0.00671668
0.000295499
0.00271853
0.00672206
0.00080696
0.000350754
4.52743e-05
0.00671429
0.00672073
0.00129838
0.00674125
0.00157883
0.00024154
0.00126882
0.000687202
0.000216745
0.000929341
0.000181264
0.000942698
0.00201668
0.00100761
0.000737433
0.000406369
0.00291858
0.00143027
9.7717e-05
2.64437e-05
0.000849877
0.0023599
5.05516e-05
0.00166099
0.000914668
0.000788291
0.000437522
0.00434897
0.00160497
0.000167715
0.00438425
0.00672575
0.00195635
0.000132106
0.000773099
0.000438662
0.000725177
0.0041988
0.00119544
0.00205573
0.000885953
0.000754552
0.0001265
0.00671817
0.00217696
0.000226582
0.00498548
0.000357186
0.000403129
0.0067252
0.00118418
0.00250329
0.00606747
9.41952e-05
0.00131693
6.00878e-05
0.000701002
0.000955987
0.000793083
0.000234998
0.000663056
0.00176672
0.000939233
0.00153242
9.64271e-05
0.00418718
0.000649526
0.00212094
0.00479792
0.000116362
0.00156534
0.0067197
0.00576885
0.00259556
0.00671513
0.00582259
0.00671502
0.00230079
0.000440375
0.0037954
0.000246368
0.00173308
0.00672603
0.00385515
0.000128624
5.04025e-05
0.000511421
0.000338485
0.000488724
0.000796092
0.00597616
0.00118237
0.000311417
0.00137456
0.00431941
0.000814844
0.000733064
0.00672978
0.00220018
0.0049462
0.00562328
0.000299019
0.00496442
0.000875212
0.00566576
0.00207214
0.000205637
0.0005615
0.000225519
0.00672174
0.000967232
0.000855924
0.000265869
0.000220163
9.57616e-05
0.00108511
0.00119815
0.000344594
0.00672186
0.00636936
2.43843e-05
0.00203684
0.00672546
0.000768277
0.00167752
0.00672577
0.00672349
0.00123009
0.000510355
0.00459801
0.00672449
0.000594825
0.000212758
0.000188679
0.000317546
0.000427393
0.000725132
8.44912e-05
0.00671622
0.00274168
0.00204769
0.000291677
0.000222275
0.00198453
2.22782e-05
0.000181938
0.000245067
0.000872111
0.00965791
0.00671632
0.000710548
5.72335e-05
0.00672418
0.000257722
0.000721004
0.000108092
0.000523199
0.00672849
0.0024212
0.000229482
0.00671793
0.000704391
0.000301572
0.00137818
0.000109307
0.00134391
0.00203199
0.000852439
0.000766595
0.00209774
0.00672586
0.00672084
0.00103919
0.000201112
0.000829616
0.000530275
0.000177753
0.000401463
0.00143615
0.000201672
0.000340542
0.00676198
0.00421814
0.00113418
0.000101549
0.0024251
0.000188044
0.000126911
4.58457e-05
0.000860429
0.000124126
0.00313914
0.00183822
0.000383033
0.000653372
0.00013462
0.000504384
0.0011046
0.000199627
0.00675307
0.00202758
0.00110279
0.00672656
0.000379478
0.00588412
0.00672563
9.10497e-05
0.00107573
0.00188816
0.0067165
0.00672089
0.00338161
0.00478603
0.000921982
0.000619794
7.61347e-05
0.00671595
0.00673339
4.76198e-05
0.00672703
0.00520888
0.00673073
0.000471789
0.00671873
0.00270245
0.00626501
0.00676254
0.000821691
0.00671769
0.000599738
0.0067166
0.00723806
0.00671453
0.000357667
0.00176742
0.00207836
0.000701674
0.0067215
0.00641873
0.00315245
0.000140238
0.000151016
0.00671697
0.00221237
0.000467776
0.00671841
0.000849766
0.00138009
0.000241472
0.00295703
0.00672456
0.00140422
0.000115723
0.000310497
0.0080641
0.000855926
3.01346e-05
0.00010973
0.00126489
0.00304541
0.000738889
0.000293953
0.00671855
0.000608673
0.000926383
0.00148821
0.0066408
3.99231e-05
0.000455024
0.00264499
0.00672837
0.000485579
0.000451855
0.000577838
0.00460383
0.00676905
0.00676072
0.00672491
0.000651256
0.00122973
0.00284093
0.0067141
0.00080454
0.00672448
0.000196213
0.00671411
0.000732253
0.00167208
0.000886333
0.00233204
0.000237327
0.00146991
0.000136928
0.00240244
4.1149e-05
0.000665036
0.00108934
0.00530119
0.000471688
0.00584368
0.000353633
0.000441369
0.00529895
0.000755523
0.00171568
0.000919832
0.000862689
0.006613
0.00672139
0.000898746
0.00161309
0.0067172
0.000216487
0.0014138
0.00127243
0.00671897
5.58637e-05
0.00028217
2.80669e-05
0.0058551
0.000142585
0.000804629
0.000205966
0.00114141
0.000806448
0.000659328
0.00573764
0.00416968
0.000100478
0.00036075
0.00671959
0.000335313
0.000642601
0.00139267
0.000538344
0.000444644
0.00084907
0.000490506
0.00172116
0.00535714
0.000765963
0.00425494
0.00671644
5.91257e-05
0.000553806
0.000139198
0.00166199
0.00672288
0.00148726
0.00671888
0.00765781
0.000412032
0.00639661
0.00432271
0.00479067
0.00673571
0.00144046
0.000901138
0.00131163
0.000489322
0.000692794
0.00040292
0.00208667
0.00216141
0.00614091
0.00313109
0.00249828
0.0045769
0.000682934
0.000867021
0.00672052
0.00129917
0.00673348
0.00671964
0.000905079
0.00036819
0.000286684
0.006722
0.00221666
0.00672591
0.000729611
0.000390212
0.00186065
0.000127727
0.0067247
0.00204689
0.00105199
0.000472964
0.00675597
0.00306056
0.00671625
0.000427924
0.000425315
0.000160042
0.00672454
0.00177613
0.000868487
0.00253606
0.00671653
0.00591703
0.00110587
0.000695392
0.00231455
0.00672965
0.000204956
0.00373603
0.00109828
0.00202427
0.00672648
0.0067214
0.0016315
0.00148938
0.000391469
0.00132411
0.0021843
0.000849131
0.000453256
0.000691099
0.00385582
0.00109567
0.00204268
0.00155804
0.00022599
0.000750134
0.00672294
0.000544158
0.0010182
0.000552527
0.00243129
0.000446126
0.000152887
0.000170168
0.000223539
0.000125038
0.00671542
0.00674357
0.00388596
0.00285065
0.00222517
0.000203543
0.000333703
0.000991335
0.00211322
0.00505152
0.00466594
0.00100399
6.72e-05
9.35214e-05
0.00671624
0.00672003
4.36417e-05
0.000889766
0.00619895
0.00154333
0.006716
0.000672068
0.000949268
0.00038676
0.000278344
0.0014876
0.00091379
0.000447558
0.000686413
0.00110266
0.000460356
0.000170127
0.00673042
0.000924538
0.0052735
0.00242956
0.0067295
0.00104067
7.5912e-05
0.00563798
0.000198372
0.000348816
0.000935849
0.00779035
0.00103958
0.00640669
0.000767281
0.00321607
8.24627e-05
9.78182e-05
0.00526907
0.00120715
0.000754282
0.00419236
0.000193994
0.000511061
0.00194675
3.21045e-05
0.000136252
0.00673242
0.000917602
0.000684988
0.000425183
0.00671614
0.00671738
0.000510025
2.63271e-05
0.00672539
0.00674745
0.00673171
0.000287697
0.00117701
0.000465485
0.00234471
0.000176098
0.00105059
3.98864e-05
0.00672587
9.58325e-05
0.00162335
0.00671635
0.000124543
0.00248961
0.000306081
0.00106884
0.000530103
2.23009e-05
0.000155299
6.66441e-05
0.00672347
0.000178817
0.000470231
0.00853248
0.000777925
0.000444411
0.000296367
0.000524774
0.00117878
0.00010045
0.00387005
6.97252e-05
0.00132125
0.00671684
0.00671712
0.00517894
0.00122005
0.000454718
0.00096605
0.00671803
0.000808303
0.000253214
0.000826977
0.00672455
0.0067299
0.000643528
0.00672413
0.000762676
0.00673821
0.00671606
0.000467351
0.00672125
0.00262777
0.000473391
0.0067219
0.00672097
0.000604671
0.00674929
0.00142273
0.0100323
0.00312585
0.00181485
0.00078877
0.00671757
0.000213223
0.00278
0.000119854
0.000527245
0.000552253
0.000149793
0.000322347
0.00676951
0.000147211
0.000175547
0.000596341
6.06277e-05
0.00149307
0.00217954
0.00673377
0.00641022
0.006729
0.00203829
0.00672094
0.00671408
0.000511447
3.71818e-05
0.00179214
0.00628337
0.0067163
0.0032166
0.00244088
0.000263998
0.00137073
0.000975374
0.000539016
0.00309842
0.000663575
0.00265492
0.00313807
0.00150762
0.00104387
0.000995888
0.00178831
0.000750494
7.62957e-05
0.00455872
0.00572813
0.00124944
0.00262855
0.000539565
0.000386531
0.0067232
0.0023805
0.0023899
0.00216888
0.000581686
0.000205025
0.00119903
0.00129387
0.000187579
0.00671471
0.00346118
0.00676966
0.00295755
0.00671623
0.000166578
0.00671685
0.00116043
0.00185239
0.000702793
0.000743416
0.00500101
0.00178873
0.000450308
0.000881982
0.00134468
0.00672235
0.00131525
0.00142245
0.0010977
0.00674989
0.00602068
0.000462212
0.00015492
0.0010824
0.00671634
0.00285101
4.83966e-05
0.000976142
9.94938e-05
0.000576876
0.000497905
4.76147e-05
0.000923481
0.00545612
0.000924672
0.00152423
0.000421374
0.000559041
0.00395297
0.00673241
0.000381966
0.00158536
0.00194965
0.000810384
0.00672159
0.00359464
0.0031787
0.000727112
0.00672412
0.00115764
0.00672679
0.00158974
0.0067336
0.000159281
0.0020733
0.00497389
0.00890144
0.0035652
0.000353637
0.00127262
0.00114411
0.000544752
0.000929319
0.000513724
0.00334904
0.00163224
0.00674538
0.00570177
0.00305835
0.00131208
0.000215046
0.000384406
0.000300862
0.00672007
0.00256921
0.00672645
6.04318e-05
0.0010993
0.000590764
0.000113977
0.00188041
0.000556122
9.00264e-05
0.000869765
0.00076658
0.00206417
0.00671648
0.00179248
0.00060439
0.00155693
0.00121624
0.000365712
0.00255085
0.00217334
0.000238806
0.00672385
0.00671737
0.000145496
0.000385452
0.00672106
0.00188181
0.00042469
0.00520254
0.000238879
0.00133373
0.00671749
0.00103598
0.00671532
0.00324763
0.000379628
0.00214474
0.00119162
0.000359746
0.000708893
0.00672059
0.000806703
0.00193804
0.00138742
0.000708323
0.00135535
0.0055762
0.006721
0.000955463
0.000277518
0.00153839
0.00534984
0.000140918
0.000729321
0.00159944
0.00672159
0.00673219
0.000544474
0.00160523
0.0067227
5.1536e-05
0.000422503
0.00671693
0.000312583
0.00102527
0.00671844
5.05357e-05
0.00672302
0.000307462
0.00120048
0.00128947
0.000464872
0.000945656
0.00302634
3.44038e-05
0.000220729
0.00622063
0.00039219
0.00091163
0.00672782
0.0041195
0.00181498
0.00102479
0.000347191
0.00168347
0.000425038
0.00526561
0.000102207
0.00672712
0.0079442
0.000107606
0.000119547
0.00202216
0.00105697
0.00193311
0.000260554
0.00671679
0.000270693
0.0017662