/*--------------------------------*- C++ -*----------------------------------*\
| =========                 |                                                 |
| \\      /  F ield         | OpenFOAM: The Open Source CFD Toolbox           |
|  \\    /   O peration     | Version:  v2012                                 |
|   \\  /    A nd           | Website:  www.openfoam.com                      |
|    \\/     M anipulation  |                                                 |
\*---------------------------------------------------------------------------*/
FoamFile
{
    version     2.0;
    format      ascii;
    class       surfaceScalarField;
    location    "450";
    object      phi;
}
// * * * * * * * * * * * * * * * * * * * * * * * * * * * * * * * * * * * * * //

dimensions      [0 3 -1 0 0 0 0];
oriented        oriented;


internalField   nonuniform List<scalar> 
27055
(
0.0159917
-0.0159917
-0.256711
-0.457177
0.335001
0.122176
-0.356019
0.166007
0.190012
-0.0305665
-0.0540184
0.0845849
0.0797581
-0.0370848
-0.0426733
-0.18667
-0.0772811
0.263952
-0.433386
0.374178
0.0592079
0.107727
-0.0206887
-0.0870379
-0.0920445
0.061478
0.0142607
0.200331
-0.214592
0.12335
-0.138291
0.0149416
-0.110931
0.00998058
0.10095
-0.0478638
0.0460014
0.00186243
-0.102018
0.119123
-0.0171052
-0.0781832
0.093291
-0.0151078
-0.478403
0.476571
0.00183258
0.0823209
0.32453
-0.406851
-0.364442
0.219743
0.144699
0.092706
-0.0811986
-0.0115074
0.0353182
-0.0639534
0.0286352
-0.0569882
0.227669
-0.170681
-0.209919
0.22418
0.23775
-0.228726
-0.00902347
0.127046
-0.0490601
-0.0779855
0.0498034
0.0772421
0.082973
0.24814
-0.331113
0.0482656
0.0314925
-0.34563
0.427951
-0.166301
-0.290876
0.341893
0.205676
-0.547569
-0.0156597
0.0239135
-0.00825379
0.260804
0.141433
-0.402236
-0.00554134
-0.00493936
0.0104807
0.0429454
-0.0429692
2.37258e-05
-0.0496441
0.0729136
-0.0232695
0.0343818
-0.0345635
0.000181648
0.481405
-0.177778
-0.303627
0.0213568
0.026169
-0.0475258
0.54821
-0.285408
-0.262802
0.0173378
-0.00290749
-0.0144303
0.124373
-0.132981
0.00860843
0.00554926
-0.07622
0.0706707
0.0214158
0.00662275
-0.0280386
0.274876
0.16063
-0.435506
0.029414
-0.0522739
0.02286
-0.255129
-0.104186
0.129048
-0.00467499
-0.086227
0.0657934
0.0204336
0.18574
-0.287544
0.101804
-0.372812
0.324464
0.0483486
0.391792
0.0664772
-0.458269
-0.0156508
0.0202151
-0.00456432
0.111703
-0.119697
0.00799416
0.0363156
0.0574019
-0.0937175
0.0931073
-0.0430686
-0.0500387
0.00911708
-0.315176
0.306059
0.39574
-0.228471
-0.167269
0.00380855
-1.3391e-05
-0.00379516
0.183937
-0.282191
0.0982547
-0.126333
0.0243146
0.445514
-0.170638
-0.0860258
-0.035366
0.121392
-0.160276
-0.195743
-0.0891866
-0.0201517
0.109338
-0.122933
0.201567
-0.0786339
0.0181644
-0.0195246
0.0013602
-0.00429558
-0.0113641
-0.234676
0.317649
-0.205751
0.119725
-0.276267
0.285384
-0.445837
0.340459
0.105378
0.0111121
0.0128013
0.0291559
0.0265882
-0.0557442
0.129739
-0.0443763
-0.0853625
0.0579912
0.000107267
-0.0580985
0.106389
0.0588548
-0.165244
0.190819
-0.236136
0.0453162
-0.0159352
0.0159352
-0.172722
0.241984
-0.0692619
-0.0195209
0.0152253
0.0974519
-0.00651575
-0.0909362
0.0101285
-0.119745
0.109616
0.140899
0.0955834
-0.236482
0.0494127
0.0108664
-0.0602791
0.0516412
0.0414661
-0.429192
0.329164
0.100028
-0.170326
-0.194116
0.0951613
0.00229058
-0.0897093
-0.0208469
0.110556
-0.3764
0.206074
-0.326744
0.231842
0.0949018
-0.0741793
0.416072
-0.0337629
0.087396
-0.0536331
-0.171547
-0.204853
-0.0765461
-0.129205
0.0973601
-0.334815
0.237455
-0.286638
0.192962
0.0936757
0.00562818
0.0447419
-0.0503701
-0.330214
0.178732
0.151482
-0.0839081
0.104364
-0.0204555
-0.00976769
0.121471
0.0645119
-0.0386899
-0.025822
-0.093052
0.013326
0.079726
-0.0682418
0.0185977
-0.106853
-0.0162758
0.123128
-0.380384
0.214084
0.0295612
0.0507176
-0.0802788
-0.51352
0.51352
0.12517
-0.160536
-0.223235
0.100302
0.0650787
-0.0482203
-0.0168584
0.102218
0.176923
-0.279142
-0.271904
0.0852338
-0.319436
-0.0533768
0.137825
-0.150397
0.0125722
0.00986261
-0.103313
0.0934502
0.0474085
-0.0179945
0.114259
-0.099374
-0.0148853
-0.14511
0.142143
0.00296753
0.129868
0.256014
-0.385882
0.261145
0.22026
-0.0296578
0.0212446
0.00841316
0.0693225
-0.0246048
-0.0447177
-0.00224848
0.0421345
-0.039886
0.0893314
-0.0837821
-0.0436122
-0.0484549
0.0920671
0.287969
-0.46395
0.175981
-0.0233952
0.0587134
0.0110343
0.0540444
-0.366475
0.315406
0.0510692
0.243321
-0.0602999
-0.183021
0.014999
0.0992603
0.346876
-0.0368139
-0.310062
0.00362135
-0.0192722
0.0488821
0.00910915
-0.0824539
-0.00377313
-0.257534
0.5072
-0.249667
-0.278676
0.190486
0.0881893
0.0244869
0.0238325
-0.0483194
-0.0712066
0.107522
-0.151172
0.0443196
0.0191072
0.0230939
-0.0422011
-0.173876
0.34742
-0.173545
0.133253
-0.0523611
-0.0808919
-0.010055
-0.100771
0.110826
-0.122193
-0.00413987
-0.238687
0.498003
-0.259316
0.00489212
-0.0301762
0.025284
-0.0913075
0.0789617
0.0123458
-0.0127078
0.0116643
0.115744
-0.125055
0.00931079
-0.00947079
0.0964823
-0.0870115
-0.05218
0.158569
-0.106523
0.0168136
0.00989136
0.00744639
0.0958942
-0.075277
-0.0206172
-0.102296
0.0131099
-0.0444761
0.0543509
-0.00987488
-0.0947388
-0.148245
-0.108466
0.315993
0.0308835
-0.0786039
0.0158101
0.00235426
-0.05178
0.0147407
0.0370393
0.335461
-0.197371
-0.13809
-0.078229
0.0916177
-0.0133887
0.0401838
-0.0210767
-0.173003
0.022775
0.150229
-0.0565467
0.00960191
0.0469448
-0.0301362
-0.189345
0.219481
-0.334864
-0.0985225
-0.0302035
-0.336272
0.186333
-0.162103
-0.0302224
0.192325
-0.019632
0.019632
0.209018
-0.0681189
0.366996
0.0500245
-0.417021
0.0404328
0.00251265
-0.24009
-0.0916509
0.331741
-0.0834307
0.0655893
0.0178413
-0.0320422
0.053399
-0.374176
-0.071661
0.0264784
0.0380335
0.016707
-0.016707
0.237503
-0.157932
0.23955
-0.0816183
0.00175207
0.0476606
0.376432
0.171779
0.0169071
-0.0181256
0.00121848
0.165219
-0.055979
-0.10924
0.348028
-0.152662
-0.195365
0.0156821
0.00689013
-0.0372894
0.0303993
0.141984
-0.31586
0.00496391
-0.200401
0.195437
-0.192142
0.294361
-0.0150049
-0.190319
0.205323
0.426643
-0.0184753
-0.408167
-0.100062
0.327969
-0.227907
0.254645
0.222652
-0.477297
-0.132469
0.148534
-0.016065
-0.108028
0.0333401
0.0746876
0.0526236
-0.0310906
-0.021533
-0.0694336
0.0989948
-0.00425889
-0.00218401
0.0064429
0.0160323
0.0538621
-0.0698944
0.0128295
-0.0329536
0.0201241
0.0810749
-0.0625196
-0.0185553
0.0230916
-0.126342
0.10325
-0.199952
0.346356
-0.146404
0.00872827
-0.130921
-0.103318
0.0194094
0.057617
-0.0519888
0.0565756
0.0149644
-0.0715399
-0.145555
0.0130864
-0.0906073
0.0811366
0.313894
-0.082052
-0.284232
-0.0961524
-0.163158
-0.12348
0.0411485
-0.0362563
-0.0823729
-0.199819
-0.00805844
0.0136817
-0.00562329
-0.00863374
-0.130875
0.139508
-0.0331604
0.459803
0.235248
-0.265384
-0.0102326
0.199614
0.0381357
0.134208
-0.374298
-0.40141
0.343582
0.0578283
0.338028
-0.14679
-0.191238
0.00511481
-0.178118
0.0351193
0.0167815
0.0791127
-0.171515
0.432318
0.0155076
-0.0500122
0.0345045
-0.141827
-0.0355312
0.177358
0.111321
-0.0579304
-0.0533908
0.29648
-0.11074
0.138536
-0.514308
0.375772
0.20491
0.133118
0.0217722
-0.0543366
0.0325644
0.0765169
0.0348044
0.114924
-0.0244101
-0.0905143
0.0260044
-0.00458863
-0.044376
-0.0121706
-0.514491
0.204141
0.31035
0.00338991
-0.00367928
0.000289363
0.00780532
0.000705472
-0.0085108
0.143191
0.0132854
-0.156476
-0.0050528
0.0668584
-0.0618056
0.0842443
-0.0499533
-0.034291
0.316441
-0.164798
-0.151643
-0.0850952
0.0225756
0.221059
-0.216095
-0.0206122
0.0246825
-0.00407027
0.0285625
-0.0534878
0.0249253
-0.0112886
0.0032302
-0.0431372
0.0540036
-0.0836283
0.000197646
0.192111
-0.143777
-0.0483341
-0.0884494
-0.031248
0.0688867
-0.0830989
0.0142122
-0.0572142
0.42421
-0.0761438
0.279
-0.202856
-0.522236
0.403194
0.119043
0.0216944
-0.0257936
0.00409926
-0.0485641
0.00408805
0.0411757
0.0650106
-0.0622904
-0.0027202
0.150348
-0.210648
0.0054788
-0.0110201
0.0336193
-0.0693475
0.0357281
-0.448068
0.450583
-0.00251469
0.21164
0.104802
0.0156094
-0.0150492
-0.000560181
0.127683
-0.117554
-0.158935
-0.0645919
0.223527
-0.272346
0.410882
-0.0393688
0.0371203
0.0157212
0.00608697
-0.0218081
-0.00728522
-0.0954232
0.25304
-0.157617
0.0242332
-0.0149086
-0.00932452
0.0825555
-0.0167621
0.0769272
-0.218754
-0.068111
-0.0161839
0.0842948
-0.0273686
-0.00238557
0.0297541
0.191761
-0.121832
-0.0699291
0.100559
-0.0906964
0.149559
0.198468
-0.0797637
0.116436
-0.0366728
0.00294011
0.013967
0.0094078
0.113942
-0.0172371
-0.00466394
0.0696746
0.00907703
0.0151561
0.274343
-0.191388
-0.0829543
0.288939
0.156575
-0.175666
0.162839
0.0128267
-0.178616
0.190576
-0.0119602
-0.484534
0.060232
0.424302
0.0296306
-0.0491138
0.0194832
-0.0832693
0.0179872
0.0652821
-0.431469
-0.0530646
0.145779
0.249961
-0.111494
0.0074628
-0.10082
0.141991
-0.0411713
-0.401942
-0.0764609
0.0461083
-0.0392182
0.066115
0.0488094
-0.112585
-0.249656
0.362241
-0.00489072
-0.0760771
0.0809678
0.0857787
0.117729
-0.203508
-0.257944
0.162521
0.0651421
0.0162574
-0.0195561
0.00329873
-0.208902
-0.11199
0.320892
0.0504135
-0.0349059
0.412967
-0.143536
-0.269431
-0.0445431
0.0144417
0.0301014
-0.14778
-0.00261784
-0.102209
0.118715
-0.0165057
-0.0127572
-0.037031
-0.057538
0.094569
0.141739
-0.218882
0.0771434
-0.0763305
-0.163517
0.0157374
0.136251
-0.151145
0.0148947
0.115215
-0.125811
0.037362
0.237819
0.0544558
-0.292275
-0.0727817
0.0907382
-0.0179565
0.0147792
-0.0196801
0.00490089
-0.0757925
-0.00374817
0.0795407
0.0148325
-0.00270335
-0.0121292
-0.057024
0.0714578
-0.0144338
0.0679673
-0.0352865
-0.0326809
-0.33006
0.0953845
0.121931
-0.0988394
-0.152806
-0.248604
-0.0508489
0.0668812
-0.0883414
-0.42615
-0.346644
0.508926
-0.162282
-0.324965
0.116063
-0.0762651
0.0759184
0.000346765
-0.0106666
-0.00459544
0.0152621
-0.11517
0.0989859
-0.101298
-0.0101963
0.104882
0.0931001
-0.197982
0.0761723
-0.0447773
-0.031395
0.116477
-0.0446313
-0.0718455
0.0677866
-0.104818
0.284894
-0.293304
0.00840992
0.106633
-0.117013
0.0103809
0.104149
-0.116659
0.0125094
0.0238539
-0.0576168
-0.012188
0.0112532
0.000934765
-0.458369
0.0616932
0.396676
-0.0788296
0.367375
-0.288545
0.0669322
-0.0130701
0.0195341
0.0697973
-0.000233256
0.00404181
0.181809
0.0172636
-0.00127193
0.0845598
0.080659
-0.0981599
0.0702334
0.0279264
-0.0129385
0.00227192
-0.137373
0.121097
0.036437
0.0315303
0.0661777
-0.0202249
-0.0459528
0.0460196
-0.0668956
0.020876
0.0397823
-0.188027
-0.00529765
0.00191066
0.00338699
-0.308625
0.208563
-0.220601
-0.109612
-0.217785
0.29412
-0.0763353
0.272812
-0.452546
0.179734
-0.0764736
-0.00170962
0.0855969
-0.0141713
-0.0714256
-0.00213104
0.0969121
-0.0947811
-0.118787
0.0390233
0.297191
-0.48004
0.18285
-0.306905
0.157814
0.149091
0.00771096
9.43633e-05
0.138852
-0.00260174
-0.22107
0.0112016
0.209869
0.421845
-0.149032
0.343823
-0.198994
-0.144829
-0.133275
0.125118
0.00815659
-0.0491373
0.0882642
-0.039127
0.0693816
0.000329957
-0.0697116
-0.032934
0.00275782
0.149462
-0.0106098
-0.0353572
-0.0048454
0.0402026
0.163079
-0.0198885
-0.0210547
-0.00860309
-0.431509
0.0573335
0.0209327
0.031691
0.322947
-0.44595
0.123003
0.0612506
-0.0152311
0.0891712
-0.0325956
-0.0300131
0.110937
-0.0809243
-0.0116639
0.0264432
-0.0121544
-0.372366
-0.0860031
0.128096
-0.107582
-0.0205139
0.525143
-0.133352
0.326142
-0.0895364
-0.236606
-0.00579118
-0.0541419
0.0599331
-0.0190581
-0.025485
-8.81961e-05
-0.00520946
-0.142203
0.0413834
-0.145945
-0.0175721
-0.0154183
-0.0324455
0.0741156
-0.0634244
-0.0106912
-0.478356
0.119911
0.358445
-0.467623
0.447662
0.0199613
0.043016
-0.0185291
-0.137338
0.122333
0.13617
-0.121422
-0.0147477
0.0966661
-0.0782601
-0.018406
0.109717
0.0211133
-0.130831
-0.0895921
-0.197344
0.286936
0.0464045
-0.0246323
-0.0873281
0.0912327
-0.00390457
0.0665419
0.0631969
0.107768
-0.124425
0.0166569
-0.0276417
-0.0705181
0.0414528
0.0512532
0.224557
0.103524
-0.328081
-0.0372514
-0.0452025
-0.00355873
-0.00862925
-0.221837
0.0629018
-0.0927452
0.0199635
-0.340281
0.261451
0.210283
0.202684
0.242832
0.100751
-0.191275
0.0442726
0.147002
-0.29937
0.139094
-0.0889369
-0.0190909
0.0104832
-0.0750877
0.0646044
-0.0133386
-0.0719366
0.0987299
-0.0267933
-0.245317
0.0873857
-0.097156
0.0252195
0.0670909
0.092101
-0.159192
-0.246222
0.0735003
0.105135
-0.10809
0.00295496
-0.0889657
0.0107367
0.0101146
-0.0438705
0.0337559
0.168647
-0.225464
0.0568171
-0.253327
0.39009
-0.136763
0.25479
-0.0315558
0.0601183
-0.0144859
0.275678
-0.261192
0.0189607
0.00161387
-0.0205746
-0.392605
-0.0750178
0.0797522
-0.0461328
-0.100952
0.0908971
-0.273183
0.18359
0.0672774
-0.0697061
0.00242866
0.176988
-0.109897
-0.0363396
0.0598841
-0.0235445
0.0305228
-0.29476
0.264237
0.137619
0.197842
0.044581
0.250541
-0.295122
0.0565025
-0.135079
0.0785765
-0.110649
-0.000282236
-0.103083
-0.112855
-0.365501
0.0474509
-0.0373363
-0.0657999
-0.0172678
0.0830677
-0.102509
0.0744121
0.0280974
0.0190609
0.0503207
-0.0710235
-0.00983908
0.0808626
-0.243661
0.187062
0.0565993
0.0447457
0.0150419
-0.0597877
0.0175069
-0.00267438
0.142098
0.0500135
-0.094055
0.0769583
0.0170967
-0.143596
0.154745
-0.0111497
-0.231336
0.361204
0.126955
-0.0172373
0.268472
-0.526005
0.0942281
-0.0678777
-0.0263504
-0.146108
0.160319
-0.0142105
0.0386588
-0.182436
-0.0300555
0.00268695
0.134569
0.0148931
-0.0147472
-0.34337
0.358118
-0.0563667
0.0505755
-0.231617
0.217131
-0.151207
0.00526239
0.0810558
-0.0838295
0.00277366
-0.0179799
-0.0693482
0.132089
0.217933
-0.350022
0.0413012
0.0248765
0.0227804
-0.0614702
-0.423247
0.0213045
-0.0950032
-0.204366
0.123244
0.0542379
-0.177482
-0.139937
0.145052
-0.0759826
0.0557581
0.0202245
0.0130065
-0.0017533
-0.0360366
-0.0475917
0.372109
-0.162685
-0.209424
0.201137
-0.215014
0.0138764
0.310237
0.080424
-0.390661
-0.0873256
0.211659
-0.124333
0.0459495
0.00145903
-0.0127194
0.181366
-0.159976
0.00876885
0.00951673
0.0248651
0.405408
-0.280022
-0.125386
0.175979
0.19613
-0.251202
0.0301323
-0.0200261
0.0832686
-0.0632425
0.176399
-0.239113
0.0627137
-0.144585
-0.162291
0.306876
-0.164689
0.0247518
-0.0814965
0.0037093
0.00115421
-0.00416166
0.00300745
0.0200395
-0.0265612
0.00652178
-0.250859
0.196911
0.0539488
0.20875
0.245031
-0.339252
0.0942205
-0.163579
0.154945
6.79727e-05
-0.405381
0.203446
0.201935
0.0437527
-0.087365
-0.00870516
0.085294
-0.00423812
0.00201602
-0.0173925
0.0153765
-0.112524
-0.318986
0.075341
-0.0424856
-0.0328554
-0.084858
0.329889
0.0381891
-0.0595282
0.0544754
0.190338
0.000481681
-0.0898916
0.0407543
-0.0853056
0.395542
-0.157435
0.445404
-0.0458375
-0.377409
0.0862444
-0.0661652
-0.0200792
0.019199
-0.0034778
-0.0968776
-0.00249638
-0.0798916
-0.223988
0.30388
-0.0130572
-0.0627353
-0.0720979
0.091632
0.107478
0.220491
0.202808
-0.0264095
0.26486
-0.279607
-0.0209475
0.0218247
-0.000877195
-0.0137938
0.00535933
0.00843452
0.134169
0.110742
-0.244911
-0.0593182
0.160151
-0.100832
0.243643
0.0438498
-0.287493
0.0459968
0.0293441
0.048466
-0.0485496
8.3586e-05
0.350347
-0.447055
0.0967084
0.00786059
-0.0615479
0.0536873
-0.475478
0.041416
0.434062
-0.0600462
0.0237066
-0.493941
0.282408
0.211533
0.341598
-0.209509
0.0465424
0.0296299
0.00785195
-0.0284642
-0.0150933
0.397513
-0.299498
-0.0980146
-0.0660193
-0.206788
0.272807
0.024915
0.00459851
-0.0295135
-0.152286
0.00617807
-0.224768
0.0801836
-0.217931
-0.0257305
-0.00754942
-0.0311488
0.0386982
-0.0288115
-0.0670045
0.095816
-0.048874
0.00119557
0.0476784
-0.237569
-0.0924913
0.00188782
0.0137216
0.0294067
0.242061
-0.271467
0.00408999
-0.0611396
0.0918622
-0.0307226
0.424294
-0.30398
-0.120314
0.0600123
-0.0800385
0.342695
-0.313288
0.0344418
0.0946058
-0.113411
0.0052369
-0.0142516
0.00901471
0.334679
-0.227201
-0.528015
0.248107
0.279908
-0.0714222
0.00171613
-0.246741
-0.18245
0.00697498
-0.0121829
0.00520789
0.166623
0.0200552
-0.186678
-0.00970619
-0.181569
0.021864
-0.00290324
0.0102925
0.0308559
-0.150606
-0.0250598
-0.0252551
0.191878
-0.341699
-0.0613868
0.403086
0.0163606
0.00874431
-0.0251049
0.0295986
-0.318759
0.226712
0.0920476
-0.00176959
-0.0980631
0.0998327
-0.143421
-0.261959
-0.00604892
-0.00988628
-0.210015
-0.317999
0.0283893
0.0658388
-0.103307
0.28023
-0.205538
0.118213
-0.101375
0.00449741
0.00791573
0.0679954
-0.0759111
0.113091
-0.000398671
-0.112693
0.0724578
0.302863
-0.375321
-0.33661
0.099041
0.0342579
-0.0112091
-0.0230487
0.376851
-0.304393
0.197032
-0.311033
0.133165
0.177868
-0.368349
-0.107129
0.0329247
-0.016409
-0.0165157
0.00342911
-0.0332682
0.0298391
-0.0107175
-0.115625
-0.0208465
-0.060352
-0.0716077
-0.0134874
0.0174584
-0.0146473
-0.00281103
-0.0979804
-0.0749717
0.172952
-0.16503
-0.080287
0.376238
-0.114093
-0.262145
-0.0375011
0.254304
-0.216803
-0.338333
0.292212
-0.408152
-0.0399163
-0.0169846
0.0431536
0.0223399
-0.0147253
-0.00761467
-0.00836932
-0.0434107
0.0235424
-0.00184806
-0.0584859
0.0318642
0.0266217
0.110481
-0.128144
0.017663
-0.0594155
0.00792324
-0.0581798
0.0502566
-0.138743
0.48909
0.0627656
-0.0548424
-0.0392005
0.0788484
-0.0956198
0.0167714
-0.00815151
0.01625
0.00120834
-0.147119
0.157385
-0.0102658
-0.110076
-0.196829
0.010578
0.011762
-0.252773
0.179214
0.0735594
-0.127575
0.145449
-0.0178739
-0.173859
0.114541
0.0097969
-0.0451541
-0.0820999
0.0687615
0.0133384
-0.103484
-0.207549
-0.06416
0.0133111
0.0098092
0.0353969
-0.057866
0.0224691
0.180535
-0.0572911
0.343523
-0.23919
-0.104333
-0.200045
0.14056
0.0594846
-0.122733
0.05638
0.066353
-0.210619
-0.0269118
0.237531
-0.0893324
-0.0119655
0.0613402
0.0353259
-0.341358
0.311155
-0.248003
0.0829723
0.0305745
-0.24836
0.128354
0.310726
-0.439081
0.0105309
-5.39774e-05
-0.0104769
-0.00893583
0.033679
-0.0247432
0.335754
-0.144414
-0.19134
0.0283441
-0.0496034
0.0828281
-0.0332247
0.00584108
-0.0391093
-0.00918931
0.0867136
-0.0775243
-0.299654
0.390011
-0.0903568
0.000251474
-0.0273721
-0.0899591
0.146462
-0.101689
0.0728771
-0.00451395
0.00180573
0.00270821
-0.321607
-0.0167259
-0.152642
0.00552291
-0.0228518
0.053094
-0.0302422
-0.0428675
-0.00339136
0.0462588
0.211725
-0.249226
0.118578
-0.128206
0.00962752
-0.0068413
0.00258241
0.174968
-0.240647
0.0656793
-0.428504
0.329008
0.0994962
-0.040755
-0.0196327
0.0603878
0.0415307
0.00441874
0.100644
-0.0716481
-0.0802509
0.00864312
0.0182151
-0.0019577
0.0155022
-0.107218
0.0917157
-0.148056
0.137133
0.0109223
-0.00328126
0.0231796
-0.0198983
0.0210439
-0.0852934
0.0642495
0.000110804
-0.00462475
-0.0905397
-0.0159833
-8.36287e-06
0.00339828
-0.0110084
-0.108737
0.338741
-0.241381
0.0200395
-0.0985798
0.474333
-0.375753
-0.101485
-0.306356
0.407841
0.247972
-0.355694
0.107722
-0.00375526
0.0201158
0.0782812
-0.0301803
-0.0481009
0.308289
-0.404651
0.0963617
-0.0595538
0.036702
-0.213903
0.511094
0.122965
-0.11273
-0.0102342
-0.133254
0.0624917
0.0707621
-0.00647435
-0.0200869
-0.0806477
-0.0576438
0.0356906
0.19902
0.0728784
-0.271898
0.0704703
0.209657
-0.280128
-0.0565107
0.29433
-0.0122849
0.00627367
0.0060112
-0.0899206
0.0227558
0.0671647
-0.035723
0.0460155
0.519259
-0.264613
0.0654744
-0.0207287
-0.453288
0.41494
-0.0146969
-0.0462053
0.375369
0.0898266
-0.187807
0.122828
-0.0120227
-0.110805
-0.00415278
0.0827617
-0.0786089
0.526877
-0.269427
-0.25745
-0.0713574
-0.0420536
-0.129599
0.0341626
0.070201
0.0123819
0.00432504
-0.0145737
-0.00878821
-0.00500564
0.278855
-0.208385
-0.00176598
-0.055258
0.00481728
-0.00801115
0.00319387
-0.100408
0.00285755
-0.00170334
0.0358333
-0.0897078
0.0538745
-0.0016309
-0.00204838
-0.0757948
0.0119059
0.0638889
0.0359529
-0.0365211
0.000568142
-0.326105
0.454459
0.133212
0.0271072
0.164072
0.0889681
-0.0672167
0.0834154
-0.0161986
0.0525596
-0.0413977
-0.011162
0.0513232
0.0179993
-0.260044
0.184397
0.0756468
0.411247
-0.0100829
-0.401164
-0.0130257
0.0146503
-0.00162458
-0.0275623
0.0226427
0.00491962
0.0235629
-0.0481677
0.381782
0.0689519
-0.450734
0.042745
0.0355362
-0.0113906
-0.329968
-0.118453
0.100675
0.0177777
0.00897743
0.0220953
0.0943814
0.0505441
-0.0320154
-0.0185287
0.239985
-0.0882406
-0.151744
0.011554
-0.139129
0.0268123
-0.0139828
0.000934512
0.00400442
-0.00493893
0.168865
-0.0356531
0.324161
-0.399723
0.0755626
0.00828776
-0.0988274
-0.0589075
0.0154541
0.0434533
-0.0609711
-0.0722827
-0.231077
-0.113113
0.34419
-0.0149648
-0.0462657
-0.0562438
-0.0758694
0.00492072
0.0709486
-0.203696
0.0298372
-0.0787277
0.00246256
-0.478298
0.158296
0.320002
0.445682
-0.0529833
-0.392699
-0.0156096
-0.00407055
0.0117627
-0.0827862
0.00703007
-0.0200558
-0.00882009
-0.00783728
0.0166574
-0.0892139
0.0646487
0.0245652
-0.0827054
0.0595344
0.023171
-0.0269007
-0.00766278
0.29776
-0.191971
-0.105789
0.115593
0.0162493
-0.131842
0.0857914
-0.10648
0.0310668
-0.0558308
0.024764
0.0190835
0.182483
-0.113614
0.00812253
0.0261353
-0.0953607
0.0912079
-0.0108298
0.0527207
-0.0418909
-0.104343
-0.436882
0.135353
0.0963612
-0.0903353
-0.00602597
0.00542755
0.238215
-0.0118081
0.018783
0.0718611
0.0277721
-0.0996332
-0.164181
0.145285
0.0188958
-0.0472948
0.00974877
0.0375461
-0.0137638
0.105195
-0.0914309
-0.0180051
0.0140451
0.00396
0.0128337
-0.00759678
0.00479273
0.0521183
-0.056911
-0.0565164
0.0157614
0.0410153
-0.0615688
0.0205535
-0.0717417
-0.164394
0.308365
-0.450201
0.141836
-0.0709649
0.0250986
-0.0127939
-0.0123046
0.000768516
0.0887382
-0.0895067
0.101888
0.0200434
4.96321e-05
0.021195
-0.17526
-0.0284358
-0.161603
0.147987
0.0136157
-0.260944
0.214806
0.0461377
-0.00341014
0.0132015
-0.00979135
-0.0493544
0.234882
-0.185527
0.0484638
-0.0193078
-0.0901005
0.0243006
-0.257837
-0.0769785
-0.110115
0.0387576
0.0276684
0.000636509
-0.00219169
0.00155518
-0.0729815
-0.124403
0.303135
0.31267
-0.0646985
0.0213527
0.0403732
-0.0617259
0.40093
0.0447603
-0.44569
-0.129434
0.117289
0.0121449
0.109046
0.246199
-0.355245
0.0185159
-0.0182644
0.0392124
-0.201315
0.048011
0.04528
-0.0979741
0.00864168
0.128176
0.029209
-0.335288
-0.0769621
0.41225
0.167379
-0.184933
0.0175535
-0.0132132
0.354812
-0.153392
-0.20142
0.0698778
-0.176935
0.107057
0.00293529
-0.0350146
0.0320793
0.0497527
-0.0253626
-0.0243901
0.0376089
0.0815145
0.0519376
-0.00347385
0.014786
0.409754
-0.42454
-0.384013
0.256172
0.127842
-0.118863
-0.0411134
0.117547
0.2937
0.0265867
-0.0183076
-0.100446
0.00739428
-0.12169
-0.0205133
-0.406344
0.332165
0.100108
0.0129829
-0.104983
0.0333354
-0.479468
0.0230556
0.456413
0.00262591
-0.00590717
-0.0787719
0.0665438
0.012228
-0.322706
0.413996
-0.09129
0.350429
-0.46684
0.116411
0.04797
0.00396758
-0.0376752
0.00237209
0.0353031
0.116091
-0.347168
0.0139268
-0.0522395
0.0383127
0.0353194
-0.0595335
0.0242141
-0.249632
-0.0869778
0.508839
-0.260733
0.0172636
0.0137491
0.0191755
0.0737961
-0.0633129
-0.0810944
0.0719051
-0.0603542
-0.0154406
-0.0753545
-0.184019
0.259373
-0.0514388
0.0193966
0.0156302
-0.0138406
-0.00579142
0.00987803
-0.130224
0.120346
-0.149424
0.146278
0.00314605
0.022728
-0.0542838
-0.0763664
-0.0128476
-0.27561
-0.188023
0.463634
-0.00199773
0.107133
-0.0859851
0.0594846
0.23201
-0.377691
0.14568
-0.253125
-0.0944915
0.347616
-0.17127
0.00708895
0.195786
0.0756426
-0.481987
-0.0295256
0.0205898
0.0355347
-0.0613736
0.0258389
0.422845
-0.0219145
0.221566
0.00117276
-0.000392963
-0.000779792
0.00726152
-0.0101066
0.0168202
-0.00671357
0.253977
0.129565
-0.358036
-0.023528
0.0588474
0.130381
-0.171701
0.0413195
0.0427672
0.0597534
-0.102521
0.265556
-0.254354
-0.413686
0.0719875
-0.377347
0.446325
-0.0689781
0.381231
0.0931012
0.0128399
-0.0029485
0.31942
0.189419
0.388964
0.3635
-0.131489
-0.361869
0.235551
0.126318
0.0101612
0.00734574
0.0621055
-0.272725
-0.139406
0.0177162
-0.284897
0.0927545
-0.072744
-0.00768499
0.080429
0.0708083
-0.051272
-0.0195363
0.0791676
0.186388
-0.0226285
0.0474852
-0.0248567
-0.0828605
-0.0272546
-0.275869
-0.0798243
0.424273
-0.0079432
-0.416329
-0.15552
0.0239856
0.131534
0.220504
0.134308
-0.381822
0.00447534
0.0991881
-0.445832
-0.464673
0.189063
-0.0659749
-0.00944148
0.0754164
-0.058669
0.101436
0.165556
-0.0373803
0.0566228
-0.0856561
0.0290333
0.0704208
-0.0890592
0.0186384
0.41419
0.213553
-0.00148681
-0.00483495
0.00632176
0.059719
-0.106977
0.0472583
0.0114835
0.0866043
-0.0858358
-0.065891
0.0181441
0.0477469
0.251373
-0.178892
-0.0724818
0.0959583
0.313796
0.0163865
0.0311517
0.0170489
-0.0407287
0.142992
-0.102263
-0.1289
0.309817
-0.180917
0.048126
-0.00494501
-0.043181
0.000931518
0.00959934
-0.0819412
-0.317782
-0.0455386
0.112932
-0.0673933
-0.00978662
-0.0177757
-0.0090253
0.0285073
-0.0194821
0.118419
-0.142425
0.0240057
-0.0885218
0.101848
0.108848
0.0807906
-0.189639
0.000610354
0.0110615
-0.0116719
0.465759
-0.399282
0.298645
0.177546
0.0616258
-0.0260911
0.0080571
-0.00665013
0.017181
-0.00137089
-0.0702242
-0.0149827
0.0852069
-0.0524731
0.0592836
-0.00681051
-0.0735472
-0.324901
0.25597
0.0689309
-0.359199
-0.134741
-0.118179
0.135279
-0.0171001
-0.0403294
0.0630573
0.198137
-0.327037
-0.0250271
0.0345582
-0.00953107
-0.16385
0.0199458
0.143904
0.0240932
0.0360464
-0.0601396
-0.0106323
-0.346916
0.0972835
0.032805
0.015321
-0.0887013
-0.089417
0.159295
-0.0994147
0.067814
-0.0776531
-0.19145
-0.330786
-0.250594
-0.111276
0.129093
-0.0134995
-0.0476696
0.0615964
-0.00940271
-0.118507
0.12791
-0.0208385
-0.0376474
0.491951
-0.344459
-0.147492
0.075313
-0.195271
0.119958
0.0951131
-0.023252
-0.0816134
0.00524702
-0.107538
0.107139
-0.00976796
0.0519025
0.0253292
0.071032
0.0716111
0.0157848
-0.266791
0.191437
0.0297924
-0.0438489
0.0140565
-0.0472804
0.0443526
0.00292776
0.0652987
-0.0495137
-0.015785
-0.0621734
0.00970036
-0.0450723
-0.00646879
0.0515411
0.281935
-0.00654118
-0.0184859
0.115357
0.0123254
0.0934277
0.191228
-0.284656
0.0131534
0.0567666
-0.06992
-0.0318561
-0.0053508
0.0372069
0.00848653
0.00435334
0.118652
0.0733714
-0.192024
0.016132
-0.0212751
0.439632
-0.21698
0.0335497
0.0154618
-0.0490115
0.113942
0.00321718
0.012718
-0.410762
0.0840465
-0.0274237
0.112661
0.0133523
-0.126013
-0.045982
0.00349641
0.0530771
0.195122
0.00601496
-0.00614057
-0.0316736
-0.179561
0.211234
0.0406281
-0.0134044
0.0154205
0.468273
-0.327803
-0.14047
0.171705
-0.264044
-0.141891
0.0237121
0.0874589
-0.101223
-0.126969
0.173145
0.000806454
-0.173951
-0.0343308
0.0421914
-0.131717
0.217496
-0.0558728
0.0127357
-0.00298309
0.107132
0.0638667
-0.0792932
0.0154265
0.171044
-0.0204143
-0.15063
0.10627
0.089564
-0.195834
-0.00711081
0.0119281
0.129092
-0.0344861
-0.384874
0.109005
0.0252726
-0.047901
-0.0376514
-0.0135295
-0.0194241
-0.000118961
0.0040344
-0.00391544
-0.0436116
0.0124628
0.102513
-0.117215
0.0147018
-0.126097
0.507879
-0.306261
0.511937
-0.0749337
0.192663
0.241893
0.0664751
-0.308368
-0.00309099
0.0625756
0.0113535
0.00582756
-0.00849332
-0.0515654
0.0600587
-0.353529
0.340667
0.0128616
-0.0659759
0.0759564
0.00463054
0.0144397
-0.0190702
0.0326875
-0.0487137
0.0160262
0.275366
-0.100021
-0.100024
-0.0267636
0.00780254
0.0189611
0.0515354
-0.0179856
0.0937358
-0.112605
0.0188697
0.0945153
0.00848872
-0.103004
0.108312
0.166031
-0.190306
0.158633
-0.0124824
-0.115723
0.0158564
0.00377563
-0.0443464
-0.229315
0.273661
0.0201036
0.0144546
-0.228364
0.258939
0.153346
0.0189126
0.00258777
-0.0215004
-0.0255645
-0.0521945
0.0777589
0.117517
0.122468
-0.552924
0.233968
0.318955
-0.123651
-0.0219039
-0.0795985
0.0927375
-0.013139
0.0940999
0.00645919
-0.0917644
0.0617513
0.273028
-0.18706
-0.0859674
0.292149
-0.206611
-0.0855376
0.188284
0.035046
0.026267
-0.061313
-0.0751828
0.0869454
0.0892432
-0.0910128
0.0105121
-0.0315668
-0.154557
-0.00929313
0.395581
-0.283049
-0.112532
-0.222096
-0.0387743
0.26087
-0.0997364
0.0805334
0.0192031
0.037368
-0.0962893
0.0589213
0.108575
-0.30651
0.197934
0.132011
-0.134968
0.00295706
0.0354735
-0.125433
0.0452154
0.357978
-0.44959
0.239286
0.210304
-0.395688
0.279903
0.115785
0.359212
-0.122359
-0.236853
-0.277644
-0.171946
-0.0828064
-0.0194901
0.0357645
0.311656
-0.0404072
0.0405145
-0.0456344
-0.132981
-0.113258
0.12966
-0.0164023
0.0132593
0.070422
-0.0836813
0.0545545
0.136021
0.309433
-0.0675408
-0.0392815
0.0743275
-0.0188003
0.17086
-0.152059
-0.00145721
0.00267742
-0.00122021
0.164647
-0.220726
0.0560792
-0.158458
0.0101231
0.148335
-0.0571298
0.080292
-0.0231622
0.240163
-0.42614
0.185977
0.000386191
0.000250319
0.192555
-0.162032
0.0874451
-0.0186836
-0.012762
-0.0247634
-0.0225169
0.0124792
-0.125737
0.13062
-0.0917962
-0.0388235
-0.284678
-0.141912
0.42659
-0.0154575
0.00013788
-0.00843621
0.0592349
-0.0507987
0.134848
0.157301
-0.0637013
0.254187
-0.0623813
0.249065
-0.186683
-0.0117218
-0.0102031
0.0219249
0.129152
0.00945319
-0.138605
0.0819096
0.00368726
-0.00522741
-0.0157201
0.190655
-0.186959
-0.0601513
0.247111
0.0108422
0.317466
-0.328308
0.00684965
0.0223796
-0.0292293
-0.115512
0.119847
-0.0043353
-0.104207
-0.0196797
0.0317628
0.0544816
-0.000873547
0.00180806
-0.0728845
-0.0524829
-0.0157589
-0.0168146
-0.0237664
-0.00108017
0.0248465
-0.06378
0.372069
-0.440465
0.383251
-0.0308563
0.0549496
-0.00062487
-0.0118659
0.0124907
0.0743384
0.0111206
-0.0770955
-0.25509
0.00542372
-0.0781678
-0.361593
0.333469
0.0281238
-0.292309
-0.0692841
0.075735
-0.0202139
-0.00210312
0.022317
-0.316918
0.32776
-0.29641
-0.0992782
0.237356
-0.281703
-0.00476005
-0.348768
0.0011187
0.0454237
0.347064
-0.230973
0.0239266
0.0586289
-0.341125
0.120847
0.220278
-0.10073
0.110608
-0.0129818
-0.0467073
0.0596891
0.183789
0.343088
0.297707
-0.189132
0.00945297
-0.0890515
-0.282895
0.0855239
0.155257
-0.0248756
-0.0970867
0.108481
-0.0113939
-0.00445603
-0.0122509
0.00415119
-0.0656991
0.414196
-0.208785
-0.205411
0.0702851
0.0279516
-0.0982367
0.0638736
-0.0416624
-0.0222112
0.250795
0.083082
-0.333877
-0.139633
0.0159812
-0.0478816
0.0376965
0.0101851
-0.00581346
0.0899665
-0.0140766
-0.018902
-0.0808344
-0.0457788
-0.111594
0.157373
-0.00719832
-0.0888449
0.0960432
-0.142349
0.346585
-0.204236
0.351233
0.155967
0.11037
0.316646
-0.427016
0.0954413
0.143822
0.0940302
-0.237853
-0.108861
0.0013229
-0.0471456
0.016055
-0.00554859
-0.0124566
-0.15898
0.363121
-0.0398705
-0.0476355
0.0875059
0.18742
-0.283843
0.0964236
0.209695
-0.411903
0.202208
-0.0327265
0.25055
-0.363404
-0.0108834