/*--------------------------------*- C++ -*----------------------------------*\
| =========                 |                                                 |
| \\      /  F ield         | OpenFOAM: The Open Source CFD Toolbox           |
|  \\    /   O peration     | Version:  v2012                                 |
|   \\  /    A nd           | Website:  www.openfoam.com                      |
|    \\/     M anipulation  |                                                 |
\*---------------------------------------------------------------------------*/
FoamFile
{
    version     2.0;
    format      ascii;
    class       volVectorField;
    location    "400";
    object      U;
}
// * * * * * * * * * * * * * * * * * * * * * * * * * * * * * * * * * * * * * //

dimensions      [0 1 -1 0 0 0 0];


internalField   nonuniform List<vector> 
18166
(
(0.836246 -0.00794404 -3.01054e-20)
(1.00551 -0.00150398 6.03578e-22)
(0.999934 -0.000778552 1.08291e-20)
(1.20605 0.0232819 -4.29681e-20)
(0.0939875 -0.376923 -1.42273e-19)
(0.829477 -0.126653 -4.6323e-20)
(1.01349 -0.010639 3.19517e-21)
(-0.341003 -0.0101071 -5.08522e-21)
(-0.1498 -0.0216696 9.26684e-20)
(0.146694 -0.135155 -5.68688e-20)
(0.998872 -0.00948767 0)
(0.995242 -0.0158031 0)
(-0.105976 -0.0282577 -1.5303e-19)
(1.29136 -0.0858305 0)
(0.617191 0.0783672 -5.88761e-20)
(1.29391 -0.0777824 5.563e-22)
(1.00067 -0.00506736 1.20585e-21)
(0.0497438 -0.881909 6.43933e-21)
(0.990959 -0.0169562 2.60192e-21)
(-0.333593 -0.0120363 1.42256e-19)
(1.23601 -0.132569 1.33988e-19)
(1.00058 -0.00516513 -4.2985e-21)
(1.23538 -0.119916 -1.13983e-19)
(0.996112 -0.000740155 2.18346e-21)
(1.00767 -0.0115356 -4.96623e-22)
(1.01307 -0.0102326 -5.07429e-21)
(0.857791 -0.0197761 -3.52317e-20)
(1.09631 -0.0486101 3.17657e-20)
(0.986534 -0.0275472 8.00174e-21)
(1.21252 0.022335 -4.63649e-20)
(-0.00433648 0.00243184 0)
(1.01686 -0.000636165 2.9641e-21)
(0.999596 -0.0300936 2.80563e-21)
(0.996168 -0.0196627 0)
(1.0199 -3.00215e-05 0)
(1.00164 -0.0081223 1.30948e-22)
(-0.129729 -0.0229583 0)
(1.0015 -0.00780281 -1.09829e-22)
(1.02778 -0.00927457 0)
(0.173205 -0.176098 1.17146e-19)
(1.00005 -0.000673955 -1.72848e-21)
(1.13739 -0.24167 2.93077e-20)
(0.999008 -0.0310819 7.15551e-22)
(0.980536 -0.0169306 0)
(0.833219 -0.0207152 -1.22721e-20)
(0.998295 -0.00122508 -1.03233e-20)
(1.09164 0.0840759 -3.53093e-20)
(-0.00729605 -0.0145809 0)
(1.10472 0.142866 2.40731e-20)
(0.86798 -0.0170367 3.22364e-20)
(1.09883 0.0421445 2.33122e-20)
(1.12625 0.0181247 -3.46951e-20)
(1.25235 -0.0926459 -3.78047e-20)
(1.00017 -0.00060243 6.60367e-22)
(0.998925 -0.00899076 0)
(-0.231456 0.00641574 1.04623e-20)
(1.13477 -0.236268 -8.59136e-20)
(-0.185096 -0.0111526 -7.96448e-20)
(0.986354 -0.0652134 -1.31803e-20)
(1.08044 -0.0402911 1.13272e-20)
(1.15878 -0.135437 0)
(1.07954 0.00350867 -9.81456e-21)
(-0.292 -0.000262936 -1.43307e-19)
(1.08233 -0.0986059 0)
(1.29672 -0.0629606 -5.13505e-22)
(0.996778 -0.00278048 0)
(-0.255001 -0.00992269 -2.32123e-20)
(0.377777 0.176244 0)
(0.382086 -0.118108 8.43534e-23)
(1.10204 -0.00897297 0)
(1.01968 -8.06478e-05 0)
(1.02439 -0.0488839 0)
(0.839686 -0.0427671 0)
(1.0302 -0.0804001 2.08e-22)
(0.0591308 -0.389802 -7.304e-20)
(0.340709 0.369184 9.98275e-20)
(1.24432 -0.11489 1.75543e-20)
(0.221314 -0.0819309 0)
(1.06884 -0.0610535 0)
(1.00111 -0.00663172 -9.76819e-22)
(1.00002 -0.00154097 1.81534e-21)
(-0.0447749 -0.0222947 3.82298e-20)
(0.996475 -0.00097988 -1.61516e-20)
(0.994815 -0.0030102 8.83836e-21)
(1.0167 -0.00143699 0)
(1.05383 0.00682728 0)
(1.08347 -0.0331438 4.9905e-21)
(1.00549 -0.00632772 8.61012e-23)
(1.12306 0.0220906 -1.7356e-20)
(1.02728 -0.00875681 3.64834e-21)
(-0.301677 -0.0145235 1.8037e-19)
(0.862332 -0.143536 -2.11308e-20)
(-0.179662 -0.0155566 0)
(1.00002 -0.000580164 0)
(1.00015 -0.000890031 1.7936e-21)
(1.05429 0.00914879 0)
(1.01709 -0.00120576 3.1406e-21)
(0.989055 -0.250358 3.76329e-22)
(0.924167 -0.00654077 -1.47042e-20)
(1.09576 -0.0347918 2.38383e-20)
(1.00489 -0.00077672 9.11738e-22)
(0.998913 -0.00372975 -2.64426e-21)
(0.688028 0.0820564 -9.7872e-20)
(1.07989 -0.100172 0)
(1.10094 -0.00998927 0)
(0.998976 -0.00333998 -5.08071e-21)
(-0.0537411 -0.382504 2.57919e-20)
(0.0877051 0.00862781 -1.50799e-19)
(0.978882 -0.0772864 1.10558e-20)
(0.999438 -0.00764225 1.98283e-21)
(-0.171193 -0.0146847 -1.67208e-19)
(-0.0816075 -0.0219462 0)
(-0.0659011 0.0573471 0)
(0.892269 0.231997 9.13757e-20)
(1.00041 -0.00418826 2.31136e-21)
(1.03198 -0.00127271 -7.55197e-21)
(1.00475 -0.257963 0)
(0.0671996 0.0483229 -1.83938e-20)
(0.974135 -0.0281967 3.4638e-21)
(0.602216 0.210452 0)
(0.613403 0.803533 -4.2715e-21)
(0.985922 -0.026113 -5.14169e-21)
(1.26707 -0.240703 9.68982e-20)
(0.377047 -0.0238433 0)
(1.231 0.0318985 -3.27769e-20)
(0.993783 -0.0141664 -4.70069e-21)
(0.998692 -0.00138373 -3.38637e-21)
(-0.133167 -0.0225252 9.66676e-20)
(0.941933 -0.102823 7.53896e-21)
(0.937606 -0.175014 2.07018e-20)
(1.2344 0.0519386 3.81981e-20)
(0.826521 -0.407965 2.80358e-20)
(1.07623 -0.00893866 5.02095e-22)
(0.125456 0.183656 -2.13543e-20)
(0.933141 -0.0868184 2.20547e-20)
(1.0875 0.0840574 2.88652e-20)
(1.00137 -0.0079403 0)
(1.00821 -0.00930264 0)
(1.0774 -0.0065488 0)
(-0.0157287 0.0845638 -2.66905e-20)
(-0.150809 -0.0186548 0)
(1.29944 -0.0708672 -4.61181e-20)
(1.12027 0.21405 0)
(0.0896211 0.190903 0)
(0.983093 -0.0758695 -1.43172e-20)
(0.823695 -0.0635896 1.52375e-19)
(-0.359206 -0.0146204 0)
(0.829039 0.0955808 0)
(1.04007 -0.00747735 4.30531e-21)
(1.08518 -0.00990777 -2.24142e-20)
(1.01693 -0.00100823 5.26726e-21)
(0.12903 0.10626 -2.97503e-20)
(0.535686 -0.711823 8.65306e-21)
(1.23313 0.029086 0)
(0.999856 -0.000907433 -2.28063e-21)
(0.999645 -0.00708116 2.04157e-22)
(1.00662 -0.0527734 0)
(-0.305143 -0.00339729 1.04235e-19)
(1.00122 -0.00736324 -1.09392e-21)
(-0.127242 -0.0242274 8.66257e-20)
(1.01444 -0.00136246 0)
(0.280535 0.167774 0)
(1.0767 -0.0447748 1.43971e-20)
(1.0095 -0.00134452 -2.31235e-21)
(1.12629 0.0193582 3.75313e-20)
(0.327946 0.013421 -3.90427e-20)
(0.998725 -0.00200689 -8.44184e-21)
(0.0717167 0.189434 2.12664e-20)
(-0.0600553 -0.00979975 3.88704e-20)
(-0.1305 -0.018354 1.73607e-19)
(1.28412 -0.00035552 0)
(0.946971 0.236466 -2.78403e-20)
(0.93907 -0.180328 -1.50038e-20)
(0.35546 0.175999 0)
(1.22678 -0.0629009 0)
(0.994062 -0.0192904 0)
(0.613298 0.399655 1.47453e-19)
(0.493799 0.188447 7.61353e-20)
(1.00587 -0.00115496 0)
(1.00529 -0.00587671 0)
(1.00035 -0.0042312 -2.8114e-21)
(0.953513 -0.170597 1.31195e-20)
(0.522606 -0.0667548 -1.38379e-19)
(0.602386 0.359734 -3.77136e-20)
(1.02916 0.0183778 9.70778e-20)
(1.00781 -0.00469741 -1.28776e-21)
(1.0357 -0.221173 1.01235e-20)
(1.19774 0.0273344 4.42148e-20)
(1.00238 -0.00566192 0)
(1.0313 -0.000904709 4.16047e-21)
(1.16612 -0.129193 1.78254e-20)
(0.990478 -0.0180722 -3.07023e-21)
(1.11122 0.0283271 0)
(0.995138 -0.00305797 0)
(1.02555 -0.156526 0)
(-0.0116612 0.0300351 0)
(0.839339 -0.111887 7.61624e-20)
(1.01999 -0.147606 -2.26853e-21)
(0.073803 0.055361 -7.28852e-21)
(0.103984 0.00416316 -2.69125e-19)
(1.28121 -0.0122053 2.55592e-20)
(0.000865146 0.056166 0)
(1.03705 -0.00201258 -6.61743e-21)
(0.848944 0.0910064 -2.83351e-20)
(0.996345 -0.0382394 2.96521e-21)
(1.1297 0.013676 3.8986e-20)
(-0.00517967 -0.0227055 6.62576e-20)
(-0.248018 0.00207239 -1.33161e-20)
(0.136328 -0.472312 1.87974e-19)
(-0.294263 -0.0124332 4.69982e-21)
(0.131878 -0.326969 -9.32683e-20)
(-0.138455 -0.0194416 5.0417e-20)
(1.0058 -0.00140267 0)
(0.997502 -0.00189469 -3.11232e-21)
(1.10731 0.0392022 1.24027e-22)
(0.861901 -0.139795 0)
(1.31032 -0.050716 1.15676e-19)
(1.00238 -0.248705 -1.47513e-21)
(-0.0204668 -0.00936614 -3.42878e-20)
(-0.07349 -0.0241799 -6.62274e-20)
(1.07466 -0.032148 2.43254e-20)
(1.00186 -0.0162687 -2.30046e-21)
(1.00767 -0.00473605 1.11545e-21)
(0.759677 -0.0080733 -3.71774e-21)
(-0.239565 -0.0110335 0)
(1.01667 -0.0130228 2.23181e-21)
(0.985116 -0.242953 1.24554e-21)
(1.00783 -0.00138572 -5.24429e-22)
(0.976066 -0.0644539 0)
(1.0366 -0.00277417 1.34955e-20)
(-0.33594 -0.0135712 -9.45096e-21)
(-0.0798301 0.0567069 4.61267e-20)
(1.06046 0.00233748 5.4698e-21)
(-0.0321632 0.122341 2.16089e-20)
(1.00308 -0.00060168 -2.31357e-22)
(1.05389 0.00540629 -1.51722e-20)
(1.1075 0.0340718 0)
(1.14602 -0.134831 -2.51156e-20)
(-0.161351 0.0333216 -4.31689e-20)
(0.945017 -0.0809428 -2.72126e-20)
(1.11045 0.0304647 0)
(-0.123959 -0.0150025 0)
(-0.328114 -0.00988154 0)
(1.07807 -0.0369043 -2.43547e-20)
(0.947092 0.203436 9.17666e-20)
(0.97086 -0.000133116 -1.82849e-20)
(1.20287 0.0255735 9.75459e-22)
(-0.138907 -0.0145182 0)
(0.163185 0.177493 4.55047e-20)
(1.03718 -0.0530049 0)
(0.828344 0.0207323 -2.24796e-20)
(0.998598 -0.0012745 9.46809e-21)
(0.997531 -0.0369572 -2.04914e-21)
(0.94229 -0.102891 1.32227e-20)
(0.11459 0.0957786 1.59855e-20)
(-0.160445 0.0208913 1.19814e-19)
(0.999812 -0.00573488 0)
(-0.107426 -0.0027003 7.68629e-20)
(-0.120021 -0.0199765 -2.26017e-19)
(1.00918 -0.00116082 2.76787e-21)
(0.997139 -0.00231866 0)
(-0.0315184 0.113294 -2.53195e-20)
(1.15388 -0.150634 8.95063e-20)
(1.09787 0.145887 3.20415e-20)
(0.0211072 0.0326581 0)
(0.0470821 0.0882006 0)
(0.0049532 -0.0133601 -2.11699e-19)
(1.02827 -0.0801083 -1.41274e-21)
(1.00003 -0.00116397 0)
(1.09957 -0.0361879 -2.78082e-20)
(0.861026 -0.0171069 3.86559e-20)
(0.997559 -0.00174211 -2.16833e-23)
(1.00661 -0.007668 2.39133e-22)
(0.427391 0.148062 -4.25076e-20)
(1.12238 0.0226024 -1.26512e-20)
(-0.0551619 0.019392 0)
(0.551155 0.195544 0)
(1.00826 -0.00119824 5.70071e-22)
(0.398045 0.309546 0)
(1.01705 -0.000764913 1.01344e-22)
(1.11688 0.0802108 -1.49093e-20)
(-0.239094 -0.00863557 0)
(1.02584 -0.0774393 0)
(1.04371 0.00521486 2.37914e-21)
(1.07186 -0.0342794 -1.63074e-20)
(1.14845 -0.19993 0)
(1.0795 0.00438116 0)
(1.04929 -0.0277377 0)
(-0.111362 -0.0235603 0)
(1.00026 -0.00392337 2.43384e-21)
(1.09604 -0.0479734 3.03273e-20)
(1.08969 0.0765902 3.4973e-20)
(1.03779 -0.0804585 6.73517e-21)
(0.999938 -0.00613989 0)
(1.0238 -0.0769805 0)
(-0.0148729 0.0387191 0)
(1.01432 -0.01078 -8.15497e-22)
(0.997846 -0.00149047 9.28229e-21)
(1.01637 -0.0129456 -2.17916e-21)
(1.02666 0.209823 6.89382e-20)
(0.649875 0.205577 -8.35306e-20)
(1.00099 -0.00685281 2.20063e-21)
(1.01349 -0.0454996 0)
(1.00687 -0.0078533 0)
(0.781857 -0.027148 0)
(1.00158 -0.0322477 0)
(-0.243013 0.0056261 -1.24268e-20)
(1.2208 0.0684177 -3.42623e-20)
(0.97996 -0.0179562 0)
(1.03143 0.00028368 6.1095e-21)
(1.07454 -0.0120175 -1.98647e-20)
(0.319302 -0.119953 -1.08906e-19)
(-0.316682 -0.0116733 -4.57354e-20)
(0.903947 -0.0523426 -3.21765e-20)
(1.00021 -0.00404935 0)
(0.127607 0.362808 7.15437e-22)
(0.658111 0.0427678 9.78121e-23)
(1.04161 -0.0806902 3.19613e-21)
(0.997191 -0.00207672 -3.87141e-21)
(1.23608 0.145732 -8.1736e-21)
(1.00336 -0.0171068 2.29463e-21)
(0.928809 -0.00941604 6.08062e-20)
(0.0226389 0.0658108 0)
(1.14772 -0.151106 -7.19557e-20)
(0.927483 -0.159133 0)
(0.868776 -0.00840901 -8.31077e-20)
(1.05027 -0.0266074 9.6989e-21)
(1.00098 -0.0321291 0)
(1.02496 -0.00465168 3.02273e-21)
(0.193113 0.115846 -2.15069e-21)
(1.00825 -0.00944317 -5.26261e-22)
(0.102347 0.182555 1.32237e-21)
(1.04389 0.00637651 0)
(1.03669 -0.00109149 0)
(0.499706 1.10373 8.20633e-20)
(-0.0599827 -0.0148574 0)
(1.28352 0.0258564 -9.82186e-20)
(-0.0874747 -0.000341084 6.25947e-20)
(-0.289967 -0.0146812 -1.36843e-19)
(0.224718 0.124875 0)
(1.04103 -0.00681067 -4.77567e-21)
(-0.0333328 -0.0137167 0)
(1.23799 0.143603 0)
(-0.00532847 0.111644 -1.7981e-20)
(1.05254 0.00604686 1.42827e-20)
(0.999327 -0.00822569 4.68374e-21)
(1.0142 -0.0122203 -2.94e-21)
(0.900744 -0.036207 1.89175e-20)
(1.02359 -0.0489949 -4.90293e-21)
(1.1396 -0.134356 1.23073e-20)
(0.985124 -0.067138 1.15886e-20)
(1.08653 0.075871 -1.67224e-20)
(0.997895 -0.00145367 -6.88202e-21)
(1.00712 -0.00446762 -1.33923e-21)
(0.683629 0.0800688 2.30226e-20)
(1.083 -0.0347785 9.7088e-21)
(0.671045 0.0510418 0)
(1.11458 0.0247555 -2.68149e-20)
(0.999075 -0.00848925 0)
(1.0244 -0.00528096 -5.96434e-21)
(1.00497 -0.00592167 0)
(0.0219977 0.0802157 -1.51067e-20)
(0.00362031 0.0865233 -7.22726e-21)
(0.999961 -0.0054739 1.54837e-21)
(1.01253 -0.00924902 0)
(0.993049 -0.00480829 5.28374e-21)
(0.999903 -0.000427807 0)
(1.04749 -0.308858 -1.95031e-20)
(1.00007 -0.000676213 0)
(0.152658 -0.0336757 0)
(0.392995 -0.706625 1.82517e-20)
(1.00625 -0.00599091 0)
(1.00281 -0.0172329 -1.59966e-21)
(1.32893 0.077379 8.54119e-20)
(-0.139178 -0.0203848 0)
(0.617889 0.918609 8.06946e-21)
(-0.00479376 0.106858 3.52351e-20)
(1.00002 -0.0015935 3.73062e-21)
(1.11414 0.0262303 2.8316e-20)
(1.28296 0.0290665 1.79897e-19)
(1.03693 -0.00165328 8.84667e-22)
(-0.0187949 0.0870522 4.39598e-20)
(1.14209 0.225365 3.97082e-20)
(1.08506 -0.0116242 1.64827e-20)
(1.03871 -0.0712947 7.30598e-21)
(0.986677 -0.0106185 4.83462e-21)
(0.99683 -0.00248437 0)
(1.00002 -0.000145343 5.04609e-22)
(-0.148444 0.0369638 0)
(0.98762 -0.0107378 -3.60562e-21)
(1.01952 -0.000428069 0)
(1.08592 -0.017772 6.08967e-21)
(1.02366 -0.00936846 -1.65098e-21)
(0.11066 0.0803125 0)
(1.21867 0.139669 1.37579e-19)
(0.999951 -0.00175205 -3.14385e-21)
(0.998031 -0.0011831 6.98596e-21)
(-0.191319 -0.0135774 -4.59209e-20)
(1.01173 -0.0110757 0)
(1.01095 -0.0106642 0)
(1.01904 -0.0422077 1.86225e-21)
(1.29096 -0.0528508 1.30812e-19)
(-0.0467832 -0.0156337 -1.95301e-20)
(1.00009 -0.000952431 0)
(0.944552 0.0187359 0)
(1.05382 0.00349309 -7.81883e-21)
(1.03657 -0.00308695 -1.82329e-20)
(-0.0743689 0.017161 6.66171e-20)
(-0.060923 0.0246741 0)
(0.978192 -0.0416724 3.98908e-21)
(0.87724 -0.033027 9.95253e-20)
(-0.142944 0.028702 -1.71904e-19)
(0.916714 -0.176268 0)
(1.04801 0.094971 1.32081e-19)
(1.07496 -0.0173077 9.81952e-21)
(1.0934 -0.0398545 3.90992e-21)
(1.14114 -0.208299 0)
(0.962071 -0.432261 -4.95425e-21)
(1.01832 0.000149248 3.19529e-21)
(0.998656 -0.0057227 -7.07331e-21)
(1.04871 -0.0300022 2.18696e-22)
(0.994052 -0.0138398 0)
(0.291185 0.00108263 0)
(1.00283 -0.0805439 1.74638e-21)
(0.410128 -0.411242 4.51938e-20)
(0.999935 -0.000804042 -3.5677e-21)
(1.25686 -0.24027 0)
(0.996186 -0.0195023 0)
(6.00758e-05 0.0881857 7.00592e-21)
(-0.350743 -0.00988131 -4.81059e-21)
(0.908423 0.000226148 1.94611e-20)
(0.376231 0.0593758 8.54926e-20)
(0.925172 -0.167891 0)
(1.04971 -0.0292903 0)
(1.09809 0.0375541 -3.10904e-20)
(0.106506 0.0767704 0)
(0.948031 0.142304 -1.45289e-19)
(1.00037 -0.000174505 -4.27615e-22)
(0.101441 -0.0312962 5.12121e-20)
(1.11088 0.00905149 0)
(1.02249 -0.00746213 0)
(0.417548 -0.026527 0)
(-0.212183 -0.0085614 -8.40101e-20)
(1.00156 -0.016921 -3.32348e-21)
(0.276551 0.169332 0)
(-0.0122332 -0.0135134 4.39683e-20)
(0.99962 -0.00679854 -2.08778e-22)
(-0.31549 -0.00685818 -4.26965e-21)
(1.04861 -0.327131 -1.09732e-20)
(1.03605 -0.00389692 1.55811e-20)
(0.770118 -0.0261107 3.27639e-21)
(0.49386 0.157412 -4.53328e-20)
(1.2715 -0.0611102 -2.45767e-20)
(1.1016 0.040892 -1.60531e-20)
(0.13661 0.175735 5.83468e-20)
(0.0736244 0.362738 2.26418e-20)
(1.21939 0.154457 7.53726e-20)
(1.20177 -0.0345868 4.3522e-20)
(1.0232 -0.00881221 4.43826e-21)
(-0.151671 -0.019719 -7.92571e-20)
(0.991879 -0.0172753 -4.96991e-21)
(0.995041 -0.0365817 0)
(0.348589 0.0724341 -1.2282e-19)
(1.06872 0.0934929 -4.92766e-20)
(0.9976 -0.0619448 5.44681e-21)
(0.977962 -0.0417736 -3.65433e-21)
(1.10844 0.0108278 2.70634e-21)
(1.07324 -0.0149108 -9.10909e-21)
(0.971579 -0.000782168 1.42918e-20)
(1.01472 -0.0122601 2.99054e-21)
(1.0164 -0.00152775 0)
(1.02125 -0.23037 7.13259e-21)
(-0.124206 -0.0124043 0)
(1.00476 -0.00546797 8.09269e-23)
(1.11268 0.0788157 2.18415e-20)
(0.999949 -0.000420931 -2.18183e-21)
(-0.286168 0.000292004 -5.9264e-20)
(0.998713 -0.00541957 2.23651e-21)
(1.00297 -0.000281503 2.80771e-22)
(1.12732 0.204616 -2.9012e-20)
(0.592035 0.0208314 -6.83862e-20)
(0.967896 -0.238721 0)
(-0.0111731 0.0747362 0)
(1.0033 -0.00975869 0)
(1.00286 -0.00944025 6.92341e-22)
(-0.0741509 -0.0233169 -7.27887e-20)
(0.702499 -0.179296 -1.22361e-19)
(1.14768 -0.141888 2.69994e-20)
(1.0503 -0.000544279 -1.42241e-20)
(0.59788 -0.32843 0)
(0.504278 -0.0460625 1.24173e-19)
(1.00014 -0.00311964 1.23914e-21)
(0.998776 -0.00173986 4.45225e-24)
(0.99998 -0.00207864 -5.41557e-21)
(1.03411 -0.0570473 1.57012e-21)
(0.214179 0.124673 -3.11348e-20)
(-0.0572973 -0.0233485 -1.98983e-20)
(0.993487 -0.0339585 2.74148e-21)
(1.00362 -0.0570812 0)
(0.622659 0.146052 -1.15223e-21)
(-0.150295 -0.0169489 0)
(-0.304745 -0.0124566 -6.79907e-20)
(1.01969 -0.000307892 2.5184e-21)
(0.964539 -0.0442073 -3.70288e-21)
(0.61183 0.827221 -8.81569e-21)
(0.995544 -0.0357166 -3.08236e-21)
(0.998608 -0.000985026 0)
(1.00061 -0.00687985 0)
(1.01763 -0.00775383 -3.66227e-21)
(1.17535 -0.0693123 0)
(0.472035 -0.246236 1.16676e-19)
(0.693322 -0.715228 0)
(0.984589 -0.435829 1.62085e-20)
(1.0012 -0.00718796 3.10171e-21)
(1.27286 -0.0286381 4.26773e-20)
(1.00762 -0.0117906 -2.64743e-22)
(1.00003 -0.000354603 -9.5723e-23)
(0.0222874 -0.0178647 7.92518e-20)
(0.919196 -0.727392 2.02972e-20)
(1.02344 -0.222189 4.88465e-21)
(0.511687 0.185179 5.02858e-21)
(-0.0601243 0.0607573 -1.75911e-20)
(0.667605 0.024763 1.15407e-19)
(-0.0804777 -0.0216534 5.20381e-21)
(1.24744 -0.119316 -4.39869e-20)
(-0.00551917 -0.0224334 -1.42148e-19)
(-0.3307 -0.00850116 -7.09906e-20)
(1.09124 0.0880393 2.25887e-20)
(-0.324625 -0.0140096 6.97602e-20)
(0.994537 -0.0167107 1.93265e-21)
(0.672009 0.060518 0)
(1.03933 -0.0518883 6.48146e-21)
(1.05653 0.00615589 -2.27619e-20)
(0.641988 0.122012 1.01352e-21)
(1.12923 0.226914 0)
(0.985087 -0.0618273 8.9842e-21)
(1.28481 -0.178183 0)
(0.90942 0.0664142 2.84864e-20)
(1.1282 0.00889792 -3.43303e-20)
(0.999838 -0.000873809 1.17072e-20)
(0.980496 -0.00824801 -8.66659e-23)
(0.885537 -0.665623 -7.29081e-21)
(-0.0370457 -0.0159094 0)
(0.0176216 0.0828612 -9.86146e-20)
(1.02105 -0.00126926 2.44915e-21)
(1.28307 -0.175395 0)
(-0.0966376 -0.0300182 7.9166e-23)
(0.960116 -0.00819068 0)
(1.05445 0.00295337 1.66691e-20)
(0.992701 -0.00471845 -2.94806e-21)
(0.919992 -0.0224681 -2.07868e-20)
(0.699524 -0.33102 -6.10398e-20)
(-0.159297 -0.0169058 1.65126e-19)
(1.00019 -0.00068587 -6.21181e-22)
(0.0231974 -0.0219635 0)
(0.998781 -0.0046437 0)
(0.172289 0.170954 -5.29105e-20)
(1.07034 -0.0632573 -9.91959e-21)
(1.01482 -0.0428398 -7.66695e-22)
(1.07152 -0.0792255 -1.43248e-20)
(-0.169577 -0.0153871 -1.26136e-19)
(1.03189 0.000879572 -3.19469e-21)
(1.00229 -0.00487022 0)
(-0.102034 -0.0126018 8.75857e-20)
(-0.0193604 -0.0226192 1.69571e-20)
(1.16171 -0.203932 -6.62346e-20)
(0.756749 0.092521 1.09777e-19)
(1.04965 -0.00155333 1.50607e-20)
(1.00086 -0.00631677 0)
(0.999235 -0.000719676 -1.4008e-21)
(-0.0243884 0.123003 -6.02631e-21)
(0.715843 -0.244954 1.30797e-20)
(-0.0157395 0.0746275 0)
(1.09536 -0.0728572 -2.46949e-20)
(0.648224 -0.757824 0)
(-0.0552117 0.0162748 -4.01203e-20)
(1.10869 0.0361583 -4.0027e-20)
(-0.180967 -0.010522 8.74178e-23)
(0.963473 -0.0433473 3.73574e-21)
(-0.228965 -0.0113667 1.81987e-20)
(1.01759 -0.00666932 0)
(0.505409 -0.0127792 0)
(0.0408845 -0.0193354 3.47587e-20)
(0.687083 -0.19639 1.36198e-19)
(1.07609 -0.00984019 1.98227e-20)
(0.212448 0.121066 0)
(-0.208485 -0.0112134 1.72465e-19)
(1.00211 -0.00582465 0)
(0.389181 -0.144183 -8.79396e-20)
(0.990624 -0.0180385 3.99625e-22)
(1.00011 -0.000563781 -7.71829e-22)
(-0.307133 -0.0134491 -3.87354e-20)
(-0.134561 -0.0184588 0)
(0.999958 -0.00206908 6.50419e-21)
(0.99966 -0.00643833 0)
(1.01444 -0.00112532 -2.53366e-21)
(0.122984 -0.437063 -7.18344e-20)
(-0.0151945 -0.0135248 7.55911e-20)
(1.00239 -0.0052623 0)
(1.29253 0.0176974 -6.97602e-20)
(1.03919 -0.0751482 -1.00782e-20)
(1.0436 0.00386786 0)
(1.00318 -0.00909783 -5.10696e-22)
(1.18465 -0.12991 4.26347e-20)
(1.27642 -0.0196816 -3.16586e-20)
(1.08002 -0.0435776 -2.43525e-20)
(0.462625 -0.124287 -4.48195e-20)
(1.00005 -0.00579173 -3.10532e-21)
(1.0073 -0.00458813 1.27267e-21)
(0.585976 0.197659 0)
(-0.341092 -0.0102661 0)
(1.24834 0.134621 -1.45459e-20)
(-0.339144 -0.00875796 -1.84256e-20)
(0.153254 -0.0695714 -6.67832e-20)
(0.967986 -0.00638174 -2.35365e-20)
(-0.096817 -0.0298027 5.02905e-20)
(0.460144 -0.112272 -4.43589e-20)
(0.937234 -0.0409394 2.52731e-20)
(0.372097 -0.596211 -3.98829e-20)
(1.0418 -0.271845 0)
(1.06542 -0.064297 0)
(1.07582 -0.169743 -1.23442e-20)
(0.114631 0.0807017 0)
(0.904404 0.0122113 0)
(1.19577 -0.0381401 -4.2367e-20)
(1.03033 -0.0561004 1.26757e-21)
(1.08757 -0.0949966 -1.06877e-21)
(-0.108519 -0.0278551 -5.14879e-20)
(1.00216 -0.00553954 -9.33949e-22)
(0.420853 0.172149 7.26513e-20)
(1.17814 -0.0760335 -1.95279e-20)
(0.888881 -0.232621 -2.9051e-20)
(0.948239 -0.177424 -1.61576e-20)
(1.02326 -0.00871132 0)
(1.05229 8.50954e-05 -3.7198e-21)
(-0.00329016 0.0227944 3.16776e-20)
(1.00209 -0.00476441 -7.603e-22)
(0.998791 -0.00444236 -2.31309e-21)
(1.21598 0.0112948 -5.40273e-20)
(1.02094 -0.00796212 -2.56188e-21)
(1.15593 -0.137875 -3.0461e-20)
(1.04402 0.00454992 -2.69446e-21)
(1.22923 0.0611104 1.82343e-20)
(0.975992 -0.0282941 6.05018e-21)
(1.09896 -0.0681609 -4.03733e-20)
(1.02426 -0.00545089 0)
(0.261156 -0.25243 -1.15264e-19)
(-0.341027 -0.0108767 0)
(0.0807602 0.513459 -1.64312e-19)
(1.03176 -0.0563096 0)
(-0.316959 -0.0151469 0)
(-0.0787003 -0.022472 4.24467e-20)
(0.522394 -0.00250756 0)
(1.03636 0.000667917 0)
(-0.00638705 -0.0158579 -7.01355e-20)
(0.963215 -0.000584867 2.425e-20)
(-0.155808 0.201032 -1.61757e-21)
(0.995384 -0.00301477 0)
(0.653807 -0.0892459 -9.95969e-20)
(1.05981 -0.034712 0)
(0.00794543 0.0864838 1.28299e-20)
(-0.337268 -0.00949312 -7.44709e-20)
(1.30202 -0.0954389 -1.18449e-19)
(-0.123405 0.0445699 3.85767e-20)
(1.01981 0.000260442 -6.99369e-21)
(-0.303417 -0.00387201 0)
(1.00529 -0.000543087 0)
(0.90465 -0.0656194 -1.03775e-20)
(0.940918 -0.0458343 0)
(0.988435 -0.00951461 7.47753e-21)
(1.0022 -0.000593853 0)
(-0.268295 0.00439796 -2.81902e-20)
(1.11581 0.0716033 2.0858e-20)
(1.04809 -0.0326008 9.36142e-21)
(0.0657284 -0.0213583 7.16123e-20)
(0.126792 -0.0737796 0)
(0.769617 -0.130675 -2.26573e-20)
(1.01992 6.88212e-05 4.24653e-21)
(0.942324 -0.0794036 2.3534e-20)
(1.00011 -0.00111157 0)
(1.012 -0.011521 1.18954e-21)
(1.01747 -0.0073545 0)
(0.993174 -0.0198659 3.2786e-21)
(0.441995 -0.300898 -1.07359e-19)
(1.06856 -0.0809625 1.05174e-20)
(0.506176 -0.0115578 -1.35724e-19)
(-0.208177 -0.013209 4.86421e-20)
(-0.294337 -0.000656359 -3.66326e-20)
(-0.229376 -0.0127512 -1.1756e-19)
(0.735576 -0.422901 -3.54878e-21)
(0.904968 0.0119777 -1.1675e-20)
(0.998875 -0.00130723 4.05129e-21)
(0.961538 -0.0270875 -5.63674e-20)
(1.00832 -0.00905317 -6.40963e-22)
(-0.262722 0.00591885 -1.23057e-19)
(0.0432972 0.0493566 2.7157e-20)
(1.0218 -0.00768664 0)
(1.09124 -0.110018 -1.37066e-21)
(0.164152 0.107013 0)
(0.0244943 0.0577869 -5.24977e-20)
(0.520457 0.18771 -4.82462e-20)
(1.10241 -0.0648767 1.18491e-20)
(0.910277 0.0196133 0)
(1.02039 -0.0179958 -3.49341e-21)
(0.124914 0.111646 3.06994e-20)
(-0.294409 -0.00211543 0)
(0.824437 0.0226247 4.69905e-20)
(1.03953 -0.257348 1.0409e-20)
(1.32156 -0.0686714 -1.45546e-19)
(-0.346824 -0.0107016 0)
(1.02531 -0.267701 -1.26263e-20)
(0.0606234 0.0968267 4.35744e-20)
(0.897464 -0.35686 1.16492e-21)
(0.76272 -0.428821 -2.34473e-20)
(1.00311 -0.00983758 6.73982e-22)
(-0.329457 -0.0142355 -8.91134e-20)
(1.1181 0.0822675 7.77608e-21)
(1.11529 0.0653176 -6.25308e-20)
(-0.106498 0.0491591 0)
(1.01462 -0.0167604 -2.13135e-21)
(1.11634 0.112938 0)
(0.704672 -0.210297 0)
(1.01527 -0.0166404 2.54155e-21)
(1.18478 0.164642 3.84046e-20)
(0.900642 0.134547 1.09551e-19)
(0.0753603 0.0999937 -4.31058e-21)
(0.0442133 -0.0139298 1.10931e-19)
(0.857662 0.0170679 -2.54214e-20)
(1.0951 -0.0583389 0)
(1.00198 -0.000722041 0)
(0.605142 -0.30862 0)
(1.03842 -0.586355 2.43001e-20)
(0.934697 -0.0834112 -7.22685e-21)
(-0.0241067 -0.0130517 -1.00011e-19)
(1.00199 -0.0222796 2.17671e-21)
(-0.0139926 0.0189405 7.59561e-20)
(-0.0513555 -0.0229521 0)
(1.08225 -0.00606324 2.49583e-21)
(0.976653 -0.0775384 0)
(0.99997 -0.000887479 0)
(0.866798 -0.124922 1.93123e-20)
(1.00013 -0.00142678 -6.1418e-22)
(0.232846 -0.086761 9.24319e-20)
(1.15181 0.0982265 0)
(0.0762889 0.00681049 1.87041e-19)
(1.01388 -0.010393 1.35403e-21)
(1.01535 -0.0161026 0)
(1.01981 -0.0183266 -3.42648e-21)
(0.551339 -0.196553 -4.95252e-20)
(0.0778009 0.0358911 1.21787e-19)
(0.847467 0.0262338 -2.27841e-20)
(0.190382 -0.0882769 9.59449e-20)
(1.10621 0.0735868 0)
(1.10571 -0.0480644 1.01321e-19)
(0.995666 -0.00301597 0)
(1.00084 -0.000445645 1.18289e-23)
(1.23055 -0.299395 -4.33042e-20)
(0.996825 -0.0645294 -2.36569e-21)
(1.16963 0.202466 0)
(0.0629563 -0.393123 0)
(0.776678 -0.223731 1.56927e-21)
(1.31071 -0.0522634 0)
(1.03978 -0.0322958 -2.57595e-21)
(-0.285796 -0.00332766 -1.44176e-20)
(0.411754 0.167802 5.37543e-21)
(0.601355 0.356563 -5.40615e-21)
(1.05993 0.00276494 -1.68099e-20)
(1.01148 -0.00143124 -2.67018e-23)
(1.04942 -0.0353787 -8.86823e-21)
(0.999253 -0.00351325 0)
(1.28231 0.0550632 1.06653e-19)
(0.984111 -0.080881 0)
(1.02327 -0.0111642 1.01234e-20)
(1.17732 0.169376 0)
(0.950155 -0.0270861 1.60268e-20)
(-0.0262091 0.115737 -1.71198e-20)
(0.999948 -0.390734 -2.2836e-20)
(0.917509 -0.171825 -2.26863e-20)
(1.0059 -0.00604256 -5.50671e-22)
(0.130605 0.089683 -2.34914e-21)
(1.0325 -0.000764428 1.22096e-20)
(1.08374 -0.00849719 -1.13359e-22)
(0.172271 0.110014 -6.03121e-21)
(0.629844 -0.119727 0)
(1.00271 -0.00973735 0)
(0.991948 -0.410507 -1.98734e-21)
(-0.00586496 0.051349 -1.98637e-20)
(1.0291 -0.0149585 -6.03866e-21)
(1.00051 -0.00623369 0)
(0.995802 -0.0163997 0)
(0.757357 -0.119202 -3.21385e-20)
(0.00982292 0.0828305 -2.54028e-20)
(1.00232 -0.00523096 1.91609e-22)
(-0.0349165 0.0149555 -7.59051e-20)
(1.00007 -0.000815838 0)
(-0.141682 -0.0223239 0)
(0.173535 -0.0495591 -1.29777e-19)
(-0.0140872 0.0778306 0)
(0.0654619 0.066849 -8.52316e-21)
(0.971393 -0.242043 0)
(1.0977 -0.0540863 2.00686e-20)
(0.350981 -0.0975056 -5.96114e-20)
(1.00478 -0.000615863 -1.4065e-21)
(0.923397 0.0954345 1.02543e-19)
(1.02857 -0.0156779 0)
(1.00939 -0.00399581 -3.2106e-22)
(1.02172 -0.0021038 0)
(1.03928 -0.0184771 -1.74351e-20)
(0.159198 0.153736 -5.93748e-21)
(1.02443 -0.0237495 -2.46247e-21)
(1.00198 -0.00440174 7.23829e-22)
(1.0127 -0.0448967 -4.0345e-22)
(1.02362 -0.0108358 -3.8257e-21)
(0.922255 -0.584742 1.80915e-20)
(0.966315 -0.0498881 8.77929e-22)
(-0.177783 -0.0147377 7.10624e-20)
(1.00334 -0.00910789 5.03776e-22)
(0.999358 -0.00315756 4.31876e-21)
(1.00229 -0.00593235 0)
(0.390579 0.164415 0)
(-0.359226 -0.0127301 1.58568e-19)
(-0.403204 -0.142789 7.93246e-20)
(0.445974 -0.376674 -1.12121e-19)
(1.0091 -0.00358875 -3.8794e-22)
(-0.0826373 0.0543402 -6.7846e-20)
(-0.147771 -0.0176718 -2.24714e-20)
(1.03398 -0.0544522 2.05344e-21)
(0.999577 -0.0133983 -4.04938e-21)
(-0.139698 0.0146817 0)
(-0.267164 0.00312051 4.70389e-20)
(1.06144 -0.0659319 8.06694e-21)
(1.19285 0.0956734 2.93423e-20)
(0.597609 0.170059 5.73377e-20)
(1.03074 -0.236447 0)
(1.03693 0.000142353 -1.20545e-21)
(1.14636 0.0323224 3.93571e-21)
(1.08658 -0.0944827 2.60042e-21)
(1.14485 0.0336784 -3.19156e-21)
(0.0414751 0.063645 9.44965e-21)
(0.083499 -0.0377216 -4.61098e-20)
(1.02479 -0.00407287 -5.41869e-23)
(-0.253054 0.00429546 2.26003e-22)
(1.01609 -0.0160627 -2.23257e-21)
(1.28986 -0.205701 0)
(1.11198 0.0658909 -3.7634e-21)
(1.13934 -0.127014 0)
(0.987667 -0.00950431 4.17191e-21)
(-0.347876 -0.0110685 0)
(-0.0204406 0.0209801 4.61775e-20)
(1.02821 0.12418 7.94734e-20)
(0.999088 -0.000621102 7.11334e-21)
(1.08753 0.0712324 3.15944e-20)
(1.02351 -0.00825366 0)
(-0.302652 -0.00284807 7.7874e-20)
(1.00196 -0.00543454 -1.27036e-21)
(1.09834 0.0325077 2.09322e-20)
(1.05328 -0.023437 -1.0971e-20)
(1.00807 -0.0111867 -3.85545e-22)
(0.766369 -0.253395 -1.74264e-21)
(1.00255 -0.0779841 -4.94724e-21)
(0.997392 -0.00439228 8.69407e-21)
(0.254003 0.112403 1.82123e-19)
(1.00114 -0.00516242 1.13985e-21)
(0.0126858 -0.0200325 -1.75288e-20)
(1.09524 -0.043076 -4.00438e-20)
(1.12497 -0.44086 -6.53767e-20)
(0.997487 -0.0280893 8.14375e-21)
(1.21108 0.140989 -1.43159e-19)
(0.927029 -0.293577 0)
(0.993795 -0.0344736 -2.93777e-21)
(-0.141116 -0.0217778 0)
(1.28256 -0.168788 -7.81028e-20)
(0.525786 0.158927 -1.40395e-20)
(0.998942 -0.00147583 0)
(0.920686 -0.00889843 0)
(1.24669 -0.109687 -2.07119e-20)
(0.391728 0.0390451 1.78977e-20)
(0.999383 -0.0138023 4.60686e-21)
(1.0043 -0.052876 7.82396e-22)
(1.06489 0.000898406 1.28617e-20)
(0.377748 0.164025 -9.83103e-20)
(1.01968 -0.0028877 -6.24963e-21)
(1.20445 -0.00276633 4.56955e-20)
(1.28243 0.0539172 6.76407e-20)
(0.967333 -0.0507027 3.40084e-21)
(1.01969 -0.000834288 0)
(1.0007 -0.000347537 2.73545e-23)
(1.00644 -0.00685347 -3.78105e-23)
(1.10948 -0.155334 3.17838e-20)
(1.02155 -0.00799558 5.34358e-21)
(0.915023 -0.521413 -1.08117e-20)
(1.11842 -0.0348458 -7.90863e-24)
(1.02435 -0.00399938 -4.58342e-23)
(1.01915 -0.0754151 6.22363e-21)
(-0.305752 -0.0151603 0)
(1.00411 -0.0173104 0)
(1.066 -0.0468621 -1.58246e-20)
(1.01123 -0.01102 -8.00016e-22)
(1.00178 -0.00558284 1.16953e-21)
(1.17044 -0.0848729 -6.51605e-20)
(1.20087 0.143761 6.01321e-20)
(0.0585743 -0.464682 7.16001e-20)
(1.1255 0.200792 -4.83992e-20)
(1.06008 -0.00815042 -1.05535e-20)
(1.04089 -0.0311828 7.75861e-21)
(-0.181062 -0.014197 1.44419e-19)
(0.125354 -0.0856126 9.1178e-20)
(0.562683 -0.0152574 1.78868e-19)
(-0.334836 -0.0152843 0)
(0.693541 -0.253725 -1.37114e-19)
(1.24745 0.134324 -8.44213e-21)
(1.00321 -0.00852283 0)
(1.08708 -0.107071 -1.88638e-20)
(-0.194678 -0.013131 0)
(-0.335082 -0.0112016 0)
(-0.196762 -0.00694992 -4.79551e-20)
(1.00102 -0.00475854 -1.57848e-21)
(0.933272 -0.311034 9.17269e-21)
(1.03433 -0.228848 0)
(-0.273434 -0.00279476 1.65917e-19)
(-0.22109 -0.0150028 5.19126e-20)
(0.997374 -0.00944443 -3.05673e-21)
(0.663279 0.135016 0)
(0.917135 -0.0142256 -2.05417e-20)
(0.114481 0.203781 6.10452e-22)
(-0.284942 -0.0161269 0)
(0.157872 0.531365 2.1711e-19)
(1.01298 -0.00983319 1.21661e-21)
(1.28807 -0.111022 2.67402e-20)
(1.00002 -0.00018336 5.73369e-24)
(1.03637 0.00176662 0)
(-0.00322856 -0.013468 9.64001e-20)
(0.999998 -2.52066e-05 0)
(1.05368 -0.000451479 -1.79102e-20)