/*--------------------------------*- C++ -*----------------------------------*\
| =========                 |                                                 |
| \\      /  F ield         | OpenFOAM: The Open Source CFD Toolbox           |
|  \\    /   O peration     | Version:  v2012                                 |
|   \\  /    A nd           | Website:  www.openfoam.com                      |
|    \\/     M anipulation  |                                                 |
\*---------------------------------------------------------------------------*/
FoamFile
{
    version     2.0;
    format      ascii;
    class       volScalarField;
    location    "250";
    object      ddt0(k);
}
// * * * * * * * * * * * * * * * * * * * * * * * * * * * * * * * * * * * * * //

dimensions      [0 2 -3 0 0 0 0];


internalField   nonuniform List<scalar> 
33474
(
9.1278e-08
2.52789e-09
-0.000206033
-3.02678e-08
1.0135e-07
-0.000329237
-1.20272e-09
-4.46695e-08
-1.08605e-08
2.02681e-08
-4.53471e-08
-7.08447e-09
-1.42547e-08
3.35693e-08
4.02609e-07
-4.40987e-06
1.6319e-08
-1.33977e-05
-0.00250298
-1.05357e-08
-2.1323e-08
3.43685e-08
9.09709e-09
0.000278549
1.27397e-05
3.78338e-08
-1.60403e-08
0.00065366
-0.000254246
-7.76735e-09
-3.73447e-08
-3.40753e-08
0.0013243
-2.19765e-08
-3.91042e-05
7.65807e-06
6.6205e-08
2.79645e-08
-5.20319e-08
7.2914e-06
5.74458e-09
-0.000814416
3.67071e-05
-5.78183e-09
-0.000223124
0.0805168
-2.11508e-09
6.37215e-06
5.59757e-09
-6.03458e-09
-3.42831e-08
-8.45001e-08
3.06155e-05
-0.00151624
7.53998e-08
4.46175e-05
-4.05954e-08
-4.66394e-08
-0.000302215
0.000403705
4.91586e-09
2.19174e-08
-0.000251038
1.88773e-08
6.30416e-08
-4.7007e-08
0.00885311
-0.000226003
1.4108e-08
-0.00100013
4.43971e-09
-7.80063e-08
-2.94392e-09
-1.71446e-08
-1.6152e-08
2.25498e-08
-3.53274e-08
-3.77915e-09
1.01167e-07
1.72527e-10
-0.000445901
-2.46083e-08
-0.00115914
6.32982e-09
2.57361e-08
-0.000241707
5.60017e-06
-0.000120983
0.00019609
-1.01309e-09
6.9078e-06
2.59243e-08
-3.27119e-07
1.78534e-09
-3.23233e-08
-6.82058e-08
2.10421e-08
6.46306e-08
2.37413e-10
-5.57815e-05
4.58085e-09
1.02735e-05
0.000883851
5.25899e-08
-7.89406e-06
0.000663639
-0.00118229
-4.42183e-09
6.40143e-09
5.31255e-09
2.31952e-07
2.35102e-08
-0.00153031
-3.14341e-08
3.20587e-06
0.00858392
-3.70264e-08
-4.73536e-08
1.04241e-09
4.3722e-09
4.19667e-09
-3.13822e-08
3.27727e-08
1.40294e-08
-0.000204751
-0.000252998
1.36966e-07
2.01521e-09
-0.00120251
0.000726731
-0.000104267
-0.00058219
0.0977813
-4.97093e-08
2.39176e-09
-2.49827e-08
-7.62123e-09
-6.94152e-08
-3.03673e-08
4.55923e-08
0.000416038
-0.000442892
1.17774e-07
4.97256e-09
-1.36158e-07
2.291e-07
-0.00357312
2.66384e-09
-1.06152e-09
-1.57293e-08
-9.83897e-09
1.48216e-08
-5.92274e-09
-4.80338e-08
-3.14202e-08
-9.52652e-09
-0.000219259
-6.98484e-09
1.48289e-07
-0.000562533
-5.2429e-08
1.36715e-07
-0.00082141
3.56922e-09
0.00103244
-7.45459e-08
-3.02262e-10
-4.1924e-08
-5.43708e-08
6.47098e-09
1.43821e-07
-3.141e-08
1.00075e-08
0.0016204
-1.5444e-08
6.91983e-09
0.000490295
-4.97246e-08
0.000304517
3.74634e-08
1.78918e-08
-3.56347e-09
2.30143e-09
0.00116707
-4.26269e-08
-8.19541e-08
9.4442e-09
-8.71949e-05
-0.000239612
-6.14769e-08
-3.71751e-08
-0.0172272
4.91995e-08
-1.08429e-07
-0.000759114
4.79791e-09
3.47391e-08
3.00519e-08
-0.000603914
4.84355e-08
-2.01034e-08
-0.00279437
-4.84572e-08
-4.66554e-08
3.42193e-08
-9.09237e-09
0.00322235
2.83694e-08
1.25884e-06
-1.3651e-05
-6.84074e-09
-6.65291e-05
-1.283e-05
1.68689e-08
1.29281e-08
0.0121351
-1.38359e-07
0.00112169
-6.14312e-08
-2.60999e-08
-4.50571e-05
-2.99517e-08
1.51419e-08
2.89849e-07
2.2166e-05
1.96848e-08
2.89352e-07
-3.47352e-09
-0.00137956
0.000671832
-1.40093e-08
-0.000375223
-4.71524e-09
-0.00017128
-4.32455e-05
-3.15886e-08
7.44824e-09
-1.08779e-05
4.38888e-08
0.000398579
-2.94638e-06
0.000212881
-9.25557e-09
3.46743e-08
-7.26015e-09
-0.000851504
6.25089e-08
-2.92815e-09
-0.000441474
-1.83564e-08
-0.00253173
-1.88003e-08
-0.000829418
-0.00111578
0.0021898
-1.60792e-09
9.4307e-09
3.53575e-08
0.000681869
-0.000671148
5.4413e-09
2.68139e-08
-1.91387e-09
-1.7673e-08
1.07629e-08
8.28722e-08
0.000364772
-6.05336e-08
-5.73564e-11
1.55094e-08
3.17924e-08
-1.12557e-08
1.22341e-08
2.12276e-08
0.000330552
-7.81351e-08
8.354e-08
0.000477234
-5.19212e-08
-1.21232e-09
-1.20661e-07
-4.55292e-08
4.37277e-09
-1.42266e-08
-1.19426e-08
7.26592e-09
-1.20886e-08
-0.00229405
8.83736e-10
1.59413e-09
0.000168118
6.29646e-09
-7.15997e-09
0.000316669
-0.00117019
-0.000216304
-3.98698e-08
6.83806e-06
-0.000329105
1.42001e-06
0.0030754
-0.000233404
0.000347243
-8.78679e-07
-0.0029125
2.11977e-08
4.83702e-08
0.000332299
0.00113815
2.61214e-08
5.53733e-08
-5.17719e-08
-9.2543e-10
-5.12728e-08
1.29887e-08
0.0148952
-1.11183e-08
0.000821354
-7.8876e-09
-0.0002384
-1.75388e-08
2.52586e-08
-5.14091e-08
-1.45001e-08
-3.53143e-08
1.90784e-06
-3.71591e-08
-5.04538e-11
-1.05341e-08
2.38359e-08
0.0169574
-1.32852e-08
-6.88598e-09
5.23013e-08
8.98641e-10
-0.000144378
-1.66286e-06
5.76894e-10
0.00670422
0.000333733
6.22056e-10
2.76104e-05
-8.58804e-08
-3.56697e-08
-7.07353e-09
-0.000834176
2.6937e-08
2.24436e-09
-8.54426e-08
1.29085e-08
4.87994e-08
-0.0011196
-1.95547e-09
-0.00114947
1.67933e-05
0.000173425
-0.0081389
-0.00118166
-1.48198e-08
-7.53043e-08
2.50973e-06
-4.51696e-09
-0.000166159
7.12813e-09
-2.21123e-08
0.000734648
-1.5936e-09
1.14783e-08
-6.57576e-10
3.26225e-05
2.86301e-08
-4.4384e-09
-8.33116e-05
-1.0582e-08
4.68478e-08
-0.000673838
-0.00118909
-3.85457e-09
-0.00245143
8.42209e-09
-0.000215452
-0.00250668
5.05358e-08
1.17704e-09
1.08061e-08
0.000146448
-4.47758e-08
3.86701e-08
-3.62262e-09
0.000408291
0.00068287
6.09166e-09
2.08456e-08
3.30552e-05
-1.89598e-08
-8.01316e-08
-6.58928e-09
1.75067e-07
-2.54362e-08
7.64782e-09
0.000171173
-0.00124212
3.3584e-09
1.00653e-07
1.04818e-09
-7.85416e-09
-0.00117022
-2.04311e-05
3.07062e-08
-4.47585e-09
-4.35193e-08
-0.000279533
1.05972e-10
-0.000825709
-3.54255e-09
1.9265e-08
-1.0458e-08
-0.000491791
3.31673e-08
0.000209319
-3.15883e-08
0.000634227
-0.000366813
2.04086e-08
6.73869e-05
2.20353e-08
-0.00055925
0.000379577
-9.01261e-06
0.000219762
4.23944e-08
-0.000435641
0.000466313
7.31261e-08
7.19601e-09
-6.85497e-08
-2.42037e-08
2.64685e-08
-1.82906e-09
1.68698e-08
-7.12693e-08
-4.34536e-09
-1.49261e-08
-7.18361e-08
0.000722014
-0.000929254
1.71339e-08
-8.74426e-09
4.07199e-08
7.70192e-09
-1.1209e-07
0.000128745
-1.22108e-08
1.50088e-08
-0.000445298
5.14972e-09
3.19443e-08
-4.83937e-08
-0.00227704
4.87762e-07
0.000626456
-0.00045131
-0.00258842
-0.00104926
1.1065e-05
0.000452964
-1.2981e-08
0.000640183
-3.93169e-08
-5.25371e-08
-0.00112322
-3.49616e-08
0.000201544
-0.000388455
0.00141198
1.02914e-05
-5.65029e-08
3.3306e-09
-6.17998e-08
5.0767e-09
-0.00076807
-2.16568e-08
0.000301692
0.00970143
-4.97844e-09
0.000481533
0.000729757
-5.1007e-09
0.000404991
-1.40442e-08
-4.42724e-08
-4.64283e-08
0.0142439
-3.39686e-09
7.97987e-08
2.13453e-08
3.50803e-08
-1.63649e-08
-0.00069662
4.2915e-08
0.000118869
2.65243e-09
2.68655e-09
0.00154465
3.88864e-07
-2.31419e-07
-0.000741028
-3.07917e-08
-0.00112877
-0.00113927
0.000239694
-2.93646e-06
8.40501e-09
-1.53297e-09
-3.22955e-08
0.000423773
-3.97105e-08
0.000109883
0.000135173
-2.88333e-08
2.11923e-08
7.31657e-09
0.0015125
-1.19332e-07
-2.50726e-06
2.56431e-06
0.000257528
-0.00016893
-0.00314786
6.01929e-08
-6.68132e-09
-4.44805e-06
3.48884e-09
0.10117
-1.01748e-08
-0.00250741
4.66127e-08
0.000105784
0.00275466
-5.75946e-08
-0.000885888
3.22439e-05
5.74893e-08
-2.95023e-08
3.73843e-08
-0.000262114
-0.00110264
-2.3144e-08
0.000725571
0.00191115
6.67116e-10
2.52559e-07
1.18532e-07
0.0107444
-1.07978e-07
-1.83168e-08
-3.2748e-08
-2.47141e-08
-2.27229e-08
-0.000408866
-1.94179e-08
-8.13076e-08
-1.22553e-09
-1.18933e-08
-2.95652e-08
3.9291e-09
0.000518893
-3.87971e-08
0.000615801
1.32972e-05
-2.22043e-08
-1.70887e-08
1.86041e-06
2.89377e-08
0.00137947
2.41129e-08
-1.95351e-08
-0.000190937
-1.49416e-08
-1.7764e-08
-8.70185e-09
-0.000939478
0.00122961
-0.00123121
1.23733e-08
3.0074e-08
-0.000428581
-0.00139721
4.01994e-09
-8.04244e-08
-6.87291e-08
4.45946e-08
-0.00231833
-2.48984e-08
-1.85103e-09
-4.24712e-08
-4.0305e-09
5.61061e-08
-0.000336792
-2.07395e-08
-0.00087029
-1.52636e-08
6.56113e-08
2.054e-08
-0.00037466
-1.5461e-08
-3.18403e-07
-1.4056e-08
-3.75598e-06
1.61373e-08
2.63828e-08
-1.12385e-08
-6.20763e-07
8.94305e-11
-4.12354e-08
0.000631228
0.000250598
1.08236e-07
-3.18623e-08
-8.0079e-09
-2.70389e-08
-0.000777904
1.06306e-05
-0.00319188
-0.00259437
-2.41882e-09
-1.57848e-08
-2.79805e-09
7.23973e-08
3.07272e-08
4.94037e-09
-0.000111128
-2.94909e-08
-4.8761e-07
-0.000561504
0.000811811
7.91337e-09
-0.00704982
-0.000345425
0.00199754
0.00129828
-1.43902e-09
-7.30864e-08
1.02007e-05
0.00111559
1.40533e-05
0.000709886
8.31895e-09
-4.32618e-05
-1.20597e-09
-0.000104987
3.3004e-09
-8.37132e-06
6.74301e-06
-7.9462e-08
-1.5279e-10
-2.15227e-08
3.12665e-09
-3.7298e-06
1.38509e-06
-3.59559e-08
1.80449e-09
0.000614962
-1.02237e-09
-0.00242306
-6.30164e-08
-0.000287435
3.12539e-08
0.000984383
-2.32148e-06
0.00136509
-0.00191903
5.61413e-10
-0.00051574
8.96508e-09
-2.8011e-08
-0.000552205
-2.21335e-07
-5.98109e-08
-2.51687e-08
6.69724e-10
-1.7485e-07
-5.21318e-10
-2.83671e-08
0.00051654
1.70372e-08
2.42561e-08
0.0176803
7.83738e-07
-0.00108292
1.89182e-05
0.00181649
0.00184617
-3.26122e-11
-0.000257395
-1.85845e-08
1.02291e-07
-4.59813e-08
-0.00063132
-4.35364e-08
-7.04073e-05
-2.68958e-11
-0.000477471
-0.00126679
1.09833e-07
-2.4102e-09
-2.92457e-08
6.92065e-09
-0.000444479
-4.58991e-08
5.32751e-08
3.59191e-08
-8.92131e-06
0.00177484
7.32993e-09
-0.00078669
1.50052e-08
-0.0204587
1.2867e-07
-2.19577e-08
4.07503e-08
-1.68283e-08
8.17221e-08
8.05607e-09
5.03685e-09
5.58616e-09
-1.47687e-07
9.80273e-08
0.000905143
-2.61916e-08
-0.000315204
-0.000844377
4.41834e-09
-2.0673e-06
-9.34979e-05
-2.01421e-09
-4.17017e-08
1.0504e-08
6.66754e-08
0.0007182
5.47289e-08
-5.30311e-08
-5.96288e-08
0.00151356
0.0171534
-0.000341133
-0.000436187
-0.000297195
-5.99515e-08
6.63268e-08
-0.00145752
3.85551e-08
2.42701e-07
5.97131e-08
4.36919e-08
-8.31302e-08
-1.84383e-07
-0.000270984
-9.51715e-09
0.00225237
8.65465e-08
5.55365e-08
2.74734e-07
2.73548e-08
8.98903e-09
0.000395155
2.18714e-08
5.26068e-09
3.33473e-09
-0.000434599
-0.00515965
5.99159e-08
-5.10337e-08
0.000656411
-4.50415e-10
0.00119509
-3.69308e-08
0.000952123
-6.54118e-10
-1.84064e-08
-0.0027585
-6.62528e-06
0.0018968
0.0184062
1.02136e-08
-2.31004e-08
3.80977e-08
-6.2799e-08
0.000115921
-3.27022e-08
-4.01485e-06
1.08859e-08
1.67323e-07
-0.000630823
6.41835e-08
-0.000939688
-0.000487826
-0.000217342
-0.000794421
0.00367084
4.17147e-08
-3.08904e-08
3.19093e-09
-2.61248e-05
2.99696e-09
-4.6957e-06
9.96227e-10
4.26424e-08
-0.00394976
0.000237179
-0.00114383
2.6033e-08
-8.49445e-06
-3.75798e-08
1.6988e-08
2.22933e-08
6.44637e-09
3.71144e-06
1.46123e-08
2.28597e-06
-2.88262e-08
1.31484e-08
5.25057e-05
-1.61621e-09
-2.05719e-08
-0.000215235
-0.000139629
-4.78885e-08
-0.00127023
-1.84307e-08
-2.9257e-08
-1.37788e-08
5.13044e-10
-8.38372e-10
3.1377e-08
1.89415e-08
-0.00114651
-0.000254225
-3.23451e-08
-2.15449e-08
0.000226215
7.40742e-06
-5.10344e-08
-3.70956e-08
-2.77729e-08
9.79375e-09
-4.3477e-08
1.1502e-09
3.06485e-08
-4.97563e-08
0.000666116
1.25397e-08
0.000578249
5.63127e-08
4.69759e-09
-7.00879e-09
-0.000704872
5.17222e-08
-2.59939e-09
-0.00388999
1.12449e-08
4.46945e-07
-0.00476676
0.00164291
0.000194973
-0.000260517
-1.33026e-05
-0.000668154
-4.21933e-08
0.000245563
-0.000498588
7.48669e-10
0.000937715
0.000754298
2.43361e-08
-0.000375383
2.45921e-08
-2.60572e-08
0.00145741
-0.000973944
1.02293e-05
7.66513e-05
-0.00122022
1.10405e-08
-6.54731e-08
-5.10035e-08
-1.53075e-10
3.70056e-09
3.54571e-08
-0.00109416
-0.000972013
1.24851e-08
4.05636e-08
0.00110316
1.98825e-08
2.0546e-08
-0.000471058
1.82082e-09
-0.00169582
-7.80443e-08
0.000699387
0.000109373
0.00175876
-1.09323e-08
4.69059e-08
7.48105e-09
-1.44793e-08
3.63925e-06
-1.62311e-07
-2.2137e-06
6.41661e-08
2.47543e-07
8.56405e-09
3.22834e-09
0.0109619
0.000427966
-2.77665e-06
-0.000683252
7.65431e-08
3.7335e-08
1.59488e-08
3.13044e-08
-5.59478e-08
-0.000165469
-0.000382806
0.000595274
-2.65698e-08
0.001175
1.66132e-08
-0.000426994
-7.81592e-06
0.00155938
-7.02941e-08
-7.30378e-06
-0.00291207
0.000186604
5.83622e-09
-0.000525024
0.000564157
-3.48627e-11
3.21545e-08
0.0252061
-1.5385e-08
-0.000817691
-8.89623e-08
-1.99012e-08
3.63938e-08
0.000720654
-2.72955e-05
2.25691e-08
3.55402e-10
-2.64763e-08
3.33889e-05
3.20283e-05
-2.39444e-08
-3.91776e-08
0.000261499
4.80209e-09
1.1147e-08
9.92079e-10
0.000243498
-0.00125452
-0.000171614
-1.10677e-08
1.54463e-08
0.00142397
7.62143e-08
7.10032e-09
-3.92864e-08
4.98612e-08
-1.90725e-09
9.30199e-09
0.0010956
9.2646e-09
-0.000364471
0.000199328
1.64723e-08
-0.00134124
0.00178543
-1.54023e-10
-1.85918e-08
-0.00105769
4.0321e-08
-1.0684e-09
1.0063e-08
-5.83641e-09
-1.54195e-09
2.61483e-08
-2.01283e-10
6.12083e-09
0.00033162
-5.81103e-08
0.00293784
1.46296e-05
9.00698e-09
2.84068e-05
-2.39855e-08
-0.000264226
1.43079e-08
5.51671e-09
2.30767e-06
4.11538e-09
-1.30226e-09
0.0019543
-5.24439e-10
3.56655e-09
0.000801461
1.06958e-07
2.53849e-09
0.00165961
1.25087e-08
-0.000538407
-3.33815e-09
-2.84478e-08
-2.40474e-08
-6.4579e-09
2.90906e-08
0.000924074
-2.90355e-08
-0.00143546
3.91228e-06
-2.93748e-09
-5.95196e-08
-1.74988e-05
-8.2412e-10
-0.000111453
-1.16866e-09
-0.00103155
1.7644e-05
2.7977e-07
-0.00114506
8.46725e-08
1.47614e-08
3.59051e-08
0.00342336
4.65136e-09
-0.000250041
1.24995e-07
-5.80974e-08
6.88369e-08
3.48941e-08
-1.19752e-09
-5.85942e-08
-4.39335e-08
6.19104e-08
-2.76989e-08
6.13772e-08
-1.34812e-09
-2.52319e-08
0.00028266
0.000855549
0.000225583
0.00174221
6.3808e-08
0.00167531
0.000223084
3.83271e-06
1.98753e-08
-0.00136696
2.75718e-08
-1.19629e-08
-2.44037e-08
-5.40367e-09
1.54691e-09
0.000801261
-1.62447e-08
0.00103684
-2.00249e-09
3.7407e-07
-2.163e-08
-1.08547e-10
-0.00101684
6.4824e-09
3.49207e-08
1.04857e-06
-2.31762e-06
-7.27027e-07
-6.22205e-08
-0.000847706
-0.000266111
-2.10497e-08
0.000460502
5.10634e-09
0.000470889
0.000576416
3.44027e-08
-3.70794e-08
3.266e-08
5.4138e-10
-0.00616912
-3.3049e-08
1.76562e-08
-0.00574385
3.18001e-08
6.09006e-07
0.000543671
1.14374e-08
0.00108617
4.62071e-09
1.52162e-08
-9.12133e-08
-1.45824e-08
5.92208e-09
2.19909e-08
-0.000472466
2.04827e-09
4.94487e-08
-2.17318e-08
3.77787e-09
-0.000775628
1.04425e-08
-8.79694e-09
-8.49446e-08
-2.89643e-06
8.93578e-09
-7.24477e-08
4.21926e-10
5.49461e-08
-4.27706e-08
-0.00136152
1.77666e-08
-3.01893e-07
-0.00117854
1.29682e-08
-1.82202e-08
-2.99403e-08
0.000525598
-3.46986e-08
-8.51002e-06
-8.06407e-09
-3.43915e-08
-9.79395e-09
-2.07441e-08
-1.6025e-09
-0.00126628
-0.000114396
0.000825376
-5.94274e-09
-3.25789e-08
-6.84163e-08
3.15118e-08
5.77749e-06
-7.98697e-10
6.97123e-09
2.25081e-08
-0.00610985
-3.81698e-08
-5.35618e-09
2.06259e-08
2.16488e-08
0.0010243
-6.2691e-06
0.00111562
-1.12685e-06
1.31545e-06
-0.00105762
-9.09157e-05
-1.92355e-08
1.06829e-07
5.28789e-09
9.05843e-08
-0.000507797
-0.0226363
-4.74633e-08
-3.79527e-08
0.000657549
1.57178e-10
0.00187359
-9.77851e-09
3.9964e-08
1.23126e-08
-2.18261e-08
-9.9457e-09
-0.0104236
3.03515e-08
-0.00152411
0.000245734
-3.94981e-09
0.00329987
-0.00104859
-1.6347e-08
-1.92257e-08
1.26937e-07
-1.9875e-08
0.00180858
-7.50313e-09
2.07757e-08
-0.000377989
3.28223e-08
0.000230946
1.69431e-05
-0.000154811
1.63452e-07
-7.93448e-09
0.000475908
-1.82984e-08
1.35727e-08
-3.56999e-09
0.00156485
-2.27777e-08
-0.000131333
-0.000437148
-6.31015e-09
-1.67788e-08
2.04934e-08
0.000477993
-1.60617e-08
0.00183267
-0.000224373
4.09524e-09
-1.15343e-08
3.9064e-07
-3.20707e-09
3.97858e-08
-1.1699e-08
3.20968e-08
0.00039771
7.59971e-10
-6.35239e-08
1.5974e-08
2.39116e-06
5.06557e-10
0.000862104
-2.87603e-08
-1.12145e-08
-3.75888e-08
3.18962e-10
9.56026e-09
-5.25984e-09
-3.32367e-08
-0.000784842
4.08906e-09
3.28423e-08
-0.000101888
-4.31115e-08
4.38241e-09
-2.46613e-08
7.29484e-09
-3.37749e-09
-0.000991581
-4.90923e-09
-0.000445772
0.016081
-0.000357526
-0.00042928
-7.13866e-09
2.432e-08
-3.09333e-07
6.42122e-08
-3.54016e-08
6.62706e-09
2.28698e-05
-2.42482e-08
0.000817529
-0.00427886
-2.68848e-08
-7.61788e-09
3.35199e-08
0.00177497
3.48484e-09
6.21658e-07
1.74535e-08
-1.47063e-07
3.33538e-08
-2.05257e-06
1.21425e-05
4.17209e-08
-1.9717e-10
4.55627e-08
0.000509882
-0.000273261
-0.000516666
-2.0056e-06
-3.78739e-08
0.000619259
-2.82736e-08
1.54881e-09
1.65814e-09
-2.09978e-09
0.000198948
-2.86635e-08
-0.00373698
0.00103768
3.23463e-09
-3.47347e-08
-2.53606e-08
-2.57358e-08
2.95981e-09
0.00023742
1.44492e-08
-1.29571e-08
-1.42377e-05
-8.96262e-06
0.00173049
-0.00158788
-0.000125668
1.23707e-08
-0.00102201
6.0208e-09
3.58684e-05
1.81273e-09
-0.000328944
0.000517867
2.85396e-08
4.92475e-09
-0.000677326
-1.81342e-08
-0.000183066
0.00105281
-0.000993661
-0.000907389
-2.40695e-08
1.6386e-05
0.000330912
1.32679e-05
3.24489e-08
-0.00188137
-6.66839e-09
-2.9569e-08
-0.000753322
-0.0008157
-1.33518e-06
-0.000447613
9.81773e-05
1.0601e-09
1.53169e-07
2.57881e-08
-0.000706893
6.0148e-09
1.02905e-09
3.34957e-08
-0.000235494
5.93506e-08
0.000146171
7.34846e-09
1.07914e-08
-0.00172428
0.00187841
1.56265e-08
-6.79553e-08
-2.70788e-08
0.000207604
1.23947e-09
9.19842e-10
-0.00144353
1.51486e-07
-0.000574372
-6.65263e-09
-4.79014e-09
-4.7509e-09
-2.30901e-08
0.000331308
1.86643e-08
0.00060739
-1.96234e-05
6.34286e-09
-1.27158e-08
-0.00101017
5.06138e-08
6.28443e-09
8.01524e-10
-1.00447e-08
-8.42061e-06
-7.84139e-09
2.03656e-06
3.11668e-08
7.17667e-06
6.93778e-09
-2.33452e-08
4.30621e-06
1.88934e-06
-1.33544e-06
-1.29993e-08
-0.000224081
8.82614e-05
-1.78486e-06
8.4416e-08
-3.5003e-08
-1.07726e-08
0.00139775
-4.25835e-08
3.8142e-09
2.66864e-08
1.2829e-08
-1.05645e-07
7.59075e-08
-1.85699e-08
1.62884e-05
-1.12343e-08
0.000349305
-0.00153162
-4.15209e-08
0.000409108
2.15687e-05
0.00115003
-1.16144e-09
-6.97483e-08
-6.37077e-10
-1.14595e-08
2.82471e-08
-6.04647e-08
-9.36675e-09
-1.34346e-08
-2.09251e-08
-1.12261e-08
0.00128875
-5.57397e-09
0.000540594
-9.41866e-07
-0.00124726
-7.22745e-08
1.24843e-09
-3.8383e-08
2.14333e-07
1.33018e-05
-6.66469e-08
-1.19052e-08
0.00124987
1.11676e-05
1.94665e-09
9.92444e-08
2.46917e-05
-0.000170528
4.30809e-08
-0.000684141
0.00089184
8.91373e-08
-1.29645e-08
-0.000101645
4.08115e-08
-1.01999e-08
-1.10903e-09
-4.85044e-09
-2.6352e-08
0.00020079
-0.00247179
-0.00321893
-3.2868e-08
6.79125e-10
-2.6988e-09
-0.00215315
-5.38374e-08
1.96001e-09
1.06684e-08
-0.00103965
-0.00051931
3.62602e-08
2.63262e-06
1.19841e-07
-5.00212e-08
-1.99191e-08
0.000245561
-3.57545e-08
-6.7567e-08
-2.93973e-08
-0.000766017
-5.32286e-08
1.63404e-09
-3.34417e-08
-3.15652e-08
-1.19956e-07
-2.32656e-08
1.39168e-08
-1.9372e-08
-0.000571945
-6.03922e-08
2.48979e-08
2.74129e-09
0.000296855
5.01188e-08
-1.61323e-07
-0.00103049
0.000763985
3.97011e-09
-9.89857e-09
0.00206442
-4.20029e-06
-8.00078e-08
-5.91086e-08
1.03454e-08
1.17694e-08
1.08211e-09
-0.013863
-0.00116469
5.18346e-08
1.87412e-06
-0.000443419
0.00062547
-3.76375e-08
-2.40121e-08
-2.08374e-06
-1.96498e-08
-1.54415e-08
-0.00018302
-8.13324e-09
-6.26286e-09
-2.49379e-08
-0.0010263
0.00070982
0.000806169
-0.000736746
1.85789e-08
0.000470577
-0.000782244
0.000546242
1.34484e-08
1.91813e-08
-1.63764e-07
4.98246e-10
0.000903159
5.34787e-09
3.65692e-09
-4.60767e-08
1.70926e-05
4.83467e-09
-4.42008e-08
-2.76266e-06
-5.358e-08
0.000143066
-4.78151e-07
-2.69052e-08
-3.45904e-06
0.000578911
2.17299e-08
-1.01859e-08
3.01385e-08
-0.00118103
-3.55033e-08
-3.4524e-08
-0.000701652
-0.00102592
0.000642673
1.33698e-08
1.74586e-11
-2.29307e-05
1.25708e-08
-3.35166e-08
7.31773e-09
3.86157e-05
-8.99478e-09
2.33487e-06
7.80522e-08
0.000797755
-0.000275588
1.13186e-07
-0.000950935
-8.45609e-10
0.0010418
-2.09204e-08
-0.00408671
1.20445e-08
9.04674e-08
0.000137289
6.69235e-05
-6.40284e-08
-2.34483e-08
0.000185731
-3.52794e-08
1.13498e-06
8.59835e-09
2.34026e-11
0.00109801
2.76352e-09
-3.88457e-05
-2.56422e-09
7.41696e-09
-1.31269e-08
-5.42871e-08
1.91823e-08
6.18813e-06
-6.65048e-09
-0.000360876
2.0858e-08
0.00325519
-0.000912929
4.60236e-08
-3.67328e-08
-0.0014814
1.61635e-08
-1.50289e-08
-0.00199007
-1.03831e-08
0.0002459
6.99231e-08
-3.07401e-08
-6.79255e-10
-1.5457e-08
9.99008e-09
-0.00202791
-0.00104682
0.000223614
0.00369796
-2.76045e-08
-3.87556e-07
-0.00195734
0.0003071
0.000235412
-2.92729e-08
0.00869286
0.000569871
1.17346e-08
2.75543e-06
1.10636e-08
-0.00067808
-3.10886e-08
2.044e-08
-1.73704e-08
-1.93236e-08
-5.91223e-08
-4.8937e-05
-1.90517e-08
-1.13945e-08
-0.00358647
1.40429e-08
2.68313e-05
1.74164e-08
-0.00095768
2.43134e-08
-2.49103e-08
-3.36157e-08
7.91437e-09
-1.55473e-07
-1.62302e-09
-0.00328263
-1.41758e-08
-0.000886133
-0.00134055
1.47916e-09
-1.26176e-08
4.21728e-08
-0.000973938
-3.69362e-08
-0.000330829
0.000497525
-4.72479e-08
0.00109606
0.0010162
8.03221e-09
-0.00147081
2.24064e-09
-3.74986e-08
1.31956e-09
3.45919e-08
4.9988e-09
3.79098e-09
-1.02317e-08
-0.00113793
2.44524e-06
-0.000648273
5.76211e-08
4.3694e-08
9.62612e-09
2.9213e-08
-6.21264e-08
-1.05315e-08
-2.36126e-09
-1.12017e-08
-0.000171891
-0.000417603
-5.92299e-05
5.30032e-08
-9.39597e-09
-4.16688e-08
9.36034e-08
-3.71692e-05
0.00944869
1.198e-08
1.24548e-05
-0.000509937
-5.94849e-08
0.00042733
-3.31377e-10
-1.31802e-08
-9.30062e-06
-1.66875e-08
-6.82363e-09
-1.17195e-08
1.17043e-08
-2.88649e-08
3.761e-09
2.55977e-08
6.2491e-09
8.34237e-09
1.66017e-08
0.000328426
9.43996e-10
-6.32432e-06
0.000253669
-2.20863e-05
-1.74366e-08
7.79265e-09
3.50917e-08
-9.34522e-08
2.0191e-09
-0.000113313
1.29811e-08
-6.10173e-08
3.37387e-05
-0.00816783
-3.45979e-08
-0.000602622
-6.19169e-09
-0.00821826
-0.00152429
2.29705e-08
-7.38474e-08
1.77592e-08
1.78024e-05
-0.0039676
0.000701864
-6.91812e-08
8.25252e-09
0.000803515
-5.10185e-08
-0.000651912
0.00278653
-0.000446888
-6.89637e-11
-0.000134572
0.00030415
0.000782828
-1.82671e-08
-7.00947e-09
-9.2334e-09
-2.5939e-09
4.36656e-08
-1.02745e-07
-0.00115047
-1.87566e-08
-1.14066e-08
4.42212e-09
-7.05636e-08
7.6027e-06
2.69214e-09
2.38049e-10
-0.000730005
2.49125e-08
5.76448e-08
2.28066e-08
-6.19044e-08
6.77854e-09
-2.4802e-08
-0.00118573
4.45454e-08
3.03933e-08
-3.65771e-09
0.00065753
-4.43905e-07
0.000256251
-0.000472708
-0.000562595
0.00752517
-3.08207e-08
4.27774e-10
-1.58423e-06
0.000312492
0.000191139
6.39843e-09
-1.02607e-08
-6.16671e-10
-0.00211546
1.80499e-08
-7.16143e-09
-0.000997909
-0.000457771
-3.88264e-09
-1.74784e-05
-2.38233e-08
-0.000220476
-2.48802e-08
2.90364e-08
2.24148e-08
4.62627e-08
1.26689e-08
1.70955e-08
-1.12454e-07
4.03263e-08
-1.04839e-09
0.00112148
1.37051e-08
-1.11768e-07
-0.000679759
0.0016222
1.08856e-08
1.80821e-10
-2.0196e-08
2.94872e-08
-5.38021e-08
-2.79164e-06
-6.31638e-06
2.97786e-08
-1.75773e-08
2.6746e-08
-0.00111586
1.15697e-05
0.000821074
-2.67156e-09
-7.45698e-06
3.32163e-08
1.36914e-05
-0.000775499
-2.58884e-08
4.20329e-08
-0.000731408
-4.23779e-08
-6.75384e-09
0.00226548
2.29855e-06
-7.78386e-09
1.12759e-08
0.00137283
4.21091e-08
2.30208e-09
7.89615e-05
1.22483e-09
-3.49938e-09
-2.71814e-08
-3.14365e-08
-1.66382e-08
0.000516798
3.15536e-08
4.83162e-08
-3.05788e-09
-3.64641e-08
1.56384e-09
-3.28413e-08
-3.07056e-05
3.33765e-09
0.000514206
-5.08239e-05
5.87702e-06
1.3523e-08
-5.6654e-05
5.65999e-09
-0.00145687
-0.00113641
-4.26404e-08
1.05374e-08
-2.88216e-08
-2.38539e-08
-1.24005e-07
6.94406e-09
1.79857e-07
-0.000256045
0.000247672
0.000482734
0.00255125
-5.15537e-08
0.00122229
3.13252e-08
-7.65597e-05
-0.00105803
-0.00109301
-5.34614e-06
-1.37353e-06
-0.00107319
0.0196963
0.000133804
-3.17142e-08
0.00113553
-0.000113793
-1.0046e-08
-1.62175e-09
5.88442e-09
-0.000796731
-5.81412e-07
-1.20248e-08
4.29474e-09
2.08063e-07
0.000199177
5.70981e-08
-2.55773e-08
1.40799e-08
4.49026e-08
-1.37806e-09
-1.30663e-09
-2.46856e-08
-4.41465e-09
-0.000579332
-1.25569e-08
-1.11009e-08
-1.80145e-09
5.98181e-08
-5.91301e-08
-0.000313735
-1.78885e-07
-1.04648e-09
1.9299e-08
-0.00600019
1.60413e-08
1.54779e-07
3.48278e-08
5.49847e-08
5.44627e-08
1.01822e-08
-7.10406e-09
0.0021126
1.32366e-09
2.12124e-07
-8.02156e-09
2.83576e-08
1.00633e-08
8.54456e-09
1.96727e-09
3.41286e-07
-1.83882e-08
-4.81137e-08
0.00258443
0.00175799
-2.03094e-08
1.44961e-08
-1.33377e-08
-1.74594e-08
0.000650022
-0.000644207
3.94292e-09
-0.00110234
-4.39788e-08
4.6468e-09
-1.6204e-07
-4.5301e-09
-0.000624458
8.4352e-09
-0.000229486
-0.0022569
-2.33783e-05
-0.000220398
3.62214e-08
-6.87317e-05
0.000425242
4.81783e-09
3.18361e-08
-5.0458e-09
-8.30619e-08
5.91568e-08
0.00186682
-3.06731e-09
-4.45839e-10
0.000451178
-4.0216e-08
-8.82572e-08
-2.21413e-08
-4.94549e-09
9.71798e-08
-0.000675753
-2.98163e-06
0.00057298
-0.00118307
-5.6794e-08
1.7916e-08
1.70822e-08
2.50799e-08
0.000631593
-3.44012e-08
0.00207213
-0.00117456
0.000226475
1.81119e-07
1.90071e-08
0.00098705
0.000966194
3.05997e-05
0.00143006
2.857e-10
0.00126876
-5.86255e-09
-1.04059e-08
-8.69732e-09
-1.30061e-10
-0.0004441
-2.07526e-08
-2.57058e-08
-9.66006e-09
0.000147612
-0.00102477
-1.54587e-08
3.42784e-08
-2.07033e-09
-0.000552397
-2.1423e-06
-1.63384e-08
-0.00718654
0.000465534
1.9699e-07
-0.000374149
0.000332579
-2.86008e-07
0.0018449
-7.91189e-08
-6.94946e-05
0.011402
1.02245e-08
-0.00361916
1.21458e-08
0.00164004
-9.56591e-09
-0.000487022
8.73733e-08
-4.24568e-05
-0.000428223
-1.77495e-08
-1.29371e-10
0.000871067
-5.27006e-08
-0.00133164
-5.58119e-09
-2.80068e-08
-1.29344e-08
-0.000243973
2.43277e-08
-1.96546e-08
4.27939e-08
1.77963e-08
-9.95637e-09
-2.20907e-09
-2.74707e-08
-8.169e-08
0.000253712
3.81567e-08
-0.000831511
0.000519038
0.000919801
9.99733e-09
-0.000286318
-0.000677192
-7.11906e-09
2.25867e-09
3.2013e-05
-2.46449e-08
0.000286559
-0.00196708
1.57886e-08
0.00117509
-0.000126544
-6.80189e-08
0.000950224
6.87165e-09
3.22458e-05
-1.30749e-08
-0.00256179
-1.49959e-08
-0.000722254
-5.71035e-09
-0.000359672
-0.000415746
4.28421e-06
-3.40222e-08
1.72042e-05
3.94789e-06
-3.71273e-09
0.00203569
-0.000970044
3.85234e-09
-0.00109931
-3.10593e-08
2.66381e-07
2.78618e-08
-4.24573e-08
-2.0852e-07
-6.89224e-05
5.94347e-08
-0.00113967
-0.000734089
-4.54327e-08
-5.17334e-08
-1.45219e-10
-8.42785e-08
4.41224e-08
-2.71405e-08
-0.000560539
0.000219151
7.42473e-05
1.63904e-08
0.0131801
-0.00151841
0.000625677
1.43384e-09
-0.02001
-3.14229e-08
1.64972e-08
2.39604e-05
0.000225913
-2.44203e-09
-0.000959514
6.05864e-08
3.50867e-08
-0.000509714
4.32636e-08
-0.000971375
-0.000433443
-3.45184e-09
-0.00135943
0.000509738
0.00094913
-1.74651e-08
-0.000367186
-5.72609e-06
8.72897e-08
-1.64853e-08
4.35611e-08
0.00916543
-0.0015887
9.50691e-09
-1.4285e-08
3.38451e-09
1.46925e-08
0.00135668
-1.04475e-07
3.07079e-08
6.23243e-09
2.14708e-09
-3.42118e-08
0.000144704
-4.23665e-08
-1.96173e-08
-2.86053e-08
-1.3495e-05
2.92909e-08
4.99164e-08
0.00011822
-0.00092243
-2.04878e-08
0.000593543
1.25806e-07
-0.00026899
0.000154509
-0.000851598
-9.29786e-09
4.31541e-08
3.30353e-08
-1.20531e-07
-6.99813e-08
-8.23455e-09
1.92116e-10
-9.01622e-08
-1.06695e-07
3.26072e-08
0.000799645
-4.73786e-08
8.49284e-06
0.00068063
-2.22476e-08
1.34954e-10
-5.83004e-08
-4.4785e-08
-3.70222e-10
0.000192167
-0.000270745
-4.47671e-08
-3.67743e-08
3.02606e-08
4.06421e-09
-7.82684e-08
9.55898e-10
0.00026244
0.000429963
7.15963e-08
-1.79232e-08
1.29279e-06
-1.69925e-08
-0.000601365
8.26648e-08
0.000462023
1.66678e-08
8.5888e-09
-5.00327e-08
-4.07795e-08
3.69794e-07
-0.000264328
7.84462e-09
-0.000354032
0.000721119
-1.10012e-07
0.000152439
-0.000721279
6.41103e-08
-3.21378e-09
8.49388e-08
-3.42102e-08
-0.000380357
-1.68275e-07
-2.63196e-08
2.45012e-08
-0.00410994
-1.2242e-08
-2.79525e-10
9.73951e-06
-4.6187e-09
0.000623383
-1.57346e-08
1.62626e-08
-6.91038e-06
1.59981e-09
-1.12588e-07
-6.39511e-08
-0.000260819
-5.52722e-08
-0.000359272
-1.76628e-05
-0.000911476
-6.55776e-09
0.00143981
-4.89897e-08
8.79968e-09
1.97839e-08
-5.94936e-08
0.000175539
-2.31084e-08
8.94239e-09
0.000897225
5.06409e-08
-4.20817e-08
9.86727e-07
0.000630224
1.93268e-08
-2.75526e-08
-1.15078e-09
-3.64497e-08
1.28004e-08
-0.00387235
0.000350841
-5.60782e-08
3.42246e-08
9.1037e-05
4.46708e-08
0.000201012
-0.00112271
-0.000784166
2.71341e-08
3.44372e-09
0.00119701
-0.00146291
-0.00114031
-6.98499e-08
-3.51294e-08
-7.70907e-08
-9.443e-05
-1.30499e-07
-2.85971e-08
-2.75885e-08
4.82539e-08
1.30746e-06
3.06975e-08
-5.90968e-09
-1.01202e-07
-2.13738e-09
-1.73881e-08
1.6199e-09
0.000310317
3.86107e-08
-0.0011211
-0.00359719
-0.000152115
2.7483e-08
-0.000462477
0.000606654
-1.51617e-07
8.62361e-09
-0.00125148
1.44435e-09
0.00089631
-1.08983e-08
4.45173e-08
-8.40499e-06
4.80613e-06
-1.36097e-08
1.84659e-07
4.36947e-08
3.73751e-08
1.01669e-08
-0.000675644
2.38976e-09
-0.000782714
-0.00133119
2.5674e-08
-2.78005e-10
0.000691714
0.000375536
-4.48877e-08
-1.78823e-07
-4.95652e-10
-5.2206e-09
1.23139e-09
-1.42879e-08
-4.12501e-09
1.52591e-07
0.000748606
1.46702e-08
-0.00116392
0.00175597
4.12248e-08
0.00092571
-0.00114001
6.12721e-09
2.01953e-09
-2.6002e-08
2.11373e-08
-0.000242258
-0.00070027
-3.41183e-09
0.278821
-0.000415105
-1.57804e-08
-2.33329e-08
0.00287356
-1.00651e-08
0.0116379
-0.000306098
0.000431909
4.80083e-06
-9.5034e-08
0.000963135
4.32035e-07
-0.000673722
0.00119972
-7.31309e-09
4.49933e-08
-1.1299e-05
6.9338e-08
-8.11574e-09
6.24009e-10
9.76921e-09
2.57353e-08
-5.98034e-08
-3.1408e-08
-4.76327e-09
-2.70538e-09
4.15216e-08
8.34947e-05
-1.53018e-05
-4.06602e-08
-5.8967e-09
-0.0020874
-1.12709e-07
-4.92768e-09
-2.85949e-08
2.5807e-08
7.32983e-09
3.4684e-08
-0.000585806
6.50469e-08
2.51084e-08
-9.81337e-05
5.6477e-08
-3.70941e-11
-0.00025503
-4.13453e-06
-3.62354e-08
1.52514e-08
-1.00266e-08
2.42967e-09
3.58151e-07
-4.62729e-09
-2.94303e-08
-0.000483304
0.00022082
1.7097e-08
-2.92607e-09
-4.95571e-09
0.000166366
-2.53892e-08
1.61285e-08
-7.63119e-08
7.97605e-09
5.4805e-08
-5.08891e-08
6.27268e-09
-8.16714e-09
-0.000820679
1.51561e-09
-1.7172e-06
0.000387022