/*--------------------------------*- C++ -*----------------------------------*\
| =========                 |                                                 |
| \\      /  F ield         | OpenFOAM: The Open Source CFD Toolbox           |
|  \\    /   O peration     | Version:  v2012                                 |
|   \\  /    A nd           | Website:  www.openfoam.com                      |
|    \\/     M anipulation  |                                                 |
\*---------------------------------------------------------------------------*/
FoamFile
{
    version     2.0;
    format      ascii;
    class       volScalarField;
    location    "250";
    object      k;
}
// * * * * * * * * * * * * * * * * * * * * * * * * * * * * * * * * * * * * * //

dimensions      [0 2 -2 0 0 0 0];


internalField   nonuniform List<scalar> 
33474
(
0.00013346
0.000108914
0.0195655
9.87349e-05
0.00011402
0.0164954
0.000102264
0.000117236
0.000117581
9.90822e-05
0.000133174
0.000105221
0.000115296
0.000109929
0.000394042
0.000229326
0.000113357
0.000224281
0.065842
0.000113557
0.000106985
0.000110764
0.00010783
0.00204766
0.00226561
0.000110244
9.74872e-05
0.00212616
0.0609763
0.000107333
0.000102776
0.000106134
0.00250837
9.85446e-05
0.00045591
0.000525594
0.000107419
0.00011952
0.000110107
0.000457886
0.000141952
0.0258536
0.0129716
0.000147351
0.0780036
0.0975046
0.000145716
0.00046004
0.000102221
0.000134728
9.87496e-05
0.000111215
0.0026284
0.0417116
0.00011418
0.00389092
0.000111841
0.000102125
0.0461426
0.0458035
0.000102168
0.00010746
0.0291161
9.67998e-05
0.000133804
0.000111677
0.0652085
0.0778529
0.000102118
0.0549767
9.85074e-05
0.000109574
0.000146045
9.90723e-05
0.00010622
0.000132674
0.00010734
0.000102267
0.000114012
0.000167751
0.0542947
0.000110629
0.0226961
9.38694e-05
0.000132413
0.0614851
0.000301327
0.0455325
0.0250058
0.000102583
0.00181943
0.000125985
0.000233963
0.000102723
0.000105886
0.000111108
0.000106636
0.000114187
9.09464e-05
0.0440361
9.94203e-05
0.00212093
0.0753581
0.000110609
0.000287354
0.0956867
0.000874462
0.000128822
0.00010089
0.000178271
0.000203231
0.00013247
0.0431335
0.000107218
0.000223459
0.028627
0.000120623
0.000110755
9.66846e-05
9.70617e-05
9.50876e-05
0.000112662
9.65493e-05
0.000100766
0.0005567
0.0258668
0.000194817
9.80893e-05
0.0258528
0.0757034
0.000579168
0.0422261
0.11206
0.000137054
0.000107255
9.41445e-05
0.000128858
0.000108758
0.000105906
0.000128866
0.0464349
0.0267348
0.000145453
0.000104314
0.000130747
0.000185517
0.0285792
9.79789e-05
0.000116796
0.000137067
0.000133731
0.000107715
9.76154e-05
0.000107946
0.00011131
0.000100775
0.0612479
9.68218e-05
0.00018777
0.0261394
0.000130947
0.000152072
0.0460425
9.51424e-05
0.0787719
0.000113556
9.19149e-05
0.000116321
0.000134092
0.000118096
0.000182941
0.000129453
0.000117867
0.0654496
0.000107577
9.75512e-05
0.0443966
0.000107083
0.00133816
0.000107172
0.000121248
9.83992e-05
0.000107597
0.0760276
0.000108983
0.000132638
0.000122256
0.0626442
0.0478707
0.000118896
0.000112528
0.0717194
0.000106076
0.000131871
0.0392365
0.000167861
9.15651e-05
0.000124725
0.0298221
0.000118699
9.42974e-05
0.00153065
0.000112975
0.000107804
0.00012854
0.000118576
0.00552667
0.000121934
0.00048819
0.000459274
0.000102617
0.0235741
0.000218003
0.000110827
0.000111491
0.0797442
0.000120833
0.0787014
0.000108442
0.000113087
0.000403417
0.000127414
0.000106619
0.000215436
0.0122722
0.000107709
0.000357549
0.000132574
0.0469357
0.0936833
9.77987e-05
0.00515464
0.000116902
0.0620746
0.0630551
0.000126855
0.000106307
0.000309159
0.000106385
0.0694938
0.000349137
0.0393792
0.0001015
0.000111374
0.000108048
0.0114896
0.000186525
0.000104565
0.0148014
9.88126e-05
0.00262418
0.000126551
0.0289521
0.00362992
0.00316177
0.000109016
0.000100251
0.000107442
0.0659959
0.0122134
0.00010095
0.000117027
0.000143383
9.44643e-05
0.000113037
0.000126289
0.0691861
0.000124648
9.90597e-05
0.000180654
0.000105131
0.000104643
0.000107954
0.000120004
0.0400465
0.000108879
0.000287834
0.0624473
0.000110081
0.000102295
0.000127006
0.000107251
0.000102217
0.000104901
0.000105916
0.000100348
0.000113107
0.0159166
9.67537e-05
0.000105148
0.0294544
0.00012663
0.000138538
0.0355735
0.0228402
0.0241613
0.000112399
0.00101528
0.00053375
0.000203478
0.00567691
0.0188547
0.0396461
0.000208051
0.0013244
9.16123e-05
0.000108052
0.0342612
0.0814964
0.000109512
0.000108142
0.000107277
0.000119001
0.000107265
0.000106827
0.0469763
9.84646e-05
0.00117754
0.000105534
0.0383833
9.458e-05
0.000103055
0.000108946
0.000116981
9.39087e-05
0.000562794
0.000126345
0.000105139
0.000100391
0.000117142
0.092841
0.00010219
0.000121329
0.000147338
0.000131318
0.00765579
0.000244701
0.000104525
0.0638582
0.0400256
0.000145804
0.0126534
0.000116553
0.000111677
0.000115278
0.00356953
0.000103109
0.000147585
0.00011367
9.19058e-05
0.000116707
0.0242644
0.000114088
0.0452475
0.0308858
0.0149378
0.0878104
0.07983
9.59294e-05
0.000121695
0.000215534
9.19074e-05
0.0624259
9.8415e-05
0.000110536
0.0127021
0.000109629
0.00011121
0.000149399
0.0121676
0.000124
0.000110979
0.0621533
0.00010793
0.000110429
0.0435066
0.0310581
0.000105133
0.0147478
0.000131178
0.0184742
0.0078394
0.000107573
0.000142583
0.000271898
0.044207
0.000107295
0.00010411
0.000105703
0.0472557
0.0873488
0.000106683
0.000143792
0.0135565
0.000105821
0.000118171
0.000116905
0.00018011
0.000132723
0.000102153
0.0329153
0.0073244
0.000145396
0.000169832
0.00010696
0.000117063
0.0257942
0.000277156
0.000116584
0.000146433
0.000127082
0.0387892
0.000145014
0.0241848
0.000116989
9.71645e-05
9.83411e-05
0.0532329
9.65833e-05
0.0322552
0.000101121
0.0721755
0.0163384
0.00010175
0.0637717
0.000133033
0.0132287
0.0426296
0.000256122
0.0722947
9.29473e-05
0.00872114
0.0361946
0.000122997
0.000107282
0.000120405
0.000110636
0.000113366
0.000126925
9.88977e-05
0.000110997
0.000144359
0.000103227
0.000112478
0.0420824
0.0118354
0.000102118
9.78857e-05
9.9133e-05
0.000107726
0.000107949
0.0596594
0.000104593
0.000110243
0.0114496
0.000127461
0.000111523
0.000108153
0.00309877
0.000175349
0.0119074
0.0702919
0.0636139
0.0278215
0.0443015
0.0164546
0.000129031
0.0892267
0.000122382
0.000122998
0.0474236
0.000119296
0.0374243
0.0504885
0.0592125
0.000224917
0.000101543
0.00010711
0.00011725
0.000131584
0.0561949
0.000123364
0.0753843
0.127746
9.61926e-05
0.0677319
0.0423088
0.000126768
0.0187091
0.000101696
0.000103401
0.000111592
0.0530913
0.000126989
0.000120868
9.45721e-05
0.000107805
0.0001112
0.0210947
9.31469e-05
0.0613819
0.000101621
0.000113486
0.0695051
0.000173601
0.000282695
0.00180861
0.000132143
0.0248602
0.0441964
0.0653994
0.000192537
0.000129012
0.000119514
0.000107174
0.0471369
0.000112266
0.0611454
0.0597474
0.00011467
0.000105286
0.000127138
0.097158
0.000107557
0.000956016
0.000380839
0.040969
0.0402999
0.00141232
0.000112271
0.000110174
0.000228923
0.000129961
0.0987145
9.21501e-05
0.0715772
0.000112616
0.0605494
0.00880692
0.000122952
0.0860741
0.0141592
0.000128439
0.000112545
0.000176359
0.0129983
0.0226134
0.00010497
0.0387825
0.00470981
9.70781e-05
0.000378027
0.000114855
0.0327707
0.000118058
9.91431e-05
0.000132373
0.000111476
9.22916e-05
0.0279738
0.000134925
0.000114052
0.000140984
0.000113077
0.000110075
0.000103001
0.039841
0.000104243
0.00335653
0.00329235
9.97152e-05
0.000111507
0.00183078
0.000110008
0.00934594
0.000122748
9.44389e-05
0.0265132
0.000106212
0.000112646
0.000123042
0.0256027
0.0419688
0.0338807
0.00010539
0.000147545
0.00158179
0.0533734
9.40555e-05
0.00011678
0.000114205
0.000118352
0.0441546
0.000122753
0.000141492
0.000112951
0.000126791
0.000112374
0.0676452
9.8664e-05
0.0159972
9.40558e-05
0.000121035
0.000113336
0.0705182
0.000107952
0.000292366
9.39502e-05
0.000220825
0.000105045
0.00010794
0.000114942
0.000245255
0.000148168
0.000102052
0.0352158
0.0360265
0.000147881
0.000117918
9.40153e-05
0.000118653
0.0358493
0.000391198
0.00160705
0.0738724
0.000108292
0.000100415
0.000124511
0.000105685
0.000112712
0.000126046
0.0223089
0.000111296
0.000224239
0.0149886
0.003495
0.000105542
0.0415945
0.0208861
0.0160898
0.065582
9.93206e-05
0.000115041
0.000473329
0.0139429
0.00128419
0.0377061
0.000134102
0.000471177
0.000145711
0.0194721
0.000132332
0.000407411
0.000288788
0.000122958
0.000147918
0.000103642
0.000108464
0.000422343
0.000232147
0.000107112
0.000108096
0.0814682
0.000106564
0.0946982
0.000107284
0.0773326
0.000111497
0.0800173
0.000234208
0.0671824
0.00789585
0.00014767
0.010908
0.00011039
0.000117851
0.068956
0.00012276
0.000107059
0.000118075
0.000117886
0.000127106
9.56182e-05
0.000104251
0.0289719
0.000106198
0.000105991
0.0554201
0.0117075
0.104139
0.0269894
0.0848852
0.0706637
9.67039e-05
0.0213136
0.000111106
0.000116914
0.000122804
0.046268
0.000114349
0.000518321
0.000147815
0.0149833
0.00086678
0.000178511
0.000100726
0.000123021
0.000130385
0.0460934
0.000102788
9.82064e-05
0.00010777
0.000288432
0.0712265
9.88132e-05
0.100654
0.000106338
0.11778
0.000168908
0.000106687
0.00010383
9.40491e-05
0.000122888
0.000106839
0.000107398
9.57211e-05
0.000121489
0.000123718
0.056887
0.000105429
0.0169943
0.0370467
0.000106986
0.000248097
0.000457247
0.000139469
0.000113055
0.000131515
0.000108452
0.0612936
0.00011706
0.000132154
0.000105202
0.0963501
0.0493638
0.0052766
0.0233556
0.0610831
0.000113827
0.000110475
0.0973319
0.000285564
0.000174475
0.000105418
0.000124572
0.000118004
0.000107399
0.0766591
0.000109988
0.0122863
0.000123303
0.000144876
0.000294608
0.000297493
0.000127134
0.0537791
0.000105861
0.000106066
0.000106039
0.0144128
0.0265134
0.000107303
0.00010414
0.0390259
9.88012e-05
0.0825031
0.000102323
0.0534379
9.91125e-05
0.000112242
0.0674242
0.000359542
0.0650866
0.0849997
0.000110984
9.92564e-05
0.000114908
0.000117716
0.0314727
0.000103534
0.00105796
0.000119844
0.000122719
0.0477339
0.000147486
0.0240632
0.0134896
0.0719625
0.0200559
0.00438961
0.000109669
0.000106765
0.000102118
0.000865699
0.000416816
0.000253558
0.000145164
9.92116e-05
0.114632
0.0117594
0.000967072
0.000118187
0.000277571
0.000117149
0.000105328
0.000105806
0.00012841
0.00194875
9.67754e-05
0.000388312
0.000107922
0.000104652
0.00330139
0.000133291
0.000111162
0.0773226
0.00850456
0.00011535
0.0466017
0.000102607
0.000102174
9.84024e-05
9.69131e-05
0.000142802
0.00010772
0.000106502
0.0272401
0.0693331
0.000114399
0.0001072
0.0257341
0.00102412
0.000112891
0.000102777
0.000102967
9.77159e-05
9.86438e-05
0.000103866
0.000155905
0.000116959
0.085771
0.000113046
0.0431324
0.000106887
0.000126919
0.000106943
0.0362782
0.000106857
0.000103259
0.118529
0.000122818
0.000116778
0.0223939
0.0625334
0.0464765
0.078184
0.000318168
0.0116003
0.000119633
0.0582411
0.0242952
0.000109307
0.0842582
0.0458705
0.000110197
0.000651046
0.00010621
0.000113909
0.0780048
0.106491
0.00169892
0.00346803
0.0358562
0.000108672
0.000110919
0.000109125
0.00016942
0.000103227
0.000112332
0.0237495
0.0271193
9.46144e-05
0.000109417
0.003287
0.000122389
0.000127257
0.0708107
0.000126554
0.00814007
0.000107488
0.0901749
0.0275212
0.00632765
0.000104958
0.000127481
0.000106195
0.000106668
0.00186976
0.000153033
0.000396298
0.000134244
0.000295972
0.000108169
0.000124582
0.12828
0.0452433
0.000266093
0.0483173
0.000108277
0.000121768
0.000101793
0.000114948
0.000108315
0.0439541
0.000827955
0.0384396
0.000107184
0.0799357
9.90067e-05
0.051185
0.000417852
0.0752147
0.000112894
0.00155475
0.0990142
0.0498998
9.09164e-05
0.00965764
0.0376164
0.000148456
0.000107551
0.0728443
9.87004e-05
0.0569421
0.000116737
0.000123216
0.00010924
0.0757212
0.000932576
0.000100651
0.000147953
0.000108309
0.0137853
0.0120842
0.00010909
0.000145744
0.0315155
0.000122444
9.75496e-05
0.000145849
0.0366579
0.0416588
0.00856518
9.94028e-05
0.000106261
0.0915195
0.000154197
0.000119094
0.000107192
0.000145253
0.000103759
0.000107414
0.0767907
0.000108522
0.0194439
0.0322207
0.000105889
0.0534733
0.0848485
9.31028e-05
0.000120566
0.0542154
0.000110441
0.000147568
0.000106212
0.000131199
9.26713e-05
9.43487e-05
0.000109394
0.00010939
0.0356015
9.86036e-05
0.00637392
0.00213494
0.000110402
0.014332
0.000121767
0.0180631
0.000116348
0.000137809
0.000338472
0.000108146
0.000122152
0.00627696
0.000143768
0.000147258
0.0883768
0.000167783
9.68116e-05
0.0240309
0.000100549
0.0283644
0.000113354
0.00011134
0.000105023
0.000106936
0.000113454
0.0588849
0.000109561
0.101538
0.000642284
0.000105181
0.000114532
0.000478526
0.000111647
0.0278511
0.00012279
0.10031
0.00382516
0.000299587
0.0255772
0.000132148
0.000107831
0.000116117
0.00505472
0.000109208
0.071975
0.000124492
0.000117872
0.000107785
0.000107472
0.000148141
0.000105715
0.000116039
0.000107177
0.000136893
0.000107014
0.000139334
0.00014293
0.025511
0.0715896
0.0693023
0.00753727
0.00010717
0.0222263
0.000981766
0.000331463
0.000108406
0.0320991
0.000116508
0.000119209
9.84943e-05
0.000145225
0.000112458
0.0903123
0.000102676
0.0787913
0.000102161
0.00017572
0.000100387
0.000139018
0.0245334
0.000142517
9.93186e-05
0.000288518
0.000401028
0.000382871
0.000111793
0.0380137
0.00350238
0.00012349
0.0415018
0.000108398
0.0456684
0.0319706
0.000119189
0.000107188
0.000107238
0.000124067
0.0631621
0.000121993
0.000107899
0.0788163
9.13155e-05
0.000356991
0.0414619
9.78099e-05
0.0784368
0.000130793
0.000108493
0.000107741
9.87081e-05
0.00010202
0.000106334
0.0497985
0.000113078
0.000121714
0.000111915
0.00011754
0.0220558
9.41229e-05
0.000104552
0.000117888
0.000253259
0.000110139
0.000111058
0.000127736
0.000145881
0.000111603
0.0301394
0.000121475
0.000147371
0.047304
0.000103634
0.000117317
0.000103666
0.0452188
0.000123769
0.000344534
9.766e-05
0.000123848
0.000107432
0.000107439
0.000104022
0.0383224
0.0392346
0.0432852
0.000132919
0.00019671
0.000107734
0.000106749
0.00159797
0.000106962
0.00010599
0.000178193
0.068207
0.000117595
0.000133388
0.000102514
0.000106774
0.00867007
0.000362625
0.0808018
0.000232135
0.000348642
0.0929277
0.062642
9.88178e-05
0.000123948
9.83064e-05
0.000107867
0.0122838
0.124866
0.000108093
0.000107607
0.00128232
0.0001125
0.0638874
0.000103784
0.000107248
9.43267e-05
0.000117121
0.000126725
0.066504
0.000105603
0.0037063
0.0212179
0.000178727
0.00714827
0.095431
9.12587e-05
0.000120492
0.000105417
0.000106243
0.0812384
0.000105259
0.000121075
0.0250907
0.000278295
0.0324312
0.00167426
0.00890046
0.000114407
9.59151e-05
0.00549567
9.14361e-05
0.000145679
0.000106938
0.0681026
9.21911e-05
0.0618811
0.0595209
0.000135572
9.30719e-05
9.4843e-05
0.0473954
0.000107085
0.00842033
0.01978
0.000128092
0.000156213
0.000216925
0.000127182
0.000118106
0.000100014
0.000108275
0.0444416
0.000104065
0.00011719
0.000170242
0.0792532
0.000107842
0.0536671
0.000104667
9.81348e-05
0.000106212
0.000112518
9.88805e-05
0.000144707
0.000118748
0.0254283
0.000126716
9.68525e-05
0.0780381
0.000107037
0.000102403
0.00012725
0.000102324
0.000116677
0.0252658
0.000100522
0.0589589
0.066617
0.042512
0.0210557
0.000105945
9.18291e-05
0.000143378
0.000107256
0.000111164
0.000109448
0.00129499
0.000107297
0.0485366
0.116341
0.000144392
9.6899e-05
0.000109343
0.0833138
0.000134912
0.00222104
0.000111809
0.000209665
0.000123575
0.000236295
0.000329931
0.000125136
0.000148375
0.000153969
0.0664209
0.0360599
0.0711144
0.000203412
0.000103016
0.0344208
0.000127082
0.000148445
0.000106104
0.000132667
0.0287887
0.000107496
0.121059
0.0608367
0.00010389
0.000118336
9.2276e-05
9.91095e-05
0.000106857
0.0680602
9.07812e-05
0.000114171
0.000483662
0.000456333
0.0817189
0.0809243
0.00762686
0.00010229
0.000832886
0.00012244
0.00247482
0.000143099
0.0599163
0.0414704
0.000125673
0.000106868
0.0480696
0.000106629
0.000544466
0.0806123
0.0233735
0.0920937
0.00010388
0.0641123
0.0377628
0.000429491
0.000108385
0.00309085
0.000133641
0.000179506
0.0370498
0.000643732
0.00773305
0.0728452
0.0287989
0.000148011
0.00018302
0.000107029
0.0125076
0.000106155
0.000126635
0.000107646
0.0618231
0.000119118
0.000889892
9.91914e-05
0.000114181
0.0366295
0.0556754
0.0001018
0.000110348
0.000107426
0.0421438
0.000102419
0.000135256
0.0117955
0.000125438
0.0103962
0.000106403
0.000104035
9.29809e-05
0.00010147
0.0333558
9.9177e-05
0.0677307
0.000288242
0.000103533
9.51809e-05
0.0957358
0.000112773
0.000122342
0.000130644
0.000111482
0.000247741
0.000132935
0.000189236
0.000100518
0.0026959
0.000103594
0.00013252
0.000827236
0.00187626
0.000196752
0.00010046
0.0785852
0.0337489
0.0110229
0.000116738
0.000110226
0.000130295
0.0737569
0.00010604
0.000127341
9.43181e-05
0.000108913
0.000143977
0.000116673
0.000120349
0.000343319
0.000104581
0.038009
0.0492643
0.000116855
0.0746498
0.00731869
0.0904131
0.000105784
0.000111573
0.000107573
0.000127429
0.000116416
0.000116148
0.000111335
0.000109233
0.000108697
0.000120574
0.0504438
0.000122253
0.0308579
0.000228275
0.0479371
0.000117415
0.000104179
0.000108058
0.000117185
0.022661
0.000111403
0.000115124
0.0831596
0.0380414
0.000120965
0.000135944
0.0112636
0.0461931
9.8113e-05
0.0370756
0.0548177
0.00013665
0.000112747
0.0438511
0.000106596
9.53582e-05
0.000105964
0.000182695
9.41312e-05
0.0317805
0.0438125
0.0705604
0.000112586
0.000147135
0.000101949
0.0358773
0.000107326
0.000119495
0.000122266
0.055451
0.0389732
0.00012246
0.00131115
0.000116586
0.000108854
0.000121448
0.0686692
0.000104605
0.000119949
0.000134219
0.0275009
0.000112371
0.000109151
0.000102246
0.000193306
0.000107748
9.56194e-05
0.000138083
0.000107344
0.0233975
0.000101463
0.000107044
0.000144111
0.000889594
0.000115929
0.000123667
0.0231726
0.07004
0.000104739
9.4292e-05
0.00317573
0.000259437
0.000120599
0.000114031
0.000104194
0.000115499
9.0932e-05
0.055032
0.0285653
0.000127519
0.000232332
0.0531975
0.0744649
0.000127274
0.000107359
0.000241347
0.000115461
0.000122962
0.034362
9.28086e-05
0.000126673
0.000101622
0.0236913
0.0133148
0.0474786
0.0357327
0.000112688
0.0389992
0.0286086
0.0743188
0.000104228
0.00013146
0.000127384
0.00013357
0.0441397
0.000126895
0.000127034
0.000114213
0.00148867
0.000124182
0.000110356
0.0286402
0.000112364
0.0579299
0.000150429
0.000100683
0.000438161
0.0478434
0.000105227
0.000110624
0.000107605
0.0136018
0.000111012
0.000120318
0.0218071
0.0225804
0.000951156
0.000111034
0.000133817
0.00636733
9.71713e-05
0.000128042
0.000135683
0.0140835
9.23931e-05
0.00153567
0.000125909
0.0431799
0.0339292
0.000114191
0.0558155
0.000114674
0.0408649
0.000102882
0.0273313
0.000126051
0.000176261
0.0561509
0.00390773
0.000110592
0.000103387
0.035385
0.00010746
0.00032338
9.91015e-05
0.000148941
0.0821665
0.000149047
0.0428141
0.000100295
9.76239e-05
0.000107449
0.000119642
0.000111973
0.000303287
9.75606e-05
0.0257301
0.000107212
0.0541924
0.037016
0.000107925
0.000111627
0.00126572
0.00012473
0.000134411
0.038004
9.84569e-05
0.0380147
0.000114023
0.000103411
0.000147297
0.000123465
0.000106049
0.00365239
0.0205495
0.0357637
0.00576793
0.000132767
0.000149555
0.0014228
0.0337383
0.0335765
0.000111339
0.072314
0.0260207
0.00013218
0.000210654
0.000106341
0.0466614
0.000104589
0.000105805
9.95076e-05
0.000108503
0.000107284
0.00670035
0.000105113
9.41896e-05
0.120793
0.000110536
0.0146323
0.000102845
0.110466
0.000106939
0.000120021
0.000124312
0.000146378
0.000125912
9.72912e-05
0.0229836
0.000143959
0.0562891
0.0460798
9.44528e-05
0.000109802
0.000120462
0.0229015
0.00010408
0.0451231
0.0799937
0.000112463
0.0619004
0.0668275
9.55684e-05
0.048489
9.45135e-05
0.000114031
0.000132418
0.000159097
0.000131654
0.000104611
9.45258e-05
0.024041
0.000636875
0.0278309
0.000114199
0.000110191
0.000104435
0.000130933
0.000116722
0.000103268
0.00010542
0.000112901
0.0441475
0.0718146
0.0544505
0.000116817
0.000109859
0.000115158
0.000123129
0.000506486
0.0804222
0.000107608
0.000467091
0.041629
0.000114173
0.0137471
0.000106242
9.08299e-05
0.00050457
0.000106943
0.000112549
9.51637e-05
9.75815e-05
0.00012796
9.24271e-05
0.000110757
9.59364e-05
0.000139539
0.000111665
0.0366009
9.64713e-05
0.00172332
0.0374564
0.000328394
9.29477e-05
0.000110082
0.000103717
0.000112539
0.000103456
0.0349004
0.000114064
0.000107272
0.00742666
0.0625393
0.000116709
0.0107562
0.000102839
0.0704709
0.0135701
0.000109402
0.000107609
0.000131634
0.00250644
0.0579213
0.0898162
0.000113323
0.000116628
0.0897292
0.00011531
0.00612175
0.0360672
0.0490375
0.000147531
0.00697461
0.0375702
0.0756285
0.000122613
0.000108076
0.000106131
0.000149528
0.000123054
0.000143061
0.0406808
0.00010127
0.000114066
9.35902e-05
0.000111008
0.000700352
0.00012167
0.000146498
0.0468439
0.000106151
0.000121477
0.000105657
0.000138058
0.000119649
0.000101147
0.0223673
9.29822e-05
0.000123057
0.000128411
0.100133
0.000145262
0.0326599
0.0307064
0.00906755
0.0257424
0.000104712
0.000106133
0.000371424
0.0333074
0.041479
0.000150688
0.00011455
0.000147171
0.0389011
0.000111116
0.000103167
0.00275866
0.0471574
9.78771e-05
0.0617099
0.000110619
0.0358615
0.000108656
0.000109334
0.000123329
0.000127578
0.000111474
0.000109995
0.000119467
0.000106977
0.000148364
0.00171593
9.64044e-05
0.000112582
0.00216766
0.0555596
0.000109379
0.00014797
0.000107293
0.000130907
0.00010504
0.000220577
0.00216916
0.000116395
0.000124607
0.000106762
0.0258711
0.00177222
0.0867608
0.00014701
0.000274302
0.000109408
0.00178239
0.0152221
0.000105048
0.000109621
0.0481907
0.00010907
0.000105624
0.00210185
0.000355255
0.000106885
9.45974e-05
0.00717082
0.000115754
0.000129548
0.00932021
0.000111733
0.000128073
0.000107279
0.000104739
0.000110574
0.0148201
0.000107786
0.000116027
0.000103593
0.000109485
9.57305e-05
0.000107247
0.0418998
9.33652e-05
0.0712705
0.027541
0.0020507
0.000108241
0.00350529
0.000127057
0.0480515
0.045001
0.000123777
0.000107722
0.000105719
0.000117107
0.000148128
0.000102624
0.000123229
0.0231873
0.0327191
0.103952
0.00243002
0.000105658
0.0807754
9.68209e-05
0.0248887
0.105794
0.0230896
0.000554291
0.000620935
0.0212153
0.0756304
0.0581422
0.000105471
0.0506252
0.000552917
9.96146e-05
9.35606e-05
9.84273e-05
0.0151906
0.00019715
0.000107324
0.000114051
0.000322883
0.013752
0.000114796
0.000109763
0.000127014
0.000106324
9.583e-05
0.000103298
0.000110998
9.85353e-05
0.0158396
0.000124121
0.000142166
0.000105272
0.000119472
0.000107381
0.0695557
0.000127292
0.000133065
0.000107674
0.071513
0.000112734
0.000177864
9.36887e-05
0.000119721
0.000117491
0.000102826
0.000132668
0.0013909
9.60235e-05
0.000147219
0.000106954
0.000109456
9.93052e-05
0.000132258
0.00011021
0.000239186
0.000121257
0.000107257
0.0102472
0.0796719
9.89866e-05
0.00011138
0.000105638
0.000110382
0.0389332
0.00266592
0.000130504
0.0237514
0.000103646
0.000132022
0.000143287
0.000132512
0.0209676
0.000123334
0.0326764
0.0570063
0.00203242
0.0228708
0.000107724
0.0323818
0.050752
0.000104783
0.000126437
0.000104898
0.000106557
0.000111698
0.0734637
9.62272e-05
0.000114036
0.0395161
0.000136894
0.000101192
0.00010481
0.0001058
0.000107654
0.0233127
0.000496861
0.0306222
0.024811
0.000284552
0.000122883
0.000107215
0.000123962
0.0397439
0.000107906
0.00564546
0.0257881
0.0686539
0.000146767
0.000102339
0.064232
0.042572
0.00657606
0.0553253
0.000148323
0.0424259
9.45029e-05
0.000103586
0.000108401
0.000149238
0.0610597
0.000111487
0.000109957
0.000142476
0.0378238
0.0244157
0.000103571
0.000116491
9.58373e-05
0.0695246
0.0025575
0.000103263
0.0512247
0.0232148
0.000152516
0.0504425
0.000875565
0.000183105
0.0764101
0.000107389
0.0527485
0.127834
0.000106322
0.0318777
0.000161772
0.0696914
0.000114189
0.0582278
0.000116709
0.000391577
0.044981
9.78308e-05
0.000129837
0.0858572
9.62297e-05
0.0468411
0.000125248
0.000111588
0.000103689
0.0247582
0.000157511
9.62171e-05
0.000122719
0.000108051
0.000103793
0.000147813
0.000103803
0.000105189
0.0330912
0.000108003
0.0248091
0.0433032
0.0810869
0.000104782
0.00399153
0.0360525
0.000132907
0.00014385
0.0145222
0.000118104
0.00124598
0.0822029
0.000105282
0.0135064
0.0069492
0.000105205
0.0789639
0.000107149
0.00365791
0.00010693
0.02364
9.88028e-05
0.0444343
0.000112448
0.0455866
0.00547117
0.000220525
0.000112782
0.000703076
0.0010269
0.000130206
0.0021458
0.0370105
0.000116291
0.098848
0.000133111
0.000342736
9.86938e-05
0.000134776
0.000116576
0.0423394
0.000107145
0.0421247
0.0216557
0.000107612
0.0001124
9.58211e-05
0.000107444
0.0001064
0.000114772
0.0145584
0.0425928
0.0238572
0.000100624
0.0659087
0.0484272
0.0404882
0.000104136
0.0539368
0.000117508
0.000117647
0.0113209
0.0307664
0.000104549
0.0875739
0.000135533
0.000126508
0.0575511
0.000107496
0.089768
0.0238753
0.000132581
0.00881808
0.0489958
0.0719928
0.000102815
0.0235287
0.000551985
0.000105065
0.000118504
0.000106057
0.0291088
0.0499617
9.88804e-05
0.00010884
9.90514e-05
0.000122915
0.0013003
0.000124455
0.000102692
0.00012098
0.000110063
0.000127697
0.000609823
0.000111987
0.000106291
0.000106772
0.000341758
9.16727e-05
0.000109614
0.065329
0.055396
0.000109092
0.0347979
0.000119656
0.0240013
0.0609295
0.0359042
0.000124141
0.000117448
0.000110091
0.000136953
0.000106799
0.000112874
0.000146885
0.000112423
0.00011654
9.37129e-05
0.0487327
0.000122691
0.00178494
0.0884572
0.000183041
0.000149249
0.000103738
0.000107585
0.000103798
0.0659421
0.0267666
0.000103567
0.00016577
0.000106731
0.000146108
0.000107754
0.000102355
0.0352799
0.0743682
0.000120346
0.000103878
0.000231587
0.00010931
0.0116579
0.000134689
0.024046
0.000102957
9.78101e-05
0.000113715
0.000106549
0.000159827
0.0540076
9.78846e-05
0.0437438
0.0360952
0.000126699
0.0407118
0.0207428
0.000124829
0.000101606
0.000111965
0.000111352
0.0214721
0.000127089
9.12238e-05
0.000130675
0.0364211
0.00010631
0.000140401
0.00102108
0.000163866
0.0854859
0.000101324
0.00012648
0.000495131
0.000124092
0.000116449
0.000117385
0.0592216
0.000108902
0.0454232
0.000276677
0.035917
0.000130657
0.0109222
0.000343316
9.46597e-05
0.000108046
0.000107395
0.0719662
0.000109343
0.00010606
0.073949
0.00010547
0.00010355
0.000215618
0.0347443
0.000101902
0.000110598
0.000106293
0.000101527
0.000105744
0.0794315
0.0380174
0.000112708
0.000107855
0.0647476
0.000123988
0.0460013
0.0240516
0.0483087
9.41114e-05
0.000116482
0.0802893
0.0472107
0.0224543
0.000102953
0.00011655
0.000110819
0.0790395
0.000116265
0.000104825
0.000122947
9.96846e-05
0.000284651
0.000122445
0.000112412
0.00010788
0.000111823
9.40074e-05
0.000107209
0.0770391
0.00010935
0.0607963
0.117529
0.0275012
0.000108623
0.0115908
0.0511478
0.000114062
9.46841e-05
0.0613341
0.000113372
0.0591907
0.000107486
0.000146081
0.000255511
0.000928769
0.000110912
0.000149678
0.00010355
0.000112307
0.000126274
0.0549974
0.000110195
0.102506
0.00889625
0.000107348
9.69767e-05
0.0925609
0.0259606
0.000111071
0.000120503
0.000128546
0.00010688
9.65608e-05
0.000109413
0.000106403
0.000124878
0.0417817
0.000101954
0.0286518
0.00212585
0.000109917
0.0736072
0.0483721
0.000123129
0.000102095
0.000107904
0.000119615
0.0247806
0.0446463
0.000111458
0.10999
0.0265425
9.79134e-05
0.000105786
0.0393363
0.000109111
0.100594
0.0249428
0.037498
0.000722662
0.000114051
0.0546524
0.00023528
0.0645633
0.0367869
9.13623e-05
0.000112499
0.000489525
0.000120839
0.000107946
0.00014497
0.000100412
0.000111449
0.000122948
0.000138914
0.000127137
0.000140257
0.000108142
0.00366903
0.000287719
0.000111652
9.37368e-05
0.0477259
0.000125761
0.000134791
0.000225302
0.000135786
0.000103485
9.4951e-05
0.0133227
0.00010949
0.000105463
0.0621868
0.000103956
0.000146059
0.0290259
0.000247361
0.000105763
0.000105483
0.00013626
0.000139738
0.000160466
0.000110405
0.000112689
0.0716273
0.0355139
0.00010804
9.31192e-05
0.000107722
0.000900045
0.000109375
0.000112336
0.000116324
0.0001314
0.000114167
0.000107166
0.000136124
0.000101773
0.0568353
0.00014787
0.000707483
0.0406426
0.000112989
0.000120451
0.000145554
0.000111434
0.000104643
9.45266e-05
9.60897e-05
0.00892821
0.000247423
0.0121726
9.53883e-05
0.000579792
0.000122597
0.00101374
0.128891
0.000112525
0.000124162
0.000126008
0.00011405
0.000196302
0.000116465
0.000126101
0.0007551
0.000138292
0.000123226
0.000137744
0.000111327
0.0070459
0.091749
0.000103839
0.000107139
0.000114462
0.0712863
0.000129476
0.000364198
0.000128985
0.000104793
9.67521e-05
0.000126156
0.0219161
0.0690061
0.000910356
0.00014143
0.00010957
0.000130971
0.000119613
0.0921491
0.000100003
9.41822e-05
0.00017969
0.0567862
0.0361168
0.0214679
0.0349936
0.000119468
9.99394e-05
0.0648728
0.0836479
0.0017665
0.00974644
0.000105267
0.00011059
0.0361022
0.000111809
0.00010281
0.00010749
9.46298e-05
0.000112203
0.000137166
0.0458789
0.0209747
0.000121831
0.000122761
0.000111048
9.59863e-05
0.000119146
0.0168982
0.000132428
0.00013117
0.000112555
0.000106735
0.000103708
0.000117229
0.000117634
0.000116955
0.00011956
0.0696102
0.0433561
0.000260748
0.000109253
0.000105847
0.000120561
9.97105e-05
0.000356977
0.00116008
0.0337565
0.0576293
0.000136926
0.000117632
0.000104934
0.0417612
0.00010645
0.000148187
0.00137877
0.023937
0.0369342
0.0669046
0.0716845
0.000135285
0.052762
0.000106627
9.47497e-05
0.0775352
0.000121656
0.000136616
0.000283502
0.0001078
0.114632
0.000113122
0.0770886
0.00010832
0.000120082
0.000118306
9.11957e-05
0.00012575
0.000106315
0.000131786
0.000101864
9.83416e-05
0.00121997
0.000129277
0.0494658
0.000105715
0.0923808
0.00012389
0.00257009
0.0187323
0.027706
0.010771
0.000224819
0.0070211
0.000106718
0.000132041
0.000105722
0.00011288
0.000618549
9.31992e-05
0.000108616
0.000106601
0.000106902
0.000124214
0.0560919
0.000102014
0.000104232
0.000106098
0.000107654
9.52834e-05
0.000190724
9.63393e-05
9.59815e-05
0.0001229
9.47724e-05
0.0108736
0.000118684
0.027678
0.000111128
0.000121745
0.000114172
0.000142649
0.000131235
0.0462924
0.000148428
0.0150488
0.0895615
0.000133294
0.000121501
0.000107168
0.0417939
0.000112572
0.000113697
0.0606698
9.37932e-05
0.000148016
0.000115798
0.0564115
0.000111655
0.056284
0.000112523
0.0315337
0.000228738
9.27284e-05
0.000140176
0.000128025
0.000107972
0.0341248
0.0381876
0.000132416
0.0284782
0.000103642
0.000103972
0.0254324
0.0404991
0.000132436
0.000102977
0.0514224
0.000128515
0.0386923
0.000120769
0.000573018
0.0339406
0.0414321
0.00077338
0.00012782