/*--------------------------------*- C++ -*----------------------------------*\
| =========                 |                                                 |
| \\      /  F ield         | OpenFOAM: The Open Source CFD Toolbox           |
|  \\    /   O peration     | Version:  v2012                                 |
|   \\  /    A nd           | Website:  www.openfoam.com                      |
|    \\/     M anipulation  |                                                 |
\*---------------------------------------------------------------------------*/
FoamFile
{
    version     2.0;
    format      ascii;
    class       surfaceScalarField;
    location    "250";
    object      phi;
}
// * * * * * * * * * * * * * * * * * * * * * * * * * * * * * * * * * * * * * //

dimensions      [0 3 -1 0 0 0 0];
oriented        oriented;


internalField   nonuniform List<scalar> 
49680
(
-0.305414
0.0695577
0.235857
0.293537
-0.174028
-0.119509
0.00849295
-0.00849295
-0.106598
-0.0466524
0.15325
-0.147117
-0.00108614
0.148204
0.00576914
-0.0109841
0.00521495
0.0642041
0.0613955
-0.1256
-0.174127
-0.0729612
0.247089
0.115453
-0.28958
-0.361832
0.298455
0.0633777
0.0333093
0.0315302
-0.0648395
0.0930945
-0.25478
0.161685
0.0941541
0.190741
-0.284895
-0.155682
0.278591
-0.122909
-0.0474515
0.0220534
0.0253982
-0.037359
0.00703819
0.0303208
-0.199523
0.016665
0.182858
-0.035921
-0.00143799
-0.00400511
-0.00170843
0.00571355
-0.203275
0.00375185
0.382532
-0.216229
-0.166303
0.114274
0.0371795
-0.151454
0.111496
0.00886401
-0.12036
0.0817964
-0.0466382
-0.0351582
0.0173199
0.00217694
-0.0194969
-0.139631
-0.00151561
0.141147
-0.0262458
-0.119995
0.146241
0.0178913
0.0639052
0.0120805
-0.0179698
0.00588939
0.120317
-0.00477612
-0.115541
0.0778178
0.117156
-0.194974
-0.134561
-0.0647022
0.199264
-0.0342492
-0.0379411
0.0721903
-0.132605
0.0285917
0.00467137
-0.033263
-0.0211508
0.0281114
-0.00696056
-0.126492
0.172901
-0.0464085
-0.280273
0.150018
0.130256
0.0188242
0.0586185
-0.0774427
-0.0277897
-0.0439804
0.0717701
-0.400104
0.171421
0.228683
-0.00851836
0.00840935
0.000109005
0.00124437
-0.000611739
-0.00063263
0.106226
-0.363621
0.257395
0.0210452
-0.00776328
-0.0132819
-0.0351505
0.0381242
-0.00297364
-0.469033
0.300549
0.168484
-0.027666
0.0065152
0.00706831
0.128473
-0.135542
0.0716795
-0.0992152
0.0275356
0.0524997
-0.159098
0.0653423
0.110036
-0.175379
0.00358328
0.0137367
-0.0318336
0.0390128
-0.00717919
0.0424385
-0.189556
-0.00473239
-0.00942559
0.014158
0.19523
-0.0353628
-0.159867
0.164152
-0.183279
0.0191272
0.00440919
-0.00591168
0.00530773
-0.00230493
-0.0030028
0.214194
-0.0849097
-0.129284
-0.11349
0.103097
0.0103932
0.00749346
-0.000580194
-0.00691327
0.0408137
0.130814
-0.171628
-0.00154414
-0.30387
0.156978
0.0382522
-0.0275381
-0.0299923
0.0575304
0.0093991
-0.0263936
0.0169945
0.16417
0.0500237
0.0184534
-0.000135856
-0.0183175
-0.0328397
-0.095689
0.128529
0.00579007
0.0862944
-0.0920845
-0.168508
-0.300525
-0.070082
0.147468
-0.0773864
0.137694
0.111499
-0.249194
-0.0481464
0.00288179
0.0452646
-0.0884039
-0.0156506
0.104055
-0.196167
0.345859
-0.149692
-0.153474
0.152388
0.056991
-0.0774847
0.0204937
0.0182191
-0.0153502
-0.00286889
-0.0850576
-0.0436421
0.1287
0.00826151
-0.00980029
0.00153878
-0.214277
-0.0496555
0.263932
0.012799
-0.0609454
-0.00840031
0.0204808
0.0597703
-0.0859816
0.0262113
0.00385915
-0.00466125
-0.00109804
0.00175934
-0.000661303
-0.137081
0.0141021
0.122979
0.0243666
-0.0118996
-0.012467
-0.250444
0.346534
-0.0960894
-0.0370486
0.0365642
0.000484446
-0.365164
0.168997
0.0126438
0.0885172
-0.101161
-0.0800006
0.145343
0.146117
0.236415
0.0208891
-0.174363
-0.444241
0.272156
0.172085
-0.00689703
0.00663253
0.000264506
-0.111925
-0.249907
0.0114413
0.0129253
-0.00211496
0.00759763
-0.00548267
0.163653
-0.0493786
-0.0126765
-0.0585203
0.0711968
0.01691
-0.0243923
0.00748231
-0.0536312
-0.0138081
0.0674394
-0.322003
0.362541
-0.0405377
0.0725166
-0.152096
0.0795798
0.0838919
-0.0849043
0.00101235
0.022702
0.0387887
-0.0614908
0.0363541
0.0193981
-0.0557522
-0.0401132
0.00827958
-0.117036
0.00881726
0.108219
0.00671611
-0.0437647
-0.0371591
0.0626992
-0.0255401
0.124845
0.109869
-0.234714
0.069965
-0.155023
-0.124502
0.165316
0.385261
-0.275606
-0.109655
0.0515099
-0.160623
0.109113
-0.040453
0.123279
-0.0828257
-0.00740154
-0.14246
0.149861
0.156566
-0.0840495
0.0663062
-0.00359709
-0.0627091
0.000101699
0.00739176
-0.023544
-0.0202372
0.0437812
-0.0140596
0.12323
-0.10917
0.0103284
0.0119005
0.0286215
-0.040522
-0.0649701
0.00584141
0.0591287
-0.0116784
0.0233006
-0.0116222
-0.0404503
0.00529983
-0.0206318
0.0539411
0.0103291
0.109988
-0.229061
0.225933
0.00312823
-0.0103615
-0.311642
-0.131864
0.113828
0.0180367
0.0754193
-0.0627755
-0.0358155
0.273267
-0.237452
-0.0426789
0.0407063
0.00197264
0.0404655
0.00189855
-0.0423641
0.058929
-0.0284754
-0.0304536
-0.324652
0.191294
0.133359
-0.011252
-0.0684191
-0.0136453
0.0534599
-0.0398146
0.0278816
-0.0321232
0.0042416
-0.349311
0.260618
0.0886925
0.103757
-0.0910861
-0.0126707
-0.0966149
0.107118
-0.0105027
-0.293749
0.292205
0.150578
-0.00944591
-0.141132
-0.113658
0.0874118
-0.327883
0.196961
0.130922
-0.126172
0.0857193
0.200638
-0.326943
0.126304
-0.0192068
0.00123695
-0.117825
-0.0202287
0.138053
-0.00645957
0.0383663
-0.0319067
0.00543996
-0.00636476
0.000924794
-0.126445
0.269948
0.0364451
0.0224839
0.00714806
0.00118462
-0.00833267
-0.12792
0.17943
-0.0100233
0.0079083
0.116792
-0.0842622
-0.0325299
-0.318855
-0.125386
-0.0941567
0.0668321
0.0273246
-1.0223e-05
-0.293739
0.246184
-0.232172
-0.0140119
0.0323649
-0.0559089
0.372018
-0.195145
-0.176873
0.032493
0.213691
-0.0215339
0.0384354
-0.0169016
-0.234925
0.151386
0.0835385
0.0701916
-0.183337
0.113145
-0.035044
-0.0076349
-0.0630557
0.111802
-0.0487467
0.0520935
0.0142965
-0.06639
0.0174672
0.0906083
-0.108075
0.166348
0.0885941
-0.254942
0.098879
-0.112939
0.119297
0.0312807
-0.0299565
-0.00847175
0.0384283
-0.264666
0.149031
0.115635
0.0939341
0.00655054
-0.100485
-0.0306543
-0.031554
0.0622083
0.00485191
0.0195764
-0.0244283
0.00608075
-0.00834067
0.00225992
0.125954
-0.316275
0.190321
0.0804911
-0.00285976
-0.0776313
0.0055024
-0.0472351
0.0417327
-0.122141
0.259835
0.103245
-0.00931103
0.00793692
-0.000788866
0.0779198
-0.0209289
0.343672
-0.153091
-0.190581
-0.0323635
-0.0285834
0.0609469
0.00795739
-0.0753211
0.0649186
0.0104025
-0.215533
-0.013528
0.0541077
-0.0668363
0.0127286
0.080521
0.0427577
-0.15625
-0.0786749
0.220266
-0.256082
0.307617
-0.181663
0.0631111
-0.0341258
-0.0289853
0.0894204
-0.00779195
-0.0816285
0.00241915
-0.0455655
0.0431464
0.00382085
0.054205
-0.0580258
-0.116914
-0.0201669
0.00797278
-0.0154245
0.027526
0.019365
-0.046891
0.106494
-0.0938333
-0.0126611
-0.0949476
0.305704
-0.210756
0.0213544
-0.0488925
-0.364355
0.135109
0.229246
0.00261055
-0.00495144
0.00234089
-0.0733039
0.079094
0.0661869
0.0143042
0.0707247
-0.0669039
0.210383
0.0906824
-0.301066
-0.136156
0.252212
-0.116056
-0.028559
0.051261
-0.00132994
0.000519243
0.0008107
0.126894
-0.115116
-0.0117783
-0.0142146
-0.0332369
-0.344024
0.293417
0.0506065
-0.0122374
-0.00881262
0.02105
-0.00834852
0.0252585
-0.0712686
0.155966
-0.0846971
0.0354084
-0.0105772
-0.0248312
0.128501
-0.229882
0.101381
-0.0182749
-0.000931916
-0.00529317
0.0201286
-0.0148354
-0.163867
-0.0426417
0.206509
-0.340495
0.231084
0.10941
0.0410658
-0.0537423
-0.22782
0.093259
0.00334948
-0.00126274
-0.00208674
-0.0668359
-0.00545755
0.0722934
0.006857
-0.00624927
-0.000607739
-0.169301
0.279071
-0.109769
-0.158066
-0.22469
0.382755
0.121299
0.00187394
-0.123173
-0.0647754
0.0382461
0.0265293
-0.0319597
0.0255001
0.0350496
-0.136854
0.101805
0.010496
-0.00782087
-0.00267509
0.102124
-0.148777
0.0577511
-0.00241427
-0.0553368
-0.164699
0.230643
-0.0659444
-0.0078048
-0.0679465
0.0579493
0.00999717
0.0233264
-0.068635
0.0453087
-0.397062
0.174074
0.222988
-0.282016
0.118212
0.163804
-0.0160307
-0.0974591
-0.0290689
0.0454101
-0.0163411
0.010437
-0.010437
-0.0778202
-0.101389
0.179209
-0.0516827
-0.0236383
0.258705
-0.353683
0.094978
-0.191012
0.251768
-0.0607557
0.128035
0.143466
-0.271501
-0.0369034
0.058543
0.00153728
0.0018122
0.111603
0.143419
-0.255022
0.0735247
-0.143607
0.0932645
-0.00937262
-0.117894
-0.0450754
0.162969
0.11715
-0.00492212
-0.112228
0.012267
0.104092
-0.116359
0.0903987
0.155423
-0.245822
-0.000564133
-0.000840751
0.00140488
-0.00950447
-0.12236
-0.0648767
0.0543632
0.0105135
-0.00278345
0.00392703
-0.00114359
0.0798925
-0.0610683
0.13602
-0.0718162
-0.0846562
-0.124921
0.0324143
0.0925069
0.125177
-0.118108
0.217918
-0.124824
0.142464
-0.00748109
-0.134983
-0.187601
-0.0944144
0.294814
-0.166779
0.025829
-0.0274228
0.00159386
-0.162521
0.044697
-0.239279
0.152489
0.0867894
-0.00508422
0.00495747
0.000126749
-0.191811
0.24328
-0.0514688
-0.288237
0.374712
-0.0864753
-0.000865071
0.000300938
-0.0100945
0.010129
-3.44849e-05
-0.0443334
0.0539871
-0.00965372
-0.0759379
0.0694136
0.0065243
0.0322957
-0.0284452
-0.00385042
-0.060535
-0.00443511
0.0158083
0.0624164
-0.0782247
0.0162727
0.0468384
-0.0483139
2.71372e-05
0.0482867
-0.00636114
0.00514255
0.00121858
-0.0458513
0.031281
0.0145703
0.0581767
-0.00406901
-0.135024
0.242423
-0.107399
-0.0648623
0.0893075
-0.0244452
-0.00204322
0.00194322
0.000100001
0.00635264
-0.00374209
0.00745681
0.117688
-0.125145
-0.0845074
0.101975
0.0228455
-0.119768
0.0969222
-0.28007
0.378419
-0.0983496
-0.102076
0.0473235
-0.118225
0.0709018
-0.042728
0.0626344
-0.0199064
-0.0848476
0.255707
-0.17086
0.0666821
-0.0145886
-0.154902
0.0201068
0.134795
-0.0162359
-0.0256666
0.0419025
0.0635031
-0.254515
-0.141902
0.0160888
0.125814
0.114978
-0.137837
0.022859
-0.0077122
-0.0866014
0.0943136
-0.198353
-0.0276683
0.226021
-0.0399028
0.042322
0.0888914
-0.339336
-0.155713
0.0533446
0.102368
0.319231
-0.118593
0.218635
-0.119532
-0.0991034
-0.0198872
0.0412416
0.07279
0.0645488
-0.137339
-0.228085
-0.13627
-0.0446957
0.0492291
-0.00453338
0.328592
-0.256555
-0.0720371
-0.0562553
0.0103659
0.0458894
0.0083489
0.066714
-0.0750629
0.210146
0.122166
-0.332312
-0.0024605
-0.00318811
0.00564861
-0.000809983
0.00146527
0.267744
-0.393975
0.126231
-7.14968e-05
-0.00125845
-0.153853
-0.0404506
0.194303
-0.0654207
-0.0105172
0.0118947
0.0519114
-0.0638061
-0.056553
-0.0113935
-0.12564
-0.0162627
-0.0963135
-0.247738
0.344051
0.0500093
0.0667828
-0.267436
0.132412
0.0745828
-0.228436
-0.00623326
0.0129406
-0.0067073
-0.168919
-0.140395
0.309314
-0.0021397
-0.0119777
0.0141174
0.00553917
-0.00012756
-0.00541161
-0.00109804
0.0351147
-0.0296123
-0.00106082
-0.00215718
0.003218
-0.143738
0.0266455
0.117092
-0.129627
-0.11868
0.248306
0.0683818
-0.0525736
0.157442
0.146232
-0.303674
0.021796
-0.0169441
0.156509
-0.241357
-0.0763542
0.146319
0.0161134
-0.0612235
0.0451102
-0.29308
-0.103983
0.0764745
0.0300199
0.18113
0.176012
0.000997577
0.000246793
0.178139
0.12338
-0.301519
-0.0490972
-0.0770751
-0.00577853
0.0253549
0.133566
0.0240217
0.00848338
-0.0201618
0.000337134
0.00960425
-0.00994139
0.0328293
0.116952
-0.149781
0.0293182
-0.00348922
-0.329652
0.136892
0.19276
0.00728663
-0.00728663
-0.0790996
0.0221265
0.0569731
-0.157612
0.0311199
-0.298131
-0.101973
-0.01941
-0.0454667
0.000693976
0.00616303
-0.00262028
-0.117147
0.325874
-0.199392
-0.126482
-0.142991
-0.0119111
0.00131442
0.00399331
0.028266
-0.0230269
-0.0052391
-0.248033
-0.0924616
0.0111581
-0.0558538
-0.00152921
0.000917467
0.213911
-0.071447
0.168097
0.13952
-0.387291
0.254506
0.132785
-0.0460214
0.0323761
0.245444
-0.339199
0.0937542
-0.0619524
0.134742
-0.00413121
-0.00095301
-0.0274843
-0.0516153
0.319608
-0.424294
0.104685
-0.000887882
-0.0648772
0.0657651
-0.320571
0.0725373
-0.189717
-0.197575
-0.00905896
-0.000438141
-0.066
0.0664381
-0.0456305
0.174131
0.364219
-0.273895
-0.0903247
-0.305874
0.142007
0.00563091
-0.00122172
-0.0518743
0.319618
0.0132146
-0.0121819
-0.00103271
-0.00302505
0.106782
0.0809965
0.122749
-0.203746
-0.259141
-0.0901699
0.0120766
0.00614256
-0.107731
0.10033
-0.000969259
-0.00202103
0.00299029
0.092952
-0.170772
-0.0414935
0.0124246
-0.00526936
0.0011833
0.00408606
-0.202626
0.150629
0.0519973
0.00264091
-0.00990193
0.00726102
0.0491531
0.00137954
0.00998699
-0.0113665
-0.00169659
-0.00466455
0.0659038
-0.0663419
-0.00460715
-0.00466502
0.00927217
-0.162234
0.127276
0.0349582
0.00150523
-0.0577605
-0.000323486
0.000132864
0.000190622
-0.320609
0.117927
0.202681
0.15073
-0.301943
0.151213
0.239403
-0.114558
0.0738165
-0.150171
0.200442
-0.121626
-0.0788153
-0.285195
0.120497
0.170605
-0.103382
-0.0672232
-0.108657
0.0249496
0.0837075
0.31591
-0.384911
0.0690003
-0.19441
0.301933
-0.107523
-0.117498
0.264025
-0.146527
0.000806199
-0.000504761
-0.000301438
-0.0325454
-0.03223
-0.16562
-0.0403389
0.205959
0.152547
-0.0728879
-0.0796588
0.0906632
-0.257783
0.167119
0.10205
-0.2421
0.0858505
0.00820158
-0.0100695
0.00186794
0.00470632
0.112444
0.110718
0.0144418
-0.12516
-0.00671128
0.00671128
0.0821363
0.223808
-0.305945
0.153879
-0.311945
-0.151799
-0.0903015
-0.00248074
0.0602318
-0.0735362
0.00629241
0.0672438
-0.000847967
-0.0499986
0.0508465
0.0297443
-0.0218892
-0.00785503
0.00314999
0.00341475
-0.00656473
-0.00875625
0.0104379
0.00245317
-0.00283911
0.048727
-0.0491068
0.000379813
-0.152969
0.277834
-0.124865
0.029799
-0.0115538
-0.0182453
-0.15338
0.299261
-0.145881
0.159957
-0.263161
0.103205
0.0127463
-0.014886
-0.175484
-0.140791
-0.00243935
-0.0321439
0.0461494
-0.0140054
-0.00484692
0.0323729
0.148729
-0.00157025
-0.147158
-0.165949
0.0932687
0.0726798
0.0995019
-0.0992814
-0.000220432
-0.0925445
0.0844452
0.00809923
0.00491348
-0.00714668
0.0022332
-0.139238
-0.181371
0.00805518
-0.0126623
-0.0138098
0.0226257
-0.00881586
-0.132761
-0.0109761
-0.0030316
0.000248152
5.96594e-05
0.000746539
-0.0658246
0.266664
-0.200839
-0.0108718
0.0108718
0.153988
-0.0253275
-0.12866
-0.341472
0.147062
-0.0214881
-0.0483266
0.0698147
0.0611478
-0.047927
-0.0132208
0.0762328
-0.268044
-0.0417373
0.208085
-0.0530941
0.174187
-0.121093
-0.0909841
0.0261218
-0.124944
0.157989
-0.0330446
0.0135205
-0.00206411
-0.0114564
-0.148838
-0.0133963
0.0102337
-0.00203217
0.0635159
-0.232817
0.148754
-0.222388
0.0736335
-0.031937
0.0104032
-0.0733462
-0.000190051
-0.0482294
0.0732216
-0.0249922
0.0456735
0.0150755
-0.060749
0.106444
-0.00916022
-0.0972833
-0.0118956
0.00405648
0.000237497
-0.0122152
0.00269987
0.0384523
-0.0411521
-0.0262582
-0.0195932
0.225853
0.146165
-0.146782
0.237181
-0.0281295
-0.0889065
-0.0047402
0.00390629
0.000833905
-0.0592164
-0.0955703
0.154787
-0.0064281
-0.00364142
0.00147031
0.00876344
-0.331882
0.162964
-0.120309
0.166761
-0.0464515
-0.243851
0.323942
-0.0800912
-0.0300835
0.0243625
0.00572101
0.124849
-0.0636514
-0.0611977
0.00711409
0.0181431
-0.0252572
0.076065
-0.00425067
-0.0718144
0.000619219
-0.000290845
0.0071708
-0.00109005
-0.0520856
-0.00299101
0.0550766
-0.327733
0.251871
0.075862
0.134021
7.73047e-05
-0.134099
0.0563564
-0.0885951
0.0322387
-0.0727801
-0.0197644
-0.00240353
0.00533819
-0.00293466
-0.179385
-0.088051
-0.00506594
-0.144171
-0.0245861
0.168757
0.00887196
-0.00623104
-0.0451895
-0.00893127
0.0541207
0.0387241
0.211856
-0.25058
0.000597872
-0.00275505
-0.00102108
-0.000508127
-0.00276185
0.0910578
-0.088296
0.177316
0.0899218
-0.00923999
-0.0806818
-0.00526936
-0.0111668
0.011486
-0.000319269
-0.131354
-0.144649
0.276004
0.0159102
-0.00559895
-0.0103113
-0.0541374
0.0774638
-0.129065
0.210062
0.00767491
-0.0492074
0.0415325
0.24426
-0.150106
-0.0590286
0.0218695
0.254154
0.0658604
-0.320015
-0.0807478
0.166305
-0.0855571
0.0917572
-0.0200777
-0.102256
0.226649
-0.124393
0.0916463
-0.271031
-0.0584546
0.0141212
-0.378794
0.151028
0.227766
-0.121997
-0.02895
0.150948
-0.345794
0.125148
0.220646
0.105782
0.0946592
0.0414656
0.0925556
0.133506
0.168427
-0.000504583
0.000181097
-0.0861807
0.192654
-0.106474
0.0754134
-0.0575221
0.00481188
-0.0179721
0.0131603
-0.0929055
0.13371
-0.0408048
0.113089
0.0294006
-0.142489
-0.0112107
-0.00793933
0.01915
0.112032
-0.267714
-0.0566935
0.0116989
0.0449945
0.154582
0.122104
-0.276686
0.209731
0.0382187
-0.24795
0.0101563
0.0438307
0.188831
-0.0169432
-0.171888
0.198603
-0.10667
-0.0919331
0.175653
-0.27526
0.0996068
-0.0105049
0.0122194
-0.00169203
0.00754052
-0.00584848
-0.0119682
0.0123053
-0.158366
0.0380571
0.345204
-0.238978
-0.0180784
0.0637519
-0.00227127
0.022055
-0.0197837
-0.197276
-0.0603359
0.257612
0.100886
0.102892
-0.203778
0.0632728
-0.18527
-0.00294561
0.0835218
-0.0805762
0.00551083
0.00301398
-0.00852481
-0.173344
0.212068
-0.234961
-0.110833
0.0665539
0.17477
-0.298327
0.123557
-0.239767
-0.0879657
-0.0202064
0.0320228
-0.0118164
0.156735
-0.104235
0.0588319
-0.0427186
0.0193851
-0.217738
0.304874
-0.146024
-0.158851
-0.127439
0.241459
-0.114021
0.00807819
0.0216661
-0.120975
0.157501
-0.0365267
-0.0701431
0.0219137
-0.231324
0.250709
0.0757981
-0.0194416
-0.107366
0.140195
0.0432698
0.0836247
-0.0430807
0.0549753
-0.0162309
-0.0572149
0.0734458
0.302688
-0.338461
0.0357734
0.032465
0.131687
0.00398399
0.00308289
-0.00706688
0.000633727
-1.4508e-05
-0.102375
0.0465787
0.0557964
-0.327911
0.250513
0.0773984
-0.00884781
-0.205429
-0.0916155
0.097564
-0.00594856
-0.0161426
0.0167533
-0.000610759
0.0175481
0.0196908
-0.0372389
0.00609114
0.0251291
0.0130447
-0.0381737
0.101657
0.00178937
-0.103447
-0.144754
0.073288
0.0714656
-0.131571
0.243173
-0.110506
0.0948687
0.0156374
-0.190311
0.0461397
-0.0724947
-0.210794
0.283289
-0.00316362
0.0107899
-0.00762627
0.0108803
-0.0763011
0.0731927
-0.0894236
0.0427298
-0.0502411
0.00751132
0.0657189
0.00969449
-0.062917
0.226802
-0.163885
-0.00773305
0.00206329
0.00566977
-0.00290609
-0.0454078
-0.0188862
0.0539345
-0.0350483
-0.042542
0.010398
-0.0602018
-0.0883377
0.14854
0.0145723
-0.101079
0.0865065
0.0187797
0.0123111
-0.0310908
0.048324
0.000402967
0.00318248
0.0291132
0.00164367
0.0142666
0.246982
-0.347915
0.100932
0.00700578
0.0215859
0.284005
0.0802148
-0.00356919
0.011542
-0.0991596
0.344604
0.0403975
-0.0681872
0.0779806
-0.0182103
0.0818967
-0.255241
-0.0771405
0.379828
-0.189321
-0.152152
0.0234303
0.0782271
0.0320931
-0.014545
0.0296626
0.0109036
-0.0405663
0.0591525
-0.122208
0.1172
-0.0937693
-0.0207596
0.0326601
-0.114658
-0.101108
0.215766
-0.000417751
0.000525659
-0.000107907
0.206504
-0.353013
0.146509
0.0239215
-0.0169738
-0.00694768
0.142716
-0.250168
0.107452
-0.00293405
0.00566099
-0.00272694
0.0363787
-0.0284621
-0.0138756
0.0423378
-0.0722082
0.0396629
0.27812
-0.374434
0.0100905
-0.0100905
-0.0737344
0.147551
0.235065
0.0190895
-0.0228936
0.0320505
-0.00915682
-0.0683775
0.228334
0.275184
-0.0686795
-0.241217
-0.0866945
0.36688
-0.147432
-0.219447
0.0855776
-0.0879839
0.00240628
-0.141121
-0.082003
0.223124
0.12025
-0.206431
-0.00262567
0.00187705
0.000748626
0.128245
-0.0409144
-0.0873302
-0.0992862
0.114185
-0.0148992
0.0184199
0.00162871
-0.000798852
-0.000829856
-0.00212448
0.00548268
-0.0033582
0.00603622
-0.000497048
-0.0280674
0.0212315
0.00683592
0.0414959
-0.0159475
-0.0255484
-0.171406
0.0469041
0.0143643
-0.0138182
-0.000546149
-0.110531
-0.115363
0.225894
0.11093
0.107705
-0.0683223
0.243976
0.00870981
0.00262105
-0.0113309
-0.131301
0.240302
-0.109001
-0.00820769
-0.0570168
0.0652245
-0.33316
0.328557
0.00460322
-0.00889099
0.0102705
0.0691397
-0.0118776
-0.0572621
-0.0729977
0.0721098
0.0856741
0.0367672
-0.122441
-0.15502
0.315868
-0.160848
-0.0935739
0.0207938
0.000802776
0.010096
-0.0108988
-0.152921
-0.107871
0.260792
0.125259
-0.196333
0.0710738
-0.0661752
-0.0248089
0.047147
-0.069805
0.022658
0.0169525
0.0245433
0.0581751
0.11243
0.00213041
-0.00425489
-0.0481126
0.128515
-0.0804021
-0.0211085
0.0276702
-0.00656161
-0.00146163
-0.0445598
0.0257567
-0.0995041
0.0737474
0.136553
-0.19682
-0.0345039
0.0421736
0.0303575
-0.0725311
-0.046053
0.0933765
-0.239924
-0.0806464
-0.229643
0.0885217
0.323382
-0.182016
-0.141366
0.0618692
0.000560973
0.000386675
-0.000947648
-0.295699
0.164344
-0.0041212
0.00989035
-0.0142149
-0.00192768
0.102785
-0.238941
-0.0688944
0.00499466
0.0638998
0.023278
0.00852568
-0.0318037
-0.353688
0.0654515
0.104707
0.0711947
-0.175902
-0.154544
-0.175108
-0.0843759
0.0360783
0.0482976
0.0171904
0.00668147
-0.0238718
-0.0850413
0.0820957
0.00954181
0.0969017
0.0123893
0.0884004
-0.10079
-0.0129276
-0.0171558
0.0474692
0.0151652
0.0303134
0.005095
0.0012914
0.00720155
-0.00403207
-0.0158519
0.019884
-0.131819
0.241534
-0.109714
-0.164581
0.0908469
-0.00747174
0.0272504
-0.0197786
0.0632091
-0.00884588
0.0789682
-0.0706964
-0.0082718
-0.0921318
-0.0183743
-0.103692
0.0379223
0.06577
-0.223619
0.28948
-0.188503
0.161017
0.0274852
0.00540031
0.0185211
0.161448
-0.281415
0.119967
0.0341753
-0.0530615
-0.316644
0.161623
0.0242679
-0.0527433
0.0127907
-0.0457719
0.0329812
0.0626385
0.000570602
-0.0905432
0.300927
-0.0404567
0.03327
0.00718667
-0.239041
0.176124
-0.135968
0.247467
-0.0920042
0.323089
0.0421235
-0.00387743
-0.00356914
-0.0460925
0.0496616
0.057243
0.115657
-0.142433
0.0688751
0.0735578
0.00868509
-0.0087918
0.000106714
0.0714949
0.122342
-0.193837
-0.00378457
0.00728482
-0.00350026
-0.13245
-0.0508295
0.0238128
-0.0224552
-0.00135754
0.0789104
-0.11175
-0.123144
0.0639275
-0.0128968
0.0380259
-0.00161733
-0.0652186
-0.0441457
0.0281982
0.0385719
-0.0504216
0.0118498
-0.0986413
0.0542668
0.0443745
0.0386314
-0.119379
0.235798
-0.123891
-0.111907
0.10716
-0.00765821
0.00289034
-0.00313004
0.000239701
-0.0111125
0.107476
-0.0963632
0.0236473
-0.0165332
-0.12485
0.00667454
0.205182
0.0126346
-0.00392476
-0.0501257
-0.0522494
0.00671554
0.000415227
-0.00713077
-0.00998016
-0.00100393
-0.0280491
0.0231936
0.00485549
0.014341
-0.0533576
0.0390166
0.00903201
-0.0431578
-0.0978405
0.0285265
0.069314
-0.0720526
0.0978092
0.133228
0.0222185
-0.155446
-0.0551735
0.0719302
-0.0167567
-0.0378906
-0.00146604
0.0690141
-0.0675481
-0.261667
0.363501
-0.101834
-0.14745
0.15846
-0.0110094
0.00422573
-0.00612415
0.00189842
-0.00637704
0.0156411
-0.0692723
0.0789896
-0.302609
-0.0248822
0.0720292
-0.0807058
0.0995295
-0.0188237
0.100904
0.0033733
-0.104277
0.0122234
-0.11151
-0.0673902
-0.0261838
0.0242433
-0.00254566
-0.0216976
0.176441
-0.0456261
0.0666405
0.00942452
0.107892
-0.0237912
-0.0841005
-0.124683
-0.19997
-0.0183363
0.0136039
-0.194372
-0.149652
0.061214
0.0107576
-0.0719716
0.00407143
0.00139552
0.000709232
-0.00210475
-0.056353
-0.0378038
-0.00930158
0.00648224
0.00281934
0.196751
-0.118933
0.10915
-0.0209265
-0.0882232
-0.0519
-0.10345
0.15535
0.121833
-0.17793
0.0560965
-0.100316
0.359021
-0.324586
0.131206
0.19338
-0.111383
0.0274669
0.083916
0.00338973
-0.00962299
-0.0274007
0.00719428
0.104497
0.0664647
0.0381193
-0.104584
0.000401596
0.00135775
-0.0338289
0.00538369
0.201523
-0.0968153
-0.146631
-0.0933464
0.239977
-0.241488
0.0885679
0.110724
-0.157558
0.0468341
-0.0913676
-0.0680425
0.15941
-0.253498
-0.0840626
0.337561
0.0812347
-0.079574
-0.00166073
0.102887
-0.0883152
-0.00205652
0.00412024
-0.00206372
-0.0968892
0.0647575
0.0321316
-0.00280488
0.00285654
-5.16557e-05
-0.0986898
0.115345
-0.0166552
0.315354
-0.233218
0.104571
-0.0301559
-0.0744155
0.0346875
-0.0427891
0.00810165
0.108547
-0.0791302
-0.029417
0.140961
-0.12733
-0.0136316
0.00883143
-0.0046057
-0.0898363
0.0124625
0.0773739
-0.315841
0.257381
0.0584594
-0.0565816
0.0530124
-0.0323057
-0.0102363
0.00207415
-0.00630122
0.00422707
-0.0132775
0.0226766
0.0619655
-0.00112883
-0.0608367
-0.00770803
0.00770803
-0.328812
0.198765
0.130047
0.0435778
-0.0408779
0.00471432
-0.00583985
0.00112553
0.0698622
0.0678881
-0.13775
-0.00678287
0.00384882
-0.00443702
0.0075104
0.234186
-0.382983
0.148797
-0.0689327
0.0551245
-0.154136
0.0734558
0.0806802
0.108482
0.0123502
-0.0266244
0.0142742
0.00190157
0.00246246
-0.00436403
0.035719
-0.0073476
-0.0283714
-0.0208302
0.00295473
0.0178755
-0.00383684
-0.00904909
0.0128859
0.164971
0.128566
-0.118285
0.0778112
0.0404742
0.10279
-0.276819
-0.0540495
-0.0209034
0.0749529
0.0153215
-0.138643
0.23832
-0.0996771
0.00479286
0.0081477
0.00772878
-0.171323
0.118229
-0.00545695
-0.0923836
0.0314697
-0.0838669
-0.00596939
0.232325
0.0441701
-0.276495
0.0315478
-0.0189038
-0.0126441
0.251003
-0.033241
-0.0389672
-0.130105
0.0498408
0.0802646
-0.00591107
0.00385455
-0.000452499
0.00334284
0.0716058
-0.0472626
-0.0243431
-0.0401643
0.157116
0.0790504
-0.322901
0.144183
-0.120961
-0.0232221
-0.219015
0.104357
-0.0197683
0.00855766
-0.0161619
-0.0505084
0.0666703
0.0810046
-0.0700111
-0.0109934
-0.0805472
-0.00529035
0.0858375
-0.0269106
0.0469317
-0.0200211
-0.305832
0.185614
0.120218
0.323836
-0.177275
-0.14656
-0.0183139
0.00450412
-0.00280839
-0.0019318
0.0709625
-0.0626136
0.00936343
-0.00444995
-0.0315084
-0.0528674
-0.238725
0.109099
-0.130543
0.110291
0.0202522
-0.227669
0.103778
-0.235423
0.083624
0.00516154
-0.00234
0.065052
-0.0592106
-0.00326365
0.000458771
0.0544578
0.0506962
-0.105154
0.00256807
0.0252242
-0.165454
0.140229
0.0126248
-0.00142521
-0.0111996
-0.029791
-0.0424994
0.0722904
0.0293028
0.0135708
-0.101069
0.0874978
-0.0260232
0.0180838
-0.000206268
-0.000211483
-0.00606127
0.143588
0.075892
-0.21948
0.0117186
-0.0054911
-0.00622746
0.00312804
-0.000271497
0.0127493
-0.345909
0.0221278
-0.0883029
-0.00363156
0.00122803
-0.129588
0.201083
0.0180536
0.00470589
-0.0227595
0.149736
-0.221936
0.0722004
-0.0968362
-0.243789
0.340626
-0.195264
0.0255791
0.169685
-0.0385802
0.0114649
0.0271153
-0.0737676
0.0185941
0.140945
-0.114033
-0.0269125
0.169189
-0.354118
0.184929
-0.140207
-0.187676
-0.00158675
0.00113406
0.000452698
0.00129516
-0.000297582
-0.0909426
-0.028821
0.119764
-0.0751297
-0.00488508
0.0800148
0.0116084
0.00627742
-0.0178859
0.285035
-0.130454
0.177467
-0.107276
-0.357361
0.0956946
-0.00254749
0.00379374
0.000918193
-0.00820006
0.00728187
0.0027274
0.040197
-0.0429244
-0.137912
0.0777106
-0.0590332
-0.0951029
-0.0373458
0.0244182
0.0481389
-0.0116938
-0.316055
0.239352
0.0767029
0.0988791
0.0277784
0.0274324
-0.0552108
-0.088408
0.131443
-0.0430355
-0.0533293
0.105837
-0.052508
-0.0201486
0.0324063
-0.0122577
-0.144173
-0.0912493
-0.0122945
0.00913093
-0.0200628
0.0144166
0.00564622
-0.122639
-0.0229449
0.145584
-0.0255605
0.0232892
-0.0117338
-0.0163336
0.087699
-0.259166
0.171467
0.0763509
0.228524
0.0179017
0.000551667
0.101563
-0.104792
0.00322866
-0.197292
0.366481
0.112214
0.0886388
-0.302874
0.214235
0.264304
-0.176605
0.044264
0.165467
-0.111202
-0.153464
0.104492
-0.0970351
-0.000990005
0.000180023
0.0492406
-0.140608
-0.0214871
-0.0282296
0.0497167
0.0018655
0.0196354
-0.0215009
0.156437
-0.268232
0.111795
-0.000595166
-0.000991588
0.174022
-0.313086
0.139064
0.00606984
0.00442611
-0.110182
-0.0647358
0.174918
-0.0892168
-0.00739809
-0.0138376
0.0330656
-0.019228
0.0432049
0.0739947
0.386952
-0.288079
-0.0988733
0.0446063
0.0269994
0.0915734
-0.320436
0.228863
-0.0805984
0.00546869
0.026584
0.00168203
-0.0428085
0.0413469
0.135687
0.249573
-0.0569626
0.0449661
0.0119965
0.110691
0.0302541
0.165419
0.0720944
0.122697
-0.162862
0.0240859
0.0804855
0.114095
-0.000800504
0.00136148
0.167389
0.00129573
0.00333958
-0.00463532
-0.0147171
-0.0105405
0.0252576
-0.156502
-0.174981
0.331482
-0.087508
0.0279494
-0.319637
-0.040297
0.0406867
-0.000389741
0.327284
0.0328254
-0.36011
-0.000228965
0.00213053
0.0142617
-0.00944981
-0.0435489
0.0166383
-0.00976523
-0.00140152
-0.078965
0.0762031
0.120289
-0.0161966
-0.105804
-0.0813511
0.187155
-0.0602755
0.0387885
-0.0416009
0.111463
-0.0199709
-0.139757
0.283176
0.0264543
-0.117704
0.0461891
0.0715151
-0.103226
0.0498971
0.168209
0.180905
-0.349114
0.101601
-0.0892119
0.0927387
-0.0259065
0.0509501
0.0387074
-0.0896575
0.0341663
0.0729512
0.0098574
0.0930421
0.190063
-0.283105
-0.088794
0.105351
-0.0165568
0.0186494
-0.00981671
-0.0088327
-0.0218901
0.0403613
-0.0184712
0.0221753
-0.00715484
-0.0150204
-0.0139975
0.0622545
-0.048257
-0.034576
0.0855262
-0.0390325
-0.0179301
0.00341154
-0.0636724
0.0602609
0.0667747
-0.0596666
-0.00710815
-0.14086
0.0397299
0.00728027
-0.0470102
0.0729521
-0.183134
-0.169401
-0.146654
0.104835
0.0377911
0.0181847
-0.0559758
-0.326414
-0.0123751
0.338789
0.0243245
-0.032673
0.209213
-0.0920568
0.0143587
-0.0362488
0.0311303
0.314729
0.00562204
0.0610588
-0.12193
0.0608713
0.26743
-0.174388
-0.00883754
8.12854e-05
-0.248421
0.35001
-0.101589
0.0101493
-0.157599
-0.0840088
0.0628582
0.0211507
0.0177576
0.063247
-0.013787
-0.0172499
0.0310369
-0.0264183
0.119901
0.038394
-0.0037065
-0.0485139
0.0652983
-0.0167844
-0.241474
0.141275
0.100199
-0.00434264
-0.00421736
0.00856
-0.0839903
0.0915361
-0.00754584
0.0032492
-0.00380307
0.00055387
0.00792785
-0.00394386
0.207926
-0.0579089
0.0925771
-0.110805
0.0316747
-0.124341
0.250911
-0.126571
-0.0318124
-0.0121594
0.0439719
0.159919
0.125116
-0.138972
0.0247226
0.0125017
-0.0372243
0.192947
0.150725
0.0226515
-0.0364385
0.000126278
0.00300176
0.216325
-0.0630833
-0.153241
-0.00635875
0.00140732
0.124394
0.204198
-0.0942129
0.0102227
-0.0805618
-0.0495435
-0.10626
-0.0263448
0.134666
-0.00143845
-0.107022
0.195128
-0.0881059
0.011379
0.00124588
-0.299151
-0.027263
0.285044
-0.125125
0.0898657
-0.116284
0.177163
0.0011619
0.0120527
-0.0600041
-0.10962
0.169624
0.116879
-0.081829
0.324022
-0.18297
-0.141052
-0.0687462
-0.000148278
0.110795
-0.0616001
-0.0566853
-0.201168
0.279013
-0.0778441
0.0520463
-0.212787
-0.00563033
-0.0796831
0.0948777
-0.0151945
-0.0197126
0.0794777
-0.0597651
0.000747754
-0.0186291
0.0178813
-0.146918
0.0720959
0.0748226
-0.205467
0.0859349
-0.191795
0.152579
0.0392161
0.0127381
0.0229492
-0.0356873
0.293534
-0.115395
-0.0579646
0.0659524
-0.0079878
0.0915798
0.124745
-0.130638
-0.110836
-0.118836
0.0304325
0.0525187
-0.141797
0.089278
-0.363266
0.109767
0.0124234
-0.0162603
0.00418057
-0.000321415
-0.0182195
0.0163956
0.00182396
-0.053434
0.0800736
-0.0266396
0.0654174
0.0117017
-0.0771191
0.139223
-0.0308224
-0.1084
-0.114739
0.0361588
0.0785804
0.00781034
-0.0220798
0.0142695
0.098211
0.0129264
-0.111137
0.0352982
-0.157937