/*--------------------------------*- C++ -*----------------------------------*\
| =========                 |                                                 |
| \\      /  F ield         | OpenFOAM: The Open Source CFD Toolbox           |
|  \\    /   O peration     | Version:  v2012                                 |
|   \\  /    A nd           | Website:  www.openfoam.com                      |
|    \\/     M anipulation  |                                                 |
\*---------------------------------------------------------------------------*/
FoamFile
{
    version     2.0;
    format      ascii;
    class       volVectorField;
    location    "250";
    object      U_0;
}
// * * * * * * * * * * * * * * * * * * * * * * * * * * * * * * * * * * * * * //

dimensions      [0 1 -1 0 0 0 0];


internalField   nonuniform List<vector> 
33474
(
(0.999207 -0.00371473 0)
(1.0095 -0.0133527 0)
(-0.232299 0.00104972 0)
(1.05324 -0.0375707 2.9057e-21)
(0.980525 0.00165481 -1.25178e-21)
(0.253485 0.0841674 0)
(1.03544 -0.0687486 -1.85928e-21)
(1.00061 -0.0130137 1.23452e-21)
(1.00073 -0.0127214 0)
(1.01436 -0.00384188 0)
(0.812315 -0.0947235 0)
(1.01348 -0.0140978 2.19456e-23)
(1.00536 -0.00808883 -5.33253e-22)
(1.00853 -0.0134007 -1.24699e-22)
(0.741659 -0.285814 1.29266e-20)
(0.681496 0.0677927 -4.87434e-21)
(0.992647 -0.0185825 2.1744e-21)
(0.687772 0.0621636 0)
(-0.187833 0.000855054 0)
(0.992493 -0.0182297 0)
(1.01008 -0.0064496 -9.66722e-24)
(0.972891 -0.0131721 9.85427e-21)
(0.961382 -0.0294839 -3.96855e-21)
(1.23541 -0.0643301 -2.39813e-20)
(0.425018 0.129483 8.36452e-20)
(0.9715 -0.015253 0)
(1.06953 -0.0196308 5.96746e-21)
(1.23443 -0.0593271 0)
(0.519529 0.0390888 0)
(0.944999 -0.0229879 -7.61303e-21)
(1.02006 -0.028856 0)
(1.01037 -0.0278479 1.3541e-23)
(1.23257 -0.0494328 0)
(1.06978 0.0181039 5.6732e-21)
(0.615318 0.151099 0)
(0.571857 0.0699562 1.39822e-20)
(0.980892 -0.0388206 0)
(0.994122 -0.00974624 0)
(0.87863 0.010649 -1.16235e-20)
(1.1841 -0.0224831 -7.23112e-21)
(1.00019 -0.000152685 0)
(0.26133 -0.00549595 -2.56737e-20)
(-0.0306214 0.0198906 1.84562e-20)
(1.00001 -0.000321336 -1.15114e-21)
(0.488687 0.0490625 -6.37227e-21)
(0.976984 -0.437837 -1.41215e-20)
(1.00005 -0.000426857 2.16065e-21)
(0.584904 0.076224 0)
(1.0272 -0.0610017 -2.11931e-21)
(1.07141 -0.169627 8.07655e-21)
(1.05187 -0.0375618 0)
(0.986258 -0.0223573 -6.95226e-21)
(0.416078 0.148872 -7.21009e-20)
(0.845011 0.0526692 3.16974e-21)
(0.980871 0.00136349 2.16437e-21)
(0.370243 0.100346 -4.88931e-20)
(0.984561 -0.0192675 0)
(1.02346 -0.0403263 0)
(-0.184395 -0.0103272 -9.30387e-20)
(-0.155567 0.00751479 1.45633e-20)
(1.02161 -0.029006 9.49693e-22)
(1.10165 -0.0253624 3.7741e-21)
(0.242527 0.00661861 0)
(1.05323 -0.0237277 0)
(0.999291 -0.00360265 -2.54761e-21)
(0.984537 -0.0198186 0)
(1.14367 -0.189256 -3.21469e-20)
(0.589167 0.052726 0)
(1.02228 -0.0291179 -2.15206e-21)
(0.552644 0.0362646 -9.35847e-21)
(1.07418 0.0102193 0)
(1.09116 0.0121763 -1.4917e-21)
(1.00004 -0.000363037 0)
(1.06131 -0.0396328 -3.84177e-21)
(1.01234 -0.0138717 0)
(0.803169 0.0710267 0)
(0.939844 -0.0174951 -1.22277e-20)
(1.01157 -0.00217237 -2.63396e-22)
(0.980577 0.00247986 1.01466e-20)
(0.982483 -0.242978 -1.70263e-21)
(0.428509 0.0304092 -1.63104e-22)
(0.97842 -0.0205407 0)
(0.317507 -0.0035752 4.69695e-21)
(1.02632 -0.00684934 7.28629e-22)
(0.804629 0.0663193 0)
(0.538566 0.0412762 4.8445e-21)
(1.16922 -0.0192392 3.06463e-20)
(-0.129473 -0.0101904 0)
(0.0479503 0.00515242 -2.33801e-20)
(1.07882 -0.0554171 7.19363e-21)
(0.4335 0.0515086 0)
(1.0018 -0.00504962 -1.64253e-22)
(0.676056 -0.0460415 4.25516e-21)
(1.01144 -0.00202639 0)
(0.966051 -0.0659774 0)
(0.985625 -0.0224372 4.0366e-21)
(1.01034 -0.00647113 -4.43513e-23)
(0.980994 0.00268247 -8.02863e-21)
(1.01725 -0.000177469 0)
(-0.230854 0.0103431 6.33505e-20)
(1.01421 -0.0039727 0)
(0.417809 0.0543312 0)
(0.231327 0.0375471 2.09959e-20)
(0.972738 -0.0141449 -6.26593e-21)
(1.11349 0.0325651 0)
(0.589876 0.0543805 0)
(1.14358 0.0280163 0)
(1.00165 -0.000226574 -1.64377e-21)
(1.03871 -0.0522792 -9.11344e-23)
(1.1409 -0.147163 4.18756e-20)
(0.873592 -0.254813 0)
(0.800543 0.0553248 0)
(0.827503 0.0516469 0)
(1.0931 0.00426388 -2.27262e-20)
(0.681498 -0.0375834 9.01862e-22)
(1.28099 -0.149472 1.51423e-21)
(0.994815 -0.00876017 3.87374e-21)
(0.979136 -0.0204663 0)
(1.05242 -0.0229069 0)
(1.01619 -0.00414747 -1.89466e-22)
(1.04477 -0.014803 3.52285e-21)
(1.05267 -0.128165 9.26877e-21)
(1.05519 -0.0217792 7.61455e-21)
(1.03887 -0.0510575 -6.26295e-21)
(1.17165 0.00182899 2.95956e-20)
(0.236005 0.00524165 0)
(0.766798 -0.170363 0)
(1.07079 0.0141632 0)
(0.329815 -0.0063422 -4.83016e-21)
(0.818943 0.0507893 0)
(1.12914 0.0306749 0)
(0.562957 0.0312888 4.45239e-21)
(0.873293 -0.401812 0)
(0.804987 -0.0942953 -7.65831e-21)
(0.944163 -0.0244302 0)
(1.03125 -0.00880339 -4.57696e-21)
(1.00158 -0.000274628 2.12772e-21)
(0.956362 0.00175051 0)
(0.964212 -0.0664875 -8.85702e-21)
(1.00151 -0.00308095 5.34037e-22)
(0.882506 0.0507717 1.60633e-20)
(0.995799 0.0492967 0)
(0.763825 0.0176828 4.63601e-21)
(1.01367 -0.0110765 -2.3916e-22)
(1.08483 0.0354394 -1.77165e-21)
(0.842496 -0.225586 -1.26186e-20)
(0.521788 -0.616659 0)
(1.01514 -0.00381617 3.65948e-22)
(1.11572 -0.0496361 0)
(1.11532 0.00523516 0)
(0.99932 -0.00372155 -5.22855e-21)
(0.962889 -0.0314448 1.61885e-20)
(1.07072 -0.0198371 -8.24046e-21)
(1.00984 -0.00786685 3.60726e-22)
(1.05137 -0.123749 -5.91255e-21)
(1.01289 -0.00304254 6.0472e-24)
(0.514707 0.0388569 2.29058e-20)
(1.07093 -0.00852188 2.4607e-21)
(0.719978 -0.0774853 2.57984e-20)
(0.228554 -0.00442631 -5.69849e-21)
(0.997436 0.000641457 4.49686e-22)
(0.75501 0.0199183 -4.58914e-21)
(-0.261197 0.00654942 0)
(1.04414 -0.0145214 2.82667e-21)
(0.261105 0.0404857 -1.85963e-20)
(1.06156 -0.126311 -5.01462e-21)
(1.01706 -0.000153725 1.96341e-21)
(0.967752 -0.152399 8.17762e-21)
(0.999391 -0.0036087 4.93832e-21)
(1.00283 -0.0105809 -1.61539e-22)
(0.776734 -0.168144 0)
(1.00059 -0.00524224 -1.34881e-21)
(1.00302 -0.0106992 1.62727e-21)
(0.821129 0.0547649 1.12204e-20)
(1.00481 -0.0291193 2.20063e-21)
(1.04296 -0.0260668 3.14746e-21)
(0.900915 0.0513204 0)
(0.951878 -0.0346873 0)
(1.17202 0.0124476 2.6473e-20)
(1.10058 -0.0362828 1.17174e-22)
(0.997179 -0.00964711 0)
(1.07152 0.0147833 0)
(0.962786 -0.032661 -2.16653e-20)
(0.82894 0.0490827 -2.30723e-20)
(1.00933 -0.0141692 3.63004e-22)
(1.13176 -0.0756899 0)
(0.840128 -0.0835404 -2.20815e-20)
(0.61459 0.0451818 0)
(-0.233676 0.00802458 8.06334e-21)
(1.00376 -0.00741537 -1.9956e-22)
(0.864865 -0.034505 0)
(1.12514 -0.246399 -9.5728e-20)
(1.01252 -0.0136136 0)
(1.13019 -0.0733135 0)
(-0.280848 0.00552311 0)
(0.988641 -0.238525 0)
(1.01994 -0.0025633 -2.15633e-23)
(0.822256 -0.05922 2.43982e-20)
(0.241583 -0.00714352 -9.30432e-21)
(0.841665 0.0515097 1.45573e-20)
(1.03087 -0.00896641 4.5671e-21)
(1.12056 0.040986 -1.43374e-21)
(1.05589 -0.128491 4.11406e-21)
(1.00448 -0.0286078 0)
(1.00149 -0.00316811 -5.7858e-22)
(1.00381 -0.00766063 2.88979e-21)
(1.12753 0.0401282 0)
(1.10398 -0.108656 4.36844e-21)
(0.862657 -0.363699 -2.60991e-21)
(1.15127 0.0136733 1.43554e-20)
(1.07723 -0.0562475 3.66238e-21)
(0.459291 -0.0123373 0)
(0.704583 0.104732 -5.90901e-20)
(0.956321 -0.125368 2.10731e-20)
(1.00725 -0.00543283 0)
(1.0658 -0.174709 -3.50065e-20)
(1.00318 -0.00623223 0)
(0.160748 0.0353825 1.31145e-20)
(1.09023 0.0117153 -5.21479e-21)
(0.86239 -0.0378836 -8.21149e-21)
(1.14986 0.0124652 -2.85042e-22)
(1.00136 -0.0051486 -1.77176e-21)
(1.01148 -0.0194982 1.83352e-22)
(0.867563 -0.263631 0)
(-0.0275467 -0.0296149 0)
(1.02849 -0.114887 0)
(0.743002 -0.270846 0)
(0.997954 -2.65087e-05 -4.80505e-21)
(0.563146 0.0313469 -4.25368e-21)
(0.625689 0.055186 0)
(1.07381 0.00530865 -4.86136e-21)
(0.599373 -0.478052 -2.23485e-20)
(0.988501 -0.00832333 5.12574e-21)
(0.525497 0.0396846 -2.03196e-20)
(0.509802 0.0403722 -5.13529e-21)
(0.997389 -0.0053377 0)
(1.01003 -0.00471905 2.6516e-23)
(1.11432 0.0330428 0)
(1.01026 -0.027234 2.23796e-22)
(-0.0880125 0.0186037 2.97129e-20)
(1.18465 -0.0425008 -3.37195e-20)
(-0.228816 0.00610693 1.17371e-19)
(1.01847 -0.0140592 0)
(1.0074 -0.00586467 -3.93916e-22)
(0.958129 -0.022938 4.96431e-21)
(1.12725 0.0394992 2.00958e-20)
(0.727215 -0.0835645 -3.15219e-20)
(0.99587 -0.0665131 0)
(0.26094 -0.067738 6.46565e-20)
(1.05385 -0.0386433 -3.06322e-21)
(1.118 0.043592 -2.87371e-20)
(0.995616 -0.00112197 0)
(0.267739 -0.00687682 2.56007e-20)
(1.20531 0.00214098 -5.19442e-20)
(1.22112 -0.0194627 -4.88815e-20)
(1.00814 -0.000546487 0)
(1.02219 -0.0161291 1.49193e-21)
(1.10093 -0.0267785 -3.65943e-21)
(0.885251 0.0495892 -8.98871e-23)
(0.260445 -0.00268811 -9.96281e-21)
(1.02811 -0.0349992 -2.48184e-21)
(0.845308 0.0471623 -2.90774e-20)
(1 -0.00142874 0)
(1.02378 -0.00670779 7.08783e-22)
(1.00658 -0.00812768 -8.38143e-22)
(0.825903 0.0799621 0)
(-0.0921245 0.0203548 2.13567e-20)
(0.996068 -0.00543521 0)
(1.05989 -0.0393855 0)
(1.14521 -0.146103 -3.69635e-20)
(1.00611 -0.0419494 -3.87194e-21)
(1.0948 -0.0335762 4.97912e-21)
(0.959098 -0.0252356 -1.14576e-20)
(0.994268 -0.00904932 0)
(0.0433657 0.0103493 0)
(0.957288 0.00227469 0)
(0.964022 -0.313398 0)
(-0.11164 0.0158147 4.6166e-20)
(0.87831 0.0137322 -1.15611e-20)
(1.03653 -0.0700659 1.93565e-21)
(1.08422 0.0347129 1.61081e-21)
(0.930412 0.00549311 -3.16343e-20)
(1.0273 -0.0624935 1.53022e-21)
(1.01366 -0.0144133 -1.51741e-23)
(1.01006 -0.0301556 -2.31314e-21)
(1.0218 -0.0161884 -2.7726e-22)
(1.00663 -0.00796079 7.5771e-22)
(0.546382 0.552536 -2.85297e-20)
(1.07024 -0.00952539 4.42105e-21)
(1.01193 -0.0315021 7.68515e-22)
(0.156911 0.00605996 3.50832e-21)
(0.995952 -0.00265902 1.18883e-21)
(1.00037 -0.000218994 0)
(0.0306129 0.00790148 7.0095e-21)
(0.346294 -0.00504345 -2.07445e-20)
(1.05238 0.0452789 0)
(0.864334 -0.0263827 0)
(0.650813 -0.348076 2.79098e-21)
(1.12941 0.0298492 1.50137e-21)
(1.12245 0.0186444 -3.93462e-20)
(1.12577 0.0405105 0)
(1.04261 0.0488141 0)
(-0.189232 0.00596438 1.58668e-20)
(0.695324 0.0295835 1.6208e-20)
(1.11947 0.0408574 0)
(1.02589 -0.00406925 0)
(0.903243 0.0139838 0)
(0.0607055 -0.00646537 0)
(0.181849 0.0389418 0)
(0.962464 -0.000295778 0)
(1.10243 -0.0359218 -2.2047e-20)
(0.932045 0.00859117 -5.78144e-21)
(1.00387 -0.000715029 -1.41151e-21)
(0.931978 0.00587119 2.72723e-20)
(0.937741 -0.0436119 -1.90194e-20)
(1.21899 -0.164644 0)
(1.01778 -0.0073315 1.33238e-21)
(1.16917 0.0120579 -1.99299e-20)
(0.993496 -0.0503544 -1.90909e-21)
(0.928186 0.0506112 0)
(1.02344 -0.00673588 1.3252e-21)
(1.02076 -0.0711211 -1.91864e-22)
(0.958065 0.00423919 0)
(1.11343 -0.0672173 0)
(1.02994 -0.00803832 4.53759e-21)
(0.853557 -0.373276 -1.20261e-20)
(1.00175 -0.00487084 0)
(0.998231 -0.0513143 0)
(1.01307 -0.00317792 -2.58869e-22)
(0.987374 -0.00425318 -3.79217e-22)
(0.969337 -0.145696 3.7138e-20)
(1.02553 -0.0563568 -2.25298e-21)
(1.00304 -0.00609586 2.72481e-21)
(0.762575 -0.017242 -8.23451e-20)
(1.00006 -0.00483709 2.22689e-21)
(1.09998 0.0465832 -4.85267e-24)
(1.17454 -0.0535544 6.8357e-21)
(1.01042 -0.00209522 0)
(-0.177849 -0.00684216 8.13368e-20)
(0.040813 -0.00950393 0)
(0.99994 -0.000692042 -1.01512e-21)
(-0.0303514 -0.0257686 1.06258e-20)
(0.99174 -0.0121723 0)
(0.869049 -0.0269186 0)
(0.875417 -0.0870414 1.93727e-21)
(1.20575 0.000391616 4.52199e-20)
(1.01943 -0.0700637 5.96689e-22)
(1.00001 -0.000470554 -7.06623e-22)
(1.06455 -0.125384 5.47487e-21)
(1.02557 -0.00410231 -6.63752e-22)
(0.99161 -0.0117654 5.32347e-22)
(0.368339 0.00619986 -8.42546e-21)
(1.0059 -0.00798727 0)
(0.429546 0.0226888 -5.49387e-21)
(0.202226 0.00686165 0)
(0.0305275 0.00400939 5.00704e-20)
(1.02611 -0.2147 4.7307e-20)
(-0.107614 -0.0032951 7.69247e-20)
(1.06648 0.0113479 -6.74982e-21)
(1.00034 -0.00943319 -3.03296e-21)
(1.12294 0.0198734 8.81974e-21)
(1.02078 -0.00304305 1.65297e-21)
(0.58614 0.0434449 9.80052e-21)
(1.01791 -0.00757202 0)
(0.979347 -0.0215363 0)
(1.22816 -0.0121667 -3.14706e-20)
(1.00789 -0.0005368 1.94991e-22)
(0.956521 -0.12848 -5.50327e-21)
(1 -5.32842e-05 0)
(-0.0251389 0.0237451 -1.41094e-22)
(1.00162 -0.00695553 0)
(1.04787 -0.123563 -1.31801e-20)
(0.634614 0.0461305 -9.5137e-21)
(0.957806 -0.0242705 0)
(0.971758 -0.0143979 0)
(0.575839 0.0320411 0)
(0.381086 0.00995932 -7.84372e-21)
(1.0077 -0.0402891 0)
(0.57477 0.559233 2.03237e-20)
(0.997447 0.000145975 6.14692e-21)
(-0.209474 -0.000480942 0)
(1.20696 -0.400312 0)
(0.980059 -0.037944 2.90331e-21)
(1.00015 -0.000144775 9.33779e-22)
(0.955573 -0.306471 2.1738e-21)
(-0.220098 0.00680376 -9.27177e-20)
(0.933545 0.00909583 0)
(1.01419 -0.0119537 -4.14099e-22)
(0.993468 -0.049203 0)
(-0.156484 0.00919638 -4.28255e-20)
(0.682765 0.054534 4.01034e-21)
(1.0098 -0.00477557 1.15947e-22)
(0.768406 -0.0210167 6.87542e-20)
(-0.0351299 0.022481 -2.03398e-20)
(1.01068 -0.0299501 1.40191e-21)
(1.00399 -0.00784153 0)
(1.00474 -0.00288875 1.97222e-22)
(0.849884 -0.223465 1.40399e-20)
(1.00088 -0.00276313 0)
(1.02615 -0.0557131 0)
(0.163383 0.00742381 0)
(1.19182 -0.406967 0)
(1.00006 -0.000403423 -1.44694e-21)
(1.10351 -0.188957 -1.72334e-20)
(1.0096 -0.00459335 -1.26151e-22)
(1.00458 -0.00284459 -8.5035e-22)
(0.352916 -0.00613938 2.8302e-20)
(1.09883 0.0440128 7.03152e-21)
(0.988067 -0.00825291 0)
(1.00002 -0.000675504 -8.111e-22)
(0.99737 -0.00513581 0)
(-0.202626 -0.00868259 7.38195e-20)
(0.999915 -0.000778581 0)
(0.406398 0.00541599 -1.60312e-20)
(1.1169 -0.0481512 0)
(1.02704 -0.0132296 -1.50982e-21)
(1.015 -0.00392922 1.03884e-21)
(0.422834 0.0290105 -1.68466e-20)
(1.05607 -0.0222056 -4.43466e-22)
(0.11452 -0.00620436 0)
(1.02753 -0.0343856 2.35726e-21)
(0.841678 0.0514688 0)
(0.197017 -0.00437321 0)
(1.02443 -0.0326487 8.4269e-22)
(0.280701 0.0310002 0)
(0.798907 0.0615725 4.57582e-21)
(0.282563 -0.133895 5.53196e-20)
(-0.179176 0.0077939 -3.34367e-20)
(1.09836 0.0432816 0)
(0.277869 0.0374671 9.48884e-21)
(1.05635 0.00596407 0)
(1.09506 0.0466645 3.65809e-22)
(0.00191273 0.00754543 1.38574e-20)
(0.997628 -0.0083201 2.01674e-21)
(1.01008 -0.00717392 0)
(0.994908 -0.00903611 -3.17597e-21)
(0.980073 -0.0215968 0)
(0.994724 -0.0188858 0)
(0.995712 -0.000907059 1.22226e-21)
(1.06734 -0.0345106 2.13858e-21)
(1.09643 0.00659376 1.98626e-20)
(1.00004 -0.00108319 0)
(1.01542 -0.0125203 0)
(1.00693 -0.0079096 0)
(-0.020649 0.00868172 -5.86946e-20)
(1.1276 0.0395249 1.77863e-20)
(1.02046 -0.0212773 0)
(1.07093 -0.0221794 -1.84047e-20)
(1.01971 -0.0107342 7.81304e-22)
(0.961317 -0.0309383 6.64276e-21)
(1.00378 -0.0286794 -5.77856e-22)
(0.266263 0.0280949 0)
(1.09408 -0.0324643 -2.91396e-21)
(0.967627 -0.00656745 0)
(0.183245 0.0035178 -1.14875e-20)
(1.00106 -0.00567813 -8.69957e-22)
(1.00732 -0.0060786 0)
(1.00347 -0.0281039 -1.66215e-21)
(1.11665 0.0441476 2.82941e-20)
(1.10301 0.0312513 2.1354e-20)
(1.07515 0.0488053 -6.96264e-22)
(0.68385 0.05241 -1.68245e-20)
(-0.202179 0.00514949 0)
(0.300341 -0.00733979 -8.31924e-21)
(-0.0917327 -0.0115109 0)
(1.01519 -0.584606 3.17595e-21)
(0.996784 1.62505e-05 -1.05891e-20)
(0.667259 0.0557959 -3.26857e-20)
(1.00178 -0.00796657 0)
(0.994514 -0.00528746 -3.09466e-21)
(0.446325 0.0256632 -1.13299e-20)
(1.00359 -0.00723231 1.77314e-22)
(0.127851 -0.00915361 0)
(-0.215678 -0.00996215 0)
(0.942474 0.0449308 0)
(0.695059 0.103475 8.09535e-20)
(1.02943 -0.0501202 -1.54087e-21)
(0.978988 -0.0413403 -1.90376e-22)
(1.11019 -0.0780883 -2.50965e-20)
(0.978557 -0.193071 0)
(-0.220215 0.00766187 -3.63216e-20)
(0.997683 -0.00806279 2.05384e-21)
(0.304164 0.0401192 1.64124e-20)
(0.576654 -0.10534 5.03056e-20)
(1.06733 0.0109638 0)
(-0.0878444 0.018896 -2.26385e-20)
(-0.0232968 0.0107675 2.74066e-20)
(0.998265 -0.00598268 0)
(0.014818 0.337618 1.49452e-21)
(1.02991 -0.0542518 1.37979e-21)
(1.01511 -0.0121944 1.03916e-22)
(0.871377 0.0344859 3.97945e-20)
(1.19653 -0.170839 -8.86811e-20)
(0.996028 -0.00245506 -1.20791e-21)
(0.996972 -0.00981174 1.41292e-21)
(1.05167 -0.011155 -8.77182e-21)
(0.905368 0.0155352 0)
(0.975279 -0.0131977 3.00818e-21)
(0.405277 0.00592383 0)
(1.05705 0.00555701 3.22221e-21)
(0.282453 0.029336 0)
(1.01838 -0.0143849 6.026e-22)
(0.993445 -0.0184413 0)
(0.786427 0.05359 3.72829e-21)
(1.10321 0.0304145 -1.44499e-20)
(1.12014 -0.24311 0)
(1.17425 -0.352208 3.58694e-20)
(1.12812 -0.0860581 1.13664e-20)
(0.360316 -0.00722125 -9.35157e-21)
(0.420454 0.0203103 1.855e-21)
(1.1242 -0.636639 3.46065e-20)
(0.706073 0.0292518 1.35264e-20)
(1.00064 -0.00542524 -5.02283e-22)
(0.993919 -0.00898655 5.94105e-21)
(1.09328 0.00305069 1.08957e-20)
(-0.138396 0.010253 2.60857e-20)
(0.975508 -0.00128468 5.51475e-21)
(0.271836 0.0292696 0)
(0.275441 0.0278216 2.24229e-21)
(1.00576 -0.00814465 0)
(1.00357 -0.0441747 0)
(1.00164 -0.00449893 1.20432e-23)
(0.652204 0.0502559 2.11604e-20)
(1.08522 0.0175374 0)
(0.517939 -0.128991 0)
(1.19957 -0.123077 2.06136e-20)
(-0.0115428 -0.00964354 -1.2382e-22)
(-0.254661 0.00695462 1.95969e-20)
(1.11852 0.0416027 -1.31014e-20)
(1.00683 -0.011933 0)
(0.967481 -0.00826966 0)
(1.11417 0.027995 -5.58206e-21)
(0.975516 -0.18923 -5.72949e-22)
(0.0529062 -0.0839527 -1.77536e-19)
(1.02553 -0.00444269 1.98912e-21)
(-0.158675 -0.000151074 0)
(0.98765 -0.0188492 0)
(0.258021 0.0278802 0)
(1.16934 0.0288996 -1.01227e-20)
(0.994002 -0.00428697 3.20406e-21)
(-0.0690137 -0.004921 -7.29114e-20)
(-0.0402088 0.0185968 1.66164e-20)
(1.12422 -0.0214649 1.06959e-20)
(1.00686 -0.00803711 7.55158e-22)
(1.13492 -0.15556 1.67422e-20)
(0.139618 -0.00247035 0)
(0.351993 0.00507979 -1.10737e-21)
(1.01135 -0.00679087 -4.83315e-23)
(0.0781928 0.422367 6.69838e-20)
(1.22473 -0.0164698 2.16849e-20)
(1.02684 -0.0128475 1.97237e-21)
(0.864331 -0.336022 0)
(1.00543 -0.0082552 -7.4916e-22)
(1.26724 -0.148803 0)
(1.00427 -0.00610366 1.93549e-21)
(1.0509 -0.0409006 3.13098e-21)
(1.07317 -0.164747 0)
(1.00197 -0.0205513 2.03884e-21)
(1.02519 -0.00449377 -1.25008e-21)
(1.03085 0.0461126 8.39498e-21)
(1.0007 -0.000284084 9.53822e-22)
(0.98173 -0.00639394 -2.55536e-21)
(1 -0.00196761 0)
(0.994774 -0.0194477 8.89175e-23)
(0.96686 -0.00866807 5.32019e-21)
(1.01572 -0.0124381 6.16041e-22)
(0.00558289 0.00967746 0)
(1.01575 -0.0183017 3.72383e-22)
(1.24111 -0.0569623 0)
(0.397863 -0.15489 0)
(1.07178 0.0186747 0)
(0.975147 -0.0111218 -3.31451e-21)
(0.471658 0.20397 4.21718e-20)
(1.00833 -0.0135956 0)
(1.1097 0.0423204 -1.48662e-20)
(1.00046 -0.0087708 0)
(1.02478 -0.00715769 6.99784e-22)
(1.03773 0.0460147 0)
(1.00891 -0.0299874 0)
(0.98083 -0.0129379 0)
(0.996273 -0.00740229 -2.5704e-21)
(0.397534 -0.00469705 -1.76649e-20)
(-0.277179 0.00115656 -6.46311e-20)
(0.393712 0.012181 0)
(1.00256 -0.0442656 1.03146e-21)
(1.00002 -0.000340088 -1.32027e-23)
(1.17201 -0.341294 -1.13759e-21)
(0.635919 0.0402113 -8.59154e-21)
(1.02418 -0.0063584 3.04114e-21)
(0.989011 -0.00909265 0)
(0.981852 -0.00585425 0)
(1.09802 -0.108109 0)
(-0.281816 0.00373888 -4.31285e-20)
(0.993783 -0.00402676 -1.85675e-21)
(0.999999 -0.00182091 -4.24072e-21)
(0.861944 -0.0299779 1.63439e-20)
(0.995857 -0.00204938 -2.17753e-21)
(1.00663 -0.0117681 6.30404e-22)
(0.708206 0.0528047 9.30581e-21)
(1.05125 -0.0365149 0)
(1.21683 -0.00852262 -3.32263e-20)
(1.02959 -0.0081886 -4.54797e-21)
(1.00154 -0.00925564 0)
(1.00283 -0.0165221 -1.71387e-21)
(0.672189 0.0519781 1.3192e-20)
(0.982145 -0.0356222 2.62647e-21)
(1.11987 -0.250309 0)
(1.02915 -0.00783979 0)
(1.11328 0.0277608 -4.57583e-21)
(1.0074 -0.0410242 7.71221e-22)
(1.03137 -0.115877 -2.68454e-21)
(0.879214 -0.0895368 3.44502e-20)
(1.17884 -0.0968102 -1.48106e-20)
(1.00001 -9.21369e-05 2.23074e-21)
(1.02417 -0.040028 -5.34439e-22)
(0.0714823 0.236043 -2.05789e-20)
(-0.0247028 -0.00776891 0)
(1.13961 -0.0345619 -4.10836e-20)
(1.00362 -0.00941231 0)
(1.02595 -0.00695848 -8.98307e-22)
(1.00311 -0.160746 0)
(0.47414 0.0170813 -1.19993e-20)
(0.67343 0.214452 0)
(1.11947 0.0415961 1.85016e-21)
(0.911779 0.0279139 2.17186e-20)
(0.931645 -0.0891392 0)
(1.0708 -0.0454564 0)
(0.996099 -0.00566831 -2.59416e-21)
(1.0341 -0.101755 -1.47731e-21)
(0.988176 -0.0186856 0)
(1.00161 -0.00523903 1.57413e-21)
(0.249243 0.237891 2.68803e-20)
(0.871185 -0.0231667 0)
(1.17439 -0.0977557 1.21704e-20)
(0.968464 -0.592206 1.88861e-20)
(1.2416 -0.0536243 -1.47549e-20)
(1.01229 -0.011316 0)
(-0.243861 -0.00826955 -1.69529e-19)
(1.03198 0.048936 3.22586e-21)
(1.14459 0.0325883 -1.23727e-20)
(0.90352 0.0466265 0)
(1.04792 -0.0419691 -4.69186e-21)
(1.10329 -0.0861904 -8.40791e-21)
(0.583188 -0.0642714 0)
(1.02976 -0.567705 2.10208e-20)
(0.645771 -0.369 4.32713e-20)
(0.0627926 0.451889 -6.77382e-20)
(1.00075 -0.0023505 3.86956e-21)
(0.61293 0.163188 0)
(1.00003 -0.0008179 -3.29013e-24)
(0.450822 -0.0112901 6.42467e-21)
(1.00092 -0.00289908 -1.40579e-21)
(1.18227 -0.0245984 0)
(1.16656 -0.0184708 -3.35409e-22)
(0.993845 -0.00375069 2.00657e-22)
(1.00002 -0.000106136 -2.22813e-21)
(1.0148 -0.0122534 2.7038e-22)
(0.933357 -0.0919836 -3.40811e-21)
(0.660162 0.215375 -6.349e-22)
(0.677907 -0.0178942 0)
(0.953424 -0.0348439 -1.00591e-20)
(0.937478 -0.0918403 -1.88977e-20)
(0.762965 0.0528362 -1.61135e-20)
(1.01013 -0.0259669 -9.53056e-22)
(-0.00878625 0.012732 -1.3829e-20)
(1.01021 -0.00768492 1.03043e-23)
(0.504161 0.0486743 6.18382e-21)
(1.00435 -0.0183578 3.74059e-22)
(0.14667 0.0373448 -2.64573e-22)
(0.67229 -0.0264686 5.55937e-22)
(0.928156 0.0369712 0)
(1.14204 0.0373463 1.96392e-21)
(1.00002 -0.000422985 -1.18332e-23)
(0.259743 0.0016716 -1.9255e-20)
(0.980276 -0.0226389 4.84087e-21)
(1.00439 -0.00624544 -2.44039e-21)
(0.725899 0.0535708 -5.59086e-21)
(0.994285 -0.00519144 2.16965e-21)
(1.01044 -0.00790964 -7.60652e-23)
(1.0035 -0.00925187 8.41594e-22)
(1.00434 -0.00296983 0)
(1.10187 0.0159699 2.43121e-20)
(1.0274 -0.0102949 0)
(1.01556 -0.0179924 -1.69261e-22)
(0.0392005 0.069362 0)
(1.09858 -0.0284114 0)
(1.08587 -0.0694059 2.00966e-20)
(1.17477 -0.159487 -3.22132e-20)
(-0.0247892 -0.0403487 -1.85398e-20)
(0.150619 0.0343627 -4.22016e-21)
(0.194286 0.00554714 7.80552e-24)
(0.631622 0.0559207 -4.78213e-20)
(0.785427 0.0558447 2.28285e-20)
(1.05147 -0.0232152 -2.20023e-21)
(0.439539 -0.00645623 -1.84031e-20)
(1.0027 -0.0202966 -1.91737e-21)
(0.98696 -0.00438123 3.91756e-21)
(0.996339 -0.00767992 -2.98473e-21)
(0.373427 0.0217242 1.79912e-20)
(1.00187 -0.0157703 -4.15119e-21)
(1.16522 0.0046056 -1.62674e-20)
(1 -0.000447493 -5.32995e-23)
(0.265852 -0.114999 0)
(1.13445 0.0314348 1.90396e-20)
(1.10605 -0.19439 1.59105e-20)
(1.07998 0.00842859 0)
(1.00218 -0.00679388 0)
(0.968436 -0.190056 3.70122e-21)
(0.345911 0.0208347 -2.20684e-22)
(1.01632 -0.0133247 -3.75733e-22)
(1.03526 -0.0239153 -2.10627e-21)
(0.908121 0.0139029 0)
(1.11864 0.0288656 1.55745e-20)
(0.776363 0.0555999 -1.42139e-20)
(1.06808 -0.0334256 -1.6577e-20)
(0.116636 0.0317463 0)
(0.958884 -0.052998 -1.86501e-20)
(0.739604 -0.26724 0)
(0.850586 -0.211627 2.44044e-20)
(0.940964 -0.0629056 -1.03776e-20)
(1.01448 -0.011888 0)
(1.0288 -0.00796778 6.04544e-22)
(0.830024 0.0646795 0)
(0.93582 -0.0428838 0)
(1.00936 -0.00465978 2.4438e-22)
(1.02696 -0.01029 0)
(1.00269 -0.00712317 2.47284e-23)
(0.830413 0.070822 0)
(0.0284017 0.0197902 3.93177e-20)
(1.01116 -0.00658377 -2.57684e-24)
(0.253403 0.106763 2.71433e-20)
(0.478358 0.0180845 1.09815e-20)
(1.01135 -0.0190551 2.18238e-22)
(1.11089 0.0321009 -1.6456e-20)
(0.604385 0.126918 0)
(1.00033 -0.000174242 0)
(0.986353 -0.0165754 -7.086e-21)
(0.997608 0.000135217 -4.52814e-21)
(0.89452 0.007595 1.36095e-20)
(0.169501 -0.733561 0)
(1.09571 -0.105533 0)
(1.13028 -0.0840976 0)
(1.05099 -0.0939631 0)
(0.671665 0.049331 -3.95627e-20)
(1.20092 -0.153414 -8.44119e-22)
(0.623148 -0.497719 0)
(-0.309669 0.00485981 -4.69576e-20)
(0.549954 0.040916 -5.20381e-21)
(1.00235 -0.0161782 -1.70897e-21)
(0.981018 -0.0226763 -4.3383e-21)
(0.717239 0.0375453 4.35089e-20)
(0.976107 -0.308842 4.24164e-22)
(1.10449 0.0294632 0)
(1.03183 -0.100636 0)
(1.03614 -0.168264 6.77639e-21)
(1.00435 -0.00595621 1.0693e-21)
(1.00187 -0.0327498 0)
(0.491921 0.0473962 1.18277e-20)
(1.00828 -0.014197 4.39274e-22)
(1.16144 0.0299028 1.31168e-20)
(1.00208 -0.00682181 0)
(0.769298 0.0248195 0)
(0.780281 -0.265866 -2.85978e-20)
(0.98319 -0.315087 -7.40541e-22)
(1.00139 -0.0053243 2.3278e-21)
(0.815655 0.050807 -8.33984e-21)
(1.01213 -0.0111319 0)
(1.01252 -0.0142188 0)
(1.01021 -0.00490684 -1.43588e-23)
(1.11375 0.0418291 -2.31785e-20)
(1.3024 -0.273332 -5.24225e-20)
(0.980547 -0.0398507 5.9999e-21)
(1.07366 -0.0718305 2.29255e-22)
(-0.293278 -0.00154235 7.78031e-22)
(1.03371 -0.025566 1.82796e-21)
(0.203897 0.0405603 2.81454e-21)
(1.02254 -0.0399212 1.80348e-21)
(0.139346 0.726303 -5.40369e-20)
(1.07523 0.010558 0)
(0.9758 -0.00176926 3.58812e-21)
(0.951742 0.0253664 0)
(1.18724 -0.04434 3.62452e-20)
(0.8407 0.0531891 1.16943e-20)
(1.00917 -0.134366 0)
(0.942574 -0.120051 0)
(1.05113 -0.041785 -7.87921e-21)
(1.00142 -0.0153101 -3.4935e-21)
(1.11253 -0.0769934 2.32302e-20)
(0.1362 -0.00612769 0)
(1.09144 -0.0334111 -1.05543e-20)
(0.503113 -0.117568 -3.20548e-20)
(0.994357 -0.00942536 0)
(0.993903 -0.00447432 -9.6436e-22)
(0.385488 0.0233228 -1.82479e-20)
(1.14009 -0.0361444 4.21243e-20)
(0.275479 -0.0039964 0)
(0.27181 0.0699874 3.03047e-20)
(0.621375 0.0507545 -3.00902e-21)
(1.02401 0.0527749 -1.08607e-20)
(1.13141 0.0395546 9.52257e-21)
(0.891308 -0.0483063 2.40783e-20)
(0.938538 -0.062837 1.05162e-20)
(1.02784 -0.0582256 -2.08599e-22)
(1.18491 -0.275967 0)
(0.855651 -0.346764 1.6326e-20)
(1.11311 0.0308753 -2.05002e-21)
(0.999999 -0.00100091 -3.62881e-21)
(1.03943 -0.0342769 5.75611e-21)
(0.180961 0.000544377 2.88923e-20)
(0.982404 -0.575791 -1.30594e-20)
(1.14559 0.0282441 -6.73683e-21)
(1.00424 -0.00573968 -1.04225e-21)
(1.11779 0.0286748 -2.78029e-20)
(1.11206 -0.071906 -8.7069e-21)
(0.98207 -0.0832877 4.46425e-21)
(1.08381 -0.0696976 -2.035e-20)
(0.965206 -0.18559 3.8562e-21)
(0.52331 0.30197 -8.89709e-21)
(1.05425 -0.0233626 0)
(1.20255 -0.119265 0)
(1.09153 0.00848276 5.79603e-21)
(1.01333 -0.0111048 0)
(0.386551 0.114248 4.29054e-20)
(0.998115 3.31387e-05 -1.69752e-21)
(0.871668 -0.0161001 7.35473e-21)
(0.47749 0.0479439 0)
(-0.00186011 -0.0633365 -2.15355e-20)
(0.964564 -0.148605 -3.58776e-21)
(-0.26918 0.00501799 0)
(1.02045 -0.0294954 0)
(1.0864 -0.0353372 -4.62407e-21)
(1.0513 -0.034457 -2.12337e-24)
(1.05028 -0.0244085 -6.70789e-21)
(0.999996 -0.00153697 -9.62024e-22)
(1.01077 -0.0144326 -6.58391e-24)
(0.964365 -0.0918901 3.73569e-22)
(0.377652 0.00739533 0)
(0.682333 0.0511771 -5.92507e-21)
(1.00159 -0.0157765 1.70094e-21)
(0.930743 0.00164187 2.78904e-20)
(0.0501196 0.00321246 4.82665e-21)
(0.636285 -0.332833 -2.80691e-21)
(0.985703 -0.0165118 7.23286e-21)
(1.01678 -0.0145715 4.07316e-22)
(1.01602 -0.0130504 3.79668e-22)
(1.07285 -0.0162595 1.3494e-21)
(1.04001 -0.0309202 0)
(1.01069 -0.00157167 0)
(1.13089 -0.00554625 0)
(1.10583 -0.08783 -1.71059e-20)
(0.116155 0.0360398 -7.90052e-21)
(0.898632 -0.101133 0)
(-0.10431 0.00861362 -2.66923e-20)
(1.07347 -0.0882323 2.05989e-20)
(1.00115 -0.00565549 4.35795e-21)
(0.934657 -0.0592936 -2.17901e-20)
(0.917384 0.0494388 0)
(1.07004 -0.0911656 1.04757e-21)
(1.01639 -0.0694565 0)
(0.23781 0.000283486 -5.60509e-21)
(1.10749 0.00522415 7.81005e-21)
(1.00462 -0.00802791 1.07575e-21)
(1.30034 -0.274879 0)
(0.927769 0.0443153 0)
(0.17371 0.0154789 1.05676e-22)
(0.552974 0.0516658 0)
(1.12132 0.0283757 3.4452e-22)
(0.201905 0.00220688 0)
(1.00328 -0.00786973 2.7239e-23)
(1.12043 -0.631237 -3.20415e-20)
(0.217196 -0.00366264 3.19566e-20)
(0.965675 -0.0163336 -2.30345e-21)
(0.17767 0.0399362 2.42841e-20)
(-0.239975 0.011786 0)
(1.0081 -0.00622113 3.60866e-22)
(1.14216 0.0265447 -2.50992e-20)
(0.962392 -0.0556684 1.01607e-20)
(1.00206 -0.0162085 9.13386e-22)
(0.694233 0.0542501 2.87614e-20)
(0.108493 0.0222795 -4.70089e-20)
(0.56663 -0.330027 4.41897e-20)
(0.461443 0.307071 -4.11477e-20)
(0.423193 0.0145012 6.84769e-21)
(1.00981 -0.0134463 7.3028e-24)
(1.08379 0.0235868 -1.12992e-20)
(1.00933 -0.0135661 2.04607e-22)
(1.00205 -0.238466 1.11966e-21)
(1.01756 -0.0707654 -3.13365e-23)
(1.00393 -0.017211 0)
(0.368152 0.00662889 8.27634e-21)
(0.286658 -0.00555199 0)
(1.05252 -0.0113974 0)
(0.89252 -0.0460729 -2.02003e-20)
(1.23837 -0.0497554 4.26515e-20)
(1.10761 0.00394071 1.07972e-20)
(0.998891 -0.0062858 0)
(0.708003 0.0542765 0)
(0.995815 -0.00228476 0)
(1.1435 0.0369121 -2.27624e-21)
(1.08281 0.0201252 4.80479e-21)
(0.1506 0.0390259 7.18274e-21)
(0.12865 -0.00460709 0)
(1.17748 0.0249916 0)
(1.00867 -0.0402444 0)
(1.00159 -0.00431214 -6.96951e-22)
(0.966839 -0.0543848 -1.13554e-20)
(1.01007 -0.0253446 0)
(0.464677 0.188675 0)
(1.09807 0.0310023 -1.89499e-20)
(1.10056 -0.297485 -1.09591e-20)
(1.12243 -0.00857586 2.99546e-21)
(0.758009 -0.249772 0)
(1.01029 -0.0139302 7.34118e-22)
(1.00183 -0.00622792 -1.71801e-21)
(0.475015 -0.0910504 0)
(-0.138097 0.00766528 2.64941e-20)
(1.17774 -0.0523331 -7.20757e-21)
(-0.249093 0.00429247 0)
(0.897139 0.00680441 1.25897e-20)
(1.0002 -0.00934455 3.53284e-21)
(1.07907 -0.0475514 0)
(1.00114 -0.015309 4.62122e-21)
(1.0028 -0.0281925 0)
(-0.145043 -0.00733714 2.64789e-20)
(1.13089 0.0317844 0)
(-0.112024 0.00663996 6.36293e-20)
(0.92968 -0.00197618 -1.12022e-20)
(0.180584 0.038289 0)
(1.03846 -0.032377 -5.72417e-22)
(0.388238 0.0263289 1.3552e-20)
(1.19963 -0.0699294 -5.6338e-20)
(0.729829 0.0572317 1.3388e-20)
(1.09825 -0.0860198 0)
(0.491364 0.207176 -7.37342e-20)
(0.0144659 0.00941205 0)
(-0.216522 0.014525 -9.30504e-20)
(1.03426 -0.00241011 -3.04588e-21)
(0.295352 -0.00532859 6.15629e-20)
(-0.120294 0.00680716 -6.55527e-20)
(1.00001 -0.000333143 0)
(0.91017 0.0155243 -1.10067e-20)
(-0.0854347 -0.0400387 1.8654e-19)
(1.03351 -0.0248131 -1.30859e-21)
(0.607923 0.0410271 -2.42713e-21)
(0.990459 -0.0108251 0)
(1.00275 -0.0031105 0)
(0.996648 -0.028472 2.18342e-21)
(0.79602 0.0536583 0)
(1.18704 -0.286275 0)
(1.06693 -0.0503909 -6.47255e-21)
(1.00001 -0.000179353 5.37218e-22)
(1.00955 -0.00779689 -2.9489e-22)
(-0.0390694 -0.0141182 1.00948e-20)
(-0.0245883 0.0299205 -1.81525e-20)
(0.959722 -0.00181285 5.80254e-21)
(1.11437 0.0116882 1.87535e-20)
(0.503671 0.0237978 4.9883e-21)
(1.00061 -0.00885254 0)