/*--------------------------------*- C++ -*----------------------------------*\
| =========                 |                                                 |
| \\      /  F ield         | OpenFOAM: The Open Source CFD Toolbox           |
|  \\    /   O peration     | Version:  v2012                                 |
|   \\  /    A nd           | Website:  www.openfoam.com                      |
|    \\/     M anipulation  |                                                 |
\*---------------------------------------------------------------------------*/
FoamFile
{
    version     2.0;
    format      ascii;
    class       volScalarField;
    location    "300";
    object      omega;
}
// * * * * * * * * * * * * * * * * * * * * * * * * * * * * * * * * * * * * * //

dimensions      [0 0 -1 0 0 0 0];


internalField   nonuniform List<scalar> 
18758
(
0.101888
6.47484
0.0214518
3.80015
6.26619
6.25201
7.2231
0.0217129
0.33711
0.0268675
0.0236008
10.2978
0.0220409
0.169411
0.023096
0.677842
0.0418191
0.0219423
0.0219265
0.0307446
7.24547
0.0222695
5.31243
2.21625
0.760077
0.0217171
1.77365
6.14465
8.82007
3.37976
0.0704346
5.41878
0.022183
0.0227081
0.148093
0.022172
0.0222267
0.0219958
0.0222649
0.0447977
0.0220051
0.0267802
0.0216476
0.0265038
1.3971
0.0216128
4.97876
0.0239197
0.0265188
0.021615
0.124323
6.2599
0.0215456
0.0234464
5.92356
8.3904
0.0222166
0.395913
0.0219456
0.195811
0.0964977
5.6811
0.124723
0.02291
0.021553
0.0220133
0.0456813
0.0221761
0.0219313
6.16109
5.8774
0.0223143
0.0216223
16.0124
0.0216858
0.0219312
0.275998
6.2478
0.0953367
4.91558
5.6658
2.88729
0.203604
6.05433
0.317726
0.0306058
23.659
0.123178
5.71183
0.0219367
5.81458
0.021947
14.7771
0.0272302
5.58155
13.4833
0.311815
0.021686
0.0218899
6.08935
0.0324953
5.49085
0.0895895
0.0469119
6.81333
1.73255
4.92567
6.41118
0.0226351
0.0222881
16.9709
12.4743
0.0217565
0.0220384
7.29003
10.2186
6.93964
0.0231172
7.6148
5.28825
0.0381213
0.0219621
10.8972
1.57259
0.526613
0.942395
5.15057
0.943462
12.1864
0.022038
0.0431441
1.47618
13.4979
0.0490406
5.10838
0.0237578
0.256461
0.0467539
0.0218874
0.0838011
0.0859078
0.228761
0.0219708
12.392
0.0220126
0.0220213
9.52575
5.98241
0.0682604
6.87241
1.79944
1.2124
0.0303044
0.0222702
4.7423
0.0283024
6.58444
0.0240497
0.022181
0.0222891
0.0218045
0.201629
19.8789
0.0221545
0.100792
8.60224
0.0219735
11.4748
0.223657
6.44013
4.83325
0.0219412
19.6095
6.16575
0.196162
1.47671
7.89127
0.022981
0.0767711
0.0221264
0.0217955
31.6515
0.61748
0.0216498
0.0252081
0.393931
0.0219098
7.95758
0.0216328
0.0219254
0.0490033
0.622902
0.0224173
0.0651491
0.0343474
0.125504
0.0314617
0.273389
0.0221492
0.0216409
0.0722531
0.0239675
0.0365573
0.0894863
0.0220375
0.0334984
0.0966858
0.0222783
7.3702
0.0272126
0.0219298
0.0498788
0.0222095
0.0368748
0.0803894
6.05529
0.079067
0.606263
0.0216366
6.35227
0.0219311
0.0226618
0.229525
7.37051
0.268682
0.0923441
0.060011
0.045819
0.0216081
0.0917344
0.0220081
0.124008
4.8802
0.336619
0.0220585
0.0219128
0.0216106
0.0216375
11.3939
0.0369495
0.0218317
0.709881
5.11423
0.0229898
6.8552
27.0697
0.305727
0.0221785
5.61823
0.0297559
0.0221518
10.7971
0.030608
0.0303425
0.0225045
0.0409732
0.411871
0.732504
0.0359093
0.0902231
0.0216664
0.0778048
0.0220327
0.0860934
0.0274525
0.231346
9.07264
0.0216381
0.0225624
0.487344
0.0225266
0.0249798
0.0881483
8.88092
9.40793
0.0219691
0.127927
25.2769
1.17738
0.022619
0.0217427
0.0292962
0.0368818
0.0219621
22.5025
0.624509
4.14281
33.9543
5.2296
0.0216278
0.0214437
0.0549786
6.91295
0.0254797
0.0897901
0.114845
0.0294856
5.33639
0.0218999
0.341623
6.15857
0.0216208
5.55661
0.0374048
0.0219458
0.0330363
0.0898353
0.022831
0.0221571
5.89367
3.52881
0.0219264
8.38179
5.32635
0.249683
0.0220197
0.022151
0.455566
0.0229528
0.0216438
0.0217715
0.0232003
0.213998
0.0908045
0.0294111
0.0359127
0.0307401
0.0500277
0.0216524
0.0222784
0.850255
0.0579911
0.134689
3.73065
0.0257166
0.0223355
0.0221115
0.309715
5.76312
0.0216203
0.0219172
0.0216223
0.0237774
0.0456927
0.799195
0.0219622
0.0221947
0.0216059
0.900582
0.259222
0.183874
0.156867
0.0229066
0.50178
0.100108
0.0370482
0.0317258
9.53707
6.42813
0.41402
0.0220467
0.0328396
7.61072
8.65284
0.0249571
0.0216334
0.0608198
0.021963
0.0308118
8.60356
3.49204
0.124441
0.0301258
6.9358
0.0219848
0.0240305
0.0218913
0.0222824
0.120097
0.0241151
6.81681
0.333032
0.0224435
0.021932
6.69373
0.120296
0.304285
0.0219868
0.0543281
0.0217312
0.0261924
0.0219617
0.0216475
8.06269
6.71217
3.50171
21.5899
0.0219084
0.260178
4.86904
0.0421386
0.0217529
3.75872
0.0217712
0.0220719
0.0217916
0.125427
0.0219519
0.0259963
0.147623
10.2462
0.0217611
6.12767
0.0491462
0.0220241
0.0257932
0.021954
0.0219193
0.0288628
0.0701922
0.0484654
14.8098
0.0386289
0.0220461
0.388432
5.90145
4.82876
4.96337
0.112416
0.0225434
0.0216479
0.0218346
0.0222532
0.12192
0.0428794
0.0322826
0.0359567
0.0304929
0.381756
0.0931536
0.0219463
0.0346987
4.74455
0.0228446
3.49353
0.0222492
0.0220826
4.5042
0.0280366
0.0225077
0.479042
0.150324
0.0520232
10.6581
0.0219385
0.0226599
0.840408
9.0035
0.0370455
0.0743125
0.176085
0.43334
21.9907
0.176563
0.0223013
0.152238
0.0220527
0.122746
0.0232069
13.0664
0.0531919
4.95145
0.0323207
0.0773967
0.0216303
2.05389
0.021628
8.43356
0.0218949
0.326951
0.0220599
0.457298
0.0314396
0.0220891
0.021895
0.0217829
5.34646
10.4165
7.33576
0.0447794
0.0245873
0.0949206
0.0222708
0.0222868
6.33137
0.0218946
0.0220621
0.115041
0.0220413
0.0706015
0.0918826
0.0220582
0.0219502
0.0279922
0.0227614
0.0287225
6.78025
0.0313693
0.0361417
0.026847
0.022051
5.02708
0.0223259
0.0226672
3.66365
10.6314
0.0744468
1.00726
0.0249156
0.0226331
6.61923
0.0219489
8.48832
0.293569
0.0220821
6.7822
0.813274
0.0622213
0.0218662
0.0556584
6.159
0.0220189
0.0218688
0.0231903
0.0227992
0.0220479
0.0216773
0.0222943
10.8202
0.0253277
8.49445
0.0219637
0.167916
8.28942
0.0220382
0.0216399
0.0252962
0.0221281
0.0226456
0.0232478
0.0221138
0.119309
0.910947
0.0215427
6.20571
5.53986
0.035937
0.150318
3.8966
0.0265052
0.0306829
0.0285731
5.99796
0.0251525
0.0451831
0.0220208
6.46296
0.0421196
0.238416
0.15661
6.87913
0.0251843
0.0219331
0.0590062
0.634387
0.0226017
0.442122
0.0222169
5.57329
0.0227043
0.0217924
0.0217797
0.0220476
5.61993
5.65864
0.0219903
0.306422
0.0303365
4.76445
7.32745
0.468784
3.2781
0.0218979
6.38057
0.0631695
0.0219685
0.0472011
6.18808
5.25902
0.0226832
0.0225879
0.0220197
0.0214858
6.19648
0.118127
6.00492
4.9506
0.0220296
0.0221407
0.0594011
0.0222795
0.0218062
0.0233314
0.0229431
0.126616
0.0417658
0.256641
6.43879
0.07348
0.0220658
0.0273957
0.119097
6.40314
0.0438802
5.54501
0.0526269
0.0220031
0.295592
4.973
0.0224935
0.021641
0.158925
5.70863
0.284532
0.0220414
8.256
31.8013
1.25674
0.0216089
6.36449
6.13792
23.5843
0.0241338
0.0221984
7.54872
0.0222946
0.213648
6.6081
0.219854
5.61151
0.0908237
5.20304
0.071931
0.0221041
0.0225553
5.81891
4.22639
7.68636
3.52478
0.0219509
0.212379
0.0222769
0.0625868
0.0907287
0.118187
0.0220876
0.0251803
0.227648
6.11453
5.42356
9.55876
0.0383408
0.0329453
0.300362
0.0222277
0.021706
0.0219548
0.025502
0.0735253
0.0220366
0.0866529
0.0218524
0.0220806
0.0219047
6.24217
0.0223236
0.0222692
0.0562239
0.0536499
0.0215488
11.3668
0.0219719
0.0217031
0.0561888
0.036111
0.0247798
0.0228612
3.80354
0.0359324
0.034714
4.90524
0.0350041
3.91209
0.026683
0.122806
27.1307
8.83604
0.0216324
6.00463
1.31593
0.0216861
5.53862
0.0220648
0.0218924
0.0397128
0.0219504
0.108207
6.28593
0.0216266
25.6023
0.0218775
0.0372817
4.22783
0.021527
5.66902
0.0236662
0.0219774
0.0219159
0.0219522
0.246132
0.0751689
11.8353
0.0755378
5.97732
0.0586243
0.0220402
0.219913
7.60657
4.5729
0.0755991
0.168612
0.0614525
0.0269747
0.205418
0.0226408
4.29206
0.0220353
5.16535
0.0227935
0.0753328
0.0281626
0.0223688
8.97182
0.0226634
0.0218137
3.50435
0.0236812
0.0219074
0.043914
0.087437
0.258921
1.49592
2.15623
5.23719
0.0221333
0.0222063
6.60698
0.0219962
0.690437
0.0978187
0.023733
0.0220613
0.0326121
0.0219899
0.0219416
0.0288307
0.661064
0.264477
0.147603
0.0634485
0.0221326
0.0605294
7.85981
0.0218598
0.0927112
0.0239805
6.23088
0.0233049
5.27285
0.0220295
1.54756
0.0222765
0.0887098
0.0219813
0.0252453
0.0298324
0.0215332
0.0216856
0.021584
5.52799
33.1906
0.0328681
5.8888
0.0220069
0.0419404
0.0280952
0.303498
5.28192
0.032996
0.0215399
0.266315
0.0218538
0.0220048
0.0282676
8.71187
9.75813
1.77047
0.515036
0.077903
0.0230548
0.0218971
3.06949
0.0218951
3.26123
0.0278339
0.0221849
6.73176
6.85126
0.0220906
9.18831
0.0276655
0.105185
0.0939114
0.791882
6.70745
0.915149
0.0219959
0.0214588
6.44312
0.0219683
0.0219304
0.0283403
0.0219807
5.1202
0.27002
0.0605871
5.28914
0.049976
0.140596
0.0238673
0.02199
0.0215375
0.0217813
9.82947
7.85497
0.306127
0.0220576
0.0215332
0.0303236
0.0218467
0.0405304
0.0256044
1.83405
6.45007
0.0856357
0.266598
0.313146
0.0218917
0.203309
0.0218993
5.30053
1.08466
6.3835
7.87272
0.0230159
0.0290507
3.12029
5.24274
7.25583
0.0457628
0.132511
5.63242
0.0220481
0.265609
1.979
0.124743
0.0220421
0.0219729
0.0416034
5.03342
2.23183
0.0945651
0.0219683
0.0248536
0.0293543
43.0015
0.0222729
0.635976
0.0218893
0.0227377
0.227384
0.0218615
0.0220239
0.0233037
0.0273467
0.0219767
0.0226715
0.0216117
1.67393
0.342433
4.91242
0.0216329
0.0497135
0.0220137
0.227564
0.319062
0.037889
0.0218926
0.0228762
0.561522
0.134723
0.0289915
7.80755
0.120824
0.0219469
0.0220276
4.05799
5.34745
0.0639108
0.0216179
0.409535
0.0221252
0.0362304
0.0216674
0.762397
4.85676
0.0218606
0.0220276
4.33799
0.0219406
6.61688
7.51208
0.0600003
0.022287
0.0221653
0.0216622
0.0220338
23.9722
7.54169
0.128308
0.0228483
5.1782
0.0219435
0.0219281
7.79505
0.0217503
6.53588
0.0215121
0.0287915
0.0235026
0.0219311
0.0218508
0.0221206
4.95838
0.0225609
0.0221941
0.149526
0.0418173
0.0219736
0.0591561
0.0365223
0.0221234
0.32687
0.021979
0.0377038
5.38982
0.0919977
0.0219541
0.294956
0.0952986
0.0883964
0.0267797
0.063594
8.87294
0.0244798
0.0599563
0.0219515
0.0215897
0.02201
0.043346
0.0371781
0.0455143
0.0218709
0.0276865
0.0635781
5.68596
0.261634
0.021922
0.0217804
0.0228187
0.0915302
0.0218116
7.71259
0.0219596
0.021966
0.021779
0.439152
5.29698
0.0221543
0.023633
0.0218841
0.100913
0.0218097
0.0219579
0.397656
0.0222704
0.0215941
0.022131
0.156527
0.0217966
0.021868
4.84398
8.80323
0.658941
0.0451577
5.43648
0.0485185
0.0219524
0.0219008
21.1619
0.0219622
0.071904
0.0886304
0.0413224
0.0267847
0.0223247
0.0303549
0.0228431
0.0216262
0.243594
6.41825
0.0441448
0.0217869
6.54986
0.04582
6.18804
14.7421
0.101449
0.0221401
0.0219564
0.021775
0.0614054
0.0221268
0.0218498
5.68845
0.135234
0.0422639
0.0219046
0.0651499
0.290146
0.0220972
0.0266326
0.0354481
0.153252
0.0762746
0.0220309
0.0233729
0.0385068
0.0218218
0.0482136
0.0223003
8.36723
0.0609662
0.140678
0.0217809
0.0369147
5.34675
3.93343
0.630752
0.0638344
9.05274
0.0221319
0.0219546
0.0226675
0.0881164
0.0221709
0.0232652
0.0307402
0.0599163
0.0220029
0.0219552
0.022007
0.022277
0.329525
3.52528
2.33595
0.0219994
7.98773
0.0299203
0.0221552
0.032436
0.0219376
0.0879632
0.0230041
0.0219661
4.6438
34.0607
5.04757
0.0223547
20.9752
0.0219654
4.9829
4.72428
0.0215348
0.0607691
0.286834
0.0216243
0.0219636
10.0247
0.0222761
0.0220216
0.174725
0.780863
0.0220277
0.0313886
0.0221492
0.0251978
0.133624
0.0221665
4.83713
0.0442428
0.0219617
0.606831
0.0581766
0.0857746
0.0222879
0.296046
0.0220611
6.27837
0.0219684
0.0217713
15.6194
0.0217018
5.24608
0.0219668
0.0546054
7.7866
6.20259
0.0220092
0.0223086
0.022031
0.0233552
0.0273269
0.0272053
0.021489
8.32202
0.0218816
0.0219691
0.155345
0.19874
0.0439391
0.0220294
5.7843
0.0912596
0.0224165
0.0352435
0.0219114
0.0217619
8.20193
0.0216337
0.021777
0.021816
5.45876
0.0218149
0.0218313
6.08983
0.0254072
5.60573
0.0328078
0.0214888
0.021881
5.7534
0.0259018
0.0220088
7.58926
5.38389
0.0217929
4.81169
0.134429
0.0219331
0.0220147
0.321807
0.0222216
0.316192
0.0334314
0.0220343
1.82775
11.8605
0.229766
0.021867
6.40985
0.0298933
0.429466
0.487099
0.0219041
8.76428
0.0220132
0.0314512
0.0259998
6.09484
0.02169
0.0223664
0.457643
0.0222729
0.0358642
0.0216963
0.0220991
5.71165
0.0875142
0.0252682
0.0352344
2.77587
0.0223151
0.0233271
0.0560668
0.137637
0.0254226
0.021953
0.0219232
0.0221471
0.0225993
0.0218487
0.0341857
0.0275907
0.7699
0.0220101
5.55077
0.021983
0.0282968
0.0219862
0.036804
0.0220762
0.021936
5.23868
4.88711
0.0240288
0.0220984
13.7039
0.0280033
15.7021
0.0366812
0.0732712
5.20787
8.76124
4.13364
0.0230372
0.0220015
0.0218043
3.93141
0.0218242
0.0220238
0.152328
0.0218546
0.0221858
0.0220678
11.0603
3.10019
0.0221824
4.81545
6.37777
0.0240118
0.0219414
0.0221674
5.0651
0.0216826
0.0936088
0.0222894
0.0219881
0.0220665
0.0217593
0.081401
0.0219773
0.0218951
0.0217808
0.021597
0.301763
0.0216119
0.0218081
0.022114
0.0219537
0.322733
0.422816
0.0576444
0.0226325
0.0220008
0.0221942
0.0222238
4.78507
0.0219312
0.0311441
0.0664787
5.04992
0.0219586
0.0219206
4.92315
0.0221272
0.0922539
0.0833329
0.0225101
4.77058
4.99944
0.0313051
7.13406
0.0284225
0.124898
0.0214872
18.7217
0.0220521
5.3515
0.0220552
0.0218403
3.63628
2.46689
0.424005
0.152318
0.0219079
6.99077
0.0221769
6.53077
0.0553576
0.0219354
0.0214882
0.0219113
0.0523027
0.0656413
6.03206
0.0407548
0.0218906
0.021924
0.0219233
10.4947
0.173121
0.0334896
0.0221459
0.0219089
0.030467
1.04207
0.0219356
0.0321955
0.0693915
0.0219329
0.0239053
0.0233273
0.0586817
0.149291
0.0243671
0.0787381
0.0215903
0.0220209
7.56726
0.0408325
0.0895014
3.06051
0.0216145
8.87774
8.25253
0.0515981
6.67279
0.0219397
4.96118
5.8633
0.106724
0.0218
9.55602
0.149933
0.0219988
0.0383876
6.2139
0.0226564
0.0219789
0.0403189
0.0222713
9.90853
0.0308234
0.0220491
0.0222825
0.02188
0.0718586
0.0322591
8.08433
0.0997885
4.97782
0.0760165
0.0222607
0.0219421
0.616303
10.6263
0.0219752
0.021901
0.154497
0.0220971
0.322873
5.07401
8.95089
0.0219523
0.0219735
6.73289
0.0217629
6.38088
0.561282
0.0217165
5.74148
0.060717
0.0748119
0.0219769
13.2806
0.022037
4.02985
0.0215087
0.0497042
0.0228203
0.0216917
8.19706
0.0227239
0.0219642
0.0234151
5.30719
0.0220838
0.021605
4.56301
0.0219026
0.0216619
0.0221229
0.025069
0.0220619
0.0221848
0.0279489
0.0221793
0.0265649
0.0215616
0.332475
6.40715
0.136421
5.21447
0.0277759
0.0263549
0.0218812
0.0218336
0.0221369
6.97968
4.86247
0.0219102
0.0222777
0.0219188
18.6
0.0215985
0.279038
0.450048
4.95745
5.16101
7.54704
5.05471
0.021637
4.79456
5.6994
4.90955
0.0257448
0.0221442
0.0418955
0.0216246
4.41606
0.128941
0.060599
0.026936
8.01634
0.0219964
0.0214594
5.23529
0.141275
0.0219833
0.0215305
0.0432219
0.0221218
13.5912
9.58611
5.91271
4.04097
0.0838572
1.77012
0.0218359
0.261683
0.0221127
0.0219586
0.0216528
5.30168
0.0221677
0.0218281
1.13164
4.97422
0.252768
0.147583
0.0229132
0.038607
10.4157
9.9537
5.05963
5.31804
0.125461
5.20889
0.211683
0.67382
0.0526496
0.0396286
0.0218836
0.0363687
0.0317707
0.022055
4.89847
0.0218022
0.0219784
0.0220049
6.61298
0.0255112
0.0218153
0.0218297
0.02197
0.139029
0.0839097
2.94569
0.0227266
6.06927
0.0215181
0.0219187
0.087379
0.0752316
0.0215032
4.90671
0.0410529
5.63714
0.021991
10.4805
0.0613001
0.0219271
0.0220621
0.0219518
5.42543
5.92119
8.9147
0.021986
0.0222646
0.0215788
5.74207
0.0285114
0.0220716
0.857286
0.0219309
0.0226483
4.91496
0.0216014
0.0219538
0.022074
0.0221461
0.0214803
0.0224202
0.0215175
0.0222703
0.0816114
0.0390057
0.0218376
7.8255
0.0238063
6.31218
9.95947
0.0513709
5.36747
5.7057
0.0218082
0.041605
0.0220307
0.0218379
4.92562
0.0258561
6.69931
0.0275544
0.127853
0.0220929
0.0233119
0.0219146
4.96585
0.0428846
5.3044
0.0220606
0.118394
0.0289697
0.0218038
0.0369295
0.0409263
0.0215477
8.07022
0.022102
0.0401433
0.0220117
0.0304975
0.0511445
0.222785
0.0265775
0.0814127
4.28991
0.0303481
0.0386664
0.021599
6.71363
0.0603459
0.0222718
0.0722519
2.60063
14.0292
0.0219717
0.0229071
0.0221729
0.0215857
0.0219274
5.0466
0.028556
0.0220838
10.135
0.0221158
0.0215919
0.0257243
6.29465
0.0221764
9.75694
4.35012
0.104857
7.6071
0.0226228
5.78517
0.372713
0.0216024
0.0288821
0.0220153
0.0223293
0.0392751
6.98211
0.059692
0.583466
0.392847
0.0218936
6.75046
0.0219081
4.66822
0.022272
26.417
3.99287
0.0221607
0.0217622
0.0222789
0.0327282
0.0861285
0.0219723
12.7611
0.022976
0.0403445
0.0733705
0.023181
0.0219059
3.55463
0.0217662
0.217783
0.0293043
17.5804
0.0221233
0.021885
4.46122
0.0214338
0.0217584
0.0225813
0.0616481
0.0521394
0.298
0.0243155
0.0217624
0.0252742
0.0222608
0.0225319
5.09136
0.0219327
0.0495965
5.43079
0.210492
0.0219514
0.090848
0.021884
0.0222086
0.32156
0.289241
0.0912761
0.0222394
0.0219513
0.0246651
0.0883356
0.0218825
0.0295178
0.0218951
0.0222456
0.021845
0.0220293
4.91537
0.0215582
10.3371
5.52369
0.0253155
0.0216837
5.15637
5.80622
0.0217676
0.0219746
13.5969
0.0222958
0.0672262
0.23276
1.02867
0.0219161
0.0228651
0.050712
0.0219845
6.71004
0.204544
0.0218082
0.0310429
0.0385093
0.0220913
0.287272
0.0221534
0.0496482
0.0229006
0.0249869
0.0215311
0.0218956
0.2635
0.0219794
5.56252
0.0652685
0.0219904
0.0219819
0.0219856
0.0218695
4.92413
0.0222733
0.181202
0.0219063
0.02184
0.0570209
6.13417
0.0217698
0.0215566
0.0219231
0.0226486
0.0302181
0.0301514
4.28807
0.0282312
0.0218421
0.15023
5.35912
0.0222714
0.0311951
4.92202
0.0352663
0.0224007
3.29926
0.0214795
7.65563
0.0415357
0.0220687
0.0792227
0.021861
0.021922
0.021922
4.15278
0.0220145
0.416835
5.37383
0.365255
0.028998
0.0219665
4.98443
0.022278
25.743
0.0217243
0.302964
0.0256935
0.0850513
0.0227069
3.66261
0.0293208
0.0222244
5.66837
6.38413
0.0215604
0.348269
0.0219901
0.0307721
0.0217405
28.7014
0.703233
0.0223448
0.0220407
5.42703
0.260632
0.0218569
0.0233906
0.022033
0.0218085
0.0217137
0.0239321
4.98044
12.8868
0.0224621
0.271851
0.0235992
0.063288
0.0220033
28.1016
5.54618
7.93699
0.0227738
5.31519
6.96576
0.0250032
0.0309195
0.0218755
0.0478262
6.28989
0.0221561
0.0217139
0.0217674
0.0274942
0.0215853
0.0219862
0.830002
0.0231458
0.164645
0.0220186
0.0219733
0.0224938
0.0220444
0.189055
12.9521
0.0217912
0.0436304
0.0215408
6.07336
0.0218151
0.0242028
5.92062
1.91868
0.0263651
4.60438
0.35771
0.0220676
0.0594445
0.022132
0.033222
0.0222336
0.0219255
0.167328
0.118192
4.81219
0.115242
0.0346975
4.54628
0.0232182
0.0414855
0.0227522
5.00132
4.84878
3.82658
0.0219503
0.021515
7.03766
5.19953
0.0221307
5.05948
0.0221394
0.027269
0.0214941
0.0218727
0.0218122
0.0218389
0.241487
0.0408546
0.038674
0.0219738
0.0220214
0.021646
0.0218264
0.0218161
0.0222615
0.0219329
5.14596
5.09417
4.90573
0.0236703
7.68362
0.0570283
6.38756
7.81998
0.0565609
0.0221153
0.0222554
0.188099
0.0224356
4.51348
8.97771
0.0226089
0.0216999
0.0302682
5.21539
0.0219985
6.21505
0.0218507
0.022101
6.62198
0.0219267
0.0286652
0.0221658
4.5513
0.0215781
0.021933
0.208255
0.0216197
0.0220583
0.0218965
0.0217003
0.06718
0.0218954
17.9208
0.0220244
0.0222157
0.0214714
7.5681
0.0340367
0.0222293
5.071
0.0220883
0.0215542
0.242511
5.06597
0.0221138
5.98069
6.61087
0.0263787
5.07691
0.0221146
0.0219586
0.0908068
0.0216712
5.1814
5.35239
0.0214875
0.0259595
0.021878
6.77348
0.465432
0.0438731
0.0221437
0.537604
0.0361542
0.0528014
0.0269803
0.0220211
0.0225296
0.0218936
0.0218096
5.90712
0.0214507
0.0218112
0.0418076
8.35712
0.0820075
6.2217
0.0220173
0.043302
0.021896
0.0219925
0.0220765
0.021762
0.0221526
0.0219143
0.0221017
0.0221722
0.0242236
0.0219994
0.0221615
0.0216436
7.3586
6.64584
0.0221844
0.0227618
5.78531
0.0222103
0.12752
4.90397
0.376357
6.6442
0.773761
6.764
6.26382
6.58024
0.0217679
0.0301647
0.0218736
0.0488324
0.0246954
0.0222236
0.0217866
8.70965
0.0216299
0.0298146
12.3175
0.0215848
0.0217293
0.0769007
0.0217019
0.0218966
0.0218807
0.022163
5.101
6.86227
0.022039
0.0219332
0.0220585
0.0228559
0.0425707
0.0228506
11.3067
0.247062
0.0221938
4.75642
0.032273
0.0219323
7.11311
0.0215915
0.0493426
0.0217744
0.0223679
0.0223939
4.82141
0.0219352
0.0219638
0.023889
0.0223218
0.030909
0.0218173
3.58683
0.0385746
0.0467593
6.93584
6.82423
0.116657
0.03291
4.90285
0.0219864
0.0220063
0.0252252
5.11341
0.0511819
0.0485544
7.59628
0.021977
2.04736
0.266715
3.58461
0.022
0.0360061
0.0218727
0.135832
0.0341434
0.49806
6.88872
0.0220162
0.0348307
0.0278549
0.0219128
0.732808
0.0219641
0.0298143
0.177936
0.0890617
0.0219467
0.0222946
0.0222286
0.0560465
0.021951
0.022173
0.0219588
0.0220789
0.0216586
0.0382885
0.0215438
0.588698
4.91167
0.0225291
0.0217542
0.0215532
0.0425602
0.0342259
0.0221263
6.27726
0.0497763
0.0217684
0.0218181
5.09642
4.87343
0.0219385
0.205758
0.0346455
0.0220107
5.42746
0.0226941
0.0735314
0.0222339
12.5174
6.78079
0.0222562
0.0352459
5.35023
0.0346371
7.70345
0.0222404
0.0256396
5.15962
6.92352
0.0255042
0.0252649
0.0225698
0.0247314
0.0228544
6.09483
4.88452
4.85369
0.0234729
0.022008
0.057795
0.0219001
0.220334
0.0249823
9.11792
0.0215731
0.022189
0.0217595
0.0219014
0.021845
0.08321
7.48641
0.0298402
0.0216199
0.0221046
9.49065
0.0236192
0.0237429
0.0221559
0.0365135
6.89317
0.0217042
0.0218586
0.0406207
0.0889521
0.0221143
0.0419783
0.0222789
0.0239448
0.130602
0.0289088
6.97314
0.821211
0.0471839
11.2107
0.0218569
0.0219026
0.0230917
6.04392
0.0232811
0.412433
0.0216579
5.23152
0.0363734
0.0218625
0.0303818
0.0223409
6.22012
0.0565625
0.0307031
0.243506
0.111732
0.0221507
0.0221999
0.0222338
0.0248948
5.21321
0.0517742
0.0221041
0.223636
0.0218554
6.08539
0.021945
5.38426
0.0295224
6.25163
0.780429
0.0567853
0.0219594
0.0220063
0.0218684
6.83177
0.0219802
0.0519636
7.39149
0.0215344
7.56676
0.0324577
0.0219541
0.0810439
0.0219134
0.0218355
5.32499
6.06453
6.19483
0.0218907
0.0217632
0.0227512
0.0243351
0.0229572
0.0219368
10.7744
0.0788323
0.35052
0.0225461
0.0425788
1.39937
1.1928
0.0305382
0.0217585
5.24191
0.0228691
5.13532
0.0218856
0.0220286
0.02198
0.0217214
0.0215266
0.02223
0.0217853
0.0366247
7.26122
0.0350819
5.00945
0.0249661
0.022209
0.0221248
0.360006
0.0220242
0.0225001
0.0220465
4.46308
4.4664
0.0217815
0.0235456
0.0218628
0.0219718
0.022278
0.022065
0.0218951
0.778883
0.0222418
0.0217964
0.14006
0.0218209
3.69277
0.0844936
0.0913093
0.234642
0.0240326
0.0220795
5.70437
0.0220782
0.0758541
0.0287264
0.0217888
0.0493682
0.0220659
5.72991
0.0216077
0.0217937
6.61909
0.0568359
9.6822
0.0217517
0.0965012
0.147705
0.0316878
4.58143
0.0218818
0.021745
0.0216175
0.0902566
0.0228701
1.69063
0.0220106
0.0409824
6.32371
0.232778
0.0220158
0.901689
0.0254835
6.5838
0.0237027
0.0234222
0.023971
4.73777
0.0219621
0.0223507
4.95245
0.0215595
0.0263076
0.0218397
0.046756
6.2595
7.44914
0.0218498
0.0952865
0.0220066
0.282418
0.0220162
0.0224145
0.0855035
21.0366
0.0391976
0.0219984
0.0258384
4.90095
0.0610675
0.0855637
5.9556
0.0220262
9.76397
0.0230002
0.152821
0.0217934
0.0251545
5.65348
0.025475
0.0219183
0.469987
6.89811
6.67757
0.0217028
4.7639
0.397282
0.0216148
0.145935
9.85222
0.0222781
0.0228157
1.7688
0.0214941
0.0224348
0.0218294
0.0220618
0.122402
0.0883841
0.0345482
5.14932
0.0222711
0.0603393
0.0294606
0.0222034
0.0234652
0.0340225
0.0220023
0.0222281
8.2145
4.85907
7.90692
0.0216769
0.0377834
0.0221362
5.02394
0.0220897
0.0409724
7.75248
5.06846
0.0673308
0.0219547
0.367772
4.50222
1.34568
0.0220014
0.022126
0.021834
6.20337
0.0379379
0.146151
5.72657
0.0220582
0.0222096
5.32622
0.0285654
0.0933797
0.0221734
0.0218805
0.0219754
1.28197
0.0220203
0.0527829
0.0216998
0.0221117
0.0217935
5.15243
5.10425
0.0239046
0.512894
0.0229865
0.659884
0.0219098
0.0218984
0.0895918
0.0220571
0.0219191
0.0252557
0.101313
0.0289796
0.133669
0.0220403
0.070853
5.56626
0.0221048
0.0220214
0.0220102
5.40974
0.0449839
0.0457059
0.0908451
0.0217763
0.0218572
0.144838
0.0259104
5.09261
8.89897
0.0362295
5.10077
4.07938
5.40309
0.0558662
0.0222868
0.0220005
0.294278
4.98525
0.0218712
0.0378159
4.77218
0.0221063
0.222219
0.982168
0.143071
0.0219165
0.0876957
0.0221255
0.0221061
0.0216224
0.842809
0.0221171
0.0516457
0.0368261
0.0219842
0.0221829
4.62797
0.021777
0.0215938
0.0472878
1.88796
0.0374355
0.0220244
0.039676
7.04891
4.86596
0.028242
6.45182
0.0847793
0.133602
0.0594244
0.0221033
0.119642
0.0328397
0.0216526
0.0217196
0.0223937
0.0258779
0.324952
5.11879
0.022218
0.396231
0.0764724
1.77854
12.723
0.288789
5.04521
0.144937
4.84302
0.050415
5.06921
0.0576824
0.0219735
0.0221072
6.19933
4.64091
0.122841
4.98825
0.0218215
6.55142
5.16005
0.022037
0.0216468
0.0373248
0.0624629
5.36165
9.89794
0.122184
0.0218731
0.02182
0.0222195
8.62222
0.0253325
4.51075
0.0245327
25.0941
0.202114
5.18079
0.0277822
5.51931
0.0218017
0.0215544
0.0260389
0.0221635
5.68357
0.135102
4.96624
0.0220538
6.05293
4.93416
0.0215466
0.0428154
5.28608
0.0441373
0.0218692
0.0262113
0.021977
5.10752
0.021457
0.0224029
5.61778
0.0292647
0.0482971
0.0273441
0.0218137
0.0221831
0.0415464
0.0220664
0.0216478
0.021834
0.0300576
5.48686
3.24146
0.0219749
0.130317
5.91313
0.0221167
7.6273
6.07381
0.0222013
10.5559
0.0220762
0.10111
5.05231
0.0219643
0.0221656
0.0222103
0.0871489
0.0261399
0.0218593
6.43288
0.0219739
6.5677
0.0220424
6.28579
4.77626
0.0250545
0.0217394
0.183354
0.0810666
0.127693
3.85824
0.0429256
0.0222047
4.40643
0.0224537
0.0814629
0.074674
0.0302496
0.061712
0.021877
0.137688
4.93073
6.03962
0.116821
0.0218781
0.227679
5.2297
0.0222722
0.180345
0.109233
1.7069
0.0219728
0.0250995
0.0215007
0.22336
6.79147
0.0850277
6.87929
0.0791032
0.0385061
5.25089
4.6689
5.10289
0.423322
8.82732
0.0702334
12.4902
0.0508369
5.65265
5.69321
0.0232688
0.0223574
0.0272285
0.0624534
0.0219989
0.0258679
0.022262
0.0242466
0.0220059
0.0218695
6.53906
5.05492
0.0222037
0.0512535
0.022106
0.0217945
0.0236406
0.0812269
0.0236559
0.099975
0.0221956
0.0428571
0.42269
0.0992394
0.0444481
0.0219767
0.107877
0.0222201
0.0219254
0.68721
0.0228658
5.36953
0.19711
0.0219305
0.0243121
4.77727
0.0220767
0.0947748
0.0595365
0.0622722
0.027155
0.0361306
0.0220133
0.0221674
5.18103
8.64467
0.0359434
0.0823826
0.022042
5.21161
0.0256688
5.8398
0.0865055
0.0221105
0.0216803
6.92152
0.143554
5.91848
0.0285966
6.14306
0.022666
5.39214
9.12432
0.0302518
0.168164
0.0218549
7.42878
0.022239
10.8208
0.0284853
4.40931
4.78957
5.02785
5.31555
0.0357316
7.95
0.178585
0.0494266
4.81727
4.65566
5.16574
0.0217128
0.0259854
0.0764021
7.9273
0.0218778
0.0217911
0.0294378
0.0610028
11.1632
0.0585229
0.0440088
0.0219287
0.122502
0.0215431
0.200761
5.17089
0.609632
0.0217776
6.97205
0.069649
0.022562
5.40993
0.415455
0.0265039
5.18237
5.11978
4.5953
0.0557095
0.0218383
0.0291233
6.86915
0.0375038
0.0219807
7.48135
0.0214942
6.88615
0.0232199
0.0221414
5.8577
5.11209
0.0218337
0.0508139
0.0219498
7.39632
0.0215066
4.45372
0.139405
0.0439064
0.0218988
0.0220055
0.0221605
0.0376031
0.0503036
0.13043
0.0291348
4.75447
0.0331372
0.0252886
6.81446
4.53691
0.0216464
0.140753
0.021963
5.25738
0.0221768
0.0433934
5.53572
0.0275642
0.0219289
5.24488
0.022303
0.0222551
0.046425
0.022278
0.021879
6.7746
0.0619366
5.49717
0.0222783
0.12325
0.0863218
0.0216456
0.0219259
0.0237748
0.0218447
5.07873
0.420425
4.48302
5.73698
4.45871
5.19708
0.0219173
0.0220149
0.0219422
0.0221621
0.101719
6.49386
0.0308772
0.0244461
5.06414
0.0222864
0.0217818
1.21785
0.134752
0.0214707
0.0219597
0.0218951
0.237584
0.0217559
0.0220192
0.166813
0.033553
0.116507
0.0238217
5.50333
6.47218
0.0214651
0.0217202
4.76823
0.0340722
0.0253796
5.31698
0.035573
0.132488
0.475034
0.0234854
0.428781
5.00139
0.0215383
0.0250257
5.03559
0.0252031
0.0220159
3.79233
0.0550138
0.054061
0.0221815
0.374729
0.0238053
5.08505
0.022038
0.021975
0.0337983
0.0658844
6.25608
0.0361896
0.0219709
24.0907
5.27874
0.0244101
0.0765502
0.0220347
0.0218968
0.0217503
4.98082
0.0218543
6.61333
0.275014
5.35167
5.77028
0.0343329
4.7069
0.0330691
6.24091
0.499385
0.122125
0.762457
0.0767667
0.100548
4.93725
0.0517354
0.0220052
0.0220618
16.6726
0.0401434
0.0229675
0.0221747
6.78071
9.15746
0.022094
4.77775
8.63296
0.0628734
0.453374
0.0413592
0.0403194
0.0411087
0.102145
5.15475
0.0275653
0.200365
0.232609
0.0217602
0.122064
0.0280899
5.55926
0.0663803
0.021962
0.238125
0.0698811
0.077217
0.561675
0.0225814
5.02013
0.223439
10.7045
6.87044
0.0221838
0.022016
0.0218833
7.34054
5.03121
0.0795422
0.166771
0.0218513
0.0217329
0.0226122
0.0790905
3.93264
0.05237
6.20467
0.0778442
0.292923
1.09799
0.0217623
0.0548209
8.7407
7.27913
6.69807
4.69346
5.3518
0.0222379
5.47194
6.26428
4.98255
1.3849
0.0219328
6.5607
0.0226352
5.09594
0.0272582
12.6425
11.8827
3.55619
0.0221567
0.0219742
0.0769494
0.0238514
0.125625
0.0222726
0.0487447
0.0484563
0.0217986
0.0220019
0.0346539
0.0219296
7.11545
0.0218859
0.0230844
6.39819
0.0643084
5.50891
0.122236
7.98564
0.0219281
0.0219756
0.0222672
5.17537
7.72791
0.0220256
0.0511269
6.28578
9.41312
0.0218871
5.9636
5.11722
0.0218077
5.27816
0.0219074
0.0414112
0.0220124
0.0591877
0.0220723
0.12894
5.40682
0.0218521
0.0221575
6.39684
0.0348794
0.0216973
0.0221116
9.18916
0.0218735
0.0221989
5.16969
10.0568
5.40459
0.091635
0.021924
5.14943
6.50738
0.903148
0.0221667
0.0876884
0.0640655
0.0219608
0.24036
0.0218045
0.0217802
0.0218349
0.056873
6.40591
5.97842
0.0426396
0.164853
0.0218794
5.33841
0.0218332
0.0279771
0.0457418
0.0233671
0.0525712
0.0370806
0.021867
0.120284
6.52938
0.057061
19.4076
8.04378
0.0609131
0.0220225
0.0250565
0.243056
0.0298806
0.0221938
0.116777
7.14553
0.0217075
6.78153
0.0286391
0.0219659
0.534403
6.8251
4.52724
0.021972
0.0268844
0.0249226
0.0541102
0.0491975
0.0218674
0.0219635
0.10556
0.906805
4.88544
0.0274974
0.0222695
0.021744
0.174091
0.0220256
5.13802
0.0222731
0.0413097
7.13303
0.221262
6.91498
0.0220532
6.98145
4.45538
6.98841
0.0220035
0.0222336
0.0525449
3.63593
0.0218084
7.0161
0.0218697
0.0214953
6.67455
0.0221837
0.0567649
0.0279807
0.0229315
0.0319139
0.0293118
0.0655952
0.047762
0.0390637
20.7888
0.181179
4.2772
0.0455043
0.0344573
0.0584951
4.74113
0.185325
0.0278136
0.0220811
6.59822
0.0227808
2.12902
0.183511
0.425264
0.0216911
6.23531
0.0220576
2.05238
0.0225804
0.800475
5.28089
0.0501307
11.7279
5.37784
7.38144
4.76224
5.98005
0.0647576
0.0219392
0.0218028
0.637898
0.0218038
0.021921
0.021989
0.0413469
0.0233855
0.0354617
7.70715
4.42316
0.132957
0.0276321
0.0274331
0.0215741
0.0255144