/*--------------------------------*- C++ -*----------------------------------*\
| =========                 |                                                 |
| \\      /  F ield         | OpenFOAM: The Open Source CFD Toolbox           |
|  \\    /   O peration     | Version:  v2012                                 |
|   \\  /    A nd           | Website:  www.openfoam.com                      |
|    \\/     M anipulation  |                                                 |
\*---------------------------------------------------------------------------*/
FoamFile
{
    version     2.0;
    format      ascii;
    class       surfaceScalarField;
    location    "300";
    object      phi;
}
// * * * * * * * * * * * * * * * * * * * * * * * * * * * * * * * * * * * * * //

dimensions      [0 3 -1 0 0 0 0];
oriented        oriented;


internalField   nonuniform List<scalar> 
27907
(
-0.0819767
0.0631148
0.0188618
-0.0591171
-0.0122719
0.071389
0.4154
-0.465803
0.0504023
0.0307272
-0.016872
-0.0138552
0.0106703
-0.00579795
-0.00487239
-0.00867877
0.00185715
0.00682162
0.00857466
-0.000246495
-0.00832816
-0.333261
0.422358
-0.0890967
0.0938389
-0.0819877
-0.0118512
-0.168399
0.0230609
0.145338
-0.0226545
0.183204
-0.160549
-0.00880747
0.00690042
0.00190705
0.0805856
-0.436427
0.355842
0.0882259
-0.100957
0.0127316
0.25994
-0.177375
-0.0825649
0.0505282
-0.0297001
-0.0208281
0.0345849
0.0925134
-0.127098
-0.0877213
0.368772
-0.281051
-0.120638
-0.136589
0.257226
0.144978
-0.121041
-0.0239368
0.000238601
0.000645873
-0.000884474
-0.430198
0.448994
-0.0187959
-0.00181695
0.000909009
0.00090794
0.0644399
-0.0858259
0.021386
0.0260544
-0.0876787
0.0616243
-0.419987
0.0867257
0.0372182
0.00629432
-0.0435126
-0.000459192
-0.00443252
0.00489171
0.0289184
0.0150897
-0.0440081
0.0743568
-0.0599748
-0.0143819
0.0901272
0.0124532
-0.10258
0.00160535
-0.00794194
0.00633659
0.47421
-0.461751
-0.0124586
-0.243786
0.124895
0.118891
-0.0979798
0.0257186
0.0722612
-0.484275
0.294226
0.19005
0.557003
-0.334945
-0.222058
0.280513
-0.135414
-0.145098
-0.153126
0.242957
-0.0898313
0.0269746
-0.124992
0.0980173
0.273665
-0.189639
-0.0840263
0.159687
-0.138736
-0.0209504
0.174408
-0.339976
0.165568
-0.118033
0.159036
-0.0410037
0.0958013
-0.0741981
-0.0216032
-0.495739
0.260687
0.235052
-0.00100244
-0.000814512
-0.152503
0.192264
-0.0397607
-0.147631
-0.0207675
-0.204083
0.399112
-0.195029
-0.0881797
0.113289
-0.0251089
0.026018
-0.017331
-0.00868704
-0.475184
0.0934678
0.381716
-0.193862
0.171208
0.00268661
-0.0031458
-0.0251089
0.080716
-0.0556071
0.29928
0.257723
0.0435568
-0.023327
-0.216429
-0.0168932
0.233322
-0.0966211
0.0286908
0.0679303
0.0553249
-0.0853632
0.0300383
0.0073442
0.00123046
-0.116856
0.110349
0.00650685
0.188609
-0.0336995
-0.154909
-0.38548
-0.0897037
0.345015
-0.189968
-0.155047
-0.0735435
0.133569
-0.0600253
0.364338
0.109872
0.146457
-0.277555
0.131098
0.00623854
0.0197795
-0.0163979
0.0121336
0.00426427
-0.121676
0.224324
-0.102648
-0.379548
0.175465
-0.0218833
0.013167
0.00871635
0.149811
-0.376781
0.226969
0.208864
-0.00912788
-0.199736
0.0914546
-0.0715371
-0.0199175
0.00449906
0.00390365
-0.00840271
-0.0802012
0.0222099
0.0579913
0.00242226
-0.00107006
-0.0013522
0.00163199
-0.00208653
0.00045454
0.0751901
-0.0562733
-0.0189168
-0.0593358
-0.0372853
0.000869981
-0.00533461
0.00446463
0.0876291
0.00382547
0.168333
-0.150044
-0.018289
0.0239583
-0.0359764
0.012018
-0.0973985
-0.0194577
0.00356483
-0.00324832
-0.000316504
-0.0473266
0.256191
0.00206855
-0.00119857
0.00204674
-0.218476
-0.00765931
0.00400285
0.00365646
0.14
0.0196866
0.00125725
-0.00217279
0.000915538
-0.00582998
-0.00182933
0.0810507
0.00657834
0.34883
-0.199018
0.121791
-0.260581
0.13879
-0.00141326
0.00165186
0.14718
-0.0209593
-0.126221
-0.000721243
0.00126976
-0.000548518
-0.0790283
-0.0264738
0.105502
0.0184192
-0.110453
0.092034
-0.00508684
0.00669219
0.049433
0.0249237
0.0730937
-0.0442325
-0.0288611
0.0103514
-0.00585232
-0.162781
-0.0335608
0.196342
0.142206
-0.241952
0.0997469
0.00363867
-0.00946865
-0.0218833
0.197091
0.216227
-0.413318
-0.15229
0.260372
-0.108081
-0.0437818
0.0380978
0.00568396
0.012061
0.00014551
-0.0122065
-0.0114866
0.0115039
-1.73106e-05
0.127421
0.132519
-0.00239226
0.00128356
0.00110871
0.00168592
-0.000428667
0.0197274
0.111674
-0.131401
-0.270219
0.239168
0.0310505
-0.0213519
0.0283526
-0.00700073
-0.0393846
-0.000936036
0.0403207
0.0187124
-0.075315
0.0566026
0.0628762
0.0329251
-0.0736738
0.0145567
-0.0654355
0.0813086
-0.0158731
0.0056098
-0.00160695
0.440011
-0.624102
0.184091
-0.0769428
0.111528
0.0614539
-0.0242357
0.00130785
-0.000661973
0.129867
-0.0528498
-0.0770167
-0.010735
0.0311971
-0.199218
0.119644
0.0795742
-0.0856611
0.0141241
0.125933
-0.0989585
0.275865
-0.154074
0.002425
-0.0469267
0.0445017
-0.0751746
-0.0050266
-0.00696859
-0.0453746
0.0523432
-0.262145
0.237181
0.0249636
-0.0631829
0.0380741
0.224836
0.0488285
-0.186392
0.277039
-0.0906466
-0.005873
0.00594097
-6.79715e-05
-0.0121846
-0.00167022
0.0138548
-0.0160205
0.106148
0.0216945
-0.0364641
0.0147696
0.0555822
0.0196079
-0.0573728
-0.00328826
0.060661
0.185931
-0.0484025
-0.137528
-0.459284
0.457339
0.00194497
0.00177966
-0.000973652
-0.000806008
-0.000862051
0.154529
-0.153667
-0.00130339
-0.00108887
-0.198128
0.0456254
0.00317007
0.166295
-0.169465
0.486238
-0.2993
-0.186938
-0.193163
0.355441
-0.162279
-0.0940937
0.0677228
0.0263709
0.0154148
-0.00956358
-0.00585121
-0.183979
0.187149
0.0838661
-0.0285412
0.0434219
-0.0145035
0.162059
0.0901136
-0.252172
0.0248982
-0.00532995
-0.0195682
0.0676099
-0.0874501
0.0198402
0.00128265
0.00792494
-0.00920759
-0.00930836
0.00825028
0.00105808
-0.321958
0.234236
0.00845699
0.0069578
-0.00244365
0.00614359
-0.00369994
-0.0373822
-0.0567115
-0.00710746
0.0715473
0.0381943
-0.0107508
-0.0274434
0.169964
0.0186446
-0.0608814
0.0633064
-0.265528
0.145558
0.11997
0.26326
-0.459937
0.196677
0.0134616
-0.0134616
0.0107069
-0.0680797
-0.181991
0.346852
-0.164861
-0.0758106
0.157361
-0.0815501
-0.00502262
-0.0604377
0.0654603
-0.31693
0.235191
0.0817391
0.010374
0.00168694
-0.217483
0.386926
-0.169443
-0.313061
0.182642
0.13042
0.0660854
0.0637812
-0.0789079
0.0134724
-0.0310342
0.209183
-0.178148
0.0950416
-0.111062
-0.0478332
-0.0533679
0.101201
-0.11773
0.0203316
0.126401
0.018577
0.104479
-0.0368692
0.534915
-0.30144
-0.233474
-0.185165
0.359574
-0.0272415
0.0745688
-0.0473273
-0.177381
-0.0207475
0.135905
-0.149839
0.0139342
0.08477
-0.104294
0.019524
-0.300886
0.381472
-0.120613
0.0727802
0.0765905
-0.107117
0.0305262
-0.529683
0.0703994
0.00204461
0.000375389
-0.00242
-0.170891
0.0232598
-0.162247
0.380948
-0.218701
-0.088349
0.106768
0.0620335
0.147988
-0.210022
-0.11862
0.135512
-0.0168922
0.0526529
-0.0733686
0.0207157
0.00107293
-0.00246794
0.00139501
-0.0244841
0.077137
-0.0221103
0.0422273
-0.0201171
-0.0904592
0.326146
-0.235686
-0.00133621
-0.00734256
0.206525
-0.200352
0.0375714
0.0969656
-0.036415
-0.0605507
-0.00479731
-0.00107569
0.0191708
0.0571864
-0.0763571
0.105431
-0.0288404
-0.0799589
0.121882
-0.0419233
-0.0836427
0.109976
-0.0263337
-0.357688
0.293756
0.063932
0.0718104
-0.109036
0.0372255
0.245153
0.099862
-0.0221387
-0.0955913
0.00196489
-0.00163487
-0.000330023
0.0909457
-0.00989492
-0.00540354
-0.431024
-0.187927
-0.129003
-0.263122
-0.0945655
0.475032
-0.281572
-0.193459
0.0117554
-0.0331072
0.165359
-0.104041
-0.061318
-0.210093
-0.074065
0.284158
0.0245524
-0.0834378
0.0588853
0.0168209
0.0562727
-0.220111
0.043621
0.17649
0.0406083
-0.0189138
-0.00498691
-0.00339139
0.0083783
0.0826662
0.00827948
-0.278314
-0.205961
-0.00210317
0.00171135
0.00039181
0.126518
-0.00406976
-0.122448
-0.364398
0.0415861
0.322812
0.0254081
-0.000509892
0.0237536
0.14458
0.0908703
0.0356472
-0.0774058
0.201486
-0.12408
-0.0553912
-0.0627645
0.118156
0.0823693
-0.0194395
-0.0629298
0.0147979
-0.0369082
-0.113938
-0.00468215
-0.0881402
0.0605733
0.0275668
-0.118817
-0.1637
-0.134898
0.0509314
0.083967
-0.306959
0.335367
-0.0284074
0.104333
-0.019563
-0.141419
-0.0294718
0.0445792
0.0523865
0.0112464
-0.000502354
-0.010744
-0.339699
0.249239
-0.0386027
0.202555
-0.163952
-0.0703869
0.0716397
-0.00125278
0.162382
-0.200985
0.107834
-0.183644
-0.0324836
0.0228892
0.00992785
-0.032817
-0.0125369
0.0010503
0.140102
0.097422
-0.237524
0.0261533
0.0788394
-0.104993
0.017535
-0.00278466
-0.0147504
-0.0769174
0.0206441
0.211202
-0.179409
-0.0317931
-0.189617
-0.107785
0.297402
-0.176412
0.102467
0.0739446
0.0949877
0.070371
-0.221513
-0.0406317
0.0160885
0.0014465
0.0826478
-0.0580954
0.024641
0.0256453
-0.0502863
0.00130785
0.000962454
-0.373055
0.192969
0.180086
0.0147321
0.400668
0.031418
-0.095917
0.064499
0.00609277
-0.00501984
0.152374
-0.112116
-0.0402584
-0.0659303
-0.0857818
0.106981
-0.0211995
-0.0550722
0.153224
-0.0981522
-0.000471179
-0.268287
0.147649
0.0821545
-0.039467
-0.0426876
-0.00405195
-0.325117
-0.170622
-0.00948953
-0.013243
0.0227325
-0.0899001
0.119315
-0.0294152
-0.122042
0.268499
-0.177845
0.0709681
0.106877
-0.0811546
0.107036
-0.0258812
-0.219898
0.202766
0.0171323
-0.367958
0.00356079
0.00840149
-0.00972208
0.0013206
0.0665399
-0.0418989
-0.367112
0.216648
0.150464
0.00713006
-0.00888806
0.001758
-0.000461437
-0.0600071
0.0791778
-0.291896
0.305193
-0.013297
0.440011
0.0535372
-0.0731107
0.0195735
-0.0524793
-0.167632
0.135801
-0.317792
0.109405
-0.237553
0.128148
-0.120912
0.213107
-0.0921946
-0.0671478
-0.0203023
-0.112232
0.0310772
-0.0899615
-0.0864505
-0.0022062
-0.101835
-0.139906
0.0188648
0.00478691
0.0612985
0.174413
-0.293229
0.324222
0.162016
0.0292708
0.0520378
0.00606806
-0.0904649
0.0843969
-0.0561951
0.0823485
0.0210487
0.0096785
0.0604653
0.0919088
-0.218236
0.187202
0.427753
-0.588879
0.161126
0.0485607
0.0335938
0.0209608
-0.0304503
-0.384777
0.121655
-0.190826
0.398437
-0.207612
-0.283405
-0.101372
-0.117607
-0.0816106
-0.098673
0.0150303
0.082211
-0.0561566
-0.0978235
-0.172395
0.256483
-0.138252
-0.118231
-0.382833
0.209988
0.172845
0.0459986
0.00452965
0.0505302
-0.0574988
0.0936653
-0.0292928
-0.0643725
0.0301495
-0.0867204
0.056571
-0.251952
0.196852
0.0550998
0.0667756
0.0114929
-0.0782685
0.00390882
-0.0858855
0.0406412
0.0995182
-0.140159
0.0163324
-0.109618
0.0932853
-0.00752392
-0.00276054
0.00421409
-0.00145355
-0.0628638
0.0578412
0.352921
0.0872269
-0.440148
0.130743
-0.142864
0.0121208
0.00536015
-0.0621342
0.0567741
0.0281249
-0.00523573
0.00604231
0.139988
-0.146031
-0.215636
-0.157419
0.110077
-0.00768086
-0.102396
0.268979
-0.192561
-0.0764177
0.0341203
0.108868
-0.142988
-0.0535597
-0.00540717
0.0589669
0.016576
-0.024076
0.00749996
-0.0778503
0.0911419
-0.0132916
-0.116815
-0.0230903
0.00991651
0.00132988
-0.263589
0.0299318
0.233657
0.0301334
-0.207514
0.125606
0.135807
-0.261413
-0.239588
0.0864619
0.0247692
-0.0937921
0.0690228
0.171394
0.00183799
-0.173232
0.00796853
-0.000838474
0.0720805
-0.0414582
-0.0306223
-0.189529
0.112123
-0.202167
-0.164944
-0.00192141
-0.00865519
0.0105766
-0.0889294
0.0110791
0.0372223
0.0566166
-0.0158293
-0.24776
0.087587
0.022988
-0.110575
0.117992
-0.307609
0.160327
-0.0277885
-0.132538
0.163835
0.0753339
-0.166676
-0.173022
-0.0083258
0.0103279
-0.00200208
0.000376146
0.00166847
-0.0628694
0.0267403
0.0361292
0.027597
-0.260009
-0.232296
0.492305
0.006811
0.0715271
-0.0783381
0.00255278
-0.00716895
0.00461618
0.0576136
-0.113005
0.397857
-0.200766
-0.0035092
0.0245579
-0.140947
-0.132028
0.272974
-0.278805
0.181592
0.0972129
0.429889
-0.166629
0.0751783
-0.0504091
0.153103
0.113299
-0.266402
-0.154711
0.0366788
-0.0547891
0.0849385
0.00658435
-0.0241582
0.0175738
0.251345
-0.14194
0.00378341
0.00688693
-0.0959963
0.131199
-0.0352029
0.095852
-0.387748
-0.0299166
0.164734
-0.134818
-0.267617
0.140104
0.127513
0.190123
-0.138937
0.0838646
-0.0841619
0.118946
-0.0347842
0.0820802
-0.0772933
0.00164883
-0.00663574
-0.075358
0.0950854
-0.365454
0.200219
0.165235
-0.00605916
-0.0643278
-0.0408592
0.0304554
0.0104038
0.012035
0.02793
-0.0399649
-0.00626358
-0.00304478
0.0223541
-0.0956861
0.0733319
0.217004
-0.176578
-0.0404257
0.191529
-0.358205
-0.360538
0.150445
-0.120721
0.182755
0.067341
0.0238009
0.0248687
0.100858
-0.125727
-0.14292
0.144805
-0.0018847
-0.117041
0.0271411
0.0358863
0.00492234
-0.0648444
0.0599221
0.0264027
-0.17294
-0.0946773
-0.136068
0.133862
0.00224408
0.00132075
-0.215801
0.0300299
0.185771
-0.00311776
0.0196938
0.427753
-0.414503
0.22942
-0.00121747
-0.0153419
0.0165594
-0.120134
-0.0142719
0.134405
-0.163894
-0.0459735
0.209868
0.0744659
0.00790339
-0.0910393
-0.00694057
-0.0527721
0.0841902
0.00713953
-0.00152973
-0.161272
0.152144
0.192982
-0.0317227
-0.16126
0.0125272
-0.00092886
0.00782928
-0.0208242
-0.064029
0.0848532
-0.103739
0.0995415
0.004198
0.0778712
0.0103548
0.0655665
-0.0606442
-9.09476e-05
-0.0122876
0.0123785
-0.0722667
0.090416
-0.212092
0.116025
-0.0328169
-0.0832084
-0.229773
0.0774827
0.0968252
-0.0294842
0.0761233
0.136957
-0.21308
0.00487532
0.00226421
0.108232
-0.0206453
-0.0693812
0.0747413
-0.141266
-0.00165489
0.00212041
0.0893351
-0.0914555
0.149915
-0.0437603
-0.0420656
-0.176967
-0.202581
-0.00390072
0.00114018
0.255743
-0.130137
-0.0403096
0.0743228
-0.0340132
-0.44624
0.142669
0.30357
0.062137
-0.0732369
0.0110999
-0.1108
0.14492
-0.444968
0.281363
0.163605
-0.0728901
-0.187691
0.223079
0.20681
-0.0436674
-0.00554766
0.049215
-0.00555378
-0.00178191
0.00733569
-0.0200279
-0.0237539
-0.103313
-0.0175433
0.120856
0.0421654
-0.16297
0.120805
0.091643
0.0153929
-0.280968
0.515519
-0.234551
-0.417367
0.0304227
0.386944
0.0203032
-0.0140638
-0.00623947
-0.255374
0.182484
0.2284
0.116577
-0.344977
0.00725301
-0.0930348
-0.114091
0.467012
-0.0148938
-0.0888457
0.103698
-0.012055
-0.0780203
0.30642
-0.119977
0.27308
-0.00278015
-0.108011
0.110791
-0.169294
-0.0465071
0.125488
-0.12635
0.040713
-0.000104716
-0.00327416
-0.116036
0.11931
0.0778981
-0.0987223
0.00889702
-0.138554
0.129657
-0.260637
-0.104817
-0.0385698
0.0135798
0.02499
-0.173467
-0.0229244
0.196392
0.140098
-0.190067
0.0499686
-0.0482009
0.0610093
-0.0128084
-0.0111133
-0.00198542
0.0130987
-0.0926302
0.0947506
0.0703445
-0.0314755
-0.038869
0.122962
-0.11692
-0.0602541
0.00204298
-0.0131563
0.276509
-0.11445
0.00111236
-0.00966843
0.00855606
-0.0805135
0.0402039
-0.330549
-0.0326217
0.36317
0.0403581
0.000354944
-0.0121323
0.0160429
0.0940343
-0.251164
-0.228333
0.479497
-0.0890113
0.0950794
-0.00717456
-0.0165967
0.0237713
0.0908738
0.137273
-0.286565
0.149291
-0.207165
0.0297893
-0.168309
-0.0515897
0.0353662
-0.221759
0.465097
-0.445424
-0.0196732
0.0588238
0.0356172
-0.0290329
-0.170562
0.178148
-0.00758647
0.0323834
0.0110385
-0.277786
0.162384
0.115402
-0.0916215
0.105212
-0.0135907
-0.0658316
-0.00839361
-0.298566
-0.402648
0.109093
-0.169887
0.0607943
-0.519821
0.245654
0.274167
0.17719
0.0340118
-0.18641
0.049517
0.136893
-0.102456
-0.163072
-0.0753646
0.102043
-0.0266782
0.0073627
0.0386359
-0.171855
0.37308
-0.201226
-0.0145629
0.0229585
-0.00839565
-0.00111356
-0.000783473
0.00189703
0.132424
-0.0434732
-0.0889512
0.054359
0.0616662
-0.0150649
-0.0478046
0.0215906
-0.131698
0.128423
0.119981
0.0306904
-0.150671
-0.00949537
-0.0069025
-0.176634
0.00607201
-0.0095
0.105733
-0.096233
-0.267727
0.108851
0.158876
-0.00667215
-0.0107088
0.0173809
0.0682588
-0.127266
0.0590075
0.0796792
-0.029149
0.0691093
0.0209656
-0.0900749
0.00738285
-3.86487e-05
-0.0675407
0.155784
-0.267035
0.111251
-0.100925
-0.0119484
0.112873
-0.0873441
0.0740537
0.0132904
0.0375954
0.0814594
-0.0627471
-0.220462
0.0528254
0.167637
0.0552593
-0.0384384
-0.190807
-0.00578885
0.196596
0.157115
0.120117
-0.277232
-0.18537
0.408449
0.381122
0.105628
-0.48675
-0.00256067
0.000139124
0.00242155
0.043708
0.0115514
0.233482
-0.249312
-0.0616301
0.0711628
-0.00953265
0.141028
-0.108179
-0.0328497
0.0402646
-0.0282296
-0.00673715
0.00118338
-0.00783916
0.0613764
0.0565656
0.0196722
-0.0762378
0.0248815
-0.192627
0.167745
0.00518789
-0.0096204
0.113277
-0.0182352
-0.0876191
0.237975
-0.150356
-0.122323
0.0487796
0.00297225
0.0140116
-0.0152291
-0.1504
-0.0933856
-0.159201
0.00487618
0.154325
0.235376
-0.0899765
-0.1454
-0.443068
0.014653
0.428415
-0.0100078
0.0134706
-0.00346274
-0.0813167
0.101865
-0.020548
0.00244806
-0.00261666
0.00516944
0.146314
-0.242787
0.0964734
0.250543
0.284371
-0.0191232
-0.102924
0.122047
-0.0702354
-0.359963
-0.325757
0.132594
-0.0273315
-0.159078
-0.148628
0.203277
-0.054649
0.0349847
0.127566
-0.0593077
-0.0437138
0.102504
-0.0587902
-0.00570218
0.0117605
-0.00605835
0.0955277
0.00401381
-0.327045
-0.119195
-0.0131
-0.107034
-0.000954794
-0.0845784
0.0855332
0.0195135
-0.0131151
-0.00639838
-0.122886
0.113386
0.0729557
-0.0683893
-0.00456647
0.0281153
-0.126254
0.0981382
-0.00175199
0.235234
-0.069139
0.00750888
-0.048254
0.0480294
0.000224615
0.0323311
0.176852
0.0653304
-0.264438
0.199107
0.065279
-0.0291121
-0.036167
0.00134731
0.0607653
0.424221
-0.0430984
0.00382364
0.000390445
5.1796e-05
-5.1796e-05
-0.0829222
-0.00442189
0.202967
0.196145
0.0056535
-0.00566216
8.65669e-06
-0.00890686
0.0070409
0.00186596
-0.0275194
0.140999
0.030395
-0.447392
0.271123
-0.0410079
0.0369318
0.00407614
0.317653
0.158538
-0.0942836
0.0635552
0.0307284
0.00910623
-0.00799387
0.0649381
0.0188354
-0.0837736
0.00161797
0.00576488
0.0241163
0.0844183
-0.108535
0.000788971
-0.00191808
0.00112911
-0.116304
0.0321424
-0.233108
0.198212
0.0348966
0.0494822
-0.208683
0.00900385
-0.0089719
-3.19533e-05
0.0325475
-0.00199163
-0.0305558
-0.000505373
-0.0127802
-0.0112958
0.13992
-0.0412467
-0.0530369
0.152504
-0.433472
-0.118594
0.0386346
-0.0216986
0.102725
-0.0810264
-0.0907194
0.00253971
0.0887465
-0.419295
-0.118334
0.149807
-0.0314734
-0.0700392
0.0768502
0.00617323
-0.0207361
0.00855586
0.000447997
0.00649776
-0.00858867
0.00209091
-0.0766769
0.117318
0.0592577
0.0879222
0.0903234
-0.00765719
0.124817
0.131666
0.161545
0.134655
-0.2962
0.231072
0.088268
-0.31934
-0.00563769
-0.134065
0.139703
-0.0801769
-0.343047
0.0662767
0.27677
-0.109713
0.0880142
-0.168384
-0.157958
0.326341
-0.448141
-0.17596
-0.195025
0.401511
-0.206485
0.00779783
-0.00365533
-0.00414249
-0.0677536
0.209959
-0.412031
-0.0687686
0.480799
0.100427
-0.11955
0.00551903
0.115325
-0.120844
-0.308082
0.136228
-0.0107563
0.00243048
0.224015
0.0449637
0.159286
0.116681
-0.275967
0.00600605
-0.104774
0.0987681
-0.000510146
-0.0861753
0.0866855
0.149999
-0.227841
0.147755
0.0800868
0.00897186
0.0639839
0.0683953
0.169258
-0.105855
-0.0634022
-0.0451347
-0.00311938
0.105448
0.0638097
-0.0316379
0.0281287
0.019643
0.020726
-0.0103789
-0.0193733
0.0297522
-0.0128579
0.00285011
-0.218075
-0.00339432
0.0155279
-0.0896428
0.0155739
0.0740689
-0.204663
-0.173538
0.378201
-0.00174654
-0.00197071
0.00371725
-0.150873
-0.18201
0.332883
-0.197103
0.40292
-0.205817
-0.101899
-0.0309281
0.132827
-0.46526
0.18421
-0.0842872
0.106692
-0.0224046
0.0141316
0.00538194
0.209959
-0.0162722
0.00589327
-0.177675
0.202557
-0.0287683
0.140442
0.0012845
0.031263
-0.224285
0.397271
-0.172985
-0.00139448
0.000788201
0.000606275
-0.131842
0.160506
-0.028664
-0.113629
0.265707
-0.152078
0.328264
-0.188421
-0.139843
-0.00444193
0.235513
-0.0803288
0.0460775
0.0342512
0.0253787
-0.0526203
0.00840117
-0.0110676
0.00266647
0.108343
-0.0128151
0.00392076
-0.00206361
0.121532
-0.100464
-0.0210678
-0.142828
0.0729151
-0.0829325
0.0100174
0.00765156
-0.00115381
-0.0132373
0.0698029
0.0292176
0.0453512
0.0262181
0.0674472
-0.088993
0.11302
-0.0240267
-0.108263
0.160426
-0.0521629
-0.0634939
-0.0168348
0.061388
0.112272
-0.17366
0.076768
-0.0211859
0.346454
0.122551
-0.469005
0.00450838
0.00114512
-0.0456896
0.170585
0.0799721
-0.0507545
0.114346
-0.117126
-0.0516954
0.203888
-0.152192
0.0576386
-0.0425489
0.180855
0.14613
-0.326986
0.0179281
-0.0873093
-0.167197
0.0353551
0.203412
0.124014
-0.0991453
0.106842
-0.103159
-0.00368297
-0.0316385
0.077716
-0.013625
0.0454905
-0.0617769
0.0162864
-0.00094479
0.00836769
-0.0074229
-0.269278
-0.233124
0.00451305
-0.000689404
-0.0856251
-0.202599
0.288224
0.0796349
-0.0721268
-0.00750806
-0.0783578
0.102474
0.0121305
0.171073
0.249739
-0.327759
-0.0692629
-0.108582
0.1632
-0.237056
-0.266321
0.152692
0.143733
-0.0306921
-0.113041
0.0659176
0.0137172
0.0671841
0.0353199
0.0400816
0.0251975
0.0041966
0.0916793
-0.0958759
0.432117
-0.236286
-0.195831
0.11239
-0.0209552
-0.0914344
0.00526041
0.0329339
0.306401
-0.142535
-0.163866
0.0804868
0.0222382
0.0857794
0.0768591
-0.162638
-0.0169608
0.0165371
0.000423692
0.0895228
-0.189227
0.0997042
-0.000614506
-0.00116459
0.00177909
-0.118074
0.464528
0.0707121
-0.0414413
0.0956348
-0.507666
-0.0541979
-0.053631
0.107829
-0.217828
0.130209
-0.150617
0.144979
0.0173925
-0.137765
0.120373
0.148795
0.279819
-0.120533
0.429173
-0.270796
-0.158377
0.0121043
-0.0557717
0.011994
-0.011994
0.15072
-0.109196
-0.0415233
-0.0032261
0.00183162
-0.215693
0.213941
-0.0276951
0.128553
0.181931
-0.0274022
-0.0870117
0.0380584
0.0489533
0.00116593
0.00125633
0.124077
0.0266427
0.235248
0.131707
-0.366955
0.0563294
0.0233498
0.138017
0.0506657
-0.266358
-0.030133
-0.12792
0.158053
0.00891676
-0.0108382
-0.0261036
0.000914713
0.0251889
-0.0731645
0.0717003
0.00146414
-0.0238839
-0.0492268
-0.0271024
0.0524811
-0.176541
0.0556286
0.295512
-0.212012
-0.0835003
0.0524382
0.0243298
0.204408
0.016103
0.0629394
-0.0790424
0.0328733
0.126213
-0.159086
-0.42399
0.294128
0.129863
0.00716149
0.0150948
-0.0222563
0.0137589
-0.011668
-0.00209089
-0.22266
0.01063
-0.00222888
0.130884
-0.121987
-0.0906928
0.106478
-0.0157855
-0.0201463
0.0807197
0.0464606
0.0124227
0.0509123
0.0250684
-0.0759807
0.529808
-0.325951
-0.203856
-0.453238
0.0533365
0.399901
-0.00698651
-0.00584299
0.0128295
-0.12577
0.265871
-0.13947
-0.138085
0.152854
0.228836
-0.0938975
-0.134939
0.04171
-0.054286
0.012576
-0.00667458
-0.0692926
0.0759672
0.0186078
0.000693328
-0.000872951
0.000179623
0.032258
-0.128254
0.0753915
-0.0496729
0.164767
-0.0789872
0.377577
-0.087711
-0.289866
0.171197
0.270778
-0.441974
-0.299452
-0.091305
0.390757
0.0110918
-0.0111828
0.00128597
-0.0761138
0.0629683
0.0131455
0.345169
-0.0954298
0.361505
-0.126256
-0.114305
-0.129451
-0.148196
0.277647
0.0259445
-0.127844
-0.12803
-0.026681
-0.0140412
0.0104164
0.0162486
-0.026665
-0.0328186
-0.0768941
-0.0484125
0.0735229
-0.0251104
-0.0684824
-0.00763143
-0.139479
0.276752
-0.0812667
0.0177728
0.230982
0.0645305
-0.00237345
-0.0325396
-0.0571032
-0.00119617
-0.000957247
0.00215342
-0.0117039
0.0530616
-0.0413577
0.0433963
-0.192024
0.12021
0.0235233
-0.0679093
0.0247035
0.0432058
-0.000980069
0.000703206
0.000276863
-0.00212503
-0.0991246
0.0630492
0.0360755
0.0817349
-0.0826897
-0.00820172
0.0102447
0.343247
-0.457338
0.0874223
0.00290106
-0.0368733
-0.00251135
0.0961661
0.000659198
0.448875
-0.257456
0.125092
0.00247486
-0.0015889
0.00384019
-0.00225128
-0.0153295
-0.0232404
-0.0604081
0.0913036
-0.0308955
0.311976
-0.141433
-0.170543
0.0213485
0.137731
-0.15908
0.122469
-0.105169
-0.0173003
-0.015228
0.0118366
0.147698
-0.199394
-0.0523055
-0.0271358
0.0794412
-0.139153
0.305089
-0.165936
0.0236883
0.0530243
-0.0848945
0.0318703
0.16125
-0.303785
-0.34545
0.206036
0.139414
-0.0753565
0.15148
-0.16511
0.0236907
-0.166882
0.398352
-0.23147
-0.123589
0.184977
-0.179866
0.0554464
-0.00995581
-0.0726344
0.0812531
-0.00861871
-0.0137415
0.0120713
0.32877
-0.0101083
-0.0697012
0.0798095
0.31697
-0.162592
-0.154379
-0.0127461
-0.00204877
-0.0799389
-0.101796
-0.00271864
0.104514
-0.304119
0.164966
-0.168172
-0.0837794
-0.0201012
-0.0552138
0.103651
-0.0273846
-0.0762662
-0.109386
0.140076
0.00994888
-0.00053304
-0.00941584
0.0800927
0.0160734
-0.170893
-0.0856255
0.231939
-0.0336295
-0.000472629
-0.00277569
-0.0923791
0.00293124
0.0894479
-0.436642
0.247174
0.189468
-0.0763596
0.0255542
0.0508054
0.242783
0.194356
-0.437139
0.107946
-0.136714
0.341692
-0.264694
-0.0769982
0.0523864
-0.0792503
0.0268639
0.00116515
0.196855
-0.397043
0.200188
0.123387
0.153652
0.0635402
-0.0789265
0.0153863
0.22091
-0.0651258
-0.011665
-0.0303011
0.0419661
0.00954336
0.000607973
-0.0101513
-0.0906193
0.105223
-0.0146033
-0.117135
-0.356652
0.056234
0.300418
0.0940386
0.247653
0.248541
-0.366616
0.0114762
0.0606728
0.0200432
0.0570935
0.209127
-0.170981
-0.0381454
0.00160515
-0.0033517
-0.396085
0.136075
-0.177782
-0.13528
0.0118561
-0.0226069
0.135415
0.160196
-0.295611
-0.0135838
0.00778586
-0.223953
0.402548
-0.178595
-0.000572211
-0.106825
0.107397
0.13904
-0.142336
0.29373
-0.151393
-0.289307
0.254542
0.034765
-0.182944
0.425726
0.000289056
0.00796123
-0.203688
0.0397939
-0.19654
-0.22745
-0.00816417
0.0483344
-0.0401702
0.125492
-0.000400531
0.471014
-0.252765
-0.218249
0.110081
-0.104075
0.00848966
0.127415
-0.100194
0.345848
0.0267059
0.210695
-0.109666
0.00787011
-0.000679485
-0.000485101
0.0700228
0.01387
-0.0838928
0.148487
0.13576
-0.284247
0.0538937
0.0172691
-0.024284
-0.0747946
0.0990787
0.114628
-0.0214478
-0.0931806
-0.135671
-0.0294387
-0.0222364
0.110383
-0.0881462
0.0522314
-0.200532
0.104379
0.096153
-0.121533
0.0210687
-0.20359
0.291858
0.141548
0.179869
-0.321417
-0.158355
0.336366
-0.178011
-0.0101139
-0.100142
0.110255
0.0779866
0.0575253
0.11791
-0.0121767
0.121229
0.149484
-0.270713
0.128885
-0.159018
0.0242837
-0.00188142
-0.00619697
0.00807839
0.0390098
-0.0886236
0.271265
0.360188
-0.0905029
-0.269686
-0.11557
0.109125
-0.0452058
-0.0639193
-0.144902
0.0111933
8.52294e-05
-0.0112785
0.317068
-0.180044
-0.137024
-0.124091
0.273881
0.0863073
0.0321047
0.0212473
-0.053352
0.000759581
-6.905e-05
-0.000690531
0.175898
-0.477338
0.0224476
0.149648
-0.172096
0.190151
0.212768
0.0231813
-0.101539
0.462291
-0.251384
-0.210907
-0.186447
-0.078078
0.264525
-0.0592304
0.0637268
-0.00449636
-0.365418
0.461053
0.161229
-0.3085
0.14727
-0.409137
0.221956
0.187181
-0.105523
0.0525927
0.0529302
0.435752
-0.280138
-0.155614
0.284861
-0.13709
-0.14777
0.00680148
0.0282013
-0.0350028
0.017424
-0.0669436
0.0495196
0.0394674
-0.0228407
-0.0762839
-0.000863937
-0.000551045
0.00141498
0.111995
-0.0817304
-0.0302642
0.180339
0.136729
-0.355631
0.100257
0.000861837
0.0111322
0.0369844
-0.223431
0.0351668
0.0837792
-0.0181049
0.102523
0.126108
-0.100163
-0.122591
-0.0306683
0.153259
-0.084525
-0.127374
0.211899
-0.136004
0.0191884
0.176834
-0.205407
0.0285726
0.2398
-0.43924
0.199439
0.0819718
-0.0289475
0.0183775
-0.00759249
-0.010785
0.126743
-0.0223844
-0.104358
0.155286
-0.454739
-0.048854
0.0371891
0.0302559
0.00509806
0.00287048
-0.00363904
0.00579611
-0.00956493
-0.0811278
0.261969
-0.460512
0.198543
-0.386284
0.13512
-0.00527526
0.418868
-0.413592
0.0217704
-0.455148
0.341596
0.113553
-0.242664
-0.0466426
0.00430885
0.000431978
-0.00474082
0.0319174
-0.104038
0.0939244
-0.196569
-0.159062
0.0949769
-0.0907803
-0.0700959
0.00161347
-0.228254
-0.216715
0.0876611
0.0713751
-0.10097
-0.0488691
0.0585481
-0.0395857
-0.0189624
-0.0997316
0.0843016
0.151075
-0.15666
-0.0372021
0.104832
-0.13576
0.42492
-0.210486
-0.214434
-0.00180556
0.0900646
-0.088259
-0.171359
-0.0468773
-0.0283997
0.05514
0.0209575
-0.0804359
-0.0202941
0.10073
-0.287957
0.14701
-0.0259502
0.125468
-0.000683951
0.000506581
0.000177369
-0.0265041
0.00963213
0.0628433
0.0186498
-0.0814931
-0.096897
0.00451791
0.000927382
0.0102659
-0.193179
0.118976
-0.322567
-0.0345792
-0.164533
0.199113
-0.00538972
-0.0509566
-0.305696
-0.126617
0.116243
0.0546709
0.0863574
0.107014
-0.00179112
-0.452067
0.175209
0.276858
-0.475525
0.204602
0.270922
-0.144246
0.23436
0.110632
-0.47605
-0.00477922
-0.0678551
-0.0226307
0.00985055
-0.0835254
0.0711176
0.0124077
-0.284882
0.199257
-0.00830498
0.0093955
-0.00109052
0.0956258
0.0268434
0.274046
-0.459481
0.185435
-0.0762352
-0.0650304
0.448023
0.0178226
-0.465846
-0.0170816
-0.0878718
0.104953
0.0468986
-0.201621
0.154722
0.159326
0.15265
-0.00191984
-0.000868687
0.00278853
-0.0122876
-0.00107335
0.00184612
-0.000772778
0.158756
-0.219633
0.0608773
-0.0048356
-0.00862602
-0.11846
0.00399029
-0.00554468
0.00155439
0.000696315
-0.00261616
-0.458513
-0.113295
0.0910588
0.0624918
-0.0691664
-0.196841
-0.190574
-0.219056
0.40963
-0.00443166
-0.00996031
0.014392
0.134101
-0.218626
0.323422
-0.126106
-0.197315
0.0293378
0.0552654
-0.0846032
-0.0305358
0.345086
-0.0965444
0.129655
0.0280371
-0.157692
0.449944
-0.138553
0.163759
-0.0252061
0.0447941
0.0588568
-0.271038
-0.188442
-0.00212502
0.000657192
0.00146782
-0.136968
-0.261244
-0.21428
-0.0850771
0.0197631
0.065314
-0.0849924
0.0985025
-0.0135101
0.0537261
-0.107924
0.376477
0.0750097
-0.021116
0.161513
0.0988583
0.0046492
-0.288673
0.147241
-0.11947
0.312801
-0.193331
0.0525724
-0.00250311
-0.0500693
0.18893
0.216675
-0.405605
7.56308e-05
0.20977
-0.0769834
0.105099
0.026545
-0.0382489
0.0208855
-0.0280601
-0.136517
-0.13121
0.141642
0.0826821
-0.198076
-0.147373
0.173493
0.00280588
-0.176299
-0.157741
0.0494785
-0.0803087
-0.0341182
0.114427
-0.234882
-0.186679
0.421561
-0.00184716
0.163734
-0.31
0.146266
0.296486
-0.171386
-0.1251
-0.0783748
-0.0271481
-0.0263072
0.0730506
-0.0467434
0.0394478
0.0872951
-0.348645
0.471196
0.0129342
-0.0173658
-0.0987366
0.108461
-0.00972448
0.157914
0.122847
-0.100404
-0.0224426
0.140336
-0.288927
0.156899
-0.00350751
0.0358513
-0.0323438
-0.113094
-0.259484
0.140014
-0.12963
0.266658
-0.137028
-0.000484424
0.000415374
-0.154515
-0.118947
0.273462
0.319044
-0.200028
-0.119016
0.00292544
-0.171186
0.0326334
0.000805563
0.0066343
-0.00743986
-0.138765
0.0625297
-0.342233
-0.100834
-0.218156
0.408308
-0.0101336
0.171292
-0.145262
-0.0260297
0.15571
0.161261
-0.0315801
-0.00942779
0.00743201
-0.00742932
-2.69655e-06
0.323417
0.112335
-0.00296797
-0.00477241
0.00774039
-0.0867206
0.00628474
0.209295
0.0554619
-0.264757
-0.25351
0.142869
0.110641
-0.0478536
-0.0326599
-0.0390506
0.328056
-0.289005
0.0542267
0.017008
-0.0712347
0.109784
0.0196786
-0.368324
0.0816112
-0.0636832
-0.00648891
0.0031929
0.00329601
-0.0114054
0.263586
-0.102473
-0.161113
0.011541
-0.0104348
-0.00110621
-0.116711
-0.0192929
0.0181757
0.0253811
-0.0678573