/*--------------------------------*- C++ -*----------------------------------*\
| =========                 |                                                 |
| \\      /  F ield         | OpenFOAM: The Open Source CFD Toolbox           |
|  \\    /   O peration     | Version:  v2012                                 |
|   \\  /    A nd           | Website:  www.openfoam.com                      |
|    \\/     M anipulation  |                                                 |
\*---------------------------------------------------------------------------*/
FoamFile
{
    version     2.0;
    format      ascii;
    class       volVectorField;
    location    "300";
    object      ddt0(U);
}
// * * * * * * * * * * * * * * * * * * * * * * * * * * * * * * * * * * * * * //

dimensions      [0 1 -2 0 0 0 0];


internalField   nonuniform List<vector> 
18540
(
(-0.0218037 -0.00486169 1.58661e-20)
(-0.00293681 0.00142971 0)
(-0.00016978 6.56406e-05 -7.30999e-21)
(0.0434688 0.0552312 -1.64449e-20)
(-3.24055e-05 0.00400121 0)
(0.000175387 0.000244412 0)
(0.00128733 -0.00147917 -2.26724e-22)
(-0.0147375 0.0457026 -7.4781e-21)
(4.12667e-05 -9.86289e-05 0)
(0.000954636 0.0121585 1.02907e-20)
(-0.00538298 0.00393049 0)
(0.168611 0.131021 -5.27286e-20)
(-0.174502 0.0688117 -2.8095e-20)
(-0.0480758 0.741239 -2.32831e-19)
(0.000609339 0.00376274 0)
(3.54647e-05 -0.000121968 -6.25665e-22)
(-0.00476955 -0.00923961 -5.46439e-21)
(-0.000168837 -0.000349511 0)
(-5.99104e-05 8.64823e-06 0)
(0.00115601 -0.0014595 -1.19519e-22)
(-0.0417498 -0.0466754 -3.37239e-21)
(4.41641e-05 1.76059e-05 -2.00108e-22)
(-1.83206e-05 3.92431e-05 1.59761e-22)
(-0.00716751 0.00129617 0)
(-6.06506e-05 -1.79081e-05 1.99714e-21)
(0.000523759 0.00541413 0)
(-0.00218379 3.86335e-05 -2.68729e-21)
(-0.0180231 -0.120177 -6.42882e-20)
(0.003148 0.186302 -2.43144e-21)
(-0.0388435 0.602976 -1.72175e-19)
(-0.358166 0.304495 0)
(6.30823e-05 4.55661e-06 -1.12506e-21)
(0.000531137 -0.00289739 3.61973e-21)
(-0.00436829 -0.00121629 2.7449e-22)
(-0.000179865 0.00431408 1.29949e-20)
(-0.00414262 -0.000120615 0)
(0.0444802 -0.0191556 -8.2368e-21)
(0.00128694 0.00122743 2.55024e-20)
(-0.00165335 0.00120332 0)
(-0.0301871 -0.00968769 1.45851e-20)
(-0.0185781 -0.0410002 0)
(-0.00299262 0.000841385 -9.11425e-22)
(-8.98808e-05 0.000281435 0)
(-0.0019008 -0.00111403 0)
(-0.00085083 -0.000775395 0)
(2.50559e-05 1.35566e-06 -1.78038e-21)
(0.0780824 -0.0431435 1.96646e-21)
(-0.006132 0.0019807 0)
(0.00303088 -0.000943758 0)
(0.0901524 0.0656796 -8.60195e-21)
(0.0487302 -0.0245546 0)
(-5.61664e-05 1.00039e-05 1.49709e-21)
(-1.2452e-05 9.32288e-06 0)
(-0.00811736 -0.0401083 -1.16221e-20)
(0.0522298 0.0490148 -2.2495e-20)
(-0.381614 0.36511 -4.9982e-21)
(-0.0296029 -0.0123886 -3.19513e-20)
(0.00468231 0.00228216 -1.17375e-20)
(-0.0219273 -0.00371521 -1.00731e-20)
(-0.0412802 -0.0471675 0)
(-0.00403191 -7.70919e-05 -6.99248e-21)
(-0.000225494 -0.000112733 -2.96214e-21)
(-0.000111201 7.64693e-05 -6.03847e-21)
(-4.28033e-05 -2.28137e-05 0)
(-4.97259e-05 -3.75612e-06 0)
(-1.85829e-05 9.84737e-05 -8.83957e-22)
(-0.00388705 -0.00522613 0)
(0.060483 0.0540545 0)
(0.145694 0.187545 0)
(-4.08158e-05 -2.54856e-05 0)
(-0.000175834 -2.23626e-05 3.95496e-21)
(0.00262384 0.167686 2.4308e-20)
(-0.00229099 0.00328456 5.97563e-23)
(-5.67477e-05 -4.53495e-05 0)
(0.00287044 -0.00158208 -3.87073e-21)
(0.0349295 0.1594 3.37583e-22)
(-0.186514 0.0541505 -2.70767e-20)
(0.000852563 0.00392611 0)
(-0.000169146 -7.52895e-06 6.1547e-21)
(0.0271114 0.0684205 7.77401e-21)
(-0.000583964 -0.000462257 0)
(0.000819873 -0.00013579 1.36425e-20)
(6.37212e-05 3.86752e-06 0)
(-8.56387e-05 0.000173635 1.11215e-21)
(-0.00652079 0.00435592 -1.12612e-20)
(-0.000155496 1.14568e-05 0)
(-0.104272 -0.0448967 -7.97528e-22)
(6.93568e-05 1.7727e-06 5.7509e-22)
(0.000474054 0.00138256 1.95846e-21)
(0.089825 0.162919 0)
(-0.119953 -0.122706 -1.47884e-21)
(0.338105 -0.125113 4.45329e-20)
(-0.149699 0.0556153 0)
(-0.000717363 -7.27204e-05 3.94636e-21)
(-2.47528e-05 0.000141905 -5.15844e-22)
(0.00240558 -0.000489471 0)
(-0.106137 -0.0576599 -1.92e-22)
(-2.0481e-05 0.000131697 7.05533e-21)
(-0.00905605 0.0433537 4.22309e-21)
(0.00122639 -0.000930786 8.86566e-22)
(-2.94497e-05 0.0001648 -7.89916e-22)
(0.0288381 -0.0151822 0)
(0.00132328 -0.000519611 -9.82199e-22)
(-1.26668e-05 0.000101294 0)
(-4.97015e-05 0.000125713 -2.31739e-21)
(-3.80193e-05 0.000120774 0)
(0.00135205 -0.00177238 1.46085e-20)
(0.05065 -0.0461759 -1.5104e-20)
(0.00558632 0.0162466 7.50538e-22)
(-0.000168973 -0.00022048 1.57519e-21)
(-0.0151042 0.00133828 1.17382e-20)
(-5.89218e-05 -6.18428e-05 1.30731e-21)
(0.000433183 0.00121986 -1.99132e-21)
(-5.6728e-05 0.000293471 0)
(-2.7035e-05 0.000126271 7.51759e-22)
(-2.33594e-05 0.000147388 0)
(-0.000372427 -0.000768259 -1.68856e-21)
(-0.000199272 -0.000335959 5.67659e-21)
(-0.00265656 -0.00215719 -7.92462e-21)
(-0.000165403 -2.44777e-05 -6.64531e-21)
(-5.65157e-05 0.000174101 -8.03907e-23)
(0.31974 -0.171985 0)
(-0.111246 -0.212231 2.03995e-21)
(-0.000192456 -0.000187252 8.36218e-22)
(0.0103217 0.00578819 -1.65138e-20)
(0.0243349 -0.0116405 0)
(0.00101448 -0.00188723 0)
(-0.124866 -0.114749 -3.26626e-21)
(-6.20169e-05 -1.22016e-05 9.88528e-22)
(-0.004878 -0.00168559 0)
(-0.171688 -0.182989 0)
(-0.0022466 -0.00177722 8.82625e-21)
(-0.000102187 0.000117365 0)
(-0.0894496 -0.114052 -4.12039e-21)
(9.90267e-06 -0.000102369 6.83714e-22)
(0.000223693 0.00483106 0)
(-9.35476e-05 4.94428e-06 0)
(-0.0148297 0.00128554 -1.03082e-20)
(-0.000123942 0.000124496 3.18759e-21)
(-2.04132e-05 5.25167e-05 0)
(0.000162487 0.000248621 0)
(-8.67443e-05 4.55315e-06 0)
(-0.000169928 -0.000159052 1.31346e-21)
(-0.00395436 0.000179563 0)
(0.095267 0.131909 0)
(0.0390643 -0.00548457 -1.56967e-20)
(0.0710698 0.101098 3.91761e-20)
(0.0295969 0.0953712 0)
(1.68945e-06 -1.15802e-05 -2.61608e-21)
(-2.79585e-05 1.43431e-05 0)
(0.0596774 -0.0920385 4.61138e-20)
(0.00253227 -0.0198137 0)
(-0.000136928 0.000133194 0)
(0.00112588 0.00171976 -1.53684e-20)
(-9.11396e-05 0.000141184 0)
(-1.08695e-05 -6.2141e-06 0)
(0.123893 -0.0265048 0)
(0.00033253 0.000964689 -1.14064e-21)
(-0.000183604 -8.56988e-05 -3.54193e-21)
(-0.0445404 -0.079889 -1.81239e-21)
(0.161178 -0.0212674 -3.63852e-20)
(-0.0289119 -0.179196 4.96976e-20)
(0.0345201 0.00151624 1.99483e-20)
(-0.00775105 -0.00625572 6.75098e-20)
(0.0442503 -0.0350079 -3.03692e-20)
(0.00040245 0.000768941 -5.10983e-21)
(0.000586083 -0.0135694 -8.6247e-21)
(-0.000159967 -0.000173636 9.99268e-21)
(-0.000186937 5.27109e-05 0)
(0.013137 0.00206738 1.596e-20)
(0.0213414 -0.00620465 8.69189e-21)
(-0.000149972 5.03536e-06 0)
(-0.0121972 0.0038498 -1.08375e-20)
(-0.111405 -0.171234 7.63183e-21)
(-0.124134 0.0354682 -2.18065e-20)
(0.134502 -0.0356102 1.65538e-20)
(-1.37709e-05 3.50672e-06 1.61048e-22)
(0.298809 -0.233898 -1.02527e-20)
(-0.000151152 1.84342e-06 -7.04941e-21)
(-0.000188866 -8.73934e-05 2.89925e-21)
(-0.0195843 -0.320436 5.33239e-21)
(0.00708002 0.0129463 -1.34901e-21)
(-0.000294822 -0.000856547 -8.81248e-21)
(-9.02457e-06 -4.70066e-06 -7.11363e-22)
(0.0011784 -0.000752073 -7.12684e-21)
(-0.000959746 -0.0114772 -1.83493e-20)
(0.27306 -0.227209 5.54592e-20)
(-0.00583501 0.00090194 2.07091e-21)
(0.138434 0.13183 -1.61617e-21)
(-0.025688 -0.046309 -1.13787e-20)
(-0.017751 -0.0189064 -3.62118e-21)
(-0.007405 0.0186975 -1.31387e-21)
(0.000221483 0.00152424 -1.44727e-20)
(-0.0203959 0.019036 -3.52823e-22)
(0.00354414 0.00101444 -6.46537e-21)
(-0.000223569 -0.000121292 -3.77852e-21)
(0.149062 -0.045173 -6.25367e-20)
(0.0682539 -0.163798 2.70899e-20)
(-0.000150854 8.51704e-06 3.94324e-21)
(0.0450331 -0.0488576 3.71614e-20)
(0.000215604 -0.000194856 1.14813e-20)
(0.278217 -0.214213 -5.42117e-20)
(-0.000800775 -0.000661125 -1.39895e-21)
(-0.00435589 0.000116964 0)
(6.02019e-05 1.81418e-05 -1.61723e-22)
(-0.000120909 1.36273e-05 -1.0592e-21)
(-0.124863 0.103166 -3.83333e-20)
(0.0102768 -0.00846846 2.58469e-21)
(-0.144158 0.13016 0)
(-0.0447309 0.622777 -1.54002e-19)
(-0.000138997 0.000120044 -5.04354e-21)
(0.00106184 -0.000512343 1.3905e-20)
(-0.000115237 0.000802516 1.53635e-20)
(-0.000864286 0.00070698 0)
(-0.00373707 -0.0686489 2.20182e-21)
(-0.324527 0.691873 -3.96863e-20)
(-0.0022653 0.00104335 -1.01183e-22)
(-0.00536553 -0.00321281 0)
(0.234905 0.229618 5.28797e-20)
(-0.0345285 -0.0431625 0)
(0.0211592 0.0495815 0)
(0.000411991 0.000543756 0)
(0.0391652 0.107001 -8.10733e-22)
(0.0220532 0.0298297 3.4044e-21)
(0.00174581 0.00769003 2.20964e-20)
(-0.00021175 -0.000357329 0)
(-0.147566 0.0447156 -2.47887e-20)
(-0.107774 0.0455424 -1.93764e-21)
(0.0999891 -0.0258553 2.62666e-20)
(0.00582115 0.00893533 -4.96144e-22)
(-0.00329874 0.00148237 -7.53514e-22)
(-0.0025259 0.000390263 1.1648e-20)
(-0.0443515 -0.504036 0)
(-0.00212623 -0.0968595 4.91202e-21)
(-0.123262 0.0600259 0)
(-0.0145364 -0.0416779 4.0593e-22)
(-0.0285654 -0.056827 -5.09128e-21)
(-0.00746917 0.00167979 9.89009e-21)
(0.000404649 0.000537889 0)
(-0.000707777 -0.000156476 4.33003e-21)
(-0.00238384 -0.00584844 -3.7781e-21)
(-0.0313772 0.0212276 0)
(-0.00603634 -0.00241029 0)
(-5.3527e-05 1.58962e-05 -3.22884e-21)
(-1.01865e-05 9.49791e-05 1.31637e-21)
(-0.000124388 9.14819e-05 3.84655e-21)
(0.00970848 0.0359747 -1.19756e-20)
(0.00719488 0.00294303 -1.33868e-20)
(-0.00641229 -0.00252194 9.09981e-21)
(0.00753489 -0.00816433 3.25607e-21)
(-0.00169129 -0.0012975 0)
(-0.0925205 0.489403 1.85167e-19)
(-7.23576e-05 5.40355e-05 6.23357e-22)
(-0.000133466 7.05211e-05 -1.2063e-20)
(0.00409159 0.26238 7.27873e-20)
(0.0251251 0.0574281 0)
(0.139153 -0.0415615 3.48299e-20)
(-0.0615526 -0.0866853 -3.84305e-22)
(0.108273 0.0951718 4.96743e-21)
(-0.0180713 -0.0200691 0)
(0.0347867 0.0629586 0)
(-0.0688424 -0.101618 2.5188e-21)
(0.0195534 0.339451 0)
(-0.0033249 0.00224055 -2.25818e-21)
(-0.000546765 0.00080437 1.52745e-21)
(0.0593678 -0.0714156 -2.27037e-22)
(-0.000157238 0.000177228 -2.11748e-21)
(0.00114578 -0.00268009 0)
(0.0990131 -0.167476 3.11318e-20)
(-0.000207458 9.26458e-05 0)
(5.33566e-06 -7.21703e-05 1.27555e-21)
(0.00949597 -0.0100023 0)
(3.90025e-05 2.37335e-05 -5.49076e-22)
(-4.49946e-05 9.90795e-05 2.47023e-21)
(-3.82731e-05 -8.96991e-06 0)
(-0.000138408 0.000166627 2.06021e-21)
(0.000900547 -0.00212431 -1.27221e-20)
(-0.0142489 -0.053789 -1.58456e-20)
(0.0373832 0.0692665 0)
(-0.000963845 -0.00396863 -3.04723e-21)
(-3.68142e-05 -2.38598e-05 2.18184e-21)
(0.000359245 -0.000358906 1.13867e-20)
(0.0414308 -0.114134 0)
(-0.000129375 9.58775e-05 4.3733e-21)
(0.00782922 0.0345168 0)
(0.258568 -0.159103 -2.20588e-20)
(-0.000147008 -0.000447361 0)
(0.000153806 -0.00167939 -2.82095e-21)
(0.0231717 -0.0193643 6.79479e-21)
(0.124964 -0.078045 -4.27381e-20)
(-0.000249007 0.00106947 -1.161e-21)
(-0.00780689 -0.00191366 7.63613e-22)
(-0.101925 0.00659089 0)
(0.000838016 -0.0109989 -7.06095e-21)
(-0.000189248 -0.000236625 -1.39821e-20)
(2.14978e-05 0.000345921 0)
(-0.00300154 0.00212977 4.24811e-22)
(-0.000168597 1.12292e-06 0)
(-0.00753922 0.00153121 -1.09983e-20)
(-0.0427566 0.0861198 -1.8466e-20)
(-2.02764e-06 -9.36901e-05 0)
(0.00584181 -0.00799241 0)
(-0.000141588 0.000131033 5.57621e-21)
(0.132805 -0.0881808 2.02582e-20)
(-0.0257423 -0.0520142 1.4104e-20)
(-0.000127998 6.25045e-05 0)
(0.0538742 -0.0599314 -3.35149e-20)
(-0.000169929 -9.32852e-06 -3.53869e-21)
(-0.0860782 -0.0671442 1.72267e-20)
(3.6015e-06 -0.000110857 0)
(0.00073321 -0.00011583 -1.21336e-20)
(0.0012015 0.00843783 -4.18111e-21)
(-0.000120097 -7.33392e-06 -2.2065e-21)
(-0.00012141 1.4857e-05 1.04624e-21)
(-0.0117304 -0.0374191 0)
(-5.38067e-05 -5.99012e-05 1.68756e-20)
(0.00073502 0.00104177 7.68446e-22)
(-0.0076668 -0.00659695 1.09171e-20)
(-0.000116444 3.28038e-05 2.36899e-21)
(0.0960394 -0.0209606 0)
(-0.000162289 -0.000182115 0)
(-0.00213482 0.000203019 -7.66678e-21)
(-7.55909e-05 -2.98186e-07 1.96438e-21)
(-1.27463e-05 -6.74937e-05 8.79108e-22)
(0.150971 -0.0725224 -2.27841e-20)
(-3.90314e-05 1.61812e-05 0)
(-0.000934835 -0.000554016 3.31004e-21)
(0.034254 4.0595e-05 1.77338e-20)
(0.00011242 -0.000289744 -1.16511e-20)
(-0.00433288 0.00102883 4.66541e-21)
(-0.00143946 0.00212251 0)
(-4.2243e-06 -6.87647e-05 0)
(-9.68361e-05 -0.000435738 0)
(-0.00014348 0.000134042 -5.32569e-21)
(-0.000103526 6.29005e-06 1.70407e-21)
(0.0121891 0.00218816 0)
(0.0376305 0.0402684 -1.1999e-21)
(-6.07306e-05 -4.57105e-05 1.45486e-21)
(0.039531 0.0090146 2.57685e-20)
(0.000632966 -0.000489022 0)
(-0.00774107 -0.00653972 0)
(-0.000191936 -0.000200868 -8.95885e-21)
(-0.0013656 0.00179709 0)
(-0.000171561 -0.000180607 1.79922e-21)
(0.000945096 -0.00302129 4.09366e-21)
(-0.162013 -0.1049 2.56533e-22)
(-0.002521 -0.00700815 1.31545e-20)
(0.0355559 0.14621 -2.5641e-21)
(-0.000149919 -2.85992e-05 0)
(-0.000299267 -0.00219218 1.39333e-20)
(-3.09767e-05 1.51359e-05 0)
(-1.23561e-05 7.90689e-05 0)
(0.000925685 0.0105348 -1.03376e-20)
(-0.0936064 -0.0853167 -1.69182e-20)
(0.0046968 -0.0221034 0)
(0.0278038 0.0567484 -6.11199e-22)
(0.000117031 0.000947005 0)
(-6.95596e-05 -3.43811e-05 -3.45325e-21)
(0.0467746 -0.0214171 3.69112e-21)
(4.20538e-05 0.000427813 1.06493e-20)
(-0.000164194 -2.16064e-05 -7.86709e-21)
(0.0120976 -0.00072605 0)
(0.0381664 -0.0193685 -4.0736e-20)
(-0.0271199 -0.0446262 -5.82729e-21)
(0.0365128 0.0182502 -2.56074e-20)
(2.32179e-05 0.000621932 0)
(-0.000393021 0.0017011 -5.95831e-21)
(-8.95363e-05 -0.000211142 3.65005e-21)
(6.17451e-05 -8.39921e-06 0)
(0.0639895 -0.0542457 0)
(-0.0001541 -0.000413669 0)
(-0.0010526 0.00327895 -2.3935e-21)
(0.0027163 0.000101025 0)
(0.142076 -0.0800557 0)
(0.264211 0.262941 1.01476e-20)
(-0.019735 -0.0336711 -6.87425e-21)
(-0.00225018 4.18985e-05 3.5896e-21)
(0.0285839 -0.00189033 -1.02011e-20)
(-0.00430081 -0.00172518 -1.89104e-21)
(-0.000176155 0.000196404 0)
(-0.0926432 -0.595915 0)
(-9.34391e-05 1.20907e-05 -1.41895e-21)
(-0.00909893 0.002518 -1.48144e-20)
(-0.000169329 -0.000279446 3.55328e-21)
(-0.0124349 -0.03404 0)
(-0.00627411 0.00485837 2.18118e-20)
(0.00258152 0.00300411 0)
(-0.000195038 0.00172809 4.88021e-21)
(0.153282 -0.0309556 4.15483e-20)
(-0.103808 -0.0652012 -8.56324e-22)
(0.00195677 0.0025897 1.95344e-21)
(0.0083898 -0.0303857 -1.08061e-19)
(-0.000144479 0.000162584 -1.33986e-21)
(0.122672 -0.0563637 2.80203e-20)
(-0.059009 -0.1357 0)
(-0.108498 -0.0726021 -1.91721e-21)
(-2.76255e-05 0.000119831 0)
(-0.00128285 -0.00116541 1.85982e-20)
(-0.153628 -0.11144 1.9362e-21)
(-0.000221321 -0.000819309 0)
(-4.90181e-06 -0.000120993 9.16277e-22)
(0.134473 -0.100769 -3.19798e-21)
(-0.00314541 -0.028586 -1.28675e-20)
(-0.025256 0.00990509 3.64435e-21)
(-5.88514e-05 -1.44957e-05 -4.68536e-22)
(0.00517932 0.00195819 1.05485e-20)
(-0.00010415 0.000221812 0)
(-0.151932 0.0835707 1.04713e-20)
(-3.96764e-05 4.17246e-06 2.58777e-21)
(0.00275904 -0.00374852 -1.82303e-21)
(-0.065144 -0.0493239 1.0249e-21)
(-4.42625e-05 -0.000106725 0)
(-0.000114363 0.000217919 -7.12344e-22)
(-0.000214131 -0.000243245 -7.16392e-21)
(-0.0203616 0.00455544 -5.71914e-21)
(-0.000961959 0.00240178 -2.24195e-21)
(-4.43734e-05 -2.60126e-05 -4.47897e-21)
(-0.00609666 -0.0239798 -3.14418e-20)
(-0.000176319 6.69268e-05 2.22987e-21)
(0.0140828 -0.0647344 -2.47789e-22)
(0.164736 -0.0466885 0)
(-0.000136134 8.90381e-05 0)
(-1.39191e-06 -9.30867e-05 5.39966e-24)
(-0.00593478 0.00343052 3.71304e-21)
(0.0351332 -0.0354814 5.62665e-20)
(0.000735603 0.00103462 0)
(-3.48021e-05 2.32337e-05 2.03281e-21)
(0.00243047 -0.00055496 0)
(-0.134285 0.0943709 -2.74892e-21)
(-0.000219936 -0.000152842 0)
(0.00198007 0.00713609 0)
(-0.00377678 0.000360555 0)
(-1.65031e-05 -6.65054e-05 -7.562e-22)
(0.00079708 0.00177177 9.67947e-21)
(-6.50062e-05 -2.0013e-05 -4.43359e-21)
(-8.76055e-06 -7.69435e-05 3.73092e-22)
(-5.77275e-05 -5.9421e-05 9.71134e-22)
(0.0494167 0.0825085 0)
(-0.000729996 4.34364e-06 0)
(-0.00551389 0.0114496 2.52633e-20)
(0.169721 -0.0172613 0)
(0.0646161 0.0948715 5.06289e-21)
(0.297201 -0.133578 3.17592e-20)
(0.00361968 -0.00105735 -3.74583e-21)
(-0.000139843 1.49674e-05 -3.01898e-21)
(-0.000724781 0.000305033 -8.81566e-22)
(-0.000159523 6.2452e-05 -5.48998e-21)
(0.05505 0.0871808 -5.86457e-21)
(-2.21523e-05 -2.90615e-05 -3.43635e-22)
(-5.32266e-05 -6.05498e-05 3.11821e-21)
(0.0122001 -0.0720293 0)
(-0.000160979 0.000111701 -1.19461e-21)
(7.85937e-06 -9.04423e-05 4.10614e-22)
(-0.00432531 0.00248037 0)
(1.41244e-05 8.5165e-05 0)
(-0.00504441 0.0025381 -1.07236e-20)
(-0.0807576 0.326956 0)
(-0.000137907 0.000119634 -1.43189e-21)
(-0.0188685 0.00854624 5.71648e-21)
(-0.000133907 -0.000268138 -6.29906e-21)
(-0.000211131 -0.000253318 -5.38835e-21)
(-7.4347e-05 0.00103812 0)
(0.0501955 0.0304094 2.89762e-21)
(-1.24728e-05 4.02239e-05 1.27996e-21)
(-0.316501 0.739824 0)
(-0.0217591 0.0178848 -2.23428e-21)
(-0.000756068 0.000356379 5.50349e-22)
(-0.0425131 0.155551 4.04937e-20)
(-5.94062e-05 -0.000103116 6.8296e-22)
(-0.027267 -0.00211672 1.84635e-21)
(-0.00303048 -0.00539553 2.43824e-21)
(0.0483677 0.0209475 -1.70067e-21)
(-0.000175277 -0.00016425 -6.61332e-21)
(-0.000243247 -0.000327717 7.29417e-21)
(-0.00010929 1.17075e-05 -3.94611e-22)
(-0.000818285 0.000753316 0)
(-0.0183649 0.0229818 2.98608e-21)
(0.000442735 0.000528329 -1.92274e-23)
(-0.00450008 -0.00822993 3.28287e-21)
(-0.000130686 8.2892e-06 -2.12872e-21)
(-0.0981719 -0.0886032 0)
(-0.000104083 1.45746e-05 3.72772e-22)
(-0.0728016 -0.0242552 4.54386e-20)
(6.07812e-05 0.00324209 2.39242e-21)
(-0.000185664 -0.000155951 3.45326e-21)
(-8.97517e-06 2.60549e-06 6.41824e-22)
(-0.0865637 -0.0930004 1.38288e-21)
(-0.00711121 0.000519887 1.1233e-23)
(-0.0322133 0.176888 0)
(-4.44894e-05 1.13582e-05 -3.08401e-21)
(-0.114241 -0.0401161 0)
(2.85059e-05 -0.000121866 3.69201e-24)
(0.146601 0.0790975 3.13715e-20)
(-0.0356192 0.00726523 -3.93661e-21)
(0.0879048 -0.0111971 6.6954e-22)
(-0.0113176 0.0125008 -8.03156e-21)
(-0.0534698 -0.0167375 0)
(1.12073e-05 -0.000100456 -7.57619e-22)
(0.00017539 -0.000100155 1.17617e-20)
(0.000130517 0.000104714 3.38367e-23)
(-0.211511 -0.0103196 6.19297e-20)
(-0.000156724 -1.83362e-05 -5.94712e-21)
(-0.425028 0.25559 -3.11771e-21)
(6.18677e-05 -3.11319e-06 3.32294e-22)
(-0.029206 -0.00423438 1.90095e-21)
(-4.26869e-05 -1.48308e-05 -1.2786e-21)
(-4.681e-05 -5.83127e-05 3.00108e-21)
(0.000201734 0.000349239 2.52763e-21)
(0.000116707 -0.000131696 -9.69009e-21)
(-0.000253146 -0.000312209 -7.93919e-21)
(-0.00411785 -0.0045776 0)
(-0.417236 0.209805 -1.09573e-20)
(-0.0355697 0.0104343 0)
(0.0013602 -0.0281498 5.33997e-21)
(0.00107845 0.0029994 -1.56313e-21)
(-0.00876929 -0.0711599 -7.74035e-21)
(0.00255839 -0.000102813 2.0312e-21)
(0.00012558 0.000564346 -1.79868e-21)
(-0.0179455 -0.00431761 0)
(6.58687e-05 -9.44443e-06 2.93468e-22)
(-0.000186386 -0.000186677 2.1131e-21)
(0.000480274 0.00113421 -2.35808e-21)
(-5.02534e-05 -5.16259e-05 0)
(-0.151876 -0.187842 0)
(0.0745983 -0.0660063 -1.05413e-20)
(-0.0289487 -0.0802398 0)
(-0.000434231 9.98122e-05 -4.2179e-21)
(-0.000136268 7.23053e-05 0)
(-0.00379181 -0.00301342 0)
(-0.045083 0.10169 2.46316e-20)
(2.16694e-05 9.74063e-07 9.21568e-22)
(0.00763266 0.0647728 3.49489e-21)
(-0.00644854 0.00569064 0)
(9.98736e-05 7.00113e-05 -3.44995e-23)
(-1.48189e-05 5.77845e-05 1.8974e-21)
(4.42363e-07 -0.000104557 0)
(0.000284761 0.000469996 -9.09806e-22)
(-0.000116481 6.17585e-05 1.35346e-21)
(0.000388562 -0.000604831 -1.34341e-20)
(-0.0197258 0.0551682 -1.12114e-21)
(-0.0361232 -0.0176771 0)
(0.00132436 0.00269443 0)
(-0.0148836 0.00273508 -5.56196e-21)
(-0.000158793 1.26652e-05 1.57488e-20)
(-0.000148995 -0.000122961 1.17237e-21)
(-0.409971 0.153062 -6.15053e-21)
(-0.0114747 -0.0218367 0)
(-0.000175273 1.21838e-05 -8.53938e-21)
(-0.163809 -0.127507 -2.69359e-21)
(-0.0111372 -0.0470047 0)
(-0.00239239 0.000171821 0)
(-2.42066e-05 -2.28654e-05 -9.66017e-22)
(-0.0415042 -0.0603219 0)
(-0.0110667 -0.000387621 7.3267e-21)
(-2.2735e-05 0.000140478 0)
(-0.019309 -0.0182031 -8.02684e-22)
(-0.0626151 0.081703 7.9824e-21)
(-2.06305e-06 -0.000108991 7.48884e-22)
(0.0421012 -0.0901077 1.2817e-22)
(-0.000213103 -0.000645543 1.89518e-21)
(-0.00128147 0.00189412 -2.27293e-20)
(0.0432864 0.126494 -1.28514e-21)
(-0.234323 0.124208 3.28277e-20)
(6.58235e-05 1.41721e-05 -8.77593e-23)
(-0.135527 -0.37976 -2.71393e-20)
(-1.8855e-05 7.93292e-05 0)
(0.00682077 0.00749863 -5.67945e-22)
(0.000240058 0.00256387 0)
(-0.001601 -0.00146304 -4.45614e-21)
(-0.0435316 -0.0540267 1.27065e-20)
(0.000250458 0.0026132 1.26354e-20)
(-0.406699 0.201182 0)
(-0.112332 0.633375 1.63991e-19)
(0.00733072 0.00655209 1.03212e-21)
(-0.126355 0.0239112 1.11417e-20)
(0.022316 -0.0592791 5.13708e-20)
(-0.190413 0.112947 0)
(0.00798268 0.0161985 -9.09748e-22)
(-6.52067e-06 -1.09544e-05 0)
(0.0357426 -0.0446744 1.57531e-21)
(-0.0525648 -0.028856 -1.92054e-21)
(-0.000107686 -3.70707e-06 2.62294e-21)
(-0.000271166 -0.000310138 0)
(0.0291447 -0.11915 0)
(2.58829e-05 4.24514e-06 2.12401e-21)
(-7.92843e-06 9.42518e-07 -7.42505e-22)
(0.00037134 0.000801112 1.75474e-21)
(-5.50367e-05 0.000228735 -2.30458e-21)
(-0.00107425 0.000326354 -1.05374e-20)
(-0.0008549 0.000583598 -1.26081e-21)
(-0.00156834 0.00169519 -5.01044e-23)
(0.0196966 0.0119431 0)
(-0.000732932 -0.00215222 0)
(-0.0007183 -0.00156872 1.82594e-20)
(-5.678e-05 -7.89839e-05 -1.06839e-21)
(-0.152126 0.101091 1.59957e-20)
(-0.00052445 -0.000273117 1.5169e-21)
(-0.000192754 -0.000180016 7.15537e-21)
(-0.0366904 -0.0179666 -3.94392e-21)
(-0.000159114 0.000122504 1.27337e-21)
(-0.000136656 4.36596e-05 0)
(-0.0501337 -0.0472248 0)
(-0.000162563 -0.000219124 7.20257e-22)
(-4.15839e-05 0.000122704 -5.34259e-22)
(-2.70058e-05 0.000129596 8.0175e-22)
(0.107932 -0.0654827 2.84293e-20)
(7.0186e-05 -4.1062e-06 0)
(-0.0107649 -0.00413019 -1.18307e-20)
(-0.000132519 -6.58754e-06 2.97419e-21)
(7.24066e-05 -4.76987e-06 0)
(0.000140287 0.000114775 -4.16471e-23)
(-0.00894015 0.0125665 0)
(0.0307278 -0.0672354 0)
(0.0280418 0.0457208 1.19709e-21)
(-0.00015706 -0.000105745 1.24683e-21)
(-0.000420538 -0.000224033 -1.03608e-22)
(-0.000232295 8.61295e-05 0)
(0.00231415 0.00884194 -1.72883e-20)
(5.99851e-05 -0.000148599 0)
(-0.000160415 -2.22078e-05 2.84898e-23)
(-0.00190646 0.000808657 -1.0303e-20)
(-7.62351e-05 1.65544e-05 -1.29186e-21)
(0.00308945 0.000575813 -1.4212e-21)
(-0.00013288 -4.0842e-05 0)
(-0.0265819 0.000385876 -5.29885e-21)
(-0.0017232 0.000388038 3.10645e-21)
(-0.000213362 2.86793e-05 -3.24037e-21)
(-0.00379182 -0.0873536 -4.17815e-20)
(-0.000139486 1.93218e-05 0)
(-0.000133951 0.000192155 0)
(0.000471458 -0.000553349 2.93092e-22)
(-9.94926e-06 -1.98811e-05 3.80888e-24)
(-0.000132437 1.95654e-06 -2.83519e-21)
(-0.00934159 0.00126646 0)
(-0.00537422 -0.00335937 6.7827e-23)
(-0.000846537 -0.0142863 0)
(-9.23941e-05 0.000113162 0)
(0.107481 -0.0280848 0)
(-0.00339043 -0.040941 4.00121e-21)
(-0.000253422 4.53739e-05 -3.77663e-21)
(0.0380673 -0.115043 8.37653e-21)
(0.000220756 -0.00253648 7.63623e-21)
(-0.000177979 -4.62135e-05 -7.99788e-21)
(-0.0735636 -0.0134077 -1.47763e-20)
(0.0824706 -0.0462205 6.73188e-21)
(-0.0705777 -0.0341072 -3.90805e-20)
(4.3197e-06 -8.39207e-06 0)
(-0.140829 -0.168426 -7.41025e-22)
(-0.000552738 -0.00158444 2.11125e-20)
(0.00239221 0.000234937 -1.30228e-21)
(0.0188944 0.00839809 0)
(0.0805878 -0.0637911 -6.43309e-21)
(0.000498173 0.000428377 2.8467e-22)
(-0.0061282 0.00495966 -1.13491e-20)
(-0.00969913 -0.00174708 0)
(-0.00360829 -0.000157538 7.80424e-21)
(-0.000110654 -4.31039e-06 0)
(-0.0148523 0.00678828 -2.16449e-21)
(-0.00675647 0.000802385 0)
(-0.00118726 0.000280546 0)
(-3.91396e-05 -1.04005e-05 3.67081e-23)
(-0.0717142 -0.0380827 1.31258e-21)
(0.000180312 0.000410936 7.96831e-22)
(2.10406e-05 -0.000125601 -5.019e-22)
(-0.00600172 0.00666588 -1.26252e-20)
(0.000277523 0.000524113 1.53168e-21)
(9.32705e-05 7.74142e-05 1.91647e-23)
(-0.00129164 -0.0226096 -7.54309e-21)
(-0.153635 -0.122405 1.00441e-20)
(0.000204457 0.000339091 -7.36262e-21)
(-0.00341734 -0.000310148 7.82895e-21)
(-0.000101651 -5.3715e-05 -6.34e-21)
(0.000168999 0.000279975 6.97961e-21)
(-0.0339485 0.0545158 1.03765e-20)
(-0.0003242 -0.000601881 0)
(-3.53448e-07 -9.36218e-05 -8.75201e-22)
(-9.79142e-05 -2.83287e-05 1.45059e-21)
(-0.0699287 -0.122449 0)
(-0.0164418 0.0462531 1.60015e-20)
(-0.000173055 2.84427e-05 7.20102e-21)
(0.00157529 0.00530985 -1.58732e-20)
(0.00382547 0.00135686 -1.08801e-20)
(-0.000334055 -0.000606727 6.45125e-22)
(0.0202231 0.0647481 0)
(-0.000177464 -0.000172066 -1.46705e-21)
(-0.0174087 -0.0512455 0)
(0.0535956 0.0566979 2.21599e-21)
(-0.000142243 6.479e-05 6.69418e-22)
(-4.27361e-06 1.91207e-05 -9.20461e-22)
(0.000509312 0.000292995 3.80137e-22)
(-0.135508 -0.283994 4.59816e-20)
(0.000117967 -6.13931e-05 -1.98327e-23)
(7.86818e-05 -8.06724e-05 -1.53902e-21)
(-0.000102188 0.000135315 -1.41384e-21)
(0.00179555 -0.0361403 -1.03319e-22)
(0.0831171 -0.169427 -2.04618e-20)
(-0.14333 -0.359639 2.89277e-20)
(-0.0978583 0.00721148 1.5023e-20)
(-7.95162e-06 2.63121e-05 7.27698e-22)
(0.000101815 0.000569003 1.14166e-20)
(-0.0928195 0.01202 -4.85284e-20)
(9.54036e-05 4.16528e-06 1.85316e-23)
(-0.0180048 -0.00415043 -8.30374e-21)
(-0.00663928 0.00841478 -2.493e-20)
(-0.0447928 0.10467 0)
(0.04378 -0.00327368 2.28163e-21)
(-0.000122949 0.00011502 -7.64665e-21)
(-0.0124114 -0.0393367 3.91326e-23)
(0.0700104 -0.0482745 5.01121e-20)
(-0.000773793 -0.000161124 0)
(-0.000211792 -0.000118834 1.3338e-21)
(-0.00182993 2.58752e-05 0)
(-0.000175625 -4.51216e-05 0)
(0.010911 0.0310777 2.45883e-20)
(-0.00812874 0.00116498 1.0148e-20)
(-8.69201e-05 0.000109151 -7.72264e-23)
(-0.0140882 0.0115866 2.73199e-21)
(-0.00839683 0.000955397 -6.23204e-21)
(6.34818e-06 -5.97752e-05 -8.71152e-22)
(-0.0538515 0.0852419 2.06676e-20)
(-0.0322096 -0.0447884 2.20914e-21)
(-3.10066e-05 0.000244863 -6.03825e-22)
(0.00476065 -0.120721 5.46105e-20)
(-0.000165284 -0.000150816 -4.21408e-21)
(0.0445367 -0.00976185 0)
(-0.000106995 7.74744e-05 -5.92559e-21)
(0.036208 -0.08826 0)
(0.0435907 -0.0217653 -4.16435e-21)
(-6.1275e-06 5.56242e-05 0)
(-0.0103554 -0.00518148 4.76094e-22)
(-0.0187442 0.00723704 1.29262e-20)
(-4.0735e-05 9.18928e-05 4.3353e-21)
(0.117966 -0.17711 -2.0181e-21)
(-0.0112224 0.00640928 1.35043e-20)
(0.000142675 0.000559449 -1.07573e-20)
(0.0120217 0.0524814 -7.59772e-21)
(-5.65031e-05 -6.23311e-05 -1.60817e-20)
(0.000236341 0.00021018 0)
(6.24626e-05 1.05806e-05 1.77842e-22)
(-0.000172097 -6.08362e-05 -5.28088e-21)
(0.0319586 0.136412 0)
(-0.205322 0.161286 -1.4439e-20)
(0.000951591 -0.00740743 1.0248e-21)
(6.0683e-05 1.14011e-05 -1.72138e-22)
(-0.00970241 -0.00676398 -2.90549e-20)
(-0.000225558 4.78904e-05 7.58989e-21)
(-0.000135402 6.60791e-05 -8.32575e-22)
(-0.0175087 -0.00341388 1.50224e-20)
(-0.010608 -0.00324913 0)
(-0.000125013 -6.26998e-06 1.27277e-21)
(-0.0115667 0.00567987 0)
(-0.000154947 -0.000275654 -9.19558e-21)
(-0.0163551 0.0521981 -1.02389e-20)
(-5.34746e-05 -6.67008e-05 -5.64104e-22)
(-1.53535e-05 -3.62486e-05 -4.45055e-22)
(-0.144567 0.335121 -5.16214e-20)
(0.088473 -0.0203984 0)
(0.0445181 0.112304 5.93922e-21)
(0.117751 -0.0822594 0)
(-9.84974e-05 -2.85065e-05 3.0045e-21)
(-0.0138901 -0.155803 -4.63207e-21)
(-0.000141965 -0.00011832 -1.22047e-21)
(-0.156117 0.163906 -2.56672e-19)
(-0.00026671 3.86536e-05 1.21159e-21)
(-4.96104e-05 -7.75869e-05 -3.10665e-21)
(-0.0356446 0.0421282 0)
(0.0961762 -0.0112047 2.22824e-20)
(-0.0589505 0.0894855 -2.65261e-20)
(-0.00380065 0.00233099 -2.3038e-21)
(-0.000303095 0.000140186 3.41764e-21)
(0.000215922 0.000226412 -1.98035e-24)
(-0.00937724 -0.0758545 1.80611e-20)
(-0.000342022 -0.0001469 -1.6658e-21)
(-0.0138909 -0.0760454 1.12485e-20)
(0.016667 0.00431028 -2.0314e-20)
(0.0870475 -0.0428008 1.38773e-20)
(-0.407241 0.157501 0)
(0.00254108 -0.00601923 1.41439e-22)
(-0.000165287 -0.000166578 1.24994e-20)
(-0.0084061 -0.080393 0)
(-0.000720352 -0.00204837 -6.94045e-21)
(-0.13522 -0.238948 -5.7136e-20)
(-0.000235167 0.000176175 0)
(0.000182835 -0.00640685 -1.02219e-21)
(0.028049 -0.0301256 0)
(-0.000177208 1.18704e-05 2.72376e-21)
(0.00242572 1.26928e-05 0)
(-0.0129575 -0.0220936 -2.6755e-20)
(0.00136172 0.00189704 1.30078e-21)
(0.0301245 -0.0103135 7.53296e-21)
(-9.90573e-05 3.37948e-05 6.76617e-21)
(-5.40639e-05 -1.31964e-05 5.56145e-22)
(-0.000127328 5.69149e-05 -2.8862e-21)
(0.00286764 0.00186601 -2.62879e-21)
(0.00521298 0.00405838 0)
(-0.000300279 1.22878e-05 -3.4716e-21)
(-0.0561772 -0.0219767 4.36939e-22)
(-6.75667e-05 0.000288182 0)
(0.000857941 0.00197136 -9.2198e-22)
(-0.00452493 0.00207933 -5.43738e-21)
(0.0656965 -0.0334492 0)
(0.015379 0.0075381 0)
(-0.000103935 -6.07079e-05 -2.91211e-21)
(0.044088 -0.00480219 0)
(0.262311 -0.196217 2.64264e-20)
(-1.50372e-05 3.7164e-05 -1.60748e-21)
(-0.000124985 4.30787e-05 0)
(0.316049 -0.205227 1.15701e-20)
(0.0510058 0.103906 4.41688e-21)
(-0.0164486 0.0331717 0)
(0.000245384 -0.000885396 0)
(-0.273449 0.120295 -2.0749e-20)
(0.00314126 -0.00184248 -6.13801e-21)
(-0.000135413 7.83788e-05 0)
(-2.30004e-07 5.57885e-06 0)
(-0.00397651 0.00092309 0)
(0.000960987 0.00203041 0)
(0.0611994 -0.093747 -2.48175e-20)
(6.13173e-05 -0.000682761 -3.48052e-22)
(-0.000171326 -0.000140297 -1.54085e-20)
(0.000254942 -0.0514536 1.85344e-21)
(0.0250198 -0.0259794 -3.4325e-20)
(-0.000135747 4.78165e-05 -6.36659e-21)
(-0.00549547 0.0118211 -2.45745e-20)
(-4.84837e-05 0.00014545 -2.60681e-21)
(-0.0653564 0.130168 0)
(-0.000139055 -0.000119153 0)
(0.0462059 0.0309778 -1.68193e-20)
(0.0202427 -0.0336369 1.72661e-21)
(-0.00433216 -0.103217 7.52506e-21)
(-0.00011925 4.73264e-05 6.05841e-21)
(-0.0626225 -0.135407 0)
(-0.00057445 -0.0011041 5.1414e-21)
(-0.424937 0.319709 2.51688e-21)
(-7.67485e-05 -1.28671e-05 -3.7011e-21)
(-0.000170605 -0.000107907 0)
(2.16748e-06 2.27157e-05 5.0635e-22)
(-0.029091 -0.0176867 0)
(3.40151e-05 2.71297e-05 -4.31041e-22)
(-0.0878278 -0.162019 6.55659e-20)
(-0.0330503 -0.0402615 -1.35753e-21)
(0.0278926 -0.00654012 -2.06782e-20)
(-0.000133751 -0.000115174 0)
(-0.001998 -0.00505444 6.48612e-21)
(0.00012484 0.0102783 3.74599e-20)
(0.000978989 0.00199932 -2.22102e-21)
(0.0292537 -0.114788 0)
(-0.10792 -0.00857568 0)