/*--------------------------------*- C++ -*----------------------------------*\
| =========                 |                                                 |
| \\      /  F ield         | OpenFOAM: The Open Source CFD Toolbox           |
|  \\    /   O peration     | Version:  v2012                                 |
|   \\  /    A nd           | Website:  www.openfoam.com                      |
|    \\/     M anipulation  |                                                 |
\*---------------------------------------------------------------------------*/
FoamFile
{
    version     2.0;
    format      ascii;
    class       surfaceScalarField;
    location    "200";
    object      ddtCorrDdt0(phi);
}
// * * * * * * * * * * * * * * * * * * * * * * * * * * * * * * * * * * * * * //

dimensions      [0 3 -2 0 0 0 0];
oriented        oriented;


internalField   nonuniform List<scalar> 
27642
(
0.000994285
0.0168237
-0.017818
-0.00597565
0.000737215
0.00523844
-0.0108076
0.00583267
0.00497497
-0.00966215
-0.00486318
0.0145253
-0.00230999
-0.00849766
-9.4913e-05
1.02633e-05
8.46522e-05
-0.0266657
0.0207065
0.00595915
1.39086e-07
-1.37711e-07
-2.29973e-05
3.95623e-05
-1.65616e-05
0.00782611
0.00283186
-0.010658
1.64846e-05
2.26676e-06
-1.87446e-05
-4.16115e-05
0.00317691
-0.0031353
7.04419e-05
-0.000103782
3.33398e-05
0.0449513
-0.0102958
-0.0346555
0.0161557
0.00218454
-0.0183402
0.00327248
-0.00331408
-0.00113384
-0.00114083
0.00227466
-0.00440611
-0.0171925
0.0215987
0.0467566
-0.0459349
-0.000821676
0.000175659
-0.0336853
0.0335096
0.0274506
-0.0318567
4.65458e-06
2.00246e-05
-2.46754e-05
-0.00492011
-0.00236209
0.00728218
2.18859e-05
-5.88e-05
3.69159e-05
-2.52555e-05
-5.71512e-05
8.24033e-05
0.0494345
-0.00267791
-2.6846e-05
2.01776e-05
6.67841e-06
0.00279578
-0.00705519
0.0042594
6.45244e-05
-0.000110587
4.60558e-05
8.56358e-06
4.50622e-05
-5.362e-05
0.01715
-4.52478e-05
2.2251e-05
0.00267936
-0.00865504
-4.8967e-06
2.13816e-05
0.00795856
-0.00777057
-0.000187991
1.41422e-05
-8.5939e-05
7.18101e-05
0.00277461
-0.00191676
-0.000857856
5.88506e-05
-8.41028e-05
0.00117782
-0.00418252
0.0030047
0.00059128
0.0220583
-0.0226495
0.00616565
-0.00336987
-2.91675e-05
1.24764e-05
1.66946e-05
4.60339e-05
4.63797e-05
-9.24083e-05
0.00350822
-0.0023304
-3.65803e-05
-3.61271e-05
7.2714e-05
0.046667
-0.00171566
2.13277e-05
6.43001e-07
-2.19711e-05
-0.0136503
0.0142416
-0.00153957
0.00278509
-0.00124551
-8.30317e-05
-5.6925e-05
0.000139965
0.00793603
-0.0160521
0.00811605
-0.000106221
0.000187895
-8.16861e-05
0.000427537
-0.000788906
0.000361369
-0.0091251
0.0179285
-0.00880346
0.000145001
-0.000269552
0.000124547
8.46355e-05
-7.04882e-05
0.0308878
-0.0125908
-0.018297
0.00863269
-0.0129528
0.00432007
-0.0102516
0.00373623
0.00651538
-0.00942864
-0.0156877
0.0251164
-0.000209792
0.000136597
7.31992e-05
-4.68537e-05
3.68964e-05
9.95772e-06
0.000691528
-0.00026399
0.00167408
-0.00757487
0.00590078
0.00209611
-0.00363568
0.00014292
0.000593266
-0.000736186
-0.00194616
0.00209796
-0.00015183
-0.000481149
0.000624072
6.41249e-05
-3.22935e-05
-3.18305e-05
-0.00305073
-0.0135442
0.0165949
-0.000199984
0.00101057
-0.000810592
9.95611e-05
-2.00554e-05
-7.95093e-05
-0.000253346
0.000133454
-4.9837e-05
0.000114359
-2.50274e-05
5.71086e-05
-3.20812e-05
3.65032e-05
-1.216e-05
-2.43456e-05
-4.9391e-05
-0.000160418
-0.000543651
0.000549078
-5.42601e-06
-0.000575342
3.16918e-05
-0.000867317
0.0014067
-0.000539387
6.23532e-05
-0.00014539
-0.000163144
2.72656e-05
-1.32507e-05
-1.40145e-05
4.60974e-05
1.80283e-05
7.78979e-05
1.03996e-05
-8.8307e-05
-0.000146881
-0.00010649
1.91191e-05
2.20683e-06
-0.0109745
0.0384251
0.00675012
-0.00535728
-0.00139283
0.0367345
-0.00831035
-0.0284241
0.00137645
0.00139815
0.000322156
-0.000881552
0.000559393
-3.40324e-05
-5.86361e-05
9.26723e-05
-0.000370268
6.36613e-05
0.000306596
-6.2908e-05
0.000125273
0.000247315
-0.000102334
0.00158638
0.00151093
-0.0030973
0.00888735
-0.0119381
0.00908966
-0.00126355
-0.00167374
0.00124207
0.000431653
0.0135347
0.0173531
0.0490955
-0.0616863
-0.00103699
-0.0173116
0.0183485
0.0339043
-0.0448788
0.0237488
0.00332033
-0.0270691
0.00452466
0.00333597
-0.00786062
-0.0110189
0.000212017
0.0108068
-0.00689053
0.00375998
0.00313053
-4.77397e-06
-4.86881e-06
9.64165e-06
-0.027285
-0.0237982
0.0510831
0.00108135
0.00219113
8.30452e-05
-0.000145968
-0.00844432
0.00352421
0.0139977
-0.0150347
-2.35787e-05
-2.16681e-05
-0.0498429
0.0558467
-0.00600386
0.000961651
-0.00111455
0.000152866
5.97641e-07
2.51404e-07
-8.43723e-07
-0.00142808
0.00250943
-0.000106452
7.84487e-05
2.79994e-05
-0.0482192
-0.00162373
0.0051126
-0.00196795
-0.00314466
0.0596658
-0.0178598
-0.041806
-4.29934e-05
8.90286e-05
6.45065e-05
3.50518e-05
-0.00771501
-0.0242793
0.0319943
-0.106737
0.0129665
0.0937705
-8.02554e-05
-2.61964e-05
-1.66961e-05
-1.24755e-05
-0.00596042
-0.00285698
0.0088174
0.00464028
0.000472305
-0.00336615
0.0112424
-0.00787626
0.0176621
0.0117466
-0.0294087
0.00133843
-0.000217429
-0.00112102
0.00298211
0.0005261
-0.00624157
0.00959322
-0.00335166
-9.40101e-06
-1.74479e-05
-1.78014e-05
2.45912e-05
-6.79133e-06
2.45933e-05
-4.23972e-05
0.00626174
-0.014991
0.00872921
0.000341864
-0.0006591
0.000317243
-2.24216e-05
0.000100542
-7.81218e-05
0.0018454
-0.0006749
-0.0011705
-0.0105407
0.00980941
0.000731313
-0.0089156
0.00256534
0.00635027
-0.000287079
0.000127168
0.000159908
0.0169322
0.00681659
3.61313e-05
-3.73148e-05
1.18349e-06
-0.0174945
0.0254531
-7.22041e-05
4.97829e-05
-4.4338e-05
2.07596e-05
-0.0387684
0.0198461
0.0189223
0.00249606
-0.00116634
-0.00132972
-0.00581849
-0.00454321
0.0103617
0.000788626
-0.000341776
-0.000446849
-0.000142704
-0.00022753
0.00189075
0.000605315
-0.00838503
0.00667383
0.0017112
2.208e-06
0.000101483
-0.000103697
-4.52012e-05
-2.59245e-05
7.11214e-05
-0.0076202
0.00137864
-0.010955
0.0131395
-0.00218551
-0.00883336
0.000100258
-2.98096e-05
0.0102036
-0.0105827
0.000379055
0.0190024
-0.0277826
0.00878023
-0.0127827
0.0052511
0.00753154
-6.1436e-05
0.000188793
-0.000127336
2.17587e-05
5.50882e-06
1.6704e-05
-0.00012729
-9.49117e-05
0.025748
-0.00808592
0.0102415
0.0143606
-0.0246021
-0.00231832
0.0185121
-0.0161937
-0.00979855
0.0200401
-0.0244344
0.00218212
0.0222523
-0.00351549
0.00725931
-0.00374384
-0.00427643
-0.020158
-0.000114519
3.42588e-05
-4.07936e-05
-7.37285e-05
-0.000665005
0.000840105
-3.97414e-06
1.23189e-05
-8.33901e-06
-0.00019607
-0.000655472
0.000851546
-0.0125693
0.00675125
0.00581801
-7.00528e-05
-2.55227e-06
7.26018e-05
0.000818809
-0.00049665
0.0160331
-0.00977137
5.25123e-05
-6.79175e-05
1.5406e-05
-0.0065995
0.00699922
-0.000399714
0.0289782
-0.0099758
0.00563962
-0.00928845
0.00364884
-0.000334102
0.00129574
8.97076e-05
-1.12571e-05
-0.00806383
0.0215986
-0.0117851
0.00826959
-0.00283767
-0.00994498
1.89842e-05
-7.98817e-06
-1.09931e-05
0.00205933
-0.00677481
0.00471548
0.000114769
-1.96428e-05
-9.51168e-05
0.0168126
0.00865921
-0.0254718
-0.00400414
0.00750552
-0.00350138
0.00018874
-0.00050682
0.000318069
-0.00173197
-0.000280081
0.00201205
0.0155925
-0.0147623
-0.000830141
-0.00531339
0.0132494
-6.66016e-05
0.000190681
-0.00012406
2.36387e-05
0.00255693
-0.00118048
-0.00260385
0.000871885
-0.00366363
-0.103073
0.000118517
-0.000185103
-1.6017e-05
1.11194e-05
0.000295815
-0.000403992
0.000108167
0.00223585
-0.00258065
0.000344809
0.00299998
0.00375012
0.000399192
0.000939236
-0.0270516
-0.0117168
-0.0262837
0.0103302
0.0159535
0.0116581
-0.00601848
2.65551e-06
-7.23279e-07
-1.92863e-06
-0.0210311
0.0167547
0.00844437
0.000199159
-0.00864354
0.037062
-0.00032754
-1.60975e-05
8.10998e-06
0.000335373
-3.95622e-05
0.00585413
-0.00379479
-0.000838998
0.00242536
-0.0303173
0.00346562
0.0268517
-0.000352538
-0.0013212
-4.57138e-05
0.000160483
0.000160275
-0.00431363
0.00415333
0.00674733
-0.0215025
0.0147551
-4.70162e-05
9.00039e-05
-4.29886e-05
-0.00316569
0.00599755
-6.36422e-05
-1.9872e-05
-0.000226323
0.000246204
-0.000206143
-8.09361e-05
0.00251429
-0.0121764
-3.79467e-06
6.23568e-06
-2.4499e-06
0.00887162
0.00672084
-5.89184e-05
-1.56025e-05
7.45196e-05
4.99589e-06
-7.50556e-05
0.000820676
-0.00742018
0.000570041
-0.0007661
4.26153e-05
-8.78077e-05
0.000339304
0.000111244
-0.000450542
0.000109228
-4.96221e-05
-5.96038e-05
0.000766565
-4.86836e-05
-0.00071788
1.27577e-05
5.24598e-05
-6.52194e-05
-1.29062e-05
3.83733e-06
9.07517e-06
-0.00123859
0.00987128
-0.000614161
-0.000161993
0.000776154
-0.0197762
0.0365888
0.014808
-0.0107529
-0.00405509
6.90615e-05
-0.000103094
0.000255152
0.000133764
-0.000388919
-5.3028e-05
9.96581e-05
-4.66289e-05
-0.0151359
-0.00589524
-1.87163e-05
-2.56212e-05
-0.0137207
-0.0234199
0.0371406
0.000119987
-0.000213327
9.333e-05
-4.01003e-07
5.39206e-07
0.0120456
0.00276236
-2.06411e-05
-0.00059352
2.73969e-05
-8.04258e-05
-0.0146703
0.000593976
0.0140763
3.60525e-05
0.000164046
-0.0002001
4.55529e-05
-8.86258e-05
4.30748e-05
-3.55764e-05
8.09533e-05
-4.53623e-05
-0.00199236
-0.0126779
3.40633e-05
8.32249e-05
-0.000117282
0.000566588
-0.0135426
0.0110935
0.00244911
-4.66476e-05
8.06998e-05
-0.00173609
0.00122654
0.000509548
-0.0153093
0.00939039
0.00591886
4.26256e-05
1.47232e-05
-5.73483e-05
-0.0149754
0.0488797
-0.0243239
0.0386844
0.0340778
-0.017709
-0.0163688
-0.00422616
-0.00266437
0.00979414
-0.0059627
-0.00383143
0.000540264
0.000151264
0.0177945
0.00795354
-0.0736373
0.0699737
-0.00643881
0.00811289
-0.0343511
0.0100272
0.000149012
-3.68512e-05
-0.000112152
-0.000597148
-0.0576313
0.0582285
0.0335851
0.0131626
-0.0467477
1.10525e-05
7.43954e-05
-8.5446e-05
-0.019719
-0.00217314
0.0218922
2.0313e-05
-1.80437e-05
0.000503819
-0.00330697
0.00280317
-0.000585816
-0.00537462
-0.000534914
-0.00057962
0.0217213
-0.0207781
-0.000943193
0.00418316
-0.00367935
-8.2958e-06
-4.61254e-06
0.0361242
-0.0510996
6.1025e-05
-3.41811e-05
-2.68422e-05
6.33382e-05
-1.08244e-05
0.0184823
-0.0117349
0.000156305
-0.00210247
-2.35514e-05
8.69058e-05
-6.33417e-05
0.0280341
-0.00631279
8.34757e-05
1.65765e-05
-0.000100065
9.95955e-05
-5.47261e-05
-4.48678e-05
0.000858941
-7.03146e-05
-8.32435e-05
5.96934e-05
0.000584787
-0.000633468
-9.3763e-05
5.58033e-07
9.32054e-05
0.0194272
0.0146507
0.000232462
-0.000112482
0.000338579
-3.20901e-06
0.0596784
-0.0602756
0.000813731
0.00174319
1.77906e-05
-2.38857e-05
6.09476e-06
0.037396
0.00110878
-0.0385047
5.8952e-06
-0.00465793
0.000245788
0.00441215
5.07125e-05
-8.08555e-06
3.95643e-06
-3.22539e-06
-7.3338e-07
-8.12505e-05
-1.17986e-08
8.12601e-05
0.0226744
-0.0224988
0.025358
-0.031765
0.00640696
0.000835147
-0.00200436
0.0011692
0.00303214
2.42589e-05
0.000314315
0.0221671
0.0374986
5.30929e-06
-1.00735e-05
-0.0351108
0.00479352
2.84395e-05
7.69185e-06
0.0115616
-0.00632719
-0.00523444
-2.80644e-05
4.99556e-05
0.0191997
-0.0329204
-0.000112077
4.38411e-05
6.82315e-05
0.000583377
-0.00171721
-0.0745974
0.00899123
0.0656062
-7.21862e-05
-0.00276761
-0.0014149
4.13493e-05
-3.60902e-05
-5.26642e-06
0.00422997
0.00148102
-0.005711
-0.000125004
-0.00097835
0.00110336
5.76564e-06
-0.00117211
2.52068e-05
-7.41335e-06
-0.000175243
0.000112309
6.29226e-05
0.0279673
-6.75841e-05
0.00429756
-0.0151599
0.00810026
0.00705969
0.000847279
-0.000207443
-0.000639821
0.00280935
-0.000573511
-0.000156457
0.000411618
-0.0133091
-0.000233521
-0.0100765
-0.000464236
-7.74135e-05
0.000513936
-0.000436529
-0.00988489
-0.000366718
0.0352492
-0.00989125
-0.0141823
-0.00131526
0.0154976
0.00057877
0.00093832
-0.00151709
0.0151007
-0.00849231
-0.00660835
0.0266922
0.00228593
-0.00185881
0.00186457
-5.27059e-05
0.000395869
-0.000343142
-0.022796
-0.0476551
0.0704512
9.95805e-05
-8.28859e-05
-0.0181052
-0.00856049
-4.13304e-05
7.97812e-05
-3.84531e-05
0.00341531
0.00814632
7.83205e-05
1.13845e-05
-0.000298322
0.000320747
-2.24101e-05
0.0008704
-7.01117e-05
-0.000800302
-1.2582e-05
-5.4978e-05
6.75607e-05
-3.16183e-05
-3.32271e-05
0.00635533
-0.00972148
5.06287e-05
-8.03279e-05
2.96986e-05
-5.86344e-05
2.21917e-05
3.64437e-05
-5.20054e-05
-4.13385e-05
9.33402e-05
1.90639e-05
8.20817e-05
-0.00010114
-0.000891792
0.000356856
0.000165216
-0.00107464
0.000909427
-0.012022
-0.00459582
0.0166178
-0.0194957
-1.1574e-05
8.94787e-05
0.00114495
-0.000797513
-0.000347445
0.00625885
-0.0003802
-0.000408705
-3.06927e-05
-2.79424e-05
-0.0133107
0.0172846
-0.00397395
0.000282765
-0.000395951
0.000113172
-8.36218e-05
4.22917e-05
-0.052859
0.0255741
0.000557612
-0.000274857
0.00597556
-0.0158535
0.0135352
-7.4973e-05
0.000200475
-0.000125513
0.000119278
-0.0532031
0.0543119
-0.00403557
0.0155403
-0.0115047
5.13285e-05
0.000129254
0.000289865
-0.000831269
0.000541396
1.30837e-06
-3.73003e-08
-1.26925e-06
0.000767715
-0.000188949
0.00394496
0.00190917
-0.00507278
0.000728037
-0.000438183
0.00870335
0.0051595
-0.0138629
-6.26627e-05
-0.00011257
0.00288387
0.00731976
-0.00525006
-0.00152476
2.24767e-05
-9.30959e-05
7.0622e-05
-0.00207021
0.0067287
-0.00465849
-0.0338763
0.0261613
0.0976708
-0.0640857
4.19293e-05
-8.89516e-05
-0.0191251
0.00227198
0.00221351
-0.00448549
-0.00115334
-0.000504963
-0.0166419
0.00333122
6.72454e-06
2.0705e-05
-2.74191e-05
8.10169e-05
9.06978e-06
-9.00765e-05
-2.93112e-06
4.80607e-05
-0.0894892
0.0148918
0.00453715
-0.00379994
0.0176229
-0.00475782
-0.0128651
-7.24772e-05
8.36771e-05
-1.11989e-05
0.000122264
-4.12566e-05
-0.000366673
6.83677e-05
-0.000190551
-0.000341208
0.000531757
0.000340416
-0.000164832
-0.000175598
5.87673e-05
2.12073e-05
-7.99746e-05
3.08798e-05
3.07422e-05
-6.16226e-05
-0.0120021
0.00350983
-0.000480857
0.000403461
-7.14997e-05
4.48272e-05
-4.17689e-05
9.5677e-06
3.22033e-05
5.94216e-07
1.81217e-05
-4.31494e-05
3.57734e-06
1.31367e-05
-1.67097e-05
0.0736764
0.0236315
-0.0973079
0.0122016
-0.00333003
-0.000268289
0.000639265
-0.000370974
0.00138259
-0.00186498
0.000482384
0.000571704
-0.000762255
-8.3289e-05
5.73656e-05
0.0112916
-0.0105392
-0.000752376
0.0131534
-0.0134815
0.000328083
-4.85134e-05
-6.35619e-05
-2.47346e-05
1.17641e-06
2.35574e-05
9.50215e-06
0.000139517
0.0110995
0.00205391
-0.000108909
0.000102607
6.30241e-06
-8.3564e-05
1.10844e-05
0.00032765
-3.28583e-05
-0.000294791
2.79311e-05
-4.66465e-05
0.000461225
6.37296e-06
3.01306e-05
0.0126412
0.00806535
4.86627e-07
2.16685e-06
-0.000336599
0.000351178
-1.45791e-05
-2.9519e-05
-1.22495e-05
9.9654e-06
-2.70553e-05
1.7091e-05
-0.000104136
-0.000202662
0.000524989
-0.000322323
0.0231451
-0.0459412
2.18105e-06
-6.68154e-05
6.4637e-05
-8.52348e-06
4.54728e-06
3.35091e-05
-3.52446e-05
1.73511e-06
-3.62582e-05
6.12564e-05
-2.49923e-05
4.08569e-06
3.72685e-05
-0.00170527
0.00228864
0.00397564
1.27735e-05
-0.000121681
0.000322489
0.000524777
-9.90254e-07
8.50829e-07
0.000120954
0.000206658
-0.000174896
0.000130232
4.46566e-05
-0.0037105
0.00387076
-7.0054e-05
-2.33612e-06
7.23906e-05
-0.00120143
2.77746e-05
-2.17417e-06
2.21294e-08
2.15119e-06
-0.0232874
-0.00449519
0.00274251
-7.31401e-07
-1.44211e-06
0.00543236
0.00676928
0.0012858
-0.00724851
-0.00707334
-0.0580931
0.0651664
-0.0185973
-0.0157022
0.0342996
0.00299508
2.71858e-05
-7.38343e-05
0.0135159
-0.0321132
-0.00420376
0.00548955
5.17782e-05
-2.73099e-05
0.000110501
-8.3188e-05
0.0348603
-0.0134185
-0.0214418
0.00475497
-0.0107735
0.0154707
-0.0080362
0.000461328
0.000523099
2.59804e-05
0.0044661
0.00169954
0.000164123
-0.000212953
4.88082e-05
-2.67741e-05
-2.00795e-05
8.09035e-05
-8.28771e-06
-5.05094e-05
-0.0123026
-0.00919992
4.84339e-05
-1.75571e-05
-0.0350954
0.00141016
0.000140132
-1.74671e-05
-8.08534e-05
9.83191e-05
-0.0442112
0.0204131
-0.00498775
0.00383441
-0.0287793
0.00549194
0.00501625
0.0104544
-0.0242637
-0.0209109
0.0451745
2.11169e-06
5.05831e-07
-2.61814e-06
1.37899e-06
-0.00265417
0.0132806
-0.00121237
0.00204751
0.0049245
-0.00757867
-0.0161038
0.00771879
-0.000240195
0.000428935
0.000100981
-4.82604e-05
-5.2722e-05
0.0380974
-0.0179672
-0.0201302
-0.00870807
0.00460781
0.00410028
0.00680456
-0.00204961
1.85394e-05
0.000145573
-6.33297e-05
0.000175625
2.31867e-06
4.46859e-07
-2.77668e-06
-7.45675e-05
5.8966e-05
0.000386483
-0.000407126
-0.000514135
-6.1207e-05
-2.69883e-05
4.30365e-06
2.26754e-05
-0.0353543
0.00010254
2.02129e-05
1.43485e-05
-3.45597e-05
-0.00841982
0.0508101
0.00538469
-0.00106617
-0.00431854
-0.0080072
0.00417577
0.000119186
-0.000194143
-0.00928405
0.0118494
0.0105335
0.00940683
-0.0199403
0.000367641
-0.00150849
-7.83342e-05
8.85973e-05
0.00485825
-0.0221698
-0.0119682
0.00545401
0.00651415
0.000678574
-0.00134359
0.0175967
0.0205007
1.36184e-05
2.53664e-05
-3.89857e-05
0.000307564
-0.000104637
0.000103253
1.36347e-06
0.0143844
-0.0157011
0.0013166
-6.85221e-06
1.77141e-05
-1.08558e-05
-0.00554508
0.00524907
0.00029601
2.15559e-05
2.01919e-06
-2.35746e-05
8.58602e-07
1.46177e-06
-3.59839e-06
-1.89761e-07
-3.53744e-06
-5.81709e-08
-0.00448684
-0.00846593
-0.00127457
0.00619906
0.00409531
-0.00294584
-0.0011495
0.0726449
0.0441661
-0.03713
-0.00703609
-8.64585e-05
8.39001e-05
-0.0149906
-7.60547e-05
-2.98387e-05
4.54353e-05
-1.55956e-05
-0.00309554
0.00575386
0.0687548
-0.0745087
-4.10352e-05
9.58622e-05
-5.48278e-05
-0.00132875
-0.000588
3.0712e-05
-0.000102051
7.13409e-05
-1.54864e-05
-1.42442e-05
2.97352e-05
5.08357e-05
-9.18759e-05
-0.0315521
0.0140826
0.0174695
5.60671e-05
3.31026e-05
-8.91716e-05
-9.96777e-06
4.68651e-05
-2.33438e-05
3.6961e-05
-0.0100113
0.0108556
-0.000844324
-0.0136452
-0.0126385
-0.0243809
0.0278465
0.00358507
-0.00189596
-0.0016891
8.1249e-05
-9.87068e-05
1.19542e-05
-0.0114589
-0.0355012
0.0469601
-0.014267
0.00791383
0.00635316
-0.000108574
3.93582e-06
-3.43662e-07
-3.4301e-05
3.46461e-05
1.60931e-06
2.33982e-06
-5.4125e-05
4.37494e-05
1.03765e-05
0.0011728
0.000925143
3.93174e-05
-7.67107e-07
-3.85513e-05
-0.000542451
0.00283108
0.00134614
0.00403853
5.92044e-05
-2.09833e-05
-3.82212e-05
0.061891
0.00408231
-0.0659733
-0.000222885
-0.000175087
0.000397977
0.00562031
-0.00143715
-9.61247e-05
-7.87676e-05
-3.5356e-05
3.50132e-05
0.000420298
0.000212591
-0.000632885
4.50827e-05
1.41225e-05
-4.37947e-05
8.93479e-05
-0.00447343
0.0201368
-0.0156633
0.0032674
0.0080242
0.0021663
-0.0141883
-0.000462719
0.000849204
0.00588188
-0.00254589
6.63508e-05
-0.00052907
0.0110757
-0.0155491
-0.0740356
-0.0170094
1.51804e-06
-2.85107e-05
-5.85877e-05
4.30201e-05
1.55681e-05
0.000126978
-0.000349862
-0.0144796
0.0101304
0.00434918
-6.72347e-05
-3.29117e-05
0.000100152
-0.000269489
-0.000622294
-1.35044e-05
-0.0128292
0.00323056
0.0095986
0.000206455
-1.84111e-05
3.86238e-05
-0.00275986
0.000538021
-0.000134336
-0.000403687
-0.0158128
-0.00420974
9.41998e-05
0.00105076
-3.69906e-05
2.69654e-05
1.00246e-05
0.000893383
-0.000335796
8.38321e-05
-4.12217e-05
0.00637018
-0.000749862
0.00421395
-0.000538156
-0.00367579
-2.73662e-05
0.0420221
0.00222493
0.00136015
-0.000188695
0.000530577
-0.0178104
0.0194498
-0.00163939
0.00090476
-0.00157967
0.000906992
3.72754e-05
-1.6221e-05
-2.10473e-05
0.0114154
0.0058315
-0.0172469
0.0138272
0.000557285
0.0235898
0.0258447
6.21334e-05
3.74629e-05
0.000331943
0.000561431
0.0212403
-0.0027283
9.42187e-05
-7.76352e-05
-0.000100076
3.45365e-05
6.55404e-05
0.000772884
-0.000450379
9.02835e-06
9.07621e-05
-9.97825e-05
0.0410916
-0.0525505
0.00443172
0.00446301
-0.00900622
-0.00691716
-0.013861
0.0209294
-0.0296553
0.00872589
-1.11044e-05
0.0113437
-0.01565
0.00430634
-4.4809e-05
-4.38165e-05
7.79041e-05
-2.35705e-05
-5.43311e-05
5.67304e-05
-1.16676e-05
0.0261202
0.0297265
-8.09449e-05
0.000106309
-2.53566e-05
5.17636e-05
-8.68686e-05
3.51065e-05
5.57014e-05
-8.30169e-05
4.42074e-05
1.68192e-05
-0.00370369
-0.0018235
0.00552719
-0.00050352
-0.000155579
-0.00460193
0.0018343
-1.16248e-05
1.90505e-05
1.1321e-06
1.05074e-05
-3.63421e-06
-6.87169e-06
0.0177023
-0.0155202
0.00204845
0.0598425
6.04897e-05
-7.39055e-05
1.34093e-05
1.26537e-06
1.39609e-06
-2.65823e-06
-0.0135736
0.0354277
-0.0218541
0.0224194
-0.00630538
0.0805627
0.000812452
5.79368e-05
-0.0654258
0.0711796
-2.66175e-05
-0.000213143
0.000239753
0.054122
-0.0520736
0.0275752
-0.0190737
1.65316e-05
-2.68201e-06
-0.00264949
0.00638572
-0.00741478
0.000663456
0.00675133
-4.21617e-06
9.52035e-06
-0.00492719
-0.00705423
-0.0280566
0.00967126
0.0123121
-0.0219833
-0.00029336
-0.000190292
0.000483654
-0.00076277
0.000493254
8.40571e-05
-3.22929e-05
0.00145792
-0.00382002
-0.00664963
0.0242725
0.00707208
0.00975166
6.51471e-05
3.58399e-05
-0.00285118
-0.00316783
0.006019
-0.0176187
0.0107015
-1.00546e-05
8.98124e-06
1.07053e-06
-0.0248668
-0.0167138
0.0415805
-0.00105131
0.000889315
-8.60684e-06
3.52192e-05
-2.66138e-05
-0.0396921
-0.0305089
1.71157e-05
2.01676e-05
0.000897262
-0.000218694
-8.57365e-05
9.47634e-05
-7.77631e-05
0.000100241
-9.86436e-05
1.77003e-05
7.68418e-05
-2.07745e-05
0.0411235
-0.0241851
-0.0169385
0.0010691
0.0174132
-3.02429e-05
-0.000110789
0.00735647
-0.00859506
-2.37577e-05
5.16892e-05
-1.53308e-05
0.00029189
-0.000178912
-0.000112945
0.00326783
-0.00611902
6.82231e-05
-6.32266e-05
0.0322691
-0.0380046
0.00573551
-0.00461169
-5.97744e-05
2.87731e-05
3.10022e-05
-5.35307e-05
-3.50385e-05
8.85725e-05
6.10652e-05
-4.83112e-05
0.0107857
0.0270107
-0.0377965
-0.00298203
-0.00161989
-0.0228851
0.00719735
0.0570146
-0.0348474
3.97829e-06
-0.000156529
0.00015254
5.86551e-05
-0.000539513
-0.00481187
0.00216237
-0.0012849
-0.0014873
0.00277221
-0.000809946
0.00122273
-0.000412781
0.00111326
0.000387422
-0.000542446
0.000155026
0.00216528
-0.00135156
0.000528459
-0.000469821
-1.6284e-06
2.39874e-07
1.39219e-06
-0.00475875
0.00511498
-0.000356267
0.000303529
-0.000192278
0.000386785
6.38196e-07
3.10444e-05
0.0337285
0.0069636
-0.0406921
-0.0188184
-0.0156676
0.0344861
-0.0352888
0.0155127
0.0101111
-0.0349779
0.000109478
0.00129721
0.00445548
3.63644e-06
-2.20531e-06
-1.43455e-06
-0.007416
0.0179495
0.0180345
0.00272144
0.00201708
0.000965029
2.84875e-06
4.34896e-05
-4.63372e-05
5.50318e-05
-2.63339e-05
-2.86972e-05
-0.00368772
0.0123525
-0.0086648
-0.00485062
0.00028537
0.000960937
-0.00124631
0.000932471
0.0012328
-0.024005
0.0136762
0.0103288
-0.00022479
0.000221689
3.104e-06
-0.0134033
-0.00643837
0.0198417
2.07364e-05
8.64936e-06
-2.93833e-05
-0.069929
-0.00370832
0.0155623
-0.018846
0.00328375
-2.86122e-05
1.8769e-05
9.84038e-06
0.000464288
7.59767e-05
-0.000404436
0.00178702
0.000137611
-0.000108513
-2.91051e-05
-7.01067e-05
-3.21115e-05
0.00010222
4.09834e-05
6.80889e-05
-0.000109072
-3.08261e-05
9.89609e-07
2.98361e-05
4.08567e-06
-3.2059e-05
2.79742e-05
0.0246057
-0.00405448
-0.0205512
2.15116e-05
-1.7934e-05
-1.69864e-06
3.52088e-05
2.17855e-06
1.45867e-06
-0.00114747
-0.0075606
0.0515997
0.0203119
-0.0719116
7.30588e-05
6.27645e-05
-0.000135827
-3.13255e-06
8.09186e-06
-4.95413e-06
-1.62348e-05
-0.000170941
0.000187176
2.62042e-05
2.88279e-05
-0.00499293
0.00990268
-0.00490975
-0.0110229
-0.000979221
-0.00626404
0.0218263
2.70383e-05
0.000127068
0.0121865
0.0419356
4.31793e-06
5.04418e-05
-5.47569e-05
-0.00209071
0.00115935
0.000931374
-3.08317e-05
0.000110455
-2.65472e-05
0.000251697
0.000521166
2.4196e-05
1.23128e-05
-3.65085e-05
-0.000553418
0.000696998
-0.000143574
-0.0150668
-0.00893827
-0.00112055
-0.00494988
0.00607043
-2.09928e-05
8.71435e-06
1.22819e-05
-5.69009e-05
3.05673e-05
8.59935e-05
-0.000148642
0.000549856
-0.00029812
-0.0102461
0.0170621
-0.00681605
-0.00622318
0.00119985
0.00502333
1.03416e-05
-8.0444e-05
-3.03468e-05
-4.79751e-07
-2.5499e-06
5.48371e-06
-2.9333e-06
-0.000172634
0.000176602
-0.000964466
0.000441838
0.000522627
-0.000209618
0.000189767
0.000124631
-0.00203423
0.0114411
6.45442e-05
-8.74347e-05
2.28911e-05
-0.000179619
-4.67042e-05
-0.00718383
-0.00621946
-0.0103593
0.061959
-0.00412951
0.0304999
-0.0263703
-0.0209521
-0.0143367
0.0919769
-0.0607609
-0.031216
7.04043e-05
0.00825462
-0.0119423
2.68915e-05
-9.3529e-06
-8.40634e-06
1.77568e-05
9.29749e-05
-2.85927e-05
3.26786e-05
0.000335978
-0.000509552
-3.17946e-05
-2.62086e-05
5.80075e-05
0.0500347
-0.07645
0.0264153
3.34731e-05
7.57556e-05
-0.00294682
0.00043363
0.00251319
-1.78892e-05
1.44712e-05
3.4186e-06
-4.28371e-05
0.000125897
0.000859887
-0.00114286
0.000282992
0.000853581
-0.000521653
-0.0166268
0.0269561
-0.0103293
-0.0133698
0.019124
-0.00575418
0.000375887
0.00503746
-0.00541335
-5.96539e-05
-1.57928e-05
7.54496e-05
0.000347051
-0.000611419
0.000264367
-0.0116381
7.93006e-05
-2.86722e-05
-0.00902381
-0.00613612
2.70142e-05
-6.27625e-06
-0.010801
-0.00880353
-0.00144255
-0.000829602
-0.00211721
0.00153292
-0.00111973
-0.000413178
0.0783275
-0.0282928
-0.00382698
-0.00358903
-0.0017433
0.00134304
0.000400254
0.00911986
-0.0128235
-0.0023088
0.0026847
-0.00365658
-0.00115528
0.00144074
0.000721624
-0.000621032
0.00049603
0.0167776
-0.0228648
0.0060872
-7.52859e-05
8.84129e-05
-1.31256e-05
2.97429e-05
-5.34997e-05
9.32124e-05
-1.13009e-05
-8.19116e-05
9.10528e-05
-2.30883e-05
-6.79553e-05
3.61896e-06
1.79374e-05
3.00595e-05
-6.18585e-05
0.0251064
0.0160172
-0.000344459
0.000608361
-0.000263896
-0.000862911
1.6218e-05
-0.000300519
0.000284288
-0.018876
0.0010656
3.81515e-05
7.23048e-05
0.0131066
-0.000344751
5.14103e-05
-0.000460466
0.00112582
-0.000665351
-9.05355e-05
1.52492e-05
0.0001429
-9.77468e-05
6.41832e-05
3.35638e-05
-1.3908e-05
9.69997e-06
-0.000120311
7.74664e-05
9.66731e-05
0.000290111
-0.000504709
-0.00123138
0.000208692
-0.000192478
-0.020006
0.00708223
0.0129238
0.0951979
0.0075083
-0.102706
-0.000131328
5.29192e-05
7.84004e-05
0.0295587
-0.0280427
-0.00151607
-0.000721266
-0.00136944
-4.9629e-06
1.72941e-06
0.000659315
0.00414893
-0.00480823
0.00185309
-0.00174734
-0.000105765
-8.78037e-05
-0.0123541
0.0562423
0.000937925
-0.00464843
-0.0260006
0.0218711
-1.85221e-05
-1.78684e-05
3.63905e-05
0.00900312
-0.00357077
7.13016e-05
1.93074e-05
-9.06118e-05
0.000144146
-5.32587e-05
-9.0892e-05
0.000468069
-0.000334309
-4.08635e-05
-5.5494e-05
9.63648e-05
0.00011414
7.90932e-05
-0.000193227
2.44023e-05
-0.000249196
-0.0167386
-7.28774e-05
-0.000377674
-3.05616e-05
-6.71857e-05
-0.00737806
-0.00364486
0.000242792
-0.000312656
6.98621e-05
1.27868e-05
-2.49486e-05
-0.00644806
0.00234878
0.00409928
-0.00300066
0.00171573
2.86292e-05
-5.66911e-05
-0.000957775
0.00049731
-0.00444881
-0.000195939
0.00464474
-0.00441654
-0.000342216
-4.31828e-07
6.80586e-07
3.20449e-05
-7.84862e-06
-0.0023223
-0.00206228
0.0043846
1.58306e-05
-3.4353e-05
0.00502097
0.0245378
0.00115333
0.000699762
-0.058077
0.028499
0.029578
3.11808e-05
-6.74395e-05
8.39613e-05
-2.511e-05
-4.80844e-05
-0.000743711
3.75299e-05
-7.43386e-06
-3.00956e-05
-0.00407766
0.00175536
-0.0111074
-0.00467135
0.0157788
-0.00197482
0.0187524
-3.26243e-05
1.80597e-05
1.45654e-05
-0.0231614
0.0209883
0.0120747
-4.70205e-05
-5.30593e-05
6.16904e-05
-2.15602e-05
0.000198853
-0.00066495
0.000466094
0.00221857
-0.000289622
-0.000674842
0.00881669
0.0264325
0.0130051
-0.00977459
0.000499271
-0.00130922
-0.0110178
0.000264871
-0.00555464
-0.00908636
0.014641
6.53501e-05
-0.000123248
5.78775e-05
9.93958e-05
-5.62469e-05
-4.31477e-05
0.0114681
-0.00379986
-0.00766823
0.0722742
-0.0679181
-0.00435609
0.00363376
-0.00469993
0.0221237
-0.0098718
-0.0122519
-0.000770528
-0.000972766
-0.000438401
0.00458733
0.000218633
-0.000121959
-3.91654e-05
1.58198e-05
-0.00113399
0.0205612
2.15972e-05
1.79654e-05
0.0133401
0.00878359
-0.0479553
0.0236916
6.01087e-05
2.28052e-06
-0.00356817
-0.002655
3.4292e-06
7.07562e-06
0.0168931
0.0122556
-0.0328878
0.0206321
-0.0260102
0.0348269
0.0033123
0.00190363
-0.00521594
-0.000688361
-0.000269411
-0.00331927
-0.00373592
-0.0201163
0.00348948
-0.0100224
0.000736384
0.00928601
6.18511e-05
-0.000234496
0.00996323
-0.00125988
0.00152671
-8.59801e-05
0.000198464
-0.00025571
5.72264e-05
-0.00946769
-0.00111499
-0.000928723
0.000240362
-0.00512879
0.00606671
9.14991e-05
-1.84698e-05
-7.30276e-05
0.00273426
-0.00301434
-2.83836e-05
-2.85169e-05
-0.00383614
0.00347176
0.000364376
0.000720281
-0.000555433
-0.000164844
0.0288577
0.00117999
-0.0300377
0.0119803
0.00594822
-0.00012077
0.000178956
-5.81813e-05
-1.63094e-05
2.62784e-05
-1.40425e-05
-1.45716e-05
-2.37209e-05
-3.60556e-05
-0.0323587
0.0696375
-0.0372788
0.0337621
-3.36166e-05
-0.0630359
0.00170241
0.000145537
0.001081
-0.00456159
0.000734609
-1.7136e-05
0.00332944
0.00175688
-0.00082442
0.00688713
0.000372189
0.00106281
-0.000374479
-0.000688351
-1.14295e-05
-6.45586e-06
-1.25916e-05
7.71376e-05
-0.00194337
0.000179556
0.00176382
-6.12911e-07
-1.01199e-06
-7.38614e-05
0.000146912
7.95731e-06
-7.80108e-05
0.00780098
-0.00262102
-0.00517995
1.08587e-05
-1.6869e-06
-9.16894e-06
-0.00044828
0.000245625
-0.0153933
0.0106355
-0.00380972
-0.00607518
0.0443421
-0.0220351
-0.022307
-0.00467981
0.0033506
0.00132921
-0.016471
-0.036388
0.0107846
-0.00979015
-0.000994498
0.00189856
0.000386297
0.000199783
-0.0494006
-0.001787
0.000197919
-0.00137611
0.00117818
-0.000975103
0.00108457
-0.00121079
0.00484453
0.030918
-0.0244827
-0.00643532
0.0260495
0.0182927
0.00361665
-0.0169865
-0.0192964
-0.00138091
0.00154613
-0.044767
0.028296
2.20607e-05
-7.92107e-05
0.00392659
-0.0042521
0.000325491
-0.00552725
0.000398444
2.48956e-05
2.14976e-05
-4.63901e-05
0.000592712
-5.46852e-05
-2.59173e-05
2.70929e-05
-0.000118015
-2.75508e-06
-0.00922138
-0.00525819
8.9195e-05
-6.6673e-05
-2.25162e-05
-0.0220861
0.000784215
-0.000693736
-9.04772e-05
1.41207e-05
4.29884e-05
8.35705e-05
6.05761e-05
-4.14901e-05
3.21129e-05
9.37769e-06
-0.0100004
0.00643381
0.00356664
4.06671e-05
-1.99611e-05
0.00552635
0.000125584
-0.000519547
2.26486e-05
-9.93079e-07
-2.16524e-05
0.0601046
0.0182229
-5.27954e-05
8.88163e-05
-3.60284e-05
-0.0150891
0.0195781
-0.00448896
0.000314511
-0.000135793
-0.00017872
-0.00250309
3.57274e-05
-8.76339e-06
-0.0234572
0.00194608
9.9774e-05
-0.00490755
0.00515334
0.000358509
-0.00170214
0.00134364
-0.0241249
0.0363114
-0.011738
0.00536761
0.00637042
0.000164949
-0.0019303
-0.00190585
0.00557967
-0.0105726
0.00347004
-0.00056957
-0.00290047
0.00536576
-0.0102289
-0.0508714
-0.00994937
0.0608208
-6.4655e-05
-2.8438e-05
0.0169057
-0.00136544
0.00031877
-0.000242478
-7.62958e-05
-0.000386737
0.00124661
-0.00052404
1.72098e-05