/*--------------------------------*- C++ -*----------------------------------*\
| =========                 |                                                 |
| \\      /  F ield         | OpenFOAM: The Open Source CFD Toolbox           |
|  \\    /   O peration     | Version:  v2012                                 |
|   \\  /    A nd           | Website:  www.openfoam.com                      |
|    \\/     M anipulation  |                                                 |
\*---------------------------------------------------------------------------*/
FoamFile
{
    version     2.0;
    format      ascii;
    class       volScalarField;
    location    "200";
    object      p;
}
// * * * * * * * * * * * * * * * * * * * * * * * * * * * * * * * * * * * * * //

dimensions      [0 2 -2 0 0 0 0];


internalField   nonuniform List<scalar> 
18598
(
0.0495904
-0.135759
0.00310377
0.0046505
0.00265937
-0.014089
-0.000160327
0.00116627
0.000634916
0.00223557
0.000422286
0.00198077
-0.0128127
0.012575
0.0392746
0.00214362
0.00379021
-0.0127113
-0.00986573
0.00471888
-0.0121945
0.0019593
-0.00766673
0.00170442
-0.00434053
-0.0142958
0.0017772
-0.17306
-0.0143614
0.00151105
0.0438169
0.000678315
-0.144335
0.000400962
-0.0133873
0.00191855
-0.00208451
-0.00435808
-0.0167674
0.00470461
-0.173821
0.00185766
-0.00126893
-0.0178279
0.00186374
0.0184279
0.00164282
0.00508645
-0.00789109
-0.00501836
0.0222213
-0.00450455
0.00240818
0.0137903
-0.0350033
0.00189177
-0.0164387
-0.109472
-0.0933065
-0.00758591
-0.00573322
0.000332137
0.00232346
-0.0843425
-0.00666985
0.00254172
-0.0139919
0.00238376
-0.000546722
0.0239519
0.000655283
-0.00824678
-0.0362842
-0.0145974
2.20622e-05
0.00150258
-0.00584448
0.00219565
0.00221554
-0.0384881
-0.00507473
-0.00458816
0.0015558
-0.000694899
-0.0187961
-0.0354228
0.0016391
-0.0141224
-0.0317397
-0.0368854
-0.00134425
0.00178351
-0.0111744
-0.0190567
-0.00545816
-0.0357588
-0.00973044
0.0169464
0.00173487
-0.00689108
-0.0203367
-0.0160902
0.000731758
-0.0136769
-0.0117839
0.00158953
-0.012272
-0.090751
0.000201827
-0.0381465
0.00240247
-0.00551835
-0.00339946
0.00211852
0.000763377
-0.00605008
-0.0383172
0.00134459
0.00265877
-0.002917
-0.00793902
0.000947343
-0.0156683
-0.00135612
-0.00849907
-0.00248806
-0.0433655
-0.00276784
0.00184452
-0.156331
0.00129873
-0.0896588
-0.00210911
-0.0577798
-0.019741
0.00386858
0.00177325
0.00138436
0.00137874
-0.114363
-0.0441067
0.00156966
0.00156452
-0.107016
0.00727709
0.00221721
-0.0111319
0.00111649
-0.0157587
0.0015388
0.000797311
0.0362637
0.0026024
-0.145922
0.00268108
-0.0180814
0.00260563
0.000593933
-0.00816321
-0.00245424
0.00300239
0.0334047
-0.00952213
-0.0130166
-0.0787514
-0.00357353
0.0177313
-0.0248548
0.00154299
-0.0137839
-0.0138328
-0.0012543
0.00701214
0.00141814
0.00696241
0.00407512
0.00542458
0.00589035
-0.00257891
-0.0024475
-0.184608
0.000358786
-0.0153756
-0.111276
-0.0188802
0.00152069
-0.121534
-0.000431435
-0.00338537
-4.5637e-05
0.0116055
-0.0390774
-0.00309358
-0.0174877
0.00592019
0.0176131
0.00193801
0.00172165
0.00160221
-0.00181513
-0.00693575
-0.0527256
0.00221997
0.000447694
0.0260437
-0.0242072
0.00197422
-0.00197334
0.00226369
-0.0341994
-0.0241794
0.00035921
0.000743916
-0.0977105
-0.0341371
-0.0598813
0.0303752
0.00578467
0.00826463
0.00111452
0.0070117
-0.00356003
-0.026797
0.00194765
0.000508601
0.00207228
-0.00966003
-0.0422587
-0.00679391
0.00162102
-0.0287417
0.0577888
-0.00886168
0.00213632
0.00153468
-0.0302342
0.002186
0.00450537
0.000313931
0.00173496
-0.00283116
-0.0185816
-0.000793613
-0.0161981
-0.0022945
-0.0308089
-0.0113457
0.000410618
-0.00194752
0.000114406
-0.117661
0.00263327
0.00026622
0.0165704
-0.0109907
-0.00203883
-0.00349956
0.00702294
0.000884121
0.0241893
0.000284551
0.00118918
0.0167308
0.00247931
-0.00337103
-0.00284325
0.00149577
-0.00150813
0.0018521
-0.00450517
0.00145519
0.000302536
0.0248781
0.00145958
-0.0331819
-0.0811846
-0.00189387
-0.0181162
0.00584394
0.00893077
-0.0934153
-0.147518
0.00232312
0.00133169
-0.0341015
-0.0769982
0.00790901
-0.0253448
-0.0438208
-0.0790139
0.00179761
0.000430837
0.000457014
0.00424916
-0.158025
-0.0367345
0.0165723
0.00433636
8.39439e-05
-0.0184292
-0.00210713
-0.000456266
0.0592247
-0.0136465
0.00183304
0.0155266
-0.00729482
0.00126466
0.00270376
0.00181465
0.000110652
-0.00384753
0.00951125
0.000225072
0.000497984
-0.0497399
-0.00143878
0.00157105
-0.00713239
-0.00370709
0.00232434
-0.00197528
8.84276e-05
-0.00362635
0.0037219
-0.00232241
-0.0334698
0.000481595
0.000326743
-0.0150733
0.000168757
-0.0422795
0.00108326
-0.146929
0.00168537
0.0316513
-0.0151131
0.00308037
-0.0429085
0.00181398
-0.0149312
0.000101984
-0.0296457
0.00286468
0.00249008
0.00157529
-0.0184849
-0.00560131
-0.0289127
-0.0849007
-0.0137503
-0.0995786
-0.00243289
0.0250624
-0.113439
-0.0391531
-0.089944
0.000188351
0.0343168
-0.0016714
0.012988
-0.000575416
0.0026201
-0.0404393
-0.115582
-0.0136347
0.00274371
-0.00165889
-0.151862
-0.00327006
-0.0331946
0.00216904
-0.00267631
-0.0161646
-0.097368
-0.00288663
-0.000216593
-0.0019513
-0.0076073
-0.036133
0.00276701
0.0131516
0.0294444
-0.0191136
-0.0535373
-0.00442488
0.00239943
-0.000145446
0.00218309
-0.00525357
-0.00156958
-0.0272711
-0.0046098
0.0133232
0.00440328
-0.0280853
0.00149891
-0.0062999
0.0234513
0.00183513
-0.0248289
0.00187509
0.000121628
-0.00133906
0.00256925
-0.00361504
0.00186624
-0.0233939
-0.0178589
-0.0859289
0.00172077
-0.0102586
-0.154891
-0.0051332
-0.0931485
-0.00877593
-0.00132009
-0.000310134
-0.0121203
0.00272766
0.000515571
-0.0166314
-0.00344451
0.0018875
-0.0484525
-0.130691
-0.0146199
-0.0166515
-0.0169511
-0.0324753
0.00191565
-0.0326292
-0.0026009
-0.0156564
0.0128512
-0.0390364
-0.00267692
0.00184267
0.000664538
0.0013654
4.68211e-05
0.00137576
-0.0603343
0.00200188
-0.00162743
0.00309812
0.00190276
-0.00235133
0.00327006
-0.0618054
-0.0149089
0.00168935
-0.0258409
-0.0688882
0.000328562
-0.0164559
-0.0335443
0.000923389
-0.0403636
0.0014719
-0.000818465
0.00108862
0.000291159
0.000715469
0.00173851
0.000222013
-0.0309233
-0.107423
-0.0186147
0.000318413
0.00143771
-0.0161183
0.000133194
0.00267853
-0.143054
0.000323637
-0.0139463
0.00114256
-0.03453
-0.00218463
-0.0248775
-0.00394171
-0.0379191
-0.00186082
5.79651e-05
-0.00641228
0.00653365
5.72215e-05
0.00234015
-0.156923
-0.0186353
-0.00716501
-0.00391357
0.00141666
-0.00102432
-0.161038
0.00141849
-0.0122602
-0.000312415
0.00623035
-0.0300658
-0.0895286
0.00225563
-0.176728
-0.0215895
0.000394038
0.00157322
0.00173484
0.0563371
-0.0157068
0.00315852
0.00186393
-0.0162343
-0.0341335
-0.0131883
-0.00416442
-0.0355501
-0.0201745
0.000111
0.000104936
-0.0256674
-0.0331775
-0.0276415
0.000387789
-0.0537582
-0.00173
0.00235626
0.00123761
0.00314983
-0.0221655
-0.0188312
0.000164429
-0.00280576
0.0024667
0.00215285
0.00172249
-0.0160777
-0.00761855
0.00146199
-0.00676632
-0.0729264
-0.142889
-0.0280654
0.00973008
-0.0260391
0.00383685
-0.0140911
-0.0014155
-0.128307
-0.180179
0.00341741
0.00116868
-0.0334729
-0.00901171
0.00790779
0.00130825
0.0068559
0.00186765
0.000212303
0.000278172
0.000260147
-0.102647
-0.0281726
-0.0106694
-0.0491746
-0.0219826
-0.0189452
0.0292046
-0.0187238
0.00145689
0.00223496
-0.136028
-0.0136939
-0.00213723
-0.0110618
0.0014256
-0.013586
-0.0973569
-0.00559525
0.000276308
0.00112849
-0.139659
0.00641153
-0.0312876
0.00330212
-0.0161874
0.00155588
-0.0241313
-0.00136814
-0.00880302
0.00206162
0.000106956
0.000234151
-0.0152635
0.000509297
0.00322751
-0.0700477
0.000542903
-0.0304251
0.00226628
0.00481542
-0.00187489
0.00203423
0.00268253
0.000483464
-0.00157023
-0.000206695
0.00377016
0.0119271
0.00261331
0.00192423
0.00264046
0.000170493
-0.0981985
0.00171694
0.000362498
0.00223829
-0.0451486
-0.00230657
-0.0345271
0.000422185
0.00387661
-0.0290389
0.00149048
-0.114519
0.000203343
-0.0585964
-0.0754604
-0.0554538
0.00113248
-0.00413789
-0.00237836
0.00481171
0.00397762
-0.0315469
-0.0183762
0.00330427
-0.0444026
0.0042136
0.00193722
0.00410263
-0.0169094
-0.00114542
0.00726973
-0.0176774
0.00118981
-0.00346408
0.00187222
-0.00727934
-0.00851135
-0.0131944
-0.00791575
-0.0225878
0.00222917
-0.153524
0.0177848
0.00945525
0.000299149
0.00155475
-0.00132792
-0.0167925
0.00148659
-0.00491757
-0.0120393
-0.00424605
-0.0122825
-0.00227528
-0.0121823
-0.0425142
-0.0143977
0.00117085
0.00179213
0.000957407
0.00515022
-0.0271377
-0.0178976
0.00151546
0.0140101
0.00145576
-0.0265933
0.00269882
-0.142228
-0.0184967
-0.0256835
-0.0113727
-0.00206729
0.000232043
-0.0931299
0.00106423
0.000193258
-0.157772
-0.0406155
-0.00142854
-0.0342155
-0.0339767
-0.00435064
-0.00995325
-0.01449
0.0533817
-0.00195325
-0.00106718
0.0179461
0.00157833
-0.0205462
0.00261816
0.00112065
-0.206038
-0.0170831
-0.176056
-0.00793134
-0.0103291
-0.0117897
-0.00571834
-0.0590313
0.0590586
-0.0300183
-0.118261
0.000877398
0.00198958
-0.0317457
-0.00169579
-0.0185061
-0.00337792
-0.122615
-0.0159912
-0.00497685
-0.00207005
-0.0065522
-0.0127264
-0.0081188
-0.0209863
-0.00464767
-0.0375943
-0.0896457
-0.167302
0.00231787
-0.00521661
-0.0121882
0.0022182
-0.00193159
-0.0373808
0.00147133
-0.0350579
-0.0308909
0.00221412
-0.000530265
-0.014401
-0.0172696
0.00328851
-0.0152143
-0.0407068
0.00312231
0.00115276
-0.029287
-0.00633571
-0.020902
-0.00147398
0.000999947
-0.000172604
-0.00646266
0.0032125
-0.0015088
0.015929
-0.00221222
0.0520408
0.00168144
-0.0296905
-0.0200596
0.0016634
0.00246691
0.00266869
-0.0187478
-0.00976454
0.0015788
0.00187222
0.00141227
-0.0174034
0.00140182
0.00141955
0.00114788
0.000635994
-0.181423
-0.00174637
0.00157787
-0.0199275
0.000924051
-0.142271
0.0127585
-0.0238542
0.000469496
-0.0325495
-0.0223497
-0.00199764
-0.028008
-0.00206773
-0.0193046
-0.0132532
0.00131789
-0.0345526
0.0151266
0.00579889
0.00126252
0.00103744
-0.0175402
-0.0124718
0.00156336
0.00623453
-0.0095305
0.00190347
0.00153617
-0.0042418
0.00038655
-0.0301245
-0.0316926
-0.0245014
-0.00454147
-0.0295237
0.0481813
-0.172984
-0.0589699
0.003946
-0.170355
-0.0187206
8.52722e-05
0.00148504
0.00164145
-0.00829628
0.00145151
-0.0535686
0.000147902
-0.0292749
-0.0116702
0.00332173
0.000881929
-0.0058794
-0.065958
-0.00292069
0.000256182
-0.0167124
0.00494724
-0.00300219
0.00134665
0.000260646
-0.00302035
-0.0899065
0.00168859
0.0217581
0.00243388
0.00322078
-0.0482546
-0.0248009
-0.0315702
0.00287613
-0.0117467
0.00507677
-0.0869256
-0.0981512
0.00282009
0.046041
0.000470064
0.000920732
-0.0211265
-0.00949304
0.00188294
9.96719e-05
-0.0551236
0.00227099
-0.0144784
0.00178467
0.00341784
-0.0196402
-0.103113
-0.033428
0.00283907
0.000598354
0.00228941
0.00177417
0.000165611
-0.00592355
0.00219929
-0.0315905
0.00175167
0.00416767
-0.0719997
-0.0144743
-0.013801
-0.0265598
0.000105632
-0.000787312
0.00251655
-0.00125105
-0.0159387
-0.0158201
-0.0226057
-0.0663613
0.000995484
0.00298327
-0.00500658
-0.0191515
-0.00179943
-0.0144806
-0.0133203
-0.00209077
0.00412695
-0.0298548
0.00180498
0.0124995
-0.0188341
0.00150478
0.00278671
-0.164642
0.00169632
0.00274599
0.00625516
-0.0325463
0.00134335
0.00130137
0.00556138
0.000999567
-0.0110165
0.00238705
-0.0707658
-0.0160208
-0.00456669
-0.0125022
-0.0337437
0.00119785
0.00483929
-0.00136301
0.0452543
0.00100849
0.00125923
-0.000633441
-0.00823065
-0.0169481
-0.00271867
0.00150708
-0.0850416
0.000650249
-0.00264985
0.00441168
0.00229804
0.0153413
-0.0252328
-0.0138318
-0.00594248
-0.117543
-0.0302411
-0.0775342
-0.0121811
0.00263982
0.00020191
0.00216125
0.00113009
0.00909006
0.00053924
-0.0118132
-0.0219707
-0.0168272
0.00168401
0.00579838
0.000920171
0.000373117
-0.0715615
-0.0019066
0.00356594
0.00268447
-0.170601
-0.000590859
0.00163373
-0.00395746
-0.0232019
-0.100991
-0.028704
-0.0726912
0.00261531
-0.0192701
-0.0101767
0.00229139
0.0011107
-0.111523
0.000319035
-0.0111653
0.0158278
0.00216898
0.00174988
0.00166592
-0.0158618
-0.0298805
-0.0163237
-0.0363953
-0.0350061
-0.0342321
0.00381327
-0.00187227
0.00574629
-0.00171209
0.000916711
-0.00470615
0.00277781
0.00148616
-0.00189647
-0.00377003
-0.0947322
0.000673104
-0.03046
-0.0163557
-0.0870149
-0.0204544
0.00337584
-0.00388742
0.00419075
-0.106388
-0.00194278
-0.0297598
-0.000417796
-0.0416717
-0.0811145
-0.004577
-0.0145653
-0.0174348
-0.0860589
0.00281002
0.0021817
-0.00413089
-0.0903559
-0.0158861
0.00175323
0.000319602
0.00170035
0.00214149
-0.0394969
-0.0160889
0.0073344
0.00243319
-5.06108e-05
-0.0195692
0.00124104
0.00521403
0.000548582
0.000190638
-0.0295838
0.00223927
0.000519217
-0.0247669
-0.00582765
0.0141434
0.00148828
0.00258021
0.00114094
-0.0157791
-0.00906304
-0.0111818
0.00223767
0.00257751
-0.0218798
0.0142103
-0.0139782
-0.112804
-0.13827
-0.00351048
0.00435461
-0.0207108
-0.00998104
0.0212983
-0.00212017
-0.0686025
-0.0506322
-0.0261559
-0.124085
-0.0229358
-0.145716
0.000859843
-0.00620197
-0.0215639
-0.00129595
-0.0245672
-0.0629545
0.0151009
0.00633348
-0.00285119
-0.000771516
0.0235422
0.000862926
-0.0181534
-0.00648757
0.00178596
0.000877565
-0.00936829
-0.0177946
0.00114539
-0.00466665
-0.0433395
-0.0109654
0.00183156
-0.0281739
-0.034165
0.00563537
0.00191734
-0.0111451
-0.108824
0.00110121
0.00263201
-0.0181175
-0.0215522
-0.030589
0.00116974
0.00153628
-0.00133312
0.00627843
-0.0241891
-0.00231373
0.00271073
-0.114601
-0.00592917
-0.108201
-0.0390696
-0.0056012
-0.00231393
0.00057383
-0.0216623
0.00126803
-0.0190896
-0.135342
0.00336185
0.00314375
0.00168033
5.6627e-05
-0.00247125
-0.00354211
-0.0183268
-0.0232026
-0.00118969
-0.000273524
0.00134107
-0.00248681
-0.0112736
-0.0297017
-0.0371821
0.00430935
-0.0084278
-0.00253756
-0.0757962
0.000262347
0.00284823
0.00151688
0.00060693
0.00128131
-0.0204744
0.0017603
0.00249016
-0.0230107
-0.000181823
0.00145301
0.00374047
-0.0196302
0.00189344
-0.00020372
-5.47452e-05
0.00399476
0.00134566
-0.0111961
0.00253206
-0.00728205
-0.0107792
-0.0075486
-0.0149012
0.00012688
0.00139888
-0.00967604
0.0141159
-0.0865241
-0.0214347
0.0025952
0.00446794
0.000824337
-0.0281336
0.00185171
-0.013528
-0.00202471
0.00576256
0.00128828
-0.0175078
0.00366249
-0.00262108
0.0138477
0.00358557
-2.02117e-05
-0.00152149
-0.0273825
0.00173356
0.0208892
0.00052758
0.000458567
-0.0138913
0.00378704
1.50216e-05
0.0171819
0.002454
-0.012557
0.00250997
0.00132994
-0.121366
-0.00476888
0.00289756
-0.00104077
0.0136226
-0.00267709
-0.0254392
0.00913857
-0.104544
-0.00147027
-0.00850654
0.00961045
-0.0324873
-0.10632
-0.148951
-0.0375298
-0.0133812
-0.0583516
-0.0152396
0.00191426
-0.0157028
-0.0163272
0.00682629
0.00305261
-0.0502323
-0.00264392
0.00995175
0.00180448
-0.00818815
-0.0213413
0.00157112
-0.0143672
-0.0168532
0.000788419
-0.0021845
0.00242839
0.00151222
-0.149761
0.000105791
-0.0204073
-0.00155944
-0.0216935
-0.0184383
-0.0097609
5.94685e-05
-0.0277902
0.00256217
0.00255673
0.00437304
0.0416623
-0.0162818
-0.0239966
-0.0384865
-0.151736
0.00116683
0.00464295
-0.00216576
-0.00963582
-0.024441
0.00423022
0.00317729
-0.0249849
-0.0180698
0.00122633
-0.00682429
-0.00987155
-0.00839763
-0.0022866
0.000814979
-0.0465142
0.00267068
-0.0250896
-0.0137797
0.00152744
-0.0021555
0.0015558
0.00284551
0.000897139
-0.0241142
0.00179694
-0.0016351
-0.00235507
-0.0258159
-0.014162
-0.025862
-0.0806706
-0.0303785
0.00276132
-0.0208562
-0.0100124
0.00197277
-0.00891046
-0.00123124
0.00124884
-0.0810151
-0.0147618
-0.101085
0.00295397
-0.0165752
0.000481775
-0.00952771
0.000578882
-0.0028243
0.0170075
-0.108122
-0.00554897
-0.171432
0.00121396
-0.000563252
-0.0765359
0.0149046
-0.00689458
-0.0268708
0.00257545
-0.118069
-0.0486208
0.00366358
-0.0148051
0.0590415
-0.00269812
-0.00233603
0.0016082
0.00179646
-0.000422298
0.0175352
0.000845873
0.0147294
0.00172493
0.00995468
0.00327121
-5.61439e-05
0.0139175
0.00159126
-0.00254208
0.0129991
-0.0789747
0.00184476
0.00354381
0.00083207
-0.0336986
0.00145505
-0.00263702
0.00164037
-0.00110913
-0.00629625
-0.0195051
-0.00118527
0.00104313
-0.0153041
-0.0014471
-0.00391939
-0.0156288
-0.00815355
-0.188912
-0.0315356
0.00156518
0.0246085
-0.0390271
0.00162604
-0.0598169
-0.00170865
0.000848979
0.00270886
0.000941427
0.0104396
0.00152125
-0.0549306
-0.00256495
-0.0935027
-0.00821761
0.000880053
-0.121769
0.0129182
-0.014394
-0.018153
-0.147427
-0.000450852
-0.000403017
-0.0139232
0.00484518
0.0012291
0.000152772
-0.030265
-0.00466173
-0.036709
-0.074599
0.0029514
0.0136005
0.00243941
0.000651986
0.0102356
-0.0143856
0.00123403
0.00969785
-0.0119481
-0.00638547
-0.00203126
0.00540353
0.00257656
-0.000170782
0.00184316
-0.00646051
0.000474645
0.00152772
-0.0162018
-0.0558981
-0.0677324
-0.0287594
0.0119975
0.00180997
0.0109181
0.00242675
-0.00961051
0.00150534
-0.0423597
-0.0540932
-0.0289005
-0.014349
-0.00145832
0.0036453
0.012724
0.00279713
-0.0840641
-0.0502329
-0.00222459
-0.00180718
-0.0019227
-0.0213919
-0.116235
-0.00200411
-0.0145749
0.000885245
-0.0287832
-0.0179108
0.0010881
0.00191812
-0.0651758
-0.147521
0.0003648
0.00293389
-0.0523201
-0.0376902
0.00184825
-0.0178136
-0.00882921
0.00138611
-0.0319272
-0.0309102
-0.00136867
-0.00290006
0.027162
0.000880974
-0.0242184
0.0190052
0.00161825
0.00154483
-0.0348705
0.00034978
-0.028249
-0.00230536
0.000549669
-0.0231636
0.00140877
0.0177933
0.00626872
0.00171522
0.00165134
0.00171927
-0.0116761
0.00152727
0.00179367
0.00502532
-0.0183733
0.0319681
0.00111619
-0.0780157
-0.112744
-0.00977955
-0.0109363
0.000652925
-0.0635784
-0.0291445
-0.104032
-0.0227125
-0.0817559
-0.0239198
0.00262877
-0.0409436
0.00427598
-0.0022661
-0.0213864
-0.000383834
-0.012981
0.00151795
0.00114544
0.00177253
-0.0121078
-0.128932
0.00478362
-0.00929983
-0.0917809
-0.0287982
0.00146178
-0.042444
0.001807
-0.000791584
-0.0124237
-0.0154916
-0.00173868
0.00189265
-0.172368
-0.00218388
0.002306
-0.0126487
-0.0210338
0.000374206
0.0162307
-0.02988
-0.094657
0.0114144
0.00152736
-0.00846672
-0.00790456
-0.168159
-0.0221109
0.0241872
-0.0301189
-0.0137083
0.000707787
0.00195654
-0.071631
-0.0132408
-0.0106711
0.000735048
-0.00199697
-0.00951988
0.0516525
-0.0830582
0.00697296
0.00524561
0.0049026
-0.00601545
-0.0029347
-0.00238811
9.33728e-05
0.00939178
-0.0175987
-0.0162758
-0.0862078
-0.0177482
-0.0156662
-0.0111328
0.00165339
0.00167109
-0.0373394
0.000606197
0.0201963
-0.000726878
-0.00635204
0.00164315
-0.0195461
0.00249415
-0.0171538
-0.00292409
-0.00942032
-0.000470058
-0.0150634
-0.0257058
-0.00276268
0.00528909
0.0031974
-0.0495382
0.00166118
-0.0125477
-0.0026557
0.000137179
-0.0104169
0.00157736
0.000748865
0.0015109
0.00228869
-0.00984834
0.0167783
0.00524825
-0.0182917
0.00067299
-0.0124283
0.00061884
0.00110687
0.00608734
0.0011934
-0.00516508
0.00139003
0.000148381
-0.0241732
-0.0260756
0.00171016
-0.0511801
-0.151641
0.00209126
0.00223675
0.00113195
0.000537803
0.000932455
0.000323152
0.0341667
-0.00317867
-0.0167743
0.00373241
0.000477637
-0.0144113
0.00190104
0.00246945
-0.0116794
-0.000155132
-0.013752
-0.028272
-0.0395319
-0.0140844
-0.0104392
-0.0338526
-0.00428598
0.00369689
-0.0944215
-0.0161938
-0.0413648
0.00117019
0.002707
-0.0115651
0.00452645
-0.00922263
0.0024755
-0.017394
-0.12964
-0.00612054
0.00539964
0.0126477
-0.0142682
-0.00641791
-0.0435083
0.00411623
0.000656374
0.0014758
-0.176321
-0.00379078
-0.161718
-0.0184178
0.000192381
0.00187457
-0.017809
0.000141766
-0.111899
-0.147701
-0.0112074
0.00230055
-0.010068
-0.0709924
0.0398288
-0.011489
0.00107414
-0.126907
0.00164665
-0.015494
-0.0678254
0.00719745
-0.0754639
-0.0325473
-0.0661246
0.00501498
-0.0347283
0.00233501
-0.06247
0.0255568
-0.0215069
8.09202e-05
0.0016367
-0.0169109
-0.101559
0.000161299
0.00180394
-0.00619606
-0.0775287
-0.0142866
-0.015973
-0.0598811
-0.012525
-0.0145506
0.000848863
0.00559485
-0.0144547
-0.0272676
-0.0182334
-0.0224144
-0.0862251
-0.00133949
-0.000164986
-0.05073
-0.0299382
0.00135442
0.00277876
0.00010876
-0.00575826
0.000874509
-0.0101334
0.000725974
0.00114178
-0.101087
-0.0109129
-0.0336365
0.00297388
-0.0380288
-0.00254187
0.0001545
0.00218237
0.00114577
-0.0180455
-0.00859959
0.000567387
-0.0148567
0.00104944
-0.0314962
-0.000952239
-0.07736
0.000701322
0.0296702
-0.102046
-0.00573996
0.00675399
0.00175472
0.00238026
-0.10154
-0.000639159
0.00388903
0.00304814
0.00158471
-0.0301898
0.000959398
0.0491581
-0.0309694
0.00255203
-0.0765372
-0.0309994
-0.101575
-0.011581
-0.0482945
-0.0254415
0.0152962
0.00130183
0.00206565
-0.00602762
-0.108965
0.0024484
0.00268173
0.00144409
0.0023717
-0.0110713
0.00487839
-0.00537119
-0.00216418
0.0137525
0.000526642
0.000337146
-0.0117011
0.000330169
0.00241753
-0.0723098
-0.0209203
-0.0254668
-0.0241221
-0.1384
0.00608947
-0.0132558
-0.180794
0.000779244
-0.0315065
-0.0301737
0.0296439
-0.0495771
-0.0184517
-0.000131795
-0.146451
0.0233366
0.00292508
0.00336262
-0.0293626
-0.0069249
-0.0254893
-0.0203663
-0.0267829
-0.0840252
-0.00523113
-0.120093
0.00175891
-0.0177198
-0.025114
-0.0183427
-0.00143681
0.00170617
0.00147607
0.0028897
-0.0623369
0.00108543
0.00153448
-0.0178504
0.00370608
-0.00759934
-0.0147208
0.0121452
-0.0387745
0.00158164
-0.0229943
-0.0151795
-0.00631668
-0.0375184
-0.0116629
-0.024907
0.00240441
0.00172212
-0.0292673
0.000625535
-0.000946301
-0.0694573
-0.0388109
-0.00202089
0.00285937
-0.11547
0.00230559
0.00304356
-0.102968
0.00242976
-0.00600208
0.00335725
-0.0392051
-0.0120045
0.00146835
-0.00166547
0.00231318
0.00140052
-0.0448754
-0.00581275
0.000395364
0.00190771
0.0104088
-0.00757412
0.00178562
0.00778512
0.00143009
0.0056694
-0.0511679
-0.0757697
0.0168123
0.00163709
-0.000406796
-0.0393703
0.00203456
-0.0871422
-0.0243397
0.000701687
-0.0378643
-0.0176487
-0.00982319
-0.0205963
-0.0485824
-0.00211422
-0.0185744
0.00157455
-0.00587305
-0.122637
0.00274359
0.00314059
-0.165166
0.000947354
-0.0258708
-0.0118636
0.00165472
-0.0257848
-0.0166096
-0.00458772
-0.0270224
0.025629
-0.0160168
0.00120392
0.00527485
0.00236029
-0.0133308
-0.0220601
0.014815
0.0019255
-0.0139806
-0.083533
0.00134816
-0.00697765
-0.0276397
0.00141799
0.000298155
-0.0754866
-0.0102932
-0.0215178
-0.0254324
-0.00184555
0.000731487
0.00138495
0.00247871
0.00255949
-0.0345914
-0.00175355
0.00163964
-0.0509453
0.00468298
-0.0583759
0.00163972
0.00138368
0.00158456
-0.00746611
0.00309917
0.000847807
-0.119867
0.00418732
-0.0136985
-0.014422
-0.0658005
-0.0223915
0.00233113
-0.0315732
-0.0173217
0.00187902
-0.0105694
-0.0132465
0.000344888
-0.023433
0.00252617
-0.00992447
-0.0165073
-0.000257967
-0.000230481
-0.092931
-0.0244628
0.00231628
-0.0076955
-0.0267895
-0.01173
-0.0241561
0.00664828
0.00186817
-0.00291358
0.00177498
-0.0384772
0.000926292
0.00170849
-0.0448799
-0.103732
-0.000599446
-0.020104
-0.0263635
-0.0206958
0.00140963
-0.0317833
-0.0133011
0.0494192
0.00171092
0.00234306
-0.0348145
0.0009834
0.00192353
-0.00218051
0.00179324
-0.00580532
-0.011835
-0.0386048
-0.0451539
-0.0400057
0.00454306
-0.0167036
-0.0175629
0.00782032
-0.0739604
-0.0215896
0.000337761
0.00220028
-0.00123945
-0.0471015
0.00126995
0.00212218
0.00104698
-0.145315
-0.00692689
-0.0117867
-0.0482875
0.00134594
0.00249052
0.00342836
0.00892377
-0.00681262
-0.0124949
-0.0232721
-0.206754
0.0053735
-0.00470594
0.000792338
0.0196321
-0.0124171
0.00420626
-0.0016895
-0.0149843
0.00251606
0.00382563
-0.00401808
-0.0933048
-0.0176618
-0.0166466
-0.00605233
-0.0356069
-0.0121269
-0.0282922
-0.0176488
0.000173889
-0.0498886
0.00184657
0.0477251
-0.0339431
0.00213973
-0.00768968
-0.0559155
-0.0212163
-0.176703
-0.0133639
-0.102449
0.0026142
0.00550808
-0.172106
-0.0295362
0.0128303
-0.0420912
0.00145396
-0.012293
-0.056387
-0.0993666
0.0013452
-0.00145152
-0.157847
-0.0118837
-0.0290655
-0.155424
0.000617127
0.00102403
0.00305073
-0.00679888
-0.0292575
-0.00766649
0.0017871
-0.15512
-0.0146895
-0.0100484
0.00217218
-0.0243122
0.0130968
0.00337565
-0.00840767
-0.0235714
-0.0932221
0.00177878
-0.0340911
-0.0579359
0.00221833
0.00291445
6.53558e-05
0.00149828
0.00181642
-0.0858018
-0.00264393
-0.0068431
-0.0313739
-0.00482264
-0.0672393
-0.0174855
0.00164662
-0.0133408
0.00163775
0.00212525
-0.00649513
0.0021748
-0.0208282
-0.0346102
-0.101666
0.00558619
0.00177616
0.00146463
0.00244638
-0.057275
-0.028324
0.000260751
0.00298478
-0.0217228
0.00887956
-0.00744175
0.0031227
-0.0554336
-0.0176146
0.00161717
0.00165278
-0.0716591
0.0021563
0.00308343
-0.0128601
0.0113686
-0.0343341
-0.0165447
0.00286188
0.00277971
-0.0367399
-0.0433283
0.00136225
-0.00079767
-0.0120861
0.00215681
-0.018141
-0.0926243
-0.134261
0.00150301
-0.00248628
0.00211038
-0.0947728
-0.0286247
-0.111543
-0.0218291
-0.00181656
-0.0221018
-0.0169617
-0.000371027
0.0102522
0.00469399
-0.0358116
0.00373399
0.00268339
0.00124116
-0.00136609
0.0010349
-0.0148148
0.00343555
0.00216798
0.00208829
-0.0273057
-0.0159189
0.00160146
0.000485195
0.00519761
0.00199312
-0.00155803
0.00126016
0.000896936
0.00221998
-0.18389
-0.183737
-0.0572514
-0.0837597
-0.0222886
-0.00551217
-0.0131892
-0.000533746
-0.0131852
0.00136926
-0.200987
-0.0140674
-0.00110245
-0.00112991
0.00275789
-0.0426761
-0.0251352
0.00118644
-0.0216988
0.00165493
-0.00774218
-0.0202171
-0.00519528
-0.0609033
-0.00093546
-0.0349764
-0.000358385
-0.0569997
-0.0113547
-0.122383
0.00719216
-0.00575526
0.0147707
0.00397298
-0.0115534
0.0506416
-0.0514349
-0.00494607
-0.0482631
-0.168658
-0.0223025
-0.0721905
0.00495848
-0.00788653
-0.172235
0.00187266
0.0020308
0.00232333
0.00291084
-0.0189716
-0.0174177
-0.00558235
0.00230212
0.0154109
0.00161334
-0.0267376
0.000753843
-0.0247673
0.000760877
-0.0163017
0.054687
-0.0337488
-0.0541591
-0.000776715
-0.138892
-0.0245801
-0.0506263
0.00117158
-0.0654902
-0.064411
-0.00735314
0.00175399
-0.0134013
0.00163853
-0.00307875
0.00219231
0.00181907
0.00204876
0.00599539
-0.00135219
0.0111715
0.00396442
0.000391412
-0.177349
0.00109897
-0.00228157
-0.00704291
-0.0283045
-0.0107672
-0.0207708
0.00136133
-0.00209023
-0.0271856
-0.0292072
-0.117735
0.0021005
-0.0045908
-0.00490439
-0.0293681
-0.126564
-0.0652765
-0.0786906
-0.0143088
0.00190546
-0.00782512
0.0002761
-0.0116362
-0.0151038
0.00182545
-0.00171414
-0.0263191
0.002802
0.0268412
-0.0204849
0.00636204
-0.0203571
-0.00067444
0.00173264
-0.0709109
0.00204796
-0.000101307
-0.00103033
0.0545672
-0.0290748
0.000729328
-0.0138912
-0.159787
0.0122302
0.00759366
-0.0584091
0.00176362
-0.00121921
-0.0182164
0.00579324
0.0586688
-0.0177124
-0.00363996
-0.104465
-0.0096838
0.00181712
0.000673775
-0.0239904
0.00208986
-0.0290094
-0.0159782
-0.000893358
-0.0003254
-0.000980734
0.00402065
-0.0400473
-0.0372322
-0.123954
-0.048011
0.00161435
-0.00693472
0.00485074
0.000341677
0.000761481
-0.0432783
0.00645923
0.00261993
0.00290732
-0.00116327
-0.00436612
0.000255242
-0.0063586
-0.00516911
0.00421648
-0.0200677
-0.00868925
0.0558492
0.0200436
0.000129581
-0.00339329
0.00239815
-0.200456
0.0025646
-0.00362672
0.00993696
-0.0725188
0.00137562
-0.00391867
-0.0107706
-0.00969358
0.0279812
0.00379071
-0.176898
-0.00379634
-0.0230926
-0.000626522
-0.0138517
-0.0188655
0.0111093
0.0027353
0.00209961
-0.135796
-0.00838952
0.00117451
-0.0304288
-0.0165822
-0.0527903
-0.000821315
-0.0187508
-0.0613746
-0.0517014
-0.00496524
-0.000288396
-0.00505723
0.00314679
-0.020635
0.00141475
0.00677101
0.00145961
-0.0105854
0.00082208
-0.00188167
-0.0151681
0.00238034
-0.0503714
-0.0219774
-0.0126429
0.00220191
0.00138527
-0.00347931
-0.0562519
0.00217776
0.00375454
-0.109542
-0.114514
-0.0123265
-0.0122577
0.0035392
-0.0258427
0.00137264
-0.0209899
-0.0176476
-0.0025928
-0.14588
-0.011782
0.00225491
0.00150054
0.000241058
0.00304243
0.00321641
0.00227022
-0.0097758
-0.0476764
-0.000804146
0.00300116
-0.0120587
-0.0107555
0.00121318
-0.00325261
-0.0594271
-0.167765
-0.0884571
0.00118896
-0.0169636
-0.0685656
-0.0294422
-0.00342736
0.00114553
-0.115652
-0.01865
-0.00125517
-0.179144
-0.00843331
-0.0984763
8.1217e-05
-0.0166544
0.00653205
0.002025
-0.0648234
0.0244874
-0.175245
-0.175735
-0.0266541
-0.0986432
-0.0131168
0.000783241
-0.0615248
0.00402347
-0.0424315
-0.14403
-0.106405
0.00559138
-0.0402823
-0.0529242
-0.000854406
0.00342228
-0.0826998
-0.119438
-0.0121765
0.00991267
-0.0117657
-0.0342757
-0.011571
0.0229247
-0.00182504
-0.000882766
0.00212264
-0.00890942
-0.0122838
-0.00905557
-0.0452564
-0.0391
-0.0364409
-0.012682
0.000753352
0.00251163
-0.00396196
-0.11738
-0.0348138
0.0030273
-0.112475
-0.0267557
-0.0133583
0.00307371
0.00179036
0.000696084
-0.085245
-0.0134172
-0.0670669
-0.0207274
-0.00442755
-0.00176951
-0.0104109
-0.0257836
0.00201296
-0.0680087
0.00274758
-0.0154507
0.00188263
-0.102951
5.16272e-07
0.013158
-0.0200619
0.000213555
-0.0159931
-0.103121
-0.0649054
-0.00428958
0.000721039
-0.0158082
-0.00220867
-0.113625
-0.00944145
-0.102659
-0.0563533
-0.133772
-0.0532274
-0.0374137
-0.0522938
-0.00560471
-0.105336
0.0127433
-0.0925544
0.00119597
-0.0861888
0.016001
-0.0257779
-0.0139653
-0.0163689
0.000697126
-0.0225439
-0.020349
-0.0470241
0.00229526
-0.0830039
-0.0200719
0.00536433
0.000976653
0.00207621
-0.0169266
0.00136608
-0.0494957
-0.0436378
-0.0458095
-0.0283477
-0.0401229
0.000629334
0.0206581
0.00164681
0.00271193
0.00214785
-0.0446679
-0.0289896
-0.000845138
-0.0278735
-0.0011945
-0.0217918
0.00117016
0.0018938
-0.0764588
-0.0278698
-0.0205826
-0.0121697
-0.0144884
-0.064188
-0.0423305
0.00133197
0.00171586
-0.00024866
-0.104623
0.00148742
0.0021335
-0.168034
-0.0430767
-0.0081116
0.00113693
0.00210193
-0.0124963
-0.0167102
-0.0254504
-0.00111945
0.00173701
-0.00822485
-0.0322998
-0.0283581
-0.0225794
-0.137871
0.00553023
-0.00563651
0.00166172
-0.00127224
-0.00712663
0.00249611
-0.0738798
-0.0166211
0.0011693
0.00118541
-0.0242634
-0.00785235
0.000596563
-0.101452
-0.00344435
-0.158842
-0.0119295
0.00242166
0.00119766
0.00111732
0.000972485
0.00100395
-0.00990144
-0.0474149
-0.0998325
-0.0599894
-0.0411867
0.0093608
0.00730867
-0.0991828
-0.0110057
-0.0751895
-0.00010137
-0.0702808
-0.0058284
0.00162492
0.000628488
0.00127802
-0.0707434
-0.00569568
0.0339376
-0.0183866
-0.0040927
-0.0128706
-0.00105111
0.00413392
-0.0619038
-0.0223266
-0.12746
-0.0684242
-0.0231936
-0.0371441
0.0019504
-0.0677944
-0.0183539
-0.0207239
-0.0774296
0.0368351