/*--------------------------------*- C++ -*----------------------------------*\
| =========                 |                                                 |
| \\      /  F ield         | OpenFOAM: The Open Source CFD Toolbox           |
|  \\    /   O peration     | Version:  v2012                                 |
|   \\  /    A nd           | Website:  www.openfoam.com                      |
|    \\/     M anipulation  |                                                 |
\*---------------------------------------------------------------------------*/
FoamFile
{
    version     2.0;
    format      ascii;
    class       volScalarField;
    location    "150";
    object      ddt0(k);
}
// * * * * * * * * * * * * * * * * * * * * * * * * * * * * * * * * * * * * * //

dimensions      [0 2 -3 0 0 0 0];


internalField   nonuniform List<scalar> 
18618
(
2.11374e-08
3.08476e-07
6.41704e-08
7.63276e-08
2.40257e-08
1.33824e-07
-5.88886e-05
-1.32855e-06
-8.89773e-07
1.53093e-07
-3.70265e-09
-1.0503e-08
-1.17646e-08
-6.09912e-09
2.49355e-08
-2.01118e-08
7.11296e-08
1.31188e-08
-3.1562e-08
1.67772e-05
1.82604e-08
-4.34453e-05
-1.04118e-08
-1.92314e-08
-4.16079e-05
-1.0136e-06
-1.8475e-07
-3.19688e-05
4.40798e-07
2.52827e-08
1.54844e-08
1.40032e-08
3.45487e-08
-3.0186e-09
5.46488e-11
-3.28389e-05
1.63781e-07
5.52599e-06
-1.61052e-06
1.59797e-08
-1.81776e-05
-3.36979e-05
2.28299e-05
1.33334e-05
3.99097e-09
-1.59641e-07
5.09493e-06
5.0544e-09
1.38549e-07
3.7776e-05
-2.08844e-07
-6.01851e-09
1.93127e-07
1.31827e-07
1.69217e-05
1.62462e-06
-9.14916e-08
-1.60994e-07
-1.59263e-05
3.75185e-05
-9.50881e-06
-7.19111e-05
1.44503e-07
3.80179e-10
-4.11186e-06
-4.43289e-07
3.69291e-05
-4.56336e-08
1.76654e-08
-2.02002e-05
-3.13592e-08
-4.47468e-08
-1.48776e-08
1.41096e-05
7.67403e-07
-3.11173e-05
7.88773e-08
4.71912e-08
4.24066e-08
-3.94558e-07
1.44381e-09
2.91919e-08
5.30101e-08
1.92538e-08
-4.19215e-05
-3.19539e-08
-2.70308e-06
-1.9889e-05
-7.0413e-05
6.01483e-06
2.54776e-08
-1.03391e-05
1.64473e-06
-6.73296e-08
-7.43599e-06
-7.48362e-05
-2.00771e-08
-2.39929e-07
-8.46047e-09
1.14367e-05
3.91132e-05
3.71537e-05
2.03876e-08
5.13315e-07
4.58248e-07
1.3604e-07
-3.94563e-05
-7.2074e-09
-7.46028e-05
-6.38446e-05
-1.71665e-05
-2.70383e-08
5.64893e-06
1.17719e-05
1.31333e-07
3.57336e-08
-5.19363e-05
4.28106e-08
1.18431e-07
2.70395e-06
1.9556e-08
5.29013e-09
3.10143e-08
4.10896e-08
-2.89411e-07
-5.16106e-07
1.85602e-09
-3.70748e-06
-4.74446e-06
1.65425e-08
1.9789e-05
3.94522e-05
1.79394e-05
-1.46369e-07
-1.65553e-08
-3.48903e-08
5.85244e-10
-2.00316e-05
-3.08878e-05
5.69684e-08
-5.13402e-06
-6.36712e-05
-2.83068e-08
2.7835e-08
9.20947e-09
8.4645e-08
-1.11768e-08
1.48476e-07
-3.42224e-08
1.98373e-09
1.36735e-05
-4.35873e-09
4.24314e-08
-5.9326e-10
2.56274e-08
-5.84152e-06
1.99123e-05
1.62769e-08
2.83448e-08
4.42616e-05
-3.15252e-07
-1.59334e-09
3.40372e-05
1.24013e-05
-3.52107e-08
3.6507e-08
-1.90751e-09
-2.85179e-05
-5.11454e-08
-1.03427e-07
-6.88368e-08
3.51281e-08
-5.32994e-07
5.81561e-07
2.05641e-05
-6.60103e-08
-1.56713e-06
3.78284e-09
-2.15135e-08
-2.43943e-08
1.2061e-05
-6.09068e-10
-1.2041e-05
1.60792e-08
-6.42367e-09
3.46685e-08
9.7982e-06
-2.46902e-07
-1.69599e-06
-1.90065e-09
5.22551e-09
-1.01487e-07
4.98843e-08
1.30025e-07
-1.26236e-08
1.61472e-05
8.97884e-08
8.7147e-09
7.7598e-06
-1.72352e-08
-4.55844e-07
-1.32874e-05
1.39391e-05
6.76483e-06
-2.14917e-06
4.88098e-08
-5.24252e-06
3.91028e-05
-2.06844e-10
2.93295e-08
-2.35891e-06
-1.26846e-06
5.43863e-09
9.43578e-09
-4.79975e-08
3.50371e-08
3.41937e-05
-4.2958e-05
1.68712e-07
-2.80533e-08
4.97774e-08
2.68752e-08
-3.32137e-06
-1.89275e-08
-2.03784e-05
-4.57721e-08
1.95965e-08
-6.22889e-08
-1.62452e-06
-4.77387e-08
3.14731e-08
-4.18484e-08
-1.83567e-09
-4.53601e-06
-3.54938e-09
7.42542e-09
3.55664e-08
6.85782e-08
1.57262e-05
-4.22778e-09
2.23939e-07
-1.60101e-07
-2.82264e-09
1.04079e-05
-1.2052e-07
5.13374e-08
1.48253e-05
3.85368e-08
-2.00179e-05
-4.31898e-08
-2.0627e-08
-3.8744e-05
5.79288e-09
3.64649e-05
-9.09125e-09
4.88256e-09
-4.03032e-07
5.10323e-08
-1.79687e-08
-2.23984e-08
5.08915e-08
3.39861e-05
-4.02026e-05
-7.5846e-08
-4.69761e-05
8.2348e-06
-6.58866e-07
2.11538e-08
-5.70195e-07
-2.87157e-08
8.49405e-09
-4.03653e-08
2.97653e-08
5.03051e-08
-4.82797e-08
6.98978e-08
3.09987e-08
2.22961e-08
-6.93656e-08
-2.69383e-06
1.21648e-08
-2.85815e-07
1.5606e-09
4.7556e-08
5.81647e-07
1.60255e-08
1.23434e-07
-1.2356e-07
-2.71589e-07
-1.78611e-07
1.59852e-08
2.51386e-07
7.0873e-09
3.2135e-08
5.48167e-06
5.44911e-07
-8.93559e-06
4.02514e-05
3.37166e-05
-1.86464e-09
2.36253e-08
4.6412e-09
-6.13401e-08
9.49707e-09
2.96001e-08
-6.7277e-10
6.0314e-09
2.44899e-05
-4.92934e-07
2.14115e-05
6.52876e-06
-1.04341e-08
-6.20259e-07
-1.02739e-07
-9.92145e-09
2.19343e-08
9.70147e-08
-2.54493e-08
-9.02901e-08
-3.81713e-05
2.91384e-08
7.46034e-06
5.07223e-08
-1.47513e-05
-1.04205e-08
4.83904e-06
7.94515e-06
-2.74624e-08
-2.47822e-08
1.69821e-05
5.73984e-09
2.2762e-05
-1.62045e-08
-2.50446e-09
-3.13835e-08
3.73341e-08
3.56221e-05
5.69615e-09
-2.07273e-09
2.73377e-05
2.19175e-07
1.18326e-07
-2.51695e-05
3.45109e-07
1.6354e-08
-2.48266e-07
-3.73485e-08
-5.63363e-07
2.63886e-07
6.84422e-08
2.0128e-08
1.66645e-08
4.19369e-05
2.5816e-08
-2.0144e-08
-8.77165e-10
-1.05884e-08
2.47328e-07
-5.86304e-08
2.38544e-08
-1.96604e-07
2.23877e-08
-3.21458e-05
-1.69343e-08
1.6774e-05
-4.11447e-05
1.34986e-08
1.79605e-08
1.88941e-07
9.56048e-08
8.32878e-08
8.15366e-08
1.46582e-07
2.79367e-08
-1.96763e-09
1.7063e-08
1.80829e-07
1.81833e-07
-8.85686e-08
-1.04663e-07
2.85248e-07
-4.44724e-08
-9.26757e-10
-4.3213e-08
1.22139e-07
1.54038e-08
-1.38703e-07
4.12381e-05
5.91756e-09
-2.82734e-07
-1.62039e-08
-1.46994e-08
1.25452e-05
-1.84252e-05
4.38451e-08
2.57806e-07
-1.10851e-05
4.10831e-05
4.54791e-09
2.71616e-05
-3.72076e-08
-2.7431e-09
-1.95573e-08
1.00888e-05
3.6817e-08
1.2117e-05
9.55869e-09
2.42462e-08
-1.70469e-08
-5.05162e-08
4.9742e-08
2.58569e-09
1.75339e-08
-1.58627e-08
-1.89769e-08
-2.30853e-07
-1.47467e-08
4.95698e-09
-6.87535e-10
1.26726e-08
-2.97013e-08
-5.82134e-06
-4.24029e-09
2.24442e-08
1.34962e-08
-3.66119e-06
-2.41043e-07
1.6879e-08
5.54401e-06
3.91608e-05
-3.0604e-08
1.27616e-07
-1.55254e-07
-3.63423e-08
1.57154e-08
-2.77785e-08
5.50401e-08
-1.05164e-07
5.30919e-08
2.34984e-07
-3.93532e-08
6.83344e-06
-1.26708e-07
-4.67859e-08
1.22801e-06
-2.84478e-07
-7.64887e-08
1.72283e-05
2.64385e-07
1.8397e-08
5.0131e-08
4.40922e-09
-2.16315e-07
7.57441e-08
-1.74397e-08
-1.53271e-06
-7.0098e-08
-4.38505e-08
6.64796e-08
-3.0598e-05
1.00612e-05
-9.23271e-09
3.31249e-07
1.42879e-08
4.63963e-07
-6.13177e-08
-2.28779e-08
-4.49546e-09
1.51311e-07
-7.52631e-08
-1.46879e-08
5.95276e-09
2.8476e-08
1.18774e-05
-2.41131e-08
-1.57371e-08
-6.91521e-06
-9.95505e-09
8.38612e-06
-1.40702e-08
2.28024e-07
6.34626e-08
2.89405e-05
-5.0921e-09
-6.62461e-08
1.08795e-08
3.84609e-07
-5.88646e-08
-4.93602e-08
-3.03816e-08
-4.25857e-07
1.01167e-05
-3.70936e-08
-2.9001e-08
3.211e-05
2.52933e-05
-9.65112e-07
-8.40137e-05
3.88452e-08
-2.92381e-08
1.57275e-08
-5.38181e-08
3.51253e-05
2.92273e-08
-3.34763e-08
-5.5286e-07
5.12256e-08
-6.39492e-08
1.12623e-05
-2.21257e-07
-3.60623e-05
-3.33151e-08
-1.08144e-08
-2.3089e-08
-2.68966e-07
4.07846e-09
-1.18188e-08
-1.91947e-08
1.10042e-07
1.60317e-05
5.03045e-08
-2.87279e-11
-7.3204e-07
-6.99604e-08
-6.24578e-09
6.28447e-08
2.10939e-05
-4.90098e-08
2.85295e-06
1.50572e-08
2.58471e-05
2.66881e-05
3.13816e-08
4.4998e-08
-2.34812e-07
-5.54939e-09
-9.4482e-06
-4.24331e-09
-3.03028e-08
-7.54612e-09
5.47395e-08
-1.02152e-07
-1.69294e-07
-1.15722e-07
2.826e-08
2.71665e-08
9.52784e-06
-5.96444e-05
1.37296e-08
-3.34706e-08
8.74459e-09
-2.08669e-07
-8.38397e-08
-9.28775e-08
-1.06468e-06
1.20828e-07
1.09287e-05
7.17401e-08
-4.44054e-07
-1.99737e-07
-2.24474e-05
3.91122e-08
1.85278e-05
-6.84166e-08
2.77484e-08
-1.74977e-07
1.18237e-05
-8.42849e-09
-5.64375e-07
-4.88902e-08
-7.04005e-09
1.44612e-06
-2.2805e-07
-1.02894e-05
-9.45354e-05
1.97071e-05
-4.56969e-05
-1.72506e-07
1.33615e-05
5.2743e-08
-2.00084e-08
-8.79609e-08
2.83005e-08
4.57006e-09
-3.72299e-08
3.35795e-08
-1.18007e-08
1.05924e-07
1.5332e-05
3.27656e-07
1.88923e-08
-1.42697e-08
3.0644e-08
1.54279e-07
3.20027e-08
-1.0976e-08
-5.96235e-06
3.21932e-05
4.88016e-07
-2.64359e-08
1.31024e-08
8.17288e-06
-1.7054e-07
1.61557e-08
-3.7939e-08
-3.13541e-08
-1.13675e-08
-2.0442e-08
-2.95603e-08
5.95866e-08
4.23983e-06
-4.45956e-06
2.46289e-05
-5.04739e-05
4.03075e-05
1.00017e-08
-1.84772e-08
2.59211e-05
-1.02511e-08
-6.16679e-08
-2.19986e-08
-2.11414e-08
1.56346e-05
-1.67373e-07
-7.44619e-09
-4.11298e-08
-2.18511e-08
-4.87494e-08
-1.16006e-06
8.80389e-08
-4.35503e-08
-1.98986e-08
3.16018e-05
1.40237e-08
-3.9312e-07
-1.60409e-08
9.5536e-06
3.17873e-10
2.91555e-05
-2.45417e-08
4.49936e-09
1.8764e-08
3.48783e-05
2.15708e-07
1.06753e-08
1.95134e-06
-2.72652e-07
4.6634e-08
4.42111e-09
1.37367e-08
1.85709e-05
-7.11857e-09
9.32513e-08
1.26944e-07
-5.81688e-09
4.31829e-09
-1.70333e-07
2.28081e-05
1.20379e-08
8.10949e-10
-7.45464e-06
1.6906e-07
-6.44327e-09
-1.32871e-08
-1.42611e-07
-1.08424e-08
-9.96448e-09
-9.92891e-09
2.95612e-07
-6.13373e-08
2.1275e-05
9.53095e-09
9.11525e-09
-3.6661e-08
4.58801e-08
1.75209e-07
-3.13406e-05
1.75327e-07
-1.63231e-05
-3.2318e-08
-1.83411e-05
-2.66752e-08
-2.54412e-07
-1.07388e-08
2.49732e-07
3.71347e-05
6.45321e-06
9.03418e-09
-1.80849e-08
5.67776e-08
1.38521e-05
2.01009e-08
-4.4573e-08
9.22916e-09
-1.2334e-06
-7.50086e-07
-1.22422e-07
-1.47711e-08
-3.71581e-08
4.13435e-05
5.00036e-06
-4.96201e-08
-1.40059e-09
-6.60338e-07
-1.47472e-08
9.72284e-09
-3.29014e-08
1.29126e-05
6.43003e-08
-7.68587e-08
2.6906e-08
-8.45853e-08
-2.12065e-08
2.45724e-05
-2.79382e-06
1.18184e-05
-4.57566e-08
5.94064e-06
5.04414e-08
1.47066e-08
4.8696e-08
-1.69171e-08
1.03895e-05
3.36479e-05
6.83512e-06
1.77135e-07
4.24425e-05
-1.7737e-08
3.22079e-09
-3.25812e-09
-7.14832e-08
1.67466e-05
-1.801e-09
-2.57229e-08
5.58725e-06
-3.72301e-08
4.20995e-05
1.86487e-05
1.68035e-08
7.35553e-09
-1.44419e-07
4.96766e-08
1.27202e-07
3.04306e-05
3.37892e-05
-1.68716e-05
-2.05445e-07
4.88296e-07
-6.51717e-08
1.70654e-05
5.26988e-08
1.05964e-08
5.14654e-08
-3.29798e-09
1.14296e-05
2.48728e-08
-7.30427e-05
-6.76785e-08
3.67463e-08
-5.10226e-05
-2.04351e-07
-4.28947e-10
4.68762e-09
-4.15703e-09
-2.13163e-08
-9.42209e-07
3.30064e-05
7.21518e-09
-3.19697e-08
9.74562e-06
8.69194e-09
5.02289e-08
-3.37821e-08
-6.08925e-09
-1.96636e-08
8.06309e-09
-4.05497e-06
-3.84546e-08
-6.74936e-08
-2.40441e-08
1.34661e-09
-8.42254e-06
1.23268e-08
-5.71666e-08
-5.1398e-06
9.63172e-09
1.59207e-08
1.66392e-05
1.81807e-05
5.88002e-06
4.86239e-10
1.39178e-08
-1.73069e-07
4.12371e-08
-3.81526e-08
2.07145e-05
1.67878e-07
-2.64419e-07
1.70169e-05
1.90476e-08
-1.80413e-07
8.7295e-09
-1.1026e-08
-3.9765e-08
1.86933e-07
-6.67317e-08
-1.34197e-06
-2.00777e-08
-2.13786e-08
1.82361e-05
-4.16995e-07
3.14106e-08
-2.43455e-07
2.07705e-07
2.12232e-09
3.36249e-09
-1.4621e-08
-8.5229e-09
-4.24011e-08
-3.18891e-08
8.02248e-10
1.04689e-07
-3.49032e-09
3.61655e-06
-7.43941e-09
1.89339e-05
-4.55572e-05
4.01569e-08
-3.09917e-09
9.53433e-08
1.29795e-08
9.75797e-08
2.72275e-06
3.2095e-05
-3.24816e-08
-8.60255e-09
-3.80791e-06
2.45395e-08
2.52878e-08
-1.15398e-08
2.53611e-06
6.62004e-09
-6.85158e-05
6.24823e-08
8.70579e-09
2.67149e-05
-1.23724e-07
-3.71843e-08
-4.39815e-08
-5.3624e-08
2.63636e-05
1.75995e-05
-1.89534e-05
-6.24952e-08
-1.66129e-05
1.83187e-05
-3.75222e-05
1.39246e-05
1.27793e-08
2.21749e-05
-1.39429e-07
-1.18439e-07
-9.00568e-08
1.55196e-08
6.98071e-06
9.66285e-08
6.28572e-09
-3.43734e-09
4.48654e-07
-4.42367e-08
-2.72538e-08
-3.44393e-06
-8.00567e-08
-6.67595e-08
1.09746e-05
-1.08493e-08
-3.92855e-08
3.76525e-05
3.68741e-08
-5.06197e-08
-4.26455e-08
-1.25697e-09
6.72083e-08
-3.55922e-08
4.2397e-10
2.14036e-05
3.78101e-06
-4.80821e-07
1.31097e-08
2.10895e-05
3.07438e-05
1.25777e-08
1.22615e-08
-1.77518e-08
-2.87566e-07
-3.57095e-08
1.60955e-08
3.20097e-08
-3.55013e-09
-1.05813e-07
3.92566e-08
-5.40924e-09
2.14472e-07
4.60731e-09
2.9956e-08
3.63538e-07
-7.35385e-07
1.01475e-08
-5.76815e-08
-4.45142e-09
-1.23647e-08
1.37124e-07
4.72449e-08
7.89538e-08
-3.00338e-08
3.81795e-06
-1.10126e-07
-2.30901e-06
-5.69289e-08
-1.72852e-08
7.08006e-10
1.64491e-08
1.63504e-08
1.38677e-08
-3.07604e-05
8.82833e-07
1.43032e-05
1.1249e-08
6.15879e-08
-8.64897e-09
-5.48758e-08
1.11927e-07
-1.37155e-07
-1.79429e-08
3.11855e-08
-7.58031e-08
-5.9155e-07
-9.99277e-06
8.80189e-08
3.35795e-08
7.61188e-06
-1.43981e-05
-1.18404e-07
1.57296e-07
-1.23088e-05
2.95844e-05
-5.87534e-08
-2.91139e-08
-1.2009e-07
1.63352e-08
6.07723e-08
1.03804e-08
2.42129e-10
-3.46055e-07
-4.57987e-08
-2.24615e-07
-4.72578e-09
-4.26095e-08
4.40491e-08
-5.41936e-08
-3.38778e-05
-4.04774e-08
4.17774e-08
2.21815e-08
9.2736e-08
-2.7549e-08
-1.10939e-08
3.39357e-05
2.15801e-05
1.94297e-08
-2.43602e-08
1.27604e-05
2.13837e-08
1.0864e-07
9.71234e-08
7.26728e-08
1.93424e-05
-7.3954e-08
1.63104e-08
5.82752e-08
-4.19441e-06
-3.82822e-08
-1.88634e-08
-3.60398e-05
2.98489e-09
9.00368e-07
-6.64358e-09
1.36056e-05
-1.80464e-08
-1.4863e-08
-2.13177e-05
1.30923e-07
-1.09025e-05
-5.89492e-08
1.31138e-05
-1.27701e-05
-4.85847e-08
1.76336e-07
-3.87553e-05
9.54985e-08
2.34272e-05
3.23994e-08
1.85419e-09
-1.24889e-07
-1.66081e-07
-1.58197e-09
6.58085e-08
2.03043e-08
-3.2684e-05
-1.19668e-07
5.76188e-08
3.68546e-08
5.21426e-09
-8.58798e-08
2.37598e-08
8.06251e-08
-1.59031e-08
-6.70652e-09
-4.35767e-08
-2.11136e-08
1.2897e-08
1.65269e-05
6.49775e-09
2.27807e-07
3.91499e-08
-6.66085e-07
-6.72797e-08
-1.18763e-07
-8.5809e-07
3.86484e-05
1.11481e-07
-4.45736e-08
9.71371e-06
-2.81607e-05
1.00962e-08
-1.29085e-05
1.686e-08
1.4368e-05
4.72959e-07
7.085e-09
7.39478e-08
4.81545e-08
-1.13315e-05
-3.2335e-09
1.17191e-08
4.73481e-08
-1.59348e-07
-4.87284e-08
-7.23368e-07
2.57124e-08
-5.58325e-07
-1.51896e-08
-1.60349e-11
-1.79018e-05
1.56137e-08
8.21854e-09
1.27833e-05
-1.88067e-08
-4.64165e-08
-7.03313e-06
-1.62529e-07
1.19116e-07
-5.69087e-07
-4.26389e-08
-4.12132e-08
-1.43246e-07
1.57036e-08
-3.48467e-08
-8.99576e-09
-3.61141e-08
-1.03182e-07
-4.39975e-05
-1.59474e-07
1.13748e-05
2.70442e-08
2.28235e-08
2.40052e-08
2.93432e-08
-5.55071e-09
1.48704e-06
-2.80722e-05
3.60731e-09
3.47206e-09
1.83517e-05
2.54238e-05
-2.951e-05
2.75279e-08
-5.33656e-08
1.45404e-08
-3.75336e-08
-9.7563e-08
-2.3945e-08
-5.84014e-10
1.12183e-08
4.53498e-08
3.23648e-08
-6.98329e-08
3.09692e-08
6.58406e-08
-1.56493e-07
-4.19803e-08
-1.64424e-08
4.12456e-05
2.07794e-07
-4.94639e-05
-2.19666e-08
2.04275e-07
2.22417e-09
-1.54494e-05
-3.85239e-06
9.15699e-10
-2.3255e-08
-2.16342e-07
-1.62377e-05
2.48956e-05
-3.03038e-08
2.2365e-08
-1.13453e-05
-1.99213e-05
-3.40102e-06
1.44425e-08
-6.25999e-07
6.2615e-09
3.53541e-08
-2.62685e-08
-2.0218e-07
-2.65087e-08
2.08267e-08
-4.66871e-09
7.14328e-08
1.40236e-06
3.89166e-06
1.40743e-08
2.23874e-08
-5.1263e-08
1.54664e-08
-6.14928e-07
6.12908e-08
8.90794e-08
6.56156e-09
1.89856e-09
-4.24818e-08
-3.64588e-09
2.43937e-07
-3.10275e-06
1.14023e-08
7.41029e-08
1.28103e-08
-7.71652e-08
3.68368e-08
-1.79039e-07
-1.81678e-05
-2.52965e-08
-2.79677e-08
3.23511e-05
2.41712e-08
-4.68327e-08
-7.04725e-09
-6.93976e-08
-2.60348e-05
-2.80942e-08
-1.85237e-07
-1.4363e-07
-2.03403e-08
-3.64086e-08
3.70123e-05
2.2681e-08
-1.61361e-08
-6.76204e-08
4.39165e-08
-1.18908e-07
-2.03715e-08
-4.57981e-05
1.89479e-08
7.33277e-08
-1.23286e-08
4.91024e-07
3.00539e-08
2.80683e-05
-7.24241e-05
-3.58169e-08
-1.49369e-07
2.94184e-05
1.10265e-08
-2.46641e-05
6.95024e-08
2.4716e-08
-1.24869e-07
2.49806e-05
3.49319e-08
3.0557e-09
-2.08918e-08
1.31987e-08
-4.5735e-08
-2.0318e-05
6.6e-06
-4.72465e-08
1.88043e-05
-4.63117e-08
-3.45919e-08
1.45537e-08
-3.37682e-08
4.46737e-09
-2.62603e-08
1.40333e-09
-1.23651e-09
2.89728e-05
-4.87026e-05
-2.58894e-09
-7.50583e-09
-2.8742e-08
2.88312e-05
-1.97255e-07
3.67872e-08
-1.52346e-07
1.04644e-05
6.7686e-08
-4.36409e-09
1.27768e-07
1.45337e-07
1.47244e-07
2.20398e-08
7.27841e-08
-4.88326e-08
-3.48013e-08
-4.0461e-08
-4.1959e-08
9.92411e-08
1.59505e-07
9.17587e-09
9.22814e-08
8.32783e-08
-1.01874e-08
6.74052e-08
3.93229e-08
1.53307e-05
4.17959e-08
-9.18812e-09
2.86152e-06
1.45672e-06
4.36306e-08
-5.96193e-08
2.72393e-08
1.00136e-07
7.94806e-08
-4.06633e-08
-1.37877e-05
1.81908e-06
-6.27117e-08
9.73148e-09
3.99572e-08
2.91641e-08
3.34384e-05
-4.15824e-07
-5.65709e-08
6.1756e-08
-1.50339e-08
8.60173e-06
-2.23605e-08
-1.7411e-05
3.1477e-07
3.55991e-05
-3.81645e-09
1.33833e-06
-2.22287e-08
-1.6822e-08
6.36754e-08
-9.35246e-08
-1.34335e-06
-9.17713e-05
4.44444e-08
2.52549e-09
-4.50894e-09
-5.31447e-07
-1.11652e-06
1.03046e-07
-3.45382e-08
-3.05035e-08
3.72595e-09
7.03801e-09
-3.56161e-08
2.20953e-08
7.10286e-06
3.35506e-08
-3.40153e-05
1.66921e-08
3.40186e-08
-1.16123e-08
2.44103e-08
-5.53572e-05
2.88835e-05
-4.68352e-08
1.31739e-08
-2.08362e-08
-7.62629e-08
-6.08646e-08
4.23969e-08
4.77914e-08
3.60261e-08
2.53989e-08
2.08176e-08
-2.2003e-08
-1.03721e-09
3.88177e-07
-1.1386e-08
4.72928e-08
3.78729e-08
-2.30298e-07
-1.47058e-07
-2.44719e-08
6.53796e-09
2.18733e-08
-2.4312e-08
-1.56017e-08
-4.0571e-08
-1.2199e-08
-4.00521e-08
3.10629e-05
-6.38604e-08
-3.02191e-08
-1.63459e-06
-1.9518e-07
-1.48464e-08
-2.89084e-08
-1.85315e-08
-3.78932e-05
-1.84005e-09
6.19005e-08
-8.87292e-07
-2.0859e-08
-9.53678e-07
2.14624e-07
-1.04641e-08
1.50901e-07
-2.96216e-08
-1.7157e-07
-2.59579e-07
1.34364e-07
-3.30715e-05
1.40988e-05
1.48005e-07
-2.00709e-08
-8.40037e-08
7.03861e-09
-8.70321e-08
8.49809e-09
-1.18712e-07
3.26384e-09
2.07676e-05
-3.35042e-08
-2.24807e-05
-3.89108e-08
4.4082e-06
1.01243e-09
-2.091e-07
-6.38778e-08
-2.5511e-08
-7.27249e-08
1.66619e-08
-9.3971e-08
-2.45834e-08
1.40985e-08
-9.59928e-07
-3.5433e-05
-1.2656e-06
9.69969e-08
-5.8464e-07
-3.14041e-08
8.99078e-08
-3.85156e-08
5.6436e-08
1.53729e-05
-1.28592e-09
-5.50354e-07
-9.31788e-08
-3.98563e-05
3.29823e-05
1.62209e-06
3.95997e-07
-1.97704e-05
4.06835e-06
-1.05943e-05
3.29347e-08
3.60076e-09
-3.10803e-08
7.46706e-08
-4.34781e-05
-4.78306e-05
4.77704e-08
6.07233e-07
1.00282e-08
-6.49419e-08
-4.1664e-08
1.04485e-07
1.83378e-06
-4.42361e-08
7.5114e-06
-2.19909e-05
7.88058e-09
-4.31396e-06
7.53889e-08
4.03792e-05
1.83676e-05
-1.30023e-08
4.77219e-09
3.9692e-07
5.47865e-08
3.289e-08
5.38499e-08
-8.21815e-09
-2.25269e-08
2.28826e-08
1.20452e-08
4.90167e-06
6.24134e-08
3.45845e-06
1.03707e-07
-4.71627e-08
-1.61541e-07
1.8722e-07
2.25896e-07
2.92999e-08
4.4586e-08
-3.01212e-08
-7.09826e-09
3.68235e-08
-1.81393e-09
-1.7006e-08
1.99626e-05
-1.58796e-07
-2.27418e-08
8.6314e-08
3.00049e-08
2.30792e-08
6.49766e-08
-6.57287e-09
1.88796e-08
7.08175e-08
-3.12741e-07
2.66991e-07
1.09286e-05
1.15116e-09
-1.86271e-05
-1.92368e-09
6.70209e-08
2.93452e-08
3.78797e-08
1.51087e-08
6.04731e-08
1.48848e-08
2.29198e-08
4.08042e-08
-2.7005e-05
1.24062e-07
1.81191e-06
2.02594e-05
7.38632e-08
1.95812e-08
-8.63103e-05
1.19983e-08
2.4089e-07
4.2229e-07
-8.77664e-05
-4.94058e-08
-2.03795e-05
3.85758e-05
-4.16065e-09
8.40374e-06
-9.65672e-06
1.09388e-08
2.04693e-07
-5.85468e-07
3.1101e-08
-7.80131e-07
9.39818e-08
1.12579e-05
2.78671e-08
8.55537e-08
2.69264e-07
2.91161e-08
8.66645e-09
8.65379e-09
-8.35849e-07
-8.06717e-05
-1.17877e-07
1.06556e-06
-2.21421e-08
-1.44706e-05
-1.76801e-05
2.14199e-05
4.35314e-08
2.91769e-08
1.58697e-08
3.56169e-05
-4.21888e-08
-2.01288e-08
-3.43302e-05
-6.07975e-06
-4.67003e-08
4.26093e-08
-5.54694e-07
-3.10847e-08
4.55392e-08
4.3281e-06
7.34002e-09
1.84123e-05
3.9811e-05
-2.2797e-08
2.03955e-05
3.37177e-08
5.39103e-09
-2.26387e-08
-5.10593e-07
7.32772e-08
8.74642e-06
-1.48261e-07
5.12841e-08
1.02176e-08
-1.70988e-07
9.90594e-08
7.98239e-09
-6.3412e-07
3.81128e-09
-1.19392e-05
2.13428e-07
5.46794e-07
-3.73703e-08
-1.10257e-06
3.33327e-07
-8.46173e-06
2.18197e-05
-3.74707e-08
4.16212e-05
1.25043e-07
5.93866e-09
-8.46841e-09
-1.86629e-08
-1.26658e-08
1.4509e-08
1.28144e-07
-3.00018e-07
5.51737e-09
-9.33495e-09
-2.40929e-07
-1.85383e-05
2.5659e-07
-1.53807e-07
-2.0781e-08
-4.01611e-05
-2.69566e-08
6.68908e-08
1.59267e-09
-1.9448e-07
2.84254e-05
2.6174e-09
-2.1261e-08
5.05987e-08
-7.4984e-08
1.50987e-07
-5.01165e-05
2.24618e-05
1.84617e-08
7.41746e-06
9.2015e-08
-1.05393e-07
5.80004e-08
-2.944e-08
-3.90238e-07
-5.22355e-08
2.58974e-08
-2.42193e-07
2.6857e-05
-1.38271e-08
8.0562e-08
4.74361e-08
-1.19246e-08
1.57398e-05
-9.85343e-09
-1.12622e-09
-6.55761e-10
6.72297e-09
-9.08277e-05
-2.87689e-07
-2.74723e-07
1.19277e-05
5.59987e-09
3.50082e-05
5.17265e-09
2.37273e-08
-1.3273e-08
5.01202e-07
-1.65212e-05
-2.28553e-08
3.20768e-08
1.85043e-08
-3.38567e-08
-7.22702e-08
2.78468e-08
1.34097e-05
-2.20046e-05
-3.68435e-06
1.50483e-05
-1.06704e-06
4.16148e-08
-1.34443e-05
7.02609e-08
-8.96343e-07
-6.089e-08
-1.68507e-08
6.79371e-08
4.68812e-08
1.13861e-08
-1.5444e-08
4.45077e-10
-2.30492e-07
2.56205e-05
-1.78765e-10
2.66836e-08
-6.11558e-08
-9.4783e-09
-2.25938e-07
2.26391e-05
-1.46292e-08
4.39697e-08
-3.85994e-08
-5.6129e-08
1.35537e-08
-6.49693e-09
8.39461e-09
1.11492e-08
1.56178e-05
1.24486e-05
-2.04106e-08
-5.98987e-08
2.3376e-08
8.53426e-09
-1.034e-09
-7.58957e-09
-1.80214e-07
-1.39041e-08
6.40048e-09
-7.96722e-09
-4.73331e-08
1.59653e-05
-2.341e-08
-7.67398e-09
-3.66584e-08
5.82509e-06
2.66676e-05
2.06951e-09
2.33831e-09
4.5082e-09
-4.24203e-09
1.81527e-05
2.24379e-05
1.17636e-05
-1.81308e-05
-2.92577e-09
2.51152e-07
-8.24214e-09
5.86047e-09
3.03042e-07
6.726e-08
7.85301e-09
8.97014e-06
-9.13353e-08
-8.2933e-08
-2.36144e-05
2.46521e-06
-2.56831e-07
2.6674e-08
-3.7774e-08
-4.29051e-09
-1.06275e-07
-6.65381e-07
2.63737e-08
-6.13828e-08
2.81831e-07
2.05366e-08
-7.09824e-09
-1.84494e-05
-1.9458e-09
2.66436e-05
3.32759e-05
3.13184e-06
-2.29058e-07
2.80575e-08
8.82109e-08
-7.43781e-08
1.75792e-05
-2.48855e-07
1.05863e-05
8.51109e-08
-2.54149e-09
-6.79822e-06
1.95115e-08
-1.20262e-08
1.6901e-07
-2.00733e-09
-5.81017e-10
1.97322e-05
-1.06857e-05
-2.18975e-08
3.66374e-08
3.56249e-05
2.8659e-07
3.73129e-08
4.38342e-08
8.53842e-08
2.16475e-06
-1.5619e-09
5.29197e-08
7.36883e-09
7.29926e-08
1.02024e-07
-5.76912e-08
3.7696e-08
5.58909e-07
-1.78005e-08
-9.0285e-08
1.37033e-08
1.15937e-05
3.50438e-05
-0.000103392
9.57853e-06
-4.46162e-08
2.37932e-06
-7.58457e-06
-2.82815e-08
-1.11038e-07
3.5536e-08
1.59331e-08
1.15968e-07
6.33437e-08
-3.62032e-08
2.92019e-08
-1.04207e-08
-4.60624e-08
-3.22267e-08
-5.09933e-08
-2.48869e-08
-2.04603e-08
1.12704e-08
-8.58145e-07
-4.03415e-08
-1.3636e-05
-3.25172e-08
-6.23953e-08
4.39532e-08
-2.71805e-07
3.6401e-05
-1.48279e-07
4.04991e-08
-1.46054e-05
-1.07127e-07
-7.86049e-08
-1.11431e-08
6.25281e-10
2.85565e-07
-5.01235e-08
-5.30972e-08
-1.41394e-08
3.52484e-07
6.57983e-07
-1.83063e-05
-6.50301e-09
-9.65631e-07
2.3691e-05
-1.49246e-08
6.03498e-08
-2.0172e-09
1.512e-08
-5.63817e-09
1.22467e-05
2.73052e-05
3.21239e-05
1.41606e-07
1.55804e-08
4.35273e-07
1.69904e-08
-1.59026e-07
3.60236e-08
7.03812e-08
5.60492e-08
3.25354e-08
-3.42968e-05
-6.76976e-07
-1.84266e-05
2.78193e-07
-5.70215e-07
6.35363e-08
-1.08851e-05
9.424e-08
2.87318e-05
-2.04916e-08
7.10689e-08
-3.31733e-05
-1.29492e-08
4.74167e-09
-1.26614e-05
2.3148e-08
1.39598e-07
7.09978e-08
1.72676e-08
-7.456e-08
-2.11269e-08
1.46773e-08
-4.22807e-08
-1.07422e-08
1.18819e-08
4.96068e-08
-7.78315e-08
1.16479e-08
-7.69586e-09
7.48929e-08
-2.29629e-07
2.13809e-05
2.1633e-08
2.59473e-09
-7.13126e-07
-1.89639e-07
-2.22799e-05
5.42192e-08
-4.74263e-05
7.08675e-06
-5.90976e-07
-2.21117e-05
-1.99838e-08
-1.316e-08
-2.31774e-08
3.81981e-08
-1.10608e-05
5.89551e-08
-2.1729e-09
7.00787e-08
2.17351e-05
7.53333e-06
1.78486e-05
1.19632e-07
9.80229e-09
4.18741e-08
-2.65688e-07
2.10085e-05
-2.06984e-07
3.62989e-08
7.7534e-08
1.78864e-07
1.27257e-09
3.55521e-07
-2.19907e-08
-1.91905e-08
9.0895e-10
-4.99123e-09
2.49662e-09
-3.40472e-06
-4.89176e-08
-3.65425e-06
2.02099e-05
-3.19926e-08
1.74655e-05
3.05709e-07
1.73564e-05
-1.97355e-08
-5.53343e-08
-1.73582e-08
1.42666e-06
-4.58015e-09
-7.68663e-08
4.43024e-05
2.30989e-05
2.5724e-09
2.36308e-07
2.8931e-08
-1.6237e-07
6.76725e-06
-1.63071e-07
-1.41815e-07
4.53587e-08
5.95003e-08
1.75277e-08
-1.19597e-07
2.45716e-08
1.11438e-08
-7.15153e-08
-2.85815e-07
-9.68378e-07
1.89393e-07
-2.31042e-05
-1.37593e-07
1.69709e-07
-6.30858e-08
-2.98712e-08
-1.91484e-08
-4.35347e-08
-3.81315e-08
-4.94552e-09
-1.50937e-05
-5.48627e-08
-5.43794e-08
1.48343e-07
4.48089e-09
-4.57536e-08
1.2783e-08
-5.31058e-08
3.71378e-08
-6.12419e-05
-1.95154e-08
-1.26084e-09
3.94416e-08
-7.11486e-07
-1.54958e-06
-8.45832e-08
-5.45961e-08
-1.83081e-05
4.91525e-08
2.04826e-08
-2.35334e-05
-1.03031e-08
3.18349e-08
-8.14383e-05
-1.47455e-07
2.40265e-05
9.05137e-09
1.00243e-08
-4.23076e-05
4.28459e-08
-8.22509e-07
3.04891e-08
-2.88433e-08
-1.18739e-08
3.56272e-08
-2.0026e-07
5.46581e-08
9.30634e-06
4.28798e-05
3.33256e-07
-5.67093e-08
-2.42868e-08
-1.25385e-07
1.25783e-07
1.3713e-08
-6.30791e-08
1.78188e-09
2.60359e-05
-2.46972e-08
-3.22242e-08
-7.10781e-08
-5.70911e-09
-4.34571e-07
-4.21768e-08
-1.51067e-07
-4.80511e-08
-2.89375e-08
2.36825e-09
-4.35043e-05
1.46908e-05
7.46452e-08
-8.80538e-07
-5.96306e-08
-5.79601e-08
9.42924e-06
-6.15027e-10
-1.91289e-05
-2.56421e-07
-3.68034e-08
6.91841e-08
-7.25467e-08
-3.26267e-08
4.16018e-06
2.93461e-05
-2.02626e-07
-3.36706e-05
-5.22138e-08
1.55885e-07
8.41728e-07
2.18012e-07
-1.10978e-08
1.06445e-07
-2.40722e-08
3.13634e-07
-3.17815e-05
-1.64008e-07
-2.55892e-08
7.27036e-08
-7.04646e-08
-1.92666e-07
2.14024e-07
8.45015e-06
2.68809e-07
-1.12699e-08
-3.0454e-08
-3.40883e-08
3.2573e-05
5.14061e-08
-1.23369e-05
3.69539e-06
7.29808e-06
-1.46153e-05
7.49011e-08
-2.37776e-08
2.27911e-09
-4.92917e-08
-2.02827e-08
-5.94427e-09
3.17072e-07
1.81379e-08
8.14555e-09
3.14912e-05
8.73998e-08
-9.2644e-08
-5.72817e-08
1.93463e-07
-1.09595e-05
5.73795e-09
9.61336e-08
7.24106e-06
-9.94141e-06
1.83561e-08
2.44607e-05
4.66773e-06
3.30035e-05
-2.66425e-05
1.45785e-08
-9.30386e-08
-1.75035e-05
9.89765e-08
1.36236e-07
-2.33754e-07
1.56567e-05
-5.54851e-09
-2.83503e-08
-3.0244e-08
-2.13846e-07
-1.29178e-08
1.75083e-05
9.05066e-09
5.95861e-06
2.92167e-08
1.26511e-05
7.33774e-09
4.37597e-07
2.27568e-08
1.94789e-08
9.29377e-09
1.97216e-07
2.53035e-06
2.3412e-05
6.17178e-08
4.13544e-05
-2.1346e-08
-1.84999e-07
-3.75429e-08
7.00857e-09
2.5005e-05
-1.60389e-07
-1.3028e-05
3.02027e-05
7.43254e-09
-1.65297e-07
-1.25615e-08
-1.271e-07
4.18691e-05
1.31895e-07
1.59562e-07
2.76566e-08
-6.97065e-08
1.38842e-08
3.49751e-08
-6.59896e-08
-5.8968e-05
4.07678e-05
-2.16643e-08
7.77574e-09
4.93085e-07
1.17143e-05
-7.26615e-06
1.69175e-08
-4.84342e-08
-2.49339e-05
1.20232e-05
-2.01395e-08
-5.21596e-08
-3.802e-08
2.06399e-07
-5.98241e-08
6.08368e-07
3.3804e-09
-2.48207e-08
-8.20563e-08
-1.22364e-08
2.1918e-07
-1.53464e-08
-1.3578e-07
3.29459e-06
5.67387e-08
-2.45816e-05
1.08939e-08
-5.76648e-07
-1.92973e-05
-1.65872e-08
-5.25892e-08
-5.56848e-10
2.2097e-09
1.69152e-08
-2.50363e-08
-1.07556e-07
-1.27778e-05
-9.31269e-07
-1.09797e-07
-2.74057e-08
6.30234e-08
2.29376e-08
3.23693e-07
5.75938e-09
-3.97865e-09
-6.4458e-08
2.2808e-08
1.71031e-07
3.36538e-08
-1.98136e-05
3.23863e-08
-1.63108e-06
-8.36789e-10
-4.25033e-08
1.47816e-07
1.80457e-08
-1.91206e-05
-3.00313e-07
-2.2318e-08
6.10418e-06
1.465e-07
7.53813e-08
-5.69403e-09
-1.15886e-08
3.03549e-08
-2.73481e-08
-3.70595e-08
-3.87236e-07
4.97994e-08
1.11697e-08
3.17076e-08
1.12375e-08
-1.17858e-07
-2.61e-07
-9.18458e-08
-1.48113e-08
-7.29812e-07
-6.64243e-08
-4.11384e-09
4.76318e-09
2.02811e-05
-2.89067e-08
-3.80225e-07
1.9758e-07
5.09019e-08
2.91752e-08
2.87257e-07
-1.70235e-08
-2.95238e-10
4.02168e-09
2.9988e-08
-3.52711e-05
-2.32616e-05
-1.42647e-07
-6.3125e-06
-5.60459e-08
-8.20646e-09
-9.27366e-08
-4.80758e-08
3.49898e-07
-1.44206e-07
-2.9766e-07
-2.20429e-05
-1.80781e-05
-4.04287e-08
-1.83438e-08
-4.93457e-09
-1.16207e-07
5.84488e-08
3.17297e-07
6.77544e-09
2.87682e-08
2.12981e-07
-7.46555e-08
-4.13052e-05
8.00047e-07
6.49352e-08
2.17231e-05
-4.56657e-09
-4.86054e-07
-8.8379e-06
3.72108e-08
-1.11846e-08
-5.91482e-06
2.21305e-08
-4.66829e-08
1.559e-05
-8.59876e-06
-1.75284e-08
1.13984e-08
1.38112e-08
-2.90864e-08
3.02173e-06
-5.36544e-09
-1.7344e-07
3.31556e-05
9.57406e-09
-4.06625e-08
5.00172e-05
9.88928e-08
3.53261e-05
-3.44972e-08
-3.05455e-08
-4.99703e-07
-4.07618e-08
-2.9763e-08
5.36328e-08
-9.71655e-08
1.48224e-07
-9.67977e-07
8.6356e-10
-2.87015e-08
1.22337e-07
3.03098e-05
-1.64831e-05
1.17689e-07
-6.37311e-05
-3.99958e-07
-2.64818e-05
1.87956e-05
-1.31849e-05
-1.92591e-08
-2.0349e-08
-1.50144e-07
-1.69773e-08
3.42207e-09
1.34307e-07
1.04385e-09
3.08483e-05
-1.02342e-07
-6.46283e-08
-3.23295e-08
-8.99584e-06
3.24588e-05
-1.45971e-05
1.67541e-07
-5.17362e-05
-5.93017e-09
-1.0932e-07
-4.28646e-08
-3.844e-05
3.86543e-07
-2.11527e-08
4.86018e-08
-1.3429e-08
3.90493e-05
9.14294e-09
-5.49263e-05
-9.45432e-06
-3.18837e-07
-1.10064e-08
1.4839e-07
-4.74708e-09
-8.92096e-08
-1.21493e-07
-2.18989e-08
-4.75607e-08
-1.46345e-07
-1.15655e-07
5.39452e-09
-5.69784e-07
-5.64202e-08
5.4879e-08
-6.22502e-05
-8.39925e-08
1.89175e-07
-6.34333e-09
5.18289e-05
2.58937e-07
1.87709e-08
-4.72553e-08
-1.15126e-08
1.14004e-07
1.10156e-08
1.7391e-05
-7.04748e-08
-3.98633e-06
-9.99324e-08
-1.00363e-07
-9.97141e-08
8.81466e-09
-3.11732e-08
3.82627e-05
-8.90318e-08
6.617e-08
2.66103e-07
9.06374e-06
-5.67539e-07
1.93187e-08
-3.14297e-05
4.25553e-08
-2.25754e-05
-4.0454e-05
1.21592e-08
5.49111e-08
-1.89113e-05
4.40183e-09
-1.55775e-05
-1.06587e-09
-1.14506e-05
7.25838e-09
5.6853e-08
-4.48597e-07
-2.89233e-09
-3.25627e-05
-7.63776e-08
7.1299e-09
4.20786e-05
1.60894e-07
-1.43226e-08
3.60694e-08
5.26098e-08
1.41511e-05
-4.63195e-07
1.88243e-07
-1.10609e-05
1.13654e-08
4.08793e-05
-1.00863e-07
-5.4614e-08
-2.32927e-08
1.77154e-05
-2.17408e-05
-4.79056e-08
-9.96473e-08
9.03332e-09
-6.63713e-08
-1.72769e-08
-1.50419e-08
-3.33903e-08
-1.10433e-05
-7.19818e-08
9.33351e-10
2.21024e-07
5.03268e-08
-8.65774e-07
4.20809e-07
-5.63616e-05
3.30046e-07
-1.38554e-08
2.2432e-07
1.76876e-08
-5.969e-09