/*--------------------------------*- C++ -*----------------------------------*\
| =========                 |                                                 |
| \\      /  F ield         | OpenFOAM: The Open Source CFD Toolbox           |
|  \\    /   O peration     | Version:  v2012                                 |
|   \\  /    A nd           | Website:  www.openfoam.com                      |
|    \\/     M anipulation  |                                                 |
\*---------------------------------------------------------------------------*/
FoamFile
{
    version     2.0;
    format      ascii;
    class       volScalarField;
    location    "150";
    object      k;
}
// * * * * * * * * * * * * * * * * * * * * * * * * * * * * * * * * * * * * * //

dimensions      [0 2 -2 0 0 0 0];


internalField   nonuniform List<scalar> 
18618
(
0.000106068
0.000526532
9.53968e-05
0.000114496
0.000105919
0.000109389
0.0189169
0.0196396
0.000321479
0.000150251
0.00010558
0.000107085
0.000100043
0.000106125
0.000108415
0.000109169
9.42557e-05
0.000106272
9.07461e-05
0.0131694
0.000108229
0.0708686
9.23807e-05
0.000107379
0.0186972
0.000342357
0.000145777
0.0609489
0.000186086
9.55054e-05
0.000103767
0.000100508
0.000102288
0.000106419
0.000106858
0.0458788
9.7895e-05
0.00149196
0.0223415
9.27161e-05
0.035013
0.0627702
0.023377
0.0103121
0.000100445
0.000108809
0.0238075
0.000107379
0.000147222
0.0275074
0.00014451
9.80598e-05
0.000135645
0.000156189
0.0185009
0.000877483
0.000130832
0.000129986
0.0373644
0.0180783
0.0243693
0.0290931
0.000146654
0.000111994
0.00109723
0.000206744
0.0169957
0.00010018
9.89277e-05
0.0412521
0.000156914
9.0933e-05
0.000136098
0.00674832
0.0121757
0.0477479
0.000132643
0.000111433
9.8768e-05
0.000211947
9.68236e-05
0.000106444
0.000113963
0.000103982
0.0725409
9.80343e-05
0.000887257
0.0401044
0.0279636
0.00713754
0.000100922
0.0268021
0.00132952
9.4938e-05
0.0253343
0.0293464
0.000104049
0.000283879
0.000109477
0.0250803
0.0266829
0.0133521
0.00010075
0.000755359
0.000185807
0.000175864
0.0143629
0.000105097
0.0293524
0.0213222
0.0329765
9.41286e-05
0.0262686
0.00953454
0.000115553
9.32535e-05
0.015159
0.000114133
0.000142247
0.011974
0.00010757
9.78366e-05
9.68515e-05
0.000110194
0.000136243
0.000192469
0.00010006
0.000920057
0.00110009
0.000142268
0.0168308
0.0145341
0.0143948
0.000126517
0.000104387
0.000103265
0.000117766
0.0379026
0.0880953
0.00010826
0.0216314
0.0216375
9.91195e-05
0.000107823
9.40381e-05
0.000115701
9.34905e-05
0.000114329
0.000109083
0.000106874
0.0080653
0.000105859
0.000102362
0.000107887
9.67719e-05
0.0250094
0.0318738
0.000110012
9.78651e-05
0.0969415
0.000135385
0.00010695
0.0219739
0.0103767
0.000118489
0.00010545
0.000104133
0.0615988
0.000111839
0.000299484
0.000148663
0.000101664
0.000204668
0.000746629
0.0213617
0.000115534
0.00286587
0.000107706
0.000118275
0.000101701
0.00649464
0.000106865
0.0689806
0.000135551
0.000122555
0.000111376
0.00829995
0.000731084
0.000607878
0.000106209
0.00011628
0.000109425
0.00010541
9.43817e-05
9.87537e-05
0.00416182
0.000108364
0.000103962
0.0188125
0.000100808
0.000194174
0.0472567
0.00818824
0.0169226
0.00290791
0.00010456
0.0244012
0.0141261
0.000130037
9.34674e-05
0.000609803
0.000481264
0.000100626
9.38113e-05
0.000104115
0.000143915
0.0285028
0.0231223
0.000107615
9.6115e-05
0.000106948
9.6865e-05
0.0315879
0.000141827
0.0392933
0.00011815
9.79769e-05
0.000215501
0.000757904
0.000100444
0.00010406
0.000101454
0.000105088
0.0218689
0.000101878
0.000125514
0.000133878
0.000270534
0.00924446
9.32576e-05
0.000420291
9.80471e-05
0.000120923
0.0230676
0.000130307
0.000112418
0.00368752
0.000125833
0.0381634
0.000113786
9.51455e-05
0.0654235
0.000107333
0.012697
0.000106391
0.00010023
0.000284503
0.000120033
9.14253e-05
9.61451e-05
0.00011491
0.0281993
0.0233872
0.000106863
0.0688086
0.0021754
0.000301093
0.000107827
0.000196854
0.000108915
0.000215849
0.000118428
9.90216e-05
0.000114898
0.000147741
0.00010665
0.000105132
0.000105513
9.47569e-05
0.0310392
0.000115042
0.00013283
0.000113961
0.000102369
0.025952
0.00011403
9.96469e-05
0.000133803
0.000133875
0.000175785
9.22657e-05
0.000127005
0.000114887
0.000103397
0.0911642
0.000797292
0.0296388
0.0262127
0.0218588
0.000100521
0.000111047
0.00011131
0.000113253
0.00010461
0.000119692
0.000129596
0.000109549
0.020674
0.000208968
0.030542
0.00268412
9.09795e-05
0.00102422
0.000142429
0.000135633
0.000108783
0.000102424
9.90224e-05
0.000119699
0.0121981
9.34436e-05
0.00421056
0.0001269
0.0481837
0.00013817
0.00151072
0.00569756
0.000108727
9.17597e-05
0.0705147
0.000114021
0.1024
0.000109295
0.00013497
0.00010383
0.000117509
0.0178262
0.00010084
9.32574e-05
0.0266595
0.000126039
0.000147036
0.093302
0.000228768
0.000120236
0.000137418
0.000101363
0.000200242
0.000128274
9.28932e-05
0.000121688
9.11512e-05
0.0242337
0.000128546
0.000114262
0.000122374
0.000127574
0.000127859
0.000109974
9.89868e-05
0.00010461
0.0262088
0.0631195
0.000128819
0.0173901
0.0707648
0.000121302
0.000135548
0.000140814
0.00028239
0.000100804
0.000115196
0.000107474
0.000101466
9.37355e-05
0.000111255
0.000216587
0.000107434
0.000115446
0.00012644
0.00022431
0.000148705
9.99269e-05
9.1789e-05
0.000156981
0.000100076
0.000141412
0.0859701
0.00012045
0.000133833
0.000107521
0.000123095
0.00821696
0.0332809
0.000121788
0.00030598
0.0269891
0.0238171
0.000124586
0.022641
0.000115391
0.000101535
9.73154e-05
0.0346499
0.000100722
0.010453
0.000118657
0.000103954
9.92625e-05
0.000116137
9.68763e-05
0.000149226
0.000101264
9.10114e-05
0.000104175
0.000126057
9.19359e-05
9.31111e-05
0.00011009
0.000101669
9.37911e-05
0.0226393
9.71258e-05
0.000100051
0.000100086
0.0908898
0.00012726
9.4157e-05
0.00266396
0.0270956
0.000123902
0.000119529
0.000108615
0.000112698
9.81737e-05
0.000108972
0.000133212
0.000113723
0.000727055
0.00019922
0.000106103
0.00352453
0.00011525
0.000107149
0.0279752
0.000135565
0.000105003
0.0128767
0.000192948
0.000123198
0.000105662
0.000144593
0.000129347
0.000109747
0.00012032
0.000564472
0.000116386
9.77274e-05
0.000102116
0.0656584
0.0343903
9.55939e-05
0.0002178
0.000122099
0.00023012
0.000104077
0.000119969
0.000149425
0.000681697
0.000100209
9.56593e-05
0.000110725
9.40755e-05
0.015041
9.70932e-05
0.000101842
0.0248209
9.68065e-05
0.00312346
0.000112671
0.000290421
0.000107825
0.0248096
9.12318e-05
0.00055161
0.000113915
0.000224354
9.73425e-05
0.000132149
0.000101312
0.000433607
0.0986172
0.00010399
0.000136136
0.0216048
0.0214677
0.000356225
0.0719026
0.000107918
0.000138667
0.000148634
0.00010457
0.01689
0.000122476
9.7594e-05
0.00020631
0.000104312
0.000105159
0.00540843
0.000511459
0.0504344
0.000103661
9.67576e-05
9.71828e-05
0.000137397
0.000131941
9.11713e-05
0.000136838
0.000145069
0.0176902
9.67541e-05
0.000131422
0.000525355
0.000139232
9.44615e-05
0.000124594
0.0164826
0.000126017
0.0113774
0.000133616
0.00899711
0.0184775
0.000104355
0.000105627
0.000135322
0.000142926
0.0230963
0.000149404
0.000104331
0.000100667
0.000111924
0.000106945
0.000129833
0.000130354
0.000122569
0.000130418
0.00337972
0.0214912
9.29023e-05
0.000114404
0.000117445
0.00017109
0.000427762
9.78947e-05
0.000644037
9.95149e-05
0.00878975
0.000122497
0.000204267
0.00013597
0.0887768
9.34933e-05
0.0137323
0.000105161
0.000112792
0.000170287
0.0149818
0.000107284
0.000202292
0.00010909
0.000125371
0.0307026
0.000130164
0.0451496
0.0644418
0.0200359
0.0151769
0.000144612
0.0064679
9.66653e-05
0.000107039
0.000106091
0.000105186
0.00013148
0.000124901
9.66445e-05
0.000129332
9.94397e-05
0.00831047
0.000253391
0.000116918
0.000104439
0.00010385
9.76216e-05
0.000102158
0.000106986
0.00129326
0.0287474
0.000221558
0.000108475
0.000124693
0.00218041
0.000124513
0.000106598
0.000114291
0.000115228
0.000126009
9.16735e-05
0.000118508
0.000108843
0.0127745
0.0248992
0.0241642
0.012903
0.0153806
0.000102237
9.71512e-05
0.0303769
0.000114033
0.000105196
9.12252e-05
9.93622e-05
0.0101425
0.000144974
0.000143606
0.000400767
9.85081e-05
0.00011424
0.000434751
0.000126429
0.000104785
0.000115121
0.0203462
9.17267e-05
0.000706877
0.000851775
0.0039723
0.000100414
0.0192994
0.000136764
0.000100013
0.000106779
0.020201
0.0002848
9.99747e-05
0.0010311
0.000142446
0.000110712
9.867e-05
0.000107126
0.0138766
0.000123105
9.93283e-05
0.000143761
9.21624e-05
0.000103136
0.000117263
0.00757893
0.00010832
0.000115266
0.0424773
0.000264225
0.000129198
0.000105233
0.000124996
0.00010576
0.000105083
0.000129293
0.000263669
0.000104945
0.0162567
0.000149484
0.000136076
0.000105763
0.000108223
0.000756869
0.0685718
0.000554474
0.0945178
0.000110699
0.0348571
0.000104623
0.000131711
0.000129839
0.000132064
0.0249667
0.0033698
0.000130455
9.74254e-05
0.000120025
0.00581111
9.61682e-05
0.000115591
0.000112426
0.00042198
0.00124282
0.000113199
0.000121994
0.000121529
0.0245185
0.00464355
0.00010123
0.000106928
0.000222505
9.1251e-05
9.89328e-05
0.000103921
0.0259956
9.95899e-05
0.000108187
9.18396e-05
0.000113782
9.68907e-05
0.0233622
0.00773927
0.00539814
0.00010087
0.00160135
9.94602e-05
0.000102204
0.000103243
9.19321e-05
0.0582981
0.0224302
0.0272963
0.000119296
0.0242881
9.35006e-05
0.000114865
0.000121062
0.000157125
0.0151999
0.000121822
0.000107915
0.033574
9.83679e-05
0.0234075
0.0146462
9.63201e-05
0.000117273
0.000109452
0.000134923
0.000107542
0.0195727
0.022093
0.0334024
0.000201289
0.00022121
0.000128611
0.0161984
0.00010138
0.00011294
0.000125027
0.000100445
0.0154973
9.16414e-05
0.0532384
0.000105637
9.67871e-05
0.017653
0.000630855
9.82233e-05
0.000142723
0.000106573
0.000112075
0.000453885
0.01929
9.84662e-05
0.000110626
0.0585316
0.000126951
0.000106554
0.000115169
0.000119447
0.000117111
0.000103381
0.022263
0.00064482
0.000108148
0.000123578
0.000103044
0.049155
9.04609e-05
0.000115739
0.0154611
0.000104666
9.57438e-05
0.00522913
0.016978
0.00285585
0.000120313
9.94128e-05
0.000129406
0.000110893
0.000136677
0.0267814
0.000125289
0.00030152
0.0171144
0.000105133
0.000113339
0.000106504
0.000101567
0.000101058
0.000126038
9.92686e-05
0.0135162
0.000107336
0.00010016
0.0134856
0.000343892
0.000107711
0.000140061
0.000122059
0.000103353
0.000116159
9.27255e-05
9.95345e-05
0.000108053
9.13125e-05
0.00010053
0.000106701
9.50547e-05
0.0355798
0.000114244
0.0252327
0.010132
0.000107719
0.000365172
0.000133292
0.00012754
9.63627e-05
0.00216167
0.0291728
9.61592e-05
0.000107818
0.0395065
0.000120668
0.000103712
0.000104261
0.00304727
9.66431e-05
0.0135386
0.000110306
0.000101806
0.0257659
9.88439e-05
0.000120797
9.30683e-05
0.000129035
0.00995665
0.0172774
0.0398372
0.000118733
0.0315943
0.0241308
0.0673347
0.0174261
0.000107277
0.0161382
0.000117659
0.000108798
0.000105694
0.000140516
0.00243109
0.000110398
0.000102896
0.000103357
0.000183699
0.000119092
9.94049e-05
0.0393607
0.000108519
0.000103888
0.0181806
0.000108473
0.000127462
0.0145562
0.000108622
0.000102734
0.000102687
0.000101828
0.000112218
0.00010697
0.000133114
0.0055562
0.0365432
0.000220614
9.3675e-05
0.0150055
0.0200693
9.9278e-05
0.000105729
9.20442e-05
0.000936445
0.000117816
0.000116264
0.000100975
9.52577e-05
0.000117274
0.000148678
0.000136821
0.000205518
0.000120707
9.94421e-05
0.000223417
0.000315002
0.000107727
0.000104491
0.000128725
0.000107274
0.000119032
0.000105914
9.62114e-05
9.99421e-05
0.0364319
0.000123774
0.000741968
0.000137379
9.20385e-05
9.7263e-05
9.35064e-05
9.95192e-05
0.000106447
0.0535706
0.0112968
0.0280484
0.000124025
0.000106826
0.000626762
0.00014395
0.000147703
0.000109013
0.000106219
9.41367e-05
0.000116833
0.000883612
0.0316975
0.000113643
0.000119353
0.0293626
0.0281229
0.000133063
0.000175691
0.0462963
0.0134276
0.000124828
0.000100254
0.000119569
0.000120672
0.000289119
9.68124e-05
9.93298e-05
0.00117056
0.000115997
9.79764e-05
0.000127404
9.45201e-05
0.000128077
9.72197e-05
0.0643213
0.000105217
9.71958e-05
9.42263e-05
0.000115688
0.000117472
9.29565e-05
0.0222115
0.0161897
0.00010111
9.37092e-05
0.00528006
0.000104103
9.35464e-05
0.000103894
0.000101445
0.0148193
9.4929e-05
9.8635e-05
0.000108046
0.0577594
0.000114469
0.00010859
0.0656807
0.000100732
0.000725817
9.73248e-05
0.0160783
0.000137098
0.000121179
0.0456688
0.00010463
0.0348622
0.000116281
0.00421617
0.0904159
0.000113577
0.000217908
0.0467424
0.000178664
0.0195267
0.000138122
0.00012451
0.000115981
0.000125313
0.000123952
0.000143588
9.81904e-05
0.0664806
0.000139553
0.000107686
9.85267e-05
0.000102796
0.000135667
0.00014449
0.000103505
0.000128191
9.29529e-05
0.000105617
0.000100261
0.000118708
0.00422128
9.81267e-05
0.000132647
0.000101295
0.000298635
0.000100372
0.0379232
0.00032305
0.0252706
0.000129781
0.00010013
0.00435467
0.0612291
0.000108194
0.0463962
0.000122749
0.00905077
0.000231198
0.000102362
0.000127893
9.80697e-05
0.0462109
9.8758e-05
9.8299e-05
0.000126871
0.000123268
9.69253e-05
0.00029608
0.00013451
0.000217869
9.37131e-05
0.000134897
0.042732
0.000108109
0.000109777
0.00474628
0.000112933
0.000102541
0.0965714
0.000110111
0.000114732
0.000225292
0.000109315
9.10299e-05
0.000156382
0.000100492
0.000102166
0.000107766
9.69386e-05
0.000131773
0.0750426
0.000129046
0.00484792
9.69819e-05
0.000135107
0.000108688
9.56625e-05
9.40641e-05
0.000747466
0.00712833
0.00010076
0.000133813
0.0147188
0.0163052
0.0624732
0.000104381
0.00012463
0.000105282
9.41768e-05
0.000143209
9.17212e-05
9.57221e-05
9.93801e-05
9.56e-05
0.000115615
9.70305e-05
0.000134414
9.98844e-05
0.000116578
0.000102513
0.000159041
0.0214849
0.00020701
0.0748059
0.000114225
0.000129381
0.000134191
0.0495096
0.00109347
0.000104474
9.80136e-05
0.000144503
0.0496391
0.00720751
0.000122114
0.000108713
0.042109
0.0399867
0.000958398
0.00010872
0.000490789
9.91784e-05
0.000107368
0.000119217
0.000128723
0.000101501
0.000106506
9.4033e-05
0.00010608
0.00869074
0.00252502
0.000112383
9.47207e-05
0.000137399
0.000117118
0.000462813
0.00010033
0.000141644
0.000101049
0.000100647
0.000109472
9.99805e-05
0.000111626
0.000746522
9.83672e-05
0.000157928
0.000113652
0.000119213
0.000113362
0.000145156
0.0354355
0.000140922
0.000112546
0.0204836
0.000112097
0.00011401
9.87345e-05
0.00013878
0.0582691
9.50419e-05
0.000142086
0.000384707
0.00010061
0.000140895
0.0245486
0.000121128
0.00013165
0.000107237
9.83047e-05
0.000144539
9.08338e-05
0.024584
0.000120238
0.000123441
0.000104565
0.000226419
0.000129761
0.0106601
0.0482009
0.000102838
0.000175012
0.019841
0.00013449
0.0163083
0.000130337
0.000112225
0.000134924
0.0163788
0.000120624
9.66033e-05
0.000100986
9.35748e-05
0.000100826
0.0390409
0.00187296
0.000101222
0.0141428
0.000148704
9.76064e-05
0.000113138
0.0001017
9.23977e-05
0.000108348
0.000141899
0.000131023
0.0217922
0.0272449
0.000100517
0.000102369
9.84039e-05
0.0233362
0.000172552
0.000103528
0.000143631
0.0272607
0.000106731
0.000112458
0.000119786
0.000569567
0.000111851
0.000121195
0.000115462
0.000133654
0.000100889
0.000123489
9.75465e-05
0.000119448
0.000116284
9.70716e-05
0.000124443
0.000105352
0.000144367
0.000141127
9.55424e-05
0.0328704
9.15575e-05
0.000130419
0.0347521
0.0367769
0.000102042
9.46186e-05
0.000114185
0.000115386
0.000108444
9.47037e-05
0.0455302
0.0371659
0.000104376
0.000104315
0.000108061
0.000121863
0.0215926
0.000761844
0.000111998
0.000102153
0.000103092
0.0294499
0.000113404
0.0319518
0.000213912
0.0156281
0.000106689
0.000702934
0.000107298
9.44346e-05
0.000137444
0.00010053
0.00655363
0.0633979
0.000106737
0.000117057
9.0107e-05
0.000344761
0.000350966
0.000106508
0.000107565
9.07546e-05
0.000101822
9.97457e-05
0.000234557
0.000116754
0.00298993
0.000120878
0.0102199
0.000101825
0.00010271
0.000105817
0.000102879
0.0163919
0.0196002
0.000114051
0.000100205
9.56908e-05
9.7053e-05
0.00014721
0.000121419
0.000103008
0.000101765
9.48204e-05
0.000106592
0.000101797
0.000133171
0.000238194
0.000103772
0.000101937
0.000142414
0.000242193
0.000105653
9.81757e-05
0.000145276
0.000105026
0.000100113
9.79208e-05
0.000106547
9.89803e-05
0.000107239
0.0247462
0.000113438
0.000105111
0.000633139
0.000137293
0.000100937
9.19814e-05
9.80034e-05
0.0118573
0.00010143
9.97728e-05
0.000459488
0.000107921
0.000342516
0.000109278
0.000112733
0.000150221
0.000113916
0.000536854
0.000132806
0.00040689
0.0105821
0.0148539
0.000270903
0.000105352
0.000117849
9.51034e-05
0.000246101
0.000146063
0.00011476
0.000129815
0.0166774
0.00010492
0.0465982
0.000105822
0.0645364
0.000127884
0.000135578
0.000101221
0.000104105
9.02384e-05
0.000100994
0.000108215
9.92088e-05
9.93072e-05
0.000488902
0.0123373
0.000419788
0.0372445
0.000308587
9.3894e-05
0.000113048
9.81673e-05
9.67769e-05
0.00398886
0.000119244
0.000198707
0.000190312
0.0601478
0.0206319
0.0132186
0.000177004
0.0504207
0.0724392
0.0139914
9.62241e-05
0.000104907
9.42808e-05
0.000146052
0.0582528
0.0135127
0.000101562
0.000396898
0.000105013
0.000105367
0.000122715
0.000133032
0.00142605
0.000102638
0.00286701
0.0474249
0.000133526
0.0489472
9.84639e-05
0.0266154
0.0136166
9.84534e-05
0.000108617
0.000171901
0.000108281
0.000116781
0.000108518
9.71367e-05
9.28407e-05
0.000100893
9.44817e-05
0.00208967
9.61191e-05
0.0360049
0.000143441
0.000107969
0.000133388
0.000198579
0.000178703
0.000116862
9.96143e-05
0.000100802
0.000110764
0.000138166
0.000101687
0.000102926
0.017555
0.000294703
9.43924e-05
0.000127606
9.77631e-05
9.50145e-05
9.58265e-05
0.000101972
9.12509e-05
0.000110464
0.000606837
0.000193217
0.0146735
9.08056e-05
0.0419474
0.000113238
9.59412e-05
0.000100645
0.000111968
0.000146988
0.000122923
9.83091e-05
9.94689e-05
0.000123854
0.0201234
0.000130734
0.0979696
0.0167524
0.0001066
9.89956e-05
0.0717501
9.74747e-05
0.000195933
0.000800229
0.0678615
0.000117825
0.0420343
0.0249243
0.000108809
0.0348852
0.0134499
9.42046e-05
0.000130495
0.000357696
0.000106446
0.000319602
0.000127571
0.0143434
0.000106348
0.00010596
0.000192309
9.42873e-05
0.000105084
0.000107252
0.000334816
0.0357318
0.000128576
0.0210144
9.75413e-05
0.0288072
0.0368101
0.013253
9.60962e-05
0.000108804
0.000131103
0.0229895
9.91771e-05
0.000105408
0.0104059
0.0221127
0.000114686
9.97281e-05
0.000215333
9.27184e-05
0.000128159
0.00319857
9.52204e-05
0.0138772
0.0169479
0.000100407
0.00943993
0.000121069
9.5304e-05
9.75485e-05
0.000195835
0.00022128
0.0146664
0.000149619
0.000111994
0.000101975
0.000396921
0.000145332
0.000147235
0.000424646
0.000107071
0.0354471
0.000139446
0.000391156
0.00013322
0.000776827
0.000216848
0.0493196
0.0156581
0.000112389
0.0256035
0.000114805
0.000101736
0.000100262
9.28085e-05
0.00011824
9.53933e-05
0.000113657
0.00018234
0.000109328
0.000134473
0.000130375
0.0343476
0.000261024
0.000109497
0.000115449
0.0689699
0.000101657
0.000171083
9.66408e-05
0.000138652
0.0262861
9.30094e-05
0.000130345
0.000320157
9.88196e-05
0.000171306
0.0769129
0.027325
0.000100071
0.00293933
0.000121564
0.000109516
0.000106139
0.000106947
0.000410414
0.000107313
9.8373e-05
0.000129779
0.0227588
0.000104996
0.000117275
0.000105841
9.30101e-05
0.0331155
9.29159e-05
0.000106493
0.000107324
0.000121517
0.0685121
0.000143556
0.000142494
0.00952521
0.000109434
0.022762
0.000100209
0.000102979
0.000118668
0.00066225
0.0506137
0.00012089
0.000109604
0.000112321
0.000133906
9.54044e-05
0.000122162
0.00606447
0.0553576
0.0334613
0.0176131
0.000382582
9.96169e-05
0.0472377
0.000123048
0.000887792
9.46398e-05
0.000104869
9.98395e-05
9.88406e-05
0.000135632
9.12485e-05
0.000180123
0.000126284
0.0713822
9.55081e-05
0.000113976
0.000153452
0.000112562
0.000170817
0.0197378
0.000115052
9.9863e-05
0.000135078
0.000110262
0.000106164
9.31164e-05
0.000133712
9.27135e-05
0.00831547
0.0189926
9.43478e-05
0.000101367
0.000112156
0.000113364
0.000145402
0.00010575
0.000126679
0.000109717
0.000139142
9.69644e-05
0.000118855
0.0287277
9.46851e-05
0.000138603
0.000107088
0.00201462
0.0183284
0.000132286
0.000132938
9.8282e-05
0.000128435
0.0148873
0.0235536
0.00929417
0.0351467
0.000100187
0.00016387
0.000104302
0.000117467
0.000239453
0.000116199
0.000103119
0.030126
0.000105531
0.000127858
0.0564797
0.0316989
0.000142484
0.000101976
0.000105697
0.000128374
0.000103134
0.0117789
9.60422e-05
0.000102633
0.000188306
0.000100065
0.00014793
0.0340848
0.000111571
0.0796412
0.0232697
0.00541387
0.000128421
0.000131662
0.000106732
0.000107259
0.0125754
0.000169486
0.0727037
0.000108134
0.000135931
0.0416728
0.000147317
0.000108764
0.00017443
0.000148119
0.000147454
0.00833431
0.0359748
0.000233224
9.21098e-05
0.0129853
0.000245507
0.00010253
9.90518e-05
0.000108961
0.00178788
0.000106101
0.000118295
0.000106567
0.000102469
0.000143399
9.53113e-05
0.000100637
0.00250261
9.68178e-05
9.51322e-05
0.000148813
0.0194214
0.0115429
0.0214622
0.030963
9.73547e-05
0.00160338
0.00872647
0.000105229
0.000110456
0.000111385
0.000113714
0.000118308
0.000127568
9.66986e-05
0.000100586
0.000121089
0.000122129
9.96412e-05
0.000107972
0.000100636
0.000109202
0.000147031
0.0381637
9.84627e-05
0.0198726
0.000101626
0.000104619
0.000111582
0.000131538
0.0236997
0.000156542
9.89672e-05
0.0365426
9.74149e-05
0.000128049
9.69665e-05
0.000119054
0.00020725
9.38957e-05
0.000102891
0.000116012
0.000789236
0.00081059
0.0346744
0.000145262
0.000348613
0.026404
0.000131648
0.00010565
0.000112588
0.000117862
0.000148061
0.0170817
0.029062
0.0249928
0.000517784
0.000100469
0.000219485
0.000104441
0.000138258
9.57836e-05
0.000109928
0.000100261
0.000141138
0.0696038
0.000220493
0.0405669
0.000800521
0.000397702
0.000123379
0.0247871
0.00012191
0.0895825
0.000131119
0.000249595
0.0680682
0.000579286
0.000118322
0.0272033
0.000128782
0.000344986
0.000121201
0.000103514
0.000106484
0.000121658
0.000108449
9.99219e-05
0.00014112
9.21419e-05
0.000122356
0.000105946
0.000127632
9.39022e-05
0.000110522
0.000130701
0.0170065
0.000106437
0.000145967
0.000274417
0.000126851
0.00593506
9.32047e-05
0.0519025
0.00252784
0.000217835
0.0437766
0.000118438
0.000117342
9.20781e-05
0.00010336
0.047039
9.6036e-05
0.000103425
0.000102482
0.0924763
0.0327723
0.0150576
0.000129188
0.000225836
0.00012264
0.000140458
0.0152098
0.000384944
0.000104131
0.000129508
0.000132198
0.000147862
0.000252319
0.000113539
0.000111126
9.05227e-05
9.37292e-05
9.30279e-05
0.0400856
0.00010572
0.00513955
0.0147521
0.0001125
0.0152399
0.000173529
0.0155685
0.000103674
0.000105358
9.40227e-05
0.000826072
9.5846e-05
0.000133827
0.0158833
0.0995121
0.000149519
0.000194002
0.000112141
0.000168466
0.0357015
0.000153465
0.000116053
0.000105857
9.93186e-05
9.52827e-05
0.000116936
0.000114536
0.000147325
0.000154676
0.000655018
0.000731423
0.000349327
0.0130717
0.000107333
0.00027727
0.000130083
0.000101223
0.000107909
0.000107315
0.000115938
0.000106104
0.0406144
0.000105421
0.00012789
0.000110066
9.18674e-05
0.000111999
0.000103075
0.000138194
0.000131168
0.0218376
0.000106564
0.000120599
0.000109272
0.000281074
0.000471525
0.00010551
0.000101371
0.0391076
0.000113468
9.66177e-05
0.0970292
0.000112887
9.87171e-05
0.0359406
0.000113257
0.0311957
0.000489246
0.000134965
0.0108664
0.000102282
0.00031847
0.000100962
0.000111957
9.74551e-05
0.000107282
0.000132839
0.000106033
0.0232033
0.0202588
0.0002235
0.000116655
0.000115011
0.00010746
0.000283902
9.55004e-05
0.000104514
0.000112479
0.0925273
0.000128832
0.000105481
0.000115841
0.000114026
0.000410547
0.000101034
0.000162477
0.000116628
0.00011242
0.000104761
0.0281178
0.0135567
9.73499e-05
0.000335615
0.000116461
9.46726e-05
0.00376503
9.08854e-05
0.0412812
0.000745994
0.000125464
9.1833e-05
9.4428e-05
0.000100763
0.0640008
0.0193153
0.000133831
0.0059785
9.9921e-05
0.000126857
0.000513235
0.00012177
0.000128269
0.000146233
9.89511e-05
0.000164356
0.0910788
0.000167392
9.97481e-05
0.000111269
0.000107802
0.000129257
0.000125201
0.0236527
0.000606053
0.000223146
0.000110089
9.74918e-05
0.0251898
9.56691e-05
0.0544665
0.0189404
0.00260905
0.0206084
0.000186529
0.00010168
0.000122381
0.00044369
0.000106635
9.99091e-05
0.000652467
0.000388025
0.000141635
0.0200823
0.000158741
9.45952e-05
0.00012311
0.000137066
0.0321765
9.65579e-05
9.62016e-05
0.00321355
0.0451043
9.9958e-05
0.0286514
0.0191809
0.0203951
0.00733477
0.000117861
0.000128726
0.0516756
0.000120878
0.000110272
0.000134442
0.00813389
0.000128692
0.000105668
9.49004e-05
0.000108497
9.82743e-05
0.0074209
0.00010219
0.0325481
0.000135528
0.0159495
9.9488e-05
0.0217019
0.000111072
0.000119169
9.84333e-05
0.000138254
0.0350664
0.00654308
0.000105319
0.0197311
9.84999e-05
0.000140902
9.51209e-05
0.000129911
0.0190723
0.000281628
0.0451944
0.0296666
9.49745e-05
0.000138534
0.000127262
0.000123265
0.0255474
0.000107823
0.000113911
0.000104786
0.000127217
0.000135538
0.000107749
0.000107823
0.0688167
0.026133
9.28445e-05
0.000107907
0.000524212
0.0278715
0.0667148
0.000139468
0.000111883
0.0552546
0.00503531
0.000106664
0.000114653
0.000104341
0.00868214
0.000107797
0.000762229
0.000105301
0.000110186
0.000125009
9.42778e-05
0.000130851
0.00014087
0.000109126
0.0347577
0.000106148
0.0506893
0.000134464
0.000221265
0.0527581
0.000107605
0.000123063
0.000100991
0.000156502
0.000109826
9.90272e-05
0.000106887
0.0370905
0.0377327
0.000137277
0.000129078
9.59674e-05
0.000130058
0.000216611
9.06202e-05
0.000104539
0.000145584
9.51391e-05
0.00010758
0.000102285
0.0982926
0.000105023
0.0270228
0.000138165
9.43684e-05
0.0002244
9.87028e-05
0.0437336
0.000268589
0.000106859
0.0634675
0.000113275
9.15946e-05
0.000104449
0.000104171
0.000101335
0.000126382
0.000114574
0.000213839
0.000119414
9.03607e-05
0.000124945
0.000178798
0.000107181
0.000585503
0.000124287
0.000118166
0.000312256
0.000132361
0.000110514
0.000124225
0.0145855
0.000118484
0.000236332
0.000131545
0.000131387
0.000121328
0.000278425
0.000126981
0.000146309
0.000104533
0.000127522
0.00582769
0.0500948
0.000110342
0.0413067
0.000100313
0.000128136
0.000111179
0.000111876
0.000708106
0.000124046
0.000129533
0.0462549
0.0104164
0.000115619
0.000133751
0.000110078
0.000118243
0.000101479
0.000220873
0.000111391
0.000139529
0.000153244
0.000106614
0.0509243
0.000514294
0.000106478
0.0263525
0.000103809
0.000432738
0.0432534
0.000138796
0.000103627
0.00773996
9.6021e-05
0.000115809
0.00763861
0.0425909
0.000103936
9.96804e-05
0.000102
0.000117862
0.00166268
0.000107226
0.000124644
0.020002
9.50653e-05
9.97712e-05
0.0919453
0.000113913
0.0121058
9.6582e-05
9.71886e-05
0.000477992
9.9726e-05
0.000126651
9.79478e-05
9.93379e-05
0.000174115
0.00233625
0.000104067
0.000107745
0.000190078
0.029262
0.0509378
0.000114814
0.0269799
0.000376504
0.0452141
0.02041
0.0395173
0.000103372
9.67947e-05
0.000240343
0.000129858
0.000110953
0.000132353
9.049e-05
0.0209319
0.000139369
0.000103796
0.000102611
0.0260042
0.0202607
0.0378986
0.000114601
0.0489552
0.000106286
0.000134979
0.000100117
0.0125091
0.000327048
9.87724e-05
0.000116532
0.000101389
0.0247619
0.000100126
0.0207299
0.00599525
0.000242788
0.000104186
9.4687e-05
9.73002e-05
0.000113098
0.000130168
0.000110058
9.01927e-05
0.000109532
0.000110334
9.25576e-05
0.000378064
0.000124177
0.00010436
0.0263031
0.000105077
0.000131591
9.18801e-05
0.10248
0.000325167
0.000108043
0.000115345
9.27705e-05
0.000125314
0.000102718
0.0170954
9.69455e-05
0.00459888
0.00010692
0.000109089
0.000112705
0.00013742
0.000107629
0.0158039
0.000273857
0.000122971
0.00037947
0.0220406
0.000496207
9.33969e-05
0.0651854
0.000108898
0.0484341
0.0119499
0.000137046
0.000103671
0.0529066
0.000148024
0.0420213
0.000104545
0.0591167
9.43543e-05
0.000130486
0.00021741
9.26397e-05
0.0078123
0.000109098
9.35734e-05
0.0184314
0.000171834
0.000149488
0.000110307
0.000100102
0.00520255
0.000214697
0.000172516
0.0461792
0.000134803
0.0162622
0.000115774
9.74882e-05
9.83253e-05
0.00877057
0.0486583
0.000119397
0.00015284
0.000106369
0.000109107
0.000109148
9.61786e-05
0.000120172
0.0452777
0.000107527
0.000104535
0.000455451
9.38932e-05
0.00031011
0.000223527
0.0831821
0.000248862
0.00010411
0.00013545
0.000277051
0.000106112
9.1139e-05
9.58882e-05
9.47477e-05
0.000106774
0.00010069
0.000105798
0.000115737
0.000122436
0.000103913
9.83388e-05
0.000100182
0.000148171
0.000123123
9.41396e-05
0.000101489
0.00011379
0.000135614
0.000261308
0.0223765
0.000124394
0.0280065
0.022109
0.065998
0.0522175
0.0158848
0.000136506
0.000225262
0.0411914
0.000121749
0.00014547
9.82621e-05
0.0200008
0.000173796
0.000121392
0.000102577
0.0223114
9.11307e-05
0.000482521
0.0211403
0.000660302
0.0492595
0.0139469
9.24671e-05
0.000113787
0.000114503
9.59789e-05
0.000106416
0.000124569
9.60729e-05
0.00011985
0.000213956
0.000102704
0.000124349
0.000107228
9.93934e-05
0.000155305
0.000109817
9.58162e-05
0.0112459
0.000103394
0.000102381
0.000129297
0.0846011
0.000104698
0.000104542
9.24154e-05
0.00010594
0.000136887
0.000104209
0.000249988
0.000100586
0.000105329
9.58741e-05
9.41056e-05
0.000124128
0.000215782
0.000118177
0.000142373
0.0255984
0.000414633
0.000131118
0.000141463
0.000114783
0.028785
0.0163978
0.000109835
0.000115005
0.000361842
0.0154888
0.000140793
0.000526748
0.000141049
0.000194058
9.43083e-05
0.000107991
0.024357
9.56336e-05
0.00010882
0.00237812
0.000149743
0.0360246
0.0563396
0.0146481
0.0254808
0.0179391
0.000103802
0.0771
0.000112106
0.000120249
9.98119e-05
9.74617e-05
0.063809
0.000130449
0.000121661
0.021359
0.0128886
0.010243
0.000381102
0.000121435
9.54705e-05
0.021736
9.45134e-05
0.00301876
0.000102611
0.000104161
0.000104434
0.000101806
0.000106426
0.000121511
9.57424e-05
9.5302e-05
0.00010405
0.0507878
9.51277e-05
0.000100362
0.000382234
0.000107063
0.00011961
9.87999e-05
0.000273774
0.0350554
0.000107121
9.76897e-05
0.0001354
0.000419073
0.000315314
0.0445495
0.00016104
0.000100853
0.000129353
0.000102098
0.000140562
0.0463703
0.000110647
0.000102822
0.000136925
0.000107168
0.000112559
0.000340317
9.43995e-05
0.000241593
0.0359001
0.00039254
0.000179938
0.000116048
0.000140057
9.48924e-05
0.0432696
0.000304619
0.00290421
0.0541016
0.00012048
0.000125784
0.000118866
0.0252033
0.0181689
0.000133528
0.0306078
0.000100204
9.54591e-05
0.0220003
9.12563e-05
0.000104357
0.00414252
0.000106071
0.00014716
0.000102964
0.000131697
0.000253995
0.000147412
0.000105677
0.000351126
0.000454635
0.000101597