/*--------------------------------*- C++ -*----------------------------------*\
| =========                 |                                                 |
| \\      /  F ield         | OpenFOAM: The Open Source CFD Toolbox           |
|  \\    /   O peration     | Version:  v2012                                 |
|   \\  /    A nd           | Website:  www.openfoam.com                      |
|    \\/     M anipulation  |                                                 |
\*---------------------------------------------------------------------------*/
FoamFile
{
    version     2.0;
    format      ascii;
    class       surfaceScalarField;
    location    "150";
    object      phi_0;
}
// * * * * * * * * * * * * * * * * * * * * * * * * * * * * * * * * * * * * * //

dimensions      [0 3 -1 0 0 0 0];
oriented        oriented;


internalField   nonuniform List<scalar> 
27688
(
-0.291624
0.177036
0.114588
-0.00698081
-0.0515622
0.058543
-0.185193
-0.0246271
0.20982
0.290404
-0.189858
-0.100546
0.122824
0.138422
-0.261246
0.168808
0.0509741
-0.219782
-0.0105724
-0.0446375
0.0552098
0.018738
-0.0219176
0.00317963
-0.0533805
0.0755126
-0.0221321
0.000607027
0.0775811
-0.0781882
0.262715
-0.139891
-0.117334
0.22934
-0.112006
-0.0435375
0.424834
-0.381296
0.106519
-0.23089
0.124371
0.2178
-0.279466
0.0616662
-0.00544634
0.174254
-0.202397
-0.0291344
0.231531
-0.157368
-0.134256
-0.250976
-0.102292
0.353268
0.0588638
-0.00665333
-0.0522104
0.320245
-0.102444
-0.0300051
0.0339374
-0.00393227
-0.489302
0.140226
0.349075
-0.24107
0.123736
0.0115527
0.0377608
-0.0493134
-0.0802082
0.0268277
-0.0771165
0.0823517
-0.00523516
0.0367653
0.0215367
-0.058302
0.0753779
-0.0692554
-0.00612246
-0.260188
0.0749956
-0.208139
0.117574
0.0905655
-0.0788333
0.236666
-0.157833
0.0746275
0.0486115
-0.123239
0.194498
0.191871
-0.386369
-0.186654
0.0914477
0.0952066
0.054446
-0.0450105
-0.00943548
0.297107
-0.162133
-0.134974
-0.00512546
-0.0595361
0.0646616
-0.00677256
0.0255105
-0.296957
-0.192344
-0.013096
0.0124987
0.000597337
0.0325444
-0.0322185
-0.000325825
0.000140661
0.0277457
-0.0278863
0.0243486
0.00382337
-0.0281719
0.0597113
0.0718149
-0.131526
-0.0124986
-0.0926878
0.105186
-0.00314788
-0.015973
0.0191209
0.125314
-0.0546427
-0.0706713
-0.081736
0.084844
-0.003108
0.0436808
0.00319452
-0.0468754
-0.0833622
0.00624569
0.0999758
-0.196494
0.0965182
3.51177e-05
-0.0770267
0.0769916
-0.0772154
0.0778528
-0.000637487
-0.0617939
0.0576413
0.00415259
0.061449
-0.0665745
-0.00453778
0.0861606
-0.0816228
0.0920695
-0.0119795
-0.08009
-0.013018
-7.80171e-05
-0.0586034
0.0558955
0.00270788
0.0175015
-0.0183327
0.000831258
0.0618505
-0.018965
-0.0428855
-0.0787692
-0.00296686
0.508312
-0.476233
-0.0320786
-0.0653177
0.0736728
-0.0083551
-0.0765466
0.0848894
-0.00834273
-0.056459
-0.00214444
0.0699184
-0.141326
0.0714081
-0.345526
0.301988
-0.0121365
-0.000881488
0.0888748
-0.0782815
-0.0105933
0.045569
-0.296545
0.253433
-0.451829
0.198397
0.0525107
-0.0692619
0.0167512
-0.0180826
0.0180826
0.0164138
0.0380322
-0.478823
0.277863
0.20096
0.300303
-0.245245
-0.0550582
-0.177028
-0.20785
0.384878
0.00544723
-0.0819939
0.0970549
0.0520037
-0.149059
-0.186075
0.380573
-0.271502
0.256879
0.0146224
-0.173482
0.106146
0.0673361
0.00242571
-0.0324308
0.194753
-0.314698
0.119945
-0.00759218
-0.056659
0.0642512
0.0139299
-0.00143121
0.0237304
0.0381201
-1.39445e-05
-0.00275865
0.0027726
0.173649
-0.345104
0.171455
0.000492487
0.017009
-0.0144914
-0.0514685
0.0659599
-0.152074
0.385762
-0.233688
-0.000307201
0.0192336
-0.0189264
-0.066895
0.0307377
0.0361573
0.140669
0.0645102
-0.205179
0.0696583
-0.0679675
-0.00169081
0.0166809
0.401594
-0.418275
-0.00160312
0.0265293
-0.0249262
0.0462846
-0.00260372
-0.000837603
0.00200604
-0.00116844
-0.235008
0.156174
0.060195
-0.0746865
0.0322292
0.0431486
0.0881259
-0.0784936
-0.00963237
0.0650925
-0.0535398
0.282017
-0.530055
0.248038
-0.0326674
-0.0342276
-0.0818602
0.0491928
-0.0176298
0.018884
-0.00125426
-0.0579299
-0.0823999
0.14033
0.0218674
-0.0250153
0.0243486
-0.368954
0.276136
0.0928179
0.420431
-0.2864
-0.134031
0.043226
-0.0537983
0.233116
0.0572879
0.0763023
-0.0762671
0.0200517
-0.0200517
0.0865051
-0.195186
0.108681
-0.0913037
-0.088191
0.179495
-0.0585394
0.13213
-0.073591
0.170646
0.0550903
-0.225736
0.0862149
0.0106412
-0.0968562
0.0771151
-0.0735105
-0.00360465
-0.0547405
0.145451
-0.090711
0.00172887
-0.0670466
-0.00216763
-0.0652645
0.0674321
-0.010984
-0.071314
0.082298
-0.0263883
-0.00127919
0.0276675
0.0198595
0.0276694
-0.0475289
0.0561272
0.0027366
-0.0903598
0.085822
-0.140145
0.355683
-0.215538
-0.0708459
0.125325
-0.0544793
-0.377047
0.221399
0.155648
-0.015379
-0.00225073
0.0367139
-0.0358227
-0.000891171
-0.327586
0.250225
0.0773605
0.0205449
-0.0236229
0.00307795
-0.0402327
-0.0416275
0.215038
-0.392066
-0.436187
0.0500314
0.386156
-0.161061
0.103131
-0.235213
-0.133741
-0.388603
0.467332
-0.0787289
-0.231307
-0.0401944
0.340641
-0.32396
0.0855331
-0.20499
0.119457
0.0435393
-0.0693375
0.0257983
0.16472
-0.2874
0.12268
0.0444144
-0.117236
0.0728218
0.224362
-0.150118
-0.0742438
-0.177246
0.118706
0.0224023
-0.00185738
-0.00222264
0.0370319
-0.0348093
0.114447
-0.0804193
-0.0340272
0.102405
-0.225653
0.123247
0.0306579
0.0918436
-0.00562868
-0.0564408
0.129472
-0.0730308
-0.042757
0.0437707
-0.00101369
0.0437556
-0.0679385
0.0241829
0.302154
-0.220326
-0.0818278
-0.164732
0.110282
0.0544497
-0.104822
-0.0686605
0.0283812
-0.0292622
0.000881001
-0.176232
-0.0698574
0.24609
0.0708536
-0.00119532
0.439542
-0.310808
-0.128734
-0.0463597
0.120987
-0.0775334
0.0836535
-0.00612013
-0.0639255
0.0767098
-0.0127843
0.0245649
-0.0244243
0.275652
-0.102529
-0.173123
-0.075019
0.0456881
0.0293309
0.163139
0.0612232
0.276571
-0.528401
0.251829
-0.136313
0.0370812
0.0992317
-0.0174294
0.0609686
-0.111383
-0.0752717
0.0628182
-0.0260529
-0.201731
0.422061
-0.22033
0.305834
-0.499534
0.193701
0.104374
-0.109585
0.00521098
-0.0163219
0.0600774
0.049395
0.00931734
-0.0587124
0.0581763
-0.0657685
-0.136517
0.243036
0.425969
-0.238152
-0.187816
0.122024
-0.0497749
-0.0722492
-0.0888312
-0.0759007
0.0444026
-0.246799
-0.179714
0.394752
0.0711564
-0.0292857
-0.0418707
-0.23367
-0.0939155
-0.0674706
-0.0148944
-0.00674232
0.0216367
0.156288
-0.0965772
0.0804109
-0.00329582
-0.0346272
0.0367781
-0.00215087
0.0639496
-0.0499986
-0.013951
0.00577671
-0.0206711
-0.0322075
-0.0428115
-0.191241
0.105681
0.0855603
-0.0222764
0.0228059
-0.000529501
-0.00252616
0.00168855
0.308362
-0.495164
0.186802
-0.238987
-0.154859
0.393846
0.00279225
0.0613552
-0.0641474
-0.0698404
0.0726327
-0.152573
0.0375053
0.115067
0.050864
-0.439467
0.114786
0.111442
-0.226229
-0.271478
0.524798
-0.25332
-0.0482261
0.00222455
0.0460015
-0.0768365
0.0372355
0.039601
0.115351
0.0699687
-0.18532
-0.111689
-0.0955826
0.207271
0.217179
-0.131646
-0.0801907
0.0314464
-0.0180049
-0.0134414
-0.484475
0.363307
0.121168
-0.0137012
-0.000833169
0.0145344
0.142009
0.160145
-0.178924
0.0876199
-0.0836601
0.00656895
0.0770912
0.0652222
-0.0673898
-0.0631879
0.133106
-0.126471
-0.0292473
0.155719
0.0561814
-0.126825
0.0706433
-0.167914
0.44993
0.00012589
-0.107718
-0.0285952
0.160274
0.211063
-0.371337
0.293185
-0.463286
0.170101
-0.0524042
0.0735048
-0.0211006
0.0572963
-0.10178
-0.0822678
0.184047
-0.0578745
0.0508937
-0.119799
0.219775
-0.182622
0.421564
-0.238942
-0.0167521
0.015149
0.0766023
0.0154672
-0.115098
0.108579
0.00651844
0.0169938
0.0541626
0.404129
-0.243855
0.0155111
-0.0150512
-0.000459897
-0.223283
-0.0196239
0.242907
-0.38509
0.233016
-0.0302683
0.0343897
-0.00412141
0.0688731
0.0516072
-0.0317477
0.106177
-0.0214925
-0.0846841
-0.130515
0.0757749
0.0690298
-0.0655687
-0.0034611
-0.211685
0.371741
-0.160057
0.111679
-0.407224
0.295544
0.096268
-0.207957
0.1175
0.158637
-0.0431991
-0.00502697
-0.0390758
0.0990494
0.0544857
-0.153535
-0.0270601
0.0325456
-0.00548544
-0.0671867
0.0488229
0.0183638
-0.0670464
0.0744273
-0.00738095
-0.119336
0.0646933
-0.069803
0.0800817
-0.0102787
0.124651
-0.0675784
-0.0570726
-0.0789551
-0.00470501
-0.221259
-0.155787
0.0748689
0.090616
-0.165485
0.250837
-0.133337
0.2756
0.163942
0.119504
-0.123759
0.00425414
-0.118973
0.106962
0.0120106
-0.230799
0.160989
0.0698096
-0.230724
0.0962938
0.13443
0.00901505
0.0224313
-0.224602
-0.174922
0.399523
-0.0837639
-0.00988596
0.0936499
-0.258459
0.099024
0.159435
0.0688713
0.101201
-0.170073
-0.0290599
0.0188923
0.0101676
0.0337393
-0.257023
-0.337604
0.264887
0.0727167
0.00768258
0.0688448
-0.0765274
-0.0759198
0.088276
-0.0123562
-0.0862025
0.0769979
0.00920459
-0.125892
0.283842
-0.15795
0.0803568
0.00143239
-0.0817892
-0.318597
0.213784
0.104813
0.111449
-0.0670347
-0.0304251
0.0392497
-0.00882463
-0.0754591
0.0115336
-0.0211708
0.0208636
-0.0418073
-0.00403545
0.0458428
-0.0342558
-0.00850116
-0.123694
-0.108136
0.23183
0.01575
0.0886242
0.0748044
0.433507
-0.116515
0.0458587
0.0706564
-0.0888369
-0.102404
-0.432911
0.220931
0.21198
0.435079
-0.126718
0.271187
-0.21232
-0.0588673
-0.00100521
0.0275877
-0.0265825
0.00735602
-0.0372984
0.0350758
-0.0634667
0.0697207
-0.00625404
0.362679
-0.251
0.0630516
-0.0136565
-0.327214
-0.157261
0.453056
-0.272251
-0.180805
-0.0426008
-0.191069
0.186704
-0.117832
-0.131858
0.0526043
0.0792538
0.0154152
-0.0945273
0.0791121
0.00722287
0.0481956
-0.0554185
-0.346305
0.397169
0.0523824
-0.0698117
-0.293952
-0.0963945
0.390347
0.00211853
-0.0367458
-0.224957
0.453924
-0.228967
0.0501929
0.00837657
-0.0585695
0.0530218
-0.0693437
-0.221706
0.179105
-0.0663411
-0.118692
0.185033
0.00045699
-0.0456152
0.0451582
-0.0577841
-0.0445129
0.102297
-0.0384411
0.00801608
0.109076
0.162112
0.255655
0.197401
-0.110185
0.0393387
0.353219
-0.13182
-0.0544215
-0.00461658
0.0590381
-0.0388864
-0.113686
-0.185157
0.0833776
0.038602
-0.0494194
0.0108174
-0.0628736
0.0911536
-0.02828
0.0823332
-0.00664377
-0.0756894
0.0364766
0.000237303
-0.0780015
0.0748468
0.00315467
-0.249615
-0.183297
0.0912349
-0.0783917
-0.0128432
-0.075937
0.155157
-0.0792196
-0.0697659
0.0803428
-0.0105769
0.0913998
-0.0110429
0.123474
-0.115504
-0.167684
0.283188
0.156279
0.0869436
-0.243222
0.0529554
-0.0439318
-0.00902361
-0.287008
-0.12264
0.409648
-0.124365
0.271208
-0.146843
0.433495
-0.127661
-0.451637
0.157684
0.0285262
-0.0171201
0.187766
0.171495
-0.0966257
0.196611
-0.398092
0.201481
-0.0162845
-0.0127753
0.0289574
0.00358694
-0.0982207
0.0147723
0.0834484
-0.000134326
-0.0236913
0.0238257
0.00687726
-0.393469
0.210848
-0.244161
0.497593
0.0856357
-0.0850287
-0.0689404
0.0165361
0.336261
-0.162613
-0.127983
-0.190615
0.0341901
0.0421567
0.082606
-0.124763
-0.475277
0.128972
0.23195
0.0683529
0.0836523
-0.00849958
-0.0751528
-0.0236364
0.138987
0.176062
-0.400664
-0.0659625
-0.0521645
-0.0703307
-0.00767076
-0.38339
0.0154612
0.367929
-0.220387
-0.117217
0.122547
-0.188888
-0.0786339
0.00141852
0.188283
-0.384084
0.195801
-0.0776218
-0.00777726
0.085399
-0.0369635
0.0374205
0.209879
-0.0824286
-0.00133527
-0.0145379
0.177676
-0.150617
-0.174404
0.325021
-0.0387574
-0.0305802
0.000132058
-0.276826
0.161321
-0.00330324
0.0522258
-0.0489225
-0.0139651
-0.00436768
0.0483822
-0.00342249
-0.0449597
-0.209068
-0.218028
0.427096
0.0282086
-0.0292138
-0.304253
0.17627
-0.0751003
0.143122
-0.068022
0.0769571
-0.147149
0.070192
-0.0298386
0.03633
-0.00649136
-0.402066
0.254938
0.147129
-0.0297478
-0.0381907
-0.388926
0.167666
-0.0491591
0.155305
-0.101201
-0.0306568
-0.367003
0.13179
0.145766
0.0567693
-0.202535
0.0928001
-0.310738
-0.0913289
-0.108441
0.26472
-0.17123
0.0664076
-0.0847708
0.0984178
-0.013647
0.172761
-0.412554
0.239793
0.101811
0.0673226
-0.169133
0.0633685
0.051078
-0.065561
0.07031
-0.309297
-0.0212408
-0.00238211
0.0723004
-0.14911
0.0768095
-0.0666602
0.138475
0.370213
-0.18193
-0.0374348
0.0384752
-0.00104035
-0.0946567
-0.0751354
-0.0859254
-0.0567975
0.0693897
-0.0125922
0.00447722
-0.336622
0.186005
0.136196
0.235546
-0.100142
0.0876434
-0.4295
0.0350112
0.394489
0.368955
-0.173665
-0.19529
0.0460329
0.0786181
-0.233149
-0.245674
-0.253832
0.0619863
0.191846
-0.0472422
0.0664036
-0.0191614
-0.0824959
0.074053
0.00844291
-0.137741
0.092979
0.0447622
0.00893506
-0.0657325
0.126517
0.149135
0.0634181
-0.116663
0.0532448
-0.00692322
0.0258155
0.0159238
-0.0235508
0.119462
-0.0959112
0.0333502
-0.0288943
-0.00445595
-0.0856342
0.0778218
0.00781243
0.428952
-0.232149
-0.196803
-0.15782
0.0689888
-0.479009
0.207531
0.0928986
-0.00999071
-0.0829079
-0.0791644
-0.0247663
0.103931
0.2409
0.184228
-0.425128
-0.00669268
0.064869
-0.200298
-0.166705
-0.115656
0.218061
-0.080787
0.188415
-0.107628
-0.0304585
0.0283121
0.00214647
-0.0372102
0.00737152
-0.142239
0.0316824
0.110556
-0.00112739
0.0577403
-0.0566129
-0.239499
-0.177267
0.416766
-0.07296
0.082443
-0.00948293
-0.15743
0.22194
-0.217407
0.458306
0.306138
0.170053
-0.0581351
-0.0020958
0.0602309
0.179874
-0.384737
0.204864
-0.034566
-0.107673
0.031618
-0.112037
-0.161173
0.0860375
-0.0626028
0.029495
0.0331078
0.156411
-0.116845
-0.0395657
-0.151966
0.0734921
0.0784735
-0.0196924
-0.00154835
0.147525
-0.0997943
-0.047731
0.0122969
-0.0757636
0.04651
-0.104294
0.0532218
-0.0565251
-0.225269
0.14632
0.0789488
-0.007804
0.046406
-0.0876049
-0.116785
-0.0197311
0.0689681
-0.049237
-0.220093
0.0018868
0.127869
0.0185462
-0.146415
0.00865488
0.0775057
-0.0735365
0.139557
-0.0660205
-0.0738032
0.0657247
0.00807852
0.00181484
-0.130334
0.24512
-0.45149
0.179239
-0.00482305
-0.020834
0.0256571
-0.0541924
0.0577867
-0.00359423
-0.0548944
-0.0253139
0.0235877
-0.03359
0.0100023
-0.156161
-0.0691086
-0.443094
0.218136
-0.41801
0.0194752
0.398535
0.181571
0.129213
-0.310784
0.00147399
0.189454
0.161601
-0.0846443
0.0138876
-0.193951
0.131474
0.0624772
-0.114677
0.0911263
0.0648076
-0.0603587
-0.0139907
0.0743494
-0.0449803
-3.01759e-05
-0.174835
0.372954
-0.19812
0.120406
0.027119
0.15752
-0.0982874
-0.0592327
0.000841563
0.0903934
0.0330691
-0.314334
0.281265
-0.152387
-0.0497373
0.202125
-0.238417
-0.213074
-0.07932
0.0858285
-0.0065085
-0.0224325
-0.00076699
0.0231995
-0.0950017
0.240767
0.322583
-0.289514
0.0672258
-0.00109247
-0.0661333
0.0886536
-0.0762304
-0.0124232
0.168728
-0.254742
0.0860138
0.195061
0.0269264
-0.0264988
-0.000427558
-0.348573
0.113915
0.234658
0.00709254
0.0129591
-0.27043
0.499006
-0.228575
0.0583923
-0.0647579
0.00636559
0.0175744
0.0183552
-0.0359296
-0.0882702
-0.0728097
-0.0850103
-0.100229
0.0651518
0.0350772
-0.569366
0.35747
0.211895
-0.0172678
0.00330275
0.05818
-0.197104
-0.180982
0.378086
0.111884
-0.235579
-0.115095
0.0649089
0.0501857
0.154733
-0.0556834
-0.0926781
0.0267156
-0.0783267
0.0860092
-0.452795
0.275984
0.176811
-0.433255
0.197581
0.235673
-0.00748739
0.0681847
-0.0606973
0.00918036
0.0346268
-0.0438072
-0.207318
0.366368
-0.15905
-0.21417
-0.044289
0.413984
-0.251507
-0.162477
-0.0870752
0.0783985
0.00867667
0.00734849
-0.0677071
-0.120596
0.315349
0.0701448
-0.00492256
0.15355
0.142631
-0.296181
-0.0227211
0.0227211
0.252797
-0.430064
0.00940393
0.0671254
-0.0765294
-0.03604
-0.064189
0.0380592
-0.033944
-0.0041152
-0.0927691
-0.092388
0.0213066
0.0120437
-0.182838
0.0681609
-0.318616
0.199366
0.11925
-0.0111572
0.0856855
-0.0745283
-0.0384198
-0.123036
0.26558
-0.142544
0.0105397
0.284687
-0.175611
-0.538855
0.319266
0.219589
0.0245807
-0.031504
-0.316913
0.0415915
0.275322
-0.0312802
0.035875
-0.00459485
0.0389157
-0.015328
0.0244306
0.0425823
-0.0353595
0.0906309
-0.0819303
-0.00870062
-0.0371421
-0.0321198
0.132436
-0.270474
0.138038
0.12686
-0.0520176
-0.0748421
-0.0994446
-0.0382966
-0.0366825
-0.0822901
-0.110671
0.194545
0.123602
-0.318147
-0.153375
0.28581
-0.05751
-0.271425
0.328935
0.202412
0.167801
0.00247715
-0.00249109
0.00907654
-0.0568039
0.0477273
-0.219963
0.42197
-0.202007
0.372336
-0.175726
-0.0931233
0.204566
0.21458
0.0825264
0.105917
0.0737074
0.0531523
0.00690981
-0.0721743
0.0463023
-0.0417932
-0.00450914
-0.0653033
0.0794431
-0.0141398
0.187967
0.221156
-0.409123
-0.164817
-0.171805
-0.0840641
-0.00629571
-0.0828339
0.214182
-0.131348
0.126472
-0.10819
0.063677
-0.315471
-0.223384
-0.074162
0.196709
0.410353
-0.133782
-0.133891
0.0547269
-0.0188579
0.0718309
-0.052973
-0.0201845
0.0230614
-0.00287686
-0.00129818
0.0290438
-0.0116958
0.0549218
0.00181337
0.000689189
-0.00250256
-0.541111
0.344184
0.196927
0.0577258
-0.006979
-0.0313751
0.0383541
-0.170836
0.26986
-0.085036
-0.097802
0.000809798
-0.153197
0.376392
-0.17398
-0.0605993
0.0106007
0.00726871
-0.318206
-0.25116
-0.074191
0.0664375
0.00775349
0.132519
0.0880552
-0.220574
-0.138383
0.276747
-0.138364
-0.0674564
0.0607637
-0.205177
-0.143397
-0.0433898
0.129546
-0.0861563
0.0342932
-0.226893
0.1926
-0.0398544
-0.0012092
0.0410636
0.127284
-0.201446
-0.0267968
0.0532153
-0.0264185
-0.0661088
0.0188666
-0.00723621
-0.0540498
0.061286
-0.180583
0.142807
0.0377765
0.0449508
-0.0273764
0.0694824
-0.0804664
0.122579
0.111785
-0.234365
-0.125112
0.262658
-0.137546
0.0541859
0.0016631
-0.055849
0.00221359
0.0510083
0.392708
-0.212835
-0.0560248
0.0644013
-0.0262673
-0.0319432
0.0582106
-0.267409
0.132537
0.134872
-0.0817646
-0.0928703
0.174635
0.115485
-0.16204
0.0465559
-0.0290117
0.000789911
0.0282218
-0.252658
-0.200137
-0.141341
0.294892
-0.0756054
-0.00371461
0.116226
-0.191811
0.0755846
0.00124715
-0.0931186
0.0918714
0.20106
-0.421023
-0.00275236
0.0611446
0.0861
-0.370903
0.284803
0.0970859
-0.277183
0.180097
0.00485877
-0.00680972
-0.00904082
-0.0638336
0.0728745
-0.327021
0.269511
0.216498
-0.402732
0.186234
0.0844288
-0.0964083
0.291206
-0.11417
-0.0550356
0.119041
-0.0640057
-0.549756
0.320114
0.229642
0.0600226
-0.057809
0.0760722
0.027639
-0.026996
-0.000643005
0.317637
0.158553
-0.445891
-0.134012
-0.0967865
-0.463086
0.0268989
0.00826846
-0.0273531
0.0248894
0.00246376
-0.040891
0.0599983
-0.0191073
0.00223647
-0.0927325
-0.00177506
0.0945076
0.000228647
0.054105
-0.0974731
0.0433681
-0.0943435
0.0835208
0.0108227
-0.32617
-0.223586
-0.071571
0.349434
0.0041512
0.0299045
-0.0340557
-0.00646603
0.0588484
-0.311749
-0.00516399
-0.0748487
0.232556
-0.379316
0.14676
0.063485
-0.0218183
-0.0416667
-0.169296
0.3941
-0.224805
0.321946
-0.22486
0.280354
-0.0814156
-0.198938
-0.0294094
-0.0340834
0.0634928
0.0326998
0.0244346
-0.0571345
-0.244538
0.056898
0.187639
0.450006
-0.230274
-0.219732
0.245429
0.204577
0.0443467
-0.00611091
0.0591327
-0.153077
0.0595058
0.0935716
0.0663871
0.0630846
-0.078873
0.0713471
0.00752592
-0.137225
0.165118
-0.0278935
-0.399398
0.219684
-0.0560796
-0.00134914
0.0278785
0.0663316
0.068889
-0.135221
-0.20042
0.388387
0.243293
0.174003
-0.417295
0.151297
0.105583
0.0935835
0.0628272
-0.00370478
-0.0504877
-0.00354786
5.53595e-05
0.0034925
0.0530958
-0.0670468
-0.136724
0.0653581
-0.0165352
0.175906
-0.353176
0.17727
0.0100563
-0.387285
0.377229
-0.0684424
0.117054
-0.234463
0.00681977
-0.00414627
-0.0329004
0.0280774
-0.000986615
0.022854
0.0531347
-0.114092
0.0609577
0.0171231
0.0358322
-0.1319
-0.112931
0.244831
0.21691
-0.182617
0.0924858
-0.104513
0.0120268
0.0134391
0.0754358
0.000230681
-0.026619
-0.222454
-0.171016
0.117364
-0.0539461
0.00174453
-0.0395643
0.0378198
-0.101498
0.234017
0.000414933
0.0267723
0.000866641
-0.390479
0.221183
0.536476
-0.302619
-0.233857
0.1029
0.0191238
-0.403928
0.221245
0.182683
0.156474
0.00318228
0.0417685
-0.0444266
0.0283498
0.0160768
0.00470386
-0.0185591
0.0138553
0.00623304
0.0608641
-0.0670971
-0.0763813
0.0792429
-0.00286157
-0.0216184
-0.0276337
0.000424687
0.027209
-0.340982
0.213003
0.127979
0.102618
-0.0212128
-0.0814055
-0.326857
0.16204
-0.145791
-0.0347918
0.0202283
-0.0233393
0.00311102
0.424311
-0.181019
0.0577107
0.000799647
-0.0585103
0.187891
0.103314
0.135263
-0.00313251
0.0517627
-0.0465279
0.0968303
0.0846278
-0.181458
0.536402
-0.314088
-0.222315
0.09698
0.00919657
0.0881085
-0.264341
-0.0648658
-0.00497456
0.0526075
0.00157843
0.246972
-0.158917
-0.0754437
-0.0172889
0.00336315
-0.511472
0.329912
0.18156
-0.0344953
-0.0828301
0.117325
-0.0529237
-0.0552662
-0.191953
0.376181
-0.186519
0.279253
-0.0927346
-0.224899
0.215109
0.00979051
0.0026214
-0.0484181
0.0577354
0.307256
0.218401
-0.450551
0.108605
-0.107358
0.00849781
-0.00363904
0.464907
-0.0716024
-0.393305
-0.111836
-0.192417
0.0107809
-0.0107809
0.178593
-0.375697
0.171101
0.222999
0.0575768
-0.0603292
-0.0245281
-0.00310566
0.063526
-0.00624595
-0.0572801
-0.415639
0.198232
-0.189253
-0.210145
0.000220527
-0.109162
-0.158247
-0.199175
-0.197575
0.39675
-0.00310303
0.0312272
-0.0281241
-0.0808671
0.0915454
-0.0106784
0.00106232
-0.0193932
-0.0424007
-0.0281293
0.111759
-0.0836296
-0.00123074
-0.243307
0.0789159
0.0524387
-0.131355
0.130997
-0.288575
0.157579
-0.0805431
0.0102866
0.32219
-0.146283
-0.00140083
-0.0166818
0.112097
-0.0543789
-0.0577179
-0.0520318
-0.119601
0.171633
-0.0306805
0.0304684
0.000212145
0.00519538
0.0619055
-0.0671009
0.0434985
0.063047
-0.106546
-0.0816282
0.0553609
0.104057
-0.0509224
-0.151712
0.0585938
0.148785
-0.234878
0.0999942
0.134883
-0.408324
0.219072
0.0531078
-0.203226
-0.186962
-0.0843619
-0.0608019
0.0850091
-0.13235
0.29943
-0.16708
-0.0300789
0.0318235
-0.0569496
-0.0535736
0.110523
0.021268
-0.0243711
0.0383262
-0.050022
0.0612663
-0.12513
0.0638641
-0.0592731
0.0666216
-0.072694
0.365879
-0.265281
-0.246191
0.145559
0.0862191
-0.231778
0.0553829
-0.0618489
0.00310324
0.120195
-0.215778
-0.0985516
0.248878
-0.150326
-0.0328782
0.03276
0.000118265
-0.0953908
-0.172758
0.268148
-0.169756
-0.172524
0.34228
-0.232788
0.0753578
0.0547653
-0.0608762
0.154948
-0.0981783
-0.0138575
-0.0409362
0.0547937
-0.254642
0.163198
0.0914444
0.0938204
-0.138545
0.0447246
0.0289397
-0.0302379
0.168543
-0.266738
0.171347
-0.370149
0.162831
-0.476326
0.189318
-0.00262825
0.00273438
-0.000106126
0.0434507
0.0141906
0.0174467
0.00281531
-0.020262
-0.193717
-0.026609
0.0113729
-0.0201788
0.00880596
-0.00628852
0.0275566
0.00255758
-0.0328259
0.023285
-0.00305672
0.111324
-0.0678252
0.0272493
-0.027892
0.000642713
0.271475
-0.122109
-0.149366
-0.142595
0.0499075
-0.0979539
0.156725
-0.0587714
0.0878155
-0.0747813
-0.0130342
0.0551383
-0.0623745
-0.122105
0.0436708
0.0649342
-0.0770072
-0.0747052
-0.0231076
0.0553368
-0.0855863
0.275994
-0.190408
0.160026
-0.314767
0.154741
-0.0296305
-0.00324772
-0.399247
0.198828
0.197502
-0.011542
0.041037
-0.0741109
0.205649
-0.131538
-0.0891708
0.0801801
0.00899069
-0.000712791
0.129555
-0.203666
0.134872
0.0331194
-0.167991
0.152531
-0.0176596
-0.258604
-0.0823786
-0.0259897
-0.089108
-0.052498
0.120793
-0.0682949
-0.533196
0.317313
0.215883
-0.0524474
0.0231617
-0.0364935
0.033409
0.0030845
-0.058904
0.0683079
0.104651
-0.180423
0.0757726
-0.0301158
0.0011041
-0.0329649
-0.00688943
0.0268659
-0.110585
0.0837188
0.303141
0.11847
0.173398
-0.291869
-0.0443058
-0.0202507
0.0645565
0.294233
-0.210216
-0.0840166
0.221424
0.315052
0.108677
-0.243593
0.134916
0.165846
-0.298196
0.100431
0.171044
0.398938
-0.214528
-0.237301
-0.105784
0.0449674
0.0608169
-0.303338
0.506022
-0.202684
0.335944
-0.325888
0.00499641
-0.0720428
0.151673
-0.298311
0.158166
0.52083
-0.200716
0.125842
-0.276226
-0.0147287
0.290955
-0.217586
0.0835743
-0.0966557
0.242214
-0.368751
0.195022
0.17373
-0.00476236
-0.0317311
0.099844
0.0661984
0.00394633
-0.429392
0.190975
0.177514
-0.0612877
-0.0784917
-0.0706183
-0.19083
0.0980608
0.106181
-0.0793155
0.0235478
-0.147306
0.0407006
-0.0242868
0.00780209
0.0102805
0.026729
-0.0280782
0.407516
-0.236038
-0.171478
0.140468
-0.0611718
0.0202808
0.0822561
-0.0550589
-0.0271971
0.00356398
-0.203275
-0.195973
-0.142958
-0.144442
0.076537
-0.16377
0.0872332
0.143183
-0.273655
0.130472
-0.00903186
-0.0358659
0.0448977
-0.000775013
-0.0203958
-0.142522
0.274349
-0.131827
-0.393162
0.116936
0.0258258
-0.0268124
0.0153102
-0.0106064
-0.0756332
0.0901028
-0.0144696
0.0179594
0.0701666
-0.0362934
0.00501325
0.00266755
-0.00246648
-0.000201067
-0.00282799
-0.191562
0.19439
-0.0757453
-0.0655811
-0.0815525
-0.0129749
0.009268
0.0832178
-0.0696291
0.0748245
-0.222509
0.127507
0.0953993
0.109956
-0.205356
0.0524671
-0.0197672
0.0316433
-0.0845671
-0.282729
0.243551
-0.409826
0.166275
-0.231564
0.130862
0.100702
0.220726
0.300104
0.175042
-0.0471731
-0.00149655
-0.030722
0.0587272
-0.122378
0.063651
-0.192197
0.301799
-0.109602
-0.0846359
-0.28155
0.115181
0.166369
0.107714
-0.170192
-0.0646854
-0.0282501
-0.0161765
0.0285071
-0.00173481
0.107052
0.124803
-0.231854
0.0954952
-0.19345
0.097955
0.00579646
0.0576885
-0.175631
-0.219567
0.087667
0.185927
0.284181
-0.153185
0.00199119
0.026516
-0.177005
-0.0537196
-0.0723569
-0.0592839
0.131641
-0.213534
0.143276
0.0702586
0.000377715
0.00897977
-0.00935748
-0.309219
0.263365
-0.132421
-0.130944
0.00549853
0.0288912
-0.122526
0.106457
0.0160685
0.032404
-0.443205
0.37858
0.0646251
-0.0233821
0.000949582
0.184044
-0.383219
0.159253
-0.285765
0.126512
-0.0246194
0.0036808
0.0209386
0.207437
0.121342
-0.328778
0.02218
-0.0229551
0.224283
0.197688
-0.00308806
0.0606649
0.038238
-0.0359543
-0.00228367
0.0778591
-0.0899822
0.0121231
0.00469722
-0.0407271
-0.00425323
0.00133123
-0.0798248
0.0263085
-0.242173
-0.187219
0.223678
-0.226506
0.411285
-0.187002
-0.0907429
0.00667879
0.427623
-0.239501
-0.188122
-0.0772874
-0.00226369
0.0795511
-0.0820933
-0.02496
0.0787851
0.00986852
0.16824
-0.342552
0.174311
0.122742
-0.0790707
-0.216084
-0.187844
-0.497643
0.179437
-0.2011
-0.0237995
-0.221558
-0.230079
-0.072784
0.174595
-0.155141
0.057187
-0.183281
-0.185471
0.209107
-0.366331
0.157224
-0.0764663
0.0181995
0.0582668
-0.489961
0.0467564
0.0132962
-0.0885854
0.0752892
-0.132101
0.080344
-0.0337865
-0.0465575
0.334505
-0.200614
-0.133892
-0.00882539
-0.024166
0.0329914
0.0124043
0.0631083
-0.037855
0.0420062
0.0864655
-0.078679
-0.00778648
0.114118
0.0643553
-0.0112595
0.00905218
0.019329
0.0536913
0.0698916
-0.123583
-0.00891727
-0.00018384
0.00910111
0.394839
-0.159044
-0.235795
-0.0494709
-0.0111285
0.0171397
0.385751
-0.233337
-0.152414
0.0160654
-0.0947961
0.0787307
-0.127173
-0.0984798
-0.0329652
-0.00332825
0.0486048
0.0681401
-0.116745
-0.141961
-0.184368
0.326329
-0.0862311
0.329782
-0.0859373
-0.00480557
-0.158439
0.0749809
0.0834581
0.0314989
0.0488451
0.425979
-0.227812
-0.198167
0.0519665
-0.0712716
0.019305
-0.0953347
0.324826
0.0972346
-0.000855163
0.0116062
-0.010751
-0.209152
0.0529912
-0.150721
-0.061599
-0.0446295
0.0466156
-0.103565
-0.0532966
-0.0936383
0.146935
0.00429402
0.0406992
0.0622011
0.328038
-0.124611
-0.203427
0.0714062
-0.0194397
-0.410883
0.207608
-0.248623
0.420744
-0.172121
-0.00882318
0.087103
-0.0782798
-0.191028
0.111662
0.0793655
0.229448
0.156304
-0.0656446
-0.00844515
-0.1084
-0.0780849
0.0897025
-0.0116176
-0.0327247
0.00296593
0.0297588
0.397606
-0.206081
-0.191525
0.0103055
0.171727
0.223557
-0.395284
0.466838
-0.256576
-0.210262
0.220577
-0.138584
-0.0819923
-0.011851
0.140319
-0.128468
0.191313
-0.114667
-0.0766456
0.0677361
-0.00628702
0.00476129
-0.0620875
0.0573262
-0.102667
-0.0198588
-0.238
-0.295196
-6.96197e-05
0.0458914
-0.0202156
-0.0256758
-0.0252015
-0.00406071
-0.107013
0.31445
0.359497
-0.164953
0.0821529
0.116722
-0.145856
0.197583
-0.0637986
-0.124395
-0.14007
0.128219
0.0739691
0.0793527
-0.153322
-0.213989
0.129156
0.114558
-0.243714
-0.0941212
-0.128388
-0.197506
0.418751
0.134014
-0.0676826
-0.114649
0.257832
-0.124908
-0.164118
0.289026
0.00480151
-0.083083
0.0473704
-0.0507929
-0.0523507
-0.0534335
-0.0275621
-0.00516259
0.0905082
-0.0126491
-0.0835314
0.0820586
0.00147282
0.196407
0.0365692
-0.0324406
-0.00412851
0.0596282
0.0140446
0.0276107
-0.0826463
0.142529
-0.0717827
-0.0707466
-0.0762849
0.0758834
0.000401552
0.00309543
0.0334737
-0.0664825
0.0112166
0.055266
0.424953
-0.172157
0.0732467
-0.107274
-0.00966974
0.00378087
0.0170909
-0.0208718
0.0654851
-0.00585693
0.313668
-0.176296
-0.137372
-0.00636709
0.0735928
-0.0619798
-0.165135
0.0472289
0.150849
-0.236436
-0.0804075
0.0898824
-0.00947494
0.0722927
-0.14823
0.118532
-0.0448249
0.130155
0.0611574
-0.0524079
0.115
-0.0625918
-0.00130663
-0.00224122
-0.0628289
-0.00360367
0.0664326
-0.12066
-0.138159
0.258819
-0.110844
-0.161883
0.272727
0.239396
0.327518
-0.189078
-0.13844
0.0709897
-0.0664553
-0.00453438
0.143964
-0.206102
0.0621386
0.0844793
-0.0769212
-0.00755816
-0.127956
-0.108286
0.306403
-0.140431
-0.165972
0.449426
-0.0245918
-0.305001
0.0587022
0.246299
0.0665436
-0.00518842
-0.127617
0.0552598
0.0778034
-0.00830224
-0.0695011
-0.150038
0.283592
-0.133555
-0.254725
0.0610082
0.0973182
0.00530017
0.0662408
-0.0849457
0.018705
0.0151538
-0.231852
0.4441
-0.212247
-0.279903
0.159243
0.0446926
-0.0415103
0.179301
0.101053
-0.146104
0.340157
-0.194053
0.0897301
0.243691
-0.437283
0.193592
0.00475605
0.0243681
-0.0291242
-0.151071
0.316917
0.0844298
-0.018189
0.00419375
0.0527011
-0.0568948
-0.23813
0.129994
0.011585
-0.00753442
-0.0288119
0.0363463
0.458621
-0.213192
0.231253
0.210541
-0.441794
0.0623683
0.052476
-0.114844
-0.156759
-0.157939
-0.00810312
0.0867157
-0.0786126
0.263809
-0.0992519
-0.164557
-0.0526084
-0.0019485
0.0545569
-0.00382217
-0.0745528
0.078375
0.154858
0.132981
0.0960188
-0.229
0.00306177
-0.227532
-0.248794
0.000448875
-0.00307713
0.0112105
0.0465002
0.165484
-0.290391
-0.0367371
-0.0494654
-0.0470939
0.0519143
-0.00482036
0.0842547
0.0371515
-0.0571866
0.0200351
0.267208
-0.402306
0.135098
0.115388
-0.0640071
-0.0513809
-0.0862047
0.0105715
0.0419685
0.00392298
0.209007
0.13965
-0.0876461
0.160082
-0.1187
-0.0413818
0.155356
-0.0507054
-0.158666
0.324134
-0.165467
-0.0132597
0.0146602
-0.00140054
0.00582202
0.0876307
0.0675259
0.0285071
-0.00125774
0.375817
0.159579
-0.0305695
-0.129009
-0.178095
-0.140521
-0.0961694
-0.0306552
-0.267887
0.141995
0.140048
0.123317
0.227312
0.30909
0.532132
-0.302885
-0.229248
-0.0548979
-0.0563587
0.00375025
-0.185328
-0.0308243
0.216152
0.119772
-0.242504
0.122731
-0.22871
0.127212
-0.00150865
0.0297173
0.0817994
0.093145
-0.161347
0.0682023
0.00680802
-0.0415945
0.0461847
-0.00459021
-0.10701
0.0546023
-0.357189
-0.119044
0.267215
-0.0346588
0.00843611