/*--------------------------------*- C++ -*----------------------------------*\
| =========                 |                                                 |
| \\      /  F ield         | OpenFOAM: The Open Source CFD Toolbox           |
|  \\    /   O peration     | Version:  v2012                                 |
|   \\  /    A nd           | Website:  www.openfoam.com                      |
|    \\/     M anipulation  |                                                 |
\*---------------------------------------------------------------------------*/
FoamFile
{
    version     2.0;
    format      ascii;
    class       volVectorField;
    location    "200";
    object      ddt0(U);
}
// * * * * * * * * * * * * * * * * * * * * * * * * * * * * * * * * * * * * * //

dimensions      [0 1 -2 0 0 0 0];


internalField   nonuniform List<vector> 
18618
(
(0.0123892 0.0132373 1.0378e-21)
(-0.00262524 0.0398474 -6.1976e-22)
(1.14416e-05 3.85939e-06 0)
(0.0235879 -0.0038533 -2.19754e-21)
(3.13873e-05 2.54042e-05 1.36857e-22)
(-0.0106193 0.0112299 -1.19601e-21)
(-0.000105193 6.34805e-05 -8.6315e-22)
(-0.00588532 0.04262 1.14723e-21)
(4.68538e-05 -0.00162491 7.87269e-22)
(2.62052e-06 -7.81102e-07 -1.47958e-22)
(-7.4897e-05 -5.99746e-05 2.80498e-23)
(1.18298e-05 3.35026e-06 3.5834e-23)
(0.0141648 -0.0159859 0)
(-0.000310234 0.000507716 -1.26922e-22)
(2.7562e-05 2.50682e-05 -1.12177e-22)
(2.23479e-05 -2.73763e-07 4.9697e-22)
(-2.26672e-05 -2.98705e-05 0)
(0.00310199 -0.00581065 -7.30944e-22)
(-4.52626e-07 -2.53287e-06 0)
(0.000779139 0.00152903 1.7483e-23)
(-0.00804648 0.0106089 3.57281e-23)
(1.33182e-05 8.18968e-05 4.38868e-23)
(2.26363e-05 6.0021e-07 -4.89667e-22)
(-0.00106074 -0.00142504 3.42691e-22)
(8.93519e-06 -6.46067e-07 1.1624e-22)
(0.00122161 0.00516549 -1.1939e-22)
(0.00921161 0.0141773 -2.53804e-21)
(-4.41102e-06 4.63263e-06 -1.14283e-23)
(2.23987e-05 3.73417e-07 1.27708e-22)
(1.44178e-05 4.70112e-05 -1.42712e-22)
(7.88217e-06 -1.30399e-06 0)
(0.000333903 0.000109829 0)
(3.15025e-06 4.40611e-07 0)
(0.000707075 -0.00415385 0)
(0.00482852 0.0675337 0)
(-9.95393e-05 2.06592e-05 6.07992e-23)
(3.47687e-06 -1.53294e-05 -2.94747e-23)
(-0.0312282 -0.0109609 0)
(0.000745352 0.000788788 -6.42486e-22)
(8.41869e-06 4.40732e-05 1.4626e-22)
(0.018309 0.03108 -2.36588e-22)
(0.00773171 0.0121796 1.26061e-21)
(4.47227e-05 -3.28298e-05 4.76019e-22)
(-0.00083612 -0.0391785 -5.8203e-22)
(0.000245686 -0.00192309 -7.3894e-22)
(-1.57305e-05 -1.41812e-05 5.13342e-22)
(-0.0112869 0.0426095 -8.56465e-22)
(2.3504e-05 1.4295e-05 0)
(-0.00718675 0.0182959 0)
(-0.0191558 0.00538566 -6.15308e-21)
(-8.36612e-06 3.4836e-06 -5.5415e-23)
(-5.99057e-05 -0.000131649 -1.67728e-22)
(0.0334538 0.0470443 -4.01596e-21)
(0.0123873 0.0323376 1.36119e-21)
(1.51635e-05 -1.18857e-06 -1.65264e-22)
(0.0197394 -0.0273131 0)
(-0.000467058 0.000545372 1.22065e-22)
(0.000493844 0.00155427 -3.44943e-23)
(0.00124482 -0.00415932 0)
(0.000457666 0.000862481 0)
(-2.40751e-05 4.23722e-05 1.66846e-22)
(1.31571e-05 3.61318e-07 -4.28711e-23)
(0.000860392 0.00128549 0)
(2.84665e-06 -2.79192e-06 0)
(-0.00218408 -0.00527068 1.15506e-21)
(-0.0280041 -0.0177957 3.97123e-21)
(1.3118e-05 2.00269e-06 -1.47528e-22)
(-0.00017171 -3.87596e-05 2.20646e-22)
(1.50028e-05 6.74326e-07 -1.36757e-23)
(-0.00505193 0.0788587 1.61465e-21)
(-6.94934e-05 -5.45559e-05 -3.64106e-22)
(0.000135465 0.0116964 1.58991e-23)
(-0.000620655 0.000135388 -3.4152e-22)
(-2.96577e-05 -0.00357688 -9.89011e-22)
(3.32606e-06 -1.42465e-08 -1.56095e-22)
(-0.000135801 4.90097e-07 -4.47803e-22)
(0.0031975 0.0123537 4.37999e-23)
(-0.0171239 0.00795475 2.69338e-21)
(1.54631e-05 9.56433e-07 0)
(0.0110462 0.00361224 2.18551e-22)
(0.000447471 -0.00252093 1.54507e-23)
(0.00225904 -0.00737376 -1.7464e-21)
(-0.000113019 -0.00370163 0)
(2.87796e-06 -3.15915e-07 2.27014e-22)
(3.12986e-06 5.57358e-07 0)
(4.97427e-05 -2.75587e-05 -2.27506e-22)
(-0.00148808 -0.00182282 -2.48394e-23)
(2.47222e-06 -8.94948e-07 -2.04256e-22)
(-0.00159493 0.00128967 -1.73097e-22)
(0.00289166 -0.00618862 0)
(-0.000597673 0.000184568 1.24201e-21)
(-0.0173462 0.00614671 0)
(-0.00187089 -0.0336682 6.22796e-22)
(0.00473237 0.0121199 1.16225e-21)
(0.0295259 0.0195887 -2.69559e-21)
(-0.000133338 1.0123e-05 5.72434e-22)
(-8.60308e-07 -1.84972e-05 0)
(-0.0442944 -0.00667666 -1.17206e-21)
(-0.000226297 0.000587916 1.29742e-22)
(1.14118e-05 3.27707e-06 -1.44036e-22)
(0.0246598 0.0193606 2.65093e-21)
(2.93376e-06 -2.69943e-06 9.88822e-23)
(-0.0064283 0.0124557 0)
(0.000370395 9.25106e-05 4.67895e-23)
(1.27723e-06 4.30178e-09 7.61113e-24)
(0.00878969 0.004884 -3.02702e-22)
(1.50341e-05 -1.20536e-06 2.52579e-22)
(2.22229e-05 -5.58079e-07 -8.00335e-23)
(-0.00155316 -0.00542765 0)
(1.52152e-05 3.16166e-06 -1.1067e-22)
(-0.0251211 0.0123034 -6.81709e-22)
(1.30115e-05 2.77422e-06 0)
(-1.57891e-06 -1.13689e-05 4.24125e-22)
(3.26099e-05 -1.29613e-05 0)
(-1.54449e-05 -1.00166e-05 9.4564e-23)
(1.14508e-05 2.91368e-06 1.37082e-22)
(1.27555e-05 1.57488e-06 1.64601e-22)
(0.0058884 0.00257651 0)
(1.01891e-05 -1.84877e-06 -8.8225e-23)
(-0.00143741 0.00160622 1.44896e-21)
(-0.0491394 -0.0187105 1.4745e-21)
(-5.23855e-07 -1.0652e-05 0)
(0.0201246 -0.0308024 7.82829e-23)
(0.00247639 -0.00695272 2.3961e-21)
(0.0154644 0.0148157 1.15403e-21)
(-0.01936 -0.0069837 3.3548e-22)
(0.0211513 0.0305735 5.10663e-22)
(0.00116916 -0.0043766 -1.16367e-22)
(-9.97755e-05 -9.45569e-05 7.2429e-22)
(0.000112733 0.000477963 -3.31932e-22)
(-0.00015164 0.00082741 -1.01527e-21)
(1.26837e-05 2.6168e-06 0)
(0.00107772 -0.00822945 -4.68833e-21)
(-0.00861869 0.0187246 -7.44326e-21)
(-1.17265e-05 -1.06336e-05 -3.04531e-22)
(-2.25061e-05 1.82624e-05 -8.73907e-23)
(1.29717e-05 2.65987e-07 2.96725e-22)
(1.87173e-06 -2.18923e-06 3.88606e-22)
(0.00510958 0.0344019 5.40467e-21)
(1.71377e-05 1.13272e-06 0)
(6.21786e-06 -5.9431e-07 0)
(1.94517e-05 7.53091e-07 0)
(1.31551e-05 5.04368e-07 -3.19802e-23)
(8.39938e-07 -1.75656e-05 -2.43943e-23)
(3.92857e-05 -1.59186e-05 2.80992e-22)
(0.00150071 0.00445428 0)
(4.02751e-06 -1.69222e-05 0)
(-8.54228e-06 -7.1049e-07 5.65465e-24)
(0.00866714 0.0048247 3.01541e-22)
(-0.000152153 4.34886e-05 0)
(-0.000530856 0.000422835 -1.21914e-22)
(0.00563481 0.00225449 4.48995e-22)
(0.0041518 0.0329865 -5.25326e-21)
(2.2124e-05 -8.44649e-07 -2.58268e-22)
(1.3797e-05 -9.39336e-07 -3.95132e-23)
(0.00977283 0.0278676 -1.65961e-22)
(0.00820453 0.00543053 -2.35011e-22)
(-0.0176603 -0.0168925 1.10642e-21)
(-0.000611584 -0.00256737 -4.30229e-23)
(1.01352e-05 1.27444e-05 0)
(6.60153e-06 3.44293e-06 0)
(-0.0221462 0.0669607 2.41075e-21)
(1.99664e-06 -2.0285e-06 0)
(-0.0140378 0.0108811 1.62822e-22)
(1.92955e-05 3.40864e-06 2.05968e-22)
(-0.0486164 -0.026902 1.26365e-21)
(1.35883e-05 -1.09898e-06 2.44988e-23)
(1.49816e-05 1.3028e-06 2.21127e-22)
(0.000565813 -0.00258847 -7.43176e-22)
(-2.21209e-06 -1.03369e-05 0)
(3.32327e-06 -5.59279e-09 0)
(1.16079e-05 5.82164e-06 0)
(-0.000160034 0.000900335 1.03193e-21)
(-0.000198266 0.000398035 -6.86127e-22)
(-0.0115766 -0.0187904 0)
(-0.000154246 -1.84124e-05 4.44445e-22)
(-0.0021423 0.0140617 0)
(0.00103842 -0.00452854 1.2816e-21)
(1.20639e-05 5.52603e-06 0)
(1.46982e-05 1.1288e-06 -6.72181e-24)
(-0.000209021 0.000227012 -2.82891e-24)
(-0.000213724 0.000432749 0)
(-0.000103744 3.47447e-06 -3.37404e-22)
(-6.63291e-05 -2.96999e-05 6.31558e-24)
(0.0262175 0.0319154 -1.13711e-21)
(1.35406e-05 3.75528e-07 -2.26511e-24)
(0.000268864 0.000916847 -5.35926e-23)
(-0.000220268 0.000201331 -1.87512e-22)
(-2.98773e-05 0.013361 0)
(-0.0106116 0.0136939 0)
(5.06262e-05 -0.000108515 -9.96188e-23)
(-0.000150123 0.000359029 -5.63952e-22)
(-0.0208396 -0.0179377 -1.13435e-21)
(1.64004e-05 1.14309e-06 2.10353e-22)
(-0.000794684 -0.00634204 2.49285e-22)
(-0.0031976 0.00436521 5.59643e-22)
(-0.00022694 0.000248228 2.06638e-22)
(-0.0190979 -0.129884 -2.2238e-21)
(2.53427e-06 -2.2098e-07 0)
(0.00602997 1.78223e-05 -7.99362e-22)
(-0.0305173 0.00649734 0)
(0.0248187 -0.0447958 -1.07276e-21)
(0.000642914 0.000925965 -4.01253e-23)
(-2.74146e-05 -5.21487e-05 0)
(0.000642942 -0.00287076 -8.1802e-22)
(-0.00154466 -0.00534381 -1.31676e-21)
(0.0110914 0.00224107 5.49312e-22)
(0.00502757 0.0020346 -4.17034e-22)
(-5.13658e-06 -1.97103e-05 0)
(0.0192116 0.0369845 3.26989e-22)
(-0.0120142 0.02147 0)
(1.39701e-05 2.03505e-07 7.76281e-24)
(0.00676002 0.0028448 -3.23288e-22)
(0.00737021 0.0067817 -2.7706e-22)
(-6.49051e-05 -4.13457e-05 0)
(-8.6008e-05 -7.68461e-06 -2.35513e-22)
(-0.00587955 0.00569162 -5.42128e-22)
(0.000501121 -0.00279579 0)
(-2.36054e-06 -1.09205e-05 8.26164e-24)
(0.0066779 0.00234975 -2.64274e-22)
(-5.21315e-05 -5.69557e-05 0)
(4.55649e-05 -1.46616e-05 -1.44277e-22)
(1.38115e-05 3.93371e-07 2.41776e-24)
(0.00124007 0.000927422 -3.28395e-22)
(0.000905126 0.000989325 -6.32111e-23)
(0.00098782 0.000327517 -1.06923e-22)
(-4.04213e-05 -5.48059e-05 0)
(1.88672e-05 3.92456e-06 -1.13617e-23)
(0.000724235 0.0942571 6.88823e-21)
(-0.000811841 -0.00213668 7.23399e-22)
(0.0179752 0.0484631 0)
(-0.014665 0.00860231 1.34673e-23)
(5.63422e-06 -4.27216e-07 0)
(-0.000176404 -2.1781e-05 -2.42216e-22)
(7.61622e-06 -1.4826e-06 0)
(7.35434e-05 0.00046211 -6.73327e-22)
(0.000347512 0.00092791 -3.76806e-22)
(-0.00275351 0.00153931 -4.60104e-22)
(-8.38917e-05 -2.29952e-05 -1.95399e-22)
(0.0230746 0.00703583 1.02783e-21)
(-0.000114318 0.00019279 8.97686e-22)
(0.000258549 9.22682e-05 -1.29778e-22)
(-1.14812e-06 -4.97584e-06 0)
(-0.00173121 0.00101177 0)
(0.0204092 0.0230374 -1.08336e-21)
(-6.28916e-05 -0.000159439 1.73747e-22)
(-0.00112748 -0.00160906 -3.45446e-22)
(-0.00389686 -0.00533442 -5.54052e-22)
(1.31933e-05 4.67049e-08 0)
(-8.71988e-05 -9.59519e-05 -1.16155e-21)
(0.0322688 0.0461034 3.35189e-21)
(-0.00915069 0.010437 -1.56689e-22)
(-2.34193e-05 -5.41973e-05 0)
(-0.0132303 -0.0123161 0)
(-2.53906e-06 -2.16556e-05 -7.01496e-22)
(2.2146e-05 -7.09331e-07 0)
(1.63731e-08 -2.44801e-05 -2.71995e-22)
(-0.000646532 -0.00288386 0)
(-9.59157e-06 -4.937e-05 3.63127e-24)
(-0.00117685 -0.000401982 -2.45762e-23)
(0.00125436 0.00103046 5.88392e-22)
(-2.3108e-06 -2.31557e-05 7.86812e-22)
(-0.0077506 0.0110121 0)
(-0.00687279 0.0204629 0)
(-0.00712969 0.0114405 -8.70952e-23)
(1.31661e-05 1.20903e-05 0)
(-0.000106165 0.000144653 4.08679e-22)
(-0.00790252 0.0157199 0)
(2.41803e-06 -2.30605e-05 3.42724e-22)
(-5.66725e-05 -4.89717e-05 0)
(-0.000149687 -2.79508e-06 0)
(1.11176e-05 1.00276e-05 -1.01702e-24)
(-3.07303e-08 5.20644e-05 0)
(-3.47587e-06 8.25955e-06 7.65525e-24)
(2.09071e-05 1.65277e-05 0)
(-0.0045549 -0.115119 -2.94752e-21)
(0.00111043 0.00168849 -3.48024e-23)
(2.30402e-05 1.64974e-05 1.70107e-22)
(0.000716142 -0.00314263 4.31496e-22)
(-6.19258e-06 4.67167e-05 -1.74986e-22)
(4.60878e-05 -8.95094e-06 -1.22228e-22)
(1.23617e-05 9.59788e-06 1.35265e-22)
(-0.0157775 -0.0144937 -6.83498e-24)
(-0.00358193 -0.00545077 0)
(0.000891358 0.000399014 9.59196e-23)
(-0.0256357 0.00673836 -3.08284e-21)
(0.000995154 0.000128722 -7.82637e-22)
(0.000942193 0.00401827 0)
(5.67128e-06 7.2332e-05 2.15184e-23)
(0.00975136 0.00444426 0)
(-2.63504e-05 2.45803e-05 1.98319e-22)
(0.000892582 0.000807542 8.82928e-22)
(8.4163e-06 -8.24655e-07 0)
(0.000952431 0.000253628 1.67263e-21)
(0.00805541 0.00480948 2.72026e-23)
(2.20848e-05 9.23779e-07 1.4019e-22)
(-1.62349e-05 -3.50921e-05 -8.0063e-24)
(1.15065e-06 -1.06805e-05 3.03264e-22)
(-0.00895747 -0.124244 -2.4341e-22)
(0.00527489 0.00237688 1.08659e-23)
(-0.0143128 0.089307 -1.27109e-21)
(-0.0372259 -0.04831 -1.27334e-21)
(-0.00823834 0.0212358 0)
(-0.00041633 0.000542897 1.55136e-24)
(-0.000876222 -0.00240854 -6.75739e-22)
(0.00565543 -0.000418931 6.71613e-22)
(-0.0203697 -0.00283689 -4.66239e-21)
(1.26055e-05 -0.000202656 5.64948e-25)
(1.8563e-07 -1.1441e-05 -3.1601e-22)
(-0.000156568 0.000391909 2.9766e-22)
(-2.94498e-06 -1.81158e-05 0)
(2.24343e-06 -5.88447e-08 2.48496e-22)
(5.33931e-05 -2.75091e-07 -1.24178e-22)
(-1.81499e-05 5.15025e-05 1.82493e-22)
(-0.000140275 4.22081e-05 6.17836e-22)
(-0.0204337 -0.00356084 2.43763e-21)
(0.012826 0.0340128 -9.57281e-22)
(-0.00752234 0.00838296 1.17104e-21)
(1.05839e-05 1.10403e-05 2.3386e-22)
(1.21616e-05 3.51585e-07 0)
(9.69203e-07 -4.58792e-08 0)
(-0.00148987 -0.00624424 -2.64459e-22)
(-0.000198973 0.000181017 -4.02354e-22)
(-0.0145455 -0.00914171 -1.20079e-22)
(1.4294e-05 8.02161e-06 1.47728e-22)
(-0.00326768 0.0054102 -1.1022e-21)
(-0.0192264 -0.129425 0)
(1.98079e-05 1.83445e-05 0)
(-0.000467589 0.000517875 4.87911e-22)
(0.000413497 0.000498028 0)
(1.45936e-05 5.97035e-07 -2.02801e-22)
(3.39587e-05 -8.76477e-06 0)
(-0.000112373 0.000321118 0)
(-3.62333e-07 -1.7422e-05 0)
(0.000942784 -0.00203158 -9.01017e-22)
(1.55464e-05 6.92512e-06 1.13242e-22)
(-0.0169672 0.00360707 0)
(-0.00245816 0.00111601 9.60767e-22)
(0.00928598 -0.000172987 2.26784e-21)
(0.00519146 -0.00748221 -3.0591e-21)
(-3.61948e-05 -2.12848e-05 3.94673e-22)
(0.000860959 -0.00342168 -4.30645e-22)
(0.000613611 -0.00177341 0)
(2.47204e-06 6.83876e-06 0)
(1.41335e-05 1.06846e-06 0)
(2.12906e-06 -1.23914e-07 -1.63954e-22)
(-0.00594587 0.00323869 1.66866e-22)
(9.85164e-06 4.60049e-09 0)
(-0.0357128 0.06493 1.69339e-21)
(-5.0635e-06 -2.1315e-05 0)
(0.00237011 -0.0652188 -4.95712e-21)
(-0.000291382 -0.00302836 -5.35857e-22)
(5.36299e-05 -6.28245e-06 0)
(3.04638e-06 -6.04894e-07 -2.45831e-22)
(-0.0093678 -0.019928 1.70868e-21)
(-0.000384845 0.00197972 -1.30973e-21)
(2.21629e-05 -3.50289e-07 -1.67066e-22)
(0.00146192 0.00262027 -2.31815e-22)
(1.12076e-05 1.27786e-05 0)
(-0.000580284 -0.00141761 -2.57783e-22)
(-0.00174653 -0.017285 2.21433e-21)
(0.00479281 0.0331384 6.47848e-22)
(0.00127602 0.00151592 5.24102e-22)
(-0.00630787 0.00227707 -1.07904e-21)
(0.00361169 0.0337584 0)
(-0.0146096 -0.112569 -1.29989e-22)
(0.000326498 0.000439156 0)
(-6.12001e-05 -5.51076e-05 3.05692e-22)
(-0.00782293 0.00486052 -5.71585e-22)
(4.11704e-05 -1.26352e-05 3.07537e-22)
(1.12829e-05 3.73522e-07 4.48818e-22)
(2.16677e-06 -1.90474e-06 -3.18557e-22)
(-0.0361571 0.0743478 1.29859e-21)
(0.00567045 -0.0728042 1.02631e-20)
(5.21411e-06 9.77307e-05 -3.28619e-23)
(3.33919e-05 -0.000238271 1.07423e-22)
(-0.0277566 0.0173557 1.67586e-21)
(-3.6658e-06 1.57457e-05 7.67431e-24)
(-0.0181281 0.0212278 9.68556e-22)
(-0.0298471 -0.000887305 0)
(-0.00158373 0.000767176 0)
(0.000291712 7.67018e-05 0)
(0.00174003 -0.00213624 -1.41821e-21)
(0.0278536 0.0643152 2.59076e-21)
(2.91777e-08 -4.98969e-06 3.30484e-23)
(5.39301e-06 -9.97239e-06 6.48237e-24)
(2.35032e-05 8.42542e-06 -1.79094e-22)
(0.00144877 0.00252141 -2.57599e-22)
(7.41951e-06 2.92689e-06 0)
(3.05771e-06 -5.49328e-07 -2.48631e-22)
(1.11812e-05 2.62309e-05 -9.3034e-23)
(-0.0111321 0.0133495 -2.78255e-21)
(-1.46925e-05 -1.29265e-05 -5.10668e-22)
(1.3191e-05 2.60047e-05 9.60954e-23)
(0.000613771 -0.00306207 1.39455e-21)
(0.0256172 0.00985598 3.97846e-21)
(-0.00130174 0.0014875 -1.72927e-21)
(0.0108501 0.00272414 9.53012e-22)
(1.87039e-05 3.21812e-06 -1.10636e-23)
(-0.000323106 -6.34165e-05 0)
(5.5726e-06 -8.4586e-06 0)
(0.025287 0.0471835 1.11179e-20)
(-0.0194391 0.0190059 9.21738e-22)
(0.00437863 0.00214915 0)
(2.21971e-05 7.93008e-06 -1.18587e-23)
(0.0013049 -0.0020134 6.62702e-22)
(-3.17345e-05 -6.20537e-05 0)
(-0.00016941 -0.000283916 0)
(1.78423e-05 -4.54248e-07 0)
(0.00294065 0.00117665 1.07162e-22)
(-9.2425e-06 -1.52879e-05 3.65542e-22)
(0.00225532 -0.00220776 -5.62421e-22)
(-0.016699 -0.0411022 -1.10969e-21)
(-0.0143303 -0.0179896 -9.96108e-22)
(-0.00024576 0.000585409 -8.13518e-24)
(0.00141934 0.00145678 5.22648e-24)
(2.26645e-05 -1.55287e-05 0)
(4.01939e-05 -0.000294033 8.04707e-22)
(1.07705e-06 -3.08982e-06 3.93783e-22)
(0.0164447 0.0389821 5.21844e-21)
(2.28749e-06 -1.72843e-06 1.52046e-22)
(1.29904e-05 -2.04024e-05 1.59673e-22)
(0.00148598 0.00150202 -1.2424e-23)
(0.00152638 0.0928849 0)
(0.0411799 0.0389871 8.64936e-22)
(1.45094e-05 3.54133e-06 5.27549e-23)
(-0.000329006 -0.000106533 0)
(-0.0170434 -0.00988829 -1.09172e-22)
(1.40793e-05 -8.96081e-07 0)
(-5.46436e-05 -7.5854e-05 -2.64389e-22)
(-4.48742e-05 3.09535e-05 0)
(1.00774e-06 1.18667e-05 4.53313e-23)
(-2.44197e-05 -5.72699e-05 0)
(-0.0167139 0.00939577 1.46345e-21)
(0.00262499 0.00102529 -1.95084e-22)
(8.66191e-07 -3.26779e-06 -4.45124e-22)
(-7.96223e-05 0.000788921 -1.76732e-22)
(-6.18862e-06 -1.51655e-05 -1.7714e-22)
(0.00857024 0.00538746 2.43065e-22)
(9.70557e-06 -1.37707e-07 -1.36362e-22)
(-0.0317785 -0.00506059 0)
(-0.0135347 -0.0431353 1.7856e-21)
(0.00177804 -8.44437e-05 0)
(0.00166832 0.000105469 0)
(0.00109436 -0.00403632 0)
(7.16568e-05 -0.000284343 -2.52943e-22)
(-0.0374598 -0.0588705 -1.3551e-21)
(0.00759074 0.0037601 -2.30655e-22)
(6.56258e-06 1.02227e-05 1.09439e-22)
(0.000130048 -0.000753646 -7.25948e-22)
(9.41066e-06 -1.0773e-07 -1.77276e-22)
(0.00990624 0.0065048 3.08396e-22)
(0.0250432 -0.0243789 4.45539e-21)
(2.16346e-05 -1.59361e-05 2.81345e-22)
(-0.00054324 0.00201312 4.10396e-22)
(0.0105744 0.00180144 -2.7913e-23)
(8.76876e-06 -7.30597e-07 -8.09424e-23)
(-0.0120683 -0.00825009 -7.29548e-21)
(1.0155e-05 1.97042e-06 0)
(0.0014868 -0.00784387 1.13761e-21)
(0.0295181 -0.0180659 -3.89542e-21)
(-2.69322e-05 -4.53302e-05 0)
(-0.00623256 0.0317925 -6.66965e-22)
(9.54342e-06 -3.99002e-05 1.42983e-22)
(0.00205706 0.000650158 9.92776e-22)
(-0.000576469 0.000548193 5.04809e-22)
(0.0067464 0.00845299 6.48901e-22)
(-1.14478e-05 -1.59973e-05 -1.19887e-22)
(-0.0263903 0.0288936 -8.0214e-23)
(7.8563e-05 -0.000224108 1.13533e-22)
(3.41322e-05 1.18572e-05 -4.79346e-22)
(-2.74652e-06 -1.25078e-06 0)
(-0.0269556 -0.0115437 1.10197e-23)
(-0.000958073 7.58389e-05 1.234e-21)
(8.24238e-06 -9.89889e-07 -4.59653e-23)
(1.63355e-05 3.13285e-06 0)
(1.74698e-05 3.68047e-06 2.24122e-22)
(-0.00752149 0.0325601 7.96128e-22)
(0.00791097 0.00377751 5.57162e-22)
(0.000106476 0.000935344 4.2207e-23)
(0.00370105 -0.00532428 -1.08295e-21)
(0.00205559 0.000706123 0)
(-3.13198e-05 -4.43635e-05 -1.39831e-22)
(9.9231e-06 -7.72766e-07 -1.03977e-22)
(1.94782e-05 1.76911e-06 1.29535e-22)
(-0.00503648 -0.0136384 6.57825e-21)
(4.56408e-06 -1.44e-05 -1.20241e-23)
(-0.000114819 6.72672e-05 5.66612e-22)
(0.00189066 0.0117621 -3.05037e-24)
(0.0240669 -0.0249324 -3.25577e-22)
(0.000603386 0.00265157 0)
(3.20643e-05 1.40177e-05 0)
(-0.00219918 0.00405627 9.80953e-22)
(0.000579546 -0.000844148 -3.40282e-22)
(0.0350603 0.0492538 0)
(1.94691e-05 -3.40913e-07 -8.9462e-23)
(-0.00132375 -0.00538013 1.53246e-21)
(9.75545e-06 -1.72253e-07 1.13638e-22)
(-0.000282884 0.000239807 -1.15376e-22)
(0.00200153 0.00215696 -1.11651e-21)
(0.0246232 0.0488729 1.84024e-21)
(1.12932e-05 -3.32697e-07 9.44451e-24)
(-0.0507586 -0.0371939 -3.84409e-21)
(2.39187e-06 -1.77669e-06 0)
(2.58755e-06 -1.44033e-06 -1.68671e-22)
(0.000729811 0.000932121 6.62834e-23)
(1.45794e-05 -1.02058e-06 1.07618e-22)
(1.19562e-05 -7.81001e-08 -2.60597e-22)
(1.7974e-05 -5.18727e-07 0)
(-0.0140104 0.0606514 8.85805e-22)
(-0.031687 0.00536398 9.87248e-22)
(0.000413236 0.00276168 0)
(-0.00663694 0.00458808 0)
(1.19717e-05 4.42918e-06 3.49662e-22)
(1.64153e-05 2.67652e-06 -1.12062e-23)
(0.00231136 0.00135342 4.5104e-23)
(0.0298177 -0.0133372 0)
(1.72102e-06 -6.71418e-08 2.41834e-22)
(-0.0338187 0.00998509 0)
(1.35847e-05 -0.000105652 0)
(-0.0263377 -0.0168575 -1.50607e-21)
(-0.00138844 0.000187244 -6.78616e-22)
(1.67794e-05 -1.63931e-07 1.41568e-22)
(-0.000228997 -0.00339379 0)
(0.0103877 0.000259536 0)
(0.00109168 0.00345669 0)
(1.95054e-05 -5.47067e-06 0)
(0.00162225 0.002395 -5.81991e-22)
(-0.0388037 -0.0101232 -9.78658e-22)
(-0.0212068 0.00852264 0)
(2.63144e-05 -1.67465e-05 -3.54783e-23)
(1.42414e-05 0.000559286 0)
(-5.53146e-06 -2.91869e-06 1.19566e-22)
(-6.33082e-06 0.000537955 -1.52329e-23)
(1.00544e-05 -9.62736e-07 1.09947e-22)
(0.0106056 0.00309996 0)
(-0.00401492 -0.000769336 -7.05745e-22)
(1.16318e-05 2.98e-07 -2.45068e-22)
(0.00362109 -0.00373682 9.5835e-22)
(0.00211219 -0.00208727 0)
(0.0271215 -0.01489 2.50567e-21)
(0.000910684 -0.0383412 -4.11425e-21)
(-0.000588821 -0.000728228 -1.42588e-22)
(0.0149067 -0.0418694 5.68826e-22)
(-3.49049e-05 0.000317992 1.178e-21)
(6.80145e-06 -2.34792e-05 -3.24435e-22)
(0.0149691 -0.0126961 0)
(0.0232499 -0.0276422 0)
(-0.0238071 -0.00649285 -1.04538e-23)
(-8.17479e-05 0.000724131 -6.74967e-22)
(-0.000117546 0.000351288 1.77937e-23)
(0.000107894 -0.000257195 -2.20229e-22)
(-4.81409e-06 -9.96389e-06 3.15391e-24)
(3.88403e-05 0.00149732 -8.87194e-22)
(-6.06561e-06 0.00139364 7.9307e-22)
(8.85905e-06 -2.34038e-07 0)
(-0.0001178 0.000824474 -5.67778e-22)
(-0.00226367 -0.00470158 -1.36505e-21)
(-0.000202691 -0.000295088 0)
(7.06405e-05 -0.00081809 2.7998e-22)
(1.16078e-05 1.39571e-07 0)
(0.00492065 -0.0460926 -1.34442e-22)
(9.39062e-06 3.49969e-06 0)
(0.00878039 0.0280866 -1.42598e-22)
(-3.10414e-05 -2.92633e-05 0)
(3.30058e-06 -3.00401e-07 -1.80336e-23)
(-0.00244184 0.00238644 8.94847e-22)
(2.38586e-06 -2.06392e-06 1.41848e-24)
(-1.06788e-05 -1.82627e-05 2.33562e-22)
(0.0440456 0.0365612 3.46263e-21)
(2.45868e-06 -1.55429e-06 4.99597e-22)
(0.00180621 -0.00226887 1.50433e-21)
(0.00401015 0.0276787 0)
(-0.0193422 0.0219547 0)
(-0.000519801 0.000580065 -5.45633e-22)
(0.000651901 -0.000907738 1.31473e-23)
(-0.00177491 -0.00443348 -4.53592e-22)
(4.31178e-05 -0.000122913 2.59424e-22)
(0.000120555 5.61736e-05 0)
(-0.00137094 -0.00160791 3.98757e-22)
(-0.00263952 0.00272695 -9.13959e-24)
(4.24937e-05 5.39234e-07 1.31365e-22)
(0.0080332 0.00437089 0)
(-0.00380405 -0.0204153 0)
(-1.21176e-05 -1.74816e-05 0)
(3.48222e-06 7.44501e-10 -2.21942e-22)
(4.22328e-06 -2.51624e-05 -2.0324e-22)
(-0.0024459 0.00213267 4.3411e-22)
(1.05323e-05 2.22315e-06 0)
(-0.00127739 -0.000449105 0)
(-0.000625857 -0.000502539 -1.74257e-22)
(0.00122795 -0.0085253 2.41702e-21)
(-0.00153374 -0.000514471 0)
(0.00454877 0.0794047 4.41435e-21)
(0.00114931 -0.000483344 -4.03981e-22)
(0.00350335 -0.00400037 3.6706e-22)
(2.04166e-05 -2.18523e-09 0)
(0.000167853 0.00177543 2.32552e-24)
(-0.02516 0.0244681 -1.16423e-21)
(-0.00152113 0.000293616 5.03084e-22)
(-0.0160122 0.081083 -8.51833e-22)
(1.38679e-05 1.97143e-06 -8.66131e-23)
(-0.00523764 0.000562941 2.3235e-21)
(0.0023709 0.000435616 -4.44764e-23)
(1.30219e-05 -2.38291e-05 4.8686e-22)
(-3.0354e-05 -3.64148e-05 6.65299e-23)
(0.0293032 0.00739337 -8.26593e-22)
(0.000200366 0.00019112 0)
(7.32329e-05 6.38803e-05 3.11574e-23)
(1.25798e-05 3.09999e-07 3.11661e-23)
(-9.4342e-05 0.000586057 1.66986e-23)
(0.00124664 -0.000474639 -5.22542e-22)
(0.00177923 -0.0056643 -7.22232e-22)
(1.44905e-05 -4.61944e-05 2.96963e-22)
(0.00470009 0.0020294 -4.64683e-22)
(0.00753749 0.0063633 -5.15973e-22)
(0.00155869 -0.000362906 -4.27315e-22)
(0.00705883 0.00330645 0)
(-3.32787e-05 -3.20417e-05 2.42616e-22)
(2.78304e-06 -1.81028e-05 0)
(-0.00103572 -0.000113142 8.89038e-22)
(-1.45206e-05 -1.05845e-05 3.87464e-24)
(-9.87239e-05 -6.9204e-05 -9.45698e-22)
(0.00979744 0.00529519 -4.10101e-22)
(1.25104e-05 -1.42947e-05 2.9345e-22)
(0.00908126 0.00335747 4.51261e-22)
(-6.0285e-05 -4.28453e-05 -6.94961e-22)
(0.00735522 0.0192802 4.98731e-22)
(0.00644471 -0.043082 4.8806e-22)
(4.16161e-05 -3.03084e-06 -4.16957e-22)
(1.70445e-05 1.88305e-06 -2.91905e-22)
(8.09551e-06 -1.2983e-06 4.93017e-23)
(0.0103614 -0.0375599 -4.77505e-21)
(0.00181706 -0.000258384 4.40926e-22)
(0.00429008 -0.00839539 5.35508e-21)
(-1.48733e-05 -6.12396e-05 5.42857e-23)
(2.23417e-05 -3.32948e-08 -1.34769e-22)
(0.000255904 0.00020539 8.68504e-22)
(1.75806e-05 -7.4966e-07 -1.40426e-22)
(2.16318e-05 -9.594e-07 0)
(1.79458e-05 -6.13866e-07 -1.66026e-22)
(1.54123e-06 -9.45999e-08 2.72442e-22)
(-0.00494013 0.011866 -6.61941e-23)
(0.0207476 0.0070731 -2.05049e-21)
(1.9702e-05 -1.04282e-06 0)
(0.00124133 -0.000667114 6.57496e-22)
(-0.0281615 -0.0199807 0)
(-9.45268e-05 0.000116047 4.4014e-23)
(1.77772e-05 -4.52317e-08 2.31992e-23)
(0.00374078 0.0223305 0)
(-0.00059689 -0.00126371 1.69038e-22)
(3.2772e-06 -9.1923e-08 2.38458e-22)
(9.95551e-06 -1.54434e-06 9.64627e-23)
(9.62043e-06 -5.37566e-07 -1.32595e-22)
(-0.0181355 -0.0478881 -6.56688e-22)
(3.0707e-06 -1.05082e-05 0)
(-0.0202414 -0.00634521 1.50144e-21)
(-0.000622948 -0.000830359 2.3631e-22)
(9.76531e-07 -4.4829e-06 2.69783e-22)
(-0.000133712 0.000191828 0)
(0.00205779 0.0261942 0)
(-5.02273e-06 -1.06945e-05 1.43452e-23)
(0.00139316 -0.000380136 0)
(0.000539259 0.0632243 2.92045e-21)
(0.00152942 -0.00220064 -4.79557e-24)
(-0.000914394 0.00207808 -4.41554e-22)
(9.59708e-06 -5.96841e-06 -3.71412e-23)
(-0.000929756 -9.38147e-05 7.98732e-23)
(0.00731472 0.00328344 -3.50001e-23)
(1.74917e-05 -3.68321e-09 -1.36661e-22)
(-0.00122757 -4.52289e-05 -1.18293e-22)
(1.11206e-05 8.52155e-06 0)
(0.000575448 0.00104272 1.07742e-22)
(-0.0224348 0.00311983 3.44643e-22)
(0.00634044 0.0019307 3.06157e-22)
(1.59593e-05 1.57399e-06 2.36791e-22)
(-0.000554214 -0.00450734 -4.45828e-22)
(8.28544e-06 1.16464e-05 -1.16971e-22)
(-0.0378155 -0.00175964 0)
(3.21315e-06 -7.66368e-08 1.57463e-22)
(4.13393e-05 0.000488769 -6.85637e-22)
(-0.00111038 -2.92486e-05 0)
(-0.0193149 0.00563046 0)
(-0.000693321 -0.00540682 3.59395e-21)
(0.0351719 0.0390287 4.48052e-22)
(1.29928e-05 5.0709e-06 5.64992e-23)
(0.005108 0.0280572 9.03544e-22)
(0.000268496 6.41514e-05 0)
(0.000691358 -0.00333316 -4.64179e-22)
(8.86978e-06 -5.89789e-06 -2.34548e-22)
(-0.00130093 -0.00202436 8.31321e-22)
(-1.21271e-05 -9.65198e-06 0)
(-1.11466e-05 -2.00383e-05 -5.94077e-23)
(-8.00108e-06 -7.1293e-05 -4.90778e-22)
(-3.20466e-05 0.00264812 1.63608e-22)
(-9.02546e-06 -5.68078e-05 -1.51564e-22)
(1.19646e-06 -1.1061e-07 2.33491e-22)
(1.92706e-05 -4.13629e-07 -2.62552e-22)
(-8.62809e-05 0.000298516 0)
(1.90343e-05 1.85355e-06 -1.30324e-22)
(9.65791e-05 -9.50791e-05 0)
(0.00098768 0.000605119 -3.21133e-23)
(1.293e-05 4.52142e-06 -1.62411e-22)
(1.16148e-05 6.58433e-06 0)
(-0.0276099 -0.0458478 -1.0894e-21)
(2.00171e-05 8.40705e-07 1.45105e-22)
(0.0192754 0.0274223 1.34102e-21)
(1.28704e-05 2.68264e-07 0)
(-5.63902e-05 -8.67593e-05 1.40952e-22)
(2.82343e-05 -1.27676e-05 0)
(0.00174079 0.00577932 1.23503e-21)
(1.26226e-05 3.86858e-06 -9.40664e-23)
(0.00618365 -0.0364469 0)
(-0.00357693 -0.00114439 8.32092e-22)
(-0.00614212 -0.0407011 -1.07449e-21)
(-0.00907283 -0.0114186 0)
(7.74334e-07 -4.71328e-06 0)
(2.40798e-06 1.04826e-06 -3.45688e-24)
(1.31213e-05 -9.32362e-07 0)
(-7.78118e-05 0.000259614 4.68824e-24)
(1.34959e-05 4.00599e-06 -5.97743e-22)
(9.14113e-06 -5.9268e-06 -1.57189e-23)
(2.97228e-06 3.27455e-07 0)
(0.00888993 0.00553516 -3.77287e-22)
(-1.80172e-05 -4.55579e-05 0)
(0.00635285 -0.0054073 2.23212e-22)
(0.0423348 -0.0198364 -1.11112e-21)
(-0.0053349 6.92647e-05 0)
(1.31579e-05 4.17381e-06 8.51216e-23)
(1.28652e-05 -9.71988e-07 1.35201e-22)
(0.0083826 0.00568117 2.76388e-23)
(0.0469316 0.0499996 4.18536e-21)
(0.0482636 0.00528173 0)
(0.00856157 0.0304584 2.64517e-21)
(0.00275719 -0.0218869 2.24832e-21)
(-0.00132666 -0.0103116 0)
(0.0205852 0.0428761 -9.8444e-21)
(0.000390818 -0.000801494 0)
(0.00686256 -0.00455514 0)
(9.51242e-06 -3.35249e-06 4.96046e-23)
(6.55273e-06 -1.29569e-07 0)
(1.98331e-05 -6.37201e-06 -5.81681e-23)
(6.99041e-05 0.0170573 1.06896e-22)
(-0.000121751 0.000121636 0)
(-1.01188e-05 -1.05587e-05 4.47035e-22)
(-0.000920331 0.000161749 5.2237e-24)
(2.04876e-05 0.000796269 -3.22413e-23)
(0.00329364 -0.0423979 4.82429e-21)
(8.74175e-05 6.71045e-05 2.40883e-24)
(-0.0184 -0.0150151 2.9409e-22)
(-0.00131323 0.00129844 1.79068e-22)
(-0.00828232 -0.0434294 1.04125e-21)
(0.00147055 0.0021821 -5.11489e-22)
(-0.00370306 -0.000918398 6.25622e-22)
(-0.02536 0.0377727 1.78098e-22)
(0.000931582 0.000693158 2.37864e-23)
(9.71531e-06 -2.82177e-06 -1.8455e-22)
(0.000152187 0.000218702 5.253e-22)
(0.0014021 0.00313035 0)
(0.00270813 -0.0027118 5.88954e-22)
(0.00847105 0.00516865 0)
(1.62159e-05 1.23568e-07 1.28564e-22)
(3.11115e-05 -4.89011e-06 -2.97525e-23)
(-0.0546041 -0.045806 1.38997e-21)
(-0.000529718 -0.000952892 8.69587e-23)
(-0.0141216 -0.00590672 3.58884e-21)
(7.13149e-06 1.19782e-06 9.32023e-23)
(-0.0115011 -0.0118338 0)
(-1.54583e-05 -7.03787e-05 -5.59284e-22)
(0.0195726 0.0431572 0)
(-5.62056e-06 -9.62011e-06 -7.91697e-22)
(1.79434e-05 7.29327e-08 -3.19439e-22)
(7.97464e-06 2.99297e-05 0)
(1.39914e-06 -3.15041e-05 0)
(-2.75255e-05 -0.00020325 0)
(9.14133e-06 -5.19163e-06 7.18507e-23)
(-5.323e-06 -8.97912e-06 7.47747e-22)
(0.00100388 -0.00422926 1.15526e-21)
(0.00245854 -0.00278475 0)
(1.78225e-05 1.48608e-07 0)
(-0.000580315 -0.00556039 -2.55299e-21)
(-0.00024257 0.000737359 -7.71233e-22)
(-0.00181684 -0.00462616 4.31193e-22)
(0.00155798 0.00205475 2.91046e-22)
(-0.0160479 -0.126522 1.11082e-22)
(9.91786e-06 3.41914e-05 0)
(0.00374839 0.00143225 3.13172e-22)
(0.00551711 0.0281675 0)
(1.74295e-05 1.73778e-05 -2.91723e-22)
(-0.00782329 -0.0346946 8.26664e-23)
(3.07721e-06 -6.87856e-07 3.04836e-22)
(-0.000256547 0.000122086 0)
(0.000406732 4.34339e-06 1.97784e-22)
(1.71332e-05 3.44212e-07 3.80664e-22)
(0.0112443 0.0146752 2.2574e-21)
(1.95979e-06 -9.62189e-07 0)
(-2.76794e-05 -2.15445e-05 -1.29685e-23)
(-0.000768686 0.0157014 6.37199e-22)
(2.93676e-06 -6.77148e-07 -1.75778e-24)
(-0.000186496 0.000144276 -3.88633e-22)
(8.78739e-06 -5.27327e-06 -7.16472e-23)
(-0.00800487 0.0240242 1.77788e-21)
(2.23105e-05 -4.32978e-07 0)
(8.48025e-05 -0.000110052 -2.38436e-22)
(0.00193554 0.00165397 3.6581e-23)
(1.94658e-06 -1.14749e-05 0)
(-0.000157625 5.17528e-05 -4.5906e-22)
(-7.34998e-05 -1.3466e-05 0)
(-3.23001e-05 -3.908e-05 -2.9119e-22)
(1.63426e-05 -2.96991e-05 -1.75445e-22)
(-0.0236997 0.0300042 4.04949e-22)
(-0.000120732 -0.000119189 4.54725e-22)
(7.16473e-06 1.06714e-05 0)
(0.000177269 3.78171e-06 0)
(3.1865e-05 -1.24179e-06 1.10632e-22)
(-6.4606e-07 -5.04509e-06 -9.11946e-23)
(0.00220123 -0.00446529 1.54268e-22)
(-0.000779945 -0.000137984 0)
(0.00109298 -0.00218457 -7.5254e-22)
(-5.57665e-07 -1.10364e-05 -8.81846e-24)
(3.38312e-06 -3.16381e-07 2.86811e-22)
(-0.0133461 0.0368465 -9.77723e-22)
(9.90262e-06 -3.16194e-07 -2.40688e-22)
(-0.000541539 -0.00459271 -4.5278e-22)
(-0.00173827 0.000306784 0)
(6.65543e-06 1.2143e-05 -1.79406e-23)
(1.35795e-05 -4.61921e-05 2.03899e-22)
(0.00643909 0.00679685 5.59622e-22)