/*--------------------------------*- C++ -*----------------------------------*\
| =========                 |                                                 |
| \\      /  F ield         | OpenFOAM: The Open Source CFD Toolbox           |
|  \\    /   O peration     | Version:  v2012                                 |
|   \\  /    A nd           | Website:  www.openfoam.com                      |
|    \\/     M anipulation  |                                                 |
\*---------------------------------------------------------------------------*/
FoamFile
{
    version     2.0;
    format      ascii;
    class       volVectorField;
    location    "200";
    object      U_0;
}
// * * * * * * * * * * * * * * * * * * * * * * * * * * * * * * * * * * * * * //

dimensions      [0 1 -1 0 0 0 0];


internalField   nonuniform List<vector> 
18618
(
(1.00033 0.0216011 3.84173e-22)
(0.114487 -0.00615384 5.10818e-21)
(1.00321 -0.000108469 0)
(0.701116 0.157224 -5.21726e-22)
(1.01179 0.00481063 1.74646e-21)
(1.00419 -0.0147618 -4.93702e-22)
(1.08983 0.0087726 2.23954e-20)
(0.146606 -0.0172303 -1.53014e-20)
(1.01619 0.0018242 1.56081e-22)
(1.02734 -0.000228526 2.42573e-21)
(1.06866 0.0146535 -6.71456e-22)
(1.00321 -9.94946e-05 2.17357e-23)
(0.683228 0.155467 0)
(1.0105 -0.000580256 -8.96927e-23)
(1.01162 0.00468137 -1.4312e-21)
(1.00337 7.66618e-05 2.23582e-22)
(1.01024 0.0033488 0)
(0.02256 0.04316 1.40875e-20)
(1.00917 0.00295661 0)
(1.01434 0.00793324 3.54445e-23)
(1.00407 -0.0100635 2.79439e-23)
(1.00727 -0.000471768 4.26254e-23)
(1.00333 7.4235e-05 -2.21453e-22)
(1.07228 0.0531347 -5.45909e-21)
(1.02004 0.00118399 5.3996e-21)
(1.0255 0.0417315 -6.23765e-22)
(0.99747 0.0173408 -1.02054e-21)
(1.00977 0.00332854 -1.49321e-22)
(1.00364 4.67006e-05 5.66158e-23)
(1.00848 0.00198774 1.01794e-22)
(1.02072 0.00162386 0)
(1.04602 0.0298734 0)
(1.03253 0.0044872 0)
(1.05957 0.0606567 0)
(0.869969 0.0933324 0)
(1.01753 0.00957845 3.97347e-22)
(1.02566 0.00992088 -4.68911e-21)
(1.03837 -0.0311655 0)
(1.02041 0.0166717 -1.52024e-21)
(1.00837 0.00193066 -1.04324e-22)
(0.965302 0.0513932 -4.38559e-22)
(1.0001 0.0140466 5.47944e-22)
(1.00623 0.000308042 1.9755e-22)
(0.306427 -0.0582092 -1.23006e-21)
(1.01691 0.0020441 -1.48917e-22)
(1.05404 0.00150577 -1.05052e-20)
(0.21631 -0.0274706 1.09798e-20)
(1.00443 2.91459e-05 0)
(0.99259 -0.0129523 0)
(0.634911 0.0598302 1.40284e-20)
(1.00989 0.00338111 -1.24582e-21)
(1.01638 0.008461 -1.06356e-21)
(0.857364 0.135395 -1.01211e-21)
(0.971958 0.0422383 -2.98282e-21)
(1.00412 0.000139321 1.35533e-22)
(0.456681 0.108582 0)
(1.01081 -0.000826565 9.18444e-23)
(1.01421 0.00733939 -4.90164e-23)
(1.05828 0.0604673 0)
(1.01993 0.0155783 0)
(1.00856 0.0017896 -4.27569e-23)
(1.00556 0.000345039 1.99619e-22)
(1.01461 0.00812029 0)
(1.02721 0.00507223 0)
(1.06575 0.0655485 -9.80779e-21)
(0.882108 0.0664421 -8.3912e-21)
(1.00274 -5.34696e-05 -6.70089e-23)
(1.0798 0.01961 -5.401e-21)
(1.00387 0.000327856 -3.14964e-24)
(0.857643 -0.0152319 4.8709e-22)
(1.06821 0.0137695 8.65584e-21)
(1.00073 -0.00127095 -9.28817e-23)
(1.09202 0.0400502 7.89795e-21)
(0.0956806 0.0152032 2.96963e-20)
(1.02693 0.000714896 4.14546e-21)
(1.08107 0.0148112 1.10768e-20)
(1.01046 0.0473749 -1.88532e-22)
(0.612202 0.0615105 -6.14808e-21)
(1.00369 0.000315573 0)
(0.0506411 0.0724672 -1.33745e-20)
(0.286137 0.0543201 -4.73914e-22)
(-0.0359388 0.0401238 2.82028e-20)
(0.0753357 0.0103433 0)
(1.02838 -6.14389e-05 -3.83672e-21)
(1.0323 0.00473215 0)
(1.00621 0.00029741 -9.74151e-23)
(1.07201 0.0569118 3.42696e-22)
(1.02732 -0.000295148 3.24275e-21)
(1.02981 0.0284561 -2.67751e-21)
(0.00386003 0.0422625 0)
(1.09377 0.0395949 -2.94438e-20)
(1.01245 -0.0110112 0)
(0.297022 -0.0636618 -5.85662e-22)
(1.01085 0.05048 1.22323e-21)
(1.00299 0.0446542 -7.21723e-22)
(1.08228 0.014045 -1.41603e-20)
(1.02675 0.0111105 0)
(0.932082 -0.0665862 1.71101e-22)
(1.01045 -0.000421609 9.83654e-23)
(1.00336 -8.72809e-05 -9.1287e-23)
(0.9984 0.0379401 7.09751e-22)
(1.02694 0.00480792 -4.62214e-21)
(1.00862 0.0287743 0)
(1.0467 0.0307411 -2.0092e-21)
(1.01638 6.61586e-05 -3.55959e-23)
(0.450644 0.100207 1.57161e-20)
(1.00453 0.000175083 -2.02425e-22)
(1.0031 8.60662e-05 -3.43065e-23)
(1.06462 0.0652596 0)
(1.00372 -1.87765e-05 -6.12861e-23)
(0.875393 -0.0263821 -1.22344e-21)
(1.00965 0.00249124 0)
(1.0453 0.0040403 -8.82599e-21)
(1.00852 0.0024028 0)
(1.01596 0.00764652 8.5828e-22)
(1.00344 -7.91912e-05 8.6879e-23)
(1.00218 -1.52055e-05 7.2998e-23)
(0.886459 0.104191 0)
(1.01973 0.0053531 -2.96923e-21)
(1.10173 0.067133 -3.2179e-20)
(0.94561 -0.0624108 -5.04718e-22)
(1.04468 0.0043972 0)
(0.470821 0.106769 -7.06544e-23)
(-0.0239081 0.0404017 -3.89669e-20)
(0.998922 0.0256745 4.79495e-22)
(1.0314 -0.0139056 7.59329e-22)
(0.950064 0.0313907 -2.61221e-21)
(0.100114 0.0285545 2.69492e-21)
(1.06959 0.0193786 -1.7219e-20)
(1.12943 0.0332813 1.09009e-20)
(1.11902 0.0476611 2.9649e-20)
(1.00951 0.00230296 0)
(-0.0593365 0.0354522 6.98573e-20)
(0.992815 0.00186365 2.57971e-21)
(1.01581 0.00744546 -2.85386e-21)
(1.00799 0.00161106 3.00819e-23)
(1.00994 0.000602132 1.97131e-21)
(1.03005 -0.000574321 -6.48877e-21)
(0.0426955 0.0232878 -3.44259e-20)
(1.00149 -4.81597e-05 0)
(1.0239 0.000858459 0)
(1.00121 3.26835e-06 0)
(1.00553 0.000363553 2.1215e-22)
(1.02639 0.0107024 -4.70928e-21)
(1.00544 0.000246569 1.1841e-22)
(1.0274 0.0421865 0)
(1.02553 0.0102147 0)
(1.00977 0.00330032 1.33348e-22)
(0.49475 0.0996066 -1.34432e-20)
(1.08739 0.0152577 0)
(1.01092 -0.000947371 -9.17305e-23)
(0.877501 0.102899 -2.37646e-20)
(0.0482412 0.0252286 3.52143e-20)
(1.00325 8.93392e-05 -1.12241e-22)
(1.00563 0.000901157 -3.61907e-22)
(0.979851 0.0117899 1.83903e-22)
(0.736501 0.106892 1.30155e-20)
(1.03087 0.0714195 -2.99287e-21)
(1.06593 0.056512 5.90066e-22)
(1.00494 -0.0001025 0)
(1.00365 -6.68038e-05 0)
(0.854049 -0.106823 -2.60147e-21)
(1.02967 -0.000510304 0)
(1.00884 0.0163742 -1.14428e-21)
(1.00471 0.000544123 2.62357e-23)
(0.988711 -0.0484916 -7.21123e-22)
(1.00569 0.000862761 1.86287e-22)
(1.00135 -3.00105e-05 1.00957e-22)
(0.286293 0.0521314 2.41727e-20)
(1.04471 0.00303354 0)
(1.02701 0.000701691 0)
(1.00432 -0.000126456 0)
(1.11916 0.0497814 -3.02527e-20)
(1.11116 0.0324272 1.94436e-20)
(1.04852 0.0759087 0)
(1.08054 0.0172618 -1.09183e-20)
(0.997844 -0.000983694 0)
(0.0805499 0.0253414 -2.9151e-20)
(1.00414 -0.000120811 0)
(1.0041 0.000362411 -1.41875e-24)
(1.10308 0.0251272 7.80559e-23)
(1.11164 0.03423 0)
(1.01735 0.00942586 -2.1506e-21)
(1.01668 0.0086682 -4.5181e-23)
(0.940067 0.0414746 1.80885e-21)
(1.00461 0.000239434 3.55261e-23)
(1.01434 0.00674072 -1.97138e-22)
(1.10072 0.024666 5.00516e-21)
(0.99791 0.00213179 0)
(1.00072 -0.015963 0)
(1.02544 0.0154679 -1.82734e-21)
(1.1122 0.02919 1.61797e-20)
(0.999666 0.0709689 2.57949e-21)
(1.00145 -1.91358e-05 1.20999e-22)
(1.06302 0.0661962 -2.096e-21)
(1.0098 -0.00384837 2.03381e-22)
(1.10357 0.026876 -5.58446e-21)
(0.817422 0.0311685 5.24125e-21)
(1.02804 -4.70002e-05 0)
(0.427615 0.0866647 3.20003e-20)
(1.01853 -0.0288178 0)
(0.387744 -0.0736953 2.43699e-21)
(1.01998 0.016294 -9.08953e-23)
(1.06061 0.0124629 0)
(0.247546 0.0463913 2.43953e-20)
(-0.0670984 0.00259261 2.53568e-20)
(-0.00746859 0.0615118 -1.41699e-20)
(0.924991 0.103873 2.21276e-20)
(1.05059 0.00644121 0)
(0.466584 0.108478 -1.07532e-21)
(0.989962 -0.00081541 0)
(1.00488 0.000186618 2.99321e-22)
(0.775628 0.104773 1.83832e-20)
(0.902315 0.107407 9.93073e-21)
(1.01653 0.00857003 0)
(1.0171 0.0091133 -1.65482e-21)
(1.00944 -0.00614041 -4.59014e-22)
(0.247644 0.0468383 0)
(1.04531 0.00335736 -1.00989e-22)
(0.708139 0.103184 1.44689e-20)
(1.0291 0.016297 0)
(1.04733 0.0169788 4.0669e-21)
(1.00474 0.000247174 -2.93908e-23)
(1.15105 0.0685395 1.29248e-20)
(1.03931 0.037331 -4.90128e-21)
(1.04433 0.0380875 1.10047e-20)
(1.02881 0.0158234 0)
(1.00469 0.000531185 -2.22498e-24)
(0.86551 0.0212797 -4.62711e-22)
(1.06791 0.0552595 -1.01368e-20)
(0.470513 0.101188 0)
(1.01197 0.0140064 3.51147e-22)
(1.02313 0.000697714 0)
(1.08103 0.0189214 5.92911e-21)
(1.02076 0.00177741 0)
(1.1272 0.0322419 2.16755e-20)
(1.01965 0.0151971 -8.14575e-22)
(1.01279 -0.00305338 -1.45253e-22)
(1.01694 0.00898405 -1.37668e-21)
(1.01388 0.0339908 1.35163e-22)
(1.10577 0.0172235 -2.54305e-20)
(1.04582 0.0280123 5.5248e-21)
(1.03761 -0.00175077 0)
(1.02971 0.0276207 0)
(0.990732 0.0333032 -6.05302e-22)
(1.01652 0.00850894 1.10174e-21)
(1.07151 0.0542268 5.0844e-21)
(-0.0865803 0.0128691 1.47683e-20)
(1.0039 0.000156405 0)
(1.06858 0.0189807 2.76384e-20)
(0.847053 0.135832 8.734e-22)
(1.004 -0.0104613 -1.4172e-22)
(1.05984 0.0129544 0)
(0.250633 -0.0593753 0)
(1.05056 0.00781479 1.59448e-20)
(1.00368 6.45708e-05 0)
(1.05082 0.00914889 6.29358e-21)
(1.06549 0.0577311 0)
(1.01021 0.00323957 1.75998e-23)
(1.08213 0.050412 4.60191e-22)
(1.14934 0.0698228 -2.29863e-20)
(1.05106 0.00830286 -1.79513e-20)
(1.0103 0.0261694 0)
(0.372792 0.0619374 0)
(1.00239 -0.00772736 -1.92923e-22)
(1.03867 0.0135999 0)
(1.10171 0.0131442 -1.13022e-20)
(0.997022 -0.0122174 0)
(1.05004 0.00947267 -7.93519e-21)
(1.06624 0.0122662 0)
(1.08171 0.0165609 0)
(1.00473 -0.000114228 1.30394e-24)
(1.00858 0.00192557 0)
(1.0099 0.00341804 1.43953e-22)
(1.00456 1.69e-06 0)
(0.785984 -0.0178152 3.26413e-21)
(1.01259 0.00456044 -1.83647e-22)
(1.00459 1.73659e-05 9.0737e-23)
(0.217231 0.0420922 -1.26318e-20)
(1.00847 0.00187244 7.50826e-23)
(1.04646 0.0170456 3.58963e-21)
(1.00456 -0.000108608 7.88767e-23)
(0.263344 -0.0492572 1.55337e-23)
(-0.0872706 0.012213 0)
(1.04334 0.0374047 -1.32584e-20)
(0.868987 -0.121793 1.07031e-21)
(1.0126 0.00278393 -2.15273e-22)
(1.02828 0.0402374 0)
(1.00698 -0.000461239 2.08619e-23)
(1.026 0.0637831 0)
(1.00823 0.00166358 -6.53815e-23)
(1.02061 0.0172115 2.0836e-21)
(1.02081 0.00126809 0)
(1.01234 0.00263057 4.3417e-22)
(0.729128 0.107204 -1.57403e-21)
(1.0036 5.45956e-05 6.22459e-23)
(1.01012 0.00327091 3.57506e-22)
(1.04466 0.00549089 -6.58909e-21)
(0.79058 0.0117053 -7.77232e-22)
(0.937667 0.103672 -6.73941e-22)
(0.84934 -0.0292369 -5.45668e-23)
(0.712462 -0.0692006 1.16422e-21)
(0.357007 0.055825 0)
(1.10709 0.0419343 -3.30498e-22)
(1.06745 0.0565428 9.48101e-21)
(0.416889 0.0853251 -2.48495e-20)
(0.875364 -0.124052 3.05421e-21)
(1.01628 0.0082533 3.10071e-23)
(1.04513 0.00517315 6.86601e-21)
(1.11292 0.0309105 -8.54978e-21)
(1.01499 0.00679261 0)
(1.02506 4.83613e-05 -4.74889e-21)
(1.04576 0.0178818 3.88882e-21)
(1.00866 0.00185373 -7.83038e-23)
(1.0868 0.0136365 -1.56723e-20)
(0.87164 -0.130388 -2.33009e-21)
(0.458405 0.107367 2.26683e-21)
(1.00646 -0.00950868 4.70837e-22)
(1.03802 0.0130982 -8.5629e-21)
(1.00877 0.000408717 0)
(1.01711 -1.6742e-05 0)
(1.06423 0.0662975 2.22361e-21)
(1.10031 0.0225233 1.08129e-20)
(0.88043 -0.121462 -6.5166e-23)
(1.03933 0.0128463 -4.96205e-21)
(1.00857 -0.0039961 -3.86304e-22)
(0.825344 0.0624661 0)
(1.00473 -9.17329e-06 0)
(1.10521 0.0423606 -1.27162e-20)
(1.01114 0.00167086 0)
(1.00056 -1.34509e-05 -8.9382e-23)
(1.00843 0.00235262 0)
(1.11305 0.0258202 0)
(1.01486 0.00662142 0)
(1.01729 0.0029505 -1.71388e-22)
(1.03996 0.0127643 -3.58823e-21)
(1.01864 0.009523 0)
(1.013 -0.00263586 3.00152e-22)
(-0.0298903 0.0451498 -1.63929e-20)
(-0.0526313 0.0461828 3.43518e-20)
(1.00818 0.0014599 -3.39757e-23)
(0.186199 0.0374872 1.21817e-20)
(1.01664 0.0025035 0)
(1.00344 -0.000143075 0)
(1.00424 0.000371138 0)
(1.02576 0.000136055 3.07782e-21)
(1.01252 -0.00615764 8.61112e-23)
(1.00347 0.000171938 0)
(0.845523 -0.114446 -1.90177e-21)
(1.05112 0.0070106 0)
(0.872908 -0.0789599 2.40428e-21)
(1.06392 0.0576006 7.45322e-21)
(1.04645 0.0178501 0)
(1.02731 0.0001979 4.57171e-21)
(1.05317 0.0770583 -5.7504e-21)
(1.11549 0.0701152 3.68264e-20)
(1.00352 6.72326e-05 -7.26099e-23)
(1.14161 0.0887865 1.02354e-20)
(1.00476 -9.92047e-05 0)
(1.06906 0.0501929 4.36183e-21)
(0.8828 -0.113879 -9.07585e-22)
(0.0536626 0.0366655 -5.31323e-21)
(1.14265 0.0757088 -2.03605e-20)
(1.01388 -0.0067961 -5.23992e-22)
(0.0689276 0.0394581 0)
(0.814861 0.107618 5.28746e-21)
(1.01087 0.00155685 0)
(1.06674 0.0134494 -7.26709e-21)
(1.01079 -0.0099829 -1.89297e-22)
(1.00544 0.000236842 1.34431e-22)
(1.00918 0.000678885 2.57121e-21)
(1.02961 -0.000259034 5.44932e-21)
(0.840648 -0.099074 -3.31227e-22)
(0.865747 -0.0697576 -4.67189e-21)
(1.00753 -0.000511269 -3.17357e-23)
(1.01639 0.00831501 6.7834e-22)
(0.87607 -0.104622 -7.4367e-22)
(1.01031 0.0036797 1.55611e-22)
(0.992367 -0.00871109 -6.10057e-22)
(1.02683 -0.0278421 0)
(1.03011 0.0270551 0)
(1.04653 0.0287699 0)
(0.405927 0.0685052 4.62992e-20)
(0.833113 0.118144 1.84306e-21)
(1.00904 0.00288929 5.90743e-22)
(1.0444 0.00773354 -3.41263e-23)
(1.00556 0.000683327 -3.20363e-23)
(1.13741 0.0874729 9.99416e-21)
(1.00344 -6.13201e-05 0)
(1.02737 0.000219204 4.77415e-21)
(1.00556 -6.79747e-05 -5.54991e-23)
(1.00056 -0.00340844 1.62651e-21)
(1.05332 0.000842359 1.04504e-20)
(1.00547 -4.36511e-05 5.47723e-23)
(0.217386 0.0420007 -4.14544e-20)
(0.936516 0.153043 1.9968e-21)
(1.10266 0.0653847 3.85176e-20)
(0.0268377 0.068376 -8.85255e-21)
(1.00449 0.000486391 -3.76148e-24)
(1.03092 0.021537 0)
(1.04351 0.00745441 0)
(0.947791 0.0515509 -1.3339e-21)
(0.995969 -0.0108996 -7.15733e-22)
(1.00707 0.100062 0)
(1.00538 0.000647521 -4.78558e-24)
(0.437938 0.0709418 -2.31279e-20)
(1.02823 0.015617 0)
(1.07056 0.030873 0)
(1.00346 9.49964e-05 0)
(1.03873 0.0476064 3.68277e-21)
(1.01547 0.00722466 3.33567e-21)
(0.391088 0.0698988 1.81449e-20)
(0.392141 -0.00195168 7.97478e-22)
(1.04623 -0.00908315 1.28003e-22)
(1.01396 0.00530994 -1.19431e-22)
(1.14465 0.0771852 1.84406e-22)
(1.00834 0.00238459 0)
(1.06203 0.0301467 -1.97172e-20)
(1.0322 -0.00110225 -6.43541e-21)
(0.964894 0.0457733 4.46566e-22)
(1.02927 -0.000178799 -2.61478e-21)
(1.04836 0.0115959 -3.94088e-21)
(1.01294 0.00516523 1.52687e-22)
(0.85954 0.0162169 0)
(0.800441 0.0450054 -5.57595e-21)
(1.00356 -1.79708e-05 2.93431e-23)
(1.03048 0.0213968 0)
(1.03495 -0.0110727 -2.07484e-22)
(1.00474 0.00024534 0)
(1.06521 0.0161443 6.33139e-21)
(1.0087 0.00170751 0)
(1.00998 0.00347984 6.9114e-22)
(1.02793 0.0151597 0)
(1.0088 -0.00979485 -2.22347e-22)
(1.03978 0.0467024 -5.69588e-21)
(1.03268 -0.0012312 7.28154e-21)
(1.12109 0.0463479 5.26653e-21)
(1.01531 0.00702595 -1.68268e-21)
(0.554319 0.102816 -1.17529e-20)
(1.0155 0.000848759 -2.06032e-21)
(1.02812 -0.0341684 0)
(0.373866 -0.00583709 -1.52139e-21)
(1.01357 0.0028975 0)
(1.01304 0.00263148 0)
(0.128159 0.0309398 0)
(1.06085 0.0301726 6.19743e-21)
(0.721443 -0.0590803 1.75978e-21)
(0.721367 0.105708 1.36434e-20)
(1.03674 0.0127415 -4.55691e-21)
(1.06265 0.0405486 1.6022e-20)
(1.01538 0.000849441 -2.83357e-21)
(0.26358 0.0908034 -1.05097e-20)
(0.593264 0.110348 3.40203e-21)
(1.04704 0.0131842 -7.45889e-21)
(1.11339 0.0704562 -1.1347e-20)
(-0.0294005 0.0494473 2.2088e-22)
(1.02013 0.00135139 -4.01183e-21)
(0.87523 -0.123809 2.58366e-21)
(1.00331 -5.77917e-05 0)
(-0.049199 0.0365115 -1.73249e-20)
(0.627004 0.117303 -3.01246e-21)
(1.06012 0.011268 0)
(0.152001 0.0209568 1.35569e-20)
(1.00734 0.00120775 -2.88723e-25)
(1.17334 0.0838883 -4.0783e-20)
(1.1036 0.0452725 -1.28416e-20)
(0.846048 0.105986 -1.68771e-20)
(1.05196 0.00306847 2.49289e-21)
(0.867214 -0.0993232 1.65358e-22)
(1.01617 0.00815906 7.13972e-22)
(1.0049 0.00010546 -2.34757e-22)
(1.0094 0.00308773 0)
(1.0397 -0.023985 -5.90272e-22)
(1.08952 0.0472926 -2.58241e-20)
(1.02027 0.00149806 -3.33338e-21)
(1.00426 0.000427559 0)
(1.00448 0.000473475 3.6962e-23)
(0.138787 0.0109506 -1.48545e-20)
(0.659864 0.104286 -3.10585e-20)
(1.01424 0.00636123 2.14831e-22)
(0.0414553 0.0473112 2.09914e-20)
(1.17239 0.0823481 0)
(1.06105 0.0108127 3.2529e-21)
(1.01898 0.00471108 -3.32177e-21)
(1.00266 -2.24336e-05 4.98643e-23)
(0.875602 -0.123747 -2.32494e-21)
(1.02529 0.00955298 -2.32237e-21)
(1.09043 0.0104952 -1.47293e-20)
(1.00081 0.00184276 1.23185e-23)
(0.516667 0.110886 -8.19481e-23)
(1.12449 0.082338 0)
(1.00487 8.77565e-05 0)
(1.00996 -0.00230923 3.30459e-22)
(1.05749 0.0427861 8.28538e-21)
(0.943068 0.0620322 0)
(1.00082 -2.05787e-05 -3.94688e-23)
(-0.0631505 0.00335791 -2.96369e-20)
(1.01847 0.00434959 3.31032e-21)
(1.01003 -0.000583695 -8.23716e-23)
(1.01838 0.0194699 -1.1129e-21)
(0.489269 0.101093 -1.08465e-21)
(1.01133 0.000464702 9.79231e-23)
(1.00294 -0.0402077 2.47208e-21)
(1.0289 0.00578386 0)
(1.0289 8.50401e-05 2.88431e-21)
(1.03926 0.0358987 5.13521e-21)
(1.00478 0.0002415 -1.18185e-22)
(1.00779 0.000195715 -1.7143e-21)
(1.00397 0.000114312 0)
(0.866484 -0.124089 -1.88794e-21)
(0.884914 -0.0296741 4.70311e-22)
(1.12188 0.0824864 0)
(1.01108 -0.00727203 0)
(1.0393 0.0115036 -1.09259e-20)
(1.00424 0.000417298 -1.43341e-24)
(1.01367 0.00651043 -1.39731e-22)
(0.699116 0.114366 0)
(1.02609 2.8487e-05 -4.0033e-21)
(0.924259 -0.080102 0)
(1.01101 0.00335243 0)
(0.929858 0.0688553 3.05638e-21)
(1.01893 0.00995253 -1.39139e-21)
(1.00192 7.95004e-05 -8.59593e-24)
(1.06336 0.0587128 0)
(-0.0127696 0.0616595 0)
(1.02993 0.0404265 0)
(1.00344 0.000189386 0)
(1.01788 0.01859 -5.14401e-22)
(0.956518 -0.0247486 -5.17564e-22)
(0.915952 -0.097765 0)
(1.00849 0.00243248 3.10733e-22)
(1.1241 0.0373627 0)
(1.03114 0.0115969 -1.03225e-20)
(1.01048 -0.000852699 -2.58212e-23)
(1.01916 0.004976 3.5125e-21)
(0.0721562 0.074368 0)
(1.07836 0.0684632 8.00522e-21)
(1.00916 0.000607974 -1.4086e-21)
(0.15973 0.0535612 -2.41747e-20)
(0.412632 0.0708669 0)
(0.722353 0.110821 1.15158e-21)
(0.878729 -0.101566 1.97669e-21)
(1.02897 0.0221196 -1.58081e-21)
(0.346698 -0.0727602 -1.33674e-21)
(1.1185 0.0234849 -3.60327e-20)
(1.04976 0.0107526 7.78413e-21)
(1.04865 0.0920487 0)
(0.537695 0.107882 0)
(1.03261 -0.0192015 5.59413e-22)
(1.12075 0.0442552 2.00893e-20)
(1.11375 0.0277433 -5.18254e-22)
(1.01631 0.00824322 -1.39995e-21)
(1.04562 0.00105703 -1.14791e-22)
(1.12241 0.0627868 2.7509e-20)
(1.12259 0.0610064 -2.46046e-20)
(1.01606 0.00113586 0)
(1.01064 -0.000200631 -3.81027e-22)
(1.0666 0.0648535 1.16205e-20)
(1.0716 0.0318051 0)
(1.06364 0.0415861 -6.16468e-21)
(1.00745 0.000294538 0)
(0.872332 -0.095479 6.35496e-23)
(1.03844 0.0104462 0)
(0.973023 0.00799168 2.27633e-22)
(1.0608 0.00725447 0)
(1.02799 0.000112271 3.38452e-22)
(1.09622 0.0762332 -1.69593e-20)
(1.02854 0.00566765 -5.81983e-23)
(1.05217 0.00439172 -4.99078e-21)
(0.619877 0.102681 -4.30364e-21)
(1.0292 4.70714e-05 -8.7889e-21)
(0.38296 0.0666334 -4.96037e-20)
(0.989467 0.0511273 0)
(0.849005 -0.117526 0)
(1.10526 0.0448675 1.38815e-20)
(1.05712 0.043539 -1.83741e-22)
(-0.0694612 -0.00422031 9.42341e-21)
(1.02577 0.0158277 4.54837e-21)
(1.0136 0.00619402 0)
(1.07261 0.0557228 -5.88324e-21)
(1.01151 -0.00292716 2.40503e-25)
(1.00528 0.000184383 6.02893e-23)
(0.660694 0.105119 0)
(1.04499 -0.00211827 0)
(1.05262 0.00372718 0)
(1.02783 0.000592887 5.1539e-21)
(1.05042 0.0103768 4.80026e-21)
(1.01198 -0.00261345 1.37914e-22)
(1.00351 -5.79003e-05 0)
(1.08178 0.0515749 0)
(1.0294 0.022324 -2.45317e-21)
(-0.0627436 0.036199 -3.53642e-20)
(1.01956 0.00918779 0)
(0.86631 0.0719327 -1.0873e-21)
(1.02419 0.0201303 -1.5285e-21)
(0.134141 0.0509014 -8.63797e-21)
(1.00146 3.18962e-05 0)
(1.01146 -0.000929775 1.17332e-23)
(0.774354 -0.115544 2.50868e-23)
(1.01884 0.00988633 9.6078e-22)
(0.855223 -0.104675 1.81689e-21)
(1.00272 6.95479e-06 -4.8439e-23)
(1.07973 0.0744687 -2.51663e-20)
(1.04247 0.0464436 -4.53302e-21)
(1.0493 0.0120149 -1.20915e-20)
(1.06067 0.00908386 -1.51854e-21)
(1.01723 0.0407332 -1.44281e-22)
(1.00992 0.00132879 0)
(1.01294 0.00565454 3.989e-22)
(1.00451 0.000385644 7.81203e-24)
(1.01064 -0.00100051 2.82668e-23)
(0.928428 0.0903279 2.18949e-20)
(1.02339 0.00296532 -1.77912e-22)
(1.00752 0.00121671 1.46984e-23)
(0.95829 0.1025 2.28357e-20)
(0.893579 0.108129 2.33349e-20)
(1.02359 0.0206936 -1.11641e-21)
(0.780744 0.105605 0)
(1.06137 0.0079845 -5.53039e-21)
(1.02587 0.0106161 0)
(1.08606 0.0481572 -1.80368e-20)
(1.05308 -0.000559012 -6.67964e-23)
(1.07144 0.0170841 2.2729e-20)
(0.250294 0.0891632 1.18906e-20)
(1.04652 0.0108759 -7.33952e-21)
(1.02882 0.0628918 1.99161e-21)
(1.06715 0.0114523 1.63106e-20)
(0.0270292 0.0296386 -6.60043e-21)
(0.324565 -0.0631237 1.64522e-21)
(1.00524 0.00019484 -1.90924e-22)
(1.00402 0.000380184 -5.31821e-23)
(1.0203 0.00172824 3.57535e-21)
(1.03401 0.0934699 -4.90251e-21)
(1.02327 0.0210161 1.152e-21)
(-0.0586152 0.0432801 -5.91906e-20)
(1.02735 0.0149645 2.28329e-21)
(1.00362 5.41609e-05 -5.80136e-23)
(1.01025 0.00143429 2.15324e-22)
(1.00419 0.000189753 4.262e-23)
(1.0036 8.91458e-05 0)
(1.00428 0.000184412 2.23857e-23)
(1.02592 -3.30836e-05 -4.10935e-21)
(1.0098 0.0317417 1.28435e-22)
(0.867627 0.16435 -1.63567e-21)
(1.00338 9.13669e-05 0)
(1.02454 0.0207147 2.15074e-21)
(0.890257 0.0676663 0)
(1.0185 0.0107693 2.59692e-22)
(1.00323 8.87271e-05 -1.1435e-24)
(0.0537226 0.0214368 0)
(1.06998 0.0492321 -2.91703e-21)
(1.02708 0.000348266 -5.53745e-21)
(1.01954 0.00502708 3.5676e-21)
(1.01467 0.00116529 -1.86339e-21)
(1.07118 0.00605064 9.01057e-22)
(1.04456 0.00661787 0)
(0.870997 -0.126676 -3.96463e-22)
(1.02884 0.0221469 2.69471e-21)
(1.03672 0.00115492 -4.94288e-21)
(1.10442 0.0185996 0)
(0.989734 0.0471727 0)
(1.04622 0.00154898 -3.37492e-22)
(0.928709 0.0910972 0)
(0.892263 -0.00351184 8.75421e-22)
(0.398032 0.0678903 1.61961e-22)
(1.10887 0.0711722 1.16629e-20)
(1.02178 0.00665994 -2.01773e-21)
(1.08647 0.0464666 -1.92602e-21)
(0.719117 0.104319 2.0678e-21)
(1.00343 8.86878e-05 -1.89181e-23)
(1.08702 0.051169 2.26914e-21)
(1.00453 -0.00011887 0)
(1.03805 0.0351921 4.96785e-21)
(1.01575 -0.016311 5.0833e-22)
(0.702883 0.101665 -1.57212e-20)
(1.004 0.000364949 4.49613e-23)
(-0.0331623 -0.014454 9.39629e-21)
(1.03729 0.0132196 4.7879e-21)
(0.936455 -0.0795737 0)
(1.02666 0.000788685 -4.51213e-21)
(1.12548 0.0336686 2.15716e-20)
(1.08746 0.0495318 0)
(1.0156 0.00724489 0)
(-0.0477946 0.00420535 -6.6767e-20)
(0.807588 0.0350456 -7.88781e-21)
(1.0041 -0.000130877 3.29892e-23)
(0.111414 0.0524393 -1.21084e-20)
(1.00936 0.000556863 0)
(0.187819 0.0370494 1.31764e-20)
(1.04271 0.00890065 5.95808e-21)
(1.07046 0.0567643 -1.11348e-20)
(1.05118 -0.00112671 0)
(1.05279 0.00510147 1.29419e-21)
(1.05871 0.0161387 1.20973e-20)
(1.01161 0.00267445 2.41181e-22)
(1.02706 0.0145001 -6.7723e-21)
(1.01705 2.9088e-05 -4.07116e-21)
(1.00135 2.21773e-05 -9.47364e-23)
(1.00967 -0.000876335 0)
(1.00264 -1.80747e-05 -6.86438e-23)
(1.02448 0.0152338 0)
(1.04242 0.0382294 3.15319e-21)
(1.00392 -0.000123864 -9.4684e-23)
(1.00436 -0.000115744 0)
(1.06406 -0.00525285 9.08734e-22)
(1.00139 -2.84861e-05 5.77527e-23)
(0.984826 0.0350747 5.88634e-22)
(1.00984 0.000593881 0)
(1.06549 0.0173589 -3.38223e-21)
(1.00837 0.00236234 0)
(1.02428 0.0432941 5.6446e-21)
(1.00352 -0.00011972 -5.52914e-23)
(1.07061 0.020835 0)
(1.01744 -0.00289833 2.51801e-22)
(0.663589 0.078517 -9.59959e-21)
(1.03482 -0.00087846 0)
(1.03732 0.00123543 0)
(1.00151 -1.86585e-05 -3.74626e-24)
(1.00731 0.000619254 0)
(1.00938 -0.000842426 6.44881e-24)
(1.04005 0.0118542 1.84982e-20)
(1.02187 0.00644336 -1.06931e-21)
(1.03144 0.00376695 0)
(0.432614 0.100008 1.63593e-20)
(1.01031 0.00331054 0)
(-0.0123988 0.0539582 -3.13619e-21)
(0.704548 -0.124372 1.60207e-21)
(1.0785 0.0735751 0)
(1.00355 -0.000128477 5.15942e-23)
(1.00741 0.000590886 7.72355e-22)
(0.678837 0.106136 -1.51831e-21)
(0.943214 0.0892376 -1.21222e-21)
(1.01791 0.101215 0)
(0.984615 0.0528383 -3.26074e-21)
(0.877772 -0.11186 -8.64478e-22)
(-0.081693 0.0293606 0)
(0.961536 0.0535939 1.24151e-21)
(1.05928 0.0416756 0)
(0.000190121 0.0570805 0)
(1.02047 0.00528453 2.33006e-21)
(1.00197 0.000156396 0)
(1.00361 0.000194061 -2.11091e-23)
(1.00101 0.0404032 -4.54323e-23)
(1.01845 0.0107485 0)
(1.04978 -0.00022476 -8.77514e-21)
(1.09131 0.0468834 -2.45908e-22)
(1.01416 0.00610495 -1.54073e-22)
(1.01274 0.100533 4.95877e-21)
(1.01316 0.00583766 3.35907e-23)
(1.04284 -0.0135664 2.861e-23)
(1.10125 0.0632371 -3.98007e-21)
(0.626222 0.0665007 9.58424e-21)
(1.13851 0.0849327 2.01701e-20)
(1.07807 0.0670629 -6.9909e-21)
(0.859985 -0.119053 3.25383e-22)
(1.04142 0.0375365 2.75591e-21)
(1.0202 0.00520178 -7.73238e-21)
(1.00982 0.00121976 1.32723e-22)
(1.01143 0.00496161 0)
(0.294588 0.0609728 -1.80313e-20)
(0.608473 0.104471 0)
(0.999651 -8.09888e-05 4.82895e-23)
(1.00817 0.00223128 1.2989e-22)
(0.924725 -0.0640882 -1.12158e-21)
(1.07135 0.046362 -1.62409e-21)
(0.886847 -0.116806 -2.04121e-21)
(1.03796 0.00872025 -2.56869e-21)
(1.03572 -0.00389277 0)
(1.05957 0.0156536 1.36836e-20)
(0.842 0.146292 0)
(1.04594 0.000377562 1.5098e-20)
(1.00371 0.000138839 -5.01737e-23)
(1.00583 -8.17242e-05 0)
(1.00949 0.00296824 0)
(1.01649 0.00842095 0)
(1.02157 0.00606349 4.66109e-21)
(1.04532 -5.08684e-05 -1.42598e-20)
(0.106164 0.0270797 -2.7678e-20)
(0.290198 0.0604936 0)
(1.00366 0.000140282 0)
(-0.0434346 0.00668164 4.71733e-20)
(1.01068 -0.00041943 -5.48926e-22)
(-0.0702927 -0.00289486 -8.96133e-21)
(1.14162 0.0850651 -1.00427e-20)
(0.806504 0.0778381 -1.94615e-21)
(1.00596 -5.43258e-05 0)
(1.01975 0.0233527 2.55581e-22)
(0.0864327 0.0492617 0)
(1.0047 -2.39729e-05 -1.62396e-22)
(0.745821 0.0841997 4.5014e-22)
(1.02738 5.94543e-05 -5.669e-21)
(1.00979 -0.000582757 0)
(1.04848 0.0315937 -7.94935e-21)
(0.999443 -8.66916e-05 1.90177e-22)
(0.10661 0.0758099 -3.10534e-20)
(1.03075 0.00727123 0)
(1.00792 0.00141667 -9.76521e-24)
(1.00401 0.0393241 1.73181e-22)
(1.02736 1.89625e-05 -1.06325e-23)
(1.09772 0.0202788 1.034e-20)
(1.02167 0.0058882 -4.64787e-21)
(0.289484 0.0482204 -1.40825e-20)
(1.00358 8.40011e-05 0)
(1.02486 0.0154878 -3.62454e-21)
(1.01313 0.00585921 -2.90149e-22)
(1.04511 0.00624386 0)
(1.08896 0.0156853 1.18576e-20)
(1.07287 0.00801052 0)
(1.06131 0.00972857 6.71929e-21)
(1.05046 0.0133731 4.4254e-21)
(0.733818 -0.0397743 7.9751e-22)
(1.07097 0.0217179 -1.08935e-20)
(1.00384 -0.000196582 0)
(1.02257 0.0145204 0)
(1.00812 0.0021983 -4.27189e-22)
(1.02958 0.00934644 6.64418e-21)
(1.05617 0.0620148 -3.01405e-21)
(1.08533 0.0434442 0)
(0.398025 0.0665101 2.47972e-20)
(1.02754 0.00981873 3.08698e-21)
(1.02849 1.94061e-05 -5.43583e-21)
(0.938044 -0.0394829 -2.98099e-22)
(1.01863 0.00463333 -6.89493e-21)
(-0.032133 -0.0121202 9.3338e-21)
(1.08952 0.05849 0)
(1.00402 -0.000209873 -1.26824e-23)
(1.02544 0.0132871 7.00106e-21)
(0.965978 0.106224 -2.14663e-20)
(1.01743 0.0092523 0)
(1.07006 0.0169145 -2.14736e-20)
(1.0141 0.00586576 8.90654e-22)
(1.01967 0.00126543 -5.19638e-21)
(1.03915 0.0107285 0)
(1.02949 0.0197858 2.45041e-21)
(0.138271 0.078922 3.38519e-20)
(1.06069 0.0315753 1.32216e-20)
(1.02996 0.0263742 0)
(1.02651 0.0143095 -4.58291e-21)
(0.716461 0.0955247 -3.03973e-21)
(1.14045 0.0647138 -2.01921e-20)
(1.01877 -0.00630469 5.93855e-23)
(1.02449 0.00909292 7.08279e-21)
(0.888882 -0.11314 8.56758e-22)
(1.01221 0.00445307 1.84397e-22)
(0.451859 0.0481061 2.0838e-21)
(1.01047 0.0012496 0)
(1.02789 0.00986894 0)
(0.774278 -0.0378191 -6.03785e-22)
(1.04297 0.00785435 0)
(0.825163 0.0829728 5.24874e-21)
(1.07957 0.0412662 0)
(0.371349 0.095643 0)
(1.0271 0.000641095 -7.85565e-23)
(1.00326 4.8973e-05 7.08292e-23)
(1.00994 0.00312712 1.72229e-23)
(1.07051 0.018679 8.48756e-24)
(1.00372 0.000164197 -3.24238e-22)
(1.03585 0.0015441 0)
(0.902392 0.12783 0)
(0.25687 0.0433629 1.49803e-20)
(1.03217 0.016506 -4.96777e-22)
(1.003 -0.00282005 2.01221e-22)
(0.843245 -0.00604879 0)
(0.622103 0.0771038 1.70397e-21)
(0.751443 0.143593 1.26014e-21)
(1.12597 0.0361326 0)
(1.03755 -0.00234823 -1.13409e-22)
(1.00485 -0.000209942 0)
(0.774445 0.127592 2.72515e-22)
(1.01009 -0.000646769 -2.31655e-22)
(1.1019 0.0710354 0)
(1.07862 0.0418163 7.8278e-21)
(0.770097 0.0812792 3.88113e-21)
(1.00485 -4.07885e-05 2.49813e-22)
(1.02959 0.00967695 -7.60064e-21)
(1.00952 0.00113175 -1.36488e-22)
(1.01051 0.00314646 2.40256e-22)
(0.899322 -0.10841 0)
(1.02924 0.0223944 -7.0019e-22)
(1.02517 0.0819528 -3.2401e-22)
(1.00788 0.00180112 -8.47165e-22)
(1.07037 0.0454369 -1.26675e-20)
(0.572502 0.034418 -3.45843e-21)
(1.03016 0.0206605 -3.2613e-22)
(1.01017 0.00357498 -1.60355e-22)
(1.01415 0.00465835 1.61086e-23)
(0.800416 -0.0999922 -1.08158e-22)
(0.823286 -0.0450955 -8.9464e-22)
(0.917328 0.0925349 2.78592e-21)
(1.09326 0.0665968 1.27283e-20)
(1.02482 0.00946291 2.29764e-21)
(0.528154 0.0302 1.33157e-22)
(1.02622 0.0138747 -2.2661e-21)
(1.00911 -0.0112119 0)
(1.03103 -0.000244824 0)
(1.00007 -0.00736714 -2.59968e-21)
(1.10262 0.0620231 9.3992e-21)
(1.0161 0.0188413 4.81176e-22)
(0.86974 -0.00114808 1.51179e-22)
(0.985379 0.00744361 -2.86293e-22)
(1.00032 -3.79776e-05 -2.14705e-23)
(1.08885 0.0600218 0)
(0.321008 0.0624265 2.69683e-20)
(0.531456 0.117717 -2.47918e-22)
(-0.0829474 0.0138296 0)
(0.23083 -0.086076 0)
(0.724193 0.147883 -1.05467e-21)
(1.01855 0.0194599 -1.29515e-22)
(1.04541 0.0211574 8.60996e-22)
(0.477988 0.0492905 -9.42649e-22)
(1.03009 0.0203692 3.27003e-22)
(1.06946 0.00865816 -4.70237e-21)
(1.03039 0.0165071 -5.36793e-21)
(0.906655 0.146444 3.04369e-21)
(0.78889 -0.11247 2.42778e-23)
(0.107207 0.0780386 2.91331e-20)
(1.05918 0.000264837 -6.54508e-21)
(1.034 -0.00442022 1.62615e-22)
(1.00242 -1.83265e-05 3.68466e-23)
(1.025 0.0152713 1.77678e-21)
(1.0106 0.0031975 0)
(1.06129 0.0276152 0)
(1.02283 0.00113073 3.36353e-21)
(1.0928 0.0777721 -3.56174e-21)
(1.03267 0.0166825 -2.20132e-21)
(0.361042 -0.00703484 -3.49086e-21)
(1.02974 -0.00100234 2.44254e-23)
(1.0146 0.0010943 0)
(1.02431 0.0154435 -1.67287e-21)
(0.337136 0.0943685 0)
(1.00871 0.0308093 0)
(1.06652 0.0103588 -1.01782e-20)
(0.66178 0.103974 3.5158e-21)
(1.02986 0.0162796 2.67912e-21)
(0.903573 -0.00935112 4.25903e-22)
(1.01581 0.000984165 0)
(1.02689 -0.00963116 8.1513e-23)
(1.02903 0.0196636 -5.21374e-23)
(1.01156 0.00368899 -9.39851e-23)
(1.00795 0.00201982 2.55739e-22)
(1.03515 0.0255589 3.95587e-21)
(0.784615 -0.0276815 3.72248e-22)
(1.00503 -0.000224975 0)
(1.01092 -0.00110087 0)
(0.297334 0.0803034 2.35347e-20)
(-0.0758361 0.033071 -3.33836e-20)
(1.02834 -0.00767473 5.09167e-23)
(1.04495 0.00733945 3.34253e-21)
(1.02279 0.0149628 0)
(0.192365 0.0272582 -1.41908e-21)
(1.00344 8.98037e-05 0)
(1.05378 7.08602e-05 0)