/*--------------------------------*- C++ -*----------------------------------*\
| =========                 |                                                 |
| \\      /  F ield         | OpenFOAM: The Open Source CFD Toolbox           |
|  \\    /   O peration     | Version:  v2012                                 |
|   \\  /    A nd           | Website:  www.openfoam.com                      |
|    \\/     M anipulation  |                                                 |
\*---------------------------------------------------------------------------*/
FoamFile
{
    version     2.0;
    format      ascii;
    class       volScalarField;
    location    "350";
    object      ddt0(k);
}
// * * * * * * * * * * * * * * * * * * * * * * * * * * * * * * * * * * * * * //

dimensions      [0 2 -3 0 0 0 0];


internalField   nonuniform List<scalar> 
18232
(
-1.43043e-08
-1.63878e-06
0.00540806
-5.0887e-06
1.00481e-07
-0.00150171
-0.00955808
7.9545e-09
-1.15655e-07
-0.00776262
1.09249e-07
-8.80588e-09
0.00815842
-0.00965933
3.28217e-06
0.00108859
-4.90351e-07
0.0151451
-7.5782e-09
-0.00241707
0.0128886
-0.0104332
0.00870111
-2.92762e-08
-1.67357e-08
-1.59711e-08
-3.03554e-07
0.00474329
-1.38687e-09
2.12038e-05
-2.59423e-08
0.0015155
0.000153865
1.51256e-08
-3.97014e-06
7.1905e-09
0.0129951
0.00208653
0.0175852
-3.08458e-09
-3.69248e-06
-4.13256e-10
0.00548808
-3.37609e-08
-3.06579e-06
2.41938e-08
0.0576275
0.000100024
3.03204e-06
-0.00203743
-4.18504e-07
2.67077e-06
-7.2055e-10
0.000915627
6.46699e-09
5.91604e-08
0.000574042
0.0361437
3.90838e-08
2.39862e-06
-2.37391e-06
0.00668142
0.0288718
-0.00655123
-3.09727e-07
-4.6563e-09
0.0115268
1.29835e-08
-1.52755e-07
-1.9958e-08
-3.97163e-08
-5.04368e-10
0.00404477
-8.84346e-09
-1.98936e-06
-3.50067e-10
-4.16417e-07
0.00684152
0.0238175
-0.000680013
-2.12218e-05
-4.04119e-06
-2.24603e-05
5.16329e-06
-7.96202e-10
-0.0254506
1.58246e-07
3.94556e-10
0.000368492
0.00643568
-3.01103e-09
3.04988e-09
-2.71913e-06
0.0124621
-3.4006e-07
5.29944e-06
3.78824e-08
-7.42316e-09
4.54034e-08
7.39766e-08
0.00337417
0.0042596
-9.60166e-09
-5.32044e-09
-1.04293e-07
0.00494631
-1.14611e-08
-0.00986504
0.0130177
0.00407359
0.00447666
-3.92668e-07
-1.5191e-06
-0.00154322
-3.51263e-09
8.62358e-09
7.93197e-08
0.00308831
-0.00913928
-6.12337e-09
-5.62049e-10
4.26895e-06
3.38737e-08
-0.00798742
1.27631e-08
-8.83701e-08
1.40476e-07
0.0061055
-1.0684e-05
-4.68118e-06
-1.19948e-07
-3.77072e-06
6.37591e-09
-1.31493e-09
1.08686e-08
-1.46431e-09
-5.25309e-06
6.39387e-08
0.0125577
-0.000173615
-2.95185e-09
0.0068625
0.00498488
-4.26549e-06
6.75757e-09
-3.64053e-08
1.68742e-07
1.33491e-05
7.83495e-08
1.06786e-07
-1.6244e-05
4.05514e-09
0.00234938
2.18663e-07
0.00133849
-1.39519e-05
0.00507556
-5.27513e-07
-5.63875e-08
0.00726781
-8.21523e-09
0.0134456
0.00283771
-0.0277089
0.00577268
-4.29157e-09
6.39299e-06
0.00231795
1.59066e-08
-1.39614e-05
-2.35572e-08
-0.0520837
-1.06199e-05
-3.04457e-09
4.11111e-09
-2.26933e-09
-0.00658455
-2.446e-08
-8.14394e-09
-7.79167e-10
-2.54032e-09
-0.00652473
1.81318e-07
-0.00667878
2.07188e-09
-6.19202e-09
-3.97985e-09
0.0126356
-5.02118e-07
-3.51864e-06
9.25813e-09
-0.00729014
3.20896e-08
-2.93653e-08
-2.37951e-08
-3.4885e-08
6.7306e-06
-3.08508e-08
2.11639e-07
1.3658e-08
3.48515e-08
4.14738e-09
-1.44025e-08
3.31144e-09
-4.85898e-08
-1.39967e-07
-2.40097e-07
-1.64506e-07
-6.82607e-08
-5.41924e-10
2.15436e-10
3.00612e-08
3.75804e-09
-4.02349e-06
-1.98577e-09
0.000260822
-4.39446e-07
7.11287e-09
-0.00590557
-2.11974e-05
1.85851e-07
5.74997e-06
0.00492564
-0.0396004
-4.95518e-06
4.18791e-09
9.34464e-08
-1.48824e-07
2.04325e-06
-4.27679e-06
-0.00470115
1.51299e-09
4.41423e-09
2.91301e-09
-3.97843e-07
-1.01485e-08
-4.94668e-07
-1.33738e-05
-7.60154e-07
-1.50059e-07
0.00628144
-2.32788e-08
-1.44884e-07
-5.11423e-05
0.0164669
3.94477e-09
-1.958e-08
-6.88366e-07
-2.24278e-09
4.51817e-09
0.00667593
1.3132e-06
0.0129345
-4.79132e-07
-3.76308e-06
-0.00543735
2.23656e-08
0.000428778
6.50816e-09
-3.70701e-09
-0.00530464
3.21573e-09
0.002765
-2.75145e-08
-2.55918e-08
-1.16148e-05
0.000147815
-1.72215e-07
-2.25355e-08
0.002575
3.67847e-09
-3.92903e-07
-1.57154e-05
0.0116135
3.23788e-05
-9.79247e-09
3.23951e-05
-3.29129e-08
-3.1057e-10
-9.59813e-05
0.00537268
-0.00330098
0.000890289
-2.09062e-09
2.61358e-06
-1.77633e-08
-9.83157e-08
2.14812e-08
0.00659429
-4.59728e-06
0.00381269
-0.0048046
-1.77158e-09
-1.48621e-07
-1.59984e-07
-3.94826e-08
-2.89489e-09
1.14962e-09
3.74715e-08
0.0019787
-1.5655e-07
-1.83852e-05
0.0126824
6.18337e-09
-2.75799e-10
1.86948e-08
7.84973e-09
2.07568e-06
4.61762e-08
-2.78425e-09
-1.95122e-08
-8.79979e-06
0.000672893
2.60318e-09
1.46606e-07
-0.00010716
-2.015e-08
6.96892e-07
1.85705e-06
-3.67037e-10
8.11621e-08
-0.0120125
-2.76937e-06
-3.45155e-09
-8.79049e-06
0.0109435
1.43125e-09
8.24613e-08
5.09478e-08
2.31016e-08
2.9378e-06
1.25902e-06
-0.000168243
1.19212e-08
1.16635e-06
-2.64885e-06
-1.19669e-08
-5.64873e-08
-1.38868e-06
0.0010902
-7.78823e-06
-1.48722e-05
-3.31604e-07
-6.89794e-06
3.53991e-08
2.14621e-06
-0.0581836
-7.35434e-09
-2.33655e-08
-1.19737e-09
3.35421e-09
4.32691e-06
-3.32101e-06
2.47308e-08
3.40259e-08
-1.76881e-10
-0.00482828
1.02425e-08
1.95201e-08
-1.69343e-08
4.19873e-08
-9.77592e-05
3.49291e-06
1.65275e-08
7.45727e-08
9.41062e-09
-1.00966e-09
2.83315e-08
-4.68977e-06
-4.76011e-09
4.1911e-09
-3.67521e-07
-0.0430925
2.83719e-08
-3.71766e-07
-6.538e-09
0.00407791
-3.6496e-09
6.93744e-08
-0.00342351
-0.00903906
4.03607e-08
-2.38824e-08
-5.87559e-08
-1.09705e-09
-1.20749e-09
2.30789e-07
0.000113856
-9.4108e-08
6.38348e-08
1.74805e-05
-0.00281462
-5.05539e-09
-2.87553e-09
-1.55076e-07
8.78556e-08
-0.00349467
-1.39764e-08
-0.0127127
1.25244e-07
-1.26657e-05
-4.00357e-10
8.89935e-08
1.17415e-07
-0.0306358
3.5902e-06
-1.80778e-07
-4.36071e-05
-1.29717e-06
-3.2738e-05
-0.00562112
-1.41098e-07
0.00133587
-9.16367e-09
2.27851e-08
1.27058e-07
8.84395e-08
-0.0304901
-8.55072e-10
-1.64305e-07
-4.59434e-06
-0.00740521
0.00193927
-0.000702819
-2.61787e-08
4.10972e-05
8.01152e-06
-1.04056e-08
-1.47829e-09
0.00469003
-0.00823922
2.745e-08
2.47211e-08
3.80166e-09
1.84507e-10
-4.17238e-09
-3.73747e-06
1.33216e-07
-1.73562e-09
2.34175e-06
6.70781e-09
-1.11265e-09
0.00510596
1.41048e-08
-7.33746e-08
-1.67627e-08
3.70904e-06
0.00015509
8.95587e-09
2.76893e-08
-0.0113969
-8.11623e-08
7.55259e-06
9.42876e-09
1.0452e-08
1.10401e-08
8.59707e-08
-0.00193969
-1.14545e-06
1.09919e-08
-8.97875e-09
-6.55825e-08
-6.64075e-07
-3.43975e-09
2.88105e-07
3.21049e-05
1.05145e-08
-0.00535804
-9.61864e-10
-5.92862e-10
0.0189089
2.88216e-07
0.00630831
0.00449246
0.00182706
-1.65379e-09
-1.51973e-09
2.57983e-08
0.00133356
-6.97368e-09
-6.04555e-09
-1.37439e-08
0.00210823
-1.7327e-10
-1.11528e-09
3.95275e-09
2.21295e-06
0.0396872
-5.22745e-05
2.03959e-08
-3.122e-07
0.0089784
0.000985387
-2.13782e-09
0.0049826
-5.97458e-08
0.00446302
-3.07079e-08
-7.74313e-06
8.02588e-10
0.00108229
-1.73638e-09
7.70405e-09
7.38288e-08
0.0118413
1.08394e-10
-1.14337e-06
-3.57728e-08
0.00750535
-1.07235e-09
2.02143e-06
2.14466e-08
-1.17814e-06
-2.64146e-09
-0.0518152
3.53734e-08
1.14796e-09
-9.87599e-10
1.82485e-08
-4.53265e-09
-3.8936e-10
2.40515e-09
-3.11978e-09
-4.196e-08
2.36506e-08
5.93263e-10
6.87759e-08
-0.00133859
2.16816e-10
3.89105e-06
8.16227e-09
0.00649768
0.00379713
2.52609e-09
-9.84265e-06
6.82902e-08
0.00579993
3.01746e-10
-0.00588595
3.71012e-08
2.24284e-09
0.0384093
2.98376e-07
2.7319e-07
-0.0238915
-1.0009e-07
-2.00345e-07
-2.15311e-09
0.00516551
-1.85678e-09
-3.5877e-06
6.14344e-08
-1.30627e-06
-7.64216e-09
-1.24937e-05
5.32086e-08
1.0196e-08
9.9354e-09
5.59099e-09
3.97362e-07
2.57596e-07
-1.0935e-08
-7.27108e-10
0.00166274
0.00465374
-0.000832202
6.45864e-08
-0.000607849
0.00011593
-7.74415e-05
-7.88841e-09
0.0170746
6.47278e-09
-9.33378e-05
-8.47316e-09
-3.11053e-09
3.17193e-09
-1.94225e-08
7.61269e-09
0.00183635
-1.52571e-07
-1.7494e-09
-0.000333828
-0.0591524
0.000531836
-9.13823e-09
-1.00336e-05
3.19536e-09
1.14389e-08
-7.6665e-10
-4.29705e-07
-6.30418e-10
0.00494961
2.24558e-07
-8.00507e-09
0.0077643
4.48028e-08
-7.44177e-07
-0.00067081
3.77825e-10
1.42226e-07
-0.00295443
0.000431163
8.22482e-08
-4.08986e-06
2.36055e-11
-9.96757e-10
-6.54991e-09
0.0203834
3.11144e-07
0.000339888
1.78847e-09
6.37466e-08
0.0184611
-1.05798e-09
0.00934376
0.0211298
-1.13603e-06
4.58242e-08
-2.77768e-09
-9.39569e-09
-2.13526e-09
0.000651798
-0.00176367
-1.28055e-06
-3.27169e-05
-0.00311191
4.63648e-06
-8.89208e-08
-4.07689e-07
0.00021695
3.19801e-08
3.05154e-08
-1.11047e-05
-0.00218458
2.33526e-06
-4.39448e-06
-1.70111e-09
-1.27171e-08
9.06733e-06
-0.0279836
0.000175887
-4.01078e-11
6.91763e-08
-0.00190142
-6.02184e-07
-0.0108919
2.27196e-07
-2.05304e-06
4.31176e-09
1.50438e-08
3.04669e-09
7.83886e-07
-6.13101e-05
1.9219e-10
8.24892e-09
5.32019e-07
0.000226078
2.17585e-08
5.25928e-08
5.19014e-06
2.38135e-08
-6.65125e-08
8.02104e-09
2.3272e-06
-9.19598e-06
4.94481e-06
-3.66029e-09
-5.21083e-10
6.77614e-08
0.00444452
6.48608e-08
2.12067e-07
-0.00220208
1.06759e-08
-1.21634e-08
9.795e-09
-5.14314e-08
-1.06031e-08
1.02125e-07
5.23865e-07
-2.79517e-09
-1.75844e-05
2.56084e-10
6.80018e-07
-6.95927e-08
0.00583915
-2.76527e-07
-2.33286e-08
5.21718e-08
2.80154e-05
2.13399e-09
4.1484e-09
-0.000171863
-2.37997e-06
1.30231e-07
2.65037e-09
-3.94198e-09
0.000579605
5.05714e-07
-0.00226797
-1.24086e-07
-7.42995e-08
-3.44043e-06
-3.40196e-05
-7.82851e-07
-1.0887e-06
2.63021e-06
-1.19947e-08
2.64768e-08
2.64728e-07
-2.85781e-07
2.98091e-08
-1.85419e-08
0.0124081
8.61711e-09
-1.40019e-06
-9.02084e-08
-1.88885e-08
0.00859819
8.54065e-08
0.00774739
-2.80127e-05
1.83219e-06
-4.65548e-09
-3.19989e-07
-2.92442e-09
2.5335e-07
-2.50483e-05
6.25902e-11
-1.43613e-07
-7.9116e-06
8.91912e-08
1.7458e-09
0.00416518
4.63809e-08
-5.25007e-07
-9.55905e-08
-0.00425642
1.33437e-08
-5.4612e-06
0.00496282
-2.10412e-07
-0.00189948
0.000322992
0.0458465
-8.51057e-08
-0.00229252
-2.27914e-08
0.0211862
1.53075e-07
1.9014e-08
1.79079e-06
-7.83283e-09
-0.00497931
0.0130355
-8.92824e-09
-3.08932e-06
-5.31627e-07
-0.00144754
1.08602e-08
9.57519e-09
-1.08742e-05
0.00763802
2.73111e-09
-4.71894e-07
-6.04439e-06
8.30528e-08
4.83627e-09
-0.000246505
-1.48346e-06
3.71903e-05
0.00262783
1.35042e-08
-5.92798e-07
1.15771e-08
-0.000107383
-1.90313e-06
5.63903e-05
-1.12434e-09
0.000971999
-1.15729e-07
-2.99071e-06
-1.01481e-07
-3.47474e-09
-0.00878991
1.83041e-07
-6.42199e-05
1.27717e-09
-1.49652e-08
-1.05375e-05
1.57675e-06
-3.83167e-08
-2.71493e-07
2.55569e-07
-6.35163e-09
-4.54437e-10
-2.729e-06
3.04718e-05
0.00723146
-1.96543e-06
1.14876e-07
-1.32123e-08
-1.52942e-08
-4.12371e-08
1.29139e-06
-5.91877e-05
4.86973e-07
2.9015e-09
-1.33219e-09
5.51328e-05
7.06542e-08
0.0049218
-0.00220566
-3.0836e-08
-6.08365e-06
9.58286e-08
-0.0033449
-2.59427e-09
-7.43209e-09
1.00131e-08
-8.15591e-09
-3.46756e-08
-1.03806e-05
7.07431e-09
0.000814544
-6.50486e-10
-5.08675e-07
-5.61573e-07
-1.84437e-09
-2.64026e-09
-3.56819e-09
-9.73688e-10
1.63149e-06
-1.74629e-08
7.4142e-07
2.36735e-06
0.00305428
-5.32513e-06
9.5865e-09
-1.35101e-05
8.57753e-08
-7.8941e-08
-5.94671e-08
2.52854e-08
-3.6455e-06
0.000861927
0.020933
-0.00449594
3.13487e-09
-8.4847e-08
6.22345e-08
-2.01346e-09
4.63498e-07
-1.07671e-08
0.000116515
-0.00145904
0.00596397
-1.82805e-07
1.25371e-07
-6.40381e-06
3.36222e-08
0.00930447
-7.51029e-09
0.00518899
-2.6106e-07
-2.52548e-09
0.00157766
-8.31076e-09
-3.17558e-06
-7.94456e-09
0.000513272
-4.75351e-06
-5.00051e-08
2.65512e-08
3.83135e-09
1.7343e-09
-5.7229e-08
0.00383706
-1.50422e-05
-1.31219e-06
6.52378e-08
-1.24228e-09
-0.00120106
-0.0192297
2.20992e-08
2.21416e-07
0.00690132
-0.000738809
-3.69627e-06
-1.09822e-07
4.48289e-05
1.04644e-07
-1.13964e-06
-2.15548e-07
-1.39773e-08
-5.97236e-08
1.06154e-09
-1.52385e-05
-8.60235e-08
5.29477e-07
3.54521e-08
2.79506e-08
-0.00174346
3.53118e-08
-2.41456e-09
1.80182e-09
2.83118e-09
-7.73631e-09
1.84131e-08
1.63934e-06
-9.02189e-09
-6.62707e-06
0.0125311
0.00171957
-1.29535e-08
0.00764546
-1.15855e-05
-0.0038775
-1.50304e-07
-2.17432e-05
0.00254602
2.44244e-08
2.09223e-08
-6.64066e-08
-1.89912e-06
-2.09825e-06
1.90482e-06
1.27638e-06
-0.00561168
7.93179e-09
1.43394e-07
7.23734e-08
1.07877e-09
-8.96867e-09
2.42492e-09
0.00177818
0.00142802
-1.5819e-06
-4.83829e-08
2.84377e-09
1.51554e-08
-0.00268775
-1.60047e-10
8.04672e-09
-0.00514245
-7.12062e-09
-0.0208979
-1.06291e-08
-5.89948e-09
0.0107036
-5.48869e-09
-8.64062e-07
0.00406654
-1.63666e-08
2.80236e-09
-1.1852e-06
-4.17502e-06
0.00190762
-0.00706684
0.000180656
1.74158e-06
7.87765e-10
6.66932e-09
-0.00561447
4.04795e-07
3.72079e-09
2.83376e-08
-4.27439e-07
-5.48826e-10
2.3589e-05
0.00896165
0.00642967
6.93899e-08
-0.00385884
5.75469e-06
-0.000742113
-2.63902e-09
-2.78123e-06
-1.82725e-10
0.00147551
-7.24256e-10
8.28686e-09
0.00602383
1.44573e-08
4.32933e-09
-3.03475e-06
2.09504e-09
-3.29846e-06
2.45138e-08
-1.64902e-07
-4.04377e-08
5.86133e-09
9.7703e-08
0.0125898
-6.74429e-09
1.29878e-05
3.5564e-07
2.96738e-09
5.74606e-09
1.19055e-08
9.15467e-08
3.41099e-05
2.97239e-09
0.00592405
2.97121e-07
0.00607507
7.19818e-09
5.92707e-08
1.11633e-06
-5.00834e-09
8.05421e-10
1.40406e-09
3.03436e-07
1.28446e-06
1.1624e-09
0.000125868
-1.98833e-09
-9.17637e-06
-0.0174361
-2.03652e-08
-4.23971e-08
-1.14943e-08
8.35777e-08
1.97481e-07
9.75465e-08
0.00752268
-2.74506e-09
9.48996e-08
9.04481e-08
-0.00638461
-0.0031041
-0.00182412
1.52506e-08
8.77179e-09
2.61752e-09
-8.20605e-06
2.67858e-09
2.61226e-08
-0.000722097
-1.45605e-05
-6.27696e-10
2.81705e-05
-0.00079525
-6.8073e-08
1.03573e-08
-0.00868248
9.35014e-08
6.9752e-08
9.89472e-05
0.000848187
6.48683e-09
-0.0163214
4.58421e-08
2.43107e-09
7.83528e-07
-8.64589e-10
0.000922328
-1.43011e-09
-9.55914e-09
0.000730543
-3.38449e-09
1.56797e-07
2.8306e-08
8.35319e-09
-2.31794e-09
8.24057e-08
7.46857e-07
1.13792e-05
-1.3942e-08
-0.00494416
6.03789e-09
-1.73858e-05
0.000107117
1.10549e-06
-0.00600646
8.64017e-10
-0.00428218
-9.16562e-10
0.00175118
-2.45677e-09
0.00671931
-0.00483938
0.00063779
8.00852e-08
0.00720692
-7.94081e-06
-0.0219897
8.33405e-08
-2.68932e-08
-1.76541e-05
-0.00461484
0.00166281
4.99678e-08
-2.23942e-06
-6.50362e-06
1.86936e-09
-0.00493475
6.27949e-09
9.19128e-07
0.00747634
-2.43104e-09
-1.03549e-08
6.14458e-09
8.57381e-09
-4.56116e-10
8.43064e-05
-8.47108e-09
-6.43313e-05
5.8362e-09
0.00133495
-0.00228143
-7.23038e-09
-8.51701e-09
-2.60863e-08
8.92306e-08
0.00613068
-1.58824e-06
-0.000207709
1.39005e-06
-0.00143983
1.89986e-08
-1.84176e-08
-6.62695e-10
-2.53323e-09
-9.94551e-10
0.00330726
4.83579e-09
4.5633e-09
-7.41986e-09
-0.000799394
3.8842e-09
9.08231e-08
-0.00289379
-3.64906e-07
2.92441e-09
-9.60379e-06
-3.66024e-09
-3.53134e-09
4.47e-08
-5.81472e-06
6.00196e-09
0.00528744
-4.02349e-09
-1.0542e-09
1.26556e-05
5.36975e-09
-2.70938e-09
-0.00373107
-5.9638e-06
-0.00145071
0.000710737
1.56298e-07
-1.84661e-09
-1.52059e-08
-1.23644e-08
-1.06025e-05
0.00310695
-0.0100794
-1.20832e-08
0.000591231
-0.0934939
2.65433e-09
-3.8322e-09
6.84065e-08
-0.00393788
1.31236e-05
2.33461e-09
4.18576e-08
3.99479e-09
-6.28543e-07
-2.3804e-08
-1.4906e-05
-3.59461e-09
-6.47381e-06
1.5311e-09
-5.73212e-10
0.000793047
-1.92733e-06
1.03363e-07
-0.00252122
8.78656e-10
0.000110994
-4.76596e-09
-1.5613e-09
-0.00428548
6.85071e-10
-1.06768e-08
-0.00327815
-4.47039e-09
8.92997e-08
7.57542e-09
1.28789e-06
3.71979e-09
0.000802305
1.66422e-07
3.52112e-07
-4.50574e-06
-7.76807e-09
-6.65375e-07
-3.94806e-09
3.86988e-09
-2.67606e-08
-2.09118e-07
0.000687309
1.11123e-06
1.00114e-08
1.98135e-08
-0.00319866
-1.18319e-10
-4.65638e-06
7.08763e-08
5.88221e-08
-1.62356e-07
2.58892e-10
-5.89505e-08
-4.08484e-06
0.00071551
-0.00233917
0.00232363
1.45638e-06
-2.44517e-06
0.00596392
-7.56936e-09
1.17976e-06
-8.91346e-09
-5.55308e-08
-7.98209e-10
4.6066e-08
-0.00402548
-1.28632e-09
0.00150424
-1.99918e-07
7.97883e-09
9.17058e-08
-3.98347e-09
0.00588202
-7.57063e-10
-0.00520424
2.28797e-08
-8.11344e-08
1.55607e-06
-3.58666e-07
0.000419362
6.63312e-08
-0.00271411
-3.20094e-09
4.01236e-07
-4.12027e-06
8.06475e-09
0.00133739
2.02607e-09
6.5714e-08
-8.3147e-09
-5.8395e-09
-5.62947e-09
0.00332885
-8.45217e-10
9.35624e-09
-1.58079e-07
0.00609617
0.00134216
-3.27252e-08
-9.53837e-06
6.09684e-09
5.1211e-09
1.43777e-08
-1.13461e-08
2.41003e-09
-4.09713e-08
4.33481e-09
-1.56723e-09
-1.55011e-05
5.81215e-08
-7.63138e-09
-1.22885e-08
1.02905e-08
0.00592138
0.00485607
1.29123e-05
-1.37392e-08
0.00385345
3.32501e-07
-7.62563e-06
-1.24319e-08
-2.05488e-06
0.00735296
8.70808e-09
5.72594e-10
6.25183e-09
1.43343e-06
-0.0292169
1.14593e-08
4.27935e-08
1.03265e-08
-2.87412e-08
-0.00310215
0.00651874
9.6376e-09
-8.4377e-06
-1.00312e-08
0.00678056
0.0207271
-3.4097e-08
-4.09476e-07
3.11907e-06
-4.04683e-09
3.21218e-07
-0.00964157
5.55191e-05
-2.04045e-08
-0.00365858
1.41811e-06
1.30333e-06
-7.37484e-06
-3.85203e-10
7.94328e-07
1.45587e-07
-4.58482e-08
-0.0107679
1.76374e-08
6.3356e-09
1.81525e-06
-9.09786e-05
3.50304e-10
-0.000105188
-1.40435e-09
1.66445e-06
1.98927e-08
3.87343e-08
-3.14039e-07
3.34329e-08
-1.39621e-06
3.96527e-07
9.39507e-09
0.000342677
-9.33138e-08
-9.18297e-07
1.32993e-06
2.87164e-07
2.39376e-08
0.0437604
3.71973e-09
-1.58669e-08
0.0206468
2.18628e-08
-0.0150821
-9.79838e-09
-1.08079e-05
1.41848e-07
-8.11978e-10
0.0029044
4.42552e-09
2.94185e-06
-0.00460943
2.76042e-09
0.0198499
-0.0020029
1.60945e-07
-9.93961e-10
-3.14241e-06
-2.73671e-05
7.38472e-08
-0.00729159
-7.37908e-08
4.41552e-08
-0.000257482
-0.0100935
-7.27263e-09
-0.00785463
0.00202215
9.15003e-09
-2.76461e-09
-7.24418e-06
1.40072e-07
1.00494e-07
-1.78147e-05
0.00685213
-0.00103999
1.13759e-07
3.25457e-07
-4.38508e-08
-8.37768e-08
1.38526e-09
0.0131911
0.00756932
5.99197e-08
0.00756135
9.1014e-09
6.79988e-09
0.00194426
-0.00154901
2.91638e-09
-3.96736e-08
-5.63605e-06
0.00742599
5.03683e-08
3.18764e-07
1.00016e-08
-0.00309275
-0.00607909
6.93046e-07
2.00965e-08
-0.00214187
-1.35615e-08
-0.00707383
1.58145e-07
-5.58558e-08
-4.37593e-08
-2.56888e-08
5.25932e-09
1.97443e-08
1.23918e-08
-0.000882288
0.00612285
1.63977e-09
0.0576922
-1.93398e-06
0.0133257
-8.95359e-07
-0.000562892
-1.42048e-06
-3.20638e-08
2.04273e-09
-1.92822e-09
4.16943e-08
4.44169e-09
1.64841e-08
-1.25217e-07
-0.000982574
-4.80471e-06
0.00729665
1.09113e-07
0.00166224
-1.8676e-08
1.32622e-06
0.00461754
-2.69763e-06
1.02516e-06
-3.19833e-07
-5.56495e-09
0.00650533
3.9889e-08
-9.36096e-07
4.63135e-06
-3.62864e-09
-0.00205316
0.0061295
0.000257646
3.9463e-06
-0.0174241
-0.00154604
0.00013947
7.8005e-09
-0.00143147
-0.00360008
-0.0037855
0.000493687
8.9417e-09
0.00203042
-4.76095e-09
-1.59191e-09
7.73364e-06
0.000218787
-0.00294937
-0.00067677
-1.94637e-06
-0.000760117
0.0131362
0.0038378
4.42095e-08
1.27852e-08
-1.35453e-08
4.55144e-05
-3.7271e-06
-0.0270345
5.08696e-07
0.00377684
-0.0111946
0.0114192
-1.13301e-06
-0.0852108
6.63987e-07
1.01629e-08
-1.48907e-05
0.00129134
-5.2649e-09
3.94204e-08
5.77889e-09
0.0113319
1.02587e-06
2.90532e-06
-7.14638e-09
0.0173404
0.00861414
4.04484e-05
-0.000415759
-0.00426512
-3.02861e-08
3.16865e-08
-1.62419e-05
-1.78754e-05
-0.0228243
-0.00112528
3.59254e-09
-0.00167392
-5.92719e-08
2.24156e-08
0.0119059
-1.46803e-09
1.15356e-08
-2.65488e-06
-0.000633878
-1.93407e-09
-0.00361652
0.000815719
-4.82374e-06
-6.02245e-08
-0.0119109
0.00806438
-6.71575e-07
0.00101232
-6.20927e-09
-5.58982e-07
-1.8927e-05
-2.76807e-06
-6.04507e-06
-3.66474e-07
4.6583e-06
-5.71078e-06
-5.44486e-06
-0.00155639
-4.65381e-06
0.0012374
3.59511e-09
-1.62171e-07
-0.00608424
-0.00508285
0.00185251
-1.84571e-06
0.0123223
2.61153e-09
-0.00654119
6.05488e-07
-3.64861e-10
0.0214779
-0.00173211
-1.3633e-07
8.26905e-09
-6.71097e-08
0.0154769
-0.000175364
1.10643e-07
9.07722e-07
7.52183e-10
-0.00411158
0.00224739
2.60614e-07
1.17904e-08
0.0460596
-0.0277553
0.00964451
4.54446e-06
-6.47029e-08
6.13033e-07
4.90083e-08
2.47961e-08
2.44743e-09
-0.00471954
-1.09466e-05
8.93718e-09
-1.75347e-09
1.34817e-08
5.003e-07
-0.00259644
1.14236e-06
-1.86806e-05
-1.48732e-08
-8.72149e-07
2.03605e-08
3.03097e-05
-1.25182e-08
6.90363e-09
-1.53288e-05
0.00015399
-7.4311e-08
2.11997e-07
0.00835209
0.0096285
-2.63887e-06
3.39626e-09
-0.0319951
0.00810726
9.47508e-07
-0.00503224
-2.63166e-08
-3.1301e-10
0.00644531
4.46292e-07
-0.00691036
4.02641e-09
-1.31741e-06
4.65788e-07
8.32589e-05
-5.4722e-08
2.19853e-09
7.412e-08
-2.47808e-07
-7.02508e-07
-8.82693e-06
-7.13701e-09
4.42016e-08
3.08119e-09
-5.21808e-06
6.04971e-09
0.0210558
5.18814e-10
1.21814e-05
-2.044e-08
-1.61435e-07
1.33721e-07
5.88801e-07
-3.08016e-10
8.0058e-08
-0.0017345
-1.08906e-05
0.0127034
-1.77326e-06
1.34123e-09
0.00794297
-4.68248e-06
0.00742111
-2.52154e-06
-1.76226e-07
0.019887
1.0751e-09
-0.000568883
1.72038e-07
-6.9323e-09
1.42677e-07
2.64075e-08
-6.34769e-08
1.00214e-08
-2.68788e-05
9.88464e-09
-7.57381e-09
-0.0163637
-8.00153e-10
0.000948822
-2.36383e-09
-2.75252e-06
1.20579e-08
-2.25474e-07
-4.50485e-05
0.000112653
-4.27315e-08
4.94341e-08
1.74039e-09
-1.38057e-08
5.91445e-10
-8.76132e-09
0.00670881
0.00117129
1.27276e-06
3.34727e-08
5.18952e-07
-7.08618e-06
-4.32867e-06
0.0083755
1.21834e-08
-6.22837e-08
0.00435776
-0.00159451
0.00311753
3.49335e-06
0.00119811
0.00367723
-1.5519e-07
-1.58002e-08
-0.000156418
-0.000196977
1.65582e-07
6.51995e-08
-1.4297e-08
7.13477e-09
-2.20705e-08
1.00095e-07
-0.00186934
1.67563e-08
8.3596e-10
-4.31269e-05
1.20314e-08
-0.00125042
0.00490402
1.7593e-08
-2.04263e-06
-0.00394251
1.1032e-07
-0.00300364
2.78394e-09
-1.27237e-08
3.34941e-08
-0.00242129
-7.1006e-06
3.68908e-05
-1.14926e-05
-0.00408478
3.27756e-06
-0.00656178
0.00627866
-8.10602e-07
-1.38526e-07
2.9029e-06
1.36709e-07
9.18186e-08
-3.6383e-09
-0.000768079
1.51559e-08
1.07898e-07
0.0151422
-7.21864e-09
4.80122e-07
0.00218719
-2.24444e-09
-2.31644e-08
0.00654273
-0.000760954
0.00935905
-0.00358055
-1.20062e-08
-2.85467e-08
-9.24028e-06
0.0100439
1.3227e-06
3.86434e-05
-1.83594e-05
-0.00195722
0.00369442
-1.71635e-05
6.91488e-09
4.59985e-06
-1.3587e-08
-0.000486523
-8.17135e-06
-3.37923e-07
0.00178453
-3.69009e-07
-0.00544679
7.99684e-09
-4.34711e-06
-0.00525143
-4.05578e-08
5.91153e-06
-8.34144e-09
-3.25258e-06
-2.00515e-08
-0.00561686
0.00143496
-0.013096
0.00627185
-0.000112855
5.01769e-08
-9.14116e-09
-7.69434e-07
-3.25328e-09
8.09076e-09
5.02521e-08
-0.00469566
1.48577e-09
5.45908e-08
2.37886e-09
1.5055e-07
2.32703e-09
-0.00376119
-0.00147088
4.79917e-09
-1.41929e-08
1.12427e-05
1.58188e-07
2.46545e-08
0.00428384
-3.48918e-08
8.83986e-09
2.46569e-08
-3.25225e-06
-0.0011965
-9.7209e-06
0.00170558
0.0103722
8.93251e-07
0.00147895
-0.00786367
0.00578146
7.7057e-08
0.00124424
1.98651e-10
0.0163477
-9.14012e-06
-0.00439795
-1.34142e-09
-3.52292e-08
-2.27814e-05
-0.00164524
4.77192e-05
6.44722e-07
-5.57373e-08
-2.06304e-09
-2.82193e-08
0.00285601
-0.00279471
-9.34205e-08
-3.46272e-08
-2.26541e-05
8.51948e-09
-0.010335
-0.00753595
3.37055e-05
-1.88398e-07
-2.34292e-06
-4.09369e-06
-7.62356e-09
-3.46389e-06
-5.26455e-08
3.89484e-08
1.21053e-08
0.00573056
8.04433e-05
-2.59747e-06
-0.00413379
1.17593e-08
-5.26993e-08
-1.83295e-07
-1.45081e-09
-4.12938e-08
0.00231623
-1.08406e-07
0.00022542
-8.99055e-09
8.26851e-06
1.42299e-05
4.99531e-08
0.000995714
0.00809082
-7.1271e-06
-0.0016438
1.86645e-07
-0.00369431
1.50156e-06
-3.83618e-05
-0.00361154
-0.0414553
-1.30925e-08
2.26564e-09
-1.31156e-07
-4.02797e-08
-0.00683602
-1.91036e-05
6.30994e-09
-1.81305e-10
3.63563e-08
-0.00139023
1.39813e-05
-2.49821e-08
5.63238e-08
-0.00199724
-1.57531e-09
-2.37156e-06
-0.010454
0.00514943
-5.67154e-09
-2.22493e-08
-1.99255e-08
9.39023e-08
-0.00256368
-1.99711e-09
2.56369e-07
-0.000219277
1.06472e-06
-3.67206e-07
0.010783
-0.00243016
-2.28819e-07
-0.000202238
6.76786e-08
-1.61353e-08
-2.14322e-06
-1.09502e-09
-0.00933509
-0.000801362
-4.78199e-08
0.0136581
4.64724e-09
-0.00573476
4.27301e-09
3.10534e-07
6.03573e-09
0.00803331
-8.11272e-09
0.000317327
-0.000691443
1.05555e-08
7.08293e-08
-0.000756028
-0.00290195
1.77837e-05
-0.00240243
3.42301e-09
-2.38792e-08
3.81778e-08
-0.000305644
-4.2995e-08
-1.67338e-07
-5.57239e-09
0.00349053
3.9333e-08
2.54031e-08
3.56022e-07
-0.0102932
-2.65926e-08
0.00448378
2.80729e-06
4.20191e-07
2.05339e-09
-0.000671357
-2.4364e-06
-9.94294e-08
8.83442e-08
8.33306e-09
7.36039e-09
6.44341e-09
1.86098e-07
1.05301e-08
6.17343e-05
-4.93825e-09
-1.32529e-06
0.0209136
8.52715e-08
-5.59762e-09
-1.34208e-08
-7.71551e-09
0.00657709
-4.47713e-09
1.6607e-08
0.0154388
-3.73996e-07
-3.22367e-06
2.85734e-09
-4.39886e-06
-1.34022e-09
2.31209e-07
-0.00582975
-1.22382e-05
0.000471245
-2.34696e-05
5.52499e-08
5.67617e-08
8.02727e-09
-1.10993e-06
-1.97004e-08
-3.16625e-09
0.00843524
-0.00550117
-4.29399e-08
2.67416e-08
-0.000490426
3.52185e-09
-0.00172783
-1.27352e-05
-3.01835e-07
0.000785879
-0.000617587
-5.92451e-09
8.67508e-07
-4.32758e-09
-4.98642e-08
-3.81784e-09
7.26922e-09
0.00896432
2.68389e-08
-5.33345e-08
0.00686623
-2.04557e-08
0.0036809
-1.37603e-07
1.93193e-08
0.0124491
7.42783e-07
9.50283e-09
0.00433666
0.00831088
0.0182756
-1.14865e-09
-0.00494788
9.76837e-09
0.000417948
0.00823957
-1.79499e-09
6.95965e-05
3.84736e-05
-2.24056e-07
1.8172e-07
-0.00288948
1.37193e-08
1.47465e-08
2.10436e-07
0.00856087
4.19687e-09
-2.45805e-06
5.10406e-11
-1.40619e-09
-0.000120284
1.92805e-08
-5.80946e-05
0.00499812
0.0137727
1.68223e-09
-1.30175e-08
1.03576e-07
1.13386e-08
-8.68879e-08
0.00265217
0.000819694
1.52255e-08
0.00610318
-0.00113264
-2.22193e-08
-2.56976e-08
7.93656e-07
0.0105608
5.33545e-09
-0.00125201
0.000278303
-1.05765e-05
6.22211e-07
1.35684e-06
5.85678e-06
-9.19664e-09
0.0102952
0.000444179
4.05366e-07
6.74897e-05
-2.93721e-08
0.00584556
4.85353e-09
7.25708e-09
-3.11163e-08
2.90976e-09
9.81997e-10
4.40269e-08
2.54512e-09
3.95469e-09
-1.65699e-06
2.67776e-08
-2.13602e-07
5.22776e-09
0.00100272
1.56288e-08
3.17851e-09
-2.10354e-07
4.86685e-06
-4.94854e-08
-3.77044e-08
-5.7004e-09
-0.00422565
-0.0104816
-9.92255e-05
1.18642e-06
1.35397e-09
1.41513e-08
-2.38172e-06
-3.50147e-10
0.000456402
-0.000938392
0.000461307
0.000598376
-2.36748e-08
-0.00274703
-0.00862274
-6.72832e-06
-2.98413e-09
-2.6868e-05
0.0428015
-0.0017978
-1.83335e-07
4.44921e-10
2.23736e-09
-2.91108e-08
-8.54511e-06
-5.50092e-05
-4.60246e-08
-0.00151655
4.85656e-07
-8.5851e-08
-2.24664e-09
-1.27835e-08
2.02861e-09
-5.46964e-07
-9.76294e-06
-1.82482e-05
3.80033e-07
-4.45362e-06
-0.0242484
0.00287998
1.89075e-08
8.94324e-11
9.71269e-08
1.02569e-08
-8.50874e-08
-1.15322e-08
-4.39936e-08
1.69793e-08
6.06476e-09
-2.13059e-08
1.14401e-09
0.013373
3.58681e-08
-1.53222e-07
-0.00504115
-4.7825e-05
1.04588e-05
4.66532e-09
-2.66227e-07
1.32373e-08
0.000200599
-1.60635e-07
1.62104e-05
-1.56996e-09
-5.72634e-08
-5.05243e-08
-2.86242e-08
-3.16994e-07
0.00887543
0.00761064
1.30404e-05
0.000192773
-1.63584e-08
1.57751e-06
0.00976081
-0.00115312
0.000305932
0.00221136
0.000161141
1.50269e-09
-1.41063e-08
3.88139e-09
0.0302024
-0.000292938
-6.4012e-05
-0.00188946
-2.52583e-09
2.46834e-05
-0.00761296
8.47014e-08
-4.04966e-09
-0.00551215
-1.45166e-07
-0.00326634
-0.000191525
0.0453928
-1.92464e-08
0.00315808
-3.93898e-09
-4.38665e-09
1.04163e-08
6.52226e-06
-0.000911893
0.004997
-1.79426e-05
3.30034e-08
-1.42595e-08
2.34857e-10
-0.00332121
0.00653014
-9.90798e-09
-0.00106817
-4.61603e-08
-1.16403e-06
0.0153668
3.25319e-09
-2.59734e-08
7.22095e-09
-9.14134e-08
3.62476e-08
2.2218e-07
1.29545e-08
-0.00146221
6.65244e-07
0.00735161
-2.69461e-09
-2.20029e-05
-5.15301e-08
2.12719e-09
2.06112e-08
-1.05134e-09
-1.8862e-07
-8.04869e-10
0.00075529
-9.98997e-05
-5.7499e-06
-3.07338e-08
-2.49501e-08
9.26554e-06
-3.3596e-08
-0.000104205
0.00668039
2.5154e-08
3.47967e-09
3.28336e-08
0.00056409
-2.65076e-07
-1.76815e-08
-2.07449e-07
-8.87465e-09
0.0124235
-0.00195504
-0.00055653
0.000532035
0.000358274
-2.63312e-07
-0.00802064
-5.24876e-08
-0.0187155
-1.50897e-09
-9.27093e-08
-2.10885e-08
-1.54729e-05
7.49089e-09
-1.07372e-08
6.14281e-07
3.69767e-09
5.25337e-09
1.75415e-08
-4.40948e-05
-0.00536739
-7.74319e-09
-4.43141e-08
4.58769e-08
-5.06898e-08
0.000101582
-0.00198465
-1.1501e-08
-6.9049e-06
-2.67357e-06
0.00113642
-8.73937e-07
-0.00109097
-0.0109895
-0.000140074
4.88253e-08
-2.34268e-09
9.77274e-09
-2.86654e-05
-6.90426e-07
-8.32613e-08
-2.19965e-08
3.81295e-09
4.72827e-09
3.7698e-08
1.98208e-06
0.00779974
0.00911843
-1.25048e-08
-1.67638e-08
-5.24856e-09
0.00476859
1.9887e-07
2.76719e-07
1.04349e-08
4.7036e-09
-0.0112638
2.17207e-07
-6.05513e-07
0.0183096
1.08719e-06
-0.000227017
-8.9068e-09
-9.34538e-06
8.422e-07
2.72378e-08
1.89676e-08
0.00790829
-7.84834e-07
-1.16635e-06
-4.14656e-06
0.00123097
-4.28317e-07
-2.72373e-08
-0.0038457
5.35653e-05
-4.24743e-09
-5.61055e-05
-1.78743e-05
5.45324e-09
-4.41261e-08
1.96604e-08
2.29821e-08
-4.95046e-07
0.000414692
0.00363214
0.00445181
-1.35953e-09
-2.37711e-08
3.90639e-08
5.1728e-08
-3.31245e-07
2.79558e-06
4.656e-06
-2.10369e-06
-4.20937e-08
1.20934e-08
-3.13887e-06
3.37655e-07
-5.75068e-07
-5.42415e-09
-1.64783e-06
9.52978e-09
1.66057e-09
-8.94995e-07
-0.00113256
4.02234e-05
-2.30601e-08
0.0164902
7.01707e-11
-0.0014694
4.91993e-07
-1.27187e-08
1.74821e-08
2.02428e-07
0.0214709
-3.06584e-07
3.12213e-09
-1.29416e-08
-2.09571e-08
7.08299e-09
-0.0104656
0.00146058
2.76191e-08
0.00136212
0.0116014
2.49504e-10
8.52073e-07
-7.7261e-10
7.5794e-07
0.00485146
-9.26642e-07
-3.51763e-09
-0.00473904
-3.38712e-05
5.17209e-08
-1.96851e-07
-9.51435e-09
-0.000293187
-0.00223398
1.08991e-06
1.66794e-06
-6.78897e-08
-1.76955e-08
3.71091e-08
-4.05047e-06
-6.37596e-07
0.00120636
2.19567e-06
0.00041081
4.93227e-08
2.45207e-07
6.94071e-08
1.74396e-06
-5.87105e-07
-2.27535e-06
2.654e-09
-1.36698e-06
-3.09266e-07
0.0145869
1.98322e-08
1.24728e-07
2.57413e-08
-2.32794e-07
9.91615e-09
0.0013598
-1.27211e-07
-1.34541e-07
2.44013e-08
4.42453e-09
-4.5407e-09
0.000159965
-5.25666e-06
1.2709e-07
-1.69791e-06
-6.98549e-10
3.83425e-08
9.83603e-11
0.00121956
-3.5998e-08
4.65534e-08
-0.00331759
1.00124e-08
2.7665e-08
0.00776644
-0.00201331
7.24932e-05
-0.000754062