/*--------------------------------*- C++ -*----------------------------------*\
| =========                 |                                                 |
| \\      /  F ield         | OpenFOAM: The Open Source CFD Toolbox           |
|  \\    /   O peration     | Version:  v2012                                 |
|   \\  /    A nd           | Website:  www.openfoam.com                      |
|    \\/     M anipulation  |                                                 |
\*---------------------------------------------------------------------------*/
FoamFile
{
    version     2.0;
    format      ascii;
    class       volScalarField;
    location    "100";
    object      k;
}
// * * * * * * * * * * * * * * * * * * * * * * * * * * * * * * * * * * * * * //

dimensions      [0 2 -2 0 0 0 0];


internalField   nonuniform List<scalar> 
18758
(
0.00015458
0.0031144
0.000148115
0.000152254
0.000163975
0.000140174
0.000143429
0.000152432
0.00016235
0.000160647
0.00282466
0.0076667
0.000237092
0.000151508
0.000143214
0.000141849
0.00744662
0.000130699
0.000143086
0.000154612
0.00213178
0.000100664
0.000141608
0.000140182
7.9888e-05
0.0142927
0.000356401
0.000205822
0.000178894
0.00329383
0.0125049
0.000609777
0.000152012
0.0198411
0.000166453
0.00323593
0.000235848
0.000165064
0.00838187
0.000134801
0.0050467
0.00016216
0.00349456
0.000146113
0.000143869
0.0109709
0.00016046
0.000180223
0.0317446
0.000158741
0.00299259
0.0394886
0.000162227
0.000152884
0.000203155
0.000227924
0.000139811
0.000154044
0.000178971
0.000139528
0.000145091
0.000145733
0.000589454
0.0156212
0.000146196
0.0366303
0.000144604
0.000133392
0.000206488
0.000130871
0.0358562
0.0388484
0.000143025
0.000160583
0.00021024
0.00833481
0.00259204
0.00633026
0.000162232
0.00343288
0.000183313
0.00899877
0.00675878
0.000183409
0.000152289
0.000196472
0.000155525
0.000161786
0.000584113
0.000193543
0.0254314
0.000150714
0.000177654
0.0337117
0.000142883
0.00013906
0.000132498
0.000172936
0.00568804
0.000142377
0.00692339
0.000163192
0.000133344
0.000139018
0.0377063
0.00185949
0.0001799
0.0266768
0.000980413
0.00237326
0.00014202
0.0205519
0.000165112
0.000145136
0.000163009
0.000269665
0.000172725
0.000138158
0.00499237
0.000154689
0.00014351
0.00233038
0.000152291
0.000138145
0.0238517
0.000152938
0.000144017
0.00013815
0.000192577
0.0212835
0.000179043
0.000150461
0.000161602
0.0517829
0.000134925
0.000144257
0.0105637
0.000149104
0.000207151
0.000182859
0.000173197
0.00567317
0.00016949
0.00129291
0.0230884
0.000171851
0.0417847
0.000188291
0.00287057
0.0525065
0.0199142
0.0240725
0.000146281
0.000168768
0.00505632
0.000630357
0.000177089
0.000192909
0.000186714
0.0030838
0.0126711
0.00013953
0.0393693
0.0431724
0.00809595
0.000140311
0.000139387
0.0242918
0.0209838
0.00813982
0.0272531
0.000149318
0.000180954
0.00211176
0.000909472
0.000142487
0.00014282
0.00108353
0.0142347
0.000149141
0.000132436
0.000152942
0.000198033
0.000150772
0.0429569
0.000143638
0.00332275
0.000166234
0.0361691
0.00142147
0.0243673
0.000143574
0.000188674
0.0124598
0.000131564
0.000150509
0.000223638
0.000146086
0.0373113
0.000141491
0.000150594
0.000201509
0.000358657
0.000141744
0.000142055
0.0407275
0.000142587
0.000169186
0.0203157
0.0220533
0.000145905
0.000177545
0.000153695
0.000148417
0.000152651
0.000132707
0.000143751
0.0001771
0.000136945
0.00453394
0.0134162
0.000141718
0.000169326
0.000204227
0.000265051
0.00327045
0.000217039
0.000196762
0.0150328
0.000142292
0.0169516
0.000171491
0.00066144
0.000146201
0.000140786
0.00014228
0.000210273
0.0289353
0.000230665
0.000149159
0.00014217
0.000205967
0.000199642
0.000147206
0.0498165
0.00320868
0.000140859
0.000138273
0.000143613
0.000142441
0.0281344
0.000144961
0.00314458
0.000142721
0.000144958
0.00237552
0.000140138
0.0469791
0.000142444
0.0124341
0.000165789
0.000138464
0.000140926
0.000188276
0.00038949
0.000419078
0.000138604
0.000203256
0.000146399
0.000146082
0.00103922
0.0589055
0.000145842
0.000141537
0.00014646
0.000152062
0.000158683
0.000135347
0.000149359
0.0001515
0.000138273
0.0001517
0.000142383
0.047561
0.000143314
0.000141303
0.00013024
0.00019709
0.000138951
0.000138952
0.000148926
0.000149483
0.000139657
0.000142311
0.00014631
0.000156528
0.00341664
0.000154337
0.000142267
0.0237921
0.00015429
0.00014117
0.000141217
0.000818801
0.00208812
0.00013239
0.000140564
0.0017846
0.00014644
0.00023031
0.000142428
0.000465576
0.000216
0.000187869
0.000178399
0.0170486
0.000133077
0.000729388
0.000207368
0.000144682
0.000187351
0.000184123
0.0517284
0.000140735
0.000133127
0.0217565
0.00236096
0.000139643
0.0250766
0.000196787
0.000185366
0.0467714
0.000140662
0.000140512
0.000142151
0.000144326
0.00014858
0.000163067
0.000152523
0.000143098
0.000148416
0.000149071
0.00883979
0.000737698
0.000148008
0.000374412
0.00443739
0.000139485
0.000163419
0.00225893
0.000176064
0.00534418
0.00022871
0.00014362
0.0257233
0.0131022
0.000169686
0.000149013
0.000182313
0.000148706
0.00014539
0.000233679
0.0071748
0.00471102
0.000234797
0.00723654
0.000140848
0.000156764
0.000153663
0.000173576
0.0302813
0.000253827
0.000482397
0.00023224
0.00492824
0.00023416
0.00014602
0.0285642
0.000190133
0.00250123
0.00466052
0.000141402
0.000139941
0.000141959
0.00523657
0.00333317
0.00262574
0.0244183
0.000149281
0.00809939
0.00275975
0.000141919
0.0001513
0.000151852
0.000153096
0.000143597
0.000149093
0.000144143
0.000155162
0.000146835
0.00014569
0.000166819
0.0108257
0.000159046
0.0212688
0.0200879
0.0200155
0.0109503
0.000189639
0.000151423
0.000140657
0.00365985
0.00015132
0.000149209
0.00383357
0.000173519
0.00843317
0.000140305
0.00672438
0.00014315
0.000154537
0.00013203
0.0422234
0.000465573
0.00574677
0.00014602
0.0430607
0.000178092
0.00014323
0.000153315
0.000146433
0.000247172
0.000146539
0.000142059
0.00419043
0.000159191
0.00014934
0.000142684
0.000152029
0.000156248
0.0300914
0.00533267
0.000149881
0.03273
0.000131967
0.000166198
0.000195559
0.000143716
0.0158315
0.000149413
0.000156732
0.000147678
0.000256715
0.000174806
0.000144087
0.0271688
0.00223841
0.000130432
0.000156671
0.000155484
0.000141833
0.000142867
0.000149166
0.000363214
0.0212332
0.000147352
0.000166273
0.00615123
0.000421498
0.00317775
0.00144119
0.00279931
0.000137515
0.000187417
0.000200196
0.000165805
0.000151862
0.00457856
0.000840048
0.000173969
0.000139058
0.000143446
0.000138995
0.000143663
0.00013895
0.000143475
0.000236331
0.0001492
0.00013161
0.000177677
0.000150379
0.000148199
0.000134846
0.000154496
0.00065292
0.00254504
0.0001428
0.00290855
0.00014326
0.000159583
0.000195064
0.0221854
0.000233267
0.000142462
0.00014369
0.0219828
0.0489799
0.000361394
0.000139981
0.0123798
0.0460721
0.000130257
0.000141479
0.0296293
0.000152894
0.000183698
0.000318473
0.000156367
0.000166527
0.00013835
0.000141931
0.000150154
0.000144383
0.000142021
0.000145549
0.0020452
0.000132222
0.00797147
0.00416823
0.000130438
0.000132258
0.000151023
0.000157438
0.00016084
0.00840081
0.000142435
0.000566763
0.00016423
0.000165558
0.00014133
0.000143523
0.00014474
0.000147589
0.00014747
0.0272731
0.0408584
0.000138205
0.000141756
0.000149257
0.0210412
0.000132149
0.000132974
0.00014359
0.000131688
0.000140904
0.000141057
0.000150581
0.000141809
0.00017993
0.000142342
0.000135399
0.000213166
0.0221643
0.000167589
0.000144191
0.000142551
0.000149486
0.000142499
0.000151394
0.00499382
0.00289026
0.000149256
0.000803858
0.000142443
0.000164135
0.000144546
0.000141994
0.000172001
0.000130917
0.000144596
0.000355818
0.000147588
0.000150733
0.000234713
0.000142559
0.000143361
0.0408385
0.000138029
0.000327411
0.00102895
0.000143002
0.000147958
0.000180584
0.000153231
0.000160682
0.000142259
0.0125124
0.00109695
0.00301841
0.000138522
0.0230072
0.000131299
0.000146186
0.000142328
0.000163865
0.00162797
0.000219709
0.000144979
0.000150512
0.000155266
0.0135181
0.0066672
0.00014115
0.000154383
0.000154717
0.0279815
0.000161073
0.000203119
0.000139668
0.000164955
0.00017428
0.000142577
0.000139749
0.000132193
0.000139025
0.000159019
0.000624822
0.00296284
0.000444787
0.000200304
0.000157909
0.00014242
0.000137895
0.00859549
9.08295e-05
0.000135068
0.000169705
0.0235337
0.0269269
0.000148034
0.00014648
0.000186267
0.00392552
0.000131226
0.00204419
0.000143857
0.000153969
0.000161059
0.000144192
0.00014752
0.000147989
0.000138566
0.00014944
0.00165068
0.000171671
0.0043088
0.000148184
0.000141152
0.000209003
0.000133224
0.00550524
0.0024667
0.000144053
0.0070627
0.000152403
0.000144886
0.00911106
0.00206655
0.00215498
0.000376566
0.000152692
0.000549615
0.000132257
0.0195732
0.0202274
0.000166966
0.000143417
0.00787443
0.000154319
0.000204237
0.0087538
0.0314276
0.00014582
0.00241459
0.000142422
0.000170303
0.000179983
0.000139939
0.000162818
0.00193556
0.000292998
0.000159014
0.00015099
0.000131638
0.000149039
0.000166138
0.00016526
0.0002173
0.000141691
0.000205211
0.000156637
0.000145981
0.000157005
0.000131762
0.000165429
0.000142296
0.000139108
0.047179
0.00013806
0.000149632
0.00425514
0.00017809
0.000179002
0.000143799
0.000145747
0.000180264
0.000145418
0.00441134
0.000153855
0.000153403
0.00015043
0.000145774
0.00013146
0.0219474
0.000131802
0.000470467
0.000217481
0.000149309
0.030781
0.000139924
0.000179258
0.000158218
0.0275294
0.000153514
0.00767685
0.00462622
0.000146719
0.0042833
0.00013516
0.0119406
0.000145657
0.000148268
0.0561088
0.00432651
0.00014214
0.000146612
0.000152162
0.000138013
0.000143738
0.00455684
0.0280683
0.000141342
0.000137875
0.00013529
0.0281748
0.000220261
0.00023573
0.000138506
0.000369199
0.000148247
0.000145957
0.000159613
0.00654173
0.000141133
0.000169986
0.0186457
0.000143037
0.00207876
0.000144169
0.000161367
0.000141
0.000138475
0.000157049
0.000146223
0.000174322
0.000143509
0.0526589
0.000144573
0.000154147
0.000178723
0.000242609
0.000170067
0.000141865
0.000145647
0.0052721
0.000934556
0.000198277
0.000139603
0.000142396
0.000160638
0.035211
0.00442194
0.000140996
0.000142081
0.000149497
0.000146385
0.000148754
0.000142476
0.000143491
0.00329063
0.000142282
0.000143453
0.00510669
0.000138458
0.00648324
0.000201238
0.0117079
0.0509087
0.00625196
0.0284
0.000142506
0.000142505
0.000152093
0.000141166
0.000141292
0.000138054
0.000139924
0.000148821
0.0169507
0.000196138
0.0165262
0.000152071
0.000141959
0.000164799
0.000166419
0.000184045
0.000148013
0.000148587
0.000138313
0.0281753
0.0162625
0.00106767
0.000146185
0.000180991
0.000189556
0.00181381
0.0339319
0.0154098
0.000150212
0.000154045
0.000135641
0.0180434
0.000146557
0.000132938
0.000184283
0.0088858
0.000142219
0.00302636
0.00599477
0.000142479
0.000142216
0.000142597
0.000143977
0.000143374
0.00015486
0.000162438
0.000143376
0.000146694
0.000325086
0.0280785
0.00014299
0.00425892
0.000121003
0.000148863
0.000145559
0.000141512
0.000138319
0.000150834
0.000148809
0.000144075
0.000147596
0.000153862
0.000146528
0.0572862
0.000159093
0.000142245
0.000144044
0.00632255
0.000146004
0.000132894
0.0352234
0.000141373
0.000165704
0.000157096
0.000143488
0.000139443
0.000138001
0.000155237
0.000167147
0.000143812
0.00628812
0.000184844
0.000186995
0.0113605
0.000149212
0.000223325
0.000132291
0.0148546
0.000149482
0.000143203
0.000199127
0.00470273
0.000147982
9.8736e-05
0.0323349
0.000138547
0.000160338
0.000132941
0.000147922
0.000159604
0.000151026
0.000141826
0.000592395
0.000141081
0.000141398
0.00625675
0.000141821
0.000141285
0.000139451
0.0585505
0.000144231
0.000145774
0.000162197
0.00020662
0.00454375
0.000490002
0.00192789
0.000142139
0.00013176
0.000143552
0.0313562
0.000149121
0.000140997
0.000152947
0.00013787
0.0146932
0.000146857
0.000145751
0.0118227
0.000142192
0.000178612
0.00636991
0.0001317
0.000143289
0.00100753
0.000151762
0.0189456
0.00578312
0.000137824
0.000144344
0.000259314
0.000138644
0.000153022
0.00348735
0.000135601
0.00385548
0.000142497
0.000143676
0.000143237
0.000166048
0.000151516
0.00153406
0.000152129
0.000140806
0.000845147
0.00474228
0.000167539
0.000166783
0.000486281
0.0312498
0.000409569
0.000130843
0.0300082
0.00014598
0.0258161
0.000392191
0.000141365
0.000166285
0.000146999
0.00431498
0.000139669
0.0285681
0.000141807
0.0141947
0.000200736
0.000138987
0.00013163
0.000142537
0.000747415
0.0152693
0.000143949
0.0136027
0.000144505
0.000141235
0.00331274
0.000143149
0.000101503
0.000139949
0.000153645
0.000140583
0.000140028
0.000140877
0.000139739
0.000197288
0.000173693
0.000168532
0.000164715
0.000148601
0.000142729
0.00739876
0.000142694
0.00169954
0.000145024
0.00720446
0.000157454
0.00323984
0.000139753
0.000141197
0.000141093
0.029885
0.000145268
0.00305941
0.000198219
0.000143597
0.000156556
0.000142629
0.000138147
0.000151657
0.000141306
0.00737972
0.000144108
0.000150481
0.000143702
0.000151718
0.0293499
0.0143812
0.000145577
0.000139519
0.000147562
0.000148138
0.00014191
0.000172745
0.000148129
0.000142459
0.000137643
0.000139343
0.000209711
0.000182663
0.000146642
0.000137758
0.000256711
0.000150445
0.000177151
0.0167323
0.000148442
0.042663
0.000151609
0.00013982
0.000142968
0.000153352
0.000195971
0.00013852
0.000165045
0.00333639
0.000141552
0.000254515
0.0386958
0.0265634
0.000162834
0.000145866
0.000144441
0.00715586
0.000137747
0.000146775
0.000161387
0.000851172
0.000143085
0.000139096
0.0252245
0.000153163
0.000154892
0.000154554
0.000153675
0.000133121
0.00014445
0.000153851
0.000143895
0.00016255
0.000159371
0.000147679
0.000147546
0.00344148
0.000147629
0.000142783
0.00525077
0.000131654
0.000142404
0.000146681
0.000150035
0.000149273
0.0014119
0.000187694
0.00770727
0.00340075
0.0321606
0.00237825
0.000151727
0.0242757
0.00530911
0.000145275
0.000149239
0.000148272
0.000144493
0.000150321
0.00014984
0.000218007
0.000218968
0.000146863
0.000135047
0.00018208
0.00015871
0.00261295
0.000142021
0.000148314
0.000142129
0.000144809
0.00172099
0.000162278
0.0540932
0.000142339
0.00014221
0.000184895
0.000168713
0.000141884
0.00021385
0.000148411
0.00016932
0.0037804
0.000198464
0.000161664
0.000148181
0.000146219
0.000148531
0.00013881
0.00429342
0.000197048
0.0287766
0.00554621
0.0486437
0.000148302
0.0374658
0.02352
0.039467
0.000192105
0.00061339
0.000160172
0.0029845
0.000187994
0.000164706
0.000130657
0.000142557
0.000145834
0.000178918
0.000139521
0.000146121
0.000462852
0.0298198
0.000101901
0.00420432
0.000180137
0.00722919
0.000172213
0.000153914
0.000142836
0.0196051
0.000396854
0.000141649
0.000162949
0.0176682
0.0264228
0.0234405
0.000169482
0.000188166
0.00013174
0.0191746
0.000147608
0.00364724
0.00447546
0.000163093
0.000194327
0.000188391
0.000144271
0.000143117
0.00243263
0.00618126
0.000210311
0.000148106
0.000146751
0.000152224
0.003665
0.000160824
0.00294145
0.000148326
0.0020799
0.00268986
0.000157252
0.00404493
0.000211221
0.025193
0.000131774
0.000166454
0.0192711
0.000160416
0.000141949
0.0030142
0.00296433
0.00014233
0.000142544
0.00274808
0.000155643
0.000151734
0.05125
0.00145091
0.000146402
0.000160078
0.020618
0.000161861
0.00015288
0.000152598
0.00384558
0.000157019
0.000140227
0.000141404
0.0040097
0.000139232
0.0391891
0.000136952
0.000138574
0.00252288
0.000147043
0.000142433
0.00064161
0.000131429
0.000153462
0.000137795
0.00014241
0.000144688
0.000182542
0.000144585
0.00238296
0.000206021
0.00804489
0.0449719
0.000155379
0.000137798
0.000139237
0.0185352
0.000158166
0.000143864
0.00315206
0.000167514
0.000475921
0.000136582
0.0001368
0.000137697
0.000141019
0.000144205
0.000134235
0.00014919
0.000148757
0.000143185
0.00265211
0.000169681
0.00252584
0.000149803
0.00013789
0.000184084
0.0256122
0.0271695
0.00329689
0.0546674
0.00314717
0.000218156
0.0250909
0.000150881
0.000169785
0.000170719
0.0262594
0.000141195
0.000267015
0.00261399
0.000221415
0.000142604
0.00274575
0.000141748
0.000142578
0.000145306
0.00016134
0.0191887
0.0478998
0.000145699
0.000131088
0.000139003
0.000134212
0.00018805
0.00014343
0.0243653
0.000181146
0.000187643
0.000148726
0.000142343
0.000133879
0.0274256
0.00027107
0.000145745
0.000144642
0.00715897
0.000133994
0.00014353
0.000136017
0.000144013
0.000144535
0.00014382
0.000137857
0.00699958
0.000152374
0.000250492
0.000159568
0.000146687
0.000261859
0.000146496
0.000108705
0.000146783
0.000172108
0.000316966
0.00310527
0.000167442
0.00020192
0.0270721
0.000151458
0.00016961
0.000150041
0.000142312
0.000138594
0.000140505
0.000210469
0.000172345
0.000154302
0.000220643
0.000138313
0.000144915
0.000169718
0.00203389
0.00013106
0.000168835
0.00450449
0.00019171
0.00091813
0.000150054
0.000146274
0.0230297
0.000178332
0.000139826
0.000142333
0.000191129
0.00013758
0.000138436
0.0446715
0.000176659
0.000148922
0.000149079
0.000147808
0.0300634
0.000153525
0.020685
0.0279393
0.000142734
0.000141833
0.000272051
0.000168113
0.000175896
0.000150436
0.00019188
0.000187129
0.000139601
0.000153818
0.000188771
0.00017514
0.0188317
0.00357934
0.000164943
0.00381283
0.000277055
0.000140977
0.00205024
0.028632
0.000161491
0.0358294
0.000144873
0.000244707
0.000182086
0.000369515
0.000188391
0.000233803
0.000165761
0.00413527
0.000141868
0.000132969
0.044286
0.000151303
0.000142238
0.000142161
0.000147995
0.000134453
0.000149124
0.000141338
0.000142426
0.0503249
0.00149441
0.000142515
0.000147794
0.000256741
0.00647923
0.000131651
0.000291041
0.00021989
0.000170834
0.000145512
0.000140809
0.0279793
0.000148196
0.000181714
0.000183069
0.000138543
0.000173191
0.0520445
0.000142889
0.00424137
0.00601689
0.0225573
0.000148827
0.000142708
0.000143244
0.000143648
0.000142256
0.00195597
0.00413966
0.000137572
0.00576573
0.000103775
0.000150394
0.000145893
0.000142218
0.0024634
0.0274065
0.000216908
0.000197856
0.000152321
0.0532013
0.00407701
0.000137956
0.000142454
0.000157948
0.000164918
0.0253634
0.00368035
0.000139517
0.00664329
0.00352279
0.000160876
0.000139909
0.000145962
0.000153091
0.000141835
0.000149332
0.000138365
0.000221526
0.0034508
0.00014457
0.000146424
0.000164926
0.000138608
0.000142561
0.000147404
0.00229576
0.000137987
0.000154361
0.0209168
0.00020379
0.000206563
0.000181139
0.000148365
0.000153579
0.000148873
0.000137514
0.000141357
0.00014833
0.00154486
0.000186311
0.000150304
0.00019777
0.000138166
0.00345054
0.000233146
0.000143538
0.043415
0.000140488
0.000151486
0.000227551
0.0366567
0.000154265
0.000153914
0.000153184
0.000210161
0.000132047
0.0498058
0.0147744
0.000138215
0.000181035
0.0066892
0.000144818
0.000150944
0.00302647
0.000179882
0.000146776
0.00353488
0.000154794
0.000142393
0.00483896
0.00027062
0.00658865
0.00013975
0.0079965
0.000170531
0.000133696
0.000180182
0.000162934
0.000147842
0.0002233
0.0218792
0.0035119
0.000182046
0.000209646
0.000138076
0.0308747
0.00243163
0.000179219
0.0188261
0.000144921
0.000314884
0.000145021
0.000141832
0.000171615
0.000149441
0.00127093
0.00209007
0.000146766
0.0529714
0.00632697
0.0280403
0.000160621
0.000182244
0.000130977
0.000147034
0.000153236
0.000130713
0.000307523
0.0176636
0.0517682
0.00435943
0.000224294
0.00295036
0.036828
0.000144046
0.000162965
0.0281498
0.00017661
0.000145144
0.000142165
0.000252835
0.000198534
0.000160251
0.000142805
0.000145978
0.000247061
0.000142408
0.000216471
0.00215935
0.000134364
0.0443241
0.000137202
0.00279399
0.00357704
0.0600563
0.000149706
0.00298484
0.000148273
0.000142605
0.000150352
0.0263795
0.000171514
0.00012602
0.000148393
0.000142412
0.000262358
0.0271496
0.000146703
0.000193042
0.0149324
0.00996648
0.00086582
0.000140222
0.000145366
0.00360979
0.000130736
0.000138208
0.000155922
0.000143717
0.000145113
0.000139978
0.000142005
0.000154654
0.000142033
0.000167135
0.000181454
0.000142911
0.028203
0.026034
0.000157576
0.000135091
0.000143128
0.000219275
0.000143598
0.000142749
0.00014453
0.000190943
0.000143485
0.00015458
0.000153022
0.00047259
0.00300662
0.000140902
0.000256635
0.000221596
0.000160225
0.000214622
0.000809332
0.000140757
0.000142629
0.000302179
0.00024565
0.000155677
0.000282493
0.00291734
0.000143108
0.00180742
0.000148515
0.000194694
0.000248061
0.000312627
0.0312013
0.000151371
0.000141307
0.00058385
0.000152415
0.00133443
0.000200432
0.00279613
0.00275022
0.000141084
0.000167888
0.000141954
0.000312101
0.000190736
0.0284681
0.000141557
0.000144723
0.000220512
0.000147802
0.00349851
0.000140563
0.00451054
0.0160168
0.000171528
0.0481238
0.0254383
0.000140593
0.000140719
0.000144091
0.000924667
0.00320695
0.000148371
0.000152261
0.000148055
0.000135196
0.000180946
0.000140881
0.000136771
0.000231876
0.000147992
0.000136537
0.000153962
0.0394092
0.0135491
0.0239573
0.000145759
0.000125973
0.000164016
0.000155749
0.000192595
0.000244968
0.0260068
0.000137269
0.000186157
0.000131672
0.000166155
0.000201787
0.000175826
0.00298672
0.000148687
0.000199003
0.000137459
0.00346376
0.00380375
0.000136816
0.000151198
0.000150453
0.000150491
0.0213071
0.00014438
0.000144575
0.00014904
0.000147739
0.000139
0.000151292
0.000143203
0.000148368
0.000143433
0.000141147
0.00140013
0.0032394
0.0510274
0.000135466
0.000131991
0.00013287
0.000135324
0.000132333
0.000174401
0.000132712
0.000138119
0.000142863
0.000139825
0.000161261
0.000142634
0.000263565
0.0258664
0.000168231
0.0293847
0.000146003
0.00566261
0.00020799
0.000249425
0.000139806
0.0010265
0.000149119
0.000144194
0.000145024
5.35957e-05
0.000188168
0.00014037
0.000114561
0.000159508
0.000142635
0.000216954
0.00222553
0.000167352
0.00014066
0.000151516
0.000271
0.000170007
0.018136
0.000140461
0.000148367
0.000144451
0.000159513
0.000167581
0.00263276
0.000170041
0.000136894
0.0044247
0.000139094
0.000214188
0.000141233
0.000156241
0.0440756
0.000140925
0.000147916
0.000163511
0.000187311
0.000134174
0.00014265
0.000138137
0.000169847
0.000145637
0.0028536
0.000145122
0.00015583
0.000161963
0.0511736
0.000138689
0.000136891
0.000131803
0.000163658
0.000135146
0.0431332
0.00044758
0.000167998
0.00438789
0.000142959
0.00346784
0.000145193
0.000137832
0.000207206
0.000191074
0.000208798
0.00344419
0.0380322
0.000318742
0.000173097
0.000165855
0.000149771
0.0078644
0.000144672
0.000157989
0.000239021
0.00014754
0.00308659
0.002973
0.00247135
0.00369185
0.00366625
0.000116778
0.00167188
0.000180379
0.000155375
0.000218123
0.000144387
0.000137073
0.000141542
0.0388051
0.0368663
0.00297712
0.00015815
0.000155066
0.00380445
0.000140528
0.000133278
0.000136731
0.000170425
0.000142242
0.000132559
0.000149413
0.000168378
0.00102314
0.000166317
0.000161097
0.000137746
0.000159789
0.00995218
0.000137371
0.000203287
0.00525597
0.000130808
0.000176541
0.00013763
0.0279627
0.000146686
0.000209712
0.000148234
0.000145913
0.000160705
0.000203307
0.0234208
0.000160114
0.00359362
0.000151069
0.000144631
0.00014492
0.00014421
0.000136794
0.00014329
0.0209275
0.044981
0.00018086
0.000143826
0.000154821
0.000151494
0.000145882
0.000147932
0.000184641
0.00306806
0.00353189
0.00014414
0.0037255
0.000137718
0.000177218
0.000151172
0.00016842
0.0193884
0.00579039
0.00342625
0.000132822
0.000144283
0.000140521
0.000142424
0.000144421
0.000142082
0.0212101
0.000144786
0.000146871
0.000148608
0.000175349
0.000141678
0.0259408
0.0482453
0.00443772
0.000145247
0.0397238
0.000136632
0.00394904
0.00050098
0.000149546
0.00447677
0.000153954
0.000176712
0.000140465
0.000153648
0.000159488
0.000191487
0.000192546
0.00282645
0.000207454
0.000198187
0.000174391
0.000149884
0.000143793
0.00287417
0.000153242
0.000370577
0.000148575
0.0547052
0.0172726
0.00628846
0.000150835
0.0176844
0.000154564
0.000146141
0.000136094
0.000152388
0.000177229
0.000142745
0.00527147
0.000203459
0.000192386
0.000141022
0.00015473
0.032799
0.00430737
0.00228739
0.000155872
0.000162497
0.0526143
0.0122609
0.000147897
0.000193072
0.00245555
0.000176398
0.000261462
0.000157717
0.000161025
0.00139884
0.000134072
0.0033586
0.000171866
0.000144192
0.0025661
0.00583661
0.0329749
0.000163026
0.000191685
0.000147303
0.000136856
0.000175924
0.000147415
0.000273203
0.00013847
0.000252842
0.0289202
0.00294788
0.00218733
0.000191623
0.017631
0.000154707
0.00025192
0.00227034
0.03878
0.000150874
0.000149441
0.000141939
0.000155557
0.00013441
0.000141269
0.0165707
0.00014167
0.000138435
0.000166656
0.000149647
0.000132675
0.000153595
0.00144738
0.000177851
0.000144789
0.000144649
0.000160601
0.000150183
0.000141569
0.000140585
0.000136589
0.017313
0.000156887
0.000210682
0.000160139
0.000143473
0.000132552
0.014074
0.000208481
0.00147368
0.000177463
0.000147391
0.000169336
0.000140609
0.000158177
0.00506484
0.000315865
0.000190009
0.000152547
0.000137567
0.000162725
0.00185832
0.00453164
0.003901
0.000156387
0.000138084
0.000137972
0.000155407
0.00015667
0.0404498
0.000138096
0.00255157
0.000132633
0.000143862
0.000193522
0.000140266
0.00326479
0.000193442
0.000494229
0.000133523
0.000168728
0.000168866
0.0331695
0.000137968
0.000146018
0.000130834
0.00183811
0.00235018
0.00309105
0.00170005
0.000151001
0.000229777
0.000156842
0.000177051
0.0348471
0.000170647
0.000140881
0.000145584
0.000135318
0.0152915
0.0535264
0.000156815
0.0164558
0.000135991
0.000141023
0.00014575
0.000207245
0.00024287
0.0239843
0.000143674
0.000148894
0.000168374
0.000937978
0.000136536
0.00326019
0.000141557
0.000162499
0.00427635
0.000139903
0.00629098
0.000302144
0.00415512
0.00291884
0.000144291
0.000153162
0.000159961
0.0264863
0.000197198
0.000145098
0.0193365
0.00143742
0.000130627
0.000151131
0.018201
0.000136866
0.0232918
0.0254657
0.000156244
0.000131876
0.000155481
0.000157479
0.0532438
0.000137803
0.000166588
0.000149394
0.000660612
0.0276809
0.000142694
0.000136502
0.000209507
0.000159142
0.000144624
0.000142759
0.000140076
0.000175044
0.000152303
0.0117169
0.000147046
0.000146437
0.000143068
0.000151625
0.00016099
0.000150641
0.000271837
0.00293037
0.00639227
0.000148083
0.000136387
0.00794718
0.000156498
0.000177459
0.0170629
0.000189552
0.0023759
0.0192866
0.000136027
0.00474477
0.00140186
0.000150493
0.000140034
0.000143681
0.000143608
0.0206951
0.002703
0.000144547
0.0369818
0.000610972
0.0441581
0.000132764
0.000138506
0.000488779
0.000140136
0.000145797
0.000160591
0.000141931
0.00103039
0.000152562
0.033713
0.00333038
0.000141796
0.000270958
0.00018366
0.0582294
0.00271854
0.000143034
0.000155678
0.000172808
0.00473525
0.000530583
0.00158662
0.00014769
0.000143767
0.000183364
0.000136875
0.0582152
0.000781279
0.000140543
0.0119481
0.000137176
0.0268754
0.000146266
0.0023227
0.000150184
0.0259559
0.000269312
0.027636
0.0199613
0.000135217
0.000549708
0.0425396
0.000148782
0.0288501
0.000148311
0.00013335
0.000143627
0.000160949
0.00015493
0.000145609
0.000141181
0.000217467
0.000169238
0.000178461
0.0322912
0.000178558
0.000159394
0.000147946
0.00018885
0.000136407
0.000189968
0.00378139
0.00033157
0.00253978
0.000150447
0.000152858
0.000150631
0.000167827
0.000152401
0.000140958
0.0220813
0.000545887
0.0474232
0.000155636
0.000145513
0.000172086
0.000315886
0.000148101
0.000136654
0.00014966
0.000151478
0.000169089
0.000143314
0.00430294
0.00014733
0.0282044
0.000138347
0.0020144
0.000415329
0.0204816
0.000135631
0.000191979
0.000144819
0.000137408
0.000186167
0.000419277
0.000141651
0.00014944
0.0269225
0.000144048
0.000179916
0.00371118
0.000160176
0.00453452
0.000145552
0.00358615
0.000162063
0.0469959
0.000136295
0.000141412
0.057296
0.00013996
0.00392037
0.000155833
0.000164817
0.0268324
0.000150702
0.000143773
0.000149652
0.000141491
0.00853033
0.0280986
0.000137378
0.00382174
0.000177676
0.00027284
0.000143979
0.00358972
0.00288979
0.000160446
0.000160379
0.00014398
0.0402423
0.000133616
0.0209794
0.000136157
0.000140644
0.000154458
0.000145767
0.00013853
0.000228066
0.000153134
0.000141657
0.00242387
0.000137894
0.000183499
0.000156926
0.00663701
0.000141842
0.000140281
0.000170474
0.000141142
0.000140533
0.000155353
0.000463153
0.00253249
0.00213131
0.0040007
0.00013652
0.00014339
0.000144352
0.000140291
0.000135552
0.0565311
0.000133394
0.000153771
0.00024222
0.000148738
0.012883
0.000143953
0.000136591
0.0423308
0.000326956
0.000145989
0.000171453
0.000161224
0.000277912
0.000141561
0.000152045
0.00268708
0.00014665
0.00210673
0.000145583
0.000149484
0.000150103
0.00349396
0.000155645
0.000179807
8.42674e-05
0.0177403
0.00015398
0.000153256
0.000173631
0.012389
0.000149143
0.0003624
0.00351805
0.0123558
0.0271982
0.00013865
0.000144166
0.000142199
0.00300418
0.000406826
0.000219001
0.027779
0.000135516
0.0099598
0.000139045
0.0391868
0.000143255
0.000174002
0.000189726
0.000148612
0.000149791
0.00019546
0.000157291
0.000148048
0.000148839
0.00019183
0.000153261
0.000140704
0.000519853
0.000148315
0.000148378
0.00014329
0.0271134
0.000148343
0.00244584
0.000163695
0.000152736
0.0267423
0.000157396
0.000202741
0.000137191
0.00014226
0.0482876
0.0249321
0.000509147
0.000145563
0.000154959
0.0308201
0.000202949
0.000186036
0.00227877
0.0025676
0.00330062
0.00013637
0.000457037
0.000140217
0.00017621
0.00793766
0.000191714
0.000191693
0.000149414
0.032675
0.000185967
0.00297479
0.00019772
0.000141688
0.000143359
0.000144167
0.00564201
0.000137369
0.00400272
0.00017794
0.00401515
0.000135617
0.0388934
0.0491755
0.00420643
0.00320478
0.000150243
0.000147123
0.00014222
0.000155695
0.000144302
0.000156409
0.0428214
0.000145737
0.000150615
0.0281677
0.003861
0.00373389
0.000158814
0.000167524
0.000139713
0.0277759
0.000150396
0.0544034
0.00016987
0.00176288
0.000166597
0.000193441
0.0125584
0.000142955
0.00014232
0.0204919
0.00253692
0.000241675
0.000198306
0.000172336
0.000141202
0.000223844
0.000143854
0.00124187
0.000143612
0.000151015
0.00311369
0.000149402
0.000191659
0.000137412
0.0464081
0.0232917
0.000184452
0.000164433
0.0300021
0.000156594
0.000136068
0.0274665
0.047
0.0271654
0.00014009
0.000147971
0.000259114
0.0267832
0.0182258
0.000145932
0.000153804
0.000146052
0.000159412
0.000148091
0.000138454
0.0123433
0.000140831
0.0347401
0.000153808
0.0188398
0.000135715
0.0171112
0.0183032
0.000190604
7.09463e-05
0.000481688
0.000138567
0.000187798
0.0168384
0.000139766
0.000147744
0.000144948
0.0281896
0.0210761
0.000144509
0.0241063
0.000175416
0.000142669
0.031052
0.000152075
0.000184295
0.0282832
0.0353693
0.000146267
0.0227986
0.000171363
0.00013727
0.0261348