/*--------------------------------*- C++ -*----------------------------------*\
| =========                 |                                                 |
| \\      /  F ield         | OpenFOAM: The Open Source CFD Toolbox           |
|  \\    /   O peration     | Version:  v2012                                 |
|   \\  /    A nd           | Website:  www.openfoam.com                      |
|    \\/     M anipulation  |                                                 |
\*---------------------------------------------------------------------------*/
FoamFile
{
    version     2.0;
    format      ascii;
    class       volScalarField;
    location    "100";
    object      p;
}
// * * * * * * * * * * * * * * * * * * * * * * * * * * * * * * * * * * * * * //

dimensions      [0 2 -2 0 0 0 0];


internalField   nonuniform List<scalar> 
18758
(
0.00233603
-0.000977384
0.00191057
0.00220961
0.00525823
0.000308577
-0.00578313
-0.01108
0.00505369
0.00498796
-0.00293544
-0.0435612
0.0040835
-0.0212692
-0.00534024
-0.00409022
-0.0415208
2.01192e-05
-0.00529359
0.000466504
-0.0031272
-0.0369873
0.000332691
0.000703083
-0.0341578
0.038237
-0.0279667
-0.0106525
-0.0176431
-0.0024271
-0.0259417
-0.0293509
-0.0109526
0.00536201
0.00561628
-0.00484827
0.00299203
0.00520468
-0.0394079
0.000243383
-0.0236035
0.00500811
-0.0173514
0.0026791
-0.0023602
-0.0154671
0.00475201
-0.015799
-0.0991034
0.00173081
-0.00361522
0.00908023
0.00141462
0.0039024
-0.0330025
0.00492182
0.0019553
0.00022415
-0.0164258
0.00193974
-0.0020128
0.0026851
-0.0240954
-0.0875937
-0.00189768
-0.0258799
0.00121837
0.00108254
-0.00950782
4.05821e-05
0.00184471
0.044189
-0.00284545
0.000784611
0.0121727
-0.0185825
-0.0243617
-0.0314249
0.00510623
-0.0153308
-0.0336913
-0.0380746
-0.0345958
0.00707371
0.00260535
-0.039453
-0.0380873
0.00151759
-0.0246039
-0.0432008
-0.0546384
-0.00313556
-0.0441944
-0.095051
-0.00285523
0.00122954
0.000153362
-0.0264082
-0.0306379
-0.000152759
-0.0117016
0.00524871
0.00104987
0.0012595
-0.0199521
-0.00117738
-0.0161704
-0.0465883
-0.00961377
-0.00766321
-0.00458189
-0.0938737
0.00351986
0.00193627
0.00593136
-0.0348851
-0.0254701
0.00185199
-0.0587701
0.00258785
0.0018393
-0.0282324
0.00266151
0.00225507
-0.149749
0.00386836
0.00261692
0.002259
-0.00221246
-0.136269
-0.0169568
-3.50078e-05
-0.0122595
-0.0125724
0.000207964
0.00162812
-0.0765581
0.00266804
-0.013293
-0.0319991
0.003487
-0.0301979
-0.0335633
-0.0165055
-0.150988
-0.0484248
-0.0194426
-0.00722939
-0.00135552
-0.0316075
-0.133788
-0.135803
-0.0146567
0.00582828
-0.0225904
-0.00629378
-0.0428029
-0.000377766
0.00981785
-0.00208979
-0.0102171
0.00237127
-0.105394
-0.0147051
-0.00044499
0.00193564
0.00234491
-0.0174114
-0.137695
-0.0459853
-0.130954
0.00190659
-0.014474
-0.00110429
-0.00826685
0.00130198
-0.00307504
0.0266944
0.00742518
-0.0233097
0.000979122
0.00367256
-0.0323247
-0.0277152
-0.0350324
-0.0084987
-0.00252114
0.00828405
-0.0890874
0.0103773
-0.135056
-0.00831221
-0.00906201
0.00475765
0.000697014
-0.0259855
-0.0169435
-0.0142935
-0.0830464
0.00110106
0.00190648
0.00340066
0.017788
-0.00413253
-0.00462371
-0.0973145
0.00271643
0.00580549
-0.134
-0.135199
0.00122048
-0.0381329
0.00194369
0.00360393
-0.000159019
0.000181095
-0.00494857
-0.0400106
0.00033187
-0.020222
0.00720118
0.00229374
-0.0323692
0.0051076
0.0163433
-0.000140952
0.0132484
-0.0555238
-0.0128638
0.00266947
0.0392712
-0.0463643
-0.00342028
0.00159869
-0.00137976
0.00231973
0.00631885
-0.112854
-0.0217623
-0.00975562
-0.00484368
0.00626951
-0.011834
0.00164298
-0.0291838
0.000831977
-0.00157133
0.0018282
0.00204815
-1.62717e-05
-0.129304
0.00268834
0.00326106
0.00228988
0.000211294
-0.028019
0.00195492
0.0469681
-0.00549468
-0.0556232
0.00375815
0.0022716
-0.00168939
-0.0088412
-0.00665881
-0.00517146
0.00229963
-0.0114682
-0.0150307
0.00136683
-0.0586843
0.039872
0.00118267
0.00259642
0.000769919
-0.000441513
-0.0185681
0.00031759
0.00370282
-0.0205318
0.00178524
4.93156e-05
-0.00542335
-0.0123063
-0.00566097
0.00255977
0.000101502
-0.0106611
0.00137303
0.00132493
0.0016575
-0.0224069
0.0019628
0.001538
0.00147715
0.00224928
-0.00116682
-0.00325073
0.000719735
-0.162333
-0.029159
0.00193699
0.00191481
-0.0240995
-0.00251517
0.000941928
0.00283899
-0.00173391
0.00269252
0.00558366
-0.00560969
-0.00686412
-0.0145746
-0.0108719
-0.0194516
-0.00102649
0.00100864
-0.0237144
0.00982978
0.00112737
-0.0117994
0.00834891
-0.0427123
-0.000663627
0.00103276
-0.134732
-0.00127064
0.00217486
-0.143739
0.00563713
0.00339347
-0.0195741
-0.000689497
0.00195247
-0.0056252
0.00195129
0.00013952
0.00195371
-0.0118526
0.00277625
-0.000153551
-0.0108577
-0.02189
-0.0255243
0.00267858
-0.0240893
-0.026905
0.00213384
-0.0360876
-0.00341268
-0.0519014
-0.0317084
-0.0209053
-0.00854291
-0.132836
-0.0557009
0.00763309
-0.010966
0.0033881
0.00370139
0.00268523
-0.0189465
-0.00707327
-0.0307055
0.014195
-0.00766155
-0.00145865
-0.0315944
0.00398067
-0.0239656
-0.108101
-0.0313361
-0.00335558
-0.00217614
-0.0222073
-0.0217602
0.00017966
-0.0307925
-0.00461313
-0.00313548
-0.0295584
0.00123003
0.000700225
-0.0425099
-0.0306803
-0.00579476
-0.0615681
-0.145422
-0.0102908
-0.0423676
-0.0108383
-0.0042641
-0.0191232
0.000604324
0.00286819
0.00189092
0.00376699
-0.0100257
8.00149e-06
0.00167695
0.00193397
-0.0048755
-0.0431362
-0.0397437
-0.0786596
-0.0666833
-0.159809
-0.0379385
-0.00545061
0.00196841
0.00062806
-0.0193217
-0.0183648
-0.00895904
-0.0569086
-0.0233347
-0.00851876
0.00196412
-0.0247019
-0.00220141
-0.0291799
0.000848286
-0.0675027
-0.0071557
-0.0323788
0.00148781
-0.0275692
-0.0485944
-0.00573826
0.0028907
0.00114891
-0.000191199
0.00129785
0.00155774
0.000678006
-0.0410203
-0.00938216
-0.00307624
-0.00935245
-0.00956301
-0.0970937
0.00428877
0.000443249
-0.0306631
0.000822859
0.00204721
-0.0573677
-0.00805506
-0.0292065
0.000434037
-0.0089702
0.00189985
-0.0257816
0.00188791
-0.00975122
-0.124471
-0.00330136
9.03201e-05
-0.0304574
0.0048521
-0.00418076
0.00184336
-0.00602365
-0.00441182
-0.0865658
-0.0149713
-0.0222036
-0.0119553
0.0231986
-0.0127008
-0.0044896
-0.0134237
0.00179308
-0.00754669
0.00528911
-0.000595084
-0.0103778
-0.022501
4.94615e-06
0.00349242
0.00191225
-0.00568059
0.0015078
-0.00794568
0.00152996
-0.00769713
0.00689135
0.00196893
0.000737797
-0.0528401
-0.000196309
0.0018695
0.000322335
0.00456059
0.000835518
-0.00866221
0.00272014
-0.00499756
0.000100786
-0.0378967
-0.013467
-0.101137
-0.0041862
-0.00494696
-0.00876187
-0.092318
-0.018932
0.000858284
0.00194376
-0.00335682
-0.0170117
7.40928e-05
7.60648e-05
-0.0143757
-0.000574174
-0.0295411
0.00112547
0.00298558
-0.0207742
0.00184717
0.00121212
-0.00362431
0.000581664
0.0026584
-0.00248651
-0.0192988
0.00104806
-0.00908311
-0.0144209
6.9567e-05
0.00104052
0.0019732
-0.0248092
0.00645827
0.00359339
-0.000289975
0.0113523
-0.0070704
-0.000217556
0.00250442
0.00190699
0.00206579
-0.0145204
-0.0144862
-0.162153
-0.0283299
0.00177126
0.00261083
-0.0217547
-0.0202659
0.000864575
0.000158745
-0.00764265
0.000767259
0.00250869
0.0024803
-0.000238895
-0.00405202
-0.0149442
-0.000439867
0.000245695
0.000130651
-0.10767
0.0035907
0.00265049
0.00062223
0.00189268
-0.0037579
0.00263616
-0.00110605
-0.00669936
-0.022715
-0.00899013
0.000696738
-0.036608
0.00262826
0.00101791
-0.0448314
8.52264e-05
0.000571652
-0.0291868
0.00191745
-0.0260722
0.0153959
0.00192891
-0.0074072
-0.0751088
0.00183242
0.00779023
-0.000338785
0.00170815
0.00189119
0.00618764
-0.00765335
0.00648167
0.00121969
-0.0506572
-0.0119349
-0.015538
0.00184873
-0.16586
0.000684787
0.0012001
-0.00102177
0.00167103
0.00702443
-0.00334766
0.00242017
-0.0267259
0.00262924
-0.0361568
-0.00165464
-0.00259204
0.00296925
-0.0272278
-0.119337
-0.013363
0.00331001
0.0020278
0.00144611
-0.0214057
0.00170578
0.00208182
0.000890913
0.00205163
-0.0147466
0.00665001
0.00215709
-0.0288643
0.00339015
0.00492114
-0.00086456
0.00185705
-0.00943909
-0.0462933
0.000297958
-0.0299019
-0.135812
-0.162941
0.00116594
0.000465933
0.00797648
-0.00922874
0.00065126
-0.00173319
0.000675769
-4.78012e-05
-0.0354061
-0.00586357
-0.0149608
0.00272408
0.00165285
0.00278527
0.00575396
-0.0431832
-0.0129994
0.00352002
0.0025486
-0.0477437
0.000184683
-0.0587305
-0.0199349
0.000841075
-0.068843
0.00278481
0.00267253
-0.070549
-0.00141901
-0.00094305
-0.00651152
-0.00764736
-0.0287722
0.00108523
-0.0369941
-0.162764
0.00727896
0.00232188
-0.0454375
-0.0266543
0.0141627
0.00236506
-0.100559
-0.0136146
-0.0219008
0.00112171
-0.0282827
-0.0161807
0.00196281
-0.0215247
-0.0183535
0.00738772
0.00211553
-8.05704e-05
0.000724813
-0.0114616
0.00214881
0.00784837
0.0113847
0.0026485
-0.0395796
0.00478654
0.00146543
-0.0357992
0.000923904
0.00120902
-0.00525266
0.00208887
-0.0370044
0.00178299
0.0038024
-0.0156201
-0.046727
-0.0582777
-0.00910386
0.000877884
-0.00997941
0.000251619
-0.00906966
-0.0301826
-0.000307981
-0.0174812
0.00176797
0.000685825
-0.014982
0.000915377
-0.0367199
0.00866421
-0.0232632
-0.0177364
0.00101454
0.00352473
0.0015838
-0.0394134
-0.031218
-0.00431081
-0.0224636
0.000820337
-0.0138918
0.00196933
0.00406845
0.000453218
-0.0138779
0.023325
-0.0238761
-0.00480419
-0.00237976
-0.00992712
0.00223644
-0.0089173
-0.0208628
-0.11145
0.00238031
0.00221678
0.00197516
-0.0890845
-0.0014656
0.00307434
0.00171407
0.00258853
-0.0134341
0.00107297
-0.0391188
-0.0332505
-0.00271926
-0.0309068
0.00130003
0.000601408
-0.00230837
-0.00912126
-0.0112444
-0.00267782
0.00180471
-0.0299151
0.00163397
-0.0218781
-0.00778939
-0.010282
0.000511552
-0.0301572
-0.0176875
0.00599658
-0.0272183
0.000601435
0.0017368
-0.0208263
0.00183926
0.0135254
0.000632517
0.000227907
0.000102613
-0.13339
-0.0228536
0.00237449
-0.00452244
-0.00720953
-0.00246579
0.00272588
-0.0028467
0.00191855
-0.016004
-0.005196
-0.00754676
-0.0218739
0.00191053
0.00437988
-0.00597758
-0.0258503
-0.0446384
-0.0313047
-0.11696
-0.00322465
0.000149256
0.000309857
0.00234686
-0.00254814
0.00193032
0.00182241
-0.0115557
-0.091264
-0.0160741
0.00295772
0.00161743
-9.18382e-05
-0.00743308
-0.00410781
-0.00897769
0.00124483
0.00352279
0.00177875
-0.10715
0.0145086
-0.0241482
0.00147718
-0.014443
-0.00468419
-0.00251115
-0.133846
-0.0582219
-0.00137586
0.000741012
0.000222144
0.0133774
-0.00652634
0.00124455
-0.0128928
-0.047273
-0.0034807
0.00309146
-0.00257806
-0.0057988
-0.00197743
-0.00610922
0.00236942
-0.0051888
0.00437639
-0.0190263
-0.00365388
-0.00628749
-0.0289942
-0.113255
-0.00504575
-0.0195237
0.0089338
0.000928001
0.00235624
0.00235223
9.49817e-05
0.00122116
0.000953148
0.00176537
-0.014092
0.00421738
-0.00814557
0.0302287
-0.0176254
0.00182718
0.00250108
-0.0354132
-0.0139825
0.00121096
-0.015374
-0.00283264
-0.0203164
-0.0290096
-0.00784973
0.000910029
0.00226045
0.00123147
-0.0486861
0.00185444
-0.0288545
-0.00976968
-0.00757552
-0.0532421
-0.00718337
0.00622137
0.00107476
-0.00172822
-0.0229295
0.00209824
-0.00811557
-0.0334331
0.00193678
-0.00404602
0.0402602
0.00106008
-0.034927
0.00120475
-0.00586358
-0.0150442
0.00331176
0.0011392
0.000296975
-0.00201542
0.00260495
-0.0237618
0.00252488
-0.00244115
0.000973456
0.0357312
0.00259105
0.00215885
-0.017988
0.017285
-0.00663511
-0.0246393
-0.0207213
0.00127844
0.000849527
-0.00805316
-0.0990888
0.00198543
0.00173779
-0.0213538
0.00176279
0.00348565
-0.00770033
-0.0115418
0.018038
-0.00246279
-0.0510263
-0.013425
0.000821384
-0.00350932
-0.0251201
-0.000215521
-0.158598
-0.0386334
0.0018416
-0.00958389
0.00502832
0.00163658
-0.0221686
-0.00848712
0.000669341
-0.0179952
-0.00585478
0.00228636
-0.00509949
-0.00600252
0.00346494
-0.0232859
-0.00611658
-0.000890391
-0.00340207
-0.0197059
-0.0476156
0.00457682
0.000768166
-0.123613
0.016984
0.000640299
-0.126914
0.00181377
-0.0136533
-0.0313221
0.00230943
0.00185267
-0.00746848
-0.00659388
0.00187617
-0.0432535
0.0025275
0.017956
-0.0381385
0.00183308
0.00064589
-0.00358993
-0.00131509
5.31494e-05
0.000933903
-0.0697801
-0.000313197
-0.00262696
-0.0201328
-0.00675848
0.0124558
0.00172409
-0.0189245
-0.000582872
0.00178448
-0.000993765
0.00193472
-0.00571775
0.00441802
0.00237799
-0.0180563
0.0025209
-0.00517036
-0.0458731
-0.0063383
-0.0242603
-0.00743903
-0.0396297
-0.0261287
-0.00163345
0.00193591
0.00198924
-0.00210847
-0.043756
0.000494347
-0.0198045
0.0101579
-0.00788616
-0.0350519
-0.00624657
0.00172002
0.00189027
0.00261643
-0.0431886
0.00108467
-0.000933159
0.000123673
-0.0221833
-0.0263441
-0.0711702
0.000570807
0.0007757
0.00206911
0.00235046
-0.00229078
0.0021288
-0.00192292
-0.00338674
0.00181247
0.00190478
-0.0298413
-0.0280887
0.00167936
0.00179011
-0.00116122
0.0039058
-0.0132299
0.0107201
-0.0122137
-0.0935647
0.000795465
0.00189535
0.00202258
-0.00825443
0.00434243
0.00187369
-0.0210612
-0.00135559
0.00336511
0.000471884
-0.0782475
-0.164408
0.00706798
-0.0111817
-0.0101275
-0.0422269
0.00173782
0.00175389
-0.0252363
-4.17475e-05
0.00178047
0.00190899
-0.137152
-0.0321247
0.00191527
0.00160437
-0.0197589
0.00330947
-0.00978521
-0.0312715
0.000297991
0.00736285
0.0017207
-0.0141487
0.00125611
-0.0226366
-0.0179489
-0.0055213
-0.0157601
0.000631511
0.00181221
0.00141407
-0.0161547
0.00203625
-3.71343e-05
-0.00712534
-0.0420685
-0.00048027
-0.0945848
0.00229835
0.00192419
-0.0990569
-0.018884
-9.20871e-05
-0.0211987
0.00167286
-0.0102118
-0.0163327
0.00380302
0.0121003
0.00082558
0.00177519
0.00195405
0.0120018
0.00164934
0.000763363
0.00189297
-0.00159131
-3.40786e-05
-0.025446
-0.00667811
-0.0212919
0.00158087
-0.000726903
-0.00016758
-0.012202
0.00378375
-0.000522012
-0.000888891
0.00216087
0.00200609
-0.00886125
-0.00685066
0.00687831
0.00128699
0.00125948
-0.00910423
0.00218426
-0.0107195
-0.00458128
-0.0557785
-0.000549136
-0.0199271
0.00222807
-0.10839
-0.0423855
-0.0749251
-0.0341028
-0.0109658
0.00470159
-0.00785671
-0.00715173
0.00816393
3.50451e-05
-0.00213327
0.000764145
0.010677
0.000845237
0.00131856
-0.000355705
-0.0143534
-0.0158881
-0.0140116
-0.0278831
-0.0301236
0.0036108
0.00355811
-0.00585117
-0.0100333
-0.00463786
0.000211281
-0.0170682
-0.0405212
-0.129219
-0.136267
-0.0095496
0.00246936
0.000885085
-0.157101
-0.0174367
-0.00478032
-0.00340416
0.00676255
-0.00898239
-0.00601574
-0.00930985
-0.00305871
-0.0118006
-0.00331703
-0.0338667
0.00190102
0.00200139
0.00211423
-0.00200405
-0.00710701
-0.00640288
-0.0123227
-0.0103
-0.00365255
-0.00189814
-0.00992824
0.0112291
-0.165991
0.000877744
0.00781148
-0.03942
-0.0207
-0.00440154
-0.0170075
-0.016641
-0.00164129
-0.00623556
0.00104541
0.00200083
0.00290369
0.0462492
-0.00053074
0.00241436
-0.0336067
-0.0524753
-0.0244865
-0.00589668
-0.00709518
-0.0195102
-0.00125317
0.00248462
0.000663009
-0.00138333
0.00113087
-0.0690946
0.00209534
0.00169782
-0.0123258
0.00267565
-0.000573043
-0.000249691
0.000700142
-0.0173532
0.00224619
0.000456197
-0.0116141
-0.036842
0.00295489
-0.00139382
-0.036676
-0.0330622
-0.0642959
-0.0123605
0.00193247
0.00107258
-0.0464132
-0.0186091
0.00237992
-0.00205605
-0.00932383
-0.0141125
7.18304e-05
0.00205799
0.00179958
0.00257867
0.00274929
0.00101161
0.00376115
0.00377561
-0.00713503
-0.00560423
0.000464126
-0.00866791
0.00293156
0.00225436
0.00259194
-0.037275
-0.0320594
-0.0226046
0.00968131
-0.0167777
0.00229797
-0.0418396
0.00275173
0.00821461
-0.0247117
-0.135991
0.000491777
-0.00238562
-0.00329528
0.00675592
-0.00286474
-0.0217503
-0.000556131
-0.0060437
0.000322926
-0.0367714
-0.0900153
0.0176304
-0.0135355
0.000103563
0.00187882
0.00177552
0.00602668
-0.00807772
-0.0515969
-0.0138571
0.00335269
0.00246585
-0.00197118
0.00090872
-0.135687
0.0180583
0.000848215
0.00154514
0.00359067
0.0017642
-0.00809117
0.00203538
0.00268708
-0.0112027
0.00192672
0.00224437
-0.000966877
-0.0252679
-0.0250724
-0.0070037
-0.0152201
-0.0508656
0.00274499
-0.0526171
-0.0156785
-0.0415489
0.00104343
-0.00612435
0.00798731
-0.00676156
-0.162471
0.00281325
0.00351746
-0.00384469
-0.00351268
0.00223824
-0.000364805
0.0183251
-0.00772996
-0.0257079
0.018069
0.00221675
0.00296327
-0.0128857
-0.0100211
0.000636639
-0.0355145
0.0332713
-0.0305228
0.0206191
0.00194213
-0.00484369
-0.137661
0.00565752
0.00041469
-0.00132884
-0.0114284
0.00189215
0.00182487
-0.0160778
-0.0173264
0.00359007
0.00379597
0.0023041
-0.0208768
-0.0322166
-0.155914
-0.0769881
-0.00508906
0.00108906
-0.00471972
-0.00832218
0.00151252
-0.0168554
0.0013939
0.00254298
0.000707204
0.000640436
-0.00309072
-0.00667979
-0.135241
0.000110076
-0.0304327
-0.0171181
-0.00369621
0.00199392
-0.0221488
-0.053155
0.00188666
-0.0708905
0.000606555
0.00863209
-0.0126795
-0.0013634
0.00145652
0.00342376
0.000417705
0.000340931
-0.000248996
0.00123648
-0.0651974
0.00144895
-0.0023009
-0.00469648
0.0023934
0.000231112
-0.00670847
0.00053506
-0.00302122
-0.0264207
-0.0290659
0.000387853
0.00264972
-0.00221725
-0.0280169
0.000794749
0.0160602
0.00599729
-0.025703
0.000115119
-0.000762048
-0.139793
0.00263851
-0.00970756
-0.0115408
0.00189283
0.00156769
-0.0150538
0.00151167
-0.00426272
-0.0571593
-0.0344579
-0.0066389
0.00150227
-0.00686812
0.00197343
-0.00502652
-0.00245713
0.0202479
0.00108275
-0.00943436
-0.0551012
0.0019794
-0.0115284
-0.00519415
-0.0156999
-0.156256
0.0047834
0.00307376
-0.0258314
-0.00348591
-0.0175012
0.0019399
0.00090485
-0.0242269
-0.0315295
-0.0990919
-0.000842036
0.00193908
-0.00560346
-0.0135586
0.0018419
0.000251138
-0.0126348
0.000385704
0.000894633
-0.00808061
0.00188845
0.00312391
-0.00753291
-0.00294703
-0.00466518
-0.0189418
0.00182862
0.000850602
0.0022971
-0.0093218
0.00180433
0.00302619
-0.0955915
0.00519532
0.0176398
-0.029375
0.00282277
0.0019015
0.0027039
0.00217278
-0.00270728
-0.000745838
-0.0028705
0.0038235
-0.011895
0.0023697
0.00180888
0.0012325
0.00619637
-0.000493323
-0.0708195
0.00251658
-0.0196735
0.00427852
-0.00757724
0.00405041
-0.0176682
-0.0331028
0.00331618
0.00068564
0.0431016
-0.0304957
0.00173201
-0.0138421
-0.022625
-0.00162792
-0.0124082
-0.00852047
-0.0147895
-0.00832827
0.0023409
-0.0283273
-0.00371397
0.00502782
-0.0441099
0.000110426
0.00195596
-0.0613877
0.0087453
0.000803264
-0.00932135
-0.0163125
0.00201534
0.00768705
-0.0606995
-0.000336756
0.00587833
0.00466714
0.00174495
0.0212513
-0.00723754
0.0147583
-0.00134082
-0.00121812
-0.0020203
-0.000821451
0.000688532
-0.0233906
-0.00853794
-0.000661791
-0.0102117
-0.0117814
0.0198205
0.00424956
-0.100498
-0.0215902
-0.0136175
0.000653974
0.00284848
-0.0202454
0.000559806
-0.0141775
-0.0620529
-0.0141401
-0.00709076
0.00319839
-0.00388766
-0.0124054
0.00117596
0.0022915
-0.0573212
-0.0179981
-0.000443704
-0.00213587
0.00499038
0.00291209
-0.0103743
-0.00540948
-0.00592741
0.00483805
-0.00147995
0.00846507
-0.00888143
0.000300318
-0.0794612
0.000666778
-0.0356433
0.0187017
0.044569
0.00347793
-0.0106704
0.00212326
0.00125332
-0.0125023
-0.14447
-0.00859066
-0.00123306
0.00143954
-0.00117006
0.0178149
0.0159055
-0.0114021
-0.0128747
0.00297652
-0.0443436
-0.0174183
0.00139635
-0.000233268
-0.00142857
0.000609117
0.000628197
-0.0117835
-0.000306128
0.00151789
0.00151206
-0.00229253
-0.0243781
-0.00448735
0.00168246
0.00535295
0.00185918
-0.0244555
-0.134771
-0.00539355
0.00196245
-0.00683967
0.00341041
-0.0082785
-0.00575572
-0.00339003
-0.048846
0.00217
0.000754173
-0.00648485
0.000951827
-0.0029866
0.00165312
0.00348352
0.00361326
-0.0089539
0.0169121
0.000841945
0.00249808
-0.00326014
0.000891861
0.00118137
-0.00359246
0.00647731
0.00583491
-0.00700397
-0.0089816
-0.000403616
-0.00422566
0.00655651
-0.00467071
-0.0978177
0.000392369
-0.00279293
-0.0367447
0.00356811
-0.028341
0.00219372
-0.00916432
-0.0398512
0.00200995
-0.0378888
-0.000367155
0.00117282
-0.0112819
-0.0895812
0.000714521
-0.00205714
0.00963796
0.00157246
-0.0249515
0.00198207
-0.000774551
-0.0511612
-0.022611
0.0440874
-0.138529
0.00252852
0.00160381
-0.00654032
-0.00241457
-0.00389501
-0.00941236
-0.00573922
-0.00324809
0.00196915
0.00203855
0.00256354
0.00211994
0.00332914
-0.0125809
0.00209832
0.00391643
-0.00889002
-0.00602713
-0.0281722
-0.0122792
0.0075405
0.00160148
-0.0368529
-0.0465666
0.00533975
-0.142365
0.000404888
0.00601502
0.000791008
-0.0268731
0.00212333
-0.0178952
-0.0136223
0.00195857
-0.00824055
0.0016703
-0.000561155
-0.0185639
0.00212797
-0.010712
0.00131946
0.00140823
-0.161633
-0.00253633
-0.00451516
-0.0206012
0.00146012
0.00110434
-0.0112985
-0.00705055
0.00259872
-0.00809271
-0.00302383
-0.0284757
-0.0231463
0.0425614
0.00143163
0.000698928
0.00074161
0.00127047
0.00122963
0.00927568
0.00112832
0.0017969
-0.00574679
0.000498053
-0.027396
-0.00632149
0.00180417
-0.00847333
-0.0315744
-0.0709007
-0.01116
-0.0277208
0.00304016
-0.0474569
0.00198593
-0.000265424
-0.00742004
-0.00639923
-0.00139513
0.00772377
-0.00908851
0.000144779
0.00302593
0.00656529
-0.00195386
0.00388992
-0.0169813
0.00635401
0.00152486
0.00358022
0.017805
0.00183917
-0.0553826
0.000171928
0.0037654
-0.00470092
0.0016974
0.00528318
-0.0127599
0.00769725
0.00212226
-0.0215325
0.00169073
0.00257962
-0.00250434
-0.00155023
-0.0577995
0.00198843
-0.0172309
-0.00403648
-0.00781041
0.000188877
0.00242507
0.00221433
0.0054211
0.00263619
-0.0178851
-0.000988029
-0.0378893
-0.0163546
-0.0228033
0.00215979
0.00212314
0.000780541
-0.017989
0.00196153
-0.0075725
0.00438014
0.00495079
-0.00331684
-0.00667229
-0.0138333
-0.00242115
0.00180962
0.00401777
0.0024026
0.00814198
0.000198387
-0.00640755
0.0240441
0.00522081
-0.025912
-0.002233
-0.0135919
-0.0031583
0.00157288
-0.000959916
-0.0124025
-0.0028337
0.00145993
0.000648209
-0.0138988
0.00109971
0.00712079
-0.00268551
-0.0253344
0.00242165
0.00499959
-0.00564656
0.00213914
-0.000469497
-0.00862563
0.00607309
-0.0048402
-0.00484366
-0.00846923
0.000700471
-2.13333e-05
0.00375431
0.00205751
-0.0119694
-0.00529783
0.00136025
0.00218825
-0.0387734
-0.0096727
0.00618768
-0.0199144
0.0021912
0.00376086
-0.0403501
0.00172172
0.0113092
0.00369786
0.000591289
-0.0478898
0.00181944
-0.148389
0.00240908
-0.0575318
-0.00287277
-0.00927141
0.00497244
0.004248
-0.0596837
0.00184505
0.000972579
-0.0266684
-0.00250364
-0.00181598
-0.00756117
0.00210712
-0.00718698
-0.062257
-0.0744451
0.00371144
0.0025958
0.00480193
0.00360873
-0.0144216
0.00146361
-0.0108029
-0.00866848
-0.0141396
0.00259579
0.00299774
0.0019451
-0.0344476
-0.024733
-0.0327815
-0.0131954
-0.024154
-0.00998108
0.00142477
-0.00233229
-0.000593785
-0.00213758
-0.00516922
-0.00246513
-0.0497171
-0.000201534
0.00274916
-0.00701264
0.00942884
-0.00396536
-0.165272
-0.0514464
0.00230955
-0.000598532
0.0146321
0.00209264
-0.017237
0.0214176
0.00281366
0.000726381
-0.0280447
-0.0310898
0.00247666
0.0016173
-0.0330928
0.0102304
-0.00749776
-0.00916619
-0.00462621
-0.00944128
0.00565867
-0.0164941
0.000404629
-0.0175852
-0.0210746
-0.0276828
0.000348945
0.0229417
-0.0647733
-0.0233164
-0.0105444
0.000853347
-0.0134648
0.000444857
0.00161887
-0.00594129
-0.0241828
-0.0058704
-0.0170739
0.00757397
-0.0069739
-0.00307049
0.00471734
-0.0135979
-0.00749841
-0.0150651
-0.0231654
0.00184284
0.032532
0.00157473
-0.0127662
0.0132485
-0.00949005
-0.0249844
0.00334099
-0.0151047
-0.00736604
0.0148697
0.000898886
0.00339216
-0.0366702
-0.00555116
-0.00407609
-0.0300359
-0.0219311
0.00171345
-0.00225424
0.00235962
0.002113
-0.017627
0.000431649
0.0175077
0.00037079
0.000507647
-0.126951
0.00714982
-0.00863487
-0.0261977
-0.0160894
-0.0253578
0.00120773
-0.010801
-0.0302467
-0.0232026
0.00318858
0.00102134
0.00485844
0.00100265
-0.00209718
-0.00725343
-0.000439456
0.00217459
0.00109131
0.00316651
0.00113661
0.00179144
-0.041672
-0.0552275
0.00191445
-0.00360878
-0.0270029
-0.00214932
-0.000731429
-0.000463473
0.00204574
-0.0459007
-0.0233359
0.0043786
0.00174367
-0.000822261
0.00132809
-0.0173823
0.00245452
-0.00576029
0.00188103
-0.0125236
-0.0145133
-0.000108876
-0.0412143
0.0194914
-0.00670402
0.00194001
-0.0320302
0.00169174
-0.00718897
-0.0194515
-0.0149024
-0.0170295
-0.0227198
0.00172743
0.00183945
-0.0225081
0.0181811
-0.0654705
0.00222927
0.00405044
0.00131853
0.00152689
-0.0120301
0.00146995
-0.0286018
-0.0115857
0.00278819
0.000815342
0.00664128
-0.0302624
-0.00942023
0.00170791
0.00271245
-0.00122649
-0.00275849
-0.0508935
-0.00980486
-0.00853465
0.0039885
-0.00838417
-0.0199559
0.000574622
-0.0187734
0.00195621
0.000896868
-0.0138585
0.00155267
-0.0265119
0.0133803
-0.00810845
-0.0436436
0.00159636
0.000942964
-0.0102114
-0.0142237
0.00139724
-0.0220309
-0.00863109
-0.00969355
-0.00982396
-0.016065
0.0020782
-0.0105432
0.00158994
0.00179694
0.00132807
0.000338133
0.0188185
-0.00306887
-0.0261885
-0.0513646
0.00229387
-0.0301359
0.00179004
-0.129488
0.00420562
-0.00221353
-0.138892
-0.00114058
0.000546519
-0.023849
-0.0158995
0.00206989
-0.159451
-0.0093134
-0.0195592
0.000805224
-0.00713888
0.004603
-0.00156334
0.00190389
0.00690307
0.00338557
-0.0157124
-0.0649075
-0.00541932
0.00164882
0.00350278
-0.000401961
-0.011477
0.00245102
-1.31882e-05
-0.0199773
-0.0219587
0.0175563
-0.000410275
0.00106671
0.00157854
-0.00650631
0.00163782
0.00351056
-0.00104263
-0.00951408
-0.0261504
-0.0177348
0.00206425
-0.0411076
0.00497226
-0.0323596
-0.0512593
-0.0143048
-0.012447
-0.00831771
0.00203826
-0.0281509
-0.000821952
-0.0154911
0.00157941
-0.00859026
-0.00853856
-0.0709787
-0.000781234
-0.00496965
-0.0654084
-0.0170434
-0.084447
0.00075556
0.00229005
-0.0170776
-6.763e-06
-0.00619669
-0.00574204
0.000822061
0.0268682
-0.00342716
-0.0190481
-0.0117591
0.00246397
0.00612949
0.0164693
0.00417158
-0.0579332
-0.00678785
-0.00518985
0.000949831
-0.00660689
-0.0513787
-0.00121389
-0.00393875
-0.00895455
-0.0115325
0.00208236
0.0130513
-0.0277063
9.11795e-05
-0.0283773
0.00215317
-0.139262
0.00276661
0.00169807
-0.0134394
-0.0738455
-0.0337733
-0.116883
-0.137246
0.00153284
-0.0156439
-0.096223
-0.00925307
-0.0796992
-0.0127237
0.00151511
-0.000178992
-0.00894452
-0.00779362
-0.0122768
0.000161369
0.0168131
-0.0275678
-0.00958038
-0.0692756
-0.0149305
0.00629916
0.00358024
-0.00463417
0.00162891
-0.046589
-0.0202789
-0.00258327
-0.0155704
0.0034824
-0.0330252
-0.0115237
0.00203479
-0.00882499
-0.00279889
-0.155446
-0.0331801
-0.0592179
0.000659607
-0.0131507
-0.0204058
-0.00346707
0.00280024
0.00204679
0.00342503
-0.00596123
-0.0264543
-0.00401342
-0.000346049
-0.0181112
-0.0315774
0.00226816
-0.00306409
-0.0158413
-0.0701565
0.00142851
-0.0585273
-0.00226083
0.00215701
-0.0116678
-0.0232695
0.000843079
-0.0206421
-0.11445
-0.00236143
-0.0132933
-0.0141653
0.002297
0.00458731
-0.00610342
-0.0517435
-0.0201634
-0.0393973
0.00205
0.000574602
0.0425456
0.00161877
0.000751375
-0.00580562
-0.0062998
-0.0218733
-0.00996954
-0.00899295
-0.0173987
-0.000613618
0.00827846
-0.0962731
0.00217126
0.00208206
0.00205765
-0.0101545
0.000572007
0.00107473
-0.00591411
-0.0111401
-0.0314303
-0.00832645
-0.0596486
0.00157227
-0.0577935
0.00203719
0.00161064
-0.0126693
-0.0138226
0.00157379
0.016275
-0.0178385
0.000635478
-0.00338784
0.00219268
0.00111161
-0.0265153
-0.0290567
0.00351847
0.00199264
0.00500688
0.000371663
-0.000708069
-0.00647948
-0.0096336
0.000292181
-0.00434365
0.0102412
0.00206172
0.00234933
0.00268987
0.000225107
0.00192585
0.00642259
0.00102856
0.00359725
-0.0104324
0.00066101
-0.00717111
-0.00750191
0.0020728
-0.0570806
-0.000353843
-0.0142129
-0.0504414
-0.00549968
-0.0199013
-0.00114232
-0.00652758
0.00790157
0.0032262
0.000257321
-0.00744265
-0.0212395
-0.012837
-0.00336263
-0.0022362
-0.0130479
-0.0146036
-0.00852414
-0.0124161
0.00173463
0.000398152
0.0158856
0.00320859
-0.0286678
-0.0197513
0.00805802
-0.102134
0.00146767
-0.00802409
-0.00363247
-0.00512535
-0.000988673
-0.0445151
-0.156126
0.00140739
0.0182627
0.00150579
-0.0661963
-0.00086647
-0.00748537
-0.00766769
0.00334894
0.00338474
-0.0518401
-0.0166531
-0.0115898
-0.0210327
-0.00501025
-0.0149502
0.000745322
0.0207305
-0.00691484
-0.0132177
0.00237638
-0.0964108
0.00217088
-0.0130705
-0.00448953
-0.0174754
-0.107431
-0.00613635
-0.00880108
0.00214021
-0.00397161
0.000381965
-0.151315
-0.00480328
0.00277661
-0.00237861
-0.0746282
-0.00923495
-0.00949044
-0.00197301
0.0065395
0.0070464
0.00204723
-0.000325312
0.00233848
-0.0237102
-0.0217208
-0.0411701
-0.0436281
-0.00562505
-0.0893319
-0.0110655
-0.00611721
0.00232514
-0.000704457
-0.00793192
-0.00399717
-0.0304176
0.00197461
-0.0137105
-0.0192041
-0.0167749
0.00192368
-0.114152
0.0116086
0.00539584
-0.0142023
-0.0152936
-0.0175817
0.000140257
0.00498498
-0.00819685
0.00214214
-0.0551618
0.00112375
-0.0127671
-0.154005
0.00342224
0.00160746
-0.00129823
-0.00348733
0.00183372
-0.118429
0.00269083
0.00681863
-0.0251113
-0.00128869
0.00420839
-0.0558565
0.00971604
-0.00675481
-0.0043007
-0.139677
0.00079349
0.00529903
-0.00404885
-0.0213714
0.00257981
0.0148543
-0.00896672
0.00272055
-0.00851039
-0.028062
-0.0121261
-0.0169443
-0.0520221
0.00185499
-0.00487334
-0.0827557
0.00207405
-0.00822244
-0.0700467
0.00510914
0.00202325
-0.0838569
0.00708272
-0.124683
-0.00010707
-0.00393122
-0.0294374
-0.0156635
-0.135198
-0.00837651
0.00453597
-0.0145637
-0.00971816
-0.00920569
0.00155935
-0.0450776
0.000787855
-0.00118653
-0.00311789
0.00401783
0.00140783
-0.0230954
-0.0312509
-0.0248473
-0.0284759
-0.00283407
0.00219808
-0.0121664
-0.0691667
0.000408427
-0.0113236
-0.000154293
-0.0995748
-0.138647
-0.0110655
-0.1538
-0.00441681
-0.00578572
-0.0591885
-0.0224017
-0.0124685
-0.10843
-0.0813266
9.53431e-05
-0.0602254
0.00180542
0.00170104
-0.150646
0.00183143
-0.00972742
0.0424187
0.00385751
0.00312306
-0.00173657
-0.00633795
-0.0637881
0.0177568
-0.146628
-0.0200023
0.00148644
-0.00245073
-0.0114776
-0.00374484
0.00397413
0.000872898
-0.0764251
-0.0371245
0.00146662
0.00133495
-0.00525896
0.00288826
-0.00522068
-0.0141495
-0.00216904
0.0020576
-0.0142923
-0.154616
-0.0129906
0.00684193
0.0418872
-0.00777287
-0.140337
-0.0089335
-0.0913779
-0.0215028
-0.00537336
-0.000342038
-0.00421838
-0.00550294
-0.0210065
-0.00134326
-0.000718957
-0.0256598
0.00181737
-0.00899125
0.00906592
-0.017818
-0.0412316
0.00310728
0.0304759
0.0407809
-0.00838977
-0.00174694
-0.0147912
-0.0207125
-0.015228
0.00194233
-0.0101554
0.00138219
-0.00905306
-0.00749112
-0.15236
-0.00726493
-0.00394684