/*--------------------------------*- C++ -*----------------------------------*\
| =========                 |                                                 |
| \\      /  F ield         | OpenFOAM: The Open Source CFD Toolbox           |
|  \\    /   O peration     | Version:  v2012                                 |
|   \\  /    A nd           | Website:  www.openfoam.com                      |
|    \\/     M anipulation  |                                                 |
\*---------------------------------------------------------------------------*/
FoamFile
{
    version     2.0;
    format      ascii;
    class       surfaceScalarField;
    location    "100";
    object      phi_0;
}
// * * * * * * * * * * * * * * * * * * * * * * * * * * * * * * * * * * * * * //

dimensions      [0 3 -1 0 0 0 0];
oriented        oriented;


internalField   nonuniform List<scalar> 
27882
(
0.51242
-0.369009
-0.14341
0.501238
-0.25998
-0.241259
0.27208
-0.533464
0.261384
0.159011
0.353409
-0.227963
0.349111
-0.121148
-0.426361
-0.10209
0.528451
0.185968
0.187664
-0.373632
0.1196
-0.331344
0.211744
-0.341337
0.113374
0.251544
-0.374917
0.123373
0.360192
-0.55731
0.197118
0.526679
-0.204872
-0.321807
-0.384351
0.0922848
0.292066
0.332828
-0.1661
-0.166728
0.10553
-0.430822
0.325292
-0.428793
0.148313
0.280481
0.151735
0.374945
-0.313186
-0.168744
0.382203
-0.276673
0.175069
0.137352
-0.312421
-0.427765
0.206521
0.221244
0.0328471
-0.0967479
0.0639008
0.0868005
-0.513162
-0.334135
0.540832
-0.206697
0.0919535
-0.0591064
0.13375
-0.0590307
-0.074719
-0.333358
0.103345
0.230013
0.265582
-0.161094
-0.104487
-0.182414
0.0272771
0.155137
0.477724
-0.388269
-0.0894546
-0.223001
0.170998
0.0520037
-0.141736
-0.191622
0.307652
-0.188052
0.0589779
-0.0981883
0.0392104
-0.172575
0.337685
-0.16511
0.269674
0.20805
-0.295688
-0.0886627
0.176536
0.0180741
0.201495
-0.219569
0.395768
-0.476376
0.0806076
0.464689
-0.258989
-0.2057
-0.189948
-0.164237
0.354185
0.507077
-0.23224
-0.274837
0.470333
-0.336732
-0.133601
0.520606
-0.361681
-0.158925
-0.190386
0.0200251
0.170361
-0.337952
0.148004
-0.194581
0.037612
0.156969
-0.0188193
0.0174321
0.00138716
0.510972
-0.363029
-0.147943
0.574491
-0.214299
-0.0105133
-0.0218675
0.0323807
0.183991
0.326981
-0.393845
0.171666
0.222178
0.0621002
-0.11905
0.0569494
0.378751
-0.286466
0.485647
-0.462978
-0.0226684
-0.155395
0.330464
-0.193449
0.164333
0.0291165
0.366484
0.119162
0.489186
-0.0789753
-0.410211
0.335142
0.135192
0.140423
-0.240538
0.00873797
-0.194495
0.185758
0.02425
0.464936
0.0721696
-0.0560645
-0.0161051
-0.0181169
0.402229
-0.384112
0.626627
-0.299677
-0.32695
0.0709482
0.194634
-0.545123
0.231937
-0.0279034
0.0173901
0.0244971
0.0649012
-0.0893984
0.145289
-0.399207
0.253917
0.166046
-0.282048
0.116002
0.240402
-0.267054
0.0266526
-0.0915346
-0.131467
-0.00302216
0.1594
-0.156378
-0.357182
-0.0594695
0.416651
-0.089793
0.379611
0.127467
0.13839
-0.140794
0.00240434
-0.180345
0.198419
-0.344699
-0.0124829
-0.000905555
0.213107
-0.212201
-0.545424
0.262945
0.282479
-0.119225
0.0204763
0.098749
0.196026
0.0549138
-0.135861
0.301907
-0.107208
0.247632
-0.125883
0.00665807
0.0188503
0.0243593
-0.0432096
-0.35007
0.509197
-0.159126
0.140153
-0.153446
0.0132929
-0.0169639
-0.0018554
-0.248716
0.394006
0.523586
-0.101589
-0.421996
-0.338893
-0.135412
0.474305
0.1829
-0.166714
-0.0161865
0.399029
-0.371461
-0.0275683
0.178324
-0.380658
0.202335
-0.0726076
-0.117779
0.321348
-0.222223
-0.0991248
0.31652
0.310107
0.428942
0.0946439
0.0423469
0.0298227
-0.326759
-0.101006
-0.150767
-0.0438146
-0.0181958
0.0370461
-0.152522
0.238698
-0.0861757
0.446791
-0.279154
-0.167637
-0.138594
0.441914
-0.30332
0.155073
-0.146335
0.282455
-0.475042
0.192587
0.47715
-0.47361
-0.00354052
0.117442
0.203906
-0.192506
0.0156688
0.176838
0.177815
0.00508466
0.556007
-0.26467
-0.291337
-0.00874029
0.186733
-0.177993
-0.344957
0.496627
-0.15167
0.551339
-0.387376
-0.163963
0.136963
-0.139985
-0.211849
-0.333575
-0.508422
0.0740229
0.434399
0.00493951
-0.0142274
0.00928792
-0.224549
-0.169296
-0.505131
0.343004
0.162128
-0.422547
-0.0858752
-0.0783572
-0.0838295
0.162187
0.0163045
-0.0127926
-0.155837
-0.526831
0.274874
0.251956
-0.234491
0.244615
-0.0101242
0.0172158
-0.0237894
0.00657362
-0.140665
0.536434
-0.352486
0.481803
-0.129317
0.12906
0.0993792
-0.228439
-0.40469
-0.0656653
0.470355
-0.192484
0.00967645
0.182807
0.129312
0.00907808
0.440339
-0.157884
0.504864
-0.280263
-0.224601
0.200456
-0.183303
-0.0171528
-0.23126
0.0787371
0.0128757
-0.00793619
0.170356
-0.159488
-0.0108683
0.0600795
-0.0177326
-0.0465662
0.158081
-0.111515
-0.250737
-0.306573
-0.0537212
0.110616
-0.0568948
-0.0161501
0.00904815
0.00710197
-0.0131262
0.0172611
-0.00413495
0.0542503
-0.258824
0.204574
-0.37201
0.0965398
0.27547
0.172953
0.291736
0.134062
-0.145951
0.153509
-0.0133555
0.0544261
-0.132783
-0.235452
-0.0235313
0.258983
0.250501
-0.0308598
0.0944731
-0.0636133
0.356042
0.0301024
-0.386145
-0.0108992
0.0199237
-0.00902446
0.0341023
0.0259772
-0.162489
0.0261082
0.136381
-0.548226
0.248045
0.300181
0.414491
-0.0584485
-0.0748553
0.016923
0.0579323
0.00992128
0.00638321
0.454561
-0.343011
-0.111549
-0.0171382
-8.9179e-05
0.0172273
0.408609
-0.136529
-0.164055
0.176309
-0.0122545
-0.144064
-0.273668
0.14687
0.091828
0.135925
-0.392232
0.256307
0.142456
-0.391172
0.0723155
-0.120431
0.0481159
0.0919416
-0.0329637
0.229229
0.0475154
0.521177
-0.245246
-0.275931
-0.133302
-0.174394
0.307696
-0.0549111
0.117011
0.142367
0.164467
-0.10442
0.0641308
0.0402896
0.421621
-0.316654
-0.104967
-0.291485
-0.0967841
0.352135
-0.286283
-0.0658524
-0.0120585
-0.00490534
-0.140937
-0.0357443
0.176682
0.00285751
-0.0159837
0.277619
0.144002
0.0675221
-0.184601
0.117079
0.126679
0.0412957
-0.167975
-0.539934
0.219596
0.320338
0.235349
-0.314728
0.0793787
-0.169774
-0.00317383
0.172948
0.317392
-0.263142
-0.0178128
0.00575426
-0.494746
0.077051
0.417695
-0.195963
-0.25568
0.451643
0.182543
-0.128117
-0.1208
-0.070138
0.190938
-0.148102
0.427684
-0.279582
-0.401833
0.263239
-0.0194661
0.00856689
0.0940473
-0.364603
0.270555
-0.0343253
0.0133151
-0.0110365
0.555225
-0.375973
-0.179252
-0.103682
0.146273
-0.0425915
-0.468442
0.272478
-0.137442
0.426764
-0.289322
0.10696
-0.325469
0.218509
0.164706
-0.503599
0.0022924
0.390152
-0.392444
0.0498271
0.342202
-0.444292
-0.182954
0.438977
-0.256024
-0.0810886
0.207768
-0.172991
-0.280036
0.453026
0.177782
0.022674
0.0395536
0.14299
0.0672659
-0.188066
-0.295294
0.393939
-0.0986449
0.242282
-0.00187987
-0.0663818
0.122653
-0.0562711
0.0662353
-0.0970951
0.345797
-0.25175
0.0396829
0.0940669
0.153432
0.0169243
0.240127
-0.0932569
0.062068
-0.414554
-0.483266
0.147883
0.335383
0.275254
-0.448245
0.0420258
-0.204008
0.161983
-0.0167967
0.0157426
0.00105408
-0.167919
-0.0181078
0.186027
-0.343202
0.262321
0.0808801
0.102446
0.322824
-0.42527
-0.153235
0.19526
0.00761272
-0.21236
0.204747
-0.342581
-0.170259
0.51284
0.0423525
-0.0960737
0.196786
-0.0786115
-0.118174
-0.477852
0.342025
0.135827
-0.261895
-0.200008
0.461903
-0.204632
0.496138
-0.291506
0.370723
-0.192399
-0.0168003
-0.000337905
0.517258
-0.253774
-0.263484
0.331169
-0.524122
0.192952
-0.172935
0.448189
0.463138
-0.0731403
-0.389997
0.155153
0.0201697
-0.175322
0.38029
-0.573892
0.193602
0.084862
-0.0603649
-0.396555
-0.0276745
0.424229
-0.221321
0.0728748
-0.233035
-0.242007
-0.363879
0.437902
-0.10247
-0.375382
-0.123152
0.190674
0.214283
-0.120595
-0.0936884
0.0687866
0.145497
0.0283845
-0.392264
-0.184871
0.0669858
-0.32581
-0.226556
0.357358
-0.130802
0.178157
-0.194825
0.0166684
-0.0323706
-0.00958884
0.0419594
-0.354246
0.12769
0.0885266
-0.332509
0.243983
0.119279
0.352874
-0.472153
0.315835
-0.208875
0.217781
-0.0290484
-0.188733
0.493076
-0.150874
-0.421289
0.283847
0.161713
0.171115
0.200637
-0.462532
-0.311894
-0.176248
0.488142
-0.434525
0.379436
0.0550883
-0.0450831
0.0184335
0.0266496
-0.244855
0.356346
-0.267819
0.397881
-0.436022
0.0381419
-0.168207
-0.044153
-0.151912
0.378894
-0.226982
0.277029
-0.439591
0.09701
0.0953083
-0.292994
0.197686
-0.122046
-0.340933
-0.535205
0.2592
0.276006
-0.559154
0.263308
0.295846
0.207684
0.250171
-0.457855
-0.450694
0.1554
-0.438191
0.0881201
-0.454733
0.120598
0.0116507
-0.0135743
0.00192364
0.114474
-0.233542
0.119068
-0.598477
0.338836
0.25964
-0.393402
-0.205074
0.0903612
-0.215119
0.124758
0.308952
-0.499274
0.190321
0.280951
0.240226
-0.16693
-0.235466
0.402397
-0.26077
-0.0659889
-0.0940408
0.429183
0.120021
0.25873
-0.40542
-0.029105
-0.210164
0.144026
0.0661386
-0.160098
0.0702455
-0.169217
0.0989715
-0.0771838
-0.10523
-0.0416373
-0.056551
-0.617492
0.300513
0.31698
0.25206
-0.224244
-0.0278157
-0.168206
0.161016
0.00718962
0.040348
-0.424915
0.384567
-0.113438
0.183684
-0.208568
-0.0268837
0.0418549
0.0687612
0.161387
-0.45919
0.297803
-0.300972
0.00667079
0.434127
-0.132082
0.062969
0.340518
-0.403487
0.0087106
-0.0148931
0.00618254
-0.0239472
0.19048
-0.166533
0.42375
-0.294614
-0.129136
0.0140019
-0.0171108
0.00310894
0.448617
-0.28723
-0.167936
-0.365786
-0.0307684
0.120957
0.356194
-0.197388
0.316593
-0.119206
0.0438983
0.330241
-0.37414
-0.0849506
-0.246393
0.156228
-0.411165
0.254937
-0.29858
0.101192
-0.172304
0.269656
-0.0973516
0.0512321
-0.115685
0.220886
-0.130524
-0.0783566
-0.326334
0.036941
0.350223
0.0488066
-0.267315
0.330284
-0.0303877
0.174881
-0.144493
0.502856
-0.193904
0.0990579
-0.0651751
-0.0338828
0.533047
-0.250915
-0.282132
0.18759
-0.177399
-0.0101914
-0.417564
0.10091
0.0159592
-0.0151386
-0.000820601
0.137596
-0.230327
0.0927309
0.113851
-0.331213
0.217362
-0.273325
0.101021
0.301273
0.122477
-0.41013
0.299733
0.110397
0.139882
-0.476615
-0.171093
-0.159827
0.201123
0.563165
-0.274135
-0.28903
0.212995
-0.193346
-0.0196492
0.00692977
-0.166757
-0.141241
0.230259
-0.021896
-0.208363
0.15133
-0.284632
0.189817
-0.0120019
0.000635414
-0.0232473
-0.169259
0.0891193
0.151008
-0.201518
0.209172
-0.00765437
0.195401
-0.45439
0.0108593
0.176731
-0.0145939
0.477732
0.0231513
-0.0592707
0.0361195
-0.130396
0.342419
-0.521548
0.17913
0.266979
0.296185
0.378148
-0.396265
0.223533
0.317299
-0.0587557
-0.0379922
0.258912
-0.130448
0.395652
-0.265204
0.213516
-0.035359
-0.00551682
-0.0735457
0.249689
0.248299
0.198492
-0.281724
-0.14707
0.301591
-0.198098
-0.103494
-0.354893
0.158936
0.195957
0.461808
-0.298297
-0.163511
0.285151
0.266187
-0.373565
-0.0365652
0.267304
-0.407639
0.140335
-0.421615
0.109721
-0.534929
0.295115
0.239814
0.159065
-0.487969
0.328904
0.261799
-0.255255
-0.00654437
0.0496749
-0.190848
0.141173
-0.212028
0.186934
0.0250942
-0.0979261
0.167507
-0.0695814
0.0656339
-0.16356
0.016235
0.00030898
-0.016544
0.215362
0.0287505
-0.162092
0.133341
-0.267261
0.474945
0.430992
-0.0356576
-0.395334
-0.403054
0.170814
0.158419
0.143172
-0.345412
0.212051
0.133361
-0.282715
0.196989
0.174
0.0158171
0.42732
-0.26611
-0.16121
-0.373761
-0.200131
0.13344
-0.0822084
0.284677
0.235929
0.211551
-0.0970771
0.55979
-0.288709
-0.271081
0.0099948
0.00802754
-0.0180223
-0.141378
0.253949
-0.206614
-0.35254
0.0132493
0.000752555
0.128078
-0.14431
0.0162327
-0.504095
0.402365
0.10173
0.31845
0.143358
-0.252476
0.469971
-0.217495
0.200494
-0.111374
0.221943
-0.513773
0.291831
-0.357192
-0.178014
-0.147121
-0.0153678
-0.0149136
-0.197114
-0.0830905
0.384389
-0.241933
-0.310385
0.209102
0.101283
0.165153
0.0770042
-0.242157
0.108125
-0.127853
0.0197288
-0.220215
-0.144222
0.364437
-0.608172
0.359972
0.2482
-0.0329133
0.226068
0.333722
-0.317557
0.361455
0.0393964
0.121965
0.294092
-0.416057
0.177049
-0.00605187
-0.242047
-0.366125
0.258647
-0.0934948
0.527252
-0.229329
-0.297923
-0.203898
0.180651
0.19734
-0.494528
0.297189
0.353597
-0.0862933
-0.015719
0.0143428
0.0013762
-0.168537
-0.330737
0.127311
0.373919
-0.50123
0.191971
0.0382882
-0.00576499
-0.292764
0.298529
0.285664
-0.433766
-0.465726
0.0823924
0.383334
0.503179
-0.324009
-0.17917
-0.0165946
0.184971
-0.168376
-0.0731549
0.0281164
0.0450385
0.213723
0.0755595
-0.289283
0.239692
-0.118137
-0.121554
0.175705
-0.168775
0.121853
-0.0495377
0.347213
-0.352049
0.00483591
0.0406117
0.156174
-0.0533346
0.400547
-0.510684
0.331338
0.179346
0.161622
-0.132872
-0.177182
0.243438
0.0157821
-0.25922
0.220305
0.0873469
-0.444288
0.261334
0.402911
-0.386503
-0.0164088
0.14171
0.298629
-0.51511
0.218316
0.296794
0.310327
-0.122663
0.457952
-0.120955
-0.336996
0.43108
-0.309116
0.0803368
0.377615
0.0111628
0.33419
0.267719
-0.367946
0.100227
-0.31762
-0.158634
0.476254
-0.544671
0.365831
0.17884
0.123182
-0.138681
0.0154991
-0.152447
-0.374384
-0.259782
0.456044
-0.196262
0.359223
0.125148
-0.484371
0.23889
-0.244655
0.0273809
0.37553
-0.239586
0.446107
-0.208374
0.196046
0.378445
0.347195
0.0352234
-0.382418
-0.200179
0.0256959
0.174483
-0.14449
0.100978
0.0435122
-0.0717939
0.0707308
0.00106316
-0.238379
0.0368607
0.385722
-0.38343
-0.356328
-0.061236
-0.0432888
-0.0298662
0.00010494
0.51979
-0.321733
-0.198057
0.509102
-0.142618
0.141521
-0.359502
0.217981
-0.0109808
0.525192
-0.137054
0.484249
-0.0852829
0.0230881
0.0621949
-0.139943
-0.185526
0.139636
-0.0103248
0.19806
0.32173
0.49119
-0.17274
0.111966
0.127726
-0.458031
0.258023
-0.133511
-0.255439
0.38895
-0.504906
0.217059
0.287846
-0.530763
0.309533
0.22123
0.046798
0.298999
0.0805827
-0.442264
0.3257
-0.374193
0.0484928
0.267019
-0.440088
0.173069
0.317004
0.110316
0.190299
-0.0145945
0.493311
-0.119392
-0.164005
0.431024
-0.424173
0.106553
-0.251376
0.18494
0.0664364
0.338119
-0.14275
-0.19537
0.0378636
-0.258078
-0.248243
-0.132416
-0.00480479
-0.136133
-0.182776
0.229653
-0.0468768
0.235032
0.00840616
0.29693
0.100542
-0.397472
0.469627
-0.310562
-0.471893
-0.187544
0.272744
-0.0852002
-0.29096
0.103416
-0.0262075
0.00727417
0.0189333
-0.0498277
-0.0545928
-0.247091
0.447728
-0.285711
0.285773
-0.190465
-0.0147198
-0.0601354
-0.534031
0.245321
-0.283877
0.448583
0.357022
-0.345859
-0.430502
-0.114169
-0.135814
-0.254483
0.390297
0.452563
-0.155633
-0.124635
-0.186982
0.311617
0.433977
-0.00956658
0.173899
-0.376778
0.128536
0.336716
-0.477381
0.209185
-0.216578
0.00739263
-0.0179306
-0.0538633
-0.429516
0.294749
0.134767
-0.218029
-0.287103
0.428393
-0.26952
-0.158872
-0.394421
0.134638
0.270079
0.119884
-0.389963
-0.410623
-0.442739
0.286438
0.156301
-0.511236
0.183453
0.327784
-0.307394
0.220363
0.087031
0.128752
-0.292652
0.1639
0.292941
0.135452
0.137577
-0.167965
0.482886
0.0572193
-0.402059
0.34484
0.158217
-0.00478503
-0.209744
-0.335378
-0.233026
-0.297737
-0.221267
-0.120638
0.341905
-0.110529
-0.422935
-0.0141586
0.249508
0.0273517
0.185643
0.503931
-0.133688
-0.370244
-0.125807
0.389926
-0.264119
-0.00781799
0.223597
0.33241
-0.355415
0.2428
0.112615
0.494024
-0.19459
-0.299434
-0.519761
0.165985
0.353777
0.249913
0.277339
-0.196145
0.19524
0.0827024
-0.293766
0.211064
0.211545
0.126575
0.388539
-0.252613
-0.167851
0.296603
-0.347912
0.442516
0.160047
0.302581
-0.462628
0.0168005
-0.00514985
0.491302
-0.216801
-0.274501
0.276326
0.278899
0.2457
-0.383004
0.137304
0.504063
-0.356008
-0.148055
0.15083
-0.186575
0.245378
-0.180422
-0.0649555
0.283718
0.1636
-0.447317
-0.172361
0.284778
0.122813
-0.0142949
-0.108518
0.357319
-0.215797
-0.272237
-0.160949
0.433186
0.245896
-0.412826
0.0565721
-0.228188
0.171616
2.36368e-05
-0.0701233
-0.164368
0.442555
-0.316997
-0.125557
0.0824895
-0.350292
0.267803
0.253869
0.250194
-0.177806
0.164304
0.0135022
-0.338334
-0.181428
0.340234
-0.257744
-0.360738
-0.173292
-0.0464925
-0.340845
0.387337
-0.0736793
-0.155287
0.228966
-0.169489
-0.156242
0.325731
0.483777
-0.152607
-0.33796
0.309077
0.133478
0.121524
0.217967
-0.339491
0.385345
-0.139645
0.184351
-0.483396
0.299045
0.464987
-0.147983
0.0403022
-0.117153
0.170469
-0.194968
0.0244989
0.00716478
0.0100964
-0.0112847
-0.0149228
-0.390976
0.1385
-0.434586
0.484342
-0.0497555
0.00453856
-0.31512
0.34976
-0.0346407
0.195266
0.296035
0.172235
0.330621
0.240928
-0.367361
0.126432
-0.14674
0.0196525
-0.187013
0.167361
-0.130777
-0.373318
-0.0772374
0.368991
-0.463032
-0.445769
0.315755
0.130014
-0.466219
0.167922
-0.313711
0.149907
0.00830936
0.235847
0.156188
-0.392034
0.270154
0.15661
0.220532
0.182042
-0.190782
-0.470126
0.186249
-0.00809174
0.383002
-0.0573024
0.368508
-0.12758
-0.33218
0.486666
-0.154485
0.299229
0.235342
-0.135963
0.253093
-0.397157
-0.13719
0.299918
-0.217216
0.115911
-0.257647
0.289842
0.159649
-0.449491
0.0265947
0.0450984
-0.0716931
0.00270555
0.0135295
0.32261
-0.208758
-0.445261
0.272326
-0.263457
-0.0795544
0.255196
-0.198623
-0.191093
-0.0702098
0.261303
0.0842126
-0.203763
0.119551
0.135922
0.028906
-0.164828
-0.106586
-0.225096
0.331682
-0.333784
0.372952
-0.039168
-0.0880691
-0.406677
0.186542
-0.016072
-0.136777
-0.495445
0.205092
0.290353
0.0781822
-0.194771
0.116589
-0.0718593
-0.0876963
-0.0736149
-0.163082
0.236697
0.140793
-0.265428
-0.174103
-0.134602
-0.138724
0.447511
0.232214
0.119921
0.265886
-0.19448
-0.0714055
0.153586
-0.403053
0.249467
0.197711
-0.17124
0.216312
0.141046
0.0254659
0.16138
-0.186846
0.299123
0.135561
-0.434684
0.354899
0.0953092
-0.450209
0.149725
0.229711
-0.316761
0.270268
0.106483
0.487498
-0.311134
-0.176364
-0.121557
0.55385
-0.267142
-0.286708
-0.0253685
0.144896
-0.0107287
0.208879
-0.32683
0.117951
0.233473
-0.356947
0.123474
-0.0455408
0.213334
-0.167793
0.23819
-0.362275
0.124084
0.0498716
-0.364991
0.165036
-0.243441
0.0784055
-0.295338
0.291694
-0.124864
-0.16683
0.338572
-0.346012
0.00743988
-0.263495
0.483091
0.0831583
0.434268
-0.135145
0.0244245
-0.128652
-0.0781646
0.0145227
0.0121922
-0.0267149
-0.290508
0.347727
0.136002
-0.430615
0.164997
-0.238612
-0.0509033
-0.0352479
0.0861512
0.169647
-0.243128
0.0734809
0.151929
-0.418039
0.0375384
-0.328659
0.291121
-0.445899
0.000972652
0.444926
0.217364
0.336486
-0.474262
0.312369
0.161893
0.220441
-0.136229
0.355
-0.11681
0.319828
-0.23289
-0.0869379
0.0291566
-0.00186743
-0.0272892
0.575927
-0.308948
-0.299387
0.148654
-0.335933
0.187279
-0.0900801
0.131263
-0.409612
0.278349
0.37439
-0.165511
0.289197
0.14978
-0.0328829
0.0112218
0.0216612
-0.291832
0.458602
-0.16677
-0.271675
0.402938
-0.161525
-0.312736
0.00163144
0.106493
0.0401334
0.205244
0.42226
-0.291838
-0.130423
-0.458946
0.141062
0.317884
0.244636
-0.40188
0.157244
0.231935
0.0878935
-0.120772
-0.0132457
-0.43093
0.162853
-0.43509
-0.0171865
0.043437
-0.249276
0.205839
-0.330888
0.450167
0.487425
-0.30026
-0.187165
-0.10275
-0.233379
0.336129
0.0478828
0.196732
-0.284858
0.447711
0.497732
-0.331689
-0.166043
0.212583
-0.0206119
-0.133105
0.349418
-0.00380557
-0.130745
0.431735
-0.30099
0.020254
-0.0309047
0.0106507
0.50796
-0.356121
-0.151839
-0.0685065
0.00437031
-0.0962863
-0.271659
0.166331
0.0202105
0.483201
-0.0522096
0.349972
-0.0114
0.11938
0.240264
-0.359644
-0.158138
0.402775
0.0561361
-0.247229
0.286632
0.152643
-0.439275
-0.431422
0.291437
0.139985
-0.0113761
-0.270672
0.0152515
-0.00968443
0.308785
0.177723
-0.469555
-0.450061
0.173436
0.276625
0.105601
-0.315509
0.209908
0.318725
-0.170071
-0.0872714
0.456263
-0.135192
-0.25695
0.392141
-0.401247
0.374018
-0.224293
-0.390805
0.264998
0.292333
-0.465359
0.181927
0.283432
0.0601494
-0.138761
0.00554842
-0.194774
0.189226
-0.0825913
0.124446
-0.261132
-0.154787
0.415919
-0.0158151
-0.0170679
-0.250121
0.394168
-0.144048
-0.060699
-0.239796
-0.115096
0.290462
0.16814
0.265122
-0.440255
0.175133
0.502914
-0.324028
-0.178885
-0.415664
0.454509
-0.0388447
-0.262114
0.127512
-0.154269
-0.0402262
-0.0774051
-0.0670847
0.204771
-0.161334
-0.480529
0.313575
0.166954
-0.153341
-0.253103
0.406444
-0.232436
0.04966
0.205563
0.0562364
-0.0646317
-0.135677
0.200308
-0.445526
0.0695535
-0.418503
0.146407
0.272096
0.18137
0.316362
-0.00113971
0.00929149
-0.00815179
-0.0888374
-0.106881
0.195719
0.210501
0.444551
-0.458783
0.0142325
0.132494
-0.133176
-0.0289158
0.205423
0.282002
0.00445935
0.246971
-0.275885
0.0289142
0.189412
-0.295985
0.106573
0.523316
-0.170442
0.497978
-0.161262
0.0347946
0.057147
0.196423
0.0977374
-0.29416
0.325133
0.157835
-0.482968
-0.0580428
-0.131885
0.189928
0.0760974
-0.134161
-0.261758
0.395919
-0.221607
-0.302515
-0.222117
0.424314
-0.202196
-0.241826
-0.163594
-0.13662
-0.254631
0.391251
0.236472
-0.398581
0.162109
0.159946
-0.387866
0.22792
0.0966185
0.251102
-0.34772
0.143061
-0.340982
0.197922
0.212729
-0.200543
-0.0121863
0.338837
-0.355019
0.0161816
-0.0880116
0.284434
-0.212987
-0.122505
0.335492
-0.00623653
0.00509683
0.0126062
0.369597
-0.243971
-0.200317
0.0316624
0.0690709
-0.100733
0.321918
-0.295573
-0.0263447
-0.447912
0.267829
0.180083
0.451968
-0.161506
0.322327
-0.45938
-0.123553
0.306924
-0.183371
0.0218252
0.300093
-0.418523
0.454149
-0.0356254
0.123846
0.148899
0.336863
-0.193803
-0.110486
0.294704
-0.184218
-0.00562059
0.0347772
-0.0231709
0.240952
-0.522371
0.299765
0.222606
0.234006
0.13281
-0.366816
-0.0176545
-0.238548
0.256203
0.210806
0.285608
-0.462682
0.177074
0.0957498
-0.0375611
0.28533
0.143746
-0.429076
-0.0842664
0.196232
0.197639
0.0149432
-0.398718
0.258141
0.140577
0.27092
-0.429333
0.158413
0.215512
-0.431808
0.216295
0.3095
-0.172147
0.140733
0.00947847
-0.150211
-0.0459353
-0.419791
0.0752307
-0.336363
-0.187784
0.1341
0.0275218
0.279619
-0.032648
0.308377
-0.202777
-0.341389
0.236152
0.105237
-0.150247
-0.242635
-0.116868
-0.0726314
-0.161096
0.381021
-0.219924
0.0781049
0.0494902
-0.127595
-0.0238897
0.179042
0.266441
-0.394982
0.128541
-0.222493
0.0910988
0.131395
0.104584
-0.425996
-0.0338014
0.459797
0.196148
-0.176495
-0.163314
0.448923
0.372402
-0.224283
0.150604
0.0980127
-0.293421
0.195409
-0.282861
0.323209
0.487893
-0.188208
-0.299686
-0.319665
0.455205
-0.13554
0.38639
-0.232804
-0.256684
0.373524
0.492401
-0.391859
-0.153334
0.418456
-0.159684
0.430604
-0.0379912
0.367987
-0.133981
0.282889
0.155418
-0.438307
0.189769
0.0229597
0.218138
-0.150872
0.135336
-0.380502
0.245166
0.184102
-0.163933
-0.0260699
-0.348123
0.255028
0.497865
-0.429491
-0.0683738
-0.288219
-0.110499
0.146156
-0.0102338
0.278203
-0.518747
0.240544
-0.315093
0.440645
-0.125552
-0.256631
0.196236
0.0603951
0.501942
-0.320572
0.291948
-0.0715063
0.206997
0.106365
-0.313362
0.212322
0.111364
-0.323686
-0.0994594
-0.113137
0.212596
0.268847
0.125117
-0.393963
-0.0211286
-0.164142
0.412821
0.085044
0.341104
-0.00226605
-0.236291
0.152335
0.0839567
0.0760386
-0.0160625
0.0235732
-0.247503
0.229849
-0.291786
0.476137
-0.0898719
0.324843
-0.234971
-0.270585
0.356323
-0.0857378
-0.406072
-0.0396967
-0.0684566
-0.188174
0.207308
-0.337755
0.198879
0.275135
-0.474013
0.16073
0.127245
-0.287975
-0.381473
0.139647
-0.211102
0.371048
0.42191
-0.0355797
-0.219675
0.287871
-0.189859
-0.230955
0.339602
-0.108647
0.109097
-0.433105
-0.468663
0.329753
0.13891
-0.103058
-0.293858
0.396916
0.329871
0.141974
-0.00124155
0.230514
0.0783099
-0.308824
0.315312
0.172581
0.0166226
0.000143322
-0.0167659
0.0170189
0.201119
-0.195928
0.491896
-0.295968
-0.000177692
0.0767218
-0.464098
-0.0622677
-0.0230153
-0.333625
0.171932
0.499994
-0.246125
-0.0845514
0.291548
0.385161
-0.335289
0.115063
-0.353091
0.238028
0.0386694
-0.0895727
0.361296
0.131105
-0.188297
0.126855
-0.106379
-0.384805
-0.0308588
0.30736
0.138717
-0.446077
0.405221
-0.135142
-0.0219997
0.222003
0.0699447
0.230541
0.137967
0.316755
-0.0810478
0.454387
-0.311697
-0.14269
-0.419232
0.258283
0.307215
-0.146485
-0.122905
-0.268417
0.391322
-0.0670386
0.098701
0.20575
-0.389056
0.183305
-0.257189
0.0803427
0.176847
0.158262
0.290355
0.355135
-0.149384
-0.1414
-0.327263
0.34907
-0.234007
0.193714
-0.188166
0.337676
-0.107162
0.243068
-0.0692194
-0.173848
-0.209784
0.0291222
0.180662
0.137213
-0.392082
0.254869
0.221444
-0.376145
0.154701
0.461249
-0.237949
-0.2233
0.179244
0.24587
-0.425114
-0.345355
0.1144
-0.0253518
-0.426458
0.45181
-0.192964
-0.124261
-0.127115
0.234964
-0.494944
0.135341
0.500401
-0.340765
-0.159636
-0.411299
0.0916342
-0.00769262
0.0124305
-0.00473789
-0.383702
-0.0508845
0.0635364
0.319466
0.206674
0.0172167
-0.223891
0.300335
-0.150174
0.17564
-0.248497
0.427741
-0.201824
0.488684
-0.286859
-0.145459
-0.171476
0.316935
0.126974
0.263451
-0.390425
0.139442
0.345625
-0.115084
0.296344
-0.106932
0.240352
-0.369808
0.129456
0.0578126
-0.223912
0.0560542
-0.0913021
0.272657
0.218017
0.136983
0.271596
-0.43732
0.165724
0.270862
-0.441904
0.171043
0.385216
-0.248003
-0.139982
-0.261893
0.401875
-0.315083
-0.179446
0.199635
-0.311446
0.111811
0.155101
-0.287087
0.190178
0.290058
-0.480237
-0.107311
0.0569012
0.0504096
0.0122366
0.1274
-0.368944
-0.151596
0.482934
0.178477
-0.19923
0.0207531
0.0243678
-0.287733
0.263365
-0.165974
-0.00908305
0.175057
-0.18797
-0.122667
-0.142131
0.264798
-0.0123449
-0.00712123
-0.338539
-0.157162
0.495702
0.438223
0.32165
0.174488
-0.0916219
-0.202144
0.284791
-0.425252
0.140462
0.167744
-0.432414
0.105467
-0.189733
0.385365
-0.132682
-0.252683
0.431756
-0.284392
-0.147364
0.198516
-0.0200385
0.0391834
-0.0100931
-0.0290904
0.0350906
-0.0278165
-0.320298
0.177548
-0.316591
0.172064
0.144526
0.0896725
0.193722
-0.283395
0.190374
0.124821
-0.315195
0.206822
0.29512
0.530065
-0.219753
-0.310312
0.174901
-0.191266
0.0163642
0.305816
-0.37663
-0.041893
-0.176274
0.00281381
0.0131454
0.163628
-0.238408
0.0747802
0.0375236
-0.334544
0.29702
-0.163541
-0.316988
-0.180047
-0.0771427
0.34486
0.0868956
0.247911
-0.337782
-0.0737941
0.37297
-0.132618
0.25976
0.0353092
-0.295069
0.534615
-0.204374
0.258967
-0.135121
0.230941
0.107269
-0.33821
-0.202997
0.412041
-0.209044
0.257212
-0.246552
-0.0106599
0.251496
-0.400137
0.148641
-0.120786
0.356632
0.41802
-0.11066
-0.217653
-0.304718
-0.286132
-0.202874
0.489006
-6.74141e-05
-0.221319
0.221387
0.436104
-0.165242
-0.154434
0.302271
-0.147837
0.024905
-0.0730829
-0.343218
0.372562
-0.0293441
-0.0644902
-0.0633632
-0.373528
0.241446
-0.304756
0.34228
-0.166883
0.0126139
-0.358506
0.23772
0.23671
-0.363318
0.126608
0.0954505
0.190323
-0.144476
-0.197404
0.287076
-0.173261
0.173194
0.271628
-0.24726
0.0802169
0.185669
0.200369
0.0088157
0.295384
0.234681
-0.510901
0.186371
0.324531
-0.248012
0.295291
-0.0472782
0.200071
-0.384252
0.0107242
-0.291696
0.510012
0.315126
-0.115491
-0.422769
0.269428
0.165994
0.299048
-0.402106
0.235132
-0.156949
0.0142514
0.0180183
-0.0322697
0.248758
0.136587
-0.220435
-0.171481
-0.287806
0.146948
0.252258
-0.399206
-0.176444
0.414552
-0.148111
0.182437
0.0645321
0.320629
0.192777
-0.205683
0.0129055
-0.0690747
0.328835
-0.156319
0.378262
0.44757
-0.0453408
-0.210244
-0.0975104
0.307755
0.158144
0.249209
-0.407353
0.363496
0.00750182
0.186213
-0.0114982
0.00380554
-0.210573
-0.232166
-0.0607028
-0.035371
0.270118
0.144434
0.0118931
0.00803052
-0.0160002
-0.0403833
0.0563834
0.00700122
0.0321822
0.133986
-0.0656528
-0.0683336
-0.175935
-0.0138984
-0.324053
-0.353194
-0.158043
-0.156196
0.139793
0.0164029
-0.250973
-0.41594
0.247196
0.250205
0.136793
-0.386998
-0.13893
-0.0298044
-0.218208
-0.157737
-0.137226
-0.376548
0.0547716
-0.376505
-0.0621929
0.085281
-0.166109
-0.0124361
0.178545
-0.43316
0.228657
0.204503
-0.144692
0.12436
0.0203318
0.210514
0.0727907
-0.283305
0.430751
0.148967
-0.414538
0.265571
0.127707
0.267406
-0.395114
0.0322054
-0.125575
0.166186
0.374493
-0.447634
0.223559
-0.0337897
0.156374
0.0206759
0.00103217
-0.0161708
0.0160953
-0.00893054
-0.0514047
-0.1479
0.199305
-0.0177247
0.201157
-0.183433
0.201782
0.232486
-0.0157535
0.255042
0.00216958
0.272719
0.122933
0.168711
-0.390828
-0.220546
-0.0997523
0.0142802
0.112034
-0.126314
-0.0220953
0.222092
-0.0645136
-0.334693
0.226303
-0.465889
0.438367
-0.0584895
-0.0488214
-0.27807
-0.116912
-0.16632
-0.313435
0.167976
0.236463
0.148902
0.435457
-0.419433
-0.0160238
-0.401626
0.0924692
0.309157
-0.283046
0.160379
-0.410674
0.0778424
0.332831
-0.349399
0.532852
0.301191
-0.15536
-0.14583
-0.354344
0.115708
0.238636
-0.186837
0.0213589
-0.00147425
-0.0198846
-0.227709
0.231839
-0.335172
0.103333
-0.0711554
0.0473302
0.0238252
-0.212719
0.180882
0.0318371
0.160191
-0.0748123
-0.322608
0.39742
-0.194995
0.421298
0.250631
0.136201
-0.386832
-0.1603
0.426043
-0.265744
-0.278681
-0.19613
-0.190126
-0.278316
0.503131
-0.205656
-0.297475
0.0911081
-0.00624612
0.290415
0.129404
-0.419819
-0.164194
0.0276193
0.168528
0.165554
-0.280583
0.11503
0.197785
-0.0228832
-0.304038
0.0995908
0.204447
0.195384
0.104534
0.315261
0.130069
-0.44533
0.106336
0.194855
-0.140569
-0.250638
0.391207
-0.258417
-0.151685
0.410102
0.225432
0.131887
-0.332053
0.481735
-0.149682
-0.0357151
0.149053
-0.113338
0.180425
0.278731
-0.459156
-0.143191
-0.240988
-0.189925
0.430913
-0.25524
-0.175532
0.430772
-0.12802
0.328611
-0.27384
-0.480295
-0.0814504
-0.175642
0.257093
0.25624
0.127329
-0.383568
-0.412169
0.142648
0.329216
-0.0597211
-0.081073
0.269074
0.101375
-0.370449
0.30412
-0.415769
0.111648
-0.0353194
-0.0837302
-0.0629305
0.273444
-0.0320086
0.0101938
0.0218148
0.165384
0.0802996
-0.245684
0.45288
-0.291561
-0.161319
-0.428193
0.09614
-0.0231443
-0.0480112
-0.172327
0.143279
-0.281661
0.413975
-0.109855
0.23879
-0.169157
-0.0696333
-0.175192
0.485643
-0.163316
0.473269
-0.185907
-0.287362
-0.169176
0.461897
-0.292721
0.383576
-0.256602
-0.27606
0.361192
-0.0851323
0.315286
0.132199
-0.447484
0.418653
-0.147026
-0.203271
-0.170293
0.132016
0.267125
-0.399141
0.517936
-0.175517
-0.215198
0.459502
-0.244303
0.0797488
-0.406447
0.326698
0.239056
0.264075
0.40385
-0.14761
-0.425518
-0.00833967
0.433857
-0.032676
-0.0306251
-0.00891743
0.0395425
0.0471392
-0.380923
-0.0209339
0.0351852
0.389721
-0.326185
0.199057
0.00131249
-0.0466252
-0.419452
-0.0993744
-0.184828
0.166544
0.018284
-0.00329562
0.0135039
-0.0102083
-0.14661
-0.264393
0.411004
-0.24576
-0.0703812
0.316142
-0.325502
0.130186
0.0308306
0.249198
0.329802
-0.398806
0.0690042
0.407225
-0.260277
-0.145001
0.448249
-0.361448
-0.0185626
-0.168451
-0.00525434
0.160327
0.0228
0.0785557
-0.101356
0.110598
-0.335694
-0.487572
0.277828
0.457802
0.497731
-0.345327
-0.152404
0.106907
-0.326034
0.219127
-0.276662
0.394189
-0.117528
-0.022266
-0.0423135
0.192119
-0.149805