/*--------------------------------*- C++ -*----------------------------------*\
| =========                 |                                                 |
| \\      /  F ield         | OpenFOAM: The Open Source CFD Toolbox           |
|  \\    /   O peration     | Version:  v2012                                 |
|   \\  /    A nd           | Website:  www.openfoam.com                      |
|    \\/     M anipulation  |                                                 |
\*---------------------------------------------------------------------------*/
FoamFile
{
    version     2.0;
    format      ascii;
    class       volScalarField;
    location    "100";
    object      ReThetat_0;
}
// * * * * * * * * * * * * * * * * * * * * * * * * * * * * * * * * * * * * * //

dimensions      [0 0 0 0 0 0 0];


internalField   nonuniform List<scalar> 
18758
(
599.017
134.044
591.048
607.747
499.234
609.558
591.704
531.813
507.691
517.424
141.913
90.0187
359.705
548.342
590.661
597.723
91.524
630.351
592.316
564.85
152.387
458.985
604.689
609.111
464.516
89.4927
282.827
419.628
586.545
128.72
67.0719
247.194
537.986
62.7288
488.211
130.451
364.95
497.089
82.9763
623.583
100.165
509.086
127.456
577.482
595.665
70.9984
516.854
588.977
26.569
591.745
139.241
28.048
585.818
594.757
422.838
370.271
605.691
570.535
588.79
608.208
594.183
580.69
236.348
74.8209
588.858
42.9893
596.522
625.044
411.4
630.193
28.7401
46.2821
592.5
506.426
365.145
82.2033
126.45
98.2295
510.006
128.001
516.628
80.2264
96.924
417.982
563.586
438.19
539.303
503.21
234.921
437.634
36.3479
583.136
502.993
26.4705
593.95
609.026
627.559
579.88
99.8278
598.438
90.4449
563.678
625.202
609.011
42.3606
158.131
588.014
33.894
184.854
148.487
597.972
65.9442
573.783
595.816
556.836
394.601
579.561
615.894
158.43
588.432
600.758
132.52
576.329
614.572
28.4848
595.342
588.33
614.441
566.595
27.3741
588.821
578.289
493.129
27.7377
623.761
599.342
83.2461
598.777
577.395
531.719
553.388
99.9949
540.926
168.316
28.4393
500.402
38.3452
572.433
140.143
37.0641
27.8124
26.7307
586.316
497.821
100.432
223.428
515.875
561.506
423.335
135.947
72.3414
611.943
26.7861
37.5007
81.7946
612.562
612.312
44.6496
27.5672
84.6035
26.4605
586.386
586.594
138.37
195.258
602.012
593.047
406.954
77.45
575.161
626.431
594.053
451.473
573.416
34.8625
595.919
127.307
579.457
26.4739
162.446
26.6307
596.508
441.729
64.0837
627.919
569.163
563.873
590.599
26.5346
605.691
597.573
549.825
275.754
598.086
598.284
26.8299
604.022
486.7
27.6327
26.9483
595.847
532.083
591.135
600.356
573.692
627.225
594.266
529.988
615.504
108.942
62.4536
611.544
552.232
546.971
295.114
117.67
358.484
427.864
60.2763
605.002
70.1886
507.89
222.537
592.706
602.691
610.702
366.535
26.8107
566.288
555.761
597.155
372.213
584.42
593.418
35.519
220.132
601.197
611.739
607.508
598.476
26.4393
591.493
127.41
610.584
597.925
193.632
611.783
40.802
597.576
66.9334
574.105
614.074
599.934
439.039
265.924
258.294
613.773
578.91
585.116
587.702
280.721
30.1952
588.447
607.488
583.903
577.236
520.086
619.4
600.272
548.351
611.939
582.823
595.952
33.8965
590.907
607.975
630.831
581.787
609.869
609.613
588.46
576.271
605.462
603.705
593.565
581.914
115.673
573.594
603.568
30.0545
548.511
602.906
606.235
212.04
159.809
626.596
639.816
160.026
579.443
364.994
596.21
246.205
571.279
577.625
586.036
68.6145
625.548
225.472
542.172
595.605
578.481
427.419
39.1969
602.291
625.482
27.102
133.069
610.327
28.0659
387.165
476.56
27.1155
602.534
611.596
600.132
599.222
594.221
549.98
531.49
601.5
592.019
563.334
75.3509
226.028
600.532
257.064
110.47
610.714
532.17
154.874
427.919
105.512
434.535
596.795
27.0351
65.3155
581.356
563.469
477.255
601.577
579.413
560.355
78.2995
113.472
331.532
77.6955
601.707
534.612
593.578
582.77
26.605
407.257
271.476
359.228
102.547
418.219
594.872
51.7177
567.435
149.5
113.896
603.164
605.66
434.566
106.67
116.517
229.037
28.0761
556.084
85.7332
140.257
597.639
550.692
586.121
548.372
597.389
600.474
596.423
573.341
593.258
604.78
465.898
71.6424
539.09
55.322
55.7772
29.4039
70.3111
576.518
593.006
606.789
123.899
547.244
558.062
128.144
582.486
96.4036
610.701
84.8325
594.313
548.558
627.107
26.7426
249.35
99.9029
595.143
27.0016
491.961
596.954
549.3
594.617
319.084
594.282
604.19
109.525
535.728
555.685
593.998
541.046
514.796
47.9418
126.341
584.898
46.7815
627.22
547.944
435.032
605.313
60.143
587.655
511.355
591.388
399.455
549.9
596.005
27.1618
155.732
630.598
531.9
569.713
597.865
602.604
588.362
275.213
48.7872
578.864
527.321
83.2873
585.952
118.77
265.51
124.38
617.439
580.172
381.003
466.539
541.189
106.469
230.006
532.084
608.205
592.215
609.974
605.204
609.625
605.918
340.65
588.912
627.814
480.094
584.783
590.338
622.901
577.789
260.062
143.195
602.641
141.284
601.252
538.072
541.084
49.8222
362.106
596.626
597.753
48.1363
27.2894
331.394
608.589
85.2748
34.6627
630.89
605.849
41.8883
568.475
546.776
344.919
544.184
517.407
612.034
602.838
578.34
594.634
606.285
590.872
142.852
626.351
98.855
99.3117
630.575
626.315
583.825
528.835
581.747
91.5906
597.81
222.571
479.225
471.214
603.236
608.611
603.969
576.388
575.474
33.4593
34.1569
611.833
606.732
577.324
47.9766
626.945
626.837
606.031
627.676
608.828
604.882
587.176
597.872
589.46
597.854
622.807
376.93
51.4925
526.023
589.581
599.655
584.69
594.945
594.802
115.903
141.319
575.064
230.04
599.542
531.976
584.688
604.507
518.13
630.015
599.625
271.222
592.004
573.46
344.636
602.706
594.951
26.6463
616.359
302.181
211.461
599.908
591.048
430.76
530.129
582.538
602.213
65.9202
195.177
122.082
611.606
30.6441
628.283
594.948
597.252
577.34
157.315
376.073
606.44
571.113
576.526
62.2842
104.041
600.128
544.785
542.159
26.8654
500.223
437.023
609.776
573.759
582.33
603.293
609.959
626.822
611.252
511.962
371.248
131.556
272.379
436.971
555.901
597.247
612.678
95.9651
472.264
622.792
566.096
26.8142
32.7769
589.578
594.095
416.398
109.741
628.478
160.781
594.832
575.602
530.14
595.11
576.174
572.362
611.339
556.908
198.475
525.251
103.978
599.907
608.403
371.751
626.368
114.33
132.235
594.834
97.4895
552.275
585.855
84.6788
138.828
137.39
271.743
534.788
245.585
626.223
62.9158
29.9499
584.175
609.58
86.2743
546.528
462.983
83.2331
57.1607
590.488
135.607
603.352
565.294
586.407
607.536
516.854
140.492
313.744
539.024
587.841
627.761
561.326
565.336
582.704
352.315
607.922
431.114
565.842
588.345
543.047
627.244
539.525
598.062
611.358
35.6668
612.147
600.441
120.248
493.799
468.553
599.11
589.472
462.319
590.341
104.753
551.476
564.968
555.055
590.404
628.032
48.5988
627.225
249.451
529.013
571.86
30.2992
609.341
493.437
543.692
37.5766
554.346
98.9244
104.946
593.565
119.366
619.016
73.7914
589.896
567.392
27.8242
118.924
597.549
584.747
540.266
613.99
599.418
109.223
33.427
610.909
614.203
618.898
48.5311
371.869
386.921
611.464
339.274
565.818
588.362
537.801
95.6116
600.107
562.697
69.3052
598.054
160.595
592.572
492.428
600.762
616.348
535.882
587.961
583.131
604.886
29.0297
596.268
550.726
587.727
341.12
566.113
604.115
592.051
97.0059
235.049
474.464
606.2
598.818
502.197
27.5399
117.551
611.238
597.387
557.948
585.272
570.344
594.855
600.345
118.093
598.163
594.392
99.1768
611.954
104.727
403.958
65.2915
41.9082
92.7793
33.3478
594.912
597.718
583.999
611.402
599.601
612.782
608.319
562.821
75.0645
537.284
73.9838
551.97
599.708
477.823
463.724
449.363
590.985
598.323
616.775
29.1532
59.4045
196.564
592.832
587.595
574.463
169.021
27.244
75.1268
576.392
575.976
622.915
66.5655
575.902
624.947
566.029
77.8508
595.532
128.305
105.612
597.917
596.831
598.782
603.39
589.346
555.277
514.548
590.286
574.952
299.223
29.285
591.867
109.306
602.102
594.631
606.877
611.042
612.031
593.472
592.931
599.233
574.972
561.267
575.754
28.1241
514.688
601.297
603.486
91.8385
590.579
625.132
36.1323
599.416
521.399
535.069
595.656
607.039
614.222
561.885
513.811
600.046
91.5373
448.051
582.329
83.6964
561.149
375.438
626.186
78.4176
576.144
604.432
531.047
137.11
581.859
385.274
52.8874
611.693
535.549
625.09
586.052
509.505
565.779
602.829
265.551
600.308
608.432
92.7797
600.677
599.792
607.269
29.4258
603.406
606.542
514.84
305.311
101.599
457.995
146.945
602.672
627.471
596.126
55.7321
587.116
606.157
544.99
617.4
70.1919
573.735
584.049
69.5953
596.327
481.005
97.0435
627.543
590.377
191.553
582.571
30.4726
96.407
612.658
592.659
330.937
610.555
546.32
114.092
618.247
111.026
598.081
603.832
590.824
472.128
561.616
159.044
580.118
601.746
227.754
102.869
513.789
576.158
286.897
26.4252
270.629
629.156
26.4386
594.27
46.3067
314.608
611.736
561.337
573.74
105.197
609.598
37.0115
601.478
64.2312
425.096
610.466
627.984
594.48
267.983
70.4913
595.231
70.7477
595.005
599.956
117.828
594.51
509.646
608.14
533.728
602.679
608.14
601.472
609.514
411.669
565.485
459.386
508.825
576.366
594.662
92.4742
599.067
154.811
599.917
94.4185
536.715
131.475
610.899
604.171
600.32
28.5947
596.391
120.63
387.661
604.918
545.14
599.281
611.931
592.986
608.973
93.242
594.802
579.409
594.513
552.386
36.72
70.4806
590.144
606.684
602.601
579.167
597.35
549.127
582.638
594.846
617.076
613.832
401.082
559.219
594.078
617.232
330.02
590.695
274.3
58.2096
565.405
27.1998
582.993
613.566
609.051
529.565
439.391
615.114
523.181
116.322
621.431
327.708
38.9858
35.2691
577.77
582.512
593.679
89.1272
617.794
594.504
536.499
226.947
601.61
609.929
27.3423
556.637
549.827
552.729
535.177
640.684
590.904
552.494
594.376
584.072
548.767
575.489
586.38
122.974
580.823
594.352
96.5235
627.965
604.148
594.2
557.218
599.624
171.982
575.435
85.6729
121.43
44.6692
131.793
560.286
62.5035
96.0435
590.677
575.303
589.169
593.178
557.697
592.364
351.212
367.412
591.262
619.377
504.357
542.827
127.37
603.678
584.325
598.431
565.89
178.201
515.629
29.0413
597.612
598.432
578.619
538.367
599.331
378.747
579.886
550.197
111.363
410.793
585.702
588.364
592.721
564.257
612.274
104.729
408.459
29.1848
110.666
34.2409
579.152
26.6057
40.1918
37.6629
474.043
248.682
517.593
139.711
585.108
580.603
630.363
595.279
589.864
502.053
606.776
595.213
293.54
42.6192
255.568
106.959
572.905
83.1856
506.2
567.95
595.057
56.4566
500.228
605.006
511.399
57.1364
26.9829
26.9938
473.999
405.793
627.336
29.5657
577.208
111.35
117.509
576.61
548.822
582.984
592.252
591.673
143.268
107.467
398.286
581.612
602.992
592.359
112.022
567.899
122.592
566.46
140.399
145.159
519.008
134.414
364.553
32.4095
627.29
582.952
48.1131
524.344
597.919
136.011
132.743
596.59
599.481
137.103
588.949
568.027
38.3884
191.249
604.387
534.709
67.0753
535.61
535.442
536.324
122.99
521.748
610.672
602.548
129.176
607.994
52.0722
615.704
611.291
129.019
579.644
597.627
255.812
628.055
538.607
614.682
599.926
603.99
523.292
605.396
135.247
415.752
80.5191
30.2642
522.512
612.94
607.867
49.2909
523.028
608.18
120.481
473.461
249.178
616.581
615.837
612.79
609.367
603.242
624.229
594.44
600.228
595.705
146.184
559.478
129.781
577.944
614.591
525.209
54.6114
34.4944
121.303
29.732
119.191
365.952
37.3099
559.374
580.078
570.797
27.9673
602.712
349.836
146.839
534.546
594.179
134.575
599.814
598.2
597.072
530.301
66.589
44.3586
591.264
629.775
614.666
621.532
526.629
598.957
38.3583
569.724
464.483
575.809
596.34
624.733
41.8054
308.089
596.041
607.284
89.1607
621.602
596.66
617.736
603.657
602.73
600.043
614.463
100.488
551.571
415.669
564.209
580.572
335.634
573.328
428.137
584.798
527.473
390.353
136.543
580.27
406.086
36.3899
551.06
461.066
582.044
595.186
614.548
603.007
432.128
456.512
546.144
430.459
614.97
605.264
484.052
157.339
628.766
540.968
177.982
477.644
337.115
586.428
581.071
27.129
546.246
605.24
596.838
555.978
613.288
611.709
33.6069
584.181
598.231
595.536
603.944
31.1769
554.184
28.8824
45.6569
595.011
602.671
341.399
470.058
512.675
552.754
486.313
509.373
606.132
573.014
598.241
450.221
28.2705
118.476
538.725
109.696
330.784
599.376
143.285
37.8199
579.537
43.0856
594.101
441.904
589.748
292.81
489.334
387.572
475.727
109.341
599.618
624.955
31.1123
592.781
596.47
596.674
579.819
624.277
561.682
602.484
594.977
29.4425
162.823
599.118
580.184
361.833
89.6037
627.565
464.638
379.818
568.741
590.388
601.754
40.1238
579.194
456.737
589.303
611.686
514.759
28.101
600.094
104.966
94.9547
42.6695
563.462
603.171
594.189
600.933
596.971
146.365
125.098
613.906
111.813
468.875
584.507
583.591
598.285
132.242
31.6688
414.916
446.924
550.346
28.065
109.768
610.678
600.345
527.912
539.874
62.653
113.085
608.291
109.291
114.378
555.844
604.794
584.033
576.631
602.151
557.601
612.087
404.64
131.647
588.498
580.495
510.985
611.408
599.685
587.754
135.431
612.26
553.431
51.7856
565.153
657.257
566.861
588.796
591.388
594.572
615.975
599.316
588.218
184.443
535.136
550.367
455.147
616.625
116.752
362.875
594.376
47.6967
610.349
557.879
486.438
32.6996
559.316
536.442
556.979
420.742
627.384
40.1774
73.94
611.91
589.184
89.492
590.074
546.583
121.682
588.261
574.143
116.471
542.011
595.01
102.73
340.936
101.054
609.263
83.9124
535.044
624.891
453.789
508.006
601.732
431.663
65.6099
120.234
444.375
418.931
612.082
50.1485
132.026
556.684
69.0265
590.352
306.774
590.86
601.473
573.483
557.244
194.295
140.213
575.297
32.638
95.2127
32.1326
527.371
579.017
628.902
594.306
542.214
629.471
311.884
54.8175
29.6206
125.366
356.817
129.84
33.0045
595.764
565.464
40.1239
585.967
590.967
596.85
337.972
441.649
500.211
594.781
579.025
384.522
596.493
356.86
137.998
623.93
29.0821
613.476
133.979
207.225
29.5267
579.599
136.213
601.756
601.197
550.503
28.9208
462.442
457.095
589.336
596.921
327.265
53.8227
574.212
547.114
77.1287
84.8515
198.624
606.7
590.68
112.043
629.361
612.563
518.218
594.109
596.335
607.614
596.98
542.924
597.767
470.052
544.325
610.038
37.2409
27.5984
509.281
619.235
595.495
422.812
595.941
595.768
587.708
446.899
604.076
573.981
535.507
304.605
130.602
605.985
386.324
405.572
495.586
509.681
243.934
607.751
594.274
359.336
412.832
571.635
317.751
187.249
596.158
148.68
590.798
408.891
337.762
311.983
26.7201
588.53
599.578
242.592
567.243
183.729
483.644
141.193
154.16
607.214
540.983
599.27
381.263
553.877
28.7293
602.335
589.809
347.242
582.691
112.376
603.729
104.537
55.6243
569.467
38.9874
27.656
610.095
606.057
589.216
224.588
132.083
564.068
578.66
575.999
619.093
501.903
609.719
616.397
372.776
568.702
616.884
570.341
33.0013
63.9237
41.4256
585.032
680.584
535.055
549.653
438.056
332.402
28.4641
618.544
436.806
627.591
542.733
475.569
582.087
138.316
589.69
414.643
618.514
124.7
122.084
616.376
543.527
585.85
580.225
29.8921
590.02
586.524
574.776
585.095
610.798
541.784
595.588
578.331
599.391
600.162
176.24
123.352
36.6869
618.552
627.457
626.169
617.962
625.404
531.466
625.625
612.278
593.852
605.241
527.263
600.008
318.999
48.7503
550.402
41.7087
581.771
95.7971
426.386
344.202
603.296
190.951
592.263
588.486
590.122
753.296
587.559
603.813
691.499
587.698
595.251
407.248
136.593
536.729
606.036
591.391
297.227
557.92
55.1446
603.665
598.826
586.361
571.018
490.139
127.791
522.879
616.846
104.623
624.555
424.572
599.769
530.05
33.0552
599.378
579.807
478.463
356.67
624.978
605.016
615.129
480.072
592.599
133.116
590.39
544.105
509.667
28.9483
612.389
616.057
627.461
514.237
619.206
32.8824
271.2
494.126
104.866
596.228
110.959
588.002
612.555
425.025
399.437
551.738
116.519
52.7689
456.987
560.241
542.905
573.569
99.6544
587.754
587.191
350.004
572.703
125.822
132.028
142.277
111.081
114.155
362.235
160.862
574.969
581.41
467.683
586.92
616.618
600.436
27.2339
29.2955
132.613
505.87
520.012
114.747
603.273
648.092
616.022
480.294
598.381
625.159
573.452
531.326
186.272
543.298
513.706
615.621
588.279
74.8883
618.296
382.626
118.951
629.266
495.461
612.93
31.1734
592.888
390.395
577.226
578.876
516.715
425.258
46.88
580.952
121.786
563.893
589.526
589.797
603.439
617.066
594.817
52.2471
29.2982
503.321
605.792
593.824
593.79
593.26
590.08
589.326
130.903
125.023
603.653
115.406
613.311
559.389
562.681
545.616
71.7597
95.9408
116.224
624.583
590.521
602.827
595.948
586.106
596.642
44.4419
591.589
575.994
563.768
522.57
598.367
33.3928
28.0507
106.647
590.859
50.2779
617.261
110.96
243.504
561.332
105.71
545.619
576.031
608.491
593.7
534.276
414.019
586.191
142.748
583.427
536.658
466.85
553.903
594.68
137.883
545.324
349.266
594.211
31.6236
55.9782
90.4385
546.9
67.8457
525.846
593.279
619.979
540.242
584.357
595.567
97.9503
466.654
585.624
599.773
593.885
57.843
104.13
135.789
535.026
520.386
28.1628
82.3677
569.049
490.849
132.156
584.193
317.278
518.168
488.23
225.602
624.398
122.635
548.372
588.162
148.066
96.9424
35.7986
576.448
570.387
612.268
616.065
576.595
588.877
777.616
617.014
182.978
30.8093
126.1
137.463
525.574
53.6565
545.667
400.87
137.119
27.0578
560.046
572.229
602.355
591.336
624.014
599.925
57.3641
600.048
612.951
472.031
572.348
625.601
598.639
186.409
477.218
596.51
587.275
525.139
571.361
600.162
602.863
616.284
75.2674
533.719
413.932
516.235
594.331
625.253
84.8409
557.199
210.066
500.634
574.829
497.508
603.056
538.913
99.5568
298.16
470.449
563.014
618.333
485.721
151.782
104.902
121.262
532.511
617.548
612.318
536.553
568.803
26.6943
614.981
131.773
625.13
599.486
500.733
606.839
115.726
533.309
272.601
625.156
577.613
556.235
29.1462
617.907
580.441
642.05
154.67
145.554
138.635
152.355
588.704
430.562
524.165
546.526
27.6216
531.563
604.203
595.522
621.017
74.0853
31.4416
511.026
68.0094
620.09
604.034
581.374
575.013
406.276
56.4668
602.173
560.614
473.212
187.419
617.467
129.29
612.322
560.71
121.637
604.859
91.7974
308.339
114.053
141.071
608.991
551.986
558.731
27.2281
440.057
588.723
28.2198
184.523
629.643
557.559
54.0228
615.768
29.4528
48.5471
531.468
627.311
517.354
534.366
29.7023
613.013
583.389
567.296
234.119
30.6576
593.885
619.582
522.742
504.038
603.002
604.991
604.075
583.169
544.798
72.2342
587.819
592.197
610.344
543.81
535.638
580.85
312.116
129.564
91.8484
577.557
617.643
95.7051
587.779
569.389
54.603
557.613
132.565
58.5231
617.766
114.632
187.496
554.471
607.683
602.667
601.3
55.2804
127.039
585.911
41.9207
234.637
28.311
626.309
613.201
214.54
603.916
580.079
561.686
601.705
323.943
580.904
27.8765
130.855
609.297
307.21
492.781
34.9709
203.256
595.955
519.724
443.047
137.822
317.244
178.36
576.029
601.197
588.754
615.801
36.8849
229.668
603.414
79.7173
616.399
28.8298
599.41
138.302
551.368
47.2758
376.697
36.9305
27.9669
621.168
268.946
27.5089
563.142
28.4919
564.489
623.526
594.317
494.224
520.152
586.368
602.206
381.288
557.568
459.744
47.0953
566.583
587.215
601.48
419.675
619.646
455.602
120.96
287.37
133.713
561.38
559.745
547.547
565.324
537.739
599.981
28.8152
248.799
27.7458
580.558
591.471
564.143
294.884
566.137
616.113
571.934
546.152
555.065
591.486
107.439
591.976
32.864
613.41
162.379
270.326
54.4745
617.752
430.41
589.523
616.208
534.343
271.793
602.381
568.777
38.7558
591.176
529.556
129.993
526.253
104.756
581.223
124.828
511.013
46.5466
617.845
605.481
32.2917
607.831
110.578
518.083
478.663
37.7006
548.244
600.461
560.637
600.439
80.3096
31.1183
616.115
111.962
543.262
330.026
594.371
137.708
141.623
496.639
535.501
591.08
38.0774
622.991
45.2057
618.006
614.147
526.482
591.498
610.808
417.54
540.049
601.782
131.95
615.48
415.758
536.599
87.5169
630.078
600.089
477.916
602.605
602.674
518.035
225.25
145.575
138.686
135.087
616.519
604.424
603.407
604.027
619.257
38.8556
625.065
579.595
390.485
594.57
89.6626
603.178
616.449
26.8004
285.562
589.019
505.152
560.982
339.166
599.613
540.935
131.785
588.26
156.52
616.977
570.679
551.299
167.828
529.255
521.774
483.374
53.9132
528.096
545.408
440.801
84.4181
576.407
331.881
108.282
66.5148
35.5314
614.724
588.769
595.6
139.43
283.26
422.037
35.5585
618.09
75.2424
611.695
38.9998
594.909
453.312
586.304
571.127
571.435
428.589
518.476
565.889
578.96
414.053
535.06
604.126
257.97
565.903
566.374
604.613
54.5434
613.773
131.304
479.407
541.066
37.8801
509.322
410.824
616.51
595.737
34.4641
29.0011
258.546
602.034
533.895
48.549
414.797
588.106
154.002
133.157
121.473
616.786
262.421
612.248
585.681
97.6882
456.646
450.965
585.506
26.7196
508.486
132.341
514.147
599.834
599.443
587.852
108.383
614.218
126.327
588.081
109.614
619.198
29.8132
34.8646
110.291
119.067
556.083
591.786
599.407
592.513
587.762
576.368
34.9885
596.165
550.224
32.9035
113.2
118.863
507.108
463.166
609.655
27.3878
565.667
28.0564
559.778
170.329
494.263
432.356
65.3577
596.927
595.732
27.9178
144.276
351.192
539.589
568.661
609.543
360.925
603.819
350.319
601.927
569.017
119.542
562.026
435.306
613.477
35.5432
53.9579
513.602
479.787
27.9619
588.984
618.194
31.9197
36.1271
27.4597
604.131
574.147
332.301
53.201
28.6021
579.302
581.941
589.724
500.342
566.468
610.988
87.5558
604.026
29.3934
537.304
67.443
617.346
67.3443
70.2942
540.801
435.753
266.781
612.796
563.796
62.9247
605.272
570.402
591.21
29.3922
27.7106
603.516
28.9914
441.58
595.359
27.7606
549.842
551.549
29.672
26.6005
595.132
41.9277
550.672
618.614
29.4852
416.869
113.277
32.2241
600.612
27.0927
139.953
485.035
65.461
36.6697
33.2723
566.516
621.997
597.299
537.554
125.502
308.736
30.2792
86.3405
545.922
622.153
601.466
524.291
114.791
598.565
129.409
134.211
616.697
550.335
29.5277
555.198
313.634
46.4947
594.847
27.6601
126.421
57.0069
555.341
556.708
157.863
587.62
577.724
556.242
556.651
165.88
263.825
594.292
587.23
70.4933
573.983
527.822
114.063
185.48
29.4395
599.081
288.855
31.8434
545.193
557.879
613.805
565.705
595.751
72.5464
586.665
33.8311
584.241
591.349
26.761
287.772
618.345
597.038
126.458
123.924
593.713
610.396
617.741
518.977
432.605
479.874
613.182
547.208
556.72
137.581
151.052
119.848
591.684
291.35
81.0685
118.892
570.019
100.962
339.13
498.697
617.202
539.857
68.6677
547.095
704.232
31.8804
604.064
396.972
574.823
543.98
587.116
185.11
569.633
524.282
600.772
424.692
135.574
591.787
430.936
109.122
422.891
611.111
28.706
140.334
665.144
542.435
592.811
578.18
536.191
444.417
240.113
513.03
609.727
590.919
175.956
342.559
605.601
112.743
144.619
579.754
49.9193
35.2688
617.198
46.5431
56.4697
28.9992
32.8937
609.971
136.187
582.323
601.445
588.717
71.6009
132.607
27.1913
500.21
591.154
515.245
41.4316
540.997
120.961
626.642
590.932
33.1399
141.551
541.348
128.256
500.142
581.44
96.7431
110.991
337.915
124.173
583.461
585.871
591.143
592.064
486.713
358.374
34.7634
109.79
543.008
109.558
351.495
521.449
603.343
566.277
546.68
55.4956
614.838
539.474
120.933
485.079
43.7711
570.57
30.0682
601.171
584.386
126.059
466.03
563.725
563.363
53.5598
482.55
485.805
616.231
590.986
141.178
131.313
573.381
118.948
130.698
489.62
577.859
133.746
600.042
26.3809
536.98
27.5826
595.778
560.19
618.068
591.518
238.587
37.5698
88.6037
616.315
555.71
182.529
53.9109
165.969
512.505
556.041
66.431
444.066
594.446
602.763
119.45
370.229
43.0108
494.026
26.7542
616.886
564.558
258.05
586.895
595.796
91.98
596.264
584.87
567.121
584.103
95.2585
332.864
629.831
588.27
604.056
539.287
458.926
585.403
42.4974
27.1015
383.316
461.927
581.007
26.9858
583.747
555.552
610.241
566.394
455.686
536.514
577.593
586.327
584.461
444.123
139.585
580.07
618.525
108.872
567.382
493.08
29.3102
511.308
27.7006
603.568
519.506
582.322
237.596
616.135
114.629
574.872
552.993
543.716
570.767
559.215
572.722
558.949
554.921
554.373
599.944
587.027
26.9205
187.941
519.734
595.812
31.7062
121.776
595.062
582.981
557.382
571.218
299.499
123.109
618.836
27.3447
597.313
87.9489
458.898
597.485
560.26
581.061
595.069
615.365
580.884
106.284
131.25
461.943
134.341
540.043
585.88
487.697
55.2183
587.145
557.771
413.601
593.864
582.212
594.397
533.648
579.905
432.238
587.535
27.2596
510.014
136.894
588.491
111.455
587.568
484.649
601.185
529.091
551.716
131.549
52.0584
602.373
56.2112
159.083
129.982
576.152
86.5091
28.0181
29.8301
626.692
577.493
536.462
541.935
65.5727
132.003
597.386
143.249
583.201
585.074
600.899
350.663
563.219
522.026
550.826
463.294
499.063
512.767
605.222
568.004
28.8466
608.005
336.724
509.27
71.3556
481.26
161.172
497.097
594.393
609.706
27.2542
554.463
605.251
596.216
124.696
35.893
505.309
593.575
514.473
131.434
115.565
562.78
603.63
384.682
407.976
484.907
522.579
606.616
95.212
605.311
27.2217
126.384
454.536
116.986
252.768
616.862
539.668
102.249
540.543
582.19
598.161
566.566
37.1513
166.96
244.895
614.296
27.022
365.909
118.735
594.103
492.048
521.959
568.066
591.915
440.745
129.254
484.118
532.888
607.846
487.775
507.201
573.574
618.525
591.522
594.671
585.826
31.579
114.203
56.8053
536.349
557.49
628.245
60.1048
96.7361
88.9775
538.221
454.085
592.905
566.382
500.675
610.308
210.265
577.947
31.787
619.607
27.7278
580.827
284.749
165.34
330.987
537.507
628.418
33.0243
616.174
467.694
53.9194
526.06
612.853
98.6009
68.1521
470.697
499.518
516.454
585.534
617.464
532.054
616.266
205.087
382.865
36.4693
26.7862
588.608
107.179
603.025
578.781
406.463
619.051
600.745
598.495
603.78
217.198
548.937
528.386
579.591
585.387
605.112
543.36
531.984
583.916
521.864
513.229
537.909
149.003
577.13
567.093
102.529
486.384
417.806
445.217
397.472
437.999
416.506
34.4159
46.8266
614.088
604.107
544.656
625.328
577.325
448.317
617.905
32.2146
33.7775
69.2276
453.254
578.081
555.534
604.59
133.037
551.268
558.438
138.076
310.348
582.878
123.989
64.9609
168.038
397.092
588.363
493.564
611.777
624.88
247.06
39.6377
323.606
565.556
597.589
56.2439
569.572
560.567
624.936
393.911
618.666
531.238
578.806
597.733
578.373
29.8469
608.793
622.86
525.941
35.6818
263.753
615.708
543.351
558.848
392.251
81.3301
533.946
41.1347
135.536
171.498
58.4634
110.136
484.077
568.469
262.058
517.431
472.863
126.978
562.767
435.758
555.228
595.065
535.041
536.282
551.08
536.4
56.0408
28.6003
368.78
588.283
255.525
691.831
545.901
624.776
619.028
309.344
587.272
72.8213
519.067
611.992
521.842
545.627
434.07
157.202
587.134
170.534
591.178
362.673
625.316
606.123
104.843
150.595
39.9269
105.876
564.818
599.564
139.019
367.63
622.647
30.9847
351.329
225.329
582.463
133.022
442.364
418.124
320.313
150.784
179.028
585.133
587.897
605.68
549.131
543.202
580.893
45.9669
586.626
603.012
516.519
625.053
600.928
617.153
561.769
29.2187
533.172
299.619
138.405
28.5102
554.801
596.246
571.18
594.048
462.388
246.506
580.232
598.447
490.959
596.648
32.3367
633.257
585.087
401.168
524.662
184.779
41.0198
135.76
582.887
503.513
572.987
27.4004
438.676
32.6172
37.8207
125.438
605.782
128.833
48.6006
103.954
601.192
27.092
572.409
489.792
593.507
489.724
487.618
616.223
113.771
477.714
99.3329
507.64
115.954
566.377
34.5323
583.618
112.167
540.521
32.465
340.729
584.052
54.1793
33.9032
598.082
67.5589
556.14
517.023
589.339
558.313
608.94
554.787
34.2282
526.631
546.498
150.271
361.815
589.699
492.473
578.959
240.373
600.396
558.529
208.988
619.292
39.8554
541.966
336.314
566.269
98.9059
601.535
493.813
44.6356
521.925
60.6982
617.262
589.045
93.8083
184.715
573.325
600.282
573.673
32.1077
74.2897
411.295
539.476
540.129
497.564
587.328
36.2869
30.0635
27.1583
28.3589
619.245
571.303
492.241
32.9627
449.43
518.164
566.696
555.979
530.279
624.461
361.127
588.748
272.625
255.891
516.69
594.372
585.208
50.7175
492.593
558.11
337.435
582.497
577.132
337.449
36.8319
60.4869
563.06
57.8406
559.912
369.876
558.472
575.502
67.0727
291.194
547.474
551.704
439.438
554.4
352.133
179.241
488.931
574.261
580.407
609.224
581.63
154.573
599.38
415.348
347.172
261.882
605.18
335.595
30.8692
108.012
156.726
562.646
509.704
536.055
480.951
34.0687
27.038
63.2397
569.527
126.244
584.631
117.015
599.878
585.992
567.143
235.323
543.785
504.718
263.606
65.6635
594.688
529.569
514.183
597.375
205.88
604.905
219.833
556.583
594.71
333.507
91.8595
546.985
414.038
618.76
431.641
514.129
561.587
383.407
601.12
146.126
90.514
576.48
88.1705
489.621
588.985
383.923
610.569
34.305
580.558
588.356
616.894
604.416
231.41
532.489
105.041
584.277
598.645
495.577
337.795
183.779
576.634
528.977
583.831
567.764
593.923
340.005
582.436
412.803
576.817
268.097
526.227
612.188
542.781
306.251
576.618
599.977
597.205
539.035
586.295
560.409
580.979
184.944
620.478
32.1942
537.072
615.607
119.925
531.317
583.409
215.493
592.984
583.243
140.6
600.857
553.723
535.426
165.56
275.915
430.04
584.518
82.1221
432.359
538.03
526.285
598.396
38.1749
705.712
525.538
517.148
596.712
129.783
127.798
327.166
573.291
662.068
608.399
522.947
592.08
531.688
580.244
576.419
520.883
66.8946
39.9228
440.823
571.56
565.76
605.911
529.942
611.301
491.293
595.604
594.283
595.653
78.9802
608.259
64.2084
522.291
560.813
585.152
29.2904
579.414
593.837
590.774
524.219
303.117
39.5167
555.431
176.173
566.933
575.041
75.4759
600.359
594.965
31.1055
235.281
242.968
593.654
599.44
598.487
612.792
108.278
66.1559
622.907
603.057
150.678
596.23
601.317
456.847
518.715
405.324
566.669
80.7937
523.015
57.6526
79.3806
69.3095
61.3188
388.775
57.4476
578.253
612.748
469.679
583.174
160.299
227.56
591.855
588.562
585.694
573.297
602.32
592.836
96.318
591.457
598.259
600.768
569.3
589.117
589.637
547.622
26.6162
602.525
582.856
499.246
598.232
532.95
538.859
354.167
561.343
129.01
604.358
540.878
600.812
63.0587
59.3846
594.777
142.804
383.377
112.356
119.543
602.499
553.754
588.878
549.93
533.691
608.854
592.313
115.269
660.741
158.857
572.24
605.063
578.485
543.75
568.028
571.967
74.2412
436.961
300.438
603.907
594.102
303.258
598.525
604.658
567.108
572.469
605.483
559.893
552.245
38.565
597.321
69.9539
589.758
573.471
597.793
562.123
556.547
293.407
444.882
587.331
595.424
566.746
576.153
545.147
37.2482
596.347
319.399
572.327
98.9237
531.394
587.495
79.7575
599.978
593.046
56.5401
582.616
560.692
56.1021
115.086
590.574
586.2
577.625
532.481
504.378
589.356
37.2804
598.301
601.572
541.136
589.346
597.654
561.953
612.874
594.545
604.058
44.7735
599.715
579.893
528.503
571.076
587.033
32.5739
571.13
72.0853
591.798
585.931
562.756
313.327
585.501
605.755
271.095
560.807
109.289
167.105
128.79
586.734
317.303
587.508
428.969
572.527
193.526
159.45
101.997
595.124
585.659
109.494
556.452
591.248
311.265
410.811
598.455
588.128
605.731
605.929
595.752
604.573
620.786
242.842