/*--------------------------------*- C++ -*----------------------------------*\
| =========                 |                                                 |
| \\      /  F ield         | OpenFOAM: The Open Source CFD Toolbox           |
|  \\    /   O peration     | Version:  v2012                                 |
|   \\  /    A nd           | Website:  www.openfoam.com                      |
|    \\/     M anipulation  |                                                 |
\*---------------------------------------------------------------------------*/
FoamFile
{
    version     2.0;
    format      ascii;
    class       volScalarField;
    location    "100";
    object      ReThetat;
}
// * * * * * * * * * * * * * * * * * * * * * * * * * * * * * * * * * * * * * //

dimensions      [0 0 0 0 0 0 0];


internalField   nonuniform List<scalar> 
18758
(
598.641
133.945
591.047
607.542
499.396
609.557
591.703
531.821
507.872
517.531
141.858
89.9764
360.206
548.384
590.65
597.721
91.4584
630.352
592.307
564.452
152.689
458.404
604.688
609.11
467.987
91.0217
281.278
420.881
586.375
128.611
67.8869
245.428
537.988
63.1488
488.136
130.386
365.178
497.073
83.5385
623.567
100.165
509.226
127.443
577.368
595.662
72.1449
516.831
588.81
26.5576
592.086
139.193
28.0459
586.164
594.811
420.705
370.664
605.63
570.294
588.727
608.112
594.187
580.584
236.678
73.9377
588.856
43.158
596.525
625.043
411.969
630.193
28.7426
46.3352
592.498
506.117
365.142
84.0479
124.547
98.0072
510.177
128.021
515.815
80.7376
96.8008
417.982
564.156
437.468
539.285
502.811
235.355
437.036
36.3507
583.129
501.821
26.4626
593.954
609.019
627.557
579.903
99.471
598.441
92.7515
563.594
625.202
609.008
42.525
158.327
587.861
33.8999
183.395
149.166
597.974
65.3169
573.961
595.814
555.769
396.417
579.738
615.882
155.837
588.728
600.757
130.35
577.166
614.569
28.4468
595.374
588.387
614.439
566.031
27.3552
588.762
578.289
493.245
27.7613
623.74
599.342
82.097
598.826
577.377
530.85
554.511
100.04
540.74
166.504
28.4032
499.768
38.4754
571.896
140.078
36.9493
27.7933
26.7197
586.324
497.198
100.401
221.644
514.821
560.855
422.972
135.856
74.0469
611.937
26.7969
37.6237
83.455
612.53
612.308
45.0046
27.5488
84.5973
26.4573
586.388
586.411
138.381
194.467
601.997
593.045
400.041
78.1776
575.109
626.431
594.021
448.975
573.427
34.8376
595.924
127.187
579.297
26.4684
165.906
26.6226
596.509
442.464
63.6633
627.92
569.125
563.766
590.611
26.5306
605.692
597.722
549.27
276.49
598.087
598.286
26.8413
603.972
486.367
27.6159
26.9339
595.847
531.009
591.213
600.411
573.355
627.221
594.264
528.844
615.504
109.015
62.1463
611.523
552.271
546.606
294.633
117.467
358.194
426.475
61.1655
604.959
70.9941
507.397
219.639
592.708
602.694
610.676
366.806
26.7942
566.871
555.772
597.16
372.428
584.056
593.42
35.439
214.908
601.197
611.741
607.495
598.475
26.4362
591.87
127.381
610.552
597.924
188.89
611.757
40.8246
597.579
66.8172
574.022
614.072
599.931
439.435
266.295
258.81
613.769
578.969
585.118
587.703
261.589
30.2161
588.461
607.474
583.791
576.889
520.202
619.4
600.335
548.339
611.941
582.819
595.956
33.988
590.904
607.968
630.832
581.829
609.868
609.613
588.463
576.297
605.428
603.706
593.565
581.974
115.52
573.59
603.567
30.0021
548.529
602.905
606.234
214.912
159.646
626.596
639.857
160.066
579.374
365.309
596.205
246.234
571.39
578.011
585.836
69.1264
625.549
224.419
540.681
595.604
579.02
426.903
39.0484
602.294
625.482
27.0855
132.901
610.323
28.0321
387.423
476.657
27.1275
602.536
611.563
600.142
599.222
594.286
550.468
531.534
601.434
592.044
563.386
74.5268
232.5
600.521
256.245
109.827
610.714
531.978
154.713
425.756
105.462
436.026
596.796
27.0154
65.4144
581.349
563.484
477.315
601.56
579.402
561.22
77.3851
113.415
331.231
76.7581
601.708
534.738
593.54
582.935
26.5925
409.361
268.329
359.648
102.557
419.062
594.87
51.9645
566.82
149.427
113.89
603.164
605.66
430.337
106.601
116.857
221.494
28.0423
556.132
85.6673
140.938
597.641
550.742
585.955
548.444
597.387
600.432
596.421
573.34
593.262
604.801
466.074
71.8687
539.101
55.4853
55.9363
29.358
70.483
576.128
593.057
606.789
123.854
547.23
558.014
125.574
582.685
96.4737
610.641
83.8081
594.312
548.431
627.108
26.7467
249.496
99.8961
595.143
27.0087
490.777
596.96
549.192
594.618
316.442
594.282
604.19
112.623
535.491
555.654
594.003
541.036
514.909
47.6359
125.122
584.895
46.9794
627.221
548.772
433.831
605.311
60.5803
587.653
511.467
591.388
400.559
549.838
596.003
27.1399
155.661
630.599
532.09
569.405
597.866
602.604
588.366
275.67
48.6959
578.889
527.801
82.2556
556.864
118.406
259.157
124.005
617.432
579.844
381.298
466.473
541.175
106.585
228.718
533.467
608.204
592.235
609.973
605.2
609.621
605.915
341.192
588.914
627.814
479.596
584.783
590.339
622.878
577.561
258.662
143.564
602.591
141.213
601.253
538.024
540.134
49.6909
362.544
596.626
597.745
48.0327
27.3053
330.734
608.465
84.8455
34.7614
630.891
605.849
42.2571
568.086
545.637
344.335
543.892
517.92
612.037
602.832
578.336
594.632
606.264
590.87
143.26
626.351
98.7518
97.8581
630.575
626.315
583.829
529.183
581.621
91.2963
597.816
225.803
479.318
471.064
603.213
608.62
603.974
576.38
575.48
33.3963
34.1585
611.834
606.708
577.326
48.3747
626.946
626.833
606.03
627.676
608.824
604.864
587.127
597.866
589.424
597.86
622.776
377.32
51.3434
526.741
589.74
599.656
584.69
594.944
594.846
115.643
141.276
575.138
231.812
599.538
531.82
584.663
604.508
517.602
630.015
599.624
275.298
592.004
573.502
343.665
602.706
594.948
26.6482
616.347
302.463
210.93
599.91
591.048
430.434
530.14
582.453
602.204
65.9622
197.212
121.752
611.607
30.5847
628.283
594.95
597.251
577.486
162.845
376.465
606.406
571.065
577.423
61.6844
103.027
600.124
543.665
542.267
26.848
500.431
437.012
609.774
574.165
582.476
603.294
609.958
626.823
611.255
512.169
366.727
131.536
271.433
437.105
555.523
597.246
612.68
95.9023
465.938
622.773
566.408
26.8013
32.7161
589.58
594.094
416.02
109.373
628.479
160.555
594.829
575.602
530.145
595.097
576.198
572.252
611.34
557.079
195.631
524.821
104.257
599.957
608.398
363.28
626.362
108.765
132.812
594.827
95.7963
552.321
586.114
83.5088
138.721
137.269
272.244
534.775
245.259
626.223
63.3403
29.8956
584.22
609.54
86.3182
546.683
462.683
83.3381
56.7156
590.499
134.934
603.353
565.789
586.184
607.537
516.524
138.436
314.611
538.683
587.74
627.761
561.324
565.291
582.552
352.464
607.913
429.073
565.48
588.343
542.904
627.244
541.377
598.074
611.359
35.6048
612.15
600.461
120.345
492.549
468.195
599.103
589.504
463.074
590.368
104.481
551.48
564.612
555.06
590.392
628.032
49.1166
627.225
249.122
528.031
571.814
30.3083
609.342
493.946
543.092
37.502
554.385
98.9091
104.832
593.564
119.408
619.016
73.8729
589.93
567.448
27.8416
118.998
597.55
584.735
540.244
613.99
599.412
109.237
33.3844
610.899
614.203
618.898
48.2079
372.274
387.022
611.468
339.837
565.852
588.397
537.86
95.401
600.104
562.759
69.2585
597.804
160.287
592.598
492.651
600.759
616.34
535.958
587.959
583.322
604.881
29.0717
596.263
550.812
587.627
341.216
566.46
604.114
592.042
96.9749
235.232
474.058
606.199
598.81
501.896
27.5564
117.636
611.227
597.382
557.937
585.266
570.344
594.856
600.345
117.808
598.153
594.398
99.1024
611.956
104.278
404.326
64.6423
41.7205
92.8336
33.3045
594.909
597.712
583.873
611.393
599.6
612.782
608.319
562.814
73.993
535.981
73.8641
551.985
599.704
478.042
463.957
449.737
590.986
598.346
616.768
29.1351
59.4666
200.728
592.831
587.448
574.106
168.56
27.2576
74.5742
576.282
575.842
622.89
67.0573
575.892
624.947
567.858
77.3409
595.527
128.385
105.839
597.911
596.83
598.786
603.386
589.344
554.797
514.474
590.281
574.936
305.277
29.2641
591.859
109.505
596.802
594.715
606.818
611.029
612.031
593.44
593.008
599.234
574.96
560.968
575.749
28.1405
514.927
601.297
603.484
92.2774
590.594
625.132
36.2464
599.41
521.994
535.177
595.647
607.037
614.222
561.468
513.751
600.046
91.6299
448.757
581.959
82.7769
561.133
375.71
626.186
78.1869
576.211
604.43
530.352
133.533
581.939
394.602
53.0629
611.693
535.616
625.09
586.049
509.79
565.885
602.831
264.845
600.305
608.424
92.5854
600.646
599.793
607.267
29.4484
603.404
606.617
515.042
304.691
101.734
449.984
146.78
602.667
627.472
596.124
55.309
587.117
606.165
544.985
617.394
70.2676
573.722
584.051
70.0454
596.328
480.067
99.7124
627.543
590.373
189.431
582.346
30.4106
96.9379
612.66
592.642
330.898
610.555
546.391
114.447
618.247
110.311
598.077
603.83
590.822
472.259
561.692
159.307
580.125
601.752
225.205
102.737
513.592
576.236
286.099
26.4251
271.883
629.156
26.4376
594.268
46.868
313.942
611.718
561.937
573.726
104.888
609.601
36.9651
601.453
64.5369
424.029
610.466
627.985
594.473
265.324
70.6044
595.227
70.8052
595.006
599.955
116.89
594.517
533.622
608.141
533.744
602.678
608.14
601.474
609.519
412.052
565.591
459.269
509.5
576.395
594.672
92.4878
599.069
154.399
599.911
94.3703
536.764
131.362
610.812
604.008
600.319
28.5972
596.389
121.175
387.493
604.914
545.128
599.296
611.933
592.964
608.968
93.2408
594.798
579.232
594.518
552.506
36.6818
70.481
590.17
606.683
602.586
579.187
597.347
549.108
582.579
594.839
617.067
613.81
400.669
558.04
594.079
617.225
330.5
590.628
278.666
58.2005
565.429
27.2174
582.992
613.542
609.062
529.593
439.478
615.1
523.738
116.537
618.741
328.119
39.0886
35.1941
577.614
582.536
593.692
89.2649
617.787
594.506
536.363
226.324
601.611
609.928
27.3181
556.623
549.749
552.75
535.574
638.716
590.896
552.548
594.383
583.959
549.081
575.492
586.472
123.443
580.827
594.333
96.7324
627.965
604.148
594.2
557.177
599.543
170.018
575.048
85.7851
121.187
44.4259
131.589
560.199
61.984
96.2736
590.706
575.341
589.173
593.174
557.687
592.298
351.381
367.823
591.264
619.377
503.439
542.862
127.152
603.678
584.276
598.423
567.797
176.168
516.015
29.0815
597.611
598.43
578.759
539.369
599.338
379.072
579.954
551.148
110.958
411.173
585.631
588.364
592.722
564.242
612.273
104.975
408.743
29.1839
110.544
34.1877
579.223
26.6127
40.2527
37.7582
471.678
247.818
517.808
139.666
584.776
580.459
630.363
595.278
589.891
501.622
606.776
595.212
292.832
43.0264
265.52
107.248
572.208
83.2892
506.548
568.657
595.078
57.5358
491.417
605.006
512.034
57.376
26.9638
26.9769
474.09
405.811
627.337
29.5178
577.213
111.567
117.877
576.457
548.215
582.561
592.276
591.667
143.716
107.275
396.89
581.693
603.02
592.308
112.23
567.897
123.016
566.485
140.313
145.111
518.774
132.666
364.784
32.3439
627.291
582.823
48.2583
525.211
597.923
136.657
133.184
596.594
599.48
137.046
588.804
567.506
38.3877
189.238
604.321
534.817
67.2688
536.391
535.362
536.294
122.892
521.471
610.67
602.548
127.551
607.991
51.7387
615.703
611.293
129.353
579.971
597.632
255.057
628.055
538.555
614.682
599.923
603.987
522.153
605.372
135.789
413.53
80.5679
30.3151
522.614
612.942
607.865
49.3754
523.291
608.145
120.882
473.672
247.546
616.581
615.837
612.791
609.362
603.256
624.231
594.363
600.182
595.699
146.142
559.065
130.202
577.468
614.591
525.113
54.8909
34.528
120.529
29.7773
119.742
366.301
37.3476
559.323
579.993
570.988
27.9355
602.714
350.205
146.758
534.019
594.178
133.358
599.819
598.203
597.071
530.487
65.9244
44.231
591.271
629.775
614.647
621.532
526.519
598.963
38.3757
570.433
464.551
575.87
596.339
624.735
41.7093
308.22
596.04
607.259
89.0916
621.602
596.65
617.736
603.668
602.725
600.042
614.463
100.472
551.64
416.848
564.205
580.564
335.256
573.49
428.481
584.804
527.12
392.566
136.313
580.104
406.383
36.3136
551.207
460.3
582.037
595.178
614.544
603.009
430.657
456.753
546.256
428.375
614.967
605.235
484.496
158.313
628.766
540.755
179.234
474.912
336.221
586.428
581.05
27.1103
546.103
605.241
596.841
555.401
613.288
611.711
33.5832
584.459
598.265
595.481
603.925
31.1923
554.133
28.8439
45.388
595.02
602.666
341.749
470.202
512.67
552.791
486.289
509.2
606.13
572.629
598.025
450.447
28.2487
118.21
538.931
110.11
331.792
599.329
143.111
37.7439
579.368
43.2236
594.097
441.707
589.657
287.862
489.362
387.382
475.446
109.52
599.617
624.955
31.1701
592.735
596.47
596.672
579.812
624.264
561.643
602.485
594.977
29.4904
160.225
599.109
580.695
362.466
89.6812
627.565
465.133
380.065
568.882
590.417
601.757
40.0361
579.195
457.317
589.19
611.687
514.778
28.1301
600.094
105.131
93.4507
42.8017
563.429
603.172
594.183
600.934
596.967
146.805
127.657
613.907
111.348
469.039
584.509
583.604
598.297
131.857
31.6196
415.258
446.792
550.418
28.0929
110.015
610.677
600.339
528.335
539.884
62.1271
113.366
608.29
108.116
114.75
555.872
604.795
584.031
576.29
602.148
557.574
612.089
404.996
131.555
588.494
580.47
511.582
611.41
599.675
587.408
135.043
612.263
552.898
51.6564
563.473
642.854
565.874
588.445
591.354
595.088
615.973
599.313
588.173
182.435
534.394
550.431
455.633
616.616
116.451
362.946
594.39
47.4215
610.348
558.046
485.266
32.7337
559.968
536.292
556.961
420.974
627.385
40.1642
74.4649
611.911
589.095
89.3231
590.088
546.794
121.185
588.449
574.135
116.619
541.979
595.009
102.583
341.046
101.096
609.263
82.7922
533.849
624.894
454.738
508.645
601.706
430.963
65.7531
119.933
444.376
419.343
612.085
50.3948
132.439
555.395
68.8927
590.367
306.825
590.875
601.474
574.236
557.201
194.156
140.153
575.295
32.7058
97.7179
32.104
527.639
579.285
628.902
593.972
542.604
629.471
310.458
54.8813
29.67
124.542
357.175
129.675
33.0389
595.76
565.537
39.9737
586.074
590.986
596.848
338.014
441.54
500.433
594.777
579.016
384.657
596.499
357.092
138.275
623.915
29.1196
613.476
133.891
209.108
29.5121
580.121
136.495
601.8
601.179
550.545
28.8831
462.973
449.907
589.336
596.923
327.024
54.1225
574.219
546.531
76.9863
85.758
197.133
606.701
590.709
112.22
629.361
612.563
518.364
594.123
596.337
607.614
596.975
543.13
597.765
469.968
544
610.035
37.1759
27.5704
509.427
619.236
595.514
423.564
595.932
595.778
587.704
445.566
604.073
573.98
535.484
304.33
130.446
605.99
386.706
405.444
495.758
508.282
243.536
607.791
594.274
358.743
412.452
571.635
315.763
191.225
596.159
146.005
590.73
409.248
337.546
312.766
26.7061
588.436
599.574
240.261
567.821
188.393
483.209
141.361
153.781
607.06
541.174
599.274
380.757
557.308
28.7173
602.333
589.817
347.57
582.762
111.433
603.611
104.482
55.5762
570.465
39.0581
27.6272
610.092
606.059
589.156
222.431
132.019
564.077
578.66
575.947
619.093
502.043
609.715
616.397
372.88
568.67
616.884
571.018
33.0168
64.6555
41.5842
585.026
682.615
535.059
549.507
437.265
332.67
28.428
618.486
436.837
627.591
543.129
475.373
582.614
138.512
589.691
415.272
618.519
124.532
121.989
616.376
543.493
585.851
580.227
29.8392
590.016
586.517
574.795
585.191
610.799
541.813
595.584
578.306
599.389
600.159
179.547
122.476
36.7512
618.567
627.458
626.172
617.962
625.404
530.968
625.625
612.28
593.865
605.241
527.31
600.004
319.365
49.4571
550.521
41.522
581.784
96.5516
426.843
343.544
603.275
188.678
592.26
588.552
590.139
755.08
587.477
603.816
691.014
587.61
595.252
407.006
136.338
536.098
606.04
591.696
297.503
557.663
55.2487
603.669
598.79
586.353
571.542
490.31
128.12
521.205
616.846
103.085
623.655
425.316
599.767
529.815
33.1322
599.359
579.835
478.687
363.813
624.967
605.05
615.126
479.777
593.039
133.628
590.406
543.877
509.769
28.9901
612.387
616.057
627.462
515.302
619.206
32.8734
276.065
493.617
104.979
596.228
109.203
588.004
612.557
424.912
399.559
549.044
116.863
52.5339
466.195
560.01
543.302
573.442
99.4486
587.75
587.246
350.453
572.677
125.511
131.945
142.371
111.473
114.447
366.137
160.513
574.374
581.452
466.932
586.931
616.617
600.438
27.2421
29.2992
132.547
505.865
520.046
114.515
603.275
648.917
616.022
480.841
598.395
625.159
573.126
531.246
183.092
542.284
514.404
615.618
588.202
75.2258
618.291
382.231
120.901
629.266
494.478
612.932
31.1322
592.736
387.036
577.142
578.879
516.718
425.207
46.5728
580.176
121.616
563.86
589.524
589.809
603.433
617.065
594.823
51.8339
29.339
504.4
605.75
593.824
593.866
593.262
590.08
589.225
130.97
125.045
603.654
115.382
613.311
558.316
562.707
545.743
71.3746
95.7577
115.804
624.583
590.521
602.827
595.947
586.106
596.641
44.4946
591.59
576.084
563.754
522.138
598.363
33.3212
28.0801
106.562
590.876
50.1271
617.26
110.578
249.492
561.511
105.741
545.638
575.407
608.517
593.768
534.229
413.364
586.006
142.954
584.231
535.972
466.878
553.963
594.685
138.725
545.369
348.401
594.316
31.6803
55.8736
90.5532
546.855
67.9107
525.832
593.278
619.984
540.197
584.101
595.535
97.6012
466.407
585.516
599.771
593.941
57.536
104.292
135.616
535.132
520.388
28.1441
82.1164
569.065
490.614
131.742
583.997
317.663
518.446
488.353
226.263
624.402
122.66
547.677
588.147
148.02
97.0325
35.8478
576.397
569.957
611.859
616.065
577.488
588.875
755.653
616.998
190.935
30.7832
126.904
137.697
523.583
53.6703
545.809
400.386
136.772
27.0623
560.089
572.225
602.352
591.446
624.018
599.926
57.7524
600.051
612.95
471.998
572.362
625.601
597.983
181.755
476.877
596.51
587.265
525.704
571.197
600.163
602.863
616.284
74.8091
533.932
414.482
515.693
594.337
625.253
84.0983
556.477
206.983
500.851
574.842
498.305
603.058
538.673
100.888
298.661
471.011
563
618.333
485.803
150.922
105.124
121.41
532.571
617.54
612.32
536.728
555.148
26.695
614.979
132.079
625.129
599.488
503.554
606.84
114.627
537.551
276.867
625.16
577.704
556.384
29.1516
617.904
580.456
638.252
154.201
142.418
138.94
156.032
588.652
427.997
524.569
545.888
27.629
531.678
604.202
595.528
621.019
74.437
31.5019
511.091
68.5605
620.094
604.032
581.369
575.421
405.879
56.8218
602.168
560.627
473.518
192.415
617.466
129.39
612.327
560.49
127.015
604.86
93.1911
307.922
113.278
143.531
608.953
552.027
559.234
27.2051
440.116
588.727
28.1958
184.125
629.643
557.597
54.1824
615.767
29.4058
49.2544
531.616
627.311
517.376
534.685
29.7506
613.015
583.488
567.232
234.081
30.6507
593.889
619.586
522.662
503.56
603.002
604.999
604.077
583.137
544.876
72.3935
587.818
592.194
610.361
543.716
535.672
581.483
312.426
129.209
91.7651
577.568
617.643
96.0309
587.904
568.515
54.6251
557.036
132.721
59.8285
617.766
114.969
187.361
554.753
607.683
602.661
601.298
54.8094
127.356
585.901
42.0535
236.257
28.3403
626.312
613.201
218.885
603.917
580.079
561.687
601.7
329.958
580.903
27.8838
130.975
609.278
307.505
494.789
34.8725
197.613
595.949
519.603
443.028
140.146
307.394
178.238
575.995
601.195
588.565
615.801
36.7769
225.154
603.417
80.1951
616.398
28.795
599.27
138.958
551.405
46.9699
377.988
36.8621
27.9444
621.171
272.437
27.5295
563.13
28.4832
564.481
623.526
594.327
494.346
520.185
586.368
602.205
388.099
557.98
460.409
47.2648
568.566
587.103
601.483
420.099
619.653
454.951
125.105
287.718
133.177
561.419
559.784
547.627
564.514
537.758
599.979
28.7751
248.885
27.7706
580.562
591.471
565.013
295.281
566.287
616.113
572.312
546.03
555.514
591.49
107.361
591.977
32.8839
613.41
162.297
272.445
54.5577
617.757
429.513
589.527
616.206
537.407
273.7
602.38
568.814
38.6791
591.175
532.058
130.22
525.69
104.459
581.225
122.492
510.993
46.3089
617.845
605.48
32.322
607.831
110.802
518.015
478.763
37.8186
548.189
600.454
560.742
600.441
81.6804
31.0995
616.114
112.095
542.06
330.725
594.376
136.246
141.572
496.828
535.419
591.09
38.1884
622.991
45.2192
618.006
614.179
526.464
591.512
610.807
417.718
540.025
601.781
132.278
615.477
415.797
536.48
87.8399
630.573
600.068
477.713
602.606
602.672
517.994
229.255
145.546
138.93
138.254
616.519
604.423
603.41
604.029
619.257
38.7268
625.064
580.25
387.834
594.682
88.9846
603.174
616.449
26.8042
285.96
589.023
504.415
560.987
339.614
599.614
540.875
132.56
588.044
156.558
614.448
570.724
551.282
171.193
528.996
522.408
479.299
53.9603
528.115
545.304
440.899
85.624
576.289
322.547
107.7
67.2761
35.4797
614.642
588.783
595.599
139.352
284.351
420.886
35.4876
618.086
75.5298
611.52
39.1122
594.91
453.583
586.191
571.207
571.325
427.075
518.417
565.884
578.985
414.477
535.3
604.126
263.703
565.9
566.351
604.612
54.4537
614.236
131.516
479.518
540.956
37.8124
509.369
411.156
616.509
595.736
34.5572
28.9591
256.826
601.967
533.665
48.7285
415.397
587.982
153.911
133.683
121.919
616.785
263.736
612.239
585.514
98.1963
455.789
450.548
585.511
26.7074
510.723
132.099
516.784
599.837
599.441
587.841
108.73
614.215
126.566
587.988
109.181
619.198
29.8454
34.9567
110.366
119.429
556.231
591.773
599.4
592.606
587.772
576.192
35.0807
596.165
550.359
32.8501
113.433
118.834
506.873
463.259
609.653
27.3637
566.012
28.0828
560.071
170.217
493.803
430.901
65.056
596.937
595.724
27.895
144.285
351.358
538.71
569.205
609.551
360.537
603.814
347.898
601.922
569.081
119.945
562
433.446
613.478
35.6474
53.9722
513.303
480.033
27.9555
589.107
618.194
31.897
36.2327
27.434
604.134
574.107
332.782
53.5023
28.5783
579.314
581.809
589.722
500.573
566.471
610.99
86.597
604.025
29.3998
537.184
67.4569
617.333
67.8805
70.5486
539.38
440.969
266.865
612.795
566.562
62.3118
605.272
570.457
591.236
29.3777
27.6899
603.509
28.9487
441.85
595.326
27.7574
550.004
553.95
29.654
26.593
595.131
41.929
550.365
618.61
29.4437
416.923
112.867
32.1896
600.123
27.1015
139.898
485.097
65.4534
36.7748
33.2203
566.547
621.999
597.296
537.579
125.946
309.126
30.2935
84.8524
545.896
622.155
601.466
524.242
114.911
598.571
128.989
134.536
616.697
550.254
29.4832
557.701
313.88
46.4918
594.842
27.6378
125.961
56.7666
555.372
556.712
157.853
587.616
577.728
555.191
556.649
165.78
262.885
594.243
587.091
70.116
574.524
527.434
114.057
187.51
29.4517
599.084
290.37
31.9162
545.729
557.806
613.804
565.719
595.999
73.7739
586.66
33.772
584.235
591.35
26.7483
285.535
618.345
597.037
126.731
124.081
593.706
610.441
617.512
519.368
426.835
479.449
613.183
545.877
556.714
137.393
150.996
119.402
591.684
290.765
83.7959
118.378
569.994
101.283
336.362
501.71
617.177
539.984
69.6057
546.102
706.296
31.9091
604.057
394.28
574.82
546.831
587.355
188.758
569.15
524.355
600.773
425.302
135.259
591.789
432.344
108.927
430.683
611.113
28.6994
143.529
660.373
542.556
592.828
578.216
536.256
444.769
233.909
510.621
609.756
590.918
174.958
341.731
605.597
112.467
145.638
579.758
49.9032
35.358
617.194
46.755
56.7986
29.0027
32.866
609.972
136.383
581.975
601.476
588.327
72.2511
132.212
27.1992
500.34
591.131
515.521
41.572
540.869
125.191
626.644
590.929
33.1916
141.489
541.804
131.594
499.196
581.355
95.159
111.464
342.045
124.324
583.665
586.18
591.156
592.062
486.318
361.904
34.7214
111.409
547.499
109.422
357.051
521.982
603.339
566.29
545.367
55.6326
614.835
537.774
121.156
482.892
43.5909
570.967
30.0668
601.205
584.163
126.311
466.527
563.746
563.371
53.2779
482.909
485.412
616.231
591.005
140.693
130.842
573.528
119.495
131.024
490.53
577.855
133.847
600.041
26.3793
541.048
27.5904
595.787
561.436
618.051
591.517
240.243
37.4463
89.1375
616.315
561.279
184.949
53.9339
160.728
512.203
556.013
66.8426
442.372
594.41
602.763
119.745
367.694
42.8562
494.165
26.7474
616.886
564.526
254.362
586.749
595.789
91.84
596.274
584.861
567.14
584.097
95.6807
331.333
629.831
588.343
604.059
539.21
459.962
585.385
42.3041
27.1139
382.518
456.64
580.999
26.9674
583.599
555.085
610.241
565.841
455.876
536.638
577.575
586.118
584.639
446.614
139.558
579.833
618.525
108.675
566.517
493.374
29.2896
511.312
27.7223
603.564
520.337
582.069
240.922
616.135
114.849
575.389
552.84
543.7
570.763
559.215
572.718
558.947
554.919
554.373
599.946
586.748
26.907
185.134
519.728
595.817
31.6727
119.179
595.055
582.819
557.379
571.22
295.48
122.916
618.843
27.3643
597.315
89.8317
452.886
599.411
560.255
581.162
595.084
615.363
580.885
106.261
131.559
462.265
134.817
539.434
585.898
487.557
55.1602
587.142
557.774
411.858
593.833
582.407
594.445
533.981
580.351
428.854
587.506
27.2615
510.172
135.187
588.433
111.839
587.477
484.448
601.182
529.574
550.91
131.811
52.3184
602.372
56.1796
159.312
130.533
575.779
87.102
28.0157
29.8724
626.694
578.163
536.511
519.055
65.3543
132.013
597.385
142.971
583.269
584.849
600.898
350.708
563.214
528.314
550.387
462.08
498.483
512.922
605.222
568.012
28.8385
608.001
337.253
509.022
70.821
481.005
162.535
497.717
594.409
609.736
27.2346
554.305
605.252
596.211
125.031
35.9885
509.192
593.563
514.038
131.472
115.78
564.531
603.627
384.873
405.833
484.944
522.644
606.614
96.272
605.311
27.2366
126.87
455.182
115.597
252.049
616.857
539.642
101.816
540.354
582.039
598.16
566.712
37.1983
169.543
245.951
614.293
27.0326
365.648
118.794
594.11
492.099
522.202
567.436
591.908
440.951
128.979
484.758
532.885
607.847
487.868
507.344
574.42
618.523
591.696
594.687
585.823
31.6088
118.808
56.4363
537.606
557.664
628.246
59.6543
96.2877
87.22
538.314
453.151
592.907
566.349
503.174
610.31
212.221
577.953
31.7119
619.607
27.7023
580.814
282.449
164.423
332.922
543.54
628.418
32.9769
616.168
468.842
54.0558
524.912
612.854
98.6728
68.2344
470.373
502.919
515.213
585.298
617.442
531.73
616.266
203.693
383.292
36.4002
26.7873
588.616
107
603.027
579.191
407.128
619.051
600.747
598.494
603.814
213.755
548.841
528.401
579.63
585.43
605.112
543.353
531.714
583.894
521.798
512.777
537.863
149.68
577.132
566.33
103.076
484.725
417.075
444.017
395.845
437.308
406.887
34.3272
46.6093
614.103
604.11
544.703
625.328
576.834
448.692
617.885
32.1956
33.8063
68.5042
452.4
577.857
556.878
604.586
134.998
550.22
558.386
135.121
310.912
582.876
123.867
64.91
167.31
397.234
588.334
493.419
611.766
624.88
251.837
39.4901
321.028
565.554
597.583
55.7628
568.475
560.591
624.941
397.402
618.665
531.293
578.672
597.73
578.47
29.8322
608.801
622.861
526.386
35.5931
258.04
615.708
542.191
559.138
392.804
82.647
533.968
41.2879
135.501
173.14
58.1015
111.078
486.367
569.174
242.366
516.866
474.854
126.847
562.211
434.575
559.624
595.088
534.969
536.09
550.81
536.209
56.3412
28.6062
368.329
588.458
257.592
698.004
545.977
624.78
619.027
309.731
587.234
74.0128
519.142
611.983
522.127
546.735
434.364
157.992
587.133
177.851
591.175
363.124
625.316
606.094
108.056
151.815
40.0573
105.736
564.809
599.612
138.883
368.745
622.648
30.9608
351.685
225.557
582.302
132.928
442.563
418.291
320.843
153.248
177.69
585.052
587.79
605.68
548.389
542.933
580.872
45.779
586.56
603.007
516.839
625.052
600.907
617.153
561.735
29.2536
533.354
299.937
138.659
28.4725
554.899
596.28
571.529
594.056
461.717
243.292
580.305
598.435
490.207
596.648
32.2977
633.151
585.082
401.337
523.754
189.189
40.8355
135.677
582.906
503.717
573.008
27.4028
439.058
32.6324
37.745
128.339
605.782
128.612
48.8313
106.208
601.233
27.0987
572.562
489.786
593.519
489.536
487.478
616.223
115.498
476.871
97.2522
506.903
116.195
566.377
34.4421
583.927
111.99
540.365
32.443
341.152
583.928
54.0741
33.9457
598.077
66.8623
556.181
516.93
589.202
558.394
609.017
554.788
34.1696
523.575
546.157
147.742
361.976
589.602
492.048
579.192
235.383
600.396
558.551
203.284
619.755
39.7064
541.835
337.153
566.076
99.7539
601.523
493.652
44.794
521.678
61.2308
617.262
589.057
94.9389
187.145
573.323
600.278
573.944
32.0679
75.3516
410.401
539.297
540.055
496.741
587.342
36.3931
30.0213
27.1677
28.3463
619.242
571.544
492.902
32.8986
449.491
517.543
566.335
555.796
530.05
624.461
361.408
588.744
273.957
253.701
516.12
594.374
585.225
50.9218
492.564
558.122
336.056
582.516
577.106
338.006
36.7568
60.8945
563.093
59.0534
559.907
362.947
558.378
575.507
67.2052
291.567
547.451
551.459
437.648
554.315
351.33
176.421
488.445
574.083
580.428
609.194
581.642
154.223
599.375
417.477
347.64
262.196
605.177
336.403
30.9288
107.902
150.907
562.873
509.965
536.105
480.623
33.9737
27.0181
63.3007
569.601
123.813
584.641
119.566
599.874
586.035
567.128
234.428
543.917
504.901
261.89
65.4792
594.674
529.62
514.88
597.38
210.454
604.906
220.29
556.625
594.716
334.003
92.1357
547.123
412.317
618.826
432.1
515.976
561.423
370.391
601.115
145.894
89.3603
576.459
88.201
489.602
588.982
384.213
609.456
34.3641
580.54
588.365
616.891
604.416
231.418
532.526
104.927
584.265
598.64
493.362
336.879
187.695
575.845
529.168
583.908
567.822
593.921
339.605
582.416
412.929
576.762
264.74
526.11
612.191
542.884
306.774
576.667
599.977
597.206
539.244
586.299
559.997
581.104
184.409
620.481
32.2673
537.108
615.605
119.752
531.826
583.428
214.052
592.982
583.081
140.915
600.856
553.823
535.41
167.017
276.382
430.509
584.33
83.2134
431.158
537.978
526.37
598.382
38.0939
700.873
525.62
517.099
596.699
127.692
128.317
327.533
573.285
661.578
608.4
522.966
592.079
531.7
579.872
578.385
520.646
66.8899
39.8402
441.09
571.228
566.788
605.881
530.041
611.319
491.452
595.607
594.274
595.678
79.0384
608.255
63.9564
522.359
562.251
585.15
29.2558
579.415
593.85
590.771
524.121
303.156
39.3738
555.628
175.819
566.887
575.482
76.4953
600.355
594.977
31.1701
234.769
242.656
593.663
599.439
598.466
612.794
109.46
66.2232
617.888
603.063
150.856
596.221
601.321
457.128
518.454
405.037
566.724
81.2206
522.872
57.9733
79.3583
69.5759
61.2958
388.982
57.1775
578.834
612.748
469.995
583.175
161.959
228.216
591.879
588.62
585.837
572.656
602.32
592.861
95.2727
591.384
598.261
600.765
569.345
589.139
589.647
547.633
26.6068
602.522
582.907
499.333
598.235
534.148
538.877
358.536
561.308
129.038
604.36
540.949
600.809
63.0803
59.6822
594.771
145.395
383.003
112.507
120.647
602.47
552.689
588.913
551.742
534.026
608.849
592.301
115.703
661.564
158.775
572.242
605.064
578.494
543.96
568.004
571.966
73.8764
437.3
301.906
603.908
594.093
304.787
598.521
604.621
567.082
572.503
605.475
559.986
551.482
38.4859
597.326
70.1094
589.518
573.953
597.788
562.022
556.568
302.804
443.973
587.342
595.421
566.732
576.14
545.129
37.3501
596.337
320.04
572.353
97.2309
532.48
587.493
81.22
599.975
593.025
56.3433
582.606
560.681
56.3791
113.387
590.564
586.202
577.619
532.29
504.537
589.361
37.2517
598.283
601.574
541.181
589.357
597.645
561.632
612.876
594.534
604.059
44.9442
599.716
579.981
528.005
571.163
587.027
32.4912
571.723
72.4333
591.791
586.155
561.979
313.469
585.517
605.753
271.581
560.87
109.738
166.651
128.677
586.866
317.718
587.469
429.126
573.139
194.274
156.592
102.325
595.119
585.654
110.335
556.491
591.244
307.227
415.918
598.419
588.107
605.734
605.927
595.777
604.573
620.805
242.791
602.741
545.473
583.111