/*--------------------------------*- C++ -*----------------------------------*\
| =========                 |                                                 |
| \\      /  F ield         | OpenFOAM: The Open Source CFD Toolbox           |
|  \\    /   O peration     | Version:  v2012                                 |
|   \\  /    A nd           | Website:  www.openfoam.com                      |
|    \\/     M anipulation  |                                                 |
\*---------------------------------------------------------------------------*/
FoamFile
{
    version     2.0;
    format      ascii;
    class       volVectorField;
    location    "100";
    object      U;
}
// * * * * * * * * * * * * * * * * * * * * * * * * * * * * * * * * * * * * * //

dimensions      [0 1 -1 0 0 0 0];


internalField   nonuniform List<vector> 
18758
(
(1.01815 0.0115401 0)
(1.02578 0.0870754 0)
(1.00502 3.39307e-07 7.29946e-22)
(1.01946 0.010954 5.54047e-22)
(1.00903 -0.0149064 1.1431e-22)
(1.00772 4.78151e-05 -2.76671e-23)
(1.0164 -0.0047543 -3.54888e-21)
(1.02638 -0.0187033 0)
(1.00996 -0.0127753 0)
(1.01202 -0.0126577 -9.3601e-22)
(1.05536 0.059977 2.25533e-22)
(0.945695 -0.0737384 -1.01371e-20)
(1.017 -0.068818 0)
(1.03666 -0.0138705 0)
(1.01584 -0.00457013 6.04697e-22)
(1.01317 -0.00207053 -1.63358e-21)
(0.945454 -0.104706 1.09493e-21)
(1.01205 0.000442559 -1.12946e-23)
(1.01569 -0.00432148 0)
(1.01184 -0.0139258 -1.48318e-22)
(0.991295 0.164773 -3.79313e-22)
(0.992861 -0.0753992 8.59632e-21)
(1.00738 2.8518e-05 -5.52002e-23)
(1.00767 6.45074e-05 -1.26848e-22)
(0.986725 -0.0823419 -3.68113e-21)
(0.928673 0.0459904 -6.26182e-21)
(0.908125 -0.275419 -6.17439e-21)
(1.08306 -0.100577 -5.52798e-21)
(1.06361 -0.0254254 0)
(0.997666 0.116817 1.80936e-22)
(0.758056 -0.291206 -4.40556e-21)
(0.911427 -0.27639 -3.46392e-21)
(1.02596 -0.0181157 -2.98507e-21)
(0.807939 -0.0762687 1.50944e-23)
(1.00596 -0.0156058 -1.20201e-21)
(1.00889 0.117392 0)
(1.02396 -0.0740419 0)
(1.00698 -0.013281 -1.15452e-22)
(0.847426 0.300036 0)
(1.01428 0.00105503 -2.17456e-23)
(0.892361 0.0587785 1.3268e-21)
(1.01494 -0.0147246 -4.58129e-22)
(1.02005 -0.0536252 3.60072e-21)
(1.0147 -0.00164472 0)
(1.01045 -0.000637722 0)
(0.750733 -0.24455 0)
(1.01474 -0.0136002 1.00684e-21)
(1.0685 -0.0275983 -1.59278e-21)
(-0.032256 -0.230126 -4.20619e-20)
(1.02324 0.00967138 5.27637e-22)
(1.06078 0.0543163 0)
(0.221313 0.1561 -9.17605e-22)
(1.02399 0.00853443 -4.2038e-22)
(1.01706 -0.00579147 -2.04402e-22)
(1.02563 -0.0488173 -2.34208e-22)
(1.01259 -0.0617049 1.64768e-21)
(1.01319 0.000482432 4.57647e-22)
(1.01241 -0.0129463 1.44028e-22)
(1.06882 -0.0299491 3.12842e-21)
(1.01311 0.000571381 -3.98591e-22)
(1.00996 -0.000594562 0)
(1.0143 -0.00146794 -3.07366e-22)
(0.909871 0.281444 7.41809e-22)
(1.02682 -0.283171 -2.74208e-20)
(1.00978 -0.000584059 0)
(0.620739 -0.141766 -1.07067e-20)
(1.00728 -0.000155942 0)
(1.01208 0.000683922 2.15171e-22)
(1.07812 -0.104211 1.11444e-22)
(1.01212 0.000491597 9.03767e-24)
(0.212229 0.173911 1.0359e-21)
(0.773495 0.0446585 -4.19387e-21)
(1.01412 -0.0048507 -3.18968e-23)
(1.00836 -0.0233948 -1.00319e-22)
(0.955905 -0.0565302 4.27773e-21)
(0.770974 -0.272467 1.06789e-20)
(0.784688 0.242456 -9.3885e-21)
(0.953293 -0.174195 0)
(1.01134 -0.0136864 0)
(1.01687 -0.0712982 -6.22988e-21)
(1.04936 -0.0346988 -1.07367e-20)
(0.840176 0.292436 4.30258e-21)
(0.97065 -0.154033 0)
(0.984506 -0.0458835 -1.66707e-22)
(1.01839 -0.00174422 -7.34491e-22)
(1.03659 -0.0471767 2.40672e-20)
(1.05344 -0.0147302 0)
(1.00626 -0.0230106 3.19858e-22)
(0.900523 0.285817 -3.461e-21)
(1.0378 -0.0506126 -1.59777e-20)
(0.286948 0.226217 9.65128e-21)
(1.00999 -0.000419518 6.40307e-22)
(1.05818 -0.0367255 0)
(-0.0252914 -0.235638 3.11025e-20)
(1.01403 -0.00460733 -7.39338e-22)
(1.00896 -0.000608749 5.77148e-22)
(1.01344 0.000786341 6.74047e-23)
(1.06078 -0.0319649 -1.56658e-20)
(0.919426 -0.185176 -4.44375e-21)
(1.01197 -0.00332538 0)
(0.771172 -0.239843 0)
(1.00179 -0.00878098 -8.62785e-22)
(1.01212 0.000681988 2.02932e-22)
(1.00894 -0.00060252 -6.60153e-22)
(0.612342 -0.135415 -3.57704e-21)
(0.964856 0.164828 3.12646e-24)
(1.06753 -0.0247637 -1.6867e-21)
(0.244058 0.204975 0)
(0.81122 0.242502 -1.39684e-21)
(1.01496 0.186905 -2.88616e-21)
(1.01359 -0.00199659 0)
(0.949684 -0.243829 8.61691e-21)
(1.02513 0.000146425 9.45586e-22)
(1.00631 -1.7604e-05 -6.27146e-24)
(1.00131 -0.0101574 -1.83582e-21)
(1.15896 -0.163987 1.35053e-20)
(1.06058 -0.0324042 7.62499e-21)
(1.01289 0.00107408 3.55002e-22)
(1.19183 -0.174796 0)
(1.02026 0.00084318 0)
(1.0067 -3.91537e-05 3.4698e-22)
(0.798119 0.270167 6.22785e-21)
(1.0188 -0.000822076 7.40407e-22)
(1.01098 0.000542769 0)
(0.0567029 -0.176401 8.23088e-21)
(1.01689 -0.00557858 2.17396e-22)
(1.01415 -0.000693186 5.84152e-22)
(1.01096 0.000550314 -2.54935e-22)
(1.06468 0.00285504 5.57543e-22)
(0.0196556 -0.214108 -4.55366e-20)
(1.06856 -0.0297138 1.81194e-21)
(1.00742 -0.000273431 0)
(1.03346 -0.0338651 0)
(0.207756 -0.139149 2.01563e-21)
(1.01442 0.00126066 0)
(1.00685 -9.49976e-05 -5.2701e-22)
(0.909866 0.294895 -7.09733e-21)
(1.01824 0.000905936 1.5494e-22)
(1.12615 -0.0530166 2.53146e-21)
(1.05025 -0.0329167 9.06435e-21)
(1.02763 -0.00146936 9.20256e-22)
(0.939957 0.100068 3.15334e-21)
(1.05922 -0.0315843 -6.25755e-21)
(0.808103 0.246687 0)
(0.0670501 -0.178988 2.29695e-21)
(1.06311 -0.0337039 0)
(0.53821 -0.146782 3.78281e-22)
(1.06254 -0.0066385 -3.07162e-21)
(1.04661 0.0700065 -2.28085e-22)
(0.663262 0.195571 6.40634e-21)
(0.0850438 -0.191861 -3.702e-20)
(-0.0644201 -0.24223 6.00405e-20)
(1.02627 -0.00381795 2.20308e-21)
(1.00343 -0.0118689 -8.11948e-24)
(0.891279 0.0435305 -1.5703e-21)
(0.800294 -0.339719 0)
(1.05807 -0.0370641 0)
(1.05971 0.00680814 3.48614e-22)
(0.975449 -0.0327258 8.33571e-22)
(1.04214 0.0824071 0)
(0.58389 0.367383 -2.28787e-21)
(1.01163 0.000615497 1.61072e-22)
(0.0241345 -0.258614 2.7438e-20)
(0.526439 -0.142694 -1.57328e-21)
(0.761301 -0.169828 4.29834e-22)
(1.01327 0.00137821 0)
(1.01163 0.000653954 -2.33243e-22)
(0.436177 0.376245 5.07907e-21)
(0.0424373 -0.206595 4.03566e-20)
(0.900037 0.017919 1.57384e-20)
(-0.0784267 -0.257233 -1.77137e-20)
(1.00409 8.19536e-06 -1.11188e-21)
(1.06662 -0.0230149 0)
(0.877468 0.111668 4.93261e-22)
(0.829977 0.236837 -1.8125e-21)
(1.01133 -0.00277946 -4.30285e-22)
(1.01408 -0.00456703 2.31968e-22)
(1.00568 0.0318588 2.73293e-21)
(0.854569 -0.0609054 0)
(1.03646 -0.00499196 0)
(1.01124 0.000474984 -2.01606e-22)
(1.01495 -0.00570112 -2.26625e-22)
(1.02779 -0.0424848 6.52811e-21)
(1.04187 -0.0072437 -8.92559e-21)
(0.520688 0.272064 3.71849e-21)
(1.01795 -0.00222911 -4.42797e-21)
(0.988238 0.116669 2.21409e-23)
(1.0167 0.0070192 -2.00672e-21)
(-0.00751199 -0.234209 -9.38903e-21)
(0.81238 -0.10891 0)
(-0.0737799 -0.246092 -8.23779e-20)
(1.01775 -0.00230145 3.8274e-21)
(1.06226 -0.077371 -1.30366e-21)
(0.716589 0.0294456 1.74184e-21)
(1.01096 0.00032389 1.27084e-22)
(1.04013 -0.00773785 3.9196e-21)
(1.14427 -0.0574912 0)
(1.0258 -0.00361586 0)
(0.00254134 -0.227485 -1.41437e-20)
(1.00725 5.77818e-05 -2.11924e-22)
(1.01958 0.00125877 4.25497e-22)
(1.06112 0.0114735 0)
(0.885152 -0.0460169 3.38148e-21)
(1.01304 -0.00165514 5.25839e-22)
(1.01369 -0.00213982 0)
(0.0404082 -0.253519 -3.3199e-20)
(1.01129 -0.000515941 3.55087e-22)
(1.00376 -0.0136483 -2.28802e-23)
(0.064125 -0.198076 0)
(-0.034932 -0.225532 2.179e-20)
(1.00539 2.76628e-05 -1.92762e-22)
(1.05716 -0.0340296 0)
(1.02033 0.00240442 -4.17042e-22)
(1.01531 -1.04248e-05 5.35096e-22)
(1.01354 -0.0124014 -7.2353e-23)
(1.01348 0.000796436 -6.56477e-23)
(1.01298 -0.000688748 1.08905e-21)
(1.05779 -0.0352356 0)
(1.00879 7.74458e-05 3.40813e-23)
(0.939562 0.119999 4.45217e-21)
(0.727793 0.0450236 -1.86964e-21)
(1.01394 0.00202701 6.00968e-22)
(1.05899 -0.0321785 7.71217e-21)
(1.06505 0.0126298 -9.63209e-22)
(0.887313 -0.0557558 -7.74959e-21)
(0.886525 0.0295354 0)
(0.949223 -0.0473327 -4.27722e-21)
(1.04385 -0.0594952 -1.30179e-20)
(0.544341 0.377073 2.17235e-21)
(1.01123 -0.000463725 7.43008e-22)
(0.920018 0.0491692 -7.68532e-21)
(1.06233 -0.0337806 2.40928e-21)
(0.83229 0.227174 -5.49866e-22)
(1.00659 -0.000105817 5.20667e-22)
(1.01085 -0.00149395 4.70485e-24)
(1.0139 0.00211704 -5.03845e-25)
(0.978372 -0.0864968 -1.537e-21)
(-0.0409909 -0.223644 -1.13117e-20)
(1.16678 -0.0637639 0)
(1.02339 -0.01264 -1.14763e-22)
(1.01398 -0.00235835 -1.0679e-21)
(0.978226 -0.0821584 1.66522e-21)
(1.11225 -0.0501047 0)
(1.00502 2.69853e-05 0)
(0.593108 0.228565 7.57627e-21)
(1.12927 0.0392454 0)
(1.01095 -0.00148937 -5.59065e-22)
(1.00889 -0.000321419 -1.91229e-22)
(1.01314 0.00222491 -2.16408e-22)
(1.01193 -0.00329728 -1.01733e-23)
(-0.0743464 -0.259052 4.80244e-20)
(1.01523 -0.000505339 9.05348e-22)
(0.964777 0.0470853 -5.53149e-22)
(1.01444 0.00260908 3.00552e-25)
(1.0058 8.80924e-06 -1.98894e-23)
(1.19611 -0.0383336 0)
(1.01313 0.000930175 3.71925e-22)
(0.703676 0.0449253 -1.79174e-22)
(1.01375 -0.000914577 0)
(0.786868 -0.0124012 -3.40591e-21)
(1.02517 0.000402952 -3.35758e-23)
(1.01122 0.000610536 1.1659e-21)
(1.01109 -0.00150901 4.70986e-22)
(1.05799 -0.0738962 2.54458e-21)
(0.921796 -0.248384 -1.08684e-21)
(0.908369 -0.2497 -4.14825e-22)
(1.01123 0.00058996 -1.3183e-21)
(1.12135 -0.0463114 0)
(1.02669 -0.00347191 -6.80928e-21)
(1.01282 -0.00506369 0)
(1.18262 -0.211409 1.1237e-20)
(0.424194 -0.0019115 1.34786e-20)
(1.01289 -0.00499873 0)
(1.01109 -0.000316806 -7.64962e-22)
(1.01361 -0.000168819 2.83051e-22)
(1.01398 -0.0119988 -9.85565e-23)
(1.03979 -0.0282629 -1.02334e-21)
(1.00912 9.4236e-05 0)
(1.01553 0.000906857 1.7352e-21)
(1.03617 -0.0140288 1.0978e-20)
(1.00881 -0.000332549 0)
(1.00664 -0.000192997 1.69849e-24)
(1.01442 -0.00214361 6.51489e-22)
(0.446137 -0.146548 -2.86221e-21)
(1.01618 -0.00458037 8.1342e-22)
(1.01103 -0.000289021 3.32534e-22)
(1.01112 0.000294215 -3.71287e-23)
(1.10811 -0.046862 0)
(1.00895 -0.000537072 3.78043e-22)
(1.00892 -0.000558895 0)
(1.00427 6.42142e-06 0)
(1.03607 -0.00717562 -1.43669e-20)
(1.01323 0.000369098 2.71279e-22)
(1.00696 3.02655e-05 1.50838e-22)
(1.00547 1.20122e-05 -5.37753e-22)
(1.01184 0.00279404 4.5276e-22)
(0.884649 0.00744812 1.90979e-22)
(1.00968 -0.000366887 -8.21477e-22)
(1.00705 3.88456e-05 -7.15161e-23)
(0.148101 -0.115092 0)
(1.04588 -0.0161296 0)
(1.00718 3.07408e-05 3.32657e-22)
(1.00707 3.59905e-05 0)
(0.876697 0.272418 8.34629e-21)
(1.05599 -0.0102879 -3.26178e-22)
(1.01125 0.000460938 -3.01364e-22)
(1.0243 0.0196358 0)
(0.955683 0.161933 3.81955e-22)
(1.01425 -0.00157012 3.21139e-22)
(1.00689 -0.0550617 0)
(1.01458 -0.00205547 -3.60125e-22)
(0.889201 -0.264826 1.31367e-21)
(1.13826 -0.0497308 -2.95347e-21)
(1.08577 -0.0484024 0)
(1.06235 -0.0261788 0)
(0.828147 -0.0797918 -1.06328e-21)
(1.01198 0.000616052 0)
(0.889663 0.26812 4.38326e-21)
(1.07015 0.0282964 -6.30469e-22)
(1.0073 -0.00017902 0)
(1.08322 -0.0518757 0)
(0.979731 -0.0385206 0)
(0.727906 0.161815 0)
(1.0107 -0.00185012 -1.69093e-22)
(1.01195 0.00062546 2.05478e-22)
(-0.0167253 -0.220929 0)
(0.882909 0.0936924 1.21906e-21)
(1.01013 -0.000432874 0)
(0.0167622 -0.188089 4.86736e-20)
(0.986186 -0.0747775 0)
(1.02663 -0.0132013 0)
(0.128373 -0.130615 -1.21203e-21)
(1.01064 -0.0017001 8.90323e-23)
(1.01318 0.00126439 -7.97829e-22)
(1.01397 -0.000911919 -8.22606e-22)
(1.00632 5.85822e-07 1.06007e-24)
(1.01522 -0.00819542 0)
(1.02106 -0.00187511 -3.03968e-22)
(1.0273 -0.0189267 -3.51525e-21)
(1.0114 -0.000720679 -1.39027e-21)
(1.01527 -0.00835292 -1.56581e-23)
(1.02449 -0.0119783 -3.14168e-21)
(0.70133 -0.268605 -1.08046e-20)
(0.877505 0.280705 1.28959e-20)
(1.01762 0.0012508 -4.03737e-22)
(0.885545 0.263636 -8.19698e-21)
(0.918188 -0.195116 6.70296e-21)
(1.01002 -0.000416333 0)
(1.05725 -0.0272596 3.38727e-21)
(1.05612 -0.0250232 -2.81503e-22)
(1.00003 -0.0944179 -2.49309e-20)
(0.984708 0.0253845 -6.3074e-21)
(1.13175 -0.112231 0)
(1.01787 -0.00201842 1.21386e-21)
(-0.0423251 -0.228587 -4.90227e-20)
(0.792897 0.0872551 4.39489e-22)
(1.02803 0.00872616 -5.74464e-23)
(1.02457 -0.0119978 2.88981e-21)
(1.0244 -0.0136909 0)
(1.0143 0.00100897 -1.37334e-23)
(1.01472 -0.00141279 -3.07575e-22)
(1.15681 -0.0557072 0)
(0.718306 0.0915039 2.0702e-21)
(1.01818 -0.0261895 -6.79153e-21)
(0.934777 -0.0479953 0)
(0.704527 0.0745506 -1.66523e-21)
(1.01096 -0.00153442 -2.02238e-22)
(1.04973 -0.0198781 -4.31787e-21)
(1.01468 -0.00550817 0)
(1.06166 -0.0332986 -1.12008e-21)
(-0.0427749 -0.233834 2.60452e-20)
(1.16059 -0.153716 -6.1894e-21)
(0.85268 0.22492 0)
(1.01676 -0.142118 -7.71597e-22)
(0.906856 0.0866852 0)
(1.13154 -0.117072 -3.64713e-21)
(1.00548 2.43346e-05 2.27542e-24)
(0.730806 -0.127356 1.13795e-20)
(1.05883 -0.00586778 6.41517e-22)
(1.06327 0.0214733 2.86176e-22)
(1.01662 -0.0333963 0)
(1.00779 -0.000195041 0)
(1.00781 5.4749e-05 -2.04543e-23)
(0.996786 -0.0848871 6.30699e-21)
(0.985296 0.00705381 -8.59827e-21)
(0.875728 -0.119976 0)
(1.17564 -0.224127 -2.36006e-20)
(0.0235396 -0.190917 -4.44888e-20)
(1.02396 -0.0125437 2.81335e-21)
(0.900353 -0.0336131 5.44114e-21)
(1.03736 0.170257 0)
(1.01335 -0.00210256 1.69103e-21)
(1.03458 -0.014431 0)
(1.01365 -0.0106245 0)
(1.0126 -0.00326666 0)
(1.00679 -5.76106e-05 -3.96257e-22)
(1.01408 0.00101685 5.31068e-22)
(1.01976 -0.00191187 2.01138e-22)
(1.0059 -0.000160536 0)
(1.00531 2.79328e-05 0)
(1.01401 0.00287162 -2.12766e-22)
(1.02163 -0.0421392 0)
(0.801629 0.232564 0)
(1.05669 -0.0214342 0)
(0.784833 -0.239362 0)
(0.770584 -0.246025 -1.6049e-20)
(0.180741 -0.14482 -1.0265e-20)
(0.790954 0.215783 -9.27136e-21)
(1.07216 -0.00680521 1.16253e-21)
(1.01261 0.00293166 -2.02583e-22)
(1.0075 6.89533e-05 1.10302e-22)
(1.00968 -0.0442402 -2.64375e-21)
(1.03388 -0.0149729 3.01227e-21)
(1.02255 -0.0129534 -2.08492e-21)
(0.92908 0.340299 0)
(1.06167 -0.0337297 1.10167e-21)
(1.08948 0.0610667 2.16041e-21)
(1.0131 0.000942505 0)
(0.745394 -0.313647 9.27476e-21)
(1.01046 -0.000647985 0)
(1.04606 -0.0172035 0)
(1.01112 0.000384985 1.99547e-22)
(0.0524379 -0.2203 -2.05222e-20)
(0.902567 -0.261263 4.51042e-22)
(0.943551 0.0735337 1.16712e-20)
(1.0054 2.39608e-05 2.73314e-22)
(0.0932947 -0.131442 -2.50676e-22)
(1.06 -0.0385075 0)
(1.0138 -0.000682998 -2.64274e-23)
(1.01212 -0.00281159 -3.55442e-22)
(1.0052 2.65013e-05 2.76126e-22)
(0.867464 0.210111 -6.69257e-23)
(1.00529 7.29853e-07 -1.23337e-22)
(1.00694 3.72391e-05 -7.33952e-22)
(0.781781 -0.173143 -1.85578e-22)
(1.05763 -0.020083 3.35424e-21)
(1.02302 -0.0130164 -3.96094e-21)
(1.01396 -0.00433567 -9.52258e-22)
(1.02404 -0.0180333 0)
(1.02582 -0.0253782 0)
(0.734361 -0.0651311 1.22074e-20)
(1.08734 0.0669896 1.15778e-21)
(1.00324 1.08245e-05 -1.05165e-22)
(0.681966 -0.134462 6.87107e-21)
(1.01112 0.000370725 -1.75704e-22)
(1.02217 -0.00204883 3.43871e-22)
(1.04665 -0.0574307 1.81764e-21)
(1.01627 -0.000208796 -3.29455e-21)
(0.733493 -0.284687 -1.15767e-20)
(1.00313 3.21878e-05 1.10176e-22)
(1.02514 -0.0265745 -1.54057e-21)
(1.0049 2.89238e-05 0)
(1.14782 -0.138434 0)
(1.01115 0.00417391 1.25264e-21)
(1.01944 -0.00208318 -9.20345e-22)
(-0.0341756 -0.21371 2.83342e-20)
(1.06008 0.000989594 3.29057e-22)
(1.01132 0.000349724 0)
(1.04883 -0.0203159 0)
(1.0074 -0.00393833 -1.77037e-21)
(1.01312 -0.001792 -5.55893e-22)
(1.00663 4.1984e-05 0)
(1.01302 -0.000396046 0)
(0.932835 -0.231232 3.39433e-21)
(0.516549 0.291541 0)
(1.02738 -0.00632415 1.96649e-21)
(1.05233 -0.0343485 -7.48244e-21)
(0.712662 0.12306 4.84315e-22)
(1.0103 0.0241099 -2.58542e-21)
(0.871836 0.139764 -6.6165e-21)
(1.1457 0.0300427 4.82116e-22)
(0.87327 0.15216 5.96859e-21)
(1.01284 0.00106579 0)
(1.07316 -0.0123116 1.85894e-21)
(0.987269 -0.0806761 6.32184e-22)
(1.0106 -0.0350446 1.41804e-22)
(1.02525 -0.0176515 0)
(0.915554 0.131075 4.62588e-21)
(1.0479 -0.0259001 5.09951e-23)
(1.02666 -0.00314675 1.03576e-21)
(1.00768 3.66656e-05 3.88642e-22)
(1.01638 -0.00478521 2.54856e-21)
(1.00911 -0.000558822 1.83431e-22)
(1.01612 -0.000258223 -1.03218e-21)
(1.00909 -0.000531269 1.1154e-22)
(1.01564 -7.63993e-05 2.11597e-21)
(0.978465 -0.0645911 6.08895e-22)
(1.00466 1.94616e-05 -4.02123e-22)
(1.01084 0.000308998 2.91173e-22)
(1.0619 -0.0402837 0)
(1.00727 -0.000258925 1.36145e-22)
(1.00466 1.58354e-05 0)
(1.01417 0.00078902 -1.68942e-22)
(1.00811 -0.0038301 -1.00955e-21)
(1.04452 -0.0309536 0)
(0.994566 0.192745 1.87775e-21)
(1.01134 -0.000598101 1.19534e-21)
(1.06511 0.0376166 -8.2824e-22)
(1.00673 2.44097e-05 4.48938e-23)
(1.05572 -0.02263 1.17176e-20)
(1.03423 -0.0195965 1.25447e-21)
(0.580326 0.286019 2.7487e-20)
(1.02547 -0.143664 7.47661e-22)
(1.0132 -0.000883809 0)
(1.01811 -0.00191556 7.55392e-22)
(0.523885 0.288095 1.93804e-23)
(0.155172 -0.142792 -3.27007e-21)
(1.03226 -0.0146086 -1.37029e-22)
(1.01311 0.00070711 4.22555e-22)
(1.10351 0.0715462 0)
(0.462007 -0.151481 1.16345e-21)
(1.01121 0.000291488 3.41521e-23)
(1.00724 3.38062e-05 -3.60369e-23)
(0.463504 0.381281 -5.96738e-21)
(1.01361 -0.0131696 9.93982e-23)
(1.05004 -0.0317419 8.87655e-21)
(1.0297 -0.0162377 1.11386e-22)
(1.01103 -0.00277704 5.89748e-22)
(1.05155 -0.0356489 -3.35104e-21)
(1.00897 -0.000348091 3.881e-22)
(1.01112 -0.00252237 3.2879e-22)
(1.01076 -0.000461086 0)
(1.00619 1.61288e-05 8.66817e-24)
(1.01119 -0.000396414 -6.70445e-22)
(1.01041 -0.000594674 2.4755e-22)
(0.882058 -0.229484 0)
(1.01039 0.000350584 0)
(1.09697 0.0214038 0)
(0.742077 0.171168 -6.3575e-21)
(1.01143 0.000345268 0)
(1.0105 0.000362052 0)
(1.00394 1.29874e-05 -1.38987e-23)
(1.04497 -0.0241292 2.6346e-21)
(1.0093 -0.00130103 1.80891e-21)
(1.07806 0.0854622 0)
(1.01209 -0.00342592 0)
(0.832806 -0.104233 1.62828e-21)
(1.02578 -0.0392566 -2.15111e-21)
(1.00936 -0.0358919 -1.51074e-22)
(1.01236 0.000163169 3.39254e-22)
(1.01413 0.00274887 4.48854e-22)
(1.01282 0.00212981 -2.24068e-22)
(1.02713 -0.00714965 -1.08642e-21)
(1.027 -0.00691812 2.40092e-21)
(0.292982 0.0282013 4.25245e-20)
(0.47825 0.296589 0)
(1.00875 -0.000306297 0)
(1.01113 -0.000362476 3.37609e-24)
(1.03532 -0.00702526 1.40681e-20)
(0.456821 0.371965 3.5505e-21)
(1.01125 0.000417989 -1.89592e-22)
(1.01371 0.000869854 0)
(1.01546 -0.000102798 2.02636e-21)
(1.01086 0.000312909 5.82879e-24)
(1.01095 -0.000263662 0)
(1.01222 0.000259303 -3.0938e-22)
(1.01467 -0.0100886 1.05279e-22)
(1.01308 -0.00191464 1.05372e-21)
(1.07154 -0.0323814 0)
(1.01211 -0.00341231 -6.56835e-23)
(1.01445 0.00121968 0)
(1.01423 -0.115237 0)
(0.611324 0.29176 -3.87337e-20)
(1.02327 -0.00646655 2.71798e-22)
(1.01441 -0.000567021 0)
(1.01166 -0.00315 9.72252e-23)
(1.00414 2.06803e-05 2.39897e-22)
(1.01412 -0.00396542 -5.39685e-22)
(1.01925 0.00147691 1.14195e-24)
(1.07417 0.049884 0)
(1.0634 -0.0065374 -1.96566e-21)
(1.03618 -0.00599907 1.09196e-20)
(0.940006 0.191057 -8.75476e-22)
(1.01156 -0.00308769 -1.02225e-22)
(1.05788 -0.0283551 3.73805e-21)
(1.01417 -0.000970179 -4.49623e-22)
(1.00715 4.98204e-05 -2.22969e-22)
(1.06201 -0.0337449 1.43091e-21)
(1.01212 0.000488387 -1.5441e-23)
(1.00598 3.144e-05 2.82231e-22)
(0.895383 0.271464 5.08527e-21)
(1.00503 2.11001e-05 -5.51011e-22)
(1.04042 -0.00836192 2.31957e-21)
(0.93309 -0.0456753 0)
(1.00663 2.81609e-05 -6.2309e-22)
(1.0171 -0.00296909 -1.20811e-21)
(0.0354111 -0.228815 1.60294e-20)
(1.0129 0.0010873 3.72301e-22)
(0.964197 -0.0593768 0)
(1.04163 -0.0209845 0)
(1.0068 4.06423e-05 1.95097e-22)
(1.00493 2.13267e-05 0)
(0.986837 -0.0400084 1.83215e-22)
(1.02209 -0.0196036 2.24207e-21)
(1.01013 -0.000467281 -9.48034e-22)
(1.01127 -0.00269637 -3.63651e-22)
(0.780316 0.0494685 3.78115e-21)
(0.946032 0.222202 7.18162e-22)
(0.883059 0.161279 6.67478e-21)
(1.00911 -0.000373719 8.42136e-22)
(0.194386 -0.0931802 4.0198e-20)
(1.01067 0.000261682 0)
(1.00543 1.79435e-05 -2.38407e-22)
(1.01242 -0.00357997 0)
(1.02488 0.00410488 -2.80334e-23)
(0.804098 -0.130082 0)
(1.02775 -0.125384 8.7575e-22)
(1.01411 0.00282517 -6.95224e-22)
(1.04078 -0.0073115 2.11962e-22)
(1.02005 -7.94019e-05 -6.47073e-22)
(0.672316 -0.212669 -6.47125e-21)
(1.11704 0.0389357 0)
(1.01171 -0.00146039 -3.35898e-22)
(1.02378 0.0201714 0)
(1.04465 -0.0184805 0)
(-0.0444483 -0.225879 0)
(1.03477 -0.0336338 0)
(1.02605 -0.0216406 0)
(1.01 -0.000530334 -6.56709e-24)
(1.02536 0.00315583 -1.80656e-22)
(1.06246 -0.0349882 -4.88209e-21)
(1.00672 4.26389e-05 -2.10034e-22)
(1.01005 -0.000513495 -6.48244e-24)
(1.01121 0.000423677 0)
(1.00967 -0.000380332 4.90984e-22)
(1.0353 -0.0305052 2.56206e-21)
(1.07812 0.0511804 0)
(0.978179 0.0480334 -4.94385e-22)
(0.899791 0.267438 -7.73402e-21)
(1.02297 -0.0195001 4.781e-22)
(1.00687 -0.0052281 -1.58705e-21)
(1.01241 -0.00361602 1.38082e-22)
(1.00865 -0.000270313 0)
(1.09837 0.00381204 -1.62475e-21)
(0.997144 -0.0853428 1.50747e-20)
(1.01426 0.00102427 1.56537e-22)
(1.05895 -0.0328106 7.5759e-21)
(-0.0558289 -0.238033 2.36062e-20)
(0.268294 0.00633253 5.91446e-20)
(1.00453 2.05819e-05 0)
(1.00495 4.6439e-05 2.75875e-23)
(0.979775 -0.0401017 0)
(0.875336 0.0779467 0)
(1.01067 0.000259633 0)
(1.05207 -0.0314376 3.17252e-22)
(1.01231 -0.00399588 7.57762e-23)
(1.0059 -0.000174575 0)
(1.0553 -0.0251979 -1.1597e-20)
(1.01374 -0.000648515 -8.4874e-22)
(1.02747 -0.00662283 -5.62651e-22)
(1.01483 -0.00208798 -2.91153e-22)
(1.00885 -0.000393122 0)
(1.01341 -0.00222025 0)
(1.07975 0.063488 -8.05925e-22)
(1.06164 -0.0336415 1.03295e-20)
(0.856261 -0.144982 -4.06589e-21)
(1.0154 -0.000216294 -5.34412e-22)
(1.01103 -0.000276504 -4.04127e-22)
(1.19548 -0.159152 7.57936e-21)
(1.01376 0.000884317 4.12098e-23)
(1.18624 -0.191947 -6.45735e-21)
(0.87595 -0.235949 0)
(1.01227 -0.00401905 0)
(0.935322 0.327907 0)
(1.01508 -0.00337965 -1.62216e-22)
(1.01496 -0.000690518 3.30794e-22)
(0.868573 0.298733 -1.5598e-20)
(0.875305 0.105474 -2.87589e-22)
(0.881841 0.102359 -1.77403e-22)
(0.925324 -0.242299 -7.86442e-22)
(1.02194 -0.0191108 0)
(0.919868 -0.271075 3.64427e-21)
(1.01029 0.000340988 -3.09921e-22)
(0.823256 -0.119629 0)
(0.198684 -0.126229 5.08738e-20)
(1.0278 0.00352898 -2.78368e-21)
(1.0144 0.00270806 -5.19286e-22)
(0.90623 0.0482551 -3.29297e-20)
(1.04391 -0.0170687 0)
(0.960388 -0.00137676 -1.29579e-21)
(0.884209 0.185968 -3.22188e-22)
(0.973786 -0.116 1.01058e-20)
(1.02499 -0.0037028 -4.94837e-23)
(0.887729 -0.221073 0)
(1.00693 5.57616e-05 5.269e-22)
(1.05925 -0.0325673 1.30709e-21)
(1.06385 -0.0234565 0)
(1.00747 1.9298e-05 2.26367e-22)
(1.04688 -0.03217 0)
(0.788192 0.241285 7.05813e-21)
(0.966614 -0.0654103 0)
(1.00749 -0.0170012 7.18653e-22)
(1.01444 -0.0105962 -3.85586e-23)
(1.01098 0.000326827 0)
(1.02512 -0.0117764 0)
(1.01169 0.00404742 -8.87836e-22)
(1.01836 0.0054745 3.6221e-21)
(0.955516 -0.0696614 -2.21919e-21)
(1.01134 -8.96607e-05 0)
(1.17279 -0.182329 -9.06343e-21)
(1.00721 -0.00431056 1.88034e-21)
(1.01267 -0.00491971 5.70152e-22)
(1.05284 -0.0185683 -2.5684e-21)
(1.01039 0.000280722 0)
(1.00575 0.012882 0)
(1.01428 -0.00222668 -6.66717e-22)
(1.00974 -0.000395164 0)
(0.581373 0.23717 -1.13351e-20)
(1.00867 -0.000279804 -5.58593e-22)
(1.0153 0.00116752 -5.97984e-22)
(1.04122 -0.0753688 0)
(1.0589 -0.0376849 -3.46666e-21)
(1.0627 -0.0432245 4.34749e-21)
(1.01834 -0.00151692 -1.88954e-21)
(1.01315 -0.00512167 -3.63536e-23)
(1.05283 -0.0597346 2.72629e-21)
(1.01352 -0.00539235 0)
(0.87346 0.0612108 9.93557e-22)
(1.04636 -0.0147148 0)
(1.0132 -0.0140075 -7.263e-23)
(1.03223 -0.0129124 3.29013e-22)
(1.01222 -0.00442975 5.14057e-22)
(1.01086 0.000299006 -1.36449e-22)
(0.480045 0.38154 -3.76249e-21)
(1.01045 0.000284657 5.3745e-23)
(0.814761 0.385416 0)
(1.06219 0.0221714 2.32576e-21)
(1.03669 -0.00577627 1.13353e-22)
(0.200947 0.186433 -5.10895e-21)
(1.00783 6.71426e-05 -2.69244e-22)
(1.02631 -0.00986323 2.67835e-22)
(1.0085 -0.0171657 -4.66783e-23)
(0.501066 0.144898 -1.70786e-20)
(1.04692 -0.0132849 1.32062e-20)
(1.0779 0.0757123 -2.14738e-21)
(0.906062 -0.0255909 -5.32796e-21)
(1.00508 2.80958e-05 1.80956e-22)
(1.03251 -0.0898316 0)
(1.00857 7.22999e-05 0)
(0.885668 0.179874 1.31389e-21)
(1.01348 -0.0054673 0)
(1.02702 -0.00924269 0)
(0.291428 -0.0268001 8.40812e-21)
(1.03839 -0.0509644 0)
(1.01388 -0.0021738 0)
(1.01585 -0.00813333 -5.12448e-22)
(1.02472 -0.0185294 0)
(1.00999 0.00011097 -9.08569e-22)
(1.01808 -0.00145856 0)
(0.949436 0.090037 4.76639e-21)
(0.257476 0.0964781 3.22794e-20)
(1.01295 0.00157474 0)
(1.00985 0.000124981 0)
(1.00856 7.30773e-05 0)
(0.717046 -0.0725525 0)
(1.02232 -0.12362 1.44571e-22)
(1.02124 -0.0323169 9.25705e-22)
(1.00889 -0.000378872 2.86965e-25)
(1.02894 0.0222204 3.71412e-22)
(1.02657 -0.00931462 2.26605e-24)
(1.01307 -0.00520768 0)
(1.05673 -0.0215798 0)
(0.930938 -0.159656 5.75311e-21)
(1.01177 -0.00140403 6.29483e-22)
(1.05925 -0.0321301 -1.5099e-20)
(1.01762 0.133499 2.04876e-23)
(1.01392 0.000386159 0)
(1.06001 -0.0189633 6.64209e-22)
(1.0195 -0.00365908 -5.28141e-21)
(1.03193 -0.0344977 2.02249e-21)
(1.01172 -0.00123354 0)
(1.01338 0.00137166 -1.94704e-22)
(1.04867 -0.0213922 1.58956e-20)
(1.01259 -0.00488582 -6.06253e-22)
(1.06265 -0.0341644 -5.17074e-22)
(1.01592 -0.000314874 -1.00504e-21)
(0.287778 -0.143735 -1.8961e-21)
(1.00771 -0.0002723 0)
(1.04659 -0.0153007 3.50158e-21)
(1.06503 -0.0276885 -4.89408e-22)
(0.982202 -0.0676029 -6.16191e-22)
(1.0588 -0.0335235 0)
(1.00697 6.56224e-05 0)
(1.0122 -0.0043996 -7.39364e-22)
(0.868372 0.026789 0)
(1.03399 0.0264745 0)
(0.965339 -0.00799076 0)
(1.00936 -0.0010434 1.43168e-22)
(1.01176 -0.00325684 -2.64292e-23)
(1.0091 -0.0250339 2.99588e-23)
(0.0159237 -0.254482 -1.24839e-20)
(1.03079 -0.0686041 5.31687e-21)
(1.01273 0.00136479 0)
(1.01375 -0.00243876 0)
(1.02078 -0.0132099 1.63372e-21)
(1.01584 -0.00784726 -2.74051e-22)
(1.01472 -0.00228864 -3.08861e-22)
(1.0136 -0.00403662 8.66455e-22)
(1.00661 1.05322e-05 5.95274e-25)
(0.877976 0.147179 -7.25609e-21)
(1.01427 -0.00224233 0)
(1.01735 -0.0031732 0)
(0.880163 0.0210447 0)
(1.00916 -0.000357951 0)
(1.1184 0.0514814 0)
(1.04841 -0.100905 1.67172e-21)
(0.672972 -0.220104 0)
(0.806519 0.126177 0)
(0.888932 0.0938779 7.72828e-21)
(0.261017 0.0914303 -1.74104e-20)
(1.01384 -0.00407023 -2.6837e-22)
(1.01187 -0.00331037 7.00582e-23)
(1.01367 -0.0107182 -1.13829e-22)
(1.01311 0.00155218 5.03393e-22)
(1.01183 -0.0018212 0)
(1.00782 3.78034e-05 -4.04762e-22)
(1.00739 7.35101e-05 -8.87176e-22)
(1.02508 -0.0115378 5.81689e-23)
(1.03746 -0.254721 2.50313e-20)
(1.03453 -0.0201556 2.52102e-21)
(1.04176 0.12023 -2.71555e-23)
(1.01575 -0.00277305 2.02942e-22)
(1.01163 -0.00297369 0)
(1.02756 -0.040928 5.00631e-22)
(1.02018 -0.0418806 0)
(1.05544 -0.0661965 -2.49421e-21)
(1.00456 2.05365e-07 0)
(1.01614 -0.000716202 -5.43154e-22)
(1.01344 0.00136041 -1.89186e-22)
(0.0677658 -0.0740767 -3.96516e-20)
(0.764525 0.0345487 0)
(0.888359 0.264738 0)
(1.00669 -0.00013902 0)
(1.06795 -0.0234048 -1.43535e-21)
(1.06959 -0.00538218 4.64417e-22)
(1.05588 -0.0222766 5.82324e-22)
(-0.0110445 -0.256306 -1.24327e-20)
(1.00459 -0.221216 0)
(1.01534 -0.011285 0)
(1.01302 0.000899448 -4.24133e-22)
(1.01462 0.00150729 0)
(0.829308 -0.0574201 3.97791e-21)
(1.01911 -0.00867587 -1.57838e-21)
(1.01067 0.000442215 -2.46984e-22)
(1.07644 -0.047989 0)
(0.798821 -0.127091 -1.05455e-20)
(1.01361 -0.00351821 8.31263e-22)
(0.960342 0.0298603 -5.90226e-22)
(1.03488 0.124058 8.21983e-22)
(1.01474 -0.00196344 4.36747e-22)
(1.01284 -0.00362828 -1.41694e-22)
(1.0149 -0.00169984 0)
(1.01168 -0.00222733 -3.60656e-22)
(1.01594 -0.00496359 0)
(1.009 -0.00661796 -1.89053e-21)
(1.0442 -0.0332295 1.30577e-21)
(1.01498 -0.0052905 0)
(1.01895 -0.00881206 1.71437e-21)
(0.893406 0.275147 0)
(0.0670958 -0.0780871 4.81703e-20)
(1.0154 -0.00425064 -1.55008e-21)
(0.91105 0.154531 0)
(0.987143 -0.0135172 -2.43624e-21)
(1.01523 -0.00772428 0)
(1.01495 0.00343246 6.87947e-23)
(1.01337 0.00173319 1.26909e-22)
(1.00841 5.99418e-05 -3.53026e-23)
(1.01443 -0.00855756 -8.15497e-23)
(1.01523 -0.00764593 1.21666e-22)
(1.00619 5.91414e-05 0)
(1.02673 -0.00755171 4.86978e-21)
(1.00929 -0.00595808 4.57225e-22)
(1.02055 -0.00837041 2.10103e-21)
(0.317782 -0.0127131 -9.01425e-21)
(1.03923 -0.0289581 -3.59259e-21)
(1.00691 4.40228e-05 -4.45182e-22)
(1.01181 -0.00200013 0)
(0.852388 -0.289304 1.27457e-20)
(1.02548 -0.00382571 3.17539e-21)
(1.01079 0.000467869 2.48435e-22)
(0.498777 0.247273 3.90867e-21)
(1.01202 -0.00179619 6.68472e-22)
(1.04977 -0.0352929 -1.03576e-22)
(1.04797 -0.0218176 -1.91409e-20)
(1.01751 -0.00288483 -1.29071e-21)
(1.00926 -0.000940562 1.20669e-22)
(1.01031 0.000305724 5.67264e-22)
(1.01081 -0.01307 -1.95785e-22)
(1.06397 -0.0296974 5.63154e-21)
(1.00642 3.3854e-05 4.52325e-22)
(0.874296 0.103777 4.35361e-21)
(1.05892 -0.067233 -1.23768e-21)
(1.07456 -0.0131822 8.52265e-22)
(1.00755 -0.252986 -6.85632e-21)
(1.02063 -0.0126411 -1.72307e-21)
(1.00002 -0.0471677 -1.33388e-21)
(1.01039 0.000351627 3.93896e-22)
(1.07797 0.0945366 0)
(1.0366 -0.00679854 5.90637e-23)
(1.0115 -0.00220052 -6.2161e-22)
(1.02743 -0.0158621 0)
(1.19731 -0.0586841 7.95141e-21)
(1.01362 -0.00627544 -1.25308e-23)
(0.885425 0.211337 2.1044e-21)
(0.824828 0.0511135 7.70105e-21)
(1.00814 9.12778e-05 0)
(1.05464 -0.0238802 0)
(1.01091 0.000493043 -2.80513e-22)
(1.01311 -0.000425744 7.27832e-22)
(1.03626 -0.030953 -5.38786e-21)
(1.01368 -0.00758926 -6.4625e-22)
(1.00777 -0.000203524 -3.10553e-22)
(1.03267 -0.0180006 0)
(1.01139 -0.00162264 2.05512e-24)
(1.01129 -8.34282e-05 -1.16866e-21)
(0.882868 0.0969273 1.0332e-20)
(1.01253 9.8526e-05 -3.10054e-22)
(1.01182 -0.00186607 8.25067e-23)
(1.0093 -0.000940523 0)
(0.386677 -0.0155149 -1.43668e-20)
(1.01195 -0.00184516 0)
(1.01652 0.00295625 0)
(1.04284 -0.0330896 4.68263e-21)
(0.876257 -0.0643001 0)
(0.862097 -0.0462992 -2.36839e-21)
(1.18727 -0.0539614 -9.7238e-21)
(0.891948 -0.228695 0)
(1.01119 -0.00261776 -3.90349e-22)
(1.01062 0.000295433 8.83353e-23)
(1.01773 -0.00279497 1.38162e-21)
(0.949754 -0.112435 0)
(1.00505 5.28158e-06 -4.14875e-22)
(1.01064 -0.0015834 0)
(1.03799 -0.0173881 -2.41963e-21)
(1.01334 0.00124425 5.65635e-22)
(0.913907 0.170898 -3.39931e-22)
(1.02031 -0.00888423 -4.70637e-22)
(1.02317 -0.00556245 0)
(0.813108 0.0319167 0)
(1.01307 -0.0036339 3.52342e-22)
(1.06045 -0.0396128 -4.33153e-21)
(0.775377 -0.258787 -2.03858e-21)
(1.01063 0.000296272 8.27829e-23)