/*--------------------------------*- C++ -*----------------------------------*\
| =========                 |                                                 |
| \\      /  F ield         | OpenFOAM: The Open Source CFD Toolbox           |
|  \\    /   O peration     | Version:  v2012                                 |
|   \\  /    A nd           | Website:  www.openfoam.com                      |
|    \\/     M anipulation  |                                                 |
\*---------------------------------------------------------------------------*/
FoamFile
{
    version     2.0;
    format      ascii;
    class       surfaceScalarField;
    location    "300";
    object      ddtCorrDdt0(phi);
}
// * * * * * * * * * * * * * * * * * * * * * * * * * * * * * * * * * * * * * //

dimensions      [0 3 -2 0 0 0 0];
oriented        oriented;


internalField   nonuniform List<scalar> 
27740
(
-0.000183672
9.78957e-05
8.57741e-05
-0.000186727
0.000211222
-2.44969e-05
3.62675e-05
-0.000135302
9.90322e-05
-0.000113421
0.000186149
-7.27262e-05
-0.000336148
0.000185511
0.000150637
-0.000254005
9.07424e-05
0.000163267
0.00238699
-0.00179178
-0.000595257
0.000804623
-9.9391e-05
-0.000705233
-0.000160961
0.000177631
-1.66672e-05
-0.000106279
-7.03279e-05
0.000176611
0.000465052
-0.0006289
0.000163843
-5.71956e-05
0.000675436
-0.000618222
-0.00226606
0.00213705
0.000129044
-0.000100853
0.000137121
3.01497e-05
-4.89699e-05
1.88215e-05
0.000128761
0.000104376
-0.000233142
-2.50539e-06
8.70804e-06
-6.20346e-06
0.000265856
-0.000137093
-0.000557457
0.000431433
0.000126026
-0.000641872
0.00104159
-0.000399715
-0.000253129
7.03226e-05
0.000182805
0.000108314
-0.000131745
2.34313e-05
0.000882567
-0.000381888
-0.000500681
0.00155903
0.000506141
-0.00206518
-2.56122e-05
2.78919e-05
-2.2792e-06
-0.000938645
0.00029678
6.94363e-05
2.77605e-05
-9.71969e-05
0.000649303
-0.000706496
-0.00113163
0.000749446
0.000382183
3.37687e-05
-7.32471e-06
-2.64449e-05
0.000134091
-7.59369e-05
-5.81532e-05
0.000325039
-0.000408757
8.37203e-05
1.09035e-05
-3.70828e-05
2.61797e-05
5.00143e-06
0.000161793
-0.000166794
-0.000110188
-6.87915e-05
0.00017898
-0.00050161
-2.22507e-05
0.000523854
2.31248e-06
0.000192696
-0.00019501
-9.9575e-05
2.12508e-05
7.83241e-05
3.77761e-05
7.4096e-07
-3.85179e-05
0.000692332
0.000112291
-0.000228462
6.75038e-05
-0.000307184
0.0018662
-0.0001111
-0.000210459
0.000321565
-0.000560287
0.000326057
0.000234234
-0.000203264
1.65361e-05
3.60448e-05
-2.27479e-06
-0.000139361
3.08331e-05
0.000108528
7.01186e-05
-0.000183539
0.00145137
-0.00120129
-0.000250081
-1.33863e-05
-2.23165e-05
3.5702e-05
-0.00369549
0.000514641
0.00318081
0.000260081
-0.00027044
1.03561e-05
-0.00128151
0.00124092
4.05929e-05
-0.000425214
-0.000373492
0.00079873
3.92283e-05
-2.83241e-05
0.000302799
0.00114857
-0.00120427
0.00109479
0.000109488
-3.07788e-05
3.2954e-05
-2.17088e-06
9.08557e-05
-0.000128098
3.7243e-05
-0.000175475
6.91963e-05
-0.000100739
-8.29325e-05
2.87677e-05
2.73963e-05
-5.61623e-05
-0.000403198
0.000292101
4.323e-05
0.000149638
-0.000192867
-0.000114905
1.53297e-05
-0.000165934
0.000209165
5.20746e-05
3.77942e-05
-8.98683e-05
-0.00112141
0.00114568
-2.42669e-05
-0.000159991
0.000196203
-3.62105e-05
0.000180277
-0.000783204
0.000602977
-0.000649078
0.000664397
-1.53172e-05
2.8711e-05
2.37164e-05
-5.24259e-05
-5.33485e-05
-0.000245027
0.000298377
0.000248375
-9.90902e-05
-0.000149284
-0.000136803
-6.80028e-05
0.000204807
-0.000257313
4.18385e-06
-0.000303724
0.000214108
8.96178e-05
0.000319931
-9.12273e-05
-0.000228703
4.84051e-05
0.000199969
9.57241e-05
-0.000330716
0.000234991
-6.72718e-06
4.22202e-06
1.27273e-05
-0.000152089
0.000221241
-0.000161732
-5.95072e-05
-0.00109026
-0.00019125
0.000351792
-0.00030262
-4.91709e-05
-1.46793e-06
3.92436e-05
1.79706e-05
0.000174098
-0.000192068
3.86798e-05
0.000221403
-0.000341946
0.00011098
0.00023097
-0.000267229
0.000239165
2.80654e-05
0.000303509
-7.17127e-05
-0.000231795
0.00017371
-7.2078e-05
-0.000101631
8.71404e-05
-8.74826e-05
3.42954e-07
-0.000135921
0.00147914
-0.00134324
0.000122033
-1.37194e-05
0.000580132
-0.000115084
8.3093e-05
8.84223e-05
-0.000171514
-0.000254834
-0.000114004
0.000368837
0.000192123
-0.000169724
-2.23983e-05
-3.24982e-05
0.000101935
0.000599179
0.000283389
-0.000275446
0.000306472
-3.10251e-05
-1.13299e-05
7.71464e-06
3.61403e-06
-0.00289683
-0.000798709
0.000202261
-1.01371e-05
-7.49203e-05
-0.000195518
-9.10986e-05
-2.21037e-05
0.000113202
0.000160657
-9.41654e-05
-6.64912e-05
-0.000263287
-1.21595e-05
0.000142461
-0.000250235
0.000107775
-0.00052566
2.4047e-05
0.000307103
-0.000254298
-5.2804e-05
8.63453e-05
7.95091e-07
-0.000214704
0.000148828
6.58764e-05
-0.000624809
0.000116004
0.000508829
5.47665e-05
0.000118321
-0.000173084
9.30237e-06
2.99266e-05
-0.000822246
-0.000389829
0.00121208
-0.000445999
-0.000114286
6.32553e-05
-7.63651e-05
1.3111e-05
2.87269e-05
6.21295e-05
0.000129814
-0.000117748
-1.20664e-05
0.00027169
6.34144e-05
-3.47027e-05
0.00014424
0.00023805
-0.000382287
-2.92972e-05
3.68545e-06
4.21084e-06
-4.21115e-06
0.000222726
-0.000942855
0.000720136
0.000100875
2.89394e-05
0.00031949
-0.00114172
4.34607e-05
1.99278e-05
-6.33864e-05
0.000117454
0.000103788
4.34859e-05
1.14271e-05
-5.49113e-05
-5.55682e-05
-7.25306e-05
-0.000189735
0.000192047
0.000106512
-3.43007e-05
-7.22107e-05
0.000320449
0.000122888
-0.000443332
-0.00105243
-0.000151831
1.80746e-05
0.000285434
0.000215512
0.00010442
-0.000125373
-0.000186359
0.000311733
-3.33652e-05
7.66301e-05
-4.32647e-05
-6.36874e-06
2.26872e-05
-1.63183e-05
4.97781e-05
-1.92008e-05
-3.05764e-05
-8.68062e-05
-2.44827e-05
0.000111288
0.000320927
-0.000765922
0.000445026
2.04057e-05
-2.6775e-05
5.06233e-05
4.79868e-06
-5.54222e-05
-0.000744666
-6.1496e-05
0.000806166
4.22696e-05
0.000689452
0.000244519
-0.000933907
-8.66256e-05
1.45072e-05
7.21178e-05
0.000116001
-6.01861e-05
-5.58134e-05
-6.48786e-05
-4.77234e-05
0.000112603
-0.000122673
0.00010498
1.76939e-05
1.46384e-05
3.51403e-05
0.000273438
-4.12576e-06
-0.00026931
0.000350498
-0.000254773
3.43484e-05
-2.2661e-05
-1.16869e-05
3.85234e-05
4.65411e-05
-8.50628e-05
0.000110473
-4.77475e-05
-6.27259e-05
0.000447877
0.000253041
-0.000700923
0.000118124
-8.93957e-05
-0.00012359
5.87106e-05
0.000572879
-0.000428636
-0.000406498
-0.000218299
3.20309e-05
-0.000123129
5.38652e-05
-6.05107e-05
6.64609e-06
-9.72508e-05
-2.54221e-05
-0.00013661
0.000191377
6.18888e-05
-1.84266e-05
-0.000237782
0.000262296
-2.45122e-05
-5.61853e-06
-2.51566e-05
-0.000143711
-0.000192435
-9.61485e-05
7.78987e-05
1.82495e-05
-0.00240091
0.00223097
0.000169973
-2.35333e-06
-0.000742309
0.000154101
-0.000206898
5.27973e-05
9.60974e-06
2.47385e-05
0.000871575
-0.000691277
-0.00022972
0.00107847
-0.0008487
1.42408e-05
7.73709e-06
-2.19774e-05
-6.32456e-06
4.09971e-06
2.22525e-06
-0.000136168
-0.000215426
0.00024613
-3.07009e-05
0.000227807
-1.73719e-05
-0.000210436
-0.000107127
2.03213e-05
3.55274e-05
-6.88928e-05
-0.000163072
0.000417683
-0.000254609
-8.98949e-05
-0.000122086
0.000211983
0.000407829
-0.000344928
-6.29039e-05
-0.000114577
2.72319e-05
8.73447e-05
1.83893e-05
5.08767e-05
-6.92663e-05
0.000121231
-0.000107521
-1.37101e-05
1.03305e-05
-8.74946e-06
-1.58129e-06
8.37371e-05
-4.73116e-05
-3.64245e-05
-0.000155106
0.000173077
4.2072e-05
0.000223499
-0.00026557
6.10947e-05
-0.000197898
-4.69491e-06
-1.62933e-06
-2.17261e-05
7.23494e-05
0.000333669
-0.000437431
0.000103776
-0.00100795
-0.000113447
-7.63274e-05
-0.000157856
0.000234182
-0.000109369
-0.000232575
0.000326511
-0.000265395
-6.11178e-05
-0.000159553
0.00104539
-0.000885833
-9.68763e-05
0.000127709
8.70164e-05
7.36408e-05
0.00021342
-1.34729e-06
-0.000212071
0.000106141
-2.4126e-05
-8.20125e-05
0.00017469
-0.000168863
-5.82406e-06
-0.000130142
0.00010677
2.33723e-05
-4.59186e-05
6.43075e-05
-0.000204057
0.000127675
7.63834e-05
-6.90696e-05
5.17654e-05
1.7305e-05
3.10553e-05
-0.000276715
0.000245661
5.03959e-05
-2.80573e-05
-2.23383e-05
0.000573443
-0.00033539
8.5511e-05
-0.000110557
2.5051e-05
0.000208321
0.000507503
-0.000715822
1.8229e-05
-7.22485e-05
5.40198e-05
-0.000296925
0.000112076
0.00018485
-0.000229522
-8.2592e-06
-0.00103406
0.000320783
0.000713262
-0.000147335
0.00104318
-0.000895862
-3.38992e-05
-3.51698e-05
9.62782e-05
-1.0766e-05
0.00122867
-0.00102281
-0.000205866
-0.00171601
-0.000684887
0.000278461
0.000152397
-0.000430854
-3.65477e-05
5.45523e-05
-1.80056e-05
-0.000754256
3.39898e-05
0.000720269
1.34433e-06
0.000191313
-0.000192668
0.000271364
0.000770226
0.000889712
-0.000484625
-0.000405089
-7.21809e-05
0.000345619
-7.46781e-05
-1.44813e-05
8.91601e-05
-1.70118e-05
6.04978e-05
0.000607662
-0.000547952
-5.97113e-05
6.86249e-06
-1.66204e-06
-5.20072e-06
-0.000819196
0.000873126
-5.39298e-05
-0.000212111
0.000490572
-3.34732e-06
1.75881e-05
-7.22431e-05
-0.000249278
0.000159384
-0.000809134
4.13001e-05
0.000767834
-3.94254e-05
7.79499e-05
0.000343549
-0.000414795
7.12445e-05
0.000298177
-0.000256104
-0.000621202
0.000646686
-2.54864e-05
0.00120291
0.00118406
-3.52107e-05
0.000263018
5.76308e-05
-0.000167818
-8.74815e-07
-0.00021455
0.000722937
-0.000323253
-0.000399669
7.74426e-05
-5.92138e-05
1.88182e-05
8.73233e-05
0.000234948
-8.612e-05
-0.000127872
-0.000122363
2.40623e-05
2.113e-05
-4.51946e-05
-3.14995e-06
0.000310253
0.000192574
2.08465e-05
-0.000105713
7.35556e-05
3.21589e-05
8.69942e-06
1.63038e-06
0.000154054
-0.000141327
-0.00245452
0.000557283
0.00189728
3.50474e-05
4.86899e-05
0.000340859
-0.000477064
-1.4827e-05
1.5621e-05
-7.93672e-07
-0.000373661
0.000694621
0.000468976
-0.000365006
-0.000103971
0.000138413
6.73351e-05
0.000276213
-0.000240163
-0.000317296
0.000107105
1.41253e-05
1.04345e-05
-1.735e-06
-0.0017563
-0.000509741
0.00101885
-0.0011662
0.000110144
0.000463303
-8.38929e-05
-2.3235e-05
3.14889e-05
1.89072e-05
6.19592e-05
5.40427e-05
-0.000152269
0.000218542
-6.62825e-05
0.0023419
-0.0024871
0.0001452
-0.000671809
-8.2451e-05
-7.82546e-05
-5.2914e-05
0.000131168
-0.000150669
-0.000153055
-2.98579e-05
9.24548e-05
-6.2597e-05
-4.21849e-05
2.39183e-05
1.82671e-05
-0.000422654
0.000630979
-0.000591497
-2.97037e-05
-0.00178875
0.00147529
0.000313481
-8.03976e-05
-0.000212222
0.000772949
-0.00102719
0.000254243
0.000175388
-0.00010448
-7.09084e-05
-0.000357101
0.00104658
-0.000397841
-0.000733791
-9.46099e-06
7.11168e-07
-0.000711968
-0.00174252
2.49871e-05
-4.37151e-06
-2.06152e-05
-0.000125025
0.000130027
-8.40906e-05
0.000167184
5.16738e-05
-3.70346e-05
1.99027e-06
6.12656e-05
-5.08997e-05
-2.3777e-05
7.66537e-05
8.43599e-05
0.000102072
-0.000186435
-5.23543e-05
3.78656e-05
0.000222888
-0.000622415
-0.000316226
-9.68325e-05
-7.86407e-05
-2.96116e-05
0.000230197
-0.000200587
4.59742e-05
-1.58239e-05
-0.000125978
-5.35593e-05
-0.000189203
8.07899e-05
0.000108413
-9.11641e-07
-1.09707e-06
2.00875e-06
-8.66023e-05
0.000421299
-0.000685086
0.0002638
-1.48797e-05
-9.28498e-05
0.000107729
6.7649e-05
4.28232e-05
-0.000142838
-8.56192e-05
-5.28447e-06
2.59677e-06
2.6879e-06
1.84999e-05
3.31748e-05
4.2342e-05
2.77528e-05
-7.00945e-05
2.29441e-05
-0.000106838
9.17471e-05
0.000149267
-0.000241013
-0.00113271
0.00112926
3.43595e-06
0.000124874
0.000201636
0.000192718
-0.000202163
9.44573e-06
5.17282e-05
2.1379e-06
-5.56564e-06
-7.7447e-05
8.30126e-05
0.000138914
0.000342892
-0.000481802
3.18725e-05
-2.38399e-05
-8.03194e-06
5.81131e-06
-5.12903e-05
4.54824e-05
-0.000263304
7.72887e-05
0.000186004
0.000192153
-0.000237792
4.56405e-05
0.000471992
0.00122871
-0.00170069
0.000117541
-0.00019387
0.000745797
-0.000297924
9.21137e-06
-0.000271212
0.000141523
0.000129695
-2.92673e-05
0.000207485
-5.97651e-05
-0.00014772
6.2289e-05
-2.59445e-05
-3.6346e-05
7.91593e-05
-4.41117e-05
5.4934e-07
6.31288e-06
-0.000243469
-1.11123e-05
0.000254584
0.000190814
-0.000189474
-4.56135e-05
5.43167e-05
-8.70325e-06
-0.000229049
0.00219997
-0.00197089
-4.9958e-05
4.34463e-06
-2.72051e-05
6.95476e-05
0.000219236
-0.000222724
3.48615e-06
-0.000862447
0.00126112
-0.000398669
-0.000107211
-8.19928e-05
-0.000180207
0.000776762
-0.000596542
0.000420743
0.000468964
0.000488114
-0.000377967
0.00167546
0.000194845
-0.0018703
0.000135612
7.18735e-05
-0.000138364
0.00181381
-4.84984e-05
-1.45963e-06
-0.00071667
0.000313834
0.000402836
0.000278463
-0.000308076
-0.000172987
7.61553e-05
0.000177099
-0.00022952
5.24224e-05
0.000234744
-4.2596e-05
5.962e-05
7.44714e-05
-1.95574e-05
-9.50191e-05
2.7768e-05
-5.08044e-06
-3.43258e-06
-6.32714e-05
6.67027e-05
0.000878728
-0.000864156
-1.45818e-05
-0.000147952
0.000239699
-0.000762691
0.000212001
-0.000209062
-2.93786e-06
-0.00086771
0.000996916
-0.000129207
-0.000875038
0.000742306
0.000132733
0.000222665
-5.36636e-05
-0.000169003
2.55131e-06
1.65915e-06
-0.000484651
0.000440574
4.40823e-05
-5.73358e-05
4.19662e-05
1.53692e-05
8.32173e-05
0.00032461
7.83096e-07
-9.46914e-07
1.63936e-07
-2.94462e-06
-8.36815e-05
-0.000127179
-4.58073e-05
0.000172992
-0.0013975
-0.000391224
0.00012849
-3.92966e-06
-0.00012456
-1.43484e-05
3.85236e-05
-2.41761e-05
0.00060401
-0.000986201
0.000382189
0.00042596
-0.000215437
-0.000210525
-0.00010384
8.7922e-05
1.59196e-05
-0.00170016
0.00209126
-0.000391031
0.000131735
6.64602e-06
-0.000138382
0.000209989
-3.28898e-05
1.08337e-05
0.000271461
-0.000282302
-0.000166689
-1.91137e-05
0.000185805
1.68906e-05
7.55643e-05
0.000205685
-0.00022468
1.90023e-05
0.000672235
0.000206491
-0.000168959
0.000253951
-8.49908e-05
4.3694e-05
-6.84631e-05
2.47687e-05
8.36891e-05
-8.92546e-05
0.000813264
-0.000805051
-8.21618e-06
-9.67503e-05
-0.000166556
2.58823e-05
-5.39395e-05
-7.45399e-05
-0.000994296
0.00106884
-1.70796e-05
1.59916e-05
1.08777e-06
-4.68257e-05
-3.35487e-05
8.03747e-05
0.000131515
0.00119202
-0.00132355
-4.18531e-06
5.35317e-05
-4.93452e-05
-0.00115341
2.06884e-05
-0.000204226
3.75416e-05
-0.000853921
0.00136455
-0.000510616
-0.000196706
-0.000678331
0.00190801
0.000585782
0.00164522
-3.75436e-05
-7.03289e-06
4.45759e-05
2.78175e-05
2.1897e-05
-4.97153e-05
5.14972e-07
-4.90131e-05
-0.00207923
0.000322962
-0.000338365
0.000450786
-0.00011242
-0.000684664
0.000265159
0.000419498
0.000919816
0.000238268
-0.00115809
6.84713e-06
2.09204e-05
1.72818e-06
-5.11892e-05
0.000598258
9.40117e-06
-0.000422674
0.000482744
-6.00674e-05
-0.000150489
-0.000120721
-8.54399e-05
-0.000329356
0.000127706
7.83986e-07
1.89427e-05
0.000101451
-0.000120393
-8.44922e-06
1.00559e-05
-1.60628e-06
0.000970357
-0.000650865
0.000387608
0.00181236
6.53333e-05
-3.75166e-05
-0.000146271
7.03341e-05
6.80172e-05
0.000105692
-0.000171259
4.40819e-05
-4.35819e-05
-0.000123813
0.000167394
0.000128459
-0.00016756
3.91e-05
-4.74382e-05
3.30883e-05
-2.57386e-07
-1.68222e-05
3.8794e-05
0.000449324
0.000985128
-0.000762403
-1.05382e-05
3.64041e-05
-2.58654e-05
0.000111336
-8.43625e-05
-2.69738e-05
0.000505768
1.95852e-05
-0.000525356
1.44518e-05
-5.38643e-05
3.94139e-05
-5.15957e-05
-1.84294e-05
7.00261e-05
2.51376e-05
-0.000196309
0.000196309
0.000153133
0.000272827
0.000278897
-0.000736136
0.000457236
-0.000153761
-9.70777e-05
0.000250839
0.000258602
-0.00068382
-3.49338e-06
0.000215494
0.000220857
-0.000138677
-8.21813e-05
3.06014e-06
0.000174573
-0.000113344
0.000132287
0.000144691
3.87989e-05
-0.000183487
4.51163e-05
0.000177548
8.39824e-05
-6.92333e-05
-1.47481e-05
-0.000220992
6.87265e-05
6.88147e-06
-0.000244165
0.000237284
-2.09311e-05
-2.12542e-05
0.000167038
-0.000137344
-2.96945e-05
-0.000115439
7.18572e-05
1.42801e-05
-1.7508e-05
3.2284e-06
4.27384e-05
3.64208e-05
-0.00131231
-0.000766916
3.39976e-05
-3.70288e-06
-3.02948e-05
0.000461714
0.000144018
-0.000605722
-5.75938e-05
-8.28124e-05
0.000140406
-0.000173637
7.26043e-05
0.000101033
-0.000105909
7.60302e-05
2.98777e-05
-0.0002608
0.000201073
5.97266e-05
0.000138467
-6.73523e-06
-4.84015e-07
-2.97086e-06
3.45363e-06
0.00034121
-0.000276996
-6.4214e-05
2.39661e-05
-7.07921e-05
0.00021439
-0.000284741
7.03469e-05
0.000127916
-6.02675e-05
-0.000253396
0.000216577
3.68218e-05
0.00048115
-0.000155091
1.10057e-05
-1.149e-05
-0.000528721
-0.000306687
0.000835419
0.000204354
-5.2992e-05
-0.000151361
0.00237441
-0.00071691
-0.00165759
0.000390113
-7.78965e-05
-0.000312223
-0.000192767
0.000461674
-0.000268903
-3.20287e-05
3.3874e-05
-1.84342e-06
-7.44317e-05
-0.000186368
-0.000171108
-0.000297221
0.000468328
-0.000332253
-0.000103788
5.21916e-05
6.11642e-05
4.37293e-05
-0.000104891
0.000295972
0.000196597
-0.000492571
-0.000131143
0.000217853
-8.67104e-05
-0.000265001
-0.000113337
0.00044703
0.000153573
-0.000350396
0.000196821
-2.77297e-06
-2.51137e-06
0.000239606
-2.61571e-05
-0.000213448
-0.000638264
0.000366792
0.000271468
0.00124036
-0.00110885
-6.45778e-05
-2.18249e-05
8.64017e-05
-0.000299749
0.000310581
0.000119237
-0.000234664
0.000115428
0.000471131
-0.000630213
0.000159102
4.45073e-06
-9.42772e-05
8.9826e-05
-0.000470416
0.000132053
-0.000278476
0.000377163
-9.86857e-05
8.01521e-05
-9.50322e-05
6.97223e-05
4.16141e-05
0.000197356
-1.56022e-05
5.80637e-05
-4.24603e-05
0.000157697
-0.00041253
3.21349e-05
2.05273e-05
-5.26603e-05
-0.000203375
-5.06281e-05
-6.89877e-05
9.67484e-05
0.000307292
-2.56235e-05
-0.000281659
2.06449e-06
3.19322e-05
0.000271214
-0.000351132
7.99173e-05
7.20471e-06
-6.1183e-06
-1.08671e-06
0.0015336
-0.00239913
0.000865492
7.42348e-06
-7.20019e-05
-4.10916e-05
9.06481e-06
0.00037514
-0.00127237
0.00089726
0.000918912
-0.00105484
-0.000256353
4.57067e-05
0.000210644
2.65569e-05
0.000140481
0.00031045
-0.00117291
0.000201685
-5.69926e-05
0.00109479
-0.0002323
-0.000862484
-1.63443e-05
6.71303e-05
-7.6424e-05
9.29341e-06
-1.1994e-05
0.000226383
0.000449841
-0.00130375
-4.59661e-06
-0.00013808
0.000142676
0.00128696
0.000678301
-0.00196524
-2.69531e-05
0.00011827
-9.13171e-05
-0.000114954
-0.000121227
0.00011663
2.58233e-05
-2.56645e-05
-1.59183e-07
6.65145e-06
5.53425e-07
-0.000126527
9.95741e-05
-0.000196305
-0.000148884
0.000345186
1.8853e-06
-1.67122e-05
3.93104e-05
1.17869e-05
-5.10969e-05
-0.000210831
-5.63982e-05
0.000175104
-0.000158191
-1.69133e-05
0.000215836
0.000241126
0.00123801
-4.43284e-05
0.000105494
-0.000264284
-0.000890718
0.000211941
0.000678774
0.000354216
-0.000200646
5.04692e-05
0.000111962
-0.000104959
-7.00409e-06
0.000558823
-0.00227482
0.000285202
0.000137223
-0.000422427
-0.000322168
0.00160912
-0.000375183
1.57719e-06
0.000120686
-0.000122262
0.000152381
-0.000238242
8.58637e-05
-0.000225394
8.79557e-05
-0.00014555
0.000926031
-0.000153077
3.46357e-05
3.02647e-05
-6.49004e-05
-3.57169e-05
0.000123672
-3.58112e-05
3.41537e-05
1.65681e-06
0.000883148
-0.00046159
-0.000421564
-0.000437773
-0.000302952
-0.000389771
0.000692744
-0.000288267
0.000210528
7.77387e-05
6.86168e-05
-5.08708e-05
-1.77464e-05
-4.56143e-05
0.000858877
-0.000175848
9.91475e-06
-0.000422254
7.73251e-05
-9.82e-05
-0.000155195
-0.000141988
0.000268727
-0.000126743
0.000141361
-0.000728507
0.000587129
2.75106e-05
-2.52323e-06
0.000288249
0.000173445
0.000126536
4.85689e-05
-0.000174762
-1.15347e-05
0.000186297
4.36987e-05
-0.000176217
0.000132518
0.000310429
-7.68958e-05
-0.000233533
0.000195728
-0.000154155
-4.15715e-05
-0.000135727
0.000294145
-2.29304e-05
8.93316e-05
-0.000243093
6.748e-05
0.000107907
-5.41128e-05
6.10228e-05
-6.9107e-06
0.000496982
-0.00028846
-0.000208521
1.60763e-05
-5.06172e-05
3.45413e-05
0.00107354
2.12458e-05
0.000176864
-0.000248576
0.0034482
-0.0023461
-0.00110213
5.95436e-05
4.54365e-05
-0.000312066
-0.00102714
0.0013392
6.63318e-06
0.000300664
-0.000411103
0.000235017
0.000176085
-4.60234e-06
2.00965e-05
-1.54947e-05
0.000715084
-0.000401248
0.000381426
-0.000214979
-0.000166452
-0.000124264
0.000145043
-2.07789e-05
0.000163709
0.000484697
-0.000648404
-0.000376427
9.34876e-05
0.000282941
-0.000253607
0.000103121
-0.000775635
0.000472648
-0.000136104
1.38954e-05
0.000122209
-7.27554e-05
0.000568922
0.000585074
-0.00115397
0.000234619
-0.000143872
-2.86146e-05
-8.46819e-06
0.000118467
-0.000260449
0.000161112
-2.81724e-05
-0.00013294
-0.000445027
-2.00748e-05
0.00046511
-8.71581e-06
4.80265e-05
5.16187e-05
-5.69404e-05
5.32233e-06
-0.000229858
4.34989e-05
0.000415503
0.000193636
-0.000609141
-0.000328583
0.000194237
0.000134346
-3.2664e-06
2.35491e-06
-0.000104508
0.000566224
-4.11824e-05
1.88659e-05
-0.000426463
0.000175131
0.00025133
-0.00020417
-3.32682e-05
-2.54322e-06
8.74123e-05
-1.69879e-05
-7.04234e-05
-8.45645e-05
-0.000382578
0.000318298
6.4242e-05
7.79286e-05
8.64713e-05
-0.000164399
0.000255454
-0.000426562
0.000481879
-1.07394e-05
0.000169392
-0.000269595
0.000100202
-8.40775e-05
1.44559e-05
6.96218e-05
5.17811e-05
-2.02925e-05
0.000136367
9.8582e-05
0.000200862
0.000457885
-0.000658725
5.49052e-05
-2.61365e-05
-0.000140105
0.000235933
-9.58277e-05
-7.92803e-06
-3.4027e-06
-0.00153732
0.00317312
-0.00163576
-1.30711e-05
1.56259e-05
-2.55481e-06
0.000218731
-0.000164289
-5.44421e-05
-0.000131155
0.000112041
1.91136e-05
1.61656e-05
-1.98926e-05
-0.00031457
-0.000323699
3.84803e-05
-0.000222296
0.000183817
-4.91603e-05
-0.000874389
0.00130997
-0.000435587
-5.30174e-05
0.000229882
3.44726e-05
-3.3731e-05
0.000167269
-0.000410451
0.000243182
2.60041e-05
-0.000191181
-2.14771e-05
0.000212655
8.06288e-05
-2.85536e-05
0.000677404
-0.000476533
0.000668568
-0.00172713
0.00105859
-4.99274e-06
-4.32156e-05
4.82089e-05
0.000150391
-8.84315e-05
9.25588e-05
0.000141087
-0.000233647
-1.65574e-05
-0.000119546
0.000146136
-0.000130988
-1.51489e-05
-0.000427487
8.67855e-05
0.000340701
0.000178009
-0.000134311
-3.26152e-05
4.86911e-05
0.000432531
-0.000349316
-0.000210015
-0.000439063
-3.82313e-06
-5.029e-05
0.000322437
0.000354997
5.05509e-05
-3.29015e-05
-1.76518e-05
0.000479319
0.000210372
-0.000689694
-2.61863e-05
-3.43242e-05
6.08046e-05
-2.98863e-05
-3.09181e-05
6.52933e-07
3.38197e-05
0.000190179
-4.05402e-05
3.72402e-06
-5.16753e-06
1.44305e-06
-2.53916e-05
-7.07568e-05
-0.000667243
0.000808607
4.04566e-06
-0.000169686
0.000165639
0.000132175
-0.000165659
3.34842e-05
-0.000867534
-0.000159653
8.4146e-05
-0.000182344
-2.68042e-05
3.61071e-05
-0.00248361
0.0021681
0.000315496
9.8107e-05
-0.000197197
0.000578703
-0.000163201
-0.000128489
6.58881e-06
0.000121901
-0.00021942
-0.000269367
0.000488787
-5.10104e-05
3.91089e-05
1.19036e-05
-7.57458e-05
-0.000177859
-2.36625e-07
1.2455e-05
-1.22183e-05
-0.000248151
-0.00028993
0.000538079
-7.44712e-06
8.22284e-05
0.00010437
-0.0001866
0.00107778
-0.000915386
-0.000162395
3.08555e-05
0.000414607
-0.000445464
-6.80273e-05
0.000138603
-7.0573e-05
-0.000383879
-9.45196e-06
0.000183792
-0.000174339
-0.000106253
0.000426706
-0.00143154
0.00138604
4.55016e-05
-0.000122709
-0.000160469
-1.57466e-05
6.02075e-05
1.38558e-05
-0.000110733
-0.001995
0.00128306
-0.00100922
0.000849668
0.000443003
0.000137131
-0.00018009
-0.000170307
5.88561e-05
7.66638e-05
0.000144194
-0.000578802
0.00114772
2.87884e-05
0.000190448
4.39298e-05
2.46869e-05
0.000159185
-2.72922e-05
-0.000131894
-0.00103987
0.00114635
-0.000106483
-0.00232585
-0.000337311
0.00266314
-0.000210435
-0.000474233
-7.76895e-05
0.000358905
-0.000281206
-1.91706e-07
-2.13499e-05
2.15413e-05
-2.9831e-05
-0.000144931
-0.000550504
-0.000176485
-3.44117e-05
0.000210897
1.2446e-05
-2.54567e-06
-9.89995e-06
0.000274999
-9.75183e-05
-0.000177482
1.98547e-06
0.000357172
-0.000409357
5.21842e-05
0.000117699
-0.000113249
-0.0012242
0.00159935
-0.000380779
0.000200688
4.62756e-05
-4.14767e-05
1.74183e-05
-9.96838e-05
8.22677e-05
-1.37561e-05
-0.00026472
5.76614e-05
-4.00487e-05
-1.76127e-05
0.000187242
1.71141e-05
5.49252e-05
-3.30602e-06
-1.30267e-05
8.424e-06
-6.84314e-05
7.21719e-05
-3.73981e-06
0.000155011
0.000304535
-0.000459546
-0.000321791
0.000272623
4.91682e-05
-0.000197743
0.000947188
0.00167015
-0.000107716
-0.000148637
0.000795862
-0.000628953
-0.000166876
8.11163e-06
-5.56078e-06
0.000477418
0.000689131
-0.0011665
0.000202698
-0.000211519
8.82127e-06
0.000109393
-0.000226495
0.000117104
0.000873978
-0.000948515
-4.40824e-05
1.81374e-05
6.40537e-05
1.99296e-05
6.65313e-05
5.99175e-07
-0.000270897
-2.60307e-05
3.22812e-05
0.000986566
-9.30852e-05
0.000205161
5.99522e-05
-2.50437e-05
-3.49104e-05
0.000203177
3.15664e-05
-4.74511e-05
4.59825e-05
2.70557e-05
-2.64032e-05
-4.09271e-05
4.67385e-05
5.63798e-05
9.84541e-05
-0.000154834
-7.30072e-05
0.000242399
0.00223227
-0.00376954
0.000112578
-0.000252682
2.85576e-05
3.22469e-05
0.000236494
0.000296528
6.06427e-05
-0.000224153
0.000255209
1.78058e-05
2.38981e-05
-4.17047e-05
-0.00107214
-0.000308739
0.00138087
-0.000137633
-0.000190951
6.25563e-05
-1.86268e-05
-0.00019009
0.000198988
-8.89763e-06
-0.000152674
0.000756688
-0.000129507
0.000264512
-0.000135005
0.000215828
-1.26498e-05
-0.000112086
0.000124769
-1.26826e-05
2.56228e-05
0.000149068
0.000468482
-0.000172508
0.000159319
-0.00010816
-5.11573e-05
0.00132089
-0.00189694
0.000576057
8.79292e-05
-5.01352e-05
0.000551348
0.000385038
-0.000818141
0.000433038
7.98159e-05
4.76373e-05
-0.000127452
0.000120696
2.54395e-05
-9.23803e-05
3.21944e-05
0.000713741
-0.000245707
-0.00046804
0.000995322
-0.000566345
-0.000428968
0.000114703
0.000237089
-0.000201929
0.000487132
-2.92024e-05
-4.71622e-05
-0.000119767
0.000713418
-0.000390968
-0.000247079
-0.000135511
-8.76727e-05
-3.61869e-05
8.42574e-05
9.85197e-05
-0.000182775
0.000641868
-9.42615e-05
6.17629e-05
-0.000445298
0.000476154
-0.000125467
-3.02202e-06
-0.000392795
-0.00012433
0.00051712
0.000274602
-0.000122221
0.000463685
0.000531645
0.000541738
0.000341409
-2.04638e-05
-2.07181e-05
0.000156695
0.000717285
-0.000417076
0.000311473
0.000105599
-0.000310454
0.00023277
-9.87835e-05
-0.000405992
0.000504769
0.00127607
-0.0012438
2.36995e-05
2.67086e-05
-5.04106e-05
-9.73722e-05
0.000540375
-0.00034197
0.000196627
0.000145345
-4.9034e-05
0.000683217
-0.000634178
-0.000470977
-7.94484e-05
7.99272e-05
-4.77138e-07
-6.68279e-05
-0.00234559
-0.000855186
0.00320075
3.6495e-05
-4.57766e-05
9.2836e-06
-0.00128532
0.000546611
0.000738704
0.000697089
-0.000506453
-0.000190641
-1.75952e-07
1.26222e-05
-0.000623389
0.00215698
0.000108931
6.40507e-05
6.0892e-05
-0.000124942
0.000324713
-0.000257523
-6.71886e-05
-0.000966855
0.000544024
0.000422835
4.7044e-05
-1.05478e-05
0.000718496
-0.000705595
-1.29009e-05
-1.50378e-05
-8.87992e-05
6.34864e-05
-2.3434e-05
-4.00515e-05
7.39906e-05
-9.93628e-06
-0.00011014
0.000254311
-0.000144173
4.63634e-05
4.42628e-05
-3.74187e-06
-4.0521e-05
0.000335423
0.000460453
-4.37309e-06
4.13668e-06
-0.000210293
-0.000120974
5.49376e-06
0.000115478
-0.000734789
-0.00126019
0.00014539
0.000156081
-0.00030147
4.91037e-05
-2.54061e-05
-5.7833e-05
5.98241e-05
0.000846066
-0.00012757
9.46875e-05
2.35828e-05
-0.000273669
0.000308213
-3.45448e-05
-0.000227322
-2.19857e-06
0.000265968
-5.54391e-05
0.000562306
-0.00109103
0.000145007
-8.86271e-05
-0.000295453
8.23833e-05
0.000213074
0.000366526
0.000330447
0.00255818
-0.000158174
0.000148721
-4.68624e-06
4.8391e-05
-4.37044e-05
0.000201171
6.47977e-05
0.000208335
8.24369e-06
-0.00106545
3.18584e-05
-0.000132712
-5.26935e-05
3.01049e-05
2.25887e-05
-0.000125188
0.000209548
9.46591e-05
0.000177358
0.000648178
-0.000825542
-0.000462555
0.000247114
-0.000112146
0.000102884
9.26183e-06
-6.76113e-05
4.58847e-05
0.000288663
-0.000132787
-0.000155874
0.000151502
6.70413e-05
-0.000226318
-1.0022e-06
1.95855e-05
5.41346e-05
-7.37175e-05
-1.14613e-05
1.59245e-05
-4.46222e-06
-0.00011546
0.000153941
6.63676e-05
-2.22419e-05
-4.41243e-05
-0.000704723
0.000959538
-0.000254761
-0.000629204
-0.000228249
0.00085745
-0.000171696
3.3018e-05
0.000388392
-0.00146054
-1.24447e-05
-9.96414e-05
0.000565315
0.000147599
-6.39098e-05
0.000355334
-0.000454118
1.65459e-06
-0.000275322
0.0022124
-0.000226202
0.000304611
-7.84138e-05
3.62401e-06
1.97638e-05
-2.33871e-05
-0.000160541
0.000515874
-9.28473e-05
6.78799e-05
-0.000172395
0.000104516
4.39073e-05
0.00024435
0.000440185
0.000167233
-0.000607418
-0.000634494
0.000276837
0.000357655
-0.000281126
-2.05975e-05
0.000301718
-1.25892e-05
-0.000144203
0.000156792
0.000124544
3.22109e-05
-0.000156753
0.000160926
4.50959e-05
-0.000206024
0.000822414
-0.000461364
-0.000361048
3.57342e-05
-7.0133e-05
3.43993e-05
-0.00348381
0.00337578
0.000108003
0.00170851
-1.6406e-05
4.9455e-06
-0.000268545
0.000397097
-0.000971279
0.000574217
0.00152684
-0.00105485
-7.34341e-05
0.000132294
0.000532105
-0.000927265
0.00283135
-0.00190412
-0.000614295
-6.04109e-05
0.000674724
4.58932e-05
-9.43334e-05
4.84402e-05
-0.00095901
0.000257762
0.000701212
0.000256975
-0.000338228
2.5379e-05
-0.000306509
3.39179e-05
-7.87583e-06
-2.60417e-05
0.000209021
-0.00020129
-7.72959e-06
4.04285e-05
0.000284278
-3.00475e-05
-2.13178e-05
5.13656e-05
-5.76721e-05
0.000121723
-0.000281573
-0.000331496
0.000613076
0.000111245
2.72236e-05
-0.000379079
-4.84102e-05
-0.000108381
-0.0006041
0.000712489
-0.00032833
0.000329984
-1.69737e-05
0.00150746
-0.00149047
-4.6325e-05
0.000260432
0.000405032
0.00193687
-0.000101606
0.000573734
-0.000472124
-9.75215e-05
0.000461499
-0.00036398
-1.3765e-06
2.79316e-07
6.11257e-06
1.68824e-05
-1.70743e-05
0.00128261
-0.000362797
-0.000156151
0.000635469
-6.0692e-05
1.3381e-05
-0.000734567
0.000311914
-5.91715e-05
0.00253393
-0.00115517
-0.00137876
0.000397929
-0.00035403
0.000277563
0.00064072
0.000178111
-0.000818833
4.58129e-05
-2.46876e-05
-2.11264e-05
-1.97564e-05
0.000206633
0.000123562
0.000345415
3.61787e-05
0.000180676
-0.000216856
2.83737e-05
1.74389e-05
-1.77893e-05
-3.49042e-05
-3.46827e-05
3.96535e-05
-4.97013e-06
-2.98033e-05
0.000154348
-0.000269747
-0.000192811
7.54676e-06
-4.5091e-05
-3.17789e-07
4.04041e-06
-2.68216e-05
0.000168912
-4.96743e-05
9.37262e-05
-2.48364e-05
-6.88898e-05
0.000591741
0.000121997
-4.60415e-05
4.13554e-05
0.000218273
-9.93829e-06
4.23633e-05
-5.18032e-05
9.44091e-06
0.000137565
-2.63216e-05
0.00104813
-0.00222693
0.00117883
0.000100652
-0.000565203
0.000464555
2.31748e-05
0.000511248
-0.000388357
5.26563e-05
0.00179835
-0.001851
0.000268438
-2.88322e-05
-3.81033e-07
0.000926416
-0.000107472
-0.000127192
-0.00023145
-4.67037e-05
0.000278156
0.000115444
0.000215772