/*--------------------------------*- C++ -*----------------------------------*\
| =========                 |                                                 |
| \\      /  F ield         | OpenFOAM: The Open Source CFD Toolbox           |
|  \\    /   O peration     | Version:  v2012                                 |
|   \\  /    A nd           | Website:  www.openfoam.com                      |
|    \\/     M anipulation  |                                                 |
\*---------------------------------------------------------------------------*/
FoamFile
{
    version     2.0;
    format      ascii;
    class       volScalarField;
    location    "300";
    object      p;
}
// * * * * * * * * * * * * * * * * * * * * * * * * * * * * * * * * * * * * * //

dimensions      [0 2 -2 0 0 0 0];


internalField   nonuniform List<scalar> 
18649
(
-0.442794
0.0150362
-0.0519919
-0.443653
0.405897
-0.0831623
-0.331546
-0.297356
-0.187121
0.0753246
-0.247419
-0.401272
-0.271616
-0.0509472
0.0423059
-0.151675
-0.00647928
-0.151704
-0.166563
-0.432779
-0.43651
-0.0196184
-0.417089
-0.240977
-0.0030404
-0.433562
-0.0105986
-0.401367
-0.364691
-0.0214541
-0.0309965
-0.0627243
0.00793524
0.0689318
0.0517354
-0.432132
0.147718
0.0119747
-0.0211669
-0.289414
-0.192037
-0.240004
-0.191929
-0.434412
0.0120261
-0.0218064
-0.444569
-0.443792
-0.406492
-0.0171312
-0.309392
-0.0849626
-0.442456
-0.388873
0.0077889
-0.406403
-0.403138
-0.217117
-0.439903
0.0736441
-0.442974
0.0196527
-0.189024
-0.44389
0.0104007
-0.443999
-0.0245922
-0.397273
-0.443149
-0.317947
-0.424014
0.0188571
-0.0494643
-0.0817986
0.0647824
-0.437549
0.152575
-0.0149325
-0.0795546
-0.053113
-0.00669793
-0.444928
-0.445924
-0.440301
0.151163
-0.021149
0.137581
-0.0828409
-0.125742
-0.0863645
-0.115711
0.0693102
0.0229706
-0.334765
-0.0191342
-0.238779
0.0675889
-0.0109138
-0.442477
-0.0101051
-0.418316
0.0886048
-0.00988828
-0.308558
-0.441707
-0.0885691
0.0359778
-0.0346396
0.0865587
0.0671722
-0.431484
0.28134
0.0230871
0.0715578
-0.279992
-0.059386
0.00818317
-0.384366
-0.434112
-0.0252772
-0.44181
0.00475898
-0.0519046
0.0195611
-0.443499
-0.00307993
0.0186755
-0.427255
0.00574573
-0.383431
0.0299513
-0.445277
0.00262854
-0.441281
0.152194
0.0319983
-0.434835
-0.40178
-0.113978
-0.0120822
0.26722
-0.00214545
-0.016209
0.00629008
0.0243055
-0.384467
-0.0168105
0.0218999
-0.410982
-0.443611
-0.315375
0.0359757
-0.444648
-0.0393531
0.00140868
0.00662474
0.334449
-0.0433786
0.00498843
0.0441718
0.0245602
-0.331407
-0.440714
-0.0388077
-0.441158
-0.28009
0.035849
0.0170205
0.000628151
-0.0578385
0.0307904
0.423389
-0.213287
0.401069
0.00857558
-0.288159
-0.410449
0.00757341
0.00524632
-0.323977
-0.331707
-0.0185159
0.00998489
-0.341097
-0.0672349
-0.152801
0.0239576
-0.00286368
-0.130949
0.0450279
-0.206656
0.00989702
-0.444981
-0.0347588
-0.00881636
0.0198251
0.134195
0.0165798
0.0652185
0.00982894
0.0220356
-0.263507
-0.39402
0.137368
-0.130411
0.268685
-0.387765
-0.444273
-0.033478
-0.445393
0.0446594
0.0105293
0.00852885
-0.445762
-0.445236
-0.0183717
0.167259
-0.00385079
-0.439593
0.0306881
-0.209117
0.0030461
0.146136
0.411696
-0.435592
-0.344699
-0.0189743
0.0307737
-0.437601
-0.282841
-0.130534
0.00172226
-0.406854
-0.151185
-0.433321
-0.33854
0.334237
0.415708
0.00264484
-0.313577
-0.0121392
-0.41313
-0.129345
-0.0181776
0.0707379
0.0396538
-0.440673
0.043435
-0.423309
0.0144216
-0.391998
-0.337063
-0.150476
0.0523348
-0.0705947
-0.429235
0.00270865
0.0446187
0.0739466
0.0653311
-0.0174253
0.281326
-0.445311
0.0460216
-0.00807603
-0.444466
-0.302202
0.0203043
-0.339931
-0.011206
-0.384845
-0.0885696
-0.436297
-0.438511
-0.17574
-0.0346791
-0.00788326
-0.27154
-0.347659
-0.443071
0.023266
-0.00280428
-0.444424
-0.0347437
-0.423916
-0.405969
-0.0412068
0.14923
0.0323581
-0.0207787
-0.20547
-0.390847
-0.332426
0.481492
-0.377114
0.028216
-0.320486
-0.373881
-0.00904913
-0.303833
0.00345805
0.0714453
0.0666604
0.0072559
-0.0245312
0.419583
0.0323224
-0.172273
0.424187
0.0683544
-0.431578
0.0725991
-0.178731
0.0418376
-0.0407334
0.00182824
-0.0493421
0.0089558
-0.445129
-0.431959
0.0359786
0.0250613
-0.193448
0.00835468
0.00760598
-0.0185853
0.0228958
0.0988908
-0.398559
0.278906
-0.444821
0.0175993
0.0261485
-0.187059
0.00435108
-0.0241252
-0.344441
0.0333174
-0.400277
0.140942
-0.330557
0.00461228
-0.0705805
0.00760643
-0.0441366
0.0292031
0.0204676
-0.0117824
-0.114144
-0.149913
0.0352301
-0.269739
0.0355412
-0.0187145
-0.44428
-0.331987
-0.0500769
-0.436948
-0.328893
-0.441418
-0.331711
-0.042867
-0.333257
0.0349921
-0.445332
-0.0497228
0.0707033
0.126734
0.0336367
-0.0299878
0.0088256
-0.0153556
0.0286061
-0.415162
0.103856
-0.433671
-0.444783
-0.358979
-0.442282
-0.0615157
0.0191714
-0.126158
0.00405401
-0.206562
0.00839368
0.0355576
0.512691
-0.32689
-0.0392441
-0.0174138
-0.368424
-0.0937084
0.0344025
-0.323026
-0.048654
0.124714
-0.435674
-0.0570211
0.0327252
-0.346561
-0.418307
-0.15003
0.0218968
0.0259936
-0.410557
-0.345003
-0.00401838
-0.387061
-0.0124798
-0.00607224
-0.34221
-0.0232349
-0.394415
-0.0571698
-0.245855
-0.438049
-0.270339
-0.293795
0.00309352
-0.438426
0.0352679
-0.273225
-0.152254
-0.444232
-0.409761
-0.0151186
-0.0242373
-0.315658
-0.44341
-0.0716275
-0.412628
-0.0377169
-0.0175293
-0.00706798
-0.381392
-0.262481
-0.443285
-0.0326772
0.0693684
0.506261
-0.443459
0.126126
0.0338224
-0.0170984
-0.0131628
-0.442288
-0.426012
0.00747367
-0.0358254
-0.429962
-0.0213353
-0.443777
-0.0167559
-0.445332
-0.087129
-0.443798
0.080357
-0.381494
-0.444825
0.00318094
-0.186254
-0.018728
-0.176784
-0.0607111
0.043828
-0.0349197
0.342036
-0.0208272
-0.0503235
-0.443831
-0.0113865
0.0209547
-0.270795
-0.00112496
-0.433341
-0.0433136
-0.0492495
-0.0352732
-0.0934607
-0.0476401
0.022026
0.232382
-0.00628156
0.183067
0.0251537
-0.0652131
-0.435462
0.022112
-0.338584
-0.0505378
-0.325239
-0.355907
-0.35824
-0.445357
-0.096141
-0.181083
-0.128669
-0.443393
0.056073
-0.172417
0.060525
0.393996
-0.268547
-0.0754373
0.00827521
0.397627
-0.269977
-0.34467
-0.0248562
-0.435626
0.105404
-0.211523
0.0367408
-0.157448
-0.439176
0.0358156
-0.0353481
-0.356858
-0.022531
-0.0209371
-0.020817
-0.0854582
-0.00961607
-0.123902
-0.00113979
0.156454
0.0131834
-0.30361
-0.0259909
-0.445994
-0.392274
-0.329276
-0.442052
-0.0486048
-0.334935
-0.175291
-0.387935
-0.444858
-0.0260506
0.189285
-0.243085
-0.0517581
-0.262829
0.0106644
0.0357199
-0.0506843
0.00496028
0.0134894
0.0112983
-0.432014
-0.0115301
-0.00911335
-0.0891689
-0.0198693
0.259994
-0.336265
0.0573179
-0.19002
-0.336983
-0.0707556
0.0256874
-0.443398
-0.283177
-0.437236
-0.2643
-0.131739
-0.0223014
-0.0973593
-0.115638
-0.0447525
-0.372499
0.0142453
-0.0450191
-0.0197736
-0.33779
-0.443833
-0.376697
-0.00364229
0.0197437
-0.411614
-0.443527
-0.254778
-0.0669589
0.24518
-0.360222
0.00367799
-0.359662
-0.0177163
0.0772103
0.0767893
0.180183
-0.442151
-0.0428146
0.167694
0.0816299
0.0297073
-0.44635
-0.165686
0.0335093
-0.393073
-0.116527
-0.304929
0.00271532
-0.429855
-0.122928
-0.0943957
-0.00204943
-0.442516
-0.163141
-0.188498
-0.188266
-0.440702
-0.0717148
-0.376255
-0.0369363
-0.00621485
-0.363861
-0.0805994
0.00763241
0.25169
-0.049256
-0.180413
-0.00872635
0.0375144
0.257327
-0.278712
-0.443917
0.00887549
-0.433625
-0.0179919
-0.0242944
-0.152012
-0.0196592
-0.0213019
0.0695409
-0.37056
0.061535
-0.181745
-0.214586
0.0448378
-0.000396253
-0.00270273
0.0751769
-0.386918
0.0191916
0.110133
-0.010517
-0.312484
0.0177015
0.0815219
-0.0472257
-0.0110906
-0.43053
-0.26623
0.43473
0.0105859
-0.43271
-0.114145
-0.0205743
-0.100336
-0.442124
-0.0594643
-0.0231985
-0.389754
-0.311107
0.0234657
-0.444447
-0.431337
-0.0370961
-0.0450771
-0.166406
0.0751698
0.0327358
-0.255157
-0.423772
-0.447446
-0.392652
0.0324747
-0.41946
0.0173049
0.0105326
-0.019909
-0.443142
-0.0114906
0.00760833
-0.361198
-0.44308
-0.0467771
-0.387007
-0.0659617
0.00806455
-0.307356
-0.0833554
-0.260174
0.0225797
-0.119949
-0.0238585
-0.0730022
0.0306906
-0.241259
-0.0010652
-0.444732
-0.440367
-0.293507
-0.441186
-0.443325
0.115764
-0.43501
-0.400501
-0.212043
0.0769152
-0.0201854
-0.44398
-0.306658
-0.392136
-0.228936
-0.0858691
0.0293174
0.00571312
-0.366892
-0.444835
0.0200696
-0.0337963
-0.398543
-0.301648
-0.442745
-0.263511
0.000855583
0.0754213
-0.433585
-0.444742
-0.00470245
-0.0975192
-0.0072672
-0.19819
0.0364462
-0.401664
-0.0899435
0.0223693
-0.041163
-0.440056
0.0336423
-0.0475193
0.0382459
-0.00206502
0.0251466
-0.273492
0.0904355
-0.358811
-0.334042
-0.441812
-0.334723
0.0192815
-0.388681
0.124159
-0.0620856
-0.380095
0.0296383
0.0446445
-0.0252647
0.0978172
-0.351928
0.177979
0.0312147
0.0380349
-0.0218453
-0.0193504
-0.0239982
0.0333292
0.0452022
-0.312355
0.104633
0.0107369
-0.0214509
-0.208368
0.162345
0.0119245
-0.356065
-0.444288
0.0194455
-0.443383
-0.361205
-0.154357
0.0390073
0.0273813
0.0119533
-0.164395
-0.441527
-0.270654
-0.0249335
-0.307277
-0.375016
-0.443192
-0.0450754
-0.444409
-0.300641
-0.410924
0.15597
-0.436917
-0.025373
-0.443126
-0.390648
-0.369333
0.00944454
-0.0357801
-0.00937303
-0.325084
-0.0111814
-0.289126
0.0205934
-0.227703
-0.0949061
-0.412033
-0.338416
-0.0186058
-0.370077
-0.0555293
-0.257933
-0.226262
-0.351957
0.0269041
-0.220249
0.268097
-0.324857
-0.443286
0.0333015
-0.441721
-0.284911
0.0388503
-0.42753
-0.264388
-0.00412668
-0.302115
-0.345975
7.22279e-05
-0.101513
-0.419743
0.0393624
-0.435922
0.0332331
0.0294643
0.0441379
-0.116566
0.0114565
-0.0236079
-0.334458
0.0307725
-0.0598102
-0.038153
-0.301194
0.138704
0.027594
-0.0236387
-0.434805
0.0117225
0.118888
0.401231
0.00169514
-0.331634
0.0324396
-0.100071
-0.426437
-0.252439
0.119039
0.0196919
0.00427993
-0.0609793
-0.363565
-0.0506868
0.0150591
-0.168763
0.0360981
-0.396446
-0.0989513
0.0142925
0.0215047
-0.0749067
-0.0306667
0.380307
0.051655
-0.00913746
0.442281
0.0274161
-0.369016
-0.39912
0.00385615
-0.354826
0.026943
-0.433323
0.0262825
-0.225999
0.105803
-0.254743
-0.133463
0.00264225
-0.220625
-0.0500145
-0.444756
-0.359307
-0.391006
-0.273871
-0.166514
0.0257261
0.00617237
-0.442494
-0.417002
0.0205837
-0.284225
-0.277223
-0.00937593
0.270727
-0.329795
-0.407012
-0.0234532
-0.425077
-0.287495
-0.428487
-0.44394
-0.370473
-0.36906
-0.167622
0.00606134
0.123056
-0.098444
0.0254552
0.00156457
-0.437053
-0.0476841
-0.171699
-0.39763
0.120567
-0.320157
0.160308
-0.418499
-0.264786
-0.191171
0.00888872
-0.443339
0.000926762
-0.408659
-0.406389
0.0196151
-0.201956
0.0451847
-0.424626
-0.36058
-0.147681
-0.385539
-0.0223303
0.0102912
-0.442368
-0.0767015
-0.444612
-0.0223147
0.0147454
0.00852709
0.00658402
-0.10475
0.00310403
-0.010939
0.126422
0.107843
0.0144937
-0.292507
0.0189508
-0.0590032
0.0384905
-0.0466952
-0.264664
-0.341677
-0.274816
-0.434713
-0.438648
0.408128
-0.363872
0.104764
0.0894209
-0.441101
-0.0494774
-0.000134372
0.0231346
-0.0337947
-0.191758
-0.0726701
-0.314564
-0.0613306
0.00506331
-0.430493
-0.397725
-0.402328
0.354159
-0.417892
0.0268382
0.0405878
0.026778
0.0169019
-0.00647773
0.34424
-0.442548
-0.231568
-0.324882
-0.440662
-0.424412
-0.0305693
0.0324241
0.260215
-0.00968073
0.287321
-0.3965
-0.101848
-0.28939
-0.435761
0.192333
0.418138
-0.0235456
-0.0165311
-0.0727244
-0.443707
-0.0212062
0.0267743
0.0608413
0.125284
0.039949
-0.445299
-0.0591745
0.0084429
0.0033116
-0.24424
0.0615846
-0.0627854
-0.441782
-0.00887621
-0.335923
0.103293
-0.170859
-0.00722063
-0.444404
0.0456389
-0.261569
-0.245281
-0.329611
-0.0205199
-0.323882
0.0448691
-0.0388714
0.166837
-0.0501841
-0.0251244
-0.0323578
-0.0177089
-0.41189
-0.321021
-0.0486572
-0.443982
-0.443976
0.0390983
0.0191215
-0.115852
-0.0358615
0.0646914
-0.392315
-0.024023
0.0334708
0.00996594
-0.327788
-0.36452
-0.0708284
-0.368988
-0.126373
-0.378135
-0.358534
-0.0485672
0.0312837
-0.257164
-0.0468315
-0.300085
-0.440999
-0.373779
0.0440652
-0.0401529
-0.414762
0.0311784
-0.440464
-0.443195
-0.318714
0.0456426
0.0069836
-0.332133
0.113879
-0.013057
-0.0962814
-0.0138443
0.0135501
0.0985667
0.0165623
-0.430662
-0.0467274
0.00757244
-0.323639
0.0067434
-0.4352
-0.163341
-0.334655
-0.0481115
-0.359242
-0.230412
0.0224857
-0.345578
0.0138764
-0.37492
-0.322187
-0.0585605
-0.412268
-0.0340634
0.0435343
-0.443545
-0.0153309
-0.445132
-0.133838
0.0314644
-0.435637
-0.02202
-0.0177617
0.00804175
-0.00318031
-0.0235677
-0.0683954
0.008243
-0.000137124
-0.0193625
-0.0372596
-0.0305474
-0.328787
0.0204123
-0.445537
-0.441025
-0.0611207
-0.44414
0.00242133
0.000391046
-0.443927
-0.392939
-0.129451
-0.353538
0.0873933
0.0236655
-0.0944968
0.0295535
0.029822
-0.0420495
-0.183988
-0.28946
-0.273703
-0.0649588
-0.0709826
-0.335541
-0.437383
0.0486645
0.332802
0.118243
-0.257197
-0.396511
-0.396019
-0.312295
-0.345029
-0.169537
-0.440739
-0.445603
-0.0897659
0.0276009
0.00350026
-0.35119
-0.0693854
-0.0474618
-0.313286
-0.129973
0.0978857
0.0273543
-0.424326
-0.438183
0.136484
-0.441671
-0.0476575
-0.0468563
-0.441362
-0.0368985
0.0357465
-0.444423
0.0180955
0.142261
-0.421582
-0.304386
0.0197187
0.0128168
-0.412124
-0.215578
-0.398718
0.00394884
-0.417384
-0.254984
-0.442011
0.0157262
-0.44295
-0.0225034
0.0106327
-0.035959
0.00781202
-0.259547
-0.00035692
0.0579991
0.016477
-0.0103136
-0.364843
-0.339172
0.0160817
-0.299027
0.14694
-0.27884
-0.364778
-0.395973
-0.0104865
-0.0260748
0.351346
-0.00669179
0.0182125
-0.00340782
0.100778
-0.235685
0.0353308
-0.426993
-0.443721
0.0125451
0.0622913
0.0213302
0.00524601
-0.233498
-0.442714
0.0354474
-0.431181
-0.401359
0.0157626
-0.285216
-0.0381233
-0.399063
0.0260438
-0.0237023
-0.440503
-0.436349
0.00443252
-0.43695
0.0966869
-0.41007
-0.0213623
-0.171051
-0.423205
-0.0567075
0.452579
-0.43921
-0.0515209
0.261862
-0.0848638
-0.437202
-0.326055
-0.0512965
-0.35251
0.0751907
-0.024219
0.0354565
0.301413
-0.445048
0.00782821
-0.399747
-0.426139
-0.0136333
-0.279925
-0.0196364
-0.438979
0.0321255
-0.242686
0.063582
-0.0232657
-0.191458
-0.426163
-0.365892
-0.103085
-0.21813
-0.430167
-0.0670256
-0.230849
-0.334284
-0.390027
-0.436211
-0.396539
-0.287323
-0.123298
-0.0218458
0.0280046
-0.408593
-0.415511
-0.037934
0.233616
-0.43732
-0.122247
-0.320216
0.201938
-0.353724
-0.435351
-0.0771232
-0.421819
-0.0986865
0.168608
-0.400894
-0.291788
-0.426032
0.115429
-0.441314
-0.413041
0.0374841
-0.0372037
-0.0432148
-0.0524681
0.00293723
-0.0076822
0.392364
-0.391648
-0.443676
0.0476162
-0.332709
-0.408699
0.161293
0.339076
-0.109394
-0.364279
0.415587
0.0314937
-0.445934
0.0800473
0.0121942
-0.0262576
-0.426818
-0.0142965
-0.423091
0.0339555
-0.00935092
-0.029559
-0.436049
0.211186
-0.166175
-0.288067
-0.438003
-0.36368
-0.297074
-0.0372808
-0.310561
-0.322111
-0.445124
0.0569445
-0.191195
-0.423342
-0.445108
0.0204019
0.0271096
-0.419471
-0.145386
0.232455
-0.430154
-0.42108
-0.428078
0.0225614
0.0215663
0.0356908
-0.199012
-0.247863
0.0494222
0.0332796
0.406701
-0.257042
-0.121115
0.0324447
-0.024191
0.0204695
0.0855834
-0.0271274
0.141578
-0.0237297
0.0367182
-0.38558
-0.441319
-0.301453
-0.0375563
-0.118826
-0.320054
-0.00144821
-0.0456767
-0.0181089
-0.0191374
-0.450555
0.0089525
0.0302649
0.0211801
0.00760477
0.00850497
-0.440077
-0.01263
0.191713
-0.26562
0.0197741
0.0160881
-0.0188677
-0.239387
-0.211207
0.0173366
0.00763818
0.163111
0.457013
-0.0429563
-0.105196
-0.0745058
-0.444878
-0.0619503
0.0322038
-0.020981
-0.446038
-0.440346
-0.266016
0.00854335
-0.391829
0.00130886
0.0184418
0.243991
0.0149257
0.00844507
-0.219029
-0.156892
-0.00829819
0.0344486
0.0210532
0.00578794
-0.18962
-0.0257428
-0.392371
-0.418464
-0.0899003
0.128376
-0.0383662
-0.25883
0.0230703
0.010079
0.0205695
-0.165028
-0.0849454
-0.0729547
-0.307402
0.00592428
-0.169394
-0.0267908
0.083577
0.0122565
0.251564
0.0341613
0.00707344
0.0347564
0.116663
0.0171338
-0.364241
0.0447896
-0.427492
-0.350307
0.00981742
-0.42454
-0.156079
0.275853
-0.443453
0.0433279
0.0191657
0.0616547
-0.221519
-0.0762254
-0.00548697
-0.116643
-0.377712
0.0287315
0.0092047
0.0228296
0.027515
0.225652
0.024608
0.00571019
0.0313874
0.000782289
0.0113579
-0.0256265
0.00806428
-0.372502
-0.233817
0.0324934
-0.0504067
0.0343988
-0.165289
-0.0466742
-0.444615
0.0130294
0.00230574
-0.423954
-0.0952773
-0.0358802
0.0355968
-0.00973654
0.0101549
-0.0948878
-0.0205018
0.04429
-0.367157
0.293876
-0.440563
-0.152589
0.0184635
0.0203505
0.286862
0.0967402
-0.316717
0.0268513
-0.344118
0.00716975
0.00574668
0.125156
-0.236386
-0.314832
-0.443569
-0.292738
0.0098069
0.0931388
-0.339385
-0.3222
-0.411356
-0.390396
-0.0218871
0.246759
0.00535667
0.0444791
0.00741143
-0.0789044
-0.00904936
-0.0139362
-0.394818
-0.0213857
-0.0200409
-0.0593864
-0.0739018
0.00355391
0.0287416
-0.41341
0.103462
-0.0158371
-0.177357
0.00923738
-0.281982
0.182872
0.0291605
-0.174595
0.00029301
-0.17791
0.0293423
0.239549
0.0243534
-0.440068
0.00632126
-0.049816
-0.0379573
0.011542
0.0504319
-0.00936001
-0.444664
-0.338583
0.0116907
-0.324844
-0.423517
-0.0263079
-0.000401913
-0.309615
0.25449
0.183903
-0.444857
-0.0254609
-0.00969873
0.00548948
-0.397822
0.0151269
-0.257466
-0.443355
-0.34593
0.060712
-0.0324222
-0.241098
-0.172728
-0.127685
0.276796
0.11294
-0.43864
0.00863609
-0.389266
-0.441675
-0.361949
0.039534
-0.363347
-0.0453776
-0.249224
0.032029
-0.14691
-0.000530435
0.433174
-0.112369
-0.0474337
-0.445806
-0.425507
-0.0382177
-0.44084
-0.00168075
-0.0139408
0.024314
-0.310044
0.0151382
-0.360968
-0.220843
-0.414066
0.029556
0.0348556
-0.0988163
-0.4388
0.0912912
-0.184626
0.0478263
-0.445851
-0.0402731
-0.220797
-0.444773
0.0527075
-0.438699
-0.170736
-0.256026
0.00825367
0.0813711
0.166299
-0.00495718
0.23785
0.0444395
-0.0352443
-0.233117
-0.0139349
-0.356653
-0.00868474
-0.174854
-0.436355
-0.055201
-0.44177
-0.444068
-0.308618
-0.422064
0.0617696
0.395871
-0.289825
-0.0273031
0.00783128
-0.0255638
0.0250706
0.0870135
-0.2565
0.0119914
-0.184205
-0.154145
-0.440451
-0.0195156
0.238015
-0.44572
-0.367544
-0.4442
-0.0349227
0.0184586
-0.0197021
-0.319347
0.375036
-0.265404
-0.40146
-0.148566
-0.111137
-0.00573282
-0.0731167
-0.0266277
-0.363316
-0.00121767
-0.0131427
-0.432685
-0.109576
-0.20232
-0.108555
-0.303062
0.082001
-0.0226991
0.0309783
0.0670381
-0.309083
-0.00950471
-0.00689133
0.368062
0.0441687
-0.00346979
-0.0230918
0.127249
-0.170142
-0.122974
-0.232568
0.0788804
-0.0253259
0.131589
-0.216632
-0.443284
-0.217086
0.460006
-0.0171955
-0.0207471
-0.414989
0.00902118
-0.0136156
-0.00673133
-0.00776496
-0.113052
-0.0386047
-0.445813
-0.334134
-0.0345996
-0.419637
-0.260225
0.0333999
-0.441069
-0.278068
0.446819
-0.00666099
-0.0152228
-0.322113
-0.0241117
-0.0336046
-0.159117
0.00324805
0.0388021
-0.334182
-0.214768
-0.202655
0.0171112
-0.0238085
-0.382852
-0.274935
0.0368971
-0.0748489
0.0316453
-0.348443
-0.233813
0.0274142
0.0302929
0.00911579
-0.44403
0.49572
-0.0699659
0.00300427
-0.0464312
-0.052424
-0.127001
-0.439934
-0.442448
-0.0154146
0.024369
-0.409984
-0.0605987
-0.00857101
0.0439316
-0.0584595
-0.0127588
-0.437824
0.0351892
-0.288408
-0.320212
0.0208503
0.0186985
0.0299264
-0.401611
-0.0159673
-0.409971
-0.444906
-0.251153
0.00917636
0.421796
-0.442716
-0.0233041
-0.43922
-0.222327
-0.358658
-0.0132928
0.0361852
0.386103
-0.0129022
-0.357797
-0.272663
-0.361533
0.0303401
0.0986062
-0.350286
-0.422818
-0.102098
0.0364245
-0.113207
0.00885184
0.508463
-0.413854
-0.433771
-0.186083
0.0200509
0.00909202
-0.376122
-0.402516
0.0243843
-0.294682
-0.213116
-0.367049
-0.0780397
0.0358898
-0.429934
-0.4445
0.00873573
0.0995813
0.0426205
-0.235348
-0.100485
-0.130538
0.0250238
0.0420418
-0.0858178
-0.409848
-0.365673
-0.402943
-0.0937178
-0.280297
0.0156843
-0.443254
0.0326569
-0.415948
-0.385669
0.00473441
-0.06728
-0.00460251
0.0267708
0.0287266
-0.149053
-0.441334
-0.0370529
-0.444854
0.0231208
-0.0553144
-0.415995
-0.381092
-0.129853
0.289637
-0.0460964
-0.445852
-0.132975
0.00551706
0.0081716
0.0193491
0.00344182
0.00158271
-0.436664
-0.0269471
0.0529163
-0.0260927
0.0176653
0.0054766
-0.19133
0.105443
0.00865677
-0.44477
0.0194828
0.0625226
-0.0986541
-0.444483
-0.0225736
0.0297598
-0.0122333
0.0533818
-0.444485
-0.20678
0.0493559
0.0380179
-0.134547
-0.00627404
0.0165503
-0.309543
-0.258944
-0.381889
-0.0575864
-0.439346
-0.445177
-0.0926209
-0.0171926
-0.405521
-0.0234019
0.0393549
0.0346504
-0.362665
-0.445467
0.000375181
-0.211618
-0.334097
0.0553111
0.00508938
-0.0438678
-0.440568
0.018352
-0.371234
0.0182056
-0.167218
0.249767
0.0223442
-0.44375
-0.281868
0.454665
-0.153437
0.000800857
0.045792
-0.126826
0.0332625
-0.396516
-0.454125
-0.0329352
0.0173289
-0.123923
0.00632182
-0.325226
-0.366038
-0.416001
0.0450047
0.0365191
-0.443221
0.0365759
0.243972
-0.0385989
0.0436239
-0.410316
-0.31311
-0.0643303
-0.250426
0.490298
-0.179657
-0.131073
-0.0324004
-0.129687
0.0685861
-0.444275
-0.0399301
-0.42436
-0.192899
-0.00298336
0.148281
0.0533387
0.0086358
-0.141334
-0.0899901
-0.44035
0.0162997
-0.0462238
0.0325439
-0.300913
-0.0254636
-0.411968
-0.429898
0.0491832
-0.0251193
-0.436777
-0.0296971
-0.440611
-0.43083
-0.428564
-0.0213688
-0.438074
-0.337137
-0.0378722
0.0166427
0.0832349
0.00447762
-0.414256
0.00309198
-0.233925
-0.0651027
-0.15873
-0.430486
-0.167981
0.0390906
0.000786709
-0.404269
-0.442789
-0.409488
-0.443952
-0.100788
-0.423334
0.00946754
-0.42121
0.326955
-0.263543
0.0896784
-0.318425
-0.332182
-0.439797
0.025275
0.306007
-0.00963216
-0.0164808
0.0317492
-0.0100711
0.0474586
-0.424891
0.00399685
-0.298132
-0.350804
-0.441696
0.42201
-0.00908387
-0.0870204
0.00211573
0.0394896
-0.445324
-0.437467
-0.240292
-0.0225112
-0.380659
-0.30876
-0.0996422
0.366172
-0.410309
0.0122873
0.0450751
-0.449444
-0.330071
-0.00487685
-0.015642
-0.149053
-0.0182349
-0.423142
-0.310032
0.129121
-0.0263988
-0.350506
-0.00544185
-0.0126487
0.0793167
-0.321667
-0.0923039
-0.0612181
-0.0720724
-0.173495
-0.251163
0.0492615
-0.430247
0.323465
-0.415399
0.281482
-0.321591
-0.442424
-0.415091
0.292992
-0.0422844
-0.0974316
-0.439311
-0.425379
-0.444914
-0.0624577
-0.0271862
-0.0136136
-0.208674
0.0444446
-0.443384
-0.445729
-0.444655
0.0832314
-0.0576377
0.036402
-0.0536413
-0.43605
-0.319374
-0.0142279
-0.296876
-0.356361
-0.441587
-0.151585
-0.306029
-0.00293559
0.0240554
-0.349317
0.000871512
-0.0315297
0.0745615
-0.337405
-0.44387
-0.0238246
0.298246
-0.350682
0.0145963
-0.139717
-0.0609021
0.0934991
-0.380981
-0.402139
0.0402943
-0.441393
-0.440726
0.00775232
-0.412866
-0.426335
-0.261276
-0.0873173
0.0110746
-0.359497
-0.0454389
0.000447189
0.0449649
-0.234492
-0.0710119
-0.425119
-0.422375
0.00431568
-0.015874
-0.346174
-0.309895
-0.334601
0.0304685
0.353669
-0.00462118
-0.445693
0.352613
-0.39549
-0.113626
0.00835817
-0.022751
0.00956451
-0.370203
0.0808122
0.0164785
-0.438443
0.0087085
-0.00730453
-0.102373
-0.366059
-0.349388
-0.306492
0.0214596
-0.405208
-0.0230561
-0.0245085
-0.24514
-0.2886
-0.353346
-0.435291
0.0631698
-0.42564
-0.260491
0.00194543
0.467977
0.0304019
0.0482486
0.00235668
0.0397441
0.0508759
-0.00848283
-0.115746
-0.413071
-0.00302825
0.00174872
-0.0588583
-0.0971142
-0.242727
0.0131778
0.0340862
0.0241091
-0.319207
0.000496072
-0.00175803
-0.0712722
0.0536804
-0.127837
0.0377067
-0.347092
-0.362894
-0.0820506
-0.425191
-0.00508689
-0.253407
-0.43031
0.0188693
-0.0162686
-0.260659
0.363371
0.0543346
-0.0251027
-0.444495
-0.313812
-0.178641
-0.0251384
0.0792511
-0.42507
0.0283432
-0.302207
0.0105205
0.0550799
0.0545733
-0.443375
-0.0637596
0.00175629
0.0284048
-0.100091
-0.197414
0.0162287
-0.251641
-0.412831
0.0361585
-0.428762
0.033213
-0.177806
-0.27262
0.0181214
-0.368457
0.504479
-0.0500869
0.0456883
-0.00303548
-0.15772
-0.427353
0.0404117
-0.439744
-0.440206
0.0512303
-0.00523977
-0.329335
-0.214384
-0.281904
-0.445005
-0.0407154
-0.438544
0.0156741
0.0321392
0.0706516
0.0683026
0.0215685
-0.0266332
0.029805
0.00999474
-0.0426981
0.0111403
-0.443776
0.0466081
0.360353
0.019425
-0.0146224
-0.265058
-0.444903
-0.347937
-0.0721207
-0.216918
-0.0390492
-0.0116103
0.0354863
-0.0491448
0.117375
-0.209477
-0.41913
-0.445916
-0.152428
-0.442655
-0.0178549
-0.445701
0.0395616
-0.0779241
-0.425299
-0.0272957
-0.425309
0.0304901
-0.417975
-0.442537
-0.190557
-0.327707
-0.177276
-0.392504
-0.0118912
-0.0241216
0.00725249
-0.436724
-0.230289
0.057293
0.0309934
-0.0286351
0.0401001
0.0156732
-0.366022
-0.309171
-0.0303186
-0.297024
0.0107787
-0.233035
0.319671
-0.340351
-0.0271768
-0.442373
-0.00516911
-0.334941
-0.420789
0.097542
-0.199862
-0.0712295
-0.250722
-0.443661
-0.352822
0.0921181
-0.0744791
0.0885313
-0.0465733
-0.0695776
-0.281674
-0.109806
-0.220298
0.0289609
0.0672054
0.0988166
-0.0311409
0.000673856
-0.0246235
-0.445074
-0.0211863
-0.126276
-0.173122
0.0307882
-0.273833
-0.371155
-0.263808
0.0376891
0.00469109
-0.437342
-0.0260437
0.0326657
0.0140769
0.0515907
-0.0640697
0.102788
-0.0417431
0.381978
-0.0617875
-0.211115
-0.341144
0.046157
-0.444912
0.0407624
-0.411775
-0.143575
0.118978
-0.0155474
0.0761635
-0.320702
-0.0113379
0.0745067
-0.407317
-0.0429413
-0.0173831
-0.274385
-0.323279
-0.0039619
-0.0160524
-0.425206
-0.442025
-0.335381
-0.0103605
0.0198506
-0.444664
-0.0269193
0.0295288
0.0611215
0.0536689
0.14736
-0.00555333
-0.418421
-0.0894445
0.289812
-0.00441384
0.0347343
0.0911441
-0.392233
-0.444817
-0.277179
-0.0462181
-0.442348
-0.35964
-0.446106
0.0324199
-0.0153031
-0.40955
-0.00273137
-0.413815
-0.443696
-0.4448
0.00323528
-0.022877
-0.00358975
-0.0466112
0.068918
-0.444578
-0.33815
0.176971
-0.301787
-0.00302945
-0.417649
0.00121228
0.0387011
-0.403928
-0.322582
-0.0231388
-0.0596364
0.459575
0.0293542
-0.441503
-0.0987584
-0.43681
0.00606723
-0.429423
-0.383187
-0.0664006
-0.357621
-0.42957
-0.433015
-0.287739
-0.199399
-0.0774169
-0.358457
0.0256074
-0.0369229
0.0277412
-0.320418
0.0413473
0.0452261
0.0181613
-0.196035
0.0420274
-0.0265643
-0.33747
-0.356486
-0.233196
-0.432849
-0.354369
0.0199125
-0.278774
-0.387151
-0.126238
0.000721731
-0.0119572
0.0823987
-0.42875
-0.424496
-0.304805
-0.00249646
-0.381889
-0.39035
-0.440087
-0.442049
-0.0168409
-0.229945
-0.0108473
-0.0180752
-0.440564
-0.309428
0.0234946
0.0330573
0.00927162
0.0193759
-0.44221
-0.442379
-0.287867
-0.0265549
-0.439771
-0.0373262
0.433656
0.500118
0.350333
-0.0356764
0.0353606
-0.43745
0.000197172
-0.442816
-0.00412311
-0.27756
0.0606165
-0.186007
-0.407959
-0.0441875
-0.433606
-0.137404
-0.445645
0.0471733
-0.372298
-0.0038782
-0.404758
-0.393686
-0.432575
-0.441902
0.053248
-0.444287
0.0885949
-0.136565
-0.226016
-0.340328
-0.0514197
0.000212997
-0.390911
-0.0206758
-0.0423078
-0.425927
0.0142222
0.0201753
-0.433248
-0.362456
-0.311776
0.0320407
-0.421445
0.0291852
-0.0460038
-0.394823
-0.0553109
-0.0301425
-0.440899
-0.442753
-0.07538
-0.435784
0.0140062
-0.160282
0.46691
-0.442672
-0.0815451
-0.167869
-0.354954
-0.436872
-0.445304
-0.0179718
0.0892312
0.146232
-0.0501062
-0.014866
-0.077123
0.044328
-0.443408
-0.430671
0.00731369
-0.0245847
0.0424125
0.181465
0.018295
-0.333637
-0.2042
-0.377277
0.380838
-0.0367613
-0.0187242
-0.264204
-0.0159845
-0.403929
0.032012
-0.437944
-0.30179
-0.442905
-0.200112
-0.00264407
-0.110905
-0.372417
-0.203423
0.0242679
-0.429206
-0.00647179
0.0703173
-0.129975
-0.130733
-0.44048
-0.442813
0.219535
-0.352576
-0.444619
-0.0890296
-0.444622
-0.149963
-0.353859
0.137263
-0.0232874
-0.369988
-0.442197
0.115787
-0.374669
0.0708007
-0.104995
0.00353437
-0.0944359
-0.444874
0.0532728
-0.0274084
0.0449551
-0.226655
-0.437055
-0.416825
-0.00090483
-0.331199
-0.255506
-0.405812
-0.444833
-0.380035
0.0339099
-0.445398
-0.445133
-0.00644475
0.129073
-0.0407587
0.00699695
0.0365435
0.185532
-0.440758
-0.113336
-0.415902
-0.0111254
0.0302861
-0.277631
-0.245908
-0.277441
0.121413
-0.0484941
-0.280352
-0.433317
-0.320394
-0.44401
-0.444453
-0.418419
0.273241
0.0676749
-0.420312
0.0170957
-0.441471
-0.429331
0.367091
-0.394733
-0.388232
0.0162955
-0.00393737
-0.37089
-0.243462
0.292954
0.0321121
-0.00543156
-0.449327
-0.296718
-0.328362
-0.129434
0.0749784
0.000168835
0.0205308
0.000370102
0.0605665
-0.139672
-0.0365108
-0.444293
-0.435662
0.0434246
0.0310861
0.00124447
0.419702
-0.144068
-0.361011
0.0281932
0.00178503
-0.276687
0.0107457
-0.316825
0.291587
-0.205108
0.369652
-0.439723
-0.00464764
-0.327397
0.230586
0.0367478
-0.0861169
-0.0181752
-0.429432
-0.0621121
-0.444549
-0.443802
0.0111325
-0.373629
0.0912261
0.352792
-0.162393
-0.076652
0.226825
-0.444366
-0.0254486
-0.439127
-0.0951712
-0.276714
0.0519958
-0.386794
-0.239264
0.051462
-0.444806
-0.300142
-0.00501222
-0.0275709
-0.410859
-0.0745515
-0.439624
-0.108905
0.502014
-0.434636
-0.342463
-0.363446
-0.444035
0.012793
0.0176686
-0.427247
-0.434122
-0.437543
0.0497993
-0.0368456
-0.170709
-0.441846
-0.304016
-0.439219
-0.430252
-0.437818
0.00210474
-0.0324408
0.00194122
0.0319852
-0.134873
-0.0185286
-0.275026
-0.213125
-0.355703
-0.339042
0.00620523
-0.0215206
-0.362164
-0.171136
0.0397178
-0.354852
-0.444509
-0.368041
-0.0588072
-0.413834
-0.443936
-0.445576
-0.39082
0.0388699
0.00315872
-0.416787
0.176187
0.10975
0.0803043
-0.358972
0.13869
-0.164158
-0.0184329
-0.406068
-0.317627
-0.441369
0.0337103
-0.134393
-0.419791
-0.332156
-0.339476
-0.432521
-0.431487
0.0221385
-0.110935
-0.242717
-0.346318
-0.0701763
-0.113407
0.0357103
0.0127664
-0.0416287
-0.444899
-0.328615
-0.382595
-0.00436237
-0.421861
0.00897266
-0.0687294
0.0940833
0.192303
-0.0439647
-0.204828
0.118301
0.0241717
0.0245861
-0.0475447
0.290887
-0.440223
0.048705
0.0144274
-0.34965
-0.400633
-0.0192269
0.158683
-0.0618969
-0.00861907
0.0270389
-0.436048
-0.375991
0.439576
-0.236181
-0.439078
-0.178959
-0.444933
-0.379084
-0.440067
-0.350739
0.00649263
0.371812
-0.29301
0.00992658
-0.346493
-0.00760815
-0.445261
0.00986536
-0.444259
-0.43193
-0.0260992
-0.403728
0.22028
-0.438613
-0.115294
0.0193619
-0.390153
0.0149815
0.0015419
-0.444788
-0.335094
-0.0245629
0.20796
-0.138117
-0.040709
-0.0157131
-0.099083
-0.424289
-0.064609
-0.444354
-0.0728105
0.0394093
-0.445397
-0.315556
-0.424714
0.100523
-0.0165146
0.052246
-0.444484
-0.0222184
0.11592
-0.408538
-0.432093
-4.32681e-05
-0.443039
-0.0384883
-0.0418232
-0.399746