/*--------------------------------*- C++ -*----------------------------------*\
| =========                 |                                                 |
| \\      /  F ield         | OpenFOAM: The Open Source CFD Toolbox           |
|  \\    /   O peration     | Version:  v2012                                 |
|   \\  /    A nd           | Website:  www.openfoam.com                      |
|    \\/     M anipulation  |                                                 |
\*---------------------------------------------------------------------------*/
FoamFile
{
    version     2.0;
    format      ascii;
    class       volVectorField;
    location    "300";
    object      U_0;
}
// * * * * * * * * * * * * * * * * * * * * * * * * * * * * * * * * * * * * * //

dimensions      [0 1 -1 0 0 0 0];


internalField   nonuniform List<vector> 
18649
(
(-0.198445 -0.0398329 8.79114e-23)
(1.01314 -0.113334 2.06018e-21)
(1.06996 -0.000830706 0)
(-0.204578 -0.0504165 -1.11605e-19)
(0.475756 -0.174555 1.18988e-19)
(1.10786 -0.071205 -2.60578e-20)
(0.120594 0.0461944 -5.4026e-20)
(1.28163 -0.234349 -1.64068e-20)
(1.20691 -0.0120283 2.16672e-20)
(0.958464 -0.0510908 -8.79371e-22)
(1.22639 -0.29833 7.0717e-20)
(-0.256864 -0.0375962 -2.10156e-20)
(1.00547 0.0592861 -8.15696e-20)
(1.06864 -0.0011535 0)
(0.99194 -0.0184631 0)
(1.17394 -0.0559202 3.18602e-20)
(1.0152 -0.00234281 2.98335e-22)
(1.17396 -0.0530697 1.38423e-20)
(1.12655 -0.393344 3.77899e-20)
(0.0292206 -0.0199965 -1.36378e-19)
(0.0954217 -0.0665104 -1.00755e-20)
(1.04477 -0.0645339 0)
(-0.305971 -0.0548404 0)
(1.2594 0.0517873 0)
(1.01602 -0.0154779 0)
(-0.00560148 -0.0228053 -2.93968e-20)
(1.03473 -0.0551797 -4.00763e-22)
(-0.250056 -0.0357635 -6.16166e-20)
(1.35499 -0.180965 0)
(1.02995 -0.00196405 -9.0054e-21)
(1.05303 -0.0455585 3.21108e-21)
(1.05197 -0.321127 7.58576e-21)
(1.0049 -0.00956654 -8.09954e-23)
(0.961667 -0.100929 -2.62477e-20)
(0.980109 -0.0668209 5.38554e-21)
(-0.304953 -0.0538818 -3.21634e-20)
(0.880319 -0.0688956 6.12701e-20)
(1.01398 -0.0507459 8.99981e-22)
(1.03371 -0.0140705 4.88145e-21)
(1.27456 -0.236912 -4.91855e-20)
(1.2112 -0.0116602 -6.54479e-20)
(1.25791 0.0509045 -2.9855e-21)
(1.21236 0.0106008 -3.26806e-21)
(-0.242413 -0.0478654 -4.42395e-23)
(1.01625 -0.113294 7.73389e-22)
(1.03028 -0.00187332 -8.035e-21)
(-0.0850728 -0.0521235 -1.14805e-19)
(-0.197118 -0.0511739 8.01093e-20)
(1.06025 -0.292227 6.03963e-22)
(1.03134 -0.0197012 8.13274e-21)
(-0.112268 -0.0728787 2.88952e-20)
(1.10966 -0.111232 -4.09529e-21)
(0.419507 -0.092849 2.62407e-20)
(0.52911 0.0352119 0)
(1.00474 -0.00908518 -1.61516e-21)
(1.03132 -0.286873 8.932e-20)
(-0.158021 -0.01423 0)
(1.23233 -0.0243941 0)
(-0.117728 -0.0402204 -1.19587e-19)
(0.960384 -0.0508903 1.0017e-21)
(-0.197767 -0.0388225 -8.26837e-20)
(1.00333 -0.0207015 3.55788e-21)
(1.20978 0.0124938 0)
(-0.174371 -0.0509011 -4.73684e-20)
(1.0153 -0.0505914 0)
(-0.16045 -0.0511848 1.69887e-19)
(1.04462 -0.0374363 0)
(-0.151959 -0.0102338 0)
(-0.168147 -0.048343 -8.81551e-20)
(1.31601 -0.038663 7.70343e-20)
(-0.272125 -0.0487155 1.09907e-20)
(1.00425 -0.0230661 4.81194e-22)
(1.03722 -0.330384 2.08727e-21)
(1.10585 -0.0390303 -8.19312e-23)
(0.966277 -0.0939084 2.10745e-20)
(0.0847587 -0.068751 1.09363e-20)
(0.862938 -0.166341 1.24386e-20)
(1.03932 -0.161187 3.6815e-21)
(1.10347 -0.0384192 -8.75024e-21)
(0.968906 -0.507247 0)
(1.01559 -0.00197917 0)
(-0.109372 -0.0525075 0)
(-0.212657 -0.0527358 1.94731e-19)
(0.454285 -0.0966111 -2.50895e-20)
(0.839029 -0.267872 0)
(1.03343 -0.0132345 -6.829e-21)
(0.887904 -0.11893 5.55847e-20)
(1.10767 -0.108018 3.10194e-20)
(1.14475 -0.152373 1.6995e-20)
(1.11056 -0.0440382 0)
(1.14022 -0.0234358 -3.89168e-20)
(0.966001 -0.0305328 0)
(1.00451 -0.0440726 -3.25288e-21)
(-0.0639775 0.0195982 -6.64964e-20)
(1.04403 -0.0627725 0)
(1.22065 -0.291443 1.00959e-19)
(0.965828 -0.0556116 0)
(0.944427 -0.465111 8.22386e-22)
(-0.160022 -0.0479673 -4.45408e-20)
(1.03396 -0.0535812 3.27729e-22)
(-0.306474 -0.053598 -1.06519e-19)
(0.920546 -0.234408 0)
(1.01956 -0.00709622 2.57747e-23)
(-0.100523 -0.0709603 0)
(-0.169865 -0.0470793 4.87987e-20)
(1.113 -0.11123 -6.62768e-22)
(0.999096 -0.0047 -4.93285e-21)
(1.05739 -0.0488674 -7.44733e-22)
(0.921572 -0.240882 -2.07733e-20)
(0.964345 -0.0859328 1.80181e-20)
(-0.302755 -0.0535525 -5.84074e-20)
(0.682786 -0.219809 -1.3488e-19)
(1.00427 -0.0429529 -2.94158e-21)
(0.960114 -0.0833761 -5.66316e-21)
(1.2827 -0.028389 5.8549e-20)
(1.07885 -0.00163814 -1.01015e-20)
(1.00433 -0.00868799 -2.81717e-23)
(-0.0801462 0.010531 0)
(-0.248634 -0.0484019 0)
(1.04005 -0.0185519 0)
(-0.123722 -0.0408594 1.19297e-19)
(1.02196 -0.0640723 0)
(1.04153 -0.323544 -1.95497e-21)
(1.00379 -0.0228828 5.26988e-23)
(-0.132872 -0.0435725 3.77356e-20)
(1.01633 -0.016059 0)
(1.00002 -0.000334861 -6.98375e-21)
(0.0212301 -0.0136139 2.53712e-20)
(1.02095 -0.0630217 -1.13787e-21)
(-0.0653493 0.014023 4.55475e-20)
(0.9988 -0.0352717 5.03696e-22)
(-0.208708 -0.0528088 -1.25737e-19)
(1.017 -0.0298939 7.58099e-22)
(-0.0955778 -0.0432641 9.57852e-20)
(0.875265 -0.0686764 -2.20583e-20)
(0.999686 -0.00420719 -1.14176e-20)
(-0.268469 -0.0511154 1.59945e-23)
(-0.151484 -0.0123895 0)
(1.13832 -0.0216191 3.41365e-20)
(1.03654 -0.157576 0)
(0.473857 -0.552246 -2.35025e-20)
(1.02467 -0.0429666 0)
(1.0288 -0.0155454 0)
(1.00832 -0.0145782 1.03252e-21)
(1.00011 -0.00799921 -1.233e-20)
(-0.236542 -0.0255856 0)
(1.02932 -0.0153187 0)
(1.0016 -0.0164354 -9.28077e-21)
(-0.302596 -0.0513642 0)
(-0.172682 -0.0478785 9.82575e-20)
(1.3155 -0.0144407 -4.33951e-20)
(0.999582 -0.00277592 0)
(-0.244135 -0.0528436 0)
(1.05698 -0.0204911 -1.01116e-20)
(1.02371 -0.0548482 0)
(1.00792 -0.014208 0)
(0.590087 -0.248208 0)
(0.967047 -0.489837 -5.27036e-21)
(1.0048 -0.00494559 -5.86238e-22)
(0.988001 -0.0396246 3.9734e-21)
(1.00057 -0.0142676 6.87839e-21)
(1.30416 -0.316956 1.1367e-19)
(-0.114756 -0.0417405 -9.84356e-20)
(1.05648 -0.0213524 -9.58484e-21)
(-0.124639 -0.042694 0)
(1.28303 -0.0317783 -5.83151e-20)
(0.999083 -0.00500019 0)
(1.00547 -0.0241692 -1.55396e-21)
(1.02466 -0.0559092 1.44912e-22)
(1.07703 -0.00212686 -1.63226e-20)
(0.998176 -0.0348969 0)
(0.140623 -0.448139 1.18509e-19)
(1.22867 -0.0261742 0)
(0.482225 -0.19553 0)
(1.01662 -0.048782 2.31042e-21)
(0.543917 0.0618013 -8.30944e-20)
(-0.305923 -0.0519113 -5.98556e-23)
(1.02064 -0.116192 -2.20931e-21)
(1.00449 -0.00476162 -5.76721e-22)
(1.32312 -0.037306 0)
(1.33277 -0.0296173 0)
(1.02779 -0.0050271 0)
(1.00003 -0.000670825 1.98978e-21)
(-0.191336 -0.0160262 -5.62933e-20)
(1.0928 -0.0954756 0)
(1.17593 -0.028402 0)
(1.00016 -0.00758931 9.30868e-21)
(1.02521 -0.0425379 0)
(1.15495 0.0129833 0)
(0.974505 -0.196859 0)
(0.882758 -0.801755 -2.09948e-20)
(1.0162 -0.053444 0)
(-0.168955 -0.0269518 -6.90154e-20)
(1.05152 -0.0198407 0)
(1.01823 -0.00608449 1.8207e-21)
(1.00032 -0.00515218 0)
(0.891926 -0.116629 -1.99792e-20)
(0.982575 -0.294731 -1.17183e-21)
(0.965623 -0.0967981 1.10979e-20)
(1.00005 -0.000587901 0)
(1.00148 -0.015726 0)
(1.26963 -0.033601 0)
(-0.157284 -0.0104665 -6.14788e-21)
(0.891068 -0.0812446 -1.7233e-20)
(1.1485 -0.155925 8.49254e-21)
(0.710356 -0.188327 1.94381e-20)
(1.34977 -0.169689 3.32794e-20)
(-0.0661312 -0.0524326 7.4264e-20)
(1.05595 -0.0480945 0)
(-0.243551 -0.0466137 -1.46045e-19)
(0.987381 -0.0427383 -4.10643e-21)
(1.01807 -0.0985767 7.48269e-22)
(1.01836 -0.0620975 0)
(-0.181754 -0.0284545 1.50907e-19)
(-0.213125 -0.0531501 1.65148e-19)
(1.03636 -0.0308508 -3.70712e-21)
(0.832145 -0.229048 0)
(1.02237 -0.0299912 9.35381e-22)
(-0.128156 -0.0440661 -7.15414e-23)
(0.998645 -0.0478871 1.07362e-20)
(1.2279 0.0265901 1.56304e-20)
(1.01947 -0.0401248 -4.21019e-22)
(0.31701 -0.813245 3.72697e-20)
(0.166133 -0.462945 -1.07333e-21)
(0.0624327 -0.0232895 1.0266e-19)
(-0.0658062 0.025388 3.46539e-20)
(1.03736 -0.0316609 4.34693e-21)
(0.998551 -0.0465175 -4.71477e-21)
(0.392695 -0.0862563 0)
(0.612794 0.0636842 1.07289e-19)
(1.15439 0.0200387 6.2829e-21)
(1.01686 -0.0275028 1.22095e-22)
(-0.303518 -0.0526928 0)
(1.17301 -0.0627375 -2.96424e-20)
(0.0533331 -0.020177 1.06997e-19)
(1.31276 -0.29926 1.535e-20)
(0.597884 -0.228563 7.1922e-20)
(0.478893 -0.116927 6.29867e-20)
(1.01662 -0.0290819 -9.14204e-22)
(1.2414 -0.457487 -8.23492e-20)
(1.02124 -0.004794 0)
(-0.205983 -0.0306077 -3.28215e-20)
(1.15346 0.0180268 1.39254e-21)
(1.02729 -0.00480428 2.25829e-22)
(0.960903 -0.0859863 1.19302e-20)
(0.980199 -0.195191 1.18037e-20)
(0.261455 -0.0631038 1.18699e-19)
(0.98867 -0.0390797 0)
(0.772261 -0.350696 2.03816e-20)
(0.98571 -0.288809 -5.00189e-21)
(-0.294452 -0.0486916 6.72084e-20)
(0.103899 0.0443716 6.8628e-20)
(1.17352 -0.0264143 0)
(0.979527 -0.0688698 6.16292e-21)
(1.09604 -0.0953977 2.7252e-20)
(-0.240052 -0.0455375 0)
(1.01945 -0.0390145 4.64187e-22)
(0.987443 -0.0417487 0)
(0.957485 -0.0837939 5.92848e-21)
(0.965924 -0.0883938 -1.89053e-20)
(1.03306 -0.0236187 -1.54617e-21)
(0.687116 -0.20635 8.04351e-20)
(-0.243037 -0.04709 1.38345e-19)
(0.986501 -0.0385311 1.36736e-20)
(1.01751 -0.00608168 -1.71265e-21)
(-0.124274 -0.0525653 3.98256e-20)
(0.384297 0.0603467 -4.45984e-20)
(1.00026 -0.00510795 0)
(-0.190579 -0.0154841 -2.78837e-20)
(1.0221 -0.0111767 0)
(-0.243047 -0.0281546 1.82868e-20)
(1.0707 -0.344499 -1.15992e-20)
(0.365378 -0.0838503 2.89407e-20)
(0.672571 -0.315433 0)
(1.1364 -0.390717 0)
(1.05125 -0.0187997 1.60146e-21)
(1.01717 -0.00551956 0)
(1.08418 0.0550208 -5.20561e-20)
(-0.0561641 0.0263932 0)
(-0.114164 -0.0442715 -2.09979e-21)
(1.00023 -0.00794998 1.38503e-21)
(1.02133 -0.0297181 1.63002e-21)
(-0.235647 -0.0528342 2.45879e-20)
(1.06079 -0.128039 -1.25685e-20)
(0.924569 -0.133906 8.66893e-20)
(-0.300864 -0.0513854 0)
(1.05909 -0.0199078 0)
(0.865452 -0.173995 0)
(0.99975 -0.00339463 0)
(1.03052 -0.00614558 0)
(1.22466 0.0250237 -1.53157e-20)
(-0.290446 -0.047504 2.77811e-20)
(0.254184 0.0571136 -5.69156e-20)
(0.297712 -0.0649504 -1.74633e-19)
(1.36137 -0.134029 2.3295e-23)
(1.00144 -0.0787919 -9.18381e-21)
(1.32176 -0.0114272 0)
(1.35897 -0.179842 0)
(1.01859 -0.00653157 0)
(0.435151 0.0627538 0)
(1.00525 -0.000901187 -1.01069e-21)
(0.959279 -0.102363 3.59459e-20)
(0.966841 -0.053432 0)
(1.00759 -0.014398 -2.38013e-22)
(1.03895 -0.0182698 4.92243e-21)
(0.468294 -0.130211 4.12504e-20)
(0.999727 -0.00401378 1.30593e-20)
(1.19293 -0.030444 3.59405e-20)
(0.463959 -0.0993145 -5.48989e-20)
(0.962323 -0.0977852 -2.29697e-20)
(-0.0253004 -0.0228691 0)
(0.961164 -0.0535535 3.5903e-20)
(0.493456 -1.14887 -2.61015e-20)
(0.992373 -0.0179971 1.04803e-20)
(1.05863 -0.0207577 9.52262e-21)
(1.01713 -0.0285197 0)
(1.06894 -0.021365 2.54178e-20)
(1.00003 -0.000298635 -3.92934e-21)
(-0.216662 -0.0530615 -9.6823e-20)
(-0.218169 -0.0435934 -6.95517e-20)
(0.999311 -0.00389451 0)
(1.00039 -0.0141523 -3.79749e-21)
(1.21243 -0.00886281 4.9489e-20)
(1.00023 -0.000442233 2.40313e-21)
(1.00717 -0.0139735 -1.63516e-21)
(1.03916 -0.0391175 0)
(1.00029 -0.00750575 0)
(0.923585 -0.162023 -3.27961e-20)
(-0.0472124 0.00660041 0)
(0.700375 -0.17465 6.65112e-20)
(-0.232759 -0.0462356 3.74062e-20)
(1.005 -0.0237584 0)
(0.999962 -0.012342 3.54465e-21)
(1.20804 0.0178596 1.26129e-20)
(1.00534 -0.00489817 5.40667e-22)
(1.0323 -0.000489493 0)
(-0.197267 -0.0110218 -5.7894e-20)
(0.99271 -0.151689 0)
(1.28624 -0.112292 5.97293e-20)
(0.887103 -0.0834673 0)
(1.30062 -0.324602 -5.58473e-20)
(1.00503 -0.00472059 0)
(1.09224 -0.0110147 0)
(1.01935 -0.0633459 1.3183e-21)
(1.0695 -0.0696864 9.22739e-21)
(0.998996 -0.0199444 3.07206e-21)
(1.00022 -0.0044631 -4.1037e-21)
(1.02076 -0.00432105 -3.06343e-21)
(1.13821 -0.0173631 -1.95981e-20)
(1.17166 -0.0650262 0)
(0.995961 -0.0205579 7.14548e-21)
(1.00566 0.0563451 -4.81395e-20)
(0.995707 -0.0211931 0)
(1.03907 -0.0384667 0)
(-0.227466 -0.044989 -1.32384e-19)
(1.05062 0.0447008 0)
(1.07017 -0.0222053 0)
(-0.0363673 -0.031462 0)
(1.30352 -0.299424 0)
(-0.119743 -0.0448712 -1.6626e-20)
(0.197661 0.053918 0)
(1.06799 -0.0678034 -8.2363e-21)
(0.163516 0.0506431 0)
(0.99594 -0.0218818 0)
(0.129134 -0.0466856 1.1059e-19)
(0.521717 -0.95058 1.96278e-20)
(0.962974 -0.0534445 -2.553e-20)
(0.904897 -0.0449658 -3.98974e-20)
(0.992709 -0.148045 7.58432e-21)
(1.05175 -0.0442708 0)
(1.01721 -0.0545922 -1.50095e-21)
(1.02791 -0.0151731 0)
(0.99924 -0.0187228 4.64442e-21)
(-0.177599 -0.0264951 -3.28439e-20)
(0.917908 -0.163756 0)
(0.0375083 -0.0230853 -1.07172e-19)
(-0.235598 -0.046401 1.62717e-20)
(1.35351 -0.160499 0)
(0.224617 -0.0590189 -7.52762e-20)
(1.08411 -0.0335719 -1.01867e-20)
(0.999962 -0.000520818 4.83719e-21)
(1.15035 0.0238598 0)
(1.0148 -0.026906 0)
(0.840175 -0.832408 0)
(1.00006 -0.000121985 4.92292e-21)
(0.999664 -0.00271023 -7.7478e-21)
(0.0753529 -0.209365 0)
(0.280002 0.0588489 0)
(1.06213 -0.0502773 -3.97164e-21)
(1.03223 -0.0212475 0)
(1.33527 -0.28685 7.13427e-20)
(1.10605 -0.219791 -8.67434e-21)
(0.995647 -0.0460905 1.15272e-20)
(-0.156879 -0.0388008 -3.63157e-20)
(1.06587 -0.00121087 1.29446e-20)
(0.907457 -0.0433756 5.02306e-20)
(-0.30216 -0.054831 1.7271e-19)
(1.08217 -0.0677589 -6.76879e-21)
(0.999763 -0.00317495 -3.92732e-21)
(-0.199382 -0.00896191 0)
(-0.180029 -0.0276153 0)
(1.17306 -0.0212877 -1.65481e-20)
(1.00378 -0.030779 0)
(1.00003 -0.0119197 0)
(-0.182681 -0.0244751 0)
(-0.197197 -0.00986697 7.11578e-20)
(1.02279 -0.0310365 0)
(1.3308 -0.258909 6.50442e-20)
(1.0238 -0.0123204 0)
(1.02702 -0.0391242 3.8247e-23)
(0.128744 0.0477608 0)
(1.03578 -0.0131088 2.38832e-22)
(-0.0352504 0.00927235 0)
(1.08236 -0.069679 0)
(1.25834 0.0359231 0)
(0.182306 -0.0535736 1.17125e-19)
(0.968139 0.0607159 6.07044e-20)
(0.504853 0.0604426 1.20754e-19)
(1.0148 -0.0248498 0)
(0.0239201 -0.0753795 5.67738e-20)
(0.99573 -0.0225471 0)
(1.11512 0.0541598 7.34669e-20)
(1.15447 -0.247825 0)
(0.0903787 -0.0401901 6.46618e-20)
(0.417976 0.014861 9.45348e-20)
(1.02738 -0.0146974 -2.04737e-21)
(1.03249 -8.97093e-05 -1.43987e-22)
(1.23588 -0.46808 0)
(-0.104139 -0.0457049 -3.37691e-20)
(1.09358 -0.0118193 8.05521e-21)
(0.681237 -0.302436 -5.84548e-20)
(1.0605 -0.0502188 3.57948e-21)
(1.04449 -0.0840605 9.49506e-21)
(1.01624 -0.00497587 -2.0594e-21)
(-0.051165 0.0154253 2.3749e-22)
(0.966264 0.0584252 5.16471e-20)
(-0.0588729 -0.0501478 -3.36972e-20)
(1.05467 -0.0450085 5.81808e-21)
(0.966003 -0.0293309 -7.25092e-21)
(0.0940311 -0.223345 0)
(-0.241093 -0.0529393 -8.25336e-20)
(0.905924 -0.0388027 -5.77322e-20)
(0.996339 -0.0778565 -1.17326e-20)
(1.03213 -0.0220643 0)
(1.02448 -0.0123377 -4.10865e-21)
(-0.108375 -0.0447156 0)
(0.006599 -0.0143881 4.78733e-20)
(1.00421 -0.007556 -1.03311e-22)
(1.05072 -0.00954801 -8.22213e-21)
(-0.303511 -0.0537301 0)
(1.03527 -0.0177752 4.69146e-22)
(-0.289848 -0.0524932 1.9047e-19)
(1.03126 -0.0204012 -5.98135e-21)
(-0.161005 -0.0288397 0)
(1.10007 -0.217614 -2.67443e-20)
(0.108628 -0.0428769 5.8794e-20)
(0.946392 -0.137668 -1.58675e-20)
(0.564755 0.0375446 -3.83377e-20)
(-0.238908 -0.0457957 9.4829e-21)
(1.02437 -0.124861 -1.27624e-21)
(1.20596 -0.0160567 -2.39578e-20)
(1.0455 -0.0824759 -4.31013e-21)
(1.19734 -0.0206249 2.04051e-20)
(1.08297 -0.0319068 0)
(0.988494 -0.0356791 0)
(1.06071 -0.131111 8.02329e-22)
(0.201957 -0.588227 -6.37501e-20)
(1.0307 -0.00664181 0)
(1.07291 -0.042376 0)
(-0.243992 -0.0530475 2.23934e-20)
(1.02293 -0.0130053 6.54264e-21)
(1.00019 -0.00445114 0)
(1.18419 0.0504921 0)
(1.01434 -0.0152943 5.13794e-22)
(-0.232846 -0.0458975 -3.64309e-20)
(1.0614 -0.0191455 0)
(1.06861 -0.0189617 0)
(1.04941 -0.00745058 0)
(1.11796 -0.0505765 -2.67371e-20)
(1.06457 -0.000664976 1.11726e-20)
(1.00004 -0.000496453 1.15231e-22)
(0.544914 -0.556789 0)
(1.02757 -0.040258 -1.12806e-22)
(0.830187 -0.14818 0)
(1.00037 -0.013304 -3.55358e-21)
(1.09027 -0.117537 3.26936e-20)
(-0.24579 -0.0486357 -8.52275e-20)
(1.00004 -0.000999757 -1.18808e-22)
(0.784875 0.0568592 1.46167e-20)
(1.07666 -0.0991488 0)
(0.124412 0.0444975 0)
(-0.214338 -0.0122595 5.79283e-20)
(-0.217027 -0.0130717 0)
(-0.280261 -0.0542519 0)
(1.12069 -0.0511828 3.00282e-20)
(1.18324 -0.236179 6.63996e-22)
(1.15317 0.0228388 7.31446e-21)
(-0.288517 -0.0527688 -9.54244e-20)
(0.978151 -0.0348899 0)
(1.15656 -0.315646 -4.92447e-20)
(0.970623 -0.0900954 1.78313e-20)
(0.534563 -0.0384728 9.79001e-20)
(1.274 -0.0317293 -5.11522e-20)
(1.0802 -0.265771 0)
(1.00027 -0.000424976 -1.96023e-21)
(0.387797 -0.35139 -7.38532e-20)
(1.27455 -0.00614259 6.57145e-20)
(0.14778 0.0487194 8.43778e-21)
(1.04404 -0.0338904 0)
(-0.297736 -0.0543214 -2.26838e-19)
(0.927964 -0.0456733 -6.028e-22)
(1.2297 0.0212955 -1.60381e-20)
(0.996859 -0.0118561 6.06884e-21)
(1.15748 -0.254992 -3.43393e-20)
(-0.237862 -0.0505476 6.58735e-20)
(0.999429 -0.00354266 -7.92334e-21)
(1.04985 -0.00891686 0)
(-0.217221 -0.0138269 0)
(1.03733 -0.0199359 0)
(0.958513 -0.456225 -7.93732e-22)
(1.03559 -0.0204704 0)
(1.11048 -0.0716676 2.41366e-20)
(1.03392 -0.0562286 1.33368e-21)
(1.14691 -0.100205 1.44432e-20)
(1.01404 -0.0147111 -2.07174e-22)
(0.729018 -0.487446 -2.26637e-20)
(1.00008 -0.000890318 1.37986e-21)
(0.0974462 0.0298341 -1.44917e-20)
(1.04525 -0.0339654 0)
(-0.279813 -0.052727 -1.24592e-19)
(1.2888 -0.077792 0)
(-0.069398 0.0174822 3.9547e-20)
(-0.234852 -0.0517163 -8.55439e-20)
(1.07101 -0.0415822 0)
(1.09123 0.0390833 6.21564e-21)
(1.196 -0.0238538 3.93371e-20)
(0.0381199 0.0194903 8.85391e-20)
(-0.236371 -0.0460061 -2.07017e-20)
(1.0405 -0.0171871 5.90892e-22)
(0.822661 -0.146284 2.62665e-20)
(1.25597 0.0355641 -5.02091e-20)
(1.07222 -0.0256505 1.31466e-20)
(1.27329 0.0379076 7.99969e-21)
(1.01625 -0.0595553 0)
(0.999242 -0.00436294 4.49409e-21)
(1.07117 -0.0266522 -4.83426e-21)
(1.00364 -0.000651186 1.00343e-21)
(1.00006 -0.000725496 3.34893e-21)
(1.01581 -0.0611087 2.18098e-21)
(0.408373 -0.163803 1.16399e-19)
(1.02262 -0.0117661 0)
(1.02745 -0.0311513 0)
(1.11338 -0.044444 -1.02027e-20)
(1.04687 -0.091739 7.81633e-23)
(0.510296 -0.539963 4.4487e-20)
(-0.0728151 0.0199965 3.1303e-20)
(0.977047 -0.0347103 -7.34948e-22)
(1.21076 0.016188 1.42721e-20)
(1.32873 -0.163618 0)
(1.07442 -0.270117 0)
(1.00019 -0.0132203 7.44715e-21)
(0.0283909 -0.0566747 0)
(0.655154 0.0629984 -3.76469e-20)
(0.176372 -0.0772185 0)
(1.27371 0.0364219 -9.57518e-21)
(1.15575 0.0152036 0)
(1.0489 -0.0813324 1.4928e-21)
(1.12182 -0.0607081 7.52456e-21)
(1.13985 -0.0190858 0)
(1.06306 -0.0189342 -5.79558e-21)
(1.36287 -0.12818 2.9583e-20)
(1.00956 -0.0344581 0)
(1.06335 -0.0180731 -6.61813e-21)
(1.03079 -0.0101249 3.09929e-21)
(-0.140991 0.00474772 0)
(0.0924661 -0.0448018 -1.85079e-19)
(-0.229952 -0.0206516 -3.08209e-20)
(1.02871 -0.154697 -1.76516e-22)
(1.00497 -0.0297603 -3.68286e-21)
(-0.188013 -0.0263572 0)
(-0.148063 -0.0511332 -9.08485e-20)
(0.909853 -0.800629 1.64742e-20)
(1.0925 -0.119619 -1.5349e-20)
(0.76352 -0.0576057 -1.6367e-21)
(-0.175011 0.00296931 -6.38132e-21)
(1.00496 -0.000692961 8.15788e-22)
(-0.22012 -0.0151182 0)
(1.04469 -0.0910428 -6.64357e-23)
(0.955704 -0.0644552 0)
(0.958018 -0.0377781 0)
(0.592294 -0.611828 -2.93105e-20)
(-0.153402 -0.0475112 2.36348e-20)
(1.06095 -0.0200356 0)
(0.723751 -0.467387 0)
(0.944766 -0.14239 -9.33601e-21)
(1.00008 -0.0776646 1.09898e-20)
(-0.187992 -0.0271237 -8.97623e-20)
(1.0597 -0.568274 -3.16571e-20)
(0.996394 -0.0287878 4.60242e-21)
(0.0523211 0.0195002 -8.37649e-20)
(1.14022 -0.0263685 1.02073e-20)
(-0.0776802 -0.0638096 -5.31989e-20)
(1.02262 -0.0552608 6.27768e-22)
(0.647896 -0.14382 -7.51545e-20)
(1.14609 -0.0979516 2.63681e-20)
(1.11725 0.0131946 -1.22829e-20)
(1.01101 -0.000446144 -4.14434e-22)
(0.109881 -0.0469934 -7.38601e-20)
(1.18039 -0.130445 2.3491e-20)
(1.20772 -0.0224064 0)
(1.20981 0.0284517 1.32242e-20)
(-0.210703 -0.0491184 0)
(1.09348 -0.0139988 7.61378e-23)
(-0.22348 -0.0182937 5.66018e-20)
(1.05659 -0.0310521 0)
(1.03111 -0.158733 0)
(0.150904 0.043214 -7.26176e-20)
(1.10548 -0.0729192 1.35501e-20)
(1.00525 -0.00987313 0)
(0.754523 -0.0617794 -1.50041e-21)
(1.07023 -0.0317382 -1.38258e-20)
(1.20246 0.0219525 6.76022e-20)
(1.0268 -0.0303051 3.01991e-23)
(0.993432 -0.0336991 6.15643e-21)
(0.467383 -0.586215 -3.4132e-20)
(1.19641 -0.502888 0)
(-0.131656 -0.0493611 -7.98738e-20)
(1.00007 -0.000411199 0)
(-0.235423 -0.046412 3.79113e-20)
(1.03217 -0.0195035 0)
(0.914257 -0.549156 1.41677e-21)
(1.17503 -0.0232787 9.88444e-21)
(1.03083 -0.0107396 -3.27163e-21)
(1.04125 -0.0377664 -5.47359e-21)
(0.963943 -0.0558047 -8.88133e-21)
(1.29895 -0.0313601 0)
(0.971601 -0.0555013 -1.45273e-20)
(1.18236 -0.242576 4.97673e-22)
(1.23225 0.019757 1.2067e-20)
(0.969683 -0.226895 1.65929e-20)
(1.02276 -0.0420414 0)
(1.02095 -0.0287673 -1.02895e-21)
(0.956347 -0.0813621 0)
(0.298467 0.0349703 3.68587e-20)
(1.00339 -0.0200782 3.39729e-21)
(0.914435 -0.140207 -1.55456e-20)
(1.02018 -0.00712011 -2.86465e-21)
(-0.135498 -0.0832189 1.57358e-20)
(1.00003 -0.00139173 0)
(0.951256 -0.0653444 2.47666e-20)
(1.06433 -0.00424462 -3.17546e-21)
(1.02242 -0.0124024 -3.40634e-21)
(-0.305859 -0.0539828 1.0392e-19)
(1.27179 -0.00799819 -3.02925e-20)
(0.18616 -0.393879 0)
(1.01757 -0.11653 3.0777e-21)
(0.549225 -0.121121 -1.61117e-21)
(1.13788 -0.0274347 0)
(1.03311 -0.0143663 1.72122e-21)
(1.12343 0.0182287 3.05126e-20)
(-0.163363 -0.0471814 0)
(1.08455 -0.0642068 1.17481e-20)
(1.04325 -0.0375811 3.19641e-21)
(0.342567 0.03757 3.61152e-20)
(0.542728 0.0673759 0)
(1.00112 -0.016937 9.6463e-21)
(-0.229064 -0.0528606 0)
(0.190182 -0.0904651 0)
(1.05697 -0.0323008 5.25211e-21)
(1.06322 -0.0155783 0)
(1.1784 -0.178497 2.45892e-20)
(0.959733 -0.036786 -1.4152e-20)
(0.996913 -0.0285687 0)
(0.834109 -0.867398 0)
(-0.270487 -0.0483173 -1.31293e-20)
(-0.181963 -0.0239234 0)
(0.376756 0.0348593 -7.70157e-20)
(0.997139 -0.0258103 -1.79483e-20)
(0.781124 -0.284716 0)
(1.0055 -0.0250199 0)
(1.00781 -0.0197812 -9.7283e-22)
(1.03223 -0.0138705 -3.10891e-21)
(-0.183342 -0.0503859 0)
(1.02046 -0.00110976 -4.28672e-21)
(1.01765 -0.0497793 -1.89664e-21)
(-0.170498 0.00386478 1.0035e-22)
(-0.244546 -0.0526564 -1.30825e-19)
(1.07 -0.0493821 1.8919e-20)
(1.34923 -0.131942 1.07408e-19)
(1.09136 -0.122792 -9.31582e-21)
(1.00418 -0.00822147 0)
(0.226713 0.048282 0)
(1.10749 -0.0379105 -2.26934e-22)
(1.18373 -0.495997 0)
(1.00667 -0.0747531 0)
(1.01734 -0.553133 -4.48184e-22)
(1.03223 -0.00113365 -4.78838e-21)
(1.09533 -0.0145898 -8.62465e-21)
(0.99996 -0.000855431 8.66529e-21)
(1.20344 -0.365217 6.14863e-20)
(1.02358 -0.0427345 0)
(-0.19757 -0.0523971 2.15713e-20)
(0.34164 -0.0777029 0)
(1.2928 -0.104929 -7.40498e-20)
(-0.123156 -0.043551 4.30821e-24)
(-0.116827 -0.0457318 0)
(0.912403 -0.10416 3.92365e-20)
(-0.270965 -0.0513451 -1.00523e-19)
(1.25762 -0.251819 0)
(1.23035 0.0247859 1.72196e-20)
(0.95767 -0.0396436 4.76071e-21)
(1.04005 -0.0375037 5.32961e-21)
(-0.0754842 -0.0527327 -3.81392e-20)
(0.460135 0.0650628 0)
(1.33511 -0.172784 -3.82005e-20)
(1.2116 -0.293639 -9.51225e-20)
(1.08862 -0.269638 -2.73212e-20)
(0.998951 -0.0193982 5.16968e-21)
(1.02197 -0.122686 1.75245e-22)
(0.172299 0.0435864 8.33552e-20)
(-0.232292 -0.0449451 2.01569e-19)
(1.00462 -0.0288538 1.67966e-22)
(1.06004 -0.0852202 0)
(-0.126385 -0.00633456 -2.47244e-20)
(0.0833482 0.0116032 -7.23459e-20)
(0.0598955 -0.0392825 -9.71834e-20)
(1.26988 -0.0465714 5.69713e-20)
(1.00807 -0.000332134 9.37853e-23)
(0.957557 -0.0654777 2.88007e-20)
(-0.246002 -0.0478454 7.89826e-20)
(-0.00865498 -0.0518153 0)
(1.01354 -0.00314951 1.01397e-21)
(1.12148 -0.0250758 -3.39236e-20)
(1.01656 -0.00550002 1.75003e-21)
(0.736361 -0.909474 -5.85105e-22)
(0.99711 -0.0113608 0)
(1.24136 -0.0780479 -6.00352e-20)
(1.09426 -0.264624 3.18365e-20)
(1.00146 -0.0168748 8.24003e-21)
(1.05637 -0.000885874 0)
(-0.23798 -0.0505543 2.42123e-20)
(0.996606 -0.0231094 0)
(1.0737 -0.098272 6.90602e-21)
(0.992931 -0.0330732 -6.2073e-21)
(1.01115 -0.00075683 8.40531e-23)
(1.00224 -0.0372709 7.40946e-23)
(1.08777 -0.650649 -1.96251e-20)
(0.871473 -0.376381 -3.15204e-20)
(1.35182 -0.173892 -2.61748e-20)
(0.214307 0.0538692 -6.2172e-20)
(-0.241592 -0.0518969 6.5757e-20)
(-0.16308 -0.00381903 0)
(1.00001 -0.000872993 -9.80812e-21)
(1.29267 -0.0682345 0)
(0.907575 -0.0515795 5.24384e-20)
(1.08761 -0.0825719 -2.62731e-20)
(1.34126 -0.253504 -7.19544e-20)
(0.998768 -0.0205534 0)
(0.987903 -0.0348873 -1.72855e-21)
(1.03942 -0.0167649 0)
(0.334219 -0.877345 -3.12092e-20)
(-0.063909 0.025382 -8.00445e-20)
(0.346449 -0.770058 1.66419e-20)
(0.997864 -0.0286169 -1.48139e-20)
(0.988544 -0.145819 -7.80448e-21)
(1.03413 -0.0129445 -2.6514e-23)
(1.03169 -0.014205 1.11973e-22)
(1.03216 -0.000335663 -1.02661e-20)
(0.996857 -0.0940572 -7.53484e-21)
(0.969524 -0.222254 -1.79334e-20)
(-0.131225 -0.0840592 1.00539e-22)
(0.920366 -0.140513 1.36137e-20)
(1.00749 -0.0193973 0)
(0.947061 -0.482061 -9.32453e-22)
(0.673694 -0.933465 -1.8337e-20)
(0.840011 -0.222658 1.12206e-21)
(1.00684 -0.0194718 2.48237e-21)
(-0.0496221 0.0265477 -1.02469e-19)
(-0.148672 -0.0499506 0)
(1.00487 -0.0282327 7.67093e-21)
(-0.173369 -0.048884 -9.3884e-20)
(1.33378 -0.282813 -6.55166e-20)
(1.17714 -0.0121272 0)
(0.988065 -0.141696 0)
(0.999748 -0.00898659 0)
(1.01673 -0.0959667 -1.38531e-21)
(1.15185 -0.307111 0)
(-0.139314 -0.0459403 -1.0733e-19)
(1.00692 0.0585549 -1.50003e-20)
(1.04477 -0.0363652 -7.61725e-22)
(-0.0919877 -0.0663547 -2.88894e-20)
(-0.211689 -0.0135569 6.18058e-20)
(-0.29008 -0.053232 -7.33974e-20)
(1.06312 -0.0148566 1.76004e-21)
(-0.249814 -0.0528091 0)
(1.28852 -0.211502 -2.54838e-21)
(-0.253721 -0.040442 0)
(0.836366 -0.257333 0)
(0.241538 -0.0892792 -7.0087e-20)
(1.04056 -0.0192626 0)
(-0.247829 -0.0528541 1.42328e-19)
(0.428134 0.0382948 0)
(1.27257 -0.0253728 0)
(1.01635 -0.0518976 0)
(1.05022 -0.00804888 0)
(1.03632 -0.131882 9.90294e-22)
(1.32508 -0.0306599 0)
(1.03481 -0.0525224 1.71205e-21)
(1.28941 -0.107845 1.01776e-19)
(1.00841 -0.0749534 0)
(1.15261 -0.497014 2.24479e-20)
(1.11951 -0.0621684 0)
(-0.253762 -0.0402968 0)
(-0.149883 0.00357372 5.56125e-20)
(1.03308 -0.0202425 -7.81362e-22)
(1.34376 -0.254127 0)
(1.06072 -0.263654 9.51823e-21)
(1.26542 -0.0471574 -1.02355e-19)
(1.23295 -0.154805 0)
(-0.0529141 0.0269448 3.52393e-20)
(1.00024 -0.0249808 -6.33205e-21)
(1.20573 -0.286686 0)
(0.689879 -0.251612 2.82033e-20)
(1.30228 -0.282254 -1.03601e-19)
(0.0768232 -0.0419121 0)
(0.996489 -0.0427425 0)
(0.208753 -0.058378 -9.56623e-20)
(0.170531 -0.0101453 -2.03786e-20)
(0.992789 -0.0287088 -1.07782e-20)
(0.147638 -0.00863937 -8.72942e-20)
(1.24365 -0.285213 -3.87753e-20)
(1.01297 -0.00310273 7.30383e-24)
(0.0808 0.0278482 0)
(-0.199575 -0.0101999 -1.55639e-20)
(1.02643 -0.0665692 3.18324e-23)
(1.12227 -0.154982 0)
(-0.111502 -0.0193808 4.08999e-22)
(0.992442 -0.0282106 -6.68639e-21)
(0.0701296 -0.0312371 -9.76379e-20)
(0.996628 -0.0466786 -1.17152e-20)
(0.999008 -0.0315068 -8.18059e-21)
(0.988402 -0.0337212 1.74906e-21)
(1.14077 -0.0466147 -4.26178e-20)
(1.00703 -0.0192523 0)
(1.03231 -0.00203534 6.86943e-21)
(-0.167549 -0.00492603 4.45408e-20)
(0.999951 -0.000444748 -1.14002e-20)
(1.08484 -0.0664105 -2.01673e-20)
(1.05747 -0.0290067 1.02766e-20)
(0.518082 0.0672396 4.94982e-20)
(0.874236 -0.190636 0)
(0.999853 -0.0246398 8.48526e-22)
(1.03813 -0.0186743 -9.31439e-22)
(0.0758211 -0.0296568 -6.66987e-20)
(1.01518 -0.0582452 0)
(0.630843 -0.675314 3.82607e-20)
(0.155702 -0.501309 0)
(1.02368 -0.155382 1.87289e-22)
(0.838818 0.0567466 -2.64986e-20)
(0.99763 -0.0926499 1.24135e-20)
(1.12403 -0.0165021 4.15881e-20)
(0.460808 -0.100383 -2.78554e-20)
(1.27954 0.0559903 0)
(0.908943 -0.105629 -3.72846e-20)
(1.00559 -0.0335058 0)
(1.02138 -0.151377 3.0191e-22)
(1.08629 -0.117251 0)
(1.35609 -0.167117 0)
(1.06849 -0.00276673 0)
(1.00492 -0.0186041 0)
(1.19007 -0.0272727 -3.83449e-20)
(0.999493 -0.00315233 8.33478e-21)
(-0.225743 -0.0270149 6.02859e-23)
(1.11149 -0.214568 -3.15553e-20)
(1.0129 -0.057002 0)
(1.00156 -0.0153308 -5.11879e-23)
(1.10047 -0.0860661 3.32011e-20)
(1.05709 -0.125752 -5.35838e-21)
(0.181716 -0.523806 0)
(0.98281 -0.0286202 -1.91235e-20)
(1.02003 -0.0111142 -6.30386e-22)
(0.163989 -0.394951 0)
(1.00049 -0.0343851 -4.63662e-22)
(1.35873 -0.0860953 -5.15419e-20)
(1.09247 -0.366169 -1.64265e-19)
(1.02404 -0.127618 1.05942e-21)
(-0.0301791 0.0293831 6.21311e-20)
(0.99986 -0.00873682 0)
(-0.221744 -0.0442494 0)
(1.00001 -0.0113573 -6.7901e-21)
(1.23234 -0.162112 -1.2471e-20)
(0.663647 -0.668546 -9.75671e-21)
(1.2741 0.0552857 6.05749e-20)
(1.15656 -0.0799398 0)
(1.00715 -0.00576621 -5.94658e-22)
(1.22725 -0.164185 4.18389e-20)
(1.06961 -0.0200559 7.9987e-21)
(-0.202538 -0.052765 -1.31919e-19)
(-0.221679 -0.0155581 -1.00581e-19)
(1.14195 -0.504071 -5.27404e-20)
(1.23161 -0.380354 6.54243e-20)
(1.18536 -0.105884 0)
(1.00379 -0.0765698 4.36355e-21)
(1.02249 -0.0970077 6.84874e-22)
(-0.247474 -0.0524322 -9.57835e-20)
(-0.26155 -0.0443105 4.50649e-20)
(1.00479 -0.0320227 0)
(0.33061 0.0266859 1.93761e-20)
(0.960479 0.057266 -1.9964e-20)
(1.0205 -0.0117634 6.56424e-22)
(0.704967 -0.202087 0)
(1.33186 -0.0205558 -1.23778e-20)
(1.24625 -0.112904 5.07259e-20)
(1.03826 -0.0195549 -3.87923e-21)
(-0.267705 -0.048214 0)
(0.216623 0.0131362 -1.28166e-20)
(-0.229063 -0.042378 1.00933e-19)
(0.000505255 -0.054852 0)
(0.22004 0.0439469 -4.01857e-20)
(-0.25848 -0.0372736 1.01366e-19)
(1.18617 -0.109523 1.17566e-20)
(1.00422 -0.00561089 1.35413e-21)
(0.908277 -0.0587657 2.54963e-20)
(1.11941 -0.151111 1.0584e-20)
(1.00111 -0.0256992 5.88171e-21)
(1.02516 -0.0675167 0)
(-0.147997 -0.0391995 -1.30573e-19)
(1.06458 0.00056198 -1.23563e-20)
(1.18253 -0.182629 -3.3738e-20)
(-0.244928 -0.0329587 0)
(0.673597 -0.629658 0)
(-0.134799 -0.032106 -3.59821e-20)
(0.854403 -0.164322 1.40718e-20)
(1.01338 -0.156046 -8.20775e-20)
(1.25253 -0.246092 -9.15394e-20)
(1.19326 -0.227781 0)
(1.00002 -0.000214514 3.8669e-21)
(-0.177569 -0.048485 0)
(1.008 -0.000681453 1.37679e-22)
(0.492349 0.0141318 -1.97994e-20)
(0.931355 -0.350391 -6.4237e-20)
(1.0004 -0.00548465 0)
(1.2219 0.0271855 1.47948e-20)
(0.987089 -0.0393199 -2.32374e-20)
(0.760841 -0.0910183 1.33012e-19)
(-0.220341 -0.0144418 8.62951e-20)
(1.03808 -0.57256 0)
(1.23166 -0.394907 2.16582e-21)
(1.03215 -0.0058094 0)
(1.01686 -0.0625034 2.00832e-21)