/*--------------------------------*- C++ -*----------------------------------*\
| =========                 |                                                 |
| \\      /  F ield         | OpenFOAM: The Open Source CFD Toolbox           |
|  \\    /   O peration     | Version:  v2012                                 |
|   \\  /    A nd           | Website:  www.openfoam.com                      |
|    \\/     M anipulation  |                                                 |
\*---------------------------------------------------------------------------*/
FoamFile
{
    version     2.0;
    format      ascii;
    class       volScalarField;
    location    "150";
    object      epsilon_0;
}
// * * * * * * * * * * * * * * * * * * * * * * * * * * * * * * * * * * * * * //

dimensions      [0 2 -3 0 0 0 0];


internalField   nonuniform List<scalar> 
18166
(
2.43901e-06
2.69965e-06
4.12723e-06
3.6519e-06
0.024587
2.7928e-06
2.27069e-06
0.0923952
0.0302441
0.0116678
3.06541e-06
2.74791e-06
0.0568516
3.76504e-05
0.0289515
5.05153e-05
3.41331e-06
0.0522674
2.6466e-06
0.0192962
8.45411e-06
3.42596e-06
8.02788e-06
3.20821e-06
2.56985e-06
2.29256e-06
2.34358e-06
1.95791e-06
2.45762e-06
3.87274e-06
0.00370122
1.82472e-06
2.41756e-06
2.64129e-06
1.6393e-06
3.08712e-06
0.0323229
3.10464e-06
1.86232e-06
0.010798
4.0894e-06
0.0410063
2.40504e-06
2.51628e-06
2.46358e-06
3.46097e-06
2.79515e-06
0.00542912
7.86884e-06
2.30207e-06
1.98149e-06
2.06497e-06
9.07666e-06
3.9243e-06
3.10498e-06
0.0158987
0.0426584
0.041497
2.20216e-06
1.9132e-06
3.04824e-06
1.7755e-06
0.0167812
2.1007e-06
6.2761e-05
3.25085e-06
0.0195423
0.0154142
0.156195
1.8862e-06
1.64737e-06
2.11681e-06
2.45539e-06
2.08504e-06
0.0831913
0.00261752
9.43678e-06
0.153272
1.97961e-06
3.2147e-06
4.06477e-06
0.0364158
3.23465e-06
3.07986e-06
1.88672e-06
1.66716e-06
1.89742e-06
2.72609e-06
2.0542e-06
1.86981e-06
0.0243818
2.70609e-06
0.0306049
4.17858e-06
4.06578e-06
1.65759e-06
1.84661e-06
3.8399e-06
2.24227e-06
1.92323e-06
2.74491e-06
3.506e-06
0.0264912
2.10142e-06
1.88267e-06
3.53916e-06
0.317761
0.0175665
2.19093e-06
3.18975e-06
0.0315822
0.0378706
0.016148
0.0171782
3.54008e-06
1.68726e-06
3.99167e-06
0.00463761
2.37955e-06
0.0156357
0.0664521
2.45142e-06
0.000868102
0.0617038
5.32788e-06
2.77557e-06
3.57901e-06
0.0429703
2.2309e-06
2.59046e-06
6.31591e-06
0.193396
1.80001e-06
0.00891557
2.22608e-06
2.76979e-06
3.12605e-06
2.53607e-06
1.79316e-06
0.00232603
0.0315633
8.22394e-05
0.000743235
0.00815886
2.1842e-06
0.0332568
0.0500752
0.0201071
1.77427e-06
1.83196e-06
1.85821e-06
0.010704
0.395535
5.42328e-06
4.03986e-06
3.23755e-06
2.19463e-06
0.0182552
3.14981e-06
0.0453371
2.01641e-06
0.0133013
1.92489e-06
2.33772e-06
2.06484e-06
0.000563853
3.53001e-06
0.00771964
0.0316746
0.0322535
1.39215e-05
0.0153235
2.55401e-06
0.0148852
0.00404097
2.63585e-06
0.000139783
0.017269
2.64333e-06
2.74631e-06
3.54229e-06
2.48436e-06
2.86588e-05
0.000134949
0.00868408
2.50061e-06
3.04943e-06
3.40511e-06
3.0869e-06
1.6821e-06
3.17967e-06
2.63721e-06
1.98927e-06
3.0983e-06
2.30395e-06
0.00265817
2.66953e-06
2.29275e-06
0.00486644
0.0147722
1.28845e-05
0.0133458
1.70804e-06
0.01903
2.32713e-06
2.07773e-06
0.0389213
0.0174602
0.026407
0.0660614
0.0231499
0.0329038
2.67598e-06
3.3504e-06
2.01691e-06
2.616e-06
0.00011843
3.87208e-06
0.033768
0.0346191
1.8922e-06
2.71488e-06
2.52975e-06
3.20056e-06
0.0289456
2.16504e-06
3.60958e-06
2.47458e-06
2.21973e-06
1.71388e-06
0.0214296
0.0166678
1.72123e-06
0.00233568
2.97473e-06
1.67868e-06
2.00085e-06
2.80082e-06
0.0155905
0.0236034
1.98596e-06
0.0288418
0.0182115
1.90948e-06
0.0153907
2.44661e-06
3.57165e-06
0.0276955
0.00976151
2.04605e-06
2.48532e-06
3.55323e-06
2.34083e-06
2.22707e-06
0.0107618
0.109832
3.3661e-06
0.027358
0.0344701
2.37186e-06
3.29605e-06
0.00222734
3.16642e-06
7.62723e-06
0.0278436
0.0173854
0.0631947
2.08929e-06
4.11329e-06
1.92232e-06
2.33302e-06
3.34921e-06
2.64248e-06
0.0254067
2.0541e-06
0.014192
0.0175139
2.45344e-06
0.00124815
1.83117e-06
2.7128e-06
0.0203006
2.09773e-06
1.63744e-06
1.89414e-06
4.46386e-06
1.77179e-06
1.90871e-06
0.0339575
3.59226e-06
1.96311e-06
2.62217e-06
2.06576e-06
3.35581e-06
2.10131e-06
0.00246823
2.23382e-06
3.41037e-06
2.19189e-06
0.0121269
0.0178861
3.22164e-06
2.19402e-06
2.62899e-06
0.0264453
2.37518e-06
0.0161996
5.88923e-06
2.50334e-06
1.65507e-06
1.80787e-06
0.000762752
0.0184288
2.24605e-06
3.55824e-06
0.0345793
6.84006e-06
2.06404e-06
3.30858e-06
2.93838e-05
2.65773e-06
2.24823e-06
0.0139294
3.08844e-06
2.44634e-06
2.30636e-06
1.9053e-06
2.38414e-06
1.79814e-06
0.0136595
2.52755e-06
0.00842898
1.63149e-06
1.69228e-06
0.258964
0.0461123
1.47155e-05
0.0281481
0.0227781
0.0155373
1.76528e-06
0.0599427
2.45481e-05
0.00230031
1.675e-06
3.15792e-06
2.26529e-06
2.25128e-06
2.12144e-06
2.70844e-06
2.19667e-06
2.57807e-06
3.38649e-06
2.57183e-06
5.95437e-06
1.89261e-06
6.52951e-06
1.9961e-06
3.13367e-06
1.81312e-06
2.77882e-06
0.0168623
0.00242692
3.38135e-06
2.29316e-06
2.95726e-06
4.14164e-06
8.64077e-06
4.16477e-06
0.0995946
0.0404189
2.66967e-06
2.66786e-06
0.00048557
0.0289483
0.208167
0.00223636
4.0202e-06
1.99881e-06
1.49497e-05
1.69866e-06
0.00219272
0.00091093
1.82974e-06
2.05879e-06
2.67889e-06
3.26637e-06
4.17354e-06
0.0157942
2.6868e-06
1.67001e-06
1.84809e-06
1.92076e-06
0.012326
1.45255e-05
3.98457e-06
3.45257e-06
0.0302247
2.35079e-06
2.38735e-06
2.15648e-06
2.68946e-05
0.0489006
4.15622e-06
0.0131079
1.69192e-06
1.72713e-06
0.0144253
0.0131441
2.30287e-06
0.0193847
0.125128
2.63414e-06
0.00867032
1.82885e-06
1.92457e-06
4.4851e-06
4.66075e-05
1.61497e-06
3.31909e-06
1.92407e-06
2.7913e-06
0.000835372
2.14557e-06
0.00141379
4.13419e-06
0.000239631
2.63437e-06
0.00244808
0.087272
2.23544e-06
0.00028315
2.50499e-06
1.9177e-06
1.94517e-06
0.0119906
0.0145816
3.78158e-06
0.0952415
1.92506e-06
1.90888e-06
0.0611355
0.02184
2.70362e-06
0.0129535
0.0633184
3.26672e-06
0.0971009
1.03073e-05
1.73112e-06
3.00494e-06
0.0252833
0.00295616
2.0034e-06
0.00918685
0.0271967
2.16811e-05
3.1938e-06
1.92618e-06
0.0359373
2.66957e-06
2.35639e-06
0.00047064
0.00772694
2.19617e-06
2.31266e-06
1.9163e-06
1.82409e-06
2.45525e-06
2.25159e-06
1.90589e-06
3.36001e-06
0.0396532
2.79936e-06
2.67556e-06
4.20294e-06
0.0165834
3.33244e-06
3.01607e-06
0.000238846
0.0330874
3.3869e-06
0.0189418
2.88578e-06
2.9295e-06
0.0347685
0.12186
2.88335e-06
1.71131e-06
6.69453e-05
3.14136e-05
3.72537e-06
3.57533e-06
3.96839e-06
2.06096e-06
0.0139136
0.0370776
2.38737e-06
2.19676e-06
1.22772e-05
0.0383012
0.0413167
1.66379e-06
2.27073e-06
0.0929304
2.35204e-06
3.54285e-06
3.25448e-06
2.04173e-06
2.74189e-06
0.000158669
0.0200283
7.44285e-05
3.18312e-06
1.03158e-05
2.54722e-06
4.18121e-06
0.073291
0.0346161
2.9912e-06
0.0204669
0.0166736
0.0296248
0.0349832
1.02631e-05
0.0457911
0.0184151
2.92905e-06
0.0201164
2.73218e-06
6.33267e-06
2.03262e-06
1.68562e-06
9.46521e-06
0.00116121
2.21058e-06
0.000711353
0.0153796
2.04344e-06
4.01065e-06
2.56455e-06
0.0232844
0.0486559
0.0197039
1.71421e-06
0.00052205
0.0628161
2.35054e-06
1.69918e-06
2.94059e-06
2.23708e-06
0.213285
0.0326646
3.95333e-06
0.0401162
3.41463e-06
0.0100773
1.97979e-06
2.19763e-06
2.03309e-06
0.0330646
1.65016e-06
3.1294e-06
0.0439274
0.0397042
5.1358e-06
0.0235605
1.71449e-06
3.26004e-06
3.71702e-06
0.00251732
1.03776e-05
0.0025853
2.02666e-06
0.0298866
0.0273186
2.00881e-06
0.0582665
2.27659e-06
0.0276864
2.02527e-06
3.04933e-05
0.0534906
8.96877e-06
1.80682e-06
0.0149712
0.0293794
3.10301e-06
0.175934
2.60989e-06
3.99992e-06
0.0653396
0.0289381
3.95882e-06
3.30007e-06
1.9979e-06
0.0294124
0.0550107
3.10115e-06
1.95186e-05
2.05645e-06
1.65138e-06
2.91152e-06
3.64769e-06
1.13619e-05
1.92409e-06
0.149934
3.37446e-06
2.55571e-06
0.0179024
0.0597169
2.83379e-05
0.0199893
0.0105964
2.41858e-06
0.0635415
0.142329
2.23883e-06
0.0365891
4.26739e-06
1.98181e-06
2.53485e-06
0.0118756
2.23634e-06
3.07884e-06
2.08334e-06
2.08562e-06
0.0546983
3.13843e-06
0.0188847
2.8089e-06
3.64002e-06
2.54163e-06
1.91852e-06
1.71156e-06
0.0137838
3.16717e-06
3.4278e-06
3.85942e-06
1.95806e-06
3.06044e-06
1.64811e-06
6.19549e-06
2.39552e-06
2.02367e-06
1.82682e-06
0.413196
0.0196096
0.0415094
2.07693e-06
0.0233114
0.034852
2.76944e-05
1.66281e-06
0.0528448
2.38123e-06
0.234078
3.1244e-06
8.08979e-06
0.00843308
0.00217861
0.0605308
0.00246071
0.0167149
1.61741e-06
0.0192256
2.72543e-06
2.25361e-06
2.24085e-06
2.72487e-06
3.17723e-06
0.016217
2.53895e-06
1.93495e-06
0.0422763
0.1526
3.69221e-06
1.62579e-06
2.21233e-06
4.10986e-06
2.33563e-06
2.04903e-06
2.60648e-06
0.000196822
2.03199e-06
0.042171
0.0263633
0.016936
0.0251179
5.90054e-05
2.23754e-06
3.62174e-06
0.0134554
2.52522e-06
0.0158458
0.0120776
1.93118e-06
2.15375e-06
0.0124362
0.0255057
0.0202634
2.02975e-06
2.23596e-06
2.13858e-06
0.0103457
0.0175758
0.0205038
4.3522e-06
0.00138301
0.054766
4.10115e-06
0.00842333
0.137324
5.16483e-05
2.89441e-06
0.0203465
2.81027e-06
2.44039e-06
0.0170337
2.27645e-06
4.09219e-06
9.05881e-06
2.26236e-06
1.52721e-05
0.0167804
0.00972996
0.0689577
2.34082e-06
1.98446e-06
3.20815e-06
4.53576e-05
0.0114979
2.21957e-06
0.0602353
2.54068e-06
0.0289771
0.0409536
1.80947e-06
2.18978e-06
4.14075e-06
2.52061e-06
4.07947e-06
0.16134
3.85582e-06
0.0200667
2.2515e-06
2.24476e-06
2.15194e-06
0.185475
0.0200376
2.40169e-06
0.171457
2.53008e-06
0.00799679
3.14502e-06
3.53316e-06
0.000540354
2.18714e-06
0.000122159
0.0493961
5.97457e-06
0.00015448
1.98298e-06
0.0171517
0.0210429
7.33507e-05
1.71178e-06
2.20835e-06
1.9351e-06
3.58048e-06
1.62004e-05
2.17844e-06
1.97646e-06
1.68158e-05
2.28134e-06
0.00234544
2.79481e-05
2.55586e-06
2.69228e-06
0.0120855
1.68105e-06
1.81775e-06
0.0139031
1.03003e-05
2.93535e-06
3.34593e-05
0.0247883
1.95593e-06
3.29072e-06
2.72545e-06
3.88355e-06
0.00218021
3.11896e-06
0.0158156
4.11954e-06
0.0381324
0.12896
0.00258649
0.00338243
3.67917e-06
1.98365e-06
0.000359496
2.77995e-06
0.0150548
1.96093e-06
2.4054e-06
1.73891e-06
1.89576e-06
0.0100456
2.0971e-06
3.19583e-06
2.20307e-06
1.96487e-06
0.00193359
2.26327e-06
0.0314903
2.90174e-06
3.6239e-06
3.10116e-06
0.0206556
0.0278131
0.349102
0.000864245
2.41615e-06
0.0162004
0.0278061
2.05934e-06
2.86358e-06
0.0152083
0.0167792
1.99282e-06
5.18839e-06
0.0247447
3.33638e-06
1.6719e-06
2.35581e-06
2.0903e-06
2.34757e-06
0.0253023
0.11684
1.76809e-06
0.0166175
2.23913e-06
0.00169752
2.41032e-06
2.62979e-06
2.71059e-06
0.0204747
0.0139847
0.0100654
3.69841e-06
2.4689e-06
1.91259e-06
0.0192211
3.16731e-06
1.92137e-06
1.86863e-06
2.54036e-06
6.68929e-06
2.15058e-06
3.26538e-06
0.00360385
3.33118e-06
0.0511991
1.94817e-06
0.000894766
2.45623e-06
1.3696e-05
6.00571e-06
2.37327e-06
0.0373908
0.000412131
0.025394
3.64338e-06
2.24075e-06
9.13723e-06
0.0353966
2.84366e-06
2.20413e-06
1.7354e-06
0.0187567
1.81966e-06
3.31065e-06
1.6514e-05
2.25728e-06
1.70445e-06
3.59557e-06
2.65422e-06
2.63934e-06
1.94233e-06
0.000559045
1.99471e-06
1.77859e-06
2.11091e-06
0.0217786
2.6237e-06
1.94158e-06
2.37204e-06
3.17909e-06
2.77397e-06
1.282e-05
0.0594202
7.53117e-05
1.7721e-06
1.9693e-06
0.0309292
0.0136262
0.0396159
0.0237008
1.212e-05
3.05987e-05
2.92781e-06
2.13233e-06
0.0303614
0.0191186
0.0225455
3.37346e-06
6.08178e-06
3.23265e-06
0.0611531
0.0249078
3.03944e-06
8.74114e-06
2.23477e-06
0.0210383
0.0211497
0.0392875
2.28004e-06
0.00425936
4.1281e-06
1.64766e-06
0.0633747
4.27847e-06
1.71616e-06
0.0353389
0.00211844
2.64212e-06
0.0163814
1.33744e-05
1.68843e-06
0.000451398
1.71281e-06
0.128344
0.0451345
4.01447e-06
0.0164737
0.00123625
0.0334698
1.71206e-06
1.87663e-06
2.57952e-06
1.78929e-06
1.75298e-06
1.8901e-06
0.0376681
0.0172701
2.11383e-06
0.00219351
2.07279e-06
2.63741e-06
2.881e-06
1.76306e-06
0.0173397
0.0493478
0.0239969
0.0184826
3.28184e-06
2.04466e-06
0.00406449
1.82782e-06
2.44687e-05
9.65256e-05
0.0343034
0.0118137
2.10047e-06
2.6429e-06
1.82507e-06
3.21233e-06
3.50529e-06
0.00493032
1.71554e-06
0.00339847
3.4002e-06
4.19785e-06
2.32353e-06
0.0327686
0.000292641
2.91807e-06
1.97728e-06
0.0287409
2.6693e-06
0.0223709
0.0182407
2.43554e-06
0.00027999
2.3908e-06
0.0148908
0.0269068
0.0276921
7.57434e-05
3.35992e-06
2.64522e-06
0.00147339
2.22907e-06
0.0270874
0.0277408
0.00974283
2.2658e-06
2.3031e-06
1.95235e-06
2.26289e-06
0.0221005
0.0133244
1.29194e-05
4.43972e-06
1.77228e-06
1.39979e-05
2.54894e-06
1.8079e-06
6.52792e-06
0.0316414
0.0159267
0.00911231
2.4492e-06
0.000298515
0.0213273
1.797e-06
1.7835e-06
4.12108e-06
1.11937e-05
2.00252e-06
2.1089e-06
1.98751e-06
3.64524e-06
1.86772e-06
7.94717e-06
3.18394e-06
8.00956e-06
0.047212
0.0277412
0.0118592
0.0443516
2.31456e-06
2.28929e-06
0.15034
6.80863e-06
2.22708e-06
2.09761e-06
0.00266583
2.38013e-06
5.63631e-06
3.512e-06
1.69035e-06
0.0184477
0.0160893
0.246745
3.03744e-06
0.0242857
2.21982e-06
1.79331e-05
0.0199038
2.37622e-06
2.76571e-06
2.72647e-06
0.00199733
0.0142693
1.87745e-06
0.023609
0.0187703
0.00109485
2.04059e-06
0.0243192
2.34374e-06
0.103971
4.15405e-06
4.10242e-06
2.91615e-06
2.86148e-06
1.72471e-06
2.00357e-06
2.83091e-06
0.000236775
2.7018e-06
2.04821e-06
0.0129781
3.13147e-06
3.04161e-06
0.0179575
0.00355392
0.0617222
1.88249e-06
2.48716e-06
2.40931e-06
4.17859e-06
0.0121701
1.74408e-05
5.92196e-06
0.0260229
0.0396521
2.14049e-06
2.42903e-06
1.94252e-06
4.1558e-06
2.03274e-06
1.81075e-06
2.37965e-06
1.6957e-06
3.33852e-06
2.31714e-06
3.37432e-06
5.48701e-06
8.22538e-06
1.89312e-06
0.0301732
2.88981e-06
2.1949e-06
0.0115894
2.11998e-06
0.016523
7.12192e-05
3.02499e-06
4.73873e-05
0.0398596
0.00217862
1.87214e-06
0.0798432
2.13875e-06
0.0248625
1.90582e-06
0.0302042
0.0181029
0.00476979
2.59178e-06
0.0159281
2.55923e-06
3.78299e-06
2.37937e-06
0.0118647
2.01409e-06
0.0425253
0.0175191
0.00875746
2.17276e-06
0.0213489
0.0121825
2.5958e-06
1.71125e-06
2.57064e-06
2.29777e-06
0.03587
2.12102e-06
1.84693e-06
0.0156941
3.24132e-06
0.026263
2.27614e-06
2.19773e-06
0.0165471
2.1224e-06
0.00235843
1.96346e-06
0.0247683
3.25168e-06
0.0021218
4.07713e-06
1.6795e-06
0.02963
1.23012e-05
2.02694e-06
2.16967e-06
0.01815
1.69581e-06
2.60628e-06
0.0170256
2.35195e-06
0.020124
3.65119e-05
3.82882e-06
0.0207323
0.024013
7.57843e-06
3.46483e-06
2.18503e-06
0.015166
2.47565e-06
4.1044e-06
1.99805e-06
3.36827e-06
2.31476e-06
1.88189e-06
9.8427e-06
3.50936e-06
0.0352458
0.00662296
0.0590324
2.12348e-06
2.5258e-06
3.8683e-06
1.8463e-06
5.12422e-06
1.65671e-06
0.398231
0.184297
0.00877315
0.0224098
0.000519841
0.0104252
4.93735e-05
1.83991e-06
2.90126e-06
1.9904e-06
4.05959e-06
4.25113e-06
1.68726e-06
0.00228094
3.27034e-06
2.59759e-05
2.21535e-06
0.115814
0.0595805
1.88034e-06
0.0174982
0.0167027
2.31739e-06
1.94828e-06
2.60713e-06
0.0521155
1.82964e-05
0.0824253
3.4441e-06
0.00210425
5.86316e-06
0.016106
0.0256734
0.014812
3.64709e-06
0.0353109
1.07527e-05
0.0340821
2.18535e-06
0.0158413
1.83788e-06
1.66161e-06
1.67429e-06
3.09282e-06
2.7331e-06
1.71431e-06
2.49411e-06
3.41395e-06
0.0156537
0.0359437
0.000102696
0.000466666
1.84693e-06
2.28604e-06
2.07804e-06
0.00124279
0.0007446
2.54848e-06
0.119644
2.87238e-06
2.69586e-06
2.3189e-06
0.0772128
2.20686e-06
0.055085
2.07731e-06
0.0153496
1.74834e-06
2.50622e-05
2.22182e-06
0.000175341
3.47253e-06
3.4053e-06
3.6068e-06
0.0255043
2.88911e-06
2.55405e-06
1.93763e-06
0.0158514
2.02743e-06
2.06324e-06
3.29398e-06
0.0897431
2.81279e-06
7.64491e-06
2.25729e-06
3.22335e-06
0.015227
2.19669e-06
0.086243
1.74452e-06
0.0161231
1.71254e-06
0.000397628
2.07929e-06
0.0310643
2.97169e-06
2.32141e-06
2.23404e-06
3.40331e-06
2.55397e-06
2.6528e-06
4.19595e-06
0.00856554
2.88183e-06
3.75403e-06
0.0406055
1.86766e-06
0.0300473
3.0287e-06
0.0278418
0.0683005
0.0304155
2.57459e-06
0.00152737
0.0340688
2.21604e-06
0.00311504
1.96864e-06
2.57364e-06
7.83869e-06
2.3814e-06
0.109082
2.0456e-06
3.30422e-06
0.0122407
1.9041e-05
1.77896e-06
0.0289901
1.66523e-06
1.15703e-05
2.57324e-06
3.84462e-06
0.0240044
0.0268493
0.00231594
0.0205671
0.0489005
1.89845e-06
0.0413256
0.00127901
0.000136874
1.87119e-06
0.018205
2.23237e-06
0.00227326
0.0170255
5.73241e-06
8.06941e-06
2.98657e-06
1.77161e-06
0.0363101
2.30105e-06
0.0149789
0.00227916
0.0104752
2.3309e-06
1.91576e-06
0.0104862
2.63924e-06
6.25868e-06
0.0168583
2.36022e-06
0.019285
3.44502e-06
0.000163488
2.28883e-06
0.0322976
0.000305894
0.0669724
0.0306358
0.0735194
0.0355065
0.00030283
2.63488e-06
0.0153037
0.00109513
2.54754e-06
2.30496e-06
1.83593e-06
4.01189e-05
0.0287587
0.011065
3.14098e-06
0.0692092
1.93165e-06
1.79294e-06
2.23636e-06
2.1406e-06
0.0227851
0.0998742
0.0253571
0.0102155
1.95478e-06
1.94117e-06
0.0178334
1.78394e-06
2.07942e-06
1.70994e-06
0.0198727
2.41146e-06
3.31608e-06
0.00470736
0.113296
0.0154938
1.88045e-06
0.0185156
2.61075e-06
2.98125e-06
0.0327978
0.00546711
1.79627e-06
0.0182397
0.00308467
2.1089e-05
2.40021e-06
0.00269606
4.24657e-06
0.0154971
1.93379e-06
0.0272837
0.0141775
3.88394e-06
0.0502366
0.0162785
2.07177e-06
0.0160696
2.03244e-06
0.0105908
1.70668e-06
0.0179046
0.0160144
0.0248751
3.36855e-06
0.024994
0.0387884
0.0144376
1.93083e-06
4.06505e-06
6.69595e-05
0.0277921
2.24156e-06
1.89592e-06
6.12386e-06
2.99319e-06
0.0153967
2.63318e-06
2.00763e-06
0.0601323
5.35851e-06
3.68893e-06
0.0126169
1.98491e-06
2.20428e-06
0.0594956
1.81144e-06
1.96355e-05
2.29302e-06
2.13608e-06
0.0227737
0.000130969
1.83393e-06
0.0209653
1.95522e-06
0.00992675
0.0172778
3.23568e-06
2.72205e-06
2.35886e-06
0.0199187
0.00239778
3.67673e-06
0.0145341
0.0316149
0.0298152
0.00620103
0.00381216
1.99556e-06
5.54723e-06
1.68628e-05
0.01653
2.97214e-06
0.112299
2.17869e-06
4.76922e-06
0.0566032
1.69535e-06
3.32268e-06
2.21617e-06
3.31998e-06
3.21711e-06
0.0207786
0.0111088
2.29537e-06
0.0138287
1.70265e-06
0.0234421
0.0170635
0.00219593
1.33368e-05
0.0222789
2.53101e-06
2.64615e-06
0.0182998
0.0166177
1.78259e-05
2.41475e-06
2.22064e-06
2.66066e-06
0.0168414
0.0216229
2.20576e-06
3.68689e-06
8.17223e-06
2.97733e-06
0.11678
0.0554018
1.92418e-06
2.20604e-06
2.71342e-06
2.85754e-06
0.00302246
2.95545e-06
2.34766e-06
1.76891e-06
2.83955e-06
1.71886e-06
2.03264e-06
1.9102e-06
0.0252019
0.00874112
0.0146856
3.33106e-06
3.48872e-06
2.5734e-06
0.0101463
3.35535e-06
0.0903344
2.62413e-06
2.61855e-06
0.0206043
2.16088e-06
2.30941e-06
3.28106e-06
2.15954e-06
1.71612e-06
0.00174203
0.0386909
3.46632e-06
0.0170904
3.14626e-06
2.36099e-06
2.86235e-06
1.99043e-06
1.96468e-06
0.0299789
2.01244e-06
0.0232027
2.36292e-06
0.0109686
2.16759e-06
2.07298e-06
0.0154848
0.0132726
1.83495e-06
2.1796e-06
5.7119e-06
1.76786e-06
2.86543e-06
2.2087e-06
1.73293e-06
0.0434788
2.28523e-06
0.00205152
1.62687e-06
0.0242567
0.000169346
3.57084e-06
0.00346531
0.0314627
2.24525e-06
1.70046e-06
0.0153438
6.57432e-05
1.89237e-06
3.24512e-06
0.000681845
1.6956e-06
2.94038e-06
1.72938e-06
2.61476e-06
2.93634e-05
2.48985e-06
0.0132473
2.63182e-06
2.76809e-06
2.65944e-06
0.000149699
0.0141521
2.23713e-06
0.00904458
2.39914e-06
1.67869e-06
1.90528e-06
1.28042e-05
3.18759e-06
2.44002e-06
0.0523061
1.89535e-06
1.88266e-06
0.000236913
0.0684835
2.18529e-06
0.0203086
2.38088e-06
0.0948322
4.12587e-06
1.91878e-06
0.00990402
6.89757e-06
3.76758e-06
3.53009e-06
0.0265277
2.01745e-06
1.66225e-06
0.12829
0.112631
3.29838e-06
0.00394867
2.32188e-06
0.037708
2.66181e-06
1.90458e-06
2.65938e-06
0.0428927
3.67044e-06
3.4627e-06
0.015257
3.09581e-06
3.07712e-06
1.36531e-05
2.28084e-06
2.11932e-06
0.00884386
0.0315331
1.84643e-06
2.87757e-06
2.67198e-06
0.00621676
1.74056e-06
0.0374711
1.2505e-05
0.030299
4.1078e-06
3.55368e-05
0.0229879
4.56508e-06
0.00509294
2.01441e-06
2.25441e-06
2.20795e-06
0.0136072
1.65296e-06
3.33979e-06
4.10515e-06
0.029661
0.00684907
0.00740048
0.0720928
0.0125896
2.20608e-06
0.00869035
2.25052e-06
2.27692e-06
2.92284e-06
2.48283e-06
2.32807e-06
0.0532165
0.0145213
2.41603e-06
0.0976585
0.0371602
7.68851e-05
0.0192407
2.30757e-06
0.0190123
0.0268666
1.85414e-06
1.82593e-06
2.67294e-06
0.0112825
3.27769e-06
4.25561e-06
2.52417e-06
0.0512689
0.00206861
0.0207246
0.0300992
1.70395e-06
1.76655e-06
0.0140239
2.14725e-06
1.7319e-06
0.00893221
2.25119e-06
2.07513e-06
2.76615e-05
2.80029e-06
1.67626e-06
1.94021e-05
0.00209028
0.133734
2.15634e-06
0.0464069
0.00114213
0.0196617
0.0179716
2.43412e-06
2.61616e-06
0.0628028
0.0299028
3.28933e-06
0.0184301
0.00252518
1.73153e-06
2.89419e-06
0.0220666
3.41915e-05
4.61062e-06
2.28253e-06
0.0126676
8.79936e-05
2.54102e-06
9.94174e-06
0.000695042
1.73003e-06
3.22305e-06
1.95053e-06
0.0202886
1.02329e-05
2.60646e-06
2.07274e-06
1.97009e-06
2.46994e-06
3.65279e-06
0.0103815
0.0322671
4.08668e-06
0.0421804
2.94402e-06
0.0203112
5.91538e-06
0.0203206
3.24146e-06
2.06525e-06
0.189282
2.68687e-06
0.00233904
0.0198399
0.0140345
0.0219595
3.18813e-06
2.03947e-06
2.56131e-06
2.66788e-06
2.01683e-05
2.04213e-06
1.83381e-06
1.66555e-06
0.000248372
2.54286e-06
2.8966e-06
0.0201246
3.45694e-06
5.51775e-06
2.22844e-06
3.36135e-06
0.0214406
2.8762e-06
2.24202e-06
3.44842e-06
0.00720101
0.0344801
2.63394e-06
2.59078e-06
2.17781e-06
0.008032
2.2402e-06
0.0266908
0.0169866
0.0186232
2.24891e-06
0.00198376
2.14267e-06
1.78402e-05
2.14288e-06
0.00712572
3.52487e-06
2.05565e-05
2.16543e-06
1.76608e-06
2.5255e-06
2.38492e-06
0.00227395
0.000116785
0.0164877
0.00785365
2.84233e-06
0.00209803
1.86366e-06
1.81603e-06
3.92275e-06
0.0174157
1.66795e-06
2.06287e-06
0.000373747
4.12124e-06
0.0289921
4.13166e-06
2.2194e-06
2.58551e-06
1.8256e-06
2.79997e-06
3.94688e-06
0.0524082
1.87097e-06
0.0347471
2.95526e-06
1.67382e-06
0.0342351
6.64662e-05
1.8029e-06
0.0201323
2.80697e-06
1.73873e-06
2.58783e-06
2.54652e-06
4.15789e-06
0.0213202
0.000305772
0.0447231
2.90657e-06
2.43493e-05
3.48114e-06
2.92433e-06
0.0185362
1.62224e-06
3.20773e-06
0.0627309
2.05424e-06
2.24901e-06
2.19956e-06
1.39052e-05
0.0190619
0.0212362
0.0161303
3.27902e-06
3.23106e-06
2.19401e-06
0.0320553
1.78338e-06
2.64562e-06
2.50005e-06
2.24305e-06
0.0428518
3.63144e-06
3.33901e-06
2.16826e-06
3.04793e-06
3.17466e-05
0.0024375
2.06745e-06
0.013622
0.00470745
7.24808e-06
2.74982e-06
7.4202e-06
2.60327e-06
0.000902323
0.000175653
1.92253e-06
3.30242e-06
3.52329e-06
1.77297e-06
3.34435e-06
2.29243e-06
1.67617e-06
0.0796446
2.45708e-06
2.2161e-06
3.56914e-06
0.0251549
0.00283646
2.26017e-06
6.56965e-06
2.64506e-06
1.74735e-06
8.73817e-05
1.32967e-05
2.01232e-06
0.0697555
0.0190585
2.01905e-06
1.89431e-06
0.0836054
2.90076e-06
2.9106e-06
2.34918e-06
2.18837e-06
6.07647e-05
0.0246528
2.98515e-06
0.00212973
0.00896213
2.90988e-06
1.75314e-06
2.5135e-06
0.0230004
0.0162715
3.26404e-06
0.000856529
0.00115632
0.016879
5.85249e-06
2.41102e-06
2.36913e-06
0.0313764
2.25951e-06
6.32692e-06
0.0416068
0.00631729
1.42754e-05
3.17964e-06
0.0516502
2.82806e-06
4.08579e-06
0.0296572
0.0129823
1.64016e-05
0.0434531
0.00832248
2.45501e-06
1.66569e-06
1.87083e-06
2.70682e-06
2.30994e-06
0.0133548
0.0273609
2.82544e-06
1.72982e-06
1.8353e-06
1.67915e-06
0.0157106
3.26605e-06
2.08929e-06
0.000144799
0.0112183
7.3605e-06
0.027159
1.76391e-06
2.20433e-06
2.14146e-06
2.03519e-06
1.81122e-06
2.25234e-06
2.14313e-06
9.33763e-06
0.0532293
3.18216e-06
0.00751661
3.43664e-05
0.130803
3.52128e-06
2.57654e-06
0.00937519
2.62805e-06
2.62093e-06
0.00248011
0.0182018
7.47414e-05
0.0311437
0.0253858
0.0752426
0.017563
0.0395477
1.80495e-06
3.00433e-06
2.26473e-05
1.96153e-06
2.51264e-06
0.000278108
1.90711e-06
0.00738303
2.28659e-05
0.0337599
0.00241521
1.9558e-06
1.06349e-05
2.5399e-06
2.6206e-06
1.94432e-06
3.30694e-06
0.0337566
0.0207856
0.0260523
2.11809e-06
2.25808e-06
3.72578e-06
2.57298e-06
0.0474844
5.4346e-05
0.00256099
1.07311e-05
2.66317e-06
1.87828e-06
2.39966e-06
0.0613154
2.09754e-06
0.159805
2.19057e-06
2.21023e-06
1.17962e-05
0.014865
7.90069e-06
2.82249e-06
0.0348445
4.33994e-06
1.85902e-06
0.0020895
2.54276e-06
0.025731
1.96687e-06
2.90861e-06
5.02872e-06
3.386e-06
1.84818e-06
1.87648e-06
0.148059
2.19328e-06
0.0424411
0.00905243
0.0574217
3.39342e-06
2.90627e-06
0.00198127
2.07994e-06
2.20081e-06
0.0313693
0.0922941
2.46174e-06
1.68141e-06
3.84564e-06
0.200502
3.42548e-06
0.0171747
0.000170992
0.0104757
2.13965e-06
1.13979e-05
4.18804e-06
1.86014e-06
1.98384e-06
0.0384651
4.20965e-06
2.2159e-06
3.27566e-06
0.00702317
0.0245423
2.2081e-06
0.0247918
3.42956e-06
3.46294e-06
2.191e-06
0.0598587
1.93092e-06
2.70993e-06
2.06999e-06
2.01469e-06
3.43017e-05
0.0157011
0.0352153
2.23414e-06
2.27144e-06
0.000243771
0.000909459
0.0192928
0.0245936
7.64846e-05
2.29234e-06
2.41196e-06
4.9399e-06
0.00203257
3.30069e-06
0.00019855
3.59544e-06
3.51646e-06
1.64188e-06
9.3421e-06
2.81618e-06
3.17046e-06
2.01298e-06
2.23908e-06
0.00246728
2.33759e-06
1.72607e-06
1.8252e-06
0.00544724
0.00225953
1.95593e-06
0.0376103
2.88493e-06
2.39648e-06
0.0087018
0.0150754
0.027611
3.3805e-06
0.00139459
0.0935364
2.19499e-06
1.99609e-06
3.30844e-06
3.103e-06
2.11058e-06
2.04944e-06
1.8203e-06
1.63247e-06
2.2234e-06
0.0130143
0.0343803
7.3301e-05
0.0491482
1.73037e-06
2.62743e-06
0.030159
2.18666e-06
0.0130288
1.79772e-06
1.66181e-06
4.58292e-06
1.97191e-06
3.94647e-06
1.73525e-06
2.42244e-06
2.09769e-06
0.00402355
1.76155e-06
4.85745e-05
0.0594646
0.0171047
0.305206
2.62388e-06
1.86568e-06
0.0358595
0.0279624
3.23955e-06
1.63271e-05
0.078489
5.17465e-06
0.0246901
2.37236e-06
2.23662e-06
0.00536458
2.3002e-06
3.76063e-05
6.24668e-06
2.70197e-06
5.03117e-06
2.6104e-06
2.03375e-06
3.28142e-06
2.02458e-06
0.00238608
0.020735
2.29766e-06
0.0164614
0.0415909
2.16144e-06
2.03914e-06
0.00507778
0.121798
3.35179e-06
0.0159768
2.55744e-06
0.106848
1.88886e-06
0.020038
0.00257001
2.08397e-06
0.017703
0.000875665
7.45523e-06
1.02663e-05
0.0247579
8.23376e-06
2.32487e-06
0.0280383
0.0180772
1.92811e-06
2.66641e-06
1.79558e-06
0.000195797
4.10013e-06
2.70108e-06
3.43762e-06
1.88522e-06
2.28831e-06
0.0786484
2.64825e-06
0.0944086
0.133574
0.040798
0.105103
2.88677e-06
1.78616e-06
2.86492e-06
2.20067e-06
1.6286e-06
3.57319e-06
0.010739
0.0721357
2.6794e-06
3.18639e-06
1.08328e-05
0.0255597
1.72786e-06
0.000149646
2.49667e-06
1.93861e-06
2.80594e-06
0.0153707
1.64884e-06
2.63167e-06
1.77849e-06
0.0171023
0.0037704
2.37033e-06
2.30647e-06
2.12305e-06
0.017584
1.68172e-06
0.0230539
0.0130162
0.0655692
3.35268e-06
2.60287e-06
0.0136245
1.7297e-06
1.86988e-06
1.81308e-06
3.59388e-06
0.0192872
1.88658e-06
2.87152e-06
4.14074e-06
3.26103e-06
2.69358e-06
0.0208747
2.53174e-06
0.013655
2.87469e-06
0.019104
0.0254685
0.0366675
2.11894e-06
1.66551e-06
0.0263886
0.0214369
0.00113547
0.0469828
3.08702e-06
2.203e-06
2.0475e-06
0.111374
2.00581e-06
7.84718e-05
0.283581
2.75943e-06
0.0184367
0.0241526
0.0275619
4.19021e-06
2.23366e-06
1.98537e-06
2.34362e-06
3.14706e-06
2.06303e-06
2.96859e-06
0.0142697
0.014889
0.0529646
2.26606e-06
2.1488e-06
2.87672e-06
0.0150074
1.78959e-06
0.0124577
0.018516
0.00206119
2.37927e-06
2.01589e-06
3.52276e-06
2.36718e-06
2.10098e-06
0.0179714
2.58524e-06
0.0516483
9.58e-05
0.0390614
1.74452e-06
3.64478e-06
0.00545122
1.67114e-06
0.0568481
0.0103176
0.019746
2.79439e-06
0.0276633
0.0026816
2.76332e-06
0.016783
0.0295501
2.95884e-06
0.01926
0.0135906
0.0182571
3.16472e-06
2.50416e-06
2.48967e-06
0.0464673
0.000159805
2.90592e-06
0.0184294
5.65259e-06
5.38393e-06
0.0345825
0.000352362
0.0610403
4.19149e-06
2.13049e-06
5.35248e-06
0.194536
0.0166984
0.0218142
3.47777e-06
0.0191555
2.55457e-05
6.2879e-05
2.24644e-06
2.43965e-06
2.13832e-06
0.0265337
0.001081
0.115829
0.0536098
1.93354e-06
2.50467e-06
0.012129
1.58777e-05
2.35526e-06
0.0344686
2.14198e-06
3.46756e-06
2.94396e-06
2.95693e-06
0.0149118
2.10137e-06
0.0515404
2.86047e-06
1.77345e-06
2.19277e-06
3.30444e-06
1.83912e-06
2.17208e-06
0.0299697
1.86257e-06
7.10051e-06
0.0217654
3.93886e-06
2.63949e-06
0.140561
1.71599e-06
0.00308678
6.27059e-05
3.08204e-06
4.20342e-06
1.82536e-06
3.62556e-06
3.18797e-06
1.87516e-06
2.20923e-06
2.22711e-06
0.0217563
2.25561e-06
2.48689e-06
2.00329e-06
2.08879e-06
0.0217134
0.022757
4.34337e-06
3.20418e-06
2.01851e-06
0.0626024
4.38661e-06
2.65697e-06
3.08764e-06
3.64004e-06
1.95156e-06
0.0204445
0.0161244
3.06764e-06
0.0192536
0.021766
0.000859481
0.0954795
0.0170964
2.34039e-06
0.00228689
0.00240913
2.62309e-06
2.92903e-06
0.0281356
1.78391e-06
0.0601189
2.91008e-06
2.40104e-06
2.19186e-06
0.0259043
0.0138738
2.02639e-06
0.0201758
5.72887e-06
2.90233e-06
3.0182e-06
8.27127e-06
3.97322e-06
2.04122e-06
4.81833e-06
2.19811e-06
0.0495147
0.0155972
2.72955e-06
2.01306e-06
1.43672e-05
1.70929e-06
1.99169e-06
0.0146615
4.08132e-06
0.0266113
0.014399
2.8786e-06
0.0162556
2.41854e-06
0.0817022
2.08321e-06
1.2502e-05
2.24882e-06
2.62858e-06
3.21951e-06
2.9578e-06
0.00700045
2.45156e-06
0.00269931
2.03509e-06
0.0367682
0.00669717
1.09376e-05
0.0790631
0.00488166
0.0422276
0.00227958
6.4658e-06
1.88325e-06
1.98073e-06
3.30967e-06
1.7077e-06
0.0172712
0.0213076
3.30813e-06
1.93158e-06
2.10867e-06
3.27153e-06
0.000116442
0.0166845
2.44968e-06
8.24837e-06
0.00050664
2.39815e-06
0.0128058
0.00252615
0.0304874
2.23499e-06
1.75082e-06
4.09037e-06
1.75e-06
1.81197e-06
6.34955e-06
2.20481e-06
2.15894e-06
1.88788e-06
4.13901e-05
3.31798e-06
3.64219e-06
2.14114e-06
2.03313e-06
2.7356e-06
2.55078e-06
1.87421e-06
3.86791e-06
0.011764
2.04449e-06
0.000219547
9.49294e-06
1.87771e-06
1.05477e-05
0.034972
3.72215e-06
0.026722
0.0161933
2.11489e-06
3.42278e-06
3.46326e-06
2.48884e-06
3.17567e-06
0.000161563
1.62593e-06
0.0244764
4.35024e-06
0.0352191
0.0285228
1.07199e-05
1.84784e-06
2.52414e-06
0.0304978
5.97934e-06
0.0144192
0.0463455
0.0617333
0.00202847
0.0410074
1.96865e-06
2.21845e-05
0.0414447
0.0440551
1.85974e-06
2.38596e-06
0.00540174
2.12991e-06
0.0193761
0.00209326
3.02652e-05
2.47047e-06
1.35989e-05
0.0520593
0.0247672
2.15857e-06
0.00499156
2.26473e-06
1.64704e-06
0.0190773
0.0595117
2.3199e-06
2.91074e-06
1.75285e-06
0.0100179
1.86669e-06
0.0321426
0.043494
0.13175
3.39841e-06
3.34482e-06
0.0023087
0.00197268
9.11066e-06
1.97885e-06
1.90883e-06
0.00230343
0.00263745
0.0235605
0.0164644
0.0441661
3.38504e-05
2.45664e-06
0.00358001
6.76908e-06
2.0479e-06
0.0479195
0.00212927
1.73484e-06
0.00972987
0.0181627
0.0180031
1.92923e-06
3.68178e-06
4.71898e-05
4.89352e-06