/*--------------------------------*- C++ -*----------------------------------*\
| =========                 |                                                 |
| \\      /  F ield         | OpenFOAM: The Open Source CFD Toolbox           |
|  \\    /   O peration     | Version:  v2012                                 |
|   \\  /    A nd           | Website:  www.openfoam.com                      |
|    \\/     M anipulation  |                                                 |
\*---------------------------------------------------------------------------*/
FoamFile
{
    version     2.0;
    format      ascii;
    class       volScalarField;
    location    "150";
    object      nut;
}
// * * * * * * * * * * * * * * * * * * * * * * * * * * * * * * * * * * * * * //

dimensions      [0 2 -1 0 0 0 0];


internalField   nonuniform List<scalar> 
18166
(
0.00048691
0.000460381
0.000468584
0.00060946
0.00550367
0.000516567
0.000457254
0.000393805
0.0174371
0.00802875
0.000462913
0.000460868
0.00896283
0.002116
0.0154725
0.00261883
0.000464961
0.00823804
0.000460158
0.00648451
0.00083473
0.000465007
0.000817751
0.000463781
0.000459579
0.000457418
0.000477936
0.000464058
0.000459072
0.000624725
0.000606792
0.000452585
0.000458601
0.000460176
0.00045111
0.000462997
0.0179533
0.000463184
0.00045362
0.00831173
0.000468552
0.00658975
0.000458522
0.000459271
0.000488999
0.000465321
0.000560772
0.000199271
0.00084019
0.000473567
0.00048485
0.000486261
0.000863743
0.000467438
0.000463177
0.00624091
0.00656184
0.000975461
0.000458832
0.000459528
0.000551018
0.000458959
0.00714308
0.000470839
0.0033982
0.000463969
0.0145115
0.0196108
0.00848351
0.000465205
0.00045123
0.000456982
0.000488132
0.000459281
0.00050523
0.00804838
0.000877902
0.0091577
0.000459989
0.000463832
0.000468418
0.0195504
0.00046349
0.000462958
0.000453701
0.000453769
0.000459772
0.000460758
0.000486147
0.000453792
0.00492867
0.000510583
0.00506327
0.000468985
0.000468488
0.000453821
0.000453294
0.000593021
0.000460687
0.000463451
0.000461023
0.000465566
0.0142995
0.00047066
0.000465241
0.000465763
0.000612006
0.00645937
0.000459952
0.000463706
0.00377755
0.0185351
0.016844
0.0147621
0.000465718
0.00045198
0.000602631
0.00284856
0.000458707
0.0192578
0.0099084
0.000459006
0.00316155
0.0149116
0.000711951
0.000461089
0.000465878
0.00843633
0.000468501
0.000503084
0.000765425
0.00490161
0.000457421
0.0134519
0.000465744
0.000557666
0.000463279
0.000459187
0.000458136
0.00543931
0.0164503
0.0039241
0.00331302
0.0128161
0.000459929
0.00914433
0.00043513
0.0119457
0.000453241
0.000459612
0.000453541
0.0112515
0.000760647
0.000712736
0.000468334
0.000463998
0.000457664
0.00527824
0.000463439
0.00839485
0.000454857
0.0182885
0.000459405
0.000457635
0.000486483
0.00497459
0.00046558
0.0122742
0.0197386
0.00307821
0.00105983
0.0135076
0.000499995
0.0193536
0.00550033
0.000460126
0.00251396
0.0198812
0.000459941
0.000460812
0.00046566
0.000494481
0.0012233
0.00236289
0.00691082
0.000458914
0.000542003
0.000592887
0.000463107
0.000451931
0.000561497
0.000460123
0.000482227
0.000463072
0.000481779
0.00217866
0.000507193
0.000480688
0.00313619
0.00742039
0.00102456
0.0143881
0.000452384
0.0114323
0.00045811
0.000486924
0.0196749
0.00471231
0.00648357
0.000394648
0.00560334
0.016929
0.000460201
0.000464687
0.000486289
0.000503585
0.00336391
0.000595534
0.0199382
0.0193424
0.000457936
0.000460673
0.000459245
0.000546426
0.00446494
0.000456389
0.000578584
0.000458742
0.000459287
0.000452445
0.00513681
0.0170829
0.000454856
0.0109499
0.000462349
0.000453683
0.000484619
0.00053274
0.0144983
0.00791574
0.000482173
0.0189628
0.00712486
0.000459372
0.0119243
0.00045893
0.000605373
0.01872
0.0145462
0.000457155
0.00049102
0.000465705
0.000458183
0.00046778
0.00973422
0.00365177
0.000464734
0.0193392
0.00414408
0.000457953
0.000464613
0.0103388
0.000558384
0.000825427
0.00190604
0.0187398
0.0166006
0.000459447
0.00046867
0.000463982
0.000477027
0.000464635
0.000460119
0.0192993
0.000486276
0.00566435
0.0197103
0.00045852
0.00700144
0.000453345
0.000549372
0.015522
0.000459072
0.00045224
0.000457782
0.000638876
0.000458844
0.000455135
0.0183571
0.000466041
0.000464442
0.000546459
0.000459765
0.000464743
0.000459292
0.00293989
0.000456964
0.000464959
0.000456626
0.0104189
0.0191008
0.000463862
0.0004574
0.000460054
0.0101791
0.00045834
0.00626476
0.000742361
0.000459134
0.000451628
0.000457211
0.00574586
0.0087006
0.000465943
0.000465733
0.00406019
0.000738158
0.000459891
0.000464466
0.00213508
0.000460269
0.000460238
0.0157445
0.000552759
0.000490331
0.000474023
0.000455191
0.00045839
0.000452932
0.0175167
0.000459294
0.0125729
0.000452045
0.000452235
0.00183564
0.0175607
0.00106237
0.0195809
0.0066069
0.0189849
0.000453195
0.0160191
0.00197552
0.00997501
0.000453605
0.000463491
0.000457191
0.000466391
0.000456312
0.000524429
0.00045898
0.000542038
0.000464784
0.000459546
0.000702146
0.000459587
0.000715783
0.000481931
0.000463344
0.000453077
0.000461126
0.018278
0.00342034
0.000464814
0.000457422
0.000461865
0.000468768
0.000828759
0.00046897
0.0132063
0.010086
0.000460267
0.000460332
0.00342904
0.0184947
0.0033191
0.00955603
0.000468208
0.000482305
0.00106555
0.000452326
0.00663273
0.0038717
0.000459706
0.00045879
0.000460674
0.000464373
0.00046893
0.0151194
0.000460624
0.000451494
0.000460049
0.000454192
0.014555
0.00126003
0.000467958
0.000465271
0.00373274
0.000457887
0.000458166
0.000456963
0.00185859
0.0176321
0.000468887
0.0082658
0.000453684
0.000452576
0.00540858
0.0079064
0.000458606
0.00877446
0.00439961
0.000506041
0.00773185
0.0004574
0.00046289
0.000639261
0.00166283
0.000450794
0.000464439
0.000455522
0.00046115
0.00612884
0.000459784
0.00783536
0.000468916
0.00286331
0.000460125
0.0037119
0.000422276
0.000463268
0.00345414
0.000495445
0.000455487
0.000481058
0.0135768
0.0106417
0.000467004
0.0134976
0.000472241
0.000454024
0.0143293
0.0168014
0.000460511
0.0180998
0.0161233
0.000464174
0.000525157
0.000888219
0.000452586
0.000533091
0.0187983
0.0048211
0.000486351
0.0133923
0.00592129
0.00186202
0.000571693
0.000454226
0.0074359
0.000460455
0.000458287
0.0045796
0.00715288
0.000458196
0.00045865
0.00047223
0.000457047
0.000459068
0.000457093
0.00045396
0.000563281
0.0153603
0.000461161
0.000545768
0.000469102
0.0101955
0.000464523
0.000462579
0.0023665
0.0146084
0.000563327
0.0189251
0.00046185
0.000462104
0.0192426
0.00783729
0.000539112
0.000453411
0.00178951
0.00158023
0.000466678
0.000465874
0.000467904
0.000457311
0.0179299
0.0192875
0.00045854
0.000457893
0.000924852
0.00949825
0.00127942
0.000451431
0.000458795
0.00891804
0.000458263
0.000465748
0.000464061
0.000455381
0.0005333
0.00255706
0.0108491
0.00189265
0.000463622
0.00094312
0.000459414
0.000469031
0.0154578
0.0102083
0.000537213
0.0197196
0.0173277
0.0135252
0.0191208
0.000914368
0.0189284
0.00589681
0.000570555
0.00673276
0.000460798
0.000714403
0.000456994
0.000454117
0.000850053
0.00443173
0.000458749
0.00335414
0.00981881
0.00048285
0.00046813
0.000460096
0.0107907
0.0178839
0.0193603
0.000452018
0.00268269
0.00822202
0.000458872
0.000453876
0.000462266
0.000461614
0.00526654
0.0051157
0.000467961
0.0197032
0.000465039
0.0146677
0.000460318
0.00045721
0.000463546
0.00814177
0.000451633
0.000463303
0.0159019
0.0194746
0.000676844
0.0133387
0.000453301
0.000464155
0.000466668
0.0101599
0.000882948
0.00399894
0.000467608
0.0119044
0.0198413
0.000484859
0.000387867
0.000458723
0.00601214
0.00045516
0.00135621
0.0184072
0.000830114
0.000457636
0.0185858
0.00559894
0.000463095
0.00754467
0.000459921
0.000468073
0.00037657
0.0186675
0.000467979
0.000464377
0.000454206
0.00493959
0.0174157
0.000463161
0.00129579
0.000459152
0.000452326
0.000461943
0.000593491
0.00097965
0.000459588
0.00838241
0.000464853
0.000459422
0.0195262
0.00156372
0.00163099
0.00435753
0.00807535
0.000458749
0.00884146
0.00877895
0.000460613
0.00708226
0.000616408
0.000459666
0.00050547
0.0135236
0.000464081
0.000562697
0.000457431
0.000470912
0.00829237
0.000463361
0.0200752
0.000538659
0.000578907
0.000499178
0.000454139
0.000453626
0.00541792
0.000463586
0.000465108
0.000623332
0.000454489
0.000551508
0.000452348
0.000758398
0.000458595
0.000468208
0.00045323
0.00200803
0.00528725
0.00517779
0.000457274
0.00502249
0.0191616
0.00121313
0.000451839
0.0179393
0.000458886
0.00232767
0.000463359
0.000807874
0.00660045
0.00448301
0.00159208
0.00455032
0.0164814
0.000450855
0.00368534
0.000460696
0.000467837
0.000460261
0.000460983
0.000463514
0.0107059
0.000533696
0.000455709
0.0195747
0.00884603
0.000578792
0.000450956
0.000463274
0.000468631
0.000457732
0.000455395
0.000459987
0.00307879
0.000462683
0.0146606
0.0118275
0.00664644
0.0097009
0.00173892
0.000463893
0.000466198
0.00750903
0.000459281
0.0104617
0.0113841
0.000454236
0.000476263
0.015801
0.0201282
0.0196982
0.000468976
0.000463682
0.000456221
0.0105762
0.00527105
0.0105495
0.000627853
0.0047156
0.00190977
0.000606011
0.00414762
0.00596473
0.00167837
0.000461859
0.00617498
0.00055664
0.000526559
0.0169778
0.000457348
0.000648017
0.000829287
0.000457225
0.00128181
0.011408
0.0049344
0.0163929
0.000477825
0.000465206
0.000463824
0.00159933
0.00911536
0.000464598
0.0162878
0.000459389
0.0200809
0.0188281
0.000458759
0.000460055
0.000468831
0.000495465
0.000468516
0.00868836
0.000630386
0.0054401
0.000457076
0.000457089
0.000456337
0.00647259
0.00548985
0.000483631
0.0080331
0.000536179
0.00618646
0.000463529
0.00046557
0.00400885
0.000458265
0.00219334
0.00126
0.000727964
0.00398143
0.000455553
0.0115782
0.0200461
0.00195994
0.000454698
0.000456719
0.000455873
0.000465826
0.00122411
0.000459929
0.000454717
0.0013216
0.000459204
0.00986853
0.00134255
0.000499881
0.00046053
0.0144576
0.000451988
0.000459241
0.00486559
0.000859842
0.000462132
0.00149494
0.0199817
0.000454638
0.000464336
0.000460663
0.000594356
0.00400988
0.000463263
0.00356265
0.000468757
0.00733385
0.0105214
0.00401494
0.00428136
0.000583307
0.000465586
0.00446901
0.000461002
0.010006
0.000454665
0.000458391
0.000452266
0.000454447
0.013636
0.000456036
0.000463692
0.000457266
0.000454615
0.00666817
0.000458946
0.00702353
0.000461952
0.00046619
0.000463086
0.0200983
0.0017541
0.00236056
0.00629724
0.000458415
0.0166651
0.018427
0.00045725
0.000461598
0.00566243
0.0122737
0.000459485
0.00070639
0.0177286
0.000562346
0.000452079
0.000513096
0.000470835
0.000513656
0.0201716
0.0109679
0.00045262
0.00598796
0.000457044
0.0037558
0.00052301
0.000518642
0.000460837
0.00464152
0.00529237
0.00825602
0.000466563
0.000534044
0.000454085
0.00434629
0.000463557
0.000477519
0.000454964
0.000459348
0.000728246
0.000459471
0.000464112
0.00764247
0.000464491
0.0184442
0.000463928
0.00426487
0.00045889
0.00119149
0.000709275
0.000458422
0.00702897
0.00247642
0.0184603
0.000466297
0.000460816
0.000867332
0.0178677
0.000461572
0.000457724
0.000455459
0.0201075
0.000453053
0.000584146
0.00120473
0.000459077
0.000451892
0.000465949
0.000460196
0.000516553
0.00045434
0.00496797
0.000471434
0.000452715
0.000458949
0.00664815
0.000460022
0.000458172
0.000458038
0.000463612
0.000534163
0.0011181
0.000956333
0.00198088
0.000454806
0.000455487
0.00726099
0.00758678
0.0137409
0.00392285
0.000934528
0.00194003
0.00046206
0.00047353
0.00490222
0.00628097
0.0173606
0.000464869
0.000710534
0.000555085
0.00456911
0.0119634
0.000462806
0.000816194
0.000462009
0.00647964
0.00890394
0.00688251
0.000457326
0.00486694
0.000468376
0.000451728
0.0163657
0.000469367
0.000453714
0.00243204
0.00788156
0.00046012
0.00883341
0.000952213
0.000451936
0.00484049
0.000451956
0.0027472
0.0137431
0.000631376
0.008748
0.00382695
0.00494285
0.000451921
0.000455271
0.000459701
0.000452774
0.000452382
0.000457398
0.0186979
0.0188481
0.000456139
0.00158847
0.000474455
0.000503727
0.000461735
0.000454881
0.0126718
0.00918227
0.00991339
0.0169688
0.000464201
0.000486174
0.0020824
0.000457709
0.00166364
0.00199508
0.011064
0.0170319
0.000456003
0.000460105
0.00045683
0.000463801
0.000568679
0.007949
0.000453486
0.00498407
0.000464876
0.000469088
0.000457764
0.00443794
0.00273502
0.000462019
0.000455478
0.00493043
0.000460374
0.00611822
0.00616068
0.000458725
0.00308356
0.000458439
0.00585464
0.00545413
0.0180207
0.0019756
0.000464782
0.000544279
0.00666068
0.00045946
0.0020884
0.0102571
0.0134983
0.000458356
0.000499729
0.000457242
0.000458374
0.0137338
0.00773379
0.000935017
0.000658659
0.000452583
0.00101755
0.00050732
0.000453971
0.000727392
0.00785029
0.00580262
0.00820657
0.000490389
0.00374
0.00575995
0.000452842
0.000454746
0.000468714
0.000907667
0.000479205
0.000458886
0.000470823
0.000575583
0.000460054
0.0008154
0.000463746
0.000779819
0.0189756
0.0182292
0.0178957
0.001055
0.000457616
0.000458488
0.00911378
0.000701152
0.000456838
0.000456056
0.00365639
0.000481442
0.000724519
0.000465685
0.000454046
0.00669076
0.00565583
0.00417944
0.000462795
0.0195542
0.000458921
0.00139714
0.0195353
0.000458768
0.000534528
0.000524234
0.0077273
0.00537814
0.000457115
0.00364674
0.0150479
0.0041893
0.000482831
0.0182562
0.00047808
0.00114804
0.000468906
0.000468595
0.000461944
0.000461673
0.000454976
0.00048625
0.000461496
0.00255667
0.000460518
0.000457032
0.0082047
0.000463365
0.000580298
0.00394526
0.00465424
0.00587623
0.000454375
0.000459271
0.000458352
0.000468924
0.0183152
0.00144095
0.000743236
0.00583055
0.0130428
0.000456847
0.000489723
0.000456986
0.000468961
0.000468394
0.00045389
0.000481575
0.000451833
0.000464614
0.000458993
0.000464777
0.000721859
0.000829681
0.000458764
0.00680643
0.000461883
0.00045726
0.00914234
0.000471795
0.0128213
0.00181503
0.000579303
0.00303658
0.00124988
0.00671346
0.000454256
0.0151827
0.000461442
0.00485948
0.000472083
0.0199171
0.0143112
0.013609
0.000501009
0.0190393
0.000459718
0.000467001
0.000458203
0.0144094
0.00048644
0.0188336
0.0178964
0.00791273
0.000456435
0.00468203
0.00927414
0.000459751
0.000453901
0.000507983
0.000458971
0.0185698
0.000471494
0.000460076
0.00708706
0.000464102
0.00505616
0.000459245
0.00045766
0.00584138
0.000458796
0.00518044
0.000455715
0.0200592
0.000464168
0.00847476
0.000468343
0.00045252
0.00406193
0.000996677
0.000455114
0.00045646
0.0108606
0.000451724
0.000459822
0.00952076
0.000458813
0.012272
0.00159735
0.00046722
0.00644371
0.0196027
0.000788734
0.000600983
0.00045778
0.00434206
0.00045928
0.000647429
0.000455007
0.000557191
0.000459008
0.000454297
0.00100771
0.000465591
0.0101635
0.00655028
0.0178147
0.000458731
0.000459357
0.00046742
0.000453338
0.0006735
0.000451953
0.00255752
0.00497226
0.00649103
0.0199195
0.0030203
0.00950987
0.00299262
0.000453399
0.000529967
0.000459847
0.000642685
0.000621669
0.000453879
0.0114511
0.000464121
0.00218931
0.000464099
0.00520183
0.0173695
0.000453642
0.0188067
0.00855846
0.000511614
0.000481101
0.000514205
0.00478166
0.00138372
0.00842668
0.000465275
0.00769504
0.000698609
0.0194347
0.00421757
0.00866952
0.000614864
0.00217786
0.000928263
0.00706473
0.000456617
0.0190113
0.000453286
0.000453265
0.000453293
0.000463116
0.000460774
0.000452014
0.000458828
0.000465044
0.00823907
0.0185398
0.00214982
0.00306411
0.00045345
0.000458483
0.000459819
0.00402722
0.00310471
0.0004594
0.000473926
0.000461772
0.000460476
0.000516511
0.0157121
0.000465508
0.0179923
0.000458403
0.00386797
0.000452734
0.00126066
0.000463475
0.00233988
0.000465272
0.000464963
0.000574044
0.00726452
0.000461805
0.000459433
0.000466278
0.0196318
0.000482393
0.000456346
0.000573673
0.014255
0.000518364
0.000790318
0.000468137
0.000550892
0.00903125
0.000456568
0.00444074
0.000452739
0.00365537
0.000453248
0.00310162
0.000456369
0.00889923
0.000462337
0.000457652
0.000466554
0.000464929
0.000507623
0.000460244
0.000469029
0.0109674
0.000461719
0.000466836
0.0135883
0.000460124
0.00330201
0.000557302
0.0186085
0.00163078
0.0195105
0.000459703
0.00429195
0.00131229
0.00045673
0.00603702
0.000463207
0.000459684
0.000837829
0.000458217
0.00717128
0.000455293
0.000601107
0.0123576
0.00126961
0.00045495
0.0188429
0.000452416
0.000979642
0.000510272
0.000467315
0.00546886
0.00843238
0.00731182
0.0134129
0.0142177
0.000480194
0.00107582
0.00514505
0.00265363
0.000453573
0.00602793
0.000466452
0.00881681
0.00438519
0.000731695
0.000778007
0.000530221
0.000452647
0.0184278
0.000457567
0.00730824
0.00232688
0.00682946
0.000457689
0.000472235
0.00829789
0.000460059
0.000761014
0.00588161
0.000458881
0.017721
0.000465159
0.00184543
0.000457757
0.00350681
0.00369721
0.0168908
0.0200138
0.000411901
0.0112331
0.00341208
0.000460133
0.004801
0.00645467
0.000460243
0.000458866
0.000453304
0.00147987
0.00624838
0.0159889
0.000564993
0.00145497
0.000483909
0.000453898
0.000464428
0.00046113
0.00461248
0.00526869
0.0177064
0.0103932
0.000473609
0.00045729
0.0152955
0.000453029
0.000459673
0.000454151
0.0147314
0.000458904
0.000464443
0.0128636
0.0118203
0.00609648
0.000457434
0.0154159
0.00045986
0.000462129
0.0171427
0.00605548
0.000453818
0.00431024
0.00254996
0.00138792
0.000458378
0.00966529
0.000469308
0.00921854
0.00047213
0.0126847
0.0163656
0.000620976
0.018831
0.0194576
0.000458612
0.00392057
0.000461609
0.00477042
0.000452115
0.0150702
0.011217
0.00618961
0.000576765
0.00462574
0.0051618
0.0117918
0.000466226
0.000468426
0.00190066
0.00426533
0.000469515
0.00047201
0.00077126
0.00046225
0.00386444
0.000460102
0.000482329
0.0165277
0.000686762
0.000466712
0.0163433
0.000455476
0.000457908
0.00795071
0.000453003
0.00113874
0.000499434
0.000456146
0.0113478
0.00236644
0.00045334
0.0199213
0.00045452
0.008074
0.0105493
0.000464014
0.000460726
0.000458416
0.00935437
0.00890149
0.000611292
0.00858858
0.00875221
0.0050051
0.00592535
0.00554923
0.000454911
0.000681293
0.00142519
0.00980836
0.000462346
0.00682837
0.000461778
0.000683515
0.0145432
0.000453446
0.000464495
0.000463137
0.000464495
0.000463833
0.00483879
0.0132806
0.000508649
0.00525438
0.000454023
0.0193516
0.00858312
0.0109583
0.000997284
0.0107775
0.000459411
0.000460162
0.0160328
0.00864653
0.00109848
0.00045851
0.000462625
0.000460254
0.0184527
0.0197179
0.000457258
0.000595955
0.000850798
0.0004625
0.0113557
0.0130164
0.000469385
0.000485966
0.000460593
0.000461604
0.00987132
0.000462184
0.000458886
0.000459057
0.000461456
0.000454902
0.000455167
0.000477356
0.0173216
0.000198421
0.00715561
0.000464529
0.000465429
0.000459583
0.00845836
0.000464682
0.0140253
0.000460045
0.000533603
0.0103811
0.000456955
0.000457568
0.000464208
0.000456327
0.000453175
0.00487218
0.00683951
0.00056458
0.00561544
0.000570698
0.000523748
0.000461983
0.00046076
0.000457215
0.00417765
0.000457686
0.0194037
0.000483653
0.00914581
0.000483907
0.00047432
0.011371
0.0103553
0.000456654
0.000489928
0.000731206
0.000452606
0.000461928
0.000457459
0.000452978
0.0113914
0.000457387
0.00844566
0.000451695
0.0201307
0.00178201
0.000465611
0.00768827
0.00116519
0.000466079
0.000452112
0.0186979
0.00199295
0.000453225
0.000464063
0.00564139
0.0004552
0.000462116
0.000452362
0.000459969
0.00135081
0.00049357
0.0126122
0.000460065
0.000533431
0.000460261
0.00233074
0.0122735
0.000466929
0.00910095
0.000487295
0.000453388
0.000472068
0.00111418
0.000465059
0.000458733
0.00735471
0.000476527
0.000453884
0.00314108
0.0167182
0.000456301
0.00465676
0.000458306
0.0136726
0.000639544
0.000459671
0.0084806
0.000745024
0.000615278
0.000596216
0.0196223
0.000456107
0.000452465
0.00752672
0.00652907
0.000464393
0.00826986
0.000458526
0.000941376
0.000460232
0.000454078
0.000460293
0.0194684
0.000466406
0.000568377
0.0118405
0.00054464
0.000542022
0.00119393
0.000458612
0.000472736
0.00883667
0.00409479
0.000453566
0.000461746
0.000460227
0.00758577
0.000453774
0.0105121
0.00114565
0.00836193
0.00046875
0.00149217
0.00609219
0.00067301
0.000717444
0.000456121
0.000459974
0.000486185
0.0178525
0.000453121
0.000464481
0.000468544
0.0113723
0.00578578
0.00760581
0.0161288
0.0140095
0.000460922
0.0082128
0.000457042
0.000458423
0.000461928
0.000493182
0.000458583
0.0124174
0.0133194
0.000458811
0.0134398
0.01287
0.00187929
0.0155396
0.000457546
0.00743698
0.00799489
0.000459772
0.000453218
0.000460304
0.0143124
0.000553859
0.000469333
0.000533409
0.0187273
0.0080653
0.019503
0.0119029
0.000453689
0.000453891
0.00932423
0.000456544
0.000452224
0.0075757
0.000460046
0.000458129
0.00128301
0.000518384
0.000452494
0.00111902
0.00432157
0.0097525
0.000476567
0.0182369
0.00442611
0.0166334
0.0148283
0.00045896
0.000459895
0.00300659
0.00788687
0.000571204
0.020081
0.00493472
0.000455437
0.000461803
0.0048232
0.00123088
0.000668502
0.000457322
0.0106325
0.00213793
0.000459431
0.00100411
0.00324427
0.000452952
0.000463801
0.000454478
0.011568
0.000940661
0.000514099
0.000459995
0.000464009
0.000458962
0.000466355
0.0119409
0.0188024
0.000468647
0.0102796
0.000462145
0.0130876
0.000760919
0.00805125
0.000580853
0.000455335
0.00380684
0.000460377
0.0108541
0.0199968
0.0101932
0.00544599
0.0004637
0.000456041
0.000459513
0.000460321
0.00123117
0.000455261
0.000456862
0.000453402
0.0025401
0.000459539
0.000462121
0.0199819
0.000465294
0.00067911
0.000456835
0.000464683
0.00719629
0.000461712
0.000465954
0.000465271
0.00625276
0.00158496
0.000460006
0.000459719
0.000462318
0.0083761
0.000460047
0.015659
0.0133539
0.0148955
0.000458292
0.00480785
0.000456175
0.00109934
0.000456171
0.00791987
0.000604973
0.0011667
0.000487891
0.00045288
0.000459265
0.000458006
0.0103807
0.00253774
0.0196291
0.00846081
0.000461538
0.00586155
0.000453559
0.000462078
0.000467712
0.00372517
0.000451524
0.000458529
0.00436332
0.000468404
0.00703125
0.000468838
0.00046357
0.000459683
0.000452809
0.000461186
0.000467784
0.00623153
0.000473962
0.0200006
0.00046231
0.0004539
0.0187516
0.00127917
0.000458193
0.0201174
0.000517544
0.000452234
0.000459932
0.000509741
0.000468908
0.0200669
0.00368642
0.0109196
0.000461904
0.00167177
0.00046537
0.000462031
0.0200382
0.000451021
0.000463802
0.00562859
0.000456211
0.000460404
0.000457382
0.000938995
0.00487736
0.010739
0.00843954
0.000551681
0.00046396
0.000458243
0.00323869
0.00045378
0.000460112
0.000458985
0.000465885
0.00107981
0.000466286
0.000464586
0.00049205
0.000462891
0.00149805
0.00491587
0.000459425
0.0131692
0.00799628
0.000766072
0.000460864
0.000787947
0.000510029
0.00389355
0.0030079
0.000453603
0.000464341
0.000465556
0.000453973
0.000464608
0.000457378
0.000452571
0.00782444
0.000500304
0.000456524
0.000465836
0.0186726
0.00195538
0.000468159
0.000756005
0.00046023
0.000453976
0.00219617
0.00106245
0.000488577
0.00415304
0.0195972
0.000456941
0.000454646
0.0049592
0.000461491
0.000461985
0.000458484
0.00046039
0.00177282
0.013167
0.000536756
0.00460041
0.00613096
0.000461875
0.000461918
0.000496263
0.00807861
0.0139167
0.000464155
0.00595886
0.00379086
0.0136237
0.000717948
0.000458314
0.000458756
0.00332445
0.000459736
0.000723758
0.0194541
0.00660034
0.00102883
0.000463511
0.018544
0.000461434
0.000468597
0.020162
0.0188899
0.00111245
0.00750984
0.00822868
0.000530864
0.000451554
0.000454453
0.000460564
0.000457876
0.0112938
0.012941
0.000461391
0.000452173
0.000454251
0.000454076
0.012182
0.000550863
0.000455657
0.0022459
0.0101432
0.000770082
0.00499549
0.000452494
0.000461381
0.000460117
0.000455181
0.000453212
0.000479114
0.000486701
0.000899889
0.018501
0.000593057
0.00625234
0.00146077
0.0104538
0.000595942
0.000530105
0.00871234
0.000459994
0.000459941
0.00944521
0.01498
0.00157108
0.0188525
0.0147879
0.00657889
0.0098887
0.0101348
0.000453535
0.00046253
0.00152729
0.000456568
0.000459269
0.00359506
0.000476796
0.0124842
0.00135222
0.0182508
0.00999747
0.000455659
0.000961738
0.00049604
0.000459977
0.000454695
0.00058153
0.00734192
0.00642972
0.00901395
0.000456004
0.000458155
0.000581105
0.000459819
0.0160924
0.00126273
0.00502136
0.00093953
0.000460352
0.000456941
0.00049482
0.00961286
0.000457357
0.00408185
0.00045785
0.000472907
0.000986361
0.00774453
0.000791766
0.000538701
0.0148504
0.000630613
0.000453527
0.00759705
0.000459602
0.0138692
0.000454782
0.000529824
0.000656391
0.000596638
0.000473416
0.000454255
0.00898695
0.000486349
0.0141357
0.006673
0.00613237
0.000465015
0.000538676
0.00454139
0.000457819
0.000458422
0.0190574
0.00755501
0.000459151
0.000452419
0.0004674
0.00264382
0.000465057
0.0132524
0.00243734
0.0110542
0.000486576
0.000949546
0.000469104
0.000473734
0.000454709
0.00928752
0.000608148
0.000457694
0.000464249
0.00829187
0.00928312
0.000457215
0.00643775
0.000465228
0.000465121
0.000482472
0.0146477
0.000459147
0.000517453
0.000459157
0.0004599
0.00159273
0.00494643
0.0135144
0.000504291
0.000458742
0.00310247
0.00411951
0.0112959
0.0192989
0.0020428
0.000502457
0.000458802
0.000669525
0.00506641
0.000464409
0.0022952
0.000613156
0.000465684
0.000451829
0.000902382
0.000522869
0.00046389
0.000460308
0.000461209
0.00189173
0.000457771
0.000452161
0.000462963
0.00920601
0.00526175
0.000456871
0.00601657
0.000461459
0.000458454
0.00777719
0.00603395
0.00564706
0.000588669
0.00657227
0.00552771
0.000483387
0.000455569
0.000464309
0.000567317
0.000477497
0.000456047
0.000458989
0.000451603
0.000462528
0.00949299
0.0200385
0.00216434
0.0183022
0.000453055
0.000518501
0.00755624
0.000456563
0.00770724
0.000453537
0.000451529
0.000632203
0.000454623
0.000467899
0.000455622
0.000458839
0.0004767
0.0086524
0.000452899
0.00165257
0.00442302
0.0164333
0.00385904
0.000460262
0.000454366
0.0177539
0.0136217
0.000585071
0.00105069
0.0154767
0.00070695
0.0202231
0.000458283
0.000475904
0.00621502
0.000457831
0.00160271
0.000745261
0.000549637
0.000652083
0.000459854
0.00045508
0.000464326
0.000459682
0.0118625
0.0122675
0.000458873
0.0173197
0.00689336
0.00045649
0.000462313
0.00628516
0.0110131
0.000464624
0.0194318
0.000513339
0.0124436
0.00045676
0.0076834
0.0120882
0.000469965
0.00650877
0.00536809
0.000792123
0.000936449
0.0196037
0.000856083
0.000457995
0.0201811
0.0184292
0.000455664
0.000507906
0.000454695
0.00237255
0.000468577
0.000460493
0.000465109
0.000464717
0.000472178
0.00783494
0.00050757
0.00814715
0.00499936
0.019552
0.0124448
0.000461877
0.000461663
0.000461547
0.000482079
0.000451324
0.000466008
0.0158306
0.00624651
0.00046036
0.000463714
0.001006
0.0125658
0.000453108
0.00258752
0.000459279
0.000457981
0.000461339
0.0128995
0.000452992
0.000459874
0.000453049
0.00930683
0.00289908
0.00051484
0.000485637
0.000456887
0.0112359
0.000455513
0.0198711
0.0134924
0.00574585
0.000578786
0.000459862
0.0119045
0.000461881
0.000454925
0.000453166
0.000466116
0.00575082
0.000453861
0.000461967
0.000468726
0.000554556
0.000460515
0.0110319
0.000495078
0.0108432
0.000542531
0.01336
0.0121089
0.0165618
0.000456278
0.00045313
0.00963895
0.0137247
0.00381751
0.00216918
0.000552117
0.000464627
0.000458286
0.00552411
0.000455001
0.00202895
0.0041136
0.000461227
0.0193716
0.005829
0.00486083
0.000469014
0.000476035
0.000482377
0.000457882
0.000543411
0.000455452
0.000462242
0.0132877
0.00479747
0.0114646
0.000458551
0.000456186
0.000461789
0.0174699
0.000452766
0.00813891
0.0118906
0.00925379
0.000458152
0.000466457
0.000465669
0.000458244
0.000455792
0.0163001
0.000459748
0.0162729
0.00240145
0.0135284
0.000452468
0.000577821
0.0061911
0.000455528
0.0181377
0.0053102
0.0161818
0.000461244
0.0150939
0.0093148
0.000460995
0.0142668
0.004797
0.000462352
0.00969971
0.00977175
0.0194281
0.000572914
0.000459254
0.000505792
0.00219193
0.00286027
0.000461596
0.00437226
0.000703413
0.000674966
0.0151251
0.00402688
0.0147948
0.00046903
0.000461413
0.000730212
0.00603781
0.0152847
0.0139349
0.000573533
0.0128918
0.00122191
0.00189235
0.0004608
0.000458489
0.00045825
0.0124222
0.00475055
0.00614559
0.00767886
0.000470846
0.000492802
0.0156441
0.00109185
0.000458007
0.00372333
0.000456228
0.000567336
0.000462262
0.000533087
0.00590096
0.000457363
0.00468475
0.000545806
0.000453816
0.000459401
0.000586718
0.000454317
0.000456502
0.020129
0.000454083
0.000814525
0.0105256
0.00060499
0.000460072
0.00936139
0.000452089
0.00485638
0.00172163
0.000463066
0.000469096
0.000453968
0.000466097
0.000463675
0.000454763
0.000458263
0.000457643
0.0119211
0.000460211
0.000458977
0.000455559
0.00045572
0.0179772
0.0199045
0.000655511
0.000463763
0.000457057
0.00401993
0.000651913
0.000505485
0.000463044
0.000466308
0.000454442
0.020112
0.00983425
0.000539832
0.0125274
0.0129861
0.00343095
0.0136385
0.0180591
0.000457927
0.0031287
0.0117412
0.00051487
0.000462157
0.011486
0.000453332
0.00759277
0.00053046
0.000513865
0.000470338
0.0072297
0.0127759
0.00048252
0.0133639
0.000714245
0.000461964
0.000577051
0.000825341
0.000641047
0.000456132
0.000647837
0.000461042
0.0104177
0.0103908
0.000460731
0.000455032
0.00106045
0.00045179
0.000467258
0.00737834
0.000644433
0.0200164
0.0118104
0.000461676
0.0196307
0.00046159
0.0151413
0.00045886
0.00095008
0.000460158
0.000459977
0.000463873
0.000550057
0.0100374
0.00045864
0.00442334
0.000456897
0.0138349
0.00698273
0.000929301
0.0153651
0.00452061
0.0194823
0.00463388
0.00072399
0.000466283
0.000466256
0.00046438
0.000451978
0.0199149
0.0199097
0.000464466
0.000454276
0.000455964
0.000464313
0.00214275
0.00320873
0.000458998
0.000801971
0.00312474
0.000483338
0.0125677
0.00578857
0.0099644
0.000463177
0.000462018
0.000468409
0.000452395
0.000453237
0.000717172
0.000456891
0.000463124
0.000456967
0.00254146
0.000464433
0.000466263
0.0004588
0.000455281
0.000460829
0.000536876
0.000476586
0.000599776
0.0137053
0.000455354
0.00290153
0.000907351
0.000453783
0.000932877
0.0199543
0.000466575
0.00571165
0.0133373
0.000455959
0.000600709
0.000598848
0.000502351
0.000463657
0.00193891
0.000451298
0.0194769
0.000666094
0.0164177
0.00850252
0.000944394
0.000473564
0.000459305
0.0148675
0.00076851
0.0186218
0.0162554
0.0174887
0.00705214
0.0178052
0.000455719
0.00117854
0.00973846
0.0194039
0.000473787
0.000481938
0.00669862
0.000455877
0.0199089
0.00561658
0.00136765
0.000459073
0.000997395
0.00348354
0.0148797
0.000456326
0.00529641
0.000459613
0.000451353
0.0128274
0.0175485
0.000486177
0.000462065
0.000456386
0.00808319
0.000459129
0.00365989
0.0194687
0.00711772
0.000464919
0.000464614
0.00202265
0.00630735
0.000831278
0.000465213
0.000468172