/*--------------------------------*- C++ -*----------------------------------*\
| =========                 |                                                 |
| \\      /  F ield         | OpenFOAM: The Open Source CFD Toolbox           |
|  \\    /   O peration     | Version:  v2012                                 |
|   \\  /    A nd           | Website:  www.openfoam.com                      |
|    \\/     M anipulation  |                                                 |
\*---------------------------------------------------------------------------*/
FoamFile
{
    version     2.0;
    format      ascii;
    class       volVectorField;
    location    "150";
    object      U;
}
// * * * * * * * * * * * * * * * * * * * * * * * * * * * * * * * * * * * * * //

dimensions      [0 1 -1 0 0 0 0];


internalField   nonuniform List<vector> 
18166
(
(0.847747 -0.0055921 -2.49626e-20)
(1.00564 -0.00153839 3.33285e-22)
(0.999974 -0.000720238 9.98923e-21)
(1.15311 0.0129125 -2.37518e-20)
(0.0908784 -0.40375 -1.05695e-19)
(0.847336 -0.127822 -3.82055e-20)
(1.01368 -0.0110354 2.32257e-21)
(-0.097993 -0.00630282 -3.24248e-21)
(0.0772038 0.0334074 5.29424e-20)
(0.162266 -0.171282 -4.41113e-20)
(0.999506 -0.0102649 0)
(0.996463 -0.0168791 0)
(-0.0862521 -0.0179251 -1.58118e-19)
(1.23514 -0.0150654 0)
(0.792152 0.078451 -2.15304e-20)
(1.2366 -0.0123963 3.41288e-22)
(1.00075 -0.00563063 1.19598e-21)
(0.33046 -0.876006 2.51945e-21)
(0.992611 -0.0184832 2.33313e-21)
(0.0134395 0.00900695 5.96537e-20)
(1.21769 -0.0718358 9.36559e-20)
(1.00065 -0.00567966 -4.23292e-21)
(1.21339 -0.0682812 -7.89602e-20)
(0.996377 -0.00299888 1.9411e-21)
(1.00789 -0.0116592 -1.0647e-22)
(1.01324 -0.0106714 -3.70417e-21)
(0.868347 -0.034822 -2.93954e-20)
(1.08793 -0.0415388 2.21406e-20)
(0.989189 -0.0286152 7.24168e-21)
(1.15584 0.0139973 -2.51133e-20)
(0.00495554 -0.0895768 0)
(1.01777 -0.000897504 2.62413e-21)
(1.00155 -0.0306494 2.63666e-21)
(0.997681 -0.020057 0)
(1.02124 -0.000932285 0)
(1.00197 -0.00870201 1.31925e-22)
(0.100374 0.0348827 0)
(1.00181 -0.00845842 -1.11719e-22)
(1.02773 -0.0100668 0)
(0.178335 -0.202453 8.61995e-20)
(1.00006 -0.000689348 -1.8928e-21)
(1.16969 -0.150761 2.47204e-20)
(1.00112 -0.031586 6.6468e-22)
(0.982965 -0.0194839 0)
(0.846541 -0.0428901 -1.03146e-20)
(0.998404 -0.00262463 -9.33525e-21)
(1.10101 0.0482433 -2.40169e-20)
(0.00183028 -0.0704704 0)
(1.11846 0.0648424 1.29007e-20)
(0.878218 -0.0286554 2.69344e-20)
(1.09306 0.0234556 1.5842e-20)
(1.10882 0.00551565 -2.30252e-20)
(1.21441 -0.0430184 -2.62626e-20)
(1.00016 -0.000656131 7.70309e-22)
(0.999647 -0.0100452 0)
(0.137022 0.011934 4.24449e-21)
(1.17303 -0.156292 -7.48705e-20)
(-0.306912 -0.0109906 -9.03553e-20)
(0.991908 -0.0648855 -1.11649e-20)
(1.07418 -0.0364193 8.051e-21)
(1.15461 -0.1032 0)
(1.07307 -0.00278506 -7.2324e-21)
(0.097624 0.0116684 -5.61598e-20)
(1.08223 -0.0861942 0)
(1.23303 -0.000875639 -9.02918e-23)
(0.997084 -0.00470323 0)
(0.0890122 0.0237941 -9.79478e-21)
(0.486855 0.061076 0)
(0.652184 -0.126836 -1.10568e-21)
(1.0908 -0.0138527 0)
(1.02103 -0.000938148 0)
(1.02538 -0.0459676 0)
(0.852746 -0.0476688 0)
(1.03306 -0.0733782 1.52378e-22)
(0.0340891 -0.321242 -6.58562e-20)
(0.369866 0.348758 6.76995e-20)
(1.21942 -0.0583954 1.1866e-20)
(0.495671 -0.0933999 0)
(1.06557 -0.0552608 0)
(1.00134 -0.00746364 -9.71289e-22)
(0.999996 -0.00137607 1.77843e-21)
(0.247205 0.0510721 1.95948e-20)
(0.996649 -0.00288024 -1.45148e-20)
(0.995251 -0.00520104 7.8436e-21)
(1.0174 -0.00184807 0)
(1.05234 0.00236151 0)
(1.07651 -0.0322004 3.65415e-21)
(1.00575 -0.00635175 2.22287e-23)
(1.10685 0.00834179 -1.09812e-20)
(1.02723 -0.00970549 2.97086e-21)
(-0.099025 0.00348722 1.03047e-19)
(0.879793 -0.150714 -1.73424e-20)
(-0.25829 -0.0115703 0)
(1.00003 -0.000663883 0)
(1.0001 -0.000773925 1.98902e-21)
(1.0529 0.0031025 0)
(1.01772 -0.00149891 2.74209e-21)
(1.0147 -0.247686 -1.48534e-21)
(0.930933 -0.0161258 -1.22816e-20)
(1.08682 -0.0327184 1.66383e-20)
(1.00536 -0.000584332 4.60211e-22)
(0.99911 -0.00479947 -2.42471e-21)
(0.843495 0.0774608 -3.52545e-20)
(1.07963 -0.0877271 0)
(1.09028 -0.012598 0)
(0.999182 -0.00445802 -4.66788e-21)
(0.0960768 -0.23034 3.00729e-20)
(0.0944388 -0.00561827 -1.12733e-19)
(0.986739 -0.0761296 9.44075e-21)
(0.999913 -0.00846348 1.88836e-21)
(-0.268207 -0.0100963 -1.7349e-19)
(0.146945 0.0414228 0)
(0.266448 0.034548 0)
(0.84457 0.0826926 3.78134e-20)
(1.00048 -0.00474407 2.25979e-21)
(1.03234 -0.00350416 -6.39053e-21)
(1.03262 -0.250105 0)
(0.0191416 0.0357779 -3.43682e-20)
(0.977947 -0.031575 2.98527e-21)
(0.629749 0.0799947 0)
(0.684989 0.818585 -3.86921e-21)
(0.988339 -0.0282197 -4.6056e-21)
(1.30458 -0.167717 7.50878e-20)
(0.694336 0.0392861 0)
(1.16203 0.0226519 -1.67381e-20)
(0.994983 -0.0154162 -4.20864e-21)
(0.998783 -0.0025887 -3.08347e-21)
(-0.156832 -0.0115142 9.62043e-20)
(0.953478 -0.106011 6.12788e-21)
(0.95354 -0.178903 1.53097e-20)
(1.1603 0.0313082 2.01189e-20)
(0.901249 -0.387145 2.59365e-20)
(1.06995 -0.0112211 3.71984e-22)
(0.273548 0.0497516 -1.3972e-20)
(0.94451 -0.0908925 1.77997e-20)
(1.099 0.048073 1.96756e-20)
(1.00165 -0.00848646 0)
(1.00832 -0.00939529 0)
(1.07092 -0.0106128 0)
(-0.026857 -0.00857919 -2.67167e-20)
(0.0204884 0.0267842 0)
(1.23872 -0.00207075 -2.53105e-20)
(1.12773 0.0790251 0)
(0.22509 0.0497647 0)
(0.989266 -0.0758441 -1.17216e-20)
(1.06124 0.00138312 9.96845e-20)
(0.00495107 0.00404985 0)
(0.94044 0.0756084 0)
(1.03918 -0.00925098 3.41977e-21)
(1.07748 -0.0143966 -1.56356e-20)
(1.01761 -0.00130928 4.59476e-21)
(0.294094 0.0323672 -1.81091e-20)
(0.495397 -0.604911 9.59986e-21)
(1.16384 0.0211237 0)
(0.999877 -0.000998318 -2.09556e-21)
(1.00003 -0.00824348 1.92245e-22)
(1.00919 -0.0529251 0)
(0.0855496 0.00883276 4.17741e-20)
(1.00149 -0.00817282 -1.10329e-21)
(-0.146486 -0.0128131 8.77365e-20)
(1.01504 -0.00144152 0)
(0.416202 0.0555556 0)
(1.07167 -0.0400072 1.03947e-20)
(1.0099 -0.00128582 -1.7744e-21)
(1.10872 0.00756861 2.49418e-20)
(0.346269 -0.00500686 -3.13399e-20)
(0.998861 -0.00305646 -7.70845e-21)
(0.195354 0.0470402 1.56762e-20)
(0.266596 0.052112 1.70943e-20)
(-0.253121 -0.0176283 1.8887e-19)
(1.19414 0.0189458 0)
(0.887318 0.0825237 -1.14442e-20)
(0.956193 -0.173708 -1.11417e-20)
(0.470016 0.0610434 0)
(1.22343 0.0222197 0)
(0.995483 -0.0206202 0)
(0.626633 0.386437 9.98876e-20)
(0.561981 0.0691534 4.0288e-20)
(1.00611 -0.00122081 0)
(1.00551 -0.00599444 0)
(1.00042 -0.00478007 -2.7373e-21)
(0.969698 -0.168686 9.35557e-21)
(0.546864 -0.0781949 -1.13798e-19)
(0.612058 0.362448 -3.00824e-20)
(1.12828 0.0574135 4.19796e-20)
(1.00805 -0.00506163 -8.46133e-22)
(1.05232 -0.205898 9.67314e-21)
(1.1484 0.0144066 2.4342e-20)
(1.00263 -0.00600704 0)
(1.03175 -0.00325584 3.53543e-21)
(1.15983 -0.100975 1.31211e-20)
(0.992206 -0.0190992 -2.74057e-21)
(1.0996 0.0132722 0)
(0.995526 -0.00498734 0)
(1.03706 -0.142334 0)
(-0.00375244 -0.0733402 0)
(0.855172 -0.122122 6.44436e-20)
(1.03201 -0.142577 -2.57492e-21)
(0.0178148 0.0337271 -1.29049e-20)
(0.121075 -0.00412098 -2.0249e-19)
(1.1939 0.0165813 1.42049e-20)
(0.271366 0.0286951 0)
(1.03687 -0.00488176 -5.59468e-21)
(0.959756 0.0752238 -1.05123e-20)
(0.999059 -0.0380261 2.72194e-21)
(1.11073 0.00478468 2.43371e-20)
(0.290372 0.0538762 3.38046e-20)
(0.125096 0.0102569 -5.27773e-21)
(0.144165 -0.50916 1.29755e-19)
(-0.159356 -0.0053133 3.70579e-21)
(0.0970804 -0.372303 -6.53636e-20)
(0.0413012 0.0288688 3.23568e-20)
(1.00594 -0.00156127 0)
(0.997689 -0.00367103 -2.82344e-21)
(1.09847 0.019982 8.30752e-23)
(0.883706 -0.143099 0)
(1.23197 0.0129316 5.93958e-20)
(1.02622 -0.244374 -2.89251e-21)
(0.304887 0.0555267 -1.50395e-20)
(0.212859 0.0469442 -3.37034e-20)
(1.0691 -0.0315727 1.75037e-20)
(1.00268 -0.0167124 -2.32746e-21)
(1.00784 -0.00484322 7.3763e-22)
(0.777657 -0.0295862 -3.06299e-21)
(-0.239473 -0.00380959 0)
(1.01693 -0.0136091 1.66117e-21)
(1.00942 -0.240754 4.46876e-21)
(1.00811 -0.00144893 -3.78094e-22)
(0.982413 -0.0638309 0)
(1.03631 -0.00498208 1.13542e-20)
(-0.0196508 0.00649625 -4.32991e-21)
(0.261977 0.0358903 1.8843e-20)
(1.05763 -0.00266334 4.17521e-21)
(-0.03563 -0.0144862 1.99147e-20)
(1.00343 -0.000575654 1.19036e-22)
(1.05205 0.000833539 -1.20185e-20)
(1.09799 0.0185535 0)
(1.14342 -0.105261 -1.90256e-20)
(0.203336 0.0271577 -1.7122e-20)
(1.13326 -0.00659816 -1.78215e-20)
(1.09952 0.0147358 0)
(0.190172 0.0440936 0)
(0.0387503 0.0104093 0)
(1.07247 -0.035691 -1.7979e-20)
(0.936468 0.0794553 3.29256e-20)
(0.972776 -0.0055288 -1.58968e-20)
(1.15096 0.0150754 4.67316e-22)
(0.178118 0.0418738 0)
(0.315846 0.0496342 2.85433e-20)
(1.03815 -0.0505989 0)
(0.840634 -0.00387875 -1.82108e-20)
(0.998687 -0.00253653 8.58299e-21)
(1 -0.0375569 -1.91819e-21)
(0.952767 -0.102392 1.10518e-20)
(0.28044 0.0296118 9.75843e-21)
(-0.217704 -0.00377051 1.31316e-19)
(1.00006 -0.00679646 0)
(0.236315 0.0462227 3.20093e-20)
(-0.224599 -0.0204969 -2.42512e-19)
(1.00957 -0.00142736 2.12294e-21)
(0.997379 -0.0041705 0)
(-0.0321937 -0.0198788 -2.30127e-20)
(1.15334 -0.118246 6.78341e-20)
(1.1169 0.0649044 1.70673e-20)
(-0.108559 -0.05862 0)
(0.336229 0.0436213 0)
(0.222059 0.0243661 -1.68769e-19)
(1.0313 -0.0743791 -1.07718e-21)
(1.00001 -0.00111739 0)
(1.089 -0.0324257 -1.97672e-20)
(0.870997 -0.0285925 3.22863e-20)
(0.99774 -0.00342499 -1.88664e-23)
(1.0068 -0.00770097 9.16118e-23)
(0.596399 0.0705605 -1.56146e-20)
(1.10676 0.0103807 -8.06666e-21)
(0.211118 0.0146667 0)
(0.595667 0.0728871 0)
(1.00844 -0.0013952 4.12133e-22)
(0.400025 0.32484 0)
(1.01785 -0.00110904 8.91184e-23)
(1.11009 0.0400214 -9.09469e-21)
(0.107294 0.0272021 0)
(1.02905 -0.0726324 0)
(1.04331 0.00109521 1.97887e-21)
(1.06728 -0.0322389 -1.17474e-20)
(1.16237 -0.168734 0)
(1.07338 -0.00159196 0)
(1.04693 -0.0268296 0)
(0.125902 0.0380366 0)
(1.00035 -0.00440729 2.38779e-21)
(1.08741 -0.0438255 2.1394e-20)
(1.09829 0.0461333 2.42661e-20)
(1.04069 -0.0737234 5.11972e-21)
(1.00017 -0.00688365 0)
(1.02694 -0.073668 0)
(-0.00680157 -0.0678418 0)
(1.01458 -0.0111988 -6.17181e-22)
(0.99804 -0.00319282 8.45895e-21)
(1.01657 -0.0133941 -1.64078e-21)
(0.987807 0.0790737 2.54543e-20)
(0.652887 0.0770584 -4.30328e-20)
(1.00122 -0.00751523 2.19245e-21)
(1.01533 -0.0447848 0)
(1.00698 -0.00759113 0)
(1.02033 0.0465984 0)
(1.00342 -0.0330988 0)
(0.131347 0.0119689 -4.88604e-21)
(1.1532 0.0357397 -1.66335e-20)
(0.982459 -0.020494 0)
(1.03203 -0.00209969 5.25378e-21)
(1.06871 -0.013474 -1.41773e-20)
(0.341822 -0.138009 -8.47325e-20)
(0.0279376 0.0120515 -1.83939e-20)
(0.913336 -0.0526307 -2.79928e-20)
(1.00033 -0.00443024 0)
(0.0662061 0.365278 5.41127e-22)
(0.669824 0.0245456 2.1467e-22)
(1.04298 -0.0737549 2.33657e-21)
(0.997404 -0.00390344 -3.48804e-21)
(1.15572 0.0594648 -3.26022e-21)
(1.00407 -0.0173465 2.37266e-21)
(0.934259 -0.0166273 5.16653e-20)
(0.29004 0.032391 0)
(1.14897 -0.118521 -5.52144e-20)
(0.94483 -0.155626 0)
(0.879992 -0.0232897 -6.87829e-20)
(1.04776 -0.0263164 7.13781e-21)
(1.00293 -0.0323203 0)
(1.02529 -0.00607221 2.53894e-21)
(0.369421 0.0445653 -1.13707e-21)
(1.0085 -0.00964395 -2.87559e-22)
(0.242807 0.0482257 9.07196e-22)
(1.04377 0.00149136 0)
(1.03679 -0.00390377 0)
(0.504413 1.04701 8.96487e-20)
(0.125075 0.0331727 0)
(1.18459 0.0299242 -5.38255e-20)
(0.25688 0.0484192 2.58345e-20)
(-0.0914451 0.00567859 -7.70747e-20)
(0.405189 0.0495651 0)
(1.03998 -0.00905676 -3.74493e-21)
(0.146194 0.0189189 0)
(1.1558 0.0586021 0)
(-0.0637339 0.0132384 -2.19708e-20)
(1.05096 0.000845382 1.1392e-20)
(0.999758 -0.00933351 4.48128e-21)
(1.01436 -0.0124234 -2.12494e-21)
(0.908798 -0.0493949 1.59201e-20)
(1.02482 -0.0472014 -3.38264e-21)
(1.13804 -0.106254 9.44844e-21)
(0.991098 -0.0674686 9.86564e-21)
(1.09639 0.0460198 -1.14115e-20)
(0.998103 -0.00303292 -6.28014e-21)
(1.00731 -0.00455934 -8.49106e-22)
(0.698759 0.0555407 1.94185e-20)
(1.07596 -0.030356 7.0486e-21)
(0.683511 0.0281197 0)
(1.10136 0.0105269 -1.82023e-20)
(0.999603 -0.00948591 0)
(1.02478 -0.00608481 -5.02075e-21)
(1.0052 -0.00596712 0)
(0.319432 0.0404332 -6.3694e-21)
(-0.0198179 0.0444713 -8.80724e-21)
(1.00021 -0.00652281 1.48741e-21)
(1.01279 -0.00976116 0)
(0.993688 -0.00672331 4.73263e-21)
(0.999931 -0.000464877 0)
(1.08241 -0.301875 -2.10435e-20)
(1.00005 -0.000559033 0)
(0.429267 -0.0102759 0)
(0.379623 -0.808567 6.83018e-21)
(1.00638 -0.00611078 0)
(1.00366 -0.0174156 -1.60671e-21)
(1.19407 0.055111 3.58589e-20)
(0.152278 0.0399914 0)
(0.656108 0.913549 1.84517e-20)
(-0.0601484 0.0143606 4.33967e-20)
(1.00003 -0.00173648 3.58152e-21)
(1.10137 0.0123482 1.9252e-20)
(1.1837 0.0326808 8.91793e-20)
(1.03705 -0.00428466 7.42647e-22)
(-0.0324539 -0.0108269 4.4903e-20)
(1.1283 0.077753 1.93924e-20)
(1.07738 -0.0134054 1.10935e-20)
(1.03975 -0.0664807 5.38031e-21)
(0.988206 -0.0126556 4.19874e-21)
(0.997108 -0.00439948 0)
(1.00002 -0.000147397 6.06282e-22)
(0.213382 0.0286281 0)
(0.988825 -0.0124609 -3.18113e-21)
(1.02076 -0.0011314 0)
(1.07799 -0.0179015 4.24487e-21)
(1.02381 -0.00988362 -1.344e-21)
(0.310341 0.0341261 0)
(1.1491 0.0574831 6.04871e-20)
(0.999964 -0.00191556 -2.94508e-21)
(0.998215 -0.0027073 6.22973e-21)
(-0.278145 -0.0126708 -4.39812e-20)
(1.01195 -0.0113999 0)
(1.01117 -0.0109094 0)
(1.0211 -0.0419753 1.27417e-21)
(1.2217 0.00167088 7.16721e-20)
(0.146157 0.0324821 -1.43875e-20)
(1.00005 -0.000792494 0)
(1.08195 0.0609723 0)
(1.05188 -0.000964058 -6.13348e-21)
(1.03633 -0.00577177 -1.5237e-20)
(0.202564 0.0129772 3.27136e-20)
(0.216536 0.0160889 0)
(0.982712 -0.0446437 3.37373e-21)
(1.08429 0.039637 5.39899e-20)
(-0.164461 0.00530696 -1.89249e-19)
(0.938108 -0.177071 0)
(1.08182 0.0696606 4.70418e-20)
(1.06913 -0.0178858 7.01182e-21)
(1.08516 -0.034577 2.77343e-21)
(1.15772 -0.17256 0)
(1.01132 -0.441104 -4.32445e-21)
(1.02006 -0.000266697 3.07229e-21)
(0.999035 -0.00696473 -6.5388e-21)
(1.04675 -0.0289962 1.5729e-22)
(0.995208 -0.0148575 0)
(0.321982 -0.0293263 0)
(1.00906 -0.0780872 1.50253e-21)
(0.442674 -0.440061 3.09516e-20)
(0.99997 -0.000803666 -3.28384e-21)
(1.29112 -0.168869 0)
(0.997665 -0.0206075 0)
(-0.0210259 0.0386308 8.49585e-21)
(-0.0600604 -0.00265482 -2.69022e-21)
(0.914461 -0.00509397 1.64174e-20)
(0.380179 0.0464205 7.15628e-20)
(0.945214 -0.164444 0)
(1.04757 -0.0282893 0)
(1.09197 0.0219022 -2.10536e-20)
(0.302584 0.0327965 0)
(0.989591 0.0757192 -5.23624e-20)
(1.00038 -0.000165342 -5.5402e-22)
(0.36182 -0.00902668 4.19673e-20)
(1.09744 0.000524005 0)
(1.02262 -0.00829887 0)
(0.732334 0.0358395 0)
(0.13228 0.0312898 -3.60481e-20)
(1.00237 -0.0169441 -3.26132e-21)
(0.41313 0.0548028 0)
(0.186854 0.0202469 3.56122e-20)
(0.999957 -0.00772219 -1.96774e-22)
(-0.139775 -0.00918047 -3.15584e-21)
(1.08467 -0.313601 -1.10639e-20)
(1.03572 -0.00590537 1.30277e-20)
(0.788149 -0.029086 2.4453e-21)
(0.634308 0.0733854 -1.65374e-20)
(1.23278 0.022782 -1.27515e-20)
(1.09474 0.0235563 -1.05058e-20)
(0.286716 0.0479311 3.80388e-20)
(0.0869327 0.34029 1.64804e-20)
(1.15105 0.0594853 3.21786e-20)
(1.16071 -0.0189477 2.64744e-20)
(1.02337 -0.00966733 3.64683e-21)
(-0.202531 -0.0111776 -7.66375e-20)
(0.993308 -0.0184159 -4.46864e-21)
(0.99775 -0.0361419 0)
(0.3536 0.0488009 -9.33907e-20)
(1.10189 0.0677788 -1.81051e-20)
(1.00206 -0.0609639 4.84951e-21)
(0.982546 -0.0429614 -3.10322e-21)
(1.09587 0.00117211 1.80237e-21)
(1.06776 -0.0170631 -6.74027e-21)
(0.973553 -0.00632764 1.23153e-20)
(1.01485 -0.0126919 2.16023e-21)
(1.01712 -0.00170212 0)
(1.04221 -0.222215 8.0404e-21)
(-0.0161672 0.0175891 0)
(1.00499 -0.00561366 -4.57157e-23)
(1.10818 0.0401767 1.37654e-20)
(0.999955 -0.000368408 -1.98754e-21)
(0.099532 0.0171128 -2.3026e-20)
(0.999119 -0.00671457 2.05839e-21)
(1.00327 -0.000388612 -1.47462e-22)
(1.13809 0.0758482 -1.42914e-20)
(0.822032 0.0703703 -2.85025e-20)
(0.992398 -0.235173 0)
(0.316924 0.0436172 0)
(1.00371 -0.00993554 0)
(1.00325 -0.00975263 7.50976e-22)
(0.209572 0.0484822 -3.68999e-20)
(0.888307 -0.161293 -1.04512e-19)
(1.14648 -0.10917 2.08211e-20)
(1.04855 -0.00424986 -1.11305e-20)
(0.617375 -0.35468 0)
(0.530889 -0.0657339 1.02985e-19)
(1.00015 -0.00329743 1.20439e-21)
(0.998855 -0.00287335 2.97442e-24)
(1.00001 -0.00200125 -5.22298e-21)
(1.03542 -0.0529342 1.16304e-21)
(0.383022 0.0468242 -1.65878e-20)
(0.217133 0.0482267 -1.06914e-20)
(0.996079 -0.0346904 2.45185e-21)
(1.00708 -0.0562079 0)
(0.64433 0.122106 -9.40232e-22)
(-0.164475 -0.00435012 0)
(-0.167927 -0.00422176 -4.92396e-20)
(1.02098 -0.00113221 2.29908e-21)
(0.970171 -0.0481593 -3.14971e-21)
(0.625379 0.860874 -4.48141e-20)
(0.998115 -0.0371516 -2.76952e-21)
(0.998714 -0.00218843 0)
(1.00089 -0.00752588 0)
(1.01801 -0.00811771 -2.96204e-21)
(1.15202 -0.0501959 0)
(0.481555 -0.276075 9.26581e-20)
(0.719038 -0.767749 0)
(1.02888 -0.453977 2.07549e-20)
(1.00148 -0.00779087 3.11226e-21)
(1.19706 0.00617978 2.28475e-20)
(1.00788 -0.0120075 -1.12223e-23)
(1.00002 -0.000324599 -1.07453e-22)
(0.248022 0.0136775 6.55033e-20)
(0.966762 -0.764691 1.66395e-20)
(1.04474 -0.202961 5.94484e-21)
(0.59183 0.0705914 2.10694e-21)
(0.27358 0.0367643 -7.12751e-21)
(0.876417 0.071458 4.80165e-20)
(0.192594 0.0475005 2.74658e-21)
(1.22433 -0.0598726 -3.15291e-20)
(0.248514 0.0476508 -8.86307e-20)
(0.0488566 0.0091389 -2.77202e-20)
(1.10183 0.0497548 1.49842e-20)
(-0.0138901 0.0083271 3.211e-20)
(0.995994 -0.017237 1.74333e-21)
(0.684863 0.050595 0)
(1.0393 -0.0495384 4.80354e-21)
(1.05437 0.000677874 -1.76541e-20)
(0.659394 0.110507 8.41854e-22)
(1.1182 0.0793543 0)
(0.990652 -0.0630955 7.51477e-21)
(1.2993 -0.0980432 0)
(1.02292 0.0709875 1.10055e-20)
(1.1095 -0.00081583 -2.18668e-20)
(0.999881 -0.000883516 1.07459e-20)
(0.982142 -0.0111406 -8.35257e-23)
(0.939352 -0.741004 -7.8494e-21)
(0.168048 0.0362581 0)
(0.337361 0.047369 -3.83761e-20)
(1.02205 -0.00235444 2.18231e-21)
(1.29131 -0.0949892 0)
(-0.0724803 -0.0192813 1.3548e-23)
(0.963819 -0.0136138 0)
(1.05239 -0.00172737 1.29719e-20)
(0.993373 -0.00659287 -2.63493e-21)
(0.926692 -0.02776 -1.74006e-20)
(0.771963 -0.314509 -5.61208e-20)
(-0.24479 -0.00964317 1.64761e-19)
(1.00016 -0.000620825 -7.41666e-22)
(0.326026 0.0566499 0)
(0.999028 -0.00586389 0)
(0.325003 0.0483607 -3.28644e-20)
(1.0673 -0.0562909 -7.23479e-21)
(1.01617 -0.0418556 -3.50416e-22)
(1.06961 -0.0710027 -1.06993e-20)
(-0.206579 -0.00498053 -1.18925e-19)
(1.0325 -0.00184296 -2.73693e-21)
(1.00247 -0.00524731 0)
(0.0238094 0.0195955 6.99465e-20)
(0.261734 0.052736 9.63844e-21)
(1.17378 -0.167955 -5.27181e-20)
(0.886535 0.0772071 3.96049e-20)
(1.04801 -0.0048352 1.18227e-20)
(1.00108 -0.00714155 0)
(0.999269 -0.0014838 -1.27295e-21)
(-0.0149574 -0.0152465 -5.34909e-21)
(0.734547 -0.262035 1.05091e-20)
(-0.0190123 -0.0222402 0)
(1.08962 -0.0611596 -1.79075e-20)
(0.675562 -0.812114 0)
(0.297195 0.0510313 -1.56576e-20)
(1.09896 0.0175571 -2.59699e-20)
(-0.233003 -0.00466434 -5.80563e-22)
(0.969498 -0.0467211 3.11436e-21)
(-0.226795 -0.0025658 1.50047e-20)
(1.01793 -0.00708618 0)
(0.5317 -0.0332464 0)
(0.304387 0.0465177 2.30489e-20)
(0.70603 -0.211262 1.10489e-19)
(1.07004 -0.0129893 1.46212e-20)
(0.393081 0.0482763 0)
(-0.253032 -0.00369576 1.54623e-19)
(1.00234 -0.00612698 0)
(0.64193 -0.15833 -8.2685e-20)
(0.992322 -0.0198697 3.58457e-22)
(1.00011 -0.000574278 -9.02363e-22)
(-0.139065 -0.00696338 -2.814e-20)
(0.164896 0.0416742 0)
(0.999965 -0.00203734 6.11544e-21)
(1.00005 -0.00751484 0)
(1.01513 -0.00119961 -2.12907e-21)
(0.112507 -0.477375 -5.13786e-20)
(0.194261 0.0323744 5.69387e-20)
(1.00261 -0.00555963 0)
(1.19246 0.0309429 -3.28584e-20)
(1.04057 -0.0685795 -7.4432e-21)
(1.04318 -0.000119471 0)
(1.00355 -0.00945233 -5.8242e-22)
(1.17335 -0.0867728 3.11746e-20)
(1.19702 0.00894579 -1.66652e-20)
(1.07365 -0.039765 -1.74134e-20)
(0.720509 -0.131588 -4.13733e-20)
(1.00029 -0.00660805 -2.94555e-21)
(1.00752 -0.00480077 8.08877e-22)
(0.616403 0.0733284 0)
(-0.0862194 -0.00925388 0)
(1.15891 0.0574754 -6.14098e-21)
(0.0388503 0.0073531 -7.24709e-21)
(0.167088 -0.104872 -5.11643e-20)
(0.970879 -0.0113372 -2.04167e-20)
(-0.0625045 -0.0187539 5.21437e-20)
(0.719462 -0.118271 -3.97193e-20)
(0.944571 -0.0482985 2.12356e-20)
(0.204103 -0.70212 -2.61472e-20)
(1.06815 -0.24451 0)
(1.06324 -0.0558582 0)
(1.08646 -0.148815 -1.06992e-20)
(0.305091 0.0329127 0)
(0.910517 -0.00420869 0)
(1.15856 -0.0215745 -2.6355e-20)
(1.03073 -0.0536888 9.00368e-22)
(1.08615 -0.0794294 -8.22943e-22)
(-0.107034 -0.0156841 -5.43691e-20)
(1.00234 -0.00597094 -1.09366e-21)
(0.533256 0.0657087 3.33603e-20)
(1.15547 -0.0519975 -1.30929e-20)
(0.908977 -0.234466 -2.15724e-20)
(0.965611 -0.175166 -1.15701e-20)
(1.0234 -0.00913242 0)
(1.05035 -0.00381309 -2.91136e-21)
(0.229376 0.0151293 1.71151e-20)
(1.00225 -0.00510454 -9.12398e-22)
(0.999098 -0.00561876 -2.12246e-21)
(1.15934 0.00939254 -2.95353e-20)
(1.02123 -0.00842522 -2.08177e-21)
(1.15218 -0.108083 -2.29189e-20)
(1.04372 0.000277899 -2.2339e-21)
(1.1579 0.0317254 9.58918e-21)
(0.9794 -0.031143 5.24156e-21)
(1.09252 -0.0573593 -3.01417e-20)
(1.02462 -0.00652873 0)
(0.444179 -0.413384 -1.49156e-19)
(0.0258711 0.00778408 0)
(0.0837477 0.509374 -1.16756e-19)
(1.03217 -0.0529933 0)
(-0.068613 0.00462742 0)
(0.19792 0.0468809 2.20153e-20)
(0.547269 -0.0218449 0)
(1.03648 -0.00216 0)
(0.217979 0.0380539 -5.0941e-20)
(0.966255 -0.00499918 2.0765e-20)
(0.0490058 0.124419 -5.47583e-21)
(0.995792 -0.00518594 0)
(0.666177 -0.119309 -8.38936e-20)
(1.17018 0.0372276 0)
(-0.0246737 0.0456633 1.63323e-20)
(-0.0958601 -0.00979522 -4.74755e-20)
(1.2618 -0.00312 -7.6338e-20)
(0.235582 0.032799 1.5267e-20)
(1.02131 -0.000681681 -6.52282e-21)
(0.0865747 0.00767628 0)
(1.00563 -0.000682045 0)
(0.914434 -0.0686478 -8.58528e-21)
(0.947586 -0.0491733 0)
(0.989551 -0.0113049 6.63045e-21)
(1.00224 -0.000786985 0)
(0.118277 0.0181091 -1.09684e-20)
(1.10827 0.0365659 1.2845e-20)
(1.04643 -0.0322434 7.01943e-21)
(0.374578 0.0599334 3.56868e-20)
(0.387353 -0.0818177 0)
(0.787304 -0.136265 -1.91918e-20)
(1.02137 -0.000789666 3.95263e-21)
(0.952109 -0.0819396 1.9355e-20)
(1.00005 -0.00110887 0)
(1.01228 -0.0118256 8.09781e-22)
(1.01778 -0.00777911 0)
(0.994903 -0.0208703 2.94192e-21)
(0.476502 -0.30876 -8.3302e-20)
(1.06709 -0.0712107 7.87378e-21)
(0.788497 0.0650269 -6.46494e-20)
(-0.109418 0.0109526 3.40712e-20)
(0.0968115 0.0114833 -1.40087e-20)
(-0.135881 0.00687442 -7.98667e-20)
(0.771993 -0.441483 -2.98661e-21)
(0.910944 0.00396142 -9.66913e-21)
(0.998956 -0.0023701 3.67371e-21)
(1.12549 0.0415073 -2.97422e-20)
(1.0085 -0.00913939 -3.71265e-22)
(0.124485 0.0167424 -4.76468e-20)
(0.268881 0.024913 1.4353e-20)
(1.02207 -0.00820097 0)
(1.09066 -0.092206 -1.03857e-21)
(0.339848 0.0399126 0)
(0.363189 0.0557764 -1.90299e-20)
(0.597459 0.0710671 -2.03828e-20)
(1.09486 -0.0566713 8.40902e-21)
(0.914595 0.00436367 0)
(1.0205 -0.0182109 -2.57939e-21)
(0.286033 0.0327286 1.91454e-20)
(0.0948779 0.00933513 0)
(1.00174 0.0664112 2.05521e-20)
(1.0613 -0.250154 1.06553e-20)
(1.24502 0.0184103 -7.74749e-20)
(-0.0445785 -0.00848364 0)
(1.05104 -0.245864 -1.33061e-20)
(0.149972 0.0189164 3.25933e-20)
(0.965547 -0.298375 1.19688e-21)
(0.796349 -0.446224 -1.53809e-20)
(1.00355 -0.0100854 7.34844e-22)
(-0.0114673 0.00775689 -3.95126e-20)
(1.1114 0.0410174 4.82937e-21)
(1.10721 0.0347821 -3.91721e-20)
(0.248295 0.0345454 0)
(1.01497 -0.0170509 -1.45216e-21)
(1.11629 0.0525227 0)
(0.721108 -0.216793 0)
(1.01553 -0.0171 1.74577e-21)
(1.14075 0.0621538 1.73711e-20)
(0.962295 0.0768824 3.92349e-20)
(0.198907 0.0265222 -3.07448e-21)
(0.290553 0.0239514 8.6772e-20)
(0.865883 0.00830377 -2.15867e-20)
(1.08757 -0.0491292 0)
(1.00207 -0.00080293 0)
(0.630735 -0.335309 0)
(1.12742 -0.603632 2.68042e-20)
(0.945741 -0.0861582 -5.86964e-21)
(0.16591 0.021912 -8.02225e-20)
(1.00319 -0.0226483 2.12038e-21)
(0.331855 0.0547198 2.91336e-20)
(0.187886 0.0438252 0)
(1.07488 -0.0099881 1.78585e-21)
(0.984437 -0.076431 0)
(0.999965 -0.000904489 0)
(0.884116 -0.127649 1.57127e-20)
(1.00009 -0.00126092 -6.0908e-22)
(0.49723 -0.0959224 8.57915e-20)
(1.12649 0.0437846 0)
(0.0700974 0.0211605 1.46755e-19)
(1.01411 -0.0108656 9.87881e-22)
(1.01566 -0.0164656 0)
(1.01996 -0.0183826 -2.50181e-21)
(0.770979 -0.225285 -4.70578e-20)
(0.0711005 0.0422415 9.20321e-20)
(0.853866 0.000591944 -1.95137e-20)
(0.461695 -0.109854 9.48808e-20)
(1.10438 0.0400296 0)
(1.18952 0.0279747 5.34871e-20)
(0.996085 -0.00494816 0)
(1.00086 -0.00044586 1.63671e-23)
(1.29213 -0.247165 -3.95545e-20)
(1.00154 -0.0628565 -2.16047e-21)
(1.14753 0.0727743 0)
(0.0507197 -0.414626 0)
(0.801067 -0.24505 9.34879e-22)
(1.2375 0.011927 0)
(1.03875 -0.0307235 -1.91095e-21)
(0.0896897 0.018379 -5.67271e-21)
(0.547801 0.0669453 2.20808e-21)
(0.626081 0.333991 -4.56581e-21)
(1.05728 -0.00188105 -1.27933e-20)
(1.01199 -0.00149419 -2.47104e-23)
(1.04754 -0.0328455 -6.62393e-21)
(0.999392 -0.00439977 0)
(1.17687 0.0412452 5.16409e-20)
(0.990705 -0.0778112 0)
(1.02334 -0.0115824 7.98899e-21)
(1.14013 0.0636444 0)
(0.954937 -0.0331024 1.3913e-20)
(-0.0181275 -0.0196098 -1.58603e-20)
(1.03791 -0.398067 -2.80822e-20)
(0.937631 -0.168781 -1.78219e-20)
(1.00611 -0.00609801 -1.88622e-22)
(0.316784 0.0357391 -1.31307e-21)
(1.03287 -0.00323446 1.03341e-20)
(1.0761 -0.0113317 -7.60417e-23)
(0.0948234 -0.00824179 -8.79981e-21)
(0.648593 -0.122534 0)
(1.00311 -0.00990539 0)
(1.03789 -0.413654 -1.94423e-21)
(0.340712 0.0524138 -7.23486e-21)
(1.02881 -0.0155561 -4.70771e-21)
(1.00077 -0.00715768 0)
(0.996946 -0.0170757 0)
(0.775023 -0.133173 -2.62178e-20)
(-0.0212476 0.0513039 -3.28876e-20)
(1.00249 -0.00565742 2.28771e-22)
(0.209307 0.0113778 -3.93158e-20)
(1.00005 -0.000748802 0)
(-0.1929 -0.0129923 0)
(0.438727 -0.051902 -1.1788e-19)
(-0.019415 -0.0154262 0)
(-0.00487802 0.0387574 -1.42506e-20)
(0.99815 -0.243542 0)
(1.08952 -0.0481757 1.45545e-20)
(0.372189 -0.13213 -4.92824e-20)
(1.00508 -0.000719684 -6.95829e-22)
(1.01096 0.0736544 3.81722e-20)
(1.02826 -0.0157453 0)
(1.00952 -0.00392384 -2.35348e-22)
(1.02259 -0.00298107 0)
(1.03818 -0.0188367 -1.33216e-20)
(0.313546 0.0431787 -3.65923e-21)
(1.02442 -0.0236019 -1.79147e-21)
(1.00212 -0.00479934 8.6828e-22)
(1.01442 -0.0436547 -6.49899e-23)
(1.0237 -0.0113209 -3.02155e-21)
(0.994464 -0.597032 2.16684e-20)
(0.971772 -0.0516776 7.65414e-22)
(-0.228429 -0.00609433 6.72267e-20)
(1.00369 -0.00930402 5.74045e-22)
(0.999479 -0.00403597 3.97763e-21)
(1.00256 -0.00616508 0)
(0.534038 0.0655448 0)
(0.0192667 0.0040391 6.94311e-20)
(0.197605 0.179723 8.19634e-20)
(0.4637 -0.425355 -7.92127e-20)
(1.00927 -0.00400125 -2.79946e-22)
(0.256791 0.0343597 -2.76201e-20)
(0.15451 0.0399941 -1.06095e-20)
(1.03499 -0.0516196 1.61893e-21)
(1.00034 -0.0139929 -3.81045e-21)
(0.179343 0.0136454 0)
(0.116481 0.0206282 1.84654e-20)
(1.05981 -0.0579295 6.0155e-21)
(1.14076 0.0417557 1.46792e-20)
(0.700104 0.0770913 2.04351e-20)
(1.05011 -0.220069 0)
(1.03683 -0.00261303 -9.9807e-22)
(1.12077 0.0147063 2.27255e-21)
(1.08511 -0.0819707 1.99677e-21)
(1.11945 0.0163111 -1.88087e-21)
(0.374274 0.0558098 3.4076e-21)
(0.328604 -0.0366385 -4.26826e-20)
(1.02528 -0.00533481 -2.89673e-23)
(0.124986 0.0116746 8.93825e-23)
(1.01618 -0.0165008 -1.5367e-21)
(1.3112 -0.116521 0)
(1.10515 0.0350052 -2.59184e-21)
(1.13528 -0.10186 0)
(0.988952 -0.0115541 3.67724e-21)
(0.0127811 0.00606274 0)
(0.222231 0.0142889 2.41399e-20)
(1.05837 0.0714803 2.76051e-20)
(0.999153 -0.0014615 6.42467e-21)
(1.09556 0.0444138 2.19565e-20)
(1.02379 -0.00897118 0)
(0.0877322 0.0093507 3.01019e-20)
(1.00219 -0.00601341 -1.39018e-21)
(1.09115 0.018726 1.43762e-20)
(1.05072 -0.0226733 -8.13313e-21)
(1.00837 -0.0113444 -1.60123e-22)
(0.795664 -0.259439 -1.1104e-21)
(1.0078 -0.0756358 -4.24195e-21)
(0.99774 -0.00623156 7.99518e-21)
(0.258965 0.105505 1.37373e-19)
(1.00126 -0.0056137 1.1637e-21)
(0.259761 0.0433832 -1.18304e-20)
(1.08656 -0.0400392 -2.85194e-20)
(1.20575 -0.427544 -6.2166e-20)
(0.999487 -0.0287667 7.48569e-21)
(1.14661 0.0568011 -6.33535e-20)
(0.954621 -0.303542 0)
(0.996495 -0.0358833 -2.61754e-21)
(-0.198093 -0.0107282 0)
(1.28664 -0.0844549 -5.41304e-20)
(0.657191 0.073991 -5.01549e-21)
(0.999042 -0.00239122 0)
(0.928675 -0.0175719 0)
(1.21871 -0.0531232 -1.34662e-20)
(0.644499 0.0742665 6.60075e-21)
(1.00022 -0.0144601 4.33652e-21)
(1.0075 -0.0526287 7.68539e-22)
(1.06091 -0.00341054 9.69317e-21)
(0.511252 0.0634055 -4.54381e-20)
(1.02037 -0.00356167 -5.3916e-21)
(1.15562 -4.58987e-05 2.62213e-20)
(1.1779 0.0393696 3.22501e-20)
(0.972955 -0.0530884 2.88808e-21)
(1.02081 -0.00166611 0)
(1.00076 -0.000468015 3.64977e-23)
(1.00653 -0.00682678 -1.57525e-23)
(1.11624 -0.133017 2.57943e-20)
(1.02178 -0.00857991 4.34734e-21)
(0.969507 -0.565918 -1.47124e-20)
(1.10378 -0.0314463 -4.45637e-23)
(1.02484 -0.00522876 -2.17053e-23)
(1.02304 -0.0706156 4.74009e-21)
(-0.0622324 0.0070057 0)
(1.00484 -0.0176208 0)
(1.06284 -0.0424542 -1.16798e-20)
(1.01147 -0.0113347 -5.32225e-22)
(1.00202 -0.00585279 1.28947e-21)
(1.15294 -0.0629273 -4.46515e-20)
(1.14326 0.0577201 2.71057e-20)
(0.0664026 -0.497415 6.32959e-20)
(1.13651 0.0744626 -2.36538e-20)
(1.0566 -0.0103792 -8.10176e-21)
(1.03994 -0.0310293 5.7556e-21)
(-0.227188 -0.00513442 1.33621e-19)
(0.136555 -0.101484 6.60566e-20)
(0.837422 0.0593426 9.10601e-20)
(-0.0537835 0.00422801 0)
(0.712228 -0.263338 -1.10046e-19)
(1.1586 0.0586378 -3.42733e-21)
(1.00354 -0.00885131 0)
(1.08671 -0.0907322 -1.44761e-20)
(-0.260863 -0.00708889 0)
(0.0194255 0.0083027 0)
(0.149948 0.0337226 -2.02414e-20)
(1.00114 -0.00536805 -1.60807e-21)
(0.965323 -0.303051 3.02546e-21)
(1.05358 -0.212179 0)
(-0.124007 -0.0221561 1.10364e-19)
(-0.085954 0.0129433 3.40386e-20)
(0.998083 -0.0105946 -2.80069e-21)
(0.678539 0.117764 0)
(0.924116 -0.0253041 -1.70651e-20)
(0.0932217 0.209171 4.63404e-22)
(-0.0530578 0.00998126 0)
(0.127036 0.549823 1.51263e-19)
(1.01322 -0.0101314 8.92612e-22)
(1.26091 -0.0123208 1.62842e-20)
(1.00002 -0.000179706 4.6211e-24)
(1.03674 -0.00124983 0)
(0.205373 0.0224026 7.68503e-20)
(0.999999 -1.58383e-05 0)
(1.05151 -0.00397491 -1.39087e-20)
(-0.112177 -0.0637871 9.68411e-20)
(-0.0442568 0.0140085 -1.58693e-20)
(1.0068 -0.00700726 0)
(0.101922 0.014814 1.37243e-20)