/*--------------------------------*- C++ -*----------------------------------*\
| =========                 |                                                 |
| \\      /  F ield         | OpenFOAM: The Open Source CFD Toolbox           |
|  \\    /   O peration     | Version:  v2012                                 |
|   \\  /    A nd           | Website:  www.openfoam.com                      |
|    \\/     M anipulation  |                                                 |
\*---------------------------------------------------------------------------*/
FoamFile
{
    version     2.0;
    format      ascii;
    class       volVectorField;
    location    "150";
    object      U_0;
}
// * * * * * * * * * * * * * * * * * * * * * * * * * * * * * * * * * * * * * //

dimensions      [0 1 -1 0 0 0 0];


internalField   nonuniform List<vector> 
18166
(
(0.847747 -0.00559267 -2.49623e-20)
(1.00564 -0.00153839 3.33137e-22)
(0.999974 -0.0007202 9.98875e-21)
(1.1531 0.0129129 -2.37507e-20)
(0.0908777 -0.403733 -1.0569e-19)
(0.847337 -0.127821 -3.82058e-20)
(1.01368 -0.0110354 2.32218e-21)
(-0.0980632 -0.00628959 -3.24396e-21)
(0.0772174 0.0334187 5.29378e-20)
(0.162273 -0.171273 -4.41103e-20)
(0.999506 -0.0102649 0)
(0.996463 -0.0168791 0)
(-0.0862103 -0.0179217 -1.58102e-19)
(1.23523 -0.0151579 0)
(0.792152 0.0784247 -2.15303e-20)
(1.23668 -0.0124707 3.41118e-22)
(1.00075 -0.00563062 1.19599e-21)
(0.330466 -0.875995 2.51928e-21)
(0.992611 -0.0184833 2.33311e-21)
(0.0134544 0.00900516 5.96494e-20)
(1.2177 -0.0718208 9.36558e-20)
(1.00065 -0.00567965 -4.23295e-21)
(1.21339 -0.0682669 -7.89601e-20)
(0.996377 -0.00299899 1.94098e-21)
(1.00789 -0.0116592 -1.06271e-22)
(1.01324 -0.0106714 -3.70356e-21)
(0.868348 -0.0348223 -2.93951e-20)
(1.08793 -0.0415383 2.21395e-20)
(0.989189 -0.0286152 7.24168e-21)
(1.15584 0.0139979 -2.51122e-20)
(0.00495546 -0.0895772 0)
(1.01777 -0.000897504 2.62388e-21)
(1.00155 -0.0306495 2.63679e-21)
(0.997681 -0.0200571 0)
(1.02124 -0.000932294 0)
(1.00197 -0.00870203 1.31929e-22)
(0.100387 0.034895 0)
(1.00181 -0.00845845 -1.11722e-22)
(1.02773 -0.0100668 0)
(0.178341 -0.202443 8.6198e-20)
(1.00006 -0.000689344 -1.89293e-21)
(1.1696 -0.150789 2.47198e-20)
(1.00112 -0.031586 6.64713e-22)
(0.982965 -0.0194839 0)
(0.846541 -0.0428904 -1.03145e-20)
(0.998404 -0.00262463 -9.3347e-21)
(1.10101 0.048243 -2.40153e-20)
(0.00182972 -0.0704722 0)
(1.11846 0.0648428 1.28999e-20)
(0.878218 -0.0286557 2.69341e-20)
(1.09306 0.0234553 1.58411e-20)
(1.10882 0.00551558 -2.30241e-20)
(1.21439 -0.043009 -2.62628e-20)
(1.00016 -0.000656145 7.70391e-22)
(0.999647 -0.0100453 0)
(0.137003 0.0119319 4.24448e-21)
(1.17295 -0.15632 -7.48687e-20)
(-0.30686 -0.0109875 -9.03474e-20)
(0.991908 -0.0648856 -1.11655e-20)
(1.07418 -0.036419 8.05055e-21)
(1.15461 -0.103198 0)
(1.07307 -0.00278496 -7.232e-21)
(0.0976166 0.0116652 -5.6159e-20)
(1.08224 -0.0861941 0)
(1.23303 -0.000836052 -9.02879e-23)
(0.997084 -0.00470332 0)
(0.0890249 0.0237889 -9.7941e-21)
(0.486856 0.0610947 0)
(0.652159 -0.126837 -1.1056e-21)
(1.0908 -0.0138524 0)
(1.02103 -0.000938156 0)
(1.02538 -0.0459677 0)
(0.852746 -0.0476691 0)
(1.03306 -0.0733783 1.52358e-22)
(0.0340887 -0.321234 -6.58568e-20)
(0.369878 0.348713 6.77155e-20)
(1.21942 -0.0583747 1.18661e-20)
(0.495667 -0.0934045 0)
(1.06557 -0.0552606 0)
(1.00134 -0.0074637 -9.7131e-22)
(0.999996 -0.00137608 1.77843e-21)
(0.247222 0.0510722 1.95925e-20)
(0.996649 -0.00288034 -1.45139e-20)
(0.995251 -0.00520105 7.84321e-21)
(1.0174 -0.00184807 0)
(1.05234 0.0023615 0)
(1.07651 -0.0322001 3.65395e-21)
(1.00575 -0.00635174 2.21935e-23)
(1.10685 0.00834165 -1.09807e-20)
(1.02723 -0.00970548 2.97061e-21)
(-0.0990094 0.0034902 1.03039e-19)
(0.879793 -0.150714 -1.73427e-20)
(-0.258241 -0.0115694 0)
(1.00003 -0.00066386 0)
(1.0001 -0.00077393 1.98916e-21)
(1.0529 0.00310248 0)
(1.01772 -0.00149891 2.74182e-21)
(1.0147 -0.247686 -1.48471e-21)
(0.930933 -0.016126 -1.22814e-20)
(1.08682 -0.032718 1.66375e-20)
(1.00536 -0.000584331 4.59957e-22)
(0.99911 -0.00479948 -2.42462e-21)
(0.843499 0.0774343 -3.52547e-20)
(1.07963 -0.087727 0)
(1.09028 -0.0125977 0)
(0.999182 -0.00445803 -4.66769e-21)
(0.0960793 -0.23034 3.00727e-20)
(0.0944469 -0.00559056 -1.12723e-19)
(0.986739 -0.0761298 9.44129e-21)
(0.999913 -0.00846357 1.88834e-21)
(-0.268158 -0.0100931 -1.73474e-19)
(0.146953 0.0414414 0)
(0.266437 0.0345459 0)
(0.844559 0.0827019 3.78123e-20)
(1.00048 -0.00474408 2.2598e-21)
(1.03234 -0.00350414 -6.39004e-21)
(1.03262 -0.250106 0)
(0.0191156 0.0357321 -3.43618e-20)
(0.977947 -0.0315751 2.98525e-21)
(0.629757 0.0800113 0)
(0.685076 0.818752 -3.87085e-21)
(0.988339 -0.0282197 -4.60559e-21)
(1.30462 -0.167778 7.50857e-20)
(0.694359 0.0393191 0)
(1.16202 0.022651 -1.67374e-20)
(0.994983 -0.0154162 -4.20857e-21)
(0.998782 -0.0025887 -3.08329e-21)
(-0.15679 -0.0115134 9.61955e-20)
(0.953478 -0.106012 6.12808e-21)
(0.953539 -0.178903 1.53108e-20)
(1.16029 0.0313048 2.01182e-20)
(0.901264 -0.387105 2.59327e-20)
(1.06994 -0.0112209 3.71963e-22)
(0.273557 0.049762 -1.39695e-20)
(0.94451 -0.0908926 1.78e-20)
(1.099 0.0480727 1.96743e-20)
(1.00165 -0.0084865 0)
(1.00832 -0.00939529 0)
(1.07092 -0.0106127 0)
(-0.0268521 -0.00858873 -2.67107e-20)
(0.0204817 0.0268014 0)
(1.23872 -0.0020358 -2.53097e-20)
(1.12774 0.0790379 0)
(0.225099 0.0497747 0)
(0.989266 -0.0758443 -1.17222e-20)
(1.06127 0.00143167 9.96873e-20)
(0.00495699 0.00404892 0)
(0.940453 0.0755841 0)
(1.03918 -0.00925093 3.41952e-21)
(1.07748 -0.0143964 -1.56348e-20)
(1.01761 -0.00130928 4.59431e-21)
(0.294096 0.0323819 -1.81071e-20)
(0.495388 -0.604903 9.59974e-21)
(1.16383 0.0211236 0)
(0.999877 -0.000998362 -2.09544e-21)
(1.00003 -0.00824356 1.92243e-22)
(1.00919 -0.0529252 0)
(0.0855425 0.00883037 4.17736e-20)
(1.00149 -0.00817288 -1.10332e-21)
(-0.146443 -0.0128101 8.7728e-20)
(1.01504 -0.00144152 0)
(0.416201 0.0555734 0)
(1.07167 -0.0400069 1.03941e-20)
(1.0099 -0.00128582 -1.7741e-21)
(1.10872 0.00756848 2.49405e-20)
(0.346265 -0.00499958 -3.13419e-20)
(0.998861 -0.00305647 -7.70805e-21)
(0.195363 0.0470503 1.56732e-20)
(0.266606 0.0521009 1.70927e-20)
(-0.253087 -0.0176174 1.88855e-19)
(1.19414 0.0189803 0)
(0.887309 0.0825317 -1.14439e-20)
(0.956193 -0.173708 -1.11425e-20)
(0.470016 0.061062 0)
(1.22338 0.0223217 0)
(0.995483 -0.0206203 0)
(0.626644 0.386442 9.98854e-20)
(0.561988 0.0691711 4.02836e-20)
(1.00611 -0.00122081 0)
(1.00551 -0.00599443 0)
(1.00042 -0.00478008 -2.7373e-21)
(0.969698 -0.168686 9.35647e-21)
(0.546864 -0.0781962 -1.13793e-19)
(0.612072 0.362448 -3.0081e-20)
(1.12833 0.0573546 4.19723e-20)
(1.00805 -0.00506163 -8.45906e-22)
(1.05232 -0.2059 9.67208e-21)
(1.1484 0.0144063 2.43409e-20)
(1.00263 -0.00600705 0)
(1.03175 -0.00325582 3.53515e-21)
(1.15984 -0.100974 1.31208e-20)
(0.992206 -0.0190993 -2.74053e-21)
(1.0996 0.013272 0)
(0.995526 -0.00498736 0)
(1.03706 -0.142335 0)
(-0.00375183 -0.0733408 0)
(0.855172 -0.122121 6.4444e-20)
(1.03201 -0.142578 -2.57441e-21)
(0.017794 0.0336713 -1.29015e-20)
(0.121084 -0.00410134 -2.02478e-19)
(1.19391 0.01661 1.42038e-20)
(0.271351 0.0286985 0)
(1.03687 -0.00488172 -5.59427e-21)
(0.959764 0.075208 -1.05121e-20)
(0.999059 -0.0380261 2.72206e-21)
(1.11073 0.00478462 2.43359e-20)
(0.290389 0.0538763 3.38004e-20)
(0.125077 0.0102552 -5.27773e-21)
(0.144163 -0.509151 1.29749e-19)
(-0.159372 -0.00531239 3.70582e-21)
(0.0970808 -0.372288 -6.53599e-20)
(0.0412961 0.0288869 3.23557e-20)
(1.00594 -0.00156127 0)
(0.997689 -0.00367101 -2.82328e-21)
(1.09847 0.0199817 8.30707e-23)
(0.883706 -0.143099 0)
(1.23184 0.0130509 5.94256e-20)
(1.02622 -0.244375 -2.8919e-21)
(0.304897 0.0555147 -1.50382e-20)
(0.212877 0.0469452 -3.36994e-20)
(1.0691 -0.0315725 1.75027e-20)
(1.00268 -0.0167124 -2.32754e-21)
(1.00784 -0.00484321 7.37432e-22)
(0.777658 -0.0295867 -3.06291e-21)
(-0.239511 -0.00381487 0)
(1.01693 -0.0136091 1.66094e-21)
(1.00941 -0.240755 4.46752e-21)
(1.00811 -0.00144893 -3.78015e-22)
(0.982413 -0.063831 0)
(1.03631 -0.00498205 1.13533e-20)
(-0.0196295 0.00649566 -4.32954e-21)
(0.261967 0.0358873 1.88427e-20)
(1.05763 -0.00266327 4.17496e-21)
(-0.0356208 -0.014483 1.99106e-20)
(1.00343 -0.000575655 1.19258e-22)
(1.05205 0.000833541 -1.20177e-20)
(1.09799 0.0185532 0)
(1.14343 -0.10526 -1.9025e-20)
(0.203324 0.0271538 -1.71217e-20)
(1.13328 -0.00654715 -1.7822e-20)
(1.09952 0.0147356 0)
(0.190187 0.0440864 0)
(0.0387596 0.010407 0)
(1.07247 -0.0356908 -1.7978e-20)
(0.936461 0.0794674 3.29261e-20)
(0.972776 -0.00552883 -1.58963e-20)
(1.15096 0.0150753 4.67288e-22)
(0.178133 0.0418665 0)
(0.315852 0.0496459 2.85383e-20)
(1.03815 -0.0505989 0)
(0.840635 -0.00387938 -1.82105e-20)
(0.998687 -0.00253653 8.58249e-21)
(1 -0.037557 -1.91828e-21)
(0.952767 -0.102392 1.10521e-20)
(0.280442 0.0296255 9.75724e-21)
(-0.217631 -0.0038441 1.31322e-19)
(1.00006 -0.00679645 0)
(0.236321 0.046212 3.20072e-20)
(-0.224566 -0.0204823 -2.42494e-19)
(1.00957 -0.00142735 2.12258e-21)
(0.997379 -0.00417053 0)
(-0.0321857 -0.0198761 -2.30082e-20)
(1.15334 -0.118246 6.78322e-20)
(1.1169 0.0649046 1.70662e-20)
(-0.10859 -0.0586195 0)
(0.336222 0.0436219 0)
(0.222024 0.0243701 -1.68787e-19)
(1.0313 -0.0743792 -1.07701e-21)
(1.00001 -0.00111738 0)
(1.089 -0.0324253 -1.97662e-20)
(0.870997 -0.0285928 3.2286e-20)
(0.99774 -0.00342498 -1.88595e-23)
(1.0068 -0.00770098 9.15329e-23)
(0.596394 0.0705604 -1.56145e-20)
(1.10676 0.0103805 -8.06625e-21)
(0.2111 0.0146682 0)
(0.595675 0.0729047 0)
(1.00844 -0.0013952 4.12046e-22)
(0.400028 0.324811 0)
(1.01785 -0.00110904 8.91098e-23)
(1.11009 0.0400209 -9.09416e-21)
(0.107305 0.0271961 0)
(1.02905 -0.0726325 0)
(1.04331 0.00109516 1.97873e-21)
(1.06728 -0.0322387 -1.17468e-20)
(1.16237 -0.168737 0)
(1.07338 -0.00159187 0)
(1.04693 -0.0268296 0)
(0.125915 0.0380493 0)
(1.00035 -0.0044073 2.38779e-21)
(1.08741 -0.043825 2.13929e-20)
(1.09829 0.0461329 2.42645e-20)
(1.04069 -0.0737235 5.11913e-21)
(1.00017 -0.00688364 0)
(1.02694 -0.0736681 0)
(-0.00680059 -0.0678424 0)
(1.01458 -0.0111988 -6.17093e-22)
(0.99804 -0.00319279 8.45846e-21)
(1.01657 -0.0133941 -1.64055e-21)
(0.987798 0.0790923 2.54544e-20)
(0.652897 0.0770753 -4.30283e-20)
(1.00122 -0.00751529 2.19249e-21)
(1.01533 -0.0447849 0)
(1.00698 -0.00759113 0)
(1.02035 0.0466541 0)
(1.00342 -0.0330988 0)
(0.131329 0.0119668 -4.88603e-21)
(1.15319 0.0357359 -1.66329e-20)
(0.982459 -0.020494 0)
(1.03203 -0.0020997 5.25338e-21)
(1.06871 -0.0134739 -1.41765e-20)
(0.341826 -0.138012 -8.47364e-20)
(0.0279524 0.012049 -1.83927e-20)
(0.913336 -0.0526309 -2.79927e-20)
(1.00033 -0.00443024 0)
(0.0662173 0.365367 5.41073e-22)
(0.669824 0.024538 2.14625e-22)
(1.04298 -0.0737549 2.33633e-21)
(0.997404 -0.00390346 -3.48785e-21)
(1.15578 0.0593876 -3.25957e-21)
(1.00407 -0.0173465 2.3728e-21)
(0.934259 -0.0166275 5.16643e-20)
(0.290027 0.0323948 0)
(1.14897 -0.118521 -5.52128e-20)
(0.94483 -0.155626 0)
(0.879992 -0.02329 -6.8782e-20)
(1.04776 -0.0263163 7.13731e-21)
(1.00293 -0.0323204 0)
(1.02529 -0.0060722 2.53872e-21)
(0.369417 0.0445793 -1.13698e-21)
(1.0085 -0.00964395 -2.87439e-22)
(0.242816 0.0482362 9.07025e-22)
(1.04377 0.00149131 0)
(1.03679 -0.00390374 0)
(0.504331 1.04718 8.9668e-20)
(0.125046 0.033196 0)
(1.18455 0.0299399 -5.3825e-20)
(0.256884 0.0484079 2.5833e-20)
(-0.0914309 0.00568248 -7.70688e-20)
(0.405187 0.0495775 0)
(1.03998 -0.00905672 -3.74467e-21)
(0.146153 0.0189099 0)
(1.15586 0.0585271 0)
(-0.0637121 0.0132245 -2.19649e-20)
(1.05096 0.000845379 1.13913e-20)
(0.999758 -0.00933358 4.48122e-21)
(1.01436 -0.0124234 -2.1246e-21)
(0.908798 -0.0493952 1.592e-20)
(1.02482 -0.0472015 -3.38204e-21)
(1.13804 -0.106253 9.44813e-21)
(0.991098 -0.0674688 9.86621e-21)
(1.09639 0.0460193 -1.14108e-20)
(0.998103 -0.0030329 -6.27978e-21)
(1.00731 -0.00455934 -8.48847e-22)
(0.69876 0.0555393 1.94183e-20)
(1.07596 -0.0303557 7.04821e-21)
(0.683513 0.02812 0)
(1.10136 0.0105268 -1.82014e-20)
(0.999603 -0.00948598 0)
(1.02478 -0.0060848 -5.02032e-21)
(1.0052 -0.00596712 0)
(0.319424 0.0404333 -6.36923e-21)
(-0.0198137 0.044449 -8.8052e-21)
(1.00021 -0.00652279 1.4874e-21)
(1.01279 -0.00976115 0)
(0.993688 -0.00672335 4.73242e-21)
(0.999931 -0.000464839 0)
(1.0824 -0.301878 -2.10415e-20)
(1.00005 -0.000559018 0)
(0.429234 -0.0103228 0)
(0.379631 -0.808563 6.8301e-21)
(1.00638 -0.00611078 0)
(1.00366 -0.0174156 -1.60679e-21)
(1.19408 0.0550838 3.58529e-20)
(0.152296 0.0399892 0)
(0.656104 0.913784 1.8462e-20)
(-0.0601285 0.014345 4.33855e-20)
(1.00003 -0.00173652 3.58146e-21)
(1.10137 0.012348 1.9251e-20)
(1.18365 0.032687 8.91775e-20)
(1.03705 -0.00428463 7.42593e-22)
(-0.0324477 -0.0108358 4.48929e-20)
(1.12831 0.0777536 1.93918e-20)
(1.07738 -0.0134052 1.10929e-20)
(1.03975 -0.0664807 5.37974e-21)
(0.988206 -0.0126557 4.19861e-21)
(0.997108 -0.00439954 0)
(1.00002 -0.000147392 6.06356e-22)
(0.21337 0.0286242 0)
(0.988825 -0.0124609 -3.18103e-21)
(1.02076 -0.0011314 0)
(1.07799 -0.0179012 4.24464e-21)
(1.02381 -0.00988361 -1.34387e-21)
(0.310334 0.0341359 0)
(1.14911 0.0574037 6.0485e-20)
(0.999964 -0.00191564 -2.94499e-21)
(0.998215 -0.0027073 6.22936e-21)
(-0.278096 -0.0126698 -4.39778e-20)
(1.01195 -0.0113999 0)
(1.01117 -0.0109094 0)
(1.0211 -0.0419754 1.27393e-21)
(1.22168 0.00170208 7.16728e-20)
(0.146127 0.0325063 -1.43884e-20)
(1.00005 -0.000792472 0)
(1.08202 0.060911 0)
(1.05188 -0.000964026 -6.13308e-21)
(1.03633 -0.00577173 -1.52359e-20)
(0.202545 0.0129783 3.27122e-20)
(0.216517 0.0160905 0)
(0.982712 -0.0446438 3.37377e-21)
(1.0843 0.0396999 5.3989e-20)
(-0.16437 0.00520521 -1.89253e-19)
(0.938108 -0.177071 0)
(1.08183 0.0696655 4.70465e-20)
(1.06913 -0.0178857 7.01142e-21)
(1.08516 -0.0345766 2.77328e-21)
(1.15773 -0.172563 0)
(1.01129 -0.441108 -4.32303e-21)
(1.02006 -0.000266702 3.07203e-21)
(0.999035 -0.00696475 -6.53862e-21)
(1.04675 -0.0289961 1.57284e-22)
(0.995208 -0.0148575 0)
(0.321979 -0.0293252 0)
(1.00906 -0.0780874 1.50303e-21)
(0.442677 -0.440053 3.09566e-20)
(0.99997 -0.000803632 -3.28369e-21)
(1.29114 -0.168924 0)
(0.997665 -0.0206075 0)
(-0.0210213 0.03861 8.49389e-21)
(-0.060256 -0.00264686 -2.69233e-21)
(0.914461 -0.0050943 1.64171e-20)
(0.380181 0.0464273 7.15578e-20)
(0.945214 -0.164444 0)
(1.04757 -0.0282892 0)
(1.09197 0.0219019 -2.10524e-20)
(0.302577 0.0328061 0)
(0.989602 0.0756885 -5.23633e-20)
(1.00038 -0.000165343 -5.54107e-22)
(0.361791 -0.00907309 4.19683e-20)
(1.09744 0.000524058 0)
(1.02262 -0.00829886 0)
(0.732362 0.0358711 0)
(0.132291 0.0312828 -3.60455e-20)
(1.00237 -0.0169441 -3.26142e-21)
(0.41313 0.0548201 0)
(0.186814 0.0202405 3.56162e-20)
(0.999957 -0.00772224 -1.96771e-22)
(-0.139645 -0.00914398 -3.15537e-21)
(1.08467 -0.313603 -1.1063e-20)
(1.03572 -0.00590533 1.30268e-20)
(0.788149 -0.0290864 2.44534e-21)
(0.634302 0.0733855 -1.65373e-20)
(1.23275 0.022906 -1.27528e-20)
(1.09474 0.0235559 -1.05052e-20)
(0.286724 0.0479423 3.8032e-20)
(0.0869481 0.340364 1.64793e-20)
(1.15108 0.0594087 3.21782e-20)
(1.16071 -0.0189453 2.64733e-20)
(1.02337 -0.00966732 3.64649e-21)
(-0.202486 -0.0111767 -7.66307e-20)
(0.993308 -0.0184159 -4.46857e-21)
(0.99775 -0.0361419 0)
(0.353595 0.0488096 -9.33934e-20)
(1.10189 0.0677831 -1.8107e-20)
(1.00206 -0.060964 4.85007e-21)
(0.982546 -0.0429615 -3.10326e-21)
(1.09587 0.00117215 1.80227e-21)
(1.06776 -0.0170629 -6.73989e-21)
(0.973553 -0.00632766 1.23148e-20)
(1.01485 -0.0126919 2.15988e-21)
(1.01712 -0.00170212 0)
(1.04221 -0.222217 8.03925e-21)
(-0.0162134 0.0175914 0)
(1.00499 -0.00561366 -4.57897e-23)
(1.10819 0.0401762 1.37646e-20)
(0.999955 -0.000368371 -1.98742e-21)
(0.0995308 0.0171087 -2.30254e-20)
(0.999119 -0.00671455 2.05833e-21)
(1.00327 -0.000388613 -1.47733e-22)
(1.1381 0.0758529 -1.42911e-20)
(0.822036 0.0703387 -2.8501e-20)
(0.992397 -0.235173 0)
(0.316918 0.043614 0)
(1.00371 -0.00993556 0)
(1.00325 -0.00975265 7.51026e-22)
(0.20959 0.0484845 -3.68954e-20)
(0.888234 -0.161297 -1.045e-19)
(1.14649 -0.10917 2.08205e-20)
(1.04855 -0.0042498 -1.11298e-20)
(0.617382 -0.354685 0)
(0.530891 -0.0657038 1.02971e-19)
(1.00015 -0.00329743 1.20438e-21)
(0.998855 -0.00287335 2.97121e-24)
(1.00001 -0.00200132 -5.2229e-21)
(1.03542 -0.0529342 1.16291e-21)
(0.383019 0.0468392 -1.65863e-20)
(0.21715 0.0482334 -1.06901e-20)
(0.996079 -0.0346905 2.45192e-21)
(1.00708 -0.056208 0)
(0.64433 0.122106 -9.40223e-22)
(-0.164442 -0.00436136 0)
(-0.167931 -0.00422005 -4.92383e-20)
(1.02098 -0.00113221 2.29888e-21)
(0.970171 -0.0481594 -3.14973e-21)
(0.625456 0.86105 -4.48452e-20)
(0.998115 -0.0371516 -2.76963e-21)
(0.998714 -0.00218843 0)
(1.00089 -0.00752594 0)
(1.01801 -0.00811771 -2.96171e-21)
(1.15202 -0.0501936 0)
(0.481518 -0.276128 9.26586e-20)
(0.719049 -0.767754 0)
(1.02885 -0.454001 2.07518e-20)
(1.00148 -0.00779094 3.11233e-21)
(1.19707 0.00620036 2.28455e-20)
(1.00788 -0.0120075 -1.10905e-23)
(1.00002 -0.000324589 -1.07463e-22)
(0.247982 0.0136584 6.55103e-20)
(0.966763 -0.764706 1.66403e-20)
(1.04474 -0.202962 5.94394e-21)
(0.591837 0.0706012 2.10681e-21)
(0.27357 0.0367619 -7.12737e-21)
(0.876428 0.0714199 4.80137e-20)
(0.192612 0.0475061 2.74627e-21)
(1.22434 -0.0598482 -3.15295e-20)
(0.24852 0.0476752 -8.8625e-20)
(0.0488608 0.00913668 -2.77192e-20)
(1.10183 0.0497546 1.49832e-20)
(-0.0138688 0.00832648 3.21071e-20)
(0.995994 -0.017237 1.7433e-21)
(0.684865 0.0505944 0)
(1.0393 -0.0495384 4.80308e-21)
(1.05437 0.00067789 -1.7653e-20)
(0.659394 0.110506 8.41854e-22)
(1.11821 0.0793637 0)
(0.990652 -0.0630957 7.51514e-21)
(1.29938 -0.0980574 0)
(1.02291 0.0709701 1.10058e-20)
(1.1095 -0.00081572 -2.18658e-20)
(0.999881 -0.00088354 1.07453e-20)
(0.982142 -0.0111406 -8.35101e-23)
(0.939351 -0.741022 -7.84968e-21)
(0.168024 0.0362851 0)
(0.337357 0.0473659 -3.83754e-20)
(1.02205 -0.00235443 2.18213e-21)
(1.29138 -0.0950105 0)
(-0.0724371 -0.0192754 1.36217e-23)
(0.963819 -0.0136139 0)
(1.05239 -0.00172733 1.29711e-20)
(0.993373 -0.00659291 -2.63481e-21)
(0.926692 -0.0277602 -1.74003e-20)
(0.771999 -0.314486 -5.61116e-20)
(-0.244742 -0.00963921 1.64747e-19)
(1.00016 -0.000620839 -7.41751e-22)
(0.326041 0.0566481 0)
(0.999028 -0.00586387 0)
(0.325008 0.0483734 -3.28587e-20)
(1.0673 -0.0562908 -7.23434e-21)
(1.01617 -0.0418557 -3.50202e-22)
(1.06961 -0.0710026 -1.06986e-20)
(-0.206544 -0.00498931 -1.18917e-19)
(1.0325 -0.00184298 -2.73672e-21)
(1.00247 -0.00524733 0)
(0.0237643 0.0195978 6.99532e-20)
(0.261751 0.0527429 9.63741e-21)
(1.17379 -0.167958 -5.27166e-20)
(0.886544 0.0771793 3.96049e-20)
(1.04801 -0.00483514 1.18219e-20)
(1.00108 -0.00714159 0)
(0.999269 -0.00148376 -1.27286e-21)
(-0.0149493 -0.0152407 -5.34808e-21)
(0.734548 -0.262034 1.05092e-20)
(-0.0190092 -0.0222478 0)
(1.08962 -0.0611592 -1.79066e-20)
(0.675582 -0.812129 0)
(0.297192 0.0510206 -1.5657e-20)
(1.09896 0.0175568 -2.59685e-20)
(-0.232968 -0.00466242 -5.80565e-22)
(0.969498 -0.0467212 3.11437e-21)
(-0.226831 -0.0025727 1.50054e-20)
(1.01793 -0.00708617 0)
(0.531679 -0.0332798 0)
(0.304381 0.046551 2.30488e-20)
(0.706031 -0.211261 1.10491e-19)
(1.07004 -0.0129891 1.46204e-20)
(0.393078 0.048289 0)
(-0.253018 -0.003705 1.54619e-19)
(1.00234 -0.00612701 0)
(0.641917 -0.158332 -8.26741e-20)
(0.992322 -0.0198697 3.58453e-22)
(1.00011 -0.000574287 -9.02458e-22)
(-0.139068 -0.00696245 -2.8139e-20)
(0.164914 0.0416702 0)
(0.999965 -0.00203742 6.11528e-21)
(1.00005 -0.00751487 0)
(1.01513 -0.00119961 -2.12883e-21)
(0.112506 -0.477362 -5.13765e-20)
(0.194229 0.0323948 5.69432e-20)
(1.00261 -0.00555965 0)
(1.19243 0.030995 -3.28584e-20)
(1.04057 -0.0685796 -7.44242e-21)
(1.04318 -0.000119498 0)
(1.00355 -0.00945235 -5.82477e-22)
(1.17335 -0.0867695 3.11741e-20)
(1.19703 0.00897011 -1.66639e-20)
(1.07365 -0.0397648 -1.74124e-20)
(0.720469 -0.131591 -4.13677e-20)
(1.00029 -0.00660803 -2.94552e-21)
(1.00752 -0.00480077 8.08634e-22)
(0.616413 0.0733453 0)
(-0.0863671 -0.00923343 0)
(1.15896 0.0574417 -6.13789e-21)
(0.0388551 0.0073513 -7.24679e-21)
(0.167095 -0.104864 -5.11636e-20)
(0.970879 -0.0113373 -2.04161e-20)
(-0.062463 -0.0187499 5.21384e-20)
(0.719419 -0.118283 -3.97139e-20)
(0.944571 -0.0482987 2.12356e-20)
(0.2041 -0.702108 -2.6146e-20)
(1.06814 -0.244512 0)
(1.06324 -0.055858 0)
(1.08646 -0.148816 -1.06985e-20)
(0.305086 0.0329232 0)
(0.910517 -0.00420905 0)
(1.15855 -0.0215722 -2.63539e-20)
(1.03073 -0.0536888 9.00245e-22)
(1.08615 -0.0794292 -8.22899e-22)
(-0.106992 -0.0156787 -5.43638e-20)
(1.00234 -0.00597097 -1.09377e-21)
(0.533263 0.0657209 3.33582e-20)
(1.15547 -0.051995 -1.30925e-20)
(0.908976 -0.234465 -2.15734e-20)
(0.96561 -0.175166 -1.15713e-20)
(1.0234 -0.00913241 0)
(1.05035 -0.00381302 -2.91117e-21)
(0.229364 0.0151319 1.71138e-20)
(1.00225 -0.00510457 -9.12505e-22)
(0.999098 -0.00561875 -2.12238e-21)
(1.15933 0.00939442 -2.9534e-20)
(1.02123 -0.0084252 -2.08157e-21)
(1.15218 -0.108082 -2.29183e-20)
(1.04372 0.000277868 -2.23374e-21)
(1.15789 0.031722 9.5888e-21)
(0.9794 -0.0311431 5.24154e-21)
(1.09252 -0.0573588 -3.01403e-20)
(1.02462 -0.00652872 0)
(0.444181 -0.413383 -1.49156e-19)
(0.0258809 0.00778228 0)
(0.0837628 0.509478 -1.16741e-19)
(1.03217 -0.0529934 0)
(-0.06859 0.00462895 0)
(0.197937 0.0468853 2.20128e-20)
(0.547251 -0.0218629 0)
(1.03648 -0.00216001 0)
(0.217955 0.0380826 -5.09437e-20)
(0.966255 -0.00499924 2.07642e-20)
(0.0489755 0.124422 -5.48082e-21)
(0.995792 -0.00518601 0)
(0.666177 -0.119308 -8.38948e-20)
(1.17021 0.0372998 0)
(-0.0246689 0.0456397 1.63285e-20)
(-0.0959657 -0.00976962 -4.74941e-20)
(1.26174 -0.0031338 -7.6329e-20)
(0.235572 0.0327946 1.52667e-20)
(1.02131 -0.000681691 -6.52227e-21)
(0.086563 0.0076745 0)
(1.00563 -0.000682047 0)
(0.914434 -0.068648 -8.58529e-21)
(0.947586 -0.0491734 0)
(0.989551 -0.0113049 6.63024e-21)
(1.00224 -0.00078699 0)
(0.118272 0.0181046 -1.09682e-20)
(1.10827 0.0365652 1.28443e-20)
(1.04643 -0.0322433 7.01891e-21)
(0.374594 0.059931 3.56822e-20)
(0.387372 -0.0818205 0)
(0.787305 -0.136265 -1.91919e-20)
(1.02137 -0.000789679 3.9523e-21)
(0.952109 -0.0819398 1.93553e-20)
(1.00005 -0.00110886 0)
(1.01228 -0.0118256 8.09611e-22)
(1.01778 -0.00777911 0)
(0.994903 -0.0208703 2.94191e-21)
(0.476471 -0.308805 -8.32905e-20)
(1.06709 -0.0712105 7.87329e-21)
(0.788547 0.0650383 -6.46384e-20)
(-0.109449 0.0109614 3.40722e-20)
(0.0968031 0.0114801 -1.40085e-20)
(-0.135911 0.006881 -7.98683e-20)
(0.772003 -0.441529 -2.98547e-21)
(0.910944 0.00396103 -9.66891e-21)
(0.998956 -0.0023701 3.6735e-21)
(1.12553 0.0415669 -2.97412e-20)
(1.0085 -0.00913939 -3.71131e-22)
(0.124477 0.0167382 -4.76459e-20)
(0.26887 0.0249187 1.43521e-20)
(1.02207 -0.00820096 0)
(1.09066 -0.0922059 -1.03852e-21)
(0.339844 0.0399265 0)
(0.363184 0.0557685 -1.90297e-20)
(0.597467 0.0710776 -2.03815e-20)
(1.09486 -0.0566708 8.40862e-21)
(0.914594 0.00436331 0)
(1.0205 -0.018211 -2.57906e-21)
(0.286036 0.0327434 1.91429e-20)
(0.0948674 0.00933272 0)
(1.00181 0.0663485 2.05498e-20)
(1.06129 -0.250156 1.06541e-20)
(1.24497 0.0185479 -7.74887e-20)
(-0.0448257 -0.00847184 0)
(1.05104 -0.245866 -1.33045e-20)
(0.149981 0.0189317 3.25889e-20)
(0.96547 -0.298366 1.19657e-21)
(0.796357 -0.446273 -1.53791e-20)
(1.00355 -0.0100854 7.34901e-22)
(-0.0114469 0.00775581 -3.95094e-20)
(1.1114 0.0410169 4.82909e-21)
(1.10721 0.0347815 -3.91699e-20)
(0.248286 0.0345412 0)
(1.01497 -0.0170509 -1.45187e-21)
(1.11629 0.0525232 0)
(0.72111 -0.216792 0)
(1.01553 -0.0171 1.74545e-21)
(1.14076 0.0621785 1.73713e-20)
(0.962304 0.0768528 3.92356e-20)
(0.19892 0.0265375 -3.07407e-21)
(0.290521 0.0239558 8.67818e-20)
(0.865883 0.00830314 -2.15863e-20)
(1.08757 -0.0491288 0)
(1.00207 -0.000802936 0)
(0.630739 -0.33531 0)
(1.12744 -0.603619 2.68025e-20)
(0.945741 -0.0861583 -5.86974e-21)
(0.16587 0.0219089 -8.02313e-20)
(1.00319 -0.0226484 2.12048e-21)
(0.33185 0.0547083 2.91328e-20)
(0.187893 0.0438455 0)
(1.07488 -0.00998796 1.78575e-21)
(0.984437 -0.0764312 0)
(0.999965 -0.000904455 0)
(0.884116 -0.127649 1.57129e-20)
(1.00009 -0.00126092 -6.09083e-22)
(0.497231 -0.0959254 8.57797e-20)
(1.12649 0.0437825 0)
(0.0701034 0.0211971 1.46742e-19)
(1.01411 -0.0108655 9.87724e-22)
(1.01566 -0.0164656 0)
(1.01996 -0.0183827 -2.50148e-21)
(0.770953 -0.225291 -4.70509e-20)
(0.0711089 0.0422794 9.20226e-20)
(0.853866 0.000591359 -1.95134e-20)
(0.461712 -0.109858 9.48674e-20)
(1.10438 0.0400292 0)
(1.18949 0.028064 5.34874e-20)
(0.996085 -0.00494824 0)
(1.00086 -0.000445859 1.63702e-23)
(1.29211 -0.247203 -3.9557e-20)
(1.00154 -0.0628566 -2.16075e-21)
(1.14753 0.072765 0)
(0.0507181 -0.414604 0)
(0.801067 -0.245049 9.34891e-22)
(1.2374 0.0120698 0)
(1.03875 -0.0307234 -1.9108e-21)
(0.0896941 0.0183745 -5.67248e-21)
(0.547806 0.0669519 2.20798e-21)
(0.626098 0.333986 -4.56578e-21)
(1.05728 -0.00188098 -1.27925e-20)
(1.01199 -0.00149419 -2.47094e-23)
(1.04754 -0.0328454 -6.62344e-21)
(0.999392 -0.00439978 0)
(1.17684 0.041177 5.16381e-20)
(0.990705 -0.0778113 0)
(1.02334 -0.0115824 7.9882e-21)
(1.14012 0.0636765 0)
(0.954937 -0.0331025 1.39128e-20)
(-0.0181202 -0.019605 -1.58572e-20)
(1.0379 -0.398077 -2.80786e-20)
(0.937631 -0.168781 -1.78226e-20)
(1.00611 -0.006098 -1.88426e-22)
(0.316779 0.0357508 -1.31297e-21)
(1.03287 -0.00323445 1.03333e-20)
(1.0761 -0.0113316 -7.60388e-23)
(0.0948298 -0.00821664 -8.79579e-21)
(0.648595 -0.122541 0)
(1.00311 -0.00990541 0)
(1.03787 -0.413667 -1.94379e-21)
(0.340708 0.0524057 -7.23475e-21)
(1.02881 -0.0155561 -4.70729e-21)
(1.00077 -0.00715771 0)
(0.996946 -0.0170757 0)
(0.775024 -0.133173 -2.62179e-20)
(-0.0212445 0.0512795 -3.28802e-20)
(1.00249 -0.00565745 2.28797e-22)
(0.209293 0.0113792 -3.93134e-20)
(1.00005 -0.000748795 0)
(-0.192855 -0.0129894 0)
(0.438719 -0.0519273 -1.17865e-19)
(-0.0194118 -0.0154351 0)
(-0.00488617 0.0387079 -1.42462e-20)
(0.998148 -0.243542 0)
(1.08952 -0.0481753 1.45538e-20)
(0.372194 -0.132133 -4.92837e-20)
(1.00508 -0.000719683 -6.95424e-22)
(1.01097 0.0736466 3.81726e-20)
(1.02826 -0.0157452 0)
(1.00952 -0.00392384 -2.35305e-22)
(1.02259 -0.00298106 0)
(1.03818 -0.0188366 -1.33206e-20)
(0.31355 0.0431928 -3.65867e-21)
(1.02442 -0.023602 -1.79126e-21)
(1.00212 -0.00479938 8.68382e-22)
(1.01442 -0.0436548 -6.47762e-23)
(1.0237 -0.0113209 -3.02126e-21)
(0.994478 -0.597032 2.16677e-20)
(0.971772 -0.0516777 7.6542e-22)
(-0.228391 -0.00610073 6.72221e-20)
(1.00369 -0.00930404 5.74101e-22)
(0.999479 -0.00403596 3.97748e-21)
(1.00256 -0.0061651 0)
(0.534044 0.0655518 0)
(0.0192721 0.00403764 6.94283e-20)
(0.197596 0.179836 8.20207e-20)
(0.463699 -0.425317 -7.92249e-20)
(1.00927 -0.00400125 -2.7989e-22)
(0.25678 0.034357 -2.76197e-20)
(0.154528 0.0399896 -1.06084e-20)
(1.03499 -0.0516196 1.61877e-21)
(1.00034 -0.013993 -3.81047e-21)
(0.179319 0.0136453 0)
(0.11648 0.0206233 1.84649e-20)
(1.05981 -0.0579293 6.01507e-21)
(1.14076 0.0417486 1.46786e-20)
(0.700098 0.0770909 2.0435e-20)
(1.0501 -0.22007 0)
(1.03683 -0.00261303 -9.97998e-22)
(1.12076 0.0147058 2.27245e-21)
(1.08511 -0.0819705 1.99667e-21)
(1.11945 0.0163104 -1.88078e-21)
(0.374269 0.0558025 3.40757e-21)
(0.328608 -0.0366637 -4.26771e-20)
(1.02528 -0.00533479 -2.89652e-23)
(0.124969 0.0116723 8.93821e-23)
(1.01618 -0.0165008 -1.53645e-21)
(1.31127 -0.116506 0)
(1.10515 0.0350046 -2.59166e-21)
(1.13528 -0.10186 0)
(0.988952 -0.0115541 3.67712e-21)
(0.0127934 0.00606168 0)
(0.222217 0.014291 2.41384e-20)
(1.0584 0.0714521 2.76041e-20)
(0.999153 -0.00146146 6.42425e-21)
(1.09556 0.0444132 2.19551e-20)
(1.02379 -0.00897117 0)
(0.0877224 0.00934818 3.01015e-20)
(1.00219 -0.00601345 -1.39029e-21)
(1.09115 0.0187258 1.43754e-20)
(1.05072 -0.0226732 -8.13258e-21)
(1.00837 -0.0113444 -1.60006e-22)
(0.795664 -0.259438 -1.11036e-21)
(1.0078 -0.075636 -4.24316e-21)
(0.99774 -0.00623165 7.99485e-21)
(0.258978 0.105482 1.37393e-19)
(1.00126 -0.0056137 1.16374e-21)
(0.259752 0.0434148 -1.18305e-20)
(1.08656 -0.0400388 -2.8518e-20)
(1.20577 -0.427556 -6.2153e-20)
(0.999487 -0.0287667 7.4859e-21)
(1.14663 0.0567376 -6.33507e-20)
(0.954619 -0.30354 0)
(0.996495 -0.0358834 -2.61761e-21)
(-0.198048 -0.0107241 0)
(1.28671 -0.0844723 -5.41395e-20)
(0.657185 0.0739904 -5.01547e-21)
(0.999042 -0.0023912 0)
(0.928675 -0.0175721 0)
(1.2187 -0.0531046 -1.34663e-20)
(0.644495 0.0742439 6.60053e-21)
(1.00022 -0.0144601 4.33654e-21)
(1.0075 -0.0526288 7.68676e-22)
(1.06091 -0.00341045 9.69258e-21)
(0.511258 0.0634169 -4.54354e-20)
(1.02037 -0.00356166 -5.3911e-21)
(1.15561 -4.38231e-05 2.62201e-20)
(1.17786 0.0393152 3.22479e-20)
(0.972955 -0.0530885 2.88811e-21)
(1.02081 -0.0016661 0)
(1.00076 -0.000468015 3.65042e-23)
(1.00653 -0.00682678 -1.57413e-23)
(1.11624 -0.133018 2.57931e-20)
(1.02178 -0.00857989 4.34691e-21)
(0.969524 -0.565929 -1.4713e-20)
(1.10378 -0.0314457 -4.45674e-23)
(1.02484 -0.00522874 -2.17034e-23)
(1.02304 -0.0706158 4.73879e-21)
(-0.0622103 0.00700776 0)
(1.00484 -0.0176208 0)
(1.06284 -0.042454 -1.16791e-20)
(1.01147 -0.0113347 -5.32102e-22)
(1.00202 -0.00585284 1.28957e-21)
(1.15294 -0.0629249 -4.46502e-20)
(1.14329 0.0576932 2.71045e-20)
(0.0663999 -0.497394 6.32961e-20)
(1.13652 0.0744643 -2.36529e-20)
(1.0566 -0.0103791 -8.10126e-21)
(1.03994 -0.0310292 5.75511e-21)
(-0.227155 -0.0051428 1.33613e-19)
(0.136561 -0.101469 6.6053e-20)
(0.837472 0.0593581 9.10456e-20)
(-0.0537596 0.0042283 0)
(0.712229 -0.263337 -1.10048e-19)
(1.15867 0.0585821 -3.42568e-21)
(1.00354 -0.00885133 0)
(1.08671 -0.0907321 -1.44753e-20)
(-0.260824 -0.00709287 0)
(0.0194385 0.008301 0)
(0.149957 0.0337149 -2.02401e-20)
(1.00114 -0.00536804 -1.60813e-21)
(0.965321 -0.303049 3.02701e-21)
(1.05358 -0.21218 0)
(-0.12382 -0.0220986 1.10342e-19)
(-0.0859659 0.0129533 3.40382e-20)
(0.998083 -0.0105946 -2.80063e-21)
(0.678542 0.117764 0)
(0.924116 -0.0253043 -1.70649e-20)
(0.0932352 0.209221 4.63376e-22)
(-0.0530375 0.00998435 0)
(0.127054 0.54992 1.51249e-19)
(1.01322 -0.0101314 8.92465e-22)
(1.26088 -0.0122972 1.62822e-20)
(1.00002 -0.000179701 4.62079e-24)
(1.03674 -0.00124985 0)
(0.205335 0.0224015 7.68588e-20)
(0.999999 -1.58374e-05 0)
(1.05151 -0.00397484 -1.39079e-20)
(-0.112196 -0.0637753 9.68441e-20)
(-0.0442452 0.0139923 -1.58656e-20)
(1.0068 -0.00700727 0)
(0.101917 0.0148103 1.3724e-20)