/*--------------------------------*- C++ -*----------------------------------*\
| =========                 |                                                 |
| \\      /  F ield         | OpenFOAM: The Open Source CFD Toolbox           |
|  \\    /   O peration     | Version:  v2012                                 |
|   \\  /    A nd           | Website:  www.openfoam.com                      |
|    \\/     M anipulation  |                                                 |
\*---------------------------------------------------------------------------*/
FoamFile
{
    version     2.0;
    format      ascii;
    class       volScalarField;
    location    "250";
    object      ddt0(epsilon);
}
// * * * * * * * * * * * * * * * * * * * * * * * * * * * * * * * * * * * * * //

dimensions      [0 2 -4 0 0 0 0];


internalField   nonuniform List<scalar> 
18618
(
-1.44371e-05
0.000412298
-2.60154e-13
2.30998e-05
2.7103e-12
5.18734e-06
7.92881e-11
0.000443173
3.37198e-10
2.24699e-09
-6.79548e-11
-1.79926e-11
2.34959e-05
-2.01455e-10
-1.69013e-11
6.83428e-12
3.13781e-11
5.53535e-05
2.87421e-11
3.06696e-10
1.13814e-06
1.56121e-11
-4.75967e-12
-1.06336e-09
2.05952e-12
5.98401e-09
-1.14828e-05
-2.17358e-12
-2.01366e-12
-1.23369e-11
-9.62407e-12
1.54271e-10
1.71438e-10
-2.73723e-10
-3.8597e-05
-1.20702e-10
-4.01872e-11
4.04949e-06
5.52168e-10
4.47261e-11
7.56995e-05
-6.3632e-06
2.58424e-11
-5.45544e-05
6.11516e-10
3.63776e-10
0.000338049
-5.26806e-11
1.65548e-05
0.00039818
-3.5587e-13
7.40717e-11
-0.000101984
0.000105282
2.57911e-11
0.000225356
-1.74886e-10
1.98723e-10
5.44004e-10
2.46332e-10
-5.93996e-11
-3.56861e-11
2.81405e-10
-1.16297e-10
2.66446e-08
9.20136e-05
1.44693e-11
-1.28459e-10
-1.55422e-11
-2.23419e-05
-1.67358e-11
-7.2497e-06
-1.16059e-09
1.21377e-05
-2.14803e-11
-2.90914e-10
9.946e-08
0.000414276
2.58645e-11
0.00017067
-4.66883e-05
3.71115e-05
1.95244e-05
-2.22202e-09
1.70882e-10
-1.34195e-11
-2.0589e-09
1.70944e-09
-1.82518e-09
5.22387e-05
-1.31711e-09
1.45876e-07
-5.23088e-05
6.04352e-08
-8.87147e-05
-1.40694e-10
3.12673e-11
0.000142056
-2.27677e-10
-8.1493e-12
-9.01705e-05
-5.84149e-11
3.82237e-08
1.6004e-10
-1.11451e-09
0.000146531
1.15287e-11
1.59926e-11
9.29712e-09
1.30785e-11
0.000750959
1.3716e-11
-6.43539e-11
1.98729e-11
2.44672e-11
2.30544e-11
3.06868e-11
-7.20324e-05
-6.17191e-11
-2.67509e-09
0.000104346
-5.9566e-11
0.000326184
4.38734e-05
-1.86134e-05
1.31203e-07
0.000404847
3.19977e-05
9.49256e-11
-1.64426e-10
-1.8488e-09
1.34329e-11
1.55887e-05
-9.09903e-07
5.97385e-11
-5.42891e-11
3.323e-11
9.3233e-11
0.000177501
4.53732e-11
-1.58302e-11
5.57788e-11
-3.57105e-11
-8.48339e-12
-1.52269e-11
4.35089e-09
-9.99717e-11
-1.56049e-11
0.000123312
-1.58602e-10
-1.19795e-10
-8.23069e-05
0.000145462
2.76227e-11
-2.13921e-11
-8.43104e-06
8.68618e-05
4.9348e-05
4.76496e-10
-5.30955e-12
-3.49317e-12
4.90144e-05
1.45919e-10
-1.81845e-07
1.65139e-11
3.57469e-05
-2.0567e-11
5.24531e-11
-4.48879e-05
-2.78553e-10
-2.86944e-10
1.26482e-11
-2.29923e-09
-1.10299e-09
-2.50685e-06
-2.88968e-10
-1.98313e-06
3.5763e-05
4.16561e-11
-6.92853e-12
-7.99354e-10
-1.07428e-09
-1.00161e-10
9.28938e-11
0.000272427
2.05729e-11
8.80364e-11
-9.48987e-10
-1.45999e-06
8.87177e-06
6.81064e-11
-1.15073e-09
5.89227e-05
5.02904e-11
-4.21095e-08
-7.65278e-08
-7.7749e-10
1.46324e-05
-3.13195e-10
4.34947e-06
4.51322e-06
-6.7449e-05
3.57877e-10
-1.11822e-10
-3.21288e-05
1.26729e-05
9.92246e-05
-9.90596e-05
2.18458e-10
-1.65729e-05
1.52347e-06
1.80759e-11
-3.39048e-05
0.000151297
8.82405e-11
-1.90096e-11
-5.23924e-08
-3.49056e-05
-2.72978e-11
-3.38527e-05
-6.7399e-11
1.63247e-10
1.21885e-11
1.46298e-08
9.34205e-10
7.57371e-10
-2.31541e-11
-4.4729e-11
-2.01349e-05
-3.91437e-10
3.42729e-06
-1.82366e-07
-3.1591e-11
-3.28205e-10
-3.70286e-11
-2.27435e-10
1.8955e-10
-2.58742e-09
-7.81025e-12
-1.15516e-05
3.22923e-10
2.48326e-10
1.56297e-11
-1.82385e-09
-8.20496e-05
6.68678e-11
-1.26746e-09
-1.60238e-05
3.90698e-11
1.33681e-10
-0.000157477
-7.34963e-07
2.77252e-11
-0.000162124
-1.15119e-10
2.04398e-11
-2.09199e-10
-1.43821e-10
1.2594e-12
-1.84683e-09
3.27517e-08
-1.57724e-10
1.11059e-08
0.000295572
-4.86733e-07
-5.92901e-11
-1.58209e-10
1.1269e-05
-5.19787e-11
-1.9176e-10
-3.18398e-10
-1.02078e-10
-3.16927e-11
-2.59516e-11
5.84765e-12
-2.19528e-05
-2.05681e-10
-2.92317e-11
-1.85549e-05
-6.73511e-12
1.02624e-10
-5.88608e-11
-0.000246963
-1.37269e-05
7.0456e-10
7.2759e-05
-7.76606e-11
3.44804e-09
-7.79448e-12
1.48119e-08
-2.29398e-11
7.10381e-10
-2.94902e-12
-9.44565e-11
6.30866e-05
-1.69246e-11
2.61214e-11
-1.26327e-11
0.000141965
-8.97832e-05
-8.72494e-06
-0.000316507
0.00023557
-1.27593e-09
-5.85694e-10
-1.51827e-06
6.21977e-05
2.87798e-11
-1.74091e-10
-1.34745e-09
-9.81092e-11
-9.03445e-10
2.43514e-11
-5.59256e-11
-2.51362e-11
6.48155e-05
-8.5391e-05
7.32239e-07
-1.96884e-10
1.71868e-11
-1.43541e-10
-3.71643e-08
-1.02744e-09
6.05045e-05
-1.04798e-11
-1.86635e-07
0.000174181
2.33053e-11
-1.17695e-09
-2.19923e-10
7.57513e-11
1.81546e-11
-8.28607e-10
-3.08888e-11
3.15737e-10
3.14578e-11
-4.85015e-08
-3.02882e-12
-7.26122e-05
9.86129e-06
5.3471e-11
-3.35274e-06
-3.76619e-11
2.47179e-11
-7.17166e-12
1.76104e-09
-1.69961e-08
2.34489e-10
8.1024e-05
-1.54486e-10
-0.000151222
1.54703e-10
8.51417e-11
4.65239e-10
-6.53569e-07
-1.38077e-08
1.09174e-11
-2.30643e-06
2.63775e-11
1.25258e-10
4.93457e-05
0.0001257
1.63273e-06
-1.43256e-08
0.000120278
0.000345883
-1.04065e-10
-2.1084e-10
2.40898e-07
-1.09081e-11
-1.73582e-12
3.93356e-12
5.26914e-05
-9.49243e-05
1.22321e-11
8.3285e-11
0.000279974
-2.11652e-11
4.64476e-06
2.44304e-06
-1.75576e-09
1.48693e-10
-6.39122e-05
-0.000197044
1.90901e-11
6.22213e-11
-4.90537e-11
1.27212e-07
7.50685e-12
-1.08179e-10
-7.65221e-11
-2.62395e-07
5.98532e-10
-3.13617e-11
-2.20039e-05
5.8135e-05
-5.04928e-09
0.00014585
-1.76477e-11
-2.36029e-10
3.15556e-10
-0.000111679
4.33877e-06
-0.000102016
-3.9417e-11
-7.18911e-05
6.90535e-11
1.72953e-10
3.77322e-12
4.47998e-09
-1.29297e-11
-5.33872e-05
-0.000344292
1.33463e-07
-1.32255e-10
9.61772e-08
1.30661e-11
3.79562e-10
5.23839e-11
-0.000224912
8.65856e-12
1.53571e-10
-6.86702e-11
-8.77407e-06
0.000624164
-1.68332e-12
-2.11386e-10
5.85799e-08
3.72247e-12
-1.25509e-10
-5.04711e-11
-2.11405e-11
-8.68423e-11
2.68859e-07
4.32299e-09
1.19603e-10
-1.53996e-09
-2.02401e-11
0.000121421
-2.62833e-11
6.91302e-06
-0.0002478
-4.81767e-10
-2.85821e-10
2.28128e-05
2.0569e-10
-0.000495889
1.71125e-05
7.37389e-11
9.45307e-10
-2.49011e-11
0.00023674
0.000303599
-4.32196e-11
7.60253e-09
-1.22232e-05
-1.14746e-12
9.64055e-05
6.14874e-12
2.51567e-05
0.000201326
-7.1148e-11
-5.98697e-05
2.26109e-11
-1.77914e-06
-1.5026e-09
0.000279371
2.91277e-10
0.000304795
7.26115e-11
-7.86145e-13
1.20942e-11
1.19467e-06
-1.71918e-09
-1.50852e-11
-1.13858e-11
-4.80145e-11
-7.87446e-05
3.78474e-05
1.65694e-11
6.19276e-05
-5.91189e-06
-2.81604e-11
6.69985e-12
2.79393e-11
9.57158e-05
-1.31106e-10
7.56489e-11
-7.62936e-06
0.000406877
-7.863e-07
-3.45159e-12
-2.82954e-08
1.05225e-09
-7.8535e-05
2.15766e-11
1.59953e-05
-2.88019e-11
-6.59155e-11
2.09563e-09
6.03272e-05
2.57619e-11
2.44097e-05
-2.86733e-10
-4.6119e-10
7.09698e-10
-6.10756e-13
1.02305e-10
3.34783e-11
8.44995e-05
0.000590311
-1.36612e-07
-3.38181e-08
8.18405e-11
-9.23325e-12
-4.02451e-10
-0.000129987
-7.1889e-10
0.000180655
2.24206e-11
0.000139019
-8.32756e-10
3.18116e-11
-8.90848e-11
8.61979e-05
2.8381e-09
-1.28127e-11
1.6861e-09
0.000189149
7.11394e-05
-2.91253e-12
-1.02852e-10
2.25999e-10
-2.43362e-10
8.62375e-11
0.000181884
3.41318e-10
7.61377e-12
3.89374e-05
-6.09347e-05
-0.000234966
-0.000191599
-4.07473e-10
-2.28246e-05
-3.81941e-10
1.04759e-10
-0.000109609
0.000404697
3.51582e-07
-1.11587e-09
-9.14191e-10
1.05403e-10
-8.40628e-11
-4.33816e-09
-4.55956e-09
5.04796e-12
-3.65215e-10
1.5686e-08
1.40766e-10
1.0604e-09
5.36261e-11
-0.0001974
7.78419e-12
-4.50602e-06
1.89432e-10
-3.21644e-10
-8.51643e-09
-2.23548e-10
-4.88321e-12
0.000318246
-1.05718e-10
-5.66603e-05
-7.79487e-06
0.000168695
-1.48225e-09
1.21199e-09
6.2291e-06
3.35385e-11
1.33248e-11
-1.39372e-09
-1.07671e-08
2.69706e-11
5.82904e-05
1.76767e-07
2.8492e-10
-1.74043e-09
-1.98661e-12
-4.043e-09
2.9214e-12
-1.99592e-09
-3.6952e-10
9.7757e-06
-6.59486e-10
-3.21086e-05
6.94048e-10
4.45643e-05
1.05192e-11
1.24189e-09
0.000367589
-9.80304e-10
6.34485e-05
3.34192e-11
1.43861e-07
3.33876e-09
1.11687e-10
2.014e-10
-9.43143e-06
-4.60709e-11
4.61923e-11
-3.32219e-11
-2.87743e-10
-0.000143252
5.12972e-09
1.83301e-11
-0.000104446
0.000124925
8.42572e-10
-1.7844e-05
4.19107e-10
-7.81824e-11
-1.76007e-09
-4.15683e-11
5.35677e-11
0.000214538
-1.49846e-11
2.4775e-08
-1.35957e-10
0.00010728
-3.85365e-05
-7.15172e-12
1.27535e-11
-1.13834e-11
-0.000464218
1.06804e-09
-9.73666e-06
-1.61434e-10
1.36464e-11
-6.69025e-11
3.98354e-11
3.638e-12
3.57031e-11
1.15841e-09
2.35548e-08
0.000214714
-1.10499e-11
7.68624e-10
-6.7592e-05
-1.44538e-10
-3.1083e-11
0.000144922
-1.46698e-10
3.6003e-10
-2.61979e-11
6.2965e-12
4.08072e-07
-7.57302e-11
8.77341e-05
-4.40915e-10
4.52621e-11
1.38771e-10
2.22978e-06
-1.8611e-10
-0.000144801
-1.55197e-05
-6.34561e-05
-9.61079e-09
-6.60752e-11
-1.51499e-09
-7.34527e-07
1.59076e-11
-2.64198e-09
8.41574e-12
4.52547e-10
2.37593e-07
-4.64508e-05
2.64717e-11
3.08757e-05
-2.3169e-10
0.00012984
-9.48527e-12
-1.20486e-10
-2.05296e-09
-9.01643e-08
2.39456e-05
0.00070917
6.87265e-11
0.000146807
-5.04003e-11
-7.67749e-06
-2.11368e-10
-1.16218e-09
9.8999e-11
-1.4405e-10
7.73314e-11
-5.2126e-10
-7.12721e-11
1.4888e-09
9.41919e-11
-1.32692e-10
2.63245e-11
8.86535e-11
1.01052e-09
6.59382e-11
-2.58714e-12
1.59507e-06
6.5349e-11
-6.2321e-05
4.48735e-11
-1.09679e-11
3.45082e-11
7.43715e-09
2.8119e-11
4.1674e-08
1.02623e-09
-0.000701948
1.87579e-09
-7.85157e-13
2.13803e-11
-1.79625e-12
-1.22321e-10
1.20453e-10
-4.96472e-11
-2.07973e-10
0.00015613
1.21339e-11
7.48363e-05
0.000147212
9.01179e-08
2.20902e-11
-5.26082e-14
0.00010772
-0.000101477
-0.000864559
-4.8971e-05
7.31401e-06
-5.15295e-05
-0.000271051
9.79386e-10
8.98037e-05
-2.65546e-12
3.05912e-10
-3.47234e-12
7.37436e-07
-1.43122e-10
-5.02277e-10
-1.96789e-09
-5.52175e-11
-0.000923209
3.73124e-11
2.06617e-07
-5.01474e-09
-0.000622293
-5.97578e-07
-3.18851e-09
5.39745e-05
9.26888e-10
-6.24169e-11
-8.68639e-11
-1.15564e-09
-1.65664e-05
0.000100968
1.03794e-10
1.59128e-11
4.89011e-05
1.27689e-10
7.04768e-05
-1.29479e-10
6.53081e-09
3.21113e-10
-0.000128628
-5.69225e-11
1.4431e-11
-2.02249e-11
-2.89967e-11
3.92776e-11
-7.92357e-11
-1.33034e-10
2.89191e-05
-1.87478e-05
2.35618e-11
2.58208e-05
-2.74964e-10
6.64303e-06
-1.47235e-06
0.000324231
3.05295e-12
2.81528e-09
0.000131309
3.09046e-11
-0.00104067
1.82901e-09
-4.56087e-11
2.88422e-10
1.25369e-10
0.000219954
2.04024e-10
6.12488e-11
8.49433e-08
2.08205e-10
-6.21514e-10
-2.51464e-11
0.00012364
3.91982e-11
1.1177e-10
-1.45456e-10
-1.25902e-10
-1.82168e-10
2.15001e-10
5.73226e-11
2.34261e-10
0.000797853
9.64796e-11
2.02075e-12
1.61888e-10
1.00812e-11
8.09102e-11
3.71684e-09
-5.04184e-10
-6.5048e-05
-4.6994e-11
7.1007e-10
3.975e-05
3.56821e-11
3.13086e-05
-5.06557e-09
-6.27739e-11
7.683e-11
0.000140986
2.20699e-10
5.21569e-11
2.31866e-11
1.7102e-11
1.33733e-10
-3.95515e-11
0.000245001
3.90434e-10
-1.63826e-09
3.0049e-11
0.000322678
1.1592e-08
-3.54844e-09
5.32604e-12
7.94055e-05
-3.03439e-10
0.00012361
-6.80031e-11
-1.11403e-10
0.000855047
3.02471e-10
0.000242091
-7.07702e-10
0.000174398
1.30681e-11
2.73655e-12
-2.75402e-11
1.09024e-10
2.16059e-11
-1.80728e-10
4.23179e-05
8.76887e-05
-8.02546e-11
-3.33958e-06
-0.000660214
0.000529094
0.000307432
1.50809e-11
6.85597e-08
-1.78267e-11
0.000354965
-7.9546e-11
3.55624e-09
-7.5016e-10
-0.00108712
4.08698e-11
3.9441e-11
-8.78503e-11
-1.8152e-11
8.83342e-05
-4.6226e-10
-9.34108e-07
1.00083e-10
2.62228e-10
-0.00069841
-8.89883e-11
-2.39e-11
-1.51455e-10
0.000501332
0.00070413
4.29426e-06
-1.04958e-08
-6.91288e-11
-0.000670414
1.02581e-10
5.20015e-07
-1.10953e-09
9.27918e-07
-5.60492e-09
6.98466e-08
-4.527e-06
-9.30086e-06
5.86799e-11
-4.23566e-09
-3.32374e-05
0.000263011
-2.15574e-05
0.000315547
0.000222769
1.74234e-08
-1.34815e-08
-2.46654e-05
-8.46795e-11
3.31218e-10
-2.94068e-11
0.000136387
0.000456945
0.000203005
3.04279e-10
1.16525e-07
8.45277e-11
7.81869e-11
-2.39533e-11
2.20903e-10
-5.16374e-12
-4.86944e-09
7.42215e-12
-0.000432857
7.16554e-11
-7.086e-12
3.76243e-11
0.000195954
-7.88045e-06
-6.07415e-11
0.000350361
-2.66762e-11
-7.20249e-06
-9.21703e-12
1.75803e-08
-5.55024e-11
4.60376e-11
-2.01961e-11
-4.00047e-10
-0.000699836
5.38709e-11
-3.55112e-10
6.1425e-05
-1.69568e-05
1.45345e-08
-1.77722e-10
1.2673e-10
-4.51575e-05
2.0221e-11
-2.37939e-10
2.64152e-05
2.19991e-11
-2.85982e-05
-4.76485e-11
-1.0201e-10
-5.59383e-09
0.000515082
3.88738e-11
2.47665e-10
-4.71474e-08
0.000431257
9.64379e-11
1.21842e-11
-4.67499e-10
1.59658e-10
-0.00049448
-2.2645e-11
-3.7547e-05
8.28209e-12
-2.11943e-09
-2.93966e-08
-4.29205e-10
-1.78363e-10
-2.93382e-11
4.05382e-11
1.06076e-09
-0.000412176
-3.20943e-05
9.87228e-10
4.01108e-09
-7.85137e-11
2.40339e-10
-7.4698e-11
-9.59673e-11
-3.93661e-09
-7.02278e-12
4.15208e-05
-5.07404e-11
2.17924e-12
-3.19985e-08
-1.85536e-11
-6.19937e-11
3.37561e-07
1.29372e-10
-1.55511e-09
-1.31305e-10
-9.50129e-11
3.40759e-09
-2.03204e-10
-2.10831e-11
-4.23067e-08
-5.08442e-12
6.51826e-07
6.55919e-05
0.000289097
4.99557e-11
2.83129e-05
3.88105e-10
2.29429e-11
-3.23235e-08
6.70472e-05
-1.2601e-08
-1.53372e-09
-2.11991e-10
-5.69337e-11
-6.13469e-11
2.60689e-11
-5.93928e-11
-1.44085e-11
-2.12047e-10
-5.53388e-09
0.000587622
2.23557e-11
-2.30366e-11
-6.3911e-10
4.1225e-07
-1.82627e-10
-0.000379969
1.44421e-10
-7.74908e-09
-4.5738e-11
-9.10043e-11
-9.90656e-09
3.70814e-07
-1.00272e-11
3.612e-11
2.40233e-11
3.63521e-10
-0.00105773
3.40936e-11
-1.60363e-10
2.4498e-10
-3.77582e-10
4.09715e-09
5.11348e-12
3.32575e-11
3.40965e-10
-2.71598e-11
5.53804e-05
-5.94685e-09
1.78224e-11
-7.64043e-06
4.53561e-11
-1.62007e-09
8.95559e-10
5.46786e-11
-6.08632e-11
5.18178e-06
1.33075e-10
1.24806e-10
1.40075e-10
-1.58422e-11
-1.20512e-05
-1.82849e-11
2.16053e-08
3.98168e-11
8.59101e-12
8.02181e-11
-3.17218e-05
0.000983732
-1.22092e-12
-4.03935e-06
1.57317e-10
-8.61761e-09
0.00028575
-9.7448e-06
3.95373e-05
0.000150964
6.82077e-06
1.43639e-11
-3.31782e-05
-5.13661e-05
0.000132695
-7.28943e-11
0.000351505
-6.24306e-06
8.20771e-12
-1.0977e-10
-2.07769e-05
-2.12942e-11
0.00011264
3.0207e-10
-0.000396686
0.000210805
-0.000870199
4.25429e-11
-1.33265e-08
-1.03746e-08
-4.15491e-11
0.000526659
1.21762e-10
-1.00089e-10
8.16818e-10
-1.07133e-10
2.41784e-07
-1.66312e-06
1.03211e-09
-1.63789e-11
-2.09987e-10
-9.37596e-05
0.000309772
1.10177e-08
5.36052e-11
7.08964e-05
1.5652e-10
1.75598e-11
-2.25427e-10
-9.72854e-10
7.8392e-11
8.62841e-11
-0.000105802
0.000101794
-1.92586e-11
-7.88258e-10
-2.70006e-05
-0.000170498
1.17213e-11
2.5039e-11
-7.45806e-10
-8.35904e-06
-4.19482e-10
1.06478e-05
1.75579e-10
-2.08267e-06
1.61519e-11
-4.69407e-11
-3.10627e-11
-4.49417e-10
-1.99349e-09
-1.03455e-11
-1.29654e-11
3.05942e-11
-3.42201e-06
-1.34735e-06
1.85977e-11
-2.15806e-10
-1.01292e-10
-7.21123e-10
0.000825266
4.96008e-11
4.8698e-10
0.000310815
4.86161e-10
6.89116e-05
-0.000200446
-3.10195e-10
8.21855e-05
-0.000146486
5.54423e-05
7.66727e-08
2.85916e-06
5.50818e-11
-1.0292e-10
-2.29386e-10
1.60444e-11
-3.26125e-06
1.19307e-10
2.43504e-10
2.40251e-10
2.40737e-10
-4.32309e-09
-9.77564e-11
3.28813e-05
3.84029e-10
-1.03901e-09
3.27238e-11
-7.84571e-13
1.71178e-10
-2.55727e-09
-6.9624e-11
4.35868e-11
-1.75207e-10
2.69486e-13
-9.4735e-07
2.1156e-10
2.0208e-11
1.32889e-10
-9.66795e-10
-4.59555e-11
1.722e-06
-0.000117675
-4.31567e-09
6.06727e-11
2.93787e-11
-1.02409e-08
6.44942e-06
0.000516296
3.41377e-09
-5.92826e-10
-0.000476658
4.90125e-09
-5.12418e-11
3.21653e-10
1.37607e-06
9.0225e-12
-0.00120259
1.36302e-10
-4.90142e-10
3.1238e-09
1.72935e-11
1.31942e-11
1.61312e-11
7.77673e-05
-1.6507e-05
-6.54095e-05
5.4249e-11
-0.000592404
-1.74881e-09
2.62839e-11
2.84947e-11
-2.40313e-06
-5.46012e-11
-0.000324519
-9.91241e-10
1.69202e-05
4.7148e-09
-4.35436e-09
-1.13038e-09
1.09801e-11
-0.00062636
1.60514e-11
4.31685e-05
-0.00098195
7.07502e-12
5.39054e-08
4.93143e-08
-0.000634891
-7.36886e-05
-2.94954e-11
0.000107631
5.30118e-11
-4.9894e-06
2.9272e-09
-0.00114435
-0.000103683
1.53897e-11
-7.9038e-11
-2.24706e-07
1.504e-08
5.73261e-05
-1.42173e-05
1.81257e-11
3.47769e-11
3.50121e-10
7.1355e-11
3.97446e-11
0.000237363
-1.27168e-10
2.02443e-05
5.61419e-11
-1.02832e-09
-8.92245e-12
-4.65396e-09
1.71719e-11
-1.26028e-05
-2.3677e-12
4.0639e-09
3.80956e-11
3.82724e-10
4.92315e-11
-2.8149e-10
-3.19729e-10
-1.41438e-10
-0.000875807
-9.68433e-12
7.62837e-13
9.46399e-05
-7.32212e-11
-3.94487e-09
3.12476e-05
2.57898e-06
1.70778e-10
-4.29231e-12
-2.06315e-10
-0.000331023
1.35733e-11
-6.1866e-10
-2.72961e-09
0.000274363
3.34379e-11
-4.64754e-05
-2.46118e-11
-0.000153748
-5.17045e-10
-6.75856e-11
1.00352e-09
6.71968e-11
0.000168262
0.000270559
2.90048e-05
-5.44035e-10
0.000383909
0.00034099
2.40626e-05
1.06545e-11
3.94186e-11
-4.3854e-10
5.61364e-11
-7.70425e-12
3.49973e-11
-3.55128e-12
1.26644e-10
-2.12606e-11
-1.65335e-11
7.32703e-11
2.05864e-11
-6.95518e-12
-8.8267e-11
-9.06098e-11
1.21178e-05
-7.09257e-11
-7.67875e-12
0.000245611
1.93346e-10
0.000120796
-0.000165089
-3.81324e-09
-2.86762e-05
6.54385e-11
2.64848e-05
6.99067e-11
-8.67754e-05
7.40755e-11
4.24967e-05
-1.39781e-09
0.000125052
2.08277e-12
-3.77258e-11
0.000255057
1.1453e-10
-8.72464e-11
8.09862e-11
8.17073e-11
2.75827e-05
2.71945e-09
-7.943e-10
1.99696e-11
5.53462e-11
4.21528e-05
-2.9214e-10
3.23217e-10
-3.68077e-08
1.50291e-06
-0.00018544
3.15527e-10
3.14298e-11
-7.39268e-11
1.29178e-11
4.7389e-09
-0.000232483
-3.93996e-05
3.88503e-11
3.51191e-11
4.47796e-05
-5.31721e-12
-8.99424e-11
-6.05846e-12
-1.43136e-09
-2.82444e-11
1.99218e-11
-1.05138e-10
-2.15786e-10
2.9574e-10
7.56769e-12
-7.5241e-05
0.000266109
2.53485e-09
-3.33878e-10
-3.43743e-10
0.00036014
-3.79755e-09
-2.40338e-11
1.42634e-10
6.73615e-10
-9.50582e-08
3.77285e-11
6.51311e-12
-1.87394e-11
-1.52449e-08
-1.07842e-09
0.000283761
-0.000193304
0.000171121
3.67275e-11
7.19056e-10
-2.27307e-05
-0.000260241
-5.16894e-05
0.000399743
2.29456e-10
0.0003697
3.34212e-10
-1.29381e-09
3.96285e-11
1.31814e-05
7.01831e-11
4.68109e-10
7.21693e-10
-0.000315703
-8.56217e-12
0.000176647
-7.51429e-05
2.9818e-11
1.66509e-11
3.15518e-10
1.7679e-09
-1.15852e-10
9.28868e-10
-0.000900945
-1.96707e-11
4.80651e-10
9.94286e-11
0.000175664
3.80745e-10
-1.60936e-10
1.24517e-10
-1.01668e-10
-1.44347e-10
-7.16447e-05
-1.27635e-09
2.67316e-10
-4.27609e-07
-0.00043696
-9.29575e-11
3.06398e-06
7.10855e-12
-3.65428e-10
-0.000352582
8.38265e-11
1.6354e-10
-8.04474e-11
8.11281e-11
3.51003e-10
-1.72709e-10
2.99481e-10
-0.00014126
-1.75312e-10
-1.119e-10
4.65394e-09
3.30542e-07
5.04986e-11
-2.84736e-09
2.03915e-11
3.47129e-06
-2.20728e-11
1.36891e-10
9.21168e-05
-2.78761e-11
-2.86202e-11
7.57537e-11
0.000198809
3.25591e-05
-5.60055e-11
6.48692e-05
-1.35453e-11
-1.42244e-11
9.94178e-05
-3.12743e-11
-1.36271e-09
-3.33047e-10
2.68917e-09
-8.93235e-10
1.18548e-08
2.64201e-11
-1.16558e-10
1.49431e-12
1.51708e-07
9.42678e-05
1.9363e-10
-1.56505e-10
-8.87867e-13
5.42245e-05
-3.98507e-09
3.73837e-05
0.000204709
6.16394e-10
8.03727e-11
-3.81367e-09
-3.3656e-09
1.04709e-07
3.37561e-11
5.38728e-11
-9.8004e-11
-8.95201e-12
9.91642e-12
1.03592e-10
-0.000127692
8.95208e-11
0.000286596
2.20626e-11
-1.61328e-05
-6.3595e-11
3.32408e-10
-1.19527e-06
0.000209164
-0.000166828
4.59707e-11
-2.27175e-11
1.00381e-08
-5.0033e-11
2.03978e-11
7.38297e-05
-6.27272e-07
-5.42144e-10
-3.49159e-10
0.000288244
0.00016192
1.35125e-06
1.38261e-10
2.56301e-11
-6.02427e-11
-8.44898e-11
2.32181e-05
2.20364e-09
4.8134e-12
6.04686e-05
0.000235497
-6.38827e-05
3.95646e-11
7.06458e-11
8.33991e-09
3.20245e-05
2.8656e-05
7.43537e-05
2.55591e-11
-1.33493e-09
-4.48733e-10
3.6421e-05
2.41652e-05
4.07966e-05
-5.43064e-10
0.000230523
-1.16143e-11
-3.30905e-11
3.62408e-10
0.000426905
-8.07472e-11
-5.3513e-11
6.19608e-05
2.08195e-10
2.78802e-10
2.54416e-11
1.10708e-10
-8.2854e-10
-5.02777e-05
8.32217e-08
4.72573e-11
1.05949e-10
2.48745e-11
-3.74649e-09
-2.25777e-09
3.65788e-10
0.000704842
1.37846e-10
4.99531e-05
-0.000200557
0.000246212
5.16867e-11
-5.18953e-10
1.69634e-06
0.000611724
-3.32229e-12
2.40848e-05
2.40522e-05
8.09803e-11
0.000167005
1.39391e-10
-2.04259e-10
-6.266e-10
-3.46893e-11
3.76122e-05
3.82739e-07
1.90084e-11
2.72241e-10
-4.00636e-06
5.65616e-05
1.15009e-10
1.47438e-10
0.000129727
0.000113372
2.80784e-11
1.43745e-05
8.68237e-06
2.38491e-11
-1.06026e-10
-2.96671e-10
-1.27831e-08
-2.75269e-11
-2.34996e-09
-9.9727e-06
4.44951e-11
8.95401e-09
-5.97162e-05
3.22461e-09
-1.25105e-05
4.31824e-11
-6.66614e-10
0.000395935
0.000176812
-1.96234e-10
-1.86474e-11
2.9546e-05
-6.84386e-07
-8.27246e-11
2.10649e-11
-1.24062e-05
3.79892e-09
2.21058e-09
7.57261e-11
-0.000438689
-2.30806e-11
2.62446e-11
2.54384e-06
-2.45628e-06
3.06302e-09
4.07793e-06
-7.70049e-07
-1.26162e-10
1.56886e-11
1.04562e-08
6.11579e-11
-1.03195e-07
0.000142853
-3.3537e-05
-1.05842e-10
-1.31207e-13
7.85857e-05
2.74237e-09
-7.3907e-13
2.29084e-07
-7.05017e-12
2.15191e-10
4.12008e-05
1.49201e-11
6.50886e-11
2.14697e-10
3.91147e-09
6.35013e-11
-8.34121e-05
-0.000291686
5.0106e-08
-4.76796e-09
0.000192936
-8.91467e-09
0.000840783
-1.38428e-10
2.4151e-10
-7.47713e-09
4.88683e-07
-8.59692e-05
-1.1616e-10
2.00331e-11
-1.32393e-07
-2.00464e-10
8.00831e-08
-3.02283e-09
3.01173e-10
-2.94905e-12
1.94438e-10
5.97234e-10
-2.63395e-11
-5.3015e-11
-1.29009e-11
-6.66782e-11
3.76582e-05
-8.6911e-11
9.20416e-09
1.57484e-10
-3.57683e-08
5.55284e-05
8.31821e-11
-9.99631e-09
-6.56963e-11
-1.87152e-08
2.95251e-05
-1.98448e-09
1.74321e-11
9.50657e-12
-0.000369519
-1.44885e-12
8.30422e-11
0.000147867
1.42814e-10
1.7357e-10
-8.33874e-05
-3.46206e-10
-2.27105e-11
0.000474812
8.52064e-07
6.6866e-11
-0.000478747
2.28847e-06
-2.25663e-11
5.0555e-10
4.55723e-06
-4.07653e-10
-6.90088e-11
-3.17478e-11
1.16441e-10
0.000613992
2.70803e-09
9.95921e-10
3.0746e-12
-1.72291e-10
7.05678e-11
-1.71818e-11
-2.31738e-05
-1.63618e-10
-1.87053e-05
6.51584e-08
4.80575e-12
-4.67409e-11
-2.38948e-05
-1.80323e-07
3.87549e-11
-3.705e-10
-8.12775e-05
1.26474e-09
-0.000191618
-3.58611e-05
-2.47458e-10
3.54211e-05
-9.07731e-05
-6.67672e-07
-5.15918e-11
-3.71171e-10
1.50444e-07
5.6262e-12
0.000138726
1.7536e-09
-1.72618e-11
4.58046e-06
-3.72914e-08
-9.71104e-10
2.31775e-10
0.000145661
0.000481872
2.74415e-12
2.97853e-11
3.42342e-09
-3.47084e-10
-6.85421e-11
2.47544e-11
-9.53438e-05
-0.000453883
-1.8428e-06
-0.000238574
-3.79931e-09
9.86312e-11
1.58152e-09
-2.48494e-11
4.00466e-12
-0.000141701
-5.16838e-11
8.54038e-11
-3.05807e-10
-2.29795e-10
-2.42604e-05
-2.23243e-10
-2.15719e-05
-3.42025e-05
-5.3569e-10
-7.52124e-09
4.75577e-06
7.88658e-12
-3.80598e-11
0.000142494
-6.47645e-12
-3.46444e-09
-0.000227553
3.07264e-08
-1.88772e-05
-2.2056e-10
-6.91403e-05
0.000511855
-0.000100367
-0.000192587
2.37412e-11
-0.000191313
-8.7875e-05
-5.11342e-09
5.15345e-06
8.02109e-11
-2.42932e-05
6.33363e-06
1.63605e-05
-0.000108831
-3.07235e-11
-0.000568147
-4.08339e-05
-0.000132448
0.000382149
5.01483e-06
3.61278e-05
9.19944e-06
-7.73221e-10
1.91238e-10
-0.000227659
4.46032e-11
-1.90415e-10
-7.08614e-12
-0.000144459
-1.24006e-09
5.08391e-10
7.92377e-05
1.29149e-10
0.000227244
1.3034e-06
-3.93109e-10
-5.10771e-11
9.66441e-12
-0.000127114
1.05008e-05
2.93524e-11
3.40681e-10
-4.77136e-07
-6.56735e-09
2.54469e-10
-2.14663e-11
4.89977e-11
2.93329e-11
1.83259e-11
-0.00013665
-8.13789e-10
2.23124e-05
-7.12478e-05
1.04047e-10
5.79493e-05
7.57564e-12
-4.01512e-10
-2.65345e-11
-1.86073e-11
1.56384e-09
9.16041e-11
-2.07631e-10
-0.00011787
5.06799e-11
-6.01883e-11
-3.18296e-10
2.73258e-11
-1.61602e-08
1.13753e-10
1.56728e-11
-5.01792e-12
-4.16979e-11
-2.18392e-09
-4.05949e-11
-6.93608e-11
-3.07317e-09
0.000306584
-1.94072e-10
5.44759e-11
2.0996e-10
-1.28513e-10
0.000308987
-5.90384e-11
-2.594e-05
-2.40491e-10
-4.78208e-08
5.28653e-11
-2.37362e-10
-4.06032e-11
3.2892e-12
3.1633e-06
-5.93546e-05
1.05969e-05
3.71909e-10
0.000288456
-5.84035e-09
3.93251e-06
3.44786e-11
4.94029e-07
0.0002196
6.33263e-11
0.000243567
3.87716e-05
-7.57056e-05
3.60678e-10
1.77088e-10
8.11328e-09
-6.05077e-08
1.72338e-10
0.0002969
-7.98023e-05
8.59687e-11
-5.45956e-06
3.34838e-11
-1.26024e-09
0.000113368
-4.16456e-11
5.56808e-12
-1.22464e-05
-0.000456276
-3.87656e-08
1.78818e-10
6.00999e-12
2.09383e-06
-1.73562e-11
-1.74436e-06
1.83708e-08
2.11598e-12
-1.23356e-09
2.57254e-10
0.000193609
-5.8576e-05
1.73634e-10
-6.70277e-06
-1.42888e-10
0.000422547
0.000343077
-5.22804e-09
-0.000133093
-4.96239e-10
-0.000122661
-1.00479e-10
1.99987e-10
2.2348e-10
-5.99777e-08
5.48509e-05
-3.33442e-10
7.87763e-10
-3.02075e-10
0.000221134
-1.57372e-06
-0.000369867
-4.23435e-06
8.98373e-11
1.71413e-10
-0.000121716
9.48243e-05
4.25691e-11
-1.05004e-06
2.76774e-05
4.86027e-09
-0.000105917
-9.36448e-06
-2.09845e-09
3.76922e-09
-2.63729e-08
0.000239661
-3.91704e-05
4.90841e-08
-5.6449e-11
2.40915e-11
5.30844e-05
1.39888e-10
3.47324e-11
0.000323953
-0.00049838
-3.1259e-10
6.54441e-11
2.28246e-08
-4.78854e-05
2.19641e-11
7.99052e-11
-7.8071e-12
8.47989e-06
-7.78225e-11
-6.66727e-10
-1.80534e-10
-6.91126e-05
-9.93743e-05
3.85452e-09
-0.000393167
2.34351e-10
-5.47494e-11
1.1797e-08
-6.23976e-05
3.01141e-08
2.91563e-10
-8.02654e-05
0.000100019
-1.03012e-13
-1.29353e-09
1.13344e-10
-5.66348e-07
1.11967e-09
-0.000262496
-2.22466e-10
-2.80638e-10
4.07016e-09
9.25851e-05
2.1651e-08
1.23699e-05
-1.15344e-06
-2.20362e-07
-0.000139143
-1.4692e-10
-0.00010188
9.87871e-10
7.58016e-10
-7.85686e-05
-1.09238e-09
-2.51906e-07
-5.43106e-11
-1.2709e-10
1.18051e-10
-3.13648e-05
1.09691e-05
-4.05621e-09
3.75864e-05
4.89259e-11
0.000265388
-1.29643e-11
-7.51346e-05
6.7177e-11
-1.702e-11
1.25896e-11
2.15e-10
8.39306e-05
1.86158e-09
2.05e-10
1.93727e-05
-2.60057e-05
-0.000719655
5.75051e-11
-3.27705e-10
1.52955e-10
-2.76931e-09
-1.04985e-08
-4.79556e-10
5.40259e-11
-0.00010256
-0.000128022
6.35023e-05
1.58734e-05
-1.2123e-09
-0.000112351
-1.00798e-05
-1.02584e-10
9.63608e-12
1.64768e-05
4.33801e-09
-1.50477e-05
-5.86137e-12
-4.80597e-06
-1.51965e-10
-4.96808e-11
-6.28294e-07
-0.000242094
-1.68115e-10
-0.000113975
-4.54041e-10
-2.34991e-10
-2.08381e-05
-7.56584e-11
-3.43591e-10
2.32093e-11
2.82068e-10
1.62487e-09
1.71202e-05
5.53388e-05
2.44051e-10
9.87128e-11
-3.30816e-05
2.50343e-06
2.19716e-06
2.24805e-10
2.15395e-05
1.24876e-10
-8.84863e-10
-3.04685e-05
3.8807e-05
-7.78778e-11
-9.82918e-05
8.99099e-05
3.98779e-10
1.09362e-05
-1.37427e-09
-1.631e-12
4.37759e-09
-1.71552e-08
0.00013283
-3.95445e-10
-2.01821e-11
1.45559e-07
-2.00155e-11
-3.17164e-11
-3.64911e-11
-7.73138e-11
0.000271702
-1.12031e-09
3.11022e-09
-2.84918e-10
-0.00048537
-6.51636e-11
-1.35493e-09
4.12708e-05
2.69598e-11
-0.000169922
6.84129e-05
-0.000112073
-3.97361e-05
3.16039e-10
7.61521e-11
1.10953e-08
6.19951e-07
7.31587e-11
-7.09595e-11
-1.08206e-07
1.65077e-07
-3.63577e-05
-6.77653e-12
2.12493e-10
-9.02949e-05
-1.47029e-10
0.000329953
5.85856e-11
8.00522e-11
7.02371e-11
-9.8926e-12
3.88743e-06
-1.11153e-11
4.50359e-11
5.99067e-11
1.34738e-09
-1.23157e-12
-3.54224e-09
1.78423e-11
-1.42567e-10
-4.90821e-05
1.97206e-06
-6.1296e-10
1.51071e-11
-1.33787e-10
-1.38161e-09
9.18509e-11
-3.5313e-05
7.50726e-12
-5.5894e-06
2.77856e-12
-2.62388e-05
-1.89098e-10
5.63927e-11
-7.4766e-12
-1.88518e-09
1.31043e-08
5.60722e-11
-1.53505e-09
1.53584e-10
1.27992e-08
-1.22956e-10
-1.26167e-10
-1.27758e-10
1.76845e-10
6.7974e-05
0.00016664
-2.46567e-05
2.67977e-05
-4.07719e-10
3.85645e-09
1.5637e-10
0.000249855
0.000106218
9.58813e-11
3.52894e-06
1.4406e-08
-1.47759e-06
2.79947e-07
6.27694e-11
-4.0345e-07
1.11377e-10
6.34824e-10
-2.85702e-05
6.73285e-11
-5.82905e-11
1.59264e-05
-6.97999e-05
1.35462e-10
-3.02547e-10
2.63622e-09
4.37578e-10
-9.42304e-05
1.66573e-08
4.56085e-11
-0.000115762
-0.000295026
0.000170148
-1.10314e-07
0.00013136
-1.06205e-10
-0.000258561
-0.000741478
-0.000324676
-3.79628e-10
-5.2849e-06
-9.29913e-11
6.70698e-10
-7.07565e-05
9.55848e-09
-6.60945e-05
-1.68254e-11
0.000477857
5.78741e-05
-3.00796e-12
5.04789e-11
-1.05419e-10
1.50365e-09
1.21166e-10
-3.00619e-08
-0.00019939
-0.000232552
0.000101606
-0.000108746
-1.35875e-10
4.83416e-10
4.89034e-07
6.21201e-05
-2.26595e-10
-2.63867e-10
-2.39083e-09
5.62475e-06
-8.77968e-11
9.39253e-11
0.000183663
2.75634e-05
-3.33905e-07
-4.08813e-11
0.000448458
2.91688e-12
-2.69688e-11
4.21666e-11
-0.00013323
-3.63467e-08
-2.39164e-08
-6.76286e-11
9.52799e-05
-4.05162e-12
2.08456e-12
-0.000490489
1.78824e-05
-1.35702e-10
-1.41232e-10
1.1467e-10
2.60599e-10
-1.33328e-09
4.14139e-10
-8.93575e-11
5.13138e-05
-4.3271e-10
4.72124e-12
1.93463e-10
-1.00047e-08
-1.60102e-10
0.00033038
-3.41822e-07
6.98659e-10
-0.000428382
-1.50939e-07
-0.000828317
-2.65575e-05
2.31754e-10
-6.7362e-07
-5.96999e-12
-3.10532e-10
9.43319e-05
-3.99955e-05
1.05597e-10
1.14445e-05
-0.000616283
-0.000109636
-7.97339e-05
-3.66574e-05
-8.09165e-05
-5.37356e-11
3.53301e-05
3.53894e-10
-3.57694e-05
-4.10908e-11
1.33103e-10
2.58757e-09
3.08334e-05
2.97681e-11
8.03247e-11
-3.97901e-09
3.57877e-11
-8.60951e-05
2.92239e-10
3.89886e-05
1.29197e-11
5.68818e-11
-0.000399689
4.52813e-10
-3.39754e-05
9.61022e-11
1.57796e-09
0.000349937
-1.55648e-10
6.88118e-05
6.99468e-11
9.06901e-06
-9.1989e-05
-0.000106258
2.83314e-11
5.62587e-06
-1.61443e-10
-3.40249e-10
1.90897e-11
2.47275e-11
6.24075e-05
3.60094e-07
-1.07178e-05
1.16566e-09
3.20605e-11
2.38914e-11
-8.76151e-05
-6.59389e-06
-4.77499e-05
0.000166017
-3.35786e-10
-0.000380483
-4.33453e-05
1.2034e-10
-0.000643145
-1.90822e-10
-9.8708e-05
1.21067e-10
-2.40264e-10
-0.000508098
-5.90937e-11
-7.74417e-10
1.17853e-10
-0.000287012
1.46128e-11
8.66647e-11
1.08683e-11
1.68878e-10
-4.80667e-13
-3.77176e-06
3.79511e-05
3.7932e-09
-1.26515e-07
-1.11723e-08
2.90664e-05
-2.70624e-11
-9.51692e-10
3.63617e-05
-3.02899e-05
6.7643e-11
-4.35142e-11
-0.000163416
5.6646e-11
0.000387282
-3.01147e-12