/*--------------------------------*- C++ -*----------------------------------*\
| =========                 |                                                 |
| \\      /  F ield         | OpenFOAM: The Open Source CFD Toolbox           |
|  \\    /   O peration     | Version:  v2012                                 |
|   \\  /    A nd           | Website:  www.openfoam.com                      |
|    \\/     M anipulation  |                                                 |
\*---------------------------------------------------------------------------*/
FoamFile
{
    version     2.0;
    format      ascii;
    class       volScalarField;
    location    "250";
    object      ddt0(k);
}
// * * * * * * * * * * * * * * * * * * * * * * * * * * * * * * * * * * * * * //

dimensions      [0 2 -3 0 0 0 0];


internalField   nonuniform List<scalar> 
18618
(
-0.00039229
-0.000728703
-2.68433e-09
0.000155766
8.25017e-10
0.000170213
2.22138e-09
-0.000880001
1.42658e-08
-7.11953e-08
1.27172e-10
-1.32707e-09
0.000709031
-1.17903e-08
-5.60183e-10
1.73662e-09
2.41563e-09
0.000217035
3.9321e-09
1.71285e-08
4.01427e-05
3.29919e-09
1.99095e-10
-3.22511e-08
6.41629e-10
2.44376e-07
-0.000354825
1.76915e-11
6.56156e-10
-6.18159e-10
-1.15322e-09
-1.34588e-08
1.05138e-09
-4.22603e-09
-0.00143928
-2.51018e-09
-1.30423e-08
6.50593e-05
4.01927e-08
-2.05404e-10
0.000486318
-0.000193685
4.2677e-10
0.000377967
1.24781e-08
-1.26499e-08
-0.00148136
-6.39549e-09
0.00059151
0.00212464
1.24442e-09
9.47925e-10
-0.00299721
0.000799558
2.53469e-09
0.00156715
-1.25838e-08
1.26354e-08
1.70528e-08
1.73781e-08
-3.82039e-09
-4.92901e-09
1.60438e-08
-5.54356e-09
1.33586e-06
6.72334e-05
1.8415e-09
-1.29934e-08
-7.2354e-11
-0.000342226
3.27563e-10
-0.000339745
-4.5377e-08
3.06158e-05
5.60055e-09
-1.76493e-08
2.44708e-06
0.00220884
2.89757e-09
0.000786934
-0.000194224
0.000172928
6.13684e-05
-5.11517e-08
1.81286e-09
5.24034e-09
-8.73385e-08
9.5018e-08
-7.12224e-08
0.000210775
-4.51682e-08
2.7374e-06
0.0002882
2.62853e-06
-0.00276232
-8.91438e-09
-5.48816e-09
0.00256312
-1.49456e-08
-1.43504e-09
-0.00265645
4.48763e-09
1.34973e-06
-4.27705e-09
-5.59797e-08
0.000672038
7.17943e-10
2.91189e-09
-5.29211e-07
1.29086e-09
0.00749759
-2.84733e-09
6.67613e-09
2.29876e-09
5.25575e-09
1.29168e-09
3.11432e-09
-0.000244103
-1.04117e-08
-1.66553e-07
0.00187724
4.71888e-09
0.00188842
0.000188865
-0.000629607
2.34671e-06
0.00317732
9.41851e-05
3.28258e-09
4.6699e-09
-8.48752e-08
-6.61064e-10
0.000118812
-1.92748e-05
2.45453e-09
2.34958e-09
3.68843e-09
3.52449e-09
-0.000172748
2.02857e-09
-3.94143e-09
5.31593e-09
-4.81253e-09
-6.5331e-09
-2.21911e-09
1.65482e-07
-9.5313e-09
-3.20795e-09
0.000574929
-1.65527e-08
-6.1999e-09
-0.000280132
-3.91081e-05
3.58078e-09
-3.57844e-09
-0.000475499
0.000373019
0.000388928
9.09892e-09
-2.33919e-10
-5.03699e-10
0.00165166
7.93111e-09
-2.85143e-08
3.36737e-09
0.000633346
-2.51598e-09
4.12715e-09
-0.000188124
-1.52169e-09
7.83105e-09
4.34285e-10
-9.01756e-08
-2.655e-08
-1.29396e-05
-2.24048e-08
-5.55147e-05
0.000113076
1.49433e-09
-3.16767e-09
-4.03276e-09
-2.68971e-08
-1.76137e-09
5.09385e-09
0.00213713
7.41726e-10
8.40912e-09
-3.04594e-08
-4.68255e-05
0.000305659
6.71432e-09
-2.2085e-08
0.00045675
2.93382e-09
-9.515e-07
-2.13391e-06
-1.73009e-08
-0.000401816
-6.28116e-08
4.48437e-05
7.16778e-05
0.00183581
1.82754e-08
-9.03795e-09
-0.000143086
9.36661e-05
0.000363937
-0.000340562
-8.53646e-09
-0.000868889
2.00035e-05
-7.75039e-11
-0.000106825
0.000602754
4.82388e-09
-8.94105e-10
-1.79849e-06
-0.000151482
5.38005e-09
-0.000104515
-2.00263e-09
1.10021e-08
-3.25788e-11
7.83665e-07
3.95399e-08
2.25229e-08
-2.17378e-09
-5.26707e-09
-0.000643752
-1.30243e-08
-0.000864055
1.97638e-06
-5.5693e-09
-2.75144e-08
-3.2716e-09
-9.14518e-10
1.46772e-08
9.25256e-08
8.27049e-10
-0.000426184
-4.10415e-09
1.34209e-08
-1.64337e-08
-7.26408e-08
-0.00233043
1.61551e-09
-4.619e-08
7.39984e-05
1.76709e-09
-6.68965e-09
-0.00438563
-2.51037e-05
1.35177e-08
-0.000714226
-6.27649e-09
2.24457e-09
-3.31695e-09
-1.3797e-09
-1.84053e-10
-5.24914e-08
1.7493e-08
-6.05331e-09
1.78718e-06
0.00181981
-1.83631e-05
3.16871e-09
8.32779e-09
0.000406568
2.22008e-09
-1.03032e-08
-2.61527e-08
-3.68818e-10
2.34731e-10
-1.19496e-09
3.13455e-10
-0.000741738
-5.91718e-09
-4.56751e-09
-9.58226e-05
-1.30067e-09
7.96246e-09
-2.68053e-09
-0.00117843
7.5155e-05
-9.7113e-09
0.00242396
-2.16307e-09
1.26151e-07
1.60258e-09
-2.26682e-06
-1.2748e-09
1.20637e-08
2.22437e-10
-2.95924e-09
0.000276457
-1.11822e-09
2.61313e-09
1.27409e-09
0.000886263
-0.000308968
-0.000107541
-0.00272953
0.00153337
-5.27787e-08
-2.3288e-08
7.23947e-06
0.00225675
2.61671e-09
3.62889e-09
-2.41959e-08
-7.5791e-09
4.11906e-08
1.44977e-09
-4.7507e-10
-2.64201e-09
0.00228771
-0.00157098
2.05371e-05
-1.84249e-09
5.12246e-12
-5.32425e-08
-3.33351e-06
-2.9468e-08
0.00218811
2.79783e-10
-5.43591e-06
0.000926394
2.52359e-09
-4.50567e-08
-1.03693e-08
5.79552e-09
1.5291e-09
-2.94195e-08
-1.58473e-09
3.08606e-09
5.75073e-10
5.71726e-07
7.34499e-08
-0.000471612
9.64556e-05
1.30459e-09
-4.26269e-05
1.03644e-08
2.00997e-09
-3.47275e-10
-9.80298e-09
-3.85845e-07
1.13955e-08
0.00234591
-1.23449e-08
-0.00384627
2.26614e-09
8.53425e-09
-3.00494e-08
1.99919e-06
-8.45838e-09
1.11828e-09
-3.31378e-06
-1.09716e-09
1.18342e-09
0.00150679
0.000198375
-9.28019e-06
-1.20756e-07
0.000375578
0.00585871
-6.59081e-09
-1.43702e-08
4.78994e-06
-2.35623e-09
-1.22923e-09
3.07256e-10
0.00154515
-0.00246738
2.84335e-09
2.88345e-09
0.00599178
-1.69303e-09
8.23335e-05
3.85625e-05
-7.6002e-08
1.62662e-08
-0.000256155
-0.00520978
1.65917e-09
1.22253e-08
-5.45221e-09
1.56958e-06
8.18544e-10
-1.20374e-08
-7.51275e-09
-5.9199e-06
-8.04568e-09
-6.09696e-09
-0.000106271
-0.000136467
-1.01845e-07
0.000644543
-2.71264e-09
-1.16701e-08
2.0436e-08
-0.00175563
7.39647e-05
-0.000358948
-3.68161e-09
-0.000283629
-5.89817e-09
1.10791e-08
1.85634e-09
1.52716e-07
-3.19393e-09
-0.000219441
-0.00226729
2.11152e-06
-6.84411e-09
1.02909e-06
-2.34557e-10
2.38192e-08
4.15566e-09
-0.00272982
-8.45298e-09
6.8578e-09
-5.9639e-09
-0.000317563
0.00484838
1.23214e-09
-1.11278e-08
9.85915e-07
-1.12676e-09
-1.90912e-08
-4.6498e-09
-2.93486e-09
8.46556e-10
6.47401e-06
1.54854e-07
2.42186e-09
-6.85532e-08
-3.53431e-09
0.000579241
-3.32624e-09
0.000112722
-0.00171437
-1.88674e-08
-3.68847e-08
5.51892e-05
1.03648e-08
-0.00470782
9.54674e-05
3.52497e-09
8.47716e-08
-3.41017e-09
0.00113143
0.000632885
-3.9069e-09
-2.019e-07
-0.000283756
9.36702e-10
0.00302136
2.14402e-09
0.000141768
0.000205321
-7.32994e-09
0.000138581
6.76179e-10
-1.29795e-05
-4.35186e-08
0.00115198
-1.12222e-08
0.00633281
4.47559e-09
3.01977e-09
1.10783e-09
1.87219e-05
-9.26881e-08
-6.62013e-10
-3.77558e-10
-3.72011e-09
3.93633e-05
0.000168574
4.03891e-09
0.000244315
-2.5871e-05
-2.04324e-08
-3.94606e-09
2.63762e-09
0.00296193
-1.42766e-08
6.37764e-09
-0.000349844
0.00186149
1.93995e-06
1.89496e-09
-8.28794e-07
7.67827e-09
-0.00152864
-2.15783e-09
0.000101568
-8.37987e-09
-3.76247e-09
9.09974e-08
-1.42681e-05
1.51809e-10
0.000427833
-9.7435e-09
-7.06287e-09
1.74526e-08
-1.44874e-09
5.83853e-09
6.11274e-09
0.00264135
0.00614199
-1.03932e-05
-1.15302e-06
2.44431e-09
2.76049e-09
-9.63962e-09
-0.0012901
-6.19941e-08
0.00425993
3.29663e-09
0.000871863
-4.39772e-08
5.76308e-11
-2.23088e-09
0.000324631
1.05502e-07
-1.75732e-09
1.01062e-07
0.00216952
0.00249319
7.21342e-10
4.97528e-09
1.27739e-08
-1.80249e-08
4.41754e-09
0.000845443
-1.2347e-07
-1.17522e-09
0.000117651
-0.000241521
-0.00252157
-0.00447636
-1.77686e-08
0.0013366
-3.49234e-08
5.48498e-09
-0.000598325
0.00157483
5.77275e-06
-4.72347e-08
-2.99872e-08
5.53501e-09
-1.02043e-08
-1.53259e-07
-1.47832e-07
1.12449e-09
-2.2339e-08
1.41248e-06
4.97937e-09
6.94254e-08
1.45648e-09
-0.00492607
-3.27342e-09
-0.000330608
2.49617e-08
-8.56691e-08
-9.68844e-07
-1.00924e-08
-1.22046e-08
0.00215979
-9.33486e-09
-0.000233444
-0.00025988
0.00419236
-5.16838e-08
2.12502e-08
6.2664e-05
1.68803e-09
7.12052e-10
-6.06403e-08
3.50371e-08
1.75247e-09
0.000274693
4.78782e-06
-1.40953e-08
-7.20513e-08
4.73265e-09
7.67951e-08
-3.45708e-11
-6.61897e-08
-2.07835e-08
0.000107366
-1.12219e-08
-0.00121989
3.87025e-08
0.000146125
-1.35781e-09
1.16088e-07
0.00610592
-6.00849e-08
0.00217527
2.61626e-09
-1.10431e-06
1.12596e-07
8.49923e-09
8.04462e-09
-0.000385036
-3.89764e-10
4.02259e-09
-2.33563e-09
-1.9306e-08
-0.000445605
3.28176e-07
-5.19399e-10
-0.000361393
0.000498606
4.46191e-08
-4.59078e-05
1.57985e-08
-5.82751e-09
-5.99051e-08
1.14685e-08
4.48179e-09
0.00101023
-6.75073e-09
1.11857e-06
-2.88841e-09
-0.000806227
0.000933748
-1.745e-09
3.70499e-09
-1.80983e-09
-0.00658298
4.80215e-08
5.65152e-05
9.70638e-10
2.47103e-09
3.87753e-10
3.16022e-09
2.90483e-10
3.53205e-09
-1.69599e-09
1.41127e-06
0.00346015
-2.99709e-09
3.94966e-08
-0.000234786
-4.0061e-09
-3.87757e-09
-0.000948666
-7.41081e-09
-6.60128e-08
-2.9617e-09
-8.77773e-10
1.77217e-05
7.56242e-10
0.00279356
-2.02098e-08
-3.74104e-09
-6.55112e-09
-0.000149281
-1.36914e-08
-0.000451684
-0.000413942
-0.000254532
1.20333e-07
6.74998e-10
-5.47391e-08
2.52804e-05
-3.76595e-11
-1.0095e-07
9.69324e-10
1.90783e-08
3.26164e-06
-0.000152193
3.68634e-09
0.000139513
1.04242e-10
0.00311206
-4.13474e-09
-9.48977e-10
-9.07606e-08
7.03503e-07
0.000119654
0.00552976
5.33261e-09
0.00083684
-3.0359e-09
-5.64162e-05
-1.29259e-08
-5.46895e-08
-4.2168e-09
1.08187e-08
5.30806e-09
-1.27788e-08
3.30294e-09
4.35906e-08
5.55107e-09
-1.00942e-08
3.31802e-09
3.95461e-09
3.76508e-08
3.97657e-09
6.22927e-10
4.29808e-05
5.81348e-09
-0.00180039
3.46046e-09
-1.06692e-08
3.83431e-09
2.42748e-07
2.1985e-09
-1.58039e-05
6.30551e-08
-0.00515201
-9.97084e-08
1.10315e-08
1.00075e-09
-9.49371e-10
-9.66944e-09
6.86884e-09
6.37634e-09
-9.53031e-09
0.000745455
-9.30514e-10
0.000327975
0.00102294
2.47041e-06
2.28236e-09
-7.97016e-10
0.000475839
-0.00185792
-0.00995312
-0.000467553
0.000187906
4.46624e-05
-0.00333086
4.22265e-08
0.000393114
4.81984e-09
1.68131e-08
-3.51714e-09
2.17805e-06
-3.49075e-09
4.38593e-09
-9.65484e-08
-2.94314e-10
-0.0116374
3.70516e-09
3.00878e-06
-1.13464e-07
-0.00434347
-3.02053e-06
-1.82687e-07
0.00187159
5.30692e-08
-3.11093e-09
-2.50219e-09
-4.70038e-08
-9.5287e-05
0.00047174
5.72758e-09
3.41609e-10
0.000935253
-1.46268e-08
0.00250892
-1.11331e-09
-3.65296e-08
1.56727e-08
-0.00376817
4.73831e-09
3.23682e-09
-1.6388e-09
-4.7289e-09
8.41281e-10
-1.86973e-09
7.78201e-09
8.16564e-05
-9.8465e-05
3.48099e-09
0.000125713
-1.68301e-08
6.81414e-05
-9.49555e-06
0.0052202
-7.23084e-10
1.27459e-07
0.000645237
4.9907e-09
-0.00654158
2.34497e-08
-1.38077e-09
8.0966e-08
7.36932e-09
0.00116199
2.02481e-08
-1.87107e-09
1.3576e-06
1.15931e-07
-3.38297e-08
-6.26173e-09
0.00107721
3.95971e-09
7.33394e-09
-5.66664e-09
-1.60991e-08
4.85392e-09
5.00068e-09
-1.12876e-08
1.12408e-08
0.00734882
9.87684e-09
-3.99992e-09
6.17414e-09
-3.08927e-10
4.01039e-09
2.26741e-07
-1.91807e-08
-0.000260907
3.72513e-09
-8.67246e-08
0.00123134
-1.01632e-09
0.000140533
-1.75778e-07
-4.05928e-09
3.56232e-09
0.000597346
8.47412e-09
3.48817e-09
7.71506e-11
1.3686e-09
-4.18301e-09
-3.39841e-09
0.00131773
2.25336e-08
-6.97131e-08
3.62322e-09
0.00210823
7.86045e-08
8.70703e-08
-1.45122e-09
0.00274418
-1.14658e-08
-3.81183e-05
-5.83658e-09
-6.30617e-09
0.00805496
3.47916e-09
0.0014621
-1.86128e-08
0.00077588
-7.22619e-09
-4.93892e-10
-3.87532e-09
2.22525e-09
-4.49206e-11
-4.98598e-09
-0.000274012
0.000932584
-6.43291e-09
-0.000162437
-0.00684437
0.00259407
0.00295686
1.10934e-08
1.44551e-06
1.11566e-09
0.00272266
-5.3355e-09
-2.0856e-07
-2.12803e-08
-0.00658735
3.7729e-09
5.03364e-09
-2.27178e-09
-1.278e-09
0.00307
-1.88496e-08
3.29059e-05
8.68031e-09
2.98948e-09
-0.00400005
-4.60853e-09
-1.49716e-09
-6.31763e-09
0.00749946
0.00679816
-0.000476948
-1.93961e-07
-3.58419e-09
-0.00380273
2.4256e-09
1.29642e-05
-1.33087e-07
1.90523e-05
-1.17107e-07
1.8057e-06
-0.000214888
-0.000510968
6.09475e-09
-1.67174e-07
-0.000150581
0.00153028
6.37985e-05
0.000602627
0.00267922
8.76285e-07
-5.52674e-07
-0.00109646
-4.04359e-09
2.59338e-08
-1.8098e-09
0.000515249
0.00730307
0.000963722
2.47774e-08
5.10577e-06
8.32039e-09
8.47494e-09
-1.0975e-09
1.7384e-08
4.08068e-10
-7.91017e-07
-2.25369e-09
-0.00214817
5.84761e-09
-2.16079e-09
3.64915e-09
0.000828705
-0.000315754
1.86315e-09
0.00210792
-2.59723e-09
-0.000140763
-2.49124e-10
5.85727e-07
-4.62957e-09
1.1297e-10
-9.77816e-10
-1.645e-08
-0.00735324
-3.69541e-09
-2.48994e-08
0.000285094
6.77983e-05
5.19737e-07
-1.7368e-09
4.70192e-09
0.000288083
2.81174e-09
5.65148e-09
0.000213941
-2.06339e-09
4.53422e-05
-3.94794e-09
-4.93047e-09
1.62216e-07
0.00258681
-6.29546e-09
2.04523e-08
-3.00981e-06
0.000709655
8.68209e-08
-5.05255e-11
-1.49143e-08
7.19573e-09
-0.00453758
-3.48607e-09
7.58655e-05
-3.10964e-09
-1.37495e-07
1.49314e-05
-2.06254e-08
-8.76716e-09
-2.29021e-09
3.70763e-09
5.31609e-08
-0.00202167
6.06433e-05
1.79856e-07
1.49359e-07
-1.30856e-08
2.015e-08
-6.36719e-09
-3.04262e-09
4.45851e-08
-9.53578e-10
0.000146902
5.19232e-09
-9.20627e-10
-8.67769e-07
-6.5967e-10
4.19639e-10
-2.93183e-07
-1.29201e-10
-1.78619e-08
-3.77335e-09
-1.84728e-09
1.46413e-07
-1.16449e-08
-3.03544e-09
1.94129e-08
5.10488e-10
7.19731e-06
0.00225952
0.00324557
3.27003e-09
-0.000438907
2.34811e-08
-4.77716e-09
1.79202e-06
0.00226254
-1.03371e-07
-7.18796e-08
-9.69369e-09
-2.62129e-09
-2.29713e-09
2.37645e-09
2.77643e-09
-5.64401e-09
-5.98777e-09
-9.51895e-07
0.00676404
8.36573e-10
2.60805e-10
-1.29099e-08
-1.24172e-05
-1.11628e-08
-0.00191643
-2.30599e-08
-1.38052e-07
-9.24431e-10
-1.31768e-08
5.42558e-07
-2.70057e-06
5.05344e-10
2.72422e-09
2.28341e-09
1.29199e-08
-0.0101057
2.45109e-09
-1.01867e-08
-7.26005e-09
-3.30287e-08
2.95205e-08
-1.2622e-09
2.31707e-09
2.57873e-08
-3.72957e-09
0.000228938
-3.18807e-07
-1.5172e-09
-0.00029846
2.06909e-09
1.03672e-07
5.43425e-08
2.49276e-09
-2.18232e-09
0.000114029
1.29728e-08
1.24478e-08
1.45193e-08
-8.00753e-10
-0.000445949
-3.01642e-09
-1.4737e-06
2.2847e-09
-4.99038e-10
1.20293e-08
-0.000144582
0.00895671
9.20586e-11
-0.000174759
2.1526e-08
9.92426e-08
0.00170879
-0.000374774
0.000194604
0.0025325
-4.57532e-06
-5.56662e-10
-0.000892692
-0.000875244
0.000550159
-2.51236e-09
0.00506884
-0.000329487
6.39781e-10
-3.93876e-09
-0.000779095
-2.51176e-09
0.000496376
1.06543e-08
-0.00239588
0.00191099
-0.0100819
1.39194e-09
1.30673e-06
-1.07876e-06
1.6434e-09
0.0082202
3.53298e-09
-3.66696e-09
1.95679e-08
-1.15023e-08
5.11728e-06
-0.0001908
2.98616e-08
-1.82728e-09
-1.33495e-08
0.00191045
0.00128786
-3.36997e-07
5.7193e-09
0.000360259
9.12503e-09
1.56854e-09
-1.35679e-08
-3.10063e-08
1.93885e-09
1.1046e-08
-0.000386958
0.000456228
-2.48057e-09
-4.04198e-08
-0.000230587
-0.00463908
1.35653e-09
2.01425e-09
-3.11131e-08
0.000129191
-2.18464e-08
0.000568501
-7.96972e-09
-0.000220024
2.9235e-09
-5.91227e-09
-2.56066e-09
-2.29929e-08
-5.35392e-08
2.80052e-09
-8.73289e-10
1.06197e-09
-0.000169574
-1.36905e-05
1.93451e-10
-9.01067e-09
-5.29013e-09
-4.96524e-09
0.00666333
1.80368e-09
2.57452e-08
0.0036307
2.69371e-08
0.000164566
-0.00460161
-1.33498e-08
0.0019466
-0.00046706
0.000472617
3.22964e-07
7.31059e-05
-9.35672e-09
-4.52599e-09
-1.09982e-08
4.92611e-10
-0.000407028
3.65448e-09
1.34374e-09
9.22089e-09
1.40034e-08
-1.73828e-07
-9.09913e-09
0.00013989
-8.55345e-09
-5.02724e-08
1.68888e-09
-4.93071e-09
9.11026e-09
-8.20247e-08
-5.37975e-09
1.51926e-09
-6.57572e-09
2.05565e-10
-6.59438e-05
1.77128e-08
3.16787e-09
1.96159e-08
-3.84425e-08
-1.48651e-09
2.4291e-05
-0.00065937
-1.00202e-06
2.98251e-09
1.97774e-09
-1.34123e-07
1.15433e-05
0.0041251
1.69872e-07
-1.44928e-08
-0.00280704
2.07387e-07
1.16303e-09
-2.49501e-08
0.00014325
-6.62816e-10
-0.00708245
-8.07515e-09
1.43803e-08
1.42308e-07
1.88236e-09
8.94369e-11
1.15239e-09
0.00201783
-0.000132548
-0.000262455
4.05011e-09
-0.00690909
-4.90383e-08
6.64019e-10
6.13338e-10
-0.000111054
-2.04098e-09
-0.00158942
-3.84164e-08
0.000618513
1.88353e-07
-1.49396e-07
-3.34815e-08
2.78309e-10
-0.00744002
3.99244e-09
0.00128865
-0.0119627
5.235e-10
1.06561e-06
1.86972e-06
-0.00621178
-0.000362404
1.4317e-10
0.000788547
-1.17133e-09
8.42634e-05
8.37379e-08
-0.00740766
-0.000375606
4.64507e-10
-5.80755e-09
-2.32139e-06
3.93999e-07
0.000258382
-0.000648929
1.42577e-09
9.0427e-10
2.04446e-08
2.94431e-09
1.66952e-09
0.00289063
-3.32067e-09
5.07036e-05
1.46561e-09
-4.20492e-08
5.74675e-09
-2.24568e-07
2.01734e-09
-0.000564598
-2.44309e-09
1.76535e-07
7.97524e-09
1.88764e-08
2.20205e-09
-1.0719e-08
-1.75622e-08
-3.10651e-08
-0.0101289
-9.0565e-10
-1.80666e-10
0.00263119
-2.16828e-09
-1.20628e-07
0.000138917
-0.000289511
9.89634e-09
-2.22966e-09
-1.92719e-08
-0.00723427
-3.55943e-09
2.12392e-07
-1.47518e-07
0.00482485
2.55953e-09
-0.00145757
-2.48605e-09
-0.00129377
-3.74914e-08
-7.01601e-09
5.8705e-08
2.58895e-09
0.00208588
0.00112481
0.000495802
-2.02012e-08
0.001637
0.00317679
-4.69747e-05
9.6862e-10
2.56855e-09
3.76853e-08
9.99524e-09
3.71681e-10
4.05312e-09
1.14721e-10
9.14507e-09
-2.07901e-09
-3.72029e-09
1.21493e-08
2.71484e-09
2.76214e-09
-3.96553e-09
-6.51443e-09
1.81228e-05
-7.1527e-09
9.52921e-10
0.00564314
-6.79736e-09
0.00290383
-0.00385822
-1.35087e-07
9.11641e-05
2.3326e-09
0.000143495
3.81547e-09
-0.00235535
3.07371e-09
0.000164138
-9.1286e-08
0.000553492
1.09286e-09
-4.86809e-09
0.00457236
2.45723e-08
1.09273e-08
2.1512e-09
-1.03377e-09
0.000521747
1.26431e-07
-4.03887e-08
1.6811e-09
2.71196e-09
0.000157846
-9.84192e-09
1.41398e-08
-1.34872e-06
3.12913e-06
-0.000246531
1.56258e-08
1.11135e-09
-3.82856e-09
7.23893e-11
2.69807e-07
-0.0023704
-0.00128625
3.73793e-09
1.48397e-09
0.00103292
-3.7833e-10
-3.03514e-09
-2.22511e-09
-6.13377e-08
-2.19669e-10
-2.83123e-09
-7.88063e-09
-9.08129e-09
1.15969e-08
4.80593e-09
-0.00229907
0.00383679
1.11545e-07
-2.01962e-08
-2.16332e-08
-0.000538807
-5.2235e-07
-2.27691e-09
5.25399e-09
-6.34089e-07
-3.82213e-06
1.61199e-09
2.75889e-09
-1.42676e-09
-8.41438e-07
-3.5635e-08
0.00190622
-0.00513807
0.0014463
2.4401e-09
1.40684e-08
-0.000466902
-0.000899345
-0.00172329
0.00179851
5.30295e-09
0.00165837
1.46836e-08
-8.87343e-08
3.34916e-09
0.000244258
4.5137e-09
2.19684e-07
1.84849e-08
-0.00631616
-2.973e-10
-0.00133029
-0.000370554
7.17129e-10
2.18242e-10
2.16041e-08
5.64382e-08
-5.41593e-09
4.64862e-08
-0.0103463
-1.37257e-09
3.50456e-08
5.95553e-09
0.00108059
1.99004e-08
-6.91993e-09
2.05708e-08
-6.73026e-09
-5.47978e-09
-0.000285399
-8.21986e-08
7.95073e-09
-1.55228e-05
-0.00554634
-1.2529e-08
-0.000232362
-3.3798e-09
-2.12923e-08
-0.00705587
6.59139e-09
7.24888e-09
-1.60215e-09
2.9441e-09
2.22929e-08
-6.97199e-09
-7.62091e-09
-0.000453373
-1.08236e-08
-7.71122e-09
2.35139e-07
-0.000349829
5.56327e-09
-2.04707e-07
1.55787e-09
6.13108e-05
-2.30301e-09
9.94722e-09
0.00317324
-8.11211e-09
2.36296e-09
4.84543e-09
0.00124561
0.00107185
-1.71901e-09
0.00119458
8.573e-10
-1.00081e-09
0.000432558
-4.09505e-09
-8.05028e-08
-1.79625e-08
6.5813e-08
-3.10775e-08
2.59246e-07
-1.32145e-09
-2.58652e-09
2.13541e-10
-3.65839e-07
0.00339823
1.54286e-09
-1.70741e-08
1.25656e-09
0.000691227
-1.17706e-07
0.000620511
0.000966412
4.18002e-08
3.8273e-10
-2.17822e-07
-1.61842e-07
2.76269e-05
-7.84265e-10
-4.23088e-10
8.68912e-09
-5.25217e-10
3.31382e-09
3.43275e-09
-0.000422962
8.65893e-10
0.00166772
7.80591e-10
-0.000736619
-3.51863e-09
2.31386e-08
-8.83326e-06
0.00379725
-0.00437022
2.4678e-09
-3.36182e-09
1.25673e-06
-2.84318e-09
3.18824e-09
0.000368307
-0.000136712
-1.82089e-08
-1.84434e-08
0.00167541
1.17063e-05
0.00168052
2.16209e-09
2.22253e-09
-1.34068e-09
-6.51916e-10
0.000501497
9.43142e-08
-3.41283e-09
0.000233007
0.00512447
-0.00155431
5.37912e-09
5.44561e-09
2.90977e-07
-8.22826e-05
8.744e-05
0.00265787
-1.90661e-09
-5.73988e-08
-8.84776e-09
0.000421012
0.000779391
0.000143951
-3.59932e-08
7.09765e-06
1.8194e-09
-7.95656e-10
1.17551e-08
0.00229191
-6.79431e-09
1.46425e-11
0.00131285
3.14772e-08
1.90402e-08
1.03374e-09
2.61395e-08
-3.9144e-08
-0.00101011
-1.69945e-06
5.74407e-09
1.22535e-09
5.05104e-09
-1.54683e-07
-1.2743e-07
-3.43655e-08
0.00580832
5.56592e-09
0.00102079
-0.00307568
0.00551583
5.96532e-09
-1.99067e-08
7.43713e-05
0.00696434
-1.20125e-09
7.84535e-05
8.03469e-05
1.64327e-09
0.000837575
5.79682e-09
-7.15155e-09
-1.09332e-08
3.66233e-09
0.000154793
1.13157e-05
1.97282e-09
7.40441e-09
-0.000181104
6.92233e-05
6.66131e-10
5.06912e-08
0.000405677
0.000494906
2.7079e-09
0.000200287
0.000287031
2.17994e-09
-1.1173e-09
-9.01998e-09
3.35989e-06
2.55985e-09
-6.5238e-08
-6.82474e-05
2.13659e-09
4.91484e-07
-0.00133218
5.21127e-08
-0.000132612
-1.74308e-09
-1.57385e-08
0.00204629
0.00143199
-2.8234e-09
-3.76164e-09
8.16853e-05
0.00163161
1.85945e-09
4.24132e-09
-7.12923e-05
1.36535e-07
8.9053e-08
-4.4741e-09
-0.00904337
-3.03665e-09
1.3887e-09
1.01991e-05
-5.91337e-05
1.16635e-07
0.000177305
-7.03174e-06
-1.16407e-09
-3.22501e-10
-5.88351e-07
4.40522e-09
-4.38448e-06
0.00186347
-0.00111444
-4.00922e-09
-8.61519e-10
0.00265508
-4.70192e-08
-1.91389e-10
-9.92379e-06
3.56368e-09
-8.04068e-09
0.000152476
2.28202e-08
4.46606e-09
2.00764e-08
1.51017e-07
-3.99046e-09
-0.000286556
-0.00634082
2.80766e-06
-1.1797e-07
-4.30898e-06
-4.83097e-07
0.00683398
-5.87611e-09
1.81893e-08
-2.1851e-07
1.62599e-05
5.84585e-06
-1.61562e-08
-2.70402e-09
-6.42118e-06
-1.33547e-09
1.87762e-06
-9.83745e-08
1.51197e-08
8.26665e-09
1.06019e-08
-6.51091e-09
-4.05638e-09
-3.72071e-09
4.18875e-10
-5.89663e-09
0.000153138
-1.23912e-08
4.58793e-07
1.29409e-08
-1.24663e-06
0.00195564
-4.88372e-09
-2.32689e-07
-1.32174e-10
-8.15056e-07
0.00010341
-5.86259e-08
8.40745e-09
-1.73335e-10
-0.00182541
1.25824e-09
-8.71211e-09
0.0017637
7.46293e-09
6.58283e-09
-0.000320429
-1.0667e-08
-6.5628e-10
0.00498784
1.16305e-05
7.11895e-09
-0.00995046
2.04092e-05
6.64502e-11
9.25269e-10
1.54102e-05
-1.8749e-08
4.00231e-10
-2.84065e-09
9.8541e-09
0.00450361
1.13664e-07
4.63576e-08
1.68481e-09
-1.97684e-08
5.86275e-10
-5.42909e-09
0.000333455
-6.80342e-09
-0.000117555
1.95785e-07
7.92753e-10
-4.15161e-09
-0.000870941
-5.31671e-07
-2.47764e-08
5.92342e-08
-0.000275464
1.2413e-08
9.10399e-05
-0.000119085
-1.01511e-08
0.00127159
-0.000341546
-7.29444e-06
-3.52265e-09
-1.69505e-08
1.60276e-05
-1.85118e-09
0.00057386
6.3021e-08
-1.01683e-09
7.43662e-05
-5.29526e-07
-3.39252e-08
1.16622e-08
0.00224992
0.00244233
7.1134e-10
-5.48287e-10
6.90658e-08
-1.49631e-08
4.77187e-10
4.06843e-10
-0.00227463
-0.00266982
1.73738e-05
-0.00544161
-1.83637e-07
2.71882e-09
8.53845e-08
1.36839e-09
9.46388e-10
-0.00341644
-3.59794e-10
1.93655e-09
1.44525e-09
-6.64924e-09
4.64807e-05
-4.79537e-09
5.3781e-05
5.09408e-05
-2.84933e-08
-5.53734e-07
5.03025e-05
-4.61039e-10
-3.06473e-09
0.000542557
-1.78295e-09
-1.47567e-07
-0.00115303
3.46904e-07
-0.000288865
-9.4188e-09
-0.00183979
0.00516274
-0.0023046
-0.00460123
5.68764e-09
-0.00399423
-0.00121666
-1.21255e-06
4.39037e-05
-6.75615e-09
-6.07149e-05
0.000279241
2.66526e-05
-0.00232898
1.60023e-10
-0.00325717
-0.00119822
0.000116837
0.00163913
-0.00022775
0.000128339
8.85797e-05
5.94406e-08
8.21263e-09
6.03607e-05
-5.47932e-10
-7.67214e-09
-1.20091e-09
-0.000470577
-6.29693e-08
2.00818e-08
0.000169845
9.36197e-09
0.00500512
1.51442e-05
-7.00783e-09
-1.46434e-09
9.5571e-10
-0.0029621
3.86372e-05
2.61727e-09
2.15589e-08
-8.93632e-06
-3.45832e-07
1.76284e-08
-6.68633e-10
1.78524e-09
2.85449e-09
1.46215e-09
-0.000979165
-2.43882e-08
0.000768001
-0.0016501
4.10223e-09
0.00022515
1.80486e-09
-3.09555e-08
-4.31376e-09
-2.01345e-09
5.38954e-08
6.33914e-09
-1.14204e-08
-0.00290058
-8.2638e-10
-8.8191e-09
-2.1303e-08
-9.80227e-10
-4.48765e-07
6.02644e-09
1.56238e-09
-1.18534e-09
-6.09759e-09
-6.71196e-08
-7.70079e-10
-1.81211e-09
-1.11264e-07
-0.000309554
6.77199e-09
-2.08129e-09
1.50229e-08
-1.09959e-09
0.00187126
-2.41559e-09
-0.000873668
8.52302e-10
2.29395e-06
3.69523e-09
-1.04229e-08
-8.45803e-09
-3.70668e-09
-0.000188119
-0.000241144
0.000571635
1.47051e-08
0.0034917
-1.88988e-07
-0.00017155
2.34489e-09
0.000122177
0.00103395
5.36971e-09
0.00391467
0.000149688
-0.000103051
2.68058e-08
-2.52061e-09
2.40743e-07
-2.34658e-06
5.4862e-09
-0.000394438
-0.000267891
4.06175e-09
5.80776e-05
2.03635e-09
-5.67792e-08
0.000476841
-1.19308e-08
3.73825e-09
-7.43772e-05
-0.00319957
2.67251e-07
1.49532e-08
-4.33298e-10
2.70148e-05
-8.37153e-10
7.28191e-05
1.02283e-06
1.34462e-09
-8.37134e-08
5.81081e-09
0.00235374
-0.00139512
9.13443e-09
-0.000102798
-1.04126e-09
0.0019432
0.00149461
-2.37892e-07
-0.00300791
-1.35276e-08
-0.00041231
-2.21706e-08
1.45689e-08
8.50812e-09
-1.71634e-06
0.00205935
-8.16124e-09
4.934e-08
-1.43502e-08
0.00319759
-3.29178e-05
-0.0024882
-0.000197885
5.6739e-09
1.08413e-08
-0.000414758
0.00113761
-5.45482e-09
-4.16522e-05
0.000131194
3.9056e-07
-0.000367586
-0.00120723
-9.03041e-08
2.39101e-07
-7.58189e-07
-0.000307273
9.84843e-05
2.09856e-07
-9.35828e-10
7.54198e-11
0.000220156
2.50995e-09
1.28013e-09
0.0014959
-0.00536434
-8.75845e-10
2.08551e-09
-8.27164e-07
-0.00111126
3.85929e-09
5.62984e-09
5.20889e-11
0.00010832
2.4759e-09
-1.8801e-08
-1.86303e-08
-0.00237689
3.77219e-05
-5.83377e-08
-0.00301367
2.04119e-08
-3.65695e-09
3.19032e-07
-0.00178934
1.73541e-07
1.90592e-08
-0.00308977
0.00360285
-5.83994e-10
-4.61681e-08
1.36065e-08
-1.45265e-05
3.94183e-08
-0.00140263
-1.50753e-08
-6.60307e-09
2.00509e-07
0.00152944
4.86687e-07
0.000101577
-4.97556e-07
-6.64145e-06
-0.00455492
5.40993e-09
-0.000777653
6.8628e-08
4.83458e-08
-0.000302717
-3.94903e-08
-2.96655e-05
-2.34263e-09
-3.64927e-09
2.29558e-09
-0.000787996
2.99821e-05
-1.33037e-07
0.000119564
3.95314e-09
0.00547907
3.967e-09
-0.00248902
2.97373e-09
1.20062e-09
-3.28762e-09
1.71519e-08
0.00223754
6.68455e-08
1.0233e-08
4.2726e-05
7.33902e-05
-0.00399859
-1.17569e-09
-2.40432e-08
-6.00243e-09
-9.54854e-08
-1.94717e-07
-1.7456e-08
7.66469e-09
-0.0032584
-0.000160788
0.000261117
0.000625897
-7.13283e-08
0.00161258
-0.000468138
-1.55711e-08
4.28526e-11
0.000590973
1.81672e-07
-0.000373018
4.81704e-10
0.000675644
-5.55063e-09
-3.68228e-09
5.07592e-06
-0.00159102
-5.9872e-09
-0.000380378
-1.3063e-08
-1.3711e-08
-0.000200739
-9.76206e-09
-2.75844e-08
1.36435e-08
-1.74098e-09
7.16699e-08
0.000275886
0.00026648
3.18329e-08
5.38013e-09
8.35881e-05
2.89902e-05
8.32418e-05
1.27755e-08
0.00052211
7.92435e-09
-2.57954e-08
-0.000216261
0.000152579
-1.21302e-08
-0.00256729
0.00313157
5.81599e-09
9.34466e-06
-6.54265e-08
4.95819e-10
5.01658e-07
-1.2866e-06
0.000578723
-8.85101e-09
8.45304e-10
-3.88362e-06
-2.95615e-09
5.22372e-10
-3.73938e-09
-1.72292e-09
0.00165633
-2.02857e-08
3.00846e-07
-1.18174e-08
-0.00533334
-9.73846e-09
-1.1587e-07
0.000971328
-7.45937e-09
-0.00436553
0.000276834
-0.00287013
-0.000172061
1.8019e-08
-2.36498e-09
2.97571e-07
1.33778e-05
7.13996e-09
-1.91494e-09
-1.08479e-05
4.33644e-05
-4.50712e-05
-2.11106e-09
1.44427e-08
-0.000736017
-1.98002e-09
0.00174102
3.92695e-09
6.71995e-09
8.48059e-09
-9.47562e-10
0.00018309
-9.3274e-09
2.28804e-08
5.35183e-09
6.18704e-08
-4.21883e-10
4.63474e-07
7.51492e-10
-2.85514e-09
-0.000283327
-1.60875e-05
-2.72872e-08
-6.12886e-09
-2.57767e-08
-3.59299e-08
-2.19286e-09
-0.000116968
-2.48346e-09
-0.000570131
-1.51295e-08
-0.00112528
-1.23197e-08
2.92292e-09
-1.09216e-09
-7.66674e-08
5.73533e-07
3.33313e-09
-5.36002e-08
6.45675e-09
4.33082e-07
-2.06055e-09
-7.95794e-09
-6.39515e-09
8.72313e-09
0.000604057
0.00119422
-6.42788e-05
0.000161111
-1.50629e-08
1.24593e-07
2.97747e-09
0.00149195
8.25183e-05
-5.18536e-09
0.000139865
8.66696e-07
2.43789e-05
-0.000455491
2.93878e-09
-1.67694e-05
3.95971e-09
4.55073e-08
-0.00012838
5.82005e-09
-8.51183e-09
-0.000108447
-0.00025117
1.48039e-08
-1.21907e-08
9.03928e-08
2.26693e-08
-0.0030949
3.11725e-07
3.04838e-09
5.28476e-06
-0.00113504
0.00291252
6.507e-07
-0.00130619
1.02004e-08
-0.00571051
-0.00795145
-0.00324452
-1.57181e-08
-5.25964e-05
-1.37154e-09
1.1669e-08
-0.00235525
4.91216e-07
-0.000231478
-6.44224e-10
0.0045842
0.00164149
-9.19143e-09
4.2024e-09
-4.31925e-09
6.21529e-08
-5.55004e-09
2.70823e-07
-0.00217477
-0.00527104
0.0035267
-0.000371656
-4.24238e-09
-1.40634e-08
9.72862e-06
0.00214371
-6.78478e-09
-1.26489e-08
-7.6872e-08
-2.36137e-05
-1.98181e-09
1.49238e-09
0.00449853
7.67304e-05
-8.55001e-05
1.76662e-09
0.00207166
1.09685e-09
-3.56567e-09
6.90917e-09
-0.00331968
-1.13184e-07
1.21094e-06
-3.03916e-09
0.00334184
-9.10062e-10
-3.04015e-09
-0.000232828
5.44395e-05
-3.7317e-09
-7.33933e-09
5.68474e-09
1.12593e-08
-5.37937e-08
2.21466e-08
1.17391e-09
0.00137801
-2.08674e-08
1.27485e-09
9.18751e-09
-5.65635e-07
-6.10038e-09
0.00157068
-8.99765e-06
3.55187e-08
-0.00275175
-2.43493e-05
-0.00460378
7.2229e-05
1.14663e-08
-3.29443e-05
-1.18726e-09
-2.43392e-08
0.00043002
-8.93942e-05
-8.88835e-09
9.72749e-05
-0.00342344
-0.00127841
5.32858e-05
-0.000162001
-0.000317417
1.15893e-10
0.00128172
1.82784e-08
-0.00118055
-3.76514e-09
5.2272e-09
1.03232e-07
0.00074872
2.11619e-09
1.34637e-09
-1.54814e-07
-6.80012e-09
-0.000327395
4.13659e-09
0.000144631
-3.31315e-09
5.55006e-10
-0.00185666
2.00666e-09
7.50401e-05
7.66944e-09
-1.13483e-06
0.00147968
-4.35994e-09
0.000337508
2.93656e-09
0.000333531
-0.000346754
-0.000366896
3.5744e-09
4.68426e-05
-7.41634e-09
-1.45892e-08
-1.81047e-09
2.39565e-10
0.00211641
3.00181e-05
-0.00018711
1.56235e-07
2.66736e-08
1.53248e-09
-0.00320714
0.000420002
-0.00173679
0.00277908
-9.88476e-09
-0.00271642
-0.000145119
7.0452e-09
-0.00439322
-1.41238e-08
-0.00313132
4.21036e-09
-1.21369e-08
-0.00503655
-9.62505e-09
-2.71361e-08
4.64304e-09
-0.000498096
1.96303e-09
8.99539e-09
2.66855e-09
1.23792e-08
-4.70904e-10
-0.000176225
0.000170034
1.4992e-07
-4.54535e-06
-1.67194e-07
0.000406271
-3.7395e-09
-9.6027e-07
0.000146959
-0.000836673
3.89544e-09
-1.00451e-09
-0.00168536
5.10222e-09
0.00413187
7.49756e-10
-8.58612e-09
-2.02701e-08
1.6036e-06
-0.00512431
5.01501e-09
-0.00414088
-0.000109207
2.11184e-08
-8.04337e-09
1.1351e-09
9.55529e-09
0.000886665
1.62649e-06
6.27576e-05
-2.16924e-05
-5.93577e-08
-4.45514e-08
-4.02961e-09
6.14522e-05
9.40496e-05
4.04724e-09
1.41786e-09