/*--------------------------------*- C++ -*----------------------------------*\
| =========                 |                                                 |
| \\      /  F ield         | OpenFOAM: The Open Source CFD Toolbox           |
|  \\    /   O peration     | Version:  v2012                                 |
|   \\  /    A nd           | Website:  www.openfoam.com                      |
|    \\/     M anipulation  |                                                 |
\*---------------------------------------------------------------------------*/
FoamFile
{
    version     2.0;
    format      ascii;
    class       surfaceScalarField;
    location    "250";
    object      ddtCorrDdt0(phi);
}
// * * * * * * * * * * * * * * * * * * * * * * * * * * * * * * * * * * * * * //

dimensions      [0 3 -2 0 0 0 0];
oriented        oriented;


internalField   nonuniform List<scalar> 
27663
(
-0.00936719
0.00744846
0.00191882
-0.00148823
0.00183695
-0.000348607
-3.8763e-06
6.07384e-06
-2.19608e-06
0.0332197
-0.0181098
-0.0151099
-6.13243e-06
6.66481e-06
-5.3264e-07
0.00627166
-0.00973948
0.00346776
-1.27915e-05
1.70478e-05
-0.00252637
0.00103798
0.000846715
-0.000246209
-0.000600503
-1.41546e-06
1.80486e-06
-3.88965e-07
-6.65616e-06
-9.19052e-06
1.58471e-05
1.84992e-06
-5.72476e-06
0.0202558
0.012964
-0.000283874
4.86121e-05
0.000235274
-6.63789e-06
5.07071e-07
-1.54315e-07
2.371e-07
-8.35548e-08
2.40012e-05
-1.31759e-05
-1.08219e-05
0.000846144
-0.000469592
-0.000376534
7.89183e-06
-6.5802e-06
-1.31632e-06
-0.00056607
0.000583065
-1.70149e-05
0.00614663
0.000125016
1.67487e-05
-2.98261e-05
1.30779e-05
-5.34128e-08
-1.01456e-07
0.000213417
6.97207e-05
-0.000283137
-3.37238e-06
3.42252e-06
-4.98341e-08
0.00127919
-0.000365209
-0.000913976
-0.00331293
-0.00605425
-6.1877e-07
-6.9414e-06
7.56631e-06
-3.49397e-08
-2.16189e-07
2.51111e-07
-9.80974e-06
-5.78995e-06
1.56006e-05
-3.42402e-06
3.69217e-06
-2.6753e-07
9.72002e-05
-6.94369e-06
-9.02566e-05
1.94148e-06
-1.90665e-06
-3.4367e-08
0.000407773
0.000293876
-0.000701641
-0.00160768
0.00295575
3.42454e-05
-4.83745e-05
1.41297e-05
4.37795e-06
1.2245e-06
-5.60154e-06
-0.0120903
0.00705068
0.00503961
-0.0004003
0.000306285
9.40156e-05
-1.60099e-05
6.20037e-06
-0.00834622
0.00804828
0.00029795
-0.00742859
0.00411562
-2.74445e-07
1.22181e-05
-1.1942e-05
-0.00222184
-0.00070217
0.00292387
0.000489867
0.000356848
-2.02762e-06
4.9097e-06
-2.88203e-06
-0.00179069
-6.98852e-06
3.01082e-06
3.97896e-06
0.0089338
0.00351998
-0.0124538
-0.000149664
-0.00253297
0.00268263
8.89745e-06
-9.50953e-06
4.67621e-05
-5.89259e-05
1.21646e-05
-0.000666103
0.0139547
-0.0132887
-0.0104007
0.00205446
-9.24876e-07
1.17551e-06
-2.50635e-07
-0.0101054
0.0159257
-0.00582025
7.09521e-05
-0.000354821
5.26407e-05
-0.000618704
0.000789669
-0.000381884
0.000178816
-0.000366282
0.000187466
-6.72248e-06
-1.63536e-05
2.30752e-05
-1.43778e-06
7.77629e-07
6.57527e-07
0.000161654
0.000421403
2.78774e-06
6.32812e-07
-3.41991e-06
0.000967342
-0.000929692
-3.76527e-05
-0.00211294
0.00366972
-0.00155675
-2.63187e-06
5.49744e-06
-2.86568e-06
-2.89747e-05
5.88831e-06
2.30862e-05
1.72001e-06
-1.52576e-06
-1.9383e-07
-0.0253973
0.00976007
0.0156373
9.76388e-06
-1.64198e-05
0.00774238
-0.000814002
-0.00692836
-6.64782e-05
-3.29175e-05
9.93963e-05
0.000180076
-0.000117559
-6.25307e-05
-2.52302e-06
1.54141e-06
9.81851e-07
-2.33552e-05
4.99615e-07
2.28551e-05
0.00280085
-0.00286608
6.52465e-05
0.00229902
-0.00244869
5.64849e-07
1.15552e-06
0.00152439
-0.000594977
-0.000929399
9.39563e-05
-0.000169617
-0.000878406
0.000363833
0.000514586
0.00015349
2.6582e-05
-1.8812e-06
1.11792e-07
1.76974e-06
2.21465e-06
-2.73043e-07
1.22861e-05
-1.25597e-05
-0.000232304
0.000432444
-0.00020014
-1.22566e-07
-1.29285e-06
0.000202972
0.000325287
-0.000528258
0.000540424
0.000305733
2.61506e-05
-9.26289e-05
-0.00353627
-0.00190325
0.00543957
-0.00445765
0.00223571
0.00284986
-4.89871e-05
-0.0118106
0.00903291
0.00277761
-1.50423e-06
-2.1851e-05
2.2553e-06
-7.02717e-06
4.77312e-06
0.0199691
-0.0162652
-0.00370436
-0.000232491
0.000281104
-3.42011e-06
5.27134e-06
-0.00520958
-0.00660102
-5.96362e-07
3.38442e-06
0.000348603
0.0026336
-0.0029822
6.9912e-05
2.72884e-05
1.55461e-06
-1.55415e-06
4.41615e-05
-0.000693597
0.000649415
-1.07517e-06
1.5019e-07
-3.83176e-07
-2.63374e-08
4.0885e-07
0.000982135
-1.47989e-05
-8.19678e-07
-2.47673e-06
3.29671e-06
-0.00241029
-0.00846884
0.0108789
3.66171e-07
1.55223e-06
-1.91995e-06
2.70895e-06
-3.12452e-06
4.16332e-07
-1.38583e-06
-9.63088e-06
1.10181e-05
9.17368e-06
3.48049e-06
-1.26532e-05
-5.25126e-06
1.83366e-06
-4.03654e-06
1.40471e-06
0.000337839
-0.000240322
-9.75136e-05
8.98882e-07
-3.11219e-06
2.21416e-06
0.000275666
-0.000253072
-2.25933e-05
0.00750489
0.0124641
2.94564e-06
-2.36467e-07
-0.0128455
0.00274003
-0.000506301
-0.000372105
-0.0013014
0.00874986
0.00687532
-0.00576668
-0.00110865
0.00880664
-0.0121517
0.00334502
0.000364903
-0.000204571
-0.000160331
1.61498e-05
-2.90027e-05
1.28526e-05
-7.17504e-06
-5.37324e-05
-0.000127541
9.03048e-05
3.72409e-05
-1.86887e-06
2.2346e-06
-0.000875231
0.000834928
4.03436e-05
-0.00977329
0.00452275
0.00525047
1.12349e-05
-2.06092e-06
-2.14246e-05
1.08176e-05
1.06075e-05
1.81317e-06
-3.51293e-06
1.69973e-06
6.66107e-07
-1.65483e-06
9.88746e-07
0.000325686
-0.0016158
0.00129018
1.68127e-06
-1.23268e-06
-4.4932e-07
-3.66365e-06
3.17743e-07
3.34605e-06
-4.42697e-07
3.2129e-07
1.23737e-07
-9.57723e-07
-4.8112e-07
6.25676e-06
-4.00062e-06
-2.78881e-06
8.86881e-06
-6.07808e-06
0.000115757
0.00116343
-1.24266e-06
5.62093e-06
8.30322e-06
5.97649e-07
-0.000678127
0.000722287
1.61512e-05
-2.7989e-05
1.1838e-05
0.000306579
-0.000235618
9.15209e-05
0.000246318
0.00204603
-0.00172034
-1.46466e-07
-2.5171e-06
1.27675e-06
1.24003e-06
-0.00773005
-0.000773591
0.00850364
0.000957531
-0.000603736
-0.000353777
0.00292323
-0.000617589
-0.00230564
0.000436746
-0.000451092
1.43462e-05
1.25924e-05
-7.70015e-06
-4.89297e-06
-5.98237e-06
-1.79813e-07
6.16154e-06
-0.038381
0.012662
0.025719
1.58912e-06
-9.23109e-07
0.00205475
-0.00401504
0.00196014
-3.97264e-06
2.57389e-06
1.40002e-06
0.0196332
-0.0121282
-1.41921e-06
-1.09863e-06
-6.21997e-07
2.19498e-06
-1.57284e-06
0.000189282
-9.53241e-05
2.08543e-06
9.3694e-07
-3.02155e-06
-1.46194e-06
-1.06055e-06
7.16989e-06
-6.27845e-06
-8.89732e-07
-0.000100378
-2.71635e-05
-8.29686e-05
4.01656e-05
4.28025e-05
0.00297262
-0.000189191
-0.00278341
1.56323e-06
-2.53667e-05
2.38027e-05
0.00629417
-0.00691247
0.000618354
0.000278982
8.59246e-05
6.3365e-06
8.33525e-07
-2.30804e-06
7.82184e-07
4.27428e-05
-5.70041e-05
1.42606e-05
-3.22364e-05
-5.07337e-05
3.80721e-05
-3.82552e-06
3.4449e-05
-3.27224e-05
-1.72797e-06
-0.00159402
1.3973e-06
-9.37318e-07
-4.61632e-07
-0.000314847
4.39499e-05
0.000270895
4.03676e-05
2.3752e-06
0.00188512
0.0044089
-0.000527461
-0.00921202
1.50955e-05
1.4032e-05
-2.91245e-05
-5.96721e-05
3.26732e-05
2.69994e-05
-0.000195264
0.00311849
1.19473e-06
4.86197e-07
-0.000999724
0.00114009
-0.000140368
-0.00261904
0.00232788
0.000291172
-1.93789e-05
-3.76257e-05
0.0172556
0.00869052
-0.025946
3.92385e-09
-1.88502e-06
0.000360441
-0.000575643
0.000215193
0.0099682
0.000648417
-0.0106166
0.00152891
-0.00132512
-0.000221485
1.28107e-05
-1.02937e-05
-2.51716e-06
-0.000105633
0.000210348
-0.000104712
-9.60263e-05
0.000255242
-0.000159208
0.000805337
-0.00176659
0.000961293
-0.000319784
0.000109949
0.000209835
4.54352e-06
-4.7793e-06
2.36142e-07
-0.00515634
0.00815948
-0.003003
-0.00456218
-0.00521108
-1.51437e-06
1.2271e-06
2.83137e-07
0.000378164
-0.000509801
0.000131642
0.00103636
-0.00011995
-0.000916421
9.58103e-06
2.48678e-05
3.65809e-05
1.49157e-06
0.00096054
-0.003642
0.00268146
8.36501e-05
-1.03896e-06
0.000414949
-3.67875e-05
1.29369e-05
1.29468e-05
-2.58778e-05
-8.78916e-06
-4.44086e-07
9.23411e-06
7.2486e-07
6.70977e-07
-0.000155351
0.000145485
9.87889e-06
-0.000142157
0.00036172
-0.000219562
-0.000279256
0.000197104
8.21531e-05
2.26869e-05
-9.7542e-06
-1.49819e-06
-2.47434e-06
0.0164644
0.000336936
-0.000400192
6.32562e-05
-0.0048392
-0.000316759
0.00449161
-0.00243686
-3.91023e-06
2.46755e-07
-2.74112e-05
-2.97447e-06
-4.49684e-07
-5.44297e-05
4.72544e-05
-0.000265899
-0.000100383
0.00146206
-0.000623701
-0.000838355
3.85921e-06
0.0113208
-0.00896551
-0.00235528
-1.22613e-05
3.15247e-05
-1.92628e-05
6.01903e-05
1.18357e-06
-6.13736e-05
1.79475e-06
0.000538226
-0.000335253
0.00329362
-0.00850318
6.30459e-05
-1.6283e-05
-0.000111553
0.000324969
4.05443e-05
0.000159552
-0.000200095
-1.38012e-06
-1.35699e-07
-5.68905e-06
2.18374e-05
0.00704465
-0.00771077
0.00151773
-0.00614995
0.00463222
1.12977e-05
1.51301e-06
0.00588768
-0.00205907
-0.00382862
5.21982e-06
-4.93934e-06
-2.8045e-07
8.82742e-08
2.62207e-07
-3.50609e-07
-5.85066e-06
3.69763e-06
2.1529e-06
0.00051478
-7.80337e-05
-2.34583e-05
1.85926e-06
2.15996e-05
-3.81339e-05
-0.000154673
0.000192807
-0.000128054
-2.72973e-05
-6.30859e-07
0.00261844
-0.00226985
-0.00368435
0.00295545
0.000728922
-0.00275729
0.004275
2.55493e-06
2.53023e-06
-5.08491e-06
-2.70082e-05
1.95963e-05
0.00840634
5.58639e-06
-1.88891e-06
8.26008e-06
-1.46394e-05
6.38051e-06
-2.48668e-05
9.96913e-06
-7.43272e-06
-2.53689e-06
-1.73895e-06
-1.4271e-05
-7.9287e-06
9.88216e-07
2.95149e-06
-8.09692e-06
5.14538e-06
0.0119702
0.00923053
-0.0212008
0.000896295
-0.000763831
-0.000132454
-4.03738e-06
-0.000107212
0.000231039
-0.000123827
-1.47387e-05
1.29995e-05
1.64669e-07
-8.95375e-06
6.79334e-06
3.17336e-06
0.00384466
0.00204322
0.000215296
-0.000174754
-0.000139815
-0.000139439
-0.0451398
0.00166961
0.0434702
-0.000554369
0.000393957
0.000160415
0.000874608
-0.000758852
1.56943e-05
1.05421e-06
0.000648921
0.00162865
-0.00227759
-1.30421e-05
-8.38303e-06
0.000268343
3.79414e-05
-6.68435e-08
3.01997e-06
-2.95349e-06
-0.000281731
-0.000272638
0.000533231
0.000424304
-2.84897e-07
2.49827e-07
1.71902e-05
6.81086e-06
-2.96111e-06
3.04759e-06
-8.60819e-08
0.029226
-0.000228262
-0.0118041
-0.0135932
0.0113452
-0.000152814
-0.0111923
-0.00331064
-0.000373688
-2.24904e-07
-6.69314e-05
6.71578e-05
-0.000114155
-0.000104868
0.000465303
-0.0519918
0.0133875
0.0386043
9.97053e-05
-7.16192e-05
-2.80852e-05
-1.52475e-08
-1.95067e-05
1.77038e-06
-9.4609e-06
7.69141e-06
1.5977e-06
-4.34153e-08
9.06314e-06
-8.18458e-06
-8.7881e-07
-2.14618e-05
2.17483e-05
-5.59717e-06
-0.0150489
-0.0369429
0.0035683
0.00459104
0.0014292
0.00471735
-1.34814e-06
3.90302e-06
-2.2024e-06
3.4198e-06
-1.21746e-06
1.57514e-06
-1.57512e-06
-1.75895e-05
3.52479e-05
5.11965e-06
0.0496997
-0.0363122
1.98845e-06
-3.14372e-06
1.15546e-06
-0.00328006
0.000661018
0.0300254
-0.0213347
-2.14795e-06
-5.94945e-06
-7.73374e-05
7.71096e-05
-5.08481e-05
0.000268636
-0.000217782
-1.00852e-06
3.86464e-07
-8.55281e-06
7.16697e-06
-5.08364e-05
2.94709e-05
2.1366e-05
-5.63214e-06
7.40274e-06
-0.00092056
0.00063106
0.000289498
1.92726e-06
6.09759e-08
-0.00464596
0.00170306
0.0029429
0.000746551
0.00071551
-0.0018879
0.00188629
1.55877e-06
0.000645017
-0.00126258
0.000617506
1.52889e-05
-2.31297e-05
7.84124e-06
-0.000118676
0.000260059
-0.000141386
-0.000430689
-4.26384e-06
7.86353e-06
-3.60018e-06
1.81995e-08
-2.32588e-06
-1.70211e-06
1.48031e-07
0.00111972
-0.00305629
0.00193655
1.87751e-06
-1.27725e-07
-1.74922e-06
0.0347389
-0.0325619
-0.002177
-3.95804e-07
0.0158647
-0.00496193
-0.0109028
0.000617847
-0.000103067
9.22808e-06
4.63067e-07
-1.51878e-06
1.05631e-06
-0.000758723
0.00373136
-0.000131688
0.000209746
-7.8056e-05
-3.34314e-07
4.22829e-07
6.61155e-05
-0.000261083
0.00019497
5.15936e-06
-0.000278346
0.000259549
1.87977e-05
-0.0126799
-0.00088504
0.0135648
0.000514679
0.0015315
0.000113505
8.5056e-05
-0.000198563
-0.00126431
0.00238403
0.00206765
-0.00155282
0.00406197
-0.0377432
0.0336813
-0.000215339
0.000164491
1.80241e-05
-0.00510117
0.00287349
0.00222752
-6.38246e-06
3.59598e-06
-2.7765e-06
2.80247e-06
-2.5762e-08
6.10285e-07
9.79108e-07
0.0098022
0.0249368
0.00871378
0.00715087
-1.6132e-05
-1.36939e-05
6.37854e-05
3.59205e-05
-0.000625824
0.0331717
-0.0325452
4.50833e-06
4.10672e-06
-8.61467e-06
0.00537315
-0.0099353
0.00196863
0.00799956
0.000225934
0.000312293
5.32467e-05
0.000209708
-3.86018e-05
-0.000171105
0.000832883
-0.00733637
0.00650347
3.44889e-06
4.43844e-06
-5.65053e-07
-2.26982e-06
2.83582e-06
-3.34551e-06
-2.89538e-06
6.24072e-06
0.000234109
-0.000167992
8.75846e-07
-6.85855e-06
1.51158e-06
-1.04803e-06
1.14983e-05
-1.56213e-05
4.12244e-06
-0.00630961
0.00140661
0.00490294
-4.46969e-06
2.44212e-06
7.2703e-07
1.07713e-05
0.000103136
-0.00174477
0.0255772
-0.0238326
0.000219817
5.58491e-05
0.000795559
0.00072887
-2.97931e-06
1.48104e-06
8.17916e-05
1.63145e-05
-9.81074e-05
1.70558e-06
-2.27035e-06
0.0102472
0.000794865
-0.0110424
0.00715186
-0.00177871
9.35915e-05
0.000115646
-0.000209238
1.85724e-06
-5.20327e-06
0.00015185
5.66231e-05
-0.000208474
7.23926e-06
1.54455e-05
-1.72033e-05
-3.89679e-05
5.61721e-05
2.66546e-07
-3.1918e-08
-2.34382e-07
-6.01913e-05
-0.000498803
0.000558995
4.91876e-06
6.31651e-06
-0.000201523
-7.02415e-05
0.000271763
0.00154541
-0.00339846
0.00185339
-0.0082519
0.00258387
0.00566802
0.000105271
-0.000265151
0.000159876
-7.6748e-05
0.000190251
1.04214e-05
-3.66164e-06
-6.75951e-06
3.25e-05
2.36541e-05
-5.61523e-05
-8.8009e-07
1.78574e-06
-9.05681e-07
0.00535261
0.0046628
-0.0100156
1.66806e-06
-1.05776e-06
3.5562e-06
1.41999e-06
-4.97603e-06
0.000521487
0.000374812
0.00854959
0.00791483
-0.0109124
0.0127318
-0.00181933
-3.76128e-06
2.94139e-06
9.05867e-05
-8.79416e-06
0.00390209
0.00297322
1.53358e-06
-1.14299e-06
-3.90244e-07
1.73719e-05
-2.22856e-05
4.91392e-06
-1.2586e-05
2.87212e-05
-1.61357e-05
-6.24746e-06
1.17614e-06
5.07235e-06
1.86317e-05
-1.13943e-05
-0.00731359
0.00377733
0.000499927
-0.00056012
-1.8412e-06
9.61468e-07
0.000100423
-1.01208e-05
-4.54216e-06
0.000421124
-0.00109924
-4.60677e-06
2.75189e-06
1.85535e-06
-0.0101217
0.00344748
-0.00190193
-0.000854587
0.000601819
0.000252765
-0.000461716
-0.00039287
0.000308088
-0.000164602
-0.000143486
6.24039e-05
-2.99031e-05
0.00656643
0.00477881
-0.000191927
0.000624125
-0.000432192
-3.37365e-06
-5.23846e-07
3.89805e-06
5.37132e-05
-0.000138025
8.43126e-05
-2.05336e-06
-2.55341e-06
0.00103504
-0.000761229
-0.000273803
-0.00896709
0.0116984
-0.00273134
-3.15752e-07
-4.33289e-06
4.64935e-06
0.0001102
-0.000241888
-0.00134602
-0.000541942
-2.92376e-06
-4.49033e-07
-0.047033
0.00339114
0.0436419
-6.17486e-06
5.63253e-06
5.40927e-07
-0.000511393
-0.00956794
0.00060084
-1.21885e-05
1.8946e-06
-0.00438802
0.00337577
0.00101204
1.8516e-05
-7.80087e-06
-1.07156e-05
-0.000170987
0.000117171
5.38147e-05
1.32147e-08
-9.21e-05
9.20974e-05
-0.00153
0.000336765
0.00119323
2.94225e-06
1.72491e-06
-4.667e-06
-0.0394473
0.0388217
0.000103702
-3.99164e-05
-6.74409e-06
2.61751e-06
4.12769e-06
3.42457e-07
-6.91803e-06
-0.00267151
0.00972218
-9.70797e-05
0.000159941
-6.28594e-05
-2.55335e-06
2.48642e-06
5.02785e-07
-2.27151e-06
1.76833e-06
-2.47652e-06
-0.00332449
-0.00106357
-0.000769379
0.000577456
5.31391e-05
-0.000367991
-0.000685295
0.000215666
-1.14603e-05
-0.000159528
-1.04852e-05
-1.70319e-06
-9.79229e-07
2.82164e-06
-1.84146e-06
1.41835e-06
-3.34021e-07
-1.083e-06
-0.0475322
0.000499312
5.03822e-06
-3.8134e-06
-2.22412e-05
9.44974e-06
0.00466059
0.00308179
-0.00900598
-0.00383961
-0.000320653
3.77775e-05
0.000282871
-3.85586e-07
-6.3573e-06
0.00191729
0.000410601
0.000245318
-8.64094e-05
-0.000158909
0.00653561
0.00371157
-6.19209e-08
-7.5626e-08
1.38148e-07
5.88028e-05
-0.000154817
-1.1802e-06
-1.75017e-06
2.93046e-06
8.00674e-05
-0.000209244
0.00012918
-0.000933153
0.000478125
0.000455021
-0.00501973
0.000180262
-3.82708e-06
3.97142e-06
-1.44279e-07
0.00235056
0.0172827
3.5388e-06
-7.24185e-07
-2.81424e-06
-6.88394e-07
1.68774e-06
-1.00006e-06
-0.00028425
0.000142092
7.34334e-07
7.99035e-07
2.74734e-06
-9.338e-07
-8.65356e-08
3.52697e-07
0.0266189
0.013044
0.00806632
-0.0104768
-0.000329424
8.77272e-06
-0.00209575
4.16177e-08
1.34363e-06
-1.38405e-06
2.93663e-09
-2.27494e-06
-0.00135305
0.000516864
0.000836207
-0.00665869
-0.00290925
1.57913e-06
0.0132381
-0.0274483
0.0142105
2.95002e-05
9.46257e-06
-3.89626e-05
-0.0023082
-0.000595425
0.000431683
0.000163738
1.8451e-07
4.29377e-07
-6.13545e-07
1.50897e-05
0.000602754
0.00139688
-0.000591561
0.000753828
0.000120778
9.10612e-07
3.03451e-07
-1.21444e-06
-0.000258767
-0.000674388
-0.00552497
-0.00095517
0.00647996
-0.0429451
0.0114024
0.0315427
1.07468e-06
9.34718e-06
6.13161e-05
-7.20507e-05
1.07353e-05
-4.26973e-06
-1.39504e-06
5.66554e-06
-0.000289797
0.000152904
0.000136894
-2.68711e-06
1.70839e-06
-0.00127744
0.00068245
0.000621022
-0.000560914
-6.01091e-05
-3.1226e-06
3.46026e-07
0.000636194
-0.000266009
-0.000370183
4.83145e-05
-0.000249837
-0.00780265
0.00114397
0.00783972
-0.000620253
-0.00721969
8.89904e-05
-0.000216375
0.000127387
0.00253106
-0.00100234
-3.38206e-05
-3.48907e-06
-2.45138e-06
5.94025e-06
0.00100249
0.00259244
-0.00359493
0.00269243
-0.0084382
2.68199e-05
7.36026e-05
-1.81632e-05
5.63727e-05
4.73305e-05
1.80836e-06
-2.91755e-06
1.10948e-06
0.000160117
-0.000150696
-9.42873e-06
0.000126505
3.36117e-05
3.77457e-06
-3.73643e-07
-3.40074e-06
-0.00018187
0.000411738
-0.000229866
-0.000597516
-0.000332175
-6.07853e-05
4.35826e-05
0.00016329
-0.000109577
5.45132e-07
0.00287783
-8.72774e-07
1.22158e-06
-3.48388e-07
0.00153877
-0.00926881
4.15855e-06
4.01437e-06
-8.17215e-06
-6.0133e-07
-8.68685e-07
1.47e-06
-0.000459285
0.000394016
6.52698e-05
1.32353e-06
2.21554e-06
-5.05832e-06
3.56483e-06
1.49363e-06
0.00134564
0.00607991
-0.00742501
9.79622e-07
0.000258022
-0.00194518
-0.00274271
0.0046879
0.0448636
-0.0457457
0.000881908
-7.73221e-05
0.000141451
0.000103868
0.000144544
-0.000125128
-1.9416e-05
-2.20766e-05
3.71731e-05
-2.54547e-05
-1.82068e-05
4.36603e-05
-0.000343857
0.0019014
-0.000330504
-0.00157087
6.00934e-06
9.61003e-07
-6.97544e-06
-0.000236146
-0.00720231
0.00391442
0.00328783
-2.11608e-06
-9.65419e-07
2.01045e-06
-1.04476e-06
2.09731e-06
0.0012777
-1.6549e-06
-4.51983e-06
0.000130532
-0.000168666
8.44136e-05
-0.000200421
0.000116008
0.000551427
0.000283493
-0.000560369
0.000423144
0.000137222
0.00534106
0.000408983
-0.000148276
-0.000260708
0.000374163
0.000262007
5.08913e-09
-6.6413e-08
0.000312805
-0.000934089
0.000621278
0.0281188
0.00464603
-0.0327649
-0.000195451
-0.000399978
-0.0117621
4.10134e-06
-4.01951e-06
-8.02527e-08
0.00047655
0.00017201
-0.000648558
6.16371e-05
0.000378423
-0.000440059
6.23267e-06
-2.67639e-06
-8.93591e-06
4.58835e-06
4.34792e-06
0.00515107
0.00616934
6.65534e-05
-0.000121302
5.47481e-05
1.64986e-05
-2.71734e-05
1.06747e-05
-2.57928e-06
2.79597e-06
-2.16068e-07
-0.000221369
-6.84252e-05
5.00728e-05
-0.00236914
0.000495022
0.00187412
8.52038e-06
9.99516e-06
0.00020354
0.000184634
0.000851707
0.000227381
-0.000431423
0.000204044
-0.000144207
-0.000365593
-4.77711e-06
5.01428e-06
3.65715e-05
-0.00016188
0.000125309
1.41953e-06
2.722e-06
-4.14128e-06
1.0759e-05
-1.91953e-05
8.43761e-06
0.000865419
0.000169631
4.23892e-06
-2.5846e-06
-1.65393e-06
-0.00139762
0.00204654
-5.01033e-06
-9.62876e-06
0.000163429
-0.000868327
0.000705009
0.00182882
8.24197e-06
-2.22798e-06
-1.44291e-06
1.44499e-06
1.13879e-06
0.0189247
-0.0128661
-0.0060585
0.000539719
-0.000312336
0.00120295
-0.000557953
1.33904e-06
1.72925e-05
-3.22747e-11
-2.16332e-07
0.000153072
-8.65184e-05
1.7328e-07
4.14147e-07
-5.87267e-07
-5.56412e-07
6.60032e-07
-1.01755e-07
-2.11545e-07
3.84427e-07
-1.85294e-07
-0.000107343
0.00274096
-0.0159308
-0.0262472
0.0421779
-7.92723e-07
4.45509e-07
3.48047e-07
9.33539e-05
0.00031563
0.00146649
0.00220323
-5.18369e-05
4.95105e-05
2.32627e-06
2.64189e-07
-7.95096e-08
-0.000450789
0.000614217
-0.000214802
-6.35435e-05
-1.696e-06
7.30347e-07
-1.78794e-06
4.80126e-06
-3.15767e-06
-1.64291e-06
-0.0106679
-0.00224595
0.0129137
-2.68495e-06
3.02321e-06
-3.37444e-07
-0.0417487
0.000235979
-0.000146987
-1.13765e-07
1.53774e-06
-1.42332e-06
-3.57069e-05
2.34462e-05
0.00375443
-0.0056996
-1.26783e-06
3.07641e-06
-0.000113049
0.000163119
0.0124607
-0.0190572
0.00659646
-0.000224029
0.000185427
-0.000154943
0.000240069
-8.51259e-05
-3.8593e-06
3.89001e-07
3.46955e-06
-0.00010503
0.000141602
0.000479919
9.80464e-08
-2.60513e-07
1.61341e-07
5.65148e-05
0.000132663
-0.000189178
8.13566e-06
-1.34211e-06
-4.60153e-05
-0.000238236
-0.00788673
0.0059835
0.000415511
-5.62538e-07
8.96083e-07
-2.33898e-06
8.57929e-05
-0.000130296
4.44953e-05
-4.72177e-06
-0.000797229
0.0140354
-1.26411e-06
-1.16991e-06
2.43419e-06
-5.84969e-05
4.06753e-06
-0.000105364
-0.00279021
-0.00185576
4.86765e-05
-0.000196998
0.000148336
0.00328226
-0.0141947
5.5756e-06
7.58715e-07
-0.000363302
0.00212828
-0.00176466
3.40753e-05
-0.000116705
8.26311e-05
0.000112362
-1.20147e-06
1.837e-06
-6.3554e-07
0.000138869
0.000293575
1.31634e-06
2.82874e-06
-1.66564e-06
5.23058e-06
-1.24816e-05
-2.64912e-06
1.51308e-05
0.000931365
-0.00132057
0.000389204
1.46506e-05
-1.3312e-05
-1.7021e-06
5.59077e-08
-1.57806e-07
1.0337e-07
0.00013817
-0.000129408
-8.76139e-06
1.85276e-07
-1.09953e-06
2.9625e-05
-2.85247e-05
-0.000342124
0.000202309
5.86072e-06
-2.8698e-07
1.85635e-06
-0.0114392
0.000771336
-5.13014e-07
7.22805e-08
-0.00501967
0.00831326
-9.67459e-07
-2.54561e-06
-2.93112e-06
2.0302e-05
-8.55613e-06
-0.00148588
0.00112068
5.18898e-06
-5.39763e-06
2.03971e-07
-0.00681935
0.0117042
-0.00488483
0.00162289
-0.00018048
-0.0014424
-0.00117721
-0.00596613
0.00714335
-0.00210317
-0.00210746
0.00421062
-1.38648e-06
1.27295e-06
-4.04665e-06
-3.1514e-06
-2.84849e-06
1.19522e-06
1.65308e-06
5.66701e-05
8.15001e-05
1.20451e-06
-1.16237e-06
-4.21584e-07
-3.43744e-06
-2.6094e-07
-1.77648e-06
2.03771e-06
0.000459664
-0.00115328
-6.26789e-06
-0.000977059
0.00112752
-0.000150641
0.00593611
0.0147634
-0.000138529
0.00061508
5.26594e-06
-7.79674e-08
-7.07504e-07
-2.141e-06
0.000417669
-0.00102139
0.00858238
0.00236543
-0.0109477
0.0142871
-0.00704742
-0.00723966
0.00530556
-0.0133002
-0.00103828
0.000613685
0.000424633
0.00614743
0.000193582
-0.000107206
-8.63749e-05
-0.00101286
3.57968e-05
3.17367e-06
-2.60391e-06
-5.69706e-07
1.87788e-06
8.30724e-07
7.90043e-08
0.00249736
0.00122981
-0.00372718
-5.75301e-05
5.69295e-06
-3.82546e-06
1.7313e-06
2.09449e-06
-0.000136688
3.96092e-05
-0.000207899
0.000261034
0.0129675
0.00595732
3.39259e-05
-1.74273e-05
-0.00434982
0.000181275
3.8542e-05
0.00572036
-0.00689756
0.000289576
-5.54667e-05
6.36104e-05
0.000557412
-0.0305098
0.0431717
-0.00020077
-0.000141354
2.40708e-06
7.67366e-07
-1.96101e-05
-0.000101694
0.001193
-0.00135946
0.000166479
3.1983e-05
-0.000305512
0.000273531
0.000838796
-1.35289e-06
2.0775e-07
1.14603e-06
-1.66373e-06
-6.88924e-06
0.0163976
-0.0199751
0.00357761
4.6851e-05
0.000103327
-0.000150177
0.0377452
0.0119545
-8.95861e-07
5.18276e-07
3.77456e-07
0.0030211
-0.0051243
-1.33623e-05
8.80506e-07
-0.00533943
0.0107265
-1.50107e-06
-1.41613e-06
7.53565e-08
1.31825e-07
-2.08768e-07
-1.37258e-05
-1.89518e-06
1.33885e-05
-1.35436e-06
-1.20332e-05
-6.6e-05
-5.61853e-06
-3.33141e-06
2.91035e-06
-2.80861e-06
1.30778e-06
0.000103518
-0.000252376
0.00028436
1.69446e-07
-9.37559e-08
0.000277266
-0.000228582
-0.000414361
0.000155231
-1.06866e-05
0.000211061
7.85145e-05
0.0340872
-1.81631e-05
4.43816e-06
-0.00122835
0.000137796
0.00109056
0.00170438
-1.01513e-05
8.00309e-06
-0.0105662
0.00460006
-1.62176e-06
1.03386e-07
-0.000179015
9.9442e-05
7.95714e-05
2.83363e-05
-8.79945e-05
5.96589e-05
-9.14546e-07
-4.36729e-07
-0.00121208
-0.000324515
0.00153659
4.26167e-07
2.52738e-06
-2.95333e-06
1.91042e-05
-3.81456e-06
-0.000996036
0.00349342
-4.46369e-07
-1.17497e-06
1.58396e-06
-3.28302e-05
3.12464e-05
-3.22492e-06
-1.05786e-07
-0.00142482
-0.00188575
8.35871e-08
1.78189e-07
-3.28008e-05
3.17024e-05
-0.000831553
3.62959e-07
-1.46767e-05
-1.33123e-05
-1.09953e-05
1.15327e-05
-5.36837e-07
-5.89695e-06
-3.09172e-06
-4.80929e-06
7.90151e-06
0.0104002
0.00641257
-0.0168129
1.31508e-05
1.77358e-05
-3.08863e-05
1.74186e-06
3.85018e-06
-5.5919e-06
5.05718e-05
-4.02888e-05
-1.02827e-05
-7.17706e-06
5.5137e-06
-6.8096e-07
3.85582e-06
-3.17475e-06
-0.000352432
0.000904143
-0.000551707
-8.98832e-05
-2.16502e-05
0.000111535
-4.68417e-05
0.000198692
-5.75118e-06
3.2829e-06
2.469e-06
-1.92792e-06
1.32676e-06
0.0241691
-0.0230961
-0.00107294
1.64143e-06
0.000146613
-6.08209e-05
-0.000142581
-0.000102032
0.000244615
5.45294e-06
-3.71114e-06
4.12231e-06
8.66245e-06
-1.27841e-05
0.000962493
-0.00108243
0.00036768
-0.000110458
-0.000257222
1.98073e-05
-9.04824e-06
1.31376e-06
-6.58683e-06
5.27194e-06
2.45299e-06
9.69807e-07
4.7111e-07
-7.23135e-05
8.44145e-05
-1.20999e-05
-0.00177394
0.000561865
2.51201e-05
3.72842e-05
0.000427902
-0.000201968
-2.34201e-06
1.6992e-05
0.00526708
0.0025055
-0.00777179
-0.000158245
6.849e-05
8.97554e-05
-0.00217501
0.000201569
0.00197346
-5.04872e-07
-3.87929e-06
4.38449e-06
0.0529099
-0.0151647
0.000172251
-0.000936081
-0.00913707
0.00536514
0.00377193
-2.2966e-06
0.000154525
-0.000152229
-2.36606e-06
-3.3852e-06
0.0153927
-0.00499264
2.14638e-06
-4.40637e-07
0.0038922
0.00379846
-0.00769049
9.49456e-05
-0.000109831
1.48862e-05
-0.000300062
0.000759713
-2.01758e-06
7.53641e-07
-5.52513e-07
2.19088e-07
-1.57114e-05
1.75711e-05
-1.56938e-05
-1.33092e-05
1.37179e-06
-1.4631e-07
-5.25355e-07
-1.09026e-06
1.61612e-06
0.00647162
-0.0310096
0.024538
-0.00340279
0.00197789
-1.75006e-05
1.38433e-05
3.65822e-06
-0.00446276
0.00364878
-0.00463717
0.0219957
-0.0173585
-0.00127399
0.00251668
-0.00124265
0.025413
-0.00139611
-0.0240167
2.81978e-06
-0.00531797
0.00271941
0.00259855
3.82912e-06
3.13915e-06
-6.96838e-06
0.0271641
-0.0251851
-0.00197901
-9.89525e-05
0.000303731
-0.00024298
-6.07503e-05
-1.21556e-05
0.000107101
-0.00555293
-0.00501327
-7.24029e-06
-2.91121e-06
3.15066e-06
-3.83185e-06
6.52405e-05
-8.485e-05
-1.70423e-05
-2.12335e-05
3.82757e-05
0.0380332
0.0148767
-0.00013196
-0.00429397
0.00173579
0.00255816
-1.68893e-06
-1.40814e-06
3.0939e-06
-9.68278e-05
0.000143679
0.00159335
-0.00431973
0.00272614
4.56578e-05
4.49294e-05
-3.41942e-06
3.83931e-07
0.000484675
-0.000485087
-0.0291287
0.0202648
0.008864
0.000880422
0.00850557
-0.00938582
0.0141882
-0.00560562
-7.12419e-05
-0.000253067
0.000324309
4.53336e-06
0.00469403
-0.00310089
1.10183e-05
-1.33602e-05
-0.00367201
0.0017415
-0.00384896
0.000842269
0.000210288
-2.9014e-05
0.0030703
-0.00244594
-0.000624368
-0.00534051
-0.00652917
0.0118697
0.00643887
-0.00721246
2.29225e-07
8.90069e-08
-0.000272276
0.000129696
-1.36754e-05
-0.000185364
0.000199034
0.00263797
-0.00852667
0.00588814
-0.000212635
0.000217717
-5.08075e-06
-0.00693412
0.00229142
0.00464264
-0.00893206
0.0343451
0.0018105
0.00125982
0.00154906
0.00183521
-0.00338429
-0.00516346
-0.0039736
-2.66555e-05
-5.49436e-07
-1.12333e-05
1.17833e-05
2.43732e-05
-9.30695e-06
-1.5063e-05
-0.0240412
0.0305127
-0.00100984
-0.000397442
-0.000880011
-4.7585e-06
5.36763e-06
-6.08737e-07
-0.00383919
-0.00147877
5.3159e-07
-4.74409e-07
-1.87685e-05
1.67426e-05
-3.37848e-05
2.81778e-05
1.12211e-05
-3.93978e-05
2.11694e-08
-3.42786e-06
3.40684e-06
-0.000553454
9.95394e-05
0.000453916
-1.48652e-06
-1.60134e-05
-0.00548565
0.00235832
0.00312714
8.88684e-07
8.95514e-07
2.42524e-06
2.37625e-06
-1.31233e-05
4.2748e-05
-0.00102059
0.000720541
-0.00214885
-0.00681669
-1.29293e-05
7.91975e-06
0.00661285
1.56454e-05
8.73105e-06
-0.00595906
0.0184198
4.06133e-06
-2.86904e-07
0.00429758
-0.00305535
-0.00124231
5.94743e-05
2.49404e-05
-2.42162e-05
4.30314e-05
-1.88138e-05
-6.0027e-06
8.66948e-06
-2.66713e-06
-9.35945e-05
0.000109778
-1.61819e-05
-0.0170017
0.0123646
-2.10526e-06
5.93336e-06
-2.63783e-05
-0.000194989
0.000303784
-0.000662893
0.000359109
0.00050067
-0.000994238
0.000493584
0.00363915
0.000658417
7.53576e-07
3.81912e-05
1.23813e-05
0.00399268
-0.000617105
5.83329e-09
-5.6083e-07
-3.05008e-06
0.00292931
2.48755e-05
-3.79989e-05
-1.8762e-06
0.000103734
-0.000101858
9.38868e-06
-9.32566e-06
-6.27018e-08
-4.51174e-06
-2.82213e-06
7.33433e-06
-0.00267768
0.000502667
-0.0026109
0.00133694
9.454e-07
2.03012e-06
-2.81337e-07
-1.74847e-06
-0.000651501
0.00352499
-0.00515041
-0.00178372
2.23965e-06
-1.69773e-06
-5.4144e-07
-2.55501e-06
1.19437e-05
4.40279e-05
-0.000137621
-8.62743e-07
-9.14889e-07
1.77794e-06
-0.0104353
-2.10186e-07
-5.79306e-06
-0.000506573
-0.000204901
0.000711525
2.43977e-05
-4.86129e-05
0.00331958
-0.00157808
0.00126316
-0.00134132
7.81764e-05
0.000343461
-0.000315906
-2.7556e-05
-2.20821e-05
-0.000297538
0.000319619
-1.4785e-06
1.48672e-05
-3.25246e-06
-7.78896e-06
1.10395e-05
0.00016095
-0.00327083
-0.00221478
-0.000537596
0.000437232
0.000561564
-7.04861e-07
-4.68462e-05
7.19666e-05
-5.55877e-06
3.19256e-06
-7.14519e-06
1.68664e-05
-9.71984e-06
-0.000305785
0.000234544
7.30693e-06
4.51016e-07
-7.75781e-06
-0.000143937
0.000402325
-0.000258385
3.12116e-06
6.78857e-07
-3.79974e-06
-2.201e-06
9.50776e-06
-0.0018808
0.00342985
1.67697e-05
-2.0402e-05
3.63281e-06
-3.37124e-07
3.45861e-06
0.00161405
-0.000350892
1.74362e-06
-3.77417e-06
2.03135e-06
-0.000164721
0.00047753
-0.000112523
0.000217792
-2.89398e-05
-0.00135473
-0.00101442
0.000353932
-0.000376015
3.10434e-06
5.63708e-05
0.000138333
-0.000293276
-5.2365e-06
6.55061e-06
0.000312211
-0.000345416
3.32086e-05
-0.0455587
0.0025413
4.18752e-07
7.30446e-07
-1.14836e-06
-0.0257859
0.001014
-0.000325711
-0.000688289
-1.96507e-06
1.15965e-06
8.0591e-07
-0.00204566
0.00374872
-0.00491199
0.00158679
5.49122e-05
-4.57196e-05
0.000314365
0.000139126
-3.96851e-05
-0.000472611
0.000989412
2.79226e-06
-7.05564e-06
2.61357e-06
-2.18732e-06
-5.1709e-06
4.85585e-06
1.64274e-05
-3.85352e-06
-1.25734e-05
0.000317495
-0.000424709
0.000107213
-0.00451839
0.00539899
-0.000625882
0.000447495
0.000178394
-2.9164e-06
4.77436e-06
-1.83167e-06
-0.000558538
-1.72151e-05
-4.53198e-07
-0.00608556
0.00281472
-6.03718e-05
-1.8591e-05
7.89639e-05
-0.000530648
0.00169806
-0.00116741
-3.69734e-06
3.52958e-06
1.67465e-07
-2.72396e-06
-2.83487e-06
-0.000161061
0.000106698