/*--------------------------------*- C++ -*----------------------------------*\
| =========                 |                                                 |
| \\      /  F ield         | OpenFOAM: The Open Source CFD Toolbox           |
|  \\    /   O peration     | Version:  v2012                                 |
|   \\  /    A nd           | Website:  www.openfoam.com                      |
|    \\/     M anipulation  |                                                 |
\*---------------------------------------------------------------------------*/
FoamFile
{
    version     2.0;
    format      ascii;
    class       volVectorField;
    location    "250";
    object      U;
}
// * * * * * * * * * * * * * * * * * * * * * * * * * * * * * * * * * * * * * //

dimensions      [0 1 -1 0 0 0 0];


internalField   nonuniform List<vector> 
18618
(
(1.01258 -0.0262825 2.30402e-22)
(0.116889 -0.0600978 3.23595e-21)
(1.00351 -6.60559e-05 0)
(0.671265 -0.0727808 7.45857e-23)
(1.01238 0.00475257 2.05312e-21)
(1.04371 0.00151969 1.26572e-22)
(1.08998 0.0084125 2.24157e-20)
(0.144852 -0.0651963 -8.73306e-21)
(1.01284 0.00334693 1.05523e-22)
(1.0275 -0.000262184 2.45444e-21)
(1.06868 0.0143871 -6.74409e-22)
(1.00351 -5.99529e-05 1.80316e-23)
(0.676418 -0.0732402 0)
(1.01244 -0.000204219 -7.72361e-23)
(1.01221 0.00463363 -1.68327e-21)
(1.00375 8.8267e-05 1.16119e-22)
(1.01074 0.00350187 0)
(0.00974761 0.0355881 1.40117e-20)
(1.0097 0.00301982 0)
(1.01762 0.00470967 9.35535e-23)
(1.0392 -0.00200913 -5.78994e-23)
(1.00769 -0.000439995 5.64406e-23)
(1.00371 8.50356e-05 -1.16703e-22)
(1.07054 0.0558151 -5.56323e-21)
(1.02047 0.00116584 5.59688e-21)
(1.03588 0.0336323 -6.88446e-22)
(1.01929 -0.0264294 -5.42493e-22)
(1.01033 0.00339201 -1.783e-22)
(1.00404 5.58376e-05 2.89199e-23)
(1.00906 0.00199244 2.08062e-22)
(1.02111 0.00159619 0)
(1.0463 0.0285825 0)
(1.03277 0.00432298 0)
(1.05039 0.0622894 0)
(0.879038 -0.110934 0)
(1.01828 0.00972506 4.4744e-22)
(1.02606 0.0097638 -4.83492e-21)
(1.0389 0.047393 0)
(1.02213 0.0141518 -1.71581e-21)
(1.00894 0.00195238 -2.13234e-22)
(0.9786 0.00810047 4.71825e-22)
(1.02087 -0.0221675 2.58934e-22)
(1.00653 0.000330041 1.24463e-22)
(0.281114 0.0651703 3.76287e-21)
(1.0127 0.00346868 -1.11439e-22)
(1.05411 0.00124875 -1.05491e-20)
(0.204186 -0.0766088 6.28835e-21)
(1.00481 5.37288e-05 0)
(1.0477 -0.0110849 0)
(0.681059 0.0964556 2.37093e-20)
(1.01046 0.00345769 -1.54044e-21)
(1.01677 0.00869632 -1.23588e-21)
(0.84785 -0.118162 -8.8649e-22)
(0.998567 0.00940149 5.2895e-22)
(1.00459 0.000147117 2.73622e-22)
(0.414367 -0.00641317 0)
(1.01301 -0.000108633 7.99257e-23)
(1.01779 0.00476263 -1.51085e-22)
(1.04895 0.0609928 0)
(1.02205 0.0136423 0)
(1.00916 0.00189846 -1.32843e-22)
(1.00607 0.000355288 2.9103e-22)
(1.01728 0.00494227 0)
(1.02753 0.0049583 0)
(1.05721 0.0740967 -1.00162e-20)
(0.897392 0.108304 -8.30045e-21)
(1.0031 -3.85011e-05 -4.45976e-23)
(1.07991 0.0194428 -5.42434e-21)
(1.00429 0.000357994 7.80094e-25)
(0.912789 -0.0848323 -4.4347e-21)
(1.06823 0.0134969 8.69224e-21)
(1.0282 -0.0196511 -1.41e-22)
(1.09287 0.0404423 7.98499e-21)
(0.0924602 0.0159405 2.92135e-20)
(1.02718 0.000687751 4.21434e-21)
(1.08119 0.0145614 1.11073e-20)
(1.03405 0.0282425 -1.46406e-22)
(0.659012 0.093553 -1.06822e-20)
(1.00411 0.000342309 0)
(0.0406744 0.0338928 -1.3063e-20)
(0.281276 0.0526914 -4.96161e-22)
(-0.050462 0.0338649 2.84449e-20)
(0.0723018 0.0114788 0)
(1.02855 -7.69916e-05 -3.88377e-21)
(1.03255 0.00456821 0)
(1.00652 0.000302855 -6.2741e-23)
(1.06985 0.0608265 3.51208e-22)
(1.02748 -0.000331858 3.28007e-21)
(1.03458 0.0301601 -3.07655e-21)
(-0.00946434 0.0350422 0)
(1.0947 0.0398947 -2.97526e-20)
(1.04103 0.0224302 0)
(0.274009 0.0610482 -3.06927e-22)
(1.03254 0.0282653 1.54317e-21)
(0.986506 -0.0311952 -5.87025e-22)
(1.08241 0.0137877 -1.41994e-20)
(1.02715 0.0109447 0)
(1.03131 0.0941955 1.62242e-21)
(1.01248 -0.000345369 8.60803e-23)
(1.00367 -5.21182e-05 -7.48663e-23)
(0.992234 -0.0324374 5.7739e-22)
(1.02726 0.00469953 -4.71808e-21)
(1.04145 0.0304032 0)
(1.04689 0.0293757 -2.02376e-21)
(1.01651 6.33588e-05 -3.45561e-23)
(0.448697 0.0785742 1.55404e-20)
(1.00501 0.000184027 -4.10193e-22)
(1.00347 9.99877e-05 -1.67588e-23)
(1.05514 0.0727249 0)
(1.00409 2.46349e-06 -4.4019e-23)
(0.996384 0.0665089 1.34118e-21)
(1.01018 0.00248478 0)
(1.04543 0.00378787 -8.88779e-21)
(1.00898 0.00240792 0)
(1.01654 0.0076531 9.38804e-22)
(1.00375 -4.51894e-05 7.12521e-23)
(1.00253 -3.29747e-06 4.79967e-23)
(0.877566 0.0935184 0)
(1.02017 0.00526403 -3.08824e-21)
(1.10638 0.0676347 -3.3142e-20)
(1.02349 0.0957779 -5.64131e-22)
(1.04482 0.0041433 0)
(0.415537 0.00688649 -1.75495e-22)
(-0.0384052 0.0337983 -3.93011e-20)
(1.00758 -0.0289976 3.49534e-22)
(1.03085 0.0334732 -1.04103e-21)
(0.982317 0.0095849 5.6784e-22)
(0.0934618 0.0269283 2.65453e-21)
(1.06958 0.0191479 -1.73074e-20)
(1.13004 0.0318139 1.08669e-20)
(1.1207 0.0463485 2.97653e-20)
(1.01004 0.00229795 0)
(-0.0739283 0.0321557 7.19222e-20)
(1.0467 0.00309688 -1.03506e-21)
(1.01637 0.00744646 -3.12033e-21)
(1.00853 0.00173279 7.96746e-23)
(1.01049 0.000605682 2.19882e-21)
(1.0302 -0.000662777 -6.55731e-21)
(0.06042 -0.0271469 -2.65683e-20)
(1.00184 -4.21371e-05 0)
(1.02427 0.000845543 0)
(1.00155 1.04173e-05 0)
(1.00604 0.00037449 3.01763e-22)
(1.02679 0.0105393 -4.85326e-21)
(1.00579 0.0002594 7.28179e-23)
(1.03604 0.0342699 0)
(1.02593 0.0100551 0)
(1.01032 0.00338219 1.65523e-22)
(0.492537 0.0793164 -1.32266e-20)
(1.08758 0.0149769 0)
(1.01289 5.24671e-05 -7.98265e-23)
(0.868182 0.0924181 -2.32669e-20)
(0.0693955 -0.0199444 2.75397e-20)
(1.00363 0.000102845 -5.49795e-23)
(1.00612 0.00091284 -4.64872e-22)
(1.00114 -0.0426365 1.84023e-22)
(0.734375 0.0923415 1.32771e-20)
(1.02802 0.101869 -3.14567e-21)
(1.06146 0.0593155 5.95826e-22)
(1.00532 -2.33823e-05 0)
(1.00396 -3.90632e-05 0)
(0.871236 -0.0445641 -3.59386e-21)
(1.02982 -0.00059226 0)
(1.0452 0.0352476 1.97485e-21)
(1.00514 0.000560453 -3.6195e-23)
(1.02169 0.0827753 -4.85618e-22)
(1.00618 0.000874154 2.35576e-22)
(1.00168 -2.38082e-05 6.07526e-23)
(0.281197 0.0503133 2.35634e-20)
(1.04484 0.00279353 0)
(1.02726 0.000673593 0)
(1.00467 -5.50686e-05 0)
(1.12101 0.0483983 -3.03755e-20)
(1.11203 0.031727 1.94897e-20)
(1.02672 0.0973508 0)
(1.08066 0.0170544 -1.09569e-20)
(1.0375 -0.0106281 0)
(0.0739101 0.0241089 -2.87263e-20)
(1.00449 -5.45226e-05 0)
(1.00452 0.000393767 5.27925e-25)
(1.10363 0.0246772 7.82097e-23)
(1.1126 0.0335065 0)
(1.01806 0.00959911 -2.43256e-21)
(1.01728 0.00880618 -4.19467e-23)
(0.959238 0.00624863 1.156e-22)
(1.00511 0.000249079 4.94948e-23)
(1.01675 0.00536212 -3.90253e-22)
(1.10124 0.0242654 5.02029e-21)
(1.03453 -0.0124355 0)
(1.04819 -0.0007435 0)
(1.02571 0.0152323 -1.91852e-21)
(1.11292 0.0284409 1.62026e-20)
(1.001 0.103098 2.55025e-21)
(1.0018 -1.19197e-05 8.23248e-23)
(1.05101 0.0729989 -2.06568e-21)
(1.0242 -0.000315444 2.57966e-23)
(1.10418 0.0264265 -5.60206e-21)
(0.756337 0.101228 1.07698e-21)
(1.0282 -5.90193e-05 0)
(0.418762 0.0727232 3.0957e-20)
(1.05091 0.034881 0)
(0.353176 0.0450776 -2.25519e-21)
(1.02209 0.0138764 -1.04967e-22)
(1.06065 0.0121474 0)
(0.242487 0.0446665 2.38326e-20)
(-0.0711991 0.00845732 2.56635e-20)
(-0.0221516 0.0186291 -1.38691e-20)
(0.915678 0.0941512 2.1669e-20)
(1.05069 0.00615141 0)
(0.479541 -0.0735822 2.23502e-21)
(1.0528 0.00209302 0)
(1.0054 0.000192129 3.96699e-22)
(0.767548 0.0924006 1.80771e-20)
(0.904977 0.0975554 1.06043e-20)
(1.01711 0.00871715 0)
(1.01778 0.00926002 -1.85425e-21)
(1.02912 0.00272296 7.78103e-23)
(0.242744 0.0453112 0)
(1.04544 0.00311265 -9.92016e-23)
(0.699826 0.0903811 1.41568e-20)
(1.02953 0.0162002 0)
(1.0475 0.016521 4.10682e-21)
(1.00525 0.000256264 -4.29513e-23)
(1.15157 0.0640552 1.27725e-20)
(1.04099 0.0340128 -4.94949e-21)
(1.04448 0.035169 1.09769e-20)
(1.02922 0.0157134 0)
(1.00512 0.00054918 -2.1808e-24)
(0.880423 -0.0936014 -1.72139e-23)
(1.0645 0.0580971 -1.02676e-20)
(0.488192 -0.0771532 0)
(1.04403 0.0372661 1.77144e-23)
(1.02349 0.00068786 0)
(1.08117 0.0187408 5.95475e-21)
(1.02114 0.00174662 0)
(1.12783 0.0308779 2.16212e-20)
(1.02201 0.0134691 -9.66527e-22)
(1.01957 0.00206512 -5.94505e-23)
(1.01758 0.00914951 -1.54769e-21)
(0.997559 -0.0188152 4.98726e-22)
(1.10612 0.0166524 -2.54298e-20)
(1.04612 0.026924 5.58172e-21)
(1.03773 -0.00190704 0)
(1.03404 0.0298786 0)
(0.99372 -0.0387032 -4.35309e-22)
(1.01685 0.00877927 1.28024e-21)
(1.06944 0.0572111 5.20577e-21)
(-0.0875547 0.0220876 1.52794e-20)
(1.00439 0.000161598 0)
(1.06855 0.0187388 2.77794e-20)
(0.854981 -0.127274 7.38128e-22)
(1.03868 0.00142943 6.92018e-23)
(1.05988 0.0126317 0)
(0.249799 0.0527422 0)
(1.05066 0.00751158 1.60503e-20)
(1.00408 7.50726e-05 0)
(1.05093 0.00883039 6.33844e-21)
(1.06038 0.0609388 0)
(1.01065 0.00338388 1.72104e-23)
(1.08251 0.0524162 4.70642e-22)
(1.15007 0.065217 -2.27314e-20)
(1.05116 0.00799477 -1.80668e-20)
(1.04178 0.0318261 0)
(0.417053 0.0666842 0)
(1.03809 -0.00187084 4.5748e-24)
(1.03899 0.013277 0)
(1.10196 0.0126439 -1.13029e-20)
(1.04702 -0.00705617 0)
(1.05016 0.00915014 -7.99081e-21)
(1.06626 0.0119804 0)
(1.08183 0.0163348 0)
(1.0051 -3.58929e-05 2.24943e-24)
(1.00918 0.001966 0)
(1.01047 0.00347541 1.75918e-22)
(1.00495 3.5114e-05 0)
(0.750291 0.128094 1.7832e-21)
(1.01582 0.000390114 -3.40072e-23)
(1.00499 4.38411e-05 6.75253e-23)
(0.21203 0.0403733 -1.2346e-20)
(1.00906 0.00193129 1.8314e-22)
(1.04666 0.0165874 3.62763e-21)
(1.00492 -3.45952e-05 6.63258e-23)
(0.26534 0.0611793 3.86667e-23)
(-0.0892148 0.0209979 0)
(1.04381 0.0345597 -1.32484e-20)
(0.876208 0.0183044 3.27817e-21)
(1.01233 0.000320132 -1.066e-22)
(1.03645 0.0339495 0)
(1.00739 -0.000408116 2.58538e-23)
(1.02664 0.0379908 0)
(1.00879 0.00178886 -1.75369e-22)
(1.02215 0.0143277 2.35503e-21)
(1.02122 0.00124764 0)
(1.0124 0.000224776 2.26403e-22)
(0.725561 0.0926019 -1.59149e-21)
(1.00399 6.46516e-05 3.26559e-23)
(1.0106 0.00341458 4.78253e-22)
(1.0448 0.00522604 -6.63986e-21)
(0.745908 0.113892 8.50601e-22)
(0.928653 0.0937213 -6.6514e-22)
(0.901108 -0.083607 4.0036e-21)
(0.738147 0.114201 6.76465e-22)
(0.401527 0.0639424 0)
(1.10851 0.0414627 -3.26534e-22)
(1.06354 0.0597721 9.6059e-21)
(0.407822 0.0722863 -2.39947e-20)
(0.87729 0.0408091 7.03108e-21)
(1.01645 0.00840587 3.08551e-23)
(1.04527 0.00490963 6.91891e-21)
(1.11373 0.0301227 -8.56566e-21)
(1.01553 0.00679139 0)
(1.02526 4.18368e-05 -4.81252e-21)
(1.04598 0.0174 3.93258e-21)
(1.00927 0.00193987 -1.90997e-22)
(1.08698 0.0133447 -1.57069e-20)
(0.864853 0.0314056 -3.75883e-21)
(0.482111 -0.0802206 -3.70112e-21)
(1.03488 1.96867e-05 -7.23544e-23)
(1.03834 0.0127902 -8.69277e-21)
(1.00931 0.000412844 0)
(1.01722 -1.97992e-05 0)
(1.05323 0.0744094 2.19154e-21)
(1.10077 0.0221165 1.08383e-20)
(0.877546 0.0729339 2.01039e-22)
(1.03962 0.0125244 -5.03257e-21)
(1.02579 -0.0014236 -5.99413e-23)
(0.751545 0.0838479 0)
(1.00512 2.84098e-05 0)
(1.10664 0.0420132 -1.2813e-20)
(1.01239 0.000291015 0)
(1.00084 -9.5827e-06 -5.212e-23)
(1.0089 0.00235143 0)
(1.11364 0.0250467 0)
(1.01539 0.00661591 0)
(1.01219 0.0029168 -1.51399e-22)
(1.04024 0.0124371 -3.63579e-21)
(1.04195 0.0415767 0)
(1.0185 0.0021807 1.12731e-22)
(-0.0489453 -0.00439071 -1.67916e-20)
(-0.0735238 0.0262511 3.59496e-20)
(1.00865 0.00165394 -1.96544e-22)
(0.180753 0.035755 1.18931e-20)
(1.01242 0.0029555 0)
(1.0037 -9.00714e-05 0)
(1.00466 0.00040632 0)
(1.02595 0.000130336 3.1182e-21)
(1.02639 0.00512107 -9.31063e-24)
(1.00391 0.00017487 0)
(0.854706 -0.050052 -2.424e-21)
(1.05122 0.00671491 0)
(0.859735 0.141117 1.61276e-21)
(1.05819 0.0601312 7.40111e-21)
(1.04665 0.017368 0)
(1.0275 0.000161521 4.63055e-21)
(1.02602 0.0944761 -3.90417e-21)
(1.11985 0.0680541 3.73478e-20)
(1.00393 7.69881e-05 -3.3838e-23)
(1.14599 0.0820231 1.02042e-20)
(1.00513 -2.4908e-05 0)
(1.06688 0.0519207 4.40637e-21)
(0.877164 0.143069 -1.04666e-21)
(0.0750166 -0.0087303 -4.27588e-21)
(1.14436 0.0705942 -2.0183e-20)
(1.02576 0.00651079 3.27038e-23)
(0.0930974 -0.000909429 0)
(0.742794 0.0471971 3.05932e-21)
(1.01201 0.000398417 0)
(1.06676 0.0131682 -7.29766e-21)
(1.02998 0.00409654 -1.85572e-24)
(1.00578 0.000242438 8.5813e-23)
(1.00972 0.000683422 2.93432e-21)
(1.02977 -0.000342615 5.51008e-21)
(0.865248 -0.0566493 -1.62755e-21)
(0.854889 0.13947 -3.49521e-21)
(1.00799 -0.000474195 -4.21525e-23)
(1.01646 0.00846134 8.02399e-22)
(0.965509 0.0865667 -3.95535e-21)
(1.01089 0.00372998 1.89975e-22)
(1.05717 0.0071064 2.87784e-22)
(1.04541 0.0377847 0)
(1.03377 0.0292395 0)
(1.04677 0.0276229 0)
(0.398518 0.0640923 4.48524e-20)
(0.864137 -0.126976 1.12695e-21)
(1.00957 0.00295342 7.28007e-22)
(1.04456 0.00744536 -3.29263e-23)
(1.006 0.000688492 1.19409e-23)
(1.1413 0.0809748 9.91807e-21)
(1.00375 -3.67386e-05 0)
(1.02756 0.000179608 4.83727e-21)
(1.00599 -1.85606e-06 -4.61366e-23)
(1.04389 0.0114102 -9.08393e-22)
(1.05338 0.000591013 1.04941e-20)
(1.00589 1.33484e-05 4.43583e-23)
(0.212411 0.0405227 -4.05344e-20)
(0.793747 -0.0137403 -1.68975e-21)
(1.10698 0.0657331 3.96513e-20)
(0.0146048 0.0292424 -8.7507e-21)
(1.00492 0.000505354 -3.54537e-24)
(1.03162 0.0219427 0)
(1.04368 0.00717437 0)
(0.91333 -0.0446371 -7.49025e-22)
(1.05609 0.0112533 5.27907e-22)
(0.998488 0.0908848 0)
(1.00582 0.000656516 -4.63275e-24)
(0.43096 0.0672826 -2.24494e-20)
(1.02863 0.0154965 0)
(1.07026 0.0308744 0)
(1.00392 0.000101275 0)
(1.03885 0.0397598 3.51534e-21)
(1.01602 0.00722828 3.66087e-21)
(0.383182 0.0646238 1.75881e-20)
(0.366477 0.0951469 1.41366e-21)
(1.01985 0.0376549 4.85376e-22)
(1.01609 0.00541172 -2.13665e-22)
(1.14614 0.0717989 1.5848e-22)
(1.00881 0.00241142 0)
(1.06158 0.0297713 -1.98311e-20)
(1.03234 -0.00121478 -6.49601e-21)
(0.983277 -0.036341 5.19985e-22)
(1.02943 -0.000260207 -2.64474e-21)
(1.0485 0.011246 -3.97401e-21)
(1.01537 0.000356817 3.71526e-23)
(0.88159 -0.0924558 0)
(0.834272 -0.00513041 5.44318e-22)
(1.00392 7.36392e-06 2.1507e-23)
(1.03111 0.0218466 0)
(1.0268 0.0336834 3.29833e-22)
(1.00523 0.000257097 0)
(1.06521 0.0158529 6.36315e-21)
(1.00929 0.00187648 0)
(1.01055 0.00351934 8.28888e-22)
(1.02833 0.0150225 0)
(1.04262 0.0193358 5.11715e-23)
(1.03984 0.0396043 -5.36461e-21)
(1.03282 -0.00134854 7.34743e-21)
(1.12263 0.0449027 5.28075e-21)
(1.01586 0.0070249 -1.84002e-21)
(0.553214 0.0837693 -1.17572e-20)
(1.01601 0.000845861 -2.18457e-21)
(1.04618 0.0457366 0)
(0.345875 0.0937157 -2.45522e-21)
(1.01183 -0.00113873 0)
(1.01197 -0.00124287 0)
(0.121994 0.0292533 0)
(1.0604 0.0297319 6.23517e-21)
(0.732162 0.117766 -9.70879e-23)
(0.715429 0.0916081 1.35962e-20)
(1.03708 0.0124549 -4.63376e-21)
(1.0612 0.0403269 1.60761e-20)
(1.01588 0.000847297 -2.998e-21)
(0.262678 0.0608472 -1.04108e-20)
(0.507402 0.026598 -3.02743e-21)
(1.04721 0.0128139 -7.52952e-21)
(1.11799 0.0687149 -1.15206e-20)
(-0.0470464 -0.000836971 2.19788e-22)
(1.02055 0.00133032 -4.15621e-21)
(0.867867 0.0643677 6.17112e-21)
(1.00363 -3.68162e-05 0)
(-0.0634583 0.0325255 -1.77708e-20)
(0.537494 0.0274301 2.51256e-21)
(1.06017 0.0109553 0)
(0.191235 0.0224382 1.37121e-20)
(1.00771 0.00130329 -4.88117e-23)
(1.1714 0.0775575 -3.98473e-20)
(1.10522 0.0451107 -1.29668e-20)
(0.85649 0.0974063 -1.87555e-20)
(1.05205 0.00280491 2.505e-21)
(0.959086 0.0605559 2.23446e-22)
(1.01623 0.0081993 8.56272e-22)
(1.00529 0.00010695 -1.62457e-22)
(1.00994 0.0031552 0)
(1.03327 0.0425945 9.32998e-22)
(1.09062 0.048385 -2.63075e-20)
(1.02067 0.00147309 -3.44399e-21)
(1.00468 0.000450184 0)
(1.00491 0.00049517 -2.94454e-23)
(0.176886 0.0167561 -1.51637e-20)
(0.654611 0.0889504 -3.06738e-20)
(1.01683 0.00533729 4.10609e-22)
(0.0284557 0.0379964 2.07589e-20)
(1.17146 0.076176 0)
(1.0611 0.0105081 3.26794e-21)
(1.01942 0.0046355 -3.45733e-21)
(1.00306 -1.38251e-05 2.38723e-23)
(0.856424 0.0811957 -5.6522e-21)
(1.02569 0.00939949 -2.39349e-21)
(1.09059 0.0101412 -1.4743e-20)
(1.02469 -0.0209125 8.97108e-24)
(0.449077 0.0103195 3.50744e-22)
(1.12937 0.0775696 0)
(1.00527 9.30248e-05 0)
(1.02245 -0.00107031 9.229e-23)
(1.0555 0.0416873 8.23234e-21)
(0.876018 -0.0464741 0)
(1.00114 -1.89081e-05 -1.9539e-23)
(-0.0677603 0.00877711 -3.0001e-20)
(1.01891 0.00428183 3.45001e-21)
(1.01129 1.58216e-05 -7.29814e-23)
(1.02182 0.0129284 -1.28189e-21)
(0.498938 -0.0683582 -4.46335e-21)
(1.01185 0.000463242 1.05587e-22)
(1.01094 0.0792553 1.04156e-21)
(1.02921 0.00564698 0)
(1.02907 1.13662e-05 2.91686e-21)
(1.04101 0.0329993 5.18571e-21)
(1.00526 0.000253013 -2.15069e-22)
(1.00831 0.000193539 -1.9139e-21)
(1.00443 0.000121236 0)
(0.857735 -0.032014 -1.50394e-21)
(1.00501 0.0738055 -1.15536e-21)
(1.12715 0.0780097 0)
(1.02869 0.0046095 0)
(1.03957 0.011201 -1.10696e-20)
(1.00467 0.000442465 -1.17774e-24)
(1.01482 -3.08611e-05 -4.72444e-23)
(0.602231 0.0321794 0)
(1.02625 2.24464e-05 -4.05153e-21)
(1.02709 0.0891191 0)
(1.0113 0.00350966 0)
(0.945501 0.107083 2.98081e-21)
(1.02129 0.0128212 -2.07466e-21)
(1.00234 8.50322e-05 -7.5219e-23)
(1.05683 0.0615149 0)
(-0.0285872 0.0222158 0)
(1.03676 0.0343225 0)
(1.00383 0.000218194 0)
(1.02221 0.0126368 -6.46825e-22)
(1.03576 0.078969 1.19971e-21)
(0.949524 0.0564771 0)
(1.00895 0.0024536 4.33027e-22)
(1.12503 0.035998 0)
(1.03152 0.011397 -1.05587e-20)
(1.01196 -0.00125615 -3.91777e-23)
(1.0196 0.0048954 3.65584e-21)
(0.062304 0.0385347 0)
(1.08076 0.0765067 8.66002e-21)
(1.0097 0.000611814 -1.60609e-21)
(0.149667 0.0450584 -2.3549e-20)
(0.404748 0.0657761 0)
(0.620295 0.0378755 -2.80928e-21)
(0.868465 0.149893 1.32451e-21)
(1.02861 0.0236853 -1.72594e-21)
(0.313334 0.051646 1.03339e-21)
(1.11897 0.0225529 -3.59806e-20)
(1.04988 0.010413 7.84344e-21)
(1.00247 0.0622835 0)
(0.461451 0.0203579 0)
(1.03434 0.0363127 -8.83513e-22)
(1.12215 0.0428984 2.01318e-20)
(1.11442 0.026935 -5.18687e-22)
(1.01627 0.00825218 -1.67897e-21)
(1.04573 0.000830565 -1.14143e-22)
(1.12533 0.0604438 2.76526e-20)
(1.12531 0.0587757 -2.47334e-20)
(1.01655 0.0011248 0)
(1.01316 -0.000682544 -2.96475e-22)
(1.05927 0.0729443 1.18613e-20)
(1.07131 0.0318665 0)
(1.06211 0.0415233 -6.18242e-21)
(1.00797 0.000298534 0)
(0.862079 0.149209 4.23966e-23)
(1.03871 0.0101668 0)
(0.999572 -0.0463701 1.34858e-22)
(1.06085 0.00696265 0)
(1.02818 9.04558e-05 3.43468e-22)
(1.10346 0.0780674 -1.78868e-20)
(1.02885 0.00553489 -5.93253e-23)
(1.05226 0.00411749 -5.01777e-21)
(0.59854 -0.031964 -3.60832e-21)
(1.02937 -3.35392e-05 -8.8916e-21)
(0.375554 0.0621791 -4.80621e-20)
(1.03713 0.0111295 0)
(0.886098 0.041476 0)
(1.10686 0.0445609 1.40167e-20)
(1.05492 0.0423674 -1.97689e-22)
(-0.0715221 0.00256989 9.53139e-21)
(1.02601 0.0156054 4.77759e-21)
(1.01419 0.00591042 0)
(1.07077 0.0591922 -6.01996e-21)
(1.0211 0.000792342 7.87952e-24)
(1.00565 0.000175927 3.96789e-23)
(0.656525 0.0893365 0)
(1.00375 0.0180359 0)
(1.0527 0.0034576 0)
(1.02807 0.000583128 5.23322e-21)
(1.05054 0.0100432 4.83416e-21)
(1.01993 0.00118868 4.84263e-23)
(1.00384 -3.50951e-05 0)
(1.08218 0.0538154 0)
(1.02952 0.0237442 -2.65043e-21)
(-0.0781108 0.0320632 -3.64358e-20)
(1.02058 0.0129829 0)
(0.880133 -0.107108 -5.25196e-22)
(1.02275 0.0178997 -1.5921e-21)
(0.123737 0.0426762 -8.44866e-21)
(1.00183 3.69776e-05 0)
(1.01547 -0.00318454 2.78176e-23)
(0.85251 0.0635653 2.24815e-21)
(1.02167 0.0129967 1.47283e-21)
(0.863536 -0.0500401 1.44555e-21)
(1.00309 2.29596e-05 -3.53673e-23)
(1.08589 0.0836527 -2.80271e-20)
(1.04158 0.0404683 -4.34372e-21)
(1.04943 0.0116618 -1.21882e-20)
(1.06072 0.00878461 -1.52503e-21)
(0.991857 -0.0199376 -3.81003e-22)
(1.0106 0.000745322 0)
(1.01359 0.00547283 4.80919e-22)
(1.00493 0.000429168 -2.27363e-25)
(1.01231 -0.00127156 4.27037e-23)
(0.920275 0.0850942 2.1261e-20)
(1.00967 0.00440632 -3.11315e-22)
(1.00787 0.00130732 -7.61335e-23)
(0.948948 0.0931443 2.22398e-20)
(0.894576 0.0975388 2.4413e-20)
(1.02204 0.0174752 -1.13524e-21)
(0.773399 0.0928978 0)
(1.06142 0.00769144 -5.55221e-21)
(1.02628 0.0104531 0)
(1.08686 0.0495909 -1.83797e-20)
(1.05314 -0.000801362 -6.58364e-23)
(1.07146 0.0168475 2.28311e-20)
(0.247327 0.0599673 1.15737e-20)
(1.04668 0.0105388 -7.40481e-21)
(1.02787 0.0399385 1.31621e-21)
(1.06719 0.011171 1.6373e-20)
(0.0234633 -0.0413507 -5.78506e-21)
(0.294496 0.0597347 -3.20372e-21)
(1.00561 0.000191284 -1.24926e-22)
(1.00445 0.000404131 3.70097e-23)
(1.0207 0.00169887 3.69399e-21)
(0.92939 0.0233336 5.47464e-21)
(1.02168 0.0171467 1.17141e-21)
(-0.0794388 0.0261227 -6.19846e-20)
(1.02773 0.0148165 2.37319e-21)
(1.00402 6.40487e-05 -2.77831e-23)
(1.01091 0.000712872 9.25343e-23)
(1.00466 0.000198785 1.20304e-22)
(1.00401 0.000100077 0)
(1.00475 0.000193407 1.07253e-22)
(1.02608 -3.89472e-05 -4.15635e-21)
(1.04027 0.0300274 9.80017e-23)
(0.763529 -0.0425012 -8.81616e-23)
(1.00381 0.000101639 0)
(1.02264 0.0184577 2.20237e-21)
(0.89897 0.107507 0)
(1.01946 0.0107977 2.90955e-22)
(1.00368 9.39209e-05 -1.177e-23)
(0.051979 -0.0515228 0)
(1.06812 0.0508377 -2.95747e-21)
(1.02732 0.000340778 -5.62268e-21)
(1.01998 0.00494396 3.70599e-21)
(1.01516 0.00115775 -1.98101e-21)
(0.992558 0.0483336 -2.10435e-22)
(1.04471 0.00634144 0)
(0.863914 0.0318259 -1.86811e-21)
(1.0283 0.0238686 2.94006e-21)
(1.03688 0.000981775 -4.98627e-21)
(1.1048 0.0180652 0)
(1.04225 0.0138898 0)
(1.04633 0.00131577 -3.38373e-22)
(0.920382 0.0855822 0)
(0.947924 -0.077722 -2.72636e-21)
(0.390919 0.0639384 1.5706e-22)
(1.11396 0.0701132 1.19117e-20)
(1.0222 0.0065459 -2.08925e-21)
(1.08721 0.0476814 -1.93571e-21)
(0.712219 0.0906334 2.04614e-21)
(1.00388 9.76334e-05 2.92278e-23)
(1.08814 0.0529098 2.32334e-21)
(1.00488 -4.32387e-05 0)
(1.04019 0.0325064 5.07789e-21)
(1.04265 0.0266443 -4.76476e-22)
(0.694047 0.0893577 -1.5293e-20)
(1.00442 0.000390701 -2.82419e-23)
(-0.036183 -0.00976653 9.37391e-21)
(1.03763 0.0129194 4.86707e-21)
(1.02318 0.0985262 0)
(1.02692 0.000763929 -4.59061e-21)
(1.12621 0.0323398 2.15395e-20)
(1.08851 0.0510205 0)
(1.04465 0.0418023 0)
(-0.0530787 0.00845346 -6.71188e-20)
(0.857228 -0.000232135 2.42304e-21)
(1.00444 -6.46561e-05 2.79877e-23)
(0.137641 0.0170144 -1.18066e-20)
(1.00966 -2.5073e-05 0)
(0.182723 0.0356134 1.28888e-20)
(1.04291 0.00860743 6.01784e-21)
(1.06773 0.0604769 -1.1395e-20)
(1.05125 -0.00135937 0)
(1.05287 0.00482095 1.30121e-21)
(1.05872 0.0157818 1.21713e-20)
(1.01825 0.000225288 2.63018e-23)
(1.02744 0.0143437 -7.03465e-21)
(1.01717 2.58007e-05 -4.12234e-21)
(1.00173 2.70516e-05 -2.58614e-23)
(1.0107 -0.000811587 0)
(1.00303 -9.48651e-06 -4.44244e-23)
(1.02474 0.0149025 0)
(1.0431 0.0349631 3.17125e-21)
(1.00425 -6.24704e-05 -7.95243e-23)
(1.00471 -4.48372e-05 0)
(0.998341 0.0534034 5.26182e-23)
(1.00174 -2.22917e-05 2.62585e-23)
(0.986397 -0.0414486 5.29603e-22)
(1.01038 0.000598132 0)
(1.06547 0.0170732 -3.3996e-21)
(1.00883 0.00237596 0)
(1.03542 0.0336079 6.19757e-21)
(1.00384 -6.63169e-05 -4.6056e-23)
(0.990968 0.0353101 0)
(1.01843 0.00668142 4.10694e-23)
(0.584071 0.0883511 -2.53611e-22)
(1.01957 0.0280477 0)
(1.03747 0.00105718 0)
(1.00171 -3.86161e-06 -3.0381e-24)
(1.00782 0.000628175 0)
(1.01028 -0.000752109 9.17722e-24)
(1.04031 0.0115388 1.87377e-20)
(1.02228 0.00633248 -1.10568e-21)
(1.03168 0.00362164 0)
(0.431761 0.0769974 1.63066e-20)
(1.01077 0.00347065 0)
(-0.0304849 0.0339835 -3.15305e-21)
(0.590478 0.0458709 1.33597e-21)
(1.08379 0.0833981 0)
(1.00387 -7.43558e-05 4.38946e-23)
(1.00792 0.000599535 9.39327e-22)
(0.677536 0.0901708 -1.55084e-21)
(0.83037 -0.0366438 -1.37255e-21)
(0.926488 -0.0034055 0)
(1.01075 0.00944509 -8.14159e-22)
(0.868124 0.149485 -1.03055e-21)
(-0.0965202 0.0297663 0)
(0.950299 -0.0387146 5.59531e-22)
(1.05752 0.0409472 0)
(-0.0172758 0.0354905 0)
(1.02089 0.00519418 2.41519e-21)
(1.00226 0.000157295 0)
(1.00399 0.000224165 -7.67914e-24)
(1.03809 0.0245558 1.09194e-22)
(1.01946 0.0108298 0)
(1.04986 -0.000458515 -8.81605e-21)
(1.09255 0.0478129 -2.52605e-22)
(1.01652 0.00539618 -2.95693e-22)
(0.891138 0.027153 -5.52581e-21)
(1.01381 0.00561966 3.30488e-23)
(1.02449 0.0383008 -2.02267e-22)
(1.10516 0.0637752 -4.09149e-21)
(0.553984 0.0879245 4.50138e-22)
(1.14182 0.0787062 1.99467e-20)
(1.07977 0.0746331 -7.50608e-21)
(0.872196 -0.0196962 -2.72492e-22)
(1.04241 0.0343927 2.7604e-21)
(1.02062 0.00511335 -8.02216e-21)
(1.0106 0.00072221 5.28461e-23)
(1.01768 -0.00138383 0)
(0.286367 0.0547145 -1.74581e-20)
(0.606524 0.087133 0)
(0.999868 -8.43526e-05 1.84888e-23)
(1.00864 0.00223155 1.88597e-22)
(0.980841 0.108058 -2.82812e-22)
(1.07008 0.0475942 -1.64575e-21)
(0.890301 0.0830054 -4.767e-21)
(1.03821 0.00846366 -2.59955e-21)
(1.02118 0.0304591 0)
(1.05958 0.0153106 1.37625e-20)
(0.864167 -0.139643 0)
(1.04604 0.000155159 1.51849e-20)
(1.00416 0.000148255 6.61201e-23)
(1.00627 -4.42212e-06 0)
(1.00996 0.003064 0)
(1.0167 0.00866049 0)
(1.02198 0.0059591 4.82086e-21)
(1.04542 -0.000267251 -1.43419e-20)
(0.10002 0.0257805 -2.72316e-20)
(0.282231 0.0548985 0)
(1.00412 0.000149548 0)
(-0.0492263 0.0103658 4.73997e-20)
(1.0131 -0.000493241 -4.65925e-22)
(-0.072591 0.00386658 -9.06532e-21)
(1.14461 0.0786946 -1.00026e-20)
(0.744117 0.0725255 -8.94754e-22)
(1.00641 1.47769e-05 0)
(1.01995 0.0137282 2.40327e-22)
(0.109931 0.00892767 0)
(1.00509 2.1649e-05 -1.27781e-22)
(0.665807 0.0857349 -1.74558e-22)
(1.02756 2.5573e-05 -5.74196e-21)
(1.01074 8.3664e-05 0)
(1.04845 0.0302351 -7.99817e-21)
(0.999661 -8.62831e-05 1.12843e-22)
(0.111675 0.0313825 -2.98304e-20)
(1.03106 0.00710281 0)
(1.00838 0.00158857 -9.65731e-24)
(1.03847 0.0262147 6.86264e-22)
(1.02754 -1.63034e-05 -1.09603e-23)
(1.0981 0.0199047 1.03629e-20)
(1.02208 0.00578653 -4.8072e-21)
(0.334039 0.0551933 -1.77085e-20)
(1.00397 9.51183e-05 0)
(1.02511 0.0151865 -3.81473e-21)
(1.01537 -9.86423e-05 -8.15783e-23)
(1.04525 0.00596932 0)
(1.08917 0.0153888 1.18828e-20)
(1.07292 0.00772962 0)
(1.06135 0.00942839 6.74845e-21)
(1.05057 0.0129965 4.45935e-21)
(0.854701 0.0475122 -9.27195e-22)
(1.07093 0.0215317 -1.09536e-20)
(1.00413 -0.000136851 0)
(1.02299 0.0139587 0)
(1.00859 0.00219382 -6.27219e-22)
(1.02993 0.0091733 6.79366e-21)
(1.04525 0.0609233 -2.75968e-21)
(1.08586 0.0444027 0)
(0.391541 0.0633025 2.41037e-20)
(1.02792 0.00965713 3.17063e-21)
(1.02869 4.31134e-06 -5.5077e-21)
(1.00821 -0.0197168 9.28892e-22)
(1.01907 0.00456055 -7.18785e-21)
(-0.0353925 -0.00763812 9.31358e-21)
(1.09183 0.0608854 0)
(1.00431 -0.000147083 -1.20723e-23)
(1.02583 0.0130971 7.28946e-21)
(0.970085 0.0983521 -2.27772e-20)
(1.01624 0.00815272 0)
(1.07007 0.0166649 -2.15684e-20)
(1.01462 0.00584826 9.7638e-22)
(1.02009 0.00124597 -5.38965e-21)
(1.03941 0.0104399 0)
(1.02986 0.0200548 2.57674e-21)
(0.14657 0.0371296 3.28114e-20)
(1.06016 0.0311037 1.32959e-20)
(1.03318 0.0289807 0)
(1.02689 0.0141409 -4.77265e-21)
(0.68442 -0.016457 -2.15405e-21)
(1.14195 0.060947 -2.00442e-20)
(1.02156 0.00940955 8.14162e-24)
(1.02489 0.00894414 7.31209e-21)
(0.904732 0.0581007 2.1885e-21)
(1.01653 -8.07337e-05 3.41444e-23)
(0.389545 0.076768 -1.46898e-25)
(1.0117 0.000519996 0)
(1.02827 0.00970472 0)
(0.900924 0.0582812 8.19202e-22)
(1.04315 0.0075724 0)
(0.784064 -0.00411058 3.11458e-21)
(1.07954 0.0421266 0)
(0.36924 0.0710809 0)
(1.02736 0.000619932 -7.98889e-23)
(1.00367 5.71071e-05 3.30081e-23)
(1.01038 0.00324858 1.68096e-23)
(1.07051 0.0184555 7.47866e-24)
(1.0042 0.000169259 -4.30063e-22)
(1.03602 0.00137425 0)
(0.775161 0.0368052 0)
(0.300029 0.0456768 1.88432e-20)
(1.03266 0.0163188 -5.10922e-22)
(1.02926 -0.0157229 2.84718e-22)
(0.835158 0.0999546 0)
(0.66497 0.0893374 2.6298e-21)
(0.652862 -0.0137464 -9.01271e-22)
(1.1268 0.0347137 0)
(1.00813 0.0142583 -6.16095e-22)
(1.00516 -0.000136741 0)
(0.657243 0.0179649 -1.272e-22)
(1.0112 8.73175e-05 -2.18309e-22)
(1.10742 0.0713925 0)
(1.0785 0.0427479 7.94068e-21)
(0.694385 0.0859011 -1.33783e-21)
(1.00524 9.47337e-06 1.96901e-22)
(1.02995 0.00950188 -7.77163e-21)
(1.0103 0.000749219 -5.4345e-23)
(1.01082 0.00319365 3.67178e-22)
(0.918983 0.0677232 0)
(1.02923 0.0240106 -7.62447e-22)
(1.01724 0.0372243 -3.12625e-22)
(1.0084 0.00181954 -9.92512e-22)
(1.06905 0.0464817 -1.28095e-20)
(0.548229 0.104919 -2.14316e-21)
(1.03066 0.021051 -3.43717e-22)
(1.01074 0.00363503 -1.95766e-22)
(1.01815 0.00543267 1.43352e-22)
(0.915942 0.0693369 -5.23979e-21)
(0.944825 0.0864204 3.98749e-21)
(0.800363 -0.0438051 3.38645e-21)
(1.09766 0.0690604 1.32776e-20)
(1.02522 0.00930994 2.3749e-21)
(0.502729 0.105253 2.94785e-22)
(1.0266 0.0136993 -2.35904e-21)
(1.03365 0.00327864 0)
(1.0215 0.0255129 0)
(1.04812 0.012856 1.43526e-21)
(1.10627 0.0623452 9.61859e-21)
(1.04109 0.0359543 -2.23753e-21)
(0.910887 -0.0843113 1.12961e-23)
(1.00968 -0.0378551 -2.74362e-22)
(1.0006 -3.70164e-05 -1.23134e-23)
(1.09135 0.0627566 0)
(0.313352 0.057423 2.61527e-20)
(0.504071 -0.0402442 -8.89226e-22)
(-0.0818169 0.0235226 0)
(0.217252 -0.00328078 0)
(0.650894 -0.0300728 -2.45096e-22)
(1.03944 0.0361443 -1.99659e-21)
(1.01447 0.0439308 4.53347e-22)
(0.413896 0.0828246 -3.18422e-22)
(1.03054 0.0207038 3.44638e-22)
(1.06951 0.00837847 -4.71558e-21)
(1.03086 0.0163822 -5.54856e-21)
(0.772792 0.0162597 -9.68151e-22)
(0.885819 0.0780458 -3.61661e-21)
(0.0998032 0.0426092 2.83021e-20)
(1.05923 4.05567e-06 -6.5654e-21)
(1.01085 0.0138623 7.45327e-22)
(1.00283 -1.32533e-05 9.56645e-24)
(1.02528 0.0150057 1.87299e-21)
(1.01091 0.00328141 0)
(1.06098 0.0272122 0)
(1.02321 0.00111048 3.45653e-21)
(1.10076 0.0808185 -3.79399e-21)
(1.03317 0.0164856 -2.26172e-21)
(0.376802 0.0844048 -6.32122e-21)
(1.02988 -0.00108295 2.3584e-23)
(1.0151 0.00108707 0)
(1.02455 0.0150588 -1.7689e-21)
(0.335533 0.0684339 0)
(1.00198 -0.0220312 0)
(1.06655 0.0100741 -1.02166e-20)
(0.628615 -0.0221747 3.04834e-21)
(1.03031 0.0161616 2.77573e-21)
(0.962054 -0.0688912 -6.89929e-22)
(1.0163 0.000975553 0)
(1.02277 0.0203046 -3.47434e-23)
(1.02932 0.0199356 -5.21537e-23)
(1.012 0.00402328 -1.37894e-22)
(1.00846 0.00200999 4.06161e-22)
(1.03659 0.0253041 4.11986e-21)
(0.781252 0.111597 -9.71659e-23)
(1.00534 -0.000152293 0)
(1.01293 -0.00148246 0)
(0.288164 0.0637392 2.27685e-20)
(-0.0912897 0.0310063 -3.49608e-20)
(1.02056 0.0196122 -1.70412e-23)
(1.04511 0.00705352 3.37219e-21)
(1.02317 0.014352 0)