/*--------------------------------*- C++ -*----------------------------------*\
| =========                 |                                                 |
| \\      /  F ield         | OpenFOAM: The Open Source CFD Toolbox           |
|  \\    /   O peration     | Version:  v2012                                 |
|   \\  /    A nd           | Website:  www.openfoam.com                      |
|    \\/     M anipulation  |                                                 |
\*---------------------------------------------------------------------------*/
FoamFile
{
    version     2.0;
    format      ascii;
    class       volVectorField;
    location    "150";
    object      ddt0(U);
}
// * * * * * * * * * * * * * * * * * * * * * * * * * * * * * * * * * * * * * //

dimensions      [0 1 -2 0 0 0 0];


internalField   nonuniform List<vector> 
18598
(
(-0.0126338 0.00438013 -2.28451e-20)
(0.0121874 0.00436423 0)
(-2.99264e-06 5.42243e-05 -1.4583e-22)
(-0.00436632 0.000254293 9.75941e-20)
(-0.000157379 0.00043732 0)
(-0.00243963 0.000151028 -1.58365e-22)
(0.0080501 0.0114941 0)
(1.69796e-05 -0.000347651 0)
(-0.0375281 -0.0199907 7.182e-20)
(0.036473 -0.0477345 1.15122e-20)
(-0.000275202 -0.00024777 1.08173e-20)
(0.0107771 -0.00092784 1.85123e-19)
(5.72235e-05 0.000101402 9.07755e-21)
(0.0082183 -0.000958155 -1.76481e-19)
(-5.49759e-05 -0.000536495 8.39899e-21)
(-0.00658525 -0.0220021 0)
(0.0180305 -0.0137056 5.76649e-20)
(0.000168156 0.00174167 0)
(-0.000184722 -0.00277189 0)
(-0.00325473 0.00156874 8.91051e-22)
(-0.000604763 -0.000218184 -3.19773e-23)
(-0.00043784 0.000273771 2.56538e-21)
(-0.04809 0.0176137 -6.23089e-21)
(-0.000432302 0.000579901 -6.32244e-22)
(-0.000107864 0.000213643 2.25592e-21)
(0.0263644 -0.0154022 3.28041e-20)
(-0.0109032 -0.022686 0)
(-0.000140557 -0.000130402 -8.53204e-21)
(-0.0113751 -0.0193324 -6.0627e-20)
(-0.0129195 0.00615861 1.84501e-20)
(0.0209578 -0.031633 0)
(2.18055e-05 -0.000264844 0)
(-0.00112271 0.000826928 1.93824e-21)
(-0.00253791 -0.00739007 3.17656e-20)
(0.0212549 0.0228032 0)
(-0.0217271 -0.0164299 -1.33788e-19)
(-0.000104569 0.000221251 6.96984e-22)
(-0.000282599 -0.000407302 0)
(-0.000142158 0.000421772 -3.48658e-21)
(0.00131909 0.00509295 -4.97783e-20)
(-0.00773532 -0.0119043 0)
(-0.124486 -0.0110101 -2.04839e-19)
(-0.00518557 -0.0316553 -8.8286e-20)
(0.00876926 -0.000973283 0)
(-0.000407503 -0.011532 -8.43121e-21)
(-0.000564855 0.000701656 -7.83944e-21)
(-0.000114716 0.000241325 0)
(0.023345 -0.0100117 -2.06213e-20)
(0.000221232 0.000129821 4.74688e-21)
(-9.89656e-05 0.000233724 0)
(-9.45775e-05 -2.14418e-05 2.26457e-22)
(0.0070424 -0.0555536 0)
(-0.0197711 0.0140119 6.91862e-20)
(0.00273994 0.00484574 -5.59236e-20)
(-0.000442369 0.000383246 -3.00115e-21)
(-0.000126401 -4.36947e-05 -5.08814e-22)
(-0.000205717 -0.000151717 5.80231e-21)
(-2.14648e-05 -2.15085e-05 -9.59976e-22)
(0.000294179 0.000323404 7.23989e-21)
(-0.00576027 -0.0183493 0)
(0.0331817 -0.00242664 3.20496e-21)
(0.0127993 -0.00232811 4.50858e-21)
(-0.000110646 -0.000247618 9.51132e-21)
(-0.000382476 0.000539329 2.23062e-21)
(-0.0141107 -0.0181178 -1.50624e-20)
(0.0137927 0.0173118 4.51762e-19)
(0.000217157 0.000357843 -1.68655e-20)
(-0.000813973 0.00164619 -1.65425e-20)
(-0.0735307 0.21058 0)
(-2.18199e-05 6.54539e-05 4.5839e-21)
(-0.00198706 0.000193792 -9.7736e-21)
(-0.0111702 -0.0225351 -4.61461e-20)
(0.0203533 -0.0232143 0)
(-0.0188601 0.0148399 0)
(-7.61833e-05 -0.000557093 5.33356e-21)
(-0.00757617 -0.0161672 0)
(-2.6497e-05 -0.000514108 7.7581e-21)
(-0.000149119 -6.70725e-05 -3.00437e-22)
(-0.0145491 -0.0268922 2.56814e-20)
(-0.00253313 0.00159619 1.01463e-20)
(-0.0126302 0.00135982 -3.3032e-20)
(-0.00095292 0.000421453 4.83216e-21)
(-0.000100548 -0.000242279 0)
(0.0321393 -0.0155384 0)
(-0.00119278 0.0003864 0)
(0.0168151 -0.0312257 -2.20568e-21)
(-2.54396e-05 6.08225e-05 -6.62058e-21)
(0.00649784 -0.00244504 0)
(-0.000302396 4.52321e-05 -8.45126e-21)
(-0.00137831 0.00684278 0)
(0.000266406 -0.00832583 3.44998e-21)
(0.00396868 -0.0100298 0)
(-0.00401318 0.0150687 1.43142e-20)
(0.0254342 -0.0122658 0)
(-0.0389218 -0.0489709 0)
(-0.000283987 0.000662033 -5.64765e-21)
(-0.00879137 -0.0107594 -2.32117e-20)
(-0.000229041 -9.51307e-05 -1.25642e-21)
(-0.00712906 0.00234574 0)
(-0.00339813 -0.00266805 1.20282e-20)
(-0.000257345 -0.000106594 8.31701e-21)
(-2.86023e-05 -2.10339e-05 0)
(-0.000775984 0.00872852 -7.80941e-21)
(-0.00666279 0.00456478 2.08864e-20)
(0.0127993 -0.00578136 -5.11991e-20)
(-0.00053255 0.00113367 -4.90048e-20)
(-0.0177936 -0.0008716 -2.88068e-20)
(0.0503946 -0.00321906 4.37107e-20)
(-0.000177838 -7.31683e-05 -8.53303e-21)
(-0.0151445 -0.0201689 5.53958e-20)
(0.00266299 -0.00327959 0)
(0.0327206 -0.00225774 6.32299e-21)
(-4.84911e-05 -0.000562774 0)
(-0.000601711 0.00116789 3.77562e-20)
(0.00169265 -0.0178763 -2.80839e-20)
(0.000323307 -0.0014318 0)
(-0.0100722 0.00146069 3.10389e-20)
(0.00987819 0.00569326 1.04687e-20)
(-0.00141361 0.00250048 0)
(-0.000167602 0.000324474 -6.76446e-22)
(0.0152145 -0.0012967 6.62228e-20)
(-0.000299044 0.000579461 -4.89887e-21)
(-0.000253129 0.000728548 1.46991e-20)
(-0.00342385 -0.010083 0)
(0.000513869 -0.0135999 0)
(-0.00141092 0.000834627 0)
(-0.00143823 0.0020793 0)
(-0.0076307 -0.00365056 0)
(-0.0208284 -0.0180852 0)
(-0.00011432 0.000402499 0)
(4.37996e-05 1.90957e-05 3.88851e-22)
(0.00237424 0.01334 -9.31697e-21)
(-0.0311666 -0.00929047 7.05998e-20)
(-0.000525336 -0.000519847 -2.08665e-20)
(-0.0952954 0.0756139 0)
(-9.13526e-05 -1.6327e-06 -1.6912e-22)
(-0.0118018 0.00662521 0)
(-0.000127419 -6.22887e-05 8.8014e-21)
(-0.000104415 0.000262314 4.10821e-21)
(-0.00308489 0.00231898 -7.2592e-21)
(-0.035862 -0.0179636 0)
(-0.000548599 -0.000126608 -1.73207e-21)
(-0.000205247 -0.000162372 -7.7951e-21)
(0.0224409 0.000306289 0)
(-0.000287948 -0.000199157 -1.20315e-21)
(-0.000753858 -0.000572357 -1.21243e-20)
(-0.0169318 0.0356351 0)
(-0.00221856 -0.0172296 3.68177e-20)
(-0.000310952 2.98489e-05 -3.43015e-21)
(-0.00290629 0.00659063 -9.56579e-22)
(-0.00125637 0.00303236 8.83449e-20)
(-0.00339972 0.00230921 -1.49822e-20)
(-0.000355463 -0.0003401 -7.14114e-22)
(-0.0399903 0.00172634 -9.79644e-21)
(-0.000292019 0.000666745 -2.43853e-21)
(-0.000273732 -0.000184266 1.07334e-21)
(-0.0337011 0.00319307 3.0831e-20)
(-0.00120959 0.000903105 -4.64769e-21)
(6.17828e-05 0.00013086 -3.44206e-21)
(-0.001004 0.00316239 -5.32758e-20)
(-0.00217412 -0.00635895 7.2087e-22)
(-0.0362835 -0.0637954 -2.61848e-20)
(0.000298227 0.000913093 9.39428e-21)
(-4.25098e-05 0.000326985 4.92769e-21)
(-0.000125701 0.000417562 7.79149e-21)
(0.00320452 0.0060164 4.66726e-20)
(-0.0113149 -0.0161203 2.22436e-20)
(-5.51278e-06 -0.000386288 0)
(0.0213916 0.0012119 0)
(0.000351479 -0.00107156 -3.63895e-19)
(-0.000165234 -0.000818206 0)
(-0.0172144 -0.0402804 2.03444e-20)
(0.0219921 0.000112239 6.39417e-20)
(-0.0090478 -0.000492315 -6.62859e-20)
(-0.00172776 0.00151923 1.9455e-20)
(-0.000397236 0.000275009 -1.35435e-22)
(0.00994608 -0.00143186 -1.15728e-19)
(-0.00017267 -0.00143245 -1.93877e-20)
(-0.00128589 0.000258624 -2.12689e-22)
(-0.0370287 0.00335645 -5.78845e-20)
(-0.0130412 -0.000458414 0)
(0.00101025 -0.014528 -4.20792e-20)
(-0.0271478 -0.00263144 0)
(-0.00129394 0.000114156 0)
(0.0106646 -0.00277499 1.37837e-20)
(0.00453852 0.00357029 1.42485e-22)
(0.0539644 -0.0140438 0)
(-0.0342174 -0.00619443 0)
(-0.000171345 -0.000291943 0)
(-0.0274727 0.00248528 6.55875e-21)
(0.000339404 0.0014866 1.24605e-20)
(-0.000294982 0.00059367 1.82938e-20)
(-0.00741192 -0.0597238 -1.12165e-20)
(0.0277233 -0.00692101 5.13209e-21)
(0.000670547 0.00318792 0)
(-0.000241921 0.000490679 3.8322e-22)
(-0.034864 0.0179081 1.62805e-20)
(0.0530272 -0.00275134 -5.19929e-20)
(0.00219595 0.00294569 7.08721e-20)
(0.00453596 -0.0512948 1.86516e-20)
(0.0606768 -0.0207842 0)
(-0.000142605 -6.14275e-05 2.37532e-22)
(0.0168572 0.0826846 -2.6703e-20)
(-1.04994e-05 -1.91382e-05 -3.16383e-22)
(0.00330932 0.000615989 -7.21997e-21)
(0.0103578 -0.00650209 9.57241e-20)
(-0.00478583 0.0293266 2.68801e-19)
(-0.00036557 -0.000249437 7.16822e-22)
(-0.00128116 0.00111775 0)
(-0.000726379 -0.00237109 7.36324e-21)
(-0.0152897 0.00478497 -3.60093e-20)
(0.0103066 -0.0115118 0)
(-0.000179189 1.60761e-05 -6.32718e-21)
(-0.000206895 0.0242419 0)
(-0.0029755 0.0422868 3.9507e-20)
(-0.00244008 0.00752504 -3.42379e-20)
(0.0038589 -0.00581725 3.59474e-20)
(-0.000638374 -0.000186147 -3.1762e-21)
(-5.04976e-05 -0.000519004 0)
(0.0124312 0.057305 -1.27756e-19)
(7.98963e-05 6.51818e-05 0)
(-0.000220179 -0.000249605 -5.75141e-21)
(-0.00149196 0.00178941 1.66628e-20)
(-0.000140751 -0.000396111 0)
(-0.00790251 -0.0103415 -1.9039e-19)
(-0.000770717 -0.000396674 6.04881e-21)
(-0.000268536 0.000808596 -1.37196e-22)
(-0.000246046 -1.30082e-05 5.62226e-22)
(0.0163787 -0.00148054 -6.6429e-20)
(-3.5196e-05 0.000333861 5.08151e-21)
(-0.0308803 -0.0103599 0)
(-0.0311267 -0.00606486 3.3795e-20)
(-0.000102062 -0.000184668 -7.87856e-23)
(-0.000823895 -0.000149464 0)
(0.00720903 0.0127663 2.2959e-19)
(-0.00109033 0.00539332 8.02946e-20)
(-0.00118521 0.000326282 3.79024e-21)
(-0.00167343 -0.00359163 4.7847e-21)
(-0.000312615 0.000692988 9.8044e-21)
(0.00130348 0.0050289 0)
(-0.00132523 0.000961349 0)
(-0.00905698 -0.00287898 -9.34996e-21)
(0.0374233 -0.00116453 3.77697e-21)
(0.000198166 0.000222412 0)
(-0.00480995 0.0116073 -1.18785e-21)
(-0.000888299 0.0029771 -1.93676e-20)
(0.00487103 -0.0159066 3.25247e-20)
(-0.000501091 -0.000118804 1.88939e-21)
(0.000349602 0.00119371 3.9688e-20)
(-0.000243036 0.000564719 6.60015e-21)
(-0.0430571 -0.00176106 -7.06138e-20)
(0.0049329 0.0261483 1.85564e-19)
(0.00715357 -0.00270963 0)
(-0.0377137 -0.00284926 1.18335e-19)
(-0.00432474 -0.0101349 -1.99008e-20)
(-0.0434617 0.0176222 -4.6269e-20)
(0.00317154 0.000272896 -6.62338e-21)
(-0.0429451 0.027532 -7.67805e-20)
(-9.00347e-05 -0.000248656 0)
(0.0345383 -0.0152698 4.61751e-20)
(-0.00177473 -0.000418224 -3.78575e-22)
(0.00298023 0.00137295 2.10166e-21)
(0.00156878 0.00606136 4.25353e-20)
(-0.0315712 -0.0538187 -1.94309e-19)
(-0.0540012 -0.00768835 -1.23829e-20)
(-0.000942856 0.000376546 0)
(6.71835e-05 -5.07677e-05 0)
(0.0364398 -0.0386276 0)
(0.00429155 0.00328338 8.2226e-20)
(-0.000973313 0.0007787 1.53288e-20)
(-0.000164005 6.8129e-05 3.59205e-22)
(5.85522e-05 9.12523e-06 3.13366e-21)
(-0.00231013 -0.00582106 0)
(-0.000451515 -0.000340248 -2.73641e-22)
(0.0618797 0.00458194 -2.22686e-20)
(0.00789106 -0.0075645 -4.26953e-20)
(0.00896567 0.00438196 -4.55513e-20)
(0.0191487 -0.0145726 -4.43986e-20)
(-0.00851172 -0.00957006 -1.81425e-20)
(0.00228365 -0.00442684 -3.47465e-20)
(-0.00836758 -0.0039937 1.67271e-21)
(0.00876665 0.00946501 4.4776e-20)
(-0.000504508 -0.00227371 -3.90789e-21)
(0.0777377 0.00332742 0)
(-0.00170864 -0.0133537 -4.83439e-20)
(0.000714543 -0.00748084 1.58053e-21)
(0.00108168 0.00901203 6.36841e-20)
(-0.00232354 0.00339918 -1.2231e-19)
(-0.000342814 0.00043612 5.74069e-21)
(0.0523273 -0.0142186 3.11631e-20)
(-0.00229197 -0.00177479 0)
(-3.38315e-05 -0.0267584 0)
(0.00962407 -0.00363969 0)
(0.0197608 -0.0105179 1.04682e-19)
(0.00578805 -0.0234727 2.70866e-19)
(2.82364e-05 0.00645294 2.1719e-20)
(0.000194292 0.000253933 -1.95474e-21)
(0.00898537 0.0122913 0)
(0.00734366 -0.0138835 -7.78371e-21)
(-0.00771313 -0.0055639 -2.95298e-20)
(-0.00394365 0.00719355 -7.34793e-20)
(0.0378565 -0.0453304 0)
(0.00426726 0.058444 1.23118e-20)
(-0.00368107 -0.0126506 -5.00883e-20)
(-0.00194921 0.000978407 0)
(-0.0192361 -0.00283708 1.40908e-20)
(-0.0344822 0.00503187 6.25254e-20)
(-0.00391314 0.00682411 -1.00565e-21)
(0.0280825 -0.00208785 0)
(-0.0234505 0.0688655 -1.14113e-19)
(0.0495473 0.0154109 4.40118e-20)
(-0.00129152 0.00106528 -2.89114e-20)
(0.0205631 0.0305935 1.80576e-20)
(0.0276499 -0.00302585 1.33259e-20)
(0.00267591 0.00587621 0)
(-0.00150258 0.00466805 0)
(0.00712903 -0.00316999 7.6079e-20)
(-0.00130335 0.00085713 3.60942e-20)
(-8.07791e-05 -0.000195115 0)
(-0.0324822 0.0293987 9.12043e-19)
(-0.000642078 0.0013454 -1.65667e-20)
(-0.0373781 -0.00220919 -1.24326e-19)
(-0.00036898 0.000448069 1.66997e-22)
(-0.00241108 -0.00279133 -8.68933e-21)
(-0.00105232 0.000916467 0)
(0.0133627 -0.0167029 0)
(-3.85675e-05 -0.000553495 2.5257e-22)
(-0.0231921 0.075255 0)
(0.00063324 0.00167987 4.56301e-21)
(-0.00086877 0.000473013 1.22799e-20)
(-0.00153791 0.00115199 0)
(0.000924016 0.00168767 2.87796e-21)
(-0.0415487 0.000543738 -7.55298e-20)
(-0.0372181 0.00315149 5.24903e-20)
(-0.000154027 0.000124802 -2.71338e-21)
(0.00793255 -0.0213141 0)
(0.000362614 0.00485213 0)
(0.0379731 -0.00201142 8.45115e-22)
(-0.00898616 -0.0104108 0)
(-0.000101537 9.78167e-07 -1.46748e-21)
(-0.00198943 -0.0103091 -3.03465e-20)
(0.00894447 -0.0340395 -4.18284e-20)
(0.0244308 0.004891 7.82092e-20)
(0.0256494 -0.00716312 1.03009e-20)
(-0.000440224 -0.00110146 0)
(0.165914 -0.0978438 0)
(-0.0292954 -0.0068415 -5.10664e-20)
(0.0625823 -0.0220814 0)
(-0.0401354 -0.0294708 -5.51034e-23)
(-0.0110341 0.00785848 -1.39918e-19)
(-0.000322554 -0.00101634 -4.63877e-21)
(-0.00339501 0.00175795 4.44719e-20)
(-0.00336087 0.00517029 0)
(0.00510113 -0.00459575 0)
(-0.0153397 -0.0119197 2.38681e-20)
(-0.0007719 0.000432517 3.7118e-21)
(-0.0179793 -0.0093611 0)
(-0.0408979 0.00107369 1.20447e-20)
(-0.0149926 -0.0134939 2.53505e-20)
(-0.000265945 0.000487602 -6.29726e-21)
(-0.000112422 -0.000123353 2.25916e-21)
(0.0329578 -0.00951631 3.24939e-20)
(-0.000191264 -0.000508103 1.98867e-22)
(-0.000170257 7.96864e-05 -8.59106e-22)
(4.85921e-05 1.14182e-05 0)
(-0.000366225 0.00022536 1.54645e-22)
(-0.0387283 0.000463524 -4.46291e-20)
(0.0556167 -0.0733396 -1.9354e-20)
(0.0014971 0.00569436 -3.2757e-20)
(0.00995574 -0.00164195 -3.66201e-20)
(-0.0127912 0.00612166 -2.10804e-20)
(-0.19784 -0.0459989 7.55171e-20)
(-0.000852309 -0.00992269 -8.94414e-22)
(0.00638019 0.00508508 -2.04816e-20)
(-2.95016e-05 -0.000595455 -1.45164e-22)
(-0.00138932 -0.0252362 -3.9127e-22)
(-0.0148703 -0.0167675 -3.97926e-21)
(-0.000847619 1.66674e-06 -1.68305e-21)
(-0.000187393 -0.000195338 0)
(1.43795e-05 0.00511892 0)
(-0.00195966 0.00109672 -1.36176e-19)
(-0.00015859 -0.000541003 -5.57949e-21)
(-0.00181067 0.00412451 2.31074e-20)
(-0.0138247 -0.000761223 0)
(-0.000960323 0.00241659 0)
(0.00551946 -0.0278324 3.72313e-20)
(-0.000241036 -8.58154e-05 0)
(-9.44138e-06 -1.3636e-05 2.57549e-21)
(6.31041e-05 3.9248e-05 2.61174e-21)
(-0.00570212 -0.0145095 -3.56684e-21)
(0.00971854 0.0160405 0)
(0.00106778 -0.00813529 2.07325e-20)
(-0.000146868 5.11471e-05 -8.62461e-22)
(7.26295e-05 -0.000593196 -7.87252e-21)
(0.0315837 -0.0107957 1.29206e-19)
(-0.00053596 0.00033223 4.61067e-21)
(0.000390642 0.000794596 1.97742e-20)
(-0.000140753 -6.38047e-05 -2.40783e-21)
(-0.0129436 -0.00888019 0)
(-0.00100118 -0.00343534 -6.28454e-22)
(-0.0024693 0.000920443 0)
(-0.00018616 -9.89701e-05 0)
(-0.000245072 0.000505073 -6.35607e-21)
(2.82379e-06 -2.7121e-05 0)
(-0.0337923 0.00268885 2.4823e-20)
(0.0303473 -0.014971 -6.44168e-20)
(-0.0279901 -0.0348483 1.67248e-20)
(-0.0325096 -0.00688621 0)
(0.00730389 -0.0102713 -2.51559e-20)
(-0.0122133 -0.0658769 -4.28183e-20)
(-9.52e-05 -0.000564692 -7.51099e-21)
(0.145549 -0.107049 1.04254e-20)
(-8.79336e-05 -0.000391054 -4.3572e-21)
(0.00037734 0.00805369 1.21846e-20)
(-0.0100389 -0.00302412 1.86596e-19)
(0.00403267 0.00238079 3.06752e-20)
(-0.00695228 -0.0102964 0)
(-0.00589805 -0.0130941 -7.89598e-21)
(0.138256 0.0307232 3.48534e-19)
(0.000990983 0.0226266 1.25767e-20)
(-0.000512645 -0.00122485 2.39738e-21)
(-0.000263882 4.18994e-05 0)
(-1.52033e-05 -0.000702607 -1.31311e-20)
(-0.00568414 -0.0945514 0)
(-0.00182655 0.00204176 1.61629e-20)
(-0.00106445 0.00137211 3.28986e-22)
(-0.00165112 0.00167156 -1.84815e-20)
(-0.00155543 -0.00444826 8.01547e-21)
(-0.011679 -0.0205629 2.73455e-20)
(-0.0011697 -0.0349598 0)
(-0.00034914 0.000550412 -7.35832e-21)
(0.0150908 -0.011787 0)
(-0.000863628 0.000646072 1.21024e-20)
(-0.0119556 -0.0109426 -4.8263e-21)
(-0.0555235 -0.0296335 0)
(0.0244431 -0.0244193 2.40898e-20)
(0.000164282 0.000196761 0)
(-0.000144321 -0.000412722 1.28018e-20)
(-0.0163493 -0.0218422 9.47185e-21)
(-0.000162395 -8.71126e-05 2.66033e-22)
(0.0548143 0.0268011 0)
(0.0853782 -0.0132571 0)
(-5.26962e-05 -0.000580045 -4.03363e-20)
(-0.000280885 0.000482084 0)
(-0.000438392 -0.00101309 0)
(0.0163896 -0.0161745 -3.99771e-20)
(0.005698 -0.0196341 2.45253e-20)
(0.00395913 0.00749325 3.6453e-20)
(-0.000712605 -0.0103375 -1.02154e-20)
(-0.0155941 -0.0186901 0)
(0.000145573 0.000209979 -8.30322e-22)
(-0.0114805 -0.0106401 0)
(0.0820612 -0.00591117 0)
(-1.35241e-05 7.73244e-07 -4.62008e-21)
(0.337936 -0.45165 9.66812e-19)
(-0.00916794 0.0101012 -2.41237e-20)
(-0.000943098 -0.00215662 -2.77248e-21)
(-4.19595e-05 -0.000632494 1.74446e-20)
(-0.00310996 0.000662634 1.04034e-21)
(-5.39871e-05 -0.000632329 -1.41132e-20)
(-0.00291754 -0.0133783 0)
(-5.66848e-05 -6.52458e-05 1.35564e-20)
(-1.26162e-06 3.63507e-05 -2.1341e-20)
(0.00936254 -0.00191554 3.39626e-20)
(0.00355681 0.0139084 7.19915e-20)
(-0.000218974 -5.5201e-05 0)
(0.0199684 -0.00941884 -6.35744e-20)
(-0.00019034 -5.69044e-05 0)
(-0.0379577 -0.00327075 -1.08749e-21)
(-0.000796846 0.00268785 0)
(-0.000254193 0.000644606 -8.56568e-22)
(-0.000748841 0.000277179 3.22803e-21)
(-0.000371651 0.000414342 0)
(0.00997705 -0.000670638 2.86794e-20)
(-0.000247472 -2.29594e-05 0)
(-0.000254809 0.000527321 1.39824e-20)
(-0.00236726 -0.0132507 2.98923e-20)
(-0.00142514 0.0016383 1.77236e-20)
(0.026543 -0.0232423 1.09184e-20)
(0.00896765 0.000623743 -2.32076e-20)
(0.000149498 0.000194807 -1.37161e-20)
(0.0374242 0.0392317 0)
(-0.00369549 0.000181922 0)
(-0.00838104 0.00571153 -9.3792e-21)
(-1.74401e-05 -5.10709e-05 0)
(-0.000764355 -0.000808548 -2.97559e-20)
(-4.7857e-05 -0.000599722 -1.79298e-20)
(-3.60899e-05 -0.000496281 4.40722e-21)
(-0.00463816 -0.00484864 3.6614e-20)
(-0.000242899 -0.000211452 0)
(-0.000256759 0.00223278 -3.69365e-22)
(-0.0146764 -0.0108573 -8.48975e-20)
(-0.00247026 0.0090302 0)
(0.00414206 -0.014277 -4.13423e-22)
(0.0181499 -0.0288483 3.71663e-20)
(0.000153848 0.00442156 4.38309e-20)
(0.00381089 0.0175499 -4.47298e-20)
(-0.000414413 0.0163933 1.10304e-19)
(-0.00833561 0.00164481 3.29137e-20)
(-9.8345e-05 1.05164e-05 -3.89509e-22)
(-0.0358273 -0.00381703 -1.31641e-20)
(-0.0451457 -0.047581 0)
(-0.000483697 -0.000965961 2.91941e-21)
(0.0551342 -0.0675586 0)
(-0.000666637 0.00107451 -9.97953e-21)
(-0.00126588 3.03602e-05 -4.75941e-21)
(0.0206982 0.00141914 -1.02984e-19)
(-0.000445885 -0.0010484 -6.06245e-21)
(-0.000371581 -0.000650194 -9.4061e-22)
(0.0475186 -0.00290068 0)
(-0.00719633 0.00505941 1.39377e-22)
(-0.00136311 0.000878018 0)
(-0.00107778 0.000495959 -2.3347e-20)
(-0.000222827 0.000487452 -1.31467e-22)
(-0.000745976 0.00120253 0)
(-0.000404051 -4.70099e-05 0)
(-0.000705264 0.000931289 1.76609e-20)
(-0.033583 -0.00496507 7.95392e-23)
(-0.0232272 -0.00335824 -1.91628e-20)
(-0.00171338 -1.59011e-05 1.64622e-21)
(-0.00182123 0.00279666 -2.7917e-20)
(0.0134019 -0.0122553 0)
(-0.00132915 0.000418224 -5.53805e-21)
(-0.000922007 0.00123326 1.31314e-20)
(-0.00122429 0.00112096 0)
(-0.100043 0.0870483 -7.56266e-18)
(-0.00105134 0.000784321 -1.26973e-20)
(-0.000286457 -3.31896e-05 -1.7523e-21)
(-0.202506 0.0800693 -4.83324e-20)
(-0.0366784 0.00315598 -1.98543e-20)
(-0.000131646 0.000404897 9.81748e-21)
(0.00222332 0.00389199 -7.79759e-20)
(-0.000372645 -0.000566083 1.39207e-21)
(-0.00112888 0.000630604 2.53671e-20)
(0.000629896 0.0286259 -1.51363e-19)
(-0.0353556 -0.00563492 1.29826e-20)
(-0.0478799 -0.0169568 3.72123e-22)
(6.07411e-05 4.9738e-06 -3.85749e-21)
(-0.000908385 0.000328252 4.443e-21)
(0.00259389 0.0171716 0)
(-0.00106495 0.000958111 2.27036e-20)
(0.0132113 -0.000205165 7.87673e-20)
(-0.00269748 -0.00154012 4.28223e-20)
(-0.000329099 -0.000268208 0)
(-0.000332242 -0.00050914 0)
(0.0181969 0.00365728 0)
(-0.000361754 -0.000599287 -7.74592e-21)
(6.29962e-05 0.00698582 0)
(3.70378e-05 2.9865e-05 -4.91158e-21)
(0.0201143 -0.155309 0)
(0.0376221 -0.0520786 1.36219e-20)
(-0.021713 0.0173273 -5.9536e-20)
(-0.0103296 -0.019252 2.70765e-20)
(-0.000321441 -0.000106141 -2.08247e-21)
(-0.0280146 -0.046313 3.05002e-19)
(-0.000730526 0.00114635 5.15384e-22)
(-0.0093433 -0.0101211 6.14443e-20)
(0.0497356 -0.00206467 0)
(0.000205317 0.000314785 1.3996e-22)
(-9.41615e-06 -1.79752e-07 0)
(0.0220074 -0.0248582 8.93689e-21)
(-0.000760984 -0.00624956 2.12971e-20)
(-0.00438769 -0.0393613 0)
(-0.00105886 0.00917432 -1.40002e-20)
(-0.000263807 -4.73028e-05 -1.99883e-21)
(-0.0411435 0.0238137 2.96152e-20)
(-0.000325906 -0.000372744 9.84132e-21)
(-0.00743683 -0.0258652 2.71197e-20)
(-0.000503358 -0.000594267 1.58307e-20)
(-0.0014644 0.00110229 0)
(-0.000245963 0.000674947 -3.23506e-21)
(0.00720825 0.163573 1.63835e-20)
(-0.000169283 -0.000107074 -7.21872e-21)
(-0.0106098 0.00397813 7.91749e-21)
(-0.0452851 -0.00233379 6.00245e-20)
(-0.0453957 0.0247453 -5.9341e-20)
(-0.000253807 -0.000265267 0)
(-0.00232464 -0.00327413 -8.60435e-21)
(-0.000298751 -8.83764e-05 -2.6141e-21)
(-0.00107035 0.00233796 -4.07071e-23)
(0.00982339 0.187254 -4.06897e-20)
(0.00322537 0.00102759 0)
(0.0217377 0.00135406 3.23678e-20)
(0.000141448 0.00015526 1.24991e-20)
(0.0320782 0.0191007 -1.9171e-19)
(0.0209592 0.00129056 3.13596e-20)
(-0.000302352 -0.000437605 0)
(0.000213995 -0.0080841 0)
(-0.000267085 -7.69067e-05 4.62395e-21)
(-0.379816 0.261487 0)
(-0.0109471 -0.015889 0)
(-0.00161993 0.00250129 2.22894e-20)
(-0.0396617 0.0238041 6.3176e-20)
(-4.63182e-05 -0.000652088 -7.00755e-21)
(-0.0248896 -0.0409618 0)
(0.030439 -0.00674313 -2.07749e-20)
(-0.000899948 -0.0125266 8.36729e-21)
(-0.00016496 -7.93932e-05 2.50436e-22)
(1.67384e-05 -0.000466463 -6.00043e-21)
(-0.000398775 -0.000648055 5.34036e-21)
(-0.00163541 0.00101694 2.89299e-21)
(6.29036e-05 5.0458e-06 -4.02258e-21)
(-0.00134807 0.00113134 -9.96578e-21)
(-0.000685222 0.000327763 0)
(6.82439e-05 0.00040826 -7.27346e-21)
(-0.0219541 -0.00447993 3.75671e-20)
(-0.000457522 -1.14767e-06 0)
(-0.0118569 0.00458329 -2.0307e-20)
(4.39109e-06 2.69213e-05 -1.43364e-22)
(-0.000356491 -0.000216703 0)
(-0.0273702 -0.00338464 -7.53758e-20)
(-0.00913877 0.0100841 3.43119e-20)
(-0.00770813 -0.0305439 0)
(-0.000452228 2.13231e-05 4.00816e-21)
(-0.0321251 0.0218129 0)
(-0.00030615 -0.000341787 2.73652e-22)
(-0.00110595 0.000504364 -2.70022e-20)
(-0.000255406 -5.97647e-05 -2.29767e-21)
(-0.000238996 0.000742273 -1.43381e-20)
(-0.0420096 -0.0239488 1.68957e-19)
(0.00599594 -0.0245977 -1.30506e-20)
(-0.000457525 -0.000387833 -5.73067e-23)
(-0.000162307 7.0698e-05 -2.85087e-21)
(-0.00272897 -0.00721397 2.28843e-20)
(2.03946e-05 0.00024325 -1.46976e-20)
(0.000294936 0.0019919 -1.44159e-20)
(-0.0176627 -0.0198095 -3.43278e-20)
(-0.000125237 -8.36684e-05 0)
(-7.78848e-06 -0.000381881 0)
(1.07078e-05 0.000273302 8.16982e-21)
(-0.000113825 -7.08748e-05 2.57643e-21)
(-0.00106784 0.00167082 0)
(-0.00024908 -3.80271e-06 1.822e-21)
(0.0125414 0.012854 -3.32282e-20)
(0.000747603 0.00360888 -3.53397e-20)
(-0.000343237 -0.000156923 0)
(0.00645047 -0.0242299 -8.42899e-21)
(0.000284467 -0.000155232 0)
(-0.00746058 -0.00302909 3.87681e-20)
(0.00220324 -0.0347316 -2.96448e-19)
(-0.00106255 -0.0024844 5.29991e-21)
(-0.000219049 -0.000504702 -8.45016e-22)
(-0.0011598 0.000397922 3.91869e-20)
(0.000145505 0.0149705 0)
(-0.00022797 -0.00014152 -9.4298e-22)
(0.00409627 0.00983739 -3.20204e-20)
(6.83615e-05 1.91912e-05 0)
(-6.89216e-06 5.40998e-05 1.07745e-20)
(0.0280925 -0.00628293 5.97843e-21)
(-0.0397236 0.00261466 6.77066e-21)
(-0.000879743 0.000300774 1.65364e-21)
(-6.46365e-05 -0.000512676 0)
(-0.000879703 0.000612595 -1.22406e-20)
(-0.000164866 6.79585e-05 3.87988e-21)
(-0.000980585 0.00240862 0)
(-0.0281037 -0.00394968 8.32134e-20)
(0.0378665 -0.00974321 -1.82894e-20)
(-0.0116074 -0.0170272 -7.95481e-20)
(0.00455078 -0.0106643 -2.02586e-21)
(-0.0074252 -0.0185949 6.159e-22)
(-0.000807408 0.000563648 -1.41392e-20)
(-0.00275141 -0.00649169 1.39498e-20)
(-3.02109e-05 -0.00549821 0)
(0.00506818 0.00100499 4.79234e-21)
(-0.00246455 0.00579731 0)
(0.00726861 -0.00945645 5.80391e-20)
(-0.000265829 -4.45193e-05 3.87002e-21)
(-0.000175325 -0.000372656 -6.32793e-21)
(-0.00873912 -0.00372175 0)
(-0.000263148 -0.000186016 2.95373e-22)
(-6.98206e-05 0.000321017 0)
(0.0175837 0.00403105 -4.21537e-20)
(0.000157173 0.000514171 -1.32028e-20)
(-0.0179513 -0.0056981 4.40587e-21)
(-0.00199745 0.00286755 -8.82354e-21)
(1.82281e-05 5.42811e-05 -6.64641e-22)
(-4.38789e-05 0.00032639 0)
(-3.84764e-05 -0.000625299 -4.70833e-21)
(-0.0175724 0.110053 0)
(0.00693307 -0.00894533 1.68989e-19)
(-0.00151107 0.00506821 1.59162e-20)
(-0.000417066 -1.6529e-05 4.66557e-21)
(-0.00051468 -0.000514192 2.61796e-21)
(-0.000171007 -0.000146366 2.6457e-21)
(0.000493168 -0.00485387 3.76817e-20)
(0.00613302 -0.00283768 0)
(0.00214666 -0.00341487 -1.18635e-20)
(-0.0188846 0.00473281 0)
(1.04441e-05 -0.000371409 -2.83341e-21)
(-0.000242723 -0.000242344 2.18766e-21)
(0.000443091 0.00154166 0)
(-0.000334002 -4.96284e-05 -4.71108e-21)
(-0.000166317 3.52772e-05 0)
(-0.00566367 -0.094172 3.80846e-20)
(0.000118489 -0.00078338 0)
(0.00506243 -0.00566965 1.88807e-19)
(-0.0565077 0.0293438 5.71621e-20)
(0.00396244 0.00843392 0)
(0.000141322 -0.00138412 2.95255e-20)
(0.000117735 0.000111862 5.81632e-21)
(-1.82318e-05 3.5473e-05 1.17449e-21)
(0.00205769 0.0160744 0)
(-0.00017213 -0.000153395 1.32063e-20)
(-0.0380004 -0.00386598 -3.69428e-20)
(-0.00104283 0.00587736 -1.16925e-20)
(-0.000516986 0.00133286 2.82725e-21)
(-0.00616673 0.0666536 0)
(0.0041141 0.00394247 0)
(0.00933964 0.00353973 0)
(-0.000148281 9.99569e-05 0)
(0.0191756 0.00286162 0)
(-5.83313e-05 -0.00057383 -9.93956e-21)
(-0.03093 0.00315854 -5.0959e-20)
(-0.00340189 -0.00601071 0)
(0.0432364 -0.0131813 5.97086e-20)
(-0.00256576 -0.0269712 -1.00774e-20)
(0.037082 -0.0409205 2.47431e-20)
(-0.00245162 -0.00297694 3.04762e-20)
(-2.96787e-06 3.70917e-05 7.06335e-21)
(-0.0024514 -0.00060434 0)
(0.00215365 0.00368982 -1.7663e-20)
(-0.000100242 -0.000119093 5.80687e-21)
(0.0304617 -0.00862035 4.55442e-20)
(-0.0335419 0.0169548 0)
(-0.0023044 0.00182624 0)
(-0.00151723 0.00116145 0)
(-0.000155118 3.15822e-05 0)
(-0.0147096 -0.0191528 -3.89673e-20)
(-0.0005471 -0.000939415 -6.16955e-21)
(-0.000227113 0.000204051 4.07702e-21)
(-0.0467157 -0.0408087 -2.5535e-20)
(-0.000447788 -0.00104563 -5.38791e-21)
(-0.0115603 -0.0192561 7.09579e-20)
(0.0421343 -0.0385691 -7.90088e-21)
(-0.00014826 0.000169257 0)
(0.0163391 -0.022796 4.0259e-20)
(9.23355e-06 -0.000383261 0)
(-0.000167702 -0.000415711 1.7285e-20)
(0.00829323 0.0143544 -1.6109e-19)
(0.00245866 0.00631431 0)
(3.51965e-06 8.93549e-06 2.42833e-21)
(-0.0201604 0.00727883 -1.91523e-20)
(-5.01778e-05 -0.000588199 -8.94984e-21)
(-0.00321518 -0.00540206 0)
(0.00322588 -0.0369905 -1.04528e-18)
(0.0201263 0.00152283 5.02558e-20)
(0.0448671 -0.00253142 0)
(-0.0256002 -0.00411759 0)
(-0.00305047 -0.0130217 6.06528e-20)
(-0.00576627 0.00672765 -1.10647e-20)
(0.00250014 0.0121321 0)
(2.95131e-06 -0.000739636 -7.76862e-21)
(-0.00240277 -0.0063474 1.64644e-20)
(-0.114404 0.0365237 1.5796e-20)
(-0.0445575 -0.00323823 0)
(-0.00195334 0.00658847 8.77365e-21)
(-0.0004141 -0.00138417 8.91013e-21)
(0.02855 -0.00607428 -1.88333e-20)
(0.0211985 -0.0161195 1.42945e-21)
(0.0257267 -0.00962217 -5.89311e-20)
(-0.0303098 -0.0157775 7.79947e-20)
(0.0331766 -0.0671494 1.80902e-20)
(-0.000645638 -0.000286772 -2.60617e-21)
(-0.000239677 -0.000128298 0)
(0.0247098 0.180204 4.06383e-20)
(-0.000279699 4.72978e-05 -9.50469e-22)
(-0.0393336 0.000925669 3.07668e-20)
(0.000446487 -0.00817584 -3.57924e-20)
(-0.000965148 0.00139378 -1.42324e-21)
(-0.0244374 -0.0409906 -1.97579e-20)
(-0.00668656 0.00366414 -2.19213e-20)
(0.000478603 0.00109287 2.71523e-21)
(-0.000665033 -0.00150834 -1.26952e-20)
(-0.000164642 0.00020466 2.47645e-21)
(-8.16407e-06 4.62279e-05 -1.49847e-20)
(-0.000456818 -0.000444567 4.91609e-22)
(-0.032196 -0.014027 0)
(0.00296418 -0.00224745 1.70876e-20)
(-8.12273e-05 -4.16664e-06 1.07253e-22)
(-0.0346605 -0.00441554 -4.02745e-20)
(-0.000148975 3.41394e-05 -4.17852e-22)
(-0.0422433 -0.1286 -7.62222e-22)
(0.00280403 0.00153706 3.63299e-20)
(0.0283101 -0.0148912 3.25861e-20)
(-0.000842461 0.000996489 4.46928e-21)
(0.0473648 -0.0130554 -7.2574e-20)
(-0.000623507 0.00108154 3.48078e-22)
(5.3319e-05 7.47296e-06 -2.31613e-21)
(-0.00121456 0.000900755 0)
(-0.0399476 0.00196687 -6.16311e-21)
(-0.00417814 0.00506116 4.95502e-20)
(-8.47571e-05 1.70243e-06 2.05741e-23)
(-0.000147149 -0.000442686 1.04192e-22)
(1.29364e-05 4.2376e-05 -2.81533e-21)
(0.000429375 -0.00813505 -1.87966e-21)
(-7.4639e-05 -0.000295379 1.23765e-20)
(0.0119616 0.000590196 6.40395e-20)
(0.0919712 0.0451219 9.24145e-20)
(0.0555444 -0.016802 0)
(0.0228232 0.000802335 0)
(0.000386311 0.000926333 1.93499e-20)
(0.00254344 -0.0173967 0)
(-0.0190612 -0.0203304 -3.16717e-20)
(-0.00018359 2.28313e-05 -1.99493e-21)
(-0.0011083 0.00123587 -2.32193e-20)
(-0.000193087 -0.000254325 0)
(-0.000423663 -0.00105114 0)
(0.0107999 0.002024 -1.3706e-19)
(-5.78581e-05 -0.000532995 0)
(-0.000149142 0.000237586 0)
(0.000144634 -0.00193699 1.63452e-20)
(0.0464828 0.120231 6.63506e-20)
(-0.000641676 0.000188369 -1.39496e-20)
(-0.0179447 -0.00649897 0)
(0.0204496 -0.0224203 5.96915e-20)
(-0.0156236 -0.00336215 2.681e-21)
(0.00270071 -0.00144222 0)
(-0.000262879 -0.00016533 -2.78676e-22)
(-0.000130915 -0.00040225 9.02553e-21)
(0.0193067 -0.0670438 0)
(3.74066e-06 2.39161e-05 -2.50583e-21)
(-0.000773566 -0.00198302 -1.8896e-21)
(0.000173233 0.00200373 1.39654e-20)
(-6.72668e-05 -0.000276739 0)
(-4.66994e-06 0.000301757 2.4354e-21)
(-0.000135976 -0.000406351 1.81996e-20)
(0.00746766 0.0015041 0)
(-0.0488484 0.0204651 1.28033e-19)
(-0.000320593 -0.000414908 6.73583e-21)
(-0.00153029 -0.000710003 -9.42286e-21)
(-0.0161723 0.0242133 0)
(-0.0326086 0.031747 -2.15334e-20)
(0.000143723 0.000285574 -6.71943e-21)
(-0.000348664 0.000276431 0)
(5.8897e-05 7.21047e-06 -3.62587e-21)
(-0.000753291 -0.00209206 0)
(0.0541327 -0.0169767 -8.15679e-21)