/*--------------------------------*- C++ -*----------------------------------*\
| =========                 |                                                 |
| \\      /  F ield         | OpenFOAM: The Open Source CFD Toolbox           |
|  \\    /   O peration     | Version:  v2012                                 |
|   \\  /    A nd           | Website:  www.openfoam.com                      |
|    \\/     M anipulation  |                                                 |
\*---------------------------------------------------------------------------*/
FoamFile
{
    version     2.0;
    format      ascii;
    class       volScalarField;
    location    "150";
    object      k_0;
}
// * * * * * * * * * * * * * * * * * * * * * * * * * * * * * * * * * * * * * //

dimensions      [0 2 -2 0 0 0 0];


internalField   nonuniform List<scalar> 
18598
(
0.000174995
0.000210537
0.000149946
0.000168737
0.000145887
0.000164917
0.000165198
0.000148989
0.000215924
0.0275726
0.000147751
0.0188457
0.000144622
0.0178501
0.000148808
0.000178166
0.0467345
0.000164303
0.000151959
0.0768544
0.000147964
0.0001467
0.0775977
0.000146978
0.000145272
0.0457986
0.000224595
0.00014786
0.000222756
0.000174682
0.00453086
0.000149039
0.000150682
0.000179692
0.00016493
0.000200664
0.00014555
0.000147747
0.000145863
0.0342066
0.000190369
0.000193168
0.000186105
0.0171353
0.000153513
0.000149476
0.000145341
6.51479e-05
0.000146173
0.000145273
0.00014635
0.000906195
0.000183471
0.000193824
0.000146712
0.000146613
0.000147764
0.000148824
0.000145724
0.000160246
0.019534
0.000209803
0.000147885
0.000146904
0.000202303
0.00169539
0.000145692
0.000151556
0.000242654
0.000144872
0.000157369
0.000163589
0.000124571
0.000182609
0.0001484
0.000188801
0.000148572
0.000146598
0.000165834
0.000157309
0.081449
0.000149654
0.00014806
0.0442271
0.000150552
0.00622193
0.000144852
0.0296213
0.000147618
0.000157483
0.000153621
0.000193061
0.000153237
0.00016762
0.0153706
0.000147496
0.0489478
0.000147543
0.07975
0.000180644
0.000147651
0.000148757
0.000158137
0.00016781
0.000165202
0.000151811
0.000181726
0.0214263
0.000147812
0.000200894
0.000158476
0.0221456
0.000148662
0.000157992
0.000192619
0.000149616
0.0819809
0.000159885
0.000160363
0.000145586
0.0232444
0.000146999
0.000147769
0.000158686
0.0537162
0.000153964
0.00015435
0.00017412
0.000203193
0.000145538
0.000145
0.000166496
0.0656934
0.000153222
0.000239909
0.000146441
0.000172619
0.000147837
0.000145335
0.000166347
0.000225015
0.000147221
0.000147709
0.0220249
0.000147223
0.000151036
0.000267305
0.000191177
0.000147426
0.000157796
0.00015174
0.000160818
0.000147248
0.0376226
0.00014747
0.000147238
0.0371716
0.00015412
0.000144585
0.000157079
0.00017597
0.000167788
0.000146331
0.000145431
0.000145588
0.0391497
0.000215552
0.000149069
0.000165805
0.000172611
0.000148359
0.000162245
0.028478
0.000184514
0.000155534
0.000146621
0.0244339
0.000149728
0.000157299
0.0503453
0.000176908
0.000177964
0.000166103
0.000150566
0.0223573
0.000157494
0.0255081
0.0558869
0.000147953
0.000185577
0.000150673
0.000146901
0.000166555
0.036838
0.00015852
0.000146224
0.0809232
0.0184819
0.000175305
0.000186732
0.0327384
0.000146575
0.000162169
0.000149888
0.000153076
0.0658891
0.000220265
0.00014729
0.00015403
0.000152825
0.000175465
0.0451019
0.000145898
0.000173977
0.000183465
0.00015976
0.000182915
0.0001479
0.000148764
0.000168242
0.000144258
0.000147469
0.000151032
0.00014801
0.000163127
0.00014784
0.000147748
0.000147318
0.020076
0.000145368
0.0619001
0.0434006
0.000147525
0.000148018
0.000202706
0.0777465
0.000150346
0.000157576
0.000146827
0.000153369
0.000154323
0.000175286
0.0184046
0.00014552
0.000167093
0.000150279
0.000162326
0.000147201
0.000160382
0.000146301
0.0358309
0.000206874
0.0302795
0.070221
0.000166394
0.0804958
0.000159818
0.0113911
0.000147945
0.0431475
0.000157168
0.000171806
0.00680081
0.0078641
0.000261856
0.000149637
0.000144255
0.0187529
0.000187563
0.000154982
0.00014576
0.000149084
0.000172693
0.000146871
0.00715163
0.0711595
0.0344146
0.0472526
0.000187822
0.000172252
0.000174749
0.0494099
0.000151692
0.00776253
0.0553544
0.000157166
0.000186727
0.00017713
0.000146264
0.0249664
0.000177601
0.000107001
0.0253855
0.000117984
0.00128055
0.000163931
0.000145501
0.000213315
0.000160145
0.000174859
0.0809974
0.0262886
0.000162052
0.052767
0.000155198
0.000182409
0.0562946
0.000157884
0.0216479
0.000195134
0.0141372
0.000153637
0.000217648
0.0259105
0.000174521
0.000172117
0.000176452
0.000153798
0.000147966
0.00683639
0.000151306
0.0703049
0.000148292
0.000152713
0.000150933
0.0497666
0.000148605
0.000168122
0.000159188
0.00015018
0.000154662
0.000151571
0.019025
0.0449561
0.000145709
0.000168512
0.000150888
0.0212991
0.000187399
0.000152432
0.000172288
0.000206721
0.000180028
0.0373263
0.000148656
0.026032
0.0478377
0.0318966
9.46385e-05
0.0469451
0.000152224
0.000160617
0.000162734
0.000168463
0.000188355
0.000147814
0.000163408
0.0370276
0.000176673
0.000146228
0.000147815
0.041621
0.000148353
0.000145733
0.000144766
0.000146605
0.0123249
0.0287418
0.000173657
0.0279882
0.000174083
0.000204226
0.000153516
0.0359104
0.00014877
2.26898e-05
0.0400589
0.000150897
0.000147709
0.0348122
0.0761565
0.000148289
0.000162921
0.000177394
0.000157043
0.0039836
0.000147564
0.000149783
0.000144309
0.000157404
0.000211266
0.00015421
0.000146808
0.000148623
0.0207562
0.000148479
0.000153254
0.000147839
0.000200013
0.000150977
0.000156939
0.000147762
0.000146228
0.000149737
0.0313498
0.0446953
0.00259657
0.0596881
0.0428083
0.000166086
0.000148257
0.0272438
0.000148077
0.000154068
0.000178238
0.000160275
0.000166149
0.000156099
0.00976027
0.00015714
0.000149771
0.000147183
0.000148448
0.000278142
0.000154427
0.000155217
0.000154695
0.000150668
0.000166878
0.0067521
0.000146728
0.000235651
0.000149632
0.000199246
0.000168003
0.00645341
0.000145212
0.000148314
0.000172501
0.000146842
0.0218173
0.0182357
0.000149003
0.00014823
0.000148534
0.00503164
0.0331921
0.045612
0.000155531
0.000257231
0.000145199
0.0496701
0.0164268
0.000149824
0.000531786
0.000155568
0.000150859
0.000148305
0.000154216
0.000148278
0.000217157
0.000149046
0.000149734
0.032255
0.000185191
0.000147575
0.000164999
0.000147795
0.0289609
0.000154383
0.000147333
0.000147884
0.000146271
0.0517844
0.000147181
0.000146315
0.000171008
0.000154959
0.0130749
0.000177467
0.000145079
0.00609571
0.00018498
0.000168785
0.000149051
0.000151599
0.000148775
0.000148782
0.000158282
0.000147423
0.000151645
0.000187446
0.000159814
0.00017822
0.00483093
0.00015334
0.000177484
0.00018042
0.0804274
0.000146676
0.0697733
0.000174401
0.00014862
0.0299832
0.000151685
0.000147864
0.037401
0.000148868
0.000147981
0.0214353
0.000168886
0.000154204
0.000151934
0.000146237
0.000157733
0.000147085
0.000149769
0.0391976
0.0249018
0.000149358
0.000149578
0.0455538
0.000154522
0.00014983
0.000154156
0.000333392
0.000150737
0.000147133
0.000419232
0.0447336
0.000145905
0.000186177
0.00014793
0.000151852
0.000201451
0.0681071
9.15172e-05
0.000147254
0.000147859
0.000434734
0.000150891
0.000233487
0.000151767
0.000146927
0.000148458
0.0455825
0.000148488
0.000191835
0.000145036
0.000188386
0.0305641
0.0287412
0.00020958
0.000147457
0.000343597
0.000150499
0.0470999
0.0186955
0.000146165
0.000149774
0.00910367
0.000180309
0.000157077
0.000156962
0.000146265
0.0859424
0.000147722
0.00556149
0.000148661
0.000154796
0.000147267
0.000177021
0.000147779
0.000173402
0.0309523
0.0841407
0.000147271
0.000170581
0.000147273
0.000154492
0.000179013
0.000191231
0.0313342
0.000145036
0.0427841
0.0355455
0.000146731
0.000209823
0.000147755
0.00220295
0.000213503
0.000151506
0.0863616
0.000148305
0.000169438
0.0363819
0.000171933
0.000146278
0.000148946
0.000148731
0.000153836
0.00014663
0.000156492
0.000148884
0.00014738
0.0295825
0.000146719
0.000173909
0.000149819
0.00014675
0.0257217
0.0531222
0.000379904
0.000146689
0.0872075
0.000146844
0.000153627
0.000146243
0.000150758
0.00482796
0.0303104
0.000147336
0.000145778
0.00017936
0.000145143
0.000151144
0.000196853
0.000147857
0.000149076
0.000145202
0.000147844
0.000154277
0.000147283
0.000214311
0.000151654
0.000147506
0.000163042
0.00015047
0.0217861
0.000254471
0.000150651
0.000148304
0.000153458
0.000167869
0.0001471
0.000164667
0.000144314
0.000149799
0.0351961
0.0707358
0.000148032
0.00014867
0.000150805
0.000145889
0.00015442
0.0290342
0.0411859
0.000205077
0.000155522
0.000185359
0.000149464
0.00017507
0.000157162
0.000183343
0.000159757
0.0410351
0.000147149
0.00014804
0.024757
0.000146998
0.000145481
0.0512827
0.000147278
0.033973
0.000151661
0.000149634
0.000145476
0.000148279
0.000179987
0.0722952
0.000173356
0.000146731
0.000150328
0.000147789
0.000167067
0.0324056
0.00015134
0.000196855
0.000149022
0.000147491
0.000150872
0.00014843
0.000145834
0.000162635
0.000148446
0.000253325
0.0216985
0.000178543
0.000149165
0.000144877
0.000149838
0.000175348
0.000147809
0.0333037
0.000157481
0.000151758
0.000167429
0.000178329
0.0283557
0.000145637
0.042207
0.000148662
0.0350915
0.000152396
0.0197298
0.00016251
0.020981
0.000158476
0.000149763
0.000162492
0.000158432
0.000147865
0.0403154
0.0798927
0.000160083
0.000152392
0.000145849
0.00020196
0.0001489
0.000145736
0.000189128
0.000150443
0.000205706
0.0223268
0.000145684
0.000207932
0.000148976
0.000148115
0.000194838
0.000175151
0.000149778
0.000190424
0.000148707
0.0001743
0.000183089
0.0423391
0.0213029
0.0291865
0.0546789
0.00016783
0.000187644
0.000148503
0.000161905
0.000237981
0.0186389
0.000155912
0.000173344
0.0347938
0.0477871
0.0637525
0.00026249
0.033738
0.000148
0.000147492
0.000168236
0.000147041
0.0307684
0.000165155
0.000150228
0.000181835
0.000167297
0.000151302
0.000150838
0.000145697
0.000149789
0.000146865
0.000192373
0.000155188
0.000146714
0.0384602
0.000147752
0.000165217
0.000172993
0.00692143
0.000149971
0.0217546
0.000150253
0.000146761
0.0001522
0.0664264
0.000166779
0.000146763
0.000148139
0.000149794
0.000170971
0.000147981
0.0605162
0.000176555
0.0348259
0.0209612
0.000150609
0.000184978
0.000228224
0.000147505
0.000151952
0.000147306
0.000148599
0.065312
0.000148689
0.000145417
0.000153891
0.000168496
0.000149652
0.0369908
0.00774301
0.000159594
0.00015532
0.000146487
0.000147755
0.000250195
0.000149827
0.000150348
0.000151572
0.000148002
0.000145249
0.000148075
0.0712079
0.0794651
0.000148531
0.000150275
0.000193434
0.012193
0.000144928
0.000146232
0.000148295
0.00015824
0.0354301
0.000219604
0.000174144
0.0374674
0.000147911
0.000164682
0.000148077
0.000160689
0.000153009
0.000258551
0.00956445
0.000147865
0.0272504
0.00014717
0.000150864
0.000157092
0.000147459
0.000146565
0.000165105
0.0001732
0.000146628
0.000176825
0.0530209
0.000203495
0.000212703
0.000176487
0.000148205
0.000147879
0.000145976
0.00014806
0.0750952
0.0185895
0.000177141
0.000153387
0.000148054
0.000205399
0.000148647
0.0235048
0.000148044
0.000146459
0.000218779
0.000145598
0.000161348
0.000187541
0.000147636
0.000149737
0.000147256
0.000155008
0.00019478
0.0824013
0.0289678
0.000146161
0.000154192
0.000148107
0.00428311
0.000178711
0.000146311
0.000153555
0.000148392
0.000154006
0.000179949
0.000147173
0.0327321
0.00018407
0.000149775
0.0214442
0.000188967
0.000147652
0.0549237
0.000148626
0.00014532
0.0357249
0.000440205
0.000154484
0.00017471
0.000146219
0.000271048
0.00014901
0.000146078
0.000151022
0.000144687
0.000155075
0.000146662
0.000158499
0.000147195
0.000169477
0.000188038
0.000184699
0.000147707
0.00679555
0.000173075
0.000185557
0.0001487
0.000149488
0.000211193
0.000147137
0.000146256
0.000166659
0.000191004
0.000145045
0.000153916
0.000147698
0.000169634
0.051651
0.000148302
0.000145685
0.000145635
0.000177803
0.000147081
0.000149577
0.000149547
0.000186432
0.000146983
0.000146772
0.000146697
0.000169867
0.000150648
0.000148114
0.000268508
0.000147977
0.0245525
0.000151833
0.000147747
0.0294303
0.000558719
0.000176174
0.085154
0.00014579
0.0267287
0.000145895
0.0200385
0.000165511
0.000148255
0.000151711
0.00111005
0.000224318
0.000183683
0.000148684
0.0820791
0.000150758
0.000164938
0.00018288
0.000165107
0.000144861
0.000145147
0.000154931
0.000149567
0.000147881
0.000150179
0.000223717
0.000176844
0.000178571
9.8835e-05
0.000156953
0.0359709
0.0841386
0.000148971
0.0764199
0.000165258
0.000149479
0.000189638
0.0309983
0.0701342
0.0212795
0.000162841
0.000161092
0.000145481
0.000157363
0.000149647
0.000195665
0.000220242
0.000150648
0.000153318
0.000178121
0.00015094
0.00018717
0.00014823
0.000145838
0.000147899
0.000147299
0.000200691
0.0785364
0.0254948
0.000150679
0.000149647
0.000173389
0.000146155
0.000143926
0.0001485
0.000145454
0.0115113
0.000155694
0.000148534
0.000176818
0.000151381
0.0281681
0.0300304
0.000147065
0.000211694
0.000156123
0.000154204
0.000143963
0.000162958
0.000149129
0.0359479
0.0228116
0.000146823
0.0789271
0.000169077
0.000164399
0.0407973
0.000147467
0.000146316
0.000145732
0.000160035
0.000172785
0.000152067
0.00673673
0.000152925
0.000149269
0.000286805
0.000151253
0.000241715
0.000147938
0.000149734
0.0280986
0.000165624
0.000156757
0.0760905
0.000168595
0.000152024
0.0544568
0.000144798
0.0355852
0.000146908
0.0479007
0.000146553
0.0210332
0.000150684
0.0855171
0.000148079
0.0835624
0.000146747
0.0253179
0.000149517
0.000147223
0.000163873
0.000147903
0.000169146
0.000220761
0.000147395
0.0816719
0.000164521
0.0396264
0.000148477
0.00015511
0.000147128
0.000167
0.0252573
0.000147694
0.000241265
0.0636075
0.0568208
0.000145221
0.0436908
0.000150424
0.000147251
0.0001475
0.0389967
0.000170353
0.000145544
0.000242734
0.000261339
0.000148221
0.033767
0.0343038
0.000161861
0.0001501
0.000172703
0.0182749
0.000183931
0.00017394
0.000159993
0.000150138
0.000148749
0.000153575
0.000188457
0.00014972
0.000148069
0.000147525
0.000146577
0.000147735
0.000147928
0.0583306
0.0650666
0.000145646
0.0420731
0.000171744
0.000283544
0.000146734
0.00015534
0.000171114
0.000165335
0.000161454
0.000173393
0.000149899
0.00014771
0.000149301
0.000149158
0.000147503
0.000150359
0.000258317
0.000215132
0.00018817
0.000146753
0.00014938
0.000145864
0.00014909
0.000147696
0.0226907
0.000252181
0.0180467
0.000148223
0.000146845
0.000153285
0.0306253
0.000151082
0.054284
0.000147701
0.000227146
0.047861
0.000152023
0.000147372
0.000148437
0.000149263
0.000165736
0.000160556
0.000155113
0.000160034
0.000206766
0.000295173
0.000194457
0.000153609
0.000153477
0.000227897
0.000147704
0.000290539
0.0337253
0.000149814
0.000169912
0.000157243
0.000147851
0.000149092
0.000172356
0.000147416
0.000161268
0.000149601
0.0841749
0.000147749
0.000163253
0.000154708
0.0396568
0.00018101
0.0062644
0.000147113
0.000144092
0.000148786
0.080166
0.00014529
0.00014763
0.000158473
0.000160028
0.000176509
0.000184517
0.000189527
0.042824
0.000146194
0.000148934
0.000147111
0.000174307
0.000148062
0.000188854
0.000149715
0.000146214
0.000186674
0.000168335
0.000146414
0.000164022
0.000162855
0.000218807
0.000145534
0.00321227
0.000146149
0.0139985
0.000151181
0.0236151
0.000194034
0.000166993
0.00014655
0.000157407
0.0282761
0.000157624
0.000148683
0.000190785
0.0262969
0.0433071
0.000145601
0.04114
0.000187825
0.000147859
0.00018977
0.0257439
0.051295
0.000147257
0.000148303
0.000146692
0.000147505
0.000149978
0.000147724
0.00015345
0.000147731
0.000147856
0.00979569
0.000172783
0.000145818
0.00022556
0.000146897
0.000257257
0.000147798
0.000198627
0.000147707
0.000146676
0.000162682
0.000152118
0.0010776
0.000156883
0.000145792
0.000147123
0.0153128
0.00014983
0.000149695
0.00019309
0.0160303
0.0266019
0.000147109
0.000156336
0.000177728
0.000147265
0.000146996
0.000150076
0.000144733
0.000148283
0.00745326
0.00139265
0.000178704
0.000147944
0.000150578
0.000150483
0.000149889
0.0642301
0.000169514
0.000146389
0.000147088
0.0277541
0.00016696
0.000148089
0.000194071
0.000159208
7.44643e-05
0.000150926
0.000174517
0.000170344
0.000183819
0.0487463
0.000147057
0.00017832
0.000173203
0.000147483
0.00014645
0.000147745
0.000149442
0.00014794
0.0263756
0.000154842
0.00017218
0.0335452
0.0321897
0.000237055
0.00015359
0.000147883
0.000149129
0.000148691
0.000148007
0.000150457
0.000160748
0.000149893
0.000149435
0.000149831
0.0547879
0.0553247
0.000172218
0.000186361
0.000146682
0.000154411
0.0678781
0.000149731
0.000155863
0.0600718
0.00024264
0.000273376
0.000161263
0.000146117
0.000146322
0.0186009
0.000154767
0.000147791
0.000161576
0.000198966
0.000144729
0.00015428
0.000213973
0.000146946
0.0372732
0.000152811
0.0769576
0.000151468
0.000175583
0.000150459
0.000159791
0.000173557
0.000147333
0.000147317
0.000148666
0.000148492
0.000182743
0.000182575
0.0459509
0.000146306
0.000180711
0.000148893
0.00016062
0.000244812
0.000148441
0.0591937
0.000176485
0.000147982
0.000155084
0.000186223
0.00014934
0.000152285
0.000168614
0.000146644
0.000145188
0.0318066
0.000167618
0.000162443
0.000153324
0.000146334
0.00018836
0.000180189
0.000162965
0.000166146
0.000145102
0.000177645
0.039396
0.0275825
0.000155672
0.0321508
0.000147854
0.00020706
0.0661116
0.0001216
0.000150689
0.000149467
0.000147765
0.000147527
0.000217727
0.000177466
0.000180068
0.000146553
0.000183003
0.000144676
0.000147166
0.0522029
0.0208236
0.000241066
0.000148261
0.041729
0.000145178
0.00017111
0.000147543
0.000169632
0.000146024
0.000148259
0.0747426
0.000165466
0.000148775
0.00154858
0.000166559
0.0357117
0.000149599
0.0231686
0.000168933
0.000148499
0.000147037
0.000221254
0.000152539
0.000147273
0.000217839
0.000154845
0.000174696
0.0247176
0.000146854
0.000171229
0.000272715
0.000147906
0.000146169
0.00022496
0.000147524
0.000159291
0.0482956
0.000191736
0.000147919
0.0848175
0.000148082
0.000147706
0.00195312
0.000147618
0.000168555
0.000162226
0.000147503
0.000146599
0.000147232
0.00019288
0.000209117
0.000146569
0.000148584
0.000149774
0.000167104
0.000150071
0.0479534
0.000148878
0.000147474
0.000194838
0.000160414
0.000181577
0.000175618
0.000151558
0.000172807
0.000150152
0.000160313
0.000147273
0.000162966
0.000233584
0.000148554
0.00014892
0.0001477
0.000147521
0.0799898
0.0115092
0.000151286
0.000147144
0.00014831
0.000149459
0.000150979
0.0719766
0.00419388
0.000147335
0.000185566
0.000151112
0.000169606
0.000149223
0.000148033
0.000172368
0.000254623
0.000173844
0.000147939
0.000149702
0.000163972
0.000146334
0.0613721
0.0001459
0.000183501
0.000179276
0.000153591
0.000204996
0.000147683
0.000210592
0.000147029
0.000163381
0.000147973
0.000147992
0.000166633
0.000149789
0.000160551
0.000161819
0.0777146
0.07708
0.0720563
0.000146877
0.000147525
0.000149071
0.000156832
0.000155183
0.000153897
0.00014695
0.000147123
0.0297958
0.000147688
0.00016777
0.000161968
0.0667917
0.080773
0.000151002
0.000159729
0.0575911
0.000331084
0.0001469
0.0295048
0.0830053
0.000153467
0.0841327
0.000147384
0.000149434
0.000198832
0.000161545
0.000145822
0.0555939
0.00016255
0.00018868
0.000145443
0.0205818
0.000163069
0.000170299
0.0177117
0.000197382
0.000260156
0.00014893
0.000151036
0.000160012
0.000147264
0.000180695
0.000147174
0.00014729
0.0297351
0.000146158
0.00547116
0.00998768
0.000147547
0.000148823
0.000168869
0.0589169
0.000163832
0.000147974
0.000150939
0.000163183
0.000160218
0.0252404
0.000159144
0.000150959
0.0344178
0.0132879
0.000198684
0.000164331
0.000154564
0.0178991
0.0563409
0.000145522
0.0810276
0.0002632
0.0267907
0.000156088
0.000147949
0.000148925
0.000146874
0.000147487
0.000220899
0.000147774
0.000187577
0.000147923
0.000146065
0.000152541
0.000148349
0.0554949
0.000173829
0.000149213
0.000147889
0.0001458
0.000154747
0.000172169
0.000149062
0.000154852
0.00014685
0.000149872
0.000162585
0.00466173
0.000147197
0.0590674
0.000152623
0.0389365
0.000157058
0.0219208
0.000146288
0.000148284
0.000149959
0.000145225
0.0312925
0.000145088
0.000159888
0.00014982
0.0001708
0.000181661
0.000193645
0.000151426
0.000149259
0.00017702
0.000148674
0.000146308
0.000147359
0.000148805
0.00014795
0.00018279
0.000179402
0.000145555
0.000147846
0.000165907
0.000185819
0.000147141
0.000153714
0.00985046
0.00377903
0.000169135
0.000150001
0.000188157
0.000149865
0.000147008
0.000165411
0.000147355
0.0487946
0.000169646
0.000145905
0.000147107
0.000179805
0.0353847
0.000169063
0.000148279
0.000148307
0.000148958
0.0245054
0.000181118
0.000152114
0.000179543
0.000436339
0.000216648
0.000148923
0.000179297
0.0317661
0.0387973
0.0284749
0.000210859
0.000149049
0.0001489
0.0604609
0.0093927
0.000145367
0.000185292
0.0352467
0.0830997
0.000147458
0.0622172
0.000147794
0.000877222
0.000147299
0.000200998
0.000149003
0.000149026
0.0604619
0.000147229
0.000152382
0.00034018
0.00014776
0.000187802
0.000147696
0.000179361
0.000148322
0.0601936
0.000146028
0.000155336
0.000150205
0.0734266
0.0606088
0.000149831
0.000162221
0.0179501
0.000146063
0.00015248
0.0503306
0.000150689
0.000148745
0.000148135
0.000148554
0.000202976
0.000159653
0.000147402
0.000148301
0.000165599
0.000148278
0.0373304
0.000152838
0.000153802
0.000166825
0.000149787
0.000147952
0.000147648
0.000149559
0.000148279
0.000148491
0.0498673
0.0411006
0.0851113
0.000147008
0.0649164
0.000156626
0.00135319
0.0483537
0.0110512
0.000145503
0.000146532
0.000148123
0.000147091
0.0308859
0.000147659
0.000200992
0.000149623
0.000171597
0.00014592
0.000146527
0.0333187
0.000146542
0.000174472
0.024303
0.0280122
0.000147425
0.000152733
0.000154104
0.000197112
0.00015009
0.000168041
0.0013438
0.000153137
0.000422056
0.000146093
0.000168963
0.000147443
0.0384735
0.000156397
0.00017233
0.0439282
0.000156805
0.000148381
0.000154392
0.000149725
0.000147976
0.0411308
0.000156885
0.000153758
0.000149827
0.000148334
0.000166148
0.0213967
0.000165204
0.0606978
0.000589649
0.000164799
0.0186859
0.000149922
0.000148906
0.000146483
0.000146496
0.000153515
0.000192982
0.000144579
0.0430975
0.000165679
0.000190989
0.0458405
0.000244281
0.000169069
0.000603539
0.000149529
0.000189652
0.0414521
0.000159902
0.0334411
0.00026257
0.065549
0.000257481
0.0120378
0.000194265
0.000168387
0.000148283
0.000243766
0.000186571
0.000147465
0.00017381
0.000154494
0.000170683
0.0646939
0.000157259
0.000149019
0.000147381
0.000190671
0.0352031
0.000151661
0.000149383
0.000160041
8.54326e-05
0.00014724
0.000240088
0.000146909
0.00015583
0.000172512
0.000148631
0.000147547
0.000148858
0.0597656
0.000147071
0.0336066
0.000168981
0.000149034
0.000176313
0.000149355
0.000147482
9.8408e-05
0.0348456
0.000145629
0.000148705
0.000253098
0.000197302
0.0001488
0.000147881
0.000155149
0.000163973
0.0104052
0.000159337
0.000154947
0.000143848
0.0410476
0.0260312
0.000147867
0.000199946
0.00846878
0.000149628
0.0585199
0.0429814
0.0311585
0.000148426
0.000166489
0.000151482
0.000144919
0.000214164
0.00667809
0.000170971
0.000148226
0.0301156
0.000145078
0.000146836
0.00020097
0.000148195
0.000201257
0.000147472
0.000149658
0.0851584
0.00022944
0.000144128
0.000147412
0.000148184
0.00021672
0.0208867
0.00022246
0.000197547
0.00015299
0.000151124
0.000147296
0.000150978
0.0124267
0.0779644
0.00637623
0.000172199
0.000450312
0.000147639
0.000152562
0.000161921
0.000153836
0.000148849
0.000158218
0.000147452
0.000148717
0.00014767
0.000149173
0.000147293
0.0208879
0.0001513
0.000147361
0.000189309
0.000154671
0.000175286
0.000146818
0.000172977
0.000147763
0.000151085
0.000149653
0.000145964
0.0498473
0.00828639
0.000155933
0.0209113
0.00021882
0.000147325
0.000161825
0.00014698
0.000149791
0.000154954
0.000150887
0.00014789
0.000172195
0.0185175
0.0580994
0.000199187
0.000146592
0.000146888
0.000155265
0.000154418
0.000165096
0.000149409
0.0353064
0.000199432
0.000147047
0.000154438
0.0364317
0.00014632
0.000233995
0.0419745
0.0858379
0.000158875
0.0180684
0.0324315
0.000206889
0.000144994
0.000148263
0.000146167
0.000146948
0.0209039
0.0503077
0.000182795
0.00016965
0.000145887
0.000146341
0.00014798
0.0188829
0.000146532
0.000147166
0.0383073
0.0822834
0.000150272
0.000147787
0.000148663
0.00020792
0.000146335
0.000153317
0.000151383
0.00014835
0.000147891
0.000218849
0.000148045
0.000145578
0.000149013
0.0583801
0.000154984
0.00018298
0.000168272
0.000146975
0.0209696
0.000149433
0.03563
0.000149037
0.000289379
0.000148202
0.000147902
0.000147264
0.00015409
0.000172231
0.000147672
0.000145097
0.000148893
0.0766397
0.000152094
0.000192941
0.00016381
0.000146946
0.000205721
0.000153633
0.000145404
0.000148484
0.000184072
0.000149166
0.00562086
0.000148413
0.000149849
0.000184608
0.0874565
0.000168577
0.000149943
0.000165155
0.000150156
0.000148127
0.000166099
0.000147366
0.000170181
0.000146332
0.0395836
0.036453
0.000168576
0.000147682
0.000144572
0.0799009
0.000147294
0.000157833
0.000166379
0.0371142
0.0569526
0.000166347
0.0816275
0.000147863
0.000146791
0.0742523
0.000215695
0.000147999
0.00017711
0.000152518
0.000149267
0.000149813
0.000180637
0.000147445
0.000163732
0.000187306
0.0684034
0.000146025
0.000157892
0.00015402
0.000148523
0.000153727
0.000152362
0.000149665
0.0230798
0.000193591
0.000150704
0.000213358
0.000155299
0.000889979
0.000212677
0.000146628
0.000148368
0.000161043
0.000149858
0.000631941
0.000202896
0.000149219
0.000152638
0.000149628
0.000172279
0.000147948
0.0451629
0.000170887
0.0482034
0.000145675
0.000151702
0.0122392
0.000148886
0.0225438
0.000145322
0.000148371
0.000166686
0.000149462
0.000165773
0.000199581
0.0342528
0.0303142
0.000164663
0.000148805
0.000144362
0.000147256
0.000172012
0.000202762
0.000176597
0.000123674
0.0394502
0.000149324
0.000165397
0.0612462
0.00014829
0.000151248
0.000155203
0.000375024
0.000155333
0.000232541
0.000146743
0.000208778
0.000145046
0.0172234
0.000166122
0.000176372
0.000173086
0.0590869
0.000214219
0.00018902
0.000169348
0.000164088
0.000148779
0.0250401
0.0681946
0.000146811
0.00016628
0.000147976
0.000145276
0.000145921
0.000202341
0.000172939
0.000148191
0.00017371
0.000198703
0.000146103
0.000144366
0.0655042
0.000153929
0.000160634
0.000190122
0.00014995
0.000149631
0.000147359
0.000149183
0.00889843
0.000144915
0.000146756
0.000194575
0.000148142
0.00016031
0.000216417
0.000173564
0.0245348
0.0453643
0.000154393
0.000636265
0.000148485
0.000171697
0.000156569
0.000154589
0.000149289
0.000148267
0.000157172
0.0467374
0.000146943
0.000147916
0.000584762
0.000147452
0.000176403
0.000197422
0.000146162
0.000157057
0.000147148
0.000145206
0.00656092
0.000148006
0.000149096
0.00192574
0.000143912
0.000176778
0.000178065
0.000146704
0.000189724
0.000207987
0.000176308
0.000144959
0.000148509
0.0653126
0.000145895
0.00509412
0.000192926
0.0433052
0.000145555
0.000171697
0.000143696
0.00014948
0.000148183
0.000146756
0.00014652
0.0496404
0.00014614
0.00108767
0.000148258
0.0289945
0.000147715
0.000177084
0.000277334
0.000171972
0.000148189
0.000148808
0.000165704
0.000149417
0.000207944
0.000181685
0.0394683
0.000148819
0.000150568
0.000150341
0.000153991
0.000178143
0.000150837
0.000153518
0.000149838
0.0758702
0.000204757
0.000171528
0.000212469
0.000152947
0.00014773
0.000148449
0.000148897
0.00014764
0.00016251
0.000149081
0.00015474
0.00523386
0.000146875
0.000198073
0.000147329
0.0250036
0.000157516
0.0249166
0.00014983
0.0338975
0.000155247
0.000146035
0.000168811
0.000212672
0.000154422
0.0830949
0.000147632
0.00014804
0.000144759
0.000175439
0.0422087
0.0612727
0.000240251
0.000187798
0.000153918
0.000117319
0.000173446
0.000150565
0.000180026
0.000161505
0.000179722
0.00975705
0.000161661
0.0868553
0.000155547
0.0001852
0.000150081
0.000148606
0.000169629
0.00014735
0.0019443
0.000150878
0.000149787
0.000147558
0.000145807
0.000148032
0.000145424
0.000147368
0.000146579
0.000178868
0.0447936
0.000148438
0.00235876
0.0275881
0.000155364
0.000154264
0.000192215
0.000147229
0.000148762
0.000147281
0.000171875
0.025368
0.00017276
0.000212204
0.000148612
0.000200885
0.000146985
0.000147854
0.000150336
0.000177483
0.000148391
0.000164235
0.000153013
0.000182796
0.000147703
0.000154331
0.000174984
0.000172278
0.000193964
0.025227
0.0235966
0.000187272
0.000147956
0.000151504
0.000154201
0.000145879
0.00018863
0.0423978
0.0172213
0.00107034
0.000195514
0.000273221
0.000148362
0.000146357
0.000152954
0.000144905
0.000147666
0.0325255
0.0498843
0.000206375
0.000146506
0.041965
0.000156327
0.000149641
0.000155375
0.000194907
0.000147774
0.000152596
0.000174541
0.000146925
0.000183166
0.0610846
0.0805574
0.000166259
0.000146522
0.000149674
0.00019517
0.0310078
0.0441304
0.050686
0.000144576
0.0437705
0.000171573
0.000148817
0.000148145
0.0093288
0.000147487
0.0338306
0.0252133
0.000173396
0.000169886
0.0856393
0.0859811
0.00015393
0.000160119
0.000211944
0.0621094
0.00016171
0.000148285
0.000145118
0.0111521
0.0204468
0.000169667
0.0530231
0.000146161
0.000168197
0.000206757
0.000153579
0.000164676
0.000149197
0.0510959
0.000309106
0.040397
0.000148756
0.000149853
0.000183786
0.000179241
0.000147676
0.000235919
0.000147391
0.000144849
0.0001482
0.000165438
0.000145805
0.0484896
0.0823074
5.51296e-05
0.000148077
0.0001454
0.00124305
0.000160922
0.00331304
0.000168613
0.000147329
0.0086811
0.000158423
0.000160335
0.00014766
0.000146949
0.000174579
0.00019169
0.0375443
0.0586564
0.000240026
0.000146343
0.000204016
0.000208558
0.000179143
0.000207491
0.000149401
0.0449786
0.000147469
0.0799813
0.000157067
0.000149502
0.000147106
0.000155073
0.0525644
0.0137865
0.0293793
0.0724164
0.000178333
0.000152171
0.000149244
0.0609135
0.000159658
0.00014471
0.086882
0.000168081
0.000147468
0.000201258
0.000202005
0.000148315
0.000144889
0.000146508
0.000202555
0.0221579
0.000149662
0.0547694
0.000147831
0.000148543
0.000148612
0.000148231
0.000184628
0.000147666
0.000151791
0.000149072
0.000173874
0.0263126
0.000175678
0.000215364
0.0540201
0.0643028
0.000158982
0.000180641
0.000256033
0.000235466
0.000159009
0.0663978
0.000148024
0.000147444
0.0126405
0.0660226
0.000229876
0.0866919
0.0565606
0.000149475
0.000153947
0.0500817
0.0650854
0.000147388
0.000221603
0.000313369
0.00690384
0.0619489
0.000226119
0.000149958
0.0105189
0.000145899
0.000149721
0.000165337
0.000160672
0.0409121
0.000179782
0.00014611
0.00020929
0.000149912
0.000156341
0.000147787