/*--------------------------------*- C++ -*----------------------------------*\
| =========                 |                                                 |
| \\      /  F ield         | OpenFOAM: The Open Source CFD Toolbox           |
|  \\    /   O peration     | Version:  v2012                                 |
|   \\  /    A nd           | Website:  www.openfoam.com                      |
|    \\/     M anipulation  |                                                 |
\*---------------------------------------------------------------------------*/
FoamFile
{
    version     2.0;
    format      ascii;
    class       volScalarField;
    location    "150";
    object      omega_0;
}
// * * * * * * * * * * * * * * * * * * * * * * * * * * * * * * * * * * * * * //

dimensions      [0 0 -1 0 0 0 0];


internalField   nonuniform List<scalar> 
18598
(
0.0522144
0.280138
0.0222927
0.0666405
0.0216431
0.0350402
0.0440244
0.0221605
0.289887
4.54271
0.0219366
8.56293
0.0215218
7.3788
0.022135
0.087383
6.01986
0.0342673
0.0237249
8.11816
0.0219427
0.0217538
9.07524
0.0217584
0.0216229
6.27699
0.33502
0.0219894
0.333519
0.0507683
3.30181
0.0221676
0.0228842
0.0701294
0.0434588
0.239257
0.0216571
0.0219342
0.0216386
8.17968
0.116012
0.552158
0.181583
8.30405
0.0252585
0.0224005
0.0216364
0.936431
0.0215989
0.021625
0.0217929
4.11494
0.149688
0.141151
0.021752
0.0218266
0.0219889
0.022139
0.0215604
0.0337944
9.28133
0.254534
0.0219915
0.0217511
0.192131
3.04303
0.0215609
0.0228913
1.56974
0.0215768
0.0261619
0.0407126
1.29602
0.143154
0.0220768
0.108558
0.0221014
0.0218239
0.0523045
0.0261527
8.87923
0.0224801
0.0219757
6.36583
0.0228182
3.53956
0.0215833
6.34094
0.0219658
0.0303859
0.0253737
0.133718
0.0249884
0.0887641
18.4362
0.0218004
5.95304
0.0219189
8.29034
0.0737396
0.0219704
0.0221298
0.0288619
0.0367162
0.0479535
0.0231698
0.0812585
6.00673
0.0219802
0.192608
0.0327233
6.50403
0.0221143
0.0288857
0.13094
0.0224273
8.67556
0.0332958
0.0287597
0.021661
7.59935
0.0217426
0.021839
0.0335638
6.78379
0.0242756
0.0242965
0.0516514
0.241042
0.0216233
0.0215365
0.0577043
8.3256
0.0249589
1.28016
0.0217967
0.0655215
0.0219831
0.0216344
0.081151
0.320582
0.0218424
0.0219813
9.42017
0.0218929
0.0230765
0.795111
0.124197
0.0219102
0.0317375
0.0231454
0.028748
0.0218662
7.62551
0.0217935
0.0218964
8.10932
0.0244071
0.021516
0.0275112
0.0632608
0.0920139
0.0216104
0.0215975
0.0216253
7.18372
0.286172
0.0221721
0.0519295
0.0579387
0.0220709
0.0405535
7.40005
0.146648
0.0257379
0.0217484
6.74155
0.0224711
0.0269239
6.46417
0.0589645
0.31671
0.055975
0.022835
8.58924
0.0313563
5.1801
6.43695
0.022015
0.15651
0.0224625
0.0217315
0.05901
4.88614
0.0291544
0.0216848
8.55625
9.00663
0.0612518
0.18458
4.3245
0.0218198
0.039905
0.0222846
0.0246194
8.62474
0.475271
0.0218708
0.0242723
0.0241978
0.0537134
5.64053
0.0217159
0.0718967
0.109861
0.0308558
0.108323
0.0219266
0.0221287
0.0643202
0.0214824
0.021921
0.0230736
0.0220227
0.0389765
0.0219169
0.0218385
0.0219224
9.5823
0.021592
8.33699
5.99689
0.0219165
0.0219521
0.277729
9.58825
0.022721
0.0316645
0.0217411
0.0249794
0.0243921
0.0536795
9.53647
0.0215528
0.0884001
0.0227265
0.0415443
0.0218429
0.0314384
0.0216888
7.66187
0.304743
6.30431
8.2875
0.0442243
8.98348
0.0379879
7.30631
0.0220008
6.3066
0.0267761
0.051833
4.83945
15.1406
0.76694
0.022429
0.0214802
4.42025
0.112077
0.0251526
0.021697
0.0220077
0.0498672
0.0218347
28.566
9.88745
8.46469
6.203
0.106837
0.0532479
0.0521376
25.1373
0.0235594
26.2537
7.0013
0.0305911
0.106536
0.0869003
0.0216968
5.18912
0.0964135
0.376138
6.80831
0.401426
10.0351
0.034132
0.0215534
0.28611
0.0396275
0.0540344
10.5162
4.55779
0.0407877
6.48139
0.0254745
0.085745
6.49571
0.0321344
7.19509
0.298002
17.925
0.0241802
0.304414
5.6696
0.0596124
0.048678
0.0667661
0.0242639
0.022005
5.80741
0.0227986
8.40108
0.0219304
0.0244574
0.0230355
7.39766
0.0221059
0.079584
0.0299554
0.0226642
0.0246317
0.0227862
20.8799
6.71121
0.0216873
0.0986599
0.0230858
6.73883
0.104563
0.0223304
0.0491609
0.234504
0.127741
4.95144
0.0220904
6.6586
5.96243
4.28307
0.143512
6.68607
0.0240704
0.0286279
0.0303724
0.0960152
0.117487
0.0219132
0.0548736
7.84297
0.0921952
0.0216882
0.0219744
5.34642
0.0220712
0.0216913
0.021514
0.0217502
34.6175
4.13283
0.0570759
6.09284
0.0492915
0.778724
0.0251648
8.13415
0.0221296
0.455132
7.26987
0.0230083
0.0219803
8.48031
7.8701
0.0220604
0.032465
0.0609343
0.0260411
3.92846
0.0219417
0.0222703
0.0214918
0.0309402
0.258718
0.0259984
0.0218537
0.0220797
20.5321
0.0220643
0.0245943
0.0219784
0.189157
0.0231181
0.0259317
0.0219891
0.0216784
0.0222641
10.5353
6.25663
2.71683
6.74889
5.4299
0.0536949
0.0220548
6.15444
0.0219769
0.0258232
0.0894395
0.0342163
0.0433353
0.0284639
20.216
0.0293507
0.0224844
0.0219001
0.022083
2.75025
0.0243221
0.025274
0.0244914
0.0229649
0.0455489
3.47985
0.0217314
0.378642
0.0223716
0.18114
0.0791073
3.71025
0.0215351
0.0220644
0.118591
0.0218588
19.8974
8.2684
0.0221626
0.0219204
0.022059
3.93748
6.98514
6.59265
0.0268172
0.390243
0.0215362
6.0235
10.6723
0.0222759
3.43018
0.0269952
0.0230842
0.0220611
0.0250534
0.022057
0.266273
0.0221686
0.0222637
6.03276
0.108132
0.0219454
0.435128
0.0219938
8.63541
0.024126
0.0217735
0.0219235
0.0217005
22.302
0.0219003
0.0216865
0.0525099
0.0254651
5.26179
0.0714317
0.0215257
10.0321
0.0927213
0.0379102
0.0221693
0.0231054
0.0221303
0.0221314
0.0288248
0.0219072
0.0234408
0.112582
0.0337505
0.112969
3.3385
0.0250253
0.0898015
0.0980824
8.48598
0.0217581
8.24156
0.145724
0.0220782
4.07174
0.0229236
0.0219206
6.91922
0.0221466
0.02196
6.23311
0.0379943
0.0244107
0.0232147
0.0216761
0.0320864
0.0218322
0.0223414
6.18826
9.09407
0.0223243
0.0224033
5.71846
0.0252959
0.0224375
0.0242601
3.34518
0.0228964
0.0218915
3.59197
6.72965
0.0216396
0.113095
0.0219523
0.0231535
0.25503
8.34925
0.254823
0.0217787
0.0219199
0.855746
0.0229838
0.37854
0.0231779
0.021855
0.0220421
6.49282
0.0220449
0.122723
0.0215561
0.438826
4.51901
19.9845
0.296551
0.0219141
2.70369
0.0225228
5.81317
8.43143
0.0216075
0.0222691
4.75898
0.0716676
0.0292851
0.0275115
0.0217572
9.55818
0.0219277
4.70382
0.0220843
0.02475
0.021766
0.153722
0.0219814
0.0478985
9.21818
9.54089
0.0219012
0.050952
0.0219041
0.0241734
0.174642
0.120622
7.59113
0.0215245
27.9416
7.24718
0.0218119
0.227414
0.0219871
7.49659
0.308139
0.0230914
9.47281
0.0220609
0.112565
4.84309
0.0555027
0.0217728
0.0221545
0.0221066
0.0256865
0.0216786
0.0259228
0.0221825
0.0217324
7.27244
0.0217704
0.0492745
0.0222752
0.0218132
8.9461
6.46826
2.40069
0.021769
9.33602
0.0218344
0.0242126
0.0217546
0.0224998
11.8707
6.80264
0.0218663
0.0217005
0.0680332
0.0215652
0.0226334
0.164973
0.0219798
0.0221728
0.0215703
0.0219769
0.0240996
0.0219169
0.279679
0.0231574
0.021925
0.0527952
0.0228108
9.4611
0.425891
0.0229026
0.0220639
0.0241218
0.0607671
0.0218923
0.0402149
0.0214911
0.0222724
4.8477
8.62209
0.0219575
0.0221155
0.022906
0.0217134
0.0241623
7.65522
5.38584
0.205901
0.0276652
0.13882
0.0222918
0.0559784
0.0280865
0.0914557
0.0380889
5.33849
0.0218935
0.0220264
8.00136
0.0218675
0.0216073
6.32448
0.0217191
6.23579
0.0234976
0.0222499
0.0216049
0.022057
0.185479
10.5049
0.0524582
0.0217765
0.0227502
0.0219926
0.043151
6.96375
0.0235485
0.689973
0.0221654
0.0219021
0.0225267
0.0220526
0.0217092
0.0429713
0.0220398
0.391951
8.8167
0.071044
0.022283
0.0215119
0.0222778
0.0656384
0.0219863
7.22621
0.0316874
0.0229455
0.0608002
0.0711774
11.4906
0.0216707
6.63043
0.0221143
8.58672
0.0242716
5.17672
0.0421348
4.47639
0.0290908
0.0222675
0.031784
0.0290346
0.0219798
5.14656
8.40358
0.0285118
0.0237974
0.0217121
0.203344
0.0221509
0.0216865
0.460405
0.0228043
0.205538
4.55911
0.0216777
0.249455
0.0221591
0.0220364
0.435111
0.06562
0.0222697
0.237887
0.0221207
0.0536414
0.619273
6.50757
6.45416
7.35655
6.82128
0.0366135
0.211418
0.0220912
0.0309875
2.28441
17.6461
0.0273364
0.0523942
4.81452
6.62481
19.3469
0.790242
4.24397
0.0219501
0.0219272
0.0785806
0.0218738
10.0781
0.0410713
0.0225257
0.28235
0.0358898
0.022679
0.0230121
0.0216806
0.0222712
0.0218311
0.201864
0.0263311
0.0218449
6.3174
0.0219876
0.055307
0.0555664
4.30606
0.0224106
5.22854
0.0224399
0.0216929
0.0236917
8.61524
0.0422527
0.0218522
0.0220395
0.0222717
0.0495483
0.0220077
11.6655
0.141751
4.49996
10.5599
0.0224481
0.134396
0.361699
0.0219533
0.0231706
0.0219115
0.0220764
13.0849
0.0221181
0.0216358
0.0248033
0.0780882
0.0224007
5.82215
4.51378
0.0336989
0.0273404
0.0217911
0.021989
0.835374
0.0222763
0.0227633
0.0227792
0.0220098
0.0215782
0.0220278
14.91
9.17092
0.0220518
0.0227306
0.287089
7.14041
0.0215141
0.0217114
0.0218961
0.0288163
4.5656
0.289749
0.0876965
7.47068
0.0219367
0.0507
0.0219784
0.0289084
0.0248968
0.988554
4.21316
0.0219203
5.04948
0.0217417
0.0230764
0.0301415
0.0219007
0.0218167
0.05507
0.0501743
0.0218003
0.063321
7.34166
0.277416
0.229056
0.078134
0.0220489
0.0219297
0.0216513
0.0220329
8.69848
8.52984
0.0850128
0.0249424
0.0219755
0.258459
0.0221144
6.39903
0.0220236
0.0217857
0.326376
0.021653
0.0293973
0.200326
0.021828
0.022264
0.0218636
0.0247916
0.153114
11.0289
4.21608
0.0216659
0.025072
0.0220361
4.23834
0.160519
0.0216175
0.0237773
0.0220292
0.0257486
0.0742657
0.0217042
9.49642
0.0883874
0.0222693
6.951
0.11063
0.0219278
7.28685
0.0221115
0.0215839
6.15034
3.21581
0.0243973
0.345761
0.0217075
0.450023
0.0221636
0.021747
0.0225944
0.0215216
0.0263681
0.0218312
0.0290729
0.0217051
0.929359
0.332455
0.0964533
0.0219774
3.69658
0.0826995
0.0955524
0.0221196
0.0223749
0.722769
0.0218354
0.0217195
0.0446374
0.13627
0.0215531
0.0257643
0.0219769
0.0410248
6.36537
0.0220608
0.0216646
0.0216399
0.0866781
0.0218942
0.0222422
0.022238
0.120648
0.0218586
0.0217648
0.0218363
0.0397271
0.0224712
0.021981
0.43227
0.0219589
9.51819
0.0235553
0.0219785
10.8753
1.70963
0.0617667
8.74415
0.0215699
6.61857
0.021675
4.51792
0.0589151
0.0220573
0.0234558
2.24485
0.845455
0.139769
0.0221002
9.48756
0.0229991
0.0341137
0.298716
0.0474551
0.0214992
0.0216011
0.0243755
0.0222408
0.0219291
0.0226461
0.398682
0.0587985
0.0946497
0.441719
0.0302771
4.63573
8.90357
0.0221582
11.9172
0.0479591
0.0224001
0.452843
10.5105
13.943
9.51742
0.0421313
0.0291462
0.0216337
0.0282153
0.0222517
0.176082
0.329011
0.0229268
0.0224373
0.0716275
0.0229867
0.121363
0.0220503
0.021672
0.0219271
0.0219079
0.201324
8.69933
5.46337
0.0225151
0.0222977
0.0481464
0.0216158
0.0214507
0.022058
0.0216402
5.09203
0.0274108
0.022096
0.138981
0.0230562
9.76627
10.8112
0.0218767
0.253754
0.0288272
0.0240901
0.0214559
0.0477961
0.0221804
4.88847
5.52157
0.0217695
8.53154
0.040116
0.0336901
6.7935
0.0219397
0.0217776
0.0216697
0.0384551
0.0464716
0.0232448
4.35165
0.0243507
0.0222321
0.889155
0.0232399
0.382367
0.0219422
0.0224676
4.2365
0.0504535
0.0271307
9.09494
0.0396627
0.0237765
6.38916
0.0214961
7.06173
0.0218555
5.87028
0.0218031
6.77254
0.0229526
9.04576
0.0219664
9.78925
0.0217419
9.06002
0.0223255
0.0219076
0.0383103
0.021959
0.0709905
0.494991
0.0219355
8.87516
0.0400548
5.08001
0.0219107
0.0267601
0.0218407
0.0432108
6.98933
0.0219441
0.850367
7.35362
8.18983
0.0216329
7.15246
0.0227691
0.0219117
0.0219332
5.13389
0.045773
0.0216326
0.367984
1.05768
0.0220526
4.47843
8.64761
0.0414608
0.0223823
0.0486046
8.87967
0.171422
0.0522325
0.0379565
0.0226422
0.0221541
0.0236286
0.156669
0.0222618
0.02203
0.021931
0.021819
0.0219777
0.0219378
7.84916
16.8662
0.0216579
7.26486
0.0480826
0.835764
0.0217392
0.0257835
0.0474849
0.0412763
0.035805
0.338304
0.0222862
0.0219297
0.0223064
0.0221844
0.0219069
0.0227717
0.659077
0.225279
0.116533
0.0217767
0.0223301
0.0217116
0.022175
0.0218364
10.1945
0.388728
9.8704
0.0220512
0.0217915
0.0240669
6.22716
0.0231319
6.96182
0.0219562
0.455681
6.27032
0.0231744
0.0219321
0.0219059
0.0221989
0.0460346
0.0380115
0.0252739
0.0373703
0.386866
0.880755
0.144042
0.0250507
0.0251152
0.350241
0.0219536
0.687291
4.36058
0.022493
0.0492454
0.0275594
0.0218728
0.0222255
0.049607
0.0217421
0.0316031
0.0223439
8.60195
0.0219388
0.0308116
0.026058
5.19916
0.0777824
17.1262
0.0216912
0.0214665
0.0221343
9.13245
0.0216302
0.0219244
0.0295996
0.0346098
0.0599546
0.108123
0.124564
6.14498
0.0215957
0.022153
0.0218026
0.050832
0.0219611
0.112794
0.022261
0.0215948
0.102041
0.0413977
0.0217801
0.0415429
0.0484903
1.02295
0.0216392
3.2221
0.0216678
6.40454
0.0230121
11.7626
0.149345
0.0598216
0.0218147
0.0284018
28.8223
0.0306098
0.022099
0.121588
42.5115
5.57521
0.021639
5.30562
0.128388
1.37126
0.126776
7.99143
6.25004
0.0217236
0.0220607
0.0218387
0.0219097
0.0224834
0.0219751
0.0235548
0.0218821
0.0219776
4.93123
0.125811
0.0216283
0.31053
0.0217947
0.423413
0.0219946
0.309815
0.0219829
0.0218359
0.0487277
0.0232381
2.21157
0.0231805
0.0216731
0.0218962
20.6867
0.0222767
0.0222583
0.187628
6.60994
4.28932
0.0216907
0.0263514
0.0699822
0.0218503
0.0218652
0.0226587
0.0215227
0.022059
3.91028
2.02799
0.0658528
0.0219562
0.0224875
0.0224261
0.0222848
7.32083
0.047947
0.0217756
0.0218012
12.2971
0.0859814
0.0220369
0.143661
0.0276682
0.810548
0.0229422
0.0519092
0.0484799
0.0919986
6.71025
0.0218906
0.0695144
0.049879
0.0219342
0.0218051
0.0219764
0.0223469
0.0219375
6.18902
0.0252938
0.0438374
4.18235
28.8635
0.349075
0.0239107
0.0219228
0.0221802
0.0221182
0.021957
0.0228102
0.0308767
0.0222853
0.0222224
0.0222769
6.4202
6.47005
0.045161
0.0989876
0.0216968
0.0241832
8.25931
0.0224644
0.0285219
7.9252
0.358757
0.781419
0.0291118
0.021752
0.0216964
6.45108
0.0246515
0.0219929
0.0407169
0.173093
0.0215235
1.14067
0.281266
0.0218174
7.95066
0.0246269
8.70753
0.317493
0.0596234
0.0225656
0.028026
0.0917173
0.0219253
0.0218675
0.0221075
0.0220685
0.0999938
0.107227
6.48707
0.0217219
0.0773204
0.0221484
0.0386662
0.379989
0.0220581
6.54576
0.0775407
0.021962
0.0244758
0.0989259
0.0223099
0.022329
0.0790782
0.0218016
0.0216261
4.60875
0.0403793
0.0300689
0.024696
0.0217005
0.110062
0.0879486
0.0427216
0.0775897
0.0215583
0.0697593
5.8419
6.50433
0.0256629
9.08473
0.0220027
0.805038
18.3511
0.383532
0.022513
0.0223583
0.02199
0.0219567
0.25573
0.0663753
0.107349
0.0218015
0.0915327
0.0215167
0.0218713
6.31929
9.65108
0.54944
0.0220034
5.44262
0.0216151
0.0687943
0.0218859
0.100528
0.0217191
0.0220011
7.76994
0.0721267
0.0221217
2.07671
0.0590436
6.24199
0.0224227
4.62467
0.0815551
0.0220727
0.0218828
0.3156
0.0238029
0.0219202
0.302051
0.026039
0.057347
45.3494
0.0218386
0.12898
0.909384
0.0219778
0.0216886
0.274441
0.0218871
0.0278179
6.4739
0.124219
0.0219611
9.45816
0.0219782
0.0219828
3.76148
0.0219705
0.0454628
0.0427806
0.0218879
0.0218013
0.021841
0.14783
0.505938
0.0217912
0.022103
0.0222691
0.0387532
0.0226068
6.48765
0.0221765
0.0219088
0.171699
0.0418148
0.10174
0.0548956
0.0231381
0.0467077
0.0226637
0.0344761
0.0217562
0.0407988
0.75662
0.0220614
0.0221521
0.0219814
0.0219569
8.9435
5.09734
0.0230366
0.0217494
0.0220098
0.02239
0.0230813
14.7399
9.04024
0.021929
0.100785
0.0226138
0.0427477
0.0221933
0.0220248
0.0769281
0.382512
0.0824341
0.022015
0.0222592
0.0343726
0.0217686
6.99105
0.0216357
0.0938996
0.103362
0.0254495
0.252059
0.0219476
0.292129
0.0218812
0.0502644
0.0220199
0.0219533
0.0382934
0.0222711
0.042634
0.0361047
12.4347
10.3499
9.13128
0.0217368
0.0219206
0.0222344
0.0289084
0.0275813
0.0237968
0.0218699
0.0218436
7.99073
0.0219505
0.045277
0.0421988
15.9928
8.34863
0.0229942
0.0388149
6.50077
1.05817
0.021849
8.57306
8.38545
0.0237226
8.54751
0.0218505
0.0222317
0.175858
0.031871
0.0216782
22.6064
0.0307816
0.108078
0.0216271
5.26238
0.0414557
0.112708
9.52152
0.16873
0.658104
0.0221593
0.0229686
0.0338452
0.0218504
0.129936
0.0218975
0.0218737
9.65834
0.0216846
4.78581
11.5772
0.0219604
0.0219649
0.0411859
19.3418
0.0352257
0.02196
0.0225986
0.0340942
0.030233
7.08143
0.027348
0.0226111
8.62586
10.2207
0.178129
0.0500276
0.0256303
7.24219
6.44741
0.0216325
11.6943
0.40084
6.78781
0.0256072
0.0220159
0.0221518
0.0218168
0.0219195
0.647482
0.0219707
0.133947
0.0219588
0.0216873
0.0243529
0.022068
6.3497
0.0509432
0.0222659
0.0220076
0.0217025
0.025996
0.0634272
0.0222323
0.0268239
0.0218617
0.0223087
0.0303943
13.4843
0.0218451
7.78039
0.0238856
5.00613
0.026005
6.9717
0.0216245
0.022006
0.022557
0.0216207
5.177
0.0216134
0.0338752
0.0222753
0.0494837
0.0962071
0.149854
0.0235425
0.0221982
0.0598145
0.0221171
0.0217334
0.0218508
0.0221243
0.0219451
0.0918309
0.0694053
0.0216283
0.0219039
0.0646902
0.189165
0.0218635
0.0246995
4.85141
4.38204
0.0820058
0.0225875
0.106021
0.0222814
0.0218204
0.0486955
0.0219199
6.56945
0.0393119
0.0217206
0.0218633
0.0694424
7.91292
0.0972472
0.0220571
0.0220673
0.0221488
7.808
0.111058
0.0231879
0.0712454
0.681088
0.28566
0.0221863
0.0677783
7.48573
5.32544
10.9137
0.292608
0.0221692
0.0221494
6.54921
14.1251
0.0216143
0.0994897
6.00778
8.629
0.0218847
8.60198
0.0219943
2.40689
0.0219237
0.181624
0.022163
0.0222153
18.3113
0.0218738
0.0239758
1.3948
0.0219712
0.127937
0.0219463
0.0696416
0.0220659
6.66859
0.0216049
0.0278559
0.02251
8.74267
7.82821
0.0222768
0.0322336
6.9671
0.0217387
0.0239486
6.06384
0.0225956
0.0219699
0.0220398
0.0220618
0.196842
0.0278773
0.0218914
0.0220051
0.0448742
0.022057
6.93873
0.0246799
0.024002
0.0384107
0.0222708
0.021959
0.0219758
0.0223884
0.0220637
0.0220896
7.99973
6.15561
9.93546
0.0218622
6.79772
0.0299232
5.79765
5.92636
19.3411
0.02165
0.0218114
0.0219791
0.0217448
5.37453
0.0218675
0.190301
0.0223844
0.108305
0.0217236
0.0217447
4.11946
0.0217493
0.0527746
13.9637
9.04673
0.0218562
0.0241159
0.0258985
0.163686
0.0226262
0.0916966
2.08657
0.023406
1.14057
0.0217427
0.0389263
0.0219081
6.23227
0.0264359
0.0662491
5.94772
0.0258829
0.0220249
0.025543
0.0222622
0.0219503
5.59229
0.0259618
0.024013
0.0222763
0.0219132
0.0764187
10.4232
0.0338185
6.63061
1.30509
0.0357957
10.8182
0.0222894
0.0221586
0.0218076
0.0217705
0.024198
0.143563
0.021504
6.62825
0.0746131
0.156046
7.2852
0.869364
0.0404575
1.98083
0.0222356
0.124814
6.39081
0.0327896
7.30606
0.740866
7.51948
0.396362
4.51588
0.255951
0.0383688
0.0220639
0.572716
0.119046
0.0218447
0.0499912
0.0265998
0.0661018
7.52706
0.0295125
0.022207
0.021832
0.122275
6.73724
0.0229174
0.0222153
0.0331548
0.328389
0.0218719
1.80082
0.0218481
0.0229964
0.0479021
0.0221133
0.0219551
0.0221423
6.65725
0.0218415
4.514
0.0467304
0.0221671
0.0649193
0.0222117
0.0218103
0.597386
6.06879
0.0216679
0.0221214
0.692715
0.157848
0.0221562
0.0220085
0.026754
0.0501715
29.2625
0.0368797
0.0257299
0.02144
5.71291
4.51163
0.0219528
0.181451
4.37463
0.022429
6.57959
5.47023
9.37997
0.0220805
0.0710464
0.0231253
0.0215712
0.249582
4.85486
0.0687352
0.0220533
5.88768
0.0216014
0.021852
0.286369
0.021989
0.182718
0.0219341
0.0222531
10.2152
0.300549
0.0214707
0.021841
0.0219881
0.268893
7.94776
0.301542
0.279038
0.0224174
0.0230306
0.0218466
0.0221606
21.4513
8.59189
9.96229
0.0822731
1.84875
0.0218229
0.0240986
0.0310772
0.0239612
0.0221411
0.0294302
0.0219309
0.0220997
0.0219267
0.0222118
0.0218271
8.16206
0.022185
0.0218534
0.161946
0.0264876
0.0534687
0.0218486
0.0783796
0.0219377
0.0231738
0.0222525
0.0216541
6.05113
5.321
0.0271155
8.38721
0.309388
0.0219294
0.0295791
0.0218603
0.0225214
0.0260423
0.0230422
0.0219602
0.0780804
17.4395
6.43534
0.172492
0.0218215
0.0218041
0.0264565
0.0264152
0.0656191
0.0223379
4.54903
0.31952
0.0217678
0.024903
5.53085
0.0217655
0.333144
5.79175
10.2921
0.027162
8.50021
4.09106
0.256269
0.0215778
0.0220585
0.0217434
0.0218587
7.97512
6.4545
0.171865
0.0464928
0.0216502
0.0217071
0.0220175
6.37447
0.0217746
0.0218699
6.17537
9.17764
0.0227011
0.0219918
0.0221146
0.265794
0.0217338
0.0251307
0.0231038
0.0220184
0.0219749
0.312745
0.0220292
0.0216222
0.0221642
6.46223
0.0270187
0.16665
0.0387976
0.0218646
17.447
0.0222224
17.5506
0.022168
0.9613
0.0219929
0.0218791
0.0218482
0.0250411
0.045315
0.021975
0.0215936
0.0221472
8.61021
0.0236465
0.832099
0.0318879
0.0218637
0.303212
0.0255877
0.0216471
0.0220887
0.0885083
0.0221856
4.18209
0.0220276
0.0222793
0.0915865
9.60357
0.0384387
0.0225822
0.0344279
0.0226562
0.0219747
0.047047
0.021932
0.0456632
0.0217099
6.06659
4.78889
0.0405768
0.0219772
0.021528
10.9897
0.0218479
0.0284732
0.0359331
42.3738
6.40644
0.037548
9.23701
0.0219953
0.021853
9.24055
0.286883
0.0219652
0.107496
0.0223862
0.0222943
0.0222744
0.148173
0.0219325
0.0383741
0.360705
7.03648
0.0217172
0.0283911
0.423642
0.0220806
0.0255685
0.0238861
0.0222541
7.29898
0.156694
0.0225002
0.234363
0.0252565
1.56904
0.270347
0.0218069
0.0220731
0.0396889
0.0225424
5.38638
0.269714
0.0222719
0.0237525
0.0224598
0.0493284
0.0219359
6.75705
0.0730463
5.92038
0.0215641
0.0234581
13.513
0.0221747
7.01735
0.0216194
0.0220715
0.0454585
0.0223956
0.0351137
0.304427
4.59297
6.83
0.0339823
0.0221363
0.0215055
0.0219176
0.0487147
0.298397
0.0665998
0.346243
5.38262
0.0222076
0.0346428
8.46671
0.0220599
0.0230642
0.0257116
1.04499
0.027947
0.344664
0.0218474
0.268419
0.0215834
11.1513
0.0387398
0.0584172
0.045402
17.7875
0.248489
0.201058
0.0777696
0.0331762
0.0221312
11.8805
8.7074
0.0218247
0.0389268
0.0220173
0.021614
0.0216175
0.276329
0.0489819
0.0218857
0.0498099
0.172734
0.0216586
0.0215002
14.7959
0.0257807
0.0379029
0.15523
0.0225592
0.0224574
0.021902
0.0220679
14.4457
0.0215182
0.0216989
0.290784
0.0220427
0.0305743
0.335367
0.135482
4.89987
6.23524
0.0257798
2.2043
0.0220486
0.0440009
0.0273114
0.0265054
0.0222939
0.0220593
0.0281538
6.68242
0.0218621
0.0220099
1.63661
0.0219073
0.0574669
0.228132
0.0216014
0.0307792
0.0218813
0.0216241
19.6746
0.0218566
0.0222457
2.90394
0.0214404
0.060382
0.907654
0.0218264
0.125017
0.292752
0.295311
0.0215363
0.0220921
16.0408
0.0217209
3.69179
0.172591
11.2528
0.0216463
0.0646117
0.0214177
0.0222289
0.0220494
0.021848
0.021799
6.4787
0.0216364
2.49876
0.0220552
9.37713
0.0219763
0.110848
0.791071
0.0436833
0.0220445
0.0221528
0.0426063
0.0223843
0.271419
0.0872917
39.168
0.0221428
0.0227754
0.0225308
0.0239323
0.0643302
0.0230338
0.024583
0.0222778
13.3615
0.247214
0.0425757
0.25267
0.0239738
0.0219862
0.0220845
0.022165
0.0219302
0.0486344
0.0221739
0.02663
3.80169
0.0217139
0.244165
0.0219149
6.82117
0.0277638
7.52828
0.0222767
4.38472
0.0265118
0.0216243
0.0388892
0.229582
0.0244067
10.718
0.0219725
0.0219583
0.021535
0.141829
6.036
6.90114
0.360779
0.112348
0.0255977
1.93096
0.0612398
0.0228828
0.15483
0.0450272
0.0934178
4.30526
0.0310404
9.70175
0.0256873
0.0983023
0.0226378
0.0221063
0.0816632
0.0219313
2.67436
0.023015
0.0222708
0.0218504
0.0216788
0.0220252
0.0216199
0.0219318
0.0218216
0.1766
6.03878
0.0220819
8.74726
6.52183
0.0267726
0.0244019
0.155528
0.0218493
0.0221284
0.0219113
0.0489966
5.10219
0.0478645
0.298778
0.022107
0.275563
0.0218707
0.0219303
0.022404
0.0620703
0.0220755
0.0325403
0.0245831
0.104303
0.0219736
0.0263007
0.0538487
0.047024
0.165547
5.52792
5.35125
0.134083
0.0219609
0.0234726
0.0257823
0.0217179
0.117643
6.77001
10.2324
2.7099
0.154974
0.900868
0.0220197
0.0216808
0.0238332
0.0215819
0.0218602
5.34081
6.77798
0.335454
0.0218118
7.06247
0.0279363
0.0224673
0.0264248
0.203068
0.0219899
0.0231821
0.0522629
0.0218053
0.190169
7.76976
11.8204
0.0792921
0.0218009
0.0222552
0.143026
7.03298
5.81312
6.22188
0.0215299
5.81683
0.0783933
0.0221362
0.021981
4.44004
0.0218493
7.76566
6.9334
0.0950685
0.0630161
9.3983
10.3333
0.0256731
0.0344611
0.238128
7.96987
0.0314653
0.0220598
0.0216064
4.46302
7.27279
0.0447121
6.26836
0.0217015
0.0379709
0.223232
0.024768
0.0332428
0.0221899
6.26218
1.04378
6.17699
0.0221278
0.0222799
0.17916
0.100155
0.0219781
0.42056
0.0219355
0.0215148
0.0220491
0.0513205
0.0217063
8.09412
9.17669
0.34615
0.0220347
0.0216453
2.52592
0.0286843
3.7925
0.0406512
0.021929
5.38491
0.0326645
0.0383818
0.0219252
0.0216906
0.133166
0.127046
6.17337
6.55438
0.405446
0.0216828
0.203982
0.218457
0.088099
0.234814
0.0223411
6.90116
0.0219377
8.85539
0.0272467
0.022033
0.0218994
0.0273259
6.25648
6.47197
4.10057
8.77488
0.141938
0.0237948
0.0221965
6.49853
0.02778
0.0215295
10.18
0.0381053
0.0219467
0.183305
0.243971
0.0220658
0.0215642
0.0218115
0.296037
6.89325
0.0222538
7.95483
0.0219899
0.0220634
0.022107
0.0220542
0.105182
0.0219311
0.0235131
0.0221727
0.0510219
12.1681
0.100859
0.623242
6.33085
6.9026
0.0276447
0.0728508
0.430343
0.368732
0.032108
8.7367
0.0220281
0.0218936
10.4213
6.79246
0.641279
9.75587
6.40501
0.022124
0.0250841
6.26554
6.98047
0.0219027
0.334293
1.12021
7.82856
6.5539
0.551985
0.0222943
15.6986
0.0215969
0.0222618
0.0698706
0.0347311
6.08808
0.0714113
0.0216891
0.237446
0.0222879
0.0285636
0.0219202
6.21162
0.0381571
8.84916
0.022095
0.0815614
0.0216747
0.0219262
6.52622
6.56655
0.0221497
7.5013
0.0217009
0.316306
0.632561
6.55093
6.30237
0.0775983
5.50185
0.0880211
0.0215144
8.27617
0.605154
0.0300335
0.022184
6.62679
6.15054
1.35314
0.0218648
0.0219803
5.14822
0.16378
6.80929
0.168827
0.0684693
0.0219297
8.59144
0.0313038
6.70762
0.0226308
6.75857
0.0247918
0.0221689
0.261713
0.148728
0.0530883
6.94478
0.118006
0.0220134
7.77353
0.0226303
0.0219776
0.234642
0.0222709
0.116693
0.0219338
0.0216456
0.0220066
0.0255781
0.0244268
6.52049
0.0275581
0.0217231
0.0218107
0.0217937
3.94715
0.0657472
4.70032
0.0259528
6.12481
0.0220946
0.022471
0.0648938
6.77017
5.02808
0.0219131
8.05769
5.12139
0.244811
0.0439162
0.0601334
0.636094
0.0912303
0.0538134
9.84381
0.278708
0.0217304
6.51342
6.47073
0.0729687
0.0220302
0.0218818
0.257856
5.6045
0.0284009
0.372749
0.0218822
0.0219683
8.66297
0.0220065
0.15143
0.0441517
0.0219213
0.0219404
0.161297
0.0320139
0.0216063
0.0270472
6.40187
4.73518
6.71489
0.0218722
10.5621
0.0218088
0.0218721
39.2214
0.0220271
0.681348
0.0219146
0.433266
0.233175
1.65176
0.0223389
4.33901
0.0846528
7.00108
0.0219293
9.1717
0.0219586
0.0237072
0.0218076
0.343422
0.427398
0.0220789
0.0246682
0.0215293
0.0220272
0.0246357
0.0220596
0.0992976
0.0301471
0.022024
6.28233
0.0220691
0.0238988
0.0217483
0.0219829
0.0222785
0.0219096
0.0220311
0.0218044
0.0223761
0.244879
6.74733
0.442061
0.0222141
0.0976172
8.73229
0.0221186
0.0753334
0.0789993
0.0227807
0.0254139
0.0219277
6.69098
0.0218223
0.033412
6.32346
0.0858204
0.0232484
0.0267795
0.0603349
0.0218894
0.0322929
0.0221584
6.43229
0.0230281
0.0769164
0.0218321
6.5735
0.0659077
0.088171
0.021893
0.0222769
0.0220901
0.0221885
0.0219502
0.622926
0.0217283
7.33066
0.0220559
0.024671
5.09987
0.0632857
0.0288976
0.215656
6.69873
0.0230587
0.0216603
0.0320796
0.0220858
0.021973
0.0229203
0.0216399
0.362564
0.0327009
0.022107
0.0219359
0.0217093
0.0258219
0.0220801
0.264561
0.248815
0.0220219
4.41093
0.0216545
0.331312
0.0218528
0.0218656
0.043284
0.275632
0.0221645
0.0290879
0.0214512
16.3058
0.0238871
0.0224853
0.0259105
26.4792
14.0559
0.0678849
0.0259669
0.0219657
0.0233229
6.94439
0.0218574
0.0259873
0.229298
0.0219358
5.18521
0.0634596
0.0696999
0.0238499
0.0229036
0.0220277
0.0222584
4.66718
0.0220645
0.0228671
0.0894715
0.0219356
0.0370604
0.0226439
0.11566
0.0218717
0.808509
0.0223372
0.0251052
0.0220474
1.42312
19.4247
0.0220444
0.0264528
8.52032
0.0478032
0.0280807
13.0646
0.0221324
0.062139
4.74841
8.39191
0.0419953
0.0220236
0.0219206
0.0222755
0.0220076
0.306717
0.0229119
0.498752
0.251053
0.0217174
0.0562214
5.03164
0.0220347
0.0711366
0.0641876
0.224537
0.0227204
0.0367761
0.021754
0.0221172
0.0219429
6.30225
0.0935009
0.1271
0.022335
0.0216452
0.022034
0.0215101
17.5727
0.0218213
0.0592169
0.0222722
11.8888
0.0222786
0.0220543
0.0869159
9.86099
0.0218981
0.029501
0.220788
0.217158
0.0215701
0.0228976
0.0622195
0.0220067
6.6993
6.32603
0.024531
0.0322509
0.0219431
0.0219194
0.299853
0.0217161
2.59932
0.0218101
0.362
0.0217998
0.0219154
6.11359
0.023814
0.0224474
0.0217789
0.0295724
0.0259232
0.0297947
0.0218372
6.6304
0.194096
0.0239189
0.0697472
0.0242817
0.0217023
0.0236253
0.021707
0.335765
0.0540223
0.426332
0.0435552
0.0216723
0.121784
0.0221625
3.42117
0.0253971
7.2902
0.0225633
0.0997234
5.48741
8.43706
0.0243878
0.0363712
0.224649
0.148318
8.95196
0.0220272
0.0265408
0.0228632
0.0496499
0.0241616
12.4324
0.0221664
0.0218205
0.0222073
0.0218855
0.0222296
6.58026
0.0218357
0.021933
6.27709
0.0219763
0.022002
0.0700708
7.68911
0.560801
0.0368827
0.0305384
0.0263715
11.9247
6.00698
0.0221058
0.0646392
6.39515
0.0214513
0.0241668
0.0219915
6.46447
0.0905074
0.215317
19.4218
0.022079
0.0219207
0.0295663
0.0279601
0.022071
4.89532
0.0360415
0.021913
0.02192
5.51001
0.0220919
0.0305959
0.0230742
0.0220377
0.0219839
3.19423
0.0274026
0.0978829
0.0227446
0.0219157
0.524345
0.0220298
0.0222453
5.98361
0.0217526
0.022119
9.70793
0.0217066
0.109098
0.0237876
0.239514
0.0240067
0.214312
0.234298
0.152795
0.0222244
6.58732
0.021911
0.0218354
3.58945
0.0262821
5.27734
7.64578
0.0216287
0.0220207
0.131555
0.0872681
0.0855849
0.0219909
0.0216264
6.50696
0.0287999
0.0214842
0.0219316
0.0952922
0.0220764
8.33435
0.0715476
0.0369714
0.0230823
0.0228141
18.8794
0.022029
0.021627
0.135216
0.0319599
0.0219947
0.021959
0.0222399
0.0217282
0.0847784
0.200113
0.0219309
0.0214753
0.0224126
0.0219224
0.0565935
0.0218904
0.0220501
0.022122
6.49356
0.0216089
6.78318
7.23138
0.540959
6.02569
0.0223376
0.078135
4.88673
0.0258513
0.0218856
0.0220183
0.027348
0.0220545
0.259697
0.567693
0.0223269
0.0257854
0.022108
0.0282657
0.0309198
0.246311
0.0389997
0.289893
0.0214909
0.713222
0.337145
0.0706725
0.021945
1.72372
0.0220172
12.8996
8.71428
0.0219338
5.39482
0.0222353
0.0580069
0.0221309
0.0521381
0.0604923
10.0415
0.0215027
0.102076
0.092217
0.04616
0.0219057
0.0217296
4.18758
0.471945
0.0224481
0.0222126
0.0265138
0.0278531
0.839197
0.0217871
0.227448
0.0453998
7.31131
7.28547
36.5393
0.0224199
0.0217982
0.108884
0.0215954
0.0285418
0.0219583
0.0952485
23.6543
0.27706
0.0309015
5.03522
0.0219276
0.0351018
0.0867027
0.109744
10.9017
8.07229
0.0218917
0.0221734
0.0845845
0.151732
7.71408
0.414496
0.0219801
0.0220076
0.0261674
0.0895487
4.51424
0.0218852
6.0893
0.0219085
7.14274
0.273065
0.022216
15.6429
0.022174
4.18468
38.2631
0.0254967
0.286053
0.479938
9.01911
22.1719
0.0228323
10.0847
0.0271606
0.678901
0.0219897
0.274947
0.0219806
0.0389234
9.68023
0.0857018
6.32757
0.0228453
6.29743
0.0220274