/*--------------------------------*- C++ -*----------------------------------*\
| =========                 |                                                 |
| \\      /  F ield         | OpenFOAM: The Open Source CFD Toolbox           |
|  \\    /   O peration     | Version:  v2012                                 |
|   \\  /    A nd           | Website:  www.openfoam.com                      |
|    \\/     M anipulation  |                                                 |
\*---------------------------------------------------------------------------*/
FoamFile
{
    version     2.0;
    format      ascii;
    class       surfaceScalarField;
    location    "150";
    object      phi;
}
// * * * * * * * * * * * * * * * * * * * * * * * * * * * * * * * * * * * * * //

dimensions      [0 3 -1 0 0 0 0];
oriented        oriented;


internalField   nonuniform List<scalar> 
27668
(
0.0649293
0.0576062
-0.122536
0.0368543
-0.0667982
0.0299438
0.326361
0.149829
-0.0626938
-0.0341402
0.096834
0.344415
-0.197874
-0.146541
-0.0759105
0.148273
-0.0723621
-0.13049
0.0894303
0.0410596
-0.406152
0.403314
0.00283764
-0.041346
-0.039221
0.080567
-0.0650341
0.0229486
0.0420856
0.298015
-0.195272
-0.102742
0.0020002
0.448666
-0.261495
-0.187171
-0.010336
0.00354465
0.201786
0.199395
-0.401181
-0.12587
0.0883046
0.0375652
-0.0264116
0.00260031
0.0238113
-0.148396
0.0724853
-0.17366
0.179348
-0.00568828
-0.00186302
0.00525423
-0.00339121
0.110189
-0.249291
0.139102
0.34301
-0.160519
-0.18249
0.00574729
-0.0288645
0.0231172
-0.153533
-0.0914852
0.245018
-0.1391
-0.230511
0.369611
0.0199147
-0.0291778
0.00926311
-0.0870564
0.0419497
0.0451067
-0.100388
0.264488
-0.1641
-0.0499723
-0.0370841
-0.061779
0.126708
0.0640157
-0.0593086
-0.00470711
0.0423719
-0.448524
-0.206865
0.216653
-0.00978838
-0.0518694
0.104874
-0.0530043
-0.0577724
-0.0727175
-0.0905593
0.0410678
0.0494914
-0.193379
0.392795
-0.199415
0.130729
0.167286
0.232529
0.111886
0.00707625
-0.0115962
0.00451996
0.0493248
-0.0888351
0.0395102
0.0292412
-0.0552867
0.0260455
0.106985
-0.0684322
-0.0385525
-0.00507761
-0.208855
0.0652425
0.143612
0.0382862
0.166004
-0.204291
0.180665
0.221063
-0.401728
0.0659936
-0.0028975
-0.0630961
0.122404
-0.283935
0.161531
-0.397182
0.258082
0.260075
-0.493576
0.233501
-0.0798734
0.075095
0.00477842
-0.0949248
0.084989
0.00993586
0.0353541
-0.0831736
0.0478195
0.226778
0.116231
0.146298
-0.420917
0.274619
0.41726
-0.277951
-0.139309
0.445175
-0.0116483
-0.433526
-0.320182
0.0324118
-0.0818751
-0.0382425
0.120118
-0.0149451
0.0175776
-0.00263256
0.0781661
-0.0413118
0.148821
-0.249209
0.139818
-0.293352
-0.0938272
0.0349414
0.0588858
0.0440251
-0.0813193
0.0372942
-0.264845
-0.0553375
-0.0312608
0.187493
-0.156232
-0.060549
-0.00342427
0.0639733
-0.370493
-0.107053
0.477546
-0.193223
0.109961
0.0832625
-0.0188526
0.0975378
-0.0786852
0.0642107
0.00178293
-0.018645
-0.0762798
0.405227
-0.19824
-0.206987
0.106281
-0.0569566
-0.159861
0.399367
-0.239506
0.371036
-0.224738
-0.0492489
-0.0531462
0.102395
-0.123639
-0.0695841
-0.0103782
0.00851518
-0.14683
0.185116
0.275568
-0.123103
-0.152465
0.0295285
-0.00961378
-0.191986
-0.0148787
0.0670928
-0.00307717
0.0331952
-0.403688
-0.00524406
0.00324547
0.00199859
-0.288415
0.371549
-0.0831337
-0.140897
0.0807365
0.0601601
-0.0634528
-0.0530334
0.116486
0.0841687
-0.0488146
-0.132048
-0.0768069
0.0462689
0.0211752
-0.0674441
0.0598621
-0.0506506
-0.00921149
0.258468
0.0194784
-0.277947
0.0152526
-0.0139037
-0.0013489
0.196385
-0.315925
0.11954
-0.00864397
0.00798543
0.00065855
-0.101768
0.0498987
-0.308686
0.020271
0.0180146
0.42716
-0.177098
0.0894701
0.0876275
0.169487
-0.0973475
-0.0721397
0.0524295
-0.101678
-0.205663
0.210941
-0.00527816
0.0358672
0.0648639
-0.100731
0.0186041
-0.0182967
-0.000307368
-0.123779
-0.147724
0.271503
-0.0590727
-0.0347545
0.096014
-0.108616
0.0126022
0.00186736
-0.0168125
-0.194285
-0.181769
0.376055
-0.10882
-0.0682778
0.0367744
0.0473943
0.21738
-0.0588414
-0.158538
-0.00825673
-0.000387243
-0.118366
0.0364914
0.0807298
0.0716916
-0.152421
-0.381063
0.187684
-0.0114017
0.0018364
-0.0905728
-0.150852
0.241425
-0.309721
0.140531
0.16919
0.00540603
0.090608
0.00577782
-0.0231897
0.0174119
-0.134848
0.173123
-0.0382753
0.180063
-0.144936
-0.0351266
0.0495193
-0.117369
0.0678495
-0.0549149
-0.0356444
0.138598
-0.358226
0.219628
0.446618
-0.469697
0.0230797
0.0453287
0.0369622
-0.0822909
-0.0105862
-0.0136859
0.0242721
0.154419
-0.134292
-0.0201267
-0.0117623
-0.0487867
0.378326
-0.118251
0.0448636
-0.112493
0.0676293
0.140709
-0.216517
0.0655109
-0.0238444
-0.0416665
-0.0693135
0.0279675
-0.225949
-0.0371091
0.263058
0.192868
0.224392
0.00294895
-0.0102897
-0.396166
0.148376
0.24779
-0.159192
-0.0168967
0.176088
0.018
0.0593755
-0.0773755
0.0873388
-0.0505644
0.348687
-0.196017
-0.15267
-0.0402664
-0.0673165
0.107583
-0.183248
-0.0224148
-0.160767
0.0436387
0.117129
-0.155212
0.302542
-0.14733
0.000712792
-0.00457897
0.00386618
0.0105133
0.247955
-0.220661
-0.175505
0.00597329
-0.0053467
-0.000626589
-0.170424
0.0355761
0.329294
0.119371
-0.174861
0.110384
0.0644764
-0.0396881
0.0986003
-0.0589122
0.0665388
-0.0202699
0.292257
-0.169853
0.129717
-0.305216
0.175499
0.326543
-0.187945
-0.000468016
0.00754427
-0.0607093
0.081749
-0.0210397
0.301414
-0.493064
0.19165
0.0495765
0.0516316
-0.101208
0.065613
0.0370913
-0.102704
0.250454
0.154773
-0.133819
0.0998326
0.0339866
0.0101666
-0.00721768
-0.0347763
0.0864368
-0.0516606
-0.166739
0.159955
0.00678474
-0.341429
0.18091
-0.00587964
0.00787985
0.0912805
0.126099
0.0807659
0.0733942
-0.15416
-0.00164429
0.00307047
-0.00142618
0.0743692
-0.136677
0.0623078
0.0264163
-0.0725087
0.0460923
0.0875374
-0.0422087
-0.212336
0.0203498
-0.015295
0.000337251
0.0149578
-0.0506397
0.113658
-0.0630178
-0.0584353
0.0341339
0.0243014
-0.0062069
-0.0027715
0.0089784
-0.413884
0.286717
0.127168
0.0538507
-0.0886269
0.120359
-0.252347
0.131988
0.164605
-0.255178
-0.050023
0.0995995
0.0179417
-0.018836
0.000894291
0.0807206
-0.153092
0.0723713
0.156071
-0.34487
0.188798
0.01236
-0.00485224
-0.00750778
0.0201182
-0.0015141
-0.112099
0.0724111
0.0510502
0.0559345
0.0354843
-0.00446971
-0.0310146
-0.0323277
0.403364
-0.0830103
-0.0508089
-0.0970311
0.423392
0.0278635
0.103058
-0.130921
-0.00168191
-0.00263044
0.00431235
0.0730811
-0.00765045
-0.0654306
-0.320798
0.165587
-0.144523
0.176765
-0.0322413
0.00128407
0.133703
-0.134987
0.123125
-0.0655193
0.000631455
0.019761
-0.0203924
0.176648
0.189638
-0.366286
0.100704
-0.0558404
-0.107984
0.079958
0.0280264
0.0959773
0.0675059
-0.163483
-0.0474541
-0.0605302
0.088105
-0.228172
0.140067
-0.146186
0.373769
-0.227582
0.0453127
-0.108007
0.112142
-0.40602
0.293878
-0.130093
0.290035
-0.159942
-0.173819
0.0146271
-0.192499
-0.221386
0.0771215
-0.0959741
0.227765
-0.13966
-0.206118
-0.103603
0.373879
-0.211587
-0.162291
-0.0115478
0.286817
-0.157099
0.0207706
-0.0313568
-0.00428134
-0.00232754
0.00660888
-0.069124
0.265509
0.240878
-0.130689
-0.0415496
0.0892844
-0.0477348
-0.00431527
-0.00562773
0.009943
-0.186535
-0.0258014
-0.10341
0.0527702
-0.117533
0.257351
0.0908078
-0.154261
0.0272626
0.149748
-0.177011
0.0732673
-0.101807
0.0285401
0.0157756
-0.0162607
0.00048511
-0.225945
-0.0447313
0.270676
0.0543618
0.0111491
-0.195152
0.0118062
0.183346
-0.130967
0.0479563
0.0842712
-0.31022
-0.0349084
0.130886
0.338151
-0.18208
-0.0011647
-0.00129915
0.00246384
-0.0747578
0.0332082
-0.00305885
-0.00218521
-0.0240509
0.0191143
0.00493667
-0.036744
0.115724
-0.0789798
-0.0146883
0.0204356
0.102226
-0.0567873
-0.0454384
0.0315345
-0.0600741
0.0285396
-0.370912
0.228403
0.142509
-0.0237101
-0.00734121
0.0310513
-0.0486966
0.129463
-0.0561246
-0.0591673
0.115292
0.0690752
-0.0250501
0.0510733
0.00878882
0.0879239
-0.0603074
-0.0276165
0.187698
-0.172717
-0.0149812
0.360844
-0.248702
0.064391
-0.0483419
-0.0160491
-0.0368669
0.0902893
-0.0534224
0.197465
-0.175944
-0.0215209
-0.198525
-0.187239
0.385764
-0.481504
0.526231
-0.0447268
-0.0266792
0.0895095
-0.0628303
-0.181422
0.334409
-0.152987
0.0211449
-0.00429113
-0.0168538
-0.011314
0.00963209
0.00975775
-0.010488
0.000730237
-0.000979083
-0.0254325
-0.0827428
-0.00376438
0.0865072
0.0591707
-0.115295
0.116089
-0.0428216
0.00792241
-0.0145492
0.00662679
-0.151723
-0.0219372
0.00409941
0.0170455
0.0229592
-0.00770685
-0.0152523
-0.0248815
-0.0785284
0.0565445
-0.0934114
-0.0590898
0.105362
-0.0462725
-0.34314
0.191521
0.15162
-0.0324799
-0.0259554
-0.1157
0.0854695
0.0302309
-0.0247289
0.0511452
-0.0131999
-0.00209517
0.0671912
-0.0700887
0.0459551
0.00676094
-0.052716
-0.0730261
-0.0753697
-0.2665
0.0405549
-0.0493067
0.0860534
-0.0367467
0.0722468
0.0299789
0.115118
-0.0655984
0.0147985
-0.0191138
-0.0159497
-0.0490844
-0.0729676
-0.057999
0.0184292
-0.0126514
-0.010621
-0.156118
-0.0572291
0.0930963
-0.000740277
-0.00090401
0.0733911
-0.00292273
-0.0125413
0.015464
-0.0831346
0.0809328
0.00220182
-0.060545
0.0552414
0.00530362
0.157625
-0.162572
0.0049476
0.0321675
-0.0814742
-0.0155508
0.0126281
-0.0581691
-0.0539301
-0.134995
0.0791437
0.0558513
-0.0505121
0.11244
-0.0619281
0.166392
-0.0087671
-0.201675
-0.169237
0.0636057
-0.0320711
0.142644
-0.173905
-0.00548946
-0.0185615
-0.208508
0.212663
-0.00415552
0.189842
-0.0733179
-0.116524
-0.130321
-0.0434977
0.00845125
0.0230378
-0.031489
-0.403345
0.243484
0.0254596
-0.0699322
0.0444726
0.148226
-0.192642
-0.00250987
-0.146702
0.173964
-0.0153379
0.17402
-0.158682
0.00789521
-0.00235902
-0.00553619
0.00378326
-0.123053
0.267678
-0.144625
0.051641
-0.00112379
-0.0505172
0.0340326
-0.153952
0.11992
-0.000153301
0.0159289
-0.0134003
-0.0693426
-0.442075
0.024373
0.417702
-0.10268
0.0760011
-0.0444124
0.0791173
-0.0347049
-0.0328464
0.0915836
-0.0587372
0.0212437
-0.00415685
-0.0170868
-0.188871
0.241176
-0.0523049
0.0131859
-0.0127781
-0.000407762
0.00658957
-0.0108709
0.00375808
0.0317262
0.069089
-0.00137389
-0.0677151
0.000604746
0.00576107
-0.00636581
0.0892781
-0.16746
0.078182
-0.136733
-0.0240345
0.0732628
0.0766721
-0.149935
0.0728162
0.05436
-0.082317
0.027957
-0.124288
-0.114615
0.238903
-0.0919251
0.0397389
0.0521862
-0.00250021
-0.00207876
-0.0358586
-0.0798418
-0.162043
-0.182827
-0.248331
0.283159
-0.0348281
0.00319016
0.0226207
-0.0258108
0.26966
0.133856
-0.403517
0.233755
-0.356808
0.366014
0.0806035
-0.145236
-0.196193
0.00789521
-0.0186834
-0.0112931
0.0299766
-0.114333
0.056164
0.00188393
-0.00776357
-0.126692
0.0649127
-0.0195544
0.0487956
0.118671
-0.0111522
0.0102621
0.00089014
0.382911
-0.181125
0.0365064
-0.0612353
0.0229495
-0.0373552
0.0144057
-0.1761
0.0457789
-0.406663
0.266115
0.140549
-0.00506357
-0.00653264
0.00355228
-0.00495733
0.00140504
-0.431202
0.307266
0.123936
-0.148907
0.0758806
0.113853
-0.0394842
0.144175
-0.126301
-0.0178743
-0.00748351
0.0513886
-0.0439051
-0.271065
0.126235
0.144829
0.489765
-0.22913
-0.260635
0.172115
-0.410622
0.238507
-0.0981881
0.0733066
-0.049014
0.0855378
-0.0365238
-0.161829
0.112044
0.0497851
-0.408366
0.0975949
0.310771
0.284451
-0.151403
-0.133048
-0.00947175
-0.233027
0.223016
0.010012
0.10894
-0.107656
0.0523312
-0.300662
0.050223
0.0225133
-0.0727363
-0.110574
-0.0584424
0.169017
0.165215
-0.02104
-0.347764
0.0215804
0.326184
-0.200616
0.357203
-0.156587
0.32585
0.163915
0.00622585
-0.000252564
0.00581841
0.00847688
-0.0689562
0.0604793
0.00605726
-0.0122642
0.0152614
-0.01463
-0.101035
0.0478892
0.339165
-0.152305
-0.18686
0.00439258
0.214061
0.0615077
-0.0883736
-0.0734556
-0.0622486
-0.0636213
-0.000906764
-0.0785408
0.0794476
-0.0556633
-0.064135
0.119798
-0.156582
0.0978736
0.0587086
-0.00507048
0.0510255
-0.0774883
-0.0423333
0.119822
0.173688
0.0140096
-0.0714269
0.287214
-0.215788
-0.416495
0.229783
-0.0184163
-0.0614571
0.0954261
0.0846367
0.0535541
0.143911
-0.0492841
0.14471
0.0478302
0.120328
-0.168159
-0.0975612
0.0608172
-0.051379
0.0598559
-0.258832
0.141299
-0.0395982
0.0715665
-0.0319683
0.0679614
0.146246
-0.214207
0.0792511
-0.0290281
0.0739326
-0.0484731
-0.0492113
0.0614597
-0.0122483
-0.234593
-0.0173697
0.251962
-0.180749
0.0221819
-0.0704386
0.0482566
-0.335938
-0.0724282
-0.00116463
0.056406
-0.0254557
0.00211264
0.0233431
-0.349567
0.391939
-0.237292
0.0287848
0.239301
-0.0465799
-0.192721
0.050307
-0.00346296
-0.0468441
0.0402896
-0.0173401
0.00707557
-0.00754358
0.0695632
-0.148793
0.0792302
-0.0294578
-0.0297392
0.0591969
0.0820213
-0.316614
0.0168714
-0.0058894
-0.010982
-0.0213563
0.17951
0.302743
-0.482253
-0.0554181
0.0430095
0.0124086
0.129553
-0.00770546
-0.121847
0.0679199
-0.178494
0.235961
0.109885
-0.345845
0.145954
-0.150345
0.00439101
-0.0794584
0.315419
-0.0763947
0.0632701
0.0131245
0.0993604
-0.448927
-0.541456
0.354827
0.18663
-0.00383143
0.00571536
0.0587102
-0.104418
0.0457081
-0.111507
-0.159557
0.0656536
0.00153758
0.0405413
-0.388305
-0.00363352
0.00319982
0.000433704
0.155937
-0.160136
0.00419993
-0.220025
0.230539
-0.298144
0.0699722
-0.163662
-0.179479
0.00041288
-0.0325802
0.0321673
-0.271739
0.200312
0.137535
0.0763735
0.0357311
-0.112105
0.000124787
0.142881
-0.143006
0.0377445
-0.048112
0.0103675
-0.107907
0.0573947
-0.205706
0.287728
-0.000457273
-0.000591078
0.00104835
-0.0470447
0.0985578
-0.051513
0.152111
-0.113178
-0.0389332
0.272219
-0.417622
0.145403
0.20308
-0.185084
-0.0179957
0.384146
-0.184752
0.202804
-0.34899
0.159764
-0.0867374
-0.0730267
0.235673
0.113014
-0.192209
0.0610493
0.131159
-0.0308809
0.0852409
0.0843984
-0.0853052
-0.0997326
0.0668862
0.0683307
-0.0143403
-0.0539904
0.116181
0.0382379
0.0379945
-0.0970843
0.0632605
0.0454215
-0.108682
-0.00470445
0.35162
-0.557404
0.205785
0.0122854
0.00682888
0.0705729
-0.048391
0.0504299
0.00972174
-0.0284052
0.140295
-0.183074
0.0427793
-0.172063
-0.126081
0.0101242
-0.00614555
-0.00397863
-0.215398
0.00903815
0.20636
-0.193457
0.232436
-0.0389787
0.0187637
-0.0178009
-0.000962746
0.0857695
0.0663416
0.0285999
0.162317
0.0486241
0.210048
0.147155
-0.136902
0.0550153
0.081887
0.168048
0.111966
-0.280014
0.0853362
0.128618
-0.213954
-0.00625662
0.00392907
0.0042994
-0.00638291
0.00208351
0.0251818
-0.197026
0.171844
0.184278
-0.0241356
-0.160142
0.0223613
0.162683
-0.0167282
0.217733
-0.149772
-0.0130584
0.162807
0.0027768
-0.0551733
0.0523965
-0.173536
0.193011
-0.0194752
-0.131897
-0.164004
0.295901
0.0372864
0.0167134
0.00273885
0.00104442
0.265665
-0.0331358
-0.0321337
0.0908439
-0.260652
0.0671949
0.184515
-0.0221981
-0.0522317
0.0885811
-0.0363494
0.0210821
-0.00879674
-0.000184034
0.069273
0.546008
-0.283288
-0.26272
0.103478
0.0734286
-0.0824953
0.00906667
0.0431175
-0.0615893
0.0219912
0.0198323
-0.168043
0.318672
-0.150629
-0.23413
0.18755
0.00143408
0.00669005
-0.00812413
-0.260388
0.137758
0.122631
-0.0868856
0.0297025
0.0571831
0.510427
-0.212431
-0.297996
0.0454905
-0.0552821
0.00979157
0.0507207
-0.0277721
0.0506576
-0.0502447
0.0758866
-0.0539026
-0.021984
-0.283803
0.0877868
0.0538541
-0.0510773
-0.111278
-0.0905513
0.201829
0.0142389
0.00101371
0.000466944
0.112458
0.176142
-0.288599
-0.299442
0.478952
0.0510367
-0.0132922
0.0542676
0.047615
-0.101883
-0.0905829
-0.0503137
-0.0713771
-0.103483
0.094904
-0.27772
0.182816
0.0209707
-0.00982104
-0.0111496
-0.294454
0.172769
0.121684
-0.0651178
0.0562064
0.00891138
0.216227
0.0682234
-0.16764
0.020939
0.0404216
-0.260447
-0.0260694
0.096096
-0.0700266
-0.37879
0.137251
0.241539
0.0636085
-0.127884
0.0642759
0.000522072
-0.00168677
-0.0153975
0.0240367
-0.00863923
-0.373922
0.153261
-0.030308
0.106682
-0.199893
-0.174029
0.171036
-0.0150996
0.0553673
-0.0814367
-0.0666751
-0.0202105
-0.00209678
-0.00762776
0.00972454
0.117529
-0.323236
-0.0301169
0.0380393
0.0093736
0.000750582
0.0282954
-0.243076
0.21478
0.0723585
0.00121515
-0.0735737
-0.316608
-0.0900559
0.0151773
0.208298
-0.182318
-0.0259799
0.00557318
0.250177
-0.329635
0.0410167
-0.0421404
-0.0151624
-0.00604305
0.0212055
0.101344
-0.177366
-0.195362
0.372728
-0.411411
0.317746
0.0936651
0.199386
0.0417897
0.157228
-0.0816647
-0.0755635
0.285473
0.260536
-0.105239
0.184538
-0.0792995
0.200462
-0.223629
0.0231678
0.0272155
0.169882
-0.197098
0.00754555
-0.00324615
-0.322032
0.252718
0.0693144
-0.0630831
0.181348
-0.48079
-0.213224
0.241519
-0.00629726
0.0054586
0.000838656
-0.0046701
0.00527485
-0.0584853
0.0510018
-0.202198
-0.119834
-0.0168484
0.00702735
-0.328999
0.147578
-0.17967
0.0170974
-0.208157
0.303061
0.178012
0.0528503
-0.230862
0.00984656
-0.0604972
-0.0305608
-0.0114519
0.0420127
-0.316501
0.190625
0.125876
-0.405894
0.207369
0.103268
-0.0490002
-0.16826
0.320251
-0.151991
-0.218866
0.208631
0.0102345
0.0169338
-0.0640356
0.0471018
0.214916
0.0925087
-0.307425
-0.428193
0.280969
0.147224
-0.308016
0.139756
0.267247
0.178044
-0.157134
-0.0209095
0.212253
0.161625
0.0370394
0.0232135
-0.275652
0.145559
-0.0431726
-0.0487524
-0.185706
0.0474228
0.138283
-0.00886555
0.00803287
0.000832684
-0.0403473
0.063122
-0.0227747
0.155994
0.00885015
-0.164844
-0.0669725
0.336633
-0.162301
-0.0173691
-0.0502234
0.0955361
-0.357691
0.262828
0.0948632
0.0702172
-0.127583
0.0573657
-0.233905
-0.310972
-0.230484
0.020627
-0.00268527
-0.00647609
0.0229526
-0.0164765
-0.214239
0.222543
-0.00830389
-0.196495
-0.206849
-0.172013
0.195849
-0.023836
-0.178038
0.354686
0.0179074
-0.00166586
-0.0046314
-0.0241495
-0.00349386
0.0276433
-0.090015
0.0693485
0.0206665
-0.141706
0.0758345
0.0658714
0.0137846
-0.0709056
0.057121
-0.0941286
-0.117833
0.211962
0.0409898
-0.0964425
0.0554527
0.179018
-0.102856
-0.0761624
0.0661914
-0.117652
0.0514603
0.106264
-0.0567009
-0.0495635
-0.00172694
0.0169884
0.155317
-0.39208
0.199581
-0.0012632
-0.00760236
0.17588
0.142121
-0.318001
0.375908
-0.110145
-0.265763
-0.00531197
0.00674604
0.208195
-0.180979
-0.00976802
0.0101683
-0.000400247
-0.0295406
-0.162668
-0.0949033
-0.34257
0.437474
0.0706917
0.345743
-0.0955655
0.0799411
-0.0245738
-0.00190912
-0.00940488
0.119242
-0.015546
-0.103696
0.317723
-0.138396
-0.179327
-0.0346718
-0.151034
0.277912
-0.404754
0.126843
0.0460232
-0.0962444
0.0502213
0.00237746
0.000868014
-0.0932588
0.127291
0.0623963
-0.079446
0.0170497
-0.0898664
0.391281
-0.146448
-0.0966213
0.243069
-0.0609457
0.181304
-0.0710669
-0.161961
-0.203302
-0.202592
0.0401684
0.0596642
-0.139866
-0.120522
-0.0742166
0.0338693
0.0311018
0.0253968
-0.0564986
-0.113203
0.0878351
0.0253682
0.0329941
-0.206949
0.176668
-0.324029
0.147361
0.320395
0.00360927
-0.324004
-0.114178
0.0527061
0.0614724
-0.187652
-0.191139
-0.00259498
-0.00103854
-0.061414
-0.0754883
0.157355
-0.0170603
-0.100488
0.0502647
-0.0354371
-0.0777662
0.0104671
-0.00070934
-0.406331
0.188053
0.218278
0.00704776
-0.00956237
0.00251461
-0.19902
-0.180148
0.379168
0.00589823
0.000327623
-0.0580312
0.147309
0.0554601
-0.0441275
-0.0113326
0.0997829
-0.0596145
0.0484413
0.0753673
0.0843967
-0.107007
-0.261885
0.368892
-0.0691494
-0.0797573
0.161998
-0.0725281
0.168368
-0.278753
0.110386
-0.0188477
0.0220378
0.00425554
0.00810447
0.151814
-0.0710839
-0.134686
0.164452
-0.0297656
-0.413133
0.209831
-0.0864739
0.0274012
0.192051
-0.221264
0.0292129
0.444273
-0.195004
-0.249269
-0.00979615
-0.194208
0.117866
0.0763427
-0.0550737
-0.0599396
0.0115977
-0.234792
-0.171539
0.0337537
-0.287663
-0.123749
-0.137559
-0.184503
0.322062
0.0593825
-0.0751689
0.0157864
-0.0872878
-0.0268907
-0.285873
0.467221
-0.0325133
0.0809116
-0.0483983
0.189861
0.102768
-0.0617779
0.0831018
-0.0207055
0.0028066
-0.00895215
0.0187005
-0.0172064
-0.00149414
0.00611462
-0.000656016
0.0170652
0.00589399
0.108964
0.0605236
0.0569472
-0.0894604
-0.225092
-0.145899
0.0767499
0.0504298
-0.000486185
0.00185241
-0.00136623
0.149976
-0.0204231
0.02016
0.0990817
0.00546454
0.0262887
-0.0244263
-0.00186241
0.000272164
0.0321217
-0.0323939
0.0479689
0.039955
-0.00750788
0.0377782
-0.0302703
-0.174706
-0.039533
-0.126416
-0.149236
0.0874305
-0.0134979
-0.131743
-0.177643
0.309386
-0.00469487
0.00233585
0.122037
-0.0518199
0.195197
-0.211876
0.0166784
0.0208376
0.0304287
-0.0512663
-0.139927
0.0425793
-0.147686
0.132348
-0.020106
0.209481
-0.358046
0.251039
0.174838
0.15957
0.0554833
0.0285466
-0.0840299
0.142006
-0.0724427
-0.437481
0.171181
0.2663
3.2037e-05
-0.00628865
0.299492
-0.068679
0.100477
-0.0317979
-0.0551624
0.00650869
0.0437984
-0.118001
0.203337
0.00556745
0.0498927
0.126884
-0.238162
-0.419738
-0.0617666
-0.162455
0.0277693
0.0254088
-0.0318849
-0.0603316
0.106355
-0.175987
-0.261494
-0.312359
0.174799
-0.17096
0.491355
-0.117777
0.0586101
-0.0254456
0.216272
-0.190827
0.00819864
0.000675765
-0.00887441
0.0679105
0.0281856
-0.0273003
0.0288617
-0.00156142
-0.0128874
0.0106417
-0.0743351
0.0730187
-0.0592341
-0.0786157
0.0379198
0.0406958
-0.217972
0.370142
-0.152169
-0.159135
0.191405
-0.0322706
0.349056
-0.177926
-0.17113
0.0609695
-0.200325
0.139355
0.0131812
-0.00498253
0.191999
-0.191873
0.378819
-0.186946
0.157588
-0.154847
-0.0027407
0.0781876
0.00924288
0.19675
-0.212565
0.0158153
9.611e-05
-0.00986413
-0.0406831
0.0532238
-0.0125406
0.0598054
0.0527776
-0.112583
-0.0965027
-0.0452031
0.385626
-0.225307
-0.160319
0.452315
-0.233949
-0.218365
0.0729218
-0.0698162
-0.00310562
-0.471981
0.186108
-0.192723
0.176797
0.0159254
-0.153695
-0.0289614
-0.216973
0.191528
-0.133975
-0.17404
0.29554
-0.288472
-0.00706815
-0.0183928
0.0249972
-0.00660435
0.0277897
-0.0187389
-0.0090508
0.112635
-0.264037
-0.199254
0.00661241
-0.0167638
-0.0663709
-0.0289723
0.294197
0.327037
-0.152097
-0.17494
0.374876
0.151355
-0.0777245
-0.0281961
0.000895731
0.0433846
0.0383644
-0.0393783
-0.0556624
0.0950407
0.00979311
-0.00274535
0.280331
-0.11385
-0.16648
0.106865
-0.0621792
-0.0446863
0.146021
-0.27155
0.125529
0.169503
-0.0978111
0.0577938
0.0688067
0.00411509
-0.0595547
0.0103433
0.273776
-0.162545
-0.11123
-0.0177944
0.0187951
-0.00100071
-0.137732
-0.131588
0.269321
-0.110362
0.158192
-0.141408
0.04322
0.103815
-0.250263
0.0190567
0.337459
-0.356516
0.0381865
-0.0457053
0.11159
-0.0658844
-0.0606966
0.279881
-0.219184
-0.0706212
0.110644
-0.0400227
-0.0175361
0.0259873
0.0370527
0.0523812
0.0199774
-0.00257879
0.103845
-0.101267
-0.0855565
-0.226802
0.241967
-0.019265
-0.222702
-0.318283
0.120409
-0.217076
-0.223029
0.440105
-0.0124315
-0.00883636
0.0212679
0.000899562
0.0431138
0.0204531
0.114048
-0.134501
0.157469
-0.280573
-0.0945523
0.0553313
0.206544
-0.42234
0.215796
-0.000858845
0.00441354
-0.00355469
0.0300322
0.265508
0.204501
0.181124
-0.0669598
0.0130572
-0.18688
0.364502
-0.177622
0.0694023
-0.139228
0.069826
-0.0881488
0.0197166
0.261017
-0.0902383
-0.170778
0.270577
-0.488662
0.218085
0.158828
0.143714
-0.167411
0.149646
0.0177646
0.0725936
-0.0556598
-0.00448682
0.0192853
0.0310363
-0.0139124
-0.0171239
-0.362486
0.246599
0.115887
0.00724204
-0.186929
-0.205151
-0.0477708
-0.017347
-0.0802208
-0.000894135
0.0811149
0.282148
-0.16969
0.175362
-0.165749
-0.00961237
-0.181651
-0.0524798
0.0688546
-0.0612918
-0.0383595
0.0996513
0.278091
-0.0698964
-0.00360795
-0.0852535
0.0382088
-0.236948
0.539691
-0.0148602
-0.00140044
0.0661921
0.0195372
-0.0857293
0.144779
0.124311
-0.26909
-0.0252429
0.420593
-0.214049
0.152841
-0.00541756
0.00158613
0.0182649
0.0568301
0.0339072
-0.178843
0.0383388
0.0249341
-0.0632729
0.181697
0.14534
0.0600482
-0.00508685
-0.0549613
0.371579
-0.270514
-0.178813
0.449326
-0.166016
0.336734
0.173693
-0.142262
0.134556
-0.402821
0.109839
0.292983
0.0752608
0.18887
0.0892212
0.0697979
-0.0517979
-0.0560467
-0.016462
0.102499
-0.036308
-0.011617
-0.222967
0.234584
0.00902211
0.0640233
-0.103402
-0.0683135
0.105877
-0.0375632
0.183891
-0.171049
0.196231
0.0583116
-0.0618424
0.00353079
0.252319
0.1581
0.158162
-0.316263
0.0600605
-0.0204157
0.0812559
-0.0608401
-0.182951
-0.141275
0.324226
0.100012
-0.154286
0.0542735
-0.231917
0.2203
-0.0595176
-0.0666009
0.126119
0.000259445
0.0020025
-0.00226194
-0.34426
0.204401
0.139858
-0.207882
0.367395
-0.159513
-0.163319
0.341383
-0.178064
0.0857259
0.184743
0.185811
-0.370554
0.176149
-0.378878
0.202729
-0.237335
0.413485
0.102152
-0.0260061
-0.0761462
-0.143465
-0.167788
0.311253
-0.0619137
0.236483
-0.17457
-0.319949
-0.0828726
-0.142427
0.0664984
0.0759285
-0.0736969
-0.157165
0.169567
0.0444939
-0.0127375
0.0727856
-0.258841
0.036682
0.222159
-0.010455
0.00835824
0.104516
0.0528633
-0.157379
0.0779632
0.23349
-0.311454
0.00683048
-0.000932249
-0.0116604
-0.0468249
0.0397443
-0.110365
-0.00768469
0.0110027
-0.00331801
-0.190553
-0.0742917
-0.00358676
0.00272792
-0.0235119
0.207664
-0.184152
-0.0486355
-0.0113041
0.0826997
0.0177772
0.229213
0.139688
-0.368901
0.160097
-0.0555812
0.0153293
-0.0440231
0.0286939
0.0640645
-0.00575284
-0.00412021
0.0905571
0.118142
0.106619
-0.224761
-0.017774
-0.00788893
0.025663
-0.204067
0.0813474
0.12272
-0.053922
0.126664
-0.0727418
-0.0258267
0.0466644
0.102237
-0.0498072
-0.102486
-0.181858
0.422576
-0.261399
-0.161177
-0.157479
-0.0167246
0.174203
0.233185
-0.461963
0.228777
0.183041
0.0589263
0.202172
-0.181868
-0.0203039
-0.0270298
0.0653687
-0.0853391
-0.0513379
-0.0647585
0.102753
0.0484885
-0.0601489
-0.0680585
-0.0733496
0.0304153
-0.00265103
-0.0277643
-0.00563682
0.010381
-0.00474417
0.352152
-0.35718
0.00502869
0.0172746
-0.0191837
-0.0521227
0.103671
-0.0515478
-0.0970409
-0.117742
0.214782
0.0564742
-0.000828696
0.00140608
-0.0197989
-0.0136096
0.000409755
-0.0482008
0.102519
-0.0543184
0.126521
-0.0571186
-0.199428
0.369609
-0.170182
0.0701982
0.230947
0.0740171
-0.0723354
-0.00168172
0.0314808
0.0424421
-0.0739229
-0.136148
-0.442075
0.0491469
-0.109721
0.0605743
0.0209977
0.0821158
0.0200366
0.265638
0.0735263
0.223363
-0.246875
0.101712
0.149163
-0.0348658
-0.051608
-0.00836764
0.016673
-0.00830535
-0.0179477
-0.197142
0.206371
-0.00922904
-0.090363
0.218981
-0.0622482
-0.0656361
0.117178
0.172898
-0.290077
-0.471963
0.375176
0.0967861
-0.0895253
0.232936
-0.14341
-0.375723
0.18385
-0.0444545
-0.00365751
-0.0599627
-0.0966195
0.299829
0.0995381
-0.0170292
-0.0631915
0.201135
-0.176157
-0.0249776
-0.000522414
3.62294e-05
-0.000225914
-0.300425
0.168681
-0.0530195
-0.0233752
-0.0713275
-0.0471415
0.118469
0.18538
-0.185211
-0.000169199
-0.205545
-0.266417
0.0411653
-0.0882896
0.0471243
-0.2808
-0.212264
0.00240768
0.0225743
-0.0204616
-0.237444
0.17553
0.00569568
-0.0140633
-0.127137
0.0676198
0.0704011
-0.124323
-0.00287232
0.502529
-0.200632
-0.301897
-0.365601
0.188235
0.177435
-0.385317
0.0453222
0.0609423
-0.130189
0.0679405
0.0253799
-0.0437283
-0.00789614
0.0516244
-0.0237227
0.147743
-0.124021
-0.225121
0.130992
0.0629016
0.00590512
-0.0210058
0.150657
-0.129651
-0.0690841
0.0396263
0.286113
-0.125519
-0.160594
0.0231767
0.161101
0.0253078
0.00572854
-0.0494037
-0.0327118
0.143096
-0.0184662
-0.0103982
0.059853
0.0671944
-0.127047
0.149807
-1.71778e-05
-0.00526205
0.00527923
0.194296
-0.296781
0.00972875
-0.314443
0.1464
0.00296764
0.190375
0.164376
-0.354751
0.0181813
-0.0161415
-0.00203972
-0.127117
0.17454
-0.00840622
-0.00356516
0.0119714
-0.212863
-0.00482846
0.217692
0.00239956
0.0128957
-0.0152953
0.29692
-0.0801153
-0.216805
-0.000268297
0.241161
-0.0949154
-0.371608
0.0998692
0.0651152
-0.12448
0.0593651
-0.163094
0.322043
-0.158948
-0.071678
0.0375378
0.0723166
0.000764477
0.192819
0.15607
-0.34889
-0.0195405
-0.0624678
-0.0230045
-0.263974
0.186901
0.0770729
0.0363847
-0.150474
0.114089
-0.299621
0.182466
0.117154
-0.0153416
-0.0809028
-0.0115406
-0.00206906
-0.281617
0.06704
0.214577
0.0615367
-0.0657124
0.00417574
0.00664663
-0.0174288
0.0107822
-0.0115732
0.0323438
0.283479
0.15671
-0.440188
-0.00884057
-0.0248869
0.0337275
0.0156374
-0.159355
-0.206305
-0.0673756
0.273681
-0.00912852
-0.0216642
0.0307927
0.0595343
-0.122523
0.0629888
-0.168488
-0.200292
0.368781
-0.0822545
0.0323852
0.0498693
-0.00214122
0.0636779
0.378876
-0.149662
0.032742
0.00223258
-0.0349746
0.00493551
-0.00671973
0.00178422
0.116698
-0.0675916
-0.0491064
-0.0847744
0.211658
-0.0585661
0.115778
-0.0572124
0.000974894
0.0312017
-0.0888455
0.0576439
0.0570623
-0.0247581
-0.0637279
0.0884861
-0.0353876
-0.157335
-0.00957991
-0.174206
0.183785
0.154269
0.0142215
-0.16849
-0.0575736
-0.0324168
0.0899904
0.264239
0.237493
-0.501732
0.183991
-0.330261
0.14627
0.129548
-0.255964
0.321998
-0.368723
0.046725
0.209173
0.12407
-0.333243
-0.134684
-0.114607
0.0270697
-0.0199881
-0.00708155
-0.0163736
0.0166458
0.180515
0.00773269
-0.00197163
-0.0722817
-0.0627133
-0.0751848
0.0148774
0.22856
0.0683602
0.107482
-0.107358
0.120287
-0.0607529
0.0579021
0.0343621
-0.107797
0.0734353
0.0666568
-0.0205737
-0.0460832
-0.051632
-0.306414
-0.13374
-0.160714
0.0805361
-0.177577
0.405528
-0.263139
-0.14239
-0.255986
0.226956
0.0290306
-0.0396158
-0.154593
0.0200705
0.0566301
-0.0767006
-0.0775077
0.0576141
0.0198936
-0.0331885
-0.0491285
0.115525
-0.218328
0.200308
0.0180202
0.362673
-0.173035
0.152984
0.252544
0.18664
0.0743765
-0.00749083
-0.047442
0.0643608
-0.0169188
0.00271742
0.22171
0.135889
-0.302636
0.166747
0.175973
-0.0197635
-0.15621
0.006574
0.00230397
-0.00887797
-0.156624
0.135618
-0.00612449
0.27855
-0.130128
-0.148422
-0.0151083
0.0744908
-0.0052535
0.0080601
-0.170147
0.186921
-0.0167749
0.351268
-0.158448
-0.106063
-0.157911
-0.436041
-0.000794151
0.436836
0.107337
-0.0179063
-0.0443573
-0.048331
0.0926882
-0.0236175
-0.152327
-0.075323
0.0505648
-0.0768837
0.0692332
0.072445
-0.00954337
0.106953
-0.0575108
-0.0494421
-0.110519
0.130972
0.0631472
-0.0475848
-0.0310308
0.14474
0.13381
0.0374317
-0.0449396
0.176399
-0.00476567
-0.171633
0.0842594
-0.114567
0.137532
0.0048393
-0.142371
0.246473
-0.0918566
-0.154616
-0.0330831
0.198827
-0.165744
0.0993036
-0.117126
-0.160718
0.277844
0.0760657
0.0532641
-0.12933
0.123328
0.0101313
-0.0037983
-0.00633299
0.0658437
-0.261116
0.168308
-0.095045
0.171692
-0.121994
-0.0496978
0.000806743
0.0256751
-0.0264819
0.107207
-0.0423434
-0.00489361
0.00443634
0.257943
-0.0690733
-0.244976
-0.179352
0.424327
-0.0637028
0.181845
0.00932351
0.405868
-0.184804
0.275758
-0.130979
-0.156764
0.0884866
0.114948
-0.0551424
0.120744
-0.0595218
-0.0612226
-0.0514057
-0.0530126
-0.0753628
0.0421743
0.0260008
0.00644687