/*--------------------------------*- C++ -*----------------------------------*\
| =========                 |                                                 |
| \\      /  F ield         | OpenFOAM: The Open Source CFD Toolbox           |
|  \\    /   O peration     | Version:  v2012                                 |
|   \\  /    A nd           | Website:  www.openfoam.com                      |
|    \\/     M anipulation  |                                                 |
\*---------------------------------------------------------------------------*/
FoamFile
{
    version     2.0;
    format      ascii;
    class       surfaceScalarField;
    location    "150";
    object      phi_0;
}
// * * * * * * * * * * * * * * * * * * * * * * * * * * * * * * * * * * * * * //

dimensions      [0 3 -1 0 0 0 0];
oriented        oriented;


internalField   nonuniform List<scalar> 
27668
(
0.0649315
0.0576204
-0.122552
0.0368388
-0.0667733
0.0299345
0.326361
0.14983
-0.0627068
-0.0341454
0.0968522
0.344415
-0.197873
-0.146542
-0.075915
0.148276
-0.072361
-0.130465
0.0894331
0.041032
-0.40615
0.403314
0.00283589
-0.0413765
-0.0392175
0.080594
-0.0649898
0.0229002
0.0420896
0.298016
-0.195274
-0.102742
0.00200186
0.448666
-0.261495
-0.187171
-0.0103403
0.00354666
0.201784
0.199397
-0.401181
-0.125884
0.0883256
0.037558
-0.0263962
0.00259202
0.0238042
-0.148401
0.0724862
-0.173658
0.179349
-0.005691
-0.00186512
0.00525579
-0.00339067
0.110189
-0.249293
0.139104
0.343011
-0.160521
-0.182491
0.00576029
-0.0288961
0.0231358
-0.153535
-0.0914838
0.245019
-0.139101
-0.230511
0.369612
0.0199119
-0.0291651
0.00925321
-0.0870672
0.0419738
0.0450934
-0.10039
0.264489
-0.164099
-0.0499692
-0.037098
-0.0617939
0.126725
0.0639878
-0.0593047
-0.00468305
0.0423736
-0.448524
-0.206869
0.216656
-0.00978711
-0.0518756
0.104877
-0.0530013
-0.0577386
-0.0727265
-0.0905783
0.0410878
0.0494905
-0.193379
0.392795
-0.199416
0.13073
0.167286
0.23253
0.111885
0.00707552
-0.0115971
0.00452162
0.049342
-0.0888443
0.0395023
0.0293421
-0.0553563
0.0260141
0.107002
-0.068457
-0.0385454
-0.0050794
-0.208862
0.0652502
0.143612
0.0382878
0.166004
-0.204292
0.180666
0.221063
-0.401729
0.065974
-0.00289216
-0.0630818
0.122405
-0.283935
0.16153
-0.397183
0.258081
0.260075
-0.493576
0.233501
-0.0798602
0.0751096
0.00475061
-0.0949493
0.0850012
0.00994805
0.0353531
-0.0831644
0.0478113
0.226778
0.116233
0.146298
-0.420918
0.27462
0.417261
-0.277952
-0.139309
0.445175
-0.0116484
-0.433526
-0.320182
0.0324129
-0.0818702
-0.0382624
0.120133
-0.0149307
0.0175614
-0.0026307
0.0781528
-0.041314
0.148821
-0.24921
0.139818
-0.293353
-0.0938375
0.0349295
0.0589081
0.0440288
-0.0813104
0.0372816
-0.264844
-0.0553382
-0.031265
0.187497
-0.156232
-0.0605801
-0.00335176
0.0639319
-0.370493
-0.107053
0.477546
-0.193228
0.109962
0.083266
-0.0188311
0.0975418
-0.0787107
0.0641985
0.00177546
-0.018662
-0.0762872
0.405227
-0.198238
-0.206989
0.106291
-0.0569494
-0.159864
0.399368
-0.239504
0.371037
-0.224739
-0.0492276
-0.0531943
0.102422
-0.123644
-0.0695842
-0.010386
0.00852092
-0.146832
0.185119
0.275569
-0.123104
-0.152465
0.0295122
-0.00960024
-0.191988
-0.0148801
0.0670797
-0.00309195
0.0331955
-0.403688
-0.00524768
0.00324876
0.00199891
-0.288416
0.37155
-0.0831337
-0.140899
0.0807269
0.0601719
-0.0634549
-0.0530273
0.116482
0.0841703
-0.0488172
-0.132053
-0.0768097
0.0463006
0.0211473
-0.0674479
0.059891
-0.0506763
-0.0092147
0.258468
0.0194806
-0.277948
0.0152528
-0.0139106
-0.0013422
0.196386
-0.315926
0.11954
-0.00864946
0.00798937
0.000660086
-0.101773
0.049897
-0.308687
0.0202706
0.0180147
0.42716
-0.177097
0.0894777
0.087619
0.169499
-0.0973593
-0.0721399
0.0524275
-0.101655
-0.205666
0.210943
-0.00527629
0.0358704
0.0648778
-0.100748
0.0185811
-0.0182762
-0.000304929
-0.12378
-0.147724
0.271504
-0.0590928
-0.0347448
0.096017
-0.108615
0.0125982
0.00186713
-0.0167979
-0.194288
-0.181767
0.376055
-0.108814
-0.0682827
0.0367898
0.0473805
0.217378
-0.0588383
-0.15854
-0.00826131
-0.000388143
-0.118353
0.0364826
0.0807286
0.0716964
-0.152425
-0.381064
0.187685
-0.0114098
0.00183873
-0.0905753
-0.150851
0.241427
-0.309722
0.14053
0.169192
0.00540099
0.090616
0.0057703
-0.0231855
0.0174152
-0.134848
0.173126
-0.0382777
0.180067
-0.144937
-0.0351301
0.0495173
-0.117376
0.0678587
-0.0549387
-0.0356395
0.1386
-0.358226
0.219627
0.446618
-0.469697
0.0230796
0.0453093
0.0369394
-0.0822487
-0.0105833
-0.013703
0.0242864
0.154412
-0.134287
-0.0201248
-0.011778
-0.0488021
0.378326
-0.118251
0.0448784
-0.11251
0.0676318
0.140709
-0.216517
0.0655069
-0.0238442
-0.0416627
-0.0693394
0.027963
-0.22595
-0.0371098
0.263059
0.192869
0.224392
0.0029518
-0.0102985
-0.396167
0.148376
0.247791
-0.159192
-0.0168966
0.176088
0.0180243
0.0593554
-0.0773797
0.0873462
-0.0505564
0.348688
-0.196017
-0.152671
-0.0402585
-0.0673243
0.107583
-0.183247
-0.0224191
-0.160774
0.0436459
0.117128
-0.155213
0.302543
-0.14733
0.000703369
-0.00455875
0.00385538
0.0105114
0.247956
-0.220662
-0.175505
0.00596148
-0.00533096
-0.000630519
-0.170426
0.0355778
0.329294
0.119372
-0.174861
0.110388
0.0644731
-0.0396878
0.0985992
-0.0589114
0.0665382
-0.0202376
0.292257
-0.169852
0.129716
-0.305216
0.1755
0.326544
-0.187944
-0.000471583
0.0075471
-0.060727
0.0817567
-0.0210298
0.301416
-0.493064
0.191648
0.049536
0.0516438
-0.10118
0.065628
0.0370744
-0.102702
0.250455
0.154772
-0.133824
0.0998997
0.0339243
0.0101766
-0.00722481
-0.0347769
0.0864451
-0.0516682
-0.166744
0.159956
0.00678823
-0.341431
0.18091
-0.00588256
0.00788441
0.0912771
0.126101
0.0807676
0.0733946
-0.154162
-0.00165294
0.00306057
-0.00140763
0.074379
-0.136695
0.0623164
0.0264023
-0.0725053
0.046103
0.0875627
-0.0422534
-0.212339
0.0203509
-0.0152888
0.000336347
0.0149525
-0.0506404
0.113652
-0.0630115
-0.0583979
0.0341192
0.0242787
-0.00620922
-0.0027854
0.00899462
-0.413885
0.286717
0.127169
0.0538648
-0.0886417
0.120361
-0.252346
0.131985
0.164604
-0.255179
-0.0500822
0.0996182
0.0179283
-0.018826
0.000897635
0.0807241
-0.153092
0.0723681
0.156073
-0.344871
0.188798
0.0123799
-0.00486408
-0.0075158
0.020094
-0.0015129
-0.112098
0.07241
0.0510234
0.055979
0.0354385
-0.00445513
-0.0309834
-0.0323279
0.403364
-0.0829783
-0.0508456
-0.0970312
0.423392
0.0278591
0.103062
-0.130921
-0.00167568
-0.00263043
0.0043061
0.0730914
-0.00767565
-0.0654157
-0.3208
0.165587
-0.144524
0.176768
-0.0322436
0.00128254
0.133704
-0.134987
0.123147
-0.0655265
0.0006257
0.0197593
-0.020385
0.176648
0.189638
-0.366286
0.100706
-0.0558276
-0.10799
0.0799483
0.0280412
0.0959874
0.0674997
-0.163487
-0.0474714
-0.0605181
0.0881066
-0.228174
0.140067
-0.146184
0.373768
-0.227585
0.0452788
-0.107986
0.112142
-0.406019
0.293878
-0.130094
0.290036
-0.159942
-0.173822
0.0146298
-0.192501
-0.221385
0.0771491
-0.0959801
0.227767
-0.13966
-0.20612
-0.103601
0.37388
-0.211588
-0.162292
-0.0115558
0.286816
-0.157101
0.0207879
-0.0313713
-0.00428298
-0.00233736
0.00662034
-0.0691236
0.265509
0.24088
-0.130691
-0.0415336
0.0892729
-0.0477393
-0.00431914
-0.0056246
0.00994374
-0.186536
-0.025803
-0.103428
0.0527874
-0.117535
0.257353
0.0908112
-0.154266
0.027265
0.149749
-0.177014
0.0732771
-0.101817
0.0285396
0.015761
-0.016245
0.000484014
-0.225945
-0.0447305
0.270675
0.0543874
0.0111195
-0.195155
0.0118096
0.183346
-0.130959
0.0479802
0.0842719
-0.310221
-0.0348956
0.130883
0.338152
-0.182079
-0.00114546
-0.00129911
0.00244457
-0.0747491
0.0332155
-0.00306148
-0.0021862
-0.0240704
0.0191336
0.0049368
-0.0367611
0.115734
-0.0789726
-0.0147029
0.0204632
0.102217
-0.0567752
-0.0454422
0.0315215
-0.0600896
0.028568
-0.370912
0.228404
0.142508
-0.0237025
-0.00732989
0.0310324
-0.0486976
0.129465
-0.0561261
-0.0591624
0.115289
0.0690762
-0.0250474
0.0510675
0.00882348
0.0879626
-0.0603535
-0.0276092
0.187699
-0.17272
-0.0149791
0.360844
-0.248702
0.0643523
-0.0483357
-0.0160166
-0.0368713
0.0902838
-0.0534125
0.197468
-0.175946
-0.0215219
-0.198526
-0.187239
0.385765
-0.481504
0.526231
-0.0447268
-0.0266681
0.0895091
-0.062841
-0.181421
0.334411
-0.15299
0.0211043
-0.00427609
-0.0168282
-0.0113081
0.00963245
0.00976263
-0.010491
0.00072838
-0.000972
-0.0254242
-0.0827451
-0.00377186
0.086517
0.0591674
-0.115294
0.116099
-0.0428221
0.00791338
-0.0145384
0.00662501
-0.151724
-0.0219339
0.00408799
0.0170164
0.0229571
-0.00769887
-0.0152582
-0.0249003
-0.0785275
0.0565375
-0.0934088
-0.0590766
0.105367
-0.0462905
-0.343142
0.191523
0.151619
-0.0324545
-0.0259435
-0.115707
0.0854447
0.030262
-0.0247435
0.0511458
-0.0131963
-0.00209254
0.0671805
-0.0700726
0.0459252
0.00679935
-0.0527245
-0.0730351
-0.0753662
-0.266499
0.040554
-0.0492814
0.0860427
-0.0367613
0.0722518
0.0299657
0.115126
-0.0656082
0.0147971
-0.0191163
-0.0159109
-0.0490788
-0.072944
-0.0580146
0.0184278
-0.0126575
-0.0106237
-0.156121
-0.0572426
0.0931129
-0.00072852
-0.000924418
0.0733933
-0.00291915
-0.012532
0.0154512
-0.0831575
0.0809338
0.00222368
-0.0605376
0.0552108
0.00532686
0.157628
-0.162574
0.00494569
0.0321767
-0.0814581
-0.0155394
0.0126202
-0.0581732
-0.0539245
-0.134997
0.0791444
0.0558525
-0.0505112
0.11243
-0.0619192
0.166394
-0.00876595
-0.201675
-0.169237
0.0636117
-0.0320901
0.142642
-0.173907
-0.00548937
-0.018581
-0.208509
0.212664
-0.00415429
0.189852
-0.0733235
-0.116528
-0.130322
-0.0434998
0.00844111
0.0230385
-0.0314796
-0.403345
0.243482
0.0254359
-0.0699289
0.044493
0.148224
-0.192645
-0.00251078
-0.146703
0.173968
-0.0153407
0.17402
-0.158679
0.0078765
-0.00235458
-0.00552192
0.00376394
-0.123054
0.267679
-0.144625
0.0516521
-0.00115062
-0.0505015
0.0340255
-0.153956
0.119931
-0.000151786
0.0159128
-0.0133925
-0.0693526
-0.442075
0.024373
0.417702
-0.102677
0.0760092
-0.0444226
0.0791129
-0.0346902
-0.0328318
0.0915799
-0.0587481
0.0212294
-0.00415053
-0.0170789
-0.188873
0.241176
-0.0523027
0.0130478
-0.0126589
-0.000388957
0.00660263
-0.0108856
0.00374566
0.0316929
0.0690991
-0.00135615
-0.067743
0.000598878
0.00576084
-0.00635972
0.0892832
-0.167462
0.078179
-0.136735
-0.024039
0.0732732
0.0766678
-0.149941
0.0727994
0.0543792
-0.0823314
0.0279522
-0.124288
-0.114616
0.238904
-0.091952
0.039737
0.0522151
-0.00249167
-0.00206708
-0.0358358
-0.0798709
-0.162042
-0.182829
-0.248332
0.283159
-0.0348279
0.00318341
0.0226095
-0.0257929
0.269659
0.133859
-0.403517
0.233755
-0.356809
0.366014
0.0806035
-0.145238
-0.196193
0.0078765
-0.0186234
-0.0113136
0.029937
-0.114331
0.0561576
0.00188596
-0.00776852
-0.126709
0.0649148
-0.0194426
0.0487847
0.11867
-0.0111542
0.0102664
0.000887851
0.382911
-0.181127
0.0364983
-0.0612418
0.0229622
-0.0373581
0.0143958
-0.176102
0.0457799
-0.406665
0.266115
0.140549
-0.00506593
-0.0065312
0.00355281
-0.00495806
0.00140526
-0.431202
0.307268
0.123935
-0.14891
0.0758751
0.113869
-0.0394897
0.144175
-0.126302
-0.0178728
-0.00746126
0.0513744
-0.0439131
-0.271065
0.126235
0.14483
0.489764
-0.22913
-0.260635
0.172115
-0.410622
0.238507
-0.0981914
0.073291
-0.0490002
0.0855295
-0.0365293
-0.161826
0.112054
0.0497729
-0.408367
0.0975951
0.310772
0.284451
-0.151402
-0.13305
-0.00947016
-0.233029
0.223017
0.0100123
0.10894
-0.107657
0.0523311
-0.300663
0.0502354
0.0225095
-0.0727449
-0.110571
-0.0584478
0.169018
0.165219
-0.0210437
-0.347765
0.0215803
0.326184
-0.200616
0.357204
-0.156589
0.32585
0.163915
0.00621146
-0.000249989
0.00580971
0.00844231
-0.0689644
0.0605221
0.00607123
-0.0122805
0.0152551
-0.0146294
-0.101053
0.0478585
0.339165
-0.152303
-0.186862
0.00435634
0.21406
0.0615085
-0.0883642
-0.0734623
-0.0622526
-0.063631
-0.000910114
-0.0785166
0.0794267
-0.0556825
-0.0641236
0.119806
-0.156588
0.0978785
0.0587094
-0.00506376
0.0509889
-0.0775012
-0.0423134
0.119815
0.173691
0.0140086
-0.0714271
0.287215
-0.215788
-0.416495
0.229786
-0.0183907
-0.0614695
0.0954314
0.0846359
0.0535562
0.143912
-0.049281
0.144712
0.0478309
0.120329
-0.16816
-0.0975747
0.0608136
-0.0513941
0.0598364
-0.258833
0.141298
-0.0395861
0.0715575
-0.0319714
0.0679646
0.146245
-0.214209
0.0792605
-0.0290251
0.0739073
-0.0484714
-0.0492042
0.0614351
-0.0122309
-0.234593
-0.017369
0.251962
-0.180747
0.0221765
-0.070431
0.0482545
-0.335939
-0.0724284
-0.00116139
0.0563722
-0.0254092
0.00211366
0.0232955
-0.349565
0.391939
-0.237293
0.0287836
0.239301
-0.0465782
-0.192723
0.0502908
-0.00345287
-0.0468379
0.0402869
-0.0173247
0.00707619
-0.00754777
0.0695729
-0.148801
0.0792286
-0.0294487
-0.0297562
0.0592048
0.0820206
-0.316613
0.0168745
-0.00588418
-0.0109903
-0.0213212
0.17951
0.302743
-0.482253
-0.0554896
0.0430336
0.012456
0.129572
-0.00772322
-0.121849
0.0679241
-0.178495
0.235959
0.109887
-0.345845
0.145959
-0.150348
0.00438924
-0.0794606
0.315419
-0.076392
0.0632774
0.0131146
0.0993619
-0.448927
-0.541456
0.354827
0.186629
-0.00383403
0.00571999
0.0587172
-0.104419
0.0457014
-0.111507
-0.159558
0.0656357
0.00154474
0.0405416
-0.388306
-0.00364888
0.00321624
0.000432644
0.155942
-0.160137
0.00419494
-0.220028
0.230539
-0.298147
0.0699734
-0.163661
-0.179481
0.000408455
-0.0325715
0.0321631
-0.27174
0.200312
0.137537
0.0763832
0.0357187
-0.112102
0.000126461
0.142882
-0.143008
0.0377478
-0.0481009
0.0103531
-0.107902
0.0573908
-0.205707
0.287727
-0.000474617
-0.000594774
0.00106939
-0.0470432
0.09856
-0.0515168
0.152121
-0.11319
-0.0389311
0.272217
-0.417622
0.145405
0.203082
-0.185087
-0.0179949
0.384147
-0.18475
0.202806
-0.348989
0.159772
-0.086745
-0.0730265
0.235673
0.113015
-0.192208
0.0610488
0.131159
-0.0308739
0.0852531
0.0844111
-0.0853213
-0.0997249
0.0668931
0.0683056
-0.0143188
-0.0539868
0.116173
0.0382382
0.0380027
-0.0970793
0.0632746
0.0454084
-0.108683
-0.0047085
0.35162
-0.557405
0.205785
0.0123029
0.00683069
0.0706029
-0.0484264
0.0504278
0.00974114
-0.0283645
0.140298
-0.183075
0.0427773
-0.172064
-0.126083
0.0101341
-0.00615206
-0.00398202
-0.215398
0.00903618
0.206362
-0.193457
0.232437
-0.0389802
0.0187417
-0.0177818
-0.000959902
0.0857815
0.0663397
0.0286018
0.162317
0.0486257
0.210047
0.147157
-0.136912
0.0550051
0.0819073
0.168048
0.111966
-0.280015
0.0853391
0.128617
-0.213956
-0.00627445
0.0039371
0.00430757
-0.00639326
0.00208569
0.0251795
-0.197028
0.171848
0.184281
-0.0241377
-0.160144
0.0223513
0.162684
-0.016725
0.217737
-0.149772
-0.0130605
0.16281
0.00278073
-0.0551829
0.0524022
-0.173536
0.193013
-0.0194771
-0.131898
-0.164004
0.295902
0.0373835
0.0166123
0.00273252
0.00103141
0.265665
-0.0331345
-0.0321224
0.0908396
-0.260653
0.0671967
0.184517
-0.0221997
-0.0522045
0.0885757
-0.0363711
0.0210998
-0.00879693
-0.000209102
0.0693082
0.546008
-0.283288
-0.26272
0.103479
0.0734096
-0.0824928
0.00908323
0.0431197
-0.0615867
0.0220006
0.0198348
-0.168043
0.318673
-0.15063
-0.234131
0.187552
0.00143433
0.00669719
-0.00813153
-0.260389
0.137757
0.122632
-0.0868845
0.0297021
0.0571824
0.510427
-0.212431
-0.297996
0.0455283
-0.055295
0.00976672
0.0506847
-0.0277845
0.050654
-0.0502455
0.0758929
-0.053922
-0.0219709
-0.283804
0.0877867
0.053831
-0.0510502
-0.111281
-0.0905496
0.201831
0.014243
0.00100973
0.000465481
0.112459
0.17614
-0.288599
-0.299442
0.478952
0.0510204
-0.0132726
0.0542749
0.0476085
-0.101883
-0.0905781
-0.0503207
-0.0713681
-0.103493
0.0949044
-0.27772
0.182816
0.0209917
-0.00982036
-0.0111714
-0.294455
0.172769
0.121686
-0.065113
0.056214
0.00889906
0.21623
0.0682218
-0.167644
0.0209414
0.0404201
-0.260448
-0.0259556
0.0960089
-0.0700533
-0.378791
0.137251
0.24154
0.0636211
-0.127898
0.0642769
0.000521929
-0.00166739
-0.0154031
0.0240618
-0.00865872
-0.373923
0.153261
-0.0302965
0.10668
-0.199893
-0.17403
0.171037
-0.0150954
0.0554579
-0.0814135
-0.0666737
-0.0202108
-0.00209833
-0.00763541
0.00973374
0.117529
-0.323235
-0.0301117
0.0380251
0.00938263
0.000751455
0.0282971
-0.243078
0.21478
0.0723614
0.00121002
-0.0735714
-0.316608
-0.0900564
0.0151659
0.208303
-0.182319
-0.0259844
0.00558864
0.250175
-0.329636
0.0410215
-0.0421721
-0.0151549
-0.00603557
0.0211905
0.101347
-0.177366
-0.195362
0.372729
-0.41141
0.317747
0.0936633
0.199388
0.0417881
0.157233
-0.0816713
-0.0755618
0.285472
0.260535
-0.105242
0.184541
-0.0792994
0.200462
-0.223632
0.0231693
0.027214
0.169883
-0.197097
0.00755498
-0.00324741
-0.322034
0.252719
0.0693149
-0.0630876
0.181348
-0.48079
-0.213224
0.241521
-0.00630819
0.00546945
0.000838733
-0.00467018
0.00526906
-0.0584815
0.0510202
-0.202199
-0.119834
-0.0168623
0.00704194
-0.329
0.147579
-0.179672
0.0170987
-0.208157
0.303062
0.17801
0.0528536
-0.230864
0.00983646
-0.0605127
-0.0305689
-0.0114373
0.0420062
-0.316502
0.190625
0.125878
-0.405895
0.207369
0.103272
-0.0489967
-0.168259
0.320251
-0.151992
-0.218868
0.208629
0.0102387
0.0169541
-0.064055
0.0471009
0.214916
0.0925086
-0.307425
-0.428193
0.280971
0.147222
-0.308016
0.139757
0.267247
0.178048
-0.157135
-0.0209135
0.212254
0.161626
0.0370425
0.0232161
-0.275653
0.145559
-0.0431521
-0.0487999
-0.185706
0.0474207
0.138285
-0.00886783
0.00803586
0.000831963
-0.0403348
0.0631153
-0.0227805
0.155993
0.00885547
-0.164848
-0.066975
0.336634
-0.162302
-0.0173706
-0.0502667
0.0955454
-0.357692
0.262829
0.0948631
0.0702172
-0.127579
0.0573618
-0.233905
-0.310973
-0.230484
0.020614
-0.00268571
-0.00647889
0.0229722
-0.0164933
-0.214241
0.222545
-0.00830465
-0.196497
-0.206848
-0.172013
0.195851
-0.0238379
-0.178038
0.354686
0.0179116
-0.00166525
-0.00464294
-0.0241365
-0.00348647
0.0276229
-0.0900192
0.0693624
0.0206568
-0.141704
0.0758355
0.065868
0.013805
-0.0709232
0.0571182
-0.0941311
-0.117833
0.211964
0.0409976
-0.0964448
0.0554472
0.17902
-0.102855
-0.0761654
0.0661993
-0.117647
0.0514475
0.106283
-0.0567055
-0.0495774
-0.00172993
0.016985
0.155318
-0.392081
0.19958
-0.00126137
-0.00760645
0.17588
0.142121
-0.318001
0.375909
-0.110146
-0.265763
-0.00531964
0.00675397
0.208194
-0.18098
-0.00977349
0.0101763
-0.000402813
-0.0295355
-0.162673
-0.0949029
-0.342571
0.437474
0.0706929
0.345743
-0.0955676
0.0799702
-0.0245123
-0.00190262
-0.00940551
0.119242
-0.0155432
-0.103699
0.317724
-0.138396
-0.179328
-0.0346686
-0.151037
0.277912
-0.404755
0.126843
0.0460253
-0.0962479
0.0502227
0.00237942
0.000869346
-0.0932598
0.127285
0.0624046
-0.0794608
0.0170563
-0.0898649
0.39128
-0.146447
-0.0966223
0.24307
-0.0609424
0.181304
-0.0710672
-0.161962
-0.203303
-0.202592
0.0402348
0.0596649
-0.139865
-0.120524
-0.0742147
0.0338799
0.0310936
0.0254245
-0.0565181
-0.113203
0.0878323
0.0253703
0.0329962
-0.206948
0.176668
-0.324029
0.14736
0.320395
0.00360948
-0.324005
-0.114172
0.0526931
0.0614786
-0.187652
-0.191139
-0.00261177
-0.00103711
-0.061409
-0.0755033
0.157356
-0.0170584
-0.100482
0.050215
-0.0354402
-0.0777624
0.0104712
-0.000708591
-0.406332
0.188054
0.218278
0.00705484
-0.00957108
0.00251624
-0.199017
-0.180151
0.379168
0.0058895
0.000321959
-0.0580274
0.147311
0.0554255
-0.0441063
-0.0113192
0.0997997
-0.059565
0.0484413
0.07537
0.0844015
-0.107007
-0.261885
0.368892
-0.0691453
-0.0797649
0.161996
-0.0725186
0.168368
-0.278754
0.110386
-0.0188387
0.0220221
0.00426603
0.00811385
0.151816
-0.0710872
-0.13469
0.164453
-0.0297629
-0.413134
0.209831
-0.0864841
0.0273913
0.192053
-0.221264
0.0292108
0.444274
-0.195004
-0.24927
-0.00982797
-0.194211
0.117868
0.0763431
-0.0550897
-0.059901
0.0115653
-0.234793
-0.171539
0.0337302
-0.287663
-0.123747
-0.137561
-0.184502
0.322063
0.0593611
-0.075163
0.0158019
-0.0872884
-0.0268834
-0.285873
0.467221
-0.0325261
0.0809247
-0.0483987
0.189859
0.102773
-0.0617752
0.0831201
-0.0207155
0.00280941
-0.00896147
0.0186795
-0.0171885
-0.001491
0.00612302
-0.000653566
0.0170695
0.0058876
0.108963
0.0605365
0.0569409
-0.089467
-0.225089
-0.145902
0.0767563
0.0504792
-0.00048504
0.00183653
-0.00135149
0.149978
-0.0204065
0.0201616
0.0990806
0.0054591
0.0262737
-0.0244206
-0.00185318
0.000263756
0.0321144
-0.0323781
0.0479836
0.039979
-0.00745613
0.0377254
-0.0302692
-0.174707
-0.0395332
-0.126416
-0.149237
0.0874485
-0.0135412
-0.131744
-0.177643
0.309387
-0.0046792
0.00232462
0.122042
-0.0518253
0.195198
-0.211879
0.0166814
0.0207975
0.0304786
-0.0512761
-0.139938
0.0425787
-0.147686
0.132346
-0.020109
0.209481
-0.358046
0.251039
0.17484
0.159571
0.0555119
0.0285423
-0.0840542
0.142
-0.0724272
-0.437481
0.171181
0.2663
2.77102e-05
-0.00630216
0.299493
-0.0687369
0.100496
-0.0317587
-0.0551634
0.00649863
0.0437921
-0.118
0.203339
0.00555793
0.0498675
0.126882
-0.238164
-0.419738
-0.0617665
-0.162457
0.0277675
0.0254284
-0.0319073
-0.0603354
0.106361
-0.175987
-0.261494
-0.31236
0.174798
-0.17096
0.491355
-0.117778
0.0586158
-0.0254467
0.216273
-0.190826
0.00819493
0.000673126
-0.00886806
0.0678682
0.0281407
-0.0272686
0.028834
-0.00156543
-0.0128984
0.0106509
-0.0743363
0.0730297
-0.0592247
-0.0786328
0.0379161
0.0407167
-0.217973
0.370142
-0.152169
-0.159134
0.191408
-0.0322733
0.349057
-0.177927
-0.17113
0.0609677
-0.200325
0.139357
0.0131758
-0.0049809
0.192002
-0.191873
0.37882
-0.186947
0.157587
-0.154847
-0.00273951
0.0781919
0.00925662
0.196751
-0.212567
0.0158166
0.000100094
-0.00987358
-0.040682
0.0532072
-0.0125252
0.0597897
0.0527977
-0.112587
-0.0965048
-0.0451987
0.385627
-0.225307
-0.16032
0.452316
-0.233949
-0.218366
0.0728879
-0.0698188
-0.00306908
-0.471981
0.186108
-0.192721
0.176799
0.0159218
-0.153693
-0.028966
-0.216974
0.191527
-0.133974
-0.174041
0.295541
-0.288472
-0.00706936
-0.0183889
0.0249936
-0.00660466
0.0278226
-0.018755
-0.00906754
0.112637
-0.264038
-0.199258
0.00661309
-0.0167835
-0.066374
-0.028996
0.294197
0.327038
-0.152097
-0.174941
0.374876
0.151355
-0.0777223
-0.0281718
0.000903198
0.0433981
0.0383586
-0.0393601
-0.0556912
0.0950513
0.00980184
-0.002747
0.280333
-0.113851
-0.166483
0.106844
-0.0621378
-0.0447064
0.146022
-0.27155
0.125528
0.169508
-0.097812
0.0577991
0.0687769
0.00411098
-0.0595309
0.0103267
0.273776
-0.162547
-0.111229
-0.0177798
0.0187776
-0.000997833
-0.137731
-0.13159
0.269321
-0.110362
0.158193
-0.141414
0.0432231
0.103817
-0.250264
0.0190565
0.33746
-0.356517
0.0381074
-0.0457125
0.111593
-0.0658805
-0.0606975
0.279882
-0.219185
-0.0706255
0.110643
-0.040018
-0.0175383
0.0259794
0.0370684
0.0523792
0.0199822
-0.00259127
0.103863
-0.101271
-0.085559
-0.226801
0.241968
-0.0192649
-0.222703
-0.318284
0.120411
-0.217077
-0.223029
0.440106
-0.0124449
-0.0088458
0.0212907
0.000897703
0.0431145
0.0204605
0.114048
-0.134509
0.157469
-0.280573
-0.0945811
0.0553635
0.206544
-0.42234
0.215796
-0.00085909
0.00441525
-0.00355616
0.0300334
0.265508
0.204502
0.181125
-0.0669634
0.0130414
-0.186879
0.364503
-0.177623
0.0693981
-0.13923
0.0698323
-0.0881612
0.0197042
0.261018
-0.0902405
-0.170778
0.270577
-0.488662
0.218085
0.158828
0.143716
-0.167415
0.149647
0.0177683
0.0726089
-0.0556548
-0.00449467
0.0192918
0.0309918
-0.0138846
-0.0171073
-0.362487
0.246598
0.115889
0.00723843
-0.18693
-0.205151
-0.0477831
-0.01733
-0.0802239
-0.000906475
0.0811303
0.282147
-0.169689
0.175362
-0.165752
-0.00960992
-0.181652
-0.0524781
0.068869
-0.0613064
-0.0383638
0.0996702
0.278092
-0.0698978
-0.00360713
-0.085254
0.0382108
-0.236948
0.539691
-0.0148473
-0.00139773
0.0661966
0.0195355
-0.0857321
0.14478
0.124311
-0.269091
-0.0252372
0.420593
-0.214049
0.152842
-0.00542239
0.00158836
0.0182749
0.0568347
0.0339095
-0.178847
0.0383331
0.0249212
-0.0632543
0.181697
0.145341
0.0600529
-0.00509797
-0.0549549
0.371579
-0.270514
-0.178813
0.449327
-0.166014
0.336734
0.173693
-0.142279
0.134555
-0.402822
0.109839
0.292983
0.0752513
0.188869
0.0892231
0.0698043
-0.05178
-0.0560614
-0.0164439
0.102497
-0.0362977
-0.0116166
-0.222968
0.234585
0.00900087
0.0640611
-0.103421
-0.0683276
0.105886
-0.0375589
0.183894
-0.17105
0.196229
0.0583363
-0.0617847
0.00344832
0.25232
0.158102
0.158162
-0.316264
0.0600513
-0.0204076
0.0812678
-0.0608602
-0.18295
-0.141276
0.324226
0.100016
-0.154287
0.0542708
-0.231917
0.2203
-0.0595174
-0.0666074
0.126125
0.000275169
0.00200605
-0.00228122
-0.34426
0.204399
0.13986
-0.207882
0.367396
-0.159514
-0.16332
0.341384
-0.178063
0.0857343
0.184743
0.185811
-0.370555
0.176149
-0.378878
0.202729
-0.237335
0.413485
0.10216
-0.0260196
-0.0761408
-0.143466
-0.167789
0.311255
-0.0619131
0.236484
-0.174571
-0.319949
-0.082873
-0.142438
0.0664977
0.0759407
-0.0737013
-0.157162
0.169567
0.044493
-0.0127226
0.0727754
-0.258841
0.0366809
0.22216
-0.0104635
0.00836516
0.104515
0.0528661
-0.157381
0.0779637
0.233491
-0.311454
0.0068185
-0.000928996
-0.0116463
-0.0468352
0.0397383
-0.110364
-0.0076866
0.0110152
-0.00332861
-0.190553
-0.0742907
-0.00358859
0.0027295
-0.0235134
0.207665
-0.184152
-0.0486243
-0.0112767
0.0827294
0.0177662
0.229212
0.13969
-0.368902
0.160098
-0.0555829
0.015347
-0.0440283
0.0286812
0.0640169
-0.00568056
-0.00411917
0.0905643
0.11814
0.106621
-0.224761
-0.0177834
-0.00790808
0.0256915
-0.204072
0.0813499
0.122722
-0.0539277
0.126669
-0.0727413
-0.0258551
0.0466526
0.102245
-0.0498176
-0.102486
-0.181857
0.422576
-0.261398
-0.161178
-0.157475
-0.0167303
0.174205
0.233185
-0.461963
0.228778
0.183041
0.058927
0.202175
-0.181869
-0.0203057
-0.0270195
0.0653526
-0.0853472
-0.0513482
-0.0647591
0.102762
0.0485012
-0.0601475
-0.0680635
-0.0733509
0.0303831
-0.00264094
-0.0277421
-0.00563884
0.0103878
-0.00474891
0.352153
-0.35718
0.00502683
0.0172781
-0.0191807
-0.0521193
0.103686
-0.0515664
-0.0970403
-0.117744
0.214784
0.0564927
-0.000823817
0.00140498
-0.0197939
-0.0136051
0.000408805
-0.0481593
0.102492
-0.0543324
0.126524
-0.0571262
-0.199427
0.36961
-0.170183
0.070206
0.230947
0.0740453
-0.0723486
-0.00169673
0.0314677
0.0424545
-0.0739222
-0.136148
-0.442075
0.0491561
-0.109724
0.0605683
0.0209998
0.0821109
0.0200495
0.26564
0.0735249
0.223362
-0.246876
0.101711
0.149163
-0.0348579
-0.0516262
-0.00837637
0.0166946
-0.00831819
-0.0179316
-0.197145
0.206371
-0.00922636
-0.0903657
0.218982
-0.0622548
-0.0656433
0.117179
0.172897
-0.290077
-0.471962
0.375176
0.0967861
-0.0895247
0.232937
-0.143412
-0.375724
0.183851
-0.0444334
-0.00366748
-0.0599691
-0.0966188
0.299829
0.0995392
-0.0170411
-0.0631828
0.201136
-0.176158
-0.0249781
-0.000508247
2.32077e-05
-0.000224628
-0.300425
0.168681
-0.053024
-0.023368
-0.0713205
-0.0471523
0.118473
0.185385
-0.185212
-0.000172527
-0.205545
-0.266417
0.0411586
-0.0882793
0.0471206
-0.280799
-0.212265
0.00240342
0.0225422
-0.0204285
-0.237444
0.175531
0.00570668
-0.0140831
-0.127142
0.0676249
0.0703989
-0.124327
-0.00287389
0.502529
-0.200632
-0.301897
-0.365601
0.188235
0.177436
-0.385318
0.045314
0.0609689
-0.130202
0.0679468
0.0253823
-0.0437257
-0.00788055
0.0516063
-0.0237222
0.147746
-0.124024
-0.225122
0.130991
0.0629187
0.00585819
-0.0210061
0.150659
-0.129653
-0.06909
0.0396413
0.286114
-0.125518
-0.160596
0.0231759
0.161105
0.0252851
0.00570671
-0.0494091
-0.0327079
0.143096
-0.0184809
-0.0104152
0.0598497
0.0672029
-0.127053
0.149814
-1.26027e-05
-0.00526831
0.00528091
0.194295
-0.296781
0.00971799
-0.314444
0.146401
0.00296392
0.190375
0.164377
-0.354752
0.0181616
-0.0161253
-0.00203624
-0.12712
0.174541
-0.00840978
-0.00357021
0.01198
-0.212866
-0.00482739
0.217693
0.00240366
0.0129028
-0.0153064
0.296921
-0.0801143
-0.216806
-0.000270241
0.241162
-0.0949178
-0.371609
0.0998695
0.0651234
-0.124484
0.0593609
-0.163095
0.322043
-0.158948
-0.0716896
0.0375442
0.0723175
0.000773913
0.19282
0.15607
-0.348891
-0.0195669
-0.0624556
-0.0229893
-0.263975
0.1869
0.077075
0.0364141
-0.15049
0.114076
-0.299622
0.182466
0.117156
-0.0153529
-0.0808951
-0.0115387
-0.00206636
-0.281617
0.0670397
0.214577
0.0615103
-0.0657544
0.00424411
0.0066452
-0.0174413
0.0107961
-0.0115678
0.0323557
0.283479
0.15671
-0.440189
-0.00882837
-0.0248862
0.0337146
0.0156383
-0.159355
-0.206304
-0.0673771
0.273681
-0.00911647
-0.0216515
0.030768
0.0595328
-0.122521
0.0629882
-0.168488
-0.200294
0.368781
-0.0822696
0.0323782
0.0498914
-0.00220541
0.0637157
0.378876
-0.149664
0.0327258
0.00220604
-0.0349319
0.00493147
-0.00670972
0.00177825
0.116712
-0.0676311
-0.0490806
-0.0847772
0.211659
-0.0585724
0.115783
-0.0572102
0.000973089
0.0312203
-0.0888423
0.057622
0.0570603
-0.0247705
-0.063722
0.0884925
-0.0353833
-0.157337
-0.00958031
-0.174207
0.183788
0.154265
0.0142273
-0.168493
-0.0575596
-0.0324313
0.0899909
0.264239
0.237493
-0.501732
0.18399
-0.330262
0.146272
0.129548
-0.255964
0.321999
-0.368724
0.0467248
0.209173
0.124071
-0.333244
-0.134686
-0.114606
0.0270691
-0.0199967
-0.00707238
-0.0163697
0.0166334
0.180516
0.00772909
-0.00196824
-0.0722742
-0.0627226
-0.0752058
0.0148523
0.228561
0.0683591
0.107483
-0.107357
0.120289
-0.0607561
0.0579189
0.034386
-0.107808
0.0734223
0.0666542
-0.0205625
-0.0460917
-0.0516319
-0.306414
-0.13374
-0.160715
0.0805359
-0.177576
0.405528
-0.263138
-0.142391
-0.255987
0.226956
0.0290314
-0.0396162
-0.154595
0.0201055
0.0565967
-0.0767022
-0.0775204
0.0576375
0.0198829
-0.0332063
-0.0491251
0.115525
-0.21833
0.200309
0.0180207
0.362673
-0.173035
0.152986
0.252543
0.18664
0.0743784
-0.00749766
-0.0474557
0.0643531
-0.0168974
0.00271416
0.221709
0.135889
-0.302637
0.166748
0.175977
-0.0197653
-0.156211
0.00657786
0.00230714
-0.008885
-0.156626
0.13562
-0.00611606
0.278551
-0.130128
-0.148423
-0.0151211
0.0744823
-0.00526068
0.00807009
-0.170147
0.186924
-0.0167772
0.351269
-0.158448
-0.106064
-0.15791
-0.436041
-0.000794142
0.436836
0.107372
-0.0179393
-0.0443418
-0.0483543
0.0926961
-0.023617
-0.152329
-0.075332
0.0505615
-0.0768977
0.069222
0.0724397
-0.00952099
0.106945
-0.0575131
-0.049432
-0.110515
0.130976
0.0631461
-0.047587
-0.0310458
0.144741
0.13381
0.0374449
-0.0449011
0.1764
-0.00476861
-0.171632
0.0842675
-0.114564
0.137531
0.004839
-0.14237
0.246474
-0.0918584
-0.154615
-0.0330822
0.198828
-0.165746
0.099306
-0.117128
-0.160716
0.277844
0.0760772
0.053253
-0.12933
0.123329
0.0101409
-0.00380785
-0.00633309
0.0658431
-0.261117
0.168317
-0.0950438
0.171689
-0.121994
-0.0496944
0.00081122
0.0256533
-0.0264645
0.107228
-0.04235
-0.00487534
0.00440072
0.257943
-0.0690745
-0.244975
-0.179352
0.424327
-0.0637055
0.181846
0.00934166
0.405868
-0.184805
0.275758
-0.130979
-0.156783
0.0884999
0.114952
-0.0551624
0.12076
-0.0595242
-0.0612362
-0.0514191
-0.0529995
-0.075379
0.0421727
0.0259896
0.00643685
-0.0324264
0.291901