/*--------------------------------*- C++ -*----------------------------------*\
| =========                 |                                                 |
| \\      /  F ield         | OpenFOAM: The Open Source CFD Toolbox           |
|  \\    /   O peration     | Version:  v2012                                 |
|   \\  /    A nd           | Website:  www.openfoam.com                      |
|    \\/     M anipulation  |                                                 |
\*---------------------------------------------------------------------------*/
FoamFile
{
    version     2.0;
    format      ascii;
    class       volScalarField;
    location    "300";
    object      k;
}
// * * * * * * * * * * * * * * * * * * * * * * * * * * * * * * * * * * * * * //

dimensions      [0 2 -2 0 0 0 0];


internalField   nonuniform List<scalar> 
18649
(
0.000935288
0.000156263
0.000154257
0.0112577
0.000185305
0.000160648
0.0957226
0.000215246
0.000188026
0.000151456
0.000197246
0.0442059
0.0108226
0.00015406
0.000148832
0.000174916
0.000147127
0.000174903
0.000191965
0.045425
0.0162489
0.000152901
0.0217666
0.000290107
0.000147796
0.0436493
0.000151388
0.0450605
0.000625515
0.000146165
0.000152221
0.000173454
0.000148329
0.000155486
0.000151441
0.0114489
0.000158293
0.000149778
0.000148388
0.000210564
0.000189531
0.000286259
0.000193717
0.0269972
0.000156558
0.000146081
0.0213072
0.0118489
0.0534986
0.000148754
0.0839505
0.000164609
0.0462833
0.0888141
0.000148355
0.0533246
0.0543752
0.000198959
0.00462827
0.000151184
0.000793255
0.000148709
0.000192903
0.0126231
0.000149819
0.0135323
0.000151136
0.0569981
0.00943332
0.00037308
0.030992
0.000148628
0.000173598
0.000159763
0.000154714
0.0161421
0.00016319
0.000162529
0.000159266
0.000193227
0.000147392
0.0198651
0.0107003
0.04987
0.000168353
0.000148268
0.000160031
0.000163706
0.000170873
0.000160669
0.000167294
0.000149894
0.0001492
0.07656
0.00015264
0.000194846
0.000151076
0.000183727
0.008569
0.000151115
0.0210264
0.000165662
0.000147123
0.0876663
0.0083876
0.000164875
0.000149256
0.000152956
0.000165879
0.000154167
0.0135832
0.00017086
0.000149107
0.000154079
0.000248422
0.000155713
0.000148397
0.0693682
0.0268769
0.000149629
0.00478158
0.000151378
0.000173285
0.000148649
0.0267897
0.000147774
0.000149957
0.0505418
0.000151261
0.071285
0.000148853
0.0110189
0.000148606
0.00519837
0.000158601
0.000149417
0.0226024
0.0556014
0.000167054
0.000162171
0.000255647
0.000149714
0.000148076
0.000148163
0.000149175
0.0449297
0.000148053
0.000148863
0.024272
0.00882188
0.000401092
0.000149476
0.00620377
0.000151601
0.0001506
0.000148154
0.000177267
0.00018891
0.000148237
0.000149154
0.000149041
0.000187528
0.00523825
0.000151604
0.0278732
0.000247794
0.000149223
0.000148561
0.000150821
0.000155365
0.000148905
0.000439335
0.00019691
0.000184479
0.000149759
0.0758913
0.0218593
0.000157345
0.000148272
0.000377679
0.000494592
0.000146766
0.00014974
0.0552764
0.000161286
0.000176613
0.000149193
0.000149744
0.000174687
0.000163276
0.000445855
0.00015006
0.00226141
0.000151049
0.000147129
0.00014934
0.000159708
0.000169471
0.000155006
0.000149779
0.000148896
0.00022404
0.0570431
0.00015811
0.000171511
0.000168974
0.0231554
0.0220515
0.000152717
0.00448323
0.000149312
0.000154836
0.000151047
0.0018955
0.00959727
0.000149765
0.000166897
0.000148747
0.0259277
0.0001494
0.000209866
0.000149269
0.000465269
0.000401419
0.0442094
0.0769871
0.000149908
0.000149293
0.0458472
0.0696054
0.000174942
0.000148462
0.0240379
0.000174312
0.0456464
0.000218018
0.000175489
0.000182902
0.000148563
0.000202079
0.000146874
0.0455728
0.000174754
0.000146731
0.00015427
0.000163168
0.0396919
0.000149159
0.0567901
0.00016896
0.0294612
0.0947052
0.000176193
0.000151593
0.000161651
0.0315912
0.000149245
0.000149313
0.000154325
0.000154337
0.00014918
0.0001703
0.00517096
0.000149192
0.000147158
0.0189869
0.0931486
0.000149351
0.0560864
0.000147337
0.0444288
0.000178764
0.0433769
0.0586979
0.000192967
0.000151032
0.000147156
0.00353232
0.0790398
0.0260208
0.000149175
0.000148678
0.00731229
0.000161086
0.0753297
0.0268367
0.000151916
0.000163481
0.000149523
0.000146952
0.000206946
0.0335562
0.0979276
0.000221206
0.0136131
0.000152166
0.000458223
0.00338398
0.00014711
0.0909262
0.00014808
0.000155828
0.000150907
0.000148221
0.000149467
0.00018424
0.000149449
0.000181052
0.000182574
0.000155171
0.0435461
0.000151314
0.000241299
0.00014885
0.000151884
0.000148538
0.000153375
0.000149819
0.00950048
0.0325138
0.000149331
0.000149051
0.000190204
0.000149564
0.000148218
0.000150698
0.0001492
0.000161771
0.0637814
0.000168946
0.00479939
0.000148585
0.000149041
0.000192892
0.000148158
0.000145482
0.046394
0.000160231
0.0629923
0.000158397
0.000254241
0.000148176
0.000157502
0.000151181
0.00015596
0.000148905
0.00014944
0.000146894
0.000167204
0.000174327
0.000148997
0.00646817
0.000148958
0.000150561
0.00435793
0.0729897
0.000153612
0.0368305
0.000229221
0.0246581
0.0976585
0.000155405
0.0969299
0.0001489
0.0357382
0.000509691
0.000151362
0.000155938
0.000159707
0.000152063
0.000150126
0.000147948
0.000148979
0.0465215
0.000161937
0.0439609
0.00486936
0.000272556
0.0384541
0.000155703
0.000149922
0.00017496
0.000148421
0.000433348
0.000149791
0.000149508
0.000460057
0.0980349
0.000153509
0.000148947
0.000952183
0.000170909
0.000149323
0.0654659
0.0001536
0.00015568
0.00890755
0.000157034
0.00014954
0.044407
0.0456973
0.000176663
0.000148751
0.000149065
0.0484732
0.0465663
0.000148832
0.0101278
0.00014746
0.000149631
0.0938547
0.00014858
0.0654642
0.000157209
0.00027309
0.0362167
0.0112719
0.0811599
0.000148335
0.0123152
0.000148862
0.00438939
0.000177791
0.0349935
0.0771321
0.000147841
0.000146613
0.000286809
0.0232846
0.000157719
0.0603457
0.000153362
0.000155059
0.000147191
0.0719449
0.00685023
0.00664322
0.000152362
0.000149926
0.00043531
0.0112828
0.000155699
0.000152268
0.000148966
0.000147483
0.024633
0.0489804
0.00014841
0.000150853
0.0143717
0.000149079
0.00293625
0.000148821
0.00133005
0.000170395
0.0352706
0.000159276
0.0902329
0.00407844
0.000158356
0.000187056
0.000154771
0.00018357
0.000155527
0.000148983
0.000161673
0.000417594
0.000147036
0.000154495
0.0102946
0.000147525
0.000149434
7.03818e-05
0.000147839
0.03035
0.000152272
0.000153439
0.000150678
0.000162039
0.000153462
0.000149942
0.000228432
0.000149714
0.000163388
0.000149016
0.0001624
0.0258411
0.00014987
0.0905857
0.00015921
0.0959887
0.0364632
0.0355695
0.00144261
0.000162675
0.000181335
0.000175315
0.00398584
0.00014938
0.000183332
0.000154186
0.000175428
0.000230344
0.000172517
0.000149524
0.000218434
0.000256552
0.094305
0.000150863
0.0117711
0.000153712
0.000209266
0.000149031
0.000179292
0.0204148
0.000149377
0.000150711
0.0358848
0.00014937
0.000183017
0.000149205
0.000161347
0.000151392
0.000169339
0.000147825
0.000186609
0.000149815
0.0939832
0.000150994
0.00133099
0.0641638
0.0749989
0.0161015
0.000154178
0.0701489
0.000182844
0.0716603
0.00401459
0.000149632
0.000163492
0.000266476
0.000153897
0.00037628
0.000150719
0.000149302
0.000153776
0.000148542
0.000149855
0.000150789
0.0485404
0.000147398
0.000149198
0.000161069
0.000155987
0.000231223
0.0744945
0.000149386
0.00019372
0.000281801
0.000172486
0.000149017
0.0226511
0.0620411
0.0226793
0.000386132
0.000174778
0.000154887
0.000163226
0.000167542
0.000152556
0.00702941
0.000148734
0.00015256
0.000147555
0.0569976
0.0339558
0.0410933
0.000160852
0.000148659
0.0475142
0.0137763
0.000469647
0.000162902
0.000164042
0.0478961
0.000148489
0.0352262
0.000155693
0.000152684
0.000150878
0.000235356
0.00792371
0.000152236
0.00018562
0.000159692
0.000152118
0.00169481
0.00021558
0.000148816
0.0711884
0.000166952
0.0938514
0.000150569
0.0657572
0.0001692
0.00016541
0.000153207
0.034281
0.000175613
0.000186777
0.00019591
0.0216891
0.000157614
0.0420437
0.000151945
0.000161818
0.0880113
0.000160397
0.000148308
0.000164368
0.000153712
0.000191391
0.000149054
0.000148801
0.000254448
0.000250175
0.0187363
0.000149751
0.0293624
0.00014881
0.000201565
0.000176994
0.000147621
0.000150711
0.000151304
0.0584614
0.000150866
0.000181447
0.000210537
0.000165838
0.000149512
0.000148622
0.000154077
0.0831989
0.00014867
0.000160488
0.000147096
0.0684167
0.000149793
0.000153208
0.000153134
0.000147466
0.0114999
0.000248612
0.000354028
0.00015714
0.0581375
0.000166408
0.000148374
0.000167382
0.00785516
0.000157136
0.000151001
0.0853397
0.0909321
0.000148871
0.00735064
0.0228496
0.000152008
0.000152693
0.000177511
0.000150784
0.00014882
0.000568918
0.0319894
0.00185967
0.0855604
0.000148812
0.0627546
0.000148545
0.000148319
0.000148152
0.0122359
0.00014991
0.00014983
0.0500246
0.0125943
0.000154468
0.034218
0.000163176
0.000148426
0.0962512
0.000160035
0.000241279
0.000152206
0.000211205
0.000145691
0.000158102
0.000149886
0.00020317
0.000149601
0.0129532
0.0428766
0.000229356
0.00560973
0.0232593
0.000158158
0.0214068
0.0328098
0.000210809
0.000151005
0.000150573
0.0212677
0.0908524
0.0324742
0.000192374
0.000173528
0.000148978
0.000158022
0.0881048
0.00368645
0.000148638
0.000156328
0.0584802
0.0928977
0.0336193
0.000219456
0.000151784
0.00015258
0.0279763
0.025862
0.000147293
0.000162765
0.000147194
0.000341292
0.000149017
0.0734339
0.000173664
0.000148845
0.00015218
0.0211843
0.000148841
0.000158694
0.000148788
0.000149945
0.00014885
0.000487264
0.000174546
0.000548367
0.0976799
0.0162281
0.0536808
0.000149881
0.0641982
0.000155728
0.000158968
0.00423626
0.00014891
0.000148969
0.000149501
0.000503412
0.0777318
0.000416749
0.000148788
0.000159489
0.000148318
0.000148162
0.000145904
0.000154346
0.000165437
0.068005
0.000160368
0.000148335
0.000185855
0.000689826
0.0001664
0.00014832
0.0797018
0.0175875
0.000148599
0.010067
0.000640641
0.000178072
0.000159238
0.00014912
0.000154386
0.000182115
0.00666566
0.00252077
0.000151097
0.0900548
0.0434415
0.0049959
0.000152691
0.00611867
0.000222441
0.0414294
0.000168005
0.0276189
0.00014975
0.0114879
0.0872966
0.0640518
0.000149981
0.000150807
0.000159493
0.000389693
0.00015112
0.000224669
0.000152112
0.000224051
0.000162973
0.0409513
0.0547729
0.000148954
0.00167779
0.000171312
0.0002148
0.000187656
0.0795319
0.000148814
0.000190097
0.000171637
0.000252911
0.0337223
0.000149213
0.0369711
0.0986201
0.000148838
0.0542834
0.00020441
0.000147351
0.0930188
0.0444851
0.000151908
0.000168295
0.0481261
0.000148844
0.0399337
0.000149288
0.000148813
0.000148908
0.000166857
0.000148376
0.00014604
0.0534307
0.000149937
0.000157361
0.000151925
0.088013
0.000163889
0.000148837
0.000149405
0.0396188
0.000150467
0.000254662
0.000449735
0.000160757
0.0869841
0.000154258
0.000163854
0.0508964
0.000439374
0.000158448
0.000148752
0.000160529
0.000162087
0.00107365
0.000153886
0.00014857
0.000180892
0.000149412
0.0486398
0.000171267
0.000150332
0.000148891
0.000160826
0.000160351
0.00039987
0.000148945
0.000147348
0.000343683
0.000148796
0.0177427
0.03747
0.000158638
0.0822895
0.000149154
0.0314998
0.00014908
0.000187002
0.000249071
0.000504248
0.000170966
0.000147953
0.000186343
0.000153556
0.0122314
0.0349275
0.0131555
0.000220128
0.000176505
0.000152268
0.000155047
0.0138789
0.0375228
0.000148768
0.0825403
0.00520394
0.000147394
0.000169392
0.000383274
0.0699957
0.00014945
0.0313118
0.0919651
0.0349883
0.0238178
0.0877858
0.0369608
0.00017683
0.000148327
0.000156153
0.000167957
0.000148786
0.000151894
0.0326973
0.000153589
0.000178426
0.0462795
0.000226501
0.068005
0.000163258
0.0755361
0.000203631
0.000183474
0.000149865
0.00948785
0.000149168
0.0799632
0.0552975
0.000149311
0.000205179
0.000149222
0.0723359
0.0348851
0.000211982
0.011427
0.000146967
0.000151003
0.0149143
0.00017716
0.00331869
0.000146867
0.000148534
0.00014853
0.000154796
0.000171503
0.000148359
0.000148281
0.000156039
0.000154019
0.000149515
0.000216663
0.000148811
0.000161479
0.000148813
0.000153428
0.000491898
0.0900581
0.000771706
0.0241449
0.0674696
0.000222043
0.00210075
0.000153833
0.000168022
0.0194879
0.000153657
0.000148703
0.000148873
0.00015263
0.000269109
0.000175319
0.000885024
0.000171676
0.000157758
0.0314279
0.047134
0.0327127
0.000171674
0.0371266
0.000152291
0.00014883
0.000148929
0.000149956
0.000149086
0.00017856
0.0127193
0.00018906
0.000384773
0.00593952
0.0539233
0.000159754
0.000148836
0.000172095
0.000159337
0.000169503
0.0240059
0.000164687
0.0909641
0.0339624
0.000185738
0.000343429
0.000145965
0.000149104
0.000160709
0.0227377
0.000154874
0.000149084
0.000150456
0.000156208
0.000148829
0.0225334
0.000155033
0.000149859
0.000148444
0.000199791
0.00015448
0.000158842
0.00727889
0.000147185
0.000679932
0.00015923
0.000180549
0.00014911
0.0214682
0.000149314
0.00022138
0.000306503
0.0967314
0.000148991
0.0713071
0.000162037
0.000154887
0.000161023
0.000153767
0.000172142
0.000155995
0.000149135
0.0465371
0.000273685
0.000154632
0.0249167
0.021801
0.00014883
0.000149218
0.000172417
0.000151878
0.000150819
0.0873222
0.000145479
0.000148844
0.000149748
0.0841663
0.0576509
0.000164452
0.0895965
0.000169598
0.00817498
0.0486493
0.000154498
0.000149201
0.000201254
0.000154444
0.0939168
0.0410692
0.0595798
0.000148837
0.000170192
0.045532
0.00014882
0.00837396
0.0246439
0.0701086
0.000149141
0.000148465
0.0880924
0.000157415
0.000146725
0.000165792
0.000151301
0.000150454
0.000152758
0.000149408
0.0325665
0.000170886
0.000148392
0.000196949
0.000148419
0.0286712
0.000175889
0.0654297
0.000153256
0.00296766
0.000260174
0.000148844
0.000270876
0.000148737
0.0417811
0.0743024
0.000155281
0.0386817
0.000150571
0.000148851
0.00385246
0.000149639
0.00145838
0.000170977
0.000149243
0.0382746
0.000149202
0.000171514
0.000148601
0.000152727
0.000153244
0.000163898
0.000148645
0.000148671
0.000149011
0.000151208
0.000151987
0.0951508
0.000148849
0.00518284
0.00511725
0.000155457
0.0240633
0.000148442
0.000147757
0.0266514
0.0657403
0.000204457
0.0374591
0.000154488
0.000152188
0.000169095
0.000148792
0.00016058
0.000152384
0.000193057
0.0993967
0.000234562
0.000160425
0.000157076
0.000180426
0.0288326
0.000161945
0.000380158
0.00016011
0.000199996
0.0477138
0.023055
0.0557818
0.0476458
0.000177078
0.0218162
0.00419681
0.000169075
0.000148796
0.000148072
0.0903318
0.000156926
0.00020503
0.0588271
0.000169927
0.000153873
0.000148885
0.0600925
0.039622
0.000163344
0.0184192
0.000153479
0.000154038
0.0061017
0.000151136
0.000148994
0.00368022
0.000151521
0.000168522
0.0417524
0.0956022
0.000151421
0.000149863
0.0435199
0.000210079
0.0600321
0.000148367
0.0810377
0.000210073
0.00727689
0.000149149
0.0232841
0.000148524
0.000154363
0.000152021
0.000148453
0.000206198
0.000148309
0.000149271
0.000149915
0.000152964
0.0597192
0.0576816
0.000149137
0.0934019
0.00017331
0.0539109
0.0512717
0.0692704
0.000147346
0.000149689
0.000199683
0.000152813
0.000149913
0.000148557
0.000154037
0.000239293
0.000149098
0.0311466
0.0111568
0.000149818
0.000154059
0.000148722
0.000148422
0.00026852
0.0227543
0.000148981
0.0491508
0.0540506
0.000148718
0.0821569
0.000151585
0.0556274
0.000148764
0.000145779
0.0206196
0.0408136
0.000149297
0.033641
0.000152574
0.0435191
0.000153097
0.000177251
0.0445737
0.000160152
0.000215218
0.0381293
0.000153688
0.000180734
0.000163681
0.0427253
0.0978396
0.000153902
0.0476961
0.000150703
0.00016669
0.000149008
0.000168313
0.00694216
0.00015518
0.0345587
0.0333837
0.00016582
0.0623994
0.000149844
0.0291174
0.000148838
0.000258384
0.000150971
0.00014846
0.000197277
0.0338198
0.0631972
0.000164905
0.000209758
0.0487229
0.000156525
0.000206916
0.0720906
0.0439863
0.0366717
0.0585272
0.000228991
0.000172795
0.000149235
0.000148964
0.0824131
0.0485252
0.000151324
0.000182398
0.0408667
0.000171087
0.0804856
0.000184724
0.046438
0.0381893
0.00015861
0.044731
0.000164777
0.000172856
0.0570505
0.105941
0.0662759
0.000173814
0.0205507
0.0396326
0.00015586
0.000151282
0.000152307
0.000159164
0.000147976
0.000147145
0.000211642
0.0266842
0.0105441
0.00014875
0.057144
0.0526951
0.000173326
0.000195613
0.000165208
0.0543141
0.000312911
0.0001489
0.0030563
0.000175119
0.000148493
0.000146389
0.0360306
0.000148912
0.0709433
0.000152104
0.000148823
0.000151866
0.0346922
0.000233037
0.00017933
0.000242504
0.00781853
0.0348871
0.0938171
0.000151362
0.00031643
0.0668285
0.00173369
0.000149208
0.000183398
0.0418122
0.00141329
0.000148739
0.000149802
0.0508326
0.000199492
0.000165737
0.0584899
0.0572538
0.0338446
0.000148842
0.000148765
0.000148976
0.000204195
0.000251268
0.000151303
0.000149232
0.000182097
0.000199347
0.000172564
0.00014905
0.00014995
0.000148766
0.000168607
0.000146811
0.000173725
0.000149938
0.000149002
0.033851
0.0433114
0.0933623
0.000151273
0.00016754
0.0711282
0.00015265
0.000153362
0.000147312
0.000151752
0.00268314
0.000148326
0.000148817
0.000150015
0.000149194
0.000148291
0.00484322
0.000146693
0.000172148
0.000456679
0.000148603
0.000149958
0.000151752
0.00025147
0.000223882
0.000149835
0.000148554
0.000167194
0.000202023
0.000152225
0.000174076
0.000160262
0.00170426
0.000155711
0.000168943
0.000149167
0.00469463
0.0185454
0.000202931
0.000149794
0.0698538
0.000165297
0.000149151
0.000170784
0.000149844
0.000148308
0.000209746
0.000178474
0.000165661
0.000149232
0.000148989
0.000148135
0.000187766
0.00014633
0.0419325
0.0534943
0.000164057
0.000158253
0.000152026
0.000201013
0.000149481
0.000148939
0.000149985
0.00017642
0.000160484
0.000157599
0.0910374
0.000148601
0.000179694
0.000146675
0.000151376
0.000154129
0.000171471
0.000149001
0.000148297
0.000156043
0.000157716
0.000149299
0.0711269
0.000148907
0.0320109
0.000256567
0.000148621
0.050509
0.00033496
0.000480812
0.00994209
0.000159334
0.000148563
0.000225961
0.000190099
0.000158392
0.000148476
0.000167939
0.0375902
0.000148761
0.000148296
0.000149517
0.000149833
0.000184834
0.000148798
0.000153522
0.000149067
0.000147873
0.000160454
0.000166551
0.000156113
0.00179862
0.000190972
0.00014891
0.000153888
0.000149019
0.000178965
0.000153532
0.0140716
0.000148505
0.000149293
0.0516062
0.000178798
0.000150821
0.000149036
0.00014711
0.000148384
0.000162308
0.000147045
0.000149097
0.00110172
0.000167968
0.04083
0.000189573
0.000148778
0.00014867
0.000167186
0.000153812
0.000352475
0.000148775
0.0482937
0.000148313
0.000148627
0.000157837
0.000274086
0.079744
0.0103344
0.108059
0.000148362
0.000152255
0.0807463
0.0698336
0.0504874
0.0214
0.000146125
0.00017011
0.000153322
0.000152053
0.000148512
0.000158974
0.000148935
0.000152383
0.0673033
0.000148072
0.00014915
0.000307393
0.000157723
0.000149094
0.00014902
0.0551804
0.000174478
0.000147487
0.00019067
0.000160835
0.000218707
0.000218897
0.000149825
0.000190686
0.000147861
0.000180156
0.000166363
0.000354744
0.000148865
0.0441023
0.000148375
0.000153885
0.000151432
0.000149863
0.00014886
0.000149044
0.0216028
0.0855227
0.000149816
0.0685933
0.0169296
0.000148616
0.000147752
0.0849561
0.000182762
0.000172919
0.0121372
0.00016628
0.00014892
0.000148949
0.0692637
0.000149435
0.000203454
0.0222043
0.0458741
0.000150621
0.000156312
0.000206329
0.000192828
0.00017415
0.000166585
0.000160037
0.0391278
0.00014979
0.030229
0.00667463
0.0642203
0.000148956
0.00964715
0.000153737
0.00035623
0.000149306
0.000179525
0.000147753
0.000202247
0.000206466
0.000153243
0.00493095
0.0328179
0.000151608
0.00668184
0.000148515
0.000153226
0.000149044
0.000240754
0.000148717
0.0940558
0.000215319
0.0660475
0.000149808
0.000149021
0.000165305
0.045111
0.000159257
0.000193703
0.000148745
0.00413894
0.000155144
0.00020828
0.00672851
0.000149015
0.0424052
0.000181586
0.000212662
0.000148487
0.000156421
0.000160701
0.000152832
0.000165946
0.000148869
0.000150755
0.00019646
0.000148808
0.00239263
0.000180433
0.000183847
0.0246964
0.000159696
0.0173175
0.0106956
0.084196
0.0554532
0.000150592
0.000205348
0.115491
0.000159179
0.000149993
0.000153362
0.000149515
0.000154611
0.000202332
0.000164462
0.000185321
0.000180825
0.0379935
0.000146915
0.000169411
0.00579659
0.0919596
0.0210432
0.000150719
0.000149312
0.000147002
0.0712482
0.00017289
0.000222877
0.0278964
0.000174517
0.000165367
0.000148548
0.000167462
0.000153634
0.0664525
0.000165432
0.000147198
0.0354926
0.00016665
0.000206364
0.000169961
0.0787509
0.000152927
0.000146746
0.00014904
0.000154659
0.0877502
0.000147149
0.000149666
0.000227241
0.000163674
0.00014796
0.000146611
0.000162693
0.000183825
0.000171143
0.000236248
0.000150626
0.000149434
0.000162482
0.000204959
0.023239
0.000209845
0.000213298
0.000149687
0.000146886
0.0405785
0.000148962
0.000147397
0.000147763
0.000154402
0.000167287
0.000162111
0.00232925
0.00107468
0.000173133
0.0724352
0.000406065
0.000148997
0.00555445
0.000222726
0.000196951
0.000149571
0.000147173
0.0852364
0.000164081
0.000155956
0.000355491
0.00014862
0.000148824
0.0866223
0.000229756
0.000186809
0.000149168
0.000146784
0.0336384
0.000353637
0.000148888
0.000159918
0.000148871
0.0498178
0.000272053
0.000166056
0.000149032
0.00014893
0.0373501
0.000451318
0.000157389
0.000147962
0.000153348
0.000153882
0.000173595
0.00547412
0.0171532
0.000148849
0.000148953
0.0800085
0.000165345
0.000153007
0.000158955
0.000154859
0.00015131
0.0307789
0.000149104
0.000218012
0.0340688
0.000148864
0.000148789
0.000149094
0.0664263
0.000147431
0.0527682
0.00478225
0.00020899
0.000149876
0.000199326
0.0173738
0.000146169
0.0371021
0.000279394
0.0951936
0.000150626
0.000149001
0.000196722
0.000150472
0.057112
0.000348765
0.0812167
0.000148826
0.000159059
0.0408846
0.0556018
0.000163933
0.000149
0.00017188
0.000148737
0.000311047
0.0405244
0.0719423
0.000181164
0.000155638
0.000149832
0.0660746
0.0239892
0.000148852
0.000318799
0.000188175
0.076473
0.000158842
0.000148989
0.0180225
0.00840394
0.000165115
0.00021456
0.000154005
0.000191529
0.000167869
0.000170426
0.000149567
0.000148831
0.000160236
0.0484778
0.0565153
0.0816703
0.000161933
0.0789802
0.000149918
0.00162858
0.000148873
0.0479233
0.037798
0.00014836
0.000160068
0.000148438
0.000148784
0.000148778
0.000205444
0.0060926
0.000151195
0.00404546
0.000148881
0.000161102
0.0782742
0.0483061
0.000170389
0.000166652
0.000268759
0.00420717
0.000208423
0.000148575
0.000149639
0.000148689
0.000147981
0.000148748
0.0344542
0.000146586
0.000151127
0.000146444
0.000155837
0.000154154
0.000182474
0.0001596
0.000148688
0.0147761
0.000148669
0.000155212
0.000166833
0.00990155
0.000147175
0.000149439
0.000153256
0.000151336
0.0233403
0.000192604
0.000148857
0.000148785
0.000188707
0.000147811
0.000149093
0.0824348
0.000302314
0.0142647
0.000156318
0.0279887
0.00216481
0.00016176
0.000152527
0.0426673
0.000145781
0.00014896
0.000149018
0.000340686
0.00134116
0.000153976
0.000195577
0.056053
0.000158705
0.000148681
0.000154884
0.0454923
0.000148629
0.037987
0.000149843
0.000187082
0.000364672
0.000155721
0.0128196
0.000225958
0.000218979
0.000174516
0.000148336
0.000151892
0.000170813
0.00014886
0.0787678
0.00396789
0.00015182
0.000149915
0.000172738
0.000156744
0.000253812
0.000451353
0.0540701
0.000148883
0.00014914
0.0255077
0.000149254
0.000163895
0.000162
0.000220763
0.0412719
0.00035357
0.00015957
0.000208637
0.000319199
0.000179501
0.000175804
0.000151576
0.000170064
0.000149689
0.0209368
0.000154901
0.0799978
0.000183336
0.000148888
0.000239869
0.000152147
0.000148956
0.000172521
0.00016127
0.00555001
0.000148491
0.000152758
0.000148846
0.0936567
0.000147548
0.0547619
0.0306667
0.000148741
0.00014757
0.0354782
0.000154185
0.0201824
0.0514456
0.0501957
0.000171371
0.0299008
0.000256681
0.000151392
0.000148679
0.000167644
0.000148613
0.0744286
0.000150306
0.000212616
0.000165321
0.00017509
0.0525027
0.000176466
0.000148833
0.000148636
0.043496
0.00382418
0.0421696
0.040148
0.000163991
0.0455237
0.000148835
0.0468934
0.000484182
0.000283674
0.000173302
0.000271789
4.05078e-05
0.0245688
0.000148845
0.00016842
0.000154596
0.000149676
0.000152168
0.000147395
0.000150959
0.0757505
0.000148594
0.000220217
0.000306577
0.00622304
0.000213653
0.000163453
0.000163475
0.000153774
0.000148814
0.00181177
0.0142402
0.000190743
0.000149863
0.0912084
0.000236998
0.000165489
0.000464404
0.0426306
0.000148584
0.000149453
0.00290674
0.0720348
0.000149501
0.000148994
0.000173454
0.000147351
0.0556547
0.0003946
0.000163158
0.00015056
0.0928965
0.000147792
0.000154977
0.000156745
0.000436843
0.000177752
0.000168639
0.00015926
0.000183099
0.000201325
0.000151035
0.0383416
0.000174178
0.041596
0.000166197
0.0675692
0.0100683
0.0643463
0.000425824
0.000155054
0.000163906
0.019011
0.0739548
0.0264811
0.000168597
0.000150735
0.000152028
0.000183658
0.000148865
0.0131243
0.00506527
0.00140203
0.000151248
0.000155216
0.000149297
0.000156009
0.0259061
0.080583
0.000147438
0.0938576
0.0463471
0.0413057
0.000174901
0.0928291
0.000151906
0.000148955
0.0476837
0.000148282
0.00015258
0.000150544
0.082526
0.0109345
0.000166067
0.000167791
0.0944191
0.000149809
0.000171768
0.00016394
0.000153607
0.0426221
0.0638151
0.000148944
0.0378763
0.0106835
0.000149251
0.0540843
0.0494577
0.000206228
0.000160384
0.000156125
0.0846145
0.000155145
0.000147827
0.000148868
0.000208682
0.000166579
0.0360989
0.0143445
0.00015021
0.000153567
0.0462853
0.0947611
0.0553793
0.000149227
0.000171649
0.000147381
0.00444511
0.000356659
0.0212657
0.000172104
0.00014978
0.000146829
0.000148578
0.080648
0.000150828
0.000148507
0.00650878
0.000148923
0.000147224
0.000167752
0.0818862
0.0410819
0.000253656
0.000148984
0.0845613
0.000147036
0.000145174
0.00029268
0.0887198
0.0382535
0.0251693
0.000155721
0.0327084
0.00039969
0.000147974
0.00020498
0.000149283
0.000148753
0.000148321
0.000148992
0.000148909
0.000147363
0.000171794
0.0238467
0.000148826
0.000148623
0.000155414
0.000167458
0.000195666
0.000148667
0.000149018
0.000148771
0.0300573
0.000147847
0.000148565
0.000157568
0.000149524
0.000195681
0.00014886
0.0453468
0.0607635
0.000163067
0.0201796
0.000147832
0.000203087
0.0465136
0.000148795
0.000262799
0.000316096
0.000172246
0.000149625
0.000148192
0.00421947
0.094701
0.000183222
0.000148335
0.000153031
0.0372844
0.000149662
0.0947484
0.000148467
0.000149021
0.000149013
0.0132857
0.000155965
0.000147987
0.000148956
0.000173329
0.000181431
0.000160181
0.000420048
0.0808899
0.000149164
0.0679302
0.000148985
0.000191561
0.000524215
0.000159397
0.0609692
0.000355887
0.000162594
0.000149473
0.000149142
0.000317849
0.0689292
0.000154251
0.00543744
0.044745
0.000148896
0.00014897
0.000340887
0.000195868
0.00446812
0.0112472
0.000151947
0.00714865
0.000149839
0.000148895
0.000149945
0.00015652
0.000148794
0.000153303
0.000149121
0.000149074
0.000155036
0.000148428
0.0236981
0.000148949
0.000172311
0.000148597
0.000150769
0.000868847
0.00656381
0.0438585
0.000159528
0.000186024
0.000166083
0.000150322
0.000149588
0.000160793
0.000169427
0.000195528
0.0169364
0.00365715
0.000181232
0.00179637
0.000151802
0.0042188
0.000148843
0.000158587
0.0161774
0.000158691
0.055937
0.00014908
0.0133863
0.00157133
0.000190341
0.0696663
0.000182411
0.0308672
0.000146897
0.000145666
0.000148292
0.0291123
0.00025627
0.000160754
0.000148842
0.000153811
0.000148987
0.000150335
0.035359
0.000272074
0.000152281
0.000218981
0.000148413
0.000191428
0.000195379
0.0816263
0.000147471
0.00933731
0.000147346
0.0799159
0.0539394
0.000165357
0.000186386
0.00015718
0.00019652
0.00338185
0.0946297
0.000153589
0.000159435
0.000152805
0.000162397
0.000160609
0.000307361
0.000166507
0.000199765
0.000148937
0.000149596
0.000164974
0.000151431
0.000147864
0.000169051
0.00806187
0.000146152
0.000174877
0.000192677
0.000254047
0.000254049
0.038451
0.000207627
0.000162245
0.00014906
0.00884418
0.000149406
0.000149857
0.000148865
0.000149416
0.000164336
0.000159861
0.000151913
0.000176621
0.000159989
0.000190474
0.0532447
0.000167653
0.00664332
0.000148904
0.0494716
0.000177069
0.000156686
0.000150755
0.000173296
0.0838988
0.000148574
0.000158599
0.0841559
0.000165979
0.000153489
0.000235122
0.0658499
0.000149319
0.000148851
0.0538983
0.0403236
0.0760237
0.00016336
0.000148649
0.0344742
0.000148851
0.000148801
0.000149237
0.000152366
0.000167211
0.000149754
0.058955
0.000161005
0.000169583
0.000148372
0.000149121
0.000151972
0.0584217
0.0118765
0.0978545
0.000152751
0.0100327
0.00038421
0.021234
0.000148827
0.000155051
0.0517087
0.000150064
0.0425461
0.0119267
0.0060411
0.000151503
0.000146348
0.000148606
0.00015283
0.000149992
0.00638978
0.0575588
0.000159702
0.0978033
0.000152086
0.0441439
0.000147819
0.000148793
0.0638397
0.0807971
0.000146704
0.000159535
0.000199683
0.000149612
0.0397443
0.000164739
0.0503991
0.000148629
0.0120942
0.0287287
0.000156317
0.0015073
0.033882
0.0385277
0.000228662
0.000187209
0.000175031
8.77999e-05
0.000148804
0.00015099
0.000148784
0.0703866
0.000148862
0.000150141
0.000149319
0.000183901
0.000148796
0.000146498
0.0797146
0.0733205
0.000260497
0.016639
0.0367062
0.000149892
0.000225075
0.0392974
0.000169359
0.000147777
0.000148301
0.000158667
0.0151994
0.0641909
0.0837043
0.000148513
0.0433213
0.0612968
0.00629047
0.0220295
0.000150904
0.000251786
0.000147061
0.000149644
0.0220004
0.000240089
0.000169133
0.000148966
0.000148781
0.000163895
0.00228857
0.00188833
0.0867696
0.000151021
0.00689761
0.000151115
0.00020893
0.000324084
0.000325874
0.000150744
0.000149031
0.0056536
0.000147746
0.00214735
0.000148538
0.00279192
0.000149236
0.000189711
0.0620947
0.000155347
0.0503384
0.000171665
0.00509411
0.00014874
0.0791629
0.000153783
0.0590277
0.0379302
0.042933
0.0106909
0.000148978
0.0132838
0.000186572
0.000174117
0.000228183
0.0549392
0.000157161
0.000147748
0.0704826
0.000152636
0.000153301
0.0441957
0.000149847
0.000149851
0.0680717
0.034738
0.0937543
0.000149043
0.0169353
0.000148831
0.000158587
0.0412114
0.000156151
0.000151377
0.00727307
0.0147279
0.000190973
0.0564621
0.000148488
0.000180366
0.000245545
0.00347542
0.000166441
0.000181474
0.0781735
0.0530589
0.00213972
0.000147188
0.000152513
0.000158056
0.000153483
0.000149571
0.000160352
0.000148866
0.0013165
0.0285889
0.000162938
0.000148441
0.000150155
0.000160691
0.000148795
0.0620791
0.000195347
0.00220896
0.000179507
0.00015104
0.000149743
0.00021721
0.000151242
0.0276352
0.000148806
0.00719851
0.00023237
0.0259035