/*--------------------------------*- C++ -*----------------------------------*\
| =========                 |                                                 |
| \\      /  F ield         | OpenFOAM: The Open Source CFD Toolbox           |
|  \\    /   O peration     | Version:  v2012                                 |
|   \\  /    A nd           | Website:  www.openfoam.com                      |
|    \\/     M anipulation  |                                                 |
\*---------------------------------------------------------------------------*/
FoamFile
{
    version     2.0;
    format      ascii;
    class       volScalarField;
    location    "400";
    object      ddt0(epsilon);
}
// * * * * * * * * * * * * * * * * * * * * * * * * * * * * * * * * * * * * * //

dimensions      [0 2 -4 0 0 0 0];


internalField   nonuniform List<scalar> 
18540
(
1.18025e-05
5.32567e-11
-2.07677e-10
3.59814e-06
1.1995e-10
-4.47088e-11
1.97871e-10
-7.04512e-10
-1.0183e-06
-2.4979e-10
-2.93751e-10
-2.88505e-09
4.61679e-06
-2.46292e-10
5.83917e-06
1.90349e-06
-8.351e-09
9.97627e-10
-0.000155945
-2.53241e-06
-4.58265e-09
1.98721e-09
7.95423e-11
-1.62423e-05
-6.56317e-10
-3.79868e-10
2.32394e-05
1.17588e-09
1.43163e-10
1.39848e-05
-5.97575e-11
5.19019e-10
-5.01319e-09
5.21914e-06
2.56614e-11
3.56376e-06
1.83763e-09
1.55653e-10
5.17779e-11
-2.90312e-07
-5.87596e-11
8.71669e-10
4.20311e-07
-2.00682e-05
1.21473e-09
-5.49111e-10
-6.0284e-05
-3.70225e-10
8.9734e-10
-2.04863e-10
-5.70119e-10
7.79045e-05
-3.20554e-06
2.62181e-12
-2.58237e-10
-2.42718e-10
4.92225e-06
-1.74644e-05
6.88112e-07
-5.9476e-10
8.65701e-06
-5.03178e-10
-3.20266e-10
-5.62029e-09
1.31265e-05
1.69353e-10
9.94005e-08
-8.17547e-11
-4.06935e-07
-1.15075e-13
9.16444e-11
1.92586e-08
6.99698e-08
-2.1922e-05
-3.73133e-10
-3.37078e-09
-6.7174e-09
-5.07351e-10
9.43876e-10
8.99322e-09
-1.44134e-09
3.28106e-05
-8.11398e-10
-1.25293e-07
7.6562e-06
-2.17225e-05
2.80819e-10
-1.85372e-10
1.24917e-09
-2.36689e-05
-5.80129e-08
7.16481e-09
-1.51134e-09
1.2661e-10
-1.61451e-10
-1.70379e-10
-1.24835e-10
1.73074e-10
-0.000446405
2.9716e-05
5.24965e-11
7.26623e-10
1.44528e-08
4.65831e-06
1.03265e-05
5.02359e-09
-6.07953e-11
1.42491e-05
-2.07582e-10
-4.57138e-10
4.93447e-05
-1.62557e-05
-9.73243e-11
-1.53516e-10
-4.97275e-05
-2.02329e-10
4.1555e-10
1.78902e-10
-2.97372e-11
-3.01256e-11
-0.000158168
9.50879e-06
6.96605e-06
-2.93952e-05
-2.48864e-10
5.3788e-11
6.95919e-11
8.26297e-10
9.24486e-07
2.25877e-09
-5.04112e-06
-3.59125e-10
-4.0219e-10
-3.1509e-05
2.63313e-10
5.34278e-11
-1.38151e-10
-5.71303e-10
-1.08271e-09
-2.02404e-10
1.3723e-05
1.83312e-09
-1.95441e-10
3.06304e-05
-8.63115e-10
3.07327e-10
-9.83562e-11
-2.95471e-05
6.62246e-11
-1.0082e-05
2.49919e-10
-5.43512e-10
1.00027e-09
-3.93678e-05
4.07721e-06
-1.36565e-06
-1.00609e-05
-3.29587e-10
-1.90767e-10
2.15237e-05
2.80087e-10
-2.96593e-10
-9.16341e-09
5.91221e-10
-0.00010216
-2.24309e-09
-2.10797e-05
-1.49812e-09
5.98694e-06
6.9176e-11
-1.66589e-10
-1.56105e-10
3.6162e-11
1.16235e-09
-1.26122e-10
-5.01035e-05
-5.10153e-10
4.16392e-06
6.46302e-06
-1.14726e-05
-7.49841e-12
3.81701e-09
-2.58746e-10
9.28265e-09
-1.11528e-10
4.03134e-06
6.13599e-11
2.57638e-10
3.22845e-06
5.13603e-10
-3.90846e-11
-8.94872e-11
-2.97525e-06
-1.21023e-10
-5.11001e-09
-7.49011e-10
-3.89518e-10
1.52973e-06
-7.16614e-07
-4.91606e-10
-6.32269e-10
1.97728e-08
-5.00243e-10
-1.41555e-10
-1.67678e-05
-1.72004e-05
2.15982e-09
3.48808e-06
-5.4251e-06
-1.52228e-10
1.4424e-09
-1.55373e-06
3.8302e-06
-1.61249e-10
-1.10558e-09
-1.37502e-10
-3.919e-05
-2.61815e-08
-1.50936e-05
-5.29927e-05
-1.57861e-06
-1.96501e-09
-1.02689e-05
-3.28287e-07
-5.35502e-05
-0.000103494
1.15232e-10
2.27372e-11
-1.20421e-07
3.88551e-10
7.8662e-11
6.85809e-07
-2.25376e-08
2.55526e-10
-1.40396e-09
-2.11677e-10
7.34785e-10
2.50684e-11
2.41275e-10
4.36986e-10
1.0853e-05
7.9631e-08
-2.27585e-08
-4.71484e-11
-1.55619e-05
-6.94317e-06
1.26958e-10
4.1078e-10
7.84016e-10
-1.05659e-10
-1.48865e-08
-3.61993e-06
-3.97193e-06
-7.2488e-10
-8.0925e-11
2.29807e-09
4.05312e-07
-7.0965e-07
-2.87727e-09
-1.28586e-06
1.02287e-09
7.4646e-06
1.01073e-09
-9.74547e-05
1.1966e-05
8.83229e-10
1.01044e-05
-2.68462e-05
-7.60937e-09
6.38295e-10
-3.95178e-06
3.13636e-06
-5.03347e-05
2.29781e-10
-2.68311e-08
5.57256e-06
-3.93459e-10
2.24939e-10
-5.60259e-08
4.9274e-09
2.14158e-10
4.62474e-06
3.96428e-10
5.35279e-10
2.96755e-05
-1.43817e-10
1.22337e-07
3.62749e-10
3.50126e-06
1.2209e-07
-4.16683e-05
-5.53843e-05
-2.43301e-10
7.43623e-09
-2.93283e-05
-3.86457e-10
8.84611e-07
-5.84874e-10
5.79651e-05
-1.40653e-08
-9.88263e-10
1.6646e-06
0.000118792
-7.2246e-08
-8.47616e-09
-1.37152e-10
1.6032e-05
3.09889e-10
1.40944e-06
2.0399e-10
5.0324e-06
5.94555e-11
5.41677e-06
-2.40363e-10
-6.49735e-06
2.86894e-05
5.19892e-06
2.73754e-09
-1.3029e-05
-3.71269e-06
6.28882e-06
-3.29035e-06
-2.19114e-10
9.74761e-08
4.67275e-10
-3.93484e-10
-5.6274e-10
6.97924e-10
-5.29599e-10
4.80633e-10
5.42934e-10
5.40934e-09
8.3271e-08
-9.77377e-10
-5.61786e-06
-4.76085e-10
3.2912e-10
-2.65866e-10
9.80041e-06
-4.75552e-08
-2.88887e-10
1.18291e-10
7.50126e-11
1.02006e-07
4.29583e-07
-3.37269e-07
-8.22531e-10
-3.83973e-09
-3.82313e-10
4.18069e-05
5.9446e-07
1.49806e-09
7.87551e-08
-4.6403e-10
3.31877e-09
-4.41994e-05
-1.61842e-10
2.91873e-10
-1.10659e-09
-6.52306e-07
-3.45429e-10
9.07841e-10
2.86936e-10
-2.83143e-10
-5.03684e-05
-1.23283e-09
1.72351e-10
5.05516e-10
3.44517e-10
-2.30545e-10
3.83847e-06
-2.79238e-10
-1.91395e-08
5.21543e-10
-9.43933e-10
0.000159293
1.18218e-09
-0.000127542
4.12902e-10
4.38071e-05
-3.06678e-05
2.04605e-10
-1.35147e-08
7.49496e-07
-2.90251e-10
2.52251e-10
-3.36807e-07
1.3977e-05
2.14136e-11
6.73205e-05
-4.18588e-05
2.7053e-10
8.06171e-10
1.39459e-06
3.90498e-06
-8.70242e-10
-1.63669e-05
3.48336e-06
1.11727e-10
-4.10048e-06
-6.56892e-05
-2.2039e-05
-3.16526e-10
9.19104e-10
-2.83189e-10
3.81725e-10
-4.69801e-05
8.60412e-06
1.07363e-09
-1.35958e-10
-1.41426e-06
-4.02696e-06
6.7185e-09
8.67994e-10
-3.01223e-10
2.7172e-05
-1.96536e-09
-2.08997e-10
-7.1731e-08
3.04867e-07
-1.28112e-05
1.24645e-05
-2.58023e-10
4.74494e-05
7.45284e-11
-6.81974e-10
-1.31862e-10
-2.76073e-05
-3.2428e-09
-2.6596e-11
-4.92034e-10
8.13408e-06
-5.20841e-10
-2.65266e-05
-4.09678e-11
-0.000712589
-1.98287e-10
-1.03434e-10
-3.66264e-05
-3.16297e-10
1.37195e-06
-3.17591e-10
-1.02299e-07
5.56225e-06
2.20761e-10
-7.68609e-11
-9.66232e-10
6.64063e-06
-3.48592e-09
-1.6136e-10
-7.78491e-05
-1.58727e-05
-5.50868e-12
3.86287e-11
5.46818e-10
1.18126e-09
-4.03995e-10
-5.01235e-10
9.3116e-06
4.02242e-05
-1.99464e-10
-2.24293e-10
-6.29444e-10
1.14075e-09
-2.09987e-10
-1.97914e-10
-5.27158e-05
-2.52572e-10
-4.24593e-08
-1.06504e-08
-5.31903e-05
-5.22859e-09
-5.59495e-06
-2.14106e-05
7.38645e-07
-7.89981e-11
8.35091e-06
-3.43347e-10
-1.42681e-05
1.53621e-10
2.65428e-10
1.08138e-10
-5.87661e-06
4.73826e-10
-2.45058e-10
6.06835e-11
-3.72732e-10
-4.04981e-06
5.41349e-10
3.72388e-11
1.3215e-05
-6.8019e-11
1.05739e-07
9.67124e-06
-1.7187e-05
3.14779e-05
6.06887e-10
8.2572e-06
6.73027e-09
5.85125e-11
-2.20261e-06
2.6326e-08
-2.66242e-10
-1.38104e-07
2.09791e-09
5.37842e-10
1.38114e-06
8.04458e-11
-5.8767e-08
4.65776e-06
-6.22125e-10
2.69956e-10
6.45961e-10
-1.58471e-10
-1.66305e-05
4.20833e-10
9.26122e-11
-3.68751e-10
-6.9602e-06
6.0818e-11
-7.76005e-05
-1.72733e-09
8.33404e-09
3.90552e-05
-3.66197e-10
-1.20616e-10
1.73702e-09
3.42366e-06
-1.65407e-10
2.34564e-10
-6.74975e-05
2.59056e-07
9.91558e-10
6.8861e-12
1.28842e-11
2.3315e-10
-9.51129e-06
-1.3943e-05
4.24489e-10
3.6429e-10
-5.10112e-10
1.07171e-09
-4.68035e-08
-1.91346e-10
5.01284e-11
2.72859e-12
-7.22374e-06
-9.50794e-06
-1.48508e-09
-7.2422e-10
4.16944e-10
1.13688e-10
1.64632e-07
-2.6861e-05
1.70828e-10
-4.59154e-10
7.21245e-09
-3.35438e-05
4.28029e-06
1.53544e-10
2.19707e-10
5.05189e-10
-1.96548e-10
5.75849e-10
-3.39042e-11
3.80801e-06
7.32706e-13
2.09016e-08
-4.45019e-10
1.76546e-09
2.22526e-10
3.13316e-10
-3.97899e-07
1.31239e-10
-6.24652e-06
-1.81602e-05
1.40682e-09
-6.67486e-10
3.27138e-10
5.73338e-10
5.59516e-09
-2.58345e-11
-7.33646e-05
-5.64137e-06
6.10393e-07
1.39077e-09
1.04269e-10
3.19114e-10
-2.30391e-10
1.43544e-06
-3.48518e-10
9.62439e-09
-2.42899e-09
5.22502e-10
-3.80322e-06
-6.10097e-10
-3.10173e-10
-1.90184e-06
1.25102e-11
3.70298e-11
9.47371e-06
3.56884e-10
6.00188e-10
-8.78201e-09
2.32851e-05
-1.36349e-09
-2.05902e-10
2.38056e-09
2.00237e-08
3.49834e-10
-1.56379e-10
-6.21348e-06
3.04377e-05
-1.00661e-06
-8.72347e-10
2.78422e-06
-1.32896e-09
1.97977e-10
-5.04567e-05
2.02217e-10
1.19836e-05
5.56717e-06
4.79933e-11
3.48173e-07
-3.10981e-08
-1.78632e-05
5.40697e-10
-5.23032e-11
1.35952e-06
4.76104e-06
-2.9599e-10
2.42283e-05
-3.10745e-06
-8.5798e-06
7.97181e-13
3.56594e-10
-3.96019e-10
-1.88536e-06
3.52823e-11
-5.47609e-11
1.29522e-05
3.77272e-06
-3.48663e-10
-5.46893e-10
-5.82446e-05
-7.70217e-07
-2.61767e-10
-4.81535e-10
1.75487e-09
2.5123e-10
2.45102e-06
-4.77599e-10
-1.65195e-10
-1.16239e-10
-6.44199e-09
-2.439e-05
2.78894e-10
-1.68423e-05
1.98977e-10
3.846e-06
6.88788e-10
-1.68176e-05
-1.89174e-06
-2.23195e-10
-2.208e-05
1.09358e-10
-7.72459e-10
-4.20749e-05
-5.10421e-05
6.3733e-10
-3.00485e-10
2.83265e-05
2.23837e-05
-6.80281e-08
5.23402e-06
-5.96546e-10
7.57725e-06
-3.20787e-06
-1.93374e-11
-1.46119e-10
-4.7039e-10
-8.44146e-11
1.46392e-06
-3.23157e-10
1.22303e-10
-1.95235e-10
-2.48889e-07
-2.5612e-10
-1.81923e-10
-1.96887e-10
2.22991e-11
1.57873e-06
-1.82123e-05
-2.70537e-05
-2.74311e-10
3.90251e-06
6.22012e-11
1.05275e-09
-1.94374e-10
-3.74376e-06
4.28348e-09
1.99705e-10
1.97936e-11
-2.88115e-10
-1.06953e-10
-1.06568e-10
-7.8343e-06
4.31325e-11
1.61318e-09
3.73243e-06
-3.37182e-11
2.62869e-10
-1.61422e-05
3.03511e-06
-5.42955e-05
3.91848e-10
4.01858e-11
8.0013e-10
-2.75278e-11
-1.72103e-08
-2.5971e-08
-1.66978e-10
1.35635e-12
1.55808e-10
-5.97889e-10
-2.30113e-09
6.18874e-09
-1.1776e-08
1.00038e-11
-5.11659e-10
-5.19732e-07
-1.53697e-09
-2.99182e-10
4.64356e-10
3.67051e-06
1.29647e-10
9.29992e-11
2.29539e-05
1.58879e-08
-3.86806e-10
2.22582e-10
2.47466e-09
-1.70685e-05
7.59802e-10
-2.63558e-10
-3.20549e-10
-8.78652e-06
3.35673e-10
-7.02163e-05
7.4039e-07
6.47594e-06
1.71858e-10
-7.51762e-10
5.29369e-11
-4.77993e-10
2.46196e-09
3.6745e-11
4.30373e-10
-1.43709e-10
-3.17188e-11
7.78502e-06
1.21437e-10
-2.45006e-10
4.00701e-10
2.49273e-05
-1.89095e-06
-6.85401e-10
2.75305e-09
5.28328e-09
-7.17376e-10
2.42408e-09
-4.69904e-07
-4.5163e-08
-9.95218e-09
1.52138e-09
4.62964e-09
4.60091e-10
-5.45506e-06
-1.12831e-09
-2.82959e-10
1.36953e-10
-3.72213e-06
-8.46051e-11
-1.5742e-05
3.20218e-09
-8.9535e-09
-3.58119e-10
2.18044e-05
3.90781e-09
-2.53231e-09
-5.37334e-10
-4.57962e-10
3.28226e-05
-2.07863e-10
1.11541e-10
-3.63607e-07
-2.22653e-10
8.05633e-10
-1.7376e-06
1.35445e-10
-2.68682e-11
-6.15963e-13
-6.0423e-05
-1.5034e-09
-1.88841e-10
3.15117e-05
-7.15107e-11
-1.53454e-10
-5.20297e-06
2.92867e-10
-5.54821e-10
3.47798e-10
2.28752e-10
-3.99308e-06
1.49694e-10
4.34498e-10
-4.24142e-06
-2.87895e-10
4.98565e-06
-3.1436e-10
2.02885e-05
-2.98229e-10
-1.90242e-10
1.48135e-10
4.22441e-06
-2.07843e-10
1.60077e-09
-8.47885e-10
1.48094e-09
1.33122e-10
3.83534e-10
5.14148e-06
2.88301e-06
-3.18041e-10
-2.17005e-05
4.20305e-09
9.80193e-10
6.43533e-06
-6.48229e-10
-1.48548e-10
4.86916e-10
-4.59069e-05
4.69771e-09
-1.18728e-10
2.88162e-10
-5.44458e-10
-1.0366e-05
-4.84057e-10
-2.04412e-10
1.02648e-07
1.51639e-09
-1.37471e-10
4.42672e-07
1.96691e-05
-2.26719e-10
-8.35413e-10
3.65158e-06
4.26581e-13
-2.82595e-10
-4.59773e-06
5.48062e-09
3.25529e-05
2.6054e-10
2.13828e-05
-6.37814e-10
-1.57689e-10
-1.36497e-10
-1.54563e-10
-3.29213e-06
-1.67836e-07
2.72474e-10
-4.08911e-06
2.63631e-10
1.23766e-09
-4.73373e-05
4.82427e-10
1.11767e-06
4.15867e-06
-2.60566e-10
7.36004e-05
3.82291e-10
-6.71316e-05
-5.46705e-10
-3.30318e-05
-4.88816e-10
-5.14072e-11
8.22643e-06
1.28771e-10
-4.91584e-10
1.88998e-05
6.9009e-11
-2.15072e-10
8.22581e-06
-3.95254e-10
-0.000121446
3.44704e-10
3.93156e-10
-3.2553e-10
8.93742e-06
7.09403e-10
-9.75918e-06
1.17162e-09
-4.36887e-09
-1.50049e-09
-2.14566e-10
3.57783e-05
-4.72088e-05
1.20293e-09
-2.32139e-05
8.42066e-06
-4.21614e-10
1.15955e-09
-3.83257e-10
-7.92206e-08
2.94661e-09
4.06596e-10
-6.79963e-06
1.50451e-09
-3.17216e-07
6.47881e-10
2.34313e-06
2.39914e-05
-4.85276e-10
-6.34344e-05
-3.75083e-05
-1.92112e-05
2.67597e-05
-4.62779e-10
-1.20491e-09
3.32564e-05
8.77221e-10
-2.70154e-05
3.19206e-05
3.48825e-10
-1.25051e-10
-2.04356e-10
2.78775e-10
-6.60249e-09
-5.21036e-10
-1.70057e-05
5.74125e-11
2.82583e-10
4.10264e-08
-0.000276262
-1.3036e-10
2.78609e-10
9.17904e-10
2.04484e-06
-6.43328e-10
-5.77865e-10
1.83219e-07
3.9514e-06
-6.68949e-11
1.55774e-06
-1.83739e-09
4.20763e-07
-2.46427e-10
3.69167e-10
-1.99836e-05
-5.33194e-06
9.95999e-06
-6.7988e-06
-3.0379e-11
-5.80453e-10
3.40627e-11
-3.76845e-06
5.95602e-11
-3.95078e-06
-1.25422e-10
-1.72336e-11
-1.33464e-10
-6.35505e-11
-6.87895e-05
-3.60685e-06
-2.67909e-10
1.43266e-10
1.52003e-10
3.14958e-11
-5.50084e-05
4.22282e-06
8.88693e-11
5.1332e-06
8.46624e-06
-1.21538e-09
1.96699e-10
-4.49896e-06
-2.33048e-08
3.8938e-06
8.35053e-07
1.21325e-09
4.71887e-11
1.82343e-10
1.55522e-05
-3.89926e-06
2.42611e-07
4.58359e-06
-1.59744e-10
-1.00171e-05
-4.16704e-10
-1.1821e-05
-3.64833e-10
-1.11763e-09
-3.93319e-10
-5.81719e-11
-1.41586e-05
2.9258e-10
-7.68949e-05
8.48606e-11
-4.57224e-05
-2.35139e-10
-1.18849e-10
2.61963e-05
5.46712e-06
-7.84758e-10
2.04943e-05
4.63144e-07
2.73891e-10
-3.65585e-06
1.13834e-05
1.59026e-05
-6.36108e-06
8.80311e-10
-2.35836e-10
-6.16145e-10
3.12105e-09
2.51881e-09
3.10033e-10
-4.50296e-05
9.83712e-06
-2.28424e-09
-1.69514e-05
-1.42326e-09
-4.51808e-06
-8.03315e-10
-1.0069e-10
-6.23495e-10
1.62792e-06
9.80395e-11
3.24989e-05
1.39643e-09
-2.78697e-10
1.08266e-08
-3.54574e-11
-1.66448e-05
4.95654e-09
-2.35042e-10
-2.94088e-10
-6.14717e-05
4.13816e-10
1.3747e-06
-2.67154e-11
6.84012e-10
-5.31812e-10
2.44282e-07
2.2033e-10
-1.74679e-10
-6.61692e-10
2.05156e-09
1.54519e-06
2.98988e-10
-7.24125e-11
1.84507e-10
2.0633e-10
3.64077e-06
3.66492e-06
6.03927e-10
-1.10577e-09
-5.61839e-10
-6.42894e-10
-9.17494e-06
-1.21337e-10
-3.06486e-10
6.14356e-11
-3.72392e-06
3.10228e-10
-2.83789e-10
-1.30252e-11
-1.12428e-09
-4.89336e-08
-4.66182e-07
-5.52607e-06
1.44131e-10
1.37484e-09
-1.20014e-10
1.33784e-09
-2.61509e-10
-1.30432e-07
1.20227e-10
3.37411e-05
-2.56643e-05
3.75149e-05
7.62396e-11
3.63295e-06
1.79711e-06
6.10304e-10
2.69352e-10
2.83434e-10
-2.8034e-10
-2.27999e-05
3.1315e-10
2.90671e-07
-1.67161e-10
-6.54203e-11
-1.18041e-10
-1.85697e-05
-7.2165e-08
-1.03192e-09
-5.20391e-10
-3.65712e-06
-5.95148e-05
-3.9845e-05
-1.69259e-11
5.95027e-06
9.9708e-09
1.06364e-09
-3.03561e-06
9.7416e-10
-4.45146e-10
5.06654e-05
2.02064e-05
-1.15393e-08
-1.88319e-10
5.12406e-07
-1.31025e-05
4.24241e-06
-1.01075e-08
1.3362e-05
-4.54818e-10
3.58538e-06
6.62867e-09
2.0345e-10
1.70286e-10
-5.58351e-05
-7.58482e-06
-4.06078e-10
1.97946e-05
1.46521e-09
-1.65527e-11
-9.00116e-06
1.73836e-10
-9.62567e-09
-3.26896e-10
-4.77237e-07
3.19303e-10
-2.45285e-11
-2.84663e-09
4.24777e-10
-9.82708e-06
-7.96842e-10
3.40455e-05
2.50778e-11
-7.51897e-10
1.23612e-10
-3.21895e-11
-7.82351e-12
-2.821e-08
3.19299e-05
-1.77753e-10
-3.50419e-08
-4.74614e-10
-0.000105223
-3.66841e-10
-3.89455e-05
-3.83201e-08
3.83715e-10
-3.59919e-13
-2.63922e-06
-1.51744e-10
1.98478e-10
-1.13443e-11
8.35682e-11
5.60628e-06
8.55392e-05
1.62252e-12
-2.71028e-10
-5.64687e-05
-2.31771e-10
-8.4484e-10
1.22518e-09
-1.02051e-10
1.29868e-10
-9.98316e-10
6.46363e-06
5.8523e-10
4.80117e-11
-5.28992e-05
-6.5181e-05
5.17766e-10
-6.54194e-10
2.66454e-10
-0.000116404
-1.2954e-09
4.91485e-10
-3.22082e-05
2.03483e-10
-1.20597e-10
1.68073e-09
2.59873e-09
8.53832e-11
-7.23421e-11
-3.02305e-06
4.13164e-11
1.42087e-05
2.56105e-09
1.21451e-05
3.83579e-07
-2.98071e-05
-4.09774e-06
-3.42394e-06
-5.08068e-05
-9.04396e-10
-3.53614e-06
-7.86367e-06
-6.43058e-08
-4.41304e-06
-5.2394e-05
5.55268e-11
5.57066e-10
-5.28445e-11
-2.39155e-05
-3.63434e-11
-1.15396e-09
-3.20636e-10
-3.25552e-10
-1.20771e-10
1.4758e-10
-2.85562e-05
1.06224e-05
-3.29455e-10
2.4217e-06
4.32372e-07
-2.47176e-08
1.62844e-05
-5.31203e-10
3.81259e-10
-3.10068e-05
-3.3662e-06
-1.90107e-09
9.88032e-06
-7.19142e-10
-3.34364e-10
-3.82158e-10
3.90429e-06
1.63447e-07
-5.97141e-05
3.39469e-06
-8.35397e-10
6.75353e-07
1.66978e-11
6.12334e-06
3.48064e-11
3.4263e-06
4.2537e-05
1.281e-07
3.34305e-10
-6.4902e-11
-3.05829e-10
1.90434e-05
-9.69241e-11
-1.57708e-05
-2.38779e-05
3.21217e-12
4.49152e-05
2.38081e-07
-3.86356e-11
3.19518e-11
-2.08154e-10
6.92362e-09
-1.02986e-09
7.60055e-06
9.74091e-10
2.35576e-10
5.31648e-06
0.000318714
0.000126091
2.52524e-10
-2.72439e-05
3.46681e-10
-3.24143e-10
1.641e-09
5.02342e-10
4.20011e-05
-3.09034e-05
-2.09024e-10
-9.54756e-09
-1.4244e-09
-4.09189e-10
-2.47062e-10
5.54437e-10
4.74147e-10
-6.79926e-10
-5.09844e-05
-7.925e-05
-4.39073e-10
2.05621e-05
3.22525e-05
9.36129e-07
-9.50934e-06
-2.88789e-09
-1.08525e-09
-1.90236e-09
-2.01204e-11
8.2258e-10
-7.36339e-05
5.28572e-10
1.37191e-08
3.38726e-05
6.51718e-10
-7.27593e-12
-8.79936e-06
-3.12339e-05
1.45375e-05
9.4714e-12
1.64578e-10
-4.19118e-07
9.18773e-11
2.7902e-05
3.75133e-10
1.47987e-10
-4.23075e-10
-3.35443e-05
-3.19448e-09
1.63593e-09
7.76562e-09
-3.95805e-10
-4.61393e-10
-4.29044e-06
2.33931e-10
1.48979e-10
-2.51255e-10
-4.25083e-11
3.59895e-06
-1.49221e-05
2.07966e-06
5.18154e-10
-8.3415e-11
-3.03867e-06
-5.48277e-06
3.1363e-05
-6.17906e-11
-1.23859e-07
7.18291e-05
6.19428e-09
-3.11107e-05
-2.43033e-10
-3.14741e-05
-4.55325e-11
2.58394e-10
-2.69925e-05
-3.60611e-10
5.4257e-10
3.72423e-06
3.07865e-06
-4.22725e-10
-1.13791e-09
1.41791e-07
3.18669e-05
2.92104e-10
5.45701e-10
2.48813e-05
-4.90697e-12
-9.76858e-11
2.3553e-10
6.77705e-07
-2.39862e-10
-1.19546e-05
-6.12306e-08
9.93795e-06
-8.64756e-10
-5.4654e-05
-1.2461e-10
-1.13336e-10
-1.86846e-05
7.65743e-12
1.05062e-05
5.17464e-10
4.01289e-10
1.28487e-11
-3.72341e-10
-3.28815e-06
7.40336e-05
9.48968e-09
-1.63267e-06
3.35492e-09
1.02638e-11
-1.44033e-05
-2.59966e-10
-7.68611e-10
-1.65561e-07
3.56154e-10
-1.74045e-10
-6.06768e-11
-2.43341e-10
2.71467e-10
-5.35083e-10
-2.6254e-05
1.07084e-09
9.62474e-06
-2.92703e-09
-3.43078e-09
1.14187e-10
2.7402e-09
1.29152e-05
-1.60986e-09
3.51857e-08
3.09115e-06
8.06836e-08
5.9185e-11
-5.05504e-10
-3.01368e-10
3.0412e-10
2.54243e-06
-4.41209e-05
-4.30333e-06
6.07899e-11
7.56433e-10
3.26992e-05
-1.62382e-06
-2.78673e-08
-1.46109e-10
9.14304e-11
-4.03224e-11
4.66352e-06
-0.000114021
7.32552e-07
-4.32044e-09
-2.23563e-10
1.38118e-09
8.18809e-06
7.83158e-06
-1.68652e-09
-2.24614e-07
2.95616e-10
2.34726e-10
-2.96838e-10
-2.12146e-08
-2.04334e-05
-1.45921e-05
2.8223e-06
2.26309e-09
4.05735e-10
-4.91188e-10
2.66352e-07
-7.13275e-06
1.76681e-05
-2.67713e-05
2.2045e-09
2.79397e-10
-4.17882e-06
-2.71868e-05
-1.78138e-10
-3.41242e-10
2.51297e-05
2.00188e-11
2.42885e-11
4.75499e-06
-6.86666e-10
2.05504e-10
-1.11372e-08
5.41511e-06
-6.91347e-06
-1.33249e-09
-4.79869e-11
4.9819e-09
2.0419e-10
-3.90805e-11
-8.21962e-11
4.17549e-12
3.79569e-10
2.73079e-05
2.86367e-09
-1.01812e-10
4.61686e-10
-3.97544e-06
-2.09487e-05
-4.1931e-09
2.5277e-10
-8.71913e-10
1.73248e-10
2.96947e-10
4.06454e-10
8.7639e-11
-7.99915e-05
1.38278e-10
2.41673e-10
-2.38212e-09
-1.31012e-07
-2.34798e-05
-3.02367e-05
-8.67999e-10
2.07008e-07
-4.09144e-06
6.81854e-06
1.77637e-07
3.43951e-11
5.45394e-10
-5.18996e-06
5.3569e-07
-4.66608e-05
-2.71767e-06
-1.017e-10
-5.29496e-05
8.8876e-06
3.5641e-06
1.22928e-10
-4.52251e-08
-2.43948e-05
1.14828e-05
1.32893e-10
1.8568e-06
1.71419e-06
-3.02949e-10
-5.4788e-11
-2.0353e-10
7.31545e-08
2.51265e-09
1.21394e-09
3.18981e-05
-7.98584e-05
4.38201e-06
4.89548e-06
1.00059e-09
6.73539e-10
1.5474e-05
2.37583e-05
1.66099e-08
1.19657e-10
-5.03219e-05
-5.06575e-10
4.67963e-10
1.24391e-10
-2.62976e-05
1.9904e-10
1.4277e-09
9.06416e-11
6.87696e-06
8.98221e-11
-2.7742e-09
-2.53872e-10
6.52667e-05
8.63111e-06
-3.30588e-10
-2.58397e-05
3.39611e-11
-4.92405e-10
-3.53658e-06
-3.76247e-05
-1.62829e-09
-1.04495e-10
1.24888e-07
3.39325e-09
-7.35507e-10
-7.38864e-10
-2.2857e-10
6.17439e-10
-3.6612e-09
-2.24765e-10
1.49436e-09
1.37729e-05
-8.48668e-06
-5.70792e-06
-2.73082e-10
-2.00097e-05
-9.07706e-10
4.93335e-10
-1.28003e-11
-5.90187e-05
-2.84618e-10
4.93222e-10
-9.63524e-06
3.79592e-08
-2.74533e-10
-0.000220688
-5.31175e-11
4.93845e-11
-4.54778e-06
-4.88169e-07
-2.20413e-10
-5.54673e-10
2.62332e-06
-2.45916e-10
-4.16259e-10
-1.0013e-05
2.18677e-09
-1.77279e-09
-1.66274e-10
2.84353e-10
3.96183e-10
-5.81828e-06
-3.25316e-11
2.14706e-10
-8.46864e-06
3.49647e-10
-4.27505e-10
-1.55599e-05
-3.83276e-09
1.46384e-05
4.10067e-08
1.31593e-10
-3.51353e-08
-1.33256e-10
2.45496e-10
0.000105869
-1.87976e-06
-1.76191e-09
1.79109e-10
-1.14128e-05
-7.3559e-09
-2.28407e-05
7.87995e-11
7.99283e-06
-3.24603e-10
-4.33546e-10
-1.83225e-08
-1.19907e-10
1.78344e-06
7.70542e-05
2.2838e-09
-2.93688e-12
5.99507e-10
-6.14513e-10
-4.70979e-09
1.22083e-10
1.71053e-10
-1.41859e-06
3.749e-10
2.01639e-09
-1.55904e-05
1.87173e-05
-6.68243e-11
-5.12618e-10
1.63325e-06
1.57875e-05
-2.3595e-05
-3.04332e-10
-2.19841e-09
1.31126e-09
3.71085e-07
-2.80463e-05
3.85653e-08
-3.07861e-06
2.97271e-05
-2.48244e-06
3.95468e-11
1.21742e-09
-2.93403e-10
-3.31219e-10
3.23934e-05
7.54104e-10
-6.32429e-11
-3.14025e-09
-3.72187e-06
1.27059e-08
7.59051e-06
3.92429e-08
9.86289e-10
3.17111e-10
-2.57529e-09
3.11306e-11
1.80824e-10
-9.59293e-10
2.18976e-09
-1.56937e-09
-4.45406e-06
4.61127e-10
-9.69835e-09
-8.96296e-06
1.69283e-06
-3.2543e-10
-2.49967e-10
-2.64247e-11
-4.43643e-06
-1.46651e-10
-1.76171e-10
-8.99862e-11
-9.54124e-10
2.15205e-08
-3.25153e-08
1.22352e-10
-5.80791e-11
1.04407e-05
2.4186e-07
-0.00099305
7.61401e-10
-1.2651e-05
6.08787e-11
-3.58602e-11
-1.95776e-10
3.75748e-06
1.40685e-08
4.31131e-10
2.72261e-10
3.23474e-05
1.83074e-10
-1.28665e-10
-1.44971e-09
-2.59195e-10
-8.34888e-11
-8.52736e-11
-8.37499e-06
8.01036e-11
1.05628e-06
-2.58222e-11
-4.11167e-06
5.30371e-11
-1.36695e-06
-3.48971e-09
4.53366e-10
-4.39785e-10
-7.44346e-10
4.2041e-10
-1.41428e-05
3.84119e-11
7.97491e-09
1.13786e-09
1.08624e-07
1.08262e-09
-2.22704e-08
-2.15088e-08
4.60096e-05
-1.8218e-05
-2.95571e-10
9.07549e-06
5.87788e-10
-1.34115e-10
-1.55677e-05
-6.50295e-11
-5.8334e-10
4.02701e-06
5.12041e-10
2.21772e-10
2.48049e-11
-2.20824e-10
-5.74974e-07
-8.78672e-08
1.2607e-09
-2.99412e-10
-9.458e-06
-1.27977e-06
1.33724e-09
-4.52301e-06
-7.18471e-12
1.0005e-09
5.43618e-06
-3.29097e-05
6.15166e-07
2.92279e-07
1.80664e-05
1.77505e-08
3.07196e-09
-2.00403e-10
2.96554e-10
-2.36729e-10
1.99583e-10
-1.38286e-11
3.32015e-05
7.39703e-08
-1.66857e-10
-2.17652e-06
-6.91749e-11
9.53798e-06
-9.203e-07
1.34833e-06
-4.34413e-06
-8.91976e-08
9.96132e-06
2.34694e-09
4.34161e-10
2.68301e-06
7.53778e-07
-1.73864e-10
-1.97194e-10
-1.75673e-05
-3.1736e-05
5.12046e-10
-2.63378e-06
-6.76981e-10
-6.44396e-11
1.04446e-09
-7.66076e-06
2.55688e-05
6.28956e-05
3.35975e-10
8.73412e-11
8.68834e-10
-1.04974e-10
7.35545e-10
-8.99843e-10
7.83172e-06
-9.60296e-06
-1.08538e-10
-1.36488e-10
4.73427e-06
1.98039e-10
1.68925e-10
9.07156e-10
-4.85324e-11
1.37875e-05
-3.59566e-06
-3.86342e-10
3.67405e-06
-3.87525e-10
-7.06179e-08
3.73627e-06
1.39928e-10
3.86391e-10
-1.01359e-09
-7.594e-06
2.03362e-10
8.37083e-11
3.34587e-11
3.65791e-10
1.23468e-05
4.62649e-11
-2.15709e-10
-4.68703e-10
-8.62659e-10
1.60863e-10
6.36881e-06
-4.63891e-06
-6.05771e-05
8.14418e-10
3.39761e-06
3.21047e-05
-2.97503e-11
-1.04325e-10
2.57715e-10
1.60896e-06
2.24051e-08
1.7585e-10
-1.42502e-06
-2.67053e-05
4.52595e-10
3.79686e-10
6.02733e-07
-1.89942e-10
2.67338e-10
1.79024e-07
2.51381e-08
-2.38341e-10
1.89691e-10
-6.51794e-05
-3.30396e-07
-1.78838e-10
-1.53927e-08
2.94413e-09
-2.9316e-05
-1.56906e-10
2.45037e-05
5.34738e-10
5.76851e-06
2.85125e-06
-1.48468e-05
4.52706e-05
-3.8349e-10
4.79054e-11
8.34705e-10
2.67154e-06
2.76375e-05
-8.5751e-10
-1.32036e-06
5.33407e-06
1.11544e-05
4.21067e-05
-9.02312e-10
7.6904e-06
-6.0215e-05
2.88544e-09
7.6358e-10
-2.84197e-05
-3.79036e-10
-8.90294e-05
-7.14083e-11
-2.46476e-05
3.33326e-10
4.13404e-06
-3.80681e-06
-9.08834e-08
3.13412e-10
3.36712e-10
-1.79989e-06
7.68213e-11
-3.18449e-11
2.77009e-09
1.68352e-10
7.26586e-07
3.17178e-05
1.89632e-05
-9.95432e-05
2.96997e-08
2.04793e-09
6.40494e-10
1.16841e-07
-5.14037e-10
-3.77762e-10
-2.09524e-10
-3.67891e-07
2.19947e-05
6.56948e-10
1.31975e-05
3.20651e-10
2.9437e-05
4.26508e-06
5.29433e-05
-4.44547e-10
-2.27219e-05
2.45875e-06
-2.82686e-05
5.46682e-06
-4.44977e-09
7.43535e-07
-3.31059e-05
-1.43856e-10
-4.73277e-06
-1.28226e-08
-1.3537e-09
-4.92343e-07
1.31799e-10
4.36223e-06
-9.96309e-07
3.62511e-10
-3.04505e-11
5.07964e-06
1.32856e-06
-1.82285e-10
1.75032e-09
1.32303e-05
4.68056e-05
-1.24528e-05
-0.000150872
5.00241e-10
2.11895e-10
-5.39874e-11
-1.17534e-06
2.32228e-10
1.98328e-09
-6.23953e-10
-1.75998e-10
1.13756e-09
1.08449e-05
-2.29836e-09
-3.85027e-05
-5.03242e-05
-8.40761e-11
3.01125e-09
1.3476e-06
1.63031e-11
-2.23387e-09
1.62226e-09
4.44036e-11
2.92529e-06
2.87295e-07
-1.65382e-10
2.29221e-05
-3.48618e-08
6.44712e-12
-1.24887e-10
-4.88756e-10
-3.82192e-11
2.68454e-10
-1.32192e-10
4.59685e-10
-1.89449e-09
-5.38635e-10
8.13121e-10
5.2769e-10
3.56402e-09
1.28261e-10
2.35856e-05
-2.88222e-05
-5.45402e-11
-5.71731e-10
6.05591e-09
-7.80904e-05
-5.78882e-06
-8.85577e-07
-1.99291e-05
8.70142e-10
6.35099e-11
-5.18507e-07
-1.42374e-11
-3.97315e-11
-2.36956e-06
-4.44567e-11
-3.92142e-05
-4.7341e-10
2.45604e-09
1.11459e-07
-1.14877e-10
3.02074e-11
-7.64161e-09
-3.3352e-05
-1.67412e-09
8.90613e-07
-3.22687e-06
1.68074e-10
4.20458e-09
-1.44555e-09
4.85434e-10
1.07779e-09
3.02294e-09
-6.70138e-06
-1.5696e-11
3.67747e-10
5.87011e-08
1.56735e-05
-9.25535e-11
-2.04353e-10
1.69284e-06
-3.18052e-09
1.2068e-09
-2.6942e-11
1.43554e-10
-3.6935e-10
-1.77518e-06
7.86342e-10
-1.68279e-05
-5.23906e-08
5.06628e-10
1.10589e-08
-4.87998e-11
-8.32353e-10
-1.87512e-10
3.75991e-06
1.56476e-05
-1.03175e-10
-3.76346e-10
-1.81578e-10
5.53496e-10
1.74498e-06
5.26601e-10
3.53961e-10
-6.24274e-10
6.86704e-10
3.37484e-05
2.10497e-05
9.02201e-11
4.91686e-10
1.54184e-10
-5.3157e-05
3.79476e-06
-6.82377e-10
7.88308e-13
3.1389e-10
-7.89014e-05
-1.96361e-05
8.08197e-06
2.76368e-10
1.28214e-09
1.80435e-10
1.69242e-10
7.1057e-11
1.63437e-08
-2.99747e-07
-1.17129e-05
5.73395e-10
2.98403e-11
-8.2366e-11
2.9e-07
1.3976e-10
-3.88662e-05
1.31841e-11
1.03796e-10
-2.68106e-09
9.12866e-11
5.81973e-10
-1.47305e-10
3.99634e-11
-4.33858e-07
1.22333e-10
-1.81327e-11
5.90094e-10
5.49379e-06
-2.77456e-10
6.57362e-08
6.96931e-10
-3.00406e-09
9.46575e-10
3.66953e-10
-6.74534e-10
1.73349e-10
-3.81704e-06
2.93601e-10
1.2098e-05
5.62745e-05
-1.52379e-10
-7.11055e-06
1.42942e-09
1.22908e-09
8.76137e-06
-5.32476e-06
2.4936e-06
5.96585e-11
2.91342e-11
1.40778e-09
6.34969e-06
6.58062e-06
3.87421e-05
-3.77499e-06
1.28883e-06
-4.54786e-10
-2.52205e-05
-5.61143e-05
-1.50089e-06
-5.91132e-05
1.30468e-05
1.00328e-06
3.97184e-10
7.25163e-10
-8.36981e-10
-1.79034e-08
6.30356e-06
-5.30361e-10
3.89615e-10
3.89934e-07
1.70015e-09
-1.16961e-07
-4.3539e-05
-5.16805e-09
1.47752e-09
6.59307e-10
-6.52761e-07
-2.41463e-10
8.11856e-10
5.58324e-06
8.73603e-10
-1.54549e-05
6.83959e-05
-0.000211856
-5.5595e-10
3.1125e-11
2.4516e-08
8.40271e-05
-0.000400046
2.50706e-10
-4.22512e-05
-1.48418e-09
8.28224e-11
2.5614e-05
9.9752e-10
-4.13361e-05
1.16383e-10
-2.26995e-10
4.62734e-09
5.42142e-10
1.52539e-10
2.51404e-09
1.85895e-09
1.90731e-05
-1.68991e-06
7.33766e-10
-1.60663e-10
-7.64088e-05
-8.21372e-09
-7.41766e-06
-2.37328e-05
-2.89164e-05
-6.57222e-10
3.05509e-05
-8.98119e-07
1.68601e-07
1.11608e-09
-2.64418e-05
1.27905e-05
6.45481e-05
2.31639e-05
-2.01313e-12
3.51691e-05
5.2595e-06
-2.94853e-06
3.65194e-06
1.09998e-10
1.26328e-05
-1.29386e-05
-9.24221e-11
6.57056e-11
6.28606e-11
1.65564e-10
1.05198e-05
-1.12604e-05
4.51194e-09
-1.96147e-09
-8.37878e-11
-5.43447e-10
3.79587e-11
-4.12179e-06
-8.96484e-07
-4.84902e-08
5.40106e-11
-9.29379e-07
4.93938e-05
-2.98157e-10
8.49803e-11
9.91207e-10
1.37283e-06
1.20266e-10
6.69473e-09
-2.24415e-11
-1.67636e-10
-4.86108e-05
-6.13416e-06
-2.0537e-10
-7.64428e-10
9.39361e-10
-4.01217e-10
1.9408e-10
-4.9643e-10
-7.61523e-11
2.97945e-05
1.15393e-08
2.75892e-07
-1.11162e-09
3.53199e-10
-1.68044e-10
2.14129e-12
4.90118e-11
-2.34038e-06
-6.97989e-10
-1.35744e-08
3.2044e-08
-1.33972e-08
-2.02552e-10
-6.259e-10
-4.78617e-08
2.0923e-10
3.10418e-05
8.12383e-06
-6.67457e-11
-1.80917e-05
1.12137e-09
-9.04962e-06
2.15629e-06
1.33433e-09
2.4764e-05
-6.20892e-10
-5.29783e-06
1.4323e-09
2.52906e-10
-1.06858e-05
-5.7975e-06
-2.87347e-11
4.46594e-06
-3.93833e-06
1.67383e-07
1.9259e-10
1.62238e-07
-1.87433e-05
-4.74927e-06
-8.4634e-06
-1.26753e-06
5.05791e-07
3.10996e-11
5.31597e-09
5.33163e-05
-1.87037e-10
-4.39427e-06
-1.32155e-05
-4.84997e-10
3.63881e-11
1.18496e-10
-4.71969e-05
3.43673e-06
2.93717e-11
-2.2442e-09
-7.28087e-10
2.84589e-11
5.36806e-05
-6.62107e-05
2.82255e-08
-5.95244e-10
-2.86817e-05
-2.91487e-09
-2.35582e-11
-2.26066e-10
-9.83952e-12
-1.20938e-05
5.66953e-07
-2.82517e-06
-2.45409e-10
7.61161e-06
1.10564e-11
3.86338e-06
-1.77401e-11
-1.07009e-09
-1.20101e-10
-3.63777e-06
4.41733e-10
-1.0563e-05
-5.91204e-07
-1.32908e-08
-2.33798e-08
-9.31402e-10
3.5384e-06
-2.80662e-05
3.22177e-10
-3.03957e-10
2.0119e-06
-1.42896e-10
3.27452e-06
3.56974e-06
-4.31181e-05
-1.95463e-05
4.10826e-10
-1.83282e-10
-1.92087e-09
4.08388e-11
1.11728e-06
6.52048e-06
3.79643e-06
-1.99614e-10
-6.26348e-11
-4.73445e-11
4.68845e-10
-1.7009e-10
-1.62586e-06
1.07107e-05
2.27148e-10
2.68176e-06
-1.71224e-05
4.6503e-06
2.88523e-09
7.44382e-06
-3.0427e-05
-5.70854e-05
-1.30425e-11
-6.66409e-07
1.58312e-06
6.19053e-10
-2.11103e-09
-2.82108e-08
-2.57272e-06
5.29267e-10
-1.40078e-06
4.78402e-06
3.48846e-10
2.12141e-09
1.15239e-09
-1.59444e-05
-2.8497e-05
-6.35757e-11
8.41625e-06
-6.36996e-09
-2.12625e-06
4.7801e-05
1.23142e-05
1.71565e-09
-7.54676e-08
1.35105e-08