/*--------------------------------*- C++ -*----------------------------------*\
| =========                 |                                                 |
| \\      /  F ield         | OpenFOAM: The Open Source CFD Toolbox           |
|  \\    /   O peration     | Version:  v2012                                 |
|   \\  /    A nd           | Website:  www.openfoam.com                      |
|    \\/     M anipulation  |                                                 |
\*---------------------------------------------------------------------------*/
FoamFile
{
    version     2.0;
    format      ascii;
    class       volScalarField;
    location    "400";
    object      k_0;
}
// * * * * * * * * * * * * * * * * * * * * * * * * * * * * * * * * * * * * * //

dimensions      [0 2 -2 0 0 0 0];


internalField   nonuniform List<scalar> 
18540
(
0.0962309
0.00014756
0.000106242
0.0594252
9.52076e-05
9.67711e-05
9.51285e-05
0.00012384
0.000306342
0.000108832
0.000106943
0.000118287
0.0446895
0.000119737
0.0882292
0.0174747
0.000179834
0.000109475
0.0708062
0.101914
0.000143296
0.000164203
0.000131423
0.0410885
0.000121623
0.000114529
0.0181925
0.000127582
9.71156e-05
0.0791337
0.000147218
0.000123934
0.000272478
0.0519585
0.000106886
0.0567527
0.000169915
0.000118679
9.63952e-05
0.000493221
0.000145043
0.000128814
0.0221968
0.0915724
0.000125144
0.00011414
0.0366745
0.000106876
0.000140108
0.000100401
0.000120045
0.0372821
0.10116
0.000144758
0.000108404
9.79162e-05
0.0427618
0.0585477
0.0275873
9.04602e-05
0.0282652
9.88939e-05
0.000106641
0.000556823
0.0976702
0.000104488
0.000250386
0.00013282
0.0247456
9.54196e-05
9.73435e-05
0.000121553
0.000320533
0.0624716
0.000109978
0.000358513
0.000172391
0.000129214
0.000109151
0.000340581
0.000104994
0.0827569
0.000118967
0.000323855
0.0294452
0.0842256
0.000112485
0.000133858
0.000103754
0.083632
0.000782623
0.000267381
0.000126558
9.76913e-05
9.65726e-05
0.00010839
0.000103643
0.000106055
0.0475064
0.0622199
9.6584e-05
0.000123952
0.000286959
0.0262628
0.0280966
0.00025505
9.65363e-05
0.0612222
0.000106681
0.000107539
0.0252074
0.0466959
0.000130147
0.000105812
0.092205
0.000112823
0.000116435
0.000106113
0.000106622
9.70886e-05
0.0857948
0.0912523
0.0278923
0.103574
0.000125309
9.67567e-05
0.000101099
0.000117204
0.0190596
0.000379899
0.0111772
0.000112655
0.000109376
0.0859945
0.000107304
0.000104855
0.000106941
0.000104763
0.000110625
0.000104061
0.0978779
0.000206829
0.000102916
0.0703146
0.000100819
0.00010416
0.000100766
0.0878268
0.000105066
0.0939843
0.000108019
0.000108937
0.000103734
0.0874489
0.0032955
0.000277808
0.0931814
0.000100643
0.000113987
0.0683444
0.000139678
0.000106358
0.000144801
0.000107683
0.0321929
0.000118634
0.0899016
0.000116124
0.0900687
0.000100597
0.000134008
9.7427e-05
0.000102697
0.000103559
0.000107561
0.10398
9.88787e-05
0.0663004
0.00327698
0.00900638
0.00010353
0.000123487
0.000106953
0.000262312
0.000107579
0.0252351
0.000108462
9.65373e-05
0.00428438
0.000114557
9.72301e-05
0.000105019
0.029438
0.000125656
0.000226256
0.000114229
0.000101148
0.00512084
0.000326642
0.00010554
0.000113383
0.00026646
0.000115505
9.96918e-05
0.0878482
0.0495257
0.00011734
0.0558483
0.0648867
0.00010294
0.000124363
0.0332604
0.0635596
0.000137507
0.000123815
0.000105128
0.104353
0.000594712
0.0383996
0.0618133
0.0300285
0.000171725
0.0768128
0.000237245
0.0302372
0.0206787
0.000103683
0.000102922
0.0269539
0.000115504
0.000103471
0.00175802
0.000344891
0.000103793
0.00014565
9.62538e-05
0.00012526
0.000110759
0.000136325
0.000115688
0.00538749
0.00375535
0.000581717
0.000103651
0.0888116
0.0602711
0.00014442
0.000104798
0.000104405
0.00011138
0.000211619
0.0614004
0.0270546
0.000108865
0.000107668
0.000575615
0.00107551
0.00151762
0.000119109
0.0146165
0.000440316
0.0810741
0.000111532
0.0987069
0.0254339
0.00010446
0.0977486
0.101825
0.000118326
0.000136707
0.0221471
0.0279334
0.103784
0.000100021
0.000300171
0.0842263
0.000103666
0.000112767
0.000847547
0.000115636
0.000136231
0.0901036
9.93274e-05
0.000125704
0.0391884
9.51843e-05
0.015297
0.000113959
0.058772
0.000375957
0.0877775
0.0537245
0.000134091
0.00011859
0.0976731
0.000114
0.00383585
0.000114133
0.0716098
0.000239946
0.000112509
0.0279333
0.00349738
0.00016488
0.000283237
0.000123918
0.00771761
0.000108436
0.00147926
0.000124592
0.0130299
9.50629e-05
0.082281
0.00010149
0.0228035
0.0395428
0.0857177
0.000121832
0.0701505
0.0379065
0.0314972
0.00511735
0.000112042
0.0228962
9.96419e-05
9.14725e-05
0.000105584
0.000105826
0.000121746
0.000119143
0.000104391
0.000191402
0.000908606
0.000109975
0.0106681
0.000316741
0.000100275
0.000136958
0.0278626
0.00016527
0.000104926
0.000103125
9.63903e-05
0.000271979
0.000807773
0.00111179
0.00011622
0.000177965
9.57826e-05
0.0444544
0.00427372
0.000137394
0.0903034
0.000108264
0.000136223
0.1024
0.00013589
0.000103473
0.000109356
0.0156827
0.00011481
0.00010821
0.000124446
0.000103466
0.0914981
0.00013426
9.03504e-05
0.000128074
0.000100769
0.000123909
0.0541928
0.000105377
0.000520917
0.000106009
0.000136708
0.00377856
0.000125271
0.0189625
9.92351e-05
0.0240651
0.101264
0.000108943
0.00021233
0.00247872
0.000110137
0.000103845
0.000589597
0.0806127
0.000139286
0.0426153
0.103871
0.000109313
0.000103249
0.0288591
0.0531034
0.000128323
0.0668945
0.0571515
0.00013987
0.0140278
0.0950075
0.0898654
9.57939e-05
0.000136356
0.000105084
0.000102697
0.0852241
0.0233505
0.000110451
0.000127233
0.0292991
0.0316261
0.000458995
0.00010847
0.000105122
0.0329929
0.000136337
9.824e-05
0.000790991
0.000952864
0.00346628
0.0964344
0.000124327
0.0405174
0.000104652
0.000109254
0.000104108
0.0142751
0.000108076
0.00011414
0.000119814
0.082332
0.00010703
0.0998593
0.000104037
0.0714562
0.000132107
0.00010007
0.099201
0.000118569
0.000676032
0.000107532
0.000262255
0.037637
0.000119267
9.71422e-05
0.000112813
0.0340764
0.000119466
9.44366e-05
0.104346
0.066794
0.000105445
9.95811e-05
9.1888e-05
0.000112989
0.000101826
0.000119379
0.0282718
0.0121646
9.39225e-05
0.0001079
0.000105693
0.000103431
0.000136537
0.000122893
0.10275
9.45414e-05
0.00269481
0.000284755
0.0751279
0.000262924
0.0395081
0.0729431
0.00145073
9.13991e-05
0.0832117
0.000124936
0.0452539
9.81944e-05
0.00011385
9.40997e-05
0.101476
0.000110877
9.47773e-05
0.000106496
0.000109216
0.0384401
0.000117947
9.97286e-05
0.0227107
0.000132275
0.000434249
0.0255549
0.0457701
0.0394268
0.000105512
0.0841783
0.000461239
0.000106914
0.00188695
0.000278482
9.04756e-05
0.00046402
0.000147332
9.95998e-05
0.00294944
9.28785e-05
0.000321297
0.069195
0.000112766
0.000113135
0.000128865
0.000125488
0.0716842
0.000105948
9.83959e-05
0.00011615
0.0457754
0.000132242
0.0994735
0.000127658
0.000299744
0.0816369
0.000108244
9.16713e-05
0.000131103
0.0556909
0.000116511
0.000112775
0.0971592
0.0029328
0.000136187
0.000132898
0.000145499
9.53344e-05
0.096285
0.00689967
0.000110856
0.000113368
0.000138317
0.000116622
0.000577257
0.000134988
9.45164e-05
9.21939e-05
0.0436405
0.0977308
0.000107379
0.00010075
0.000107733
0.000109039
0.000363248
0.10324
9.40311e-05
0.000101514
0.00345669
0.0935523
0.0442294
0.000117238
0.000103318
0.00010553
0.000102481
0.000107641
9.91424e-05
0.0556684
0.000109278
0.000281863
0.000107604
0.000125969
9.55393e-05
0.000146493
0.000825928
9.29757e-05
0.00312804
0.0667636
9.33654e-05
0.000105556
9.21532e-05
0.000105676
0.000227183
0.000137242
0.100306
0.0178072
0.0384134
0.000113403
0.000116001
0.000118249
9.36952e-05
0.00206122
0.000100844
9.14683e-05
0.000127724
0.000111022
0.0242545
0.000121496
9.53525e-05
0.02361
9.94149e-05
9.60809e-05
0.0886033
0.000137658
9.2326e-05
0.000145559
0.0691312
0.000110239
0.000119999
0.000135783
0.000126955
0.000142547
9.44858e-05
0.0428276
0.077514
0.026408
0.000109735
0.0390298
0.000109196
0.000146684
0.0843184
9.13133e-05
0.0914134
0.0393878
0.000111118
0.0417969
0.000708007
0.04735
0.000142556
9.43123e-05
0.00410965
0.0378213
9.77515e-05
0.0287725
0.033948
0.0626998
0.000145571
9.5181e-05
0.000107829
0.00438773
9.23185e-05
9.73248e-05
0.0936747
0.0552689
0.000110365
0.000101865
0.101869
0.00120688
0.000105144
0.000108509
0.000128089
0.000106927
0.063714
0.000121091
0.000128492
9.34917e-05
0.00011861
0.0903967
9.21737e-05
0.111816
9.17511e-05
0.0415788
0.000121653
0.053317
0.00143533
9.67576e-05
0.0625974
0.000132606
0.000112577
0.0887707
0.082457
0.000135403
0.000105227
0.0407065
0.0296642
0.000319568
0.0267723
0.000108676
0.0316476
0.045694
0.000100869
0.000113928
0.000108704
0.000105962
0.0230411
9.72599e-05
0.000102663
9.80005e-05
0.0656781
0.000108095
9.5967e-05
0.000107866
0.000110495
0.0281936
0.0100099
0.0669007
0.000101421
0.0526439
9.89045e-05
0.000128896
9.59824e-05
0.0239701
0.000123949
9.66042e-05
9.97387e-05
9.95295e-05
9.97693e-05
0.000101676
0.00333676
0.000106231
0.000216772
0.0278437
9.52411e-05
9.53068e-05
0.0504861
0.0356641
0.0783093
0.000132641
0.000136349
0.000112761
0.000109565
0.000251875
0.000542714
0.000106967
0.000147635
0.000134837
0.000107854
0.000113451
0.000150877
0.000126684
0.000146719
0.00010772
0.000901386
0.000107553
9.7453e-05
0.000142086
0.0435907
0.000136918
0.000106403
0.0284594
0.000245055
0.000115758
0.000118149
0.00015696
0.0103825
0.000143249
0.000101877
0.000102153
0.0525368
0.00010057
0.0935391
0.000439841
0.0360979
0.000117781
0.000121156
0.000101621
0.000113586
0.000162587
9.63883e-05
0.000121742
0.000104882
9.74533e-05
0.0324502
0.000136028
0.000105782
0.000110158
0.0381498
0.00630031
0.000103233
0.000112368
0.000211463
0.000101156
0.000120502
0.000207535
0.000265187
0.000270422
0.000104859
0.000214619
0.000120666
0.00754314
0.000126104
0.000109908
0.000173658
0.0901465
0.000113784
0.0129563
0.000159127
0.000240933
0.000108425
0.0356872
0.000195602
0.00014817
0.000107543
0.000102255
0.0646382
0.000122784
9.70261e-05
0.0653136
9.63497e-05
0.000109884
0.00240851
0.000105528
9.65554e-05
9.84392e-05
0.0732494
0.000107314
0.000100836
0.0708029
0.000103818
0.000106204
0.00388038
0.000114017
0.000106166
0.000118291
0.000121031
0.0266577
9.09336e-05
9.65578e-05
0.0517185
0.000109928
0.0247836
0.000114704
0.0283862
0.00010995
0.000100383
9.24571e-05
0.0664513
0.000107665
0.000137252
0.000107969
0.000112819
0.000103029
0.000102763
0.0835531
0.00416282
0.000110032
0.0492622
0.000245972
0.000113127
0.0339279
0.000119005
9.10556e-05
0.00011618
0.10227
0.000206327
0.000116853
9.6423e-05
0.000106378
0.0330584
0.000105215
0.000100676
0.000258274
0.000117046
0.000100318
0.000894595
0.0446648
9.41366e-05
0.000106648
0.058244
0.000143736
9.64197e-05
0.0877795
0.000227479
0.0750975
9.34599e-05
0.0403694
0.000105999
9.4092e-05
0.000109773
0.000113033
0.0312035
0.000225443
9.35023e-05
0.0241145
0.00010696
0.000137233
0.104017
0.00013101
0.000232735
0.00334977
9.50787e-05
0.0568366
0.000136636
0.109926
0.000112319
0.101165
0.000121634
0.000143698
0.0266907
9.25456e-05
0.000105959
0.02797
0.000133601
9.97657e-05
0.0281994
0.000107216
0.0730218
0.000135087
0.000105707
0.00016689
0.0840031
0.00010404
0.0936235
0.000130797
0.000135613
0.00010744
0.000119631
0.0294877
0.0866364
0.000110053
0.091711
0.048984
0.000120363
0.000110454
0.000114891
0.000288876
0.000123029
0.000111345
0.0489152
0.000148847
0.0451156
0.000124469
0.0585425
0.03681
0.000109012
0.100146
0.0927898
0.0915472
0.0279284
0.000123351
0.00010707
0.0664928
0.000114961
0.0844533
0.0758265
0.000102861
0.000104756
0.000124705
9.63717e-05
0.000229164
0.00012425
0.0919279
9.87622e-05
0.000123117
0.000772412
0.081903
0.000103908
0.000117914
0.000127365
0.0574764
0.000103016
0.000168245
0.0419478
0.0518289
9.84626e-05
0.0400055
0.000119901
0.000478212
0.000134586
9.92003e-05
0.07878
0.0120182
0.0281758
0.0116184
0.000103274
0.000119577
0.000117372
0.0871096
9.68028e-05
0.0246502
9.34795e-05
0.000124612
9.74609e-05
9.7002e-05
0.0958406
0.0361177
0.000122353
0.00010549
0.000117408
0.00014725
0.0234662
0.000673229
0.000115181
0.0399704
0.0290999
9.17953e-05
0.000113344
0.0127825
0.000330696
0.0529869
0.0624073
0.000128988
0.000103238
0.000107069
0.0461073
0.0299107
0.00059058
0.0420501
9.93797e-05
0.0527398
9.2332e-05
0.0446125
0.000105148
0.000278531
0.000123596
9.74131e-05
0.0354182
0.000103007
0.100947
0.000102571
0.1008
9.47143e-05
0.00010263
0.0346965
0.0373021
0.000105177
0.0312708
0.00302744
9.72184e-05
0.00187925
0.0861349
0.0233936
0.0182633
0.000135904
9.70862e-05
0.00010881
0.000122873
0.000117674
9.90756e-05
0.0880687
0.0866209
0.000137143
0.0733565
0.000131975
0.0190796
0.000112206
0.000107984
0.000115183
0.0352529
0.000135747
0.0224925
0.000133431
9.26072e-05
0.000242117
9.94201e-05
0.0429702
0.000193
0.000116518
0.00013132
0.0738946
0.000109144
0.0235353
0.000100166
0.000114071
0.000106915
0.000648335
0.000102881
9.64781e-05
0.000108443
0.000103115
0.00277651
0.000100362
0.000103774
0.000100224
0.000103161
0.0340306
0.0635538
0.000112636
0.000128468
0.00012316
0.000108183
0.091795
0.000117906
0.000113618
0.000133014
0.0485586
0.000104975
0.000103464
9.6044e-05
0.000135345
0.000730306
0.0539443
0.00307632
0.000103196
0.000113326
9.75969e-05
0.000108885
9.24597e-05
0.000242802
0.000112248
0.0314066
0.0804062
0.0882662
9.89734e-05
0.0557594
0.0570421
0.000111276
0.000114549
0.000107618
9.97522e-05
0.0935378
0.000100285
0.000193984
0.000102216
0.000106611
9.3271e-05
0.0644523
0.000755571
0.000110456
0.000107595
0.0914314
0.0957285
0.0189456
0.000107611
0.028952
0.000240901
0.000114696
0.052196
0.000133869
0.00011284
0.0332343
0.0785176
0.000588836
0.000122727
0.0296894
0.0779669
0.0410456
0.000145776
0.0243132
0.000132629
0.0623711
0.000144421
0.000135584
0.000108455
0.0842618
0.0288351
0.000133597
0.0323569
9.24832e-05
0.000107846
0.0923853
9.58244e-05
0.000145497
0.000101686
0.0234547
9.91508e-05
9.13719e-05
0.000133044
0.000124861
0.0102585
0.000209066
0.022902
0.000100308
0.000115126
0.000101124
0.000145864
0.000100105
0.000371019
0.0619248
9.54886e-05
0.000672432
0.000124803
0.104098
9.06207e-05
0.00289518
0.000615929
0.000136694
0.00014618
0.00584408
0.000136802
0.000107979
0.000147758
0.000102147
0.0344688
0.0298999
0.000147747
0.000147052
0.0969366
9.62675e-05
0.000104868
0.000115325
0.000103506
0.000107419
0.000113328
0.0532665
0.000100431
0.000104119
0.0694892
0.0582653
0.000102025
0.000127829
0.000144469
0.0717179
0.000135112
0.000125748
0.0558252
0.000146131
9.68598e-05
0.000281811
0.000124675
9.58148e-05
9.85715e-05
0.0195609
0.000136907
0.09834
0.000128115
0.0148096
0.000430465
0.0999024
0.0121299
0.0123878
0.0153227
0.000124945
0.0333792
0.0182067
0.000749076
0.0360873
0.0438827
9.57989e-05
0.000110569
0.000104075
0.0616376
0.00010673
0.000130929
9.66129e-05
0.000103923
0.000102933
9.93767e-05
0.0859074
0.027593
0.000108805
0.0604823
0.000376189
0.000347643
0.0166639
0.0001029
0.000109565
0.0700756
0.00307433
0.00014644
0.0288224
0.000137978
0.000103648
0.000108484
0.0936091
0.00115825
0.094554
0.0114591
0.000108906
0.00247682
9.92174e-05
0.0483575
9.21901e-05
0.0112448
0.051629
0.00114704
0.000100263
0.000106338
0.000140696
0.0337037
0.000102929
0.0817249
0.095535
0.000115556
0.0325436
0.0221761
9.91987e-05
0.000104773
0.000119887
0.000232251
0.000100916
0.0091933
0.000115855
0.000110222
0.0348654
0.00184244
0.0135888
9.51487e-05
0.0988945
0.000111912
0.000121116
0.000115385
0.000137588
0.0208638
0.0985675
0.000110003
0.000231415
0.000122362
0.000109747
9.59127e-05
0.000102357
0.000137495
0.000106939
0.0683373
0.103001
9.67906e-05
0.0423724
0.0732946
0.0191734
0.0474456
0.000120892
0.000101079
0.00010961
9.20902e-05
0.000111317
0.0705564
0.000116914
0.000289549
0.0169066
0.000103946
0.000145681
0.0429928
0.0711496
0.0718906
0.000108926
0.000103305
0.000824836
9.11368e-05
0.0399088
0.000102555
9.07242e-05
9.71982e-05
0.10238
0.000117377
0.000127571
0.000340284
0.00013625
9.73545e-05
0.0570467
0.000104526
0.000103496
0.000105233
0.000100687
0.0569682
0.0599642
0.0139106
0.000116421
9.63054e-05
0.0249364
0.0124128
0.0783961
9.02029e-05
0.000429228
0.070707
0.000205219
0.0527
0.000103724
0.0910478
9.61234e-05
0.000111784
0.103363
0.000111207
0.000115503
0.0601828
0.0944563
0.000114464
0.000113438
0.00040656
0.0716426
0.000105715
0.000109769
0.013178
9.48261e-05
0.000137527
9.86338e-05
0.0622447
9.9905e-05
0.0561497
0.000192472
0.0277388
0.000108032
0.0969398
9.50852e-05
0.000100785
0.0882518
0.000139791
0.0252849
0.000114883
9.86199e-05
0.000144499
0.000116668
0.0243618
0.0400094
0.000400409
0.0271466
0.000115349
0.000110325
0.0858992
9.48411e-05
0.00011268
0.000216857
9.78015e-05
9.86714e-05
0.000104327
9.46338e-05
9.27741e-05
0.000106255
0.0740499
0.000120325
0.0241833
0.000120874
0.000111541
9.95182e-05
0.000117199
0.0464416
0.000141787
0.000267548
0.0906139
0.00044249
0.000113669
0.000115263
0.000108472
0.000104428
0.0232154
0.0905647
0.0389051
0.000100574
0.000135884
0.0880827
0.00218232
0.000322738
0.000107121
0.000118035
0.000103488
0.0272408
0.07285
0.00121199
0.000853333
0.000107352
0.000124013
0.0268958
0.0309256
0.000131677
0.000763869
9.88406e-05
0.000100263
0.000104752
0.000167941
0.0956049
0.0540018
0.0140892
0.00021319
0.00010075
0.000116707
0.00436563
0.00272485
0.0151175
0.0665284
0.000120215
0.00011159
0.0324044
0.0820963
0.000131304
0.000104881
0.0150136
0.000107733
0.000144995
0.034277
0.000116168
9.2738e-05
0.000256308
0.0360579
0.0684849
0.000129814
9.01902e-05
0.000122326
0.000110228
9.73377e-05
0.000112389
0.000134518
0.000102973
0.0348036
0.000284897
9.25589e-05
0.00011918
0.0261178
0.0693948
0.000130222
0.000107109
0.0001268
0.000102406
0.000137175
0.000100148
9.85258e-05
0.103164
9.78325e-05
9.49231e-05
0.000201826
0.000573832
0.0873699
0.0888508
0.000125225
0.00081319
0.0301781
0.028427
0.0018629
0.000107282
0.000120273
0.0933336
0.0279598
0.102363
0.0493852
0.000114223
0.0171725
0.0277927
0.0528371
0.000111751
0.000227008
0.0917045
0.0104966
0.000124502
0.0904658
0.0245458
0.000104839
0.000115922
9.33153e-05
0.000329773
0.000174636
0.000120433
0.028451
0.103307
0.00346411
0.0397701
0.000143769
0.000103781
0.0997844
0.0180278
0.000774121
0.000101962
0.0945421
0.000103415
0.00015757
0.000111061
0.0907809
0.000103259
0.000108728
0.000104314
0.0323166
0.000113722
0.000284499
0.00010751
0.0384236
0.09143
0.000114531
0.0177324
9.41573e-05
0.000117358
0.0928813
0.074184
0.000127005
9.25789e-05
0.000514335
0.000155663
0.000109734
0.000134625
0.000147902
0.000157259
0.00013562
0.000109941
0.000132856
0.0753942
0.0109916
0.0519093
0.000124811
0.0609447
0.000105319
0.000101739
9.7093e-05
0.0614312
0.000113844
0.000113202
0.013373
0.000162358
9.57612e-05
0.00148538
9.41295e-05
0.000105745
0.00278234
0.000471869
0.000102828
0.000100923
0.0667072
0.000120491
0.000104686
0.102796
0.000123737
0.000237829
9.86422e-05
0.000120799
9.89553e-05
0.0466118
0.000119097
0.000124877
0.0094133
0.000103327
0.000116537
0.0882743
0.000123546
0.0984984
0.000269003
9.57685e-05
0.000519803
0.000128332
0.000121942
0.0334878
0.0436697
0.000135865
0.000101037
0.0760163
0.000273716
0.085936
0.00010266
0.049055
9.68872e-05
0.000103258
0.000347207
0.000137236
0.000560944
0.0315316
0.000113455
9.58704e-05
9.86454e-05
0.00011017
0.000128517
0.000159561
9.65582e-05
0.0165926
0.000102949
0.000107467
0.0888338
0.0429873
0.000113766
9.24863e-05
0.00674502
0.0991797
0.068206
0.000107663
0.000135052
0.00010383
0.000288194
0.0615556
0.000193911
0.0299041
0.0337118
0.00196262
9.90269e-05
0.000166155
0.000106939
0.000143725
0.0491206
9.05753e-05
9.4917e-05
0.000147276
0.0369417
0.000251366
0.0313627
0.000198529
0.00012806
0.000100694
9.21861e-05
9.19314e-05
0.000121642
9.56498e-05
0.000111093
0.000142571
0.0227047
0.000115955
0.000133326
0.0138558
0.0565978
0.000116792
9.78124e-05
0.000100885
0.0542328
0.000106575
9.43646e-05
0.000106587
0.000108049
0.000134558
0.000178403
9.12877e-05
9.33013e-05
0.0276921
0.00165815
0.00592774
0.000108041
0.0687683
0.000109224
0.000101848
9.90011e-05
0.0577429
0.000779996
9.48761e-05
0.000118473
0.0759415
0.000128121
9.41882e-05
0.00010759
9.88839e-05
0.000105823
0.000135501
0.019042
0.000100869
0.0584754
0.000112276
0.0124043
9.87611e-05
0.00439957
0.000114295
0.000104184
0.000126425
0.000113147
0.000103178
0.101695
0.000107942
0.000230662
0.000117403
0.000945472
0.000128711
0.000214298
0.000238069
0.0300596
0.0901597
0.00011031
0.0930422
0.00012063
9.4854e-05
0.0919372
0.000101423
0.000120976
0.0377296
0.000110494
0.000139423
0.000107846
0.000107534
0.000781765
0.000433462
0.000137171
0.000105607
0.0153874
0.0346765
0.000178
0.0344068
0.00013863
0.000110828
0.0400156
0.0904215
0.00470203
0.027871
0.0157163
0.000318096
0.000132853
0.000112465
0.000106476
9.75701e-05
0.000101222
9.21094e-05
0.0421058
0.00036091
0.000111197
0.00571693
9.67375e-05
0.0256016
0.00125312
0.0273235
0.0201884
0.000173177
0.0289299
0.00013183
0.000110191
0.039247
0.0014683
9.43385e-05
0.000137659
0.0697173
0.0883331
0.000108752
0.102135
0.00011781
9.54707e-05
0.000213274
0.0494249
0.0169554
0.064223
0.000109116
0.000112733
9.98381e-05
9.56489e-05
0.000108422
0.000265133
0.0257402
0.072259
9.48869e-05
0.000109041
0.0304706
0.000118805
0.000102934
0.000112776
9.67689e-05
0.0256238
0.0194647
0.000108423
0.0577063
0.000108315
0.0230988
0.0547711
9.13533e-05
9.93288e-05
0.0001116
0.102399
0.000119961
0.000112461
0.000101165
0.000111252
0.0249581
0.000114029
0.000130882
0.000135266
0.00011794
0.000110289
0.0359923
0.0219297
0.0352772
0.000164644
0.0406987
0.0164469
9.11668e-05
0.00012484
0.000100849
0.0406676
0.000243676
9.88435e-05
0.0407212
0.0767965
9.23107e-05
9.78768e-05
0.000745464
0.000123225
0.000107037
0.0273611
0.000351672
0.000147584
9.65771e-05
0.102703
0.0385603
0.000139984
0.000145829
0.000176903
0.100023
0.00013395
0.0807354
0.000113792
0.0383491
0.0173
0.0603765
0.0339569
0.000106014
0.000112674
0.000123823
0.0364506
0.0395538
0.00012337
0.00299129
0.0391101
0.0951616
0.0315752
0.00011233
0.0221973
0.104129
0.00011376
0.000110146
0.0878329
0.000103591
0.087314
0.000147876
0.0649361
0.000146353
0.00880257
0.0114821
0.000697676
0.00010165
0.000104092
0.0685238
0.000102839
0.000104995
0.000156148
0.000147665
0.0570255
0.0628454
0.0271872
0.0641314
0.000167324
0.000166947
0.000103505
0.000850922
0.000110855
0.000112564
0.000116885
0.000490709
0.0222202
0.00010921
0.0249536
0.000148101
0.077451
0.0479021
0.0354961
9.36156e-05
0.103709
0.0397816
0.0436442
0.0398786
0.000132091
0.0371112
0.101388
0.000122678
0.0200336
0.000145587
0.000170569
0.000569173
0.000121863
0.03272
0.000757715
0.000111997
9.46061e-05
0.0415848
0.0327229
0.000109202
0.000176913
0.0941467
0.0323321
0.0140383
0.0567539
0.000102465
0.000107839
0.000107238
0.0482656
0.000133218
0.000127862
0.000117893
9.24093e-05
0.000112938
0.0222254
0.000140105
0.0342237
0.0842089
9.7171e-05
0.000211869
0.0857236
0.000106955
0.000217406
0.000279052
9.35323e-05
0.00107966
0.00153582
9.06882e-05
0.0555111
0.000136047
0.000117274
9.78332e-05
0.000110719
0.000106715
0.000105121
0.000103069
0.0001074
0.000162202
0.000163642
0.000123053
9.80842e-05
0.000171919
9.30503e-05
0.0841214
0.0868743
0.0001262
0.000112068
0.000216587
0.0526162
0.0394727
0.000657774
0.0246971
0.000110172
9.3049e-05
0.0261861
0.000146219
0.000131759
0.0933352
0.000146747
0.091815
0.000101236
0.000129232
0.000179414
0.000109546
9.49863e-05
0.000178808
0.0956848
0.000157223
0.0253676
0.0247374
0.000101178
0.000300303
0.000109168
9.38008e-05
0.000105615
9.1669e-05
0.000671102
0.000137691
0.000119316
0.00270363
0.0358425
9.67115e-05
0.000120294
0.00135036
0.000131433
9.97421e-05
0.000126636
0.000102634
0.000102659
0.0675569
0.000120479
0.103258
0.000355585
0.000108289
0.000588809
0.000139993
0.000105327
0.000101177
0.0591101
0.0995557
9.50197e-05
9.58809e-05
9.20236e-05
0.000107337
0.084049
0.000132922
0.000103664
0.000122909
0.000128841
0.0200448
0.0338196
9.49983e-05
0.000130475
0.000103279
0.0809438
0.0547699
0.000107325
0.000146098
9.91556e-05
0.0547965
0.0621442
0.0846018
0.000139077
0.00011306
0.000127178
0.00011555
0.000104117
0.000263036
0.000559471
0.000863153
0.000105649
9.53184e-05
0.000139891
0.000517577
0.000126877
0.0767214
0.000105259
0.00013644
0.000226978
0.00010582
0.000114583
9.59086e-05
9.32206e-05
0.0451431
0.000107471
0.000100849
0.000121924
0.0249442
0.000117546
0.000756449
0.000105215
9.32247e-05
0.000136423
0.000102808
0.00011861
0.00010621
0.0305196
0.000107452
0.0924068
0.0716041
0.00012907
0.099232
0.000159494
0.000172523
0.00282085
0.0129967
0.0590289
0.000122221
0.000102201
0.000129084
0.0288604
0.0229298
0.0324458
0.018714
0.0295922
0.000107414
0.085197
0.0188852
0.0186577
0.0999049
0.0779258
0.0205725
0.000109928
0.000107659
0.000195637
0.000265558
0.0329428
0.000109003
9.98839e-05
0.0351557
0.000111998
0.0344
0.0204034
0.000130595
0.000132542
0.000106045
0.0301208
0.00012013
0.000107972
0.0382425
0.000105136
0.0542086
0.0378887
0.10611
0.000120372
9.88882e-05
0.000298192
0.03575
0.0871502
0.000115397
0.0159775
0.000170946
9.97188e-05
0.0352866
0.000128386
0.0902654
0.000107188
0.000107137
0.000182787
0.00011901
0.000109164
0.000204234
0.000221899
0.0137413
0.0333502
0.000145799
0.000105826
0.059079
0.000140546
0.00449141
0.0729752
0.0725868
0.000113316
0.0174684
0.0188897
0.0870804
0.000117067
0.0807045
0.0819077
0.0326777
0.0326876
0.000146984
0.0781681
0.032242
0.0443808
0.0613054
0.000107412
0.0870974
0.103124
0.000105571
9.08631e-05
0.000106991
0.000117561
0.0796825
0.0503933
0.000234209
0.000110683
0.000148026
0.000105796
0.000104383
0.0139485
0.0176005
0.000444702
0.000102504
0.0927468
0.0361804
0.000102201
0.000110862
0.000124603
0.00163177
0.000118788
0.000121277
0.000147778
9.62125e-05
0.0433856
0.0651814
0.000111406
0.00019358
0.00011145
0.000105832
0.000106089
0.000103578
0.000111016
0.0340316
0.000128493
0.00036868
9.09321e-05
9.49418e-05
9.52668e-05
9.68469e-05
9.68164e-05
0.0307978
0.000212283
0.000142792
0.000186377
0.000585434
0.00011385
0.000104455
0.000441854
0.00010945
0.023669
0.0870287
0.000101242
0.00432056
0.000141412
0.0467033
0.0431706
0.000111688
0.064978
0.000104291
0.101145
0.000150708
0.000108135
0.0176933
0.018858
0.000106086
0.0453027
0.0229277
0.000427276
9.75178e-05
0.0155223
0.0350362
0.0353353
0.0687083
0.0338921
0.0354465
0.000105507
0.000129239
0.0273548
0.000123585
0.0427408
0.0622811
0.000123753
0.000100803
0.000106856
0.0863368
0.0318446
0.000118999
0.000136557
0.000103548
0.000102874
0.0661508
0.0360166
0.000452168
0.00010343
0.10957
0.000123984
9.22546e-05
0.000110275
0.000103643
0.0558394
0.0242574
0.0097306
0.000105507
0.101151
9.72365e-05
0.0632115
9.56384e-05
0.000123519
0.000101373
0.00268136
9.79248e-05
0.104408
0.00189766
0.000221463
0.000126169
0.000129615
0.059847
0.0788824
0.000147293
0.000105875
0.00178879
9.32876e-05
0.0624991
0.060418
0.0764854
0.0708449
0.000114372
9.32499e-05
0.000120151
0.000124544
0.000525347
0.0985571
0.0631107
0.000144385
9.39136e-05
0.000108721
0.000106452
0.000105599
0.0155569
0.0265648
9.89833e-05
0.0184164
0.0660466
0.0397529
0.000173933
0.0804779
0.0119639
0.078134
0.00014236
0.00058799
0.0366466
0.000105964
0.000104718
0.000281956
0.0341649
0.000201333
0.0386994
0.0015823
9.77075e-05
0.000106299
0.000190911
0.057065
0.00198409
9.77487e-05
0.100544
0.00023927
0.0300673
0.0993741
0.093941
0.000116995
0.000479022
0.000377185
0.000109663
0.0960695
0.000101784
0.0963449
0.00013925
0.0603984
0.000119851
0.000141275
0.000127579
0.0985979
0.000141256
0.000207161
0.000106031
0.000181942
0.0420771
0.000105422
0.0258701
9.2619e-05
0.000496216
0.000128634
0.000107813
0.000680494
0.00011288
0.000249131
0.000115459
0.000206451
9.59197e-05
0.000404029
0.0525281
0.0626512
9.87132e-05
0.101641
0.0795237
0.0556267
0.000148765
0.000613942
0.0427611
0.0296134
0.000101798
0.00283575
9.68767e-05
0.000129577
0.00211398
0.000105478
0.000529149
0.0739653
0.000737767
9.28453e-05
0.102718
0.000129519
0.0352819
0.0538318
0.000114374
0.0679574
0.0790656
0.000117225
0.0323029
0.000105703
9.41158e-05
0.000114673
0.00010521
0.000122624
0.0308534
0.000112723
0.0361102
0.0679445
0.0510978
0.000306548
0.000106898
0.000118951
0.0365445
0.000134967
0.000130618
0.000171391
0.0224319
0.000151011
0.019632
0.000157841
0.000465086
0.0875691
0.0854421
0.0386015
0.0012477
0.000121629
0.000121828
0.000138367
0.000120579
0.0898183
0.000105708
0.0555383
0.0926081
0.0596816
0.0149713
0.00011953
0.000191826
9.14016e-05
0.0774239
0.000147103
0.000106591
0.0950453
9.74641e-05
0.0126177
0.000151195
0.000108175
0.0376396
0.0365816
0.0670138
0.0695909
0.000109548
0.0350453
0.00132563
0.000133353
0.000145355
0.0881847
0.000102824
9.77827e-05
0.000128553
0.000158158
0.0237857
0.0319719
0.102375
0.097612
0.0697475
0.000100238
0.0290198
0.0736322
0.000484536
0.000104239
0.000120092
0.0859733
0.000102917
0.0651603
0.0281043
0.000132196
0.0757113
0.0567129
0.0947807
0.000120642
0.000102381
0.000101156
0.119311
0.050188
0.000121519
0.0678655
0.0408896
0.000109202
0.0528824
0.00010805
0.000134087
9.48414e-05
0.000106857
0.000105168
0.120113
0.0244637
0.000212653
0.000774778
0.000114075
0.000183733
0.094056
9.56685e-05
0.0842517
0.0696445
0.00152146
0.000150637
0.000121971
0.00034587
0.000648283
0.000131543
0.000116898
0.0552783
0.0484208
0.104381
0.00012673
0.000201427
0.000127226
0.000111325
0.000185942
0.000105795
0.000106889
0.0001453
0.0573375
0.000139146
0.000159193
9.48171e-05
0.0761051
0.000103261
0.000602795
0.0002394
0.056416
0.000135868
0.0441908
0.000122146
0.000111128
0.00010569
0.00162084
9.90552e-05
0.000102945
0.000109079
0.0395137
9.35669e-05
9.44189e-05
0.01781
0.0438342
0.0963545
0.00896016
0.0291404
0.116741
0.0593309
0.0641207
0.000254903
0.000106212
9.72608e-05
0.00011729
0.000116978
0.000112778
0.0445803
0.000351941
0.0238633
0.00327986
9.14466e-05
0.0179978
9.38904e-05
0.0617195
0.000120708
0.000122191
0.072657
0.000458501
0.00524328
9.36309e-05
0.0413864
0.000105844
0.0665369
0.000105064
0.000325009
0.000157963
0.0735323
0.0596956
0.000131286
0.000101693
0.000103947
0.00013353
0.000113772
0.0370081
9.69093e-05
9.89794e-05
0.000106407
0.000104166
0.000103432
0.000306278
0.0530226
0.000119363
0.0781211
0.0384815
0.000140489
0.000137251
0.000122443
0.00973518
0.000116094
0.0575413