/*--------------------------------*- C++ -*----------------------------------*\
| =========                 |                                                 |
| \\      /  F ield         | OpenFOAM: The Open Source CFD Toolbox           |
|  \\    /   O peration     | Version:  v2012                                 |
|   \\  /    A nd           | Website:  www.openfoam.com                      |
|    \\/     M anipulation  |                                                 |
\*---------------------------------------------------------------------------*/
FoamFile
{
    version     2.0;
    format      ascii;
    class       volScalarField;
    location    "400";
    object      nut;
}
// * * * * * * * * * * * * * * * * * * * * * * * * * * * * * * * * * * * * * //

dimensions      [0 2 -1 0 0 0 0];


internalField   nonuniform List<scalar> 
18540
(
0.0271238
0.000468904
0.000456915
0.0232492
0.000458244
0.000467273
0.000457961
0.000530427
0.000839149
0.000458416
0.000462763
0.000460822
0.0173593
0.000461249
0.0289046
0.00574601
0.000640782
0.000471357
0.00307273
0.0226719
0.000551815
0.000618509
0.000464645
0.0164898
0.00052479
0.000491742
0.00126668
0.000542528
0.000465374
0.0170253
0.000468952
0.000462327
0.000846595
0.0273943
0.000468539
0.0223112
0.000632097
0.000460695
0.000453711
0.00113362
0.000468386
0.000463909
0.00361888
0.0268398
0.000536148
0.000491018
0.00826354
0.000457157
0.000551054
0.00047389
0.000461424
0.00468364
0.0231072
0.000468248
0.000476255
0.000471305
0.0160514
0.0142037
0.00552308
0.000451335
0.00593575
0.000461034
0.000470555
0.00120817
0.0263193
0.000456502
0.000765909
0.000465058
0.00399809
0.000453226
0.000469918
0.000504536
0.000925102
0.0142652
0.000503428
0.000947918
0.000623102
0.000463916
0.000470143
0.000932766
0.000460681
0.0106568
0.000460929
0.000930927
0.00659961
0.0310338
0.00045914
0.000465393
0.000464541
0.0311357
0.00160771
0.000826396
0.000521768
0.000453776
0.000459571
0.000458408
0.000460587
0.000481932
0.000533277
0.00527552
0.00045437
0.000462438
0.000848175
0.00755296
0.00580324
0.000821172
0.000454368
0.00869287
0.000470651
0.000462468
0.000570362
0.0203375
0.000464247
0.000467026
0.0181085
0.000486603
0.000495302
0.000482088
0.000467759
0.000467883
0.00382694
0.0106469
0.00566761
0.0167844
0.000462883
0.000464575
0.000478172
0.000494426
0.00263788
0.000973593
0.00536507
0.00048637
0.000501822
0.0240257
0.000457372
0.000456268
0.000462571
0.00046886
0.000459265
0.000456363
0.026122
0.000714217
0.000478785
0.00633729
0.000455183
0.000456268
0.000477802
0.0249285
0.000469294
0.0112582
0.000457444
0.00045918
0.00045617
0.0186658
0.00336781
0.00081025
0.0118108
0.000455021
0.000459447
0.00843622
0.000575459
0.000490728
0.000467855
0.000457514
0.00101663
0.000460843
0.025182
0.000490995
0.0288212
0.000455595
0.000465322
0.000467202
0.000460197
0.000463885
0.000457998
0.0174773
0.00046066
0.0237274
0.0034758
0.00592232
0.000462999
0.000511156
0.000492573
0.000815937
0.000463445
0.00413704
0.000459036
0.000457719
0.0034706
0.000490656
0.000466398
0.000460275
0.00583924
0.00046291
0.000722628
0.000459544
0.000479458
0.00333082
0.000932729
0.000466952
0.000489364
0.000822858
0.000490087
0.000472131
0.0305514
0.0221011
0.000460599
0.0219401
0.0199527
0.000476897
0.000462569
0.00850269
0.0230801
0.000466288
0.000514774
0.000478732
0.0174285
0.00127939
0.0139646
0.0168623
0.00681061
0.000626655
0.018835
0.000741779
0.00763517
0.00044044
0.000473252
0.000477267
0.00507767
0.000513608
0.000460666
0.0024576
0.000956865
0.000460677
0.000468432
0.000459954
0.000462967
0.000475246
0.000566886
0.000490744
0.00512212
0.00384523
0.00126437
0.000473711
0.0303572
0.0182029
0.000468011
0.000456471
0.000473635
0.000459079
0.000698187
0.0194561
0.00576964
0.000459256
0.00046397
0.00123065
0.0018572
0.00204551
0.000461058
0.00632378
0.00106917
0.025811
0.000459092
0.00546569
0.0042696
0.000473989
0.016466
0.0209555
0.000460171
0.000466189
0.00353047
0.00575593
0.00301922
0.000456637
0.000891563
0.0288212
0.000456114
0.000499513
0.00169759
0.000459935
0.000465975
0.0289205
0.000459229
0.000463068
0.00855177
0.000453123
0.00802186
0.000509567
0.0227413
0.000990764
0.0184302
0.0150965
0.000537906
0.000461497
0.0113321
0.000515079
0.00289548
0.000491081
0.0107812
0.000745954
0.000459244
0.00554141
0.00233492
0.000602408
0.000826339
0.000462426
0.00601151
0.000457589
0.00197112
0.000462809
0.0037045
0.000454311
0.028698
0.00047988
0.00558747
0.00965887
0.0289975
0.000462007
0.0171751
0.00864985
0.00771816
0.00429199
0.000459233
0.00329833
0.000459195
0.000452565
0.000488066
0.000466904
0.000461856
0.000461059
0.00045633
0.000682023
0.00161138
0.000473038
0.00502934
0.000886005
0.000455449
0.000465996
0.0058148
0.000603194
0.000477924
0.00047938
0.000457106
0.000807934
0.00153692
0.00181873
0.000460188
0.000639978
0.000458149
0.00137752
0.00456449
0.000466289
0.0101119
0.000458402
0.000466157
0.0188053
0.000465967
0.000456142
0.000457875
0.0077177
0.000516716
0.00045768
0.000462637
0.000462393
0.0178151
0.000537609
0.000451194
0.000463647
0.000455676
0.000462471
0.0223225
0.00045656
0.0011871
0.000461305
0.000466071
0.00235768
0.000462972
0.0075581
0.000458337
0.00291038
0.00925798
0.000457764
0.000700831
0.00316663
0.000475307
0.000456166
0.00137493
0.0175295
0.00046682
0.00603975
0.01833
0.00045787
0.000463517
0.00608338
0.0219157
0.000463505
0.0178672
0.0223424
0.000466973
0.00775799
0.00548555
0.025403
0.000457925
0.000466137
0.000485221
0.000455805
0.0256875
0.00339289
0.000458942
0.000548706
0.00651028
0.00744735
0.00108634
0.000457702
0.000484624
0.00521446
0.000465986
0.00047173
0.0016033
0.00163238
0.00362104
0.0269861
0.000462573
0.00595698
0.000456365
0.00049885
0.000456178
0.00871345
0.000468933
0.00048954
0.000461257
0.0262138
0.000491024
0.021376
0.000460685
0.000777678
0.000464881
0.000454746
0.0117675
0.000460896
0.00127287
0.000462092
0.000777545
0.0121339
0.000461207
0.000454587
0.000459339
0.00965749
0.000461281
0.000452793
0.0143926
0.0179467
0.000456434
0.000454622
0.000452586
0.000459439
0.000482566
0.000461167
0.00581416
0.000331254
0.00045849
0.000458028
0.000488022
0.000464075
0.00046614
0.000512437
0.0179742
0.000460514
0.00258383
0.000865568
0.0063444
0.000788413
0.0104648
0.0120619
0.00208439
0.000451525
0.0261403
0.000462794
0.0118133
0.000453978
0.00050244
0.000452677
0.0174586
0.000458935
0.000460869
0.000466993
0.000501006
0.00883464
0.000460875
0.000456809
0.00924897
0.000556785
0.00104555
0.00417914
0.0201769
0.00485665
0.000465524
0.0259135
0.00110669
0.00046196
0.00255962
0.000816706
0.000451358
0.0011009
0.000468969
0.000459109
0.00348872
0.000453627
0.000886859
0.0243943
0.000459283
0.000459344
0.000463909
0.000544341
0.0311955
0.000461182
0.000461326
0.00046011
0.0193797
0.000464832
0.00296498
0.000463562
0.000856668
0.012196
0.000497727
0.000451671
0.000464699
0.021693
0.000460206
0.000459293
0.0167768
0.00319847
0.000543255
0.000465043
0.00046848
0.000454302
0.0233066
0.00515939
0.000480431
0.000459423
0.000466351
0.000491381
0.00130023
0.000546216
0.000462307
0.000451807
0.0115218
0.0232334
0.000463035
0.000470986
0.000465012
0.000457829
0.000982022
0.0202623
0.000452742
0.000481057
0.00293229
0.00836475
0.016385
0.000460452
0.000460449
0.000465314
0.000455508
0.00046458
0.000456865
0.0227786
0.000457994
0.000819533
0.000464503
0.000516729
0.000453268
0.000468702
0.0015326
0.000453757
0.0032094
0.0120316
0.000452778
0.000466717
0.000452715
0.000456831
0.000752463
0.000466247
0.0163411
0.0133757
0.011498
0.00048289
0.000460067
0.000460971
0.000457891
0.00263359
0.000475729
0.000451024
0.000463624
0.000458955
0.00455117
0.000461935
0.000453525
0.00344625
0.000456815
0.000453561
0.00985889
0.000568337
0.000452594
0.000561708
0.00819002
0.000475608
0.00050535
0.000465965
0.000463499
0.00057991
0.000461195
0.0172961
0.0079058
0.00477025
0.000458187
0.0122517
0.000458036
0.000468849
0.0261261
0.000452706
0.0266187
0.0135684
0.00046341
0.0131758
0.00143459
0.021055
0.000561501
0.000458218
0.00405456
0.011923
0.000463177
0.0141042
0.00885308
0.0184851
0.000468459
0.000454174
0.000460246
0.00328546
0.000451898
0.000466094
0.0264752
0.0232916
0.000459173
0.00048148
0.0054609
0.00187935
0.000460025
0.000476595
0.000463714
0.000461761
0.021976
0.000461531
0.000463851
0.000452781
0.000496734
0.0262268
0.000452506
0.00454444
0.000452755
0.0142534
0.000461753
0.0240124
0.00216643
0.000459864
0.0141211
0.00054039
0.000459161
0.0294139
0.0244396
0.000537047
0.000462472
0.0102394
0.0116188
0.00088201
0.00475311
0.000458956
0.00832616
0.0192015
0.000455534
0.000459613
0.000458384
0.00045687
0.0190055
0.000461789
0.00045977
0.000463586
0.0213306
0.000475855
0.000457682
0.000460204
0.000462463
0.00465385
0.00663134
0.0141146
0.000465416
0.0215008
0.000454346
0.000530152
0.000457563
0.00433999
0.000512085
0.000453731
0.000456822
0.000455465
0.000454645
0.000455244
0.00349047
0.000466041
0.0007074
0.00543722
0.000453084
0.000454108
0.0225419
0.0101822
0.0227337
0.000464988
0.000465982
0.000480805
0.000458186
0.000768578
0.00122242
0.000461097
0.000468989
0.000465603
0.000475574
0.000484068
0.000571218
0.000465058
0.000468728
0.000475187
0.00161453
0.000463395
0.000461973
0.000560811
0.0154816
0.000466089
0.000466188
0.00867775
0.000787616
0.000519804
0.000461181
0.000602828
0.000322653
0.000580971
0.000466138
0.000466987
0.0149185
0.00045535
0.00495726
0.00107958
0.0111968
0.000460615
0.000461632
0.0004564
0.00045933
0.00061634
0.000457239
0.000504281
0.000456355
0.00045476
0.00873604
0.000465934
0.000456675
0.000458283
0.00719822
0.00351698
0.000455982
0.000481481
0.000721476
0.000472343
0.000504977
0.000687585
0.000845475
0.000813198
0.000458515
0.000724247
0.000461407
0.00483736
0.000515238
0.000458027
0.000659167
0.0295972
0.00045953
0.000573036
0.000595399
0.000757313
0.000458371
0.00179408
0.000688687
0.000565592
0.000462725
0.000483139
0.00400784
0.00046213
0.000456408
0.0211987
0.000459431
0.000477769
0.002827
0.000481729
0.000463753
0.00046123
0.0213223
0.00046219
0.000456117
0.0061129
0.000458246
0.000456821
0.00405654
0.000459482
0.000468612
0.000460785
0.000524439
0.00561777
0.000452498
0.000457643
0.0101194
0.000458201
0.00382862
0.000459687
0.0183679
0.000458155
0.000455993
0.00045558
0.0238232
0.000473937
0.000541291
0.000468376
0.000481086
0.000455911
0.000462515
0.028903
0.00356553
0.000458607
0.00544282
0.000802991
0.000481867
0.00992992
0.00046104
0.000452586
0.000460347
0.00563535
0.000713359
0.00046031
0.000453474
0.000456998
0.0088685
0.000462101
0.000456074
0.000784159
0.000460669
0.000456026
0.00160379
0.00950785
0.000458547
0.000457036
0.0231141
0.000467955
0.000460083
0.0220843
0.000758221
0.00562564
0.000452775
0.0022915
0.000457942
0.000458217
0.000458223
0.000459643
0.00786919
0.000712911
0.00045269
0.00456088
0.000457687
0.000542996
0.0177897
0.000464611
0.000744395
0.00355753
0.000463334
0.00695443
0.000465878
0.00475402
0.000459224
0.0204044
0.000532716
0.000467894
0.00484261
0.000455694
0.000468607
0.0188786
0.000465203
0.000455472
0.00560461
0.00047285
0.00610797
0.000465713
0.00045735
0.000642979
0.0264023
0.000461554
0.0118537
0.00046457
0.000465159
0.000462754
0.000461191
0.00368305
0.0271153
0.000458869
0.0275232
0.0265593
0.000461351
0.000458406
0.000459863
0.000880881
0.000509912
0.00048938
0.0141439
0.000469351
0.0145708
0.000519775
0.0293495
0.00736237
0.000458351
0.0172869
0.00785309
0.0265164
0.0117699
0.000462267
0.00045711
0.00452916
0.000487783
0.0312964
0.00528264
0.000456014
0.000469275
0.000462598
0.000457828
0.000766941
0.000462573
0.0261482
0.000462206
0.000529717
0.00142818
0.00151414
0.000456036
0.000460529
0.000518381
0.024764
0.000464485
0.000614867
0.0132199
0.0211903
0.000456564
0.0125522
0.000461548
0.00111275
0.00046551
0.000454693
0.0117495
0.00567752
0.00578619
0.00458114
0.000455817
0.000527489
0.000460468
0.0217127
0.000453448
0.00467595
0.000458051
0.000515038
0.000453784
0.000453725
0.00446383
0.014008
0.000462013
0.000456624
0.000460533
0.000468915
0.00698904
0.00128517
0.000459884
0.0137325
0.00641077
0.000452864
0.000459467
0.00696204
0.000940797
0.0222503
0.0208983
0.000530568
0.000456123
0.0004577
0.0265916
0.00676389
0.00124943
0.0150195
0.000471086
0.0146472
0.000451917
0.0204841
0.000459685
0.00081365
0.000462476
0.000454845
0.00984119
0.000459943
0.0159579
0.000455526
0.0127502
0.000461419
0.000472193
0.00916562
0.0125176
0.000484964
0.00983829
0.00330942
0.000456179
0.00247698
0.0195472
0.00304844
0.0138484
0.000542164
0.000460893
0.000458347
0.000507329
0.000460618
0.000454655
0.028504
0.0264818
0.000466392
0.0314719
0.000464549
0.00534316
0.000459126
0.000457962
0.000459868
0.00606507
0.000465779
0.0062174
0.000465159
0.000452003
0.000780463
0.0004569
0.0179133
0.000684157
0.000460285
0.000464475
0.00401602
0.000482632
0.0197992
0.000455435
0.000509358
0.000460965
0.00132397
0.000460512
0.000453495
0.000496361
0.000455831
0.00328149
0.000455351
0.000456045
0.000454952
0.000459815
0.0129539
0.0229219
0.000505582
0.000524317
0.000462217
0.000475976
0.0292715
0.000460711
0.000459418
0.000557868
0.0209972
0.000458306
0.000459472
0.000459568
0.000539608
0.00139977
0.0274954
0.00361596
0.000460736
0.000459645
0.000453804
0.000459143
0.000453383
0.000779875
0.000459109
0.00825775
0.0311473
0.00709119
0.000464392
0.0221721
0.0288302
0.000476838
0.000490948
0.00047837
0.00045473
0.0218552
0.000455008
0.000650068
0.000470704
0.000456967
0.00045729
0.0165074
0.00156755
0.000459241
0.000463419
0.0293068
0.0173877
0.00636187
0.000457306
0.00620735
0.000778866
0.000486133
0.0229233
0.000465427
0.00045924
0.00535228
0.00934428
0.0012465
0.000462144
0.00532518
0.0303332
0.014018
0.000559987
0.00376789
0.000464727
0.0227267
0.000557634
0.000465779
0.000481202
0.00689183
0.00542125
0.000465267
0.0160818
0.000453976
0.000465469
0.028982
0.000454123
0.000561581
0.000466136
0.0199286
0.0004698
0.000451552
0.000534444
0.000462648
0.00306499
0.000721331
0.00652638
0.000454752
0.000488983
0.000455099
0.000468574
0.000455563
0.000992447
0.00495069
0.00045393
0.00138159
0.000512224
0.00396633
0.000451665
0.00200307
0.00129235
0.000567342
0.000468593
0.00432662
0.00046611
0.000457398
0.000469009
0.000455464
0.00966572
0.00410577
0.000469009
0.000468831
0.0178567
0.000453666
0.0004853
0.00045994
0.000456063
0.000457415
0.000459601
0.028061
0.000455377
0.000458405
0.0190767
0.0105026
0.000464374
0.000463504
0.000467963
0.00675046
0.000465559
0.000463079
0.00735371
0.000468487
0.000454651
0.00082301
0.000514129
0.000453521
0.000456398
0.00284787
0.000567238
0.0253518
0.000463592
0.00350248
0.00103759
0.00888785
0.000820653
0.000702044
0.00660759
0.000532492
0.00764272
0.0132781
0.0015242
0.00945564
0.0127833
0.000453424
0.000458843
0.000458456
0.0159205
0.000457062
0.00046452
0.000453817
0.000460578
0.000455708
0.000454752
0.0313016
0.00546008
0.000458159
0.0212577
0.000976205
0.000929769
0.00498746
0.000455812
0.000459123
0.0154056
0.00320472
0.00046858
0.00609943
0.000466539
0.000473616
0.00045809
0.028411
0.00186908
0.0171913
0.000741984
0.000459263
0.00281785
0.000454412
0.00642646
0.000455833
0.000859034
0.00862629
0.00186503
0.000455548
0.000483866
0.000467084
0.0179125
0.00046343
0.0207487
0.0217905
0.000459803
0.00701053
0.00308657
0.000454746
0.000456763
0.000461244
0.000760899
0.00045506
0.00416369
0.000489489
0.000483789
0.00996546
0.00155635
0.00593067
0.000452834
0.021293
0.000458702
0.000524132
0.000460006
0.000466505
0.00814642
0.0208914
0.000458203
0.000728039
0.000461932
0.000458145
0.000456528
0.000455711
0.000543481
0.000491189
0.0185341
0.00428203
0.000453831
0.0262952
0.0056913
0.00238052
0.0120898
0.000461515
0.000455136
0.000471798
0.000456167
0.000501462
0.00617971
0.00046016
0.000848201
0.00785248
0.000461787
0.000468448
0.0197441
0.0137122
0.0154256
0.000484705
0.000459203
0.00154556
0.000451464
0.00756565
0.000462311
0.00045128
0.000453952
0.0100722
0.000493834
0.000463656
0.000928022
0.000465922
0.000453927
0.0282435
0.000458448
0.000458128
0.000456839
0.000454938
0.0240991
0.0158924
0.00487202
0.000491157
0.000454257
0.0044443
0.00582906
0.00762745
0.000451096
0.00101292
0.0091519
0.000710266
0.0141195
0.000458559
0.0283404
0.000454266
0.000458609
0.0168839
0.000459081
0.000459946
0.0238651
0.0280784
0.000492957
0.000484648
0.000996616
0.00596735
0.000457852
0.000476691
0.00729546
0.000459549
0.000466219
0.000462128
0.0208114
0.000454646
0.0153374
0.00064556
0.00569708
0.000466007
0.0180298
0.000452932
0.000455533
0.0306194
0.000548796
0.019338
0.000508423
0.000454234
0.000468204
0.000460349
0.00424127
0.00838329
0.00102193
0.00540812
0.000488575
0.000458273
0.022143
0.000452968
0.000481155
0.000699944
0.000461088
0.000458306
0.000456405
0.000459983
0.000455499
0.000488687
0.0306242
0.000503597
0.00356517
0.000461473
0.000478704
0.000470977
0.000460463
0.0262033
0.000467145
0.00084112
0.0108699
0.00108436
0.000484624
0.000494638
0.000458295
0.000456366
0.0189481
0.0185797
0.016856
0.000454949
0.000465734
0.007282
0.00277781
0.000888394
0.000457133
0.000460743
0.000458177
0.00504403
0.00353504
0.00191289
0.00172691
0.000494725
0.000513577
0.00490873
0.00771356
0.000464497
0.00147276
0.000463898
0.000455119
0.000456356
0.000607908
0.0117627
0.0135859
0.00469471
0.00071335
0.000455019
0.000460323
0.0029946
0.00309175
0.00512156
0.0138224
0.00050396
0.000459017
0.00772491
0.0312984
0.000528216
0.000456683
0.000797747
0.000457979
0.000468273
0.00947659
0.000517982
0.000455529
0.000781899
0.0108049
0.0205156
0.000527573
0.000451036
0.000462191
0.000483722
0.000454787
0.000459116
0.000465405
0.000466943
0.00766627
0.000828075
0.000453677
0.000460994
0.00544855
0.0175389
0.000464301
0.000469375
0.000463357
0.000461543
0.000466339
0.000455164
0.000457888
0.0153903
0.000454919
0.000458997
0.000693778
0.00123733
0.0237475
0.0309362
0.000519389
0.00151026
0.00700044
0.00603401
0.00250416
0.000457486
0.000503696
0.0284614
0.00573286
0.018522
0.0214266
0.000503011
0.00640426
0.0053703
0.0207205
0.000480187
0.00071862
0.0278968
0.00415463
0.000541078
0.0225246
0.00750117
0.000456762
0.000459978
0.000455173
0.000930362
0.000644288
0.000501025
0.00848546
0.015108
0.00365013
0.0143893
0.000557285
0.000478277
0.0241556
0.0053448
0.00153047
0.000458393
0.0183593
0.000456002
0.000601806
0.000458942
0.0266354
0.000457063
0.000459282
0.000456192
0.00853123
0.000459502
0.000827272
0.000462331
0.00790196
0.0283058
0.000491528
0.00679923
0.000457405
0.000460485
0.028758
0.0152519
0.00046339
0.000453366
0.00119046
0.000584007
0.000458315
0.000465712
0.000468936
0.000601384
0.000536797
0.000458702
0.000465163
0.00966034
0.00290133
0.0103767
0.000518275
0.0146807
0.000459515
0.000456468
0.000454718
0.0171718
0.000459388
0.000459351
0.00538106
0.000597963
0.000454175
0.00148384
0.000457336
0.000457215
0.00336054
0.00114422
0.000456915
0.000471038
0.0226263
0.000461472
0.000458624
0.0198938
0.000462768
0.000751203
0.000466352
0.000461489
0.000468596
0.0198954
0.00046103
0.000512603
0.00295388
0.000457037
0.000460304
0.0223261
0.000462729
0.0253124
0.000842475
0.000453224
0.00116558
0.000547889
0.000461902
0.00439782
0.0177702
0.000465819
0.00047057
0.0300536
0.000807219
0.0116297
0.00045592
0.00671729
0.00046066
0.000464942
0.000925183
0.000466205
0.00119042
0.00510894
0.00045952
0.000453184
0.000454371
0.000458315
0.000463788
0.000606034
0.000463059
0.00559964
0.000466554
0.000466791
0.0224086
0.0259395
0.000459475
0.000453286
0.00568096
0.0246915
0.0165839
0.000495192
0.000465647
0.000461399
0.000814184
0.0159534
0.000655632
0.00695019
0.0075858
0.00269435
0.00046385
0.00062058
0.000457299
0.000568904
0.00965887
0.000451776
0.000452943
0.000468842
0.0100563
0.000795899
0.00785949
0.000670884
0.00054232
0.000455564
0.000452588
0.000451448
0.000461938
0.000453607
0.000458715
0.00055395
0.0038357
0.000460327
0.000532523
0.00586773
0.0244862
0.000460291
0.000454825
0.000455035
0.0239473
0.000457577
0.000456767
0.000491983
0.000466208
0.000536042
0.000634959
0.000453411
0.000455355
0.00554991
0.00242435
0.00329693
0.000459141
0.0308286
0.000473687
0.000463572
0.000455276
0.0233391
0.00146453
0.000453903
0.000460867
0.00549868
0.000463725
0.000456503
0.000463727
0.000455326
0.000457078
0.000465817
0.0141126
0.000457786
0.0252602
0.000459112
0.00678299
0.000467348
0.00448653
0.000486561
0.000472433
0.000516272
0.000459487
0.000460903
0.0166549
0.000481513
0.000760444
0.000460597
0.001664
0.000521616
0.000752031
0.000791626
0.00420382
0.0248003
0.000458231
0.0280884
0.00052398
0.000453327
0.025887
0.000471883
0.000502878
0.0129858
0.000474665
0.000575051
0.000465516
0.000462958
0.00139779
0.00105018
0.000466673
0.000457087
0.0055995
0.00927664
0.00064378
0.00846624
0.000557026
0.000458654
0.0139821
0.0275681
0.00425214
0.00491808
0.00483314
0.000892622
0.00053209
0.000459269
0.000457454
0.000457406
0.000458034
0.000452036
0.00556675
0.000953971
0.000458487
0.00475956
0.000455151
0.0203123
0.0018432
0.00519232
0.00301692
0.000609212
0.00616276
0.000529641
0.000485713
0.0123986
0.00247957
0.000452754
0.00046624
0.017562
0.0311144
0.000457872
0.0218747
0.000460694
0.000453217
0.000709907
0.0140735
0.0054207
0.00765817
0.000457956
0.000459313
0.000455
0.000453011
0.000457711
0.000789591
0.00437475
0.0207882
0.000460372
0.000459163
0.00698056
0.000460951
0.000456049
0.000505331
0.00046397
0.0183114
0.0150696
0.000497996
0.0229964
0.000458036
0.0194482
0.0231564
0.000452652
0.000469807
0.000478264
0.0207475
0.000461462
0.000459212
0.00045589
0.000489302
0.003796
0.000500564
0.000464376
0.00046582
0.000460706
0.000458518
0.0114309
0.00304808
0.00808827
0.000639126
0.00614414
0.00778794
0.000451551
0.000541983
0.00045723
0.0129292
0.000751323
0.000463222
0.0155872
0.0309563
0.000452645
0.000460065
0.00138748
0.000462197
0.000457085
0.00521308
0.000930857
0.000468994
0.000453465
0.0168331
0.0138789
0.000467086
0.000547598
0.000664495
0.0209695
0.000465316
0.00515125
0.000484155
0.012754
0.00837801
0.0160538
0.00844756
0.000457174
0.000459027
0.000462805
0.0106924
0.00610705
0.00046266
0.0030434
0.0131513
0.0274999
0.00769735
0.000458927
0.00259291
0.0165781
0.000459517
0.000473497
0.0310781
0.000487197
0.00452272
0.000469048
0.0149579
0.000468689
0.00642701
0.00540293
0.00139634
0.000456612
0.000461887
0.0215697
0.000457283
0.000456476
0.00060178
0.000468975
0.0247654
0.00490234
0.00893067
0.00983353
0.000607357
0.000627896
0.000456051
0.00156005
0.000458325
0.000480768
0.000460317
0.00114151
0.00662454
0.00045814
0.00394212
0.000469093
0.00514979
0.0192424
0.00752576
0.000452652
0.0196666
0.0126706
0.0121244
0.0140691
0.000464882
0.0108234
0.00974639
0.000462198
0.0024848
0.000562
0.000651434
0.00121492
0.000505452
0.00836232
0.00162348
0.000478668
0.000461814
0.0149742
0.00829842
0.000458854
0.00064205
0.0265232
0.005969
0.00886579
0.00235987
0.000465694
0.000457611
0.000457982
0.0156865
0.00046509
0.000463809
0.000522356
0.000453811
0.000459178
0.0143039
0.00046737
0.0105124
0.0263083
0.000460333
0.000711943
0.029612
0.000465592
0.000725352
0.000814163
0.000452634
0.0017679
0.00230805
0.000451249
0.00472509
0.000538405
0.000460506
0.000455988
0.000481046
0.000457235
0.000456433
0.000473655
0.00046309
0.000630495
0.000608752
0.000516733
0.000461615
0.000640424
0.000455347
0.010871
0.0241795
0.000463148
0.000485105
0.000701606
0.00899335
0.00989339
0.00130653
0.00767977
0.000497745
0.000457471
0.00479424
0.000468512
0.000555869
0.0285196
0.000468741
0.00769485
0.000456295
0.00046446
0.000632826
0.000457842
0.000463658
0.000633184
0.00874528
0.000619018
0.00422197
0.00479722
0.000458115
0.000846524
0.000470638
0.000453074
0.000456832
0.000451387
0.00120251
0.000466316
0.000461134
0.00312442
0.0189465
0.000453523
0.000461202
0.00194977
0.00046448
0.00045468
0.000463164
0.000455898
0.000484803
0.0213541
0.000501247
0.0205518
0.000971324
0.000459085
0.00123736
0.000466823
0.000459263
0.0004646
0.0243303
0.0240462
0.000463049
0.000458883
0.000452014
0.000461334
0.0295774
0.000465048
0.000473214
0.000462126
0.000463884
0.00576978
0.0203085
0.000453355
0.000464509
0.000455828
0.0250867
0.0222145
0.000461658
0.000468643
0.000468674
0.00924801
0.0284809
0.0257894
0.000466514
0.000459175
0.000463494
0.000504498
0.00047755
0.000821383
0.00121355
0.00137495
0.00047263
0.000454028
0.000467019
0.0011675
0.000463387
0.0137506
0.000456723
0.000466206
0.000726286
0.000457297
0.000486109
0.000458738
0.000452306
0.0145569
0.000457298
0.000467612
0.000462052
0.00386426
0.000460258
0.00146674
0.000456761
0.000452896
0.000466001
0.000463413
0.000460921
0.000457245
0.00719709
0.00047163
0.0272369
0.00961531
0.000548898
0.0157749
0.000612462
0.0006356
0.0020914
0.00592171
0.0209661
0.000461917
0.000456344
0.000463916
0.0062872
0.0169785
0.00575033
0.0140715
0.00643983
0.000461844
0.0311757
0.00701983
0.00559282
0.0042584
0.0114747
0.00301896
0.000477473
0.000471615
0.000693162
0.000834798
0.00862001
0.000458922
0.000456543
0.0111472
0.000458728
0.00920233
0.00741674
0.000464428
0.000465057
0.000457914
0.00603594
0.000461316
0.000459131
0.0125811
0.000470888
0.024349
0.00570698
0.00534846
0.000461464
0.000458151
0.000852081
0.00536364
0.00265611
0.000504462
0.00672123
0.000624417
0.000454827
0.0068035
0.000463834
0.0107776
0.000457189
0.000457263
0.000663233
0.000497483
0.000458161
0.000727723
0.000712788
0.00468541
0.00856822
0.000468458
0.000464483
0.00781073
0.000467046
0.0044651
0.0302327
0.0168337
0.000489355
0.00405576
0.00271567
0.0212489
0.000497211
0.0210569
0.0181585
0.00561735
0.00882239
0.000468746
0.0112942
0.0080621
0.0219686
0.0235661
0.000461229
0.0196291
0.0192693
0.000458964
0.000451421
0.000477078
0.000460574
0.0180077
0.0121737
0.000778291
0.00047658
0.000469072
0.000457783
0.000458511
0.00888036
0.0107911
0.00109407
0.000465236
0.0287863
0.00784347
0.000463748
0.000489216
0.000512079
0.00236759
0.000460972
0.000503833
0.000469034
0.000453149
0.0125368
0.019898
0.00049233
0.000668646
0.000501215
0.000458362
0.000457419
0.00045604
0.00047585
0.00668919
0.000521112
0.000963013
0.000451341
0.000453966
0.000453472
0.000454496
0.000455192
0.00669325
0.000732284
0.00055425
0.000634952
0.00131651
0.000498852
0.000484733
0.00105862
0.000458047
0.00848294
0.0282608
0.000468788
0.00416189
0.000467644
0.0118185
0.0144939
0.00045871
0.00631366
0.000468074
0.0228678
0.000572643
0.000457583
0.00606564
0.00236349
0.000465753
0.0172806
0.00410969
0.00102954
0.000456074
0.00559514
0.00992631
0.00878642
0.0202382
0.00716131
0.00699187
0.00045884
0.000464029
0.00655739
0.00046242
0.00950707
0.0171411
0.000462395
0.00045744
0.00045853
0.0275845
0.00778078
0.000460993
0.000465882
0.000479351
0.000477187
0.00972086
0.00894493
0.00108379
0.000459832
0.0043849
0.000510007
0.000452028
0.000489769
0.000471163
0.0151864
0.0208111
0.00497843
0.000458375
0.0229532
0.000469018
0.0247177
0.00045318
0.000462178
0.000455251
0.00309749
0.000460653
0.00574994
0.00223777
0.000719005
0.000463408
0.000527571
0.0251111
0.0312288
0.000468933
0.000470899
0.00235219
0.000452164
0.0223399
0.0230096
0.00682082
0.0183116
0.000459633
0.000452295
0.000461823
0.000462746
0.00118345
0.0175121
0.0242168
0.000569965
0.0004525
0.000469387
0.000457258
0.000458426
0.00723994
0.0213914
0.00045852
0.0103204
0.0174085
0.0132643
0.000643707
0.0258965
0.00585839
0.0233096
0.00046753
0.00126237
0.0106212
0.000461966
0.000460741
0.000823133
0.00899726
0.000708654
0.0112673
0.00220341
0.00046042
0.000457159
0.000685304
0.0255828
0.00170161
0.00045597
0.0223188
0.000748616
0.00643527
0.00717689
0.0261757
0.000460581
0.00113299
0.000992076
0.000472111
0.0271717
0.000469728
0.0196036
0.000466883
0.0278303
0.000461724
0.000467333
0.000541598
0.00653889
0.000549966
0.000712886
0.000457037
0.000661376
0.0134163
0.000470415
0.00419912
0.000453196
0.00115125
0.000463713
0.000457493
0.00144913
0.000458647
0.000774628
0.000508082
0.00071343
0.000456337
0.00103131
0.0164054
0.025335
0.000454368
0.0231153
0.00398099
0.00777265
0.000572085
0.00129945
0.0165397
0.00680303
0.000458497
0.0030438
0.000453504
0.000464298
0.00272788
0.000457134
0.00119258
0.0165748
0.00147027
0.0004577
0.0171114
0.000463767
0.0110066
0.0223625
0.000501578
0.0244754
0.0153121
0.000460404
0.00730356
0.000463448
0.000456888
0.000500562
0.000470459
0.00046198
0.00781494
0.000459279
0.0116061
0.00394456
0.0199204
0.000900862
0.000469635
0.00049721
0.0105208
0.000465751
0.000536339
0.000615582
0.0085425
0.000587946
0.0154781
0.00060396
0.00109943
0.0257792
0.00737647
0.0133688
0.00146219
0.00046176
0.000461896
0.000466663
0.000504695
0.0285503
0.000462895
0.017148
0.015086
0.00587459
0.00523765
0.00046139
0.000656025
0.000451767
0.0168784
0.000468864
0.000459678
0.0226158
0.000456235
0.00738939
0.000577987
0.000458069
0.0109049
0.0092997
0.00440407
0.0242648
0.000485636
0.00948402
0.00203642
0.00053156
0.000573473
0.0303711
0.000459512
0.000455736
0.000463848
0.000623534
0.0180845
0.00601389
0.00456343
0.0259944
0.0232878
0.000454689
0.00817299
0.0150377
0.00115352
0.000483772
0.000461439
0.0283431
0.000457767
0.0238498
0.00992178
0.000464579
0.0306328
0.00479172
0.00841258
0.000461495
0.000455683
0.000455252
0.00606798
0.00911492
0.000461576
0.0102579
0.0136539
0.000457988
0.0152781
0.000459734
0.000538201
0.000460044
0.000457534
0.000458287
0.0065665
0.00498847
0.000691746
0.00150406
0.000459608
0.000664067
0.00645189
0.000453235
0.0224775
0.00858725
0.00223883
0.000588837
0.00053425
0.000939344
0.0013615
0.00052974
0.000460344
0.0250185
0.00994495
0.0157156
0.000463251
0.000695756
0.00051888
0.000458949
0.000672117
0.000470073
0.000459751
0.000468263
0.0220668
0.000545835
0.000625035
0.000458143
0.0194305
0.000473343
0.00129563
0.000793429
0.0229951
0.000465848
0.013266
0.000462049
0.000476206
0.000461971
0.00226655
0.00047093
0.000456225
0.000458223
0.0141198
0.000452982
0.000459071
0.0131505
0.0157482
0.0256546
0.00399627
0.00659755
0.00721783
0.0215736
0.00229486
0.000814539
0.000465606
0.000460969
0.000496248
0.000460268
0.000497531
0.0184819
0.000934477
0.0195457
0.00334332
0.000452628
0.00564013
0.000457561
0.0248354
0.000461661
0.000462089