/*--------------------------------*- C++ -*----------------------------------*\
| =========                 |                                                 |
| \\      /  F ield         | OpenFOAM: The Open Source CFD Toolbox           |
|  \\    /   O peration     | Version:  v2012                                 |
|   \\  /    A nd           | Website:  www.openfoam.com                      |
|    \\/     M anipulation  |                                                 |
\*---------------------------------------------------------------------------*/
FoamFile
{
    version     2.0;
    format      ascii;
    class       volScalarField;
    location    "400";
    object      k;
}
// * * * * * * * * * * * * * * * * * * * * * * * * * * * * * * * * * * * * * //

dimensions      [0 2 -2 0 0 0 0];


internalField   nonuniform List<scalar> 
18618
(
0.000352175
0.0519444
4.58043e-05
0.0201361
6.51837e-05
9.11426e-05
9.43932e-05
0.0531886
5.62335e-05
8.90604e-05
9.01371e-05
4.58793e-05
0.0192366
4.83453e-05
6.51037e-05
4.91609e-05
6.19633e-05
0.0526156
6.25254e-05
6.63056e-05
7.46042e-05
4.47614e-05
4.90992e-05
0.000102481
7.55423e-05
9.49569e-05
0.00025328
6.29653e-05
4.93609e-05
5.80498e-05
7.63942e-05
8.53811e-05
8.46589e-05
0.000111358
0.00446532
7.0585e-05
7.77449e-05
9.79772e-05
7.46549e-05
5.7924e-05
0.00865251
0.000153404
4.98647e-05
0.0448501
5.62493e-05
9.01227e-05
0.0558046
4.80631e-05
0.000342806
0.0561534
6.28403e-05
6.8944e-05
0.00868863
0.00585146
5.76948e-05
0.0397448
4.83518e-05
6.60634e-05
0.000109716
7.40696e-05
5.73807e-05
5.85048e-05
6.63343e-05
8.09808e-05
0.00013077
0.0263356
4.86797e-05
9.23862e-05
5.18405e-05
0.00766241
9.01159e-05
0.000300148
0.000100226
0.0624049
8.40662e-05
9.25382e-05
0.000117185
0.0577749
5.18849e-05
0.0590237
0.0833466
0.0458781
0.058995
8.95404e-05
8.44527e-05
4.9741e-05
0.000107766
8.93104e-05
8.47822e-05
0.0505337
0.000100428
8.29059e-05
0.0453471
0.000117101
0.0022898
9.27991e-05
7.80895e-05
0.000716312
4.85106e-05
4.59022e-05
0.00237212
8.11383e-05
0.00010836
8.56679e-05
0.000117127
0.076344
5.69814e-05
4.91701e-05
0.000127534
4.728e-05
0.00655564
6.4902e-05
8.81483e-05
5.98766e-05
6.99803e-05
4.59796e-05
4.96035e-05
0.0504571
7.48653e-05
0.000138943
0.000500152
8.77442e-05
0.0418697
0.0474338
0.00055584
8.2331e-05
0.00814417
0.0590257
9.0245e-05
0.000115081
0.000118946
6.49974e-05
0.0421837
9.03103e-05
6.99171e-05
5.70203e-05
6.7486e-05
8.91316e-05
0.0503228
5.40568e-05
8.07676e-05
5.47173e-05
5.90001e-05
7.79983e-05
4.95789e-05
9.39662e-05
7.75878e-05
6.2655e-05
0.0758751
9.38016e-05
4.81806e-05
0.0517795
0.0511657
4.92373e-05
5.97288e-05
0.00382574
0.0626724
0.0039483
0.000105278
4.71469e-05
4.52092e-05
0.0033821
8.91926e-05
0.000113482
5.2948e-05
0.000281431
5.9808e-05
5.41854e-05
0.0826896
8.84805e-05
8.45148e-05
4.6635e-05
0.000121072
0.000104364
0.00300354
9.24671e-05
6.87219e-05
0.0564349
4.66113e-05
5.18842e-05
9.90528e-05
0.000105224
7.04109e-05
6.98015e-05
0.0116071
6.25795e-05
6.56364e-05
9.81224e-05
7.30506e-05
0.000138221
7.64505e-05
0.000103553
0.0083759
5.31761e-05
0.000130159
5.5027e-05
9.95055e-05
0.0151012
9.01617e-05
0.0785787
0.000100414
0.0455704
7.44971e-05
8.8944e-05
0.0790213
0.0332359
0.0516668
0.0457172
8.83071e-05
0.0352717
0.000105536
6.4562e-05
0.0621951
0.040799
6.97488e-05
7.02142e-05
6.11481e-05
0.0797348
8.81698e-05
0.0688497
7.8345e-05
8.53367e-05
6.186e-05
0.000250362
8.71974e-05
8.78334e-05
7.83746e-05
5.28216e-05
0.0040493
0.000104038
0.0348792
0.000110557
8.23245e-05
9.25463e-05
7.67522e-05
0.000113104
7.40052e-05
5.34707e-05
7.00807e-05
0.000255254
9.86449e-05
8.50108e-05
9.02899e-05
8.42644e-05
0.00271359
6.89806e-05
0.000103968
0.0289148
6.51288e-05
9.00201e-05
0.00878667
6.55539e-05
8.86612e-05
0.0488036
8.79323e-05
4.97549e-05
8.76327e-05
0.00010737
6.14896e-05
0.000103015
0.000248179
8.76274e-05
0.00010804
0.0689878
6.75538e-05
8.30896e-05
9.70181e-05
0.000182192
8.72613e-05
8.99112e-05
9.26444e-05
4.69725e-05
5.77961e-05
6.31521e-05
4.78819e-05
0.0142997
5.98422e-05
4.80062e-05
0.0752986
5.76559e-05
8.49816e-05
4.69737e-05
0.0506057
0.0295858
8.74729e-05
0.00340225
5.45698e-05
9.21882e-05
4.46121e-05
0.000120166
5.70905e-05
7.4914e-05
7.63526e-05
5.45105e-05
0.0637971
4.91596e-05
6.17779e-05
8.74001e-05
0.0135668
0.0439796
0.00688388
0.0291145
0.0683289
0.000107402
0.000106052
0.0787153
0.00242116
6.83831e-05
8.7717e-05
0.000104608
6.91385e-05
0.00010499
8.47005e-05
5.75479e-05
9.37476e-05
0.00301426
0.0349011
6.39253e-05
8.31021e-05
7.02102e-05
0.00011397
0.000133553
9.77861e-05
0.00281757
8.34941e-05
5.5519e-05
0.0146382
4.78172e-05
0.000106548
5.37184e-05
5.65899e-05
5.97298e-05
0.000102792
6.89261e-05
5.6078e-05
8.3853e-05
0.000108612
5.32034e-05
0.0458663
0.0450693
5.63036e-05
0.0711331
5.60585e-05
4.43375e-05
5.1831e-05
0.000103861
6.02035e-05
9.07873e-05
0.00523399
8.82026e-05
0.00765023
0.000106732
8.49967e-05
8.74794e-05
0.00224372
0.000160411
5.01765e-05
0.000472661
4.71516e-05
9.91482e-05
0.00644149
0.0531104
0.000269389
5.99915e-05
0.0548284
0.0119576
5.3719e-05
8.99189e-05
5.77759e-05
4.95023e-05
6.45694e-05
8.86504e-05
0.00527557
0.00676178
4.47164e-05
6.8386e-05
0.00202182
6.34636e-05
0.000112184
9.34786e-05
8.37109e-05
8.52765e-05
0.0847714
0.00930401
6.23157e-05
8.66507e-05
5.30615e-05
0.000393005
4.55441e-05
8.68844e-05
4.76616e-05
8.43939e-05
9.02553e-05
4.77175e-05
0.0760326
0.0172541
0.000135174
0.0563123
5.27209e-05
7.97906e-05
8.65451e-05
0.0144729
0.000109108
0.0329258
5.2986e-05
0.0865319
7.7993e-05
9.11681e-05
5.57443e-05
9.36658e-05
6.95288e-05
0.0828034
0.0552874
8.32239e-05
6.45994e-05
0.000293907
6.02659e-05
8.90906e-05
8.98272e-05
0.00582043
8.87199e-05
8.65429e-05
6.00961e-05
0.00364817
0.0274528
4.7153e-05
7.9737e-05
8.08793e-05
5.72809e-05
8.94015e-05
5.70979e-05
6.34978e-05
7.79696e-05
8.41103e-05
9.29663e-05
8.97496e-05
0.000119173
6.95508e-05
0.0738064
7.25126e-05
0.000106531
0.0528975
5.02875e-05
5.02078e-05
0.062858
8.88224e-05
0.0296129
0.0660018
8.26987e-05
9.18314e-05
7.32459e-05
0.073496
0.0501312
8.57953e-05
0.000157833
0.0467138
7.57685e-05
0.00387891
4.62396e-05
0.0436814
0.0502169
8.89246e-05
0.0586392
5.52664e-05
0.00228419
0.000107512
0.0454025
8.94675e-05
0.002659
6.80855e-05
4.86034e-05
6.26179e-05
8.92855e-05
0.000103196
7.57688e-05
5.2507e-05
5.25963e-05
0.0563589
0.069999
6.54134e-05
0.0551177
0.00151017
8.92457e-05
7.44372e-05
5.05028e-05
0.00479829
7.76515e-05
9.43357e-05
0.000358686
0.0452022
0.000259947
4.85021e-05
5.45854e-05
9.16033e-05
0.0189868
5.86036e-05
0.0343261
7.40704e-05
4.80145e-05
7.64471e-05
0.036027
7.33664e-05
0.000218842
8.17985e-05
8.82205e-05
8.66673e-05
5.68693e-05
7.54561e-05
5.53249e-05
0.00408771
0.00475882
0.000249207
6.07527e-05
8.4e-05
5.23727e-05
6.0649e-05
0.0506189
0.000103293
0.000623887
6.11563e-05
0.0189618
7.18059e-05
6.00025e-05
0.000108503
0.0510564
9.1282e-05
5.03177e-05
7.61042e-05
0.00147963
0.00137344
6.0163e-05
0.000114014
8.04433e-05
4.49372e-05
7.44637e-05
0.0613074
0.000139001
6.49839e-05
0.0659914
0.0838646
0.0508368
0.00774609
7.96216e-05
0.0447576
0.000104747
8.69213e-05
0.00259798
0.0475228
8.46488e-05
0.000116894
0.00010393
6.80943e-05
8.93452e-05
0.000146817
0.00014218
7.18165e-05
4.87716e-05
0.000127083
9.15141e-05
9.23413e-05
7.33789e-05
0.00772486
8.40065e-05
0.00399588
8.9729e-05
8.77986e-05
0.000169869
8.17066e-05
8.91134e-05
0.0423917
8.82029e-05
0.083865
0.000822281
0.00491194
0.000108356
9.18558e-05
0.0293703
7.65816e-05
6.5718e-05
0.000105753
5.40223e-05
4.91068e-05
0.0697142
5.69506e-05
8.93461e-05
8.81186e-05
8.72742e-05
5.37377e-05
4.62413e-05
0.000103673
7.98035e-05
0.0418779
7.13236e-05
0.00446941
7.67644e-05
0.0635813
5.4671e-05
4.55371e-05
0.0117041
7.19768e-05
0.00393572
4.8801e-05
0.000173938
9.25345e-05
8.65792e-05
8.94237e-05
0.000398194
5.36344e-05
6.54314e-05
5.16501e-05
4.48901e-05
0.0510949
5.27025e-05
5.51935e-05
0.0402823
0.0418827
7.68625e-05
0.0615211
8.96937e-05
7.76773e-05
0.00010251
9.0639e-05
9.05818e-05
0.0730334
8.6251e-05
0.000114836
9.02048e-05
0.049087
0.0440117
4.91961e-05
5.2305e-05
7.62877e-05
0.0110806
7.70313e-05
0.0436825
7.76127e-05
4.95603e-05
5.36979e-05
5.53594e-05
5.05604e-05
5.49781e-05
0.000103171
0.000108483
0.013619
5.18494e-05
7.71076e-05
0.0268575
7.14807e-05
5.61279e-05
0.0503444
9.87692e-05
9.04293e-05
7.48244e-05
7.06636e-05
9.06569e-05
8.70362e-05
0.00386016
7.95857e-05
8.82865e-05
9.83609e-05
0.000622587
8.91861e-05
0.0510869
0.00661483
0.085038
0.000156942
7.61427e-05
0.000101511
0.0665688
5.36799e-05
0.000105404
4.68171e-05
8.62538e-05
8.52606e-05
0.0696748
5.21345e-05
0.0358544
8.27174e-05
0.000454308
8.35504e-05
0.000112483
0.000104137
0.000113548
0.0371373
0.025731
4.64496e-05
0.059886
4.93676e-05
0.0720619
8.58051e-05
0.000106841
9.06518e-05
8.89745e-05
8.81211e-05
5.95627e-05
7.75519e-05
0.000114374
5.75641e-05
4.46641e-05
4.98058e-05
7.5858e-05
8.77049e-05
4.64323e-05
4.67969e-05
0.000113055
5.53803e-05
0.00408408
6.89414e-05
8.93854e-05
5.99818e-05
9.65646e-05
4.61171e-05
7.71673e-05
5.81772e-05
0.0559313
7.76643e-05
8.8061e-05
5.04003e-05
6.10874e-05
4.46346e-05
8.4146e-05
7.62639e-05
8.47426e-05
0.0761839
6.16935e-05
0.0509188
0.0289106
0.000168206
4.60778e-05
6.11288e-05
0.0668719
0.0234661
0.0115643
0.00367212
0.00721072
0.0374282
0.00960581
9.152e-05
0.0528335
7.55625e-05
9.37449e-05
5.02796e-05
0.000119963
7.14315e-05
9.02475e-05
0.000103788
6.52313e-05
0.0171572
6.55241e-05
8.35777e-05
0.000129619
0.0572345
0.000390093
0.000134039
0.00285899
8.73458e-05
7.5286e-05
5.34127e-05
6.03738e-05
0.0769364
0.0717478
6.90015e-05
5.95291e-05
0.0017402
9.67572e-05
0.00239299
8.44703e-05
7.86267e-05
8.83913e-05
0.00847085
8.96456e-05
5.34353e-05
4.76567e-05
6.13384e-05
6.87042e-05
7.62166e-05
8.97716e-05
0.0599416
0.0769347
5.38896e-05
0.0384033
4.861e-05
0.0299639
0.000389417
0.0122759
4.77289e-05
7.82615e-05
0.0575526
4.76858e-05
0.0512356
8.79247e-05
4.77847e-05
8.62952e-05
6.82725e-05
0.0632301
8.20634e-05
5.62303e-05
0.000118817
8.81212e-05
9.6647e-05
7.63146e-05
0.0669674
4.96257e-05
7.6124e-05
6.0379e-05
8.73284e-05
9.40637e-05
9.13842e-05
8.92342e-05
8.66613e-05
0.0217047
9.04416e-05
4.48397e-05
7.47279e-05
5.94727e-05
8.04259e-05
0.000111516
9.92685e-05
0.0862985
7.9002e-05
8.88597e-05
0.00303223
7.41156e-05
0.036585
0.000114789
4.4793e-05
7.6757e-05
0.0292371
6.79475e-05
9.03936e-05
6.8843e-05
7.53803e-05
8.41109e-05
7.88046e-05
0.065662
8.89421e-05
8.33136e-05
7.72176e-05
0.041485
0.000186576
5.91517e-05
7.72603e-05
0.00163532
5.99335e-05
0.0499485
5.34478e-05
7.9222e-05
0.0168768
8.62027e-05
0.0348738
9.65811e-05
0.0761697
8.39911e-05
5.06972e-05
6.13823e-05
9.04012e-05
6.49574e-05
8.78531e-05
0.016811
0.0661784
8.00154e-05
0.000193076
0.0244169
0.0595106
0.0229343
0.000114681
5.711e-05
4.58698e-05
0.0250367
4.78636e-05
0.000151122
9.65137e-05
0.0495096
4.75348e-05
8.02379e-05
5.33531e-05
6.06577e-05
0.00139082
7.98265e-05
0.000118337
6.26796e-05
9.60426e-05
0.059736
7.9233e-05
6.32658e-05
6.48951e-05
0.00728137
0.0112043
0.0242701
0.000132866
7.73555e-05
0.0602412
7.7145e-05
6.11415e-05
7.64296e-05
8.8137e-05
0.000127502
0.000102401
0.00358987
0.00277134
5.9989e-05
0.000117402
0.0795613
0.0405869
0.0275058
0.0488955
0.0214313
9.95899e-05
9.89817e-05
0.0529976
7.92149e-05
9.08711e-05
7.91018e-05
0.0166347
0.00924458
0.0643802
9.09497e-05
5.68735e-05
5.38568e-05
7.62125e-05
6.08494e-05
8.86186e-05
7.84598e-05
0.000179963
8.01441e-05
0.0602723
8.96711e-05
7.02131e-05
7.57911e-05
0.0756367
0.000184233
9.01921e-05
0.0433
7.87238e-05
0.00646344
7.23636e-05
6.75775e-05
7.87487e-05
6.20669e-05
5.87122e-05
8.21213e-05
0.0284824
4.58002e-05
4.49513e-05
0.0748706
0.0393967
6.7386e-05
8.69203e-05
7.48346e-05
0.0617042
5.0921e-05
9.05044e-05
0.00616244
7.55143e-05
0.0259091
5.46693e-05
8.99378e-05
5.9358e-05
0.0592764
8.61056e-05
8.37004e-05
5.62032e-05
0.0502648
8.76645e-05
5.47511e-05
8.23954e-05
8.46004e-05
0.0274348
5.85973e-05
0.0359846
6.21262e-05
7.56247e-05
0.000152313
7.0823e-05
4.98461e-05
6.11572e-05
6.19518e-05
8.76222e-05
0.0585388
0.0378932
0.000113489
9.32216e-05
7.51642e-05
8.866e-05
7.92997e-05
7.93642e-05
0.000134674
5.34443e-05
0.0520562
7.70932e-05
5.34997e-05
9.87481e-05
5.49285e-05
7.69685e-05
0.00014899
7.79644e-05
4.54038e-05
6.48437e-05
5.72745e-05
5.22954e-05
4.98307e-05
7.82882e-05
0.000164439
6.88157e-05
0.000265751
0.00301886
0.00227636
6.19094e-05
0.0172845
5.73431e-05
8.6363e-05
0.000104238
0.00150406
5.43156e-05
0.000101966
5.39466e-05
4.76438e-05
6.0566e-05
4.43893e-05
8.22242e-05
8.61476e-05
8.45224e-05
0.000150051
0.00939424
5.52033e-05
5.30691e-05
7.15929e-05
0.000278184
8.69111e-05
0.055688
8.84961e-05
8.51548e-05
7.61386e-05
7.96223e-05
0.000199556
0.000327494
5.52057e-05
5.0101e-05
5.1718e-05
8.07383e-05
0.0261117
6.20537e-05
9.20994e-05
8.81381e-05
4.50586e-05
0.000185557
6.91005e-05
6.25087e-05
9.0871e-05
5.29868e-05
0.0747259
0.000144812
4.93904e-05
0.00349768
6.86599e-05
0.000139938
5.79533e-05
8.98862e-05
8.57356e-05
0.000264776
6.29946e-05
6.29819e-05
8.58197e-05
9.00473e-05
0.0002969
5.22182e-05
0.000186652
7.5464e-05
7.82692e-05
8.47407e-05
0.0793831
0.0114823
5.29877e-05
0.0209937
8.83924e-05
0.000113723
0.0406263
0.000210568
0.0470325
0.0136025
0.0678063
6.0732e-05
0.00663657
0.0116253
0.0542215
9.18295e-05
0.0134235
0.00367457
5.4671e-05
7.86729e-05
0.0117977
6.35654e-05
0.0575271
7.75668e-05
0.0560483
0.0161281
0.0173748
6.93111e-05
6.36759e-05
6.36672e-05
7.91112e-05
0.00610756
9.16248e-05
6.50018e-05
9.17943e-05
8.96654e-05
5.97606e-05
0.00612276
9.01932e-05
5.16809e-05
4.86746e-05
0.0448674
0.044304
0.000115573
5.26306e-05
0.0107605
8.8358e-05
4.49889e-05
4.85092e-05
4.50675e-05
7.51754e-05
6.26831e-05
0.0321385
0.0313617
4.48716e-05
9.97801e-05
0.00492767
0.00931739
6.19309e-05
5.42528e-05
7.15531e-05
0.000103367
7.05511e-05
0.0636279
9.80961e-05
0.00484833
8.61452e-05
5.15872e-05
7.69239e-05
4.52119e-05
0.000108474
4.73411e-05
5.15788e-05
6.04015e-05
0.00332051
0.00036621
4.87033e-05
6.46668e-05
8.23375e-05
7.19359e-05
0.0140505
6.61521e-05
6.72144e-05
0.00332676
6.72989e-05
0.0497016
0.0129268
9.69322e-05
0.000444286
0.0514087
0.0153647
0.000116817
0.000113119
8.46442e-05
7.39135e-05
8.79309e-05
6.05516e-05
0.000404784
8.47693e-05
8.00138e-05
7.85466e-05
7.88092e-05
0.000147555
8.43463e-05
0.0417037
9.05372e-05
9.70946e-05
6.60938e-05
5.70122e-05
9.0957e-05
0.000109571
7.40342e-05
6.57832e-05
6.4586e-05
4.82627e-05
0.000283824
8.54459e-05
4.95487e-05
8.86751e-05
8.13935e-05
4.47815e-05
9.52983e-05
0.0459861
0.000179344
7.38577e-05
6.2044e-05
0.000142165
0.0638927
0.0140594
9.37004e-05
5.97969e-05
0.0582516
9.40249e-05
8.3492e-05
9.05412e-05
2.55913e-05
6.04404e-05
0.0426885
8.52536e-05
9.01393e-05
9.27539e-05
4.72155e-05
6.05689e-05
4.5873e-05
0.00477572
0.00037943
0.0868473
7.20309e-05
0.0149625
0.000109294
6.0259e-05
5.55327e-05
0.000158141
8.16871e-05
0.0534272
0.000112571
0.000478966
9.66267e-05
0.000111419
0.000100334
6.54253e-05
0.0211272
6.00369e-05
0.00317471
0.0221776
6.03629e-05
8.12037e-05
0.00011161
0.0200657
0.0016911
8.46028e-05
0.0370247
5.73123e-05
0.0400238
9.47586e-05
0.0352284
0.0238709
6.08651e-05
8.13759e-05
8.77995e-05
0.000110456
0.0487786
0.0011431
4.59312e-05
5.16505e-05
7.41278e-05
9.0242e-05
8.94273e-05
0.00778801
8.45719e-05
0.0620581
6.01306e-05
0.000104795
8.42246e-05
0.000151791
4.46661e-05
0.00131031
4.82155e-05
9.53763e-05
4.46236e-05
5.71774e-05
6.0089e-05
9.89294e-05
8.45637e-05
8.77498e-05
0.0170386
6.35884e-05
5.02651e-05
0.00393056
7.62439e-05
0.000109591
0.0417802
0.00658068
8.53822e-05
5.30529e-05
7.51565e-05
0.0101295
8.99939e-05
6.02131e-05
8.30941e-05
0.00117295
4.61604e-05
0.00189562
8.99269e-05
0.0153377
0.000104307
8.18091e-05
7.6037e-05
7.24183e-05
0.00631627
0.052908
0.00606667
7.10496e-05
0.0490786
0.0233243
0.0478224
6.20338e-05
6.76857e-05
0.00010321
6.61589e-05
6.10291e-05
5.20865e-05
7.07592e-05
6.5848e-05
5.17056e-05
5.16368e-05
6.60747e-05
5.113e-05
4.74273e-05
7.86773e-05
6.39159e-05
0.0653524
8.22382e-05
4.60503e-05
0.00133602
8.50984e-05
0.000658168
0.0121971
0.000136361
0.0291245
6.12943e-05
0.0107222
6.74338e-05
0.0119881
5.98243e-05
0.0134445
0.00013886
0.0624701
6.09441e-05
7.68339e-05
0.0140415
0.000131187
0.000120738
4.69077e-05
7.97938e-05
0.00130233
7.78659e-05
8.1123e-05
6.83263e-05
6.50957e-05
0.0500873
8.61308e-05
6.80999e-05
9.53119e-05
5.73594e-05
0.0409544
8.69365e-05
5.39979e-05
7.39777e-05
4.88059e-05
4.54956e-05
0.0554945
0.011892
4.42902e-05
6.00703e-05
0.00605901
9.03798e-05
5.94506e-05
6.04089e-05
8.45003e-05
6.32671e-05
4.46716e-05
6.83514e-05
6.46695e-05
5.06569e-05
9.09479e-05
0.00918779
0.0148355
7.73634e-05
6.02323e-05
4.91125e-05
0.0506728
0.000161154
9.46504e-05
5.0581e-05
0.000137893
5.70685e-05
6.1225e-05
4.95165e-05
5.9186e-05
0.00014331
6.01153e-05
0.0416122
0.00912837
0.0180213
5.27655e-05
0.000105895
0.00848321
0.0516269
0.00801998
0.0618281
8.62529e-05
0.0633541
7.78547e-05
0.000134676
5.54431e-05
0.000196408
6.65813e-05
8.63491e-05
9.01033e-05
0.0111867
7.05301e-05
0.0544583
0.00835815
6.67885e-05
5.098e-05
9.16182e-05
8.6324e-05
8.47196e-05
7.5974e-05
0.0168026
6.54945e-05
9.07285e-05
4.98784e-05
0.062914
9.07457e-05
6.47543e-05
8.41609e-05
5.34894e-05
8.4812e-05
0.0860185
7.21822e-05
8.3595e-05
5.66967e-05
0.0213924
6.36409e-05
0.00658119
5.92168e-05
4.91606e-05
0.0113802
6.07826e-05
8.36246e-05
5.39811e-05
4.98312e-05
9.18697e-05
6.47227e-05
7.42326e-05
0.0590439
8.78404e-05
6.82369e-05
9.59015e-05
0.006539
5.21996e-05
0.000155654
4.7472e-05
0.000167179
5.39112e-05
6.58397e-05
0.000851001
6.17341e-05
7.74193e-05
5.78798e-05
0.0652193
0.037531
5.67393e-05
0.000623367
4.51289e-05
5.18202e-05
0.0552728
7.72199e-05
7.18527e-05
9.74729e-05
9.54494e-05
0.000101398
0.000104288
6.71322e-05
9.07859e-05
5.18897e-05
0.000229399
0.00102387
8.757e-05
7.40961e-05
4.75624e-05
0.00366109
8.88689e-05
0.00606762
0.0665171
9.05458e-05
4.7006e-05
8.39229e-05
0.000150537
0.000307899
4.71336e-05
4.43725e-05
0.000116106
7.90776e-05
5.39062e-05
8.81796e-05
0.0653431
8.75025e-05
0.0595562
5.5262e-05
0.0145946
4.5018e-05
9.17303e-05
0.000285968
0.0153005
0.00903673
6.04585e-05
6.36258e-05
0.000107598
5.34677e-05
6.54165e-05
0.00880314
0.00486134
0.000113301
4.87704e-05
0.0695539
0.0189607
0.0396963
8.75537e-05
6.16149e-05
8.14474e-05
9.05983e-05
0.00604219
7.6963e-05
4.93168e-05
0.0575569
0.00379127
0.0126916
9.75229e-05
6.05158e-05
0.000175161
0.0516915
0.0675995
0.00232396
6.72591e-05
0.000114734
5.96835e-05
0.00266763
0.00604955
0.0515184
0.000103215
0.0496973
4.99544e-05
5.65625e-05
8.77977e-05
0.0666575
7.28872e-05
5.98241e-05
0.0048175
8.51479e-05
9.1759e-05
5.50105e-05
8.40238e-05
7.22181e-05
0.0119829
0.000245193
5.35842e-05
7.97321e-05
9.08608e-05
0.000113509
8.88657e-05
7.42939e-05
0.0165186
7.78862e-05
0.00408948
0.0235174
0.00108505
5.62339e-05
7.1041e-05
0.0451623
0.00671788
5.9231e-05
0.0573471
0.072339
7.1309e-05
0.0383213
8.65461e-05
7.89335e-05
9.87505e-05
8.56935e-05
0.0415528
5.95284e-05
6.12431e-05
8.03159e-05
0.000122434
0.0356444
8.61782e-05
8.5895e-05
0.0534953
0.0600392
6.09329e-05
0.00351981
0.00335207
5.12204e-05
5.68257e-05
8.18665e-05
0.000137142
7.73639e-05
0.000110389
0.0734184
5.49986e-05
9.95451e-05
0.0131216
9.70054e-05
0.00170678
6.14176e-05
0.000119962
0.0687766
0.03894
8.42388e-05
8.95894e-05
0.0611962
0.0401252
6.03606e-05
6.19423e-05
0.000202685
9.20661e-05
9.10843e-05
8.72361e-05
0.0119828
4.92755e-05
5.82666e-05
0.000272245
7.84317e-05
9.12748e-05
0.000382844
0.000117655
7.84939e-05
6.68e-05
9.99786e-05
5.97835e-05
0.000135826
0.0148177
0.0120852
5.94524e-05
6.90646e-05
0.000580197
8.73906e-05
4.84081e-05
0.000160725
7.27886e-05
9.02682e-05
0.0498904
8.9182e-05
7.38639e-05
0.00013227
9.60693e-05
8.78044e-05
0.0236579
0.0115219
7.06226e-05
8.42041e-05
0.0496212
9.50278e-05
0.0185701
6.49124e-05
9.04622e-05
8.5038e-05
0.000136226
0.064798
8.98579e-05
6.14273e-05
0.000133682
9.45139e-05
7.02562e-05
0.00010743
5.69331e-05
8.74258e-05
8.91026e-05
9.50424e-05
5.15894e-05
7.30865e-05
7.83389e-05
0.000104419
0.0418387
9.14048e-05
9.88482e-05
8.24176e-05
9.60018e-05
0.00030968
8.8066e-05
8.60112e-05
6.02359e-05
0.000135633
0.0723686
0.000102993
7.56043e-05
6.92079e-05
0.0623067
6.67412e-05
8.76781e-05
0.0212329
7.76778e-05
8.52552e-05
0.0868945
8.58898e-05
5.81081e-05
0.013625
9.00643e-05
8.72528e-05
0.0116391
3.80401e-05
5.54601e-05
8.73482e-05
0.0745146
8.21062e-05
8.44783e-05
7.30654e-05
8.30315e-05
0.0241641
9.19043e-05
9.8581e-05
4.43409e-05
9.14393e-05
8.78856e-05
4.82874e-05
0.0288982
7.28053e-05
0.000354696
0.000197038
5.17183e-05
8.31747e-05
0.0082952
0.000156954
8.47848e-05
8.94637e-05
0.0763997
7.48241e-05
0.0346933
0.0787416
7.92051e-05
0.00196218
0.0851458
0.000115735
8.50346e-05
7.03565e-05
0.000322792
8.05746e-05
0.0545697
9.1572e-05
5.7962e-05
0.00010479
0.000118559
9.84244e-05
8.49929e-05
0.0353903
0.0552367
7.23081e-05
6.89165e-05
5.93187e-05
0.000109701
8.44977e-05
5.64795e-05
0.0068637
0.039368
0.000129859
0.00728653
0.000115336
7.72039e-05
7.58203e-05
6.02043e-05
4.40702e-05
0.0118037
7.07346e-05
9.04043e-05
9.51664e-05
8.0652e-05
0.0262395
8.56844e-05
0.026893
0.0260786
9.7488e-05
9.72559e-05
0.000337206
6.57423e-05
8.23296e-05
0.0546681
4.67169e-05
0.000111346
0.0601571
0.00010644
0.000816237
4.80953e-05
0.0117808
0.0139841
0.00455369
0.0132461
4.62691e-05
0.00483757
0.00120221
0.000143484
0.00148497
8.4392e-05
0.0534922
0.000327956
0.00643585
0.0025835
7.21706e-05
0.0432164
0.0121237
0.0335031
0.0392791
0.00659487
0.0513525
0.0328428
8.82143e-05
7.73653e-05
0.0357849
5.78395e-05
8.8272e-05
4.65169e-05
0.050714
0.00010088
7.6996e-05
0.0501726
7.44223e-05
0.00385144
9.40266e-05
9.48832e-05
5.76537e-05
4.65954e-05
0.00702493
0.0724973
5.97611e-05
8.37444e-05
8.63335e-05
8.76356e-05
9.21699e-05
5.91863e-05
6.7376e-05
6.54265e-05
5.74007e-05
0.0496087
9.79571e-05
0.00333357
0.00398361
6.14444e-05
0.0651726
7.14253e-05
8.85025e-05
5.96504e-05
5.94792e-05
0.000103049
6.13058e-05
6.31901e-05
0.0125839
6.92179e-05
9.23534e-05
8.28865e-05
7.4689e-05
0.000142966
8.4816e-05
4.62461e-05
6.11276e-05
7.8103e-05
6.00129e-05
5.93152e-05
5.46793e-05
0.000110774
0.0498714
8.79719e-05
8.74674e-05
8.74258e-05
8.18949e-05
0.0422177
7.39866e-05
0.00562932
8.58004e-05
0.000106352
4.95212e-05
6.44453e-05
6.1701e-05
7.84052e-05
0.00637812
0.0862094
0.0654224
5.68049e-05
0.00484356
0.000116493
0.00638292
5.55306e-05
1.94701e-05
0.0756592
5.46751e-05
0.0145972
0.0454502
0.0417733
8.86865e-05
8.75006e-05
5.9916e-05
0.000133084
7.81671e-05
0.0498558
0.015435
6.91257e-05
0.00367949
7.14442e-05
4.52776e-05
0.0199354
8.34446e-05
7.4095e-05
0.0768657
0.057175
0.000114806
7.41405e-05
6.39435e-05
0.000926504
6.43748e-05
5.7812e-05
6.79062e-05
5.11631e-05
7.25046e-05
9.02036e-05
0.00350561
0.00224517
7.78361e-05
0.000862113
6.00449e-05
0.0652621
0.0592335
0.00012299
0.0134602
9.05511e-05
0.0653378
9.12666e-05
8.50263e-05
8.72395e-05
5.46367e-05
0.000164412
8.67536e-05
5.28405e-05
5.40276e-05
0.0157123
0.00036264
0.055047
0.000242026
7.38119e-05
8.1559e-05
0.0706452
0.0147093
7.80722e-05
7.06621e-05
0.0401717
0.000218802
0.0243126
0.000206385
0.000116116
6.6847e-05
5.42408e-05
0.0498527
0.0288581
0.000115857
6.50962e-05
6.50073e-05
0.0498663
7.95073e-05
5.64122e-05
0.0717072
0.0298689
9.93964e-05
9.10025e-05
0.000103211
0.00162182
5.47712e-05
7.39442e-05
5.86371e-05
0.000510113
8.4524e-05
0.000117547
8.31723e-05
0.00623285
0.0362942
0.000173617
0.0555749
9.29713e-05
8.43145e-05
0.000102924
0.00875985
0.000107557
5.65312e-05
0.0047529
0.000382988
5.8983e-05
8.25324e-05
8.44511e-05
6.10633e-05
0.000107514
0.0622637
8.06796e-05
9.42151e-05
9.47823e-05
0.000323393
0.000263361
0.00072056
0.000199765
5.58358e-05
0.00543719
8.41204e-05
0.0355988
9.1418e-05
9.09178e-05
0.0868113
7.13723e-05
0.000196601
4.47408e-05
8.46006e-05
8.23624e-05
0.000782966
0.0744985
9.23848e-05
0.0575065
5.09978e-05
0.0080551
4.74703e-05
0.00650483
7.39854e-05
5.91705e-05
5.3771e-05
7.43551e-05
0.00311789
9.09582e-05
9.33263e-05
0.0636792
0.0277841
0.0541927
5.79277e-05
8.63565e-05
8.80118e-05
0.000106508
0.00012627
8.47092e-05
8.18788e-05
0.0062436
0.0407837
0.0655096
0.00392032
7.15438e-05
0.0436128
0.000537931
8.3328e-05
7.37385e-05
0.00210016
9.29575e-05
0.00611857
5.75581e-05
0.0452572
7.25045e-05
5.3957e-05
0.000252245
0.0177915
8.43911e-05
0.0701647
0.000115361
8.41497e-05
0.0361859
9.12945e-05
8.50075e-05
7.59647e-05
8.22583e-05
0.000100961
0.000135273
0.0763861
9.30038e-05
7.68881e-05
0.0353688
0.000261632
0.00022385
7.41054e-05
0.000177285
6.07781e-05
0.000101938
0.000802621
0.0450612
9.19026e-05
0.0129515
0.000737857
8.6889e-05
0.0668872
0.000100605
5.75559e-05
0.000101283
0.000157014
0.0653503
0.000111016
6.68206e-05
5.47098e-05
5.36847e-05
6.0208e-05
6.14643e-05
8.543e-05
0.0693586
0.000102536
0.000125157
8.03085e-05
0.0104545
7.91375e-05
9.39655e-05
0.000309074
7.7947e-05
0.00496842
0.0555484
0.0125613
0.0811427
8.88484e-05
8.7188e-05
0.000102822
8.66239e-05
5.63655e-05
5.9088e-05
0.000244506
0.000832443
0.043867
5.80103e-05
9.26835e-05
0.00742906
8.88283e-05
0.0720126
7.29703e-05
6.10504e-05
8.93664e-05
6.38759e-05
5.67154e-05
8.3809e-05
8.64265e-05
6.08627e-05
0.000103527
4.97053e-05
0.000202606
8.58522e-05
8.82107e-05
0.0270763
0.000330322
0.000104477
7.95945e-05
9.15195e-05
0.000106063
9.43719e-05
0.000382787
5.68445e-05
0.00669894
8.98644e-05
0.0125991
8.41022e-05
6.04501e-05
8.17258e-05
8.32911e-05
9.81927e-05
6.07207e-05
0.000104134
7.44392e-05
6.72822e-05
8.93484e-05
7.17929e-05
7.77081e-05
9.40689e-05
0.0599332
0.0439126
0.0783076
0.0779874
8.99301e-05
9.30131e-05
7.51404e-05
0.0677865
0.050969
0.000101746
2.97689e-05
6.79707e-05
0.000149149
7.13007e-05
5.50087e-05
6.37837e-05
7.58425e-05
8.70819e-05
0.000577959
6.08676e-05
7.75206e-05
0.0486997
0.0760692
9.10009e-05
0.000104138
5.95773e-05
6.69202e-05
0.00592952
7.91813e-05
5.42134e-05
0.0370743
0.0570222
0.00949851
0.000149396
0.0545634
8.5157e-05
0.0108484
0.0114752
0.00704398
8.5708e-05
0.072433
8.92065e-05
9.06283e-05
0.00624285
0.000102346
0.0398974
7.84527e-05
0.0335772
0.00226804
8.43412e-05
4.74077e-05
8.20795e-05
0.000102556
0.000103079
0.000246978
0.00208072
0.00963763
0.00108401
0.069947
5.96164e-05
9.01467e-05
0.000134353
0.00409542
8.61156e-05
7.94519e-05
0.000107912
0.000134392
8.77051e-05
5.72827e-05
0.00572439
0.0668848
0.00089709
5.78345e-05
0.0639805
7.16552e-05
4.78254e-05
9.32555e-05
0.0110017
0.000225369
0.000117793
4.44693e-05
0.0017511
4.79139e-05
5.85277e-05
0.0434383
0.0064787
5.88701e-05
8.39479e-05
7.68944e-05
7.7555e-05
7.1698e-05
6.71648e-05
5.90099e-05
0.0022895
9.02255e-05
7.35421e-05
7.65828e-05
4.90451e-05
5.85174e-05
0.0733005
0.000543565
8.74855e-05
0.0570904
0.00061015
0.0483194
0.0371551
6.64708e-05
6.48083e-05
5.11423e-05
9.22038e-05
0.0732996
0.0443761
8.87751e-05
0.0345129
0.051381
0.00110607
0.027974
0.0803053
0.0872351
5.96698e-05
0.00414443
6.67157e-05
0.00884617
5.16605e-05
7.78686e-05
0.000102153
0.000699412
5.36139e-05
8.69558e-05
8.5539e-05
8.70577e-05
0.0858397
8.70331e-05
0.0480555
8.24121e-05
5.4935e-05
0.0621249
8.62668e-05
0.0274586
6.10425e-05
0.000111311
0.0509154
5.87426e-05
0.0763718
5.98111e-05
9.07133e-05
0.0847929
0.0751191
6.08803e-05
0.00235247
7.26475e-05
7.92863e-05
5.72824e-05
6.42819e-05
0.00188335
0.000285336
0.00511661
9.60376e-05
8.49731e-05
6.6034e-05
0.00493434
0.0268893
0.00677958
0.0343091
5.96775e-05
0.0567387
0.0469067
8.8448e-05
0.03413
0.000104007
0.00658266
7.78776e-05
5.41178e-05
0.0297795
7.3739e-05
9.80236e-05
7.81053e-05
0.0434824
4.41814e-05
8.76521e-05
4.42043e-05
8.76894e-05
6.24143e-05
0.0140942
0.0700814
9.18442e-05
0.000167585
7.02478e-05
0.00101096
8.40682e-05
7.07995e-05
0.0434839
0.00834145
5.78889e-05
6.44836e-05
0.00249564
4.67812e-05
0.0341929
5.52817e-05
4.80927e-05
8.42218e-05
0.0683283
0.00439896
6.14386e-05
0.0106604
0.0765214
9.10252e-05
8.55634e-05
6.12082e-05
0.000103278
0.0644785
0.071137
0.0267198
0.0673203
8.16175e-05
0.000102713
8.39739e-05
0.0353066
0.0606437
6.85505e-05
5.68591e-05
0.000144319
7.89168e-05
8.89596e-05
9.5452e-05
0.00228203
0.0750086
8.78268e-05
8.57307e-05
9.81531e-05
0.00704518
8.21865e-05
5.14401e-05
0.0573168
7.20018e-05
0.000218096
6.42443e-05
6.74969e-05
8.50994e-05
0.00015677
6.72028e-05
7.26447e-05
0.000108497
0.0692192
0.0511017
6.74116e-05
0.0354359
8.54056e-05
5.95147e-05
0.000139195
7.01934e-05
8.10185e-05
0.000742798
7.65697e-05
8.45691e-05
9.73649e-05
0.000104223
8.66139e-05
6.51008e-05
7.38426e-05
0.00648322
8.55747e-05
7.97992e-05
8.70126e-05
0.0320721
8.80315e-05
8.69856e-05
9.05204e-05
8.696e-05
0.00655367
9.71915e-05
0.057344
0.000260938
0.000242531
0.0726732
8.79905e-05
0.000105094
6.22945e-05
0.0142279
7.12096e-05
0.0610308
0.0785163
0.00553856
7.29966e-05
5.33724e-05
5.78387e-05
0.0364842
0.0336632
0.0185794
5.83162e-05
0.000101564
6.27073e-05
0.0779187
0.0518748
0.0276138
5.38239e-05
0.0363399
0.062661
5.95235e-05
0.0774545
0.0365495
0.029063
8.83848e-05
9.49866e-05
0.000118797
4.96736e-05
0.000104036
0.00456749
0.00488842
9.14899e-05
0.013589
0.0454499
0.00018909
8.57622e-05
0.0507065
9.50974e-05
6.20532e-05
0.0738373
6.16533e-05
8.22334e-05
0.0583875
0.00285649
0.00495842
0.07577
0.0472083
8.92023e-05
0.000185568
5.90922e-05
5.79584e-05
0.03492
9.39625e-05
5.09983e-05
5.93713e-05
6.76156e-05
8.55393e-05
9.04758e-05
0.0200461
9.06123e-05
0.000111547
0.0523713
7.52712e-05
5.22745e-05
9.12359e-05
4.84386e-05
0.0740828
0.0180484
8.82134e-05
0.000109153
6.09073e-05
6.68725e-05
0.00493792
0.000213297
8.72999e-05
7.76585e-05
0.0535586
4.94618e-05
0.00208828
6.74697e-05
0.000465961
0.000120857
0.000167269
6.52226e-05
0.000205628
0.000201212
8.39721e-05
0.00526288
4.7321e-05
6.51327e-05
7.78378e-05
0.00149984
8.63955e-05
8.61309e-05
6.75531e-05
0.00321526
5.92229e-05
8.78727e-05
0.000763582
0.0857459
0.0735926
9.59472e-05
6.40169e-05
4.84319e-05
9.09183e-05
0.000319719
6.48791e-05
9.88305e-05
0.0281194
7.17452e-05
5.34917e-05
5.78663e-05
0.0432126
8.28922e-05
0.000190022
9.50331e-05
0.00017764
0.0469668
0.0775737
0.0470487
0.0781906