/*--------------------------------*- C++ -*----------------------------------*\
| =========                 |                                                 |
| \\      /  F ield         | OpenFOAM: The Open Source CFD Toolbox           |
|  \\    /   O peration     | Version:  v2012                                 |
|   \\  /    A nd           | Website:  www.openfoam.com                      |
|    \\/     M anipulation  |                                                 |
\*---------------------------------------------------------------------------*/
FoamFile
{
    version     2.0;
    format      ascii;
    class       surfaceScalarField;
    location    "450";
    object      phi;
}
// * * * * * * * * * * * * * * * * * * * * * * * * * * * * * * * * * * * * * //

dimensions      [0 3 -1 0 0 0 0];
oriented        oriented;


internalField   nonuniform List<scalar> 
27704
(
0.422093
-0.40963
-0.0124634
0.108855
-0.393817
0.284962
0.00928831
0.412805
-0.0166974
-0.0968026
0.1135
0.407684
-0.497409
0.0897254
-0.222902
0.0720374
0.150865
0.154758
-0.400982
0.246224
0.0896982
-0.469349
0.379651
0.114454
-0.32164
0.207186
0.0106364
-0.166312
0.165597
-0.426966
0.261369
0.530293
-0.136696
-0.393597
-0.0961559
0.50384
-0.141401
0.268077
-0.126675
0.119293
-0.0901014
-0.0291919
-0.528378
0.56417
-0.0357924
0.453557
-0.246124
-0.207434
0.397894
-0.243136
0.353861
-0.346382
-0.00747917
0.441036
-0.332181
0.352298
0.177994
0.0530445
0.0234711
-0.0765156
0.215759
-0.555207
0.339448
0.111366
-0.142401
0.0310343
-0.199735
0.210371
0.540527
-0.324768
-0.0954709
0.283039
-0.187568
-0.292674
0.284131
0.00854252
-0.133034
-0.194751
0.327785
-0.0241462
-0.0698884
0.0940346
0.462688
-0.423772
-0.0389155
0.354539
0.108148
0.195967
0.25759
-0.239256
0.0503496
0.188906
-0.515156
0.473023
0.0421333
-0.312024
0.218404
0.0936208
-0.119137
0.144648
-0.025511
0.204768
-0.348868
0.144099
0.413999
-0.248402
0.151981
-0.293382
0.489164
-0.321384
-0.16778
-0.28336
0.187567
0.0957932
0.0847201
-0.00390875
-0.0808113
0.258534
-0.27335
0.0148152
-0.138535
-0.227412
0.365947
-0.0654751
0.0202446
0.0452305
0.0894279
-0.533519
0.444091
-0.170273
0.13161
0.038663
-0.464116
0.323823
0.140292
0.0567406
-0.205965
0.149224
0.0956004
-0.112298
0.249163
-0.598654
0.34949
0.52114
-0.253586
-0.267555
0.396844
0.0923197
0.172722
-0.485104
0.312382
-0.0892074
0.128008
-0.0388008
-0.217777
0.294359
-0.0765818
-0.316587
-0.147529
-0.339109
-0.167139
0.506249
-0.00123148
-0.410782
0.412014
0.581302
-0.197323
-0.383979
0.112251
0.125226
0.18812
-0.102283
0.237839
-0.135557
0.0560145
-0.0801607
0.32861
-0.615123
0.286513
0.446952
-0.448183
0.243236
-0.191998
-0.051238
-0.388087
0.249553
0.0653165
-0.012272
0.122569
-0.21804
-0.0894256
-0.14983
0.158854
0.23904
0.297971
-0.172745
0.197998
-0.515421
0.317423
0.300148
-0.0416134
-0.255157
0.175556
0.0796011
-0.510983
-0.00417347
0.0136766
-0.0347519
0.0210753
-0.479658
0.508279
-0.0286215
0.487275
-0.289276
0.361575
-0.156806
0.281289
-0.322442
0.041153
0.333431
-0.56572
0.268249
0.297471
-0.0147273
-0.0744801
0.304804
-0.117519
-0.187285
-0.113858
0.307096
-0.193239
0.0338404
-0.513498
-0.301026
0.302727
-0.00170171
0.0249378
0.0943554
0.0993498
-0.0223291
-0.0770207
0.137082
-0.0257155
0.275597
-0.0601611
-0.215436
0.0932611
-0.361011
0.267749
0.267098
0.254042
-0.130904
-0.18112
-0.346856
0.197862
0.148994
0.58786
-0.25925
0.289725
0.291577
0.214775
-0.257053
0.0422777
-0.0882249
-0.440153
0.561145
-0.298129
-0.263016
0.39587
-0.306172
0.300216
-0.185763
0.104131
0.196085
0.295994
-0.0147053
-0.0313442
0.0825388
-0.0511947
0.0528159
0.0751923
-0.243531
0.402385
0.24606
-0.551145
0.305085
0.112827
0.0542391
-0.167066
-0.324068
0.124536
0.199532
-0.241403
-0.186896
0.428299
0.410867
-0.317605
-0.188605
-0.158252
0.0822483
0.160987
0.164073
-0.051246
0.162055
0.288605
-0.45066
0.116498
0.188306
-0.371033
0.548793
-0.17776
-0.00856504
-0.0992134
0.107778
-0.139541
-0.214042
0.353583
0.203116
-0.444519
-0.00641482
-0.376036
0.382451
0.300917
-0.218357
-0.0825599
-0.0856192
0.040349
0.0452702
0.173759
-0.425895
0.252136
0.192653
-0.325687
0.64766
-0.332993
-0.314666
-0.38372
0.257696
0.126024
0.103344
-0.205626
0.114697
-0.0952974
-0.0193994
0.111447
-0.0672579
-0.0441894
0.462677
-0.0413929
-0.421284
-0.0357788
-0.327695
0.0929982
0.234697
-0.0838985
0.0525543
-0.140036
-0.187659
0.221317
0.156531
-0.377848
-0.182411
0.0100795
0.172332
-0.488462
0.0919502
0.396511
0.392687
0.0920004
-0.484687
0.192383
0.180618
-0.373
-0.295297
0.0885986
0.206699
0.31675
-0.506415
0.189665
0.20618
0.153135
0.120219
-0.0715051
-0.0487137
-0.186384
0.290516
0.260294
-0.141311
-0.118982
0.250845
-0.191418
-0.0594272
0.289547
-0.275685
-0.0138621
-0.480627
-0.0078344
-0.137816
-0.253613
0.391429
-0.0363643
-0.106935
0.143299
0.296145
-0.109054
-0.18709
0.314016
-0.0537228
-0.343765
0.470886
-0.127121
0.229955
-0.5239
0.293945
0.453732
-0.61913
0.165399
0.222944
-0.235829
0.0128847
-0.303287
0.16075
0.142537
0.16106
-0.302372
-0.210249
0.286871
-0.0766216
0.149643
-0.0058098
-0.143833
-0.461599
0.463865
-0.00226637
-0.460277
0.505881
-0.045604
-0.0970254
0.274719
-0.177693
0.567311
-0.414131
-0.15318
-0.565546
0.365718
0.199828
-0.278167
0.160647
-0.460987
-0.00116197
0.462149
0.120393
0.267174
-0.387567
-0.266248
0.423244
-0.156996
0.185317
-0.128576
0.369732
0.121547
-0.491279
-0.0824938
0.315437
-0.232943
0.245153
0.0688639
-0.283409
0.212242
0.0107017
0.439192
-0.165035
-0.274158
0.362871
-0.141554
-0.269862
0.423302
-0.153439
0.0736511
-0.417416
0.372947
-0.172017
-0.20093
-0.441248
0.171386
0.457424
-0.284702
0.112336
-0.1487
-0.398777
-0.112151
0.510928
-0.546933
0.200651
0.346283
0.152928
0.0587985
-0.211727
0.224263
0.0265817
0.243233
0.0463146
0.273776
-0.14434
-0.129435
-0.288657
0.0969028
0.191754
-0.328809
0.449202
-0.245162
-0.193032
0.438194
0.17814
-0.0414565
0.191099
-0.15856
-0.0117131
-0.323154
-0.223779
0.249886
-0.538245
0.28836
0.657828
-0.204097
-0.381348
-0.167123
0.359506
-0.428495
-0.032492
0.0366828
0.0747646
0.0914412
-0.435331
0.34389
-0.220007
0.232953
-0.0129454
0.476712
-0.209614
0.0999047
-0.498682
0.117382
0.191046
-0.308427
-0.196038
0.494075
-0.298036
-0.114937
0.235802
-0.120865
-6.71216e-05
0.0747151
-0.074648
0.253944
-0.151223
-0.102721
0.554088
-0.196159
-0.35793
0.273159
-0.120231
0.285002
0.185883
0.399923
-0.310495
0.278952
-0.375543
0.0965903
-0.402328
0.476302
-0.0739735
-0.0120017
-0.0348769
-0.0845534
-0.16923
0.253784
-0.201431
-0.101856
0.0474615
-0.507738
0.194697
0.0597837
-0.254481
-0.204176
0.203062
0.00111425
0.475266
-0.475266
0.410484
-0.131531
0.587497
-0.386846
0.356039
-0.540985
0.184946
0.164362
-0.032752
0.271134
0.137064
-0.408198
0.265924
-0.184377
-0.081547
0.189135
0.250057
0.0971259
0.134348
-0.231474
0.190719
0.182228
0.119342
-0.485032
0.36569
0.335592
-0.570737
0.235144
0.293028
-0.0109301
-0.282098
-0.0485049
0.441279
-0.392774
0.0562697
-0.333633
0.277364
-0.0179811
0.0316577
0.273491
-0.0333859
-0.240105
-0.049604
-0.270969
0.320573
0.236033
0.037743
-0.0514343
0.514111
-0.049779
0.053387
-0.003608
0.103771
-0.305333
0.255729
-0.246439
0.042263
0.48373
-0.33628
-0.14745
-0.159382
0.040556
0.142617
-0.183173
-0.411027
-0.0505719
0.203446
0.273266
-0.597192
0.300293
0.2969
0.217184
0.1933
0.265025
0.302287
0.00237424
-0.121511
-0.32821
-0.145137
0.473347
-0.334205
-0.142447
0.476652
0.09616
0.218165
-0.314325
0.192812
-0.494446
0.301634
-0.0802032
0.2749
-0.569626
0.32482
0.244806
-0.0524064
-0.379321
0.431727
-0.469986
-0.0201668
0.490153
0.352655
0.0461621
-0.398817
0.331498
-0.122322
-0.209176
0.0844814
-0.050303
-0.0341784
-0.218599
0.103662
0.415996
-0.0633411
0.126067
-0.101129
-0.123674
0.0244602
-0.109004
-0.18392
0.292924
0.0571513
-0.193671
0.136519
0.221986
0.0710421
0.0368
0.0754512
-0.073353
-0.0301947
0.103548
-0.18563
0.269118
-0.0834881
-0.269801
0.361243
0.280799
0.27329
0.274015
0.373645
0.0671261
-0.0818534
0.216418
-0.297572
0.0811546
0.367477
-0.40887
-0.199675
-0.372304
0.365889
-0.522525
0.353773
0.168752
-0.0106597
0.242311
-0.35928
0.116969
0.467325
-0.222555
-0.24477
-0.0705306
0.0488513
0.0216793
-0.0580009
0.0082219
0.0350086
-0.252786
-0.0451085
-0.0414981
0.0866067
-0.0633772
-0.119034
-0.141939
0.426942
0.128938
0.281929
-0.177215
-0.0330343
0.129811
-0.214365
0.113429
0.218069
0.101403
-0.0488269
-0.0525765
-0.484652
0.532114
-0.389195
0.336789
0.0981861
-0.10716
0.00897434
-0.148481
0.0433535
-0.181851
0.138497
-0.247905
-0.27462
0.592703
-0.271366
-0.321337
0.235341
-0.57445
-0.197654
-0.233819
0.431473
-0.323447
0.229933
0.0935147
0.303224
0.18405
0.240942
-0.224402
-0.0165404
-0.105271
0.26877
-0.0944075
-0.446221
0.248567
0.0339985
-0.0156688
-0.0183296
-0.550036
0.239886
0.31015
-0.483184
-0.499222
0.418262
0.0809599
-0.0732338
0.0281253
-0.0145513
-0.234842
0.249394
0.241685
0.416143
-0.413142
0.146895
0.35706
-0.48777
0.13071
0.00888133
-0.211354
0.202473
-0.312791
0.318843
-0.00605216
-0.0692867
0.112752
-0.0434653
-0.395858
-0.0741283
0.179834
-0.319374
-0.438196
0.17114
0.267056
0.295154
0.297549
0.00292991
-0.487582
0.188384
-0.15443
-0.0339542
0.0529609
0.209913
-0.378444
0.168531
0.446429
0.000522979
0.148909
-0.25418
-0.292536
0.301119
-0.00858319
0.211613
0.016267
-0.22788
0.0477858
-0.144588
-0.119182
0.10895
0.0102324
-0.406649
0.137986
0.268663
0.0350194
-0.0765176
-0.304797
-0.0415854
0.200436
-0.10331
-0.215334
0.207291
0.00804265
0.145378
-0.473588
0.0589815
-0.294222
0.235241
0.170952
-0.130396
0.333444
-0.186861
-0.146583
0.261988
-0.27654
0.320335
-0.0252399
-0.295095
-0.172551
0.499059
-0.326509
0.488123
-0.15127
-0.336853
0.168306
-0.282164
0.0189981
-0.296786
0.277788
0.376335
-0.57817
0.201836
-0.147472
0.409287
-0.261815
-0.614771
0.301014
0.313757
-0.40362
-0.00716264
-0.273076
0.402013
-0.389013
-0.176707
0.406352
0.0400764
-0.47522
0.279182
-0.0210742
0.139268
-0.118194
-0.233299
-0.0160523
0.249351
0.0481875
-0.450516
-0.528594
0.237464
0.29113
0.128441
-0.258236
0.367137
-0.108901
-0.250479
0.0351452
0.388107
0.0182457
0.0565783
0.263757
-0.11367
0.0443832
-0.266831
-0.17939
0.345336
-0.286355
0.037169
0.0473124
0.354005
-0.297426
-0.305245
0.219834
0.0854102
-0.172556
0.382469
-0.131708
0.372422
-0.240714
0.208663
-0.199782
-0.387902
-0.11132
0.0580953
0.0546567
-0.338718
-0.202267
-0.480598
0.483528
-0.278027
-0.0272172
0.146835
0.289779
-0.48694
0.195464
0.291476
0.541336
-0.419589
-0.121747
-0.585231
0.238008
0.347223
-0.295477
-0.217612
0.51309
0.0370905
0.064313
0.00524106
0.275088
-0.280329
0.0642112
-0.303582
0.223379
0.138407
0.365702
-0.504109
-0.410222
-0.159404
-0.384635
0.252927
-0.275621
0.573926
-0.298304
0.174573
-0.441403
-0.103477
-0.0157056
-0.0157197
0.388564
-0.372845
-0.0931338
-0.210448
0.0877423
0.0116076
-0.300809
-0.043702
0.344511
-0.0770465
0.00369355
0.211824
-0.100821
-0.111004
0.0531842
0.246964
-0.298042
0.104632
0.19341
0.317567
-0.0901068
-0.22746
-0.118047
-0.165313
-0.220283
0.0425361
0.177747
0.0137381
-0.494336
-0.162611
-0.31272
0.0301137
0.282606
-0.199568
-0.419563
-0.169238
0.522459
-0.146125
0.602515
-0.257651
-0.344864
0.212816
-0.155664
-0.0208403
0.0624273
-0.041587
0.247421
-0.0358081
0.511107
-0.194357
-0.111847
-0.192041
0.303888
-0.293688
0.181842
0.0115155
0.0033452
-0.0148607
0.448953
-0.111421
-0.337531
-0.145926
0.421428
-0.275502
-0.288744
0.291281
-0.00253705
-0.257303
-0.149346
-0.198606
0.480719
-0.282113
0.318249
0.192857
0.465941
-0.0543505
-0.41159
0.375867
-0.133556
0.145665
0.00751143
-0.153176
-0.275506
0.381621
-0.106114
0.316879
0.166851
0.233819
0.0837476
0.00155901
-0.0957125
0.0941535
-0.0957274
0.167765
-0.121347
0.358038
-0.23669
-0.184772
-0.101133
0.285905
-0.0367679
-0.289892
0.10512
-0.134154
0.503886
-0.169933
0.305212
-0.320932
-0.15456
0.425694
0.498284
-0.234233
-0.264051
-0.196907
0.191097
-0.104675
0.209922
0.211096
-0.421018
-0.0219236
0.0160609
0.00586275
0.325029
0.123924
-0.308096
0.225602
0.232343
-0.0898774
-0.142466
-0.263569
0.398791
-0.135221
-0.0808042
0.546745
0.255463
-0.509921
0.254458
-0.224028
0.397787
0.123207
0.175709
-0.298915
-0.168888
-0.197955
0.366843
0.155993
-0.490198
0.119995
0.115807
0.10754
0.311612
-0.108898
-0.202715
0.123696
-0.127659
0.00396321
-0.0728588
-0.306158
0.379017
-0.109016
0.0683274
0.122072
-0.1904
-0.0569961
-0.139911
-0.189099
0.0087127
0.180386
-0.00844942
-0.0263025
-0.17873
0.295228
-0.307467
-0.384073
0.467727
-0.0836536
0.154592
-0.0770693
-0.077523
-0.442086
0.161017
0.281069
-0.508279
-0.130133
0.638412
0.0369266
-0.0696486
0.032722
0.446253
-0.0346796
-0.411573
-0.353405
0.184518
-0.328705
0.0399614
-0.499448
0.2364
0.263048
0.174258
-0.346725
0.172467
-0.252331
0.482286
0.334185
-0.159928
0.0508297
-0.306158
0.255329
0.479062
-0.481623
0.00256129
-0.355335
-0.140781
0.496115
-0.304169
-0.0550251
0.359194
0.0462197
0.265393
-0.0810412
0.268608
-0.321001
0.128571
0.19243
0.427196
-0.165208
-0.306044
0.332562
0.255299
0.283952
-0.264954
0.251612
0.335885
0.47372
-0.101298
0.0198417
0.313589
-0.489617
0.333343
0.156274
0.397385
-0.126234
-0.271151
0.0293137
0.412499
-0.441812
0.0064697
0.0782504
0.0705074
-0.0612424
-0.262826
-0.0167154
-0.256634
0.469998
-0.117699
0.0869465
0.108501
-0.195447
0.101457
0.372263
0.550431
-0.367879
-0.182552
0.180388
0.109589
-0.289976
-0.336321
0.488139
-0.151818
-0.0529921
0.00874644
0.0442457
0.377413
0.173018
-0.288486
0.00814017
0.280346
0.0464225
-0.0954757
0.0490531
0.104316
-0.0217773
-0.0011958
-0.24607
0.247266
-0.299436
0.193086
0.10635
-0.415287
-0.00956269
0.424849
0.0591519
-0.0818086
0.0226566
0.49571
-0.177461
-0.374536
-0.0407506
0.129096
-0.0762796
0.176316
-0.28532
-0.18084
0.573527
0.388559
0.0354106
-0.42397
0.111428
0.00750675
-0.36342
0.126717
0.236703
-0.220292
0.0185359
0.201756
0.511252
-0.156713
-0.0401586
0.075178
-0.425567
0.310459
0.115107
0.123101
9.89376e-05
-0.1232
-0.319599
0.224441
0.0951575
0.306251
-0.350765
0.0445141
0.156522
0.270674
0.0703937
0.163519
-0.233913
0.423832
-0.314467
-0.109306
-0.3005
-0.109129
-0.48548
0.31293
0.215898
-0.128952
0.185813
0.211572
0.306014
-0.511964
0.205951
0.48578
-0.347373
-0.419229
0.608734
-0.189504
-0.0853291
-0.340237
-0.180552
-0.224145
0.404697
0.0981346
0.134208
0.386974
-0.169791
0.00521784
-0.0987948
0.0935769
-0.145629
0.213956
-0.292072
-0.257964
0.141897
-0.405467
-0.0129125
0.024428
-0.153597
-0.028254
0.116132
0.137812
0.113165
0.00398018
-0.232324
0.236262
-0.00393864
-0.0192994
-0.265533
-0.233915
0.141751
0.280767
-0.422518
-0.226957
-0.00866343
0.23562
-0.335191
-0.16277
0.497961
0.267416
-0.174432
0.297639
0.0204638
0.109874
-0.378512
0.268638
-0.383479
0.0793106
-0.246731
0.435866
-0.00578916
-0.0161345
-0.474543
0.488282
-0.228661
0.553074
-0.324414
0.18287
-0.0457181
0.402778
-0.0439114
0.0810019
-0.00140969
-0.045805
0.0472147
0.113307
0.35669
0.264666
0.166792
-0.431458
0.179095
0.266887
-0.445982
0.0891455
-0.0299936
0.317126
0.155098
-0.472223
0.0182643
-0.526543
-0.00573619
0.413702
-0.407966
-0.393223
0.0298032
0.0299795
-0.0738909
0.340217
0.223953
-0.396391
0.140672
0.255719
0.162591
0.31697
-0.479561
-0.0610776
0.0402373
-0.358408
0.45892
-0.100512
0.290159
0.222985
-0.513144
0.493879
-0.323221
-0.170658
0.239209
0.0363888
-0.535583
0.240918
0.294665
-0.319969
0.35901
-0.232294
-0.219052
-0.0762453
-0.135503
-0.248216
0.0480831
-0.0111565
-0.496398
0.0218543
0.276061
-0.441096
-0.0875042
0.092722
0.200379
0.113436
-0.313815
0.416452
-0.274701
-0.312275
0.522033
-0.209758
0.207093
-0.154613
-0.0524796
0.107937
-0.216835
-0.474695
0.106815
0.164545
-0.543866
0.146939
0.0278607
-0.1748
-0.404579
0.239099
-0.266611
0.027512
0.0853731
-0.174799
0.0756093
-0.171337
-0.0549096
0.00191742
0.0111865
0.272766
0.129203
-0.0177744
0.0440981
-0.352587
0.308489
0.0720602
0.148505
-0.0757738
-0.0727311
-0.447654
0.0899544
0.357699
-0.229392
0.117917
0.292842
-0.20617
0.00452339
-0.452177
0.0794311
0.217127
-0.296559
0.353508
-0.243634
0.0740336
0.0302826
-0.0228021
-0.334287
0.357089
-0.395553
0.249627
-0.150746
-0.0423816
0.193128
0.155194
-0.46747
0.199032
0.108064
0.299851
0.195858
0.293091
0.247494
-0.342116
0.0946216
0.45138
-0.288789
-0.184874
0.034128
-0.314303
0.335492
0.0179038
0.212924
-0.230827
0.306842
0.0177514
-0.324594
-0.0719304
-0.00117257
0.073103
-0.168006
-0.180862
-0.352653
0.106274
0.246379
-0.06918
0.144789
0.131045
0.526139
-0.338336
-0.187803
-0.259607
-0.543459
0.167423
-0.100176
-0.19926
0.237475
-0.219572
-0.199066
0.478989
-0.279923
0.306151
0.192908
-0.0666711
0.222424
0.316988
-0.507419
0.190432
0.314664
-0.258394
-0.113229
0.198602
0.283764
0.159114
-0.442878
0.461827
-0.255414
-0.206413
0.0578039
-0.292695
0.234891
0.0305306
-0.299499
0.268968
0.268904
-0.160967
0.0514459
0.0776496
-0.0785116
0.326006
-0.153426
-0.242966
-0.278548
0.395599
-0.117052
0.218277
-0.0208088
-0.197468
0.00127666
-0.00628704
0.00501038
0.155321
0.231821
-0.387141
0.110512
-0.0123256
0.282131
0.179696
-0.157207
-0.00856809
0.165775
-0.048506
0.355348
0.467267
-0.131627
0.144383
0.272069
0.143524
0.252421
-0.395944
-0.021054
0.0528861
-0.0670646
0.0141786
0.264769
-0.234239
0.267715
-0.147721
-0.124122
-0.0549643
-0.141225
0.196189
0.373537
-0.533805
0.160269
0.136647
-0.329369
0.192722
0.351009
-0.172603
-0.178406
0.2791
0.030595
-0.309695
0.151441
-0.270751
0.119309
0.10103
-0.155994
-0.229134
0.501951
-0.272817
0.333428
-0.253997
-0.180789
0.358317
-0.22167
-0.392607
0.170052
-0.0726388
0.0485672
0.0240716
-0.102892
0.320019
0.231939
-0.0316852
0.0221874
0.0094978
-0.373192
-0.212038
0.0283579
0.0511076
-0.0794655
-0.311856
-0.186554
0.0478308
0.180298
-0.228129
0.519993
-0.353898
-0.166095
-0.265254
0.190383
-0.524153
0.33377
-0.425256
-0.0494383
-0.274206
-0.174594
0.448799
-0.105024
0.251964
0.136119
-0.0399342
-0.0961843
-0.252344
-0.143823
0.396167
-0.185352
-0.190191
-0.174443
0.226093
-0.0516501
0.342343
-0.322502
-0.269449
0.413832
-0.265647
0.241946
0.0237008
0.465623
-0.402159
0.149816
-0.0466529
0.222209
0.306871
0.00856577
-0.025563
-0.163536
-0.0773709
-0.159242
0.236613
0.0612656
0.179676
-0.238071
0.529895
-0.328285
-0.20161
0.214683
-0.372125
0.157442
-0.282209
-0.0733799
0.0694711
-0.567669
0.279813
0.287856
0.261113
-0.044695
-0.0248863
-0.0725374
0.0974237
-0.275302
0.418826
0.341527
-0.131605
0.23492
-0.60439
0.36947
-0.0525169
-0.248509
-0.128009
0.486924
-0.294111
0.216145
0.101769
-0.317914
-0.000167733
-0.0191849
0.0193526
0.299978
-0.242174
0.128158
-0.205529
0.148547
0.0585451
0.23369
0.303206
-0.328051
0.0248457
-0.0896282
-0.532257
0.223005
0.309252
-0.257701
-0.247237
0.504939
0.290806
-0.194646
0.0883658
-0.0983645
0.00999868
-0.034024
-0.359199
0.477786
-0.177935
-0.452928
0.0945205
-0.254547
-0.000571036
0.255118
0.38277
-0.168087
0.0136713
0.328672
0.0202153
0.215214
-0.23543
-0.358495
0.0799473
0.224382
-0.176551
0.219531
-0.322423
-0.156934
0.410815
-0.253881
-0.376937
-0.107827
0.484763
-0.574709
0.346049
0.355905
-0.539786
0.183881
-0.214258
-0.0344733
0.248731
-0.428177
-0.0182616
0.446439
-0.058108
0.0864659
0.367882
-0.164349
-0.203533
0.178108
0.172901
-0.218639
-0.245661
0.0903913
0.119976
-0.210368
-0.394714
0.120509
-0.303513
0.468058
-0.030827
0.0977959
-0.0669689
-0.0601831
-0.196869
0.06199
-0.126269
0.064279
-0.0689035
0.0743487
-0.00544528
0.489745
-0.183732
-0.197769
0.486375
-0.24493
-0.112908
0.357839
-0.24137
0.19796
0.0434103
0.0205256
0.118742
-0.106805
0.0386503
0.0681551
0.252661
-0.239661
-0.0130003
0.136152
-0.117426
0.206025
-0.0177723
0.242036
-0.216209
-0.105431
-0.365939
0.180588
0.183771
0.303153
0.550424
-0.370806
-0.179618
-0.0634937
-0.16883
-0.16436
-0.284139
0.448498
0.0423981
-0.00792662
-0.0344715
-0.324974
0.202652
0.114691
0.301091
-0.415782
0.0119516
-0.31276
-0.20047
0.174907
0.239814
-0.000714614
-0.0694015
0.177227
-0.107826
-0.219162
-0.359009
0.0715561
-0.01867
-0.142265
0.388325
0.0822042
-0.00886849
-0.0733357
0.162293
-0.438762
0.276469
0.259326
-0.0903917
-0.168934
0.225213
-0.129865
-0.0953475
0.36849
0.172846
-0.11976
0.419039
-0.299279
0.352367
-0.400871
-0.280336
-0.16297
0.443306
0.0764709
-0.105617
0.0291459
0.25884
-0.040436
-0.132883
-0.293921
0.130377
0.163544
0.0763951
-0.460468
-0.394361
-0.204293
-0.317132
0.264616
0.164494
0.071711
-0.236205
0.271654
-0.260468
0.206433
-0.296287
0.0898541
0.0932613
0.0172503
0.0488593
-0.281101
0.232241
0.0871356
-0.0855766
-0.408529
0.261058
-0.0157769
-0.20258
-0.231025
-0.339712
-0.297112
0.0561649
0.240947
0.0823321
-0.215591
0.133259
0.331735
0.19816
-0.130791
0.442102
-0.311311
0.369122
-0.254431
0.53468
-0.178775
-0.0304403
0.031717
-0.189031
0.285934
-0.0779146
0.242409
-0.427072
0.130648
0.296424
-0.54247
0.360983
0.181487
0.164122
0.20376
0.154003
-0.444396
0.290393
-0.408023
0.0272328
0.38079
0.272361
-0.427764
0.155403
0.320589
-0.28611
0.413279
-0.127169
0.486326
-0.298067
-0.188259
-0.149435
0.399321
0.00722527
-0.0290936
0.0218683
0.223183
0.0294789
0.0376589
-0.444858
-0.0402464
-0.299229
0.154888
-0.165057
-0.319077
0.478086
-0.324082
0.57345
-0.33853
0.316392
0.169934
0.0919723
-0.0155013
0.20541
-0.00234829
0.300049
-0.336417
0.036368
0.0423968
0.0229196
-0.157934
-0.272489
-0.186467
0.458828
-0.0773233
0.00841982
-0.366526
0.524451
-0.157924
-0.231121
0.236362
-0.163433
-0.161541
-0.0125151
-0.0243984
0.0369136
-0.291572
0.475343
-0.257757
0.0244581
-0.190287
0.230081
-0.0397945
-0.0937269
0.351423
0.0840981
0.267936
-0.352034
-0.246282
0.0128259
0.0211725
-0.0517388
-0.423527
-0.148494
0.521149
-0.389426
-0.131723
0.285645
0.0170824
-0.0904796
0.0611195
0.0293601
0.157699
-0.450861
0.293161
-0.011141
-0.144948
0.235339
-0.454468
0.366243
-0.415303
0.295543
-0.37193
-0.156664
0.316315
-0.10017
-0.221128
0.551805
-0.330676
-0.512054
0.0713875
0.440667
-0.0817227
-0.430332
-0.200101
-0.263674
0.463775
0.268347
0.145057
-0.413404
-0.38212
0.0960104
0.223989
-0.475397
0.283298
0.192099
-0.0161378
-0.0719243
0.133914
0.0576642
-0.0825505
-0.257127
-0.347263
-0.524626
0.313179
0.211447
0.427291
-0.335291
0.021564
-0.0554435
-0.109632
-0.207501
-0.0707398
0.00908046
0.0616594
-0.0130006
-0.233184
0.533807
-0.300623
-0.0845697
-0.237872
-0.080714
0.198631
0.0451038
0.0910147
0.531678
-0.321899
-0.20978
0.142301
0.299801
-0.278222
0.27307
0.00515228
-0.174966
-0.107205
0.282171
-0.0822529
0.0186647
0.0635881
0.271194
-0.435876
0.164682
-0.376785
-0.0513924
0.523078
-0.341609
-0.181469
0.0662327
0.122151
0.165437
-0.166729
0.456888
0.177613
0.10435
-0.281963
0.175988
0.311832
-0.48782
-0.326081
-0.171329
-0.226502
0.213833
0.0126693
0.497284
-0.310386
-0.186898
-0.318453
0.102244
0.0165354
0.0556667
0.106541
0.246967
-0.0999297
0.0961202
0.00380954
-0.290736
0.393833
-0.103097
-0.342692
0.372005
-0.449249
0.512775
-0.0635264
-0.0219705
-0.270565
-0.0923868
-0.215709
-0.0190328
-0.0632201
-0.0168397
-0.120489
0.137329
-0.327705
0.413973
-0.0862687
0.442271
-0.29997
0.289207
0.193987
-0.111655
-0.21174
0.0372971
-0.0153385
0.324
0.229074
-0.156713
0.424962
-0.0993701
0.2004
-0.345254
0.0933496
0.251904
0.394701
-0.0077264
0.15399
0.162325
-0.0561216
-0.0342574
0.0903791
-0.0771408
-0.0143401
-0.0809574
0.301752
0.0500489
-0.351801
0.172534
-0.270018
0.0635862
0.206432
0.495056
-0.307604
-0.187452
-0.343007
0.258584
0.0844225
-0.23653
-0.0990096
0.0865466
0.324601
-0.411148
0.383354
-0.303422
-0.134774
0.123707
-0.500644
-0.246046
-0.0832278
0.128332
0.0342875
-0.0270623
0.0791034
-0.235488
0.448277
-0.212789
-0.233772
-0.366443
0.247561
0.118882
-0.406809
-0.0424401
0.423685
-0.504489
-0.190392
0.286765
-0.312004
-0.424431
-0.319336
0.452225
-0.132888
0.0283545
0.0140436
0.00241832
0.300201
-0.470007
0.169807
0.244782
-0.520403
-0.166715
0.398938
-0.232223
0.170672
0.175514
-0.346186
0.341517
-0.516543
0.175026
0.310358
0.0843432
0.0764759
-0.145656
0.0175033
0.0216224
-0.0391257
0.107918
-0.188632
0.375734
0.155155
-0.530889
-0.342376
0.269517
-0.00978394
0.0521808
0.180539
0.333572
0.32034
0.174716
-0.0733198
0.0155637
0.057756
-0.221332
0.153673
0.067659
0.285472
0.264951
0.487411
-0.312817
-0.174593
-0.109934
0.285503
-0.17557
0.329477
-0.029428
0.144728
0.121196
0.295959
0.0395824
-0.335541
-0.216787
0.172835
0.0811687
-0.254003
0.188972
-0.266671
-0.148489
-0.363476
0.00047306
0.0927883
-0.0366917
0.00791717
-0.122939
0.251096
0.318857
-0.234759
-0.0731595
-0.0173201
0.290286
0.0637184
-0.146285
0.136653
0.00963257
0.0129323
0.064303
-0.0772353
-0.0960558
-0.355436
-0.219274
-0.0964519
0.274065
-0.0247556
0.0463197
-0.0948665
-0.19424
-0.0757785
0.11967
0.149448
-0.351963
-0.264996
0.195555
-0.11084
-0.179713
0.290553
-0.0628978
0.139374
0.206595
0.126904
-0.333499
-0.0281618
0.260776
-0.409009
0.148233
-0.371705
0.0470254
0.32468
-0.182256
0.030001
-0.214378
-0.269626
0.0553682
0.221884
-0.0154507
0.264708
-0.36073
0.0960217
-0.0253996
-0.115404
0.140804
-0.355879
0.0910295
0.223695
-0.314724
-0.0223684
-0.199608
0.0483846
0.318513
-0.164522
0.310561
-0.314345
-0.175272
0.0359964
-0.11177
0.428329
-0.266036
-0.385847
0.128732
0.257115
0.0739942
0.244863
0.142335
-0.475329
-0.313751
-0.173293
0.487044
-0.0298946
-0.341811
0.289763
0.188023
-0.463161
0.211376
0.286908
-0.324154
0.0114339
0.253941
0.243343
-0.413866
0.141417
0.272449
0.447201
-0.0937047
0.28475
0.176101
0.029309
0.0517118
0.173501
0.149392
0.0578523
0.0610041
0.0935882
0.0570642
-0.0571313
0.00713127
0.439121
0.175093
0.296984
-0.472077
-0.0233966
-0.00569694
0.20552
0.298833
-0.504353
-0.294893
0.00640719
0.0023006
0.269354
-0.262768
-0.148687
0.411455
0.529675
-0.188158
-0.340425
0.242661
0.0977644
0.351233
-0.0865248
0.211698
0.0826607
-0.0682177
0.158881
-0.0906633
0.352322
-0.417142
0.260208
-0.152139
0.35567
-0.203531
-0.163271
0.00884146
-0.159462
0.241638
-0.0821765
0.0160318
-0.0317007
0.0864908
-0.0400683
0.266769
-0.465376
0.0994949
-0.435816
-0.0297833
-0.00190194
-0.0910687
0.36985
0.181954
-0.293223
0.498743
0.32499
-0.0304944
-0.0649813
0.35839
-0.284395
0.316878
0.407528
-0.228433
0.0467858
-0.0194633
-0.0273225
0.35575
0.166709
0.00886668
0.414818
-0.00239771
0.406184
-0.403786
0.0522204
-0.211682
-0.0547137
0.058337
-0.00362322
-0.32122
0.333171
-0.294468
0.108203
0.186264
-0.0121695
0.400728
-0.284356
0.506704
-0.222348
-0.0980302
0.0672032
-0.234881
0.243479
-0.203234
-0.0402443
-0.343925
-0.145608
0.489533
-0.25282
-0.0656335
0.0319277
-0.115156
-0.198639
0.108248
0.258684
-0.149619
-0.109065
0.166374
0.462234
-0.0935419
0.252073
0.151467
-0.40354
0.25482
-0.256016
-0.0209642
0.177117
-0.156153
-0.442494
-0.0578075
0.0559476
-0.351425
-0.265089
0.475545
-0.210456
0.279684
0.049793
0.599073
-0.230103
-0.36897
0.346127
0.252946
0.00557153
-0.0180867
0.288452
-0.0016943
0.0915054
-0.0564608
-0.0350446
-0.0952728
-0.193101
0.482864
0.298114
-0.0494793
-0.248634
-0.020772
0.323978
0.294755
-0.163379
-0.131376
0.307626
0.218513
-0.101937
-0.429985
0.0453499
-0.183498
0.28813
0.442864
-0.159099
-0.0635609
-0.17781
0.280237
-0.14986
-0.473227
0.208138
0.455697
-0.179047
-0.27665
-0.536305
0.19688
0.339425
-0.211851
0.257127
-0.0452756
-0.545244
0.215712
0.329532
0.0153354
0.138511
0.0743045
-0.0938082
0.317503
-0.141383
-0.0309071
-0.386279
0.417186
0.462649
-0.17046
-0.292189
0.262961
0.490803
-0.378259
0.123501
0.254757
-0.453904
0.147746
0.129861
-0.441717
-0.36336
-0.0304568
0.172792
-0.507983
0.543485
-0.256886
-0.286599
0.0703452
-0.431356
0.086938
-0.331868
-0.222446
0.0144118
0.208034
-0.284233
0.188707
0.0955257
-0.162917
0.296873
-0.272479
-0.237442
0.273406
0.135881
-0.156366
0.447635
-0.288521
-0.131102
0.506836
0.0427687
-0.0997513
0.0569827
-0.0610722
-0.368913
0.137134
0.0481827
-0.0179033
0.0523079
-0.357641
-0.217826
0.583528
0.0263609
0.301901
0.160747
0.27876
0.0193538
0.528521
-0.208337
-0.320184
-0.0472097
0.104874
-0.0432508
0.0488856
-0.00563483
-0.0885929
0.205367
0.0663934
-0.457578
0.391184
-0.41545
-0.0261958
0.441646
0.320748
0.167376
0.209684
0.333801
0.182524
0.0555796
-0.238104
-0.293654
-0.176075
-0.080137
0.256212
-0.0354697
0.482335
-0.313442
-0.168893
-0.0176062
-0.0898693
0.301568
0.216357
0.017333
-0.290084
-0.123782
-0.28957
-0.274167
-0.213603
-0.138893
0.291422
-0.152529
-0.159245
0.409925
-0.25068
0.156696
-0.422094
0.0066443
-0.139967
0.345757
-0.351493
0.184484
-0.431214
0.277099
0.228733
-0.387067
0.158334
0.279226
-0.0924593
-0.186766
-0.0557035
0.357456
-0.0631881
-0.216538
0.279726
0.342352
-0.524685
0.182333
0.302223
-0.399463
0.0972399
0.133328
-0.0818821
-0.0581259
0.0672063
-0.362024
0.168715
0.193309
-0.00851954
0.0832346
0.421665
-0.169696
-0.251969
0.291908
-0.319208
0.068299
0.143525
-0.332099
0.309297
-0.427801
-0.0572314
0.402304
-0.100081
0.451644
-0.151443
-0.010294
-0.216208
0.384371
-0.132299
-0.536155
0.339938
0.196218
-0.549363
-0.266453
-0.111806
-0.308726
-0.135669
0.116532
0.0225836
-0.139115
0.16331
-0.507235
0.246117
0.190641
0.303238
-0.216072
-0.0302614
0.309638
-0.279376
-0.165603
0.263178
0.00601163
-0.26919
0.262486
0.0145011
-0.276987
0.344062
-0.528755
0.184693
-0.39086
-0.403538
0.119182
-0.224898
0.0346118
-0.328177
0.133426
-0.13951
0.419668
-0.280158
0.123647
0.0316313
-0.155278
0.239692
-0.015793
0.409166
0.344465
-0.418815
0.0743502
0.0416934
-0.0431031
-0.114016
-0.0769126
0.190928
0.0735947
0.193017
-0.266611
-0.12194
-0.128539
-0.217996
0.504798
-0.286802
0.0181618
-0.367325
-0.0655855
0.43291
-0.162818
0.427484
0.440845
-0.274053
0.330902
0.147183
-0.298396
0.235208
-0.111128
0.305797
-0.19467
0.266534
-0.168645
-0.097889
-0.101544
-0.227825
0.323901
0.0784032
-0.13955
-0.158022
-0.442734
0.300287
0.179972
0.275725
0.433706
-0.109806
0.25226
-0.380017
0.127757
-0.295048
-0.128414
-0.230866
-0.382406
0.0481191
0.151367
0.0589122
-0.339536
0.280624
0.238723
-0.0966341
0.173076
-0.0764418
-0.0251096
0.148756
-0.25166
0.184696
0.0669645
-0.301504
0.313502
0.127534
-0.297948
-0.142466
0.371199
-0.433758
-0.0185091
0.452267
0.456728
-0.276756
-0.532106
0.105672
0.426435
0.0489458
0.153085
-0.415853
0.519269
-0.176916
-0.466803
0.289155
0.177649
-0.451397
-0.247434
0.304888
-0.286884
-0.157606
0.44449
0.0491422
-0.463273
-0.261517
0.393121
-0.131604