/*--------------------------------*- C++ -*----------------------------------*\
| =========                 |                                                 |
| \\      /  F ield         | OpenFOAM: The Open Source CFD Toolbox           |
|  \\    /   O peration     | Version:  v2012                                 |
|   \\  /    A nd           | Website:  www.openfoam.com                      |
|    \\/     M anipulation  |                                                 |
\*---------------------------------------------------------------------------*/
FoamFile
{
    version     2.0;
    format      ascii;
    class       surfaceScalarField;
    location    "450";
    object      phi_0;
}
// * * * * * * * * * * * * * * * * * * * * * * * * * * * * * * * * * * * * * //

dimensions      [0 3 -1 0 0 0 0];
oriented        oriented;


internalField   nonuniform List<scalar> 
27704
(
0.421252
-0.410524
-0.0107274
0.108857
-0.393818
0.284961
0.00754849
0.413703
-0.0165883
-0.0970382
0.113626
0.407684
-0.49741
0.0897253
-0.222533
0.0738325
0.1487
0.154757
-0.400982
0.246225
0.0896981
-0.46935
0.379652
0.113869
-0.321343
0.207474
0.010538
-0.166395
0.165602
-0.426969
0.261367
0.530295
-0.136697
-0.393599
-0.0961559
0.50384
-0.141414
0.268083
-0.126669
0.119859
-0.0909818
-0.0288771
-0.528378
0.564171
-0.0357924
0.453582
-0.246168
-0.207414
0.397894
-0.243137
0.353896
-0.346669
-0.00722778
0.441037
-0.33218
0.352301
0.177995
0.0527847
0.0234163
-0.076201
0.21536
-0.555039
0.339679
0.111375
-0.142583
0.0312083
-0.199939
0.210477
0.540356
-0.324996
-0.0948158
0.282821
-0.188006
-0.292594
0.284907
0.00768726
-0.133051
-0.194736
0.327787
-0.0239151
-0.0698547
0.0937698
0.462756
-0.423831
-0.0389247
0.354654
0.108102
0.195939
0.257643
-0.23934
0.0503592
0.188981
-0.515158
0.473024
0.0421336
-0.31191
0.218407
0.0935035
-0.119321
0.145214
-0.0258931
0.204901
-0.349187
0.144286
0.414001
-0.248399
0.151974
-0.293388
0.489447
-0.321871
-0.167576
-0.283379
0.187586
0.0957927
0.084891
-0.0041839
-0.0807071
0.25864
-0.273998
0.015358
-0.138594
-0.227356
0.36595
-0.0653822
0.0203236
0.0450586
0.0890342
-0.533238
0.444203
-0.170328
0.131616
0.0387122
-0.464117
0.323823
0.140293
0.0567569
-0.20626
0.149503
0.0958159
-0.112404
0.248772
-0.598559
0.349787
0.521135
-0.253574
-0.267562
0.39743
0.0920168
0.172734
-0.485108
0.312374
-0.0893548
0.12846
-0.039105
-0.216608
0.295076
-0.0784683
-0.316587
-0.14753
-0.33911
-0.167148
0.506257
-0.00139672
-0.410485
0.411882
0.581306
-0.197326
-0.38398
0.112182
0.125228
0.18812
-0.099667
0.237403
-0.137736
0.0561757
-0.0800909
0.328033
-0.615419
0.287386
0.446535
-0.447932
0.243272
-0.192026
-0.0512454
-0.388091
0.249497
0.0651618
-0.0123771
0.123021
-0.217837
-0.0894451
-0.149895
0.158854
0.23904
0.297973
-0.172745
0.197952
-0.515416
0.317464
0.300566
-0.0419258
-0.254993
0.176392
0.0786007
-0.510985
-0.0041734
0.013449
-0.0346609
0.0212118
-0.479682
0.508306
-0.0286236
0.487264
-0.289312
0.361907
-0.157006
0.281517
-0.321502
0.0399854
0.33379
-0.565721
0.268249
0.297472
-0.0145219
-0.0748329
0.304731
-0.11747
-0.187261
-0.11385
0.307015
-0.193165
0.0338396
-0.513522
-0.302251
0.302798
-0.000547587
0.0246467
0.0952123
0.0992134
-0.0220998
-0.0771136
0.137221
-0.0258468
0.275402
-0.0602654
-0.215137
0.0932408
-0.360996
0.267755
0.267109
0.254026
-0.130767
-0.181143
-0.347198
0.198254
0.148944
0.588054
-0.260021
0.289723
0.291583
0.21401
-0.256005
0.0419958
-0.0882252
-0.440153
0.562006
-0.298628
-0.263378
0.39587
-0.306172
0.29993
-0.186061
0.103499
0.196431
0.294452
-0.0129346
-0.0317213
0.0830994
-0.0513781
0.0532161
0.0752437
-0.243532
0.402385
0.246061
-0.551147
0.305086
0.112827
0.0542889
-0.167116
-0.323969
0.124547
0.199422
-0.241402
-0.186897
0.4283
0.410854
-0.317613
-0.189096
-0.158102
0.0822559
0.161016
0.164118
-0.0512909
0.162055
0.288606
-0.45066
0.116463
0.188269
-0.371039
0.548793
-0.177754
-0.00846207
-0.0993676
0.10783
-0.13853
-0.215428
0.353957
0.203117
-0.44452
-0.00641457
-0.376036
0.382451
0.300937
-0.218375
-0.0825614
-0.083851
0.0393466
0.0445044
0.173738
-0.425891
0.252153
0.192633
-0.325684
0.647657
-0.332991
-0.314666
-0.383721
0.2577
0.126021
0.105998
-0.205665
0.114571
-0.095282
-0.0192893
0.111349
-0.0673451
-0.0440043
0.462678
-0.0413927
-0.421286
-0.0356121
-0.327549
0.0921087
0.23544
-0.0845375
0.0528162
-0.139308
-0.188241
0.221242
0.156624
-0.377867
-0.182431
0.0100417
0.172389
-0.488463
0.0919507
0.396512
0.392692
0.0919978
-0.48469
0.192403
0.180618
-0.373021
-0.295147
0.0881388
0.207008
0.316752
-0.506414
0.189662
0.206186
0.15314
0.12012
-0.0714336
-0.048686
-0.186731
0.29023
0.260298
-0.141318
-0.11898
0.2508
-0.192187
-0.0586135
0.289431
-0.276365
-0.0130662
-0.480628
-0.0078345
-0.137816
-0.253613
0.391429
-0.036482
-0.106949
0.143431
0.296312
-0.108717
-0.187595
0.314018
-0.0537194
-0.343758
0.470903
-0.127145
0.229956
-0.523902
0.293946
0.454113
-0.61876
0.164647
0.222329
-0.234495
0.0121663
-0.302997
0.159627
0.14337
0.161058
-0.302376
-0.209562
0.286827
-0.0772645
0.149922
-0.00558051
-0.144342
-0.4616
0.463866
-0.00226661
-0.460237
0.505685
-0.0454487
-0.0963799
0.274411
-0.178031
0.567312
-0.414131
-0.153181
-0.565547
0.365723
0.199824
-0.2781
0.16063
-0.460988
-0.00116185
0.46215
0.120393
0.267178
-0.38757
-0.266254
0.423272
-0.157019
0.185549
-0.128792
0.369753
0.121651
-0.491403
-0.0821883
0.315384
-0.233196
0.245158
0.0688597
-0.283111
0.210599
0.0117297
0.439194
-0.165033
-0.274161
0.362825
-0.141582
-0.269838
0.423288
-0.153451
0.0736702
-0.417428
0.372965
-0.172028
-0.200937
-0.441236
0.171399
0.457431
-0.284697
0.112359
-0.148841
-0.398783
-0.112144
0.510927
-0.54693
0.200652
0.346277
0.152925
0.058826
-0.211751
0.225416
0.0253846
0.243766
0.0456652
0.273702
-0.144321
-0.129381
-0.288567
0.0970074
0.191559
-0.328812
0.449205
-0.245135
-0.193062
0.438198
0.178153
-0.0418143
0.191736
-0.15857
-0.011758
-0.323151
-0.223779
0.249886
-0.538246
0.28836
0.657303
-0.20319
-0.381348
-0.16712
0.359523
-0.428495
-0.0324922
0.0366427
0.0747067
0.0917938
-0.435571
0.343777
-0.22002
0.232972
-0.0129525
0.47671
-0.209601
0.0998994
-0.498682
0.117341
0.191052
-0.308393
-0.19604
0.494075
-0.298035
-0.115034
0.235823
-0.120788
6.38756e-05
0.0745278
-0.0745916
0.253948
-0.151149
-0.102799
0.554089
-0.196159
-0.35793
0.273187
-0.120262
0.285003
0.185899
0.399646
-0.310612
0.279083
-0.375294
0.0962108
-0.402337
0.476311
-0.0739735
-0.012133
-0.0348344
-0.0845917
-0.168996
0.253587
-0.200432
-0.102565
0.047344
-0.507581
0.194116
0.0605563
-0.254673
-0.204158
0.202163
0.00199519
0.475268
-0.475268
0.41019
-0.131106
0.587496
-0.386843
0.356114
-0.540979
0.184865
0.164408
-0.0327917
0.271135
0.137066
-0.4082
0.265639
-0.183962
-0.0816768
0.189134
0.25006
0.0971094
0.13438
-0.23149
0.190727
0.182238
0.119343
-0.485032
0.365689
0.335592
-0.570737
0.235145
0.292931
-0.0109976
-0.281934
-0.0477184
0.440863
-0.393145
0.0563605
-0.333395
0.277034
-0.0182558
0.0317049
0.273142
-0.0338753
-0.239266
-0.0495025
-0.27101
0.320512
0.235954
0.037748
-0.0514345
0.514113
-0.0493982
0.0529361
-0.0035379
0.103897
-0.305276
0.255774
-0.245776
0.0416185
0.483733
-0.336303
-0.14743
-0.159302
0.0405757
0.142652
-0.183227
-0.411028
-0.0505717
0.203436
0.273273
-0.597195
0.30029
0.296905
0.217192
0.192997
0.265025
0.302287
0.00277566
-0.122096
-0.328211
-0.145137
0.473348
-0.33421
-0.142442
0.476652
0.0961781
0.218038
-0.314216
0.192814
-0.494447
0.301633
-0.0807275
0.274844
-0.569627
0.32482
0.244807
-0.0521265
-0.379422
0.431549
-0.469987
-0.0201666
0.490153
0.35266
0.0461423
-0.398802
0.331082
-0.122404
-0.208678
0.0844147
-0.0500928
-0.0343219
-0.218639
0.103604
0.415988
-0.0633283
0.126495
-0.101848
-0.123766
0.0243984
-0.108987
-0.18393
0.292917
0.0571789
-0.193704
0.136525
0.221836
0.0710951
0.0366857
0.0754968
-0.0737696
-0.0300727
0.103842
-0.185651
0.269138
-0.083487
-0.269603
0.361397
0.280799
0.27329
0.274014
0.373644
0.0674709
-0.0819927
0.216379
-0.29742
0.0810403
0.367479
-0.408871
-0.200486
-0.372304
0.365889
-0.522527
0.353776
0.168751
-0.0119333
0.242313
-0.35928
0.116967
0.467337
-0.222552
-0.244785
-0.0688376
0.047903
0.0209346
-0.0575722
0.00817403
0.0367716
-0.25338
-0.0447116
-0.0414843
0.0861959
-0.063357
-0.119074
-0.141957
0.42696
0.128911
0.281943
-0.177388
-0.0321745
0.129655
-0.214246
0.11344
0.217642
0.101455
-0.0486836
-0.052771
-0.484621
0.531965
-0.388947
0.336821
0.098092
-0.107214
0.00912184
-0.148529
0.0433767
-0.182163
0.138786
-0.247905
-0.274622
0.593343
-0.27198
-0.321363
0.235351
-0.57446
-0.197632
-0.233844
0.431476
-0.323441
0.229941
0.0935002
0.3033
0.183964
0.240964
-0.224442
-0.0165222
-0.104075
0.268737
-0.0953661
-0.44622
0.248588
0.0342342
-0.0161237
-0.0181105
-0.550036
0.239897
0.310139
-0.483184
-0.499224
0.418263
0.0809601
-0.0728756
0.028164
-0.0145421
-0.234891
0.249433
0.240914
0.416389
-0.413165
0.146911
0.357061
-0.48777
0.130709
0.00886776
-0.211351
0.202483
-0.313144
0.31907
-0.00592627
-0.0692184
0.112654
-0.0434354
-0.395858
-0.0741282
0.181358
-0.319887
-0.438198
0.171138
0.267059
0.295915
0.297428
0.00286411
-0.487485
0.188557
-0.154581
-0.0339757
0.0527745
0.210047
-0.378607
0.16856
0.445834
0.000700495
0.150256
-0.25433
-0.292784
0.301198
-0.00841349
0.211761
0.0161731
-0.227934
0.0477581
-0.144796
-0.119179
0.109026
0.0101531
-0.406652
0.13799
0.268661
0.0346529
-0.0761371
-0.305027
-0.041642
0.200442
-0.103332
-0.215074
0.2069
0.00817433
0.145378
-0.473589
0.058903
-0.294171
0.235268
0.171
-0.130424
0.333725
-0.187174
-0.146551
0.262037
-0.276579
0.320482
-0.0259305
-0.294551
-0.172372
0.498967
-0.326595
0.48813
-0.151283
-0.336846
0.168217
-0.282067
0.0186243
-0.296658
0.278034
0.376152
-0.577754
0.201602
-0.147494
0.409292
-0.261798
-0.614674
0.300211
0.314464
-0.403808
-0.00667701
-0.273085
0.401996
-0.389013
-0.176707
0.406165
0.0396695
-0.475221
0.27918
-0.0211503
0.139372
-0.118222
-0.233042
-0.0159671
0.249009
0.0481864
-0.450524
-0.528595
0.237465
0.29113
0.129271
-0.258241
0.367137
-0.108896
-0.25011
0.0350357
0.387422
0.0187429
0.0573567
0.263125
-0.1136
0.0443817
-0.266812
-0.179408
0.345292
-0.286389
0.0369188
0.0474959
0.354201
-0.296845
-0.305212
0.219842
0.0853695
-0.172639
0.382685
-0.131707
0.372425
-0.240717
0.20866
-0.199793
-0.387903
-0.11132
0.0579762
0.0546777
-0.338847
-0.202132
-0.480602
0.483466
-0.278031
-0.0271805
0.147519
0.290026
-0.486848
0.195404
0.291445
0.541331
-0.419584
-0.121746
-0.585232
0.238008
0.347224
-0.295482
-0.217603
0.513085
0.0368707
0.0645839
0.00531207
0.275364
-0.280676
0.0642205
-0.303978
0.223251
0.138446
0.365676
-0.504122
-0.410223
-0.159404
-0.384637
0.252929
-0.274977
0.573762
-0.298784
0.174584
-0.441396
-0.103539
-0.0156399
-0.0157195
0.388565
-0.372845
-0.0935882
-0.21039
0.0878493
0.011364
-0.300812
-0.0436991
0.344511
-0.0772171
0.00344751
0.211872
-0.100858
-0.111014
0.0534081
0.247158
-0.297972
0.104647
0.193325
0.317561
-0.0900912
-0.22747
-0.118048
-0.16533
-0.220374
0.0425465
0.177828
0.0137157
-0.494318
-0.162883
-0.312975
0.0308909
0.282084
-0.198753
-0.420008
-0.169238
0.522074
-0.145923
0.602078
-0.257026
-0.345053
0.212847
-0.155668
-0.0209953
0.0622124
-0.0412171
0.247313
-0.0355517
0.511104
-0.194352
-0.111865
-0.191989
0.303854
-0.293647
0.181782
0.010934
0.00399142
-0.0149254
0.448955
-0.111425
-0.33753
-0.145919
0.421428
-0.275509
-0.288842
0.290924
-0.00208235
-0.257301
-0.149351
-0.198559
0.480659
-0.2821
0.31825
0.192854
0.465942
-0.054352
-0.41159
0.375867
-0.133554
0.145776
0.00751799
-0.153294
-0.27551
0.381622
-0.106112
0.316901
0.166832
0.233827
0.0837337
0.0014178
-0.0956812
0.0942634
-0.0936599
0.167492
-0.121281
0.357997
-0.236717
-0.184777
-0.101132
0.285909
-0.035948
-0.289896
0.105118
-0.134205
0.503958
-0.170015
0.305212
-0.320932
-0.154561
0.425696
0.498286
-0.234241
-0.264046
-0.197292
0.191712
-0.104906
0.209942
0.211092
-0.421034
-0.0222158
0.0168125
0.00540333
0.325028
0.123927
-0.308043
0.225855
0.232485
-0.0901438
-0.142341
-0.263525
0.398811
-0.135286
-0.0808028
0.546745
0.255464
-0.509934
0.25447
-0.224046
0.397783
0.123176
0.175716
-0.298892
-0.169058
-0.197779
0.366837
0.15599
-0.4902
0.119898
0.115925
0.107216
0.311685
-0.109185
-0.2025
0.12361
-0.127681
0.00407098
-0.0728583
-0.306159
0.379017
-0.108989
0.0683092
0.122189
-0.190498
-0.0568474
-0.140445
-0.189209
0.00871622
0.180493
-0.00825101
-0.0264099
-0.178702
0.295165
-0.307471
-0.384093
0.467734
-0.0836401
0.154377
-0.0781058
-0.0762715
-0.442088
0.161015
0.281073
-0.508626
-0.129424
0.63805
0.0373393
-0.0700999
0.0327606
0.446253
-0.0346794
-0.411574
-0.353462
0.184405
-0.328537
0.0396949
-0.499468
0.236417
0.263051
0.174073
-0.346421
0.172348
-0.252332
0.482288
0.333843
-0.159771
0.0507982
-0.30585
0.255052
0.479063
-0.481624
0.00256134
-0.355336
-0.140781
0.496117
-0.304152
-0.0550255
0.359178
0.0466221
0.265063
-0.0810397
0.268626
-0.320992
0.128552
0.19244
0.427266
-0.165229
-0.306266
0.333631
0.254423
0.28371
-0.265086
0.251614
0.335881
0.473725
-0.1013
0.0203104
0.31348
-0.489545
0.333293
0.156252
0.397384
-0.126232
-0.271152
0.0293137
0.412499
-0.441812
0.00673452
0.0781565
0.070567
-0.0612375
-0.262732
-0.0175024
-0.256496
0.47
-0.117699
0.0867854
0.109031
-0.195816
0.101459
0.372266
0.550433
-0.36788
-0.182553
0.180314
0.109604
-0.289919
-0.336321
0.488139
-0.151818
-0.0529775
0.00884017
0.0441374
0.377414
0.173019
-0.288683
0.00831961
0.280363
0.0463904
-0.095364
0.0489736
0.104836
-0.0217368
-0.00152953
-0.245976
0.247505
-0.299398
0.192922
0.106476
-0.415287
-0.00956288
0.42485
0.0591462
-0.0816626
0.0225164
0.495707
-0.177457
-0.374537
-0.0407505
0.129493
-0.0762771
0.176327
-0.285314
-0.180837
0.573529
0.388526
0.0356176
-0.424144
0.112381
0.00685859
-0.363421
0.126717
0.236703
-0.219962
0.0185576
0.201404
0.511265
-0.156611
-0.0401879
0.0748408
-0.425568
0.310463
0.115105
0.123163
0.000173918
-0.123337
-0.31915
0.22393
0.0952199
0.306431
-0.350417
0.0439859
0.156549
0.270717
0.0703111
0.163442
-0.233753
0.423833
-0.314528
-0.109304
-0.299907
-0.110618
-0.485387
0.313015
0.216143
-0.129357
0.185811
0.211573
0.306432
-0.511585
0.205153
0.485797
-0.347352
-0.419866
0.60839
-0.188524
-0.0853275
-0.340241
-0.180533
-0.22416
0.404693
0.0980588
0.134426
0.386656
-0.169464
0.00538987
-0.0989292
0.0935393
-0.145737
0.214047
-0.292062
-0.257974
0.141947
-0.405471
-0.0136105
0.0245445
-0.153889
-0.0282737
0.116054
0.137894
0.113146
0.00405784
-0.232383
0.236256
-0.00387211
-0.01942
-0.265548
-0.23392
0.141747
0.280773
-0.42252
-0.227181
-0.00807102
0.235252
-0.335192
-0.162771
0.497963
0.267405
-0.174436
0.297611
0.0201321
0.109874
-0.378513
0.268639
-0.383462
0.0793094
-0.246733
0.435867
-0.00649028
-0.0157255
-0.474563
0.488279
-0.228661
0.553075
-0.324414
0.182888
-0.0457173
0.402779
-0.044294
0.0811647
-0.00149862
-0.0459155
0.0474141
0.113307
0.356693
0.264665
0.166792
-0.431458
0.179087
0.266878
-0.445965
0.0890034
-0.0298573
0.317103
0.155107
-0.472209
0.017678
-0.526304
-0.0057362
0.413703
-0.407967
-0.393223
0.0298027
0.0296878
-0.0739818
0.340218
0.223953
-0.396052
0.14031
0.255742
0.16259
0.316977
-0.479567
-0.0608382
0.0398429
-0.358415
0.458924
-0.10051
0.290157
0.222985
-0.513142
0.493881
-0.323222
-0.170658
0.238932
0.0364696
-0.535583
0.240918
0.294665
-0.319504
0.359011
-0.232294
-0.21949
-0.0756572
-0.135501
-0.248219
0.0484008
-0.0110615
-0.49642
0.0218569
0.276064
-0.441097
-0.0874871
0.092877
0.200373
0.113433
-0.313806
0.416452
-0.274705
-0.312276
0.522034
-0.209759
0.207167
-0.153988
-0.0531789
0.107573
-0.216758
-0.474696
0.106817
0.164297
-0.543719
0.146921
0.0283664
-0.175288
-0.404579
0.238951
-0.266464
0.027513
0.0854178
-0.174863
0.0771328
-0.170793
-0.0547812
0.00180371
0.0109723
0.272738
0.129713
-0.0173315
0.0440968
-0.352587
0.30849
0.0727097
0.150181
-0.0754505
-0.0747302
-0.447655
0.0899545
0.3577
-0.229261
0.117358
0.292764
-0.20571
0.0045235
-0.452178
0.0791508
0.217068
-0.296219
0.353509
-0.243635
0.0744918
0.0303444
-0.022367
-0.334519
0.356887
-0.395554
0.249635
-0.150152
-0.0430411
0.193193
0.155195
-0.46747
0.198941
0.108074
0.29985
0.195857
0.293057
0.247647
-0.341748
0.0941011
0.451384
-0.288794
-0.184798
0.0346461
-0.314366
0.335717
0.0175526
0.212902
-0.230455
0.306842
0.017752
-0.324594
-0.0718226
-0.00139417
0.0732168
-0.168232
-0.180955
-0.35266
0.106243
0.246417
-0.0673584
0.144491
0.131034
0.52614
-0.338337
-0.187804
-0.259736
-0.543459
0.167423
-0.100273
-0.199126
0.237125
-0.219572
-0.199067
0.478991
-0.279924
0.306129
0.192838
-0.0667307
0.22244
0.316985
-0.507422
0.190437
0.314469
-0.258108
-0.113257
0.198675
0.283765
0.159113
-0.442878
0.46183
-0.255417
-0.206412
0.0580011
-0.292511
0.23451
0.0302951
-0.299136
0.26884
0.268723
-0.16115
0.0517482
0.077745
-0.0779024
0.325549
-0.15311
-0.242942
-0.278544
0.395598
-0.117054
0.217895
-0.0206706
-0.197224
0.000572688
-0.00740514
0.00683245
0.15532
0.231822
-0.387142
0.110516
-0.0124242
0.282136
0.179694
-0.157319
-0.00857075
0.16589
-0.0485065
0.355348
0.467267
-0.131625
0.144378
0.272075
0.143523
0.252422
-0.395945
-0.0204857
0.0527031
-0.067471
0.0147678
0.264305
-0.23401
0.26769
-0.147792
-0.124134
-0.0554705
-0.141322
0.196793
0.373538
-0.533806
0.160269
0.137705
-0.329622
0.191917
0.351347
-0.172812
-0.178536
0.279446
0.0300183
-0.309465
0.151468
-0.270787
0.119318
0.101014
-0.156485
-0.22914
0.501948
-0.272808
0.333286
-0.254136
-0.180719
0.358607
-0.220902
-0.392624
0.170071
-0.0724906
0.0487288
0.0237619
-0.102838
0.319907
0.231978
-0.0312751
0.0216589
0.00961617
-0.373193
-0.212039
0.0283381
0.0507805
-0.0791187
-0.311856
-0.186554
0.0476324
0.180419
-0.228051
0.520335
-0.352586
-0.167749
-0.265258
0.190383
-0.524146
0.333763
-0.425257
-0.0494392
-0.274206
-0.174594
0.4488
-0.105656
0.252577
0.136745
-0.040184
-0.0965614
-0.252344
-0.143825
0.396169
-0.185557
-0.189737
-0.174562
0.226009
-0.0514461
0.342676
-0.322365
-0.269454
0.413831
-0.265712
0.241531
0.0241811
0.465623
-0.402161
0.149817
-0.0457033
0.222095
0.307066
0.00831839
-0.0255687
-0.16364
-0.0771064
-0.159487
0.236593
0.0612466
0.179717
-0.23789
0.529895
-0.328285
-0.20161
0.214702
-0.372146
0.157444
-0.281043
-0.0734885
0.0693045
-0.567667
0.279811
0.287856
0.260916
-0.0445363
-0.0247188
-0.0726785
0.0973973
-0.275304
0.418827
0.341542
-0.1316
0.234922
-0.604392
0.36947
-0.053572
-0.248679
-0.1281
0.486924
-0.29411
0.216128
0.10179
-0.317918
-0.000551435
-0.0186995
0.0192509
0.299842
-0.241841
0.128502
-0.205608
0.14779
0.0593766
0.233724
0.302485
-0.328173
0.0256888
-0.0896139
-0.532257
0.223007
0.30925
-0.257701
-0.247236
0.504937
0.290727
-0.194549
0.0886232
-0.0985096
0.00988642
-0.0340236
-0.3592
0.477783
-0.177933
-0.452934
0.0945192
-0.254332
-0.000485171
0.254817
0.382797
-0.168094
0.0144179
0.328258
0.0196162
0.21534
-0.234957
-0.358494
0.0799502
0.224308
-0.176675
0.219275
-0.322113
-0.156927
0.410813
-0.253886
-0.376938
-0.107827
0.484764
-0.57471
0.346049
0.355908
-0.539788
0.183881
-0.214146
-0.0343618
0.248508
-0.428178
-0.0182616
0.446439
-0.0577163
0.0860544
0.368114
-0.164415
-0.203699
0.178246
0.173101
-0.218639
-0.245662
0.0903974
0.119994
-0.210392
-0.394715
0.120509
-0.303607
0.467903
-0.0307078
0.0976663
-0.0669586
-0.0599069
-0.196098
0.0611778
-0.12575
0.064572
-0.0687255
0.0743896
-0.00566418
0.489324
-0.182892
-0.197769
0.486375
-0.244931
-0.112907
0.357839
-0.241201
0.197721
0.0434807
0.0206286
0.118743
-0.106685
0.0385564
0.068129
0.252572
-0.239642
-0.0129292
0.136381
-0.117829
0.205968
-0.0167503
0.242166
-0.216375
-0.104968
-0.365924
0.180367
0.183773
0.303151
0.550424
-0.370806
-0.179618
-0.0635592
-0.168824
-0.16436
-0.284139
0.448498
0.0426418
-0.00840029
-0.0342415
-0.324594
0.20219
0.114687
0.301095
-0.415782
0.0119491
-0.312761
-0.200568
0.175
0.23967
-0.000719454
-0.0689187
0.178377
-0.109458
-0.21868
-0.359074
0.0720026
-0.0192994
-0.142265
0.388326
0.0827496
-0.00868719
-0.0740624
0.162295
-0.438763
0.276468
0.259332
-0.0903928
-0.168939
0.225258
-0.12989
-0.0953684
0.368485
0.172846
-0.119794
0.419062
-0.299267
0.352869
-0.400587
-0.280336
-0.16297
0.443306
0.0765482
-0.10561
0.0290617
0.258743
-0.040336
-0.132883
-0.293912
0.130369
0.163543
0.0763855
-0.460479
-0.394678
-0.203881
-0.318032
0.26446
0.164382
0.0717682
-0.236151
0.271322
-0.26035
0.206438
-0.296305
0.0898677
0.0933835
0.0171328
0.0492894
-0.281235
0.231945
0.087089
-0.0856712
-0.408529
0.261035
-0.0157802
-0.202595
-0.231024
-0.339713
-0.296857
0.0562258
0.240631
0.082356
-0.215608
0.133252
0.331735
0.19816
-0.130787
0.442104
-0.311317
0.36912
-0.254433
0.534681
-0.178774
-0.0323943
0.032967
-0.188861
0.285868
-0.0779833
0.242366
-0.426754
0.130449
0.296306
-0.542472
0.360984
0.181488
0.164136
0.203978
0.15398
-0.444303
0.290322
-0.40711
0.0268349
0.380275
0.272365
-0.427766
0.155401
0.320598
-0.286114
0.413283
-0.127169
0.486329
-0.298072
-0.188257
-0.149435
0.399321
0.00762774
-0.0290468
0.021419
0.22314
0.029432
0.0370545
-0.444854
-0.0402542
-0.299149
0.154828
-0.165058
-0.319077
0.477994
-0.324014
0.573452
-0.33853
0.316392
0.169937
0.0919472
-0.015399
0.205532
-0.00336894
0.299914
-0.33664
0.0367255
0.0422515
0.0229102
-0.158022
-0.27249
-0.186466
0.458831
-0.077245
0.00851957
-0.366527
0.524453
-0.157926
-0.231414
0.236726
-0.163459
-0.161135
-0.0122074
-0.025107
0.0373144
-0.291571
0.475344
-0.257354
0.0243118
-0.190206
0.230173
-0.039967
-0.093723
0.351423
0.0840764
0.267875
-0.351952
-0.246059
0.0131831
0.0210511
-0.0517388
-0.423529
-0.148603
0.521149
-0.389426
-0.131723
0.286228
0.0165698
-0.0901483
0.0613654
0.028783
0.157694
-0.450859
0.293166
-0.0104298
-0.144965
0.235363
-0.454469
0.366244
-0.415324
0.295529
-0.37193
-0.156665
0.31632
-0.100192
-0.22113
0.551806
-0.330676
-0.511973
0.0719668
0.440006
-0.0822143
-0.429759
-0.200101
-0.263674
0.463775
0.268346
0.145059
-0.413405
-0.382123
0.0960098
0.224011
-0.475399
0.2833
0.192099
-0.0160951
-0.0723014
0.133479
0.0578098
-0.0825286
-0.257129
-0.347262
-0.524626
0.313175
0.21145
0.427291
-0.335294
0.0212833
-0.0550775
-0.110635
-0.207396
-0.0706001
0.00885771
0.0617424
-0.0130622
-0.233189
0.53381
-0.300621
-0.0848922
-0.23661
-0.080365
0.197723
0.0453811
0.0913643
0.531679
-0.321898
-0.209781
0.142297
0.299807
-0.279079
0.272754
0.00632476
-0.174997
-0.107123
0.28212
-0.0820456
0.0188197
0.0632259
0.271194
-0.435875
0.164682
-0.376785
-0.0513925
0.523078
-0.341609
-0.181469
0.066302
0.122255
0.165493
-0.166729
0.456886
0.177551
0.104402
-0.281952
0.175733
0.311836
-0.487569
-0.326081
-0.171329
-0.226189
0.213754
0.0124347
0.497508
-0.309031
-0.188476
-0.318089
0.101714
0.0163967
0.0549212
0.106541
0.246969
-0.099946
0.0960536
0.00389241
-0.291073
0.393893
-0.10282
-0.342691
0.372005
-0.449249
0.512776
-0.0635266
-0.0220158
-0.270768
-0.0920689
-0.215974
-0.0191415
-0.0629041
-0.0169008
-0.120652
0.137552
-0.327682
0.413947
-0.0862647
0.442273
-0.299976
0.289133
0.194006
-0.11165
-0.211607
0.0370451
-0.0153996
0.324001
0.229074
-0.156714
0.424962
-0.100034
0.201048
-0.345249
0.0933473
0.251902
0.394266
-0.00760996
0.153972
0.162348
-0.0564667
-0.0344854
0.0909521
-0.0768578
-0.0143757
-0.0809063
0.301853
0.0498815
-0.351734
0.172418
-0.26981
0.0634864
0.206324
0.495065
-0.307602
-0.187464
-0.34324
0.25824
0.0850004
-0.236285
-0.0990306
0.085852
0.32497
-0.410822
0.383398
-0.303425
-0.134773
0.123707
-0.500645
-0.246047
-0.0833397
0.128721
0.0344395
-0.0268118
0.081262
-0.235491
0.44828
-0.212789
-0.233757
-0.366724
0.248549
0.118175
-0.406809
-0.0424398
0.423686
-0.504489
-0.190393
0.286206
-0.312137
-0.424429
-0.319219
0.452115
-0.132896
0.0281266
0.0145152
0.00256703
0.300201
-0.470008
0.169806
0.245409
-0.520386
-0.1667
0.398936
-0.232235
0.171739
0.174705
-0.346443
0.34152
-0.516544
0.175025
0.310157
0.0841096
0.0777838
-0.145142
0.0165745
0.0206713
-0.0372459
0.107489
-0.187854
0.375735
0.155156
-0.530891
-0.342376
0.269517
-0.00984527
0.0520968
0.18054
0.333573
0.320343
0.174723
-0.0730019
0.0155416
0.0574603
-0.222798
0.152566
0.0702312
0.285472
0.264952
0.487416
-0.312814
-0.174602
-0.109933
0.285508
-0.175575
0.329674
-0.0297594
0.144731
0.120908
0.295764
0.0402687
-0.336032
-0.216423
0.172854
0.0811167
-0.253971
0.189095
-0.266691
-0.148991
-0.362594
0.000601316
0.0927822
-0.0369596
0.00838054
-0.122629
0.251131
0.318799
-0.234722
-0.0730757
-0.0170726
0.289729
0.0644727
-0.146242
0.138159
0.00808232
0.012741
0.0643719
-0.0771129
-0.0966507
-0.355436
-0.219274
-0.0965103
0.274061
-0.0247952
0.0460785
-0.0947783
-0.194124
-0.0756868
0.119668
0.14947
-0.351964
-0.265068
0.195657
-0.110807
-0.179691
0.290498
-0.0613516
0.139135
0.206574
0.126919
-0.333493
-0.0278813
0.260776
-0.409011
0.148235
-0.371165
0.0466719
0.324493
-0.182086
0.0300901
-0.214052
-0.269388
0.0552425
0.221898
-0.0154607
0.264662
-0.360894
0.0962317
-0.0253153
-0.115541
0.140857
-0.355877
0.0910649
0.223432
-0.314497
-0.0222107
-0.19963
0.0484812
0.318513
-0.164541
0.310339
-0.314309
-0.175236
0.0382182
-0.113669
0.428331
-0.266035
-0.386137
0.128095
0.258042
0.0739981
0.2448
0.142337
-0.475328
-0.313752
-0.173293
0.487045
-0.029482
-0.341683
0.289761
0.188023
-0.463162
0.211383
0.286903
-0.323769
0.0107942
0.252685
0.244822
-0.413866
0.141417
0.272449
0.447202
-0.0936616
0.284714
0.175162
0.0303697
0.0517272
0.173531
0.149398
0.0559211
0.0599414
0.0944359
0.0571052
-0.0570414
0.00713122
0.439122
0.175093
0.296985
-0.472078
-0.0230715
-0.00597528
0.205523
0.298831
-0.504353
-0.294777
0.00609497
0.00197033
0.269352
-0.26277
-0.148681
0.411451
0.529677
-0.188157
-0.340427
0.242667
0.0977602
0.351158
-0.0864954
0.210728
0.0843481
-0.0688058
0.15924
-0.0904339
0.352322
-0.41714
0.260213
-0.152642
0.355821
-0.203179
-0.163435
0.00885372
-0.160362
0.242143
-0.0817808
0.0157215
-0.0318452
0.0862771
-0.0398868
0.266753
-0.465312
0.099495
-0.435816
-0.0292904
-0.00198474
-0.0910507
0.369851
0.181955
-0.293221
0.498744
0.32499
-0.0305626
-0.0648014
0.35834
-0.284342
0.317097
0.407514
-0.228427
0.046724
-0.0196298
-0.0270942
0.355424
0.16665
0.00886819
0.414818
-0.00239783
0.406184
-0.403787
0.0517944
-0.212157
-0.0563405
0.0577143
-0.00137379
-0.321223
0.333172
-0.294434
0.10834
0.186094
-0.0123257
0.400852
-0.284356
0.506704
-0.222348
-0.0979134
0.0672057
-0.234613
0.243221
-0.202974
-0.0402468
-0.343613
-0.145578
0.489191
-0.252846
-0.0652438
0.0321365
-0.115476
-0.198644
0.108251
0.258692
-0.149638
-0.109054
0.16635
0.462157
-0.0935393
0.25207
0.151471
-0.403541
0.25479
-0.25632
-0.0210076
0.177169
-0.156161
-0.442248
-0.0578591
0.0559369
-0.351419
-0.265341
0.475702
-0.210361
0.27941
0.0502642
0.599073
-0.230103
-0.36897
0.346127
0.252946
0.00620014
-0.0184076
0.288388
-0.00178788
0.0920998
-0.0570841
-0.0350157
-0.0952689
-0.1931
0.48286
0.298429
-0.0489304
-0.249498
-0.0217049
0.32419
0.294387
-0.16311
-0.131278
0.307627
0.218513
-0.101941
-0.429989
0.0453521
-0.183425
0.288072
0.442864
-0.159099
-0.0634816
-0.17772
0.280225
-0.149856
-0.473506
0.208165
0.455702
-0.179076
-0.276625
-0.536305
0.196885
0.33942
-0.210834
0.25662
-0.0457868
-0.545241
0.215708
0.329532
0.0132662
0.13852
0.0743275
-0.0936781
0.317111
-0.141385
-0.0306585
-0.386561
0.41722
0.46265
-0.170459
-0.292191
0.26311
0.490814
-0.378318
0.123539
0.254779
-0.453904
0.147746
0.129861
-0.441717
-0.36336
-0.0304578
0.172792
-0.507985
0.543484
-0.256881
-0.286603
0.0703636
-0.431359
0.0869375
-0.331869
-0.222718
0.0155845
0.207134
-0.283606
0.188218
0.0953882
-0.162918
0.297054
-0.272488
-0.237446
0.273377
0.135915
-0.156882
0.447635
-0.288522
-0.131103
0.506838
0.042745
-0.0996543
0.0569092
-0.0610749
-0.368914
0.137366
0.0481829
-0.017338
0.0524069
-0.357683
-0.217922
0.583598
0.0260393
0.301903
0.160746
0.279473
0.0189555
0.528518
-0.208337
-0.320182
-0.0470469
0.104857
-0.0435652
0.049705
-0.0061398
-0.088551
0.205367
0.0663934
-0.457578
0.391185
-0.415471
-0.0261833
0.441654
0.320744
0.167385
0.209679
0.333805
0.182432
0.055322
-0.237754
-0.293653
-0.177444
-0.0794699
0.256914
-0.0355719
0.482358
-0.313622
-0.168736
-0.0176589
-0.0911146
0.301843
0.216383
0.0173417
-0.290085
-0.123781
-0.289509
-0.274168
-0.213602
-0.139333
0.291596
-0.152263
-0.159233
0.409922
-0.250689
0.1567
-0.422098
0.0066271
-0.139457
0.345757
-0.351494
0.184483
-0.431215
0.277105
0.228735
-0.38707
0.158336
0.279223
-0.0925453
-0.186678
-0.0555416
0.357394
-0.0628007
-0.216411
0.279212
0.342354
-0.524687
0.182332
0.30285
-0.399623
0.0967733
0.133682
-0.0819339
-0.0581658
0.0670235
-0.362107
0.168968
0.193139
-0.00833711
0.0828649
0.421688
-0.169713
-0.251975
0.291912
-0.319209
0.0683203
0.143551
-0.331868
0.309501
-0.427799
-0.0572327
0.402418
-0.0995684
0.451644
-0.151443
-0.00996899
-0.21622
0.384373
-0.132302
-0.536156
0.339938
0.196218
-0.54929
-0.266483
-0.111835
-0.308643
-0.13566
0.11456
0.0239183
-0.138478
0.163269
-0.506882
0.246121
0.190641
0.303239
-0.216217
-0.0307124
0.309948
-0.279236
-0.165616
0.263463
0.00650921
-0.269972
0.261519
0.016486
-0.278005
0.344063
-0.528756
0.184693
-0.39086
-0.403539
0.119183
-0.224972
0.0347655
-0.328176
0.13344
-0.139509
0.419668
-0.280158
0.123726
0.0316839
-0.15541
0.239703
-0.0153311
0.409637
0.344011
-0.418076
0.0740649
0.0416667
-0.0431653
-0.114272
-0.0765432
0.190815
0.0737089
0.192623
-0.266332
-0.121781
-0.128329
-0.217938
0.504556
-0.286618
0.0183324
-0.366855
-0.0655367
0.432391
-0.162818
0.427483
0.440845
-0.274052
0.330837
0.147157
-0.297991
0.23519
-0.111113
0.305792
-0.194678
0.266539
-0.168672
-0.0978671
-0.102417
-0.227205
0.324255
0.0781633
-0.139403
-0.158016
-0.442734
0.300292
0.180008
0.275694
0.433753
-0.109498
0.252261
-0.38002
0.127759
-0.295043
-0.128411
-0.230868
-0.382106
0.0475866
0.151381
0.0587107
-0.339645
0.280935
0.238726
-0.0968318
0.173637
-0.0768055
-0.0252028
0.148929
-0.251677
0.184706
0.0669702
-0.30185
0.313501
0.127536
-0.297949
-0.142468
0.371202
-0.433758
-0.018509
0.452267
0.456739
-0.276731
-0.532299
0.105622
0.426677
0.0495191
0.15308
-0.41585
0.51927
-0.176915
-0.466804
0.289157
0.177647
-0.451399
-0.24745
0.304879
-0.286885
-0.157605
0.444491
0.0491422
-0.463274
-0.261516
0.393121
-0.131604
0.179854
0.241835
0.283275