/*--------------------------------*- C++ -*----------------------------------*\
| =========                 |                                                 |
| \\      /  F ield         | OpenFOAM: The Open Source CFD Toolbox           |
|  \\    /   O peration     | Version:  v2012                                 |
|   \\  /    A nd           | Website:  www.openfoam.com                      |
|    \\/     M anipulation  |                                                 |
\*---------------------------------------------------------------------------*/
FoamFile
{
    version     2.0;
    format      ascii;
    class       surfaceScalarField;
    location    "400";
    object      ddtCorrDdt0(phi);
}
// * * * * * * * * * * * * * * * * * * * * * * * * * * * * * * * * * * * * * //

dimensions      [0 3 -2 0 0 0 0];
oriented        oriented;


internalField   nonuniform List<scalar> 
26940
(
6.89431e-06
-1.17047e-05
4.81118e-06
6.26738e-07
-2.03115e-07
-4.23566e-07
2.71799e-06
-7.9546e-07
-1.92255e-06
-2.51803e-05
2.0419e-06
2.31383e-05
-1.4506e-05
4.23854e-06
1.02763e-05
-9.8238e-06
8.61799e-06
1.20534e-06
-7.34661e-07
4.98851e-07
2.35811e-07
0.00011983
-0.000119831
-8.26357e-06
-6.4368e-05
7.26307e-05
-0.000109575
3.891e-05
7.06515e-05
9.15176e-08
-9.1008e-07
8.18232e-07
5.40957e-07
1.0281e-06
-1.56922e-06
-8.57332e-05
0.000183296
-9.75676e-05
-1.62908e-05
4.247e-05
-2.61879e-05
6.5498e-05
0.000252693
-0.000318184
6.95023e-05
-8.5795e-05
-9.79802e-07
1.02916e-06
-4.95699e-08
-9.56005e-07
7.1415e-05
-7.04528e-05
1.32623e-06
5.37377e-07
-1.86368e-06
1.37367e-05
-8.56443e-05
7.19065e-05
-8.26466e-06
-6.48853e-06
1.47543e-05
-9.31581e-09
-9.70502e-07
4.34207e-06
-1.2607e-05
-5.56527e-07
-2.28193e-06
2.83834e-06
2.90815e-07
-8.63907e-07
5.73009e-07
-4.93366e-08
-6.85294e-07
-1.09985e-05
8.75032e-06
2.24458e-06
1.87444e-06
-1.08512e-06
-7.89611e-07
-1.06559e-06
-1.23361e-06
2.29917e-06
-3.45485e-06
-2.17256e-05
-3.15195e-05
1.23928e-05
1.91264e-05
9.0321e-08
2.14522e-07
-3.04854e-07
1.46822e-06
-2.05258e-06
5.83982e-07
1.5247e-06
-8.42869e-08
-1.44147e-06
1.75273e-07
3.18577e-08
-2.07312e-07
-1.09307e-06
4.09644e-07
6.83694e-07
5.70463e-05
-6.53096e-05
-1.48931e-06
3.963e-07
-7.11205e-07
1.82897e-07
5.28294e-07
-9.58244e-05
-1.37574e-05
1.02146e-06
-3.78485e-08
-9.83591e-07
-0.000279593
4.37904e-05
0.00023581
2.46561e-06
-9.97565e-07
2.24573e-06
-8.07891e-07
-1.43837e-06
1.48371e-06
-8.85122e-06
7.3674e-06
-4.33594e-07
-1.65765e-06
2.0902e-06
-3.69058e-05
1.04091e-05
2.64965e-05
-3.15193e-05
-0.000533501
0.000813807
-0.000280305
6.59605e-06
-9.82579e-06
3.22932e-06
-5.12967e-06
4.52491e-06
6.04071e-07
5.599e-06
-6.33631e-06
7.38309e-07
-6.90557e-06
3.69708e-05
-3.00646e-05
5.99244e-07
-4.62004e-07
-1.37337e-07
-6.50942e-07
7.42588e-07
8.14954e-05
-4.58302e-05
-3.56658e-05
-0.000249737
-2.98549e-05
-6.47124e-06
9.8964e-05
-9.24936e-05
3.09029e-06
-3.86753e-06
7.76909e-07
-6.05071e-07
1.23555e-06
-6.30197e-07
-1.53999e-06
1.01536e-05
-8.61368e-06
7.53167e-07
-7.47843e-07
-6.69568e-09
0.000147738
-0.000141604
-6.13425e-06
2.53648e-06
1.8452e-06
-4.38161e-06
-0.000125203
-1.85938e-05
0.000143798
-2.71669e-06
7.01427e-07
2.0148e-06
-1.40764e-05
6.97722e-05
-5.56943e-05
2.93025e-05
-0.000105255
7.59581e-05
2.03929e-05
1.03359e-05
-3.07343e-05
7.17783e-07
-7.41624e-08
-6.42839e-07
-4.57784e-08
2.21088e-07
6.12895e-07
-1.37281e-06
7.5981e-07
-7.40697e-06
8.89065e-06
1.113e-06
1.27554e-06
-2.38829e-06
-2.59992e-05
2.60436e-05
-0.00019507
1.75974e-05
0.000177489
2.46316e-05
-2.90067e-06
-2.17285e-05
7.35771e-05
-5.31934e-05
1.84525e-06
6.91797e-08
-1.91455e-06
-2.44981e-06
1.54567e-06
9.04002e-07
1.32536e-06
-2.27854e-06
9.52926e-07
0.000108024
-0.000106472
-1.54138e-06
2.27249e-06
-5.33119e-07
5.07731e-07
2.45553e-08
-4.5627e-07
3.8336e-07
7.34014e-08
6.79524e-08
3.91982e-07
-4.5985e-07
-1.16976e-06
9.26014e-07
2.43773e-07
-7.07179e-07
8.61937e-07
-1.54638e-07
-6.18672e-06
6.49839e-06
-3.1046e-07
-6.56401e-07
-5.48013e-08
-9.00963e-05
9.33714e-05
-3.27535e-06
-1.03399e-05
4.0085e-06
6.33062e-06
-0.000113012
6.81364e-06
0.000106195
1.15218e-06
-1.10698e-06
-4.52305e-08
8.69102e-07
1.52308e-07
4.15755e-07
-3.48234e-07
-1.66253e-07
-1.48503e-07
3.14621e-07
1.65815e-06
-6.24022e-07
-1.03482e-06
-1.46254e-06
6.05082e-06
-4.58797e-06
-4.11245e-07
1.29054e-06
-8.80509e-07
6.03169e-07
-5.88987e-07
-1.41972e-08
-8.09402e-07
1.5424e-06
-7.32963e-07
-0.000160858
0.000226463
4.80134e-06
-2.26491e-06
1.26538e-07
5.9157e-07
9.30817e-07
-1.73963e-06
-4.75691e-06
-1.22194e-05
1.69935e-05
-1.16124e-05
7.65935e-05
-6.49702e-05
1.79654e-06
7.75127e-07
-2.57179e-06
2.21021e-06
-2.49666e-06
2.85922e-07
0.00010053
-0.000106995
-1.99132e-05
6.77934e-05
-4.78786e-05
-1.01073e-05
-5.5843e-05
6.59532e-05
-0.000176264
-1.07983e-05
0.000187055
-1.21028e-06
9.63154e-07
2.46936e-07
4.91834e-08
-1.18849e-07
7.01772e-08
-1.03303e-06
4.90648e-06
-3.87332e-06
8.06787e-05
0.000134589
-3.45052e-07
-2.29003e-06
2.63922e-06
1.58926e-05
-0.000181566
-0.000685445
3.48621e-05
-1.96787e-06
9.02198e-07
0.000117748
0.000140618
-0.00025837
-0.000155048
9.67006e-05
5.83463e-05
1.01083e-05
-1.6447e-05
6.33926e-06
-1.38098e-06
1.6371e-06
-2.56051e-07
-1.83536e-06
-2.19179e-07
2.05386e-06
0.000141199
-4.678e-05
-9.44243e-05
-5.94562e-06
4.27132e-06
1.67644e-06
-6.14809e-06
2.04195e-06
4.1061e-06
-5.61914e-05
5.5016e-05
1.17537e-06
6.75491e-06
0.000113532
-0.000120292
1.08751e-06
2.60729e-08
-1.11438e-06
1.12786e-05
-8.95238e-05
7.82414e-05
-5.8999e-06
2.60909e-06
3.28868e-06
-2.31082e-06
-3.4595e-05
-1.32502e-06
-1.64195e-07
7.39096e-07
-1.20646e-07
-6.18034e-07
7.95332e-07
2.91885e-07
4.80656e-05
-6.74913e-06
-4.13299e-05
3.00773e-05
2.96468e-05
-5.97229e-05
-0.000148825
2.36219e-05
0.000555349
0.000463138
-0.00101846
1.7316e-05
-6.84369e-05
3.89608e-06
-2.09966e-06
-0.000107317
3.80386e-05
6.92767e-05
-0.000164743
0.000164743
1.23889e-05
-0.000100862
8.87008e-05
1.1549e-06
2.62469e-07
-1.41619e-06
9.12156e-08
5.54293e-07
-6.45757e-07
2.1074e-07
-3.77091e-07
-0.000135719
0.000198337
-6.26186e-05
-4.75618e-06
-1.30312e-06
1.14115e-05
-3.80838e-06
3.18339e-06
6.24669e-07
-6.85247e-07
2.8951e-06
-1.77168e-06
-4.14632e-07
2.1865e-06
0.000171335
-2.35969e-05
7.88569e-07
-2.11359e-06
5.54683e-05
6.00683e-08
3.76633e-07
-4.36573e-07
0.00013584
-2.29061e-05
-0.000112935
1.50788e-07
1.20357e-06
-1.3538e-06
-3.4293e-07
-7.76663e-08
4.20642e-07
-5.87897e-07
0.000266939
-0.000117669
-0.000149265
-2.43981e-06
1.20395e-06
1.2356e-06
5.10806e-05
-3.37658e-05
0.000118052
-2.75812e-05
-9.04639e-05
3.60872e-05
-9.93142e-06
-2.61552e-05
0.000150083
-5.30461e-05
-9.70369e-05
-1.411e-05
-0.000162146
-8.30744e-07
-5.31739e-06
6.46349e-05
-3.53284e-05
-0.00039415
1.25312e-05
0.00038162
-4.97632e-07
1.84382e-06
-1.34651e-06
6.46878e-05
-4.96135e-05
-1.50134e-05
5.63415e-05
-0.000119745
6.3406e-05
-2.83521e-07
-3.39538e-07
6.23102e-07
-7.17386e-07
1.01806e-08
-8.95955e-07
-3.14356e-07
5.31457e-06
-5.92179e-06
6.06926e-07
0.000242147
-0.00013398
-0.000108143
3.27519e-05
3.19725e-05
-0.000260242
0.000681354
-0.00042108
-6.91321e-07
6.53275e-07
3.80133e-08
-8.15918e-06
5.82084e-06
2.33761e-06
-2.60313e-05
2.22803e-05
3.751e-06
-1.87375e-07
-4.53323e-07
6.40651e-07
2.96529e-07
-2.48814e-07
7.55296e-06
-9.09287e-06
2.20201e-06
-8.76082e-07
6.74664e-06
-3.62679e-06
-3.12228e-06
6.97687e-07
-1.23056e-06
-2.13562e-06
5.529e-06
-3.39457e-06
3.19591e-05
-3.36551e-06
-2.85966e-05
-7.60132e-06
-2.22205e-06
-4.30128e-06
2.16509e-06
0.000325444
0.000101075
-0.00011267
7.48126e-05
7.52594e-05
-6.02549e-05
0.000118539
-5.82834e-05
-2.22977e-07
-3.19137e-07
5.41333e-07
0.000202353
-0.000189952
6.91002e-07
-2.02182e-06
1.33037e-06
-5.16061e-06
-1.17575e-06
0.000111062
-3.03685e-06
7.435e-05
7.14581e-06
-3.13408e-05
-1.08433e-05
4.2162e-05
-6.16411e-05
6.1641e-05
-1.13966e-05
-3.09817e-06
6.81749e-05
-3.80981e-05
3.43216e-07
-2.03932e-06
7.99359e-07
1.23976e-06
-6.24432e-06
2.59924e-06
3.64463e-06
-5.99321e-06
-4.34725e-06
-0.000135774
1.38702e-05
0.000121903
6.25563e-07
-4.25289e-06
0.000122307
-6.10151e-05
-4.54517e-05
-2.821e-08
7.06749e-07
-6.79115e-07
-8.71357e-08
1.15864e-06
-1.07191e-06
-5.56857e-07
-1.34503e-07
-1.22867e-05
1.0459e-07
1.21816e-05
-7.79908e-06
7.03443e-06
7.64406e-07
1.72007e-07
3.8353e-07
-5.56042e-07
-1.12486e-06
5.01065e-07
5.31797e-07
-5.11284e-07
-2.04932e-08
-2.98213e-06
-4.27233e-07
3.40872e-06
2.88424e-07
-5.1144e-07
3.85323e-05
-2.86049e-05
-9.92717e-06
3.8483e-06
-8.08778e-05
7.70475e-05
-2.26656e-07
5.08464e-07
-2.83234e-07
-8.1572e-05
5.63735e-05
2.51965e-05
-6.08299e-07
6.94838e-07
-8.65894e-08
-3.36524e-07
3.9004e-07
-5.35882e-08
-3.47951e-06
-2.76526e-06
-1.59424e-06
1.03221e-05
-8.7278e-06
-0.000102612
4.28225e-05
5.97923e-05
-0.00016728
5.99647e-05
2.97443e-06
3.77096e-06
-6.97861e-05
-1.65224e-05
8.63102e-05
0.000109238
3.06878e-05
-0.000139926
2.78326e-07
-8.83432e-07
-0.000274837
0.000144288
0.000130572
1.51921e-06
1.50386e-06
-2.39893e-05
-7.2529e-05
2.74366e-06
3.31303e-06
-0.000112588
0.000109275
-3.1543e-07
-1.29962e-06
1.61516e-06
1.07215e-05
-3.82625e-06
-1.8406e-07
-1.65145e-06
-1.44217e-06
2.13297e-06
-2.6781e-06
-3.26459e-06
-0.000232848
9.71292e-05
-0.000313383
7.11383e-05
0.0002422
1.46414e-06
-6.11307e-07
-8.52893e-07
-3.24589e-05
-5.58337e-05
8.82718e-05
6.85964e-05
-3.25075e-05
-3.89536e-07
4.66035e-08
-2.23534e-06
8.01654e-07
1.43325e-06
-6.79273e-05
-1.36441e-05
-6.05263e-07
-7.20199e-06
7.80729e-06
3.45339e-06
-0.000536954
0.000123603
-0.00013687
1.33071e-05
6.86836e-05
5.52765e-05
-0.000123953
2.45609e-05
-4.87367e-06
-1.96909e-05
-1.58227e-06
2.69537e-06
1.78246e-06
-4.57238e-07
-8.75187e-07
4.63208e-07
-4.40261e-06
-8.25893e-07
-1.21323e-06
4.97238e-07
-7.8975e-07
2.9242e-07
-1.14125e-05
-0.000137631
0.000149059
5.43809e-06
1.06016e-06
-1.78528e-05
0.000139307
-0.000121454
-9.0862e-05
0.000147205
1.36574e-07
3.95277e-07
0.000149958
-0.000345021
3.01099e-07
-3.36029e-05
4.42527e-05
-1.065e-05
6.33545e-05
-7.74314e-05
1.07561e-06
-2.6578e-06
-2.01467e-07
5.08703e-07
-3.07654e-07
-9.44446e-07
9.16107e-07
5.38574e-06
1.29843e-05
-1.83706e-05
3.85736e-07
3.671e-07
-4.37783e-08
1.11955e-06
-1.07602e-06
7.07271e-05
-1.36793e-05
-1.42354e-06
5.27275e-07
5.46304e-07
1.32766e-06
-2.43376e-05
2.20266e-05
5.47676e-07
1.72902e-06
-2.27699e-06
3.46469e-07
1.11746e-06
-1.72869e-06
2.80363e-06
1.5651e-05
1.63059e-05
-4.88698e-07
-1.12759e-08
4.99929e-07
-2.16891e-06
1.34323e-06
5.24378e-07
-3.52555e-07
0.000243709
-0.000518552
-3.35419e-05
0.000189306
-0.000155765
-1.33313e-06
-1.11667e-06
-2.01834e-06
6.36392e-07
1.38172e-06
-1.59401e-07
6.56733e-07
1.29008e-05
-0.00022819
0.000215292
-2.67038e-06
1.01807e-06
1.65172e-06
8.82134e-05
-1.38643e-05
9.83953e-05
8.52988e-07
-9.92477e-05
5.29286e-07
1.71648e-06
-4.25852e-07
2.76573e-07
1.4867e-07
7.73641e-07
9.90907e-08
-8.73658e-07
4.33379e-05
-0.000131995
8.86661e-05
-4.06675e-05
5.44029e-05
-2.98526e-06
7.92202e-06
-4.93743e-06
-4.30122e-07
-9.93594e-07
-0.00017953
0.000204271
-2.47692e-05
-2.18744e-05
5.45541e-06
1.6418e-05
-1.39057e-06
1.93817e-06
-1.43626e-06
0.00121849
-0.000549287
-0.000669203
-7.16967e-07
1.36065e-06
-6.43643e-07
-6.00811e-06
4.54583e-06
5.50021e-05
-0.000115258
6.90574e-06
-7.51103e-06
6.05791e-06
-2.40519e-06
-3.65386e-06
-7.41437e-06
-2.41103e-06
-7.79749e-07
7.35808e-07
-1.48269e-06
-1.18794e-06
-7.73577e-07
1.95335e-07
5.7835e-07
9.8774e-05
4.7545e-05
-0.00014632
2.00979e-08
7.18687e-07
-5.71588e-05
2.7133e-07
4.99731e-07
-1.57935e-07
-3.42334e-07
-0.000114747
0.000127076
-1.23186e-05
-1.40622e-05
-4.35314e-05
5.75947e-05
5.23296e-05
5.6419e-05
-0.000108747
3.84777e-05
-7.09344e-05
-8.61635e-05
-3.93269e-06
0.000155556
-5.09858e-05
-0.000104567
-5.75465e-08
1.21288e-06
3.63657e-05
-2.48439e-05
-1.15193e-05
0.000208125
0.00101037
-0.000130287
3.07456e-05
9.95398e-05
1.27387e-07
-4.63883e-07
-1.81051e-06
-2.69839e-07
2.08082e-06
6.5397e-07
-1.80052e-07
-4.73915e-07
4.32782e-06
-7.3143e-06
1.71206e-06
-1.09914e-06
-8.78737e-06
7.19279e-06
-7.79964e-08
3.1682e-06
-9.53525e-07
-2.33844e-05
-9.1582e-07
-1.25296e-06
5.55863e-07
-5.84249e-07
2.82999e-08
2.76254e-05
-2.16195e-05
-6.00711e-06
-5.1658e-07
-6.52951e-07
-2.64161e-06
-1.92315e-05
5.81918e-06
-4.19174e-06
-1.62755e-06
-2.46165e-06
-1.55576e-07
-6.17981e-07
-5.30028e-07
-1.87358e-07
-1.18076e-05
8.04929e-05
0.000105058
-4.58355e-05
-5.92195e-05
1.2335e-06
-8.86782e-07
5.51458e-07
-5.23384e-07
-2.80561e-08
-1.28942e-06
1.72348e-06
-4.34161e-07
1.75526e-06
-2.67038e-06
9.1464e-07
-4.51394e-05
3.85506e-05
6.58822e-06
1.4756e-07
-5.54443e-07
4.06913e-07
-4.87402e-05
0.00012836
-7.96129e-05
-1.65518e-05
1.55958e-05
-7.95038e-07
6.20992e-07
1.73996e-07
-1.02804e-06
3.109e-07
-0.000136015
0.000585732
-0.000449718
-6.51393e-05
-1.99586e-05
8.51005e-05
0.000295684
-0.000410445
-8.87572e-05
-4.15243e-05
-1.59393e-06
-7.9091e-07
2.38483e-06
2.19236e-06
-7.7785e-05
0.000130113
1.80428e-07
2.22883e-05
2.57706e-05
0.000766971
-0.00124809
0.000481156
-4.59656e-07
5.5074e-07
2.61657e-06
-1.65317e-06
-9.64124e-07
-7.58398e-07
1.9438e-06
-1.18495e-06
-1.91534e-06
-1.75215e-07
1.76467e-07
-1.25619e-09
-6.06503e-05
-4.19631e-05
-1.96344e-06
1.20581e-06
-9.58292e-08
1.53144e-07
-5.72124e-08
4.34083e-07
1.98889e-07
-6.33345e-07
-7.86151e-07
1.55954e-07
6.30172e-07
0.000174381
-0.000144747
-2.96383e-05
-0.00147117
0.000690119
0.000781053
2.75584e-06
-1.27009e-06
-1.48563e-06
-1.34919e-06
-0.000134388
2.13758e-05
3.30309e-07
-5.88277e-07
2.57985e-07
3.97317e-07
-5.78852e-07
1.8161e-07
1.18448e-06
-1.40749e-06
2.22802e-07
5.11983e-05
-3.1898e-05
-1.93021e-05
-6.50239e-05
5.09622e-05
7.32873e-07
4.19316e-07
4.65127e-05
-0.000306805
3.89551e-07
-1.23217e-07
-2.66647e-07
-5.0885e-07
7.96326e-07
-5.21546e-05
-8.65766e-05
0.000138732
-0.00010156
4.94058e-05
-3.23263e-06
1.69975e-06
1.53284e-06
0.000112258
-9.93682e-05
-0.000162719
-6.81065e-06
2.52158e-06
4.29039e-06
-1.33624e-05
0.000199574
-0.000186415
-9.67522e-07
7.05745e-07
2.62362e-07
3.77258e-08
1.25302e-06
-9.92666e-06
1.53116e-05
-0.000313391
0.000171211
0.000142234
-1.30831e-07
-1.12545e-07
-5.14673e-07
1.68919e-06
-1.17432e-06
-1.54865e-07
1.19527e-06
-1.04064e-06
4.31115e-07
-1.81217e-06
8.09059e-05
0.000186043
-3.58602e-06
2.41691e-06
1.16887e-06
-0.00013238
0.000148666
-1.6276e-05
1.7447e-06
9.73344e-07
0.000116396
1.35122e-06
1.51652e-06
8.38123e-09
6.15925e-05
4.3467e-05
-0.000619926
0.000619926
2.19238e-06
5.177e-06
-7.36643e-06
0.000199592
-0.000102319
-9.72843e-05
4.5831e-06
1.47487e-06
9.64718e-07
-2.17611e-06
-2.95424e-06
0.00017443
-5.05554e-08
0.000659081
-0.000450902
-0.000208183
2.18271e-07
-2.51447e-07
3.32111e-08
-9.90627e-05
5.0322e-05
2.70839e-06
-8.63822e-08
-2.62286e-06
-8.00205e-07
4.72799e-07
3.26283e-07
-8.10746e-05
-7.39737e-05
-1.18785e-05
7.5231e-05
1.00455e-06
-1.09197e-06
2.09129e-05
0.000114925
2.90584e-06
3.34578e-05
1.2526e-06
-1.93809e-06
-0.000607667
0.000607672
-3.56693e-05
-9.47074e-06
2.23276e-07
-7.32462e-07
1.63716e-06
-1.39242e-05
-0.000187474
0.00017606
-3.67261e-06
-0.000390477
3.39581e-08
4.49013e-06
-8.62117e-05
-0.000190761
1.1221e-05
-0.000560356
-0.000910815
1.61803e-05
-3.57769e-06
-1.26032e-05
-1.51769e-07
-6.33918e-07
-0.000123014
7.62315e-05
2.00232e-06
-1.46592e-06
2.51892e-06
-1.61498e-06
-9.04299e-07
8.00819e-06
0.000191586
0.00016015
-0.000173526
2.20902e-06
5.43139e-07
-2.75238e-06
-1.53771e-06
-1.6942e-06
2.95777e-06
-2.49036e-07
-7.4281e-07
-2.25245e-07
-1.02202e-06
2.54098e-06
4.66258e-07
1.87702e-07
-3.41469e-07
-1.14569e-07
6.66903e-06
-5.99309e-06
-6.76989e-07
-8.78103e-06
2.49086e-05
-1.61264e-05
-7.47088e-07
2.16985e-07
-4.80584e-08
-3.35555e-05
-1.39942e-07
1.89499e-06
-1.64563e-05
-0.000106863
0.000123319
-1.46927e-06
9.53932e-07
-6.42357e-07
3.40239e-08
0.000734553
0.000143943
-0.00087851
0.000243158
-0.000215705
-2.74085e-05
1.39466e-06
2.69793e-07
-1.66417e-06
-0.000117528
5.86093e-05
5.89146e-05
-3.51398e-07
-6.24645e-07
9.75899e-07
8.43773e-07
-4.7971e-08
-7.95828e-07
-7.38085e-05
1.27992e-05
0.000130359
-0.000265465
0.000135111
5.90728e-07
9.73127e-06
-3.90797e-08
4.48911e-07
-4.10135e-07
-2.03437e-05
0.000106495
-8.61553e-05
0.000402928
-0.000160756
6.78188e-07
-1.01748e-06
3.38993e-07
-6.44852e-07
-1.79513e-06
-2.34802e-06
7.54104e-07
-1.79045e-06
3.96995e-07
1.39356e-06
-4.80528e-05
0.000146826
-9.03864e-06
9.18543e-05
-8.28092e-05
2.65999e-06
-1.04957e-06
-1.6107e-06
-2.57503e-06
9.20653e-07
1.65435e-06
-1.45666e-05
4.49476e-05
-3.03682e-05
3.84811e-05
-0.000110959
7.24755e-05
7.94683e-05
-6.81965e-06
-7.2649e-05
-1.4156e-07
-3.90598e-06
1.06312e-06
2.84252e-06
-0.000389765
4.97011e-07
4.12797e-08
1.82139e-06
-1.86371e-06
-1.24198e-06
2.27466e-06
-1.03259e-06
-2.83382e-07
6.08226e-07
-3.24988e-07
5.51156e-06
-1.12515e-05
5.73875e-06
0.000221436
9.33124e-05
-0.000314753
-0.000262907
6.6987e-05
0.00019592
-0.000162592
-0.000150784
2.33419e-06
-8.08827e-05
3.98065e-05
4.10889e-05
-4.82161e-07
7.72953e-07
3.56078e-07
-3.50676e-07
-5.35483e-09
6.67913e-05
2.34444e-05
-9.02359e-05
0.000170401
-0.000163167
-7.23069e-06
-3.58774e-06
-4.57171e-06
0.000118043
-0.000205546
8.7502e-05
6.07357e-05
-7.08373e-05
0.00019517
4.80586e-05
6.73266e-05
-7.63643e-05
-1.46766e-05
3.93101e-05
-1.93333e-05
3.34699e-05
-1.41334e-05
0.000113893
8.92778e-06
-0.000122821
-2.99496e-05
4.036e-05
9.18535e-06
2.93463e-05
1.58885e-06
-1.04793e-06
2.49838e-05
-1.42401e-06
1.10892e-06
5.83868e-08
-3.55772e-07
2.97308e-07
-2.26302e-05
8.06047e-06
0.000917497
-0.000362118
-2.14281e-06
-1.72497e-06
-0.000186143
0.000233092
-4.69477e-05
0.000152458
1.30127e-05
-0.000165463
4.60949e-06
1.79455e-07
-4.78787e-06
-2.2955e-06
-1.5132e-06
2.83925e-06
-1.88255e-06
-9.56423e-07
0.000196893
-2.6502e-05
-6.88264e-05
8.6329e-05
-1.7499e-05
-8.26881e-05
-3.48502e-05
2.43439e-07
-4.37537e-08
-1.99483e-07
-0.000245337
5.91979e-05
-0.000161284
0.000114817
4.64654e-05
-4.54622e-06
3.34853e-06
1.19763e-06
3.37566e-07
5.18659e-08
-1.89719e-06
6.07619e-07
-2.97993e-06
-3.34163e-06
6.32068e-06
-9.4254e-05
0.000101007
-1.20998e-05
0.000112633
2.76454e-07
3.2277e-07
0.000132268
-2.12106e-05
-6.49073e-07
1.17651e-06
-5.27504e-07
-0.000106071
-6.51847e-06
2.21321e-06
-3.68046e-07
-3.72531e-07
-1.13869e-06
1.51112e-06
-7.08746e-07
2.88981e-06
-2.18094e-06
9.74696e-05
-5.89883e-05
-2.70305e-07
-1.55614e-07
6.33789e-08
-9.93128e-07
9.29643e-07
-3.38748e-05
2.50967e-05
-1.39985e-05
0.000105855
3.00513e-06
1.62718e-05
-1.92768e-05
-0.000261709
-4.97053e-07
4.5742e-07
-2.01117e-06
6.78061e-07
-2.02724e-06
-8.08703e-07
2.83577e-06
-3.24475e-05
-5.39115e-05
8.63601e-05
7.36735e-06
3.71915e-06
-1.10847e-05
-2.18155e-05
-1.95361e-06
2.37643e-05
-1.65426e-06
-1.73052e-06
3.38527e-06
-0.000196061
-6.68446e-05
1.97602e-05
6.16801e-06
-2.59273e-05
-4.14406e-06
6.63926e-07
9.8963e-05
-6.28022e-07
-3.27857e-06
-5.87289e-06
-1.9261e-06
1.92467e-07
-5.38357e-07
3.45707e-07
9.19559e-05
0.000310987
0.000101564
-3.0628e-05
-7.09347e-05
-7.69925e-06
1.28791e-05
-5.17886e-06
7.99737e-07
2.99624e-05
0.0001256
4.15631e-05
-9.90468e-06
-3.16585e-05
1.14795e-06
-1.28513e-06
1.37123e-07
-0.000138103
3.25041e-05
0.000105596
1.32212e-06
8.7901e-07
1.3494e-07
-5.96987e-07
7.9468e-05
-3.8952e-05
-4.86324e-05
8.75901e-05
7.21103e-07
2.03489e-06
-6.7688e-07
1.92935e-06
4.29352e-07
-3.69215e-07
-1.99552e-05
-1.13803e-05
-5.01504e-05
-1.69826e-05
6.71327e-05
-7.16238e-07
7.79526e-07
-0.000115364
-7.47114e-05
0.000190092
1.41778e-06
1.19854e-06
-3.94347e-07
4.55152e-07
-6.0969e-08
3.92408e-07
-7.43664e-07
1.04181e-05
-3.66143e-06
-6.75676e-06
-6.04939e-05
-2.03981e-05
-9.08815e-07
1.05973e-06
-7.30972e-05
8.34249e-05
2.96643e-07
9.36969e-07
-1.00667e-09
-0.000124403
0.000243133
-0.000123301
-0.000447231
-4.22312e-05
0.000489463
0.000123045
-9.15219e-06
6.77545e-05
-0.000119312
5.15706e-05
-3.68312e-06
1.25677e-06
2.42597e-06
9.36449e-05
8.96456e-05
1.96585e-05
0.000110707
8.2426e-07
3.70359e-06
-4.52833e-06
8.54257e-05
1.19713e-05
-9.73706e-05
-1.18218e-05
1.11087e-05
7.12657e-07
2.14863e-06
-2.07955e-06
5.89595e-06
2.97355e-06
-8.86853e-06
0.000101388
7.30385e-05
-5.03592e-06
7.22875e-06
4.10067e-06
1.20792e-05
-2.31706e-07
-1.2994e-06
1.53002e-06
4.90645e-06
-3.58709e-06
-1.31885e-06
-6.76365e-05
9.52251e-07
1.9557e-07
-6.36729e-05
0.000165962
-0.000102283
9.55879e-06
-4.04786e-06
-8.08977e-06
4.94015e-06
3.14853e-06
4.48363e-06
6.0017e-07
-7.52078e-07
4.90446e-07
-1.02986e-07
-3.87731e-07
0.000174344
-0.000149535
-2.48083e-05
4.35953e-07
-1.42905e-06
-1.37836e-06
7.29358e-07
-1.62689e-05
2.41534e-05
-7.88481e-06
7.26629e-07
-4.24792e-07
-3.0221e-07
1.07444e-05
1.14372e-07
1.63585e-05
-7.25491e-05
-3.11111e-06
2.76613e-06
-1.79762e-06
3.31299e-06
-1.51613e-06
-5.07607e-07
3.521e-07
-5.41327e-05
4.18889e-05
0.000120724
-1.14864e-05
0.000263693
-0.000262229
-1.52918e-06
1.40075e-06
-1.63266e-06
-5.38931e-05
-6.08934e-06
5.99817e-05
-2.71145e-05
9.44472e-05
3.45087e-05
5.74519e-05
2.82634e-07
-4.18638e-07
1.35917e-07
-9.46748e-05
2.58498e-05
3.7788e-06
-3.25435e-07
-0.00167759
0.00115248
-1.06248e-06
1.76088e-06
3.20043e-05
-8.06403e-06
-2.39495e-05
-6.54646e-05
-0.000142725
0.000208169
-0.000119538
7.37024e-05
6.97911e-06
-1.21244e-05
-0.000151886
0.00016401
-9.8283e-05
3.76313e-05
-2.13457e-07
1.49765e-07
7.96665e-05
-0.00010901
2.93442e-05
1.884e-07
4.1479e-07
-3.14215e-07
-5.73474e-06
6.04931e-06
4.54242e-06
-3.7183e-06
9.27821e-07
-1.41826e-06
4.90602e-07
-7.26524e-07
2.67498e-07
4.59031e-07
0.00010721
2.30699e-05
-0.000130281
-2.83066e-05
6.63205e-06
2.16741e-05
1.51488e-06
-6.5498e-07
-8.60278e-07
0.000109051
2.31745e-05
-6.41178e-06
9.37105e-05
-8.73032e-05
5.89388e-06
6.17018e-06
-1.20666e-05
-1.81515e-07
5.63752e-06
-4.50243e-06
-1.13624e-06
1.61645e-06
1.65859e-07
-2.00774e-07
5.31073e-07
2.61073e-07
-5.44426e-07
9.61435e-07
-1.45909e-06
-0.000126065
0.000347487
-2.7028e-06
1.99398e-06
0.000160674
5.8616e-06
-0.000166556
1.90882e-05
1.60911e-05
-3.51792e-05
-7.26299e-05
-6.89747e-05
5.1436e-05
-3.23478e-05
0.000202068
-8.52462e-05
-0.000116835
-6.31728e-06
7.44671e-06
-1.13096e-06
1.70142e-06
-1.921e-06
-0.000173415
0.000107953
5.57213e-07
-6.77538e-07
0.000136242
-2.01403e-05
-0.000116103
2.54945e-05
-0.000157792
0.000132297
-3.81439e-07
-4.19371e-07
-3.01242e-06
-2.18939e-06
5.20177e-06
3.74026e-05
0.000125495
-0.000162902
-1.44664e-05
5.04838e-05
-3.60217e-05
0.000136452
-1.84083e-05
-2.9741e-06
1.17552e-06
9.47088e-07
-7.94405e-07
4.23207e-07
3.71379e-07
7.1576e-05
0.000126761
0.00011606
-3.63933e-05
0.00021
-0.000191609
-1.84245e-05
-8.37849e-06
-3.44304e-06
-0.00018103
0.000177357
-0.000453929
-8.90097e-06
5.22341e-07
-0.000118263
0.000149236
-3.09717e-05
-0.000182952
9.68265e-07
0.000181981
0.00022187
-1.98312e-05
2.19052e-07
8.34818e-06
-3.69535e-05
3.33295e-05
1.09217e-05
-1.6972e-05
-1.13351e-05
-7.25261e-05
-2.57612e-05
7.8988e-07
2.70475e-08
-8.16953e-07
0.000119326
-0.000129038
9.7073e-06
-1.1436e-05
3.73702e-06
1.31169e-07
6.58601e-07
-0.00073156
0.00139672
-0.000665158
0.000453442
0.000205642
-0.000208682
9.04198e-05
-7.69775e-06
3.22576e-05
6.85163e-06
1.82119e-06
-8.67363e-06
-1.82892e-06
-6.99959e-07
2.52827e-06
-3.45783e-07
-3.80747e-07
-1.57168e-05
-4.63517e-06
1.35972e-05
1.89308e-05
-3.24868e-05
-1.70691e-06
-4.1941e-06
2.39597e-05
-2.10557e-05
1.53712e-06
-1.2569e-06
-2.80077e-07
-2.42183e-05
4.39798e-05
-4.58264e-05
2.5914e-05
2.59747e-07
-9.58183e-07
6.98151e-07
3.21984e-06
-2.44515e-06
1.36927e-06
-2.19824e-06
8.2888e-07
8.9664e-06
-2.90628e-06
-6.06014e-06
1.4804e-07
1.46837e-06
-7.48381e-05
6.84228e-05
0.000171837
-3.91896e-05
-0.000132649
0.000111576
-3.49748e-05
1.01596e-08
8.1802e-07
-6.87026e-07
-5.43176e-07
-2.50594e-07
-5.52073e-05
-0.000127746
6.11305e-05
5.04468e-05
-7.87814e-06
-3.82608e-06
-0.000168946
3.08438e-05
2.48077e-05
1.80489e-06
-2.66137e-05
-0.000263735
0.000276262
2.02017e-06
-3.08242e-06
-3.75863e-07
6.16418e-08
3.14269e-07
-4.63801e-05
1.70726e-05
2.92715e-05
3.24555e-06
-1.03681e-06
0.000239818
4.4509e-05
-0.000284345
-2.17382e-05
1.14476e-05
-9.07344e-06
-2.37661e-06
5.56021e-06
-0.000141335
1.20746e-06
-8.87226e-07
-3.21021e-07
-9.37074e-05
-2.45244e-05
0.000118232
0.00016597
-0.000170115
4.14452e-06
-3.44463e-05
6.72248e-05
-4.01881e-07
1.75264e-07
4.35319e-07
-3.11247e-07
-1.2402e-07
1.31568e-06
1.99159e-07
-9.83839e-07
-8.10897e-07
1.79476e-06
-0.000182746
0.00025489
-7.2144e-05
4.99213e-07
3.39641e-06
5.46878e-07
1.13084e-07
-6.59802e-07
-0.00134974
0.000618173
3.69734e-06
-4.64382e-06
9.46939e-07
-5.18555e-05
1.94087e-05
-2.29417e-05
1.5932e-05
7.01021e-06
-2.22746e-06
-2.87883e-07
-5.07157e-07
0.000166383
-6.49971e-05
7.86683e-08
-1.97235e-07
-3.45713e-07
6.05305e-07
-0.000541799
1.38106e-05
-7.22899e-06
3.92367e-05
-4.25386e-07
3.77449e-07
-2.36453e-05
7.22597e-07
-3.47987e-05
2.03265e-05
-5.86306e-07
-1.07024e-07
6.93179e-07
4.59555e-07
-1.70142e-06
1.55194e-06
-5.24176e-07
1.17925e-05
-5.90038e-06
-8.22671e-05
-3.72694e-05
-9.03597e-07
0.000130784
-0.000161966
3.1183e-05
-8.00607e-07
9.48258e-07
0.000140562
-8.50883e-05
0.000189284
-0.000143787
-4.54719e-05
-2.85658e-05
0.00024289
8.25636e-05
2.70173e-07
-1.91978e-06
9.05627e-08
7.66139e-05
-3.33133e-05
-6.74286e-08
-5.21576e-07
-0.000103416
0.000305636
8.67508e-08
-6.73213e-07
-2.97906e-07
3.84428e-07
-8.64317e-08
-4.65723e-07
2.89464e-07
1.7654e-07
1.01526e-06
-3.9762e-08
-9.75669e-07
0.000142387
-2.41886e-05
-0.000118199
3.20583e-07
-7.2372e-07
4.03424e-07
1.42404e-06
-9.88143e-07
-5.77655e-07
-1.44084e-06
-2.57593e-08
5.72748e-07
-0.000311781
-0.00027559
0.000587379
3.12286e-06
-3.08698e-06
-3.61199e-08
1.118e-05
8.62875e-05
-5.47551e-07
9.39839e-07
1.18273e-06
-2.16645e-06
4.98827e-07
1.83083e-05
0.000147662
-0.000111732
-5.30116e-05
-0.000793082
0.000128426
-0.000260807
-4.48056e-07
1.50178e-07
6.4585e-05
3.12718e-05
-7.02217e-05
-4.72826e-07
-1.31798e-06
-1.19478e-07
1.54854e-06
-1.42888e-06
5.94374e-05
-4.72762e-05
-1.21614e-05
-0.000139945
0.000123489
4.50759e-07
1.61005e-06
-2.06084e-06
0.000106408
7.56074e-05
-0.000182016
-6.02425e-05
0.00037917
-0.00031902
1.74678e-06
4.92185e-06
3.6814e-07
-8.57205e-08
1.66382e-05
-5.61908e-06
-1.1019e-05
9.6388e-07
3.94272e-06
3.60576e-06
1.30323e-05
-2.57202e-05
-3.0327e-05
5.60388e-05
3.56888e-05
0.000153599
-9.9378e-07
4.64037e-07
5.29924e-07
-7.58137e-05
9.30835e-05
-1.72707e-05
4.02439e-07
4.15525e-07
4.63586e-05
-0.000141714
9.53602e-05
-2.19401e-05
4.9676e-06
-7.72646e-06
-1.0609e-06
-1.03597e-06
9.41105e-05
-0.000109544
1.54331e-05
0.000163521
-3.27376e-05
0.000140143
0.000157888
-0.000298174
2.68445e-07
1.71135e-05
-1.80673e-05
-9.31816e-08
6.93436e-07
4.34301e-05
-6.2818e-07
-6.57094e-07
4.21521e-06
-1.55517e-06
-2.66046e-06
3.6126e-07
-7.97421e-07
4.36124e-07
3.18625e-07
5.37044e-07
-8.5579e-07
9.86934e-06
1.58386e-06
-1.87074e-06
-1.71488e-06
-2.57331e-06
2.55326e-06
2.03221e-08
-2.29621e-05
4.58735e-05
-2.29165e-05
-8.28606e-07
-1.30077e-07
9.58507e-07
5.89232e-05
4.26407e-05
3.90618e-07
-1.47535e-06
-0.000137217
0.000203041
-6.58577e-05
2.35312e-06
-1.93315e-06
-4.20184e-07
-0.000322733
0.00101285
-1.1994e-05
6.60206e-06
5.39134e-06
1.04501e-06
0.000128464
0.000327732
-0.000170539
-0.000157179
-0.000247731
2.25172e-06
-5.50476e-07
5.52147e-06
5.29118e-07
2.33873e-05
-2.62875e-05
-6.07907e-05
-0.000196392
0.000257183
1.50659e-06
-1.62589e-06
6.30088e-07
-2.40175e-06
-4.58854e-07
4.04091e-07
5.53183e-08
9.43191e-05
-0.000157989
-2.33199e-07
5.28063e-07
-2.94784e-07
-1.63611e-05
1.92674e-05
-2.90691e-06
-0.000196558
1.38125e-05
5.25378e-07
2.59684e-06
-1.45178e-07
1.00109e-07
4.51101e-08
-2.79948e-07
-9.58782e-08
7.10627e-07
-1.67044e-08
-6.93791e-07
8.49755e-06
-1.02403e-05
1.74212e-06
3.45214e-07
-0.000350173
3.83896e-05
1.77709e-06
4.0353e-07
-2.18137e-06
-4.81975e-07
-5.11898e-07
3.64433e-06
-1.23456e-06
-2.41068e-06
9.79954e-06
-6.36932e-05
-6.90659e-07
-5.31445e-07
1.22194e-06
-1.6034e-06
2.25115e-07
1.37762e-06
-1.90934e-07
-1.46278e-06
8.34477e-07
-1.05281e-05
5.8475e-06
4.68064e-06
-0.00015559
-0.000671301
0.000826893
6.09835e-06
0.000202915
0.000531636
1.13089e-06
1.19599e-07
-1.25116e-06
8.24114e-07
3.82915e-07
-9.21501e-05
3.31605e-05
-2.72551e-05
9.50145e-05
9.1064e-05
6.96048e-05
2.15521e-05
-1.55232e-05
-6.02748e-06
-3.86514e-06
1.12391e-05
-0.000239107
1.36663e-07
-6.84239e-07
-5.41096e-06
2.39854e-06
-7.34501e-05
8.46284e-05
7.58643e-05
1.82456e-05
5.43601e-05
-6.62463e-05
-6.64408e-10
-8.2789e-07
-9.67109e-06
-2.32349e-06
7.56725e-06
0.000790553
2.34434e-06
3.90748e-05
-8.55553e-05
4.64798e-05
4.80973e-07
-1.05196e-06
5.71493e-07
-4.52755e-06
-1.81029e-05
-6.08977e-06
3.10953e-06
2.42776e-05
0.000156007
-0.000180274
-5.90835e-06
-6.29503e-05
6.88586e-05
0.000285006
-2.13286e-05
5.02118e-07
-9.92667e-05
1.89888e-05
8.02664e-05
-7.73186e-08
-9.78976e-08
3.2505e-07
-4.44122e-07
1.18901e-07
-6.24144e-06
3.01992e-05
6.00279e-09
-5.96892e-09
1.0275e-07
3.8788e-07
3.48731e-05
8.87222e-05
8.18564e-05
-5.03035e-05
-3.15449e-05
5.51201e-07
0.000173707
-6.64966e-05
-7.14497e-06
1.15042e-05
-4.35805e-06
3.22754e-07
-2.67528e-08
-0.00021823
0.000346648
-4.65253e-08
-9.8686e-08
-1.01996e-06
-5.45022e-05
5.55525e-05
1.35268e-06
2.99209e-05
-3.12732e-05
-1.9724e-05
0.000110355
6.33512e-05
0.000209063
-6.84458e-05
2.65772e-05
-3.74196e-05
1.10928e-07
1.32655e-07
-4.46e-07
8.07166e-07
5.90921e-07
-1.49135e-06
9.0048e-07
2.80589e-07
1.65696e-07
-4.46447e-07
-6.65098e-07
3.16352e-07
3.48779e-07
-7.12958e-07
-2.31607e-07
5.45371e-05
-6.32917e-05
8.76113e-06
3.93692e-05
-0.000119237
7.98815e-05
4.13061e-07
6.28183e-08
-4.75613e-07
-1.8756e-05
4.79876e-05
-2.92341e-05
-3.88681e-06
3.92296e-06
-3.66826e-08
-9.11029e-06
1.51024e-06
-1.27101e-07
1.43737e-06
-1.31018e-06
1.15445e-06
-2.36442e-08
2.73738e-05
-0.000121081
3.67898e-05
-0.000131216
8.45672e-05
-4.54925e-05
0.000209436
-0.000169693
-3.97286e-05
-5.297e-07
-2.04345e-06
-1.41674e-06
6.85534e-06
5.37495e-05
7.80858e-05
-0.000131835
8.90504e-07
-1.84634e-07
1.83541e-05
3.28421e-05
-0.000195796
0.00043561
-1.16233e-05
-2.25396e-06
1.38698e-05
6.50952e-06
-0.000120445
0.000113933
7.33822e-07
4.69904e-07
-1.16058e-06