/*--------------------------------*- C++ -*----------------------------------*\
| =========                 |                                                 |
| \\      /  F ield         | OpenFOAM: The Open Source CFD Toolbox           |
|  \\    /   O peration     | Version:  v2012                                 |
|   \\  /    A nd           | Website:  www.openfoam.com                      |
|    \\/     M anipulation  |                                                 |
\*---------------------------------------------------------------------------*/
FoamFile
{
    version     2.0;
    format      ascii;
    class       volScalarField;
    location    "400";
    object      nut;
}
// * * * * * * * * * * * * * * * * * * * * * * * * * * * * * * * * * * * * * //

dimensions      [0 2 -1 0 0 0 0];


internalField   nonuniform List<scalar> 
18166
(
0.000487309
0.00046038
0.00046858
0.000611204
0.00546758
0.000516591
0.000457255
0.000400533
0.0175282
0.00808493
0.000462921
0.000460879
0.00894321
0.0015826
0.0156542
0.00171904
0.000464961
0.00833273
0.000460251
0.00649512
0.000832883
0.000465003
0.000815678
0.000463008
0.000459578
0.000457422
0.000478163
0.000464037
0.000459086
0.00062688
0.000612667
0.000452585
0.000458621
0.000460147
0.000451114
0.000462998
0.0180459
0.00046318
0.000453623
0.00837697
0.000468552
0.0064873
0.000458522
0.00045926
0.000489269
0.000465198
0.000557424
0.000199395
0.00086996
0.000473701
0.000484301
0.000486243
0.000863283
0.000467438
0.00046319
0.00608919
0.00646048
0.000968404
0.0004588
0.000459513
0.000550888
0.000458937
0.00703207
0.000470824
0.00189763
0.000464097
0.0145534
0.0193386
0.00843874
0.000465168
0.000451231
0.000457005
0.0004884
0.000459254
0.000497242
0.00859639
0.000877513
0.0091191
0.000460005
0.000463832
0.000468418
0.0196608
0.000463395
0.000462603
0.000453701
0.000453768
0.000459755
0.000460758
0.000486087
0.000453795
0.00495099
0.00051065
0.00503065
0.000468985
0.000468488
0.000453826
0.000453291
0.000593162
0.000460894
0.000463438
0.000461022
0.000465516
0.0144394
0.000470628
0.000465202
0.000465677
0.000609939
0.00642699
0.000460081
0.000463706
0.00375271
0.0186296
0.0163876
0.0141775
0.000465719
0.000451984
0.000602773
0.00298594
0.000458419
0.0190195
0.010702
0.000459043
0.00314485
0.0147157
0.000710717
0.000461029
0.000465949
0.00841049
0.000468389
0.000503286
0.00077655
0.00489993
0.000457417
0.0136142
0.000465791
0.000553756
0.000463282
0.00045919
0.000458121
0.00552539
0.0165266
0.00211056
0.00394707
0.0130248
0.000460017
0.00889785
0.000432017
0.0120121
0.000453243
0.000459611
0.00045354
0.0111486
0.000759322
0.000716675
0.000468305
0.000464004
0.000457659
0.00520278
0.00046344
0.00837046
0.000454859
0.0181462
0.000459404
0.000457635
0.000486463
0.00508633
0.000465647
0.0124885
0.0198781
0.00305158
0.00104456
0.0129755
0.000500179
0.0191244
0.00499897
0.000460121
0.00254187
0.0194193
0.000459941
0.000460809
0.000465661
0.000494654
0.0012096
0.00236911
0.00671562
0.000458914
0.000541876
0.000594761
0.00046311
0.000451934
0.000561211
0.000460148
0.000481961
0.000463124
0.000481727
0.00220328
0.000507115
0.000480613
0.00330996
0.00744465
0.00103165
0.0140163
0.000452386
0.0114969
0.000458131
0.000486924
0.0197864
0.00460533
0.0064702
0.000395367
0.0055605
0.0170086
0.000460201
0.000464653
0.000485824
0.000503533
0.00209003
0.000595583
0.0200797
0.0194515
0.000457922
0.000460668
0.000459245
0.00054635
0.00448607
0.000456389
0.00057879
0.000458742
0.000459106
0.000452447
0.00515649
0.0166326
0.00045485
0.0110938
0.000462349
0.000453678
0.000484216
0.000532615
0.0141383
0.00768942
0.000481877
0.0190912
0.00711801
0.000459353
0.0128418
0.000458816
0.000607489
0.0188469
0.0146383
0.000457192
0.000491491
0.000465751
0.000458196
0.000467673
0.00964307
0.00337841
0.000464733
0.0194476
0.00410551
0.000457954
0.000464434
0.0104775
0.000558332
0.000847685
0.00188237
0.0182222
0.0165546
0.000459433
0.00046867
0.000463971
0.000477197
0.000464564
0.000460118
0.0188738
0.000486206
0.00553932
0.0192096
0.00045852
0.00731661
0.000453345
0.000548391
0.0155643
0.000459083
0.000452252
0.000457782
0.000639507
0.000458826
0.000455129
0.018452
0.000466047
0.000464427
0.000543198
0.000459714
0.000464742
0.000459304
0.00297572
0.000456964
0.000465035
0.000456627
0.0116223
0.0185068
0.000463865
0.000457399
0.000460054
0.00977669
0.000458319
0.00611914
0.000751341
0.0004591
0.000451629
0.000457214
0.00586544
0.00872196
0.000466054
0.000465735
0.00409939
0.000740696
0.000459842
0.000464339
0.000429886
0.000460271
0.000460483
0.0153337
0.000552679
0.000490433
0.00047412
0.000455185
0.000458375
0.000452932
0.01721
0.000459293
0.0127633
0.000452051
0.000452236
0.00191085
0.0175984
0.00102384
0.0196945
0.00663837
0.0185626
0.000453196
0.0159811
0.0005163
0.0101154
0.000453605
0.000463503
0.000457192
0.000466438
0.000456303
0.000524315
0.000459021
0.000538562
0.000464846
0.000459547
0.000707263
0.00045957
0.000702646
0.000481753
0.000463363
0.000453078
0.000461127
0.0177731
0.00345367
0.000464814
0.000457424
0.000461771
0.000468761
0.000829854
0.000468969
0.0131175
0.0102081
0.000460268
0.000460335
0.00289032
0.0186129
0.00351298
0.00969757
0.000468205
0.000482122
0.00104174
0.000452329
0.00673801
0.00598348
0.000459706
0.000458786
0.000460571
0.000464395
0.00046893
0.0147397
0.000460476
0.000451494
0.00046004
0.000454194
0.0142869
0.000773861
0.00046799
0.00046517
0.0037079
0.000457886
0.000458168
0.000456946
0.00139989
0.0176585
0.000468887
0.00825296
0.000453684
0.000452577
0.00528345
0.0077124
0.000458496
0.00827598
0.00406311
0.000506234
0.00782057
0.000457403
0.000462872
0.000639867
0.00166709
0.000450793
0.000464466
0.00045552
0.000461102
0.00627567
0.00045978
0.00787423
0.000468813
0.0028927
0.000460105
0.00374901
0.000423997
0.000463052
0.00340257
0.000495603
0.000455482
0.000480634
0.0133386
0.0107658
0.000467004
0.0134147
0.000472187
0.000454025
0.014112
0.0168606
0.000460504
0.0179938
0.016077
0.000464185
0.000540598
0.000889079
0.000452587
0.000533561
0.0184171
0.00437784
0.000485767
0.0135207
0.00603052
0.000491891
0.000570914
0.000454226
0.0074042
0.000460492
0.000458301
0.00465564
0.00730913
0.000458204
0.000458519
0.000472139
0.000457055
0.000458872
0.000457093
0.000453959
0.000563177
0.0153853
0.000461164
0.000544623
0.000469103
0.0100829
0.000464543
0.000462579
0.00543343
0.0148186
0.000563305
0.0184404
0.000461845
0.000462102
0.0193502
0.00777649
0.000538983
0.000453413
0.00177368
0.00147718
0.000466676
0.000465989
0.000467905
0.000457343
0.017624
0.0193921
0.000458548
0.000457896
0.000948427
0.00946961
0.00128805
0.000451431
0.000458626
0.00942863
0.000458274
0.000465609
0.000464058
0.000455318
0.000533032
0.00285958
0.0111303
0.0019351
0.000463623
0.000920698
0.000459414
0.000469031
0.015388
0.0103847
0.000537137
0.0191011
0.0168636
0.013748
0.019225
0.000915353
0.0190244
0.0058675
0.000567067
0.00676858
0.000460791
0.000717053
0.000456995
0.000454111
0.000852744
0.00525926
0.000458731
0.0031521
0.010021
0.000482856
0.00046813
0.00045999
0.0110265
0.0179215
0.0188675
0.000452021
0.00256776
0.00819631
0.000458811
0.000453881
0.0004619
0.0004619
0.00526653
0.00508448
0.000467961
0.0198181
0.000465048
0.0147213
0.000460319
0.000457203
0.000463513
0.0081134
0.000451632
0.000463302
0.0159145
0.0195827
0.000677385
0.0134496
0.000453301
0.000464149
0.000466673
0.0103036
0.000883915
0.00406501
0.00046763
0.0121179
0.0198923
0.000484495
0.000386771
0.000458674
0.00603811
0.000455171
0.00151955
0.0184532
0.000829245
0.000457635
0.0181962
0.00559283
0.000463097
0.00750568
0.000459905
0.000468074
0.000377204
0.0187895
0.000467977
0.000464392
0.000454213
0.00492307
0.017407
0.000463162
0.00127871
0.000459134
0.000452335
0.000461946
0.000592805
0.000959127
0.000459582
0.0083358
0.000464857
0.000459421
0.0189698
0.00159049
0.000550247
0.00433844
0.00816956
0.000458823
0.00882102
0.00872884
0.000460452
0.00709506
0.00061636
0.000459693
0.000505431
0.0132979
0.000463868
0.000562141
0.000457408
0.000470953
0.00826803
0.000463362
0.0195021
0.000538336
0.00057936
0.000499382
0.000454139
0.000453634
0.00531659
0.000463585
0.000465108
0.000624513
0.000454482
0.000551383
0.000452361
0.000766127
0.00045849
0.000468226
0.00045323
0.00201171
0.00528095
0.00531227
0.00045727
0.00504772
0.0192668
0.00140286
0.000451837
0.0179572
0.00045919
0.00216952
0.000463459
0.00082313
0.00600032
0.00453843
0.0016234
0.0041846
0.0160742
0.00045085
0.00362246
0.000460695
0.000468
0.000460106
0.000460818
0.000463515
0.0105488
0.000532816
0.000455706
0.019695
0.00881057
0.000579107
0.000450958
0.000463304
0.000468631
0.000457733
0.000455426
0.000459935
0.00325164
0.000462675
0.0147365
0.0118789
0.00654107
0.00974436
0.00181782
0.000463435
0.000466305
0.00698386
0.00045928
0.0102822
0.011148
0.000454234
0.000476261
0.015562
0.0199265
0.0190747
0.000468978
0.00046328
0.00045622
0.0105125
0.0051791
0.0107325
0.000628036
0.00408166
0.00192851
0.000606336
0.00430806
0.00594158
0.00181887
0.000461851
0.00620307
0.000555967
0.000525769
0.0165542
0.000457347
0.00064991
0.000828626
0.000457223
0.00501117
0.011555
0.00505628
0.016328
0.000478039
0.000465201
0.000463825
0.00161121
0.00939957
0.000464635
0.0162501
0.000459402
0.0201736
0.0189255
0.000458752
0.000460225
0.000468836
0.000495299
0.000468516
0.00864648
0.000631451
0.00539081
0.000457075
0.000457088
0.000456335
0.00644443
0.00544686
0.000484027
0.00799193
0.000534695
0.00562462
0.000463602
0.00046557
0.00402101
0.000458255
0.00880173
0.0012475
0.000728358
0.00239002
0.00045554
0.0115129
0.0194401
0.00195624
0.000454696
0.000456721
0.000455864
0.000465838
0.00131839
0.00046005
0.00045472
0.00658509
0.000459326
0.0100111
0.00134483
0.000500099
0.00046053
0.0142218
0.00045199
0.000459237
0.00534096
0.000872705
0.000462124
0.00149929
0.019771
0.000454632
0.000464345
0.000460684
0.000594778
0.00405605
0.000463264
0.00349284
0.000468756
0.00730341
0.0104839
0.00408314
0.00444733
0.000583668
0.000465585
0.00454857
0.000461003
0.0100609
0.00045466
0.00045839
0.000452257
0.000454451
0.0136477
0.000456037
0.000463693
0.000457263
0.000454609
0.00742263
0.00045875
0.00699421
0.000461955
0.000466275
0.000463088
0.0194905
0.00175254
0.00227676
0.00625759
0.000458413
0.0162193
0.0185502
0.000457333
0.000461607
0.00550786
0.0121385
0.000459508
0.000712187
0.0175127
0.000562231
0.000452078
0.000513183
0.000470859
0.000513724
0.0199269
0.0109377
0.000452622
0.00585549
0.000457042
0.00363379
0.000522073
0.000518543
0.000460758
0.00463752
0.00518557
0.00810209
0.000466513
0.000531333
0.000454086
0.00427464
0.000463558
0.00047716
0.00045497
0.000459347
0.000728735
0.000459477
0.000464163
0.00805711
0.000464491
0.0184987
0.000463904
0.00432437
0.000458905
0.000714487
0.000709878
0.00045844
0.00699749
0.00242986
0.018149
0.000466333
0.000461141
0.000868426
0.0180438
0.000461565
0.00045771
0.000455447
0.0195474
0.000453062
0.000584461
0.00132695
0.000458851
0.000451889
0.000465949
0.000460195
0.000516301
0.000454342
0.00559267
0.000471408
0.000452714
0.000458964
0.00668638
0.00046003
0.000458182
0.000458038
0.000463613
0.000533888
0.000822734
0.000943233
0.00669172
0.000454808
0.000455486
0.00723391
0.00760705
0.0137612
0.00393961
0.000935641
0.000467601
0.000462061
0.000473554
0.00487838
0.00628554
0.0174191
0.000464863
0.000711171
0.000554961
0.00473213
0.012013
0.000462786
0.000812209
0.000462255
0.00654553
0.00895868
0.00718082
0.000457324
0.00471821
0.000468375
0.000451731
0.0163192
0.000469367
0.000453724
0.00240471
0.00800645
0.000460119
0.00870994
0.000952062
0.00045194
0.00470324
0.000451957
0.00272488
0.0137257
0.00063305
0.00863183
0.00385639
0.00493065
0.000451924
0.000455271
0.000459692
0.000452775
0.000452384
0.000457398
0.0187946
0.0183267
0.000456137
0.00161704
0.000474384
0.000503654
0.000461733
0.000454882
0.0125909
0.00916157
0.00995215
0.0163351
0.000464365
0.000486042
0.00216773
0.000457713
0.00132571
0.00892192
0.0110644
0.0169892
0.000456002
0.000460095
0.000456827
0.000463802
0.000569099
0.00832457
0.000453491
0.00470817
0.000464879
0.000469106
0.000457769
0.00440576
0.0066249
0.000462019
0.000455468
0.00492751
0.000460358
0.00615138
0.00611623
0.000458741
0.00306536
0.000458427
0.00571138
0.00551172
0.0181373
0.00196846
0.000464773
0.00054253
0.0069293
0.000459113
0.00208835
0.0103024
0.0135489
0.000458335
0.000499689
0.000457255
0.000458308
0.0141466
0.00781068
0.000934577
0.000661743
0.000452586
0.00102768
0.000507255
0.000453978
0.000727345
0.00782469
0.00565715
0.00832393
0.00049048
0.00359468
0.00579191
0.000452833
0.000454744
0.000468713
0.000908767
0.000479186
0.000458927
0.000470796
0.000575772
0.000460027
0.000813018
0.000463747
0.000780468
0.019074
0.0183495
0.017944
0.00106446
0.000457625
0.000458421
0.00908008
0.000759532
0.000456839
0.000456055
0.00370366
0.000481696
0.000730337
0.000465436
0.000454041
0.00669017
0.005516
0.00420696
0.000462797
0.0194283
0.000458722
0.0010974
0.0190324
0.000458418
0.000534307
0.000524044
0.00783125
0.00526358
0.000457098
0.00358945
0.0146191
0.00362977
0.00048284
0.0183351
0.000478339
0.00106218
0.000468898
0.000468597
0.000461944
0.000461677
0.000454968
0.000485694
0.000461497
0.00492307
0.000460519
0.00045708
0.00801265
0.000463385
0.000575727
0.00385013
0.00482832
0.00588679
0.00045438
0.000459103
0.000458354
0.000468936
0.0183811
0.00445558
0.000753594
0.00585902
0.0130393
0.00045683
0.00048987
0.000456986
0.000468961
0.000468406
0.0004539
0.000481843
0.000451837
0.000464619
0.00045911
0.000464775
0.000729034
0.000829743
0.000458767
0.00681125
0.000461861
0.000457255
0.00899413
0.000471797
0.0126344
0.00183277
0.000574447
0.00182855
0.00125599
0.00682007
0.000454257
0.0150978
0.000461301
0.00485946
0.000471951
0.0200538
0.0142262
0.0137901
0.000500926
0.0187329
0.00045994
0.000466999
0.000458201
0.0142004
0.000485954
0.0189299
0.0174298
0.00805939
0.000456434
0.00461988
0.00908729
0.000459749
0.00045391
0.000507899
0.00045875
0.0187594
0.000471462
0.000460064
0.00706657
0.00046411
0.00507521
0.000459328
0.000457674
0.00576317
0.000458843
0.00525875
0.00045572
0.0198131
0.000464168
0.0086075
0.000468323
0.000452516
0.00406042
0.00102714
0.000455149
0.000456465
0.011111
0.000451727
0.000459823
0.00946712
0.000458767
0.0123622
0.00832914
0.00046722
0.00647827
0.0194358
0.000789618
0.000604356
0.000457782
0.00483351
0.00045913
0.000650747
0.000455004
0.000557641
0.00045905
0.0004543
0.000946369
0.000465502
0.0101458
0.00676453
0.017797
0.00045873
0.000459364
0.000467419
0.000453329
0.000673926
0.000451954
0.00271098
0.00502517
0.00665201
0.0195033
0.00289511
0.0108768
0.0017853
0.000453389
0.000529888
0.000459872
0.000645254
0.000621663
0.000453878
0.0115962
0.000464111
0.000497708
0.000464123
0.00520074
0.0173391
0.000453642
0.0182
0.00845741
0.00051159
0.000480669
0.000513967
0.00501914
0.00112742
0.008398
0.000465275
0.00781543
0.000700463
0.0191221
0.00423499
0.00895116
0.000619034
0.00215578
0.000929076
0.0070316
0.00045662
0.0185658
0.000453299
0.000453261
0.000453295
0.000463142
0.000460769
0.000452019
0.000458828
0.000465042
0.00807225
0.0186351
0.00242568
0.00261073
0.000453423
0.000458455
0.000459763
0.00513742
0.00296048
0.000459398
0.000448472
0.000461771
0.000460478
0.000515663
0.0156183
0.000465466
0.018002
0.000458467
0.00380277
0.000452729
0.00125635
0.000463499
0.00226658
0.00046527
0.000464971
0.000574257
0.0073331
0.000461806
0.000459432
0.000466263
0.0193828
0.00048237
0.000456354
0.000573014
0.0141442
0.000518405
0.000791176
0.000468274
0.000551105
0.00912076
0.000456569
0.00428007
0.000452738
0.00358253
0.00045325
0.00259285
0.000456373
0.0089279
0.000462339
0.000457651
0.000466679
0.000464929
0.000507478
0.000460244
0.000469029
0.0112859
0.000461681
0.000466836
0.013587
0.000460108
0.00330127
0.000556694
0.0187342
0.00167272
0.0196461
0.000459725
0.00440961
0.00130325
0.000456729
0.00621445
0.000463191
0.00045974
0.000892786
0.000458218
0.00710991
0.000455298
0.000594923
0.0120927
0.00125525
0.000454949
0.0189685
0.000452419
0.000960282
0.00051003
0.000467316
0.00549196
0.00847546
0.00761141
0.0135107
0.0141935
0.000479799
0.00107157
0.00512549
0.00272751
0.000453577
0.00598672
0.000466567
0.00895831
0.00427549
0.000751137
0.000778635
0.000530395
0.00045264
0.0185216
0.000457572
0.00729515
0.00238128
0.00683035
0.000457689
0.000472139
0.00848986
0.000460057
0.000771079
0.00575954
0.000458918
0.0170803
0.000465217
0.00218699
0.000457783
0.00349835
0.0037294
0.0168209
0.0201546
0.000398891
0.0112286
0.00344849
0.000460142
0.00467984
0.00660171
0.000460116
0.000458576
0.000453299
0.00151772
0.00626107
0.0159743
0.000564229
0.00146682
0.000483427
0.000453896
0.000464554
0.000461032
0.00463148
0.00527118
0.0176175
0.0106911
0.00047359
0.000457291
0.0150969
0.000453031
0.000459615
0.000454157
0.0147831
0.000458864
0.000464439
0.0130465
0.0117467
0.00594069
0.000457422
0.0152892
0.000459862
0.000461975
0.0172248
0.00611365
0.000453822
0.00421319
0.00258457
0.0013056
0.000458377
0.00980751
0.000469308
0.00903572
0.000472098
0.0129167
0.0159431
0.000619818
0.0189246
0.019008
0.000458671
0.00383928
0.000461626
0.0048524
0.000452111
0.0149001
0.011033
0.00609096
0.000576461
0.00464514
0.00516367
0.012554
0.000466212
0.000468422
0.00193658
0.00428663
0.000469372
0.000471844
0.000767352
0.00046247
0.00379374
0.000460094
0.000482213
0.0164911
0.000687621
0.000466609
0.0161077
0.000455462
0.000457894
0.00784154
0.000452999
0.00113902
0.000499399
0.000456146
0.0115659
0.00239061
0.000453338
0.0194138
0.000454519
0.00825113
0.0107258
0.000463995
0.000460716
0.000458419
0.00942278
0.00904343
0.000612402
0.00836413
0.00874085
0.005007
0.00567037
0.00573431
0.000454901
0.000679594
0.00272327
0.0101047
0.000462351
0.00677682
0.00046179
0.000694239
0.0145035
0.000453447
0.0004645
0.000463168
0.000464495
0.000463842
0.00483853
0.0131414
0.000508548
0.00516286
0.000454021
0.0191894
0.00852281
0.0111057
0.000996985
0.0109147
0.000459518
0.000460178
0.0158175
0.00853847
0.00109755
0.000458505
0.000462603
0.000460214
0.0179425
0.0192869
0.000457248
0.000595345
0.000890551
0.000462453
0.0112886
0.0127614
0.000469356
0.000485923
0.000460593
0.00046161
0.0100243
0.000462185
0.000458818
0.000459044
0.000461455
0.000454903
0.000455177
0.000476998
0.0173459
0.000199629
0.00696652
0.000464536
0.000465371
0.00045958
0.00844666
0.000464675
0.0139119
0.000460045
0.000534241
0.0104524
0.00045694
0.000457571
0.000464207
0.000456326
0.000453177
0.00489133
0.00686932
0.000564402
0.00550523
0.000570714
0.00052169
0.000461982
0.000460771
0.000457209
0.00415044
0.000457684
0.0192017
0.000483749
0.0090457
0.000483879
0.000474255
0.0111429
0.0100766
0.000456655
0.000489883
0.000688263
0.0004526
0.000462025
0.000457455
0.000452978
0.0113634
0.000457389
0.00857318
0.000451707
0.0198048
0.0024447
0.000465931
0.00812987
0.00115484
0.000466215
0.000452115
0.0182844
0.00289754
0.000453236
0.000464053
0.00578645
0.000455212
0.000462117
0.000452365
0.000459973
0.00134818
0.000493641
0.0120476
0.000460068
0.00053327
0.000460449
0.00233518
0.0119371
0.000467064
0.00923904
0.000487438
0.00045339
0.00047193
0.00186756
0.000464381
0.000458761
0.00725757
0.000476191
0.000453888
0.00314245
0.0166344
0.000456301
0.00465215
0.000458327
0.0135819
0.000642386
0.000459663
0.00856929
0.000749017
0.000614726
0.000595346
0.0196633
0.000456101
0.000452472
0.00747409
0.00659966
0.000464394
0.00842368
0.000458349
0.000934951
0.000460232
0.000454078
0.000460293
0.0195931
0.000466374
0.000568426
0.0115742
0.000544543
0.000542027
0.00108419
0.000458636
0.000472747
0.00897125
0.00409936
0.000453567
0.000461749
0.000460227
0.00795841
0.000453775
0.0104903
0.00124981
0.00835728
0.00046875
0.00150224
0.00612155
0.000681287
0.000734306
0.000456115
0.000460157
0.000486145
0.0175873
0.000453119
0.000464352
0.000468544
0.0115827
0.00598966
0.00780864
0.0160539
0.0137035
0.000460971
0.00796805
0.000457043
0.000458379
0.000462065
0.000493272
0.000458534
0.0121608
0.0127471
0.000458907
0.0133426
0.0128772
0.00744362
0.0150382
0.000457551
0.00719282
0.00803641
0.000459757
0.000453235
0.000460306
0.0141746
0.000554213
0.000469371
0.00053211
0.0188215
0.00817761
0.0188708
0.0119441
0.000453699
0.000453893
0.00907223
0.00045655
0.00045222
0.00775424
0.000460191
0.000458162
0.00131077
0.000518563
0.000452495
0.00106634
0.00437715
0.0097018
0.000476561
0.0183017
0.00388648
0.0165118
0.0146876
0.000459048
0.000459899
0.0029761
0.00788004
0.000570601
0.0195311
0.00488206
0.000455421
0.000461801
0.00484199
0.000619011
0.000668473
0.000457322
0.0109679
0.00209103
0.000459575
0.000948123
0.00301138
0.000452951
0.000463897
0.000454479
0.0116539
0.00100714
0.000513832
0.000459905
0.000463994
0.000458948
0.000466342
0.0118723
0.0189089
0.000468647
0.010252
0.000462263
0.0135488
0.000752185
0.0081086
0.000582322
0.000455338
0.00379396
0.000460378
0.0109913
0.0194415
0.00991672
0.00547767
0.000463718
0.000456043
0.000459513
0.000460268
0.00114218
0.000455272
0.000456863
0.000453396
0.00265983
0.000459517
0.00046212
0.0194351
0.000465242
0.000679726
0.000456837
0.000464687
0.00717263
0.000461719
0.000466146
0.000465273
0.00628345
0.00159714
0.000460009
0.000459727
0.000462293
0.00849961
0.000460215
0.0157397
0.0131945
0.0148249
0.000458274
0.00486278
0.000456176
0.00101275
0.000456168
0.0093911
0.000608031
0.00116745
0.000487842
0.000452879
0.000459268
0.000458006
0.0105215
0.00247643
0.0191786
0.00858659
0.000461528
0.00594362
0.000453545
0.000462039
0.000467711
0.00363539
0.000451528
0.000458543
0.00435909
0.000468403
0.00702843
0.000468838
0.000463591
0.000459683
0.000452812
0.000461187
0.000467784
0.006187
0.000473731
0.020146
0.000462374
0.000453899
0.0189924
0.00270911
0.000458186
0.0195537
0.00051778
0.000452232
0.000459902
0.000509528
0.00046891
0.0195495
0.00375724
0.0108911
0.000461939
0.00134534
0.000465372
0.000462025
0.0194782
0.000451025
0.000463801
0.00581217
0.000456216
0.000460428
0.000457377
0.00107036
0.00482644
0.0109984
0.00829631
0.000551876
0.000463959
0.000458258
0.00321322
0.000453776
0.000460116
0.000458986
0.000466054
0.00108528
0.000466355
0.000464599
0.000492064
0.000462891
0.00650126
0.00500821
0.000459402
0.0128072
0.00841398
0.000766774
0.00046086
0.000786417
0.00051003
0.00345765
0.00304449
0.000453603
0.000464341
0.000465629
0.000453975
0.000464609
0.000457376
0.00045257
0.00778867
0.000500185
0.000456524
0.000465798
0.0187545
0.00200949
0.000468174
0.000754265
0.000460107
0.000453973
0.00226114
0.00111133
0.000487918
0.00411142
0.0190601
0.000456923
0.000454637
0.00490917
0.000461792
0.000461994
0.000458472
0.000460508
0.00171609
0.0132259
0.000536651
0.00466507
0.00596753
0.000461876
0.000461868
0.000496446
0.00782968
0.0136505
0.000464155
0.00621169
0.00381016
0.0134372
0.000718262
0.000458314
0.000458768
0.00332546
0.000459882
0.000724344
0.0195648
0.00661201
0.00103148
0.000463276
0.0186049
0.000461286
0.000468597
0.0202674
0.0189247
0.00109192
0.00748128
0.00840179
0.000528238
0.000451555
0.000454449
0.000460564
0.000457893
0.0109863
0.0129961
0.000461389
0.000452175
0.000454251
0.000454074
0.0119461
0.000550993
0.000455656
0.00251705
0.0113254
0.00077066
0.00502813
0.000452495
0.000461387
0.000460108
0.000455179
0.00045321
0.000479026
0.00048666
0.0008852
0.0185579
0.000587127
0.00593551
0.00147993
0.0104109
0.000594972
0.000530646
0.00882697
0.000459995
0.000459942
0.00958293
0.0144569
0.00126255
0.0189653
0.0148642
0.0065295
0.00988086
0.0101064
0.000453533
0.000462529
0.00129126
0.00045654
0.00045927
0.00356518
0.000476449
0.0126993
0.00126841
0.0184951
0.0101344
0.000455669
0.000945966
0.000495909
0.000459984
0.000454696
0.000580891
0.00718316
0.00629518
0.00905946
0.000456004
0.000458093
0.000581437
0.000459905
0.0161918
0.00176843
0.00459182
0.000924553
0.000460337
0.000456934
0.000494766
0.00959646
0.000457329
0.00434454
0.00045788
0.000472698
0.000972164
0.007199
0.000792491
0.000538346
0.0148941
0.000631242
0.000453531
0.0077137
0.000459627
0.0139313
0.00045478
0.00052985
0.000656231
0.000599524
0.000473196
0.000454254
0.00894203
0.00048633
0.0141331
0.00609265
0.00616872
0.000465015
0.000538565
0.00403992
0.000457849
0.00045842
0.0191743
0.00751326
0.000459119
0.000452419
0.000467401
0.00263067
0.000465057
0.0131201
0.00227771
0.0105269
0.000486538
0.000935067
0.000469102
0.000473513
0.000454704
0.00905989
0.000607906
0.000457682
0.000464324
0.00850584
0.00882098
0.000457208
0.00646228
0.000465228
0.000465122
0.000482406
0.0144407
0.000459152
0.00051741
0.000459148
0.0004599
0.000585346
0.00482394
0.01354
0.000504165
0.000458603
0.00299686
0.00418892
0.011372
0.0187932
0.00194379
0.000502482
0.000458913
0.000669611
0.00514671
0.000464408
0.0023481
0.000614175
0.000465686
0.000451835
0.000899643
0.000522936
0.000463934
0.000460311
0.000461525
0.00190608
0.000457772
0.000452161
0.00046292
0.00951312
0.00525971
0.000456862
0.00598238
0.000461605
0.000458465
0.00782484
0.0058742
0.00567444
0.000589087
0.00684186
0.0053008
0.000483319
0.000455559
0.000464212
0.000567285
0.000477404
0.000456049
0.000458987
0.000451611
0.000462516
0.00945984
0.0201914
0.00191613
0.0183576
0.000453057
0.000518425
0.00754438
0.000456563
0.00776086
0.000453542
0.000451533
0.000632795
0.00045461
0.000467899
0.000455604
0.000458874
0.000476644
0.00939207
0.000452895
0.0016444
0.00437442
0.0157899
0.00385959
0.000460292
0.000454364
0.0178393
0.0136795
0.000587394
0.00105155
0.0153732
0.000713742
0.0198891
0.000458295
0.000475706
0.00576739
0.000457854
0.00146329
0.000743486
0.000548145
0.000654464
0.000459862
0.000455077
0.000464295
0.000459664
0.0120056
0.0123567
0.000458708
0.0168491
0.00686157
0.000456482
0.00046233
0.00632963
0.0109583
0.000464624
0.0190158
0.000513276
0.012372
0.000456762
0.00775847
0.012235
0.000469972
0.00644341
0.0056031
0.00079037
0.000803478
0.019102
0.000957321
0.000458012
0.0201882
0.0179485
0.000455659
0.000508007
0.000454694
0.00237233
0.000468581
0.000460493
0.000465111
0.000464689
0.00047224
0.00792246
0.000507816
0.00811235
0.00495618
0.0196634
0.0123521
0.000461876
0.000461645
0.000461694
0.000482022
0.000451325
0.000466004
0.0158529
0.00619707
0.000460358
0.000463712
0.00100809
0.0126185
0.00045311
0.00255008
0.00045934
0.000457982
0.00046138
0.0126033
0.000452992
0.000459874
0.000453049
0.00933447
0.00300732
0.000514852
0.000485624
0.000456881
0.0112204
0.000455515
0.0195222
0.0131509
0.00573564
0.000578164
0.000459873
0.0119909
0.000461838
0.000454925
0.000453165
0.000466121
0.00574234
0.000453861
0.000461696
0.000468725
0.000554619
0.000460518
0.0111072
0.000495595
0.010544
0.000542234
0.0134077
0.0121595
0.0167278
0.000456277
0.00045313
0.00968569
0.0142749
0.00654099
0.00218623
0.000552087
0.000464605
0.000458295
0.00550822
0.00045499
0.00201744
0.00410951
0.000461149
0.0188377
0.00577224
0.00488483
0.000469028
0.00047584
0.000482056
0.000457884
0.0005434
0.000455459
0.000462243
0.0129224
0.00468093
0.0114348
0.000458518
0.000456187
0.000461798
0.0170126
0.000452767
0.00797423
0.0119287
0.00939135
0.000458148
0.000466471
0.00046566
0.000458261
0.000455779
0.0156737
0.000459756
0.0162607
0.00232522
0.0135335
0.000452467
0.000577933
0.00622607
0.000455531
0.0181575
0.00522498
0.0161187
0.000460813
0.015163
0.00944699
0.000460994
0.0140273
0.00477733
0.000462352
0.00976364
0.00950346
0.0188892
0.000573229
0.000459273
0.00050562
0.00213369
0.00286723
0.000461961
0.00427993
0.000703379
0.000673959
0.0151737
0.00407147
0.0147479
0.000469023
0.000461298
0.000723835
0.00601789
0.014672
0.0140344
0.000573534
0.012955
0.00137154
0.00188176
0.000460851
0.000458488
0.00045822
0.0124752
0.00424787
0.00611119
0.00764928
0.000470814
0.000493306
0.0154424
0.00107815
0.000458009
0.00368322
0.000456166
0.000567765
0.000462262
0.000533153
0.00587781
0.000457329
0.00469283
0.000545376
0.000453811
0.000459371
0.000589176
0.000454321
0.000456494
0.0202502
0.000454084
0.000791241
0.0105845
0.00060529
0.000460078
0.00931384
0.000452091
0.00439651
0.00174014
0.00046307
0.000469043
0.000453967
0.000466091
0.000463686
0.000454754
0.000458295
0.000457628
0.0119952
0.000459953
0.000458979
0.000455564
0.000455701
0.0178962
0.0195209
0.000663214
0.000463786
0.00045702
0.00413112
0.000653806
0.000505432
0.000463044
0.000466308
0.000454463
0.0195562
0.0096809
0.000540122
0.0125984
0.0130741
0.00378893
0.0135355
0.0174123
0.000457927
0.00318777
0.0118877
0.000514665
0.000462155
0.0115345
0.000453334
0.00756082
0.000530408
0.000513975
0.00047024
0.00703227
0.0124217
0.000482489
0.0134564
0.00071369
0.000461963
0.000573857
0.000824499
0.000642104
0.000456127
0.000648351
0.000461055
0.0103942
0.0105983
0.000460731
0.000455031
0.00107155
0.00045179
0.00046726
0.00738274
0.000646227
0.0199726
0.0114955
0.000461669
0.0192121
0.000461589
0.015044
0.000458873
0.000950679
0.00046045
0.000459985
0.000463924
0.000549516
0.0103697
0.000458639
0.00446566
0.000456884
0.0139596
0.0067407
0.000931288
0.0152779
0.00473348
0.0196093
0.00469819
0.000724589
0.000466228
0.000466254
0.000464383
0.000451988
0.0194281
0.0194215
0.000464467
0.000454254
0.000455964
0.000464312
0.00252031
0.00313153
0.000459102
0.000802102
0.00299066
0.000483691
0.012002
0.00589786
0.0100686
0.000463138
0.000461955
0.000468408
0.000452392
0.00045324
0.00071779
0.000456894
0.000463115
0.000456961
0.00165982
0.000464432
0.000466286
0.000458834
0.000455282
0.00046082
0.000535821
0.000476273
0.000599982
0.013499
0.000455359
0.00292749
0.000904086
0.000453783
0.000936557
0.0200921
0.000466684
0.0057477
0.0131732
0.000455941
0.000602206
0.000601606
0.000502249
0.000463631
0.0033899
0.0004513
0.0193891
0.000665133
0.0165747
0.00852294
0.000870922
0.000473357
0.000459311
0.01493
0.000757312
0.0183209
0.0162628
0.0174458
0.00715361
0.0178782
0.000455722
0.00118267
0.0097121
0.0195209
0.00047358
0.000482196
0.00604728
0.000455876
0.0193043
0.00569973
0.00138177
0.000459047
0.000998054
0.00344551
0.0153301
0.000456326
0.00471683
0.00045915
0.000451351
0.0134412
0.0175208
0.000486175
0.000461867
0.00045636
0.00821916
0.000459107
0.00363089
0.0195876
0.00707293
0.000464924
0.000464618
0.00204031
0.00638497
0.00083188