/*--------------------------------*- C++ -*----------------------------------*\
| =========                 |                                                 |
| \\      /  F ield         | OpenFOAM: The Open Source CFD Toolbox           |
|  \\    /   O peration     | Version:  v2012                                 |
|   \\  /    A nd           | Website:  www.openfoam.com                      |
|    \\/     M anipulation  |                                                 |
\*---------------------------------------------------------------------------*/
FoamFile
{
    version     2.0;
    format      ascii;
    class       volScalarField;
    location    "400";
    object      p;
}
// * * * * * * * * * * * * * * * * * * * * * * * * * * * * * * * * * * * * * //

dimensions      [0 2 -2 0 0 0 0];


internalField   nonuniform List<scalar> 
18166
(
0.162465
-0.00145363
0.0190723
-0.144917
0.430007
0.15372
-0.00671795
-0.268541
-0.271017
0.478847
0.0158905
0.0208156
-0.529605
-0.235514
-0.179678
-0.23587
0.0102176
0.0787089
0.0258337
-0.204548
-0.221376
0.0105361
-0.216204
0.0251771
0.000265915
-0.00642778
0.143604
-0.0749462
0.0290417
-0.147636
-0.121631
-0.0137539
0.0141233
0.0188305
-0.0166937
0.00869893
-0.272314
0.00889159
-0.0197445
0.47096
0.00592777
-0.412101
0.0146784
0.0368904
0.161429
0.0227995
-0.0877396
-0.122288
-0.10661
0.134898
-0.0792154
-0.0961111
-0.216078
0.00463715
0.0155803
-0.144173
-0.420384
-0.538292
0.0246459
-0.060755
-0.152167
-0.0596289
-0.16401
-0.0707934
-0.228817
0.0235081
-0.20477
-0.106841
-0.507151
-0.0775467
-0.0165434
-0.0111818
0.156386
-0.0185563
0.426998
0.3819
-0.222684
-0.514515
-0.0522552
0.00949899
0.0111132
-0.243941
0.0249029
0.0257086
-0.0132613
-0.0400861
-0.0633492
0.000151284
-0.094004
-0.0194666
-0.275081
0.122732
-0.522019
0.00967136
0.00578318
-0.040619
-0.0135983
-0.0244742
0.0879902
-0.0738427
-0.00112752
0.0191587
-0.176718
-0.068214
-0.0768414
0.0191468
-0.517697
0.508557
0.0294657
0.0148155
-0.535919
-0.284823
-0.13752
-0.124779
0.0107292
-0.0241317
-0.0435864
-0.117981
0.0410785
-0.101668
-0.0797375
0.0298934
-0.32648
-0.315
-0.154558
0.023104
0.0221256
-0.527501
0.0599622
0.0507809
-0.152599
-0.514071
-0.0568373
-0.106407
0.0702596
-0.0855305
0.00934295
-0.0014674
-0.0578435
-0.115561
-0.309093
-0.233729
-0.119161
-0.108118
0.0267113
-0.318541
-0.186549
-0.175
-0.0291565
-0.064079
-0.0135637
-0.110507
-0.983809
-0.156523
0.0204353
0.0145004
0.00642587
-0.163794
0.00953798
-0.529658
-0.0109871
-0.104439
-0.0586008
-0.00573202
-0.0959796
0.453503
0.021582
-0.108736
-0.214786
-0.55869
-0.19094
-0.12283
0.0483916
-0.10351
-0.253781
0.0218412
0.249105
-0.110807
-0.00193534
0.000271529
0.0110516
0.036293
0.368662
0.26779
-0.212209
-0.00300799
-0.0550089
-0.139591
0.00462263
-0.0236935
-0.15753
0.0262289
-0.0861861
0.0254588
-0.0289776
-0.120236
0.147765
-0.0236999
-0.11973
0.501824
-0.190538
-0.123523
-0.0275236
-0.178854
0.0173712
-0.098118
-0.242239
-0.144686
0.374292
-0.332516
0.438358
-0.306369
-0.00177143
0.0231718
-0.0851827
0.119959
-0.22492
-0.0368151
-0.213557
-0.247853
-0.0558789
0.0107245
-0.00291421
0.219
-0.426568
-0.00898492
-0.0188768
-0.00395406
0.0345218
-0.0270868
-0.221026
-0.139387
-0.0449045
-0.119558
0.000742092
-0.0398984
-0.0845616
-0.139159
-0.147132
-0.315195
-0.0862603
-0.223581
-0.192456
-0.0592356
-0.142612
0.0484222
-0.142484
-0.221194
-0.10623
-0.0243459
0.168531
0.0223729
0.0163354
0.0608688
-0.110914
-0.532938
0.0141663
-0.201295
-0.560325
-0.00543574
0.0233508
-0.119556
-0.152356
-0.104968
-0.560774
-0.130903
-0.382504
-0.0169276
0.0109514
-0.0755151
0.141261
0.0232482
-0.000497278
-0.140685
-0.0938786
-0.120979
-0.112202
-0.00430498
0.381695
-0.0138297
-0.097243
-0.202148
-0.0144471
-0.0324589
-0.0541066
-0.169317
-0.0598323
-0.0345634
-0.276126
0.0112189
-0.0745432
-0.0848119
-0.0265678
0.0137469
-0.0124806
-0.120079
-0.00758594
0.0229512
-0.00878646
-0.144625
-0.111318
0.0099258
-0.000496925
-0.000740946
-0.264767
0.0119625
-0.145977
-0.144644
0.037204
-0.0239193
-0.0555521
0.444747
-0.204285
0.102509
0.0115389
0.451048
0.296578
-0.0290476
0.0234463
-0.144745
0.00862422
0.0847749
-0.124956
-0.147953
0.0617488
0.133398
-0.0354189
0.0124986
-0.0186574
-0.114484
-0.00147623
-0.107999
-0.0328851
-0.0273315
-0.520911
-0.3343
-0.179659
-0.201151
-0.277664
-0.117501
-0.0298329
-0.401915
-0.145612
-0.117202
-0.0389533
0.015316
-0.00689328
0.106886
-0.0105316
-0.133544
0.0255087
-0.0828226
0.0230217
-0.00243471
0.275935
-0.0624781
0.287694
-0.0881596
0.0156581
-0.0182635
0.000639515
-0.134108
-0.116509
0.0134983
-0.00630443
0.0270893
0.0211756
-0.110918
0.00667278
-0.441971
0.118584
-0.000731559
0.00923013
-0.181678
-0.236994
-0.254793
-0.11714
0.0130451
-0.0881052
-0.178837
-0.0275613
-0.116221
-0.122391
-0.0640228
-0.0255845
0.0320287
0.0236117
0.00429753
-0.145297
0.0313765
-0.0163349
-0.0647468
-0.0164741
-0.115684
-0.139769
0.0155426
0.0229997
-0.520099
-0.00468175
-0.00406213
-0.00713609
-0.219654
-0.337808
0.00940638
-0.214032
-0.0398179
-0.0270276
-0.121807
-0.122725
0.0351844
-0.258703
-0.53761
0.064576
-0.176436
-0.0560081
-0.0721133
-0.165248
-0.0883538
-0.0159477
0.017892
-0.0342771
0.0228813
0.457787
0.00625258
0.325573
0.0188252
-0.316563
0.0188203
-0.116024
-0.233447
0.103513
0.444032
0.0601938
-0.0351093
-0.0782271
-0.114255
-0.16233
0.00375205
-0.455258
-0.0839533
-0.0159773
-0.318354
-0.202099
0.011267
-0.105183
-0.396094
0.014635
-0.328543
-0.11702
-0.0266092
0.210647
-0.143148
-0.248653
-0.0807808
-0.1068
0.453485
-0.14041
-0.153449
-0.0162262
-0.526309
0.0249566
0.018864
0.452212
-0.180487
0.0140492
0.0354861
-0.0823872
-0.0546373
0.0476943
-0.0072632
-0.0130276
-0.0474789
-0.384467
0.000723919
-0.0952046
0.0210592
-0.171996
0.017796
0.000894986
-0.120292
-0.212138
-0.000113239
-0.141095
0.00567289
0.00643319
-0.248186
-0.476121
-0.142762
-0.037081
0.267804
0.375699
0.0118732
0.0217507
0.0132819
-0.0213159
-0.113768
-0.257439
0.0207839
0.00884289
0.306254
-0.505168
-0.307573
-0.0164829
0.04778
-0.107716
0.0183757
0.0225935
0.0111579
-0.012012
-0.144386
0.364835
-0.0266878
-0.109987
0.00931345
-0.194254
0.00051925
0.0052328
-0.41115
-0.243769
-0.0466275
-0.117628
-0.138148
-0.213386
-0.253729
-0.228108
-0.290334
-0.182875
-0.088709
-0.223154
0.0213992
0.285484
-0.0253862
-0.0419648
0.298112
-0.120585
0.0258276
-0.307107
-0.190338
-0.0967983
0.0205763
0.0386786
-0.19735
-0.336881
-0.143854
-0.016996
-0.300573
-0.54093
0.056728
-0.0403294
0.0274428
0.0913718
-0.523558
-0.53767
0.00454275
-0.241392
0.0185643
-0.105606
-0.053807
-0.00169754
-0.0567154
-0.503396
-0.0242498
0.00428285
-0.386797
-0.259727
-0.182772
-0.174999
-0.0366193
0.0101089
0.0222346
-0.120333
0.216513
-0.115303
-0.0774308
-0.0499716
-0.184179
-0.085465
-0.543207
0.0486197
-0.429434
-0.0122464
0.377287
-0.309361
0.249586
-0.0567582
-0.114177
-0.482775
0.00539345
-0.51637
0.0259531
0.00472149
-0.305645
-0.231807
0.0152297
0.01433
-0.011031
0.397741
-0.355144
0.00426088
-0.188306
-0.0263305
-0.0324519
0.00563892
-0.171785
-0.194235
-0.0604635
-0.492123
0.0131027
-0.00255554
-0.112552
-0.264202
-0.149401
-0.18391
0.488319
0.0498967
-0.53428
-0.48641
0.0733774
0.249454
-0.0795324
-0.0497999
-0.0814182
-0.116536
0.107065
-0.151096
-0.0164175
-0.0743807
-0.539742
0.00517403
-0.116337
-0.148328
0.0796311
0.0394769
-0.0164968
-0.0386278
-0.116941
0.00457632
0.0185387
-0.151827
-0.0147893
-0.149186
-0.0328688
-0.149944
0.0397153
-0.0803587
-0.0180358
-0.48933
-0.193341
0.393579
-0.0178441
-0.253016
-0.253147
0.370891
-0.0271544
-0.335524
0.0547546
-0.553331
0.0250255
0.292248
-0.24783
-0.11725
-0.274187
-0.269936
-0.145462
-0.0167508
-0.157013
-0.00135294
0.100286
0.0703609
0.030773
0.00192605
-0.166239
-0.095509
-0.0336779
-0.241313
-0.529206
0.201909
-0.016777
0.0635057
0.0105335
-0.00485879
-0.0119326
0.0225778
0.356391
-0.0540944
-0.24377
-0.347299
-0.160713
-0.345069
0.122639
0.106933
0.0219861
-0.248019
-0.00184342
-0.160878
-0.118099
-0.0155716
-0.0803068
-0.113403
-0.161696
-0.121525
-0.0828051
0.10375
-0.0111107
-0.110147
-0.158336
-0.21579
-0.0743044
-0.245192
-0.237041
-0.0624465
-0.115723
-0.501386
0.104343
0.0060413
-0.22025
-0.0988309
-0.0944232
-0.144792
-0.00574
-0.10437
0.236867
-0.00632737
-0.129919
-0.163359
-0.112028
-0.383406
0.146847
-0.0749354
0.00210454
0.265469
-0.284847
0.0692956
-0.393329
0.0111922
-0.184876
-0.285878
-0.0614246
0.0316612
0.0170113
0.121804
0.0103316
-0.510907
-0.115512
0.509641
-0.00721923
-0.00669883
-0.0105267
-0.518609
0.508073
0.156971
-0.52073
-0.0913726
-0.257365
0.0247707
0.00330233
-0.327995
0.0145242
-0.129197
0.444626
0.16979
-0.229566
-0.0263977
-0.183511
-0.124674
0.269342
-0.0446926
-0.00785309
-0.0345902
0.0182894
-0.171504
0.0252739
-0.0157292
-0.128766
0.0642627
-0.120491
-0.096024
0.0666316
-0.000425591
-0.114534
-0.024518
-0.0626407
-0.115945
0.303344
0.00675805
-0.101801
-0.166635
-0.0196601
0.0113319
0.0201028
0.210271
-0.117664
0.00460509
-0.11802
0.00666484
-0.534659
-0.488586
-0.11481
-0.118816
-0.00701067
-0.0769075
0.4379
-0.000851947
-0.178903
-0.0190998
-0.00494906
-0.0172632
-0.0273233
-0.107981
-0.0135622
0.00456687
0.000314602
-0.0160876
-0.136743
0.046002
-0.507095
0.00524498
0.0182858
0.00486142
-0.123406
-0.185738
-0.550479
0.321971
-0.00468847
-0.140048
-0.229449
-0.0208194
0.0143616
-0.130103
-0.17409
-0.0462472
-0.131126
-0.142286
-0.0552034
-0.0274603
-0.108841
-0.0733638
-0.107248
-0.159617
-0.495085
-0.018755
-0.148315
-0.00725006
-0.32504
-0.0921585
-0.129873
0.0313436
-0.197887
-0.117918
-0.163157
0.0224373
-0.0819826
-0.0168763
-0.160062
0.00568109
-0.0774417
-0.038394
-0.000470263
0.170994
0.00756885
0.0215487
0.469379
0.00788337
-0.316438
-0.0733892
-0.279712
0.0165685
-0.137596
0.0182173
0.0202907
-0.53606
-0.294585
-0.143982
0.0217704
0.0896842
-0.222011
-0.192041
0.0146358
0.00816198
-0.0479295
-0.118801
-0.015419
-0.147547
-0.172556
0.0446932
-0.0162389
0.00340728
-0.00057724
-0.111801
-0.0152012
-0.0988345
-0.0914467
-0.0184926
-0.00829371
-0.255178
0.00754937
-0.0495719
-0.00418089
0.00586177
-0.146446
-0.133842
0.412587
-0.119418
-0.04426
-0.0274533
-0.501199
0.495134
-0.242281
-0.237987
0.232588
-0.148186
0.00521914
-0.075805
-0.506907
-0.199975
-0.202327
0.00810561
0.00904542
-0.0567856
-0.352857
-0.317224
0.019096
0.284255
0.0938998
0.486147
-0.261087
0.359698
-0.00658827
-0.287945
0.00436165
-0.0274003
-0.38899
0.004133
-0.0396328
-0.564002
-0.116908
-0.000756096
-0.166877
0.269107
-0.0233129
0.339467
-0.0160527
-0.556153
-0.441179
-0.150706
-0.167857
-0.334078
0.360578
-0.0171579
-0.0380613
0.0147321
-0.0159324
-0.016481
-0.0526736
-0.281091
-0.129467
-0.0127083
-0.121625
-0.0912006
0.149805
0.0135097
-0.0451019
-0.182163
-0.52427
-0.316406
-0.122326
0.0216746
-0.0919342
-0.118538
-0.0572769
-0.214811
-0.128612
-0.455818
-0.105829
-0.0135357
0.00745524
-0.0533537
0.00429055
0.0751923
0.473549
-0.0381086
-0.273748
0.0079735
0.0191535
-0.00377312
-0.549173
-0.121905
0.00485472
-0.0262342
-0.46902
0.0181431
-0.259819
0.501271
0.0147091
-0.314488
0.0139739
-0.129402
0.473096
-0.238864
-0.291246
0.0112554
-0.0923132
0.466921
0.0365999
-0.18826
-0.402765
-0.107055
0.0287996
-0.121476
-0.0407171
0.0268799
-0.166094
0.497938
0.258712
-0.15108
-0.0162669
-0.219466
-0.0901752
-0.0339575
0.229464
-0.499436
-0.136994
0.481404
0.0689734
0.33429
-0.236664
-0.0158671
-0.0433012
0.0154245
0.206212
-0.0922831
-0.00943947
-0.0894415
0.208107
-0.0649105
-0.21789
0.00428686
0.188247
-0.286185
-0.234576
-0.103298
-0.334438
-0.00583573
0.0333216
-0.511916
0.295543
-0.00742633
-0.012679
-0.114254
0.149783
-0.155665
0.0227859
-0.0414827
-0.195461
-0.140939
-0.437889
0.0194882
-0.171176
0.0326978
-0.105157
-0.139375
0.0419887
-0.146492
-0.117905
-0.121003
-0.119396
-0.0519393
0.517299
-0.129152
-0.240665
-0.0961451
-0.202856
0.146611
-0.559889
0.0200298
0.0202755
0.00713495
0.0118101
-0.0458604
-0.0819552
0.00105546
-0.118609
-0.000174959
-0.022413
-0.120888
0.0192873
-0.0877822
-0.141778
-0.11988
-0.460687
-0.0282328
0.0385057
-0.00358506
0.0198851
-0.101824
-0.131954
-0.146314
-0.348412
-0.437542
-0.00834634
0.0397237
-0.042756
0.00509321
-0.0801009
-0.0332179
0.151568
-0.0169265
0.0144585
0.0609103
0.0116571
-0.137009
-0.213929
-0.057004
0.324035
0.0121314
-0.00219023
-0.162625
-0.0691813
-0.166385
-0.291208
-0.0862947
-0.221769
-0.328138
-0.116707
-0.0282264
-0.414716
0.00391952
0.494955
-0.081364
-0.201484
-0.182914
-0.113505
0.125766
-0.0967216
0.0388343
0.0116313
0.00231174
-0.113424
-0.0837631
-0.291098
-0.139553
-0.111677
-0.00971499
0.514219
-0.117562
0.00045945
-0.040176
-0.0798163
0.0556162
-0.19129
-0.0665566
-0.0660868
0.495429
0.0107459
-0.308886
0.0661
0.00549433
-0.403307
-0.00540857
-0.115788
-0.0303699
-0.161295
0.00454103
-0.117198
0.0152956
-0.032097
0.485191
-0.150161
-0.0122913
-0.00959051
0.150862
-0.0170978
0.000270274
-0.182375
0.05414
-0.233878
-0.120172
0.0117665
-0.233302
-0.168572
-0.214949
-0.123143
2.38397e-05
-0.114426
0.0391951
-0.106064
-0.0112492
0.224133
0.0597499
-0.0273787
-0.0912735
0.0225358
-0.479694
-0.11658
-0.33138
-0.00400066
0.0113685
0.0115537
-0.0149249
-0.178129
-0.0275824
-0.500739
-0.439849
-0.113393
-0.148075
-0.301202
-0.144969
-0.223081
-0.0169342
-0.030754
-0.0487529
-0.115837
-0.0557368
-0.0404216
-0.118351
0.0105195
-0.142383
0.0645292
-0.491376
-0.358209
-0.0135079
-0.108556
-0.171122
-0.104324
-0.0787498
-0.110973
-0.287894
-0.106247
-0.539517
0.00819208
-0.117198
0.273759
-0.101805
-0.284221
-0.288758
-0.125
-0.559521
-0.214923
-0.524554
-0.00909781
-0.11732
-0.0152002
-0.0376292
-0.037594
0.0192797
0.0190064
-0.0176335
-0.00366975
0.0118092
-0.153757
-0.275561
-0.174039
-0.183422
-0.0165796
0.0330601
-0.0226097
-0.120944
-0.315482
-0.0002152
-0.563251
0.00162876
0.00222005
-0.0909183
-0.385454
0.049765
-0.331474
-0.0186347
-0.11619
-0.0260386
-0.199829
0.0731064
-0.173012
0.00805976
0.012852
0.21558
-0.392663
0.00451369
0.00237059
-0.0816492
-0.101644
-0.094109
-0.0172382
-0.16631
-0.414101
0.151548
-0.213011
0.104892
0.017511
-0.214527
-0.00812105
-0.469084
-0.026499
-0.118267
-0.0357515
-0.178557
-0.01648
0.24075
0.00734155
-0.00612234
0.0783665
0.00995522
-0.0883382
-0.000796177
0.0167853
0.0143664
0.0272103
0.00369169
-0.430297
-0.0662907
-0.465132
-0.153606
-0.225406
-0.322262
-0.220221
0.0139611
-0.288285
-0.509082
-0.00782068
-0.119662
-0.0701541
0.0364055
-0.113877
0.00203516
-0.474904
-0.0115375
-0.0874325
-0.118463
-0.186105
-0.0442318
-0.22787
-0.0323032
-0.198439
-0.103641
0.00383089
-0.28698
-0.405175
0.472718
-0.231676
-0.436158
-0.0681407
-0.517419
-0.30233
0.429881
-0.0144061
-0.17918
0.0742964
-0.117946
-0.134072
-0.142198
0.185654
0.204768
-0.018492
-0.283802
-0.00474516
0.489782
-0.121559
-0.110566
-0.00592946
-0.082916
-0.189103
0.00103557
-0.154185
-0.150571
0.056581
-0.120435
0.0215273
-0.208205
0.00690695
-0.484213
0.360693
-0.359441
-0.201353
-0.146002
-0.458499
0.374863
0.0335896
-0.125388
0.448999
0.0394823
0.0543785
-0.0176668
0.102635
-0.457768
-0.106155
-0.157073
-0.333306
-0.069156
-0.0348753
0.0942739
0.00693323
-0.233858
-0.477076
-0.145686
0.177266
-0.0882622
-0.0435786
-0.169553
-0.0247029
-0.0212882
-0.0418512
-0.205393
0.0499211
0.0110971
-0.112912
-0.454256
-0.13502
-0.0531225
-0.17818
0.00321802
0.0273201
-0.300431
-0.365944
-0.0341228
-0.14714
-0.113402
-0.19101
0.00374157
-0.120677
0.00411634
-0.155356
-0.0860885
-0.212317
-0.123777
-0.16365
-0.286456
-0.118433
-0.0209255
-0.120077
-0.0487015
-0.111531
-0.0229433
-0.172484
-0.163637
-0.410548
-0.162014
-0.280064
0.299826
-0.141514
-0.081142
0.013096
-0.297912
-0.345219
0.0628602
-0.0794613
-0.096423
0.026944
-0.116879
0.00684644
-0.0900102
-0.38464
0.221386
0.0203692
-0.112795
-0.0250188
0.00949373
-0.409403
-0.0156592
-0.0754451
-0.120708
-0.0102994
-0.211108
0.327432
-0.0204405
-0.139769
-0.0160579
0.492895
-0.188837
0.0167408
0.0186047
0.0375707
-0.241126
-0.117741
-0.149663
-0.137836
-0.478273
-0.461198
-0.209165
-0.118953
-0.0153823
0.262844
-0.133329
-0.182228
0.00708015
-0.48085
0.0286547
-0.14007
-0.436468
-0.0156536
0.0125512
0.0664774
0.00898162
0.0159149
-0.202038
-0.110418
-0.102166
-0.116311
-0.0414194
-0.169717
-0.180331
-0.118574
-0.178178
-0.220144
0.0358332
0.0330337
-0.168273
-0.170347
-0.189785
0.00434941
0.0710483
0.0271595
-0.130218
-0.144895
-0.000365956
-0.175216
-0.112706
0.0205527
-0.461429
-0.320505
-0.0840653
-0.107779
-0.00131758
0.0137613
-0.119685
0.000481086
0.0580804
-0.058379
0.00130638
-0.0154475
-0.0118789
-0.0750476
-0.145673
-0.114569
-0.132923
0.0129652
0.0188257
0.00278389
-0.110281
0.0180147
-0.406906
0.0210824
-0.120685
-0.250601
-0.00587237
-0.00587419
0.0045288
-0.00976306
-0.035378
-0.30116
-0.423186
0.231083
-0.152929
-0.147393
-0.0821171
-7.22549e-05
-0.0540719
-0.0401553
-0.517532
-0.0334917
-0.166855
0.0383148
-0.163004
-0.107089
-0.093577
-0.156063
-0.127301
-0.0520012
-0.113287
0.284032
-0.018709
0.0277425
0.00284109
-0.031236
-0.482845
-0.00536388
-0.11819
-0.0278242
-0.15443
-0.206785
0.0224061
0.456328
-0.550834
0.102335
-0.0233251
-0.116489
-0.176952
-0.0127719
0.0171266
0.449775
-0.0461729
0.00736834
-0.0151759
0.005188
-0.197877
0.0820803
-0.121832
0.00815899
-0.146314
0.0320504
-0.305357
-0.135894
0.0820519
0.377137
0.0353078
-0.0385037
-0.0810769
-0.132393
0.0253899
0.0160108
-0.409774
-0.0732248
-0.019532
0.440211
-0.353215
-0.00818488
-0.19696
0.00876374
-0.438129
-0.148184
-0.0611288
0.450784
0.276829
-0.160794
-0.158916
-0.185625
-0.0239612
-0.0327723
-0.483132
-0.397556
0.00871562
0.405896
0.0527847
-0.558676
0.00144414
-0.0127894
-0.000973719
-0.238743
0.0173972
0.0110573
-0.151053
-0.0389977
-0.0140074
-0.13612
0.0445178
-0.0743557
0.388956
-0.459088
-0.0202741
0.00415523
-0.00173158
-0.254762
-0.0389259
-0.481832
-0.155486
-0.473797
0.00445157
-0.277707
-0.274105
-0.130204
-0.115235
-0.0252187
0.0821604
-0.108787
-0.112245
-0.0371529
0.0240911
0.00997512
-0.00632528
-0.115609
-0.113957
-0.387983
-0.118826
0.0483131
-0.158794
-0.00721661
0.0300896
0.0263209
0.075355
0.0528599
-0.316102
-0.123761
0.0326406
-0.433919
-0.436029
-0.120885
-0.128237
-0.00438306
-0.305403
-0.406129
-0.0645887
-0.0164048
0.0018277
-0.109847
0.0591115
0.0179883
-0.0923645
-0.283348
-0.121061
-0.120402
-0.403606
-0.0397367
-0.0378081
-0.133621
-0.0102219
-0.0170517
-0.191514
0.0828389
-0.0185897
0.113992
0.0968729
-0.0313542
0.345957
-0.117859
-0.477763
-0.0832568
-0.311496
-0.238581
-0.178571
-0.176217
0.0488682
0.00367531
-0.561068
-0.475606
-0.164382
-0.115643
-0.282677
-0.047187
0.00171188
-0.224709
-0.153272
-0.153401
-0.0068523
-0.115374
0.0167434
0.0358756
-0.0926406
-0.115161
-0.0307256
0.0237581
-0.0164371
-0.242437
-0.149194
-0.116139
-0.0251983
-0.0723131
0.0159755
0.0179887
-0.109311
-0.252727
0.004472
-0.500476
0.0259454
-0.162051
-0.0928315
-0.243066
-0.138599
-0.0105152
-0.563558
-0.00141189
-0.117259
-0.130638
-0.135433
-0.241674
0.0192705
-0.0207438
-0.00306861
0.0136612
0.356426
-0.0118837
-0.0532918
-0.0384976
-0.310306
0.0266233
0.00015044
-0.13304
0.0188571
0.156163
-0.00738355
0.0123074
0.41332
0.0212395
0.0968635
0.0129833
-0.374373
-0.391934
-0.00130175
0.00468604
0.0272881
0.467108
0.0665971
-0.282651
-0.17175
-0.18478
0.0236569
-0.121416
-0.00921108
-0.151973
-0.0102614
-0.144264
-0.127937
-0.205035
-0.110988
-0.0253928
0.00886764
-0.0049859
-0.117291
0.0161642
-0.116255
0.455759
0.012024
-0.118896
-0.0146905
-0.0680714
0.0116731
-0.13086
-0.0200686
-0.0232194
0.392871
0.00536543
-0.469627
0.00423721
0.0709015
0.000178661
-0.0139201
0.00341894
0.0114262
-0.557857
-0.0720848
-0.212739
0.020724
-0.0404688
-0.188198
-0.0925211
-0.059945
-0.129679
0.196999
-0.0157235
0.0370174
-0.113217
0.0128293
-0.138064
0.426873
-0.493152
0.0207441
-0.213847
0.0127278
0.0111053
-0.115909
-0.0196363
0.00618782
-0.361712
-0.019354
0.0829525
0.00137518
0.334975
-0.171678
-0.159642
-0.159611
0.172333
0.0063973
0.0120828
-0.545439
-0.0350428
0.00462266
-0.00228432
0.0978264
-0.396961
0.0216397
0.0183419
-0.108267
0.00117234
-0.11823
-0.121123
-0.0252604
-0.128884
0.467204
-0.0623604
0.00981131
-0.217024
-0.063598
-0.234222
0.417503
-0.0124866
0.00428389
0.021664
-0.0379094
0.0119025
-0.00656431
-0.0325857
-0.546123
-0.0908055
-0.00758115
0.0188906
-0.200399
-0.121159
0.111346
-0.210955
0.0275742
-0.0391594
0.323328
-0.15228
-0.0794083
-0.56673
-0.132863
-0.028236
-0.035153
-0.563857
0.0291658
0.0118885
0.0390501
0.0319628
0.181117
-0.302478
-0.0388155
-0.121882
-0.298794
0.00156307
-0.0600986
0.0518398
-0.310747
-0.15837
0.00239341
0.395378
-0.339162
-0.169092
-0.204378
-0.00478058
0.0523478
-0.464085
0.079527
-0.00604668
-0.258879
-0.176613
-0.220014
0.0239159
-0.307151
0.0257158
0.00565399
-0.183379
-0.10048
-0.206172
-0.538525
-0.11059
-0.0830848
-0.019791
-0.0312107
0.00260372
0.00793893
-0.128459
-0.344062
0.00378713
-0.0159208
-0.0333824
-0.0414288
-0.157767
0.206764
-0.0102225
-0.178536
-0.138762
-0.0420462
-0.398063
-0.015368
0.0490334
0.00761726
-0.011198
-0.0209006
-0.0413868
-0.109089
-0.199915
-0.304249
-0.0863862
-0.217054
-0.248698
-0.476727
-0.159452
-0.118405
0.429776
0.000683623
0.00572538
-0.117791
-0.128086
-0.102271
-0.240377
-0.28507
-0.556376
-0.193763
-0.495206
-0.0287698
0.00362443
-0.209386
-0.0381941
0.00897579
0.445592
-0.0755513
-0.107795
-0.229889
-0.186261
-0.117561
-0.0307386
-0.191224
0.144018
0.00283595
-0.0124774
-0.156755
-0.3757
-0.367897
-0.38133
-0.0111069
0.0230305
0.199268
0.0378355
-0.257079
-0.246802
-0.267055
-0.198832
0.0130765
-0.050368
-0.0854629
-0.524082
-0.0142095
-0.273593
0.00991487
-0.0180726
-0.183879
-0.256
-0.0306214
-0.149888
-0.369381
-0.165505
-0.017068
-0.117748
0.0353901
-0.304134
-0.0187868
-0.0067229
0.247726
-0.121117
-0.0681906
-0.0268208
-0.493922
-0.109711
-0.424375
-0.253224
0.152177
0.00495347
-0.135403
-0.261491
-0.0166253
0.0185996
-0.237415
-0.547904
0.0405219
-0.0309101
0.012318
-0.556908
0.00492058
-0.17554
-0.302587
-0.118135
-0.109532
-0.203689
0.00687452
-0.0704
-0.0140024
-0.334841
0.242369
0.00731777
0.021266
-0.114022
-0.276907
-0.00168504
-0.312052
0.0037813
0.00381076
-0.0985066
-0.320533
-0.0573239
-0.0659572
-0.0227322
-0.0426877
-0.152079
-0.126456
-0.409494
-0.100606
0.0464186
0.341881
-0.116502
-0.223887
-0.137974
0.0648907
-0.116947
0.0329822
-0.193694
-0.118159
0.00848585
-0.214038
-0.113008
0.00824284
-0.0277486
-0.181587
0.00848365
0.024374
-0.0451917
0.0881461
-0.121579
-0.00351581
-0.017556
-0.069627
0.0203144
-0.323091
-0.0399255
-0.549331
0.026529
0.00961345
-0.180279
-0.132748
-0.424902
-0.147598
0.458538
-0.476387
-0.102237
-0.024047
0.0243402
-0.144449
-0.0976442
-0.0197092
-0.0625685
-0.0274929
0.072935
-0.17338
-0.207645
-0.211371
-0.315072
-0.033508
-0.131746
-0.48151
-0.00910919
0.498026
-0.0294824
-0.0203691
0.155611
-0.0144176
0.00549482
-0.0487199
0.0425838
-0.0958713
0.364121
-0.0259088
-0.246914
-0.565999
-0.114421
-0.524905
0.0371699
-0.0307536
-0.301616
-0.337516
-0.118822
-0.0711194
-0.380126
-0.129597
-0.153067
0.0100919
-0.0207903
-0.166997
0.0078508
0.188397
-0.206665
-0.094264
0.267032
0.00634648
-0.0112177
0.0172252
-0.0387458
-0.118112
-0.244447
0.0678781
-0.138063
-0.545277
-0.0100296
-0.0498651
-0.190058
-0.467678
0.00474278
-0.114027
-0.127929
-0.457394
-0.0482863
-0.385931
-0.118378
-0.0699516
-0.173094
0.359935
-0.212252
-0.134287
-0.142738
-0.117162
0.00865821
-0.173332
-0.137675
-0.0347419
0.0968272
-0.0423167
-0.307986
0.0128028
-0.0013711
0.0122084
-0.0762387
0.131122
-0.365663
0.0567249
-0.541832
-0.561348
-0.253201
-0.43553
0.00147578
-0.0644634
0.0255829
-0.0937294
-0.0237256
0.00876288
-0.105269
-0.468075
0.000184437
0.0162047
-0.153749
-0.321932
-0.0338132
0.37061
0.0313924
-0.0479568
0.0309741
-0.149905
-0.0362876
-0.00225717
-0.0252662
-0.216077
-0.119965
-0.105875
-0.0609362
-0.010424
-0.192502
-0.0464214
-0.153508
-0.121792
-0.469992
-0.166944
0.00577166
-0.130974
-0.0564971
-0.0357133
-0.0212466
0.00829549
-0.189887
-0.0189041
0.0241429
0.00828554
-0.00353052
0.0102201
-0.254242
0.171258
-0.131747
-0.150735
-0.205789
-0.327108
-0.21139
-0.0125753
-0.0372015
-0.386667
-0.156963
-0.125762
-0.198447
-0.144563
0.0501217
-0.0264988
-0.490166
-0.014899
-0.296512
-0.534236
0.0226797
-0.130176
-0.426218
-0.335851
0.0150334
-0.0260854
-0.0845112
-0.000558962
0.198113
-0.0111756
0.00195717
-0.135158
-0.12325
-0.493521
0.0315907
-0.00899971
0.0154472
-0.123875
-0.0149871
-0.117734
-0.204702
-0.118363
-0.00275744
-0.0748329
0.0128465
0.00887219
-0.0104258
-0.120183
0.00416809
-0.390264
0.354938
-0.427638
-0.0220131
0.231847
-0.359757
-0.0456537
-0.307784
-0.368537
-0.185565
0.0313966
-0.304773
-0.117709
0.00375649
-0.162744
-0.494699
0.00174162
-0.225182
-0.130914
-0.129431
-0.144771
0.0263798
-0.113216
-0.195063
0.431309
0.0261577
-0.149277
-0.200853
0.258473
-0.366623
0.446786
-0.432677
0.0185779
0.00159497
-0.0934063
-0.518256
-0.120382
-0.245507
-0.0964303
-0.212631
-0.241662
-0.296322
0.0828837
-0.00439663
-0.0010793
-0.339405
-0.264761
-0.488159
-0.545377
-0.0854999
0.165829
-0.111828
-0.20192
-0.00288997
-0.56425
-0.00966999
0.0641214
0.00187113
0.00199997
-0.410058
-0.0126034
0.208522
-0.145993
-0.035743
0.0276703
-0.132792
-0.0339957
-0.00957503
-0.187989
-0.0267199
-0.116348
-0.273332
-0.12449
0.00413697
-0.486539
-0.0151893
-0.206951
-0.291233
0.0196263
0.0180178
-0.0322649
0.0081714
0.0152454
-0.0346269
0.0180526
0.00737303
-0.264549
0.0799106
-0.00340943
-0.0230142
-0.0107523
-0.180907
-0.150872
-0.137605
0.0209835
-0.028469
-0.366888
-0.153572
0.15937
0.00132654
0.0176735
-0.0147093
-0.131932
-0.165252
0.0634425
-0.215199
-0.254983
-0.281798
-0.425353
-0.108794
-0.000992961
-0.121695
-0.118687
-0.108439
0.00202704
-0.387676
-0.0290556
-0.546942
-0.0228114
-0.119058
-0.00696798
-0.349034
-0.132467
-0.0939742
-0.224968
-0.205265
0.011337
-0.0905749
-0.221954
-0.10088
-0.0207455
0.0362177
0.0401572
-0.507705
0.232901
0.00297883
-0.0115127
-0.154581
-0.0152317
-0.0811253
0.499001
-0.113938
-0.172782
-0.139838
0.0159815
-0.113568
-0.00592782
-0.397567
-0.0179977
-0.181279
0.0840074
0.003249
0.0212389
-0.153248
0.148113
-0.00274629
-0.35211
-0.0250841
-0.238451
-0.168976
-0.216906
-0.399806
-0.119743
-0.233555
-0.118539
0.0537985
-0.0785971
-0.0789419
0.0117501
-0.0174341
-0.115943
-0.1419
0.00800821
-0.0149095
-0.0123293
0.00428091
0.420692
-0.123536
0.0411712
-0.120009
-0.312681
0.157407
-0.117383
-0.121576
0.171624
0.102253
-0.0599441
0.00850223
-0.0172042
-0.0143121
0.14214
-0.00706284
0.012437
-0.0498468
-0.231563
0.00838457
0.0164058
0.00254402
-0.014589
0.00998218
-0.0944415
-0.0679792
-0.115313
-0.114094
-0.0140809
0.433383
-0.182303
-0.018629
-0.172652
-0.218209
0.0201367
-0.401901
-0.131688
-0.0107959
-0.113083
-0.135571
-0.0876187
0.0196534
-0.0932837
-0.0235878
-0.174553
-0.09645
-0.19858
-0.444583
-0.136643
-0.0675692
0.00811721
-0.338533
-0.0886987
-0.112799
-0.381625
-0.343229
-0.119423
-0.312103
-0.0293421
0.106026
-0.507216
-0.259443
-0.0698607
0.150038
-0.158594
-0.00917589
-0.116247
-0.11745
-0.24216
0.0229555
0.10447
-0.567654
-0.16576
-0.00890897
-0.235746
0.0755624
-0.0200575
-0.156035
-0.343958
-0.0585459
0.0290559
-0.0518455
0.491713
-0.0614215
-0.557597
-0.253309
-0.490447
0.0124528
0.0155433
-0.1192
-0.121649
0.10279
-0.0764897
-0.0820599
-0.118947
0.414209
-0.301628
-0.16398
-0.395797
-0.272336
0.0237478
-0.214274
-0.212351
-0.0270235
-0.478927
-0.116859
-0.0549254
-0.110749
-0.193422
-0.114431
-0.0160031
0.188386
-0.168436
-0.0919982
-0.0137096
0.00832491
-0.116894
-0.00989607
0.085249
-0.140513
-0.121472
-0.409063
0.420135
-0.187631
-0.228301
-0.296586
-0.124249
0.00586635
0.0717365
-0.0557549
-0.328007
0.00721901
-0.174588
-0.208216
-0.23314
-0.438007
0.0695039
-0.239805
-0.153035
-0.351165
-0.274042
-0.0623661
0.388283
0.0153442
-0.0233367
-0.134656
-0.0828631
-0.123665
-0.324639
0.0027806
0.0031676
-0.480026
-0.00336503
-0.163277
-0.004205
-0.17274
0.0155909
-0.0645039
-0.184817
-0.00303903
-0.248861
-0.226792
-0.203538
0.031919
-0.0876705
-0.133822
-0.187451
-0.289224
-0.472741
-0.122094
-0.0599383
-0.00922597
-0.00157845
-0.132961
-0.043279
-0.150782
-0.349535
-0.254637
0.0858771
-0.288781
-0.0128793
-0.119004
0.414113
0.0254266
0.00334549
-0.277132
-0.0380372
-0.0254322
0.407315
-0.00322678
-0.282603
-0.472086
-0.503634
-0.517566
0.144968
-0.165106
9.6476e-05
-0.211235
-0.00593647
0.0375259
0.0158297
-0.101369
0.00665054
0.00801572
-0.406106
-0.00973799
-0.0221066
-0.0428244
0.240796
-0.114239
-0.217544
-0.114947
-0.0790777
0.00282853
-0.373275
-0.0981291
0.0428221
-0.05154
-0.234989
-0.216396
0.00380346
-0.416838
-0.439985
-0.0799155
-0.179346
-0.0656223
0.0280715
-0.286174
-0.390129
-0.22239
0.412206
-0.105419
0.0379712
0.113298
-0.0507851
0.0213818
-0.22048
-0.286904
0.0133301
-0.0190315
-0.470389
-0.408789
-0.290288
0.101717
-0.179463
0.182228
-0.118637
0.0395961
-0.0205169
-0.150245
-0.113001
-0.222851
-0.139121
0.145046
-0.103781
-0.338771
-0.277193
-0.0873753
-0.118914
0.215342
-0.0136888
-0.111513
0.0448169
-0.019824
-0.00671025
-0.457633
0.00862207
-0.0141566
0.0497052
-0.288667
-0.0440336
0.100581
0.0223999
0.433147
-0.0845249
0.0991653
0.0126353
-0.259014
-0.220899
0.0988076
-0.00821325
0.0018342
-0.149319
-0.125243
0.0197053
0.0550973
0.440128
-0.016292
-0.233214
0.168295
-0.358039
0.0124565
-0.0839896
-0.0110814
0.0469507
-0.0285554
0.422689
-0.174619
0.423553
0.437351
-0.028423
0.305944
-0.0888099
-0.114855
-0.0082609
0.0185691
0.0777913
-0.213873
-0.342181
-0.0468741
-0.012219
0.209251
0.405372
-0.439
-0.0229126
-0.360816
0.0286098
0.0214054
0.0154071
0.440108
-0.0225135
-0.0412374
0.00588866
-0.313537
-0.055818
-0.00695411
-0.25842
-0.126067
0.003587
-0.481979
-0.068612
0.206357
-0.398671
0.455021
-0.00518051
-0.445274
-0.133601
-0.542291
-0.0147068
-0.119514
-0.0371072
-0.0762687
-0.222222
-0.0341527
0.471417
-0.0904723
-0.116258
-0.166211
-0.0120485
-0.164215
-0.295561
-0.13491
0.0181886
-0.125099
-0.110201
-0.0764221
-0.366376
0.112224
-0.231949
-0.142061
-0.120463
-0.124249
-0.0158253
0.0242666
0.114421
0.304256
-0.094866
-0.0125322
-0.0545037
0.0250849
-0.13913
-0.0131709
-0.23622
0.0148375
-0.207763
-0.107582