/*--------------------------------*- C++ -*----------------------------------*\
| =========                 |                                                 |
| \\      /  F ield         | OpenFOAM: The Open Source CFD Toolbox           |
|  \\    /   O peration     | Version:  v2012                                 |
|   \\  /    A nd           | Website:  www.openfoam.com                      |
|    \\/     M anipulation  |                                                 |
\*---------------------------------------------------------------------------*/
FoamFile
{
    version     2.0;
    format      ascii;
    class       volVectorField;
    location    "300";
    object      ddt0(U);
}
// * * * * * * * * * * * * * * * * * * * * * * * * * * * * * * * * * * * * * //

dimensions      [0 1 -2 0 0 0 0];


internalField   nonuniform List<vector> 
18232
(
(-0.000132173 0.0005287 0)
(-0.0720177 -0.0125498 1.30712e-20)
(-0.249301 0.311427 -1.45856e-19)
(-0.0225324 -0.027473 0)
(0.00156243 0.00290151 -2.37363e-21)
(-0.0399781 0.214251 -9.26724e-20)
(-0.00465659 0.0569948 5.54548e-21)
(1.46451e-05 -8.52969e-06 4.10136e-22)
(0.000145226 -1.58766e-05 0)
(-0.00621771 0.0469777 0)
(0.00198254 0.000284283 1.09038e-21)
(0.00128343 0.00120865 -4.6519e-21)
(-0.0375918 -0.0538746 3.4805e-20)
(-0.0340874 0.103448 -9.86623e-21)
(0.0169566 0.0261581 5.021e-21)
(0.0299926 -0.192543 1.04991e-20)
(-0.0031801 -0.0117438 -1.03826e-20)
(-0.10277 -0.192852 -7.67737e-22)
(9.20835e-05 -1.42837e-06 1.68864e-22)
(0.00369869 0.0875219 -2.50457e-20)
(-0.213996 -0.00325758 -8.2496e-21)
(-0.00616641 0.052989 2.76503e-21)
(-0.0417717 -0.0647198 -2.65214e-20)
(-0.000415772 0.000970134 -5.65607e-21)
(-0.000130589 0.000418642 7.1571e-22)
(-0.000401946 -0.000209795 -2.15863e-22)
(-0.000873902 0.0050416 3.27833e-21)
(-0.0264423 -0.0900467 -7.91789e-21)
(8.61862e-05 0.000150866 1.04432e-22)
(-0.0660187 -0.00889836 0)
(-0.000352124 -0.000302537 1.92407e-22)
(-0.0104846 0.103213 0)
(0.0116925 -0.0223887 0)
(0.00172228 -0.00322574 8.50838e-21)
(-0.0229861 -0.0172973 -5.21875e-20)
(1.12621e-05 -1.14971e-05 3.8992e-22)
(-0.203367 -0.0125685 -3.21675e-20)
(0.0208882 0.563407 -4.44381e-21)
(-0.0547061 0.043405 1.91589e-21)
(0.000437 -4.54452e-05 0)
(-0.0441856 -0.0198614 4.71268e-21)
(0.000545439 0.000191042 -2.61295e-21)
(-0.294295 0.111443 1.59489e-19)
(-0.000406116 0.00105075 -4.41518e-21)
(-0.055809 -0.0317364 0)
(0.00335111 -0.00143559 1.02571e-20)
(0.291633 0.0670646 -1.29067e-20)
(0.0146382 -0.0236585 0)
(0.0144733 0.0229818 -2.30643e-20)
(-0.0463423 0.212489 2.4336e-20)
(-0.000829108 -0.0126597 8.63351e-21)
(0.0166439 0.0154582 -9.27889e-21)
(0.000200168 0.00031333 3.67322e-21)
(-0.000289787 -0.00742058 -2.22009e-21)
(0.000281059 0.000441135 -7.60359e-22)
(0.000200463 7.90525e-05 0)
(0.0627414 -0.185719 -9.20606e-21)
(0.287117 0.0939095 -7.79353e-21)
(0.00146475 0.000299151 9.91245e-21)
(0.0171632 0.0209187 -2.031e-20)
(0.02189 -0.0499294 0)
(0.134176 0.175938 1.45567e-20)
(-0.131648 0.0322822 9.62506e-21)
(-0.00764414 0.0439397 1.14866e-21)
(-0.00551931 -0.00117722 -4.57176e-22)
(-0.000345335 -0.00126527 -1.78962e-21)
(-0.0551367 0.0422394 3.56676e-22)
(0.00328897 -0.00194304 -5.76171e-21)
(-0.00108337 0.0015878 0)
(0.00137158 0.000314522 -6.84366e-21)
(0.000508027 -0.00041301 0)
(-8.55945e-05 0.000125823 0)
(-0.0232361 -0.0692985 -2.60695e-21)
(0.000564071 0.000237673 0)
(0.00867209 -0.0475732 5.26059e-20)
(0.000490954 0.000199489 0)
(-0.00392446 0.00538207 0)
(-0.0992752 0.0481564 0)
(-0.12229 0.0256882 0)
(0.0174807 0.00827633 6.92694e-21)
(-0.0482231 -0.0768543 2.32287e-20)
(-0.0211569 -0.014488 -5.7597e-21)
(-0.0943999 -0.00772492 -3.90743e-20)
(-0.00566322 0.00936135 0)
(-5.83169e-05 0.000149166 3.90246e-23)
(-0.228834 0.143884 2.15961e-20)
(0.00157999 0.00217798 2.88991e-21)
(7.7297e-05 5.45411e-06 0)
(0.00703127 -0.0330015 5.63496e-22)
(-0.139221 0.308641 -4.24505e-20)
(-0.00178016 -0.00719833 0)
(0.000391879 -0.000115917 0)
(0.00196735 -0.0299483 3.71883e-20)
(0.304302 0.120528 -4.77913e-20)
(-0.00507839 -0.00210873 1.03446e-21)
(-0.00853016 0.0126772 6.7018e-22)
(0.000643187 -0.000892225 1.02117e-20)
(0.000407103 -0.000173211 -4.55873e-21)
(0.000685032 -0.000725891 -5.07046e-21)
(0.0035396 -0.0060421 -4.19974e-21)
(-0.0997992 0.216537 -3.66063e-20)
(0.153017 0.197448 1.96859e-20)
(0.000143388 0.000193651 0)
(5.62569e-05 0.000288534 4.07843e-23)
(0.000535325 -0.000375885 0)
(-0.0294868 -0.080347 3.73789e-21)
(0.00264082 5.7967e-05 0)
(-0.0446602 0.101471 0)
(-0.117842 -0.182975 0)
(-0.0142742 0.0307756 0)
(-0.0218155 0.0260245 -4.97025e-21)
(-0.00409084 0.00700174 -5.28297e-21)
(0.0100493 -0.0481157 2.63928e-20)
(-0.0751866 0.105895 5.86944e-21)
(7.63633e-05 0.000268195 -1.15794e-23)
(0.00519742 0.00226118 4.60144e-21)
(0.00298777 -0.0033451 -2.03744e-21)
(-0.0233875 -0.0630151 1.02826e-20)
(-0.0597638 0.108783 1.21268e-20)
(-0.000231363 -0.00129015 -7.65883e-23)
(-6.73673e-05 0.000133091 -1.13584e-22)
(0.00458595 -0.0723995 -3.36747e-21)
(6.61765e-05 -3.30884e-06 1.28781e-21)
(0.121184 0.043237 3.40808e-20)
(0.000476098 0.000188038 -2.46207e-21)
(0.000252615 3.77537e-05 0)
(0.00405162 -0.0113421 1.37106e-21)
(-0.162346 0.340138 0)
(-0.0551159 0.00121308 0)
(-0.0160307 -0.0306792 -4.6317e-21)
(-0.00279244 -0.00274968 9.33539e-22)
(-0.0183486 -0.0271876 -5.51685e-21)
(0.000284982 0.000344965 -7.15874e-22)
(0.00044885 4.97662e-05 -4.31872e-22)
(0.00324782 -0.0012709 1.10538e-20)
(9.72341e-05 0.000129824 -6.60006e-23)
(-0.0254994 -0.0149543 0)
(0.00815307 -0.0208513 2.98611e-21)
(-0.175348 -0.0141649 2.8988e-20)
(-0.0432646 0.203572 1.62477e-20)
(9.54286e-05 0.000150109 -6.13195e-24)
(-0.264321 0.0898024 1.27401e-20)
(-0.478353 0.351347 1.86139e-18)
(-0.102361 0.0027502 4.80395e-20)
(0.000339543 3.33277e-05 6.49137e-22)
(0.0018224 -0.00102715 4.12481e-23)
(0.00328756 -0.00473453 -7.57315e-21)
(0.0736549 -0.0268199 -8.47169e-22)
(0.00043836 -0.00122078 0)
(0.00241012 0.000613443 -2.21464e-21)
(-0.0168996 -0.0655836 3.82899e-22)
(0.000250474 0.000408122 1.43756e-21)
(-0.0949825 0.255178 3.43093e-20)
(0.00612638 -0.00482057 -5.36939e-21)
(-0.0837559 -0.224439 -1.22148e-20)
(-0.030573 -0.0745187 -1.63599e-21)
(-0.271847 0.343272 -7.51991e-19)
(-0.00128094 -0.0217686 1.68904e-20)
(-0.00209964 -0.00347531 0)
(-0.352985 0.100625 1.98953e-20)
(6.08366e-05 0.00018476 0)
(0.151891 0.152709 0)
(-0.118069 -0.248427 -5.81393e-20)
(-0.225136 0.188379 -2.07623e-21)
(-0.0124823 0.0289854 3.46512e-21)
(0.00055082 4.1465e-06 -6.16351e-21)
(0.0485522 0.0085176 9.27674e-21)
(0.0683458 0.476474 4.68921e-20)
(0.00048311 -0.000170006 5.43484e-21)
(-0.0289066 -0.0630664 2.29499e-21)
(0.00115611 0.00120625 0)
(0.122581 0.0594833 2.27113e-20)
(-0.0511577 -0.00327882 1.6544e-19)
(0.000586177 0.000194278 -2.43343e-21)
(1.90407e-05 -0.000152866 7.0974e-22)
(0.000115358 0.000206228 7.34488e-22)
(0.0387713 -0.121227 1.07872e-21)
(0.00218822 -0.00115114 -8.04249e-23)
(4.8159e-05 0.000320666 3.0747e-24)
(0.000122252 0.000192722 7.20935e-22)
(0.000200144 0.000549601 -7.04853e-22)
(-0.0622665 0.113672 -5.49858e-21)
(0.00305125 -0.00149566 -9.6924e-21)
(0.0288224 -0.0857004 -1.06971e-21)
(-2.15754e-05 -7.85992e-05 5.04958e-22)
(0.000251548 0.000155705 0)
(0.000105882 1.97962e-05 -9.76958e-23)
(-0.187105 0.00654176 2.24739e-21)
(-0.0171231 0.0227983 1.63522e-20)
(-0.0189652 -0.0132752 7.96801e-21)
(0.00282715 -0.00192046 -5.00625e-21)
(0.0259041 0.150851 1.41067e-20)
(-8.70396e-05 0.000233891 2.73199e-21)
(-0.000117573 0.000336159 0)
(0.00124153 0.00120839 0)
(-8.00754e-05 0.000174071 2.51742e-21)
(0.0467532 0.0112454 9.22565e-21)
(0.00203365 -0.00101881 3.77964e-24)
(0.00457694 -0.00319522 9.05484e-22)
(0.000424982 0.000164129 6.43077e-21)
(0.000481633 0.00117302 3.42656e-22)
(0.000248356 0.000637556 0)
(0.00138334 0.000379857 0)
(4.58153e-05 -0.000148171 1.50156e-21)
(0.00203586 -0.00150294 -7.45444e-21)
(-0.00307849 -0.00273211 0)
(-0.0162368 0.021384 8.14909e-21)
(8.36502e-05 3.50137e-05 -1.77365e-22)
(0.00190108 0.00352929 0)
(-9.44024e-06 -0.000127613 -7.05176e-22)
(0.000121281 6.88134e-05 0)
(0.000199982 -0.00108925 0)
(0.000240224 -9.95085e-05 -9.41773e-22)
(-0.00953525 0.0127087 0)
(0.00118745 0.000294352 -4.93535e-21)
(-0.0168566 -0.157863 0)
(-0.00400538 0.00585321 -4.91409e-21)
(0.000446392 -0.000187518 -3.55889e-21)
(0.0338233 -0.0970651 -3.84009e-20)
(-0.0358785 -0.0966626 -3.2646e-21)
(0.00486516 -0.00987423 0)
(-0.00944548 0.0158568 0)
(-0.017571 -0.0721585 1.87405e-22)
(0.109333 0.0656677 0)
(0.00735375 -0.000209575 -8.57188e-22)
(0.000285708 0.000536465 7.35485e-22)
(0.00309632 -0.00114016 0)
(-0.00215715 0.000707362 -6.91823e-22)
(0.0137089 0.0249714 0)
(-0.0266995 -0.00313902 -9.40835e-21)
(0.0199295 -0.0805645 -6.32253e-20)
(0.000126423 4.21657e-05 0)
(1.17734e-05 -0.000154849 -7.23857e-22)
(0.000180456 0.000255057 3.32094e-23)
(-0.00362683 -0.00384224 0)
(7.03752e-05 0.000297654 0)
(-0.00372096 -0.00237627 3.18078e-22)
(-0.0487769 -0.0427788 -4.64439e-20)
(-0.0081198 0.00886602 0)
(-0.00169755 0.00249545 6.74852e-22)
(-0.258962 -0.0340882 1.8517e-20)
(-0.000112792 0.000274534 -6.85728e-22)
(-0.00219509 0.000269208 0)
(-0.000366431 0.00492825 0)
(0.292875 0.109561 5.45932e-20)
(-1.74573e-06 -1.47656e-05 -4.25501e-22)
(-0.00340715 -0.0184705 5.78603e-21)
(-0.0066752 0.00447696 -1.31464e-21)
(0.000261362 0.000250631 -3.27188e-21)
(3.73652e-05 -0.000157132 -1.50946e-21)
(-0.242323 0.053867 0)
(0.0135838 -0.0183007 3.30855e-22)
(-0.259445 -0.0393355 0)
(-0.00167263 -0.0165183 -2.39836e-20)
(-0.0181519 -0.0186327 -3.10371e-21)
(0.0243871 -0.102692 6.04718e-20)
(0.00370777 -0.00193199 4.83917e-21)
(-0.00200895 -0.155608 5.8215e-20)
(-7.53277e-05 0.000202806 -1.34758e-21)
(0.000542089 -7.41711e-05 7.68801e-21)
(0.0267811 -0.0833036 6.51342e-21)
(0.000209981 -7.56713e-05 0)
(-0.0147463 0.523328 -1.28766e-19)
(0.000300952 -2.39421e-05 1.55064e-21)
(-0.000718911 -4.27962e-05 -8.42283e-21)
(-0.0440587 -0.038326 5.13994e-23)
(-0.0129158 0.0150795 3.48988e-21)
(-0.00174525 0.00293385 -6.54654e-22)
(-0.000120915 0.000381197 7.34494e-22)
(-0.016977 0.444694 1.17736e-19)
(-7.63095e-05 -1.58718e-06 -6.18132e-22)
(-0.0036552 -0.00215076 0)
(-0.0194447 -0.0817941 -7.73293e-21)
(-0.184086 -0.00273649 0)
(0.10077 -0.0953941 -4.14407e-21)
(0.000628741 0.000235686 0)
(-0.0194735 -0.131092 1.56006e-21)
(-0.000705101 -1.82874e-05 2.65791e-21)
(0.000271293 0.000630748 1.97646e-22)
(0.105956 -0.101925 6.88141e-21)
(-0.102663 0.0228093 -1.58233e-20)
(-0.0285138 0.144894 2.96089e-21)
(-0.0564329 0.0364961 -2.81363e-21)
(5.67668e-05 -3.90314e-05 4.3081e-22)
(-0.0118303 0.017339 1.7496e-21)
(-7.99295e-05 -0.000274366 3.86377e-22)
(0.00023266 4.87599e-07 -3.9171e-21)
(0.00030086 -0.000135156 0)
(-0.0985522 0.299534 0)
(-0.0630075 -0.0862844 -6.52288e-21)
(-0.0225125 0.287997 0)
(-0.0198242 0.146644 0)
(0.000107879 0.000119401 -7.86722e-23)
(0.00111165 -0.000339562 -2.56892e-21)
(-0.00198515 0.00112108 0)
(0.0004717 -3.84841e-05 4.50581e-21)
(0.000287226 0.000744299 -1.93827e-21)
(0.000127177 2.09834e-05 3.35299e-22)
(0.000222895 0.00225062 -3.40044e-22)
(-0.0284098 -0.0565434 -1.08755e-20)
(0.00108147 -0.000612067 1.83889e-21)
(-0.0963012 0.00526042 -2.19227e-21)
(-0.252896 -0.0205125 -1.39319e-21)
(0.000225352 0.000427403 2.45401e-21)
(5.22052e-05 -6.59358e-05 -1.1699e-21)
(0.000453971 1.2419e-05 4.02938e-21)
(0.0013838 -0.00137989 9.42918e-21)
(0.0217689 -0.000491688 0)
(0.000491577 -0.00111425 1.56462e-21)
(-5.36936e-05 8.15692e-05 -2.37696e-21)
(6.53784e-05 -1.34085e-05 -1.96711e-21)
(-0.0472109 0.00524689 0)
(0.0066944 -0.0363976 0)
(0.00025945 0.000502522 -7.74671e-22)
(0.00344599 0.00130446 1.21614e-21)
(0.108456 -0.0953348 1.33313e-21)
(6.34282e-05 0.00028924 0)
(0.00287213 -0.00137738 -2.49949e-21)
(-0.00574917 0.00849598 -1.42908e-21)
(-5.47958e-05 0.000174741 -2.40838e-23)
(0.00069566 -0.000978189 0)
(0.018444 0.161695 -4.04199e-20)
(0.0330649 -0.0480762 4.98295e-21)
(0.000512203 -2.25311e-06 0)
(-0.0465908 0.000594051 0)
(0.14627 0.129241 1.19217e-20)
(0.00135585 0.00127802 9.51577e-21)
(0.00070993 -0.00134578 2.7206e-21)
(0.000569036 -0.00110304 -1.54584e-21)
(0.000526464 -0.000247903 -4.129e-21)
(0.00670965 -0.0100866 -2.55096e-21)
(0.0289587 -0.010764 7.37157e-21)
(0.124749 -0.0931194 3.8984e-22)
(0.00153221 -0.00175885 -1.16669e-20)
(0.0144097 -0.0166859 0)
(0.0286625 -0.0228358 -1.15661e-20)
(0.000154416 0.000171047 9.78961e-22)
(0.000246579 0.0016276 0)
(-0.00603972 -0.0208325 1.06651e-20)
(0.000584302 -0.00701956 5.89487e-22)
(-0.0197217 0.0472107 -3.10738e-21)
(-0.0386494 -0.122851 5.91516e-21)
(-0.00189917 0.00477396 6.1965e-21)
(-0.0166053 0.042979 1.41285e-20)
(-0.00446296 0.00903389 9.87884e-22)
(0.0240018 0.000629757 0)
(0.239468 0.0645236 0)
(-3.44114e-05 -0.000220382 -7.96878e-22)
(0.00187768 -0.000543346 0)
(-1.30654e-05 -0.000122986 -1.18693e-21)
(0.00035041 -2.24724e-05 2.75222e-21)
(0.0291959 0.0140274 4.70049e-21)
(-0.0199969 -0.0135157 0)
(0.00048191 0.000825915 3.1024e-21)
(0.00202628 -0.00257503 6.39172e-21)
(-5.17126e-06 -0.000143851 -3.51379e-22)
(0.00218978 0.443594 -3.46187e-20)
(0.000376 -0.000111541 8.6628e-22)
(0.00123911 0.0015939 -3.21589e-21)
(0.0014907 -0.00118606 1.12668e-20)
(0.000362887 -0.00118329 0)
(0.0898113 0.0288273 -1.98859e-20)
(0.027488 0.0102813 -1.14377e-21)
(0.000120792 -1.63827e-05 0)
(0.000899683 -0.00119186 0)
(0.000368541 -0.00023742 0)
(-6.97505e-05 1.44724e-05 -5.74745e-22)
(0.00158381 -0.00147448 0)
(-0.0182373 -0.0280143 -3.64432e-21)
(-0.000144623 -0.000217391 6.43095e-22)
(-4.51848e-06 -2.07808e-05 5.1783e-22)
(-0.00313351 0.00681997 0)
(0.248728 0.0805748 0)
(0.000125305 0.00220329 1.9405e-21)
(-0.00357968 -0.0032997 0)
(0.000615848 0.000169866 0)
(-0.0540381 0.286773 0)
(-3.02591e-05 0.000209723 1.75679e-23)
(0.00080366 -0.00016692 -3.16159e-21)
(0.0865929 0.220365 0)
(-0.057984 0.0898445 0)
(0.000445105 9.70884e-05 0)
(0.00242311 -0.00169859 -7.94521e-21)
(0.00549129 -0.0173571 -2.89179e-21)
(-8.16307e-05 6.34868e-05 -1.18993e-23)
(-8.32078e-05 7.58505e-05 -3.24768e-23)
(0.00730712 0.00545272 2.92793e-21)
(0.0152858 -0.0215002 0)
(0.00354007 0.00617282 4.7382e-21)
(0.000717404 -8.50047e-05 1.79361e-21)
(0.00206266 0.00388481 0)
(0.0124363 -0.0698305 3.68413e-22)
(0.000284803 0.00021658 1.33892e-21)
(8.96914e-05 1.96068e-05 -1.96666e-22)
(-0.00174702 0.00136755 5.66079e-22)
(0.00267807 -0.00533977 -6.81474e-21)
(-0.00240386 0.0319249 0)
(-7.1814e-05 -0.000191379 1.22396e-21)
(0.0135249 0.150051 3.40315e-21)
(0.00287242 -0.00229326 0)
(-0.0603915 -0.00897411 2.25059e-20)
(3.88337e-05 0.000101314 0)
(0.00748626 0.00233024 -1.51461e-24)
(0.00309817 -0.00509857 -1.38539e-22)
(-0.261106 0.255713 -9.60012e-21)
(0.0292698 0.0101122 1.07095e-21)
(0.00177333 0.0076593 0)
(0.0948329 0.0219044 0)
(0.00763865 -0.0326376 -9.66852e-21)
(0.00333049 0.00404249 0)
(-0.013935 -0.0824232 -8.37628e-20)
(0.00296553 0.00416339 -4.10533e-21)
(0.00416641 -0.0127634 0)
(0.00128597 -0.00111614 -6.83501e-23)
(0.00150504 0.0008827 2.46503e-21)
(0.00186649 0.00283547 0)
(0.00109383 1.02082e-05 0)
(-0.28706 0.269713 0)
(5.80108e-05 2.30342e-05 5.41475e-22)
(-0.00215528 0.00138571 3.6728e-22)
(0.00311556 0.00154279 0)
(0.0331112 0.151302 -2.06102e-20)
(-0.0188399 0.025367 0)
(0.0187091 -0.00788572 0)
(-0.00115409 -0.00405231 -1.19913e-20)
(0.0145997 0.013853 -4.17304e-21)
(0.0531384 0.00790746 3.55584e-22)
(0.000503027 -1.5592e-05 -1.60224e-21)
(0.00131976 -0.00111631 -7.31298e-21)
(-0.0872565 0.293469 -3.84829e-20)
(-0.0295668 -0.27935 -2.85201e-20)
(0.00332857 -0.00131473 -4.74838e-21)
(0.00157154 -0.00120241 0)
(0.000462499 -3.30891e-06 0)
(6.69914e-05 0.000102562 -6.60112e-22)
(-6.29391e-06 0.000290012 0)
(0.0565424 -0.0237209 7.00351e-21)
(-0.00206962 -0.0036324 -9.13024e-22)
(5.96536e-05 1.7326e-05 0)
(0.0167996 0.0170271 0)
(6.29576e-05 -0.0011998 -5.62222e-22)
(0.000359384 2.5304e-05 -7.68015e-22)
(-0.0204879 -0.0708527 3.52276e-21)
(0.000289474 -3.63626e-05 0)
(0.000125392 0.00173926 0)
(0.00244076 -0.000285893 0)
(0.00883851 0.0277852 5.85722e-21)
(-0.0817471 -0.221011 0)
(0.000240578 -7.08264e-05 9.68771e-22)
(0.000848662 0.000451674 -1.42015e-20)
(0.0339088 0.364065 -5.90331e-21)
(0.00109174 -0.00377016 -3.78524e-22)
(0.0590251 0.0124549 -4.65597e-22)
(0.000570721 0.000216559 0)
(0.000411918 5.46344e-05 -2.51758e-21)
(0.000456656 5.09291e-05 5.21613e-21)
(0.00111469 -0.00109228 -5.47006e-21)
(0.0266773 0.0838913 -8.64837e-21)
(-0.00863661 0.00436475 -5.18585e-21)
(0.000592015 8.52451e-05 0)
(0.00111194 0.00125171 5.05344e-21)
(2.99964e-05 1.16219e-05 0)
(0.002346 0.00454281 0)
(0.00161083 0.00129142 -5.98552e-21)
(0.00555567 -0.00309299 -7.91853e-21)
(0.00237076 0.00426379 0)
(0.00049308 -0.000235985 0)
(0.0347639 -0.0654463 4.34958e-21)
(-6.59678e-05 0.000160429 0)
(-6.33978e-05 0.000146806 -1.70641e-23)
(0.23719 0.0763557 -1.33384e-21)
(0.00693714 -0.00431834 0)
(-0.103525 0.313717 2.06778e-20)
(-0.280576 0.194282 -1.25427e-19)
(-0.0553974 0.0412355 0)
(3.56304e-06 3.13009e-05 1.09051e-22)
(-4.99498e-06 2.57765e-05 1.02343e-22)
(0.00064274 -0.000479148 -4.03473e-21)
(0.00185542 -0.0118185 -1.09479e-22)
(-2.24443e-05 5.83041e-05 2.53644e-21)
(4.47813e-05 0.000255664 -3.08668e-22)
(0.000575244 -0.000208281 0)
(-0.00253023 0.0952193 0)
(6.79632e-05 8.82924e-06 5.05263e-22)
(0.000230616 0.000524391 1.45424e-21)
(0.000260383 0.000450278 0)
(0.0538546 -0.0216834 7.81063e-21)
(-0.0783823 0.0342275 7.62341e-21)
(-0.0630789 0.0794115 8.02853e-21)
(0.00591243 0.00260464 -9.83425e-21)
(-0.00145232 0.00666584 0)
(-0.096513 0.106962 6.82216e-21)
(0.060815 0.431749 4.6796e-21)
(4.54848e-05 2.76185e-05 9.72717e-22)
(-0.0117073 -0.0534497 4.79816e-22)
(0.000650189 0.00191199 0)
(-0.378786 0.154876 -2.00356e-20)
(0.000614028 0.000649039 2.28043e-21)
(0.00305229 0.00329737 0)
(0.000125606 1.08473e-06 -3.73758e-22)
(0.00778613 -0.0355936 -5.68484e-22)
(0.000137256 -8.52963e-06 -3.97903e-22)
(-0.000109292 0.000301346 -2.83951e-21)
(0.00166098 -0.000689109 -2.59546e-21)
(-0.145162 -0.00854073 -3.1364e-20)
(-8.68608e-06 -0.000133589 1.39797e-21)
(-0.0110857 0.00594693 0)
(-5.21235e-05 0.000133242 -3.47218e-21)
(-0.134184 0.256345 1.75758e-20)
(-9.81204e-05 -0.00125641 1.04238e-21)
(0.0155526 0.0148721 0)
(7.63454e-05 0.000169177 0)
(0.00406656 0.00530478 -2.10538e-21)
(-7.42167e-05 2.37671e-05 1.78537e-22)
(-0.0952515 -0.520237 -2.22698e-20)
(0.00671896 0.00128642 -2.7149e-21)
(-8.45181e-05 -4.89685e-06 3.64166e-23)
(0.000547399 -0.00019554 -3.42579e-22)
(0.000635925 -0.000506557 0)
(0.000256937 3.53977e-05 -1.01342e-21)
(0.000117663 8.45489e-05 2.506e-22)
(0.00024477 -6.97704e-06 1.63253e-21)
(-1.66525e-05 0.00130723 -1.40122e-21)
(0.000568553 -0.000223013 2.56767e-21)
(0.000442498 0.00016116 0)
(0.000434015 -0.000297371 -4.27062e-21)
(0.0183119 -0.0293459 -1.20726e-20)
(0.0451884 -0.459341 0)
(0.000425343 -5.04066e-06 0)
(0.0125337 0.0269924 7.88763e-21)
(0.00051374 -0.000163505 0)
(-0.207831 -0.0607611 -7.20799e-21)
(-0.00994035 -0.0513038 -1.44728e-21)
(0.000237531 0.000339648 0)
(-0.0406023 0.0420367 0)
(0.00499059 0.00152901 3.65011e-23)
(0.101057 0.0471905 2.49236e-20)
(0.000215213 0.000474422 1.39198e-21)
(0.0161698 -0.113818 5.95415e-20)
(0.000594352 5.05276e-05 -4.50592e-21)
(-3.26299e-05 -0.00015431 -1.75286e-21)
(0.254467 0.0506658 1.90799e-21)
(0.000881083 0.00628579 -2.39614e-21)
(0.00620875 0.00508617 9.04782e-21)
(-0.204773 0.131782 -4.17221e-21)
(0.000282453 -0.000224745 2.02723e-22)
(-0.000843617 -0.00550809 0)
(5.43259e-05 3.19698e-05 -6.09882e-22)
(-0.0943798 0.276864 3.01635e-20)
(0.000211805 -7.14771e-05 0)
(0.0031909 -0.0305615 0)
(0.00420657 2.38905e-05 4.16266e-21)
(-0.00754959 -0.00910094 -6.42553e-21)
(0.00010977 1.06445e-05 2.08241e-22)
(-0.0603173 -0.00246892 -2.76161e-20)
(-0.00714558 0.0263411 1.85082e-21)
(7.75594e-05 -0.00023127 1.27744e-21)
(0.000335672 -0.000129577 0)
(0.000390245 -2.43812e-05 8.28867e-23)
(0.00741677 0.00957513 -1.36959e-21)
(0.00589408 -0.00739206 7.46581e-21)
(-9.85714e-07 -0.000171046 0)
(1.47443e-05 6.0693e-06 0)
(-0.00304233 -0.0739723 0)
(-0.0344158 0.228958 -3.77602e-20)
(0.0175853 -0.0536706 1.45061e-20)
(-0.00562574 0.0203431 -3.07287e-22)
(0.016744 -0.00408138 -7.1941e-22)
(-0.0251376 -0.139187 -1.66458e-21)
(0.00960602 -0.00199837 -2.07877e-22)
(-8.99528e-05 0.000395947 2.88731e-22)
(-0.149303 -0.206749 1.29459e-21)
(-2.81808e-05 -0.000177785 2.35718e-21)
(-9.39893e-05 0.00444315 8.01395e-22)
(-2.96269e-05 0.000363151 -4.51668e-22)
(-6.29159e-05 2.16635e-05 -1.78408e-22)
(-8.13693e-06 -0.000125865 0)
(0.000460966 1.17447e-05 -3.25936e-21)
(2.01849e-05 0.000271456 5.41533e-23)
(0.0158162 -0.223767 0)
(0.000715247 -0.00423209 4.483e-22)
(0.000137941 -1.30732e-05 0)
(-0.0700889 0.101444 2.003e-20)
(-0.0787221 -0.514601 0)
(-0.119594 -0.133963 0)
(-0.000139155 0.000252266 2.41449e-22)
(-0.0385829 0.0573628 9.92746e-20)
(0.000351593 -0.000360116 -1.7954e-21)
(0.00287215 0.00169636 9.58082e-21)
(-9.09025e-05 9.74808e-05 0)
(0.000127715 -0.000156897 0)
(0.000120118 8.81012e-05 0)
(0.00888821 0.220482 6.51902e-20)
(0.00239682 0.0047188 0)
(0.000167096 0.000135219 2.07833e-21)
(-0.14586 0.240555 -3.38309e-20)
(0.00077823 7.63983e-05 -1.82835e-21)
(-0.00465141 -0.0188288 1.35881e-21)
(-0.100654 0.068778 -1.4507e-20)
(0.000122011 -9.83162e-06 0)
(0.00036735 0.0124727 0)
(-0.0726223 0.101258 -1.25996e-21)
(0.103141 -0.225335 7.76907e-21)
(0.0012075 -0.000935661 0)
(-0.0024568 0.000359007 7.15748e-22)
(0.000214384 0.000279688 -5.13703e-22)
(0.000203103 4.76821e-05 -2.20547e-21)
(-5.78807e-05 -7.83972e-05 0)
(-0.218774 -0.223497 -6.60544e-21)
(-0.000347759 0.00472421 0)
(-0.0652134 -0.247217 0)
(0.000347818 -0.000309268 -3.25893e-21)
(0.00538951 0.00181167 5.52171e-23)
(-0.0820729 0.0610249 0)
(0.00020293 4.94782e-05 2.34578e-21)
(-0.0974311 0.0793082 0)
(-0.220803 -0.229081 0)
(0.00425364 -0.000458765 -2.99793e-22)
(0.000757438 -0.000490449 -9.22365e-22)
(-9.83674e-05 1.06354e-05 1.64797e-23)
(-2.02899e-05 0.000295422 1.21889e-21)
(0.000253164 8.45332e-07 1.03411e-21)
(0.00168114 -0.00391169 3.08376e-22)
(0.00902273 0.111072 0)
(-0.0095407 -0.014054 -5.65728e-21)
(-0.051351 0.073862 -5.62023e-22)
(0.0289572 -0.0151933 2.21881e-22)
(0.0313909 0.013903 -4.75882e-21)
(-0.0112785 0.0180854 1.06921e-20)
(-0.00382471 0.00261112 7.82463e-21)
(0.00901529 -0.0141193 0)
(0.00162484 -0.00302929 4.36382e-21)
(0.000863455 0.000679027 0)
(-0.0807299 -0.051264 -6.53248e-21)
(0.0148126 0.0726365 -4.06791e-21)
(0.0210023 0.00974665 -5.84285e-21)
(-0.0142127 -0.0411902 9.86422e-21)
(0.000428321 6.88691e-05 3.02166e-21)
(0.000151913 0.00121816 -1.52572e-21)
(0.00981795 0.000494376 0)
(-0.157267 0.223126 1.34941e-20)
(0.0102341 -0.0111206 -2.55053e-21)
(-2.11273e-05 -9.52424e-05 -5.45922e-22)
(0.0014507 -0.00130898 1.53867e-21)
(0.0230829 0.073804 0)
(-0.00721473 -0.00354255 8.55172e-22)
(-0.0549486 0.113389 0)
(0.00248651 0.00433005 0)
(0.00787009 -0.000469327 -4.20109e-22)
(3.9765e-06 -0.000147944 -1.35323e-21)
(-0.00324419 -0.0120053 -5.69628e-21)
(-2.45803e-05 -5.9221e-05 -2.99093e-22)
(0.0115774 -0.0251388 0)
(-0.0550148 0.0874605 -2.74815e-20)
(0.00036828 0.000498954 3.90963e-21)
(6.92433e-05 -0.000245817 -1.08396e-21)
(0.000257766 4.27221e-05 1.08742e-21)
(0.0109631 -0.00023288 0)
(0.000717136 -7.35314e-05 -3.70467e-21)
(0.000573678 0.00120037 7.87086e-22)
(0.00810198 0.0378364 -6.77445e-21)
(-0.00281505 0.0181436 0)
(3.10604e-05 0.0018395 0)
(7.17538e-05 -0.000251643 4.94182e-22)
(0.0160227 0.0144099 -6.03643e-21)
(0.0632576 -0.017704 4.78276e-21)
(0.00761257 0.0373512 0)
(0.00236734 -0.00124811 0)
(-5.06171e-05 0.000163134 1.30241e-22)
(0.00230724 -0.00084697 -7.77539e-22)
(-0.0675249 0.29273 -8.39228e-21)
(0.000816035 -0.000495363 8.82107e-22)
(0.0027146 0.00276371 -5.07123e-21)
(0.0266197 0.00726313 0)
(0.000299527 -0.000197117 3.51211e-21)
(0.000558733 -8.27239e-05 -4.10048e-21)
(0.0012582 -0.00895845 9.14177e-21)
(0.00142814 0.0141495 -6.0574e-21)
(-8.02239e-06 0.000390863 0)
(0.00171951 -0.000612279 1.24335e-21)
(-0.00133081 0.000423066 2.31622e-21)
(0.000419609 9.76489e-05 -1.41089e-21)
(-0.0250556 -0.0765102 -1.83388e-20)
(0.000435462 4.83216e-05 0)
(0.00103773 -0.000643746 0)
(0.00163883 0.00312784 2.38456e-23)
(-0.0607659 -0.0594733 0)
(-0.00241341 -0.00486357 0)
(0.00127601 -0.00101264 -1.03677e-21)
(-0.000815169 0.000345518 0)
(0.00688222 0.00938038 2.3479e-21)
(0.000175696 -1.80936e-06 2.45371e-21)
(1.4747e-05 -2.00182e-05 -4.79098e-22)
(-0.0847778 0.215626 2.1697e-20)
(0.00298949 -0.00597819 -1.21056e-22)
(0.00339297 -0.000788102 1.87048e-21)
(-6.82662e-05 -1.2256e-05 1.09557e-21)
(0.000613856 0.000278124 0)
(0.0107598 -0.0579554 -1.23708e-20)
(0.00827347 0.00077781 0)
(0.0194589 0.0879633 1.28655e-20)
(-0.00187867 -0.000228394 0)
(0.000312446 0.00174468 0)
(-0.00200738 -0.000939355 -1.14948e-21)
(-0.04563 0.081122 -3.83378e-20)
(0.00139998 -0.000595415 0)
(-0.00510694 -0.00773447 4.87007e-22)
(0.0184166 0.0059427 -6.88642e-21)
(0.000368697 0.000483294 0)
(0.00504323 0.00210868 -4.89919e-21)
(-0.000802629 0.000572856 -2.4048e-22)
(-0.00278145 -0.00394374 1.73058e-22)
(0.00113448 -0.00229948 -8.26361e-21)
(0.000663269 0.000135053 0)
(-0.274396 -0.0690518 -2.28696e-20)
(0.0027417 -0.00365065 0)
(0.00335787 -0.00583841 -4.93511e-23)
(0.00226659 -0.0134593 -2.48378e-21)
(0.000473404 -0.000207701 1.11404e-21)
(-0.212851 0.0380952 0)
(0.000261822 0.0185826 2.57969e-21)
(-0.143953 0.244036 0)
(-0.000756533 0.00364735 0)
(0.00850649 0.00520571 2.53785e-21)
(0.00319839 -0.00101391 5.58839e-21)
(-0.00358256 0.00320159 -1.76212e-21)
(0.00116102 0.00146777 0)
(0.00267993 0.00385773 -1.85164e-21)
(0.0270625 -0.0995813 7.62184e-20)
(0.000130045 -2.38749e-06 0)
(0.00149966 0.00579005 -1.09551e-21)
(-0.00276168 0.00696477 -1.908e-21)
(0.00159031 0.000439133 0)
(0.000774536 8.17752e-05 5.90415e-21)
(-0.0180026 -0.0680366 0)
(0.00315634 -0.00396538 0)
(-0.00661865 -0.00415657 0)
(-0.00135298 -0.000901373 0)
(-0.00370211 0.0283418 -1.87164e-21)
(0.00108788 -0.0017317 0)
(-0.0141946 0.0425173 8.5322e-21)
(-0.0137009 -0.0650944 -1.59374e-20)
(-0.000283952 -0.00680779 0)
(0.0183983 0.0111028 0)
(-0.0731983 0.213984 -9.80592e-21)
(-0.0689556 0.0692478 2.46374e-21)
(0.00215545 0.00279304 -8.82922e-21)
(0.0197904 0.00114532 0)
(-0.0057156 0.0216164 -7.36945e-21)
(-0.217996 -0.256211 6.97542e-21)
(0.00583863 0.00440679 7.56407e-23)
(0.000156662 0.00123977 -1.73854e-22)
(0.0227657 -0.00101673 -2.21442e-21)
(0.000591322 0.000237895 0)
(-0.174913 -0.489053 6.80615e-20)
(-0.285435 -0.103316 8.83434e-21)
(0.000573704 0.000212437 1.51439e-21)
(0.0388014 -0.0479392 0)
(0.00365219 0.00141958 -2.88506e-21)
(-0.0849579 0.101908 2.2817e-20)
(0.000117721 -1.01003e-05 2.45784e-22)
(7.9526e-05 -0.000244377 5.56862e-22)
(-0.0435123 0.0403114 0)
(-0.247264 0.13964 -2.53767e-20)
(2.99e-05 -2.14494e-05 -2.70947e-22)
(-0.00357097 0.00824971 0)
(-0.0174921 0.055609 -2.35636e-20)
(0.00284153 -0.00125401 -2.08516e-21)
(0.000458052 -8.20009e-05 -8.48158e-22)
(-0.00117426 0.0424302 4.10844e-22)
(-0.00264815 -0.0313688 -5.06517e-21)
(0.0101073 -0.000527597 -3.85213e-22)
(0.10955 0.20451 -1.43159e-20)
(0.0004715 -6.99269e-05 4.66738e-21)
(-0.00533828 0.0130436 -1.63043e-22)
(0.000566681 3.38812e-05 0)
(0.0127644 -0.0018006 -2.64972e-21)
(-0.00655721 0.00716702 -3.27754e-20)
(-0.0431718 -0.114862 -2.47875e-20)
(0.0015972 0.000533964 -2.9227e-21)
(0.0289998 -0.182908 1.03113e-19)
(-0.0017073 -0.000554374 0)
(0.00495149 -0.0209301 1.04952e-20)
(-0.00155467 -0.000559 0)
(0.00113886 -0.00176137 0)
(-0.0527603 0.0909245 -5.21288e-21)
(0.00597784 0.000625909 0)
(0.0201343 -0.0368845 3.42896e-21)
(8.51596e-05 0.000187293 4.16057e-22)
(-7.00381e-05 0.000196914 -3.4725e-21)
(-0.0312537 0.0422824 -7.84074e-20)
(0.0437127 -0.0474379 -1.2636e-21)
(-3.41987e-05 0.000124677 -6.38317e-22)
(-0.00428655 -0.00326385 -1.11866e-20)
(0.0031306 0.00295529 0)
(3.4321e-05 -9.8275e-05 0)
(-1.50724e-05 -0.000118308 0)
(-0.00747227 -0.0386373 0)
(0.00934887 -0.00158414 -6.11048e-22)
(-0.0685479 -0.024406 -2.0477e-20)
(0.00410677 -0.0486497 -4.90072e-21)
(-0.00126695 -0.00242812 -3.1398e-21)
(-0.000946237 -0.00576123 0)
(0.000568759 -1.10829e-05 0)
(0.00133604 -0.00465117 1.23415e-20)
(0.00520842 0.00136076 3.34304e-21)
(0.0135165 0.00392194 3.80256e-21)
(0.00963093 0.00473948 -9.44218e-21)
(0.000351 0.000240069 -3.17315e-21)
(6.13231e-05 2.14307e-05 0)
(-0.107745 -0.0234233 2.96993e-21)
(0.00624609 0.00476789 0)
(-0.0917645 0.272836 -3.88891e-20)
(0.0177072 0.0912557 9.39449e-21)
(-0.00066306 -0.000508113 -1.91992e-21)
(0.00836363 -0.000412498 1.34895e-21)
(0.00189085 0.000523048 -1.9141e-21)
(-0.170928 -0.481482 -7.00089e-20)
(-6.71817e-05 8.17868e-06 2.87e-24)
(0.00012441 8.56482e-06 -2.29985e-22)
(-0.000222479 1.21875e-05 -3.63848e-22)
(0.00304223 0.00134152 -1.1283e-21)
(-8.38829e-05 0.000713839 2.14841e-21)
(-0.0429685 0.0387954 0)
(0.000305413 0.000485732 -5.9166e-24)
(-0.0313374 -0.0407202 2.63214e-21)
(-5.49036e-05 0.000170883 -7.89412e-23)
(-0.00407314 0.0124966 0)
(-0.00531414 0.00686927 1.071e-20)
(4.75499e-06 9.3091e-06 7.06181e-23)
(6.99878e-05 7.87003e-05 0)
(0.000779536 9.11038e-05 -4.38773e-21)
(8.90576e-05 0.000174283 -3.18888e-22)
(0.0171938 0.00841644 0)
(-5.84105e-05 0.000257213 3.12945e-21)
(0.00922131 0.00982625 7.15539e-21)
(0.0394304 -0.0314491 -7.8187e-21)
(-0.00730487 0.395133 2.41641e-20)
(-0.0262446 0.00512915 -3.38573e-20)
(9.09579e-05 -0.000196513 0)
(-0.0850174 -0.0372257 -2.58126e-21)
(0.00102657 -0.00665986 -2.95832e-21)
(0.00157569 0.00296797 2.77953e-21)
(0.000437229 -2.40984e-05 0)
(0.00277 -0.00207091 0)
(0.0192182 -0.0507802 2.98271e-20)
(-0.031067 -0.0445179 -3.52166e-22)
(-0.222595 -0.247459 2.21087e-21)
(-0.0081075 0.0452891 9.60497e-21)
(3.81731e-05 -0.000148875 -8.93137e-22)
(0.00132067 0.00303123 3.07634e-21)
(0.00131064 -0.00310341 1.14718e-20)
(-6.18855e-05 0.000181134 2.09791e-23)
(0.0107976 0.00885868 6.29602e-21)
(0.000263845 3.77433e-05 0)
(-0.0859641 -0.220694 -3.41203e-21)
(0.013626 -0.00256124 1.72598e-21)