/*--------------------------------*- C++ -*----------------------------------*\
| =========                 |                                                 |
| \\      /  F ield         | OpenFOAM: The Open Source CFD Toolbox           |
|  \\    /   O peration     | Version:  v2012                                 |
|   \\  /    A nd           | Website:  www.openfoam.com                      |
|    \\/     M anipulation  |                                                 |
\*---------------------------------------------------------------------------*/
FoamFile
{
    version     2.0;
    format      ascii;
    class       volScalarField;
    location    "300";
    object      k_0;
}
// * * * * * * * * * * * * * * * * * * * * * * * * * * * * * * * * * * * * * //

dimensions      [0 2 -2 0 0 0 0];


internalField   nonuniform List<scalar> 
18232
(
0.000150698
0.00535188
0.00384001
0.000197876
0.000163875
0.000131808
0.00300128
0.00015195
0.000148829
0.00303249
0.000162975
0.000156416
0.00655391
0.00272344
0.00022672
0.000199888
0.000183849
0.00416672
0.00015446
0.000605433
0.0845732
0.00303818
0.00544776
0.000158797
0.000150734
0.000153856
0.000170276
0.0147625
0.000138612
0.00221439
0.00015374
0.000777291
0.000185508
0.000156712
0.000196133
0.00015051
0.0716672
0.02537
0.00945659
0.000145017
0.000325562
0.00014847
0.00392102
0.000158638
0.000253767
0.00016139
0.000771663
0.000219825
0.000227691
0.000309274
0.000183477
0.000220068
0.000143405
7.98474e-05
0.000149853
0.000148067
0.000556076
0.00410971
0.00015465
0.000215837
0.000212422
0.0130485
0.000683967
0.00342976
0.000179167
0.000155536
0.00881925
0.000161124
0.000167291
0.000154455
0.00014759
0.000134421
0.0134631
0.000148911
0.000210666
0.000148506
0.000171627
0.0022737
0.000626818
0.000261615
0.000222146
0.00019529
0.000268077
0.000234754
0.000133892
0.00336787
0.0001638
0.000153391
0.00876659
0.0568824
0.000171688
0.000151811
0.000206589
0.0147604
0.000178942
0.000235213
0.000154946
0.000151377
0.000155229
0.000167178
0.000518042
0.0156956
0.000149085
0.000142976
0.00014748
0.0156209
0.000157697
0.00284751
0.0046972
0.00183427
0.00041672
0.000170383
0.00020597
0.000445575
0.000142614
0.000167841
0.000166809
0.0137139
0.00300601
0.000155691
0.000134252
0.0100165
0.000154958
0.000364798
0.000148165
0.000154512
0.000169794
0.0393013
0.000212003
0.000297518
0.000162975
0.000196133
0.000147874
0.000144347
0.000160584
0.000138345
0.000198311
0.000189877
0.0383838
0.000457828
0.00013865
0.000986285
0.00458579
0.000270812
0.000152974
0.000156704
0.000169849
0.000268892
0.000158942
0.000163972
0.000222055
0.000147381
0.000425553
0.000174349
0.0471347
0.000212423
0.00362173
0.000189486
0.000162603
0.00252189
0.00015495
0.00806989
0.0536225
0.0049819
0.000743971
0.000144631
0.000250843
0.0198212
0.000145039
0.000213605
0.000156866
0.000420288
0.000213223
0.000148802
0.000139845
0.000141252
0.00565963
0.000157284
0.000143938
0.000141305
0.000149004
0.00212743
0.000170942
0.00520878
0.000141392
0.000145579
0.000151432
0.0583502
0.000251348
0.000196181
0.000160127
0.00986912
0.000146408
0.000145836
0.000156499
0.000147375
0.000252337
0.000156426
0.000171174
0.00014816
0.000163489
0.000150874
0.00015355
0.000139967
0.000157066
0.000162871
0.000240949
0.000149032
0.000162797
0.000142036
0.000138955
0.000155102
0.000143275
0.000300395
0.000153556
0.000346376
0.000170267
0.000145145
0.00876163
0.000223312
0.000174811
0.000252212
0.0099399
0.000393622
0.000193437
0.000150425
0.000164679
0.000161465
0.000207007
0.000196478
0.00494448
0.000138956
0.00014031
0.000143321
0.00017646
0.000143726
0.00017663
0.000207911
0.000182631
0.000165462
0.00108781
0.000150093
0.000161186
0.000180145
0.00874773
0.00014756
0.00018654
0.000180403
0.000143775
0.000140398
0.00107413
0.000190269
0.113781
0.000189346
0.000196787
0.00521067
0.000162014
0.000131571
0.000146431
0.000144907
0.00775279
0.000143274
0.00679359
0.000158046
0.000157791
0.000206284
0.000382171
0.000167515
0.00015013
0.00682044
0.000151798
0.000172507
0.000221278
0.0076186
0.000327064
0.000149087
0.000260066
0.000157849
0.000151077
0.000286217
0.00493421
0.000557501
0.00283097
0.000140542
0.000388887
0.000151778
0.000155903
0.000152564
0.0886961
0.000251607
0.120411
0.000598253
0.000138375
0.000156848
0.000165455
0.000165204
0.000151627
0.00013928
0.000161602
0.0145092
0.000156296
0.000252728
0.112381
0.000143691
0.000141046
0.000144539
0.000157281
0.000197927
0.000155025
0.000147521
0.000154292
0.000210492
0.00866183
0.000149405
0.000168322
0.000358755
0.000155255
0.000159505
0.000221872
0.00013506
0.000158743
0.0118846
0.000216915
0.000144611
0.000209305
0.00354374
0.000156037
0.000159179
0.000155309
0.000144386
0.000166286
0.000228295
0.000376011
0.000156917
0.000190952
0.000216819
0.000148726
0.000158038
0.000194185
0.000195417
0.000247723
0.000246469
0.000170201
0.000237809
0.00021545
0.000198442
0.000364322
0.000151103
0.000157701
0.000141011
0.000151356
0.000221133
0.000250104
0.000157375
0.000161151
0.000141594
0.0144875
0.000145611
0.000160176
0.000155273
0.000155383
0.000327028
0.000213728
0.000152945
0.00015902
0.000151549
0.000147876
0.000155803
0.000288797
0.000152145
0.000146371
0.000171664
0.000413086
0.000159963
0.000173356
0.000146019
0.121021
0.000137531
0.000154807
0.0144844
0.00233659
0.000150752
0.000157654
0.000188881
0.000133985
0.000133462
0.000176653
0.000244489
0.000169085
0.000154968
0.000176814
0.00882904
0.000146079
0.000151128
0.000163415
0.00016273
0.00206655
0.000151417
0.0111053
0.000168867
0.000215856
0.000140453
0.00017046
0.000168469
0.0117709
0.000216059
0.000170429
0.000315795
0.000202198
0.000182362
0.0127483
0.000169102
0.002558
0.000154971
0.000160778
0.000162519
0.000162611
0.0131621
0.000140293
0.000163263
0.000163991
0.00932518
0.000168528
0.00024112
0.000170393
0.000262021
0.000261521
0.000155232
0.000154482
0.12249
0.0227826
0.000161959
0.000155517
0.000146815
0.000140525
0.00014295
0.000249122
0.000181355
0.000141445
0.000211095
0.000155472
0.000155307
0.0122955
0.000152206
0.000158955
0.000157319
0.000239768
0.0149443
0.000143653
0.00015743
0.0103605
0.000165428
0.000264543
0.00014603
0.00014906
0.000149008
0.000159849
0.0044686
0.000187924
0.000146062
0.000156507
0.000155825
0.000169495
0.000154998
0.000171801
0.000175782
0.000144821
0.00623758
0.000134929
0.000134201
0.000590327
0.000170992
0.071836
0.0046106
0.00399271
0.000145518
0.00014543
0.00014889
0.00216298
0.000147115
0.000143135
0.00014543
0.000263831
0.00013927
0.00014947
0.000148432
0.000246241
0.000810113
0.000331743
0.000168853
0.000171431
0.0436076
0.0129336
0.00013945
0.0105355
0.000158777
0.0042488
0.000153227
0.000168442
0.000138448
0.00904705
0.000146654
0.000145855
0.00016003
0.023101
0.000140618
0.000187865
0.000146736
0.112986
0.000155247
0.000201668
0.000147274
0.000186747
0.00014358
0.0581998
0.000169575
0.000147028
0.000145397
0.000148626
0.000142753
0.000138133
0.000144031
0.000159099
0.000153252
0.000150585
0.00015191
0.000199872
0.0349365
0.000155961
0.0002379
0.000150665
0.0021826
0.0100202
0.0001468
0.000239044
0.000167639
0.00345787
0.000148473
0.0102982
0.000144751
0.000147181
0.000577293
0.000184027
0.000176496
0.00156086
0.000153144
0.000167876
0.000139573
0.108136
0.000143617
0.000234013
0.000165129
0.000187207
0.000153473
0.000217292
0.000215853
0.000145119
0.000152351
0.000150988
0.000181908
0.000172695
0.000150401
0.0001442
0.0106252
0.0136653
0.00690962
0.000220943
0.00026708
0.000322747
0.00063515
0.000146613
0.0171821
0.000146826
0.000195102
0.00014596
0.000146034
0.000139678
0.000170139
0.00014318
0.00133186
0.000165619
0.0001471
0.000375168
0.0555232
0.0048774
0.000147642
0.000256827
0.000154198
0.000162806
0.000133221
0.000150443
0.000138665
0.0224236
0.000172129
0.000147705
0.110951
0.000154979
0.00018833
0.000498855
0.00013807
0.000198643
0.00620525
0.000118744
0.000160214
0.000178897
0.000143375
0.00014317
0.000147529
0.0480344
0.00019475
0.0144542
0.000153906
0.000166827
0.000585745
0.000144077
0.0375229
0.0501342
0.000197218
0.000154865
0.000153466
0.000144417
0.000143034
0.000129841
0.000677077
0.000184255
0.000314822
0.00357904
0.000224329
0.000229237
0.000169063
0.000426586
0.000156615
0.00015464
0.00750958
0.00278258
0.00020082
0.000267609
0.000143007
0.000158034
0.00020609
0.00315757
0.000426363
0.000141446
0.000159739
0.00288549
0.000169812
0.0035716
0.000173773
0.000194079
0.000140256
0.000182121
0.0001418
0.000198251
0.000326491
0.000149075
0.00014542
0.00016038
0.000622344
0.000154472
0.000164922
0.000251175
0.000203643
0.000159415
0.000145832
0.000205287
0.000263101
0.000254065
0.000157731
0.000134614
0.000184066
0.123273
0.000155161
0.000169726
0.000397064
0.000151552
0.00014471
0.000171748
0.000190693
0.000145823
0.000160845
0.000159989
0.000144516
0.000225334
0.000162777
0.000155968
0.000162299
0.00669117
0.000170654
0.000154747
0.000157956
0.000219565
0.000144225
0.000147422
0.000275186
0.00020232
0.000163134
0.000146183
0.000148342
0.00812164
0.000177586
0.00421272
0.000159694
0.00015844
0.000180551
0.000311324
0.000159653
0.000186465
0.00020316
0.000148677
0.000167446
0.000159065
0.00016973
0.000156615
0.000146284
0.120126
0.000161151
0.000195371
0.000185796
0.000149955
0.000375303
0.000193576
0.13427
0.000195925
0.000208869
0.00015787
0.000166768
0.00015504
0.000171469
0.000245272
0.000139292
0.000167123
0.000200576
0.000160669
0.00014781
0.0112267
0.000161609
0.000168442
0.000157916
0.0032261
0.00015562
0.000230149
0.00952234
0.000168378
0.00131617
0.00019217
0.00104512
0.000163439
0.00157701
0.000230389
0.0650689
0.000171663
0.000161833
0.00023336
0.000149205
0.0735237
0.118946
0.000148133
0.000228507
0.000189254
0.000454908
0.000154047
0.000145485
0.000235343
0.0164009
0.000145524
0.00017613
0.000236136
0.000164093
0.000147744
0.000325918
0.000198225
0.000226398
0.0132527
0.000151513
0.000179242
0.000144313
0.000246619
0.000192571
0.000266707
0.000154405
0.00131784
0.000159399
0.000221946
0.000158153
0.000155559
0.0023814
0.000167383
0.00483732
0.000139435
0.00014898
0.000264903
0.000224144
0.000145399
0.000164528
0.000174682
0.000150049
0.000141964
0.000212154
0.000214805
0.00365944
0.000203357
0.000164804
0.000171281
0.00014469
0.000170865
0.00019538
0.000253772
0.00017717
0.000144041
0.000139523
0.0137164
0.000171885
0.108684
0.000435472
0.000155174
0.000199236
0.000161873
0.0743692
0.000152399
0.000152913
0.000152501
0.000162363
0.00015523
0.000241376
0.000150338
0.0134681
0.000135056
0.000177601
0.000179547
0.000147416
0.000141672
0.000147506
0.000139203
0.00019621
0.000148899
0.00018892
0.000231282
0.0410424
0.00020338
0.000149726
0.0104158
0.000168194
0.000162407
0.000166589
0.00015941
0.000225945
0.0142156
0.0646521
0.00354421
0.000150082
0.000161792
0.000166176
0.00013697
0.000181763
0.000156127
0.0131171
0.000873063
0.0590239
0.000169293
0.000161572
0.000251411
0.000167331
0.000296327
0.000155047
0.0071874
0.00016437
0.000147191
0.00847835
0.000144653
0.000280033
0.000162197
0.000143187
0.00020167
0.000160538
0.000154219
0.000146669
0.000159643
0.000161067
0.0155307
0.000221462
0.000195668
0.00015922
0.000138824
0.00676942
0.000785772
0.000162686
0.000172424
0.000635743
0.000494821
0.0002407
0.000147956
0.000230596
0.000170421
0.000190758
0.0001686
0.000147192
0.00016072
0.000146809
0.000220015
0.000147258
0.00018061
0.000163739
0.000163499
0.0156852
0.000158193
0.000143803
0.000142546
0.000139891
0.000149482
0.000151143
0.000192739
0.000146673
0.000200524
0.121356
0.00770152
0.000146824
0.130742
0.000235999
0.00452943
0.000156348
0.0126262
0.00719927
0.00015438
0.000162793
0.00016391
0.000189962
0.000199615
0.000199703
0.000179866
0.00134373
0.000151016
0.000166634
0.000164842
0.000146302
0.000147172
0.00014635
0.00395147
0.00333815
0.000196912
0.000157613
0.000145928
0.000157647
0.00437668
0.000145018
0.000149262
0.00354426
0.0001472
0.000878606
0.00016206
0.000143389
0.0849892
0.000143796
0.000187427
0.069163
0.000166077
0.000144436
0.000160891
0.000235731
0.0208858
0.00369472
0.00767039
0.000194869
0.000138502
0.000149092
0.00346468
0.000175788
0.000139843
0.000150561
0.000179814
0.000141939
0.0124623
0.0824961
0.000552432
0.000165855
0.000830885
0.000270426
0.001836
0.00015979
0.000207381
0.000141329
0.00213043
0.000145736
0.000159261
0.00190261
0.000186747
0.000150561
0.000221641
0.000139925
0.000241642
0.000162808
0.00016803
0.000161909
0.000152165
0.000170833
0.121043
0.000143765
0.000278957
0.000174234
0.000154331
0.000143268
0.000148968
0.000159844
0.000337073
0.000146477
0.00114403
0.000172399
0.00403052
0.000147172
0.000175901
0.000180887
0.000157551
0.000140444
0.000147005
0.000176408
0.000191359
0.000141563
0.000271929
0.000206085
0.000203285
0.000463799
0.000150806
0.000157149
0.000144582
0.000172957
0.000167442
0.000163006
0.000387776
0.000145335
0.000167805
0.000161539
0.0235954
0.00668601
0.00209086
0.000150059
0.000159907
0.000140472
0.000202449
0.000146085
0.000149542
0.0196387
0.000223767
0.000143786
0.000177732
0.0186454
0.000159231
0.000149601
0.0128914
0.000162862
0.000150894
0.000260249
0.0108083
0.000142292
0.0232562
0.000165442
0.000146861
0.000182283
0.000138457
0.00902416
0.000160181
0.000144427
0.0024411
0.00015242
0.000165058
0.000154589
0.000150548
0.00014054
0.000162862
0.000161556
0.000274904
0.000145251
0.000368766
0.000142008
0.000291577
0.000350073
0.000186157
0.0124216
0.000139974
0.00276604
0.0001447
0.0220283
0.00014112
0.12986
0.00218014
0.00239233
0.000167052
0.0129006
0.000337863
0.00094771
0.000165931
0.000160229
0.000242246
0.00125228
0.0029846
0.000163152
0.00020481
0.000205763
0.000160811
0.00451675
0.000145358
0.000188761
0.00538641
0.000141143
0.000145019
0.000163538
0.000148515
0.000138373
0.0114506
0.000144982
0.000261094
0.000145943
0.0163155
0.0063139
0.000145539
0.000154919
0.000156092
0.000163756
0.000471678
0.000187557
0.00659557
0.000162038
0.000222574
0.000152189
0.000159662
0.00013853
0.000149559
0.000138092
0.11636
0.000140366
0.00014935
0.000144725
0.00403207
0.000162926
0.00016497
0.00128446
0.000167138
0.000142222
0.00020402
0.000143251
0.000148777
0.000149062
0.000204089
0.000145306
0.00182463
0.000142946
0.000144407
0.000389792
0.000142242
0.00014328
0.00145266
0.000242975
0.00165559
0.00599974
0.000166426
0.000153404
0.000152476
0.000160893
0.000241636
0.00978861
0.0103143
0.000148134
0.0106654
0.000284844
0.000157933
0.000143797
0.000162025
0.00153285
0.0127511
0.000154144
0.000156784
0.000146117
0.000184111
0.000157751
0.000224504
0.00014836
0.000199942
0.000141039
0.000149075
0.0221107
0.000197224
0.000161072
0.00156234
0.000140089
0.012658
0.000143531
0.000144087
0.0134603
0.000154673
0.000153276
0.00164962
0.000143537
0.000163175
0.000145742
0.000187501
0.000139727
0.000389105
0.000148282
0.000174305
0.00030637
0.000146624
0.000188688
0.000149083
0.000151304
0.000158131
0.000168468
0.00498163
0.000188532
0.00015017
0.000151103
0.0187137
0.000147834
0.000234058
0.000160411
0.00016293
0.000165691
0.000147696
0.000162829
0.000239092
8.53737e-05
0.0184405
0.000262559
0.000195075
0.000193478
0.00203542
0.000149116
0.000189005
0.000147722
0.000158396
0.000133512
0.00014746
0.000379808
0.000133103
0.00262153
0.000167604
0.000147421
0.000167791
0.000148026
0.107883
0.00015111
0.00570816
0.000154036
0.000167653
0.000194175
0.000167823
0.00437019
0.000160178
0.00748236
0.000160797
0.000175647
0.000240148
0.000159232
0.00496554
0.000143945
0.000162836
0.00014435
0.000150488
0.00014408
0.0551888
0.000135895
0.000149014
0.000167231
0.000246994
0.00251331
0.000157184
0.000212141
0.000144064
0.000144515
0.000154783
0.000156468
0.000147294
0.000149808
0.000151703
0.000151248
0.000214858
0.000165902
0.00014397
0.0001532
0.000162664
0.0011792
0.125986
0.000431722
0.000162958
0.0004689
0.00018287
0.00810214
0.000153481
0.000208942
0.0198873
0.000144585
0.000138304
0.000152831
0.000193665
0.00559242
0.000155254
0.000144771
0.000158924
0.000145384
0.00039458
0.122608
0.000154964
0.00258201
0.000176647
0.00376516
0.074448
0.000160529
0.000174788
0.000208465
0.000149565
0.000167071
0.00037307
0.000167354
0.000156897
0.00326454
0.000194781
0.000185323
0.000280324
0.000152589
0.000188289
0.000156643
0.000156159
0.00334634
0.000148925
0.000148786
0.000201267
0.000552551
0.000143422
0.0186599
0.000150565
0.00028985
0.000150618
0.000156336
0.000165994
0.000168577
0.000192229
0.000175569
0.000149403
0.0157372
0.000147223
0.000186394
0.000188467
0.000173897
0.000154412
0.00108219
0.000143809
0.000144556
0.0748726
0.00014464
0.000788477
0.000155328
0.000205036
0.000165846
0.000142528
0.00104051
0.000153895
0.000271392
0.00368166
0.000144601
0.080036
0.00187468
0.00016707
0.000133575
0.000219493
0.000236488
0.0001696
0.00837031
0.000161874
0.000163291
0.000372094
0.00290652
0.000150783
0.000964273
0.000805231
0.000147856
0.000146111
0.000207729
0.000296021
0.000160497
0.000218658
0.00627143
0.000550147
0.00016732
0.000174114
0.000165858
0.000161905
0.000139591
0.00183811
0.00730934
0.000147545
0.134216
0.000145474
0.000146719
0.000452448
0.0175839
0.000144317
0.000154695
0.000243808
0.00246051
0.000164925
0.000173071
0.000149423
0.000838451
0.000525547
0.000181173
0.000159834
0.000341471
0.000156005
0.00877249
0.000168318
0.0001541
0.00015982
0.000148141
0.000154251
0.000149113
0.000161334
0.000640817
0.119876
0.000142612
0.00087076
0.000192579
0.00453237
0.000184183
0.0155364
0.000192124
0.000162595
0.000146649
0.000145304
0.000159993
0.000179292
0.000159139
0.000148068
0.000463989
0.000323563
0.00460872
0.000212528
0.00823043
0.000160533
0.000194614
0.119356
0.000234225
0.000188077
0.000166469
0.000154236
0.066774
0.000153303
0.000192937
0.000272904
0.000147114
0.0198351
0.00165463
0.0587742
0.000170986
0.000857564
0.00187987
0.000379066
0.000146499
0.000785927
0.00669958
0.0194386
0.00134695
0.000148076
0.00103828
0.000145325
0.000156868
0.0118178
0.000294857
0.0202355
0.00063258
0.000202203
0.000562412
0.116966
0.0292573
0.00015081
0.000146467
0.000150865
0.000565993
0.000330328
0.00223856
0.000181041
0.00303058
0.000759423
0.00393343
0.000191536
0.000395588
0.000191349
0.000159442
0.000185584
0.00849453
0.000153227
0.000160933
0.000158756
0.00392274
0.000186223
0.000206617
0.000156934
0.00511679
0.000600804
0.00031232
0.000331051
0.0172419
0.00015586
0.000163665
0.000293806
0.000232518
0.00108702
0.000661558
0.000156844
0.00119837
0.000170473
0.000174654
0.000530404
0.000139546
0.00014977
0.000212738
0.0016984
0.000141681
0.00358201
0.00787559
0.000332706
0.000171987
0.0245759
0.13488
0.000190752
0.00403987
0.000157746
0.00017762
0.000254633
0.000174953
0.000153928
0.000175498
0.000268547
0.000180937
0.0001539
0.000859926
0.00023921
0.000787787
0.000152991
0.000175321
0.0109903
0.00647099
0.0139353
0.00016674
0.122199
0.000146098
0.0070592
0.000185551
0.000152493
0.00398522
0.0192564
0.000170179
0.000163984
0.000158492
0.0960127
0.000156127
0.000171496
0.000175421
0.000142843
0.000934189
0.0630423
0.000183514
0.000151108
0.00142087
0.0147197
0.0767597
0.000254324
0.000160006
0.000157642
0.000152774
0.000154432
0.00015372
0.00639698
0.000219323
0.000151874
0.000138655
0.000154008
0.000157452
0.000357553
0.00017542
0.000242738
0.000147846
0.000184589
0.000144053
0.000317514
0.000148238
0.00015413
0.000215088
0.000269526
0.000162548
0.000169026
0.0408222
0.112691
0.000193865
0.00014532
0.059972
0.0694458
0.000182865
0.00392661
0.000185346
0.000152818
0.10089
0.000184561
0.00151508
0.000143575
0.000193972
0.000166711
0.000356814
0.000157591
0.000154238
0.000166747
0.000165474
0.000182768
0.000211297
0.000153328
0.000160704
0.000156338
0.000326256
0.000147405
0.0722386
0.000141546
0.000295286
0.000158114
0.000175121
0.000173163
0.000187088
0.000144058
0.000165321
0.00032537
0.000253164
0.000482592
0.000246556
0.000147258
0.0237692
0.000159936
0.127682
0.000184309
0.000166501
0.0814582
0.000144192
0.0122368
0.000181867
0.000146653
0.00017183
0.000162945
0.00015829
0.00014604
0.00929111
0.000145129
0.000156631
0.0012768
0.000146466
0.00334555
0.000148152
0.000195431
0.000146194
0.000166698
0.000303409
0.000284009
0.00015608
0.000154544
0.000143507
0.000156821
0.000144362
0.000154365
0.132597
0.00706709
0.000190586
0.00015523
0.000185303
0.000305114
0.000198716
0.0311177
0.000146044
0.000156931
0.000292363
0.000404414
0.000443782
0.000166526
0.00553766
0.0140494
0.000176048
0.00015075
0.000279275
0.000360206
0.000164406
0.000154199
0.000156813
0.000148127
0.000157129
0.000175108
0.00170299
0.000149835
0.000141884
0.00199158
0.000160395
0.000288937
0.000443312
0.000161627
0.000236899
0.00509695
0.000165037
0.00493177
0.000153521
0.00015725
0.000168056
0.000302242
0.000156072
0.000178023
0.000177515
0.00396343
0.000326755
0.0133649
0.00651392
0.00018525
0.000169404
0.000167519
0.000148246
0.000162021
0.000137606
0.0109353
0.000148439
0.000160917
0.098136
0.000143511
0.000150073
0.0126457
0.000156992
0.000158174
0.131704
0.000677812
0.0642434
0.00230534
0.000147925
0.000158741
0.000257758
0.107047
0.000191095
0.000289341
0.000251895
0.000720867
0.0330645
0.000242171
0.000146472
0.00496305
0.00014566
0.000319598
0.000239075
0.00017434
0.00282359
0.000172649
0.0181386
0.00014683
0.000264786
0.0216527
0.000155153
0.000245214
0.000147818
0.000230107
0.000144871
0.0109735
0.00194012
0.0003435
0.00052518
0.000486284
0.000164637
0.00014547
0.000166078
0.00014613
0.000160576
0.000191439
0.00539557
0.000140353
0.00014572
0.000144274
0.000165801
0.000140707
0.0204699
0.000523343
0.000143793
0.000155319
0.000180275
0.000173596
0.000161051
0.0514314
0.000157583
0.000141755
0.000154096
0.000195128
0.000900498
0.000242942
0.00963488
0.0837269
0.00016055
0.00936778
0.00721928
0.0119142
0.000161217
0.0102055
0.000137729
0.00511614
0.000164341
0.0030572
0.000144516
0.000154463
0.000176168
0.00465197
0.00848951
0.000180364
0.000155439
0.000144323
0.000152111
0.00708405
0.000351801
0.00015042
0.000153379
0.000173675
0.000150331
0.000722507
0.00171078
0.000186572
0.000162948
0.000212224
0.000195796
0.000145549
0.000196839
0.000156641
0.000155027
0.000158525
0.000129074
0.000293743
0.00019476
0.00390968
0.00015291
0.000151811
0.000165691
0.000140213
0.000158148
0.0151813
0.000161331
0.00401341
0.000145899
0.000181277
0.000178423
0.000153693
0.000740519
0.0228726
0.000206253
0.000563264
0.000166422
0.0107922
0.000190755
0.000152394
0.000422649
0.0602742
0.000157224
0.000143167
0.000187533
0.000161363
0.00528972
0.000224698
0.000146736
0.000151242
0.000178391
0.000404853
0.000178753
0.000151335
0.000165058
0.000382917
0.000161485
0.000421624
0.00607882
0.126968
0.000148872
0.000166807
0.000158495
0.000265888
0.000987899
0.000141685
0.00017202
0.000223853
0.000178431
0.000158464
0.000623531
0.000430741
0.000187406
0.000215616
0.000166168
0.000145211
0.000192063
0.000143992
0.00433642
0.00329524
0.000158546
0.106548
0.000143419
0.00476267
0.000142449
0.000175436
0.000154705
0.118703
0.00017076
0.00758959
0.000242401
0.00014682
0.00016556
0.000230885
0.000326678
0.0107602
0.000492952
0.000143543
0.000161655
0.000153379
0.000450473
0.000155126
0.000157098
0.000151374
0.0123703
0.000149083
0.000154317
0.00017533
0.0110566
0.000156446
0.0682036
0.000174358
0.000168904
0.000151313
0.000237468
0.00019382
0.000184013
0.000165132
0.000156729
0.000143276
0.000154556
0.000173598
0.000145575
0.0179641
0.000145458
0.00018826
0.0711707
0.000165375
0.000144086
0.000146031
0.000147545
0.00263123
0.000149175
0.00015628
0.019254
0.000167461
0.00019498
0.000152811
0.000152338
0.000138763
0.000170311
0.00431548
0.000214703
0.00071602
0.000231253
0.000153849
0.000153052
0.000158862
0.000192064
0.000163131
0.00015141
0.0773757
0.000423459
0.000154124
0.000145672
0.00033508
0.000142995
0.000944954
0.000177846
0.000172644
0.0119394
0.000288776
0.000156113
0.000181949
0.000145223
0.000158578
0.000140495
0.000148945
0.0537894
0.000148604
0.000157276
0.0604007
0.000167039
0.00765996
0.00015652
0.000154045
0.11077
0.000266515
0.000154968
0.000763584
0.115435
0.06084
0.000141961
0.00824034
0.000158568
0.0129489
0.133514
0.000141644
0.000529135
0.000161166
0.000163812
0.000167708
0.000316696
0.000145805
0.000149019
0.000175753
0.134606
0.000154965
0.000193371
0.000139592
0.000135604
0.000506336
0.000154458
0.000309746
0.00054637
0.0900164
0.000147298
0.000158608
0.00016383
0.00014558
0.000176833
0.000426185
0.000227738
0.000146035
0.00367024
0.000680482
0.000147898
0.000153027
0.000162944
0.117695
0.000160192
0.000991848
0.000183932
0.000298291
0.000150801
0.00019775
0.000319421
0.000153862
0.0978889
0.00172032
0.000182806
0.00135029
0.000147019
0.000416374
0.000141608
0.000143053
0.000153066
0.000144631
0.000143111
0.000160369
0.000139306
0.000143415
0.000199667
0.000152916
0.000171362
0.000143566
0.000117383
0.000152797
0.000143923
0.000166725
0.00022951
0.000150642
0.000152389
0.000153063
0.00035884
0.000634576
0.000156835
0.000174832
0.000138694
0.000145926
0.000192298
0.000153964
0.00046807
0.00115446
0.000387308
0.000337959
0.000152984
0.00100292
0.0300127
0.00949499
0.000144815
0.000237985
0.000734124
0.00310899
0.00015642
0.000148643
0.000138176
0.000150248
0.000250943
0.000166386
0.000159597
0.00044149
0.000191839
0.000161108
0.000148571
0.000145574
0.000140257
0.000179838
0.000222498
0.000219095
0.00017491
0.000219024
0.00101745
0.000652941
0.000170325
0.000136169
0.000179713
0.000156839
0.000168373
0.000147655
0.000158815
0.000152613
0.000156004
0.000160391
0.0001449
0.0306383
0.000158691
0.000156601
0.016979
0.00017788
0.000289028
0.000147235
0.000164657
0.000153859
0.000241502
0.00017573
0.000181751
0.00013676
0.000160434
0.000162187
0.00016079
0.000166057
0.00191625
0.0243591
0.000171458
0.00027787
0.000147353
0.000193697
0.104136
0.000477566
0.00149234
0.00944468
0.000223686
0.000137108
0.000145111
0.000154294
0.000985122
0.0095386
0.000143996
0.000539358
0.000141123
0.000299215
0.000845032
0.000156439
0.000152399
0.00531293
0.000162291
0.0173964
0.000162411
0.000888388
0.000147384
0.0132566
0.000143003
0.000155301
0.000152711
0.00030101
0.00109076
0.00171686
0.000166561
0.000153475
0.000165996
0.000158776
0.000356345
0.130713
0.000144581
0.0185691
0.000160908
0.000181463
0.088339
0.000143446
0.000145251
0.000157278
0.000172957
0.000149387
0.000172236
0.000168353
0.00055542
0.000172642
0.121223
0.000146305
0.0002279
0.000145918
0.000145505
0.000148501
0.000149998
0.000183001
0.0001357
0.000171117
0.00027996
0.0002057
0.000156108
0.000145765
0.000255066
0.000161636
0.000157605
0.115014
0.000152699
0.000144278
0.00015838
0.000630134
0.000195489
0.000147343
0.000157424
0.00014797
0.113989
0.000332203
0.000513222
0.000121215
0.000312763
0.00016502
0.000727407
0.000152086
0.0314123
0.000143525
0.000182414
0.000152673
0.000247907
0.000145781
0.000152836
0.000179597
0.000142928
0.00014349
0.000148426
0.000148923
0.00454188
0.000145428
0.000161841
0.000153009
0.000160323
0.000264448
0.00102763
0.000147308
0.000209445
0.000194891
0.00616837
0.000184722
0.000318261
0.00926139
0.000344576
0.000163782
0.00014299
0.000144373
0.000935192
0.000181661
0.000160902
0.000153232
0.000141782
0.000151784
0.000152028
0.000173286
5.73775e-05
0.0616873
0.000155861
0.000156522
0.000145303
0.10369
0.000167222
0.000173304
0.000146505
0.000140864
0.00877477
0.000185963
0.000170802
0.0671129
0.000151163
0.00612452
0.000156468
0.000220212
0.000185044
0.000148043
0.000149105
0.040007
0.000163199
0.000184645
0.00563791
0.00620636
0.000168799
0.000157218
0.000322921
0.000321995
0.000141571
0.000296147
0.000223622
0.000153015
0.000152095
0.000161214
0.000152202
0.000169758
0.0124683
0.00128477
0.00187579
0.000140626
0.000154768
0.000164658
0.000164811
0.000182519
0.000320407
0.000182764
0.000191673
0.00015721
0.000151977
0.000152234
0.000174671
0.000185804
0.00015355
0.000199867
0.000150893
0.000137805
0.000206479
0.000379351
0.0172015
0.000158169
0.0847494
0.000146931
0.00118871
0.000177177
0.000145749
0.000156329
0.000171394
0.0535053
0.000165751
0.000140703
0.000144343
0.000154435
0.000154196
0.000537883
0.00618664
0.000148174
0.00892492
0.00113467
0.000155122
0.000171621
0.00014848
0.000181918
0.124184
0.000236041
0.000146765
0.00127155
0.000301897
0.000165442
0.00016729
0.000155722
0.0204682
0.000328608
0.000187635
0.000218828
0.000146569
0.000152961
0.000153658
0.00019847
0.000181016
0.00843731
0.000232848
0.00956719
0.000163448
0.000169132
0.000160545
0.0001993
0.000194072
0.000191808
0.000143264
0.00025268
0.000146779
0.0937004
0.000148621
0.000164689
0.000169182
0.000164038
0.000149216
0.00745024
0.000161246
0.000174453
0.000148221
0.000147754
0.000161758
0.0182673
0.000205155
0.000172217
0.000191498
0.000156186
0.00015381
0.000142724
0.0087205
0.000158554
0.000168388
0.00238996
0.000158063
0.000148079
0.0992764
0.000317642
0.0114815
0.000617574
0.000152222
0.000241687
0.00606632
0.00334448
0.000137354
0.000269144
0.000181642
0.00335964
0.000148759
0.000185343
0.0144139
0.011926
0.000149295
0.000165661
0.000169464
0.00835661
0.000144084
0.0201175
0.000178335
0.000148763
0.000156212
0.000218793
0.0128977
0.00817278
0.000359748
0.000183764
0.000172524
0.000160515
0.000197735
0.000201184
0.0140867
0.0034063
0.000147622
0.000133168
0.000181897
0.000157158
0.000144888
0.000551576
0.000164189
0.0156754
0.000148652
0.00014798
0.000333473
0.000308206
0.0004376
0.000207778
0.0107663
0.000998348
0.000152833
0.000137084
0.000141856
0.000187532
0.000153973
0.000674337
0.000148832
0.000149181
0.000154682
0.000427097
0.000151712
0.000145588
0.00114251
0.000379489
0.000241158
0.000137718
0.00797027
0.00014606
0.000146047
0.00134388
0.000143731
0.00021206
0.000155599
0.000166754
0.000145632
0.000153133
0.000204647
0.000156128
0.000143341
0.000144789
0.000137418
0.000334026
0.010259
0.00014412
0.000996597
0.00854752
0.000148894
0.000157456
0.000156394
0.000145373
0.000137074
0.000166971
0.000224254
0.000191133
0.00437473
0.010916
0.0177668
0.000147915
0.00014874
0.000163889
0.000268191
0.000515846
0.000219784
0.000148572
0.000147117
0.000176716
0.000204688
0.000417765
0.000161061
0.00235016
0.000142368
0.000184675
0.000163254
0.128116
0.000151385
0.000153457
0.000157695
0.00511155
0.000232176