/*--------------------------------*- C++ -*----------------------------------*\
| =========                 |                                                 |
| \\      /  F ield         | OpenFOAM: The Open Source CFD Toolbox           |
|  \\    /   O peration     | Version:  v2012                                 |
|   \\  /    A nd           | Website:  www.openfoam.com                      |
|    \\/     M anipulation  |                                                 |
\*---------------------------------------------------------------------------*/
FoamFile
{
    version     2.0;
    format      ascii;
    class       volVectorField;
    location    "300";
    object      U_0;
}
// * * * * * * * * * * * * * * * * * * * * * * * * * * * * * * * * * * * * * //

dimensions      [0 1 -1 0 0 0 0];


internalField   nonuniform List<vector> 
18232
(
(1.01434 -0.00227768 0)
(1.04101 -0.0781507 -4.20601e-21)
(-0.571321 -0.38292 9.15874e-20)
(1.16485 0.117759 0)
(1.01706 0.00190009 3.50034e-21)
(1.09122 0.289837 -6.92338e-20)
(0.851852 -0.0250865 4.46676e-21)
(1.00794 -0.000139691 6.43566e-22)
(1.02987 -0.00103661 0)
(0.868129 -0.0390559 0)
(1.01756 0.00334485 -1.47941e-21)
(1.04061 0.0271978 -1.38813e-21)
(1.0842 -0.103646 5.67127e-21)
(0.836578 -0.0552778 -1.14081e-20)
(0.985741 0.0856307 -1.64057e-21)
(1.32411 0.25085 -1.30988e-20)
(1.14581 0.0905092 -2.76583e-20)
(1.30119 0.0951192 -9.66169e-21)
(1.00323 -4.08293e-05 -5.91873e-22)
(0.852352 0.0613023 8.24528e-21)
(0.813584 -0.044966 -1.43713e-21)
(0.83138 -0.0382146 4.01986e-21)
(1.08903 -0.0907391 -3.13543e-21)
(1.0289 0.0251572 7.34637e-22)
(1.01455 -0.00243833 -1.06563e-21)
(1.01518 0.00320482 5.54799e-22)
(1.02214 0.0340566 -8.73416e-22)
(0.831464 -0.0819302 1.62102e-20)
(1.01158 -0.00123236 -1.08487e-21)
(1.03853 -0.0745872 0)
(1.01529 0.00309425 -4.94515e-22)
(0.853999 0.0572225 0)
(1.04633 0.0139001 0)
(1.08038 0.0190934 1.01197e-20)
(1.164 0.114478 3.61253e-20)
(1.00837 -0.000125196 7.05271e-22)
(0.878591 -0.034379 -5.56946e-22)
(0.214431 0.106788 1.40604e-20)
(0.92092 -0.0882824 -4.59189e-21)
(1.02129 0.00719032 0)
(1.0416 -0.0325684 -2.56197e-21)
(1.0296 0.0115828 -4.46196e-22)
(-0.567799 -0.413041 -1.26379e-19)
(1.02842 0.0250121 8.08906e-22)
(1.05033 -0.0407912 0)
(1.07256 0.0437902 9.90953e-21)
(0.649575 0.532955 -5.41636e-21)
(1.0417 0.0182992 0)
(0.984206 0.083453 1.07935e-20)
(1.10079 0.296596 2.47209e-20)
(1.14245 0.0940049 2.20218e-20)
(0.99369 0.087299 3.37297e-21)
(1.00985 0.000504482 -3.03626e-21)
(1.0508 0.00094664 -4.57197e-22)
(1.01259 0.000644041 1.23112e-21)
(1.02908 -0.00104583 0)
(1.30326 0.256225 9.39227e-21)
(0.602608 0.523739 -2.65271e-21)
(1.05061 0.0239196 5.95467e-21)
(0.996971 0.083819 4.66617e-21)
(1.1399 0.166155 0)
(0.599566 0.25273 -4.22225e-21)
(0.964995 -0.300393 5.93501e-21)
(0.885251 -0.0262581 2.18455e-21)
(1.01893 -0.00508379 -1.06795e-21)
(1.01783 0.00206375 6.80671e-21)
(0.933656 -0.0915532 -1.90341e-21)
(1.07222 0.0423293 -5.58598e-21)
(1.01343 0.00436818 0)
(1.04948 0.0227992 -4.21137e-21)
(1.04182 0.0032997 0)
(1.01859 -0.000769932 0)
(0.999066 -0.0545856 3.30115e-21)
(1.03031 0.0120472 0)
(1.13819 0.160206 -1.4343e-20)
(1.02921 0.0115317 0)
(1.02005 0.0306046 0)
(0.946457 -0.184765 0)
(0.979202 -0.320323 0)
(1.03527 0.0289665 -1.96386e-21)
(1.20132 0.130401 1.65302e-20)
(1.16707 0.112402 1.18791e-20)
(1.15468 0.105729 -3.71533e-20)
(1.00317 -0.00554187 0)
(1.01797 -0.000587639 8.60824e-24)
(0.527339 -0.261468 -4.85091e-21)
(1.01729 0.00309988 -4.07612e-21)
(1.0025 -9.68849e-05 0)
(0.859637 0.0468933 -2.61356e-21)
(-0.377184 -0.0744955 -3.25085e-20)
(1.13136 0.0588141 0)
(1.02186 0.0136116 0)
(1.13873 0.154289 -9.32458e-21)
(0.528765 0.546825 -2.91748e-20)
(1.0202 -0.00453432 2.43387e-21)
(1.0047 -0.00742118 1.34784e-21)
(1.0168 0.0025972 5.35654e-21)
(1.02148 0.0129525 1.22087e-21)
(1.0168 0.00263425 -3.15098e-21)
(1.09956 0.0563679 -5.50535e-21)
(1.01208 0.229135 -2.79914e-20)
(0.555054 0.278344 -4.33076e-22)
(1.01273 0.00478728 0)
(1.01486 -0.00239946 -2.03701e-21)
(1.04141 0.00353937 0)
(0.841497 -0.100405 -8.18744e-21)
(1.05713 0.0323877 0)
(0.820233 -0.0708331 0)
(1.28605 0.0692788 0)
(0.955603 -0.0291109 0)
(0.98568 -0.0290568 -6.63456e-21)
(1.02112 0.0289811 1.90387e-21)
(1.13604 0.152556 1.60479e-20)
(1.11986 0.19632 -1.72442e-20)
(1.01452 -0.00226252 1.46255e-21)
(1.05082 0.0559513 2.03578e-21)
(1.09703 0.0560988 -2.53175e-21)
(1.00108 -0.0734623 -1.2095e-20)
(0.72591 -0.0954577 -1.00542e-20)
(1.01799 0.00216908 -2.31878e-23)
(1.01831 -0.000672175 -2.39745e-23)
(1.01126 0.0436535 5.91162e-21)
(1.00443 -0.000182918 -2.78384e-21)
(0.927281 0.293639 -4.99171e-21)
(1.02848 0.0112686 -2.55765e-22)
(1.00899 0.000659495 0)
(1.09969 0.0642363 -1.06566e-20)
(-0.434938 -0.0963669 0)
(1.17032 0.119934 0)
(1.07064 0.00189838 2.05772e-21)
(1.02726 0.0206533 -2.4399e-21)
(1.16171 0.116568 -3.23132e-20)
(1.01167 0.00049753 1.10024e-21)
(1.01683 0.00610776 1.40024e-22)
(1.07388 0.0398631 1.06979e-20)
(1.0112 -0.00107508 5.6135e-22)
(1.16728 0.115782 0)
(1.11906 0.116481 4.3382e-21)
(0.987876 -0.00534758 1.12774e-21)
(1.0679 0.289811 2.9534e-20)
(1.01147 -0.00120163 4.41401e-24)
(-0.266722 -0.515192 4.45653e-20)
(-0.589209 -0.543664 1.71387e-19)
(1.15335 0.101814 4.3496e-20)
(1.01161 0.00102434 -2.7485e-22)
(1.06775 0.0269428 1.29779e-22)
(1.09669 0.0655281 -1.00522e-20)
(1.06259 0.24556 -2.44119e-22)
(1.02303 0.0190323 0)
(1.01806 0.00381632 3.28198e-21)
(1.19295 0.149962 -3.55531e-21)
(1.01151 0.000323451 -2.21646e-21)
(1.02019 0.25166 2.58442e-20)
(1.10868 0.0755516 -7.1752e-21)
(0.372626 -0.514515 2.37725e-20)
(1.1854 0.130418 9.81363e-21)
(-0.575912 -0.556291 -7.3564e-20)
(1.13717 0.106485 3.05658e-20)
(1.02727 0.0206139 0)
(-0.238212 -0.481968 2.64608e-20)
(1.02749 0.0194413 0)
(0.628307 0.285621 0)
(0.386532 -0.488725 -4.13837e-20)
(0.483167 -0.225417 -4.74179e-21)
(0.964884 -0.0222431 5.8177e-21)
(1.01753 0.00649771 1.77428e-21)
(1.02013 0.184857 -2.42731e-22)
(0.266162 0.131466 -1.495e-20)
(1.03423 0.00130171 2.37308e-21)
(1.18507 0.134874 -1.50616e-20)
(1.03787 0.0276432 0)
(0.880556 0.300187 -5.36697e-21)
(1.17076 0.12032 -2.90962e-20)
(1.0307 0.011953 -4.90273e-22)
(1.01605 -0.00179589 6.21648e-22)
(1.00905 -0.000282804 -1.11401e-21)
(1.09789 0.0529711 6.86341e-22)
(1.06724 0.0303596 -2.84804e-22)
(1.01547 -0.00259826 1.47548e-22)
(1.00902 -0.000262672 -1.07318e-21)
(1.01233 -3.06118e-05 1.11885e-21)
(0.735414 -0.113897 4.942e-21)
(1.09725 0.0680194 -1.26792e-20)
(1.10612 0.0342365 -4.83674e-22)
(1.01616 -0.0025059 6.82507e-22)
(1.01071 0.000874748 0)
(1.00617 -0.000179372 5.74463e-22)
(0.911969 -0.0114912 1.78654e-22)
(0.981626 0.0137345 -3.95555e-21)
(1.15833 0.118185 1.66655e-20)
(1.07312 0.0391291 -4.84317e-21)
(0.720445 0.0659143 -9.64095e-21)
(1.02457 -0.00247246 3.34275e-22)
(1.02372 -0.00235504 0)
(1.03802 0.0264922 0)
(1.02565 -0.00252727 2.26837e-22)
(1.01454 0.175264 -1.51625e-21)
(1.06695 0.0262428 -2.13378e-23)
(1.09536 0.0686883 1.15274e-21)
(1.02811 0.0110134 7.76212e-22)
(1.01652 -0.00271673 8.037e-22)
(1.01325 0.000186357 0)
(1.04667 0.0199201 0)
(1.01655 -0.00163569 1.06882e-21)
(1.06674 0.0286646 -6.61634e-21)
(1.02723 0.020594 0)
(0.986672 0.0160827 -3.43718e-21)
(1.02996 -0.00101613 7.86714e-24)
(1.03694 0.0390688 0)
(1.01698 -0.00248715 -6.69242e-22)
(1.01114 -0.00108473 0)
(1.01748 0.00243763 0)
(1.00989 0.00171579 1.13647e-21)
(0.998885 -0.0102124 0)
(1.04571 0.020777 -2.59744e-21)
(1.272 0.163101 0)
(1.02112 0.0277676 2.09391e-21)
(1.03452 0.00128934 -1.55935e-21)
(1.04141 0.0837592 -7.18422e-21)
(1.20217 0.132988 -1.68582e-22)
(1.11161 0.0771904 0)
(0.998901 -0.0088491 0)
(1.06248 -0.022166 -1.95348e-21)
(0.895393 0.279017 0)
(1.02328 0.0133401 9.54369e-22)
(1.013 0.000265649 -1.18508e-21)
(1.01932 0.00472784 0)
(1.01603 0.00159266 4.46692e-21)
(1.00571 0.0854275 0)
(1.1694 0.111684 -1.89243e-20)
(1.09886 0.0284612 -6.41158e-22)
(1.01104 -0.0010596 0)
(1.01623 -0.0019189 -6.34013e-22)
(1.00992 1.22168e-06 1.35982e-23)
(1.02325 -0.00401593 0)
(1.01522 -0.00249992 0)
(1.02429 -0.00342228 1.06951e-21)
(1.17747 0.119797 -2.10407e-20)
(1.01229 0.0256083 0)
(1.01425 0.00318785 -4.60387e-21)
(-0.236216 -0.624955 2.70389e-20)
(1.01458 -0.00267276 1.02227e-21)
(1.01658 0.00149191 0)
(1.02342 -0.00559268 0)
(0.573259 0.554002 3.49563e-20)
(1.0096 -0.000259368 -8.09013e-22)
(1.12356 0.106344 9.27289e-21)
(1.01432 0.0268433 -1.56396e-22)
(1.00998 0.000718163 4.59744e-21)
(1.01671 -0.00176062 -1.07444e-21)
(-0.220885 -0.571837 0)
(1.09019 0.117339 2.09895e-21)
(0.685105 -0.11551 0)
(1.13506 0.113287 -4.00646e-20)
(1.16105 0.118453 -1.71894e-20)
(1.09344 0.0455741 8.83771e-22)
(1.06988 0.0456603 3.86005e-21)
(1.28957 0.17074 2.12584e-20)
(1.02469 -0.00246332 -1.37963e-22)
(1.01784 0.00696233 -2.19673e-21)
(1.0718 0.0569149 1.4686e-21)
(1.01004 0.00192332 0)
(-0.873835 0.0358834 -3.57161e-19)
(1.00514 0.000170474 -1.57646e-21)
(1.02617 0.0217511 2.61007e-21)
(1.17556 0.122094 1.61875e-22)
(0.994281 -0.014091 2.98271e-21)
(1.01378 0.00363852 4.74023e-21)
(1.01445 -0.00250597 -1.10369e-21)
(-0.881521 -0.0539713 3.4481e-19)
(1.01025 -4.3719e-05 -2.47581e-22)
(1.02438 -0.00292728 0)
(1.18894 0.157028 1.18695e-20)
(1.09346 0.0174742 0)
(1.19006 0.318813 -2.86221e-20)
(1.03196 0.0122381 0)
(1.25208 0.152934 -1.24444e-21)
(1.02649 0.0218446 -7.41454e-22)
(1.01343 -0.000202793 -3.12912e-22)
(1.17889 0.312854 2.03858e-20)
(0.950298 -0.161971 5.60838e-21)
(1.14927 0.246856 3.56353e-21)
(0.963058 -0.0744626 2.53469e-21)
(1.01753 -0.00151611 2.49382e-22)
(0.995069 -0.0119233 1.61532e-21)
(1.014 0.00318115 -7.38725e-22)
(1.007 0.000378937 3.37298e-21)
(1.02435 0.0151962 0)
(-0.306719 -0.00795109 0)
(1.22808 0.127627 -1.57644e-20)
(-0.283837 0.307301 0)
(1.14686 0.250508 0)
(1.01109 -0.00104001 5.61635e-22)
(1.02579 -0.00309927 2.76129e-21)
(1.01475 0.00252854 0)
(1.02906 0.000351954 1.7492e-21)
(1.01379 -0.000155324 3.04446e-21)
(1.01113 -0.00110816 -1.30046e-21)
(1.01635 -0.00175653 2.57214e-21)
(0.985381 -0.0887605 1.35796e-20)
(1.02513 -0.00290903 -1.7761e-21)
(1.15817 0.108602 -1.34639e-20)
(0.680221 -0.101037 1.0089e-22)
(1.01003 0.000187788 -2.4045e-21)
(1.01775 -0.00161925 -5.87709e-22)
(1.02093 0.0063592 -4.21719e-22)
(1.08137 0.0242355 1.096e-20)
(1.05098 0.116026 0)
(1.01718 0.0025512 -3.24723e-21)
(1.01345 -0.00244635 3.79969e-21)
(1.00478 -0.000145927 4.30044e-21)
(1.1731 0.120636 0)
(0.82965 0.0455726 0)
(1.01241 0.000472016 1.23164e-21)
(1.01864 0.00485311 -1.76997e-21)
(1.17994 0.343604 1.19481e-20)
(1.02782 0.020067 0)
(1.02523 -0.00200163 2.62743e-21)
(1.00711 -0.00543569 -7.52413e-21)
(1.0188 -0.000727389 -4.93882e-24)
(1.02211 0.0184642 0)
(0.660145 0.0522004 1.50336e-20)
(1.13887 0.169828 3.54138e-21)
(1.0171 0.00656206 0)
(1.17203 0.119731 0)
(0.666255 0.261782 -6.88376e-21)
(1.04097 0.0268079 3.13486e-21)
(1.02256 0.0191429 -1.89264e-21)
(1.01723 0.00265254 3.20914e-21)
(1.02058 0.00602922 4.32702e-22)
(1.04944 0.0135222 3.36246e-21)
(1.09579 0.187018 9.91101e-21)
(1.17905 0.361715 -1.41666e-20)
(1.08139 0.0217012 -1.38732e-20)
(1.09359 0.118334 0)
(1.13549 0.173803 -1.25784e-20)
(1.01261 0.00443972 -1.04922e-21)
(1.03233 0.0268279 0)
(1.04667 0.0161828 -7.47856e-21)
(1.05463 0.0026689 2.69701e-22)
(1.19842 0.155441 -6.77544e-21)
(1.2272 0.135023 1.76344e-20)
(1.02164 0.0334474 -1.97489e-21)
(1.20033 0.146012 3.21028e-20)
(1.00759 -0.00408979 8.52966e-21)
(1.04718 0.119361 0)
(0.914842 0.630079 0)
(1.01353 0.00315447 1.41957e-21)
(1.06503 0.0321839 0)
(1.01624 -0.00226423 -1.25377e-21)
(1.02455 0.0139139 -3.58095e-22)
(1.01267 0.125805 -6.66879e-22)
(1.0579 -0.00244737 0)
(1.01569 -0.000732129 -4.48804e-21)
(1.08643 0.0383554 7.31861e-21)
(1.01678 -0.00236787 -3.29598e-22)
(0.314757 0.0666086 1.31274e-20)
(1.03355 0.000398054 3.68746e-22)
(1.01569 0.0126275 4.64893e-21)
(1.06821 0.0203496 1.08569e-20)
(1.0176 0.00253333 0)
(0.967862 0.282617 2.21474e-21)
(1.02956 0.130649 2.18135e-23)
(1.00563 -0.00015231 0)
(1.02168 0.0185056 0)
(1.02361 0.0137355 0)
(1.01099 -0.000195912 -2.74913e-22)
(1.07086 0.0213723 0)
(1.06788 -0.00121676 1.84601e-21)
(1.01418 0.00334026 -1.25728e-21)
(1.00981 -0.000267751 9.84566e-22)
(1.02014 0.031599 0)
(0.916178 0.640981 0)
(1.01614 -0.00132022 -2.32432e-21)
(1.02506 -0.00266272 0)
(1.03251 0.00716202 0)
(-0.22499 0.300995 0)
(1.02054 -0.000991156 2.29989e-24)
(1.01586 0.00214382 5.69418e-21)
(0.595569 0.191296 0)
(0.810707 -0.115143 0)
(1.02742 0.0138003 0)
(1.06651 0.0311154 -7.26999e-21)
(1.12215 0.112024 -4.20222e-21)
(1.01635 -0.000319502 -3.20566e-24)
(1.01659 -0.000341165 -7.72933e-24)
(1.03468 0.0642393 2.86258e-22)
(1.03811 0.0219988 0)
(1.03245 0.048707 1.7904e-22)
(1.01582 0.00217862 -3.17033e-21)
(1.0239 -0.00309412 0)
(1.02211 0.0583535 4.8013e-24)
(1.01089 0.000816781 -1.87608e-21)
(1.00668 -0.000184528 1.64161e-21)
(1.01512 0.00222116 -1.96145e-21)
(1.09083 0.0446189 -8.3041e-21)
(0.931926 -0.0139798 0)
(1.01367 0.00334385 -2.15763e-21)
(0.659317 0.0418676 -7.25492e-21)
(1.09988 0.0628444 0)
(1.16945 0.117649 3.36753e-20)
(1.00907 -0.000682578 0)
(1.0506 0.0632322 -5.30199e-23)
(1.09941 0.0599423 -5.16083e-22)
(0.417963 -0.25827 -3.65075e-21)
(1.02484 0.124253 -2.04265e-23)
(1.02839 0.0451447 0)
(0.982236 0.26105 0)
(1.13483 0.143286 -1.11036e-20)
(1.02362 -0.002451 0)
(1.02485 0.00826101 9.83282e-22)
(1.03102 0.0460626 1.52127e-22)
(1.05728 0.0101258 0)
(1.06733 0.0189299 -2.14295e-22)
(1.01592 0.0131059 -3.50633e-21)
(1.01671 0.00189339 0)
(1.08735 0.0451923 0)
(0.414655 -0.31298 0)
(1.00795 -0.000368741 -8.96573e-22)
(1.01564 0.00192805 -2.02519e-21)
(1.02485 -0.00124007 0)
(0.710262 0.0866515 1.49245e-20)
(0.989359 -0.0266477 0)
(1.03963 0.0309424 0)
(1.13172 0.0508133 -2.24746e-20)
(1.01643 0.022619 7.34812e-21)
(1.00554 0.190492 6.04031e-25)
(1.0309 0.00045808 -6.28655e-22)
(1.06494 0.017771 -6.7753e-21)
(-0.145649 0.278604 -3.38556e-20)
(1.1177 -0.0165768 9.75752e-21)
(1.07209 0.04464 -4.56441e-21)
(1.06992 0.0203474 0)
(1.01745 0.00204345 0)
(1.00899 -0.000639569 1.05683e-21)
(1.0205 -0.00180856 0)
(1.0683 0.210212 2.50243e-21)
(1.12244 0.0916004 -1.31694e-21)
(1.00774 -0.00036141 0)
(1.00209 0.0884201 0)
(1.01783 0.00240406 1.65454e-21)
(1.0115 0.00101279 3.25143e-22)
(1.02082 -0.0379452 -3.20159e-21)
(1.00657 0.000411808 0)
(1.0317 0.0277307 0)
(1.0572 0.0315324 0)
(0.974672 0.0788379 -3.80556e-21)
(1.10837 -0.118151 0)
(1.01005 0.00171281 -1.16677e-21)
(1.08318 0.023871 -1.66178e-20)
(0.360388 0.102034 1.44094e-20)
(1.02448 0.00303248 4.66843e-21)
(1.00003 0.18063 8.14628e-23)
(1.03155 0.00749351 0)
(1.02653 0.0121609 -6.10901e-23)
(1.027 0.0118405 2.97229e-22)
(1.02186 0.0188271 4.1552e-21)
(0.857739 0.0414002 4.04084e-21)
(1.0105 0.0187624 2.67795e-21)
(1.03114 0.00750867 0)
(1.03967 0.0271288 1.52091e-21)
(1.0041 -0.000116925 0)
(1.02439 -0.00196845 0)
(1.04182 0.024155 -2.04224e-21)
(1.07758 0.0717744 -7.76178e-21)
(1.02453 -0.00161542 0)
(1.02093 0.00674044 0)
(1.07265 0.0687877 9.92536e-22)
(1.01882 -0.000775618 0)
(1.01832 -0.000685836 -3.42086e-24)
(0.832037 0.68216 -1.46632e-20)
(1.07719 0.0703388 0)
(-0.36649 -0.0256252 2.60111e-20)
(-0.562951 -0.66472 -6.85894e-20)
(0.953338 -0.0777931 0)
(1.00898 -0.000385681 1.37863e-21)
(1.0091 -0.000386405 8.24564e-22)
(1.04463 0.00510292 -2.57858e-21)
(1.05834 0.00670641 3.72634e-23)
(1.01335 -0.00249095 -4.05273e-21)
(1.02495 -0.00111378 -1.65214e-23)
(1.03539 0.0027907 0)
(0.838372 0.0306206 0)
(1.0083 -0.00044894 -8.39911e-22)
(1.0125 0.000169064 -2.2937e-21)
(1.01194 0.000387974 0)
(1.06556 0.206497 2.11322e-21)
(0.90286 -0.201399 -2.63833e-23)
(1.14307 0.171242 1.51273e-20)
(1.04988 0.0597792 -4.3814e-21)
(1.02169 0.035829 0)
(0.8349 0.0707897 1.97955e-21)
(-0.84094 0.448436 -6.62976e-20)
(1.00885 -0.000673793 -1.67515e-21)
(1.04249 0.00511372 -7.33266e-22)
(1.03416 0.0292679 0)
(-0.531325 -0.68747 -1.7959e-20)
(1.03198 0.0180722 2.70106e-22)
(1.02493 -0.000513318 0)
(1.01045 -0.000856564 1.37279e-21)
(0.890084 0.0370657 2.63248e-21)
(1.00769 -0.000250164 1.32273e-21)
(1.02385 -0.00236556 -3.83137e-22)
(1.02035 0.0180767 1.96351e-21)
(1.02688 0.00754813 -3.18294e-21)
(1.0161 -0.00214835 1.46804e-21)
(1.01187 0.0184393 0)
(1.02526 -0.00244107 -3.28588e-22)
(0.327916 0.144361 3.99657e-21)
(1.01769 0.00228698 -3.44806e-21)
(1.01769 0.0938408 0)
(1.02838 -0.00105299 0)
(1.01607 0.00428468 3.69272e-21)
(1.0135 -5.26969e-05 5.08345e-23)
(0.792977 0.199754 5.56629e-20)
(1.05158 0.060655 -1.33949e-21)
(1.01187 -0.000102497 1.47537e-23)
(1.03529 0.0025182 -1.51736e-22)
(1.04396 0.00495298 0)
(1.00952 0.00122696 1.14896e-21)
(1.01071 -0.000886711 -1.23031e-21)
(1.00772 0.000530103 -1.76962e-21)
(1.01633 -0.00239668 1.43639e-21)
(1.03138 0.018215 2.16419e-22)
(1.02698 0.0136655 0)
(1.02061 0.013235 1.73287e-21)
(1.11527 0.138576 -1.55878e-20)
(1.0059 0.272275 0)
(1.01922 0.00110682 0)
(0.975417 0.0800918 -4.077e-21)
(1.01945 0.011795 0)
(0.063129 -0.611082 1.33387e-20)
(1.04409 0.0129279 1.30976e-21)
(1.01125 0.000377106 0)
(1.1799 0.146401 0)
(1.05649 0.0597977 5.71899e-23)
(0.804335 0.302924 4.07954e-21)
(1.01202 0.000141451 -2.17071e-21)
(1.0349 0.066873 9.7704e-21)
(1.03166 0.00384334 -1.50299e-21)
(1.01421 -0.00277551 2.96475e-21)
(0.78126 0.697604 1.23425e-20)
(1.01479 -0.00080511 1.80075e-21)
(1.03657 0.0676438 1.36117e-21)
(0.571077 -0.24496 1.63658e-20)
(1.03144 -0.000915789 -1.04868e-23)
(1.0253 0.000596888 0)
(1.00882 -0.000668693 1.01705e-21)
(0.0960159 0.292182 3.14344e-20)
(1.01019 0.00196497 0)
(1.06784 0.0268622 0)
(1.06531 0.054256 3.8281e-21)
(1.16874 0.089306 -1.45252e-20)
(1.00527 -0.00013561 -1.35556e-21)
(1.16935 0.118328 -2.60533e-20)
(0.990185 0.0337866 -1.60797e-21)
(1.02058 -0.00278103 6.9778e-22)
(1.02392 0.0146664 0)
(1.02415 0.0133915 -1.16007e-23)
(1.02773 0.0692872 -1.15095e-22)
(1.09439 0.0735405 9.31278e-21)
(1.01299 0.00350472 0)
(1.01326 -1.07364e-05 0)
(1.01514 0.0236457 0)
(0.881894 0.245907 -2.57143e-20)
(1.0561 0.0531777 -1.12665e-20)
(0.987565 0.0301107 -5.77174e-21)
(1.03197 0.028092 1.08009e-21)
(1.26398 0.148214 1.32715e-21)
(1.04484 0.00993348 6.56726e-23)
(1.01823 -0.00361781 1.16074e-21)
(1.27599 0.0820752 2.37948e-20)
(1.01405 -0.00266115 -4.0388e-21)
(1.02268 -0.00670503 -8.58009e-22)
(1.01753 -0.00339292 -2.13776e-21)
(1.01315 -6.05904e-05 -5.0798e-23)
(1.01548 -0.00192494 0)
(1.01895 0.000435758 -2.87276e-22)
(1.02496 -0.00115502 3.08304e-24)
(1.32411 0.222541 0)
(1.02449 0.00266013 -6.63109e-21)
(1.00735 -0.000261227 0)
(1.13251 0.181605 1.91369e-20)
(0.803442 0.246527 0)
(1.04776 -0.218075 0)
(1.01988 -0.00418748 5.19534e-22)
(1.17926 0.156256 -3.31699e-20)
(1.02188 0.0156978 6.92253e-22)
(1.06876 0.0482108 8.73665e-21)
(1.01772 -0.000592949 0)
(1.03093 -0.00100137 0)
(1.01107 -0.00104589 0)
(0.825579 0.242766 3.87199e-20)
(1.01451 0.0164078 0)
(1.01233 0.00420944 -2.18133e-21)
(0.366998 0.124558 -5.10742e-22)
(1.01571 0.00186675 2.89043e-21)
(1.14143 0.102941 3.1537e-21)
(1.09262 0.162829 -1.06034e-20)
(1.0098 -0.000602827 0)
(0.998951 0.0472126 0)
(0.890243 -0.0987971 -3.02309e-21)
(1.30509 0.276836 -5.85259e-21)
(1.02138 0.0186844 0)
(1.02881 -0.0106353 1.07803e-21)
(1.00986 0.000456852 4.63064e-22)
(1.00724 0.000238612 2.72783e-21)
(1.0142 -0.00280702 0)
(1.16427 0.0382638 2.41219e-20)
(1.01385 -0.00375023 0)
(1.07162 -0.194994 0)
(1.02187 0.0154667 1.26566e-21)
(1.05683 0.0563562 4.76038e-23)
(0.926114 -0.193724 0)
(1.00721 0.000270664 -2.95546e-21)
(0.87695 0.0588625 0)
(1.1653 0.0435423 0)
(1.01316 0.00336814 -1.91297e-21)
(1.01635 0.00244204 1.68899e-21)
(1.0113 -3.38381e-05 9.0358e-24)
(1.02165 -0.00197575 2.69796e-22)
(1.00963 0.00132258 -1.17241e-21)
(1.04809 0.00115014 1.82019e-22)
(0.804533 0.0395501 0)
(1.04107 0.0127081 4.14257e-21)
(1.15821 0.169907 1.37325e-21)
(1.05793 0.0531467 -1.14068e-21)
(1.01416 0.128049 8.60018e-22)
(0.986024 0.022389 -6.40252e-21)
(1.02199 0.026337 -2.7951e-21)
(1.04755 0.00646167 0)
(1.08108 0.0187059 5.33222e-21)
(1.01537 0.00158561 0)
(1.08052 -0.0700302 2.83733e-21)
(0.900885 -0.00064217 3.49434e-21)
(1.04201 0.1167 -1.23876e-21)
(1.06871 0.00969556 -4.15957e-21)
(1.0145 0.00230755 -1.10876e-21)
(1.01628 -0.00253747 2.07585e-21)
(1.0205 0.0159941 0)
(0.505869 -0.138632 5.7218e-21)
(1.04982 0.00269932 -2.57698e-22)
(1.01632 -0.00247105 -6.36495e-22)
(1.02082 0.018095 -1.94062e-21)
(0.893033 0.0234731 0)
(1.02804 0.0171802 -5.35491e-22)
(0.774999 -0.0784917 0)
(1.01421 0.016762 0)
(1.02142 0.0115901 1.00988e-21)
(1.01609 -0.00197641 -1.29209e-21)
(1.12481 0.0936651 -8.83537e-21)
(1.01629 -0.00261361 -4.19352e-22)
(1.11532 0.132188 0)
(1.1478 0.181881 -3.02457e-20)
(1.01434 0.00726532 -3.03594e-21)
(1.02072 -0.00301971 -6.21081e-22)
(1.00735 0.000514604 -7.2266e-22)
(1.04756 0.0123681 0)
(1.01935 0.0144956 3.05371e-21)
(1.01654 -0.0024062 -8.67656e-22)
(0.966814 0.0739119 4.33468e-21)
(0.99465 0.0454308 0)
(1.03126 0.0282825 0)
(1.02107 -0.00317119 3.23743e-22)
(1.01439 0.0992996 1.46239e-21)
(1.07538 0.238599 1.29927e-21)
(0.965773 0.0719096 0)
(1.06019 0.0327795 0)
(1.01844 -0.000659201 2.74903e-23)
(1.03334 -0.00181856 -1.77204e-22)
(-0.203121 0.283932 -5.75482e-21)
(1.01633 0.00247338 -1.69848e-21)
(1.01564 0.0174635 7.5503e-21)
(0.997775 0.0348605 0)
(1.02305 0.0138656 -7.04483e-22)
(1.03256 0.00161963 -1.585e-21)
(1.12863 0.0593903 1.52682e-20)
(1.00521 0.0467336 2.27557e-21)
(1.01731 -0.00328739 0)
(1.0204 0.0185417 -1.11521e-21)
(1.02685 -0.00776687 -1.54499e-21)
(1.01384 0.00203242 5.39753e-22)
(1.20226 0.147882 3.752e-21)
(1.01762 0.00097041 0)
(1.02433 -0.00316163 0)
(1.0363 0.0380435 1.0248e-22)
(0.172706 -0.603191 0)
(1.02553 -0.000990009 0)
(1.06572 0.0191671 -1.09624e-21)
(1.02599 -0.00700128 0)
(1.01463 0.0105029 -3.33648e-21)
(1.01108 0.00290058 -2.33716e-21)
(1.00976 -0.000190851 -8.05986e-22)
(1.07336 0.245946 2.07141e-20)
(1.03254 0.00429953 -2.25335e-21)
(1.02556 -0.000838848 -1.85617e-21)
(1.01237 -0.000120152 4.14548e-22)
(1.03163 0.0114198 0)
(1.05242 0.042426 1.0028e-20)
(1.05875 0.0802647 0)
(0.867987 0.0166803 -3.85759e-21)
(1.01682 0.00136465 0)
(1.03284 0.0277556 0)
(1.02978 -0.0102665 -1.6261e-21)
(1.16244 0.182478 -5.89333e-20)
(1.02668 -0.00260281 0)
(1.1683 0.0864414 8.0328e-22)
(1.04222 0.11984 -1.2769e-21)
(1.01427 0.00700082 0)
(1.05273 0.0579165 -2.47807e-21)
(1.02604 -0.00707889 -5.14882e-22)
(1.02488 -0.00135978 2.03643e-21)
(1.08379 0.0163165 -1.20282e-20)
(1.03272 0.00775844 0)
(0.519334 -0.208186 4.36162e-21)
(1.09118 0.0360715 0)
(1.03236 0.00591363 2.27578e-21)
(1.12188 0.103826 -4.28567e-21)
(1.02115 0.0117826 -2.6104e-22)
(1.08817 0.0610782 0)
(1.00405 0.0512836 -1.14995e-21)
(0.0622222 0.0445967 0)
(1.02378 -0.00830549 0)
(1.01866 0.013069 -3.87992e-21)
(1.06142 0.0337936 4.57517e-21)
(1.02365 0.026531 4.91135e-22)
(1.04104 0.0240359 0)
(1.01529 0.0181541 2.80415e-21)
(1.20251 0.201983 -1.16276e-20)
(1.01104 -0.0010932 0)
(1.02981 0.0423536 1.35617e-22)
(1.02462 -0.00979421 2.3488e-21)
(1.0189 0.0169421 0)
(1.03786 0.00910115 2.70405e-21)
(1.04855 -0.0437535 0)
(1.08738 0.0407068 0)
(1.02859 0.0171793 0)
(1.01776 0.0014671 0)
(0.915504 -0.0200968 -2.31194e-21)
(1.0738 0.0176395 0)
(1.20745 0.14218 2.88046e-20)
(1.06698 -0.00618965 1.013e-20)
(1.0254 0.00109398 0)
(1.0281 0.031602 0)
(1.06478 0.247788 -1.82354e-20)
(0.890106 -0.194616 -9.89136e-22)
(1.03658 0.0389204 -1.0345e-21)
(1.03132 0.032864 0)
(0.985622 0.0269619 1.04666e-20)
(1.0977 0.0329637 7.46048e-20)
(1.04303 0.0611834 -1.6798e-22)
(1.01651 -0.00252091 -3.10386e-21)
(1.03739 0.0551118 2.06959e-21)
(1.03146 0.0123466 0)
(0.614479 -0.193129 9.11021e-20)
(0.588508 -0.191988 -4.21679e-21)
(1.03103 0.0112222 3.45241e-22)
(1.12956 0.190265 0)
(1.01526 0.00276034 -9.2799e-23)
(1.11237 0.177294 2.92857e-20)
(1.00474 -0.000141756 -6.87633e-22)
(1.02086 -0.00293428 2.81765e-22)
(1.17423 0.139332 0)
(-0.211671 -0.374119 -1.56385e-20)
(1.01049 -0.000223265 -3.4357e-22)
(1.01648 0.0343682 0)
(1.20666 0.150522 -6.14537e-20)
(1.0199 0.00479229 4.47807e-21)
(1.01836 0.00178241 8.67467e-23)
(0.977791 0.0188758 2.13239e-21)
(1.13948 0.132438 -1.09231e-20)
(1.02723 0.0166667 5.02783e-22)
(0.604963 0.222691 4.14973e-21)
(1.02022 0.0126819 -1.64172e-21)
(1.01431 0.0301189 -3.66117e-21)
(1.01574 0.00581975 0)
(1.02841 0.0222082 3.61013e-21)
(1.19844 0.0899997 -6.17589e-20)
(1.24074 0.118202 -2.96634e-21)
(1.04516 0.0230858 -1.48706e-21)
(1.31432 0.318339 -2.57884e-20)
(1.01729 0.00140041 0)
(1.06242 0.0321972 -3.92809e-21)
(1.01736 0.00135295 0)
(1.07384 0.0175559 0)
(0.831137 -0.0985141 -3.70269e-21)
(1.06724 0.0596949 0)
(1.07079 0.0443138 -2.89363e-21)
(1.01222 -0.0015054 -4.22619e-21)
(1.01406 -0.00256521 5.27289e-21)
(1.17911 0.15995 2.97167e-20)
(1.09599 0.176981 -2.07399e-21)
(1.02418 -0.00229199 -7.3569e-23)
(1.02762 0.0196911 6.22061e-21)
(1.01325 0.0154348 0)
(1.01283 0.0032888 0)
(1.01683 -0.00253358 0)
(1.05967 0.015888 0)
(1.02556 0.0175074 9.92319e-22)
(1.06177 -0.0932375 -4.29075e-22)
(1.138 0.143595 -1.0204e-20)
(1.02747 -0.00840983 3.30424e-21)
(1.13261 0.0558607 0)
(1.03225 0.00313761 0)
(1.13486 0.0522486 2.31226e-20)
(1.01413 0.00401085 5.73967e-21)
(1.03094 0.0221169 -4.94271e-21)
(1.06108 0.0829941 -4.29858e-21)
(1.01577 0.00555913 1.21873e-21)
(1.00818 -0.000461888 0)
(1.04348 -0.117036 -7.83143e-22)
(1.03699 0.0570275 0)
(0.0620643 0.300413 -3.99634e-20)
(0.862183 0.0761641 -9.59145e-21)
(1.01623 0.00253156 6.29628e-21)
(1.02479 0.0135571 -3.18403e-21)
(1.01828 0.0168502 2.24634e-21)
(0.659048 -0.130231 -8.60698e-20)
(1.00969 -3.56184e-05 6.01884e-24)
(1.00573 -0.000149773 1.19725e-21)
(1.01416 0.00364221 7.57068e-22)
(1.05116 0.0448486 -5.8155e-22)
(1.01603 -0.00292521 -3.10659e-21)
(1.1759 0.140392 0)
(1.0129 0.000592922 3.09721e-24)
(1.01173 -0.0981404 -3.7023e-21)
(1.01885 -0.000744686 -1.48974e-23)
(1.01511 0.0337123 0)
(1.01445 0.0309882 -3.68021e-21)
(1.01227 -3.12857e-05 2.17565e-23)
(1.0188 -0.00156606 0)
(1.03741 0.0087591 -1.89778e-21)
(1.01197 -0.00140861 3.01946e-21)
(1.02512 0.092903 0)
(1.01389 -0.00240216 -4.74515e-21)
(1.01908 0.0734887 -9.93722e-22)
(1.09284 0.186382 -9.63215e-21)
(-0.685812 0.235591 5.3722e-20)
(1.18046 0.116615 4.15406e-20)
(1.01265 0.0029853 0)
(1.07046 -0.0861205 9.48786e-22)
(1.11422 0.0527478 -4.63711e-21)
(1.03517 0.0368043 3.06374e-22)
(1.02774 4.96573e-05 0)
(1.07369 0.0365645 0)
(1.13487 0.188482 1.91817e-20)
(0.997111 -0.101006 6.04806e-22)
(1.0962 0.0244001 -2.93047e-20)
(0.902765 -0.0366717 1.04354e-20)
(1.01283 0.0032075 1.37141e-21)
(1.03467 0.0356269 2.85672e-22)
(1.10719 0.048311 1.63322e-20)
(1.02027 -0.00102528 3.25077e-24)
(1.02999 0.0731336 1.73733e-22)
(1.00878 0.000653374 0)
(1.09232 -0.154312 -2.18328e-21)
(1.04034 0.0152652 -6.21786e-23)
(0.386979 -0.464847 -1.96476e-20)
(1.0283 0.0441575 -2.15855e-22)
(1.01887 0.0175304 0)
(1.01463 0.0524262 0)
(1.0194 0.00586678 0)
(1.07715 0.0421413 1.20415e-21)
(1.01638 0.00252785 1.897e-21)
(1.10404 -0.0402538 1.06356e-20)
(1.02739 0.0199906 -6.79651e-21)
(1.01408 -0.00271402 2.72321e-22)
(1.01634 0.00402818 2.48292e-21)
(1.03191 0.00325789 1.49811e-21)
(1.05596 -0.00614056 5.03355e-21)
(1.05254 0.0451185 5.74243e-21)
(1.04441 0.00302486 7.91197e-23)
(1.18082 0.11329 0)
(1.01012 0.000844788 0)
(1.04463 0.0226088 4.56115e-21)
(1.02331 -0.00245124 1.88718e-22)
(1.02151 0.000933206 0)
(1.02633 0.0211775 1.23217e-21)
(0.47518 0.319046 -1.11818e-22)
(1.16812 0.116521 1.36375e-20)
(1.1384 0.125571 0)
(1.0234 0.019469 -1.2662e-22)
(1.0118 -0.00134011 6.39721e-22)
(0.872131 0.147131 1.74573e-21)
(0.672548 -0.266964 0)
(1.07012 0.0477445 5.25648e-21)
(1.09647 0.0729044 1.43279e-21)
(0.977503 -0.0314176 8.35026e-21)
(1.09903 0.166224 1.28759e-20)
(1.0678 0.0244679 3.80165e-23)
(1.02707 -0.00231025 4.99634e-23)
(1.01499 0.012025 5.23425e-21)
(1.04414 0.0589704 1.15894e-21)
(1.04561 0.0207716 8.62838e-21)
(1.02643 0.0390463 1.28113e-21)
(1.01936 -0.00392643 1.06167e-21)
(1.0262 0.0209619 1.20271e-21)
(1.03911 0.00436352 -3.51783e-21)
(1.16966 0.114062 0)
(1.02657 -0.00222012 -3.12062e-23)
(1.02187 -0.0103791 -2.687e-21)
(1.01465 0.0118727 -2.63787e-21)
(1.01465 0.0115028 0)
(0.538329 0.250091 3.8772e-22)
(1.01585 -0.00047335 3.01206e-21)
(1.01025 -0.00029583 0)
(1.01076 -0.000500506 0)
(1.01247 -0.00161795 1.23424e-21)
(1.02074 0.0113037 0)
(1.01943 0.0121024 -4.82459e-22)
(1.05759 0.109458 3.7829e-21)
(1.01854 -0.00370892 -1.11889e-21)
(1.16935 0.116813 0)
(0.598231 -0.147172 8.15585e-22)
(0.773564 0.17507 8.83693e-22)
(1.03914 0.00431768 3.10951e-21)
(0.176146 0.0936609 -2.9123e-21)
(1.17099 0.133435 -2.07363e-20)
(1.06163 0.0513388 2.96799e-21)
(1.00676 0.000388009 -1.89492e-21)
(1.11144 -0.0597123 0)
(0.791487 0.162858 -1.426e-23)
(1.01511 0.00109304 -5.55182e-21)
(1.10907 0.0339586 -7.05002e-21)
(1.02339 0.00312684 5.41607e-22)
(1.01372 -0.0031043 5.67997e-21)
(1.14229 0.133031 1.0738e-20)
(1.02192 0.0994204 0)
(1.02289 -0.0122139 1.27466e-21)
(0.848149 -0.133589 2.50755e-21)
(1.02069 0.0125189 1.39866e-21)
(1.01798 0.00456902 -4.40459e-22)
(1.0672 0.0528915 0)
(1.01672 -0.00287696 0)
(1.01905 -0.00392152 0)
(1.0166 -0.00278587 8.55254e-22)
(0.92038 0.0262651 3.98895e-21)
(0.933351 0.00509939 2.26702e-21)
(1.14042 0.12725 1.21049e-20)
(1.03273 0.0262818 3.54523e-23)
(1.01722 0.00195304 0)
(1.01585 -0.001278 2.67634e-21)
(1.08867 0.0104263 -3.28084e-21)
(1.01314 0.0050095 -9.09082e-22)
(1.01743 0.00166264 -5.54944e-22)
(1.02476 0.0661829 -6.37601e-22)
(1.0113 0.000923158 0)
(0.641194 -0.253132 -8.37759e-21)
(1.02252 0.0033285 -2.61784e-21)
(1.02074 -0.00183916 -1.56348e-22)
(0.664855 -0.183144 0)
(1.0209 -0.00186778 0)
(1.04369 0.0257287 5.69606e-21)
(-0.549654 0.181884 -8.66147e-20)
(1.02967 0.000168604 1.22568e-21)
(1.0127 -9.84107e-05 -3.87073e-22)
(1.02983 -0.00211042 -7.31965e-22)
(1.12468 0.206631 0)
(0.761587 0.0317836 7.96598e-22)
(0.884918 -0.0220988 -1.15578e-20)
(1.06913 -0.187528 5.08641e-21)
(1.05583 0.113046 2.80623e-21)
(1.01035 -0.000831818 0)
(1.01326 0.00569235 -1.52242e-21)
(0.901678 -0.0113594 -2.44304e-21)
(1.06244 0.0789236 -1.75913e-21)
(1.01613 -0.0017478 0)
(1.04454 0.0110593 0)