/*--------------------------------*- C++ -*----------------------------------*\
| =========                 |                                                 |
| \\      /  F ield         | OpenFOAM: The Open Source CFD Toolbox           |
|  \\    /   O peration     | Version:  v2012                                 |
|   \\  /    A nd           | Website:  www.openfoam.com                      |
|    \\/     M anipulation  |                                                 |
\*---------------------------------------------------------------------------*/
FoamFile
{
    version     2.0;
    format      ascii;
    class       volVectorField;
    location    "250";
    object      ddtCorrDdt0(U);
}
// * * * * * * * * * * * * * * * * * * * * * * * * * * * * * * * * * * * * * //

dimensions      [0 1 -2 0 0 0 0];


internalField   nonuniform List<vector> 
18166
(
(0.0067408 -0.0828704 1.80849e-20)
(5.21851e-05 -0.000159594 5.07961e-21)
(0.102187 -0.0131811 -4.21204e-22)
(0.0361931 0.0491728 4.04965e-22)
(0.0692815 -0.0734166 0)
(0.000952285 0.0194688 -4.53712e-21)
(0.000285313 3.93405e-05 -6.66576e-22)
(0.00103061 -0.000417794 3.61543e-21)
(0.00713032 -0.0143707 0)
(-0.0132192 -0.0727904 -1.82066e-20)
(4.59899e-05 -0.000170836 0)
(0.0424698 -0.0104094 0)
(0.00405185 0.00499513 3.52419e-23)
(0.0149821 -0.0184694 1.17221e-20)
(0.00673325 -0.00121038 -3.14226e-21)
(-0.000490362 6.6254e-05 0)
(-0.138327 -0.079584 0)
(-7.2334e-05 0.000666257 -4.07315e-22)
(0.00231582 0.00360259 -2.61796e-21)
(-0.0726063 0.104432 -3.33367e-20)
(0.00140058 0.00106172 -2.98792e-21)
(7.20412e-05 1.39573e-06 0)
(0.00222364 0.00228092 -8.19715e-22)
(0.00118202 -0.00145559 0)
(0.0200163 0.036223 2.9249e-22)
(0.0463268 -0.0213358 -5.86149e-21)
(0.000992108 -0.000536582 -2.26521e-21)
(-0.0480142 -0.169886 6.3512e-21)
(0.000594117 -1.78663e-05 0)
(0.000233851 -6.36007e-05 -3.94991e-21)
(6.24191e-05 -4.3778e-05 0)
(0.012003 0.0475716 -1.52772e-20)
(0.00874247 -0.0241127 3.16641e-21)
(0.0147623 0.0401346 0)
(0.0972505 -0.0346768 6.14565e-21)
(0.000356529 0.000271751 -4.21934e-21)
(0.00013448 -5.2761e-05 -2.22181e-23)
(3.27388e-05 1.66114e-05 -7.1597e-22)
(0.00510304 -0.00244423 2.46433e-21)
(0.0445123 -0.024189 0)
(0.00520079 -0.0115594 9.63028e-21)
(0.00244837 0.00311092 0)
(3.54315e-05 -5.70781e-06 -1.60543e-21)
(0.00173639 0.0023843 -1.24968e-21)
(0.0842568 -0.04363 0)
(0.000119339 -5.33671e-05 -5.9064e-22)
(0.000205234 5.30704e-06 -6.81399e-22)
(-0.147299 0.375715 6.81401e-20)
(7.82432e-05 -4.02434e-05 4.25268e-23)
(-0.041542 0.139518 3.35906e-20)
(-0.0677433 -0.0225352 -1.29304e-21)
(-0.150223 -0.0745405 2.74749e-20)
(7.93769e-05 -4.24905e-05 -6.0562e-23)
(0.000591757 0.000724934 -3.79261e-21)
(0.000118328 -6.3015e-05 1.85214e-21)
(0.000284318 0.000262885 -1.02983e-20)
(-0.0707849 -0.0625433 0)
(0.00013561 3.4275e-05 0)
(0.100496 -0.0354276 6.50908e-21)
(0.000302127 0.000270763 5.5244e-21)
(0.00137872 -0.000908441 1.62962e-21)
(0.000148919 -4.27152e-05 -9.96552e-22)
(7.53728e-05 -5.01182e-06 -1.32654e-21)
(0.000277767 0.000286988 3.43015e-21)
(0.000190642 -3.68924e-06 2.46602e-21)
(0.000162267 -5.39831e-05 0)
(0.000228077 1.5637e-05 0)
(-0.000383585 0.000123226 -2.44749e-21)
(-0.196761 0.185958 -1.2038e-20)
(5.72212e-05 6.82604e-06 -2.03806e-21)
(0.0034511 0.00561896 0)
(0.0330064 0.0269155 -4.6904e-21)
(0.0127595 0.0861134 0)
(0.00711883 -0.00894649 0)
(4.91291e-05 4.20413e-06 1.36694e-21)
(-0.00278496 -0.0165162 -1.89528e-21)
(0.116475 0.0148324 0)
(-0.115794 -0.112338 -5.36829e-21)
(-0.0206968 0.0831494 -5.01901e-21)
(-0.00614561 -0.0104919 0)
(0.00129298 0.000986097 -1.23895e-21)
(0.00708063 0.000843963 0)
(0.082775 -0.0582265 1.03813e-21)
(8.74354e-05 -1.53289e-05 0)
(0.000141267 1.61766e-05 -1.24162e-22)
(0.00154756 -0.00118373 -8.71112e-23)
(0.00275412 0.00283053 -3.32534e-23)
(0.000256109 0.000238876 -2.13946e-21)
(0.000239303 -6.4991e-05 6.5094e-21)
(0.177982 -0.0767616 0)
(8.69838e-05 -2.20416e-05 -8.67092e-22)
(0.000209877 -0.000271665 0)
(0.00227377 0.00379944 0)
(0.000237405 -6.56361e-05 -6.43934e-21)
(0.00592127 -0.0133615 0)
(0.00109168 0.000302327 0)
(0.0224278 0.0502644 0)
(0.000129203 4.33956e-05 0)
(-0.109958 -0.151717 0)
(-0.299618 0.33197 1.89746e-20)
(-0.00216032 0.00117178 4.60551e-22)
(0.000245342 0.000673718 -2.02851e-22)
(0.000238529 -4.99157e-05 0)
(-0.0575394 -0.164565 2.03523e-21)
(7.09182e-05 4.79773e-06 2.81523e-22)
(-0.0732031 -0.0282173 3.6882e-21)
(8.9806e-05 3.51267e-06 -1.59522e-21)
(0.000205412 4.4568e-06 -3.13905e-21)
(0.000232708 0.000452892 -1.71603e-22)
(0.000533482 5.39823e-05 0)
(-0.115522 -0.0563527 2.40218e-20)
(0.0841357 -0.0720175 0)
(-0.11889 -0.0679858 0)
(-0.198244 0.184588 0)
(0.00175647 -0.00157973 3.0406e-21)
(-0.0542615 -0.125142 -2.80728e-21)
(-0.0940677 -0.109908 -1.9529e-20)
(-0.00864221 -0.00450643 1.33524e-20)
(0.00105553 -0.00143321 0)
(5.1159e-05 -7.9411e-05 1.21282e-21)
(-0.000319805 -0.000209269 -6.99512e-21)
(5.13118e-05 -7.85069e-05 0)
(-0.00717748 -0.00360994 -8.08098e-21)
(0.000125589 -7.19004e-06 -4.62805e-22)
(0.000254941 -6.03702e-05 -4.188e-21)
(0.00447523 0.00113282 -1.53183e-22)
(0.00355923 3.44441e-05 0)
(0.000677109 0.00373486 -5.08189e-21)
(7.95999e-05 5.97254e-06 -5.9009e-22)
(0.000211967 0.000293073 -4.22286e-22)
(0.000273897 5.29453e-05 -3.40076e-22)
(0.000264206 0.000362675 3.83448e-22)
(-0.0194378 -0.0143553 -1.32014e-21)
(-0.00141369 0.00263215 0)
(0.00962528 -0.0276904 7.5399e-23)
(-0.0639307 -0.114608 4.42106e-21)
(0.000122423 -0.00040793 0)
(-0.0179483 0.082916 5.71925e-21)
(7.96776e-05 7.14025e-06 -8.25306e-22)
(0.0465666 -0.000709744 3.19821e-21)
(0.000217105 0.000430791 -5.8012e-21)
(-0.000297419 -0.000210813 1.20055e-20)
(0.0036113 0.000379619 -4.25795e-21)
(-0.0862384 -0.151103 -7.82529e-21)
(0.000103718 -5.18241e-05 -9.70895e-24)
(0.0882598 -0.0410701 0)
(-0.0838166 -0.147709 -1.01051e-20)
(0.000131653 -4.69949e-05 -6.91495e-22)
(0.000827756 0.000418892 -4.31284e-22)
(-0.318803 0.311758 0)
(-0.00103805 -0.00447597 5.30235e-21)
(0.00128684 0.00129421 1.22213e-21)
(0.0462971 -0.0183513 0)
(-0.0813044 -0.0160267 0)
(-0.00811889 0.0304296 0)
(0.000794228 0.000418435 4.40963e-22)
(0.00193155 7.80362e-05 -1.77562e-21)
(0.000274251 0.00246224 2.56549e-21)
(-0.00720688 0.0273668 0)
(0.00166455 -0.0016226 4.79047e-21)
(0.00058521 -0.000761755 8.74141e-22)
(0.00366942 0.000446982 -1.62817e-22)
(-0.257683 0.0649753 -5.60831e-20)
(3.60261e-05 -2.1022e-06 1.19839e-21)
(0.000329863 0.000385564 -6.87222e-21)
(0.00150592 -0.00873202 2.42393e-21)
(0.0203474 0.0437787 4.65892e-20)
(0.000760429 -0.000334277 5.02046e-22)
(-0.0748919 -0.00854694 -1.60631e-20)
(0.00169812 -0.000444649 2.00239e-21)
(-0.00658997 -0.0114024 -5.44462e-21)
(-0.0447891 -0.0475403 -5.65494e-22)
(0.000274368 -6.29523e-05 0)
(-0.0423215 -0.117812 0)
(4.94297e-05 -3.3456e-06 -1.00015e-21)
(-0.0509996 0.120989 3.62006e-20)
(0.00132648 -0.000477173 -1.42729e-21)
(-0.0226046 -0.035554 1.78617e-20)
(0.000281909 0.000230501 4.47633e-21)
(0.000938502 0.000587068 0)
(0.000126215 6.40234e-07 1.69582e-22)
(0.000278616 -0.000433591 3.20757e-22)
(-0.0448778 -0.0528119 -1.08968e-20)
(0.114451 -0.0632343 3.38372e-21)
(-0.00201124 -0.004373 -6.18675e-22)
(9.0856e-05 -4.1796e-06 0)
(0.000591647 -7.50681e-05 -1.38816e-21)
(0.000824456 0.00089636 4.36232e-21)
(-0.000383454 -0.00172887 1.18323e-21)
(8.79719e-05 7.76258e-07 1.27936e-21)
(0.000397124 0.00215029 -2.50623e-21)
(-0.00134771 -0.00464534 6.04888e-21)
(0.0648521 -0.122149 1.69477e-22)
(0.000177872 1.99116e-05 0)
(0.00385494 -0.000153029 -2.55793e-21)
(-0.0379423 0.039722 -4.72837e-21)
(-0.0360621 0.0336615 -1.22517e-20)
(-0.0435431 0.0381427 -1.95592e-20)
(0.000142598 0.000429565 -2.23179e-21)
(0.000224721 1.47472e-05 -2.66749e-22)
(0.00351226 -0.00169609 2.57469e-21)
(-0.11868 -0.161321 0)
(-0.0650521 -0.0109964 -4.75312e-21)
(0.00196426 -0.00182169 3.00386e-21)
(0.000286402 0.000250131 0)
(0.00569956 0.0363996 4.65497e-22)
(-0.0004179 -1.42411e-05 0)
(0.0289135 0.0134897 0)
(0.000565788 0.0286652 8.81481e-22)
(0.000554616 0.00325568 0)
(0.000247228 -0.000249036 0)
(0.00366701 0.0367837 -9.78706e-22)
(0.00309714 0.0413296 3.47925e-21)
(0.000219847 0.00236719 -1.07423e-21)
(0.0033719 0.00343473 -3.03906e-21)
(0.0002635 0.000500483 0)
(-0.147334 0.484827 1.93228e-19)
(0.000625125 0.000560349 0)
(0.000939689 0.00303377 -5.10093e-21)
(0.000412192 0.000124574 -1.6367e-22)
(0.00660808 -0.00207865 5.21055e-21)
(0.000697808 -0.101473 0)
(0.0158114 -0.0122651 5.37263e-21)
(0.000148528 -3.99275e-06 -4.41906e-22)
(0.000192528 1.35769e-05 0)
(-0.0726855 -0.109348 3.91725e-21)
(0.000146121 -3.98217e-05 5.84553e-22)
(0.000350178 1.51062e-05 0)
(0.000272235 0.00203918 0)
(0.000140215 -2.50652e-06 2.09165e-22)
(0.000143356 -2.31408e-06 2.40396e-22)
(4.96474e-05 -5.79449e-05 4.83618e-22)
(0.0383125 -0.0217614 -1.29376e-20)
(5.00754e-05 -5.01925e-05 -5.61165e-22)
(-0.0906997 -0.0230214 0)
(0.00756724 -0.110774 -4.39947e-22)
(0.00420009 -0.102338 -1.57351e-21)
(4.13219e-05 -9.6081e-07 -4.8486e-22)
(0.00108125 -0.00489045 0)
(0.0330534 -0.0255512 6.62268e-21)
(0.00017036 -4.88715e-05 4.83185e-22)
(0.0149092 -0.0176324 -1.06344e-20)
(0.000143849 1.26097e-06 0)
(-0.0793847 -0.0750278 0)
(0.000149978 -1.84921e-05 1.74151e-21)
(5.49399e-05 -8.29543e-05 0)
(0.111438 0.0875118 1.04218e-21)
(5.57088e-05 -8.05868e-05 0)
(-0.00543865 -0.00896365 -4.70989e-23)
(0.00110495 0.0228715 0)
(0.00844288 -0.093933 7.00432e-21)
(0.000418846 4.91284e-05 1.43599e-22)
(0.000786099 -0.000786623 8.13888e-22)
(0.0414405 -0.014458 2.84306e-23)
(-0.000439714 -0.000113709 -6.46165e-21)
(0.000196867 1.08073e-05 1.3336e-21)
(0.000361724 0.000576783 4.20989e-21)
(0.000295391 0.000302098 0)
(0.000755581 -0.00052554 -8.91355e-22)
(0.000974016 0.000456354 0)
(-0.0359961 0.00327052 6.90934e-21)
(-0.0358577 -0.0203099 0)
(0.000810175 0.000834754 -2.06373e-21)
(6.12875e-05 -1.34515e-05 0)
(0.000193671 1.40524e-05 -4.93583e-21)
(0.00731991 0.00378937 3.02307e-21)
(0.00716452 -0.0929122 1.9585e-20)
(0.000803099 -0.000510392 6.82874e-22)
(9.22193e-05 -2.31501e-06 1.07776e-21)
(0.0201704 -0.0569628 8.77323e-21)
(0.000218894 7.76142e-06 -2.19947e-21)
(0.000264254 0.000228934 0)
(0.0271518 0.0393742 -5.60073e-21)
(0.026089 0.0620338 -1.27864e-20)
(-0.0100345 0.00307702 2.16754e-21)
(0.000218887 -2.37526e-05 -8.60739e-22)
(-0.0766146 -0.00946237 5.79675e-21)
(0.000137424 9.23079e-06 -4.20265e-23)
(7.88105e-05 -0.000147184 -7.10495e-21)
(0.0219343 0.0467152 9.38547e-22)
(0.000269711 4.73697e-05 3.31662e-22)
(0.0031965 0.00267489 1.73502e-21)
(0.000764548 0.0129165 1.57976e-22)
(0.000303426 0.000277979 0)
(0.00023088 0.000251311 -9.17754e-22)
(-0.000616159 0.0059392 4.22162e-21)
(-0.0124602 0.0323347 0)
(0.0423412 -0.0101442 5.47747e-21)
(0.000217194 1.50301e-06 0)
(-0.000151989 0.00181793 0)
(0.000177844 0.000609955 1.67446e-22)
(-0.0205029 -0.015429 -2.46727e-21)
(0.000353383 0.000259853 4.23338e-21)
(-0.000287319 -0.00233504 9.49135e-21)
(4.69076e-05 -8.00442e-05 -5.88287e-22)
(8.62494e-05 -1.62905e-06 7.63159e-22)
(3.41095e-05 5.6535e-06 1.57468e-22)
(-0.0611476 -0.108486 0)
(4.70885e-05 -7.76064e-05 5.39674e-22)
(0.000242588 -0.100973 -1.87868e-20)
(0.0115439 -0.00617653 1.36969e-20)
(-0.00572102 -0.0206957 -4.59225e-21)
(-0.225511 0.240532 -2.9026e-20)
(0.00376084 -0.00283515 -3.31625e-21)
(0.000243665 -9.41695e-05 -1.12304e-21)
(-0.00788902 0.00366505 0)
(0.0146516 -0.0319805 4.34119e-21)
(0.000387099 -2.04189e-05 -2.53589e-21)
(0.000364716 0.000464455 1.87967e-21)
(0.000105062 0.00176392 2.68028e-21)
(0.000121566 -0.000169874 -2.09167e-21)
(0.000249619 -4.08393e-05 5.08614e-21)
(0.000900805 -0.000527068 1.68946e-21)
(0.000309009 -0.00108715 2.47514e-21)
(0.000252679 4.497e-05 -3.18458e-22)
(5.27771e-05 1.90053e-06 -9.5077e-22)
(8.51377e-05 3.03626e-05 8.67065e-22)
(0.00339584 0.0387396 -1.48639e-21)
(-0.0132476 0.025877 0)
(0.000231014 2.78307e-05 1.09104e-21)
(0.0925267 -0.113226 -3.41546e-22)
(-0.000666233 -0.00396696 0)
(-0.0745653 -0.0168206 9.41539e-21)
(-0.00104378 -0.00337843 0)
(0.000114428 -7.72153e-05 -1.66025e-23)
(8.17663e-05 3.06841e-05 -7.9287e-22)
(0.000160069 -0.000126189 1.9645e-21)
(0.0982219 -0.00798897 7.29336e-21)
(0.0002477 -5.97326e-05 2.18574e-21)
(-0.00250808 0.0326182 0)
(8.95549e-05 3.19235e-06 1.87835e-21)
(5.77146e-05 -1.98266e-06 -2.3471e-22)
(0.000201757 -2.48075e-05 0)
(0.000525887 0.000765112 3.89624e-21)
(0.00186402 0.00454017 1.22989e-21)
(0.000241341 4.40836e-05 0)
(-0.00508256 0.0284544 0)
(-0.0315452 0.0320743 0)
(0.00202911 0.00138335 -2.5718e-21)
(0.000238864 1.77457e-05 -1.96681e-21)
(-0.00640612 -0.0181638 -2.07896e-21)
(0.000848934 -0.000135794 -2.20119e-21)
(0.00346049 0.0341523 -1.2609e-21)
(0.000250034 -5.67552e-05 3.90856e-21)
(0.00366487 0.000441483 2.55623e-21)
(0.000542964 0.000135951 0)
(-0.0165634 0.082125 -1.18515e-20)
(0.000485101 -5.27471e-05 2.58502e-21)
(0.000164867 -2.45047e-05 5.34624e-22)
(7.25062e-05 1.24045e-05 -2.42368e-22)
(0.024306 0.0377353 0)
(3.98735e-05 1.94395e-07 0)
(0.0404435 -0.0147025 2.94003e-23)
(0.000807122 -0.000683642 0)
(0.0304363 -0.11188 0)
(0.00217761 0.00298351 -1.5907e-21)
(0.000734258 -0.00065775 -9.1425e-22)
(0.00188679 0.000658481 5.10701e-21)
(-0.0196174 -0.0588041 1.26931e-21)
(0.0196383 -0.035795 -3.47669e-21)
(0.00055534 -0.00140829 8.42977e-23)
(0.000513052 -5.62169e-06 -2.58804e-21)
(4.48862e-05 -7.10923e-05 1.01106e-21)
(0.00346936 -5.20041e-06 1.44477e-21)
(-0.0622006 0.0613796 2.04323e-20)
(4.54219e-05 -7.17605e-05 -1.06442e-21)
(0.000110613 -8.43335e-05 0)
(0.000207045 1.81319e-06 7.80921e-22)
(0.000111065 -0.000166888 -3.45653e-21)
(-0.00737028 0.000568249 7.88064e-21)
(0.00012444 -1.47918e-05 0)
(-0.000115688 0.000852013 0)
(0.000357435 1.49594e-05 1.93348e-21)
(-0.0544765 0.0233198 8.68494e-21)
(0.000232009 1.10531e-05 3.0795e-21)
(4.03614e-05 8.10443e-07 0)
(-0.000253466 0.000636035 0)
(-0.00641205 0.00303962 4.10521e-21)
(0.000137725 -9.97379e-06 -4.55801e-22)
(0.000592994 4.86664e-05 0)
(5.91312e-05 -6.9761e-05 1.72852e-21)
(0.000264365 0.000173694 9.49955e-21)
(0.0162552 0.0237316 0)
(-0.0546051 0.0365059 -2.96862e-21)
(6.01688e-05 -7.32187e-05 -2.22746e-21)
(0.000581768 0.000204143 6.09182e-21)
(0.011909 -0.0132179 0)
(0.0167633 0.0267782 1.29482e-20)
(0.00155051 0.00117327 2.62694e-21)
(-0.0210806 0.092134 -7.7767e-21)
(5.63866e-05 -6.22015e-05 6.05436e-22)
(-0.164971 0.0164809 3.84633e-20)
(0.00569607 -0.0112184 4.20922e-21)
(0.00208255 0.000304913 0)
(0.00317396 0.0470711 1.77273e-20)
(0.0173343 0.0253809 5.66333e-21)
(0.000193558 -8.63856e-06 0)
(3.90089e-05 -4.90779e-05 2.25328e-24)
(0.000208035 6.18949e-06 2.78949e-21)
(0.0588669 0.00234174 1.06004e-20)
(3.74555e-05 -3.52341e-05 -2.24316e-21)
(2.36367e-05 -1.27368e-05 1.54783e-21)
(0.000423883 0.000722268 4.31714e-21)
(3.40207e-05 2.35756e-05 -6.20671e-24)
(0.00209136 5.12434e-06 9.04098e-21)
(0.000208391 -3.87491e-06 2.77407e-21)
(8.73694e-05 1.50048e-06 -1.13946e-21)
(0.00970038 0.0814848 3.7081e-20)
(-0.0308516 -0.0110073 0)
(3.18636e-05 1.84153e-05 -6.46492e-22)
(5.93054e-05 0.000633879 2.34091e-21)
(-0.0423015 0.0996233 -1.34207e-20)
(-0.00731241 -0.0148096 0)
(3.89372e-05 6.38342e-07 3.95699e-22)
(7.26056e-05 -4.27419e-05 0)
(-0.0633942 0.0333815 1.35316e-20)
(0.00114308 0.000439602 1.29592e-21)
(0.000211467 0.0001727 0)
(0.000134836 1.65359e-05 -3.73169e-22)
(-0.000263336 -0.00182805 2.58508e-21)
(0.000202157 -2.22155e-05 0)
(7.99683e-05 -3.38388e-05 1.72819e-23)
(0.00433589 -0.0605595 0)
(-0.0017444 -0.0455735 -7.84894e-21)
(0.00276819 -0.000707034 4.61806e-21)
(0.000194905 -7.24834e-06 1.6655e-21)
(0.000475784 -8.49448e-05 -3.08712e-21)
(7.20641e-05 -4.47073e-05 0)
(7.57165e-05 -3.26603e-05 0)
(0.0133788 0.012513 0)
(0.00168733 0.000292922 5.24698e-21)
(5.47468e-05 7.97802e-06 0)
(0.000253279 -8.33938e-05 0)
(-0.0109161 -0.0191704 -5.36049e-21)
(0.000144659 6.55609e-07 0)
(0.000341994 4.56572e-05 -1.16393e-21)
(0.000139505 -0.000348076 3.18891e-22)
(0.0578789 -0.0348086 -1.27259e-20)
(0.181319 -0.0782589 0)
(0.0414883 -0.013189 0)
(-0.101064 -0.0312078 0)
(0.104899 -0.0151599 0)
(-0.071364 -0.0506997 0)
(-0.0639286 -0.0360652 -2.42346e-20)
(0.000302339 6.18351e-06 2.79596e-21)
(-0.00556626 -0.012475 -1.60096e-22)
(0.0762642 -0.123188 0)
(-0.000535555 -2.95052e-06 0)
(0.0118869 -0.0105825 0)
(0.000103059 0.00211162 -2.3624e-22)
(0.0127356 0.00818986 -2.16134e-21)
(0.000583378 -0.000400844 0)
(0.000264171 0.000161071 -7.99909e-21)
(6.3448e-05 2.47003e-06 0)
(5.96934e-05 -2.71163e-05 -7.21053e-24)
(-0.00513016 -0.00176053 0)
(-0.00398299 0.00109879 1.88643e-21)
(0.000217388 3.76887e-05 3.87496e-22)
(0.00032798 3.16571e-05 1.36877e-21)
(-0.000208155 0.00071524 -6.93224e-22)
(3.63198e-05 4.88084e-06 0)
(4.8682e-05 -4.71061e-05 1.80989e-21)
(0.000125452 -1.94944e-05 0)
(0.00228905 0.00292693 1.73301e-21)
(0.006548 -0.00112744 4.44991e-21)
(-0.00525172 0.00257682 0)
(-2.85909e-05 -0.002341 0)
(0.000261053 -3.30468e-05 -2.56869e-21)
(0.0161703 0.015888 1.99528e-21)
(0.000159167 0.000244544 0)
(0.0126334 0.00439091 1.49294e-22)
(0.000230559 3.49319e-06 -2.25836e-21)
(-0.00654028 -0.00287445 0)
(0.00151413 0.000121856 3.29998e-23)
(0.100633 0.0907922 0)
(0.000206551 2.05828e-06 8.35654e-22)
(0.00242915 -2.43644e-05 -3.41555e-21)
(5.3405e-05 -4.57781e-07 3.15902e-22)
(0.000660561 -0.000275776 9.66434e-22)
(0.106591 0.000328132 2.81211e-21)
(-0.00629855 0.0158565 -6.34085e-21)
(-0.0015882 0.00064775 0)
(-0.0766166 -0.0283276 2.65944e-21)
(0.00036507 -6.16387e-05 2.97233e-21)
(-0.000503008 -0.0168983 0)
(-0.00103895 -0.00490441 -2.47149e-21)
(0.0561722 -0.0291349 8.08175e-21)
(2.79708e-05 2.35159e-05 -2.7782e-21)
(-0.000318626 0.00282488 1.19963e-20)
(0.000132363 -8.22385e-07 7.67459e-22)
(0.000211874 -9.35147e-07 -2.76455e-22)
(-0.000211679 7.76572e-05 0)
(0.000249648 -7.88966e-05 -3.98644e-21)
(0.0186764 -0.045751 -5.62666e-21)
(0.0216534 -0.0683226 -8.45032e-21)
(-0.00524305 0.0150442 9.20016e-21)
(3.47003e-05 -0.000889129 0)
(0.00197066 0.00381914 -1.59087e-21)
(0.000239972 0.000239702 -6.30214e-22)
(0.000282522 0.000179054 -1.54654e-21)
(0.00336346 0.00231141 4.8684e-21)
(0.000177432 0.000193063 -2.48198e-21)
(0.0011958 0.000932803 0)
(0.0857796 -0.0410632 0)
(0.00073813 -0.00561958 0)
(0.000399198 0.000268176 0)
(-0.000280739 0.000172599 0)
(0.000219825 -1.44248e-05 -8.67848e-22)
(0.00213715 -0.0066502 -5.23022e-21)
(0.0126111 -0.0546019 0)
(0.000511041 0.000882057 -4.37857e-21)
(0.000195837 1.38474e-06 -5.45213e-21)
(0.000214774 -1.26475e-06 -3.06885e-21)
(8.42373e-05 -1.09999e-06 0)
(0.0736844 -0.0319826 -6.66408e-21)
(-0.0106472 0.029764 -8.42424e-22)
(0.0447326 -0.0252364 4.36999e-21)
(0.000567868 0.000171168 -3.62701e-21)
(0.1487 -0.0578365 4.49108e-21)
(0.000291062 0.000310856 3.70061e-21)
(0.000961721 0.00222414 5.22099e-21)
(0.0713272 -0.0641725 6.51266e-22)
(-0.0174541 -0.024485 1.33554e-20)
(0.0224927 -0.0214361 -1.03871e-20)
(-0.082972 -0.0236128 0)
(-0.00182646 0.00621892 2.70982e-21)
(0.00018662 0.000240343 3.25072e-21)
(0.000235888 -9.82027e-06 2.15838e-21)
(3.88467e-05 1.48387e-05 6.85871e-22)
(0.000213044 -1.9146e-06 0)
(0.0561728 0.0115219 -5.28639e-21)
(-0.00273673 -0.00480854 -1.32289e-21)
(0.169032 -0.0765465 -1.04013e-20)
(-0.145424 -0.000549753 0)
(-0.00545602 0.00477446 0)
(0.159215 -0.0367531 -5.18823e-21)
(3.34849e-05 1.34216e-05 0)
(6.88022e-05 -8.53837e-06 7.76403e-22)
(-0.00231583 -0.00496066 5.01649e-22)
(-0.00036897 0.000479794 0)
(0.000750588 -0.00609101 1.80027e-21)
(0.00512219 0.0200199 0)
(-0.000756858 -0.00564582 3.03115e-22)
(-0.0125304 0.0405408 9.71999e-22)
(0.000368107 0.000292422 0)
(0.00191892 0.00241267 1.56799e-21)
(5.20466e-05 1.1249e-07 3.12356e-22)
(5.14945e-05 -5.74059e-05 0)
(-0.11027 -0.0212703 7.91248e-21)
(0.000306485 -0.000681288 -1.26557e-21)
(0.00762855 0.00292138 -9.16359e-21)
(0.00107285 -0.000541718 0)
(0.000213418 -6.09748e-05 3.59729e-22)
(-0.0326561 0.00433179 2.35412e-20)
(0.000105133 -2.57618e-05 0)
(4.51169e-05 -5.64385e-05 0)
(0.0205185 0.0239465 -2.30998e-21)
(0.0208917 0.0403496 6.96857e-21)
(0.000116444 -0.000234846 -3.07367e-22)
(0.0419501 -0.0237746 -2.4823e-21)
(0.000211584 -7.38849e-05 0)
(0.00881774 -0.00875983 6.18282e-21)
(0.00897155 0.0684092 -2.91155e-20)
(8.3111e-05 -1.12543e-05 8.61479e-22)
(0.000239569 4.0731e-05 6.20853e-22)
(-0.244421 0.07147 2.02993e-20)
(-0.000354456 0.000268105 -5.65039e-21)
(0.00122154 0.0035084 0)
(3.15751e-05 -2.22156e-05 1.12356e-21)
(0.00090973 0.000274043 -3.89534e-21)
(0.00320838 -0.00136516 0)
(2.78847e-05 -2.43002e-05 1.0783e-21)
(-0.0321541 -0.0688611 6.50739e-20)
(0.000303878 3.29646e-05 0)
(-0.0106126 -0.0112677 0)
(-0.0410703 0.119176 0)
(0.0032524 0.00298868 4.99904e-21)
(0.000303497 -3.50527e-06 -5.05755e-21)
(0.00123243 0.001074 0)
(0.000112285 -0.000441146 0)
(-0.000908269 -0.000216813 0)
(0.0177583 0.0513545 0)
(-0.00668294 0.000932808 -2.50231e-21)
(0.000927501 -0.000448009 0)
(-0.000472843 0.00876158 -3.36169e-21)
(2.38815e-05 -2.03627e-06 -8.2436e-22)
(0.000239645 -1.13715e-05 9.53614e-21)
(0.000129524 -3.82012e-06 3.01883e-22)
(-0.0312112 -0.0470104 1.82751e-20)
(0.000568096 8.27393e-05 3.89283e-21)
(0.0100963 0.00673369 1.26233e-20)
(7.92069e-05 -6.32612e-07 9.63924e-22)
(-0.00258282 -0.0151095 -4.00274e-21)
(0.00396007 -0.0119586 7.80817e-21)
(0.000323533 0.000382197 -3.45186e-21)
(0.000200038 -5.63372e-07 0)
(0.000203517 1.82583e-06 0)
(0.04749 -0.0174254 0)
(-0.0214208 0.0255199 3.74705e-22)
(0.0751693 -0.0864219 2.97957e-22)
(0.000145198 -1.31053e-05 -9.15671e-24)
(-0.00522253 -0.0101753 -1.84969e-21)
(0.00019921 -6.6138e-06 0)
(0.000250482 -0.000106162 5.2269e-21)
(-0.0232248 0.0114066 0)
(3.26707e-05 2.19342e-05 1.45178e-21)
(0.00242538 -0.0233552 -8.59587e-21)
(0.0274647 -0.0510789 2.41899e-21)
(0.0445145 -0.0388314 0)
(0.000825876 0.00103849 -3.22085e-21)
(7.73009e-05 -6.83256e-06 2.90351e-24)
(-0.000788756 -0.0134068 0)
(0.00125557 0.00146153 1.12702e-21)
(0.000191786 -1.58414e-05 0)
(-0.000817121 0.0015163 3.56514e-21)
(0.000213479 1.52561e-06 3.09675e-21)
(0.016509 0.00810721 5.73789e-21)
(0.00085102 0.00115607 2.22901e-21)
(-7.73011e-05 -0.00357301 0)
(-0.0693793 0.0274025 3.06936e-21)
(-0.0355973 -0.0355905 0)
(0.000242394 -4.57372e-06 7.10975e-22)
(-0.0332935 -0.105065 0)
(-0.0772341 0.0301022 9.20352e-21)
(0.000213703 4.16841e-05 0)
(0.00485159 -0.0227115 5.53792e-21)
(0.000228313 -1.09946e-05 -7.19844e-21)
(0.00024394 4.71628e-05 3.46761e-22)
(-0.322025 0.375397 -2.10931e-20)
(0.00624924 -0.000776957 0)
(5.34526e-05 0.00211605 -3.9598e-21)
(0.00117456 0.00165135 0)
(-0.00100203 -0.000188915 9.27229e-22)
(-0.0947655 0.287347 -5.46946e-21)
(0.0152086 -0.0405834 8.0002e-21)
(0.00508819 -0.0102627 0)
(0.000583894 -0.000458903 -1.95202e-21)
(-0.00187919 -0.00407866 -3.14549e-21)
(0.000199313 -6.70168e-06 -6.40556e-24)
(-0.0306388 0.00541826 0)
(0.000292845 -6.53434e-06 2.49654e-21)
(7.23093e-05 -2.45589e-05 -3.15512e-23)
(0.0601376 0.0324001 4.69803e-21)
(0.000144021 3.92051e-05 3.16727e-21)
(0.000195948 0.000173979 4.84714e-21)
(0.00014183 -3.01388e-05 4.64024e-22)
(-0.0543099 -0.0574624 -7.24577e-21)
(0.00539958 -0.00304958 -2.68677e-21)
(0.000120403 0.000825169 -1.63139e-21)
(0.000253818 0.000374292 0)
(0.0106341 -0.0256041 0)
(5.79094e-05 2.69253e-07 -9.15466e-22)
(0.000172347 -5.34379e-05 0)
(-0.0530376 0.0895057 5.51887e-21)
(-0.00350537 -0.00575985 6.41853e-21)
(-0.100974 -0.0391563 0)
(0.00130849 0.00109496 0)
(0.000750781 4.36967e-05 -3.84303e-21)
(0.000138064 -3.20522e-05 0)
(-0.00124724 0.00194356 -1.84196e-21)
(0.000430324 -0.000315217 0)
(0.00329189 0.000789989 4.66497e-21)
(0.00061427 0.000441452 -3.64608e-23)
(0.000231046 4.21529e-05 0)
(6.69139e-05 1.71934e-06 0)
(-0.00336332 -0.015204 4.34887e-21)
(0.000134685 -6.09087e-07 -5.99464e-22)
(-0.0554743 0.0406825 0)
(0.000253472 -8.77779e-05 -5.31781e-21)
(-0.0096447 0.0198518 -4.58796e-23)
(-0.0223772 -0.00483657 3.10492e-21)
(0.00102319 0.00181105 0)
(-0.000443043 0.000321341 0)
(0.0510847 0.0576934 0)
(-0.0340895 -0.0531838 7.26353e-21)
(-0.0348366 0.220113 6.24335e-20)
(0.0158891 0.011435 -1.16984e-21)
(0.000292633 2.77056e-05 4.11189e-21)
(0.00184038 0.00218653 -1.25245e-20)
(0.000147294 -4.64782e-05 0)
(8.4774e-05 2.97418e-05 -1.8723e-21)
(0.000331305 0.000271966 9.82154e-22)
(0.000116811 -4.57034e-05 -2.03501e-21)
(-0.00801893 0.0346197 0)
(0.00383376 0.0232451 7.9718e-21)
(0.0128788 -0.131319 0)
(-0.00458911 -0.0445802 3.32193e-22)
(-0.0394851 -0.178102 -2.40786e-20)
(0.0439624 0.0106342 1.06037e-20)
(0.000324532 -0.00012515 0)
(-0.00494151 -0.0122929 -8.80989e-21)
(0.000218379 -6.1316e-06 -3.00747e-21)
(0.000775104 0.000466281 0)
(0.00165586 0.0110981 -7.99129e-21)
(-0.0361892 0.0282171 2.98482e-20)
(0.0779245 0.0823862 -7.65521e-20)
(0.0107562 0.00490863 -1.62241e-20)
(0.015304 0.0820573 1.01112e-21)
(0.000238302 0.000206537 -4.47091e-21)
(0.00024322 -5.98372e-05 3.03874e-21)
(-0.0197715 -0.0388631 0)
(-0.0297251 0.0023101 9.66263e-22)
(0.000337867 -9.81806e-05 0)
(0.116819 -0.133519 -1.16858e-20)
(-0.000921576 -0.00252653 -9.08079e-22)
(0.000168229 -0.000521061 -1.66608e-21)
(-0.00206744 -0.00400418 1.47678e-22)
(0.000239844 -7.06034e-05 5.46945e-21)
(5.6868e-05 -1.44344e-06 0)
(-0.00684263 -0.00289986 0)
(0.0989098 -0.171666 1.41229e-21)
(0.0008193 0.0595854 -4.64755e-21)
(-0.0573891 -0.0136727 0)
(-0.0178133 -0.0264245 2.53769e-22)
(-0.051759 0.00129773 6.25296e-22)
(0.00189182 -0.0154778 0)
(0.00397345 0.000835665 -2.26478e-21)
(0.000185566 -0.000107508 0)
(0.000132158 2.29736e-05 0)
(0.00442754 -0.0130471 1.53387e-21)
(-0.122202 0.0549951 -2.0978e-20)
(0.00029166 0.000194439 -7.73664e-22)
(-0.0316862 0.0315707 -9.61869e-21)
(-0.0054252 0.00570633 -8.25799e-21)
(-0.00350322 0.00039454 -4.60186e-21)
(0.000173179 0.000912255 -4.02422e-22)
(0.0445795 -0.0291434 -7.4589e-21)
(0.00906777 0.00614525 -8.62658e-22)
(0.0142855 -0.0259144 5.82627e-21)
(0.109534 -0.0254425 -2.83384e-21)
(-0.0108394 -0.0233945 0)
(0.00614496 -0.00369761 0)
(0.00943023 0.00551903 4.14954e-21)
(-0.00159849 0.0412519 6.62859e-21)
(0.000617556 -0.00061449 1.04924e-21)
(0.000481348 -0.00132794 0)
(0.00190386 -0.000323888 0)
(0.047734 0.0474985 4.13061e-21)
(-0.0060632 0.00162088 0)
(-0.0415516 0.00551453 -4.74595e-21)
(0.0510991 -0.242432 0)
(-0.0343437 0.226477 -8.92349e-20)
(2.43743e-05 5.49469e-06 1.0259e-23)
(-0.000702536 -0.000264594 2.70392e-23)
(6.31456e-05 -9.38069e-06 4.50613e-24)
(0.000221154 -4.42638e-05 2.07119e-21)
(0.00373511 -0.0143059 -9.66362e-21)
(-0.0173445 -0.00517802 0)
(-0.00573964 0.000426469 0)
(0.000531566 2.15008e-05 -2.38451e-21)
(0.000286417 4.02191e-05 -2.73206e-21)
(-0.00168808 0.0188378 1.19735e-21)
(0.00029158 -0.00024587 -2.30246e-21)
(0.000189624 -4.3694e-06 5.29324e-21)
(-0.0270545 0.165152 0)
(0.000302483 0.000335589 0)
(-0.0351799 -0.0382426 0)
(8.56335e-05 2.83732e-05 5.73588e-22)
(0.000188176 -1.26889e-05 -9.339e-22)
(-0.0197268 -0.0325547 -7.16229e-21)
(-0.00564481 0.00168626 0)
(0.000111943 -7.36452e-06 3.1726e-23)
(0.0127174 0.00858305 -1.48336e-21)
(0.0161364 -0.0436716 -5.1575e-21)
(0.0036239 0.00182479 4.22816e-21)
(0.00161096 -0.000573018 0)
(-0.00197889 -0.00363358 0)
(-0.00414234 0.00430238 0)
(-0.0568944 0.0757172 -1.38674e-20)
(0.000241013 -6.46717e-05 -4.54986e-21)
(0.000341816 4.99072e-05 1.53507e-21)
(0.00015748 -0.000160199 5.0435e-22)
(0.000176421 -0.000141155 -7.83409e-22)
(6.78e-05 -2.40662e-05 2.71989e-23)
(0.000109183 -1.15378e-05 -1.25049e-22)
(0.0492945 -0.0120536 -7.69824e-22)
(-0.0122945 0.082752 -2.65336e-20)
(-0.0793105 -0.158478 0)
(0.00467208 -0.0430701 -8.05956e-21)
(0.0506675 -0.022941 8.24475e-21)
(-0.0923254 -0.0310177 1.12228e-20)
(-0.00908172 -0.0130913 0)
(0.0521891 0.0487642 5.01425e-22)
(0.0309124 -0.0270258 0)
(-0.0296363 0.112295 0)
(0.00206639 0.000894005 -2.58493e-21)
(-0.000442784 0.000550245 0)
(0.000159587 -0.000158736 -2.07407e-22)
(-0.00611435 0.00607853 6.64668e-21)
(-0.0653079 -0.0842624 9.57006e-21)
(0.000464836 -0.000692874 -2.95675e-21)
(2.67398e-05 -2.87497e-06 -9.9217e-22)
(0.000282092 0.00017492 0)
(0.000108285 0.00252811 0)
(-0.0531255 0.0264681 -5.53546e-21)
(0.000225761 3.33681e-05 0)
(0.000259829 -2.94643e-05 -2.62527e-21)
(-0.00854002 -0.0129791 4.1118e-22)
(0.00016786 -2.74023e-05 0)
(-0.000315832 0.000695692 0)
(0.000292537 0.000214128 3.89209e-21)
(0.000187564 0.000231886 0)
(0.000233576 -3.58193e-05 3.93831e-25)
(-0.0117906 0.0490015 0)
(0.00143982 -0.000595406 -1.65704e-21)
(0.000214181 -4.08725e-05 -4.27324e-21)
(-0.0199517 0.00410759 0)
(0.00321989 -0.0193136 0)
(-0.00166811 -0.00276475 -1.53478e-22)
(-0.00158035 0.23003 -9.05227e-20)
(0.000335756 5.99419e-05 0)
(-0.0180018 -0.023607 -3.57591e-21)
(7.3167e-05 3.09241e-05 1.08886e-21)
(5.20827e-05 -2.43225e-06 0)
(0.00647497 0.158074 -5.94921e-21)
(0.000152446 0.000332163 5.48557e-23)
(0.0405304 -0.0236556 -9.92131e-22)
(-0.0160911 0.0193248 -1.61848e-21)
(4.20048e-05 2.35207e-07 0)
(0.000148324 -6.78473e-05 0)
(-0.00799008 -0.0013306 2.15131e-21)
(-0.00191646 -0.0031971 -9.84815e-22)
(0.00433042 0.00209445 2.21438e-21)
(0.000137668 1.21857e-06 3.10603e-22)
(0.000222698 -4.67273e-05 0)
(-0.0701363 0.0745951 6.47709e-21)
(0.000161741 0.000337989 0)
(-0.017936 0.01541 0)
(0.000200237 5.34675e-06 3.93484e-21)
(0.023135 -0.0106863 -7.99293e-21)
(0.00022117 -0.00116278 -1.87418e-21)
(3.41594e-05 -1.7666e-06 5.22262e-22)
(-0.00535774 -0.0017289 0)
(0.000286282 -0.000181065 1.91834e-22)
(-0.00146591 -0.00335959 0)
(9.59685e-05 -0.00012562 0)
(0.000392214 0.000338028 0)
(0.00290777 -0.00358288 -1.11847e-21)
(-0.00134476 -0.00014129 4.68941e-22)
(-0.0585901 -0.000872733 -1.88185e-20)
(-0.0452847 -0.106442 -1.46254e-21)
(0.000173654 0.000205168 0)
(-0.0017232 0.0612322 2.22197e-23)
(-0.00134838 0.0032135 1.51036e-21)
(-0.000898262 0.00510287 1.574e-21)
(0.00013869 -2.95231e-05 1.86305e-22)
(0.0290779 -0.0200129 0)
(-0.00643889 -0.00356273 0)
(0.000135192 1.45977e-05 0)
(0.0026572 -0.00515401 0)
(-0.00818313 0.0271134 0)
(0.000242101 -4.13329e-05 -3.33411e-21)
(0.000392495 0.0018654 3.88214e-22)
(0.000919168 0.000433119 0)