/*--------------------------------*- C++ -*----------------------------------*\
| =========                 |                                                 |
| \\      /  F ield         | OpenFOAM: The Open Source CFD Toolbox           |
|  \\    /   O peration     | Version:  v2012                                 |
|   \\  /    A nd           | Website:  www.openfoam.com                      |
|    \\/     M anipulation  |                                                 |
\*---------------------------------------------------------------------------*/
FoamFile
{
    version     2.0;
    format      ascii;
    class       volScalarField;
    location    "250";
    object      k;
}
// * * * * * * * * * * * * * * * * * * * * * * * * * * * * * * * * * * * * * //

dimensions      [0 2 -2 0 0 0 0];


internalField   nonuniform List<scalar> 
18166
(
0.00398423
0.00014596
0.000247901
0.000192468
0.000312259
0.000177373
0.000142156
0.000146782
0.000164391
0.00386556
0.000146003
0.000195976
0.000159523
0.000173208
0.0001588
0.000147799
0.0378375
0.000142254
0.00015344
0.0105964
0.000149989
0.000157219
0.000153793
0.000150635
0.00315381
0.0018001
0.000147028
0.00462979
0.000146572
0.000142311
0.0001297
0.00374896
0.000187459
0.00331247
0.000309964
0.000145065
0.000138124
0.000138221
0.000159453
0.000196136
0.0001643
0.000154991
0.000151509
0.000153089
0.000353376
0.00013891
0.000148437
0.0319822
0.000130106
0.0104178
0.00429014
0.0384462
0.00013005
0.0001478
0.000138797
0.000143899
0.00337063
0.000144338
0.000316159
0.000144002
0.000145086
0.000139388
0.000142212
0.00014474
0.000148443
0.000139563
0.00014073
0.000147588
0.0192972
0.000137774
0.00015906
0.000192927
0.00022198
0.000163391
0.000137715
0.000185565
0.0037611
0.00763203
0.000210742
0.000166629
0.000149754
0.000161424
0.000335608
0.000136176
0.00013861
0.000145095
0.000147117
0.000144647
0.000142149
0.00180222
0.00013612
0.000141233
0.000154926
0.00014217
0.000162758
0.000148148
0.000196775
0.000143497
0.0206527
0.0384573
0.000150398
0.000142743
0.000142272
0.00437953
0.000136857
0.00379977
0.000142543
0.000144205
0.000133211
0.000146009
0.0374885
0.000425835
0.0377121
0.0171883
0.00015133
0.00386109
0.0049347
0.000157516
0.000150361
0.00013426
0.000147347
0.000134205
0.000156719
0.000138914
0.000142522
0.000154185
0.000153756
0.000153286
0.000140171
0.000144521
0.000142047
0.000144917
4.02364e-05
0.000149488
0.000186692
0.00383167
0.000143997
0.000236327
0.000142158
0.00291667
0.000146775
0.000147296
0.000153888
0.00294478
0.000130719
0.000336851
0.00278664
0.000138153
0.000142616
0.0392799
0.000159252
0.000149772
0.00340838
0.0360191
0.000182643
0.000142575
0.000147318
0.000150809
0.00018245
0.000151157
0.000146694
0.000153693
0.0410114
0.000153611
0.000144948
0.000162495
0.000197827
0.000146333
0.0323731
0.000146864
0.000173817
0.00368447
0.000143526
0.0265086
0.000153909
0.0074588
0.000144041
0.00258149
0.000143861
0.000148197
0.000138917
0.000141513
0.00329055
0.000501662
0.000153376
0.000145422
0.000145292
0.000147957
0.000150518
0.000151845
0.000150557
0.000153372
0.000333308
0.000150479
0.000153864
0.000193202
0.000193017
0.00192846
0.000146828
0.000140792
0.000153205
0.0182838
0.0316387
0.000151722
0.00014398
0.000184758
0.000147521
0.000192409
0.000182978
0.000152792
0.00014328
0.00018472
0.000183485
0.000145661
0.000155689
0.000147116
0.0321216
0.000147542
0.000150803
0.000143895
0.000162588
0.00396274
0.000172966
0.0001461
0.000148795
0.00251167
0.000139323
0.000142908
0.000154724
0.000145201
0.000153817
0.000134174
0.0016056
0.000134208
0.0373043
0.00490426
0.00525816
0.000152601
0.00015282
0.000194308
0.000139538
0.000172513
0.000156037
0.00272768
0.000144495
0.000134259
0.00024407
0.000134306
0.000167532
0.000178227
0.0033341
0.000143861
0.000146344
0.000190975
0.000147531
0.000146536
0.00014709
0.000144442
0.000146278
0.00014798
0.000176177
0.000176244
0.0001478
0.000143772
0.000147902
0.000159663
0.000117276
0.000146036
0.00014177
0.000430917
0.000140771
0.000144023
0.000198691
0.00377169
0.000208732
0.000140547
0.00426465
0.00013855
0.000145708
0.000195642
0.000141999
0.000152774
0.000168017
0.000144045
0.000144608
0.000155809
0.000183999
0.000190008
0.00014034
0.000150063
0.000133638
0.00153956
0.000145096
0.00015147
0.000134175
0.000159724
0.000147986
0.00280928
0.000134237
0.000619283
0.000164401
0.000192997
0.0230232
0.000159767
0.000142663
0.00021735
0.000189231
0.000143467
0.000142377
0.000149795
0.000145178
0.000142556
0.000148314
0.000145567
0.00014189
0.000154157
0.00013661
0.000186232
0.000183523
0.000140727
0.0175007
0.000152951
0.0352799
0.000152914
0.000138736
0.000136663
0.000144975
0.000242512
0.000142403
0.000182385
0.00014222
0.000151087
0.000140761
0.000147436
0.000167525
0.000142646
0.000181517
0.000180264
0.000147827
0.000141915
0.000188696
0.000148485
0.000186476
0.000142448
0.0001533
0.000146036
0.000173324
0.000146391
0.000140107
0.000136911
0.000195616
0.000155436
0.000195191
0.000148084
0.0023529
0.000154068
0.000146717
0.000147168
0.00322056
0.000188125
0.000144913
0.00014426
0.000134126
0.000153659
0.00503229
0.000134184
0.000138635
0.00014368
0.00014322
0.000155647
0.000139064
0.000145045
0.000142963
0.000281385
0.000141831
0.000155436
0.000142566
0.00016907
0.000143674
0.000146576
0.000134197
0.000143473
0.000182783
0.00547846
0.00013432
0.000146238
0.000168629
0.000183632
0.000150032
0.000163467
0.000134166
0.0202743
0.000161481
0.000150318
0.00450354
0.000188656
0.000143977
0.000133845
0.00014283
0.000199653
0.000133812
0.000133532
0.000147443
0.00013544
0.000150505
0.00014168
0.000154963
0.000200536
0.00393121
0.000135379
0.000142276
0.00446207
0.000249128
0.000153084
0.000129976
0.00144108
0.000148285
0.000143547
0.00013872
0.000150803
0.000141279
0.000129996
0.00157383
0.00204065
0.000152521
0.000144686
0.00014639
0.000129846
0.000129759
0.000184067
0.000149964
0.000139031
0.000142599
0.000236829
0.000151474
0.000143674
0.000143454
0.000212
0.000376902
0.0002538
0.0368209
0.000254459
9.07312e-05
0.000148788
0.000143501
0.00017677
0.0186777
0.000147776
0.000168312
0.00015697
0.000180582
0.000145323
0.000143401
0.000137936
0.000147486
0.000154263
0.000162494
0.000141706
0.000143739
0.000145062
0.00014585
0.000135838
0.000141381
0.000153496
0.000158613
0.000172272
0.000151034
0.000142562
0.000198243
0.000146419
0.00020249
0.00014253
0.000154884
0.000144025
0.000241174
0.000145425
0.000153317
0.000152582
0.00014442
0.000873505
0.000161236
0.00014413
0.00445666
0.000143405
0.000184491
0.00016243
0.000215568
0.000134863
0.00015099
0.000154234
0.00014042
0.00014412
0.000142515
0.00019349
0.00249155
0.000161428
0.000145865
0.000155837
0.00014402
0.000143733
0.000153782
0.000143989
0.000149283
0.00032292
0.000155462
0.000145382
0.000144374
0.000140615
0.000157691
0.000828876
0.000147783
0.000153185
0.00014104
0.000159148
0.000222648
0.000185781
0.00026043
0.000146229
0.000289379
0.00014454
0.000150484
0.000383524
0.000113092
0.000194566
0.0371053
0.000154956
0.000143987
0.000142487
0.000137412
0.000143282
0.000198575
0.000158459
0.000394238
0.0168148
0.000195863
0.000281063
0.000140639
0.000153012
0.000159571
0.000147928
0.000162743
0.000181135
0.000177786
0.000185127
0.000145342
0.000155842
0.000156065
0.000134045
0.00407371
0.000143894
0.000158696
0.00014591
0.000140371
0.000180158
0.000130682
0.000133956
0.00018443
0.000187655
0.00014279
0.00267929
0.000144785
0.000165148
0.00020504
0.000144691
0.000141727
0.0394744
0.000147623
0.000152304
0.000133704
0.000147691
0.000153832
0.000133625
0.0038426
0.000142549
0.00366235
0.00459313
0.000155835
0.000143351
0.000149442
0.000143977
0.000145775
0.00363002
0.000155014
0.000145412
0.000932016
0.000150518
0.000142029
0.000139074
0.000202205
0.000146402
0.00569669
0.000145711
0.000201725
0.000165549
0.00014526
0.000159111
0.000160365
0.00241042
0.000185748
0.000410821
0.00013846
0.000160698
0.000149404
0.000143257
0.000170496
0.000134792
0.000323608
0.00229773
0.000205564
0.000147093
0.000143263
0.000319281
0.000149524
0.000150079
0.000145236
0.000140268
0.000170826
0.000146713
0.000159528
0.00457162
0.000201328
0.000139532
0.0245177
0.00561909
0.000140912
0.000315429
0.000142057
0.000141835
0.037043
0.000173876
0.000150688
0.000149823
0.000146043
0.0164305
0.000196172
0.000162159
0.000142945
0.000160411
0.000148619
0.00189204
0.000143209
0.000129835
0.000195918
0.000145245
0.000143564
0.000139218
0.00341356
0.000160845
0.000145371
0.000133698
0.000177993
0.000152519
0.000138853
0.00453214
0.000163217
0.0359865
0.000149834
0.000148265
0.000138404
0.000145452
0.000143554
0.000152806
0.000147607
0.000142654
0.000150411
0.000199637
0.000153035
0.00445195
0.000143228
0.000181985
8.52809e-05
0.000149648
0.000147909
0.000211532
0.00297307
0.00979079
0.000192452
0.000142453
0.000151616
0.000138653
0.000136609
0.000141616
0.000138973
0.000187535
0.000177092
0.000452442
0.00271455
0.00502271
0.00256862
0.000143367
0.000160049
0.00014039
0.000143
0.000168852
0.000193618
0.00365449
0.000167746
0.000219806
0.000143967
0.000142448
0.000184575
0.00193561
0.000143446
0.0240755
0.000148183
0.000143733
0.000155377
0.000142383
0.0001546
0.000154906
0.0263632
0.000194221
0.000194667
0.00028847
0.00397094
0.000167169
0.00015321
0.000144948
0.000147836
0.000165588
0.00339589
0.000143891
0.000192475
0.00015693
0.00016359
0.00014274
0.00020322
0.000164634
0.000176774
0.00273822
0.000196117
0.000176423
0.000164554
0.000179799
0.000142866
0.000146338
0.000150187
0.000210086
0.000154366
0.00342896
0.0272143
0.0106708
0.000146593
0.000145403
0.000147895
0.000142077
0.000167019
0.000184436
0.00015384
0.000146166
0.000143661
0.000163417
0.000143053
0.000149583
0.00416616
0.000145023
0.00394388
0.000136567
0.000153146
0.00018847
0.000191111
0.000154916
0.000167029
0.00020089
0.000154083
0.00014688
0.000156314
0.000155121
0.000634416
0.000142552
0.000143829
0.000140482
0.000140327
0.000129821
0.000152325
0.000197627
0.00476615
0.00326041
0.000192959
0.000200552
0.0368668
0.000176622
0.000201633
0.000192429
0.00484527
0.000150688
0.00014818
0.000140549
0.000157797
0.0036905
0.000145899
0.000151414
0.000143645
0.000151178
0.00014063
0.00014178
0.000142519
0.00017772
0.000140225
0.00014822
0.000143927
0.000144115
0.000139326
0.000186935
0.000146368
0.00014204
0.000185813
0.000343408
0.000153667
0.0231956
0.000144585
0.00180646
0.000137106
0.000152347
0.00482487
0.000133934
0.00220137
0.000185207
0.000160581
0.000139603
0.000155659
0.000150761
0.00015446
0.000152902
0.000139112
0.0015754
0.000146589
0.000168636
0.000146378
0.000186277
0.000145538
0.000155052
0.000154212
0.000142799
0.000152861
0.000138645
0.000145174
0.000154342
0.00014443
0.000190333
0.00514777
0.000144177
0.000195931
0.000229758
0.000151611
0.000137982
0.000235247
0.000155914
0.000138749
0.000154794
0.000197668
0.000142172
0.00015776
0.000147827
0.000201852
0.000145687
0.00572857
0.00484397
0.0001422
0.000151312
0.000148783
0.000151815
0.00437632
0.00014568
0.00471327
0.000138533
0.000144012
0.000199072
0.0363827
0.00438383
0.00013911
0.000173699
0.000143824
0.00450405
0.000154678
0.00163218
0.000213146
0.0154483
0.000137132
0.000145519
0.00014563
0.0236581
0.000145585
0.0388553
0.000139164
0.00461505
0.000225119
0.000155599
0.000153941
0.00372494
0.000166835
0.000190513
0.000149439
0.000158941
0.000188095
0.000151795
0.000156194
0.00217661
0.00453616
0.000147584
0.000147571
0.000146008
0.000152201
0.00014748
0.000147822
0.000457004
0.00014036
0.000255632
0.037771
0.000164829
0.0001884
0.000143974
0.000142316
0.0104989
0.0148558
0.00532833
0.000172989
0.000906102
0.000140442
0.000158615
0.00484063
0.0315752
0.00381482
0.000149547
0.000153594
0.000189035
0.0001411
0.000144029
0.000141562
0.000138052
0.000152804
0.000145881
0.000172455
0.000138227
0.0069943
0.000148042
0.00402964
0.0108767
0.0071905
0.000209661
0.00423418
0.000961845
0.0375683
0.000156497
0.00016679
0.000146546
0.000152933
0.000149026
0.000210285
0.000158113
0.000202949
0.000156745
0.0044031
0.000211049
0.000135491
0.000183338
0.000137858
0.00015327
0.00430299
0.000143926
0.000160208
0.000207645
0.00434082
0.00817213
0.00442216
0.000135884
0.00474326
0.000153773
0.000138166
0.000160698
0.000151149
0.00444172
0.000155991
0.000142219
0.000174083
0.000147305
0.000153159
0.000140053
0.000147728
0.000149936
0.00574115
0.000155382
0.000158408
0.00449321
0.000145917
0.00420164
0.00183806
0.000167116
0.000145678
0.00015701
0.00483653
0.00268536
0.0194884
0.000149165
0.000138611
0.0001941
9.2187e-05
0.000142995
0.000220213
0.00017272
0.000173452
0.000150118
0.00395446
0.00540626
0.000131715
0.000138654
0.000138324
0.000144718
0.000139271
0.000238812
0.000133543
0.00406454
0.00237775
0.000142359
0.0151015
0.000140643
0.000157814
0.000143214
0.000158368
4.9262e-05
0.000152748
0.000190198
0.000149322
0.000147372
0.000158433
0.00459569
5.33421e-05
0.000140611
0.000191575
0.000135934
0.00017298
0.0362932
0.00682995
0.000151588
0.000151341
0.000153212
0.000149323
0.00015227
0.000188453
7.83116e-06
0.000261914
0.000279518
0.000160344
0.000171254
0.000173543
0.000171676
0.000142136
0.00440767
0.000158817
0.0372266
0.000142526
0.00274903
0.000147395
0.000136498
0.000146116
0.00013085
0.000141617
0.000196175
0.000145731
0.00509218
0.00512692
0.0235009
0.000143493
0.000147753
0.000154275
0.000194685
0.0311401
0.000149833
0.00020989
0.000146179
0.000160437
0.000158954
0.00014785
0.000150272
0.000143707
0.000149585
0.000170341
0.00407989
0.00481736
0.000147311
0.00465221
0.000190193
0.00327258
0.000180733
0.000151085
0.00014626
0.0013485
0.000144148
0.000136569
0.000218371
0.000145399
0.038143
0.000152547
0.0400889
0.000156137
0.000140327
0.000143193
0.00015337
0.000186431
0.000141764
0.00560184
0.000138485
0.000139444
0.000143274
0.000154216
0.000144284
0.00017119
0.000154831
0.0293023
0.000145932
0.000142831
0.000146068
0.00444428
0.00014897
0.000143245
0.000159354
0.000145803
0.000139264
0.000165177
0.000144123
0.000134354
0.000134321
0.00015172
0.0263088
0.00518078
0.000146066
0.000145211
0.000157384
0.000160352
0.000161057
0.000149174
0.000168376
0.000174135
0.0384645
0.000159983
0.000140916
0.000171195
0.000150191
0.000345379
0.000160254
0.000149816
0.000207087
0.000830663
0.000164979
0.00013997
0.000138374
0.000188179
0.000181599
0.000139343
0.000152752
0.000146437
0.000150862
0.000144618
0.000247597
0.000140201
0.00501521
0.000190413
0.000144539
0.000199148
0.000184766
0.00275036
0.00018047
0.000204486
0.00015217
0.000137084
0.030543
0.000144054
0.000152371
0.000178732
0.000143728
0.000151693
0.0032931
0.000193132
0.00424172
0.000136227
0.000141803
0.000217953
0.00783405
0.000152195
0.000150624
0.0262015
0.000133817
0.000144006
0.000133511
0.000182089
0.000183638
0.000142949
0.000150742
0.000147531
0.000149906
0.000166427
0.000154986
0.000143287
0.000226274
0.0387728
0.0286698
0.000153671
0.000133869
0.000180306
0.00307084
0.00300643
0.000133558
0.000155606
0.000186612
0.000160058
0.000146015
0.000202084
0.000142389
0.000165753
0.000145369
0.000151936
0.00865002
6.47004e-05
0.000135259
0.000152116
0.000150462
0.00297536
0.000144259
0.00373691
0.000139547
0.000154197
0.000144028
0.000158311
0.000145199
0.000148362
0.000140034
0.00419997
0.0410365
0.000159414
0.000150383
0.000141951
0.00042889
0.000151416
0.00777567
0.000139868
0.000141288
0.0164639
0.000139052
0.000154914
0.000189868
0.000198397
0.00261823
0.000147081
0.00014931
0.000134123
0.000143446
0.000180852
0.000145248
0.000153649
0.000137882
0.000157835
0.000189982
0.000184924
0.000134179
0.000137834
0.000145835
0.000145232
0.00589938
0.000148702
0.00278955
0.000155347
0.000141645
0.000156178
0.00013771
0.000195916
0.000147507
0.000295454
0.000143288
0.00328483
0.0170962
0.000138882
0.000138612
0.000133898
0.000146108
0.000147584
0.000140866
0.000161119
0.000190925
0.000156629
0.00387583
0.000136661
0.000138997
0.00013909
0.00551516
0.000150261
0.000145096
0.000150525
0.000141579
0.000133952
0.000139533
0.00015488
0.000140368
0.000143056
0.000144637
0.000186065
0.00013844
0.000136601
0.000234752
0.000134464
0.00029695
0.000135049
0.000318003
0.000197528
0.000135417
0.00015971
0.000156758
0.000158743
0.000144795
0.000170343
0.000213959
0.000134535
0.000136237
0.000143213
0.000161493
0.000139229
0.00014629
0.000144142
0.000384778
0.0402062
0.000154707
0.000151217
0.0001388
0.000152003
0.000152986
0.000139462
0.000155264
0.000148375
0.000144785
0.000133485
0.000206388
0.000136202
0.000144338
0.000142322
0.00014445
0.000144167
0.000185553
0.000134001
0.000158558
0.00549271
0.000201478
0.000146388
0.0051195
0.000131548
0.000148086
0.0415449
0.00126387
0.000151739
0.000155206
0.00014151
0.00508256
0.000294917
0.000142956
0.000154365
0.00014223
0.000177874
0.000326385
0.0208449
0.000140671
0.000139071
0.000137799
0.000182278
0.000134306
0.000139536
0.000141967
0.000179983
0.000154864
0.00013406
0.00014499
0.000152771
0.000145885
0.0147029
0.000170388
0.000147482
0.00331046
0.00483133
0.000137884
0.000166472
0.000170929
0.000176904
0.000139474
0.0104417
0.000173336
0.000134674
0.000357825
0.000207572
0.000152625
0.000142741
0.000143025
0.000147183
0.000143475
0.00430992
0.00547355
0.000134355
0.000135222
0.000145009
0.000169121
0.00996695
0.000141108
0.000134719
0.00014301
0.000145155
0.000135048
0.000149829
0.000135316
0.00484813
0.000135394
0.0404091
0.000314468
0.000150379
0.000142977
0.000141155
0.000151426
0.000149756
0.000140016
0.00466056
2.92789e-05
0.00942895
0.000143531
0.000136396
0.000152873
0.000339356
0.000144406
0.000170892
0.000154751
0.000236502
0.000149029
0.000138341
0.000159779
0.00518116
0.000202069
0.000155374
0.000145498
0.000137039
0.00488839
0.000148733
0.000102492
0.00897791
0.000143006
0.000135077
0.000137035
0.000134967
0.000142212
0.00014307
0.000160108
0.00014461
0.00512211
0.000147364
0.000144001
0.000139824
0.000172723
0.000148848
0.000135593
0.000144091
0.000134994
0.000136534
0.000141747
0.000136851
0.000136191
0.00468044
0.00457192
0.000136427
0.000141041
0.000144923
0.000154672
0.000149719
0.000146774
0.0203481
0.00271906
0.00431537
0.000154628
0.000153474
0.000142526
0.000135592
0.000135461
0.000147967
0.000220458
0.000150352
0.00258692
0.000140653
0.000144413
0.00163508
0.000160632
0.000143584
0.00459878
0.0054276
0.00017836
0.000136896
0.000149613
0.000140999
0.00353358
0.000201814
0.000147883
0.000201246
0.000169275
0.0018643
0.000185698
0.000190309
0.000144846
0.00021798
0.000197328
0.00168903
0.000147014
0.000155103
0.000234639
0.0389046
0.000136621
0.000198301
0.000171954
0.000136977
0.000141869
0.000143271
0.000135379
0.000146738
0.000144978
0.000137892
0.000141071
0.000144521
0.00715735
0.0266732
0.000139057
0.000154889
0.000141558
0.000191595
0.00274261
0.000148602
0.000322149
0.000153241
0.0244312
0.000191703
0.00294706
0.00014874
0.000216892
0.00014818
0.000143741
0.000201851
0.000142842
0.000141393
0.0043002
0.000187504
0.000144175
0.000139193
0.000146032
0.000144581
0.0322532
0.000299973
0.000150097
0.000159713
0.000280994
0.000392735
0.000151684
0.000156799
0.000144921
0.00014447
0.000139588
0.00381908
0.00867703
0.00744059
0.000151992
0.000139946
0.000222025
0.000146333
0.000212167
0.000143192
0.000114356
0.000140818
0.00015198
0.000188683
0.000150227
0.000202679
0.000143473
0.000145737
0.000154269
0.00020759
0.000159259
0.000170351
0.000153949
0.00014919
0.000143266
0.000158534
0.000137934
0.000151186
0.000145069
0.000187452
0.00014687
0.000148845
0.000153019
0.000194797
0.000153906
0.00020746
0.000179071
0.000156714
0.00929258
0.000147701
0.000147474
0.000150949
0.000140273
0.000151785
0.000154762
0.0323511
0.00565887
0.000171516
0.000141856
0.000151892
0.000232461
0.0363181
0.0326109
0.00015091
0.000137223
0.000160851
0.000150651
0.000188912
0.000150129
0.000146797
0.000152285
0.000173179
0.000961529
0.000138273
0.000167631
0.000149677
0.000146634
0.0392836
0.00575947
0.000158781
0.000234868
0.000337434
0.00047749
0.00072519
0.000185674
0.000143756
0.000144807
0.00172885
0.000182207
0.000189519
0.0044801
0.000153011
0.00018057
0.000142309
0.000142273
0.000142673
0.000146907
0.000249384
0.0001438
0.000143506
0.000293474
0.000143095
0.00667822
0.000143989
0.000135022
0.0364683
0.000129953
0.000148718
0.0269234
0.000143664
0.00014377
0.000136382
0.000134952
0.00556959
0.000142823
0.000142523
0.000203246
0.000135673
0.000156721
0.000149905
0.000148725
0.000183065
0.00014962
0.000203326
0.000193372
0.000145005
0.000130545
0.000140531
0.000153447
0.000766518
0.000146495
0.00425491
0.000136337
0.000335756
0.0001363
0.000160034
0.000244468
0.000140779
0.00482763
0.000147154
0.000258627
0.000144444
0.000144165
0.000143593
0.000143544
0.00015037
0.000133586
0.00020513
0.000167418
0.000384076
0.00014642
0.000151333
0.00167211
0.0026548
0.0315436
0.00380567
0.00412877
0.000159301
0.000649541
0.000142434
0.000139738
0.00013014
0.000139724
0.000300442
0.000229364
0.000144106
0.000155623
0.000135331
0.000139643
0.000153646
0.000231393
0.000142888
0.0332804
0.000146168
0.000141318
0.00120501
0.000153685
0.000138177
0.000136315
0.000155176
0.000150897
0.0170957
0.000150347
0.000142315
0.000144377
0.000180888
0.003898
0.000204687
0.0315509
0.000134884
0.000155662
0.00013542
0.000219493
0.000143785
0.000134845
0.000142478
0.00163273
0.00332652
0.000143126
0.000159417
0.000179094
0.000129884
0.000170946
0.000192205
0.000154558
0.000144784
0.000247686
0.000226772
0.000153951
0.000146074
0.0100988
0.000144777
0.00585959
0.000138079
0.000143132
0.000146263
0.000148798
0.000158015
0.000153644
0.000143239
0.000145241
0.000141254
0.000218994
0.0199629
0.000144856
0.000142219
0.000145571
0.000199667
0.000154525
0.000147229
0.0238019
0.000648534
0.000132974
0.00015402
0.00014167
0.000211059
0.000155123
0.00424276
0.000169171
4.79725e-05
0.0258276
0.000152278
0.000144062
0.00188959
0.02749
0.000146384
0.000155797
0.000146442
0.00014228
0.000146216
0.000207955
0.000164679
0.000160713
0.000145505
0.0049006
0.000142631
0.00476005
0.000141516
0.000143375
0.000141905
0.000192313
0.000146266
0.00259143
0.000142427
0.000139357
0.000153331
0.00014011
0.000148561
0.00014066
0.000139484
0.000193268
0.000159718
0.000135975
0.000145754
0.000142935
0.00017912
0.000139526
0.000144107
0.000155262
0.000146506
0.000170024
0.000143899
0.000124345
0.0109369
0.000149511
0.000146468
0.000295248
0.00367997
0.000149306
0.000135306
0.000145758
0.000159647
0.000202559
0.000140488
0.000431252
0.000207204
0.000150018
0.000148044
0.000146595
0.00152431
0.000144433
0.0342954
0.000159558
0.000154186
0.000201904
0.000195088
0.000151163
0.000143459
0.000217593
0.0347685
0.000232085
0.000156314
0.000145725
0.000192532
0.000148736
0.000156269
0.000147351
0.000149112
0.000150867
0.00014377
0.000362369
0.000243802
0.000148798
0.000146079
0.000234723
0.000156765
0.000138188
0.000191582
0.000179579
0.000176111
0.000151691
0.00361436
0.00329678
0.00607977
0.000147509
0.00424058
0.000143111
0.000133426
0.00423295
0.000161954
0.00716318
0.000144119
0.00014913
0.000178524
0.000147343
0.000143274
0.000148136
0.000192061
0.000229357
0.0321734
0.00390127
0.000162848
0.000155628
0.000140256
0.000139406
0.000148972
0.000141516
0.000149083
0.0319295
0.000196631
0.000138784
0.000142887
0.000198149
0.0139361
0.000238552
0.000140952
0.000134357
0.000185799
0.000141019
0.000143388
0.011839
0.000136928
0.000152138
0.000149647
0.00032181
0.00014962
0.000199232
0.00019625
0.000151673
0.000148055
0.000149599
0.000146687
0.000144154
0.000221262
0.0327896
0.000146579
0.000157883
0.000142802
0.00523832
0.000185943
0.000260913
0.0408485
0.000158216
0.000180077
0.000478676
0.000146278
0.000139528
0.000144216
0.000150237
0.000162015
0.000150495
0.000139705
0.00448319
0.000141853
0.000138953
0.000139291
0.000142021
0.00756358
0.00281838
0.000156503
0.00259444
0.000139602
0.00013591
0.000212995
0.00372645
0.000185716
0.000145811
0.000153868
0.00014157
0.000146673
0.00381039
0.000147594
0.000152932
3.92615e-05
0.00493063
0.000135817
0.000135861
0.000152722
0.000132501
0.00350173
0.000311842
0.00013943
0.000158905
0.0351908
0.000143435
0.00428793
0.00014826
0.000136205
0.000144586
0.00015787
0.000147834
0.000139033
0.000143794
0.000165231
0.00846709
0.000135153
0.000136572
0.00288555
0.000147593
0.000144263
0.000179789
0.000154372
0.00014745
0.00013932
0.000190088
0.000142892
0.000157998
0.00015912
0.000177149
0.00020562
0.000142627
0.000147858
0.000143397
0.00017105
0.000136234
0.000152497
0.000323926
0.000147728
0.000154495
0.00019038
0.000140973
0.000190132
0.000134284
0.000153499
0.000659311
0.00597622
0.000142101
0.000230368
0.000141053
0.000140586
0.000219565
0.000136148
0.000149748
0.000142459
0.000144063
0.000148617
0.000140017
0.000149404
0.000147864
0.000177465
0.00503668
6.76122e-05
0.0170464
0.000144412
0.00369887
0.000141209
0.000136239
0.000136224
0.000142953
0.000135976
0.000152999
0.000366103
0.000144491
0.000161796
0.000138828
0.000133196
0.000316466
0.00744699
0.000142734
0.000146247
0.000197533
0.000149606
0.000135426
2.57878e-05
0.000159966
0.000139577
0.000149813
0.00013683
0.039837
0.000142641
0.000145501
0.0335186
0.000255609
0.000144081
0.0304064
0.000143783
0.000136936
0.000139008
0.000139628
0.00680064
0.000155429
0.000155819
0.0146726
0.000146997
0.00014698
0.000135178
0.000151892
0.00491655
0.000189165
0.000153433
0.000147313
0.000201072
0.000144375
0.000145449
0.000163363
0.000135136
0.000153847
0.000137104
0.000148343
0.000138775
0.000175422
0.00120366
0.0367731
0.000216088
0.000164435
0.000177021
0.000144434
0.000172827
0.000143077
0.000143342
0.000177815
0.00014877
0.000147273
0.000158281
0.000139536
0.000161094
0.000386704
0.00015572
0.000143638
0.000144663
0.000144294
0.00013851
0.000145871
0.000167857
0.000200434
0.00481248
0.000139307
0.00407051
0.000143217
0.000139572
0.000159026
0.000162523
0.000143332
0.000139489
0.000140502
0.00686388
0.00165312
0.00951502
0.0235459
0.00320323
0.000169494
0.0075768
0.000142114
0.000149879
0.00015856
0.000141424
0.000134622
0.00018115
0.000144125
0.00856392
0.000142703
0.000143434
0.000146121
0.000141421
0.000230073
0.000142703
0.00134504
0.000142831
0.000168829
0.0339742
0.000151839
0.00593061
0.000147336
0.000147996
0.000166348
0.000140587
0.000139572
0.000184981
0.000165463
0.000142929
0.000138728
0.000143053
7.06857e-05
0.00043276
0.000148326
0.000140248
0.000147191
0.000137411
0.000136279
0.000273091
0.000138756
0.000263175
0.0368972
0.000145844
0.000135954
0.000334223
0.000145348
0.00022328
0.000207356
0.000139934
0.000150525
0.000191686
0.000177507
0.00018941
0.000110603
0.000158004
0.000161087
0.000173483
0.000147294
0.000153666
0.000161277
0.000137252
0.000144372
0.000159944
0.000145607
0.00301875
0.000144601
0.000216209
0.000182379
0.000183373
0.000145614
0.000165264
0.000159332
0.000225077
0.00014174
0.000140175
0.00594204
0.00575653
0.000148347
0.000193528
0.00398217
0.000143555
0.000148533
0.000157729
0.000140673
0.000191904
0.000143498
0.000179426
0.000136227
0.000195772
0.000117636
0.000218063
0.000194794
0.000143383
0.000135052
0.0378473
0.00447142
0.000197766
0.000143462
0.000141092
0.000249608
0.000136622
0.000149906
0.000191431
0.000141566
0.000393996
0.000156178
0.000150793
0.000145881
0.000168932
0.000163658
0.000182027
0.000157544
0.000150264
0.000141665
0.000145445
0.000465583
0.000145961
0.00014362
0.000139105
0.0054016
0.0036208
0.000182508
0.000200066
0.000135973
0.000210359
0.000141694
0.000139303
0.000135672
0.000153014
0.000136223
0.0174009
0.000153993
0.000148044
0.0238544
0.000207967
0.000159649
0.000143467
0.000142767
0.000133684
0.000144137
0.000132458
0.000737075
0.000148074
0.000146584
0.000173594
0.00184003
0.000195764
0.00017062
0.000202538
0.000141575
0.000137752
0.00561795
0.000144463
0.000136107
0.0106785
0.000140063
0.000143747
0.000134211
0.000143267
0.000141655
0.000139164
0.000190764
0.00387692
0.0072185
0.000181301
0.0357398
0.00016193
0.000140033
0.00192618
0.000143546
0.000256558
0.000146304
0.00308475
0.00013756
0.00028927
0.00036321
0.00015066
0.000134755
0.000145454
0.000160075
0.000142859
0.0128999
0.000135802
0.000153919
0.000153242
0.000194303
0.000142652
4.26488e-05
0.00014078
0.00013865
0.000140041
0.00016172
0.000134011
0.0032744
0.000139987
0.00438235
0.000233865
0.000154347
0.00014327
0.000155548
0.000139378
0.000149926
0.000139034
0.00015022
0.0145938
0.000139148
0.0164364
0.000142347
0.000164749
0.000170712
0.000140411
0.034417
0.000143795
0.000149632
0.000156451
0.0120933
0.000156719
0.000142614
0.000135899
0.000181112
0.000228524
0.000159976
0.00016119
0.000154864
0.000148894
0.000142343
0.000141756
0.00015238
0.000160272
0.000145255
0.000153972
0.000138388
0.00269244
0.0422625
0.000147382
0.000145082
7.09451e-05
0.00034734
0.000146528
0.000152135
0.000150908
0.000147809
0.000138171
0.000157146
0.000139993
0.000143218
0.00435333
0.000137945
0.000141257
0.000153388
0.000139812
0.00026617
0.00021411
0.0001555
0.000144999
0.0280824
0.00020605
0.000196538
0.000150978
0.0061443
0.000175412
0.040082
0.000137346
0.000158078
0.000182293
0.000143514
0.000155325
0.000163051
0.000143028
0.000143401
0.000168254
0.000146505
0.000159552
0.000462849
0.000146316
0.000143722
0.000210768
0.000146729
0.000199219
0.000139037
0.00297866
0.000149223
0.000147054
0.000134974
0.00402781
0.000990265
0.000136423
0.000197329
0.000177989
0.00776718
0.040479
0.000142642
0.00017902
0.0265101
0.00354717
0.000142684
0.000204484
0.000169765
0.0217496
0.000149321
0.00015109
0.000195371
0.000198659
0.000150633
0.00473306
0.000151906
0.000131279
0.000140791
0.000145195
0.000145859
0.000198536
0.000144115
0.000219621
0.0345491
0.000193758
0.000135401
0.000143168
0.000145451
0.000166414
0.000137814
0.000143978
0.000456622
0.0370162
0.000963608
0.000145944
0.000142774
0.00014036
0.0053146
0.000147292
0.000153574
0.000137664
0.000131872
0.000168407
0.0373771
0.000155934
0.000138976
0.00020754
0.0228686
0.000148832
0.000139122
0.000202984
0.000200124
0.000146086
0.00110559
0.00015578
0.0371578
0.0349499
0.0278411
0.000150561
0.0293524
0.00905437
0.000152318
0.00371038
0.000166112
0.000149347
0.00361511
0.00351143
0.0128093
0.0215434
0.0111109
0.00014031
0.000193934
0.00193384
0.000200733