/*--------------------------------*- C++ -*----------------------------------*\
| =========                 |                                                 |
| \\      /  F ield         | OpenFOAM: The Open Source CFD Toolbox           |
|  \\    /   O peration     | Version:  v2012                                 |
|   \\  /    A nd           | Website:  www.openfoam.com                      |
|    \\/     M anipulation  |                                                 |
\*---------------------------------------------------------------------------*/
FoamFile
{
    version     2.0;
    format      ascii;
    class       volVectorField;
    location    "250";
    object      U;
}
// * * * * * * * * * * * * * * * * * * * * * * * * * * * * * * * * * * * * * //

dimensions      [0 1 -1 0 0 0 0];


internalField   nonuniform List<vector> 
18166
(
(0.886435 0.0115612 -2.34693e-22)
(1.01815 -0.00612825 1.54955e-21)
(0.983616 -0.213675 8.74328e-22)
(1.08128 -0.101924 -1.15713e-21)
(0.934018 -0.169032 0)
(1.08622 -0.0467767 9.10517e-21)
(1.01392 -0.0023151 -4.82554e-22)
(1.01333 -0.0041528 3.23976e-21)
(1.00248 -0.0298197 0)
(0.891576 0.0181795 2.34962e-22)
(1.01836 -0.00606097 0)
(0.996661 -0.107674 0)
(1.05288 -0.0269157 9.26982e-23)
(0.992556 -0.0440367 2.27583e-21)
(1.03399 -0.0312006 1.19253e-21)
(1.01749 -0.00669015 0)
(0.349278 0.073938 0)
(1.01642 0.00101113 2.71066e-22)
(1.04455 -0.0126944 4.14701e-21)
(1.11921 0.0967484 -7.77488e-22)
(1.03531 -0.00782809 1.69969e-21)
(1.0037 3.82562e-05 0)
(1.04452 -0.0143305 9.80067e-22)
(1.02161 -0.0135181 0)
(1.07664 -0.0212787 5.32492e-23)
(1.00482 -0.06458 3.51806e-22)
(1.01337 -0.00425414 -2.01629e-21)
(0.90923 0.0944072 2.05008e-22)
(1.02239 -0.00621422 0)
(1.01474 -0.00223217 -1.91896e-21)
(1.01588 0.000452439 0)
(1.07039 -0.00938064 2.17959e-22)
(0.984783 -0.0146056 2.98477e-21)
(1.07988 -0.00749791 0)
(1.00034 -0.204063 2.39502e-21)
(1.02216 -0.00121524 -6.9551e-22)
(1.01209 -4.14328e-05 -8.34732e-24)
(1.01253 7.87254e-05 4.46744e-22)
(1.00585 -0.0105568 2.13264e-21)
(0.991613 -0.111708 0)
(1.0015 -0.0293273 2.01033e-21)
(1.04857 -0.0148307 0)
(1.00913 -9.62915e-06 1.04615e-21)
(1.04405 -0.0116892 1.88616e-21)
(0.962185 -0.203824 0)
(1.01302 4.94965e-05 7.71197e-22)
(1.01287 -0.000217934 -2.93992e-22)
(1.14215 0.0872369 -6.90557e-21)
(1.01619 0.000617397 -4.77147e-23)
(1.11276 0.06327 -6.88297e-22)
(1.04579 0.15512 3.55668e-22)
(0.353907 0.0838692 -6.43642e-21)
(1.01621 0.000634352 6.78064e-23)
(1.01619 -0.00595645 -1.8418e-21)
(1.01295 4.19688e-05 -2.48525e-21)
(1.01859 -0.0018901 -2.79939e-21)
(0.959492 0.245538 0)
(1.01407 -0.000130526 0)
(0.991647 -0.191185 9.86074e-22)
(1.01889 -0.00183765 1.48242e-21)
(1.01582 -0.000815974 -1.19495e-21)
(1.01179 -0.000328385 -2.78186e-21)
(1.01078 -8.90139e-06 1.9116e-21)
(1.02112 -0.000129079 7.01539e-22)
(1.0118 -0.000300452 1.41838e-21)
(1.01181 -0.000396993 0)
(1.01264 -0.00108933 0)
(1.01748 -0.00642664 -9.65556e-22)
(1.11592 -0.0482701 1.22733e-20)
(1.01418 0.00057142 1.7345e-21)
(1.05178 -0.0254123 0)
(1.07947 -0.107053 1.12005e-20)
(1.09925 -0.00507025 0)
(1.0057 -0.0308232 0)
(1.0142 0.000584884 -1.16675e-21)
(0.987633 0.00213224 -3.90178e-21)
(0.995799 -0.443515 0)
(0.826687 0.243841 -1.45008e-21)
(1.16335 -0.054462 8.24343e-21)
(1.00192 0.00662809 0)
(1.03478 -0.00710611 6.97178e-22)
(1.01681 -0.00826529 0)
(0.938604 -0.181788 3.31952e-22)
(1.01264 0.000158556 0)
(1.01151 -0.000152347 1.57493e-21)
(1.0161 -0.00114033 -3.35636e-24)
(1.01976 -0.0015189 -7.19885e-24)
(1.02077 -0.000190421 -4.32896e-22)
(1.01446 -0.00180492 3.14327e-21)
(0.995364 -0.428818 0)
(1.01266 0.000167023 8.32765e-22)
(1.01505 0.000701172 0)
(1.04906 -0.0144515 0)
(1.01452 -0.00182763 -3.07117e-21)
(1.00657 -0.0290081 0)
(1.02731 -0.00704601 0)
(1.12798 -0.088102 0)
(1.01428 -0.000126172 0)
(0.781919 0.176955 0)
(0.705126 0.0965025 -1.98953e-20)
(1.01841 0.00285465 -3.27865e-22)
(1.01688 0.000680519 1.27465e-21)
(1.01464 -0.00223051 0)
(0.923506 0.103938 1.44483e-22)
(1.01353 0.000399167 -2.58038e-22)
(0.989685 0.229573 7.31602e-22)
(1.01087 2.62702e-05 1.80207e-21)
(1.01155 -0.000391876 -2.56015e-21)
(1.01997 0.0016734 -8.89126e-23)
(1.02189 -0.00532425 0)
(0.470579 0.0549139 -5.57439e-21)
(0.928215 -0.21454 0)
(0.400788 0.0603314 0)
(1.13343 -0.0547743 0)
(1.02232 -0.0151288 2.49637e-22)
(0.935837 0.143168 -2.93687e-22)
(0.844374 0.261209 -1.43161e-21)
(1.01018 -0.0024277 4.05075e-21)
(1.02197 -0.0129967 0)
(1.01495 0.000610763 -6.12752e-22)
(1.01792 -0.00687855 -2.10254e-21)
(1.01494 0.000624185 0)
(1.01097 -0.00405116 -2.34917e-21)
(1.0116 -0.000201365 -2.27996e-21)
(1.01521 -0.00188746 -1.74789e-21)
(1.03059 -0.0216215 1.92474e-22)
(1.0308 -0.0205784 0)
(1.0229 0.000380699 2.69213e-21)
(1.01117 7.37086e-06 7.58866e-22)
(1.0204 -0.000479016 -9.27553e-23)
(1.01383 -0.00222302 -2.55209e-22)
(1.02175 -0.000240932 6.78849e-23)
(1.00516 0.0306757 4.26517e-22)
(1.01836 0.00214119 0)
(0.984869 -0.0139599 -7.12125e-22)
(0.94937 0.14764 4.48485e-22)
(1.01338 -0.00209958 0)
(1.16294 -0.0542332 -7.9328e-21)
(1.01082 3.74593e-05 1.02078e-21)
(0.987497 -0.103145 -2.50579e-22)
(1.0165 -0.00559202 -2.48814e-21)
(1.01776 -0.00682794 3.78524e-21)
(1.03672 -0.0194165 1.56994e-21)
(0.916423 0.0990976 -4.58711e-23)
(1.01729 0.00104054 3.07271e-23)
(0.971661 -0.214469 0)
(0.935849 0.131384 -4.44289e-22)
(1.01216 -3.8537e-05 1.30856e-21)
(1.01632 6.86312e-05 3.04297e-22)
(0.667588 0.123646 0)
(1.00949 0.00201344 -1.88508e-21)
(1.03617 -0.00588073 -8.47825e-22)
(0.995818 -0.103695 0)
(0.781663 0.006291 0)
(1.10512 -0.0393598 0)
(1.01649 7.38248e-05 -3.11128e-22)
(1.01538 -0.00176133 1.01953e-21)
(1.0181 -0.00673495 1.16743e-21)
(1.10551 -0.0389861 0)
(1.02281 -0.0148258 3.78698e-22)
(1.01262 -0.00342436 7.7808e-22)
(1.01897 -0.00421756 5.8146e-22)
(0.685285 0.0918651 2.05405e-20)
(1.00796 1.42153e-05 -7.81954e-22)
(1.0219 -1.87399e-05 -1.24269e-21)
(1.00862 -0.00102303 -8.92949e-22)
(1.07497 -0.0223897 5.73149e-21)
(1.0135 -0.00391661 4.33302e-22)
(0.852371 -0.000889837 9.63291e-21)
(1.01511 -0.00165984 -1.06843e-21)
(1.00769 0.0108524 1.74222e-21)
(0.970068 0.216501 -5.36382e-22)
(1.01354 -0.00244674 0)
(0.774386 0.125766 0)
(1.00823 5.73379e-06 6.72909e-22)
(1.12001 0.174814 -9.05289e-21)
(1.01607 -0.000782451 9.39259e-22)
(0.978151 0.0295671 -1.94081e-21)
(1.01849 -0.00200378 1.22376e-21)
(1.03036 -0.00449673 0)
(1.01159 -0.00019484 1.19943e-21)
(1.01507 0.000629415 -3.89917e-22)
(0.990501 0.0378767 8.254e-22)
(0.7932 -0.204458 -6.77594e-22)
(1.0141 -0.0119454 -1.92751e-22)
(1.01044 -4.25344e-05 0)
(1.0135 -0.00329665 -1.66873e-21)
(1.03031 -0.00337565 -9.85818e-22)
(1.01799 -0.01122 2.56164e-22)
(1.00834 -1.26829e-05 -1.5003e-21)
(1.01791 -0.00685407 -1.15195e-21)
(1.0142 -0.0124079 1.93387e-21)
(0.779743 -0.206363 -1.99488e-21)
(1.01294 -0.000157481 0)
(1.0181 -0.00393639 1.04345e-21)
(1.131 -0.0249642 6.88479e-21)
(1.12852 -0.0256458 5.54105e-21)
(1.06443 0.0405639 9.88743e-22)
(1.01666 -0.00554777 -8.91628e-22)
(1.01272 -0.00115423 -2.3048e-22)
(1.01304 -0.00339641 -1.03727e-21)
(0.769161 0.177959 0)
(0.857947 -0.00403064 3.41508e-21)
(1.02229 -0.0159006 1.84282e-22)
(1.01878 -0.00143584 0)
(1.10274 -0.0566723 -6.81427e-21)
(1.0176 -0.00678079 0)
(1.08577 -0.101344 0)
(1.10011 -0.0518197 5.83592e-21)
(1.02189 0.000594433 0)
(1.01352 -0.00237031 0)
(1.1013 -0.0573037 5.95119e-21)
(1.10036 -0.0537492 -6.81263e-21)
(1.0208 0.00110036 6.71119e-22)
(1.04554 -0.0194107 4.60008e-21)
(1.01656 -0.00560242 0)
(1.15759 0.0360401 -1.40842e-20)
(1.01607 -0.00574392 0)
(1.01777 -0.00711627 -2.45149e-21)
(1.01473 -0.00348252 -1.02181e-22)
(1.01539 -0.00763053 -1.99314e-21)
(0.911392 -0.0740737 0)
(0.999513 -0.0534769 1.08014e-21)
(1.01038 -0.00019052 -9.18146e-22)
(1.01295 -0.00017485 0)
(0.939965 0.16949 5.05678e-22)
(1.01174 -0.000292899 1.62284e-21)
(1.01394 -0.00269446 0)
(1.02281 0.00279608 0)
(1.01048 -0.00017654 6.73316e-22)
(1.00804 -6.86826e-05 -1.07285e-21)
(1.0144 0.000443415 -2.74072e-22)
(1.01267 -0.0491043 1.24836e-21)
(1.01436 0.000442262 3.07826e-22)
(0.710799 0.016547 0)
(0.903181 -0.0530722 -2.79507e-23)
(0.903285 -0.0320025 -1.26916e-22)
(1.00867 4.65301e-05 4.04998e-22)
(1.01143 -0.000803302 0)
(0.980036 -0.0925124 1.39448e-21)
(1.01178 -0.000388811 8.56987e-22)
(0.995567 -0.0487878 -2.04094e-21)
(1.00763 -4.69766e-05 0)
(0.953877 0.190375 0)
(1.01059 -0.000203433 3.98309e-21)
(1.01514 0.000671382 0)
(1.14344 -0.198732 -5.35058e-21)
(1.01513 0.000647974 0)
(1.00038 0.00562343 -2.61594e-22)
(1.08777 -0.0497373 0)
(0.912603 -0.0917526 3.65554e-22)
(1.01463 -0.00345048 9.01391e-23)
(1.01308 -0.0036976 3.61569e-21)
(0.998579 -0.0985967 -3.79516e-24)
(1.01771 -0.00682628 -2.01375e-21)
(1.01329 -0.000233594 5.61307e-22)
(1.01642 -0.00567524 1.89271e-21)
(1.02022 -0.00115404 0)
(1.01299 -0.00354229 -7.32343e-22)
(1.02721 -0.00655449 0)
(0.998788 0.0244796 5.24812e-21)
(1.00437 0.0241258 0)
(1.02994 -0.00257182 3.02394e-22)
(1.0108 -6.61066e-06 0)
(1.01316 -0.000217862 -2.06295e-21)
(1.01861 -0.0152297 1.60636e-21)
(0.84342 -0.0181684 7.55687e-21)
(1.01347 -0.00379575 7.53899e-22)
(1.01094 -1.65688e-05 -1.16485e-21)
(0.955316 -0.0247062 -1.64844e-21)
(1.01262 -0.000936604 -1.84155e-21)
(1.01889 -0.00136076 0)
(1.07362 -0.0253919 4.80178e-22)
(1.0621 -0.0198709 -8.64817e-22)
(1.01622 0.015627 -7.5064e-22)
(1.01251 -0.00104293 -8.60426e-22)
(1.03248 0.162824 3.74677e-22)
(1.01152 -0.000154982 1.6121e-21)
(1.01799 -0.00569384 -2.19069e-21)
(1.12375 -0.0892765 1.08297e-20)
(1.01374 -0.00220355 2.49125e-22)
(1.02013 -0.0026876 -8.89256e-22)
(1.07203 -0.0338218 -1.70964e-22)
(1.019 -0.00173744 0)
(1.02069 -0.000457187 -1.93616e-22)
(1.02365 0.00171335 -2.27546e-21)
(1.10746 -0.0420405 0)
(0.994848 -0.0933935 -9.90894e-23)
(1.01228 -0.000717667 0)
(1.01783 -0.0064588 0)
(1.01981 0.00180527 8.74598e-23)
(0.997256 0.0341788 4.44465e-22)
(1.02228 -0.00103179 6.85517e-22)
(1.01749 -0.0121646 1.867e-21)
(1.01475 0.000561496 2.90083e-22)
(1.00466 2.39036e-05 -8.3403e-22)
(1.01119 5.55445e-05 -1.16954e-22)
(0.949493 0.216416 0)
(1.01475 0.000552999 -2.77237e-22)
(0.838049 -0.012083 -7.24018e-21)
(1.01555 -0.0407782 4.28627e-22)
(0.975203 0.00828176 -1.36237e-21)
(1.10609 -0.0740508 2.97653e-20)
(1.0053 -0.00972715 -2.33598e-21)
(1.01524 -0.00274776 -5.18199e-22)
(1.01867 0.0132062 0)
(0.957907 -0.0419194 2.51845e-21)
(1.01393 -0.00287578 -2.1057e-21)
(1.01662 0.000480673 -1.19799e-21)
(1.01768 -0.00653675 1.1505e-21)
(1.01766 -0.00526699 -6.86821e-22)
(1.01529 -0.0020589 2.0728e-21)
(1.02333 -0.0093311 1.5593e-22)
(1.01297 -0.00280455 3.01297e-21)
(1.01367 -0.00211132 -2.55241e-22)
(1.00812 8.46958e-07 7.09412e-22)
(1.01244 0.000190553 -9.41887e-22)
(1.10478 -0.0612759 6.94375e-21)
(1.10701 -0.0419558 0)
(1.01259 -0.000943653 8.83814e-22)
(0.720431 -0.036516 6.79223e-21)
(1.01532 -0.0130695 0)
(0.793799 0.00241273 -5.37099e-21)
(1.01508 -0.0126868 0)
(1.01297 7.93673e-05 2.16909e-23)
(1.01242 0.000202852 8.99429e-22)
(1.01761 -0.00513359 6.45639e-22)
(0.998134 -0.212688 -4.53117e-21)
(1.01494 -0.00182753 9.58801e-22)
(1.09978 -0.0503291 0)
(1.0108 1.19296e-05 -2.14538e-21)
(1.00918 -2.03654e-05 1.6585e-22)
(1.01158 -0.000398164 0)
(1.0163 -0.00580126 1.81281e-21)
(1.07051 -0.0352589 -6.91542e-21)
(1.01514 -0.00125672 0)
(1.09837 -0.0474888 0)
(1.00971 0.0314357 0)
(1.01619 -0.0018981 1.27847e-21)
(1.01398 -0.00197643 -1.17231e-21)
(0.980078 0.0117391 -2.35021e-21)
(1.02332 -0.00976424 -2.08117e-22)
(1.10379 -0.062213 6.06562e-21)
(1.01503 -0.0018847 1.63122e-21)
(1.03169 -0.0191376 -6.04601e-22)
(1.02215 -0.00520317 0)
(1.17311 -0.0628546 2.4265e-20)
(1.02175 -0.00625654 4.41299e-22)
(1.01299 -0.000174127 -1.62202e-21)
(1.01348 0.000389098 2.2222e-22)
(1.06671 -0.0294793 0)
(1.00819 1.40873e-05 0)
(0.977048 -0.0948394 8.24235e-23)
(1.0237 -0.00887285 0)
(0.809917 0.00053296 0)
(1.04549 -0.0142942 2.44472e-21)
(1.01268 -0.00351745 -8.1397e-22)
(1.01579 -0.00179029 -2.09659e-21)
(0.930281 0.0136873 6.48651e-22)
(0.961043 -0.0496317 -1.34622e-21)
(1.01372 -1.95586e-05 4.31253e-22)
(1.01431 -0.00347578 -1.86001e-21)
(1.01444 0.000489541 -5.45121e-22)
(1.03187 -0.0199084 -7.26398e-22)
(1.07353 0.044146 -1.04041e-21)
(1.01458 0.00050034 5.60972e-22)
(1.0129 7.79477e-05 0)
(1.01362 -0.000374153 3.40278e-22)
(1.01348 -0.0018387 -2.6123e-21)
(1.01455 -0.00221299 1.70171e-21)
(1.01158 -0.000221372 0)
(1.01545 -8.10537e-06 0)
(1.01402 -0.00276845 1.4992e-21)
(1.13006 -0.0097445 -7.34031e-21)
(1.01389 -0.00186125 1.85868e-21)
(1.00717 3.33757e-05 0)
(1.01649 0.00127321 0)
(1.01958 0.00883144 -1.46995e-21)
(1.01069 -0.000198841 -1.17939e-21)
(1.02214 -0.00624376 0)
(1.01525 0.000715737 -8.13708e-22)
(1.01736 -0.00175293 3.01478e-21)
(1.08507 -0.0718247 0)
(0.989038 0.263017 3.84938e-21)
(1.01533 0.000724797 1.05463e-21)
(1.02281 -0.00516413 7.88959e-22)
(1.00352 -0.0432697 0)
(1.0851 -0.0712774 2.17133e-21)
(1.03521 -0.00785262 -1.5238e-21)
(1.17328 -0.0613705 1.14593e-20)
(1.0153 0.000743596 -2.82644e-22)
(1.02195 0.15309 3.29467e-21)
(1.01 -0.0294922 5.29886e-22)
(1.02873 -0.0125178 0)
(1.1014 0.015852 1.1534e-21)
(1.08672 -0.091067 -2.36316e-21)
(1.01275 -0.00040911 0)
(1.01499 0.000700162 2.31046e-24)
(1.01381 -0.000415791 1.22158e-21)
(1.02884 -0.131916 -6.49046e-21)
(1.01504 0.000722607 1.1128e-21)
(1.01476 0.000657681 -7.99251e-22)
(1.01646 -0.00570922 1.92387e-21)
(1.01407 0.000626937 -2.89659e-24)
(1.02874 -0.0133225 -1.09924e-21)
(1.01182 -0.000459906 2.50656e-21)
(1.00799 3.01369e-06 1.32684e-21)
(1.09968 -0.00352704 -5.4715e-21)
(0.987818 0.149121 0)
(1.01395 0.000601876 4.41487e-22)
(1.01647 0.000954188 -1.41574e-21)
(1.08176 0.090931 1.60447e-21)
(1.00059 0.0159728 0)
(1.00932 1.48999e-05 -2.80148e-22)
(1.01609 0.000563209 0)
(1.134 -0.00639695 -1.1668e-20)
(1.02788 -0.00712832 -1.18429e-22)
(1.01678 -0.00046124 0)
(1.0121 -0.000143186 1.44348e-21)
(1.01803 -0.0114532 5.27754e-22)
(1.0116 -0.000403135 0)
(1.01601 0.000548653 -1.75079e-23)
(0.939371 -0.00816847 0)
(0.938353 -0.00420271 1.65774e-21)
(1.01213 -0.00249275 -1.86893e-21)
(1.01276 -0.00039492 8.48561e-22)
(1.02157 -0.0061323 -4.93437e-22)
(1.01591 0.000474119 0)
(1.01576 0.000398294 0)
(1.02821 -0.014533 0)
(1.02925 -0.0116203 -6.83153e-22)
(1.01259 5.66063e-05 0)
(1.01513 -0.00265612 0)
(1.00301 0.0193972 1.71414e-21)
(1.00891 -9.28778e-05 0)
(1.01473 -0.00343175 -7.10777e-22)
(1.01346 -0.00198955 3.28687e-21)
(0.983407 -0.145713 1.35187e-21)
(0.993889 -0.382591 0)
(1.01362 -0.0588326 0)
(0.644852 0.0287326 0)
(0.981017 -0.23358 0)
(0.955183 0.0814311 0)
(0.964648 0.0714808 -6.43375e-21)
(1.01536 -0.00353258 1.41045e-21)
(1.0061 0.0079697 7.28452e-23)
(0.726654 -0.0173639 0)
(1.01755 -0.00674437 0)
(1.00574 -0.0457356 0)
(1.02287 0.00308605 -3.13753e-23)
(1.02548 -0.0150453 5.05576e-22)
(1.01362 -0.00352891 0)
(1.01717 -0.00178259 -2.55767e-21)
(1.01269 5.24366e-05 0)
(1.01165 4.1987e-05 5.4281e-24)
(1.01327 -0.00628592 0)
(1.02157 0.00707232 -6.57025e-22)
(1.01373 -0.00177891 2.50469e-22)
(1.01485 -0.00345426 8.32766e-22)
(1.01535 0.000104695 1.21062e-21)
(1.01136 5.89253e-05 0)
(1.01417 0.000683281 -1.28688e-21)
(1.01082 -7.73792e-05 0)
(1.04394 -0.0139071 -2.4912e-21)
(1.03534 -0.0317624 -1.76149e-21)
(1.02136 0.0076844 0)
(1.01851 -0.012341 0)
(1.01527 -0.00186794 -1.02792e-21)
(1.03268 -0.0184642 -4.37316e-22)
(1.0167 -0.00546002 0)
(1.02585 -0.0160934 5.12999e-22)
(1.01502 -0.00141942 -9.23957e-22)
(1.01324 -0.00470222 0)
(1.01637 -0.000878803 -2.22272e-24)
(1.12676 -0.197605 0)
(1.01335 -0.000314925 3.60559e-22)
(1.01168 -0.00226129 2.00455e-21)
(1.00929 -2.70671e-05 -2.09898e-22)
(1.01391 -0.000114645 -1.39685e-21)
(0.861555 -0.217666 1.49863e-21)
(1.02845 -0.00133223 -4.17174e-21)
(1.0192 0.0035344 0)
(0.999935 0.242819 6.43354e-22)
(1.01388 -0.00282909 2.57105e-21)
(0.987581 0.00125202 0)
(1.00812 0.00308484 9.60108e-22)
(0.975798 -0.139494 -4.40003e-22)
(1.01473 0.000522706 1.54175e-21)
(1.01856 -0.00649537 3.18028e-21)
(1.00797 -4.23532e-05 -2.48697e-21)
(1.01234 -0.000735189 -2.58566e-22)
(1.0145 -0.000275177 0)
(1.01504 -0.00250609 -1.91706e-21)
(0.954908 -0.0608897 4.76746e-21)
(0.928658 -0.101441 -4.26145e-22)
(1.02915 -0.00265428 3.79539e-21)
(1.01274 -0.00217196 0)
(1.05116 -0.0161648 5.76344e-21)
(1.01877 -0.00101091 -1.70933e-22)
(1.01815 -0.00213574 -4.43499e-22)
(1.03759 -0.0184725 -2.94205e-21)
(1.01812 -8.71119e-05 -7.12553e-22)
(1.03391 -0.00605055 0)
(0.942413 -0.219981 0)
(1.01051 0.000179013 0)
(1.02297 -0.00178283 0)
(1.01466 -0.000127066 0)
(1.01258 -0.00110611 -8.82528e-22)
(1.01026 -0.00189737 1.86423e-21)
(0.952154 -0.0174487 0)
(1.01634 -0.00588842 -2.03636e-21)
(1.01069 -0.000228219 -3.14136e-21)
(1.01197 -0.000471749 -2.77236e-21)
(1.00474 7.83428e-06 0)
(0.959219 -0.148646 -5.62869e-22)
(1.11041 -0.0459063 -2.10914e-21)
(1.01758 -0.0702434 -8.10921e-22)
(1.02254 -0.00530379 -4.81781e-22)
(0.985015 -0.307078 5.16264e-21)
(1.02054 -0.00110658 7.7294e-22)
(1.01749 -0.00707675 2.44867e-21)
(0.920552 -0.151409 4.01652e-22)
(1.00031 0.0255832 -4.2533e-21)
(0.952274 -0.0538901 -9.41884e-21)
(0.723851 0.0108687 0)
(1.02301 0.00331389 -1.26206e-21)
(1.01827 -0.00020619 9.33157e-22)
(1.01489 -0.00133359 8.89174e-22)
(1.01274 6.14328e-05 -4.27984e-22)
(1.01165 -0.000384814 0)
(1.03625 -0.129225 3.67118e-21)
(1.00585 0.00256654 4.02475e-21)
(0.986745 -0.375829 -6.94598e-21)
(1.00423 0.14589 0)
(1.02553 0.00733719 0)
(1.00528 -0.30551 -5.7655e-21)
(1.0121 5.11001e-05 0)
(1.0084 -2.29211e-05 -7.61357e-22)
(1.00477 0.00152205 -1.94841e-21)
(1.0173 -0.00634541 0)
(1.00848 2.86244e-05 -9.15984e-22)
(1.08888 -0.058945 0)
(1.00482 0.00333249 -2.20855e-23)
(1.10974 -0.0446224 2.17939e-21)
(1.02286 -0.00147104 0)
(1.05048 -0.0162866 -5.4978e-21)
(1.00742 2.91852e-05 -2.09599e-22)
(1.01522 0.00073889 0)
(1.00759 0.120542 1.21267e-21)
(1.0139 0.00014583 1.54753e-21)
(1.03297 -0.0319797 2.60239e-21)
(1.01391 -0.000620985 0)
(1.0124 -0.000957014 4.28518e-22)
(1.00466 0.0357921 4.65706e-21)
(1.01712 0.000978621 0)
(1.01506 0.000705866 0)
(1.08152 -0.0757621 -8.54562e-21)
(1.08639 -0.0845778 -6.93177e-21)
(1.01348 -0.00182698 -6.07761e-22)
(0.962664 -0.115629 2.71906e-22)
(1.01777 -0.00498632 0)
(1.01476 -0.0421343 1.98286e-22)
(1.08064 -0.0116665 -3.30958e-21)
(1.01049 -4.5449e-08 -8.79508e-22)
(1.01353 -0.0019987 4.91173e-22)
(0.745766 0.0754504 -7.50135e-21)
(1.01738 -0.00637304 -2.01418e-21)
(1.02285 8.58878e-05 0)
(1.01497 0.000709131 -5.47129e-22)
(1.02589 -0.00659882 2.77391e-23)
(1.0123 -0.0028077 0)
(1.01481 0.000678043 -5.41685e-22)
(0.96201 0.0296079 -2.54662e-21)
(1.01397 -0.00253057 0)
(0.921695 0.17026 0)
(1.09156 0.0627381 0)
(1.04674 -0.0191222 -7.83606e-21)
(1.01533 -0.0034614 -2.59975e-21)
(1.0346 -0.00602181 0)
(1.01338 -0.00203393 0)
(1.01411 0.000269866 0)
(1.06856 -0.0146284 0)
(1.01543 -0.00220556 -1.06666e-21)
(1.01385 -0.000473451 0)
(1.03666 0.00387107 -2.19484e-22)
(1.0095 6.05205e-06 5.3116e-22)
(1.01398 -0.00097046 4.42267e-21)
(1.01157 -0.000224228 1.3885e-21)
(0.956414 0.0251599 6.43828e-21)
(1.02236 -0.00582925 5.90138e-22)
(0.916976 -0.357176 1.02481e-20)
(1.01012 1.20388e-05 -1.3911e-21)
(0.97441 0.00670692 -1.41022e-21)
(0.997468 -0.0284628 2.44253e-21)
(1.02283 -0.000740871 -4.49891e-22)
(1.0097 -5.62414e-05 0)
(1.00994 -0.000103372 0)
(1.01242 -0.0698661 0)
(1.11257 -0.0329051 -1.60151e-21)
(0.923612 -0.196702 3.5322e-22)
(1.01211 -0.000118985 4.74682e-24)
(1.00246 -0.012383 -1.64123e-21)
(1.01212 -0.000274246 0)
(1.01598 -0.00346611 2.22045e-21)
(1.02588 0.0169694 0)
(1.0146 0.000497372 -8.09442e-22)
(0.995958 -0.0100152 -3.51123e-21)
(0.934447 -0.111054 3.68321e-22)
(0.955196 -0.0967552 0)
(1.01696 -0.000770291 2.27644e-21)
(1.01057 3.80051e-06 -4.54889e-25)
(0.996773 0.00334194 0)
(1.01654 -0.00679456 5.65289e-22)
(1.00997 -0.00024858 0)
(1.01843 0.00209153 -1.80437e-21)
(1.01223 -0.000582106 2.85566e-21)
(1.04306 -0.0576078 -3.48917e-21)
(1.01653 -0.000664197 -2.20847e-21)
(1.00932 0.00160721 0)
(1.06528 0.0781794 2.11233e-22)
(0.958113 0.0313723 0)
(1.01472 0.000597338 -5.6193e-22)
(0.796706 0.108042 0)
(1.11118 -0.00492417 -6.09084e-21)
(1.01276 -0.000991523 0)
(0.996784 -0.00462924 2.7199e-21)
(1.01402 -0.000958071 -3.33753e-21)
(1.0136 -0.00207762 2.77897e-22)
(0.674046 0.0970256 2.37857e-20)
(1.01527 -0.00736803 0)
(1.01815 -0.00668026 -1.75287e-21)
(1.01676 -0.00694788 0)
(1.01411 0.000489514 -3.28714e-21)
(0.940649 -0.371452 2.64121e-20)
(0.944599 -0.0295283 2.23681e-21)
(1.00878 -0.0311374 0)
(1.0153 0.000118501 1.36738e-21)
(1.00972 0.00448779 1.07543e-21)
(1.01219 -0.000282333 2.6044e-24)
(1.01982 0.0426022 0)
(1.01521 -0.00330125 1.27755e-21)
(1.01556 0.00032809 2.89359e-23)
(1.06076 -0.122789 -6.2882e-21)
(1.01385 -0.000140316 1.26638e-21)
(1.01696 -0.00067112 1.59606e-21)
(1.01177 -0.000259263 1.96495e-21)
(0.964976 0.194789 -5.69141e-22)
(1.01338 -0.00585493 9.88113e-22)
(1.01565 -8.64163e-05 2.28738e-21)
(1.0196 0.0015927 0)
(0.980055 -0.0448165 0)
(1.00842 7.45387e-06 6.65143e-22)
(1.01446 0.000630963 0)
(1.08436 0.084796 -5.99836e-22)
(1.01046 0.00562675 -2.20115e-21)
(0.591528 0.0333741 0)
(1.03586 -0.00634984 0)
(1.02369 -0.00912143 -2.82592e-22)
(1.01213 -0.000100578 0)
(1.01827 0.00234822 8.20657e-22)
(1.01398 3.82821e-05 0)
(1.03254 -0.0178189 -1.45664e-21)
(1.02973 -0.00180126 -6.169e-23)
(1.01523 -0.00138836 0)
(1.011 2.89502e-05 0)
(0.983646 0.00587402 6.10132e-21)
(1.00835 -7.88161e-05 1.9355e-21)
(1.06916 0.102876 0)
(1.01587 -0.0034138 -2.29647e-21)
(1.10427 -0.0374907 3.03838e-21)
(1.00869 0.0302479 -8.38674e-22)
(1.017 -0.0067373 0)
(1.01739 -0.0063635 0)
(1.12522 -0.146946 0)
(0.99256 0.0436483 -6.12119e-22)
(1.13887 0.0765406 -6.44318e-21)
(1.03007 -0.0199582 2.6067e-22)
(1.01396 -0.00245936 3.14393e-21)
(1.04176 -0.00827995 3.61842e-21)
(1.01436 0.000628962 0)
(1.01253 0.000216385 2.03719e-21)
(1.01605 0.000533026 -6.42855e-22)
(1.013 1.37307e-05 2.72374e-21)
(1.11359 -0.0505445 0)
(1.08467 -0.0480746 -1.70966e-20)
(0.823025 -0.0101651 0)
(0.928299 0.00844326 -1.81444e-21)
(0.90022 0.0369423 -1.21754e-21)
(1.04732 -0.057759 -4.85297e-22)
(1.01365 -0.00255912 0)
(1.00388 -0.0104902 -2.16195e-21)
(1.01213 -0.000560533 -2.77309e-21)
(1.0168 0.000185315 0)
(1.07353 -0.0359637 7.60259e-21)
(1.12656 -0.0237594 -6.49665e-21)
(1.17252 -0.101461 5.01495e-21)
(1.04922 -0.0492027 -5.59621e-21)
(1.09196 -0.0224717 5.66679e-22)
(1.01865 -0.0010987 -1.24859e-21)
(1.01494 -0.00246123 1.45069e-21)
(0.966705 0.00313054 0)
(1.04042 0.0264025 -9.18094e-22)
(1.01369 -0.00266874 0)
(0.645796 -0.155009 6.29922e-22)
(1.01399 0.0022125 5.73641e-22)
(1.01344 -0.00230976 -2.56771e-21)
(1.00806 0.00176675 -8.91785e-22)
(1.01486 -0.00231265 2.64603e-21)
(1.00777 -3.40727e-07 0)
(1.01392 -0.00414951 0)
(0.639267 -0.1397 -1.30535e-22)
(1.12792 -0.068421 4.99553e-21)
(1.0136 0.0509294 0)
(0.980419 0.0255699 -2.53848e-21)
(0.991905 0.21076 -5.51504e-22)
(0.993515 -0.0267597 0)
(1.03264 -0.0186941 6.86292e-22)
(1.01777 -0.00518437 0)
(1.01341 -0.000109588 0)
(0.998267 -0.0286878 3.33221e-22)
(1.06154 0.107863 -3.34141e-21)
(1.01857 -0.00237661 -2.09554e-22)
(1.12466 -0.0260689 -3.13263e-21)
(1.02279 -0.00210601 -2.05284e-21)
(1.02281 0.00641077 1.90342e-21)
(1.01688 0.000748208 1.24665e-21)
(0.962979 -0.104019 -1.64569e-21)
(1.0491 -0.0410682 9.09272e-22)
(0.982045 -0.0423647 1.63033e-21)
(0.839924 -0.215048 -1.50945e-21)
(0.981772 0.0151465 0)
(1.01624 -0.00875085 0)
(1.05 -0.0411791 -4.98629e-21)
(1.09625 -0.0440012 6.08983e-21)
(1.01526 0.000169688 -7.11648e-22)
(1.01271 -0.00302042 0)
(1.02942 -0.0121877 0)
(1.11902 -0.149269 -9.37737e-21)
(1.01547 -0.00347194 0)
(1.05181 0.041779 2.44877e-22)
(0.621826 -0.127537 0)
(1.14172 0.0627405 -5.05799e-21)
(1.01063 4.53948e-05 -8.41606e-24)
(1.01375 -0.000267719 -1.10344e-25)
(1.01 -2.34622e-05 7.22573e-24)
(1.01432 -0.00194309 1.07201e-21)
(0.994169 -0.0271522 -2.87903e-21)
(1.01036 0.0215111 0)
(1.01614 -0.00356882 0)
(1.02197 -0.00565148 -3.23772e-22)
(1.01549 -0.00368939 -1.38211e-21)
(1.03082 -0.00427495 9.81708e-22)
(1.01399 0.000186102 1.5889e-21)
(1.01164 -0.000283965 2.88885e-21)
(1.21377 -0.119103 0)
(1.02209 -0.000525338 0)
(0.98286 0.14074 0)
(1.01256 0.000210495 -5.98659e-22)
(1.00929 -0.000226927 -1.23883e-21)
(0.962045 0.00942365 -2.86718e-21)
(1.02383 0.0081441 0)
(1.00767 -3.8971e-05 -6.93977e-23)
(1.04894 -0.0472763 1.74375e-21)
(0.941192 -0.053632 -5.20621e-21)
(1.03674 -0.0197382 -1.48908e-21)
(1.01474 -0.00137923 0)
(1.00728 0.00123157 0)
(1.02096 -0.00279505 0)
(1.16495 -0.0236353 1.46719e-20)
(1.01527 -0.00208785 -1.85533e-21)
(1.01539 -0.00373824 7.98612e-22)
(1.01284 -0.000678215 2.06952e-21)
(1.01259 -0.000842539 -1.99185e-21)
(1.01572 0.000413138 -2.49406e-23)
(1.00869 -4.38764e-05 2.57716e-22)
(0.99696 -0.114964 1.2792e-22)
(1.08425 0.00121554 -4.50385e-21)
(0.907953 0.0714637 0)
(0.951162 -0.0261568 -2.00111e-21)
(1.00295 -0.126262 -1.90219e-21)
(0.657703 0.0217374 -3.74375e-21)
(0.998587 0.01021 0)
(1.08942 -0.129988 -6.3569e-22)
(0.977414 -0.0877171 0)
(1.08057 0.0236167 0)
(1.03306 -0.011778 8.76586e-22)
(1.01733 -0.00631341 0)
(1.01287 -0.000700647 -1.18886e-21)
(1.02373 -0.00108384 2.18918e-21)
(0.966179 0.175666 1.35384e-21)
(1.01294 -0.00312563 -3.2031e-21)
(1.009 2.68178e-05 6.37016e-22)
(1.01792 -0.00216028 0)
(1.0186 -0.00662677 0)
(1.12953 -0.0120245 7.37263e-21)
(1.01381 -0.00183651 0)
(1.01518 -0.00210289 -1.1223e-21)
(0.999356 0.0135252 -3.53563e-23)
(1.01304 -0.000195717 0)
(1.01726 -0.00630978 0)
(1.01868 -0.00226746 1.00722e-21)
(1.01856 -2.87625e-05 0)
(1.01464 0.000605999 -3.20311e-25)
(1.11294 -0.0472497 0)
(1.01455 -0.00124065 1.03466e-21)
(1.0143 -0.00187326 -2.20351e-21)
(1.01407 0.0222918 0)
(0.995235 -0.00168511 0)
(1.00898 0.00068408 9.99944e-22)
(1.183 -0.0819824 1.36571e-20)
(1.01911 -0.00428861 0)
(0.992303 0.0293828 3.24287e-22)
(1.01351 0.000409076 -1.02883e-21)
(1.00848 7.148e-06 0)
(0.948396 -0.0288416 -7.62565e-21)
(1.01942 0.00165613 4.06151e-23)
(0.956808 -0.105738 -3.16653e-22)
(1.11182 -0.0343931 6.00043e-21)
(1.00466 -1.08565e-05 0)
(1.01207 -0.000394197 0)
(1.01371 -0.00245223 5.42007e-22)
(1.01115 0.00134758 4.49588e-21)
(1.01707 -0.0104866 1.27597e-21)
(1.00885 -0.000121697 1.41896e-21)
(1.01452 0.000600474 0)
(1.16143 -0.0196705 -6.93223e-21)
(1.01665 -0.0055175 0)
(1.02696 0.0169982 0)
(1.01123 -0.00034822 3.21237e-21)
(1.00293 -0.0375923 -4.54203e-21)
(1.01295 -0.00258795 -3.04512e-21)
(1.00784 4.59389e-06 -3.38274e-22)
(1.01373 -0.00597277 0)
(1.014 0.000138327 -3.62323e-24)
(1.01372 0.00352553 0)
(1.01328 0.000250001 0)
(1.02242 -0.00151576 0)
(1.00843 -0.00613946 -1.21976e-21)
(1.01846 0.00279624 -8.68272e-24)
(1.01744 0.0526891 -4.27636e-21)
(0.968656 0.0570729 2.48755e-22)
(1.01881 0.000115054 0)
(1.13156 -0.072569 5.74113e-21)
(1.02653 0.0038022 8.75819e-23)
(1.01984 0.00164517 -1.48963e-21)
(1.0115 -9.63003e-05 -5.8054e-22)
(1.01191 -0.0450861 0)
(1.01105 -0.00611609 0)
(1.01218 -0.000134862 0)
(1.00808 -0.00553235 0)
(1.04066 0.011948 0)
(1.01439 -0.00221706 -1.80065e-21)
(1.02291 0.00232707 5.29331e-23)
(1.02673 -0.00640966 0)
(0.996907 -0.121176 1.32616e-21)
(1.01597 -5.57464e-05 0)
(1.1007 0.0175507 1.49953e-23)
(0.866749 -0.0603063 2.79067e-21)
(1.01446 -0.00216248 1.69489e-21)
(1.03466 -0.0129872 2.05109e-21)
(1.0111 4.12329e-05 2.23527e-22)
(1.02007 0.0010329 2.75297e-21)
(0.941022 0.108041 1.69402e-22)
(1.02313 -0.00299002 7.99816e-22)
(0.888956 -0.103822 -6.18302e-21)
(1.01322 0.000256183 7.41858e-22)
(1.01541 -0.00386099 -8.23871e-22)
(0.943489 -0.0623201 5.57536e-21)
(0.572031 0.0412611 3.23062e-21)
(1.0442 0.0885037 1.68567e-22)
(1.01168 -0.000239226 0)
(0.996543 -0.0496589 -1.66472e-21)
(1.01575 -0.00386998 1.43881e-21)
(1.09431 -0.0140704 6.65083e-22)
(1.00853 -0.00010741 0)
(1.03262 0.032501 1.54421e-21)
(0.942541 -0.0996383 -8.244e-22)
(0.692257 -0.129984 1.5864e-21)
(1.01399 0.000476166 0)
(1.01383 -7.37978e-05 0)
(1.01681 -0.00522025 1.76489e-21)
(1.09072 -0.0535869 -7.24933e-20)
(1.01333 -0.00345632 2.59984e-21)
(0.83805 0.0494982 0)
(1.0121 -0.00018857 0)
(0.827291 -0.236631 0)
(0.963098 -0.151499 3.83482e-22)
(1.02076 -0.00254617 0)
(1.01316 -0.0109249 0)
(0.976268 -0.0268586 -6.63686e-21)
(1.06893 -0.0342364 0)
(1.07303 -0.0998505 0)
(1.01748 -0.00642859 -1.2306e-21)
(1.00451 -5.81312e-06 0)
(1.00077 -0.0363694 5.53083e-21)
(1.0171 -0.0126405 3.47984e-22)
(1.01223 -0.00174913 -1.69742e-22)
(1.00699 0.0319106 9.18154e-22)
(1.09937 0.0338366 2.09742e-21)
(1.01586 -0.00571148 0)
(1.01001 -0.000147876 -1.60598e-21)
(1.01625 -0.0051202 0)
(1.01205 -0.000224411 -1.67528e-22)
(1.01111 5.29275e-05 -2.83042e-22)
(1.0152 -0.00565847 2.04473e-21)
(1.1363 -0.00932202 1.68269e-20)
(1.01263 -0.000812283 1.16845e-21)
(1.08426 -0.250241 -8.03568e-21)
(0.237155 0.158716 -2.81971e-21)
(1.03318 -0.0033764 -9.86823e-22)
(1.10624 -0.0679839 0)
(1.01832 -0.000417345 -2.50601e-22)
(1.01073 -8.01741e-05 3.46836e-22)
(1.10678 0.103066 0)
(1.04516 0.136764 -2.94257e-21)
(1.07619 -0.0976207 0)
(1.07131 -0.050099 0)
(0.786468 -0.0891266 -4.27519e-22)
(1.01246 -0.00102022 4.37668e-22)
(1.01 5.02288e-05 0)
(1.09313 -0.0485785 0)
(0.439898 0.01083 3.79593e-21)
(1.06089 0.0393206 -7.11086e-22)
(1.03566 -0.00529394 8.18931e-22)
(1.01303 -0.00228069 1.80766e-22)
(1.11693 -0.0538511 -8.96566e-21)
(1.01294 -0.000986241 8.58761e-22)
(1.01426 -0.00338802 0)
(1.0134 -0.00187953 0)
(1.01428 0.000623046 6.85285e-22)
(1.01664 -0.00455974 1.95616e-21)
(1.02232 -0.00472311 7.12871e-22)
(1.06922 -0.0501189 0)
(1.01317 0.000350942 -2.49173e-21)
(0.811882 -0.217063 5.91637e-21)
(1.01565 -0.00593191 0)
(1.0503 0.0630634 -2.37767e-23)
(0.745291 -0.0436082 -6.86797e-21)
(1.02537 0.130101 -1.18967e-21)
(1.15619 -0.197959 -1.8186e-20)
(1.04637 0.107792 5.96078e-23)
(1.06031 0.0299454 1.50886e-21)
(0.87702 0.0309839 0)
(1.01899 -0.0118909 0)
(1.03601 -0.00667214 -2.31121e-21)
(1.00997 1.89828e-05 4.16055e-22)
(1.01452 -0.0107269 0)
(1.01751 -0.00635187 0)
(0.95031 -0.110565 1.92776e-21)
(1.01799 -0.0054429 -1.0626e-21)
(1.1243 -0.114845 -9.24004e-21)