/*--------------------------------*- C++ -*----------------------------------*\
| =========                 |                                                 |
| \\      /  F ield         | OpenFOAM: The Open Source CFD Toolbox           |
|  \\    /   O peration     | Version:  v2012                                 |
|   \\  /    A nd           | Website:  www.openfoam.com                      |
|    \\/     M anipulation  |                                                 |
\*---------------------------------------------------------------------------*/
FoamFile
{
    version     2.0;
    format      ascii;
    class       volScalarField;
    location    "300";
    object      epsilon;
}
// * * * * * * * * * * * * * * * * * * * * * * * * * * * * * * * * * * * * * //

dimensions      [0 2 -3 0 0 0 0];


internalField   nonuniform List<scalar> 
18166
(
2.43985e-06
2.69965e-06
4.12723e-06
3.64642e-06
0.0237847
2.79368e-06
2.27068e-06
0.0952525
0.0301792
0.0113722
3.06541e-06
2.74787e-06
0.0562932
2.74694e-05
0.0290068
3.4068e-05
3.41331e-06
0.0521104
2.64642e-06
0.0193723
8.49499e-06
3.42597e-06
8.04668e-06
3.20709e-06
2.56984e-06
2.29255e-06
2.3438e-06
1.9577e-06
2.45773e-06
3.86672e-06
0.00373928
1.82472e-06
2.41757e-06
2.64132e-06
1.6393e-06
3.08711e-06
0.0322371
3.10464e-06
1.86232e-06
0.010586
4.0894e-06
0.0410321
2.40503e-06
2.51599e-06
2.46403e-06
3.4608e-06
2.78964e-06
0.00549146
7.77705e-06
2.30211e-06
1.98072e-06
2.06424e-06
9.05231e-06
3.9243e-06
3.10497e-06
0.0158864
0.0427181
0.041055
2.20219e-06
1.9131e-06
3.04912e-06
1.77539e-06
0.0168347
2.10061e-06
4.66674e-05
3.25007e-06
0.0195945
0.0153003
0.15611
1.88593e-06
1.64737e-06
2.1168e-06
2.45579e-06
2.08497e-06
0.0816586
0.00308732
9.45957e-06
0.152942
1.97949e-06
3.2147e-06
4.06477e-06
0.0362254
3.23075e-06
3.08006e-06
1.88671e-06
1.66714e-06
1.8973e-06
2.72609e-06
2.05345e-06
1.8698e-06
0.0243268
2.7067e-06
0.0299643
4.17858e-06
4.06578e-06
1.65757e-06
1.84661e-06
3.84267e-06
2.24207e-06
1.92302e-06
2.74491e-06
3.50594e-06
0.0266465
2.10135e-06
1.8824e-06
3.53914e-06
0.320064
0.0168398
2.19079e-06
3.18975e-06
0.030966
0.0377641
0.0160981
0.0170591
3.54007e-06
1.68726e-06
3.99451e-06
0.00446199
2.37947e-06
0.0155756
0.0701193
2.45139e-06
0.00118251
0.0616755
5.31521e-06
2.77558e-06
3.57914e-06
0.042409
2.23101e-06
2.59088e-06
6.32002e-06
0.19471
1.79993e-06
0.00889087
2.22611e-06
2.76431e-06
3.12605e-06
2.53607e-06
1.79306e-06
0.00233304
0.0315543
5.19402e-05
0.000870301
0.00815578
2.18423e-06
0.0320873
0.0503022
0.0204168
1.77426e-06
1.83184e-06
1.85821e-06
0.0105862
0.399473
5.41322e-06
4.03985e-06
3.23755e-06
2.19468e-06
0.0183329
3.14981e-06
0.0447732
2.0164e-06
0.0131816
1.9248e-06
2.33772e-06
2.06412e-06
0.000587289
3.53001e-06
0.00772371
0.0315931
0.0318219
1.38153e-05
0.0152249
2.55439e-06
0.0147671
0.00373686
2.6359e-06
0.000148553
0.0171822
2.64333e-06
2.74631e-06
3.54228e-06
2.48464e-06
2.85566e-05
0.000135606
0.00775169
2.5006e-06
3.05086e-06
3.40137e-06
3.0869e-06
1.68209e-06
3.18062e-06
2.63696e-06
1.9886e-06
3.09762e-06
2.30404e-06
0.0026768
2.67004e-06
2.29281e-06
0.00462003
0.0142442
1.25004e-05
0.0132421
1.70803e-06
0.0193359
2.32708e-06
2.077e-06
0.038683
0.0174724
0.0257512
0.0663969
0.0223102
0.0328855
2.67597e-06
3.35057e-06
2.01608e-06
2.61652e-06
0.00012293
3.87502e-06
0.0336468
0.0344629
1.89212e-06
2.71488e-06
2.52974e-06
3.20221e-06
0.0290464
2.16504e-06
3.61179e-06
2.47458e-06
2.22005e-06
1.71387e-06
0.0214565
0.0166304
1.7212e-06
0.00233771
2.97472e-06
1.67866e-06
2.00006e-06
2.80096e-06
0.0155628
0.022615
1.9853e-06
0.028792
0.0183072
1.90939e-06
0.0155419
2.44582e-06
3.56754e-06
0.0276649
0.00970857
2.04602e-06
2.48621e-06
3.55334e-06
2.34081e-06
2.22716e-06
0.0106396
0.104888
3.3661e-06
0.0273648
0.0340213
2.37186e-06
3.29752e-06
0.00222877
3.16832e-06
7.50446e-06
0.028242
0.0173289
0.0635559
2.08922e-06
4.11329e-06
1.9221e-06
2.33323e-06
3.34952e-06
2.64247e-06
0.0254102
2.05335e-06
0.014067
0.0174328
2.45344e-06
0.00154811
1.83117e-06
2.70932e-06
0.0203491
2.09767e-06
1.63744e-06
1.89409e-06
4.47189e-06
1.77168e-06
1.90869e-06
0.0338504
3.59226e-06
1.96289e-06
2.61804e-06
2.06573e-06
3.35581e-06
2.10123e-06
0.00248264
2.23382e-06
3.41039e-06
2.19188e-06
0.012375
0.0178042
3.22165e-06
2.19401e-06
2.62899e-06
0.0254395
2.37517e-06
0.0161987
5.90374e-06
2.50309e-06
1.65507e-06
1.8078e-06
0.000782881
0.0185
2.24621e-06
3.55824e-06
0.0344228
6.85156e-06
2.06402e-06
3.30824e-06
2.67365e-05
2.65773e-06
2.24779e-06
0.0138292
3.08999e-06
2.44661e-06
2.30644e-06
1.90528e-06
2.38413e-06
1.79813e-06
0.013533
2.52755e-06
0.00841848
1.63149e-06
1.69227e-06
0.269592
0.0462447
1.44101e-05
0.0281508
0.0227353
0.015424
1.76528e-06
0.0601502
2.27981e-05
0.00231241
1.67498e-06
3.15791e-06
2.26528e-06
2.25155e-06
2.12142e-06
2.7084e-06
2.19669e-06
2.57411e-06
3.38656e-06
2.57183e-06
5.96038e-06
1.89249e-06
6.52504e-06
1.99545e-06
3.13366e-06
1.81311e-06
2.77882e-06
0.0168022
0.00242838
3.38135e-06
2.29316e-06
2.95616e-06
4.14164e-06
8.66679e-06
4.16477e-06
0.0994616
0.0402741
2.66966e-06
2.66786e-06
0.000435429
0.0288838
0.216371
0.0022462
4.0202e-06
1.99815e-06
1.48438e-05
1.69865e-06
0.00219716
0.00107694
1.82962e-06
2.05873e-06
2.67917e-06
3.2659e-06
4.17354e-06
0.0157648
2.6869e-06
1.67e-06
1.84795e-06
1.92076e-06
0.0122013
1.44832e-05
3.98456e-06
3.45246e-06
0.0295734
2.35078e-06
2.38734e-06
2.15645e-06
2.26949e-05
0.0490729
4.15622e-06
0.0122291
1.6919e-06
1.72713e-06
0.0143082
0.0130303
2.30303e-06
0.0182628
0.121757
2.63466e-06
0.00849567
1.82877e-06
1.92437e-06
4.49314e-06
4.68413e-05
1.61497e-06
3.31909e-06
1.92404e-06
2.79126e-06
0.000898205
2.14558e-06
0.00147279
4.13419e-06
0.000433278
2.63438e-06
0.0024504
0.0915931
2.23539e-06
0.000284997
2.50533e-06
1.91767e-06
1.94451e-06
0.0118635
0.0148888
3.78158e-06
0.0950379
1.92461e-06
1.90888e-06
0.0609379
0.0218808
2.70361e-06
0.0128377
0.0635847
3.26672e-06
0.0980917
1.03324e-05
1.73111e-06
3.00655e-06
0.0252742
0.00276641
2.00257e-06
0.00915129
0.0269165
2.08291e-05
3.18618e-06
1.92617e-06
0.0353607
2.66959e-06
2.35637e-06
0.000483936
0.00751394
2.19609e-06
2.31288e-06
1.91585e-06
1.82401e-06
2.4554e-06
2.25159e-06
1.90588e-06
3.36212e-06
0.0397594
2.79936e-06
2.67183e-06
4.20293e-06
0.0166362
3.33244e-06
3.01607e-06
0.000278409
0.0332025
3.38836e-06
0.0189271
2.88578e-06
2.92949e-06
0.0346111
0.122103
2.88384e-06
1.7113e-06
6.6994e-05
3.16541e-05
3.72537e-06
3.57534e-06
3.96838e-06
2.06094e-06
0.0137867
0.0368935
2.38739e-06
2.19682e-06
1.24315e-05
0.0378231
0.0413677
1.66379e-06
2.27065e-06
0.0973313
2.352e-06
3.54259e-06
3.25446e-06
2.04175e-06
2.73912e-06
0.000159521
0.0200416
7.38741e-05
3.18311e-06
1.01916e-05
2.54721e-06
4.18121e-06
0.0735027
0.0346253
2.99257e-06
0.0203967
0.0166309
0.0297622
0.0348292
1.02979e-05
0.0456801
0.018522
2.92186e-06
0.0201516
2.73219e-06
6.33644e-06
2.03259e-06
1.68559e-06
9.47548e-06
0.00133824
2.21058e-06
0.000814244
0.0154399
2.04277e-06
4.01065e-06
2.56571e-06
0.023247
0.0488038
0.0196971
1.71421e-06
0.000586516
0.062278
2.35114e-06
1.69916e-06
2.94066e-06
2.23692e-06
0.214263
0.0320472
3.95333e-06
0.0398521
3.41469e-06
0.0100128
1.97968e-06
2.19763e-06
2.033e-06
0.0326001
1.65015e-06
3.1294e-06
0.0440574
0.0394773
5.1477e-06
0.0237801
1.71448e-06
3.26004e-06
3.71693e-06
0.00252274
1.0383e-05
0.00259883
2.02638e-06
0.0299765
0.0273587
2.00803e-06
0.0579504
2.27638e-06
0.0277944
2.02527e-06
3.10051e-05
0.0535936
8.97581e-06
1.80673e-06
0.0148534
0.0290865
3.10301e-06
0.176026
2.60973e-06
3.99992e-06
0.065492
0.0288769
3.95883e-06
3.30007e-06
1.9979e-06
0.0286322
0.0552954
3.10115e-06
2.14938e-05
2.05641e-06
1.65137e-06
2.91151e-06
3.64915e-06
1.12036e-05
1.92399e-06
0.149853
3.37447e-06
2.55571e-06
0.0178237
0.0629735
2.59082e-05
0.0201213
0.0103882
2.41794e-06
0.0629891
0.142145
2.23883e-06
0.0361018
4.27084e-06
1.9817e-06
2.53564e-06
0.0117466
2.23618e-06
3.07232e-06
2.08332e-06
2.08548e-06
0.0541411
3.13843e-06
0.0188074
2.80591e-06
3.64187e-06
2.54197e-06
1.91852e-06
1.71154e-06
0.0136441
3.16717e-06
3.42785e-06
3.85044e-06
1.95806e-06
3.06155e-06
1.64811e-06
6.20382e-06
2.3951e-06
2.02334e-06
1.82681e-06
0.413911
0.0197121
0.0420261
2.0769e-06
0.0232687
0.0346967
2.76729e-05
1.6628e-06
0.0530515
2.38147e-06
0.242017
3.1237e-06
8.10469e-06
0.00776493
0.00218092
0.0636185
0.00219951
0.0166932
1.6174e-06
0.0193084
2.72543e-06
2.25375e-06
2.24048e-06
2.72557e-06
3.17723e-06
0.0162542
2.53618e-06
1.93492e-06
0.041975
0.152254
3.69421e-06
1.62578e-06
2.21225e-06
4.10986e-06
2.33563e-06
2.04902e-06
2.60651e-06
0.000197547
2.03189e-06
0.0420966
0.0264244
0.0169893
0.0251833
5.98506e-05
2.23694e-06
3.62169e-06
0.0125047
2.52522e-06
0.0158713
0.0119541
1.93118e-06
2.15368e-06
0.0123066
0.0255739
0.0201881
2.02941e-06
2.23566e-06
2.13857e-06
0.0102436
0.0176355
0.0201823
4.35777e-06
0.0013001
0.0585184
4.10361e-06
0.00848866
0.138612
5.2342e-05
2.89441e-06
0.0203867
2.80662e-06
2.43814e-06
0.017012
2.27645e-06
4.07987e-06
9.066e-06
2.26235e-06
1.55611e-05
0.0170666
0.00974546
0.0693928
2.34145e-06
1.98423e-06
3.20815e-06
4.53377e-05
0.0113449
2.21962e-06
0.0604946
2.54069e-06
0.0290026
0.0408278
1.80936e-06
2.1896e-06
4.14077e-06
2.52109e-06
4.07947e-06
0.161151
3.85671e-06
0.0191994
2.25149e-06
2.24475e-06
2.15193e-06
0.186114
0.0191872
2.40241e-06
0.171219
2.52688e-06
0.00741624
3.14422e-06
3.53316e-06
0.000570503
2.187e-06
7.92223e-05
0.0480704
5.97707e-06
0.000145627
1.98296e-06
0.0172128
0.0209927
7.395e-05
1.71175e-06
2.20835e-06
1.93506e-06
3.5804e-06
1.7509e-05
2.17839e-06
1.97646e-06
1.72378e-05
2.28121e-06
0.00234997
2.797e-05
2.55624e-06
2.69228e-06
0.0119564
1.68105e-06
1.81763e-06
0.0122087
1.02794e-05
2.93534e-06
3.35763e-05
0.0248556
1.95593e-06
3.2907e-06
2.7254e-06
3.88597e-06
0.00218059
3.11896e-06
0.0156792
4.11954e-06
0.0375534
0.128427
0.00259873
0.00325147
3.68211e-06
1.9834e-06
0.000352651
2.77995e-06
0.0153284
1.96092e-06
2.4054e-06
1.73891e-06
1.89575e-06
0.00997334
2.09709e-06
3.19583e-06
2.20306e-06
1.96487e-06
0.00190105
2.2635e-06
0.0309818
2.90174e-06
3.62391e-06
3.10116e-06
0.0206008
0.0280553
0.355724
0.000896586
2.41615e-06
0.0161558
0.0277632
2.0593e-06
2.86356e-06
0.0151267
0.0168239
1.99271e-06
5.20411e-06
0.0247212
3.33839e-06
1.6719e-06
2.35471e-06
2.09017e-06
2.34646e-06
0.025369
0.11623
1.76808e-06
0.0166304
2.23913e-06
0.00178835
2.40789e-06
2.62954e-06
2.71102e-06
0.0205639
0.0138494
0.0102502
3.69827e-06
2.46584e-06
1.91258e-06
0.0193002
3.16731e-06
1.92085e-06
1.86861e-06
2.54035e-06
6.69346e-06
2.15061e-06
3.26533e-06
0.00396394
3.33118e-06
0.0512754
1.94796e-06
0.000829877
2.45629e-06
1.36437e-05
6.01192e-06
2.37327e-06
0.0368076
0.000423635
0.025381
3.64331e-06
2.24058e-06
9.14287e-06
0.0352751
2.84363e-06
2.20413e-06
1.73535e-06
0.0186787
1.81966e-06
3.30376e-06
1.78787e-05
2.25754e-06
1.70444e-06
3.59557e-06
2.65422e-06
2.64009e-06
1.94233e-06
0.000585135
1.9943e-06
1.77858e-06
2.11088e-06
0.0217522
2.62369e-06
1.9415e-06
2.37204e-06
3.17909e-06
2.77197e-06
1.27761e-05
0.0581436
8.26748e-05
1.77207e-06
1.96928e-06
0.0304807
0.0131716
0.0394656
0.0236782
1.21265e-05
2.81901e-05
2.92781e-06
2.13225e-06
0.0297935
0.0192067
0.0225839
3.37347e-06
6.08802e-06
3.23443e-06
0.0615904
0.0249179
3.03945e-06
8.73226e-06
2.23482e-06
0.0204721
0.0211358
0.0400221
2.28004e-06
0.00390436
4.1281e-06
1.64766e-06
0.0636935
4.27847e-06
1.71615e-06
0.0357452
0.00212159
2.64212e-06
0.0164294
1.33773e-05
1.68843e-06
0.000462958
1.71281e-06
0.129531
0.0450071
4.00645e-06
0.0165248
0.00158685
0.0327047
1.71206e-06
1.8766e-06
2.57949e-06
1.78928e-06
1.75297e-06
1.89003e-06
0.0375416
0.0172073
2.11382e-06
0.00221263
2.07236e-06
2.63782e-06
2.88101e-06
1.76302e-06
0.017395
0.0487895
0.0240027
0.0183313
3.28273e-06
2.04388e-06
0.00411771
1.82773e-06
2.20056e-05
7.36498e-05
0.0341583
0.0117122
2.10046e-06
2.6429e-06
1.825e-06
3.21233e-06
3.5071e-06
0.00526257
1.71553e-06
0.0030735
3.4002e-06
4.19783e-06
2.32352e-06
0.0321894
0.000305814
2.91807e-06
1.97727e-06
0.0285316
2.66927e-06
0.0223371
0.0174684
2.43556e-06
0.000305157
2.39078e-06
0.014804
0.0264569
0.0276446
7.68725e-05
3.35991e-06
2.64115e-06
0.00165558
2.22931e-06
0.0273188
0.0278628
0.00968324
2.26574e-06
2.30158e-06
1.9523e-06
2.26285e-06
0.0222613
0.0129427
1.29238e-05
4.43271e-06
1.77228e-06
1.39875e-05
2.54971e-06
1.80788e-06
6.53119e-06
0.0312265
0.0158861
0.00902642
2.44952e-06
0.000301724
0.02133
1.797e-06
1.78347e-06
4.12106e-06
1.11995e-05
2.00192e-06
2.10886e-06
1.98712e-06
3.64745e-06
1.86758e-06
7.95927e-06
3.18394e-06
8.01344e-06
0.0470876
0.0276954
0.0117671
0.0446005
2.31456e-06
2.28934e-06
0.149934
6.88444e-06
2.22708e-06
2.0976e-06
0.00267792
2.38046e-06
5.63014e-06
3.51164e-06
1.69032e-06
0.0185407
0.0160692
0.246746
3.03746e-06
0.0243494
2.2199e-06
2.19066e-05
0.0198963
2.37643e-06
2.76355e-06
2.72743e-06
0.00200073
0.0141388
1.87738e-06
0.0226644
0.0186911
0.00106791
2.03994e-06
0.0243474
2.34431e-06
0.106196
4.15407e-06
4.10242e-06
2.91614e-06
2.8615e-06
1.72468e-06
2.00275e-06
2.83091e-06
0.000273578
2.7018e-06
2.04818e-06
0.0128573
3.13148e-06
3.03347e-06
0.0179609
0.00340207
0.0623142
1.88248e-06
2.48719e-06
2.40931e-06
4.17857e-06
0.0120757
1.77296e-05
5.93554e-06
0.0261267
0.0395555
2.14046e-06
2.42924e-06
1.94247e-06
4.1558e-06
2.03242e-06
1.81074e-06
2.38047e-06
1.6957e-06
3.33852e-06
2.31683e-06
3.37432e-06
5.50092e-06
8.20714e-06
1.89303e-06
0.0295623
2.8898e-06
2.1949e-06
0.0117302
2.11989e-06
0.0165553
7.00316e-05
3.01696e-06
4.14357e-05
0.0400403
0.00218315
1.87213e-06
0.0800924
2.13868e-06
0.0241644
1.90537e-06
0.0301807
0.0181546
0.00478096
2.59228e-06
0.0158764
2.55917e-06
3.78299e-06
2.37936e-06
0.0117343
2.01325e-06
0.0424119
0.0174897
0.00875653
2.17276e-06
0.0204404
0.0120535
2.5958e-06
1.71123e-06
2.57142e-06
2.29787e-06
0.0357291
2.12092e-06
1.84679e-06
0.0150811
3.24132e-06
0.026255
2.27611e-06
2.19766e-06
0.0168492
2.12241e-06
0.00236571
1.96345e-06
0.0248345
3.25168e-06
0.00212517
4.07714e-06
1.6795e-06
0.0291374
1.26001e-05
2.02693e-06
2.16966e-06
0.0181823
1.69581e-06
2.60628e-06
0.0170976
2.35219e-06
0.0201519
3.68895e-05
3.82882e-06
0.0207477
0.0240774
7.60921e-06
3.46651e-06
2.18499e-06
0.0133727
2.47609e-06
4.09447e-06
1.99805e-06
3.37039e-06
2.31483e-06
1.88188e-06
1.00425e-05
3.5093e-06
0.0349489
0.00665817
0.0593429
2.12349e-06
2.52578e-06
3.8683e-06
1.8463e-06
5.13616e-06
1.6567e-06
0.402441
0.183804
0.00878349
0.0224487
0.000587219
0.0107484
4.3098e-05
1.83992e-06
2.90239e-06
1.99028e-06
4.06175e-06
4.2561e-06
1.68724e-06
0.00228249
3.27034e-06
2.4333e-05
2.21533e-06
0.116777
0.0599415
1.88034e-06
0.0174105
0.0167624
2.31625e-06
1.94762e-06
2.60756e-06
0.0544956
2.24612e-05
0.0819207
3.44409e-06
0.00210697
5.872e-06
0.0160392
0.0256238
0.0146856
3.6499e-06
0.0358751
1.05946e-05
0.0334991
2.18535e-06
0.0157355
1.83788e-06
1.6616e-06
1.67427e-06
3.09275e-06
2.73312e-06
1.71431e-06
2.49411e-06
3.41395e-06
0.0156694
0.0358256
0.000111811
0.000407802
1.84693e-06
2.28607e-06
2.07798e-06
0.00139
0.000924784
2.54848e-06
0.126814
2.87238e-06
2.69586e-06
2.31699e-06
0.0776763
2.20689e-06
0.0553167
2.07726e-06
0.0152022
1.74834e-06
2.51082e-05
2.22196e-06
0.000169531
3.47253e-06
3.4053e-06
3.60899e-06
0.0256975
2.88911e-06
2.55405e-06
1.93734e-06
0.0157705
2.02679e-06
2.06323e-06
3.2926e-06
0.089939
2.81371e-06
7.67514e-06
2.25743e-06
3.22527e-06
0.0145732
2.19668e-06
0.0807923
1.74452e-06
0.0159919
1.71252e-06
0.000342114
2.07928e-06
0.0307989
2.97169e-06
2.32141e-06
2.234e-06
3.40331e-06
2.55482e-06
2.6528e-06
4.19595e-06
0.00862039
2.88177e-06
3.75403e-06
0.0405494
1.86752e-06
0.029812
3.02342e-06
0.0278032
0.0702545
0.0303528
2.57459e-06
0.00129235
0.0333741
2.21604e-06
0.00305496
1.96847e-06
2.57309e-06
7.76839e-06
2.38139e-06
0.109667
2.0456e-06
3.29365e-06
0.0121203
2.12656e-05
1.77892e-06
0.0289328
1.66523e-06
1.1467e-05
2.57399e-06
3.84462e-06
0.0239634
0.0270113
0.00258448
0.0205941
0.0487877
1.8979e-06
0.040647
0.00119324
0.000141736
1.87118e-06
0.0183052
2.23233e-06
0.0022874
0.016981
5.74654e-06
8.07331e-06
2.98789e-06
1.7716e-06
0.0362051
2.30104e-06
0.0144283
0.00229988
0.0103942
2.3309e-06
1.91531e-06
0.0101733
2.63924e-06
6.25783e-06
0.0168827
2.36037e-06
0.0191514
3.44497e-06
0.000193332
2.28882e-06
0.0318831
0.000350583
0.067453
0.030611
0.0748308
0.0353304
0.000325177
2.63494e-06
0.0152032
0.00115658
2.54876e-06
2.30489e-06
1.83593e-06
4.0077e-05
0.0286832
0.0109752
3.13449e-06
0.0706339
1.93105e-06
1.79292e-06
2.23658e-06
2.14055e-06
0.022774
0.100836
0.025343
0.01029
1.95431e-06
1.94111e-06
0.0178696
1.78393e-06
2.07936e-06
1.70992e-06
0.0199227
2.41145e-06
3.3161e-06
0.00471806
0.113025
0.0154413
1.88039e-06
0.0185623
2.61075e-06
2.97999e-06
0.0327657
0.00568224
1.79625e-06
0.0182666
0.00310277
2.46987e-05
2.4002e-06
0.00270371
4.24657e-06
0.0155116
1.93336e-06
0.0273494
0.0140772
3.86941e-06
0.0501427
0.0161715
2.0717e-06
0.0159415
2.03235e-06
0.0105761
1.70668e-06
0.017945
0.0160421
0.0252362
3.37062e-06
0.024941
0.038083
0.0145595
1.93055e-06
4.06505e-06
8.23328e-05
0.0279092
2.24167e-06
1.89549e-06
6.07238e-06
2.99239e-06
0.0152547
2.63318e-06
2.00699e-06
0.0604327
5.36084e-06
3.68889e-06
0.0124873
1.98489e-06
2.20436e-06
0.0593846
1.81144e-06
1.95937e-05
2.2915e-06
2.13608e-06
0.0226921
0.000130993
1.83392e-06
0.0209688
1.95522e-06
0.00984346
0.0174666
3.23561e-06
2.722e-06
2.35822e-06
0.0199361
0.00241703
3.66959e-06
0.0144819
0.0313534
0.029687
0.00539059
0.0036681
1.99556e-06
5.55882e-06
1.68634e-05
0.0164498
2.97214e-06
0.113147
2.17854e-06
4.77443e-06
0.056487
1.69534e-06
3.32268e-06
2.21622e-06
3.31998e-06
3.21709e-06
0.0208543
0.0109867
2.29418e-06
0.0136839
1.70262e-06
0.0235044
0.0171387
0.00219679
1.33612e-05
0.0218739
2.53091e-06
2.64585e-06
0.0183358
0.0166742
1.78456e-05
2.41474e-06
2.22075e-06
2.66061e-06
0.0167765
0.0216528
2.20576e-06
3.68908e-06
8.10491e-06
2.97738e-06
0.116463
0.054745
1.92382e-06
2.20532e-06
2.71342e-06
2.85754e-06
0.00303164
2.95545e-06
2.3483e-06
1.76881e-06
2.83955e-06
1.71884e-06
2.03263e-06
1.90968e-06
0.0251892
0.00881421
0.0146158
3.33106e-06
3.4885e-06
2.5734e-06
0.0100631
3.35536e-06
0.0905332
2.62417e-06
2.61703e-06
0.0206079
2.16085e-06
2.3094e-06
3.28106e-06
2.15953e-06
1.71611e-06
0.00166237
0.0389606
3.46863e-06
0.0171277
3.14036e-06
2.35865e-06
2.86234e-06
1.99031e-06
1.96465e-06
0.0293334
2.0124e-06
0.0232641
2.3632e-06
0.0112232
2.16681e-06
2.07256e-06
0.015492
0.0131753
1.83488e-06
2.17853e-06
5.73698e-06
1.76786e-06
2.8662e-06
2.20867e-06
1.73292e-06
0.043074
2.28523e-06
0.00205313
1.62687e-06
0.0243161
0.000207708
3.57131e-06
0.00387423
0.0311221
2.24546e-06
1.70046e-06
0.0152339
8.04991e-05
1.89237e-06
3.24514e-06
0.00074374
1.69555e-06
2.94037e-06
1.72938e-06
2.61476e-06
2.94639e-05
2.49016e-06
0.0131476
2.63182e-06
2.76668e-06
2.65872e-06
0.00014551
0.014087
2.23707e-06
0.00907865
2.3994e-06
1.67867e-06
1.90483e-06
1.27643e-05
3.19325e-06
2.44005e-06
0.0522079
1.89482e-06
1.88266e-06
0.000242422
0.068975
2.18529e-06
0.0203994
2.38089e-06
0.0947365
4.11974e-06
1.91868e-06
0.00980288
6.91472e-06
3.75518e-06
3.51951e-06
0.0265703
2.01743e-06
1.66224e-06
0.128716
0.112538
3.29838e-06
0.00408125
2.3215e-06
0.0374586
2.66181e-06
1.90458e-06
2.65938e-06
0.0425795
3.67044e-06
3.46455e-06
0.0152471
3.09735e-06
3.0786e-06
1.3613e-05
2.28086e-06
2.11925e-06
0.00885869
0.0313858
1.84642e-06
2.87757e-06
2.67198e-06
0.00604931
1.74053e-06
0.0371225
1.3024e-05
0.0301028
4.1078e-06
3.62331e-05
0.0229427
4.57553e-06
0.00513888
2.01438e-06
2.25417e-06
2.20719e-06
0.0134787
1.65295e-06
3.34021e-06
4.10515e-06
0.0297281
0.00689311
0.00742394
0.0725335
0.0124719
2.20569e-06
0.00887752
2.25052e-06
2.2769e-06
2.92284e-06
2.4831e-06
2.32777e-06
0.0523798
0.0144116
2.41593e-06
0.0976258
0.0371142
8.57191e-05
0.0191513
2.30756e-06
0.0180277
0.0270232
1.854e-06
1.82592e-06
2.67294e-06
0.0111633
3.27921e-06
4.25561e-06
2.52107e-06
0.0511747
0.00207291
0.0206471
0.0301887
1.70393e-06
1.76653e-06
0.0139511
2.14724e-06
1.73189e-06
0.00844231
2.25081e-06
2.07509e-06
2.7896e-05
2.80116e-06
1.67625e-06
1.92377e-05
0.00209129
0.133376
2.15626e-06
0.0464569
0.00111059
0.0197107
0.018016
2.43415e-06
2.61615e-06
0.0635107
0.0296802
3.2887e-06
0.0183477
0.0022675
1.73148e-06
2.89419e-06
0.0220817
3.15409e-05
4.59974e-06
2.28252e-06
0.0126011
8.79777e-05
2.54081e-06
1.01406e-05
0.000821405
1.73002e-06
3.22244e-06
1.95053e-06
0.0203069
1.03941e-05
2.60686e-06
2.0727e-06
1.96989e-06
2.46989e-06
3.65277e-06
0.0102813
0.0321529
4.08668e-06
0.0416979
2.94441e-06
0.0205146
5.86622e-06
0.0203309
3.23775e-06
2.06525e-06
0.190589
2.68687e-06
0.00234846
0.0198068
0.0139708
0.0219508
3.18803e-06
2.03946e-06
2.56131e-06
2.66785e-06
1.99578e-05
2.04214e-06
1.83373e-06
1.66553e-06
0.000432226
2.54311e-06
2.8966e-06
0.0201009
3.45716e-06
5.52116e-06
2.22844e-06
3.36136e-06
0.0208329
2.87618e-06
2.24221e-06
3.44841e-06
0.0074375
0.0347573
2.63394e-06
2.59078e-06
2.17783e-06
0.00802488
2.2399e-06
0.0266633
0.0170264
0.0186753
2.249e-06
0.00199184
2.14267e-06
1.8435e-05
2.14287e-06
0.00747972
3.52607e-06
2.05718e-05
2.16443e-06
1.76607e-06
2.5255e-06
2.38492e-06
0.00228253
0.000116664
0.0163816
0.00786573
2.84232e-06
0.00210408
1.86366e-06
1.81587e-06
3.92275e-06
0.0173648
1.66795e-06
2.0628e-06
0.000424614
4.12124e-06
0.0288215
4.13166e-06
2.21951e-06
2.5855e-06
1.82559e-06
2.79997e-06
3.94688e-06
0.051927
1.87053e-06
0.0346096
2.9555e-06
1.6738e-06
0.0341406
5.27673e-05
1.80279e-06
0.0200985
2.8081e-06
1.73873e-06
2.58789e-06
2.54663e-06
4.1579e-06
0.021324
0.000301288
0.0442537
2.90645e-06
2.18487e-05
3.48113e-06
2.92432e-06
0.0184547
1.62224e-06
3.20773e-06
0.0625952
2.05423e-06
2.2487e-06
2.19952e-06
1.39382e-05
0.0191638
0.0212018
0.0161651
3.28092e-06
3.23106e-06
2.19397e-06
0.0314781
1.78336e-06
2.64562e-06
2.50004e-06
2.24331e-06
0.0431283
3.63142e-06
3.33903e-06
2.16718e-06
3.04793e-06
3.37572e-05
0.00245538
2.06741e-06
0.013532
0.00512998
7.25935e-06
2.74981e-06
7.45172e-06
2.6039e-06
0.000904274
0.000174742
1.92253e-06
3.30242e-06
3.5233e-06
1.77296e-06
3.34435e-06
2.29243e-06
1.67616e-06
0.0791615
2.45736e-06
2.21609e-06
3.56916e-06
0.0251805
0.00287102
2.26055e-06
6.59356e-06
2.64511e-06
1.74733e-06
8.692e-05
1.37832e-05
2.01147e-06
0.07008
0.0190233
2.01902e-06
1.8943e-06
0.0836235
2.90073e-06
2.91059e-06
2.34854e-06
2.18814e-06
6.13132e-05
0.0246476
2.98646e-06
0.00214265
0.00845754
2.90988e-06
1.75296e-06
2.51385e-06
0.0219204
0.0162817
3.26404e-06
0.00104907
0.00128697
0.0169134
5.87427e-06
2.41102e-06
2.36912e-06
0.031179
2.25905e-06
6.33371e-06
0.0413639
0.0060017
1.42292e-05
3.1798e-06
0.051698
2.82734e-06
4.08579e-06
0.029679
0.0128797
1.58375e-05
0.0428767
0.00833047
2.45195e-06
1.66569e-06
1.87081e-06
2.70682e-06
2.30993e-06
0.0132614
0.0274162
2.82543e-06
1.72982e-06
1.83528e-06
1.67913e-06
0.0157206
3.26793e-06
2.08928e-06
0.00015081
0.0114369
7.37053e-06
0.0273867
1.76391e-06
2.20398e-06
2.14142e-06
2.03519e-06
1.81122e-06
2.25248e-06
2.14216e-06
9.22262e-06
0.0532891
3.17353e-06
0.00670551
3.46094e-05
0.130318
3.51083e-06
2.57511e-06
0.00935004
2.62805e-06
2.62093e-06
0.0025025
0.0181
8.88239e-05
0.0310456
0.0253662
0.0748179
0.0176394
0.0390977
1.80494e-06
3.00433e-06
2.13769e-05
1.9615e-06
2.51264e-06
0.000279756
1.90658e-06
0.00739061
2.17686e-05
0.0336741
0.0024332
1.95577e-06
1.04945e-05
2.54016e-06
2.6206e-06
1.94432e-06
3.29921e-06
0.0337349
0.0207278
0.0261839
2.11809e-06
2.25812e-06
3.72786e-06
2.57293e-06
0.0474546
3.84817e-05
0.00227581
1.05802e-05
2.66316e-06
1.87822e-06
2.39988e-06
0.0607452
2.09751e-06
0.1663
2.19055e-06
2.21029e-06
1.16518e-05
0.0138905
7.91166e-06
2.8198e-06
0.0349437
4.34789e-06
1.85902e-06
0.00209244
2.54289e-06
0.0257281
1.96687e-06
2.90978e-06
5.03366e-06
3.38714e-06
1.84776e-06
1.87647e-06
0.147843
2.19245e-06
0.0424199
0.00834064
0.0570259
3.39342e-06
2.90747e-06
0.00177183
2.0799e-06
2.20076e-06
0.0312675
0.0918319
2.46183e-06
1.6814e-06
3.84564e-06
0.201841
3.42548e-06
0.0172198
0.000325485
0.0104111
2.13868e-06
1.12244e-05
4.18804e-06
1.8597e-06
1.98384e-06
0.0375871
4.21223e-06
2.21584e-06
3.27569e-06
0.00704303
0.0232501
2.20809e-06
0.024788
3.42956e-06
3.46294e-06
2.19059e-06
0.0597516
1.93083e-06
2.71086e-06
2.06995e-06
2.01463e-06
3.17348e-05
0.0156106
0.0352678
2.23305e-06
2.2716e-06
0.000262832
0.00105976
0.0193362
0.0245843
7.53895e-05
2.29077e-06
2.41194e-06
4.95258e-06
0.00203452
3.30069e-06
0.000231114
3.59379e-06
3.51646e-06
1.64188e-06
9.25157e-06
2.81716e-06
3.17177e-06
2.0129e-06
2.23879e-06
0.00248605
2.33758e-06
1.72607e-06
1.825e-06
0.00545674
0.00218103
1.9559e-06
0.0370412
2.88437e-06
2.39651e-06
0.00858753
0.0150044
0.0277408
3.37376e-06
0.00157504
0.0877235
2.19454e-06
1.99607e-06
3.30884e-06
3.0971e-06
2.11004e-06
2.04943e-06
1.82018e-06
1.63247e-06
2.22354e-06
0.013203
0.0342594
9.31574e-05
0.0492281
1.73036e-06
2.62706e-06
0.0298748
2.18666e-06
0.0126351
1.79771e-06
1.66181e-06
4.58573e-06
1.97191e-06
3.94647e-06
1.7352e-06
2.42237e-06
2.09718e-06
0.00460736
1.76154e-06
4.82377e-05
0.0594935
0.016937
0.30548
2.62506e-06
1.86567e-06
0.0358165
0.0280075
3.24005e-06
1.63138e-05
0.0789644
5.19017e-06
0.0247495
2.37236e-06
2.23675e-06
0.00514281
2.3002e-06
3.70868e-05
6.24463e-06
2.69805e-06
5.03943e-06
2.6104e-06
2.03374e-06
3.28141e-06
2.02455e-06
0.002388
0.0207489
2.29806e-06
0.0164121
0.041025
2.16143e-06
2.03905e-06
0.00434607
0.121412
3.35179e-06
0.0158645
2.55703e-06
0.106499
1.8888e-06
0.0201901
0.00257277
2.08385e-06
0.0177866
0.00107415
7.4615e-06
1.03134e-05
0.0247608
8.19621e-06
2.32484e-06
0.028093
0.0180515
1.92808e-06
2.66705e-06
1.79555e-06
0.000375294
4.10013e-06
2.70108e-06
3.43762e-06
1.88494e-06
2.28839e-06
0.0786639
2.64877e-06
0.0939305
0.133919
0.0405464
0.105024
2.88676e-06
1.78598e-06
2.86534e-06
2.20046e-06
1.6286e-06
3.57319e-06
0.0106592
0.0731623
2.6794e-06
3.18639e-06
1.09907e-05
0.0255759
1.72785e-06
0.000154981
2.49663e-06
1.93854e-06
2.80459e-06
0.0153565
1.64883e-06
2.63167e-06
1.77848e-06
0.0164057
0.00381522
2.36916e-06
2.30663e-06
2.12304e-06
0.0176531
1.68167e-06
0.0231059
0.0129088
0.0664227
3.35231e-06
2.60287e-06
0.0136522
1.72955e-06
1.86985e-06
1.81308e-06
3.59388e-06
0.0194011
1.88658e-06
2.87084e-06
4.14074e-06
3.26283e-06
2.69358e-06
0.020876
2.53258e-06
0.0135737
2.87289e-06
0.0191592
0.0254942
0.0366163
2.11893e-06
1.6655e-06
0.0265151
0.0215898
0.00129351
0.049576
3.08884e-06
2.20299e-06
2.04746e-06
0.112867
2.00581e-06
8.42802e-05
0.284337
2.75952e-06
0.0183917
0.0247739
0.0276465
4.19021e-06
2.2338e-06
1.98467e-06
2.34362e-06
3.14887e-06
2.06303e-06
2.96859e-06
0.0142021
0.0147796
0.0524403
2.26617e-06
2.1488e-06
2.87671e-06
0.0149122
1.78959e-06
0.0123275
0.018577
0.00206204
2.37927e-06
2.01563e-06
3.52276e-06
2.36717e-06
2.10097e-06
0.0178128
2.58524e-06
0.0518334
9.79487e-05
0.0390349
1.74451e-06
3.64696e-06
0.00562079
1.67109e-06
0.0570267
0.0103733
0.0197974
2.79296e-06
0.0276577
0.00271082
2.76332e-06
0.0168043
0.0290792
2.95884e-06
0.0193018
0.0135057
0.0182044
3.15931e-06
2.50404e-06
2.48959e-06
0.0491577
0.00016083
2.90539e-06
0.0184674
5.67339e-06
5.39309e-06
0.034678
0.000344991
0.0609678
4.19149e-06
2.13045e-06
5.31724e-06
0.195537
0.0165327
0.0218218
3.4805e-06
0.0192087
2.58961e-05
9.59214e-05
2.24637e-06
2.43965e-06
2.13831e-06
0.0265822
0.000880243
0.11709
0.0530656
1.93315e-06
2.50528e-06
0.0120004
1.5363e-05
2.35525e-06
0.0341113
2.14199e-06
3.4693e-06
2.94396e-06
2.9582e-06
0.0153967
2.10134e-06
0.0509862
2.85557e-06
1.77343e-06
2.19279e-06
3.30286e-06
1.8391e-06
2.17207e-06
0.0299781
1.86256e-06
7.0945e-06
0.0217484
3.943e-06
2.63949e-06
0.140267
1.71598e-06
0.00266184
8.26676e-05
3.08205e-06
4.20343e-06
1.82534e-06
3.62556e-06
3.18798e-06
1.87514e-06
2.20926e-06
2.22708e-06
0.0217481
2.25577e-06
2.48689e-06
2.00327e-06
2.08879e-06
0.0217668
0.0228032
4.34776e-06
3.2042e-06
2.01848e-06
0.062405
4.37767e-06
2.65739e-06
3.08764e-06
3.63995e-06
1.95156e-06
0.0204203
0.0161612
3.06891e-06
0.0193043
0.021766
0.000657659
0.095533
0.0169915
2.34038e-06
0.0023065
0.00241101
2.62383e-06
2.92903e-06
0.0282433
1.7839e-06
0.0595951
2.91124e-06
2.39942e-06
2.19184e-06
0.0255419
0.0137948
2.02575e-06
0.0202119
5.75058e-06
2.90233e-06
3.01086e-06
8.31427e-06
3.95878e-06
2.0412e-06
4.82235e-06
2.19817e-06
0.0489734
0.0156222
2.72955e-06
2.01306e-06
1.49994e-05
1.70929e-06
1.99142e-06
0.014125
4.07963e-06
0.0266729
0.0143474
2.87857e-06
0.0161454
2.41853e-06
0.0820656
2.08319e-06
1.25251e-05
2.24887e-06
2.62858e-06
3.2196e-06
2.95386e-06
0.00708343
2.45156e-06
0.00307321
2.03506e-06
0.0366711
0.0065362
1.07969e-05
0.0793976
0.00454959
0.0419193
0.00228949
6.47136e-06
1.88299e-06
1.98048e-06
3.30967e-06
1.7077e-06
0.0171741
0.0213207
3.30812e-06
1.93157e-06
2.10866e-06
3.27153e-06
0.000120484
0.016582
2.44973e-06
8.25938e-06
0.000723001
2.39894e-06
0.0126856
0.00254247
0.0303166
2.23517e-06
1.75065e-06
4.09037e-06
1.75e-06
1.81197e-06
6.35342e-06
2.20481e-06
2.15903e-06
1.88782e-06
2.86959e-05
3.31798e-06
3.64214e-06
2.14119e-06
2.03313e-06
2.73559e-06
2.54779e-06
1.8737e-06
3.87169e-06
0.011633
2.04448e-06
0.000229718
9.39799e-06
1.8777e-06
1.0447e-05
0.034822
3.72212e-06
0.0269165
0.0161651
2.11489e-06
3.42256e-06
3.46179e-06
2.48941e-06
3.17566e-06
0.000127968
1.62593e-06
0.0245378
4.32735e-06
0.0351917
0.0285277
1.07897e-05
1.84741e-06
2.52412e-06
0.0305469
5.92991e-06
0.0142933
0.0465024
0.0621222
0.00203202
0.0410305
1.96863e-06
2.22254e-05
0.0409372
0.0437854
1.85929e-06
2.38626e-06
0.00532342
2.12991e-06
0.0193013
0.00209685
3.05216e-05
2.47062e-06
1.3613e-05
0.0524626
0.0248565
2.15857e-06
0.00465062
2.26529e-06
1.64704e-06
0.0192853
0.0598635
2.32018e-06
2.91366e-06
1.75279e-06
0.00988017
1.86658e-06
0.0316787
0.0432073
0.132415
3.39841e-06
3.34482e-06
0.00229491
0.00197805
9.11794e-06
1.97862e-06
1.9085e-06
0.0023048
0.00275924
0.0235537
0.0164891
0.0441577
3.29284e-05
2.45657e-06
0.00317702
6.80547e-06
2.04785e-06
0.0475
0.00213178
1.73475e-06
0.00967507
0.0182232
0.0178505
1.92922e-06
3.68384e-06
5.47711e-05
4.86214e-06
3.26801e-06
2.16208e-06