/*--------------------------------*- C++ -*----------------------------------*\
| =========                 |                                                 |
| \\      /  F ield         | OpenFOAM: The Open Source CFD Toolbox           |
|  \\    /   O peration     | Version:  v2012                                 |
|   \\  /    A nd           | Website:  www.openfoam.com                      |
|    \\/     M anipulation  |                                                 |
\*---------------------------------------------------------------------------*/
FoamFile
{
    version     2.0;
    format      ascii;
    class       volScalarField;
    location    "300";
    object      nut;
}
// * * * * * * * * * * * * * * * * * * * * * * * * * * * * * * * * * * * * * //

dimensions      [0 2 -1 0 0 0 0];


internalField   nonuniform List<scalar> 
18166
(
0.000486874
0.000460381
0.000468558
0.000605914
0.00567705
0.000516633
0.000457256
0.000397461
0.0173157
0.00868114
0.000462928
0.000460905
0.00899668
0.00258594
0.014993
0.00222539
0.000464961
0.00851601
0.000460211
0.0064794
0.000839706
0.000465004
0.000829145
0.000463593
0.000459579
0.000457424
0.000477911
0.000464057
0.00045905
0.000620486
0.000611894
0.000452585
0.000458609
0.000460141
0.000451115
0.000463014
0.0178242
0.000463184
0.000453621
0.00896517
0.000468552
0.00691649
0.00045852
0.00045937
0.000489059
0.000465275
0.000562329
0.000200042
0.000869865
0.000473517
0.000484839
0.000486124
0.000897132
0.000467438
0.000463169
0.00628985
0.00687616
0.00097808
0.000458795
0.000459528
0.000551277
0.000458941
0.00718211
0.000470795
0.00152222
0.000464028
0.0144979
0.0195894
0.00860585
0.000465151
0.000451231
0.000456945
0.000488212
0.000459273
0.000503204
0.0095879
0.000904788
0.00927795
0.000459992
0.000463828
0.000468418
0.0193382
0.00046418
0.000462875
0.0004537
0.00045376
0.000459749
0.000460753
0.000486079
0.000453791
0.00492888
0.000510681
0.00508723
0.000468985
0.000468488
0.000453813
0.000453289
0.000593143
0.000460832
0.000463434
0.000461022
0.000465532
0.0136911
0.000470615
0.000465181
0.000465733
0.000615946
0.00685579
0.000460044
0.000463718
0.00380289
0.0184198
0.0169715
0.0152793
0.000465717
0.00045198
0.000602641
0.00295834
0.000458536
0.0191788
0.0101718
0.000459055
0.00189635
0.0147654
0.000703083
0.000461021
0.000465984
0.00845704
0.000468372
0.000503234
0.000754102
0.00491396
0.000457414
0.0133295
0.000465697
0.000559279
0.00046328
0.000459191
0.000458126
0.00544825
0.0163819
0.0018567
0.00189503
0.0127008
0.000460005
0.00945042
0.000435745
0.0110682
0.000453241
0.000459606
0.000453539
0.0112438
0.000764048
0.000704585
0.000468318
0.00046401
0.00045761
0.00530255
0.000463439
0.00842036
0.000454859
0.0182573
0.000459422
0.000457635
0.000486378
0.00495615
0.000465602
0.0121877
0.0195815
0.00310646
0.00104794
0.0140305
0.000500157
0.0193304
0.00518545
0.000460103
0.00257232
0.0198583
0.000459941
0.00046081
0.000465659
0.000494645
0.00120299
0.00237029
0.00715789
0.000458913
0.000541865
0.00058989
0.00046311
0.00045193
0.000561911
0.000460174
0.000482233
0.000463199
0.000481772
0.00219574
0.000507238
0.000480667
0.00326859
0.00800308
0.00104905
0.01447
0.000452388
0.0104495
0.000458136
0.000486751
0.0194403
0.00474562
0.00670337
0.000395304
0.00581274
0.0168552
0.000460201
0.000464809
0.000486303
0.000503613
0.000896983
0.000595395
0.0197487
0.0191488
0.000457936
0.000460669
0.000459244
0.000546965
0.00440452
0.00045639
0.000578838
0.000458742
0.00045906
0.000452448
0.00513151
0.0172166
0.00045484
0.0110831
0.000462349
0.000453674
0.000484639
0.000532925
0.014617
0.00833973
0.000482175
0.01883
0.00712402
0.000459346
0.0118712
0.000459135
0.000602009
0.0186037
0.0144329
0.000457146
0.000491153
0.000465746
0.000458208
0.00046766
0.00973279
0.00385399
0.000464747
0.0192712
0.00418281
0.000457954
0.000464359
0.0104646
0.000558419
0.000864186
0.00186874
0.0188646
0.0164777
0.000459441
0.00046867
0.000463965
0.000476928
0.00046471
0.000460118
0.0195752
0.000486237
0.00569903
0.0196879
0.00045852
0.00858154
0.000453345
0.000550181
0.0155079
0.000459076
0.000452242
0.000457767
0.000639237
0.000458822
0.000455132
0.0182185
0.00046604
0.000464441
0.000547439
0.000459755
0.000464755
0.000459305
0.0029638
0.000456963
0.000465061
0.00045663
0.0101761
0.019114
0.000463835
0.000457417
0.000460053
0.0101577
0.000458321
0.00631231
0.000728118
0.000459181
0.000451627
0.000457205
0.00563681
0.00869229
0.000466049
0.000465729
0.00426413
0.000746186
0.000459881
0.000464347
0.00337361
0.000460272
0.00046042
0.0158297
0.000552787
0.000490466
0.000473951
0.000455187
0.000458373
0.00045293
0.0175435
0.000459292
0.0124598
0.000452046
0.000452235
0.001877
0.0174989
0.00110512
0.0195095
0.00660059
0.0190261
0.000453195
0.015906
0.00349345
0.0100061
0.000453598
0.00046348
0.000457192
0.000466368
0.000456302
0.000524526
0.000458994
0.000543016
0.000464877
0.000459548
0.000697127
0.000459561
0.000721759
0.000481914
0.000463335
0.000453077
0.00046113
0.0184005
0.00339103
0.000464832
0.000457426
0.000462114
0.000468779
0.000829096
0.00046897
0.0130719
0.0104025
0.000460268
0.000460349
0.00511803
0.0183508
0.00339388
0.00957717
0.000468211
0.0004823
0.0010462
0.000452329
0.00665602
0.0018828
0.000459703
0.000458816
0.000460569
0.000464098
0.00046893
0.0152425
0.000460502
0.000451492
0.00046003
0.000454194
0.0145925
0.0016556
0.000467933
0.000465261
0.00374954
0.000457883
0.000458172
0.000456961
0.00149932
0.0175609
0.000468887
0.00803011
0.000453677
0.000452577
0.00544353
0.00795909
0.000458467
0.00883818
0.00468495
0.000506154
0.00633656
0.000457377
0.000462873
0.000639508
0.00159803
0.000450792
0.000464453
0.000455522
0.000461151
0.00605219
0.000459775
0.00835273
0.000468943
0.000889354
0.000460102
0.00368592
0.000429172
0.000463435
0.00368409
0.00049558
0.000455485
0.000481059
0.0136101
0.00979793
0.000467004
0.0133761
0.000472225
0.000454024
0.0142027
0.0167763
0.0004605
0.0180583
0.0160103
0.00046418
0.000525322
0.000888442
0.000452583
0.000533326
0.0190791
0.0042752
0.000486337
0.0132753
0.00629975
0.00264931
0.000571287
0.000454227
0.00745712
0.000460359
0.000458307
0.00466225
0.00588446
0.000458221
0.000458459
0.00047221
0.000457035
0.000459181
0.000457093
0.000453959
0.000563126
0.015271
0.000461163
0.000546769
0.000469096
0.010242
0.000464525
0.000462578
0.000159472
0.0138635
0.000562982
0.0190787
0.000461846
0.000462108
0.019052
0.00800325
0.000539201
0.000453405
0.00181053
0.00161779
0.000466677
0.000465927
0.000467902
0.000457304
0.0179521
0.0190971
0.000458529
0.000457859
0.000935595
0.00947913
0.00128202
0.000451429
0.000458739
0.00913638
0.000458283
0.000465551
0.000464059
0.000455264
0.000533757
0.00247712
0.0111969
0.0018576
0.000463621
0.000955698
0.000459414
0.000469031
0.0153637
0.0103115
0.000537031
0.0198933
0.0174602
0.0127075
0.0189381
0.000948442
0.0188303
0.00590182
0.000573027
0.00671891
0.000460816
0.000714013
0.000456958
0.000454105
0.00090936
0.00336113
0.000458709
0.0051641
0.0086264
0.000482678
0.00046813
0.000459829
0.0109389
0.0178177
0.019522
0.00045202
0.00502129
0.00826282
0.00045869
0.000453869
0.000461941
0.000461783
0.00527981
0.00515048
0.000467961
0.0194499
0.000465035
0.0145672
0.000460317
0.000457221
0.000463549
0.00811797
0.000451631
0.000463301
0.0158025
0.019269
0.000676908
0.0126453
0.000453296
0.000464162
0.000466692
0.010267
0.000884378
0.00400286
0.000467576
0.0122001
0.0198295
0.000484882
0.000387288
0.000458776
0.00592988
0.000455176
0.00188062
0.0183423
0.000830241
0.000457629
0.0186237
0.00553624
0.000463096
0.00762635
0.000459973
0.000468074
0.000376865
0.0185254
0.000467901
0.00046437
0.000454213
0.0050913
0.0173115
0.000463163
0.000993463
0.000459163
0.000452325
0.000461949
0.000594544
0.000978695
0.000459596
0.00852733
0.000464863
0.00045942
0.019522
0.00151883
0.00313807
0.0043559
0.00881848
0.000459035
0.00888101
0.00895121
0.000460546
0.00727224
0.000616046
0.000459666
0.000505647
0.0135528
0.000464287
0.00056238
0.00045745
0.000470901
0.00832861
0.000463361
0.0201386
0.000539213
0.000579274
0.000499353
0.000454139
0.000453624
0.005442
0.000463584
0.000465105
0.0006202
0.00045448
0.00055167
0.000452351
0.000747507
0.000458608
0.000468203
0.000453227
0.00202274
0.00528587
0.00544821
0.000457274
0.00501948
0.0189773
0.00123604
0.000451833
0.0178625
0.000458776
0.00220812
0.000463289
0.000808457
0.00683092
0.00444218
0.0015392
0.0042555
0.0166142
0.000450851
0.00370396
0.000460695
0.000468003
0.000460288
0.000460799
0.000463515
0.0107684
0.000534346
0.000455709
0.0192992
0.00894235
0.000579213
0.000450959
0.000463274
0.000468631
0.000457731
0.000455419
0.000459942
0.00323454
0.00046269
0.0143628
0.0118055
0.00668331
0.00968746
0.00181332
0.000463999
0.000466256
0.00770416
0.000459282
0.0105308
0.0114305
0.000454235
0.000476274
0.01582
0.0202477
0.0198535
0.000468974
0.000463786
0.00045622
0.0105531
0.00530062
0.00980338
0.000627919
0.00346426
0.00186389
0.000606325
0.00407994
0.00595763
0.00171429
0.000461856
0.0061638
0.000557452
0.000527045
0.0171141
0.000457343
0.00065217
0.000829184
0.000457221
0.00155172
0.010649
0.00487304
0.0162765
0.000477733
0.000465197
0.000463825
0.00159044
0.00911293
0.000464525
0.0161701
0.000459394
0.0200457
0.0187139
0.00045875
0.000460143
0.000468816
0.000495415
0.000468516
0.00878894
0.000629556
0.00571704
0.000457074
0.000457088
0.000456334
0.00652057
0.0057785
0.000483638
0.00811854
0.00053694
0.00616297
0.000463416
0.00046557
0.00317399
0.000458296
0.00114136
0.00127645
0.000729152
0.00100594
0.000455548
0.0116098
0.0202397
0.00194866
0.00045468
0.00045672
0.000455868
0.000465812
0.0011699
0.000460038
0.000454725
0.00138204
0.000459299
0.00997755
0.0013327
0.000500006
0.000460528
0.0144845
0.000451989
0.000459236
0.0046384
0.000861872
0.000462129
0.00147631
0.0200983
0.000454631
0.000464353
0.000460713
0.000595346
0.00396868
0.000463263
0.00357931
0.000468757
0.00736159
0.010664
0.0040178
0.0043262
0.00058368
0.000465585
0.00447897
0.000461002
0.00883075
0.000454661
0.00045839
0.000452257
0.000454449
0.0135565
0.000456033
0.000463694
0.000457286
0.000454608
0.00750718
0.000458896
0.00700967
0.000461956
0.00046621
0.000463087
0.0202662
0.00174313
0.00228908
0.00682498
0.000458414
0.0167943
0.0182986
0.000457307
0.00046163
0.00570987
0.0123332
0.000459461
0.000697858
0.0179906
0.000562199
0.000452074
0.000512665
0.000470815
0.000513308
0.0203086
0.0110812
0.000452621
0.006031
0.000457044
0.00410694
0.000523563
0.000518754
0.000460696
0.00464161
0.00531832
0.00695421
0.000466718
0.000534738
0.000454085
0.00436796
0.000463557
0.00047752
0.000454959
0.000459347
0.000729169
0.000459455
0.000464241
0.00855399
0.000464487
0.0183844
0.000463922
0.00359875
0.000458901
0.00143173
0.000709527
0.000458429
0.00706022
0.00699688
0.0187307
0.000466297
0.000460936
0.000898403
0.0175063
0.000461565
0.000457674
0.000455441
0.0201729
0.000453066
0.000582252
0.00117659
0.000458958
0.000451889
0.000465949
0.000460197
0.000516529
0.000454342
0.0058868
0.000471355
0.000452713
0.000458941
0.00663594
0.000460029
0.000458157
0.000458038
0.000463612
0.000534792
0.00124635
0.000966641
0.000315108
0.000454809
0.000455488
0.00723056
0.00816947
0.0134779
0.00392137
0.000935716
0.00346968
0.00046205
0.000473519
0.00489327
0.00627667
0.0173355
0.000464871
0.000710871
0.000554901
0.00434729
0.011936
0.000462789
0.000807055
0.00046215
0.00694687
0.0088761
0.00728802
0.000457327
0.00540414
0.000468375
0.000451726
0.0162476
0.000469366
0.000453714
0.00237972
0.00788594
0.000460121
0.00888091
0.000952163
0.000451937
0.00526914
0.000451956
0.00271019
0.0136525
0.000627442
0.00879309
0.00281394
0.00508313
0.000451922
0.000455268
0.000459693
0.000452772
0.000452383
0.000457403
0.0185678
0.0189656
0.000456138
0.00159471
0.000474476
0.000503801
0.000461737
0.000454883
0.0127117
0.00920346
0.00989867
0.0173564
0.000464356
0.000486159
0.00204748
0.000457689
0.00136329
0.000918413
0.0109676
0.0169679
0.000456001
0.000460112
0.000456812
0.000463803
0.000568999
0.00893088
0.000453485
0.00497008
0.000464874
0.000469087
0.000457769
0.00447721
0.000173026
0.000462017
0.000455475
0.00486043
0.000460349
0.00610964
0.0064975
0.000458739
0.00218618
0.000458426
0.00589808
0.00578383
0.0178893
0.00178552
0.000464781
0.000545421
0.00692296
0.000459202
0.00207948
0.010179
0.0134039
0.000458366
0.000499673
0.000457243
0.00045833
0.0133576
0.00842581
0.000935039
0.000653909
0.000452585
0.00106005
0.000507516
0.000453974
0.00072841
0.00781197
0.00584831
0.00896934
0.0004905
0.00411279
0.00574947
0.000452832
0.000454742
0.000468694
0.000909013
0.000479099
0.000458904
0.000470754
0.000575979
0.000460001
0.000827533
0.000463748
0.000780826
0.0188705
0.0180986
0.0177991
0.00105259
0.000457622
0.000458433
0.00922805
0.000698222
0.000456837
0.000456055
0.00364993
0.000481433
0.000715288
0.000465522
0.000454035
0.00668813
0.00570014
0.0042254
0.000462802
0.0196297
0.000458779
0.000602101
0.0196999
0.000458571
0.000535017
0.000524148
0.00781469
0.00540818
0.000457124
0.00376219
0.0154633
0.00276542
0.000482664
0.0182152
0.000477983
0.00124558
0.000468895
0.000468599
0.000461946
0.000461672
0.000454958
0.000486242
0.000461493
0.000128731
0.000460517
0.000457038
0.00825551
0.000463387
0.000583124
0.00397399
0.00469087
0.00582933
0.000454378
0.000459183
0.000458359
0.000468906
0.0182147
0.00163134
0.000729349
0.00582387
0.0129447
0.000456836
0.000489875
0.00045697
0.00046896
0.000468371
0.000453899
0.000481482
0.000451837
0.000464596
0.000458917
0.000464774
0.000710353
0.000856305
0.000458771
0.00702262
0.000461853
0.000457276
0.00790182
0.000471748
0.0128982
0.00184923
0.000582079
0.00131193
0.0012491
0.00674204
0.000454254
0.015095
0.000461358
0.00511914
0.000472054
0.0198177
0.0143553
0.0137144
0.000501027
0.0189531
0.000459774
0.000467002
0.000458211
0.0144267
0.000486453
0.0187299
0.018037
0.00782507
0.000456436
0.00487375
0.0093141
0.000459752
0.000453898
0.000508077
0.000458781
0.0182706
0.000471443
0.000460056
0.00754814
0.00046409
0.00505883
0.000459369
0.000457641
0.00610498
0.00045879
0.00518165
0.000455719
0.0201911
0.000464167
0.00849464
0.000468342
0.000452514
0.00424418
0.000944835
0.000455157
0.00045646
0.0112896
0.000451726
0.000459823
0.00954376
0.000458818
0.0122212
0.000864383
0.00046722
0.00642951
0.0196952
0.000789177
0.000597895
0.000457786
0.00429007
0.000459113
0.000653913
0.000455004
0.0005569
0.000458861
0.000454295
0.00114118
0.000465527
0.0100968
0.00648322
0.0177154
0.000458695
0.000459358
0.00046742
0.000453323
0.000673079
0.000451949
0.00261906
0.00504084
0.00641799
0.020094
0.00663034
0.00905785
0.00130395
0.000453381
0.000529867
0.000459831
0.000640348
0.000621329
0.000453873
0.0115878
0.000464126
0.00346539
0.000464066
0.00519954
0.0172511
0.000453641
0.0188173
0.00859674
0.00051147
0.000481102
0.000514185
0.00469803
0.000661976
0.00847752
0.000465277
0.00774134
0.000697519
0.0193629
0.00422087
0.00868789
0.000610526
0.00214616
0.000972624
0.0070825
0.000456617
0.0190606
0.000453298
0.000453261
0.000453282
0.00046311
0.000460782
0.000452017
0.000458828
0.000465043
0.00829775
0.0184062
0.00488481
0.00469734
0.000453417
0.000458458
0.000459798
0.00273382
0.00282783
0.000459398
0.000484113
0.00046177
0.000460473
0.000516862
0.0156292
0.000465533
0.0179111
0.000458423
0.00388269
0.00045273
0.0012556
0.000463384
0.00447243
0.000465272
0.000464953
0.000574442
0.00710486
0.000461806
0.000459428
0.000466232
0.0195712
0.000482273
0.000456337
0.000574866
0.0141542
0.000518433
0.000790949
0.000468263
0.000551321
0.00850833
0.000456569
0.00424442
0.000452736
0.00367239
0.000453244
0.00483844
0.000456358
0.00916953
0.000462336
0.000457652
0.000466605
0.000464927
0.000507732
0.000460246
0.000469031
0.0115015
0.000461749
0.000466836
0.013487
0.000460074
0.00324818
0.000557882
0.0184843
0.00156921
0.0193681
0.00045971
0.00674994
0.0013175
0.000456729
0.00594806
0.000463192
0.000459781
0.000847473
0.000458215
0.00730676
0.000455298
0.000604975
0.0124098
0.000918652
0.000454951
0.0187038
0.00045241
0.000983032
0.000510331
0.000467316
0.00546873
0.00835471
0.00783375
0.0133554
0.0141274
0.000480092
0.00107317
0.00404868
0.00296446
0.000453582
0.00603874
0.000466503
0.00878721
0.00441779
0.000717249
0.000779018
0.000530399
0.000452637
0.0183064
0.000457564
0.00778422
0.00232451
0.00680184
0.00045769
0.000472216
0.00712815
0.000460057
0.000753383
0.00592165
0.000458699
0.0180522
0.000465174
0.00146325
0.000457778
0.00346805
0.00421844
0.0167572
0.0199144
0.000416042
0.011142
0.00355449
0.000460134
0.00483518
0.00641357
0.00045988
0.000458693
0.000453298
0.00147079
0.00616242
0.0159135
0.000565789
0.00136864
0.00048383
0.000453897
0.00046448
0.000461072
0.00460955
0.00526384
0.017926
0.0108838
0.000473552
0.000457261
0.0153819
0.000453031
0.00045965
0.00045414
0.0147121
0.000458914
0.000464441
0.0129516
0.0117723
0.00614488
0.00045743
0.0154778
0.000459864
0.000462194
0.0170596
0.00523177
0.00045382
0.00433985
0.00254348
0.000926584
0.000458393
0.00975221
0.000469308
0.00928467
0.0004721
0.0118388
0.0164485
0.000620197
0.0187305
0.0194955
0.000458643
0.00394159
0.000461614
0.004719
0.000452111
0.0151469
0.0112891
0.00653725
0.000577026
0.00462725
0.00530415
0.0118303
0.000466168
0.000468428
0.00132134
0.00426122
0.000469386
0.000471973
0.000783467
0.000462515
0.0038809
0.000460108
0.000482298
0.0164061
0.000688655
0.000466634
0.0163573
0.000455468
0.000457853
0.00807033
0.000453002
0.0011378
0.000499327
0.000456146
0.0104973
0.00245123
0.000453336
0.0201004
0.000454519
0.00894389
0.00939496
0.000464034
0.000460728
0.000458454
0.00932062
0.00885329
0.000608062
0.00865985
0.00867689
0.00493055
0.00644397
0.00549626
0.0004549
0.000683704
0.00173646
0.0100066
0.000462351
0.00691735
0.000461798
0.000676252
0.0144576
0.000453445
0.000464503
0.000463101
0.000464498
0.000463836
0.00483949
0.0132759
0.000508593
0.00527528
0.000454011
0.0194393
0.00860583
0.0110852
0.000993755
0.0101909
0.00045957
0.000460188
0.0161261
0.00868741
0.00109137
0.000458508
0.000462535
0.000460302
0.0185696
0.0198887
0.000457265
0.000596816
0.00085862
0.000462406
0.0113734
0.0129524
0.000469324
0.000485987
0.000460592
0.00046162
0.00995018
0.000462185
0.000458704
0.000459043
0.000461452
0.0004549
0.000455179
0.000477355
0.0175135
0.000198955
0.00721499
0.000464544
0.000465461
0.000459577
0.00842532
0.000464664
0.0139375
0.000460031
0.000532507
0.0103396
0.000456956
0.000457569
0.000464207
0.000456328
0.000453174
0.00405612
0.00674442
0.000566426
0.00565144
0.000569193
0.00052424
0.000461982
0.000460749
0.000457236
0.00419505
0.000457678
0.0195067
0.000483746
0.00802576
0.000483906
0.000474346
0.0114555
0.0104317
0.000456632
0.000489762
0.000720609
0.000452598
0.000461792
0.000457476
0.000452978
0.0113484
0.000457379
0.00851696
0.000451703
0.0202911
0.00203731
0.000465813
0.00860184
0.00117786
0.000466193
0.000452113
0.0187417
0.0040699
0.000453235
0.000464057
0.00562263
0.000455197
0.000462122
0.000452363
0.000459977
0.00133558
0.000493637
0.0132184
0.000460059
0.000533944
0.00046049
0.00207438
0.0123722
0.000467019
0.00967011
0.000487408
0.000453381
0.000472037
0.00122757
0.000463698
0.000458738
0.00756519
0.000476523
0.000453888
0.00330213
0.0165852
0.0004563
0.00465731
0.000458306
0.0135401
0.000635001
0.000459683
0.00911382
0.0007462
0.000614323
0.000595822
0.0196137
0.000456103
0.000452463
0.00765386
0.00661107
0.000464393
0.0087426
0.00045858
0.000945117
0.000460229
0.000454078
0.000460291
0.0191747
0.00046641
0.00056822
0.0119347
0.000544516
0.000541995
0.00142566
0.000458784
0.000472711
0.00942035
0.00403505
0.000453565
0.000461749
0.000460227
0.00772735
0.000453775
0.0104574
0.000948296
0.00827353
0.00046875
0.00147749
0.00608664
0.000665981
0.000718532
0.000456115
0.00045993
0.000486204
0.0178634
0.000453116
0.000464587
0.000468544
0.0116983
0.00571761
0.00752769
0.0160243
0.0140655
0.000460999
0.00694397
0.000457043
0.000458435
0.000461984
0.00049326
0.000458749
0.0124098
0.0138933
0.000458835
0.0132981
0.0127659
0.000395337
0.0159759
0.000457546
0.00777029
0.00791724
0.00045974
0.000453244
0.000460301
0.0142999
0.000554112
0.000469315
0.000534174
0.0186194
0.00815348
0.0197072
0.011816
0.000453685
0.000453887
0.00940244
0.000456548
0.000452218
0.00657531
0.000460231
0.000458134
0.00131068
0.000518481
0.000452492
0.00109073
0.00427197
0.00993049
0.000476589
0.018178
0.00316606
0.0166951
0.0148945
0.000459229
0.000459901
0.00293796
0.00780375
0.000572316
0.0201264
0.00583974
0.00045542
0.000461804
0.00482026
0.00274644
0.000663106
0.000457321
0.0109753
0.00216609
0.000459786
0.00114465
0.00256529
0.000452952
0.000463853
0.000454479
0.0115179
0.000876392
0.000514049
0.000459954
0.000463995
0.000458979
0.000466328
0.0119101
0.018635
0.000468647
0.0102592
0.000462215
0.0126875
0.000773313
0.00802533
0.000578285
0.000455337
0.00374532
0.000460378
0.0109339
0.0201508
0.010275
0.00543674
0.000463679
0.000456046
0.000459513
0.000460309
0.00126699
0.000455269
0.000456839
0.000453394
0.000985595
0.000459508
0.00046212
0.0201453
0.000465245
0.000679923
0.000456837
0.000464687
0.00745928
0.000461674
0.000466097
0.00046526
0.00550493
0.00155682
0.000460009
0.000459728
0.000462305
0.00907401
0.000460297
0.0155696
0.0134234
0.0149346
0.000458227
0.00485514
0.000456176
0.00162996
0.000456169
0.00708664
0.000601826
0.00116581
0.000487773
0.00045288
0.000459262
0.000458007
0.0104424
0.00258573
0.0196603
0.00913916
0.000461547
0.00591168
0.000453545
0.000462062
0.000467711
0.003752
0.000451528
0.000458562
0.00516855
0.000468402
0.00694394
0.000468838
0.00046345
0.000459685
0.000452811
0.000461177
0.000467783
0.00627517
0.000473967
0.0197972
0.000462305
0.000453891
0.0185346
0.00780033
0.00045818
0.0202749
0.000517711
0.00045223
0.00045981
0.000509761
0.000468904
0.0202527
0.00367473
0.0108925
0.000461917
0.0013993
0.000465369
0.000462011
0.0200797
0.000451025
0.000463798
0.00533165
0.000456203
0.000460343
0.0004574
0.00092423
0.00489172
0.0109487
0.00849254
0.000551865
0.000463956
0.00045829
0.00326949
0.000453775
0.000460109
0.000458987
0.000466005
0.00107133
0.00046633
0.00046459
0.000491624
0.000462891
0.000818321
0.00492713
0.000459433
0.0132634
0.00897622
0.000765965
0.000460871
0.000787768
0.000510089
0.00253131
0.00299562
0.000453603
0.000464342
0.00046558
0.000453971
0.000464611
0.000457375
0.000452568
0.00787299
0.000500391
0.000456524
0.000465838
0.0186294
0.00193922
0.000468013
0.000756158
0.00046016
0.000453972
0.00219449
0.000937637
0.000488572
0.00407092
0.0197435
0.000456927
0.000454638
0.00492081
0.000461889
0.000461988
0.000458515
0.000460458
0.00179686
0.0131199
0.000536611
0.00462786
0.00665458
0.000461876
0.000461868
0.000496434
0.00842732
0.0140188
0.000464155
0.00706843
0.003063
0.0137022
0.000716654
0.000458314
0.000458886
0.00327239
0.000459717
0.00072395
0.0192507
0.00530599
0.00106757
0.000463672
0.0184803
0.00046146
0.000468597
0.0201245
0.0188027
0.00113391
0.00754335
0.00813786
0.000531587
0.000451556
0.000454449
0.000460564
0.000457888
0.0113776
0.0129138
0.000461395
0.000452175
0.000454247
0.000454068
0.012271
0.000551011
0.000455654
0.0044059
0.00998757
0.000770031
0.00493547
0.000452496
0.000461444
0.000460123
0.000455179
0.000453209
0.000479043
0.000486539
0.000905441
0.0184322
0.000595825
0.00677158
0.00145396
0.0105994
0.000595692
0.000529079
0.00931851
0.000459993
0.000459945
0.00941405
0.0154448
0.00431804
0.0186882
0.0147102
0.0066207
0.00989298
0.0101053
0.000453533
0.000462529
0.00128829
0.00045658
0.000459264
0.00369713
0.000476798
0.0124228
0.0014808
0.018003
0.0100101
0.000455664
0.000980237
0.000496089
0.000459986
0.000454696
0.000581256
0.00712097
0.00626641
0.0089728
0.000456003
0.000458089
0.000581544
0.000459732
0.0158385
0.00496397
0.0045985
0.000947193
0.000460357
0.00045694
0.000494915
0.00964718
0.000457377
0.00416855
0.000457863
0.00047287
0.00102034
0.00784661
0.000791786
0.000539423
0.0147851
0.000630863
0.000453533
0.00764979
0.000459708
0.0138175
0.000454781
0.000529817
0.000656235
0.000594188
0.000473388
0.00045425
0.00913337
0.000486361
0.0140316
0.00676899
0.00629777
0.000465015
0.000538636
0.00384187
0.000457829
0.000458427
0.0188888
0.00760585
0.000459059
0.000452416
0.000467398
0.00263709
0.000465057
0.0133128
0.000687673
0.0117224
0.000486403
0.00096021
0.000469104
0.000473722
0.000454707
0.00964046
0.000608915
0.000457674
0.000464247
0.00822086
0.00929166
0.00045724
0.00643763
0.000465228
0.000465122
0.000482518
0.0144979
0.000459166
0.000517433
0.000459167
0.000459865
0.00333142
0.00498145
0.013415
0.000504248
0.00045876
0.00340474
0.00342342
0.0112586
0.019597
0.00195905
0.000501929
0.000458855
0.000669149
0.00500441
0.000464407
0.00133821
0.000613037
0.00046568
0.000451831
0.000895131
0.000522887
0.000463535
0.000460273
0.000461349
0.00190851
0.000457778
0.000452159
0.000462947
0.00985954
0.00422826
0.000456878
0.00605683
0.000461551
0.000458461
0.00633646
0.00608363
0.0055746
0.000586436
0.00682224
0.00536004
0.000483428
0.000455556
0.000464453
0.00056583
0.000477503
0.000456047
0.000458983
0.000451609
0.000462462
0.00823459
0.0198485
0.000813569
0.0182428
0.000453057
0.000518633
0.00748614
0.000456564
0.008367
0.000453536
0.000451531
0.000632892
0.000454609
0.000467899
0.000455597
0.000458761
0.000476705
0.0101888
0.000452895
0.00160859
0.00438503
0.0167996
0.00386309
0.000460111
0.000454362
0.0176705
0.0135904
0.000583208
0.0010511
0.0154042
0.000698401
0.0203921
0.000458278
0.000475833
0.00476294
0.000457847
0.00151264
0.000754604
0.000550694
0.000648492
0.000459864
0.000455077
0.000464304
0.000459666
0.0120106
0.0122108
0.000458864
0.0174488
0.00693161
0.000456481
0.000462334
0.0058921
0.0111012
0.000464624
0.0194578
0.000513437
0.0123735
0.000456755
0.00746506
0.0122403
0.000469934
0.00653036
0.00716859
0.000807992
0.000928525
0.0198861
0.000868675
0.000457992
0.0202132
0.0185742
0.000455663
0.000507945
0.000454686
0.000771827
0.000468586
0.000460491
0.00046511
0.000464659
0.000472053
0.00791195
0.0005077
0.00820167
0.00493221
0.0193301
0.0123017
0.00046188
0.000461649
0.000461866
0.000482127
0.000451323
0.000466008
0.0157399
0.00623257
0.000460358
0.00046368
0.000921592
0.0125363
0.000453109
0.00268288
0.000459341
0.000457949
0.000461364
0.0130031
0.000452991
0.000459874
0.000453051
0.00894318
0.00286209
0.000514661
0.000485644
0.000456852
0.0112458
0.000455499
0.0200288
0.013569
0.00565279
0.000579669
0.000459872
0.0121825
0.000461821
0.000454921
0.000453162
0.000466116
0.00574851
0.000453862
0.000461672
0.000468725
0.000554577
0.000460531
0.0109851
0.000495474
0.0109299
0.000543164
0.0133428
0.0120851
0.0159878
0.00045629
0.000453122
0.00959236
0.013443
0.00177251
0.00224551
0.000552056
0.000464673
0.000458296
0.00548013
0.000454988
0.00173762
0.00410857
0.000460897
0.019507
0.00571437
0.00485827
0.000469012
0.000475953
0.000482387
0.000457885
0.000543476
0.000455459
0.000462242
0.0133924
0.00483008
0.0114465
0.000458522
0.000456187
0.000461813
0.0175549
0.000452766
0.00817624
0.0118774
0.0093373
0.000458149
0.000466414
0.00046566
0.000458237
0.000455786
0.0167571
0.000459757
0.0161586
0.00229309
0.0134233
0.000452469
0.000578295
0.00532744
0.000455517
0.0180608
0.0055577
0.0162192
0.000461308
0.0150312
0.00925051
0.000461003
0.0143633
0.00476568
0.00046235
0.00966969
0.00985026
0.0195552
0.000571013
0.000459267
0.000505844
0.00216171
0.00306335
0.000461911
0.00440062
0.000701433
0.000676165
0.0150671
0.0041821
0.014707
0.000469032
0.000461346
0.000741222
0.00606265
0.0158007
0.0138625
0.000573323
0.0128647
0.00242818
0.000943596
0.000460639
0.000458489
0.000458237
0.0123979
0.00440204
0.00615156
0.00771794
0.000470789
0.000493266
0.0156506
0.00106968
0.000458013
0.00375237
0.000456163
0.000567678
0.000462259
0.000533114
0.0056746
0.000457377
0.00479429
0.000545685
0.00045381
0.00045937
0.000583888
0.000454314
0.000456497
0.0200697
0.00045408
0.000818468
0.010489
0.000605032
0.00046008
0.00952905
0.00045209
0.00604682
0.00108429
0.000463077
0.0004691
0.000453965
0.000466093
0.000463692
0.00045476
0.000458263
0.000457619
0.0118681
0.000460023
0.00045898
0.000455553
0.000455697
0.0180245
0.0200718
0.00064973
0.000463789
0.00045704
0.00380862
0.00064695
0.000505528
0.000463044
0.000466287
0.000454464
0.02028
0.00989322
0.000540028
0.0124949
0.0129213
0.0075816
0.0135035
0.0181125
0.000457919
0.00313084
0.0118883
0.000514906
0.000462157
0.0114293
0.000453334
0.00763471
0.000530375
0.00051305
0.000470382
0.0073667
0.0128743
0.000482411
0.0133144
0.000712473
0.000461942
0.000579434
0.000828048
0.000646284
0.000456128
0.000648103
0.000461007
0.0104167
0.010843
0.000460735
0.000455031
0.00101414
0.000451789
0.000467303
0.00792481
0.00064529
0.0200651
0.011909
0.000461678
0.0196489
0.000461588
0.0150698
0.000458854
0.000947967
0.000460174
0.000459985
0.000463883
0.000551029
0.010624
0.000458633
0.00401112
0.000456871
0.0134193
0.00554114
0.000973948
0.0152824
0.00458458
0.0191713
0.00466644
0.000724278
0.000466236
0.000466286
0.000464382
0.000451989
0.019945
0.02009
0.000464467
0.000454259
0.000455966
0.000464312
0.00231247
0.00322994
0.000458904
0.000801046
0.00210659
0.000483316
0.0132113
0.0058087
0.010309
0.000463394
0.000461958
0.000468409
0.000452395
0.000453239
0.000717962
0.000456891
0.00046307
0.000456973
0.00219599
0.000464438
0.000466251
0.000458775
0.000455281
0.000460804
0.00053758
0.000476497
0.000599733
0.0137266
0.000455358
0.0031763
0.000902681
0.000453784
0.000933293
0.0197425
0.000466616
0.00565006
0.0136843
0.000455937
0.000599638
0.000595588
0.000502467
0.000463674
0.00684351
0.000451297
0.0195351
0.000677856
0.0158499
0.00839524
0.000943085
0.000473515
0.000459314
0.0148284
0.000780102
0.0186331
0.0161531
0.0173693
0.00711743
0.0177476
0.000455723
0.00118001
0.00972848
0.0191919
0.000473773
0.000481991
0.00516759
0.000455875
0.0199995
0.00557185
0.00135889
0.000459049
0.000997897
0.00340942
0.0146222
0.000456326
0.0056611
0.000459472
0.000451348
0.0124899
0.0174363
0.000486162
0.00046174
0.000456362
0.00890209
0.000459092
0.00369332
0.0192316
0.00720345
0.000464921
0.000464621
0.00200961
0.00637447