/*--------------------------------*- C++ -*----------------------------------*\
| =========                 |                                                 |
| \\      /  F ield         | OpenFOAM: The Open Source CFD Toolbox           |
|  \\    /   O peration     | Version:  v2012                                 |
|   \\  /    A nd           | Website:  www.openfoam.com                      |
|    \\/     M anipulation  |                                                 |
\*---------------------------------------------------------------------------*/
FoamFile
{
    version     2.0;
    format      ascii;
    class       surfaceScalarField;
    location    "350";
    object      ddtCorrDdt0(phi);
}
// * * * * * * * * * * * * * * * * * * * * * * * * * * * * * * * * * * * * * //

dimensions      [0 3 -2 0 0 0 0];
oriented        oriented;


internalField   nonuniform List<scalar> 
51060
(
-4.057e-06
-2.56087e-07
4.32684e-06
-1.14269e-06
-3.57142e-07
-2.09391e-05
3.57238e-05
-1.47854e-05
-1.71173e-06
3.51828e-06
-1.8068e-06
-2.90392e-07
5.59456e-07
-2.69093e-07
-9.34578e-07
-6.15871e-07
1.54792e-06
-3.84397e-06
1.71246e-06
2.13378e-06
-1.77682e-07
2.12347e-07
-3.51565e-08
-3.89644e-06
3.23019e-06
6.68792e-07
5.8242e-05
-2.4081e-05
2.74161e-06
-2.78915e-07
-2.45902e-06
8.16227e-05
-9.24056e-05
1.07701e-05
2.50591e-06
-2.16841e-06
-3.36733e-07
4.48091e-05
-6.02879e-05
1.54719e-05
-1.85606e-06
1.16896e-06
6.87934e-07
-1.17877e-06
-1.07533e-06
2.25573e-06
6.09804e-06
-4.68851e-06
-1.41336e-06
5.38683e-05
-1.6651e-05
-3.72111e-05
-1.27894e-05
-5.27099e-06
1.80597e-05
-3.98412e-06
2.27247e-06
1.59946e-06
-1.28793e-06
-3.11417e-07
-7.1551e-07
-1.89849e-06
2.6134e-06
-4.64207e-07
-2.61914e-07
7.26909e-07
4.12255e-06
-1.69123e-05
4.65256e-07
4.77551e-07
-9.4323e-07
-1.10211e-06
-3.20716e-06
2.92997e-06
-1.04661e-06
-4.29638e-06
5.34184e-06
-2.98983e-06
1.68354e-06
1.30712e-06
-4.38723e-07
-7.77984e-07
1.21704e-06
4.19582e-05
-4.78486e-05
5.86851e-06
8.70452e-07
6.01424e-07
-1.47243e-06
-4.92299e-07
9.64162e-09
4.82156e-07
7.36702e-07
6.64717e-07
-1.40038e-06
2.22895e-05
-4.12301e-06
-1.81667e-05
-1.84407e-05
-2.04888e-05
3.89447e-05
-0.000125381
9.61884e-05
2.9165e-05
5.38247e-07
4.58952e-06
-5.12825e-06
-9.2154e-07
-9.75018e-08
1.0189e-06
-7.68315e-07
-3.12749e-06
-2.56068e-05
1.08893e-05
1.47172e-05
-9.11614e-06
-1.69136e-06
1.08066e-05
-4.06136e-06
-1.15698e-05
1.55038e-05
1.22225e-05
-3.06397e-05
-4.32604e-05
-0.000154936
0.000198185
-1.23776e-06
-6.1839e-07
4.51373e-07
-1.91764e-06
1.4651e-06
1.00911e-06
-9.77435e-08
-9.11547e-07
8.80091e-06
-6.59132e-06
-2.20972e-06
-5.8847e-07
2.98142e-07
3.67585e-07
-1.51016e-06
-1.12409e-06
3.72352e-07
7.52079e-07
1.96877e-05
2.47609e-06
-2.21632e-05
6.94025e-06
-4.81423e-05
4.12072e-05
1.41094e-06
-1.06804e-06
-3.43017e-07
1.52572e-06
-4.66799e-07
-1.0591e-06
5.81319e-06
-2.88644e-06
-2.92631e-06
7.69263e-07
-4.50974e-06
3.74049e-06
1.28329e-06
6.4337e-08
-1.34729e-06
6.04479e-07
-1.11696e-06
5.11459e-07
-3.52781e-07
-3.03655e-07
6.56505e-07
-1.12273e-06
8.24972e-07
2.97927e-07
-6.76564e-07
2.55791e-07
4.20755e-07
0.000128906
-7.31641e-05
-5.57279e-05
9.41248e-07
-1.11166e-06
1.69905e-07
9.5186e-07
-5.48993e-05
5.39518e-05
8.27997e-05
-6.45713e-05
-1.81311e-05
5.49817e-05
2.77201e-05
7.15869e-08
-5.64306e-07
-4.71863e-07
1.37524e-06
-9.03553e-07
-2.41809e-06
-4.01133e-06
6.42909e-06
-7.70867e-07
-1.50729e-07
-0.000138497
9.6517e-05
4.19799e-05
-8.52775e-07
-3.39242e-08
8.86767e-07
-3.86183e-07
3.08626e-07
7.76672e-08
-9.44717e-05
1.07792e-05
8.37243e-05
8.57626e-06
-1.26703e-05
4.09392e-06
-3.34126e-06
-2.85179e-06
6.19226e-06
-8.38049e-06
4.03201e-05
-3.19387e-05
-1.9913e-06
2.46843e-06
-4.78908e-07
3.34705e-05
-4.99429e-05
1.64629e-05
2.85714e-07
-1.13848e-06
6.75105e-07
-3.73496e-06
3.0592e-06
2.76099e-06
-5.81175e-06
3.0509e-06
-5.82751e-06
2.5512e-05
1.2583e-05
-2.512e-05
1.25364e-05
-8.16575e-07
-3.06736e-07
1.95956e-07
1.61797e-06
-1.81413e-06
-3.18542e-08
-5.14781e-07
5.46446e-07
3.30371e-05
-5.56643e-05
2.2645e-05
1.14329e-06
-5.16653e-06
4.02007e-06
8.79651e-06
-3.93021e-06
-4.8655e-06
-8.78371e-06
-2.05725e-05
2.93628e-05
4.7776e-07
-3.12106e-06
2.647e-06
5.60484e-06
-1.57191e-06
-4.03474e-06
1.82749e-05
3.29299e-05
-5.12074e-05
1.17618e-06
3.20065e-07
-1.49505e-06
-5.22085e-05
8.28747e-05
-3.06665e-05
-4.80169e-05
-3.74205e-05
8.54432e-05
5.77832e-07
-5.91997e-08
-5.19513e-07
5.34891e-07
4.5772e-06
-5.11359e-06
-5.24916e-07
1.14603e-06
-6.21012e-07
7.63594e-07
-4.82209e-06
-4.62919e-06
-2.09847e-05
6.85511e-05
4.86447e-05
-0.000117195
7.93446e-07
-4.88444e-06
4.0898e-06
-1.01433e-06
5.33382e-07
4.81268e-07
-7.87112e-07
5.26172e-07
2.60785e-07
1.65207e-05
1.65469e-05
-3.30668e-05
-2.55964e-06
3.32772e-06
3.89215e-07
5.56725e-07
-1.96809e-07
-7.26718e-06
7.46861e-06
6.49294e-07
-8.75374e-08
-1.48481e-06
1.57209e-06
5.53379e-05
-1.05324e-05
9.06195e-05
-0.000133881
-4.70099e-07
1.64555e-06
5.90334e-07
-2.94495e-06
2.35508e-06
2.19266e-07
-3.66933e-07
1.4759e-07
-7.98601e-06
-3.37795e-07
8.32947e-06
3.59526e-06
-1.02354e-05
6.62574e-06
1.25791e-06
3.41498e-07
-5.31165e-06
8.3507e-06
-3.03842e-06
-8.94459e-07
-2.67359e-05
2.7648e-05
3.4533e-07
-6.35715e-08
-2.82898e-07
3.436e-05
6.91309e-07
1.81473e-06
-9.39707e-05
1.34043e-05
8.05587e-05
-5.46058e-08
-1.28993e-06
1.34427e-06
1.75687e-05
-1.22246e-06
-1.63452e-05
2.22909e-05
-3.06744e-05
6.64719e-05
-4.14851e-06
-6.23292e-05
2.93383e-06
-7.66688e-06
4.74328e-06
-6.63238e-07
2.1102e-07
4.52644e-07
1.13572e-05
-6.35659e-05
1.21573e-06
-1.2704e-06
-1.26572e-07
-9.51454e-07
1.07816e-06
-5.28052e-06
6.04826e-06
-7.70844e-07
5.88872e-05
-6.55345e-05
6.62984e-06
-4.02622e-06
1.43974e-05
-1.03714e-05
-7.98888e-06
1.3958e-05
-4.44778e-06
3.40972e-06
1.03794e-06
-9.3288e-06
4.2152e-06
5.11464e-06
8.95134e-05
0.000204234
-0.000293778
-0.00010826
0.000130098
-2.18328e-05
1.17963e-06
-1.41e-06
2.29712e-07
-6.84098e-07
1.55421e-06
4.58258e-07
-7.65785e-07
3.07761e-07
1.3095e-06
-2.61965e-08
-4.14063e-05
1.72182e-05
2.41843e-05
2.90756e-07
4.54543e-06
-4.83494e-06
-4.42849e-06
4.56516e-06
-1.37803e-07
2.2831e-05
-1.28869e-05
-9.94656e-06
2.93453e-06
5.43955e-06
-8.3765e-06
5.99047e-06
-5.45379e-06
-1.11207e-06
5.8694e-07
-6.31671e-05
4.14436e-05
2.16275e-05
-3.95496e-07
1.11283e-06
-7.18029e-07
-3.11552e-06
3.90894e-06
-0.000127068
0.000203471
-7.64067e-05
-5.79867e-06
3.38137e-06
-2.43093e-06
2.27404e-06
1.56479e-07
2.03287e-07
-1.13818e-06
-3.85135e-05
4.09763e-05
1.20996e-05
-5.4414e-06
-6.66162e-06
7.59888e-06
-4.65778e-06
1.03051e-05
1.53287e-06
-1.18312e-05
-5.78527e-06
2.44373e-06
2.76084e-05
-1.48784e-05
-1.27304e-05
-7.42123e-07
-5.20831e-06
5.95003e-06
-2.11237e-06
-1.39968e-05
1.61086e-05
1.12881e-07
8.95751e-07
8.48847e-07
-1.1982e-06
3.49446e-07
-6.43108e-07
2.89894e-07
-1.64427e-07
-5.03139e-07
6.67215e-07
1.92795e-06
-1.47925e-06
1.21568e-05
1.36512e-05
-2.5809e-05
3.90335e-06
8.1955e-06
-9.53545e-07
7.88874e-07
-1.57145e-06
-1.74584e-06
3.31982e-06
-5.33441e-06
-3.99156e-06
6.36601e-07
1.24836e-06
-1.88437e-06
-9.38815e-06
1.02801e-05
-8.94432e-07
-6.20197e-07
-5.6362e-08
8.73314e-06
-1.27598e-05
-1.67626e-06
-1.92222e-07
1.86788e-06
-1.99361e-05
-2.14717e-05
-5.03296e-07
2.90883e-07
8.84444e-07
1.49057e-07
-1.03361e-06
6.23686e-05
-4.36533e-05
-1.87166e-05
-4.78732e-05
1.68709e-05
-2.10814e-05
4.20931e-06
1.37048e-06
-4.11973e-06
2.74793e-06
5.66754e-06
-2.90625e-06
-5.75579e-05
4.17421e-05
1.58179e-05
1.1819e-06
-2.36073e-06
9.04749e-07
-1.66329e-05
1.57281e-05
-7.32784e-07
6.16133e-07
1.14875e-07
-9.88939e-07
-7.5058e-07
1.73918e-06
1.89449e-07
-6.83996e-08
-1.21274e-07
-2.71482e-07
1.21244e-06
-1.72612e-05
-1.30905e-05
3.04552e-05
1.06819e-06
2.53279e-06
2.28096e-07
1.23107e-07
-3.51166e-07
-8.21175e-06
-4.49618e-07
1.57154e-06
-1.12167e-06
6.64782e-07
-2.05733e-07
2.87558e-05
-6.84579e-05
3.96846e-05
-5.00245e-05
4.07746e-06
4.59386e-05
4.50787e-06
-1.83942e-06
-2.66694e-06
-1.77045e-06
4.34661e-06
-2.54879e-06
-5.17655e-06
-3.08603e-06
8.26115e-06
-9.67728e-09
8.98744e-08
-8.07484e-08
-8.75966e-07
2.5197e-06
-1.64388e-06
1.40504e-06
6.69066e-07
-2.07432e-06
-8.26235e-08
-8.71427e-07
-3.92876e-06
-2.28196e-06
6.21056e-06
4.08821e-05
-6.01161e-06
-3.48662e-05
7.4056e-07
-2.85792e-06
2.11775e-06
-6.04271e-07
5.44862e-07
7.17395e-07
-2.63221e-06
1.90716e-06
2.03858e-06
1.47946e-06
-3.2909e-06
-3.52375e-05
-2.51316e-06
2.74244e-06
-2.28239e-07
4.76877e-07
7.94878e-07
-1.27183e-06
4.99694e-06
-5.73879e-06
1.36133e-05
-3.80779e-05
2.44725e-05
-1.14079e-05
2.35647e-05
3.51398e-06
3.69971e-07
-3.8841e-06
7.37336e-05
-4.06908e-05
-1.49316e-05
3.14462e-05
-3.31683e-06
3.99142e-06
-2.16757e-05
1.49363e-05
6.73837e-06
-1.58989e-06
1.14031e-06
8.1084e-07
-6.75049e-07
-1.36961e-07
-1.10567e-05
1.67085e-06
1.63768e-06
-6.9553e-07
-9.42186e-07
2.34509e-05
2.04552e-05
-4.39066e-05
1.93285e-06
-1.08752e-06
-8.44993e-07
3.21014e-05
1.07457e-06
8.58497e-07
1.16555e-06
-4.11362e-06
2.94552e-06
1.92122e-06
-2.30612e-06
3.84404e-07
-9.12058e-07
-7.33159e-07
1.64469e-06
4.21602e-05
-1.34273e-05
-7.23738e-06
6.97964e-06
9.43134e-07
-5.40937e-07
-4.02071e-07
1.8807e-05
-7.71234e-06
-1.10956e-05
6.96947e-06
-7.09324e-07
-6.2631e-06
9.2406e-06
3.74787e-05
-4.67056e-05
-2.83016e-06
-2.32374e-06
5.15051e-06
5.27504e-05
-2.49632e-05
-2.77712e-05
-7.42797e-07
2.81673e-07
4.60859e-07
6.21341e-07
-2.19658e-06
1.57549e-06
6.90883e-05
-1.0166e-05
1.82572e-06
2.6822e-06
-5.58001e-05
-6.959e-05
2.09171e-05
6.88996e-06
-2.78079e-05
-2.73709e-07
2.22574e-06
-2.24274e-06
1.53266e-08
-1.05162e-07
-9.07283e-07
1.01214e-06
-2.49502e-07
1.42947e-06
1.85778e-06
-4.53402e-07
-6.9877e-06
5.80208e-06
-2.61884e-06
6.38114e-07
1.9794e-06
1.77314e-06
-1.33243e-06
-4.39995e-07
1.87407e-06
-2.78522e-06
3.22724e-07
6.64511e-06
1.65466e-06
-4.48248e-06
-4.41033e-06
9.63311e-06
-5.22368e-06
3.97813e-06
-2.0465e-05
1.64863e-05
-4.08439e-06
2.31947e-06
1.33526e-06
-7.5062e-07
-5.84915e-07
-1.85512e-06
2.596e-06
-1.69399e-06
1.32619e-06
3.67155e-07
2.45546e-06
-9.78279e-07
-1.4782e-06
4.75031e-07
-1.71091e-05
1.27404e-06
6.98874e-07
-1.97318e-06
9.74466e-06
-8.07618e-06
-1.66696e-06
-9.74806e-05
9.30643e-07
-5.19995e-07
-4.11657e-07
4.51377e-06
4.66362e-05
-5.11473e-05
1.77688e-06
-1.14006e-06
3.67783e-06
-2.51264e-06
1.2335e-05
4.04245e-05
1.04005e-05
8.40597e-06
-7.08681e-07
1.70307e-07
5.38478e-07
-4.64875e-07
9.16182e-07
-4.50905e-07
-4.39349e-08
9.28504e-07
3.84298e-07
-9.5222e-07
5.67981e-07
4.17133e-06
-3.02976e-06
2.83466e-05
-2.00005e-05
-8.34661e-06
5.4809e-06
6.17282e-07
8.05998e-06
1.68428e-06
8.18978e-06
-4.69798e-06
-3.49107e-06
-1.20862e-06
7.53137e-07
4.55622e-07
2.05128e-05
9.57216e-05
-0.000116222
6.78767e-07
-1.02166e-08
-6.68144e-07
1.87951e-07
1.68768e-06
-1.87651e-06
-2.76572e-06
1.30727e-05
6.11827e-07
3.31297e-07
4.13297e-05
2.10295e-05
-1.7302e-07
-3.15731e-06
3.32969e-06
2.10907e-06
-5.79222e-06
2.78248e-06
3.0094e-06
8.38777e-07
-2.40829e-06
1.42201e-06
1.79328e-06
-3.2127e-06
-9.93105e-07
4.50639e-06
-7.05911e-06
5.76083e-06
1.29754e-06
-2.33725e-06
1.46101e-06
4.17305e-06
-2.80666e-06
9.51877e-06
-4.85866e-06
-4.65595e-06
1.01807e-06
-1.11579e-06
7.31316e-06
-5.20558e-06
-2.10847e-06
-3.14788e-06
-2.64362e-06
7.22521e-06
-4.51636e-06
-2.69661e-06
-0.000261584
0.00013869
0.000122886
-1.32869e-05
2.31265e-05
-9.84001e-06
-2.25771e-07
3.73332e-07
-1.47479e-07
-8.15626e-05
6.8341e-05
1.32257e-05
2.17293e-06
3.80267e-06
-5.97227e-06
-7.44021e-06
-3.10039e-06
1.05374e-05
1.53389e-06
1.8114e-07
3.11302e-07
8.48144e-06
-4.69066e-07
-2.73939e-07
-9.91459e-07
8.65381e-07
1.51933e-06
-4.04843e-06
2.52915e-06
7.60156e-08
1.0932e-06
-6.21824e-06
-8.42995e-07
-4.58016e-06
7.13014e-06
-2.54911e-06
-6.72809e-06
4.01958e-05
8.06284e-06
-4.32417e-05
3.51772e-05
-7.79469e-05
4.25039e-05
3.54739e-05
1.10825e-06
6.11829e-06
3.30809e-07
-1.28236e-06
6.1461e-07
1.98275e-07
8.97251e-05
-8.10714e-06
7.09644e-06
8.41669e-06
-1.55146e-05
7.56689e-06
4.79362e-06
-1.23601e-05
4.27681e-05
-5.99624e-05
3.3152e-05
4.18994e-06
-3.73468e-05
9.00893e-07
7.36685e-07
-9.75926e-07
-2.32287e-07
8.30019e-07
9.43286e-07
1.13819e-05
1.65498e-05
-2.79104e-05
5.14758e-07
1.63902e-07
2.40491e-06
-6.94198e-06
4.53445e-06
-8.16628e-06
3.48057e-05
-2.66513e-05
-1.95433e-06
2.61171e-06
-6.57272e-07
3.24805e-06
-4.40301e-09
-1.73815e-07
2.44035e-06
-1.0651e-06
-1.37657e-06
2.06919e-06
-1.41594e-06
-6.55752e-07
6.96269e-06
1.83756e-06
2.18452e-06
2.69389e-06
-4.87872e-06
-1.38209e-06
-4.55707e-06
5.47812e-07
4.01094e-06
-1.89458e-06
2.02246e-07
-1.1447e-06
8.22516e-07
3.22017e-07
-3.51326e-06
5.68572e-06
-5.41101e-06
6.03756e-06
-6.27861e-07
-1.22931e-06
4.84713e-07
7.4277e-07
3.33794e-05
-6.25339e-05
7.93541e-07
1.16261e-06
-1.95629e-06
7.14241e-07
-2.92274e-06
2.21073e-06
-1.48947e-06
4.1315e-07
1.07668e-06
1.78498e-06
1.91324e-05
-0.000202802
7.57257e-05
7.29055e-06
-4.88671e-06
1.10198e-06
-1.38805e-05
1.2778e-05
-3.75103e-06
-8.0441e-07
8.82947e-06
2.20058e-05
-3.0839e-05
1.36665e-06
1.45915e-06
-2.82569e-06
9.29818e-07
-8.17417e-07
2.51447e-07
-3.0205e-06
2.76982e-06
1.61993e-05
-2.03684e-05
-9.38946e-07
-2.05692e-07
5.84655e-07
3.45568e-07
2.2871e-06
-5.9984e-07
-3.74357e-05
-2.05303e-05
5.79937e-05
-2.35927e-06
2.94947e-06
2.5663e-05
-1.2631e-05
-1.30308e-05
1.09721e-05
-2.39806e-06
0.00015695
-8.83881e-05
1.83246e-06
-1.21112e-06
5.07761e-05
4.56147e-06
-5.78387e-06
1.22607e-06
4.55755e-06
-1.24599e-06
1.69261e-06
-4.4468e-07
-1.99618e-06
-3.88398e-06
5.87887e-06
3.5002e-06
-4.4946e-06
3.63605e-06
-8.49437e-06
-9.7478e-08
8.77053e-08
2.65948e-06
-7.83537e-06
-1.93517e-05
7.49984e-06
1.18503e-05
4.6825e-05
-9.63737e-05
4.9552e-05
7.87828e-06
-7.19366e-06
-6.84345e-07
-4.03642e-07
5.09044e-07
-1.05457e-07
5.963e-06
-5.60097e-06
-3.65183e-07
-6.6933e-07
4.91005e-08
8.52507e-07
-4.84194e-07
-3.68993e-07
-5.88279e-07
9.77925e-07
-6.83705e-07
2.07396e-06
-1.39067e-06
-1.57812e-06
-4.20561e-06
-1.3634e-06
2.8255e-06
-1.46306e-06
-4.61231e-07
9.61165e-06
-9.15053e-06
2.16131e-05
-1.7635e-05
-4.15791e-06
-3.37558e-06
7.53491e-06
3.92269e-06
8.56199e-07
-9.61524e-07
9.61534e-07
-4.01437e-06
3.05432e-06
1.65806e-05
1.27442e-05
-2.93259e-05
-4.76629e-06
1.69767e-06
3.06843e-06
-1.76208e-05
4.59684e-05
-9.64177e-06
4.20798e-06
5.43319e-06
-4.16784e-06
4.48818e-07
3.72023e-06
2.83943e-06
-7.37001e-07
-2.388e-07
1.24748e-06
1.88164e-06
-3.12956e-06
-2.29237e-07
5.42262e-07
-3.11417e-07
2.50239e-05
-1.2442e-05
3.34383e-05
4.15911e-05
-7.50276e-05
5.48816e-06
1.98292e-06
-7.47132e-06
6.76199e-05
-4.05003e-05
-2.71172e-05
1.75086e-05
-1.33865e-05
-3.458e-05
2.50455e-05
9.46967e-06
-8.33386e-06
-1.26384e-05
2.0972e-05
3.90055e-07
4.51631e-07
-8.41432e-07
-2.99221e-05
2.17417e-05
-4.38305e-05
-3.41193e-05
3.42953e-06
3.88333e-06
3.07317e-06
1.23035e-06
-4.30345e-06
9.80599e-07
-1.50344e-06
5.2265e-07
-1.9617e-05
-1.49337e-05
4.71224e-07
-1.62103e-06
1.15053e-06
-7.45502e-07
4.2446e-06
-3.41713e-07
1.15385e-06
-8.12756e-07
5.14176e-06
-2.95761e-06
-2.09619e-06
4.44615e-06
-2.34397e-06
-6.12408e-06
-1.52036e-06
7.64458e-06
-4.49417e-05
-4.74655e-05
-4.84836e-06
1.55895e-05
-1.07415e-05
-3.61524e-06
-2.17041e-06
1.54288e-06
-5.75075e-07
-9.68353e-07
0.000124832
-2.03534e-05
-0.000104436
-4.01268e-07
1.22645e-06
2.26169e-06
-2.41484e-06
1.52938e-07
9.22305e-06
-3.27993e-06
-5.93983e-06
5.56521e-06
-3.90855e-06
-9.88315e-07
-4.29116e-06
0.000165996
-5.88359e-05
-0.000107186
1.95454e-06
-7.50621e-05
-5.50983e-06
1.26087e-05
-7.80783e-06
-4.80266e-06
3.13801e-05
-2.33186e-05
-1.99596e-06
-4.35509e-07
-1.47143e-05
3.15348e-06
-1.7054e-06
3.07243e-06
2.05657e-06
-2.05532e-06
-1.24758e-09
1.98272e-07
-6.6236e-07
7.4367e-06
-4.34898e-06
-3.09538e-06
-5.42685e-06
-3.88592e-05
4.81027e-05
-1.15467e-06
-2.13834e-06
3.29364e-06
-8.76672e-06
-4.81274e-07
1.23066e-06
-7.49833e-07
-2.95686e-07
-9.33562e-07
-3.60287e-05
2.12574e-05
1.47766e-05
-2.12635e-05
3.26483e-05
0.000137703
-4.11906e-05
1.16275e-06
-3.11746e-06
-1.40362e-06
1.3157e-06
-1.31102e-07
1.51208e-07
-2.03976e-08
4.55379e-06
6.06499e-06
-1.0622e-05
4.78661e-06
-4.01742e-06
4.077e-05
-2.71536e-05
9.53747e-05
-7.89815e-05
-1.63843e-05
4.1015e-05
-4.00673e-05
-1.09243e-05
-8.42778e-06
4.10718e-05
9.70595e-06
6.33787e-07
-1.39648e-07
-4.93957e-07
-1.77362e-06
8.08995e-06
-6.317e-06
-3.75077e-07
1.06906e-06
-6.92957e-07
4.75337e-07
-2.46921e-06
-1.9467e-05
2.82606e-05
-3.33634e-06
-2.68866e-06
6.02424e-06
-6.52619e-05
5.60808e-06
5.96509e-05
-4.29564e-07
-3.57614e-07
-3.42064e-06
2.17009e-06
1.24973e-06
4.93811e-05
-3.31893e-05
-1.61937e-05
2.06278e-06
1.98804e-07
9.3138e-07
-5.60036e-07
2.61142e-06
2.22418e-05
-2.4857e-05
-1.84012e-05
1.88762e-05
-1.38337e-05
1.54994e-05
-1.66237e-06
-1.83483e-05
2.09627e-05
-1.05563e-06
1.84887e-06
1.70762e-06
5.68293e-07
-2.27672e-06
2.24626e-05
4.51553e-05
4.64878e-06
9.16692e-07
-8.32559e-07
1.21663e-06
1.65126e-06
-7.51278e-06
5.86154e-06
1.08332e-06
-7.20788e-06
-0.000105458
1.13286e-05
9.41305e-05
6.52049e-05
-3.18269e-05
2.07111e-06
-5.68703e-06
1.57894e-06
3.2647e-07
-1.90246e-06
-8.94726e-06
8.48666e-06
-1.43868e-06
1.91003e-06
1.11312e-06
-2.90771e-07
-7.7256e-06
7.75575e-06
-3.32272e-08
2.11497e-05
-4.99529e-07
-2.0648e-05
1.35886e-07
-5.95101e-07
4.59396e-07
9.08248e-06
-5.10797e-06
-3.97482e-06
-7.947e-06
6.17346e-06
7.24225e-06
-5.59184e-06
-2.14034e-06
3.52861e-05
7.26903e-06
-9.48554e-06
2.2155e-06
-4.1331e-06
4.42422e-06
-2.15937e-06
-2.1245e-06
4.28331e-06
5.50926e-05
1.21798e-06
-5.62565e-05
-2.03598e-06
-1.94854e-06
4.55089e-07
6.57658e-07
1.29542e-06
-1.97912e-06
-6.93838e-08
-1.05085e-07
1.75372e-07
1.22446e-05
-2.09656e-07
-1.20362e-05
-3.01645e-06
-6.44788e-06
9.46121e-06
4.24005e-05
8.24275e-05
-3.53906e-07
7.78507e-07
-4.2479e-07
-6.4724e-07
1.12428e-06
2.15954e-05
-1.50335e-05
-6.5659e-06
1.61868e-05
-4.42767e-06
-1.17591e-05
7.5617e-07
6.5431e-07
5.69997e-06
6.90887e-06
0.000150619
-3.05504e-06
-1.31432e-06
4.37245e-06
1.03393e-06
-1.17411e-06
1.39464e-07
9.19868e-07
-2.75694e-05
2.66497e-05
-2.49203e-06
-4.816e-06
3.73789e-06
1.07414e-06
5.6421e-07
2.38639e-06
-2.95064e-06
2.64847e-08
-9.24731e-08
6.56606e-08
8.10591e-05
-0.000125186
4.40072e-05
1.11116e-07
-1.46181e-07
3.50577e-08
4.01726e-07
2.52499e-05
-9.91086e-07
6.16203e-07
6.94948e-08
2.75606e-07
3.83216e-07
-1.55347e-07
-4.3496e-06
5.48577e-05
0.000111138
3.93678e-06
-3.74221e-06
-1.95048e-07
-8.337e-07
-2.15492e-06
2.65552e-05
-5.40677e-06
0.000133975
-5.33226e-05
-3.40365e-06
-1.36286e-06
1.81644e-05
-3.00172e-05
1.18526e-05
-3.06156e-05
9.67598e-06
6.25537e-06
2.96847e-06
1.96414e-06
5.03195e-07
-1.12963e-05
1.74067e-06
9.5556e-06
-0.000158018
-0.00010356
1.01318e-06
2.92358e-06
-1.97417e-05
-7.56975e-07
4.82525e-07
2.74375e-07
-3.98186e-05
-6.80395e-06
4.66416e-05
1.38756e-05
8.95415e-06
-2.40833e-06
4.71251e-06
-2.30688e-06
-9.16898e-07
-3.901e-06
-2.09939e-06
-1.29979e-06
3.39856e-06
-1.63354e-06
-3.19815e-06
4.83111e-06
3.07804e-07
-3.92364e-07
8.40382e-08
4.54836e-06
-1.47526e-06
-4.41433e-05
-5.88175e-06
7.02424e-07
-6.1129e-06
5.6315e-06
-6.3422e-06
8.20338e-07
1.6342e-06
2.49356e-05
7.11944e-06
-3.20461e-05
1.79705e-07
-6.9569e-08
-2.79395e-06
2.05554e-06
7.39672e-07
-1.50116e-06
2.54548e-07
2.92068e-06
-2.44166e-06
-7.54426e-07
6.38494e-06
8.47441e-06
3.36163e-07
-2.90637e-08
-2.14533e-06
4.63527e-06
-2.4895e-06
3.75847e-05
-6.58881e-05
2.83024e-05
6.83596e-07
2.23797e-06
-4.9492e-05
5.4003e-05
1.30519e-05
-1.83572e-05
5.30471e-06
-1.71208e-05
2.43802e-05
-7.25577e-06
-2.0572e-06
8.49374e-07
1.20777e-06
-1.42006e-05
2.0165e-05
-5.96561e-06
1.16549e-06
9.73866e-07
-2.13939e-06
3.09012e-07
4.53072e-06
-4.83942e-06
1.24639e-06
1.19323e-06
-5.38794e-07
1.42393e-06
-8.85548e-07
1.77408e-07
-9.48235e-07
7.70847e-07
8.01392e-06
1.35814e-05
-2.61496e-06
3.17903e-06
2.38535e-05
-0.000178797
4.30839e-07
-7.84818e-07
-8.18268e-06
7.06783e-07
-1.39107e-06
1.11908e-06
-2.70797e-05
2.59541e-05
-7.6523e-07
-2.48965e-07
1.72914e-06
-7.48704e-07
1.04791e-05
-8.69846e-06
-1.78752e-06
-1.547e-06
2.79536e-06
-9.8279e-07
-6.12312e-05
3.36424e-05
2.76074e-05
6.36792e-06
-4.21668e-06
-2.14573e-06
-3.49018e-06
4.69873e-07
6.36851e-07
-1.10615e-06
-6.10003e-06
1.27155e-06
4.82846e-06
6.06286e-07
7.27137e-06
-1.00876e-07
1.00873e-07
1.19725e-06
-3.04128e-06
2.34639e-05
-2.01707e-05
-3.29404e-06
-7.46293e-06
1.20193e-05
-1.21386e-06
-1.00827e-05
-4.87419e-06
6.9027e-07
-1.1282e-06
-5.01665e-07
2.76166e-07
1.96986e-06
-3.60385e-06
-5.15171e-06
3.00311e-06
1.70702e-05
-4.01821e-06
1.21903e-06
-4.65182e-07
4.94352e-06
3.87621e-05
-1.24906e-05
-2.62758e-05
7.67753e-07
-4.93275e-07
-2.74679e-07
-4.0575e-05
5.35526e-06
3.5183e-05
1.77625e-06
6.26268e-06
-5.95367e-06
-0.000129993
0.00019101
-6.1018e-05
-9.1304e-05
6.94682e-05
-3.13385e-05
7.93877e-05
4.28858e-07
-1.79846e-08
-4.11806e-07
-9.28069e-07
-5.71489e-07
1.49955e-06
-4.57601e-07
5.56885e-05
-1.07257e-06
-6.21596e-07
-5.408e-06
2.59792e-06
2.8115e-06
2.75559e-05
-4.19349e-05
1.44051e-05
-3.61984e-06
-9.31487e-07
-3.49769e-06
4.26439e-06
3.17221e-06
-7.58602e-06
3.92055e-07
-3.71299e-05
5.30775e-05
-1.5948e-05
-1.74019e-06
2.93552e-06
-7.17165e-07
2.1389e-07
-2.57653e-06
-4.07807e-06
6.65362e-06
-1.54775e-05
0.000110851
1.63474e-06
1.91207e-06
-3.54739e-06
-2.76492e-05
-3.76125e-05
-1.88511e-06
2.90292e-06
-1.01836e-06
6.76047e-08
-1.23383e-06
1.16608e-06
-2.54882e-06
-5.68339e-07
-1.52151e-06
-1.26918e-06
-2.6194e-06
-1.44339e-06
4.06298e-06
1.85129e-06
-2.56654e-06
7.78723e-06
-4.76193e-05
2.21335e-05
-2.03478e-05
-2.56826e-07
1.315e-06
4.25411e-06
-2.46018e-06
5.91917e-07
-1.58071e-06
6.15416e-06
4.34458e-09
-6.15811e-06
8.54649e-05
1.02573e-05
-5.7435e-05
2.03063e-05
-1.55252e-08
1.31772e-08
2.31122e-09
-6.70728e-06
4.12932e-06
-7.97726e-07
3.22306e-06
-2.42344e-06
-9.67821e-06
7.93825e-06
1.73986e-06
6.59946e-05
-8.1669e-05
1.56821e-05
6.59461e-07
-2.69259e-07
2.59496e-06
-4.15984e-06
1.56503e-06
8.29173e-07
-1.93277e-06
-1.64684e-05
4.58627e-07
1.27465e-06
-1.73576e-06
-3.72762e-06
4.72702e-06
-9.99183e-07
1.86795e-06
8.63954e-07
-2.73215e-06
-1.31867e-06
1.64595e-06
1.19071e-06
-1.57237e-07
1.19855e-06
1.84755e-06
-3.04582e-06
5.31122e-06
6.82837e-06
-1.21431e-05
2.58174e-05
-2.46997e-05
-1.11905e-05
4.5981e-06
6.59416e-06
-2.78193e-07
-4.54384e-07
-7.77668e-06
2.46603e-06
-2.13113e-06
5.23191e-06
-3.10158e-06
-4.93641e-06
2.34419e-06
2.59018e-06
4.0715e-05
-8.489e-06
-3.22207e-05
7.9664e-08
9.01987e-07
-9.80949e-07
6.01414e-07
-8.7149e-07
2.71129e-07
4.29438e-06
-7.31057e-06
-2.34809e-06
-5.60001e-06
-2.29753e-06
2.41679e-07
2.05562e-06
-4.22061e-05
1.17515e-05
3.04583e-05
-2.15405e-06
5.37142e-06
-3.744e-07
1.4173e-06
2.83619e-06
6.72442e-07
1.76293e-06
-2.43663e-06
-6.60879e-07
1.58944e-06
-9.28597e-07
-0.000104438
7.24254e-05
3.20114e-05
1.05426e-05
-3.31852e-05
2.26402e-05
-1.52012e-06
-8.1582e-06
-1.24762e-06
2.88204e-06
8.92246e-05
-5.27817e-06
2.22487e-06
2.38757e-07
5.31623e-07
1.74261e-06
-6.46564e-07
7.24771e-07
1.4003e-05
-1.61158e-05
1.18854e-06
-3.85787e-07
-8.03026e-07
-2.74857e-07
-1.17964e-07
-2.12171e-07
2.07335e-07
-1.79021e-06
2.98874e-06
-7.19206e-06
9.31508e-07
6.25725e-06
2.80713e-06
-8.43336e-07
6.73694e-05
-3.65027e-05
-3.0864e-05
3.35561e-07
8.52843e-07
6.90829e-06
1.06005e-06
-7.96932e-06
-7.11507e-08
-8.21528e-06
3.6351e-06
-1.50954e-05
-3.19311e-05
4.70397e-05
-5.07478e-06
-3.18367e-06
8.25882e-06
-1.26046e-06
7.43121e-06
-6.16989e-06
-1.09284e-06
3.79072e-06
-2.69748e-06
4.32166e-06
8.65638e-06
3.91654e-06
-8.07372e-06
-2.97034e-05
-1.92265e-05
4.89309e-05
1.13956e-05
1.08938e-05
4.92062e-05
-0.000109192
1.09512e-07
-5.13165e-07
-1.38379e-06
4.137e-06
-2.75377e-06
7.90537e-07
-3.41001e-06
1.05176e-05
1.16166e-05
-6.53829e-08
2.22925e-06
-2.16348e-06
-1.50202e-06
-1.9189e-06
-2.57887e-06
-2.82846e-06
-2.48289e-06
-2.85228e-06
5.33618e-06
-1.90719e-06
7.72914e-07
1.13397e-06
-1.14741e-06
2.31277e-06
-4.59507e-06
5.21678e-06
-6.2676e-07
3.03063e-06
1.11808e-06
-7.87402e-07
-2.29587e-05
4.64093e-05
-2.86852e-07
-7.71406e-06
1.27646e-07
-5.32564e-07
-5.95062e-06
9.23251e-07
5.02855e-06
-3.48208e-07
-7.12699e-07
1.0599e-06
1.41639e-05
5.1833e-05
5.98156e-06
-2.22317e-06
-3.64514e-06
5.86481e-06
2.36623e-05
2.4672e-05
-7.79537e-06
-2.79675e-06
1.74642e-06
1.04844e-06
6.31051e-09
-2.80707e-07
2.02565e-06
1.98045e-07
-2.22481e-06
1.95119e-06
-5.67839e-06
9.76056e-06
-6.0479e-06
-3.71646e-06
4.23158e-07
1.22271e-06
-1.64656e-06
1.06869e-07
1.12524e-07
2.23096e-05
1.57853e-05
-8.93923e-06
-6.84907e-06
3.13805e-07
-3.78662e-07
6.63946e-09
3.74177e-07
5.87538e-06
-6.09239e-06
2.1609e-07
3.76407e-06
-1.98277e-06
-1.78041e-06
-5.79512e-08
-2.44306e-07
3.02283e-07
-7.79628e-07
4.77492e-07
3.02279e-07
2.12229e-05
2.81593e-05
-4.8624e-06
-5.36526e-06
-1.05509e-06
6.85916e-07
3.69829e-07
-4.21685e-06
-8.45525e-06
1.26777e-05
-4.09059e-06
1.96914e-05
-1.56012e-05
4.57855e-05
-3.5243e-05
-2.4798e-06
2.41387e-06
-9.34399e-07
-1.21312e-06
2.14763e-06
8.48009e-07
1.11862e-07
-9.59397e-07
2.08915e-05
6.6734e-06
3.93313e-07
1.0023e-06
-1.39674e-06
-7.64718e-07
-6.96168e-06
8.16304e-06
-2.55607e-05
1.73921e-05
-5.22894e-07
1.79649e-06
4.60357e-07
-6.97673e-07
2.37025e-07
-2.48315e-05
-1.40351e-05
-2.53309e-06
1.36361e-06
1.16868e-06
4.93521e-06
1.96124e-06
-6.89677e-06
-4.63504e-07
1.32872e-07
3.30971e-07
5.31715e-07
-4.50916e-06
3.97797e-06
-1.76184e-05
-1.89899e-06
-2.94235e-06
4.83931e-06
-1.28976e-06
3.1376e-06
5.44348e-06
3.63873e-06
2.31863e-07
-3.33683e-06
3.10511e-06
-1.31183e-05
8.86747e-06
-1.3724e-06
1.16806e-06
2.04415e-07
-3.14486e-06
-6.90748e-07
1.09726e-06
-4.06477e-07
5.459e-05
0.00012884
-0.000183433
-1.32719e-06
1.99999e-06
-3.35689e-06
4.73037e-08
3.30985e-06
-8.51428e-07
3.8951e-07
4.61835e-07
6.21312e-07
-9.69666e-07
-7.98295e-06
5.63261e-06
7.08018e-06
-2.42761e-05
1.71982e-05
9.33993e-07
-1.14761e-06
2.13584e-07
-5.53982e-06
-1.34941e-06
6.89373e-06
-7.88895e-07
1.4953e-06
-2.95166e-06
9.12135e-07
2.03967e-06
-1.8466e-05
4.26514e-06
-4.83736e-07
-3.72395e-06
4.20806e-06
-9.52848e-05
3.49702e-05
6.03434e-05
7.6835e-05
-8.92345e-05
1.20525e-05
7.42631e-06
-5.89065e-06
-1.53455e-06
-6.58557e-06
-6.04125e-07
-3.63421e-07
6.32544e-06
-1.74446e-06
7.61978e-06
-1.27051e-05
1.97999e-05
-3.50941e-05
3.66109e-08
-5.30949e-08
1.65156e-08
-5.24933e-05
5.301e-07
-7.91758e-07
1.63937e-06
-1.68558e-07
-1.47082e-06
1.94067e-05
5.17844e-07
-1.9932e-05
3.89012e-05
-1.16931e-05
-2.72087e-05
1.00409e-06
-8.24693e-07
1.91059e-05
-1.45354e-06
8.78211e-07
-1.08444e-05
6.62828e-06
-1.62136e-05
1.46216e-05
1.59143e-06
8.59689e-07
-6.82397e-07
-2.47904e-07
-2.15566e-07
-3.67521e-05
1.70368e-05
-2.12775e-05
1.28747e-05
8.40883e-06
4.6743e-06
-1.45087e-06
-3.22573e-06
1.85614e-05
-4.25517e-06
-1.43068e-05
1.73347e-06
3.23104e-07
-2.87183e-07
-4.69571e-07
-1.78517e-06
2.42231e-06
-6.3703e-07
-2.26114e-07
-2.75451e-07
-1.57871e-06
1.41289e-06
1.6513e-07
5.93207e-06
-7.45384e-06
9.02144e-06
-3.32031e-05
2.4181e-05
-9.94796e-07
-1.08265e-06
2.07725e-06
-9.36765e-07
3.90176e-08
8.96835e-07
6.53117e-05
-2.39657e-05
9.307e-07
1.84737e-06
-2.77727e-06
-8.1944e-07
7.36598e-07
4.84784e-07
1.70821e-05
-1.42364e-05
-4.82041e-06
1.9062e-05
-4.17657e-06
1.1743e-05
-1.64381e-07
1.8843e-05
-1.87441e-05
-1.01232e-07
-1.63871e-05
-2.03776e-05
-1.60775e-05
1.99356e-05
-3.85914e-06
7.77316e-07
7.50874e-08
4.43079e-07
8.3473e-07
-1.28096e-06
3.45502e-05
-6.49068e-06
-2.80589e-05
-3.64094e-07
2.9124e-06
-2.5485e-06
9.52468e-07
9.18012e-06
-1.0134e-05
2.40973e-06
-1.37749e-06
-1.03101e-06
6.67095e-06
-8.51701e-05
4.13148e-05
2.32515e-05
-9.37685e-06
1.01673e-06
3.61785e-06
1.61993e-05
-2.57319e-05
9.53201e-06
-8.96911e-06
-1.23047e-05
-6.88093e-07
-3.6667e-07
-2.1005e-05
3.38007e-06
1.76023e-05
5.82971e-06
-0.000110268
2.93733e-06
8.03528e-06
1.58089e-06
2.18288e-06
1.16127e-05
-1.68841e-05
-9.62024e-06
-2.49973e-06
1.21201e-05
1.62121e-05
2.63061e-06
-4.82639e-07
-1.80611e-07
-9.4156e-06
5.00496e-06
-3.713e-07
8.36539e-07
-4.24641e-06
-9.87129e-07
5.02892e-07
2.0455e-08
1.4539e-07
-1.6626e-07
1.6466e-05
-1.15857e-05
-4.87902e-06
-1.32056e-07
1.38461e-07
4.76346e-06
-4.23117e-06
1.21429e-06
-7.70802e-07
-2.16733e-06
-2.28051e-06
2.80916e-06
-1.26465e-05
-3.64544e-07
1.67995e-07
1.96767e-07
-3.09753e-07
9.14484e-07
-1.23145e-05
6.50612e-05
-5.24948e-05
8.66561e-08
2.74586e-07
-3.61379e-07
3.91577e-06
-6.14033e-06
-3.16607e-05
2.52207e-05
6.4442e-06
6.56352e-06
-6.24396e-06
-4.33238e-08
2.09913e-06
8.94175e-07
-4.68016e-08
-1.64786e-06
9.86943e-07
-3.83447e-06
2.91819e-06
-3.10936e-06
1.00382e-06
2.10763e-06
-2.06154e-06
7.54942e-06
-5.04932e-07
-5.22399e-07
1.02709e-06
-1.24392e-06
7.17615e-06
-1.30279e-05
-3.18614e-06
-8.89507e-05
0.000143538
1.19674e-06
3.29067e-07
-8.52144e-06
1.12691e-06
7.39374e-06
5.01199e-07
-7.20606e-06
6.70619e-06
-5.8605e-06
1.93166e-06
-1.02356e-08
-1.20866e-07
-4.12693e-07
-5.29873e-06
5.71755e-06
-1.16083e-07
7.81146e-07
-6.65643e-07
-4.76367e-06
-9.69566e-07
5.73254e-06
-2.97855e-07
-4.81836e-07
-1.06155e-05
1.17172e-05
-1.51588e-05
-1.8748e-05
3.39015e-05
8.47938e-06
-4.67407e-06
-7.43068e-09
-2.05327e-07
4.78724e-07
-3.26824e-06
2.78917e-06
2.89153e-06
-4.29254e-06
1.40102e-06
3.58109e-07
1.50773e-07
2.91227e-07
-2.70507e-07
2.02528e-07
8.25152e-08
-2.85276e-07
-1.21527e-06
-1.58135e-06
-6.38609e-07
-3.05571e-08
-9.12303e-05
5.98992e-05
-1.96421e-07
3.49312e-07
-1.52691e-07
-5.16675e-06
3.06719e-06
1.46521e-06
4.29272e-07
-1.8945e-06
-2.987e-05
-2.11554e-06
3.88422e-06
-1.76971e-06
-7.30821e-07
-1.17762e-06
-1.1403e-05
-1.0273e-05
-3.96462e-06
3.20493e-07
3.6444e-06
4.29273e-07
1.51652e-05
-1.55989e-05
0.000121085
-0.000121078
8.716e-09
-6.52441e-06
5.39074e-06
1.1352e-06
-9.75115e-05
-7.94661e-06
4.19823e-09
1.74254e-07
-2.32936e-06
3.25973e-06
1.31603e-05
-1.86425e-05
5.48364e-06
9.27973e-05
2.83134e-05
-5.36172e-07
-2.15131e-07
7.50669e-07
5.83657e-07
-1.08859e-06
2.93229e-06
-1.69294e-05
2.3741e-07
6.32541e-06
2.51202e-07
-6.21836e-08
-3.84223e-06
2.52368e-06
1.31873e-06
5.83069e-06
-8.08267e-06
2.2506e-06
9.89165e-07
2.2254e-06
-3.21462e-06
6.28544e-06
6.22512e-07
0.000159859
-2.54929e-05