/*--------------------------------*- C++ -*----------------------------------*\
| =========                 |                                                 |
| \\      /  F ield         | OpenFOAM: The Open Source CFD Toolbox           |
|  \\    /   O peration     | Version:  v2012                                 |
|   \\  /    A nd           | Website:  www.openfoam.com                      |
|    \\/     M anipulation  |                                                 |
\*---------------------------------------------------------------------------*/
FoamFile
{
    version     2.0;
    format      ascii;
    class       volScalarField;
    location    "50";
    object      ddt0(omega);
}
// * * * * * * * * * * * * * * * * * * * * * * * * * * * * * * * * * * * * * //

dimensions      [0 0 -2 0 0 0 0];


internalField   nonuniform List<scalar> 
18232
(
0.00114052
-0.045702
-0.0216094
0.00253506
0.00174193
-0.0521122
-0.0224158
0.000140934
0.000100794
-0.0228127
0.00224379
-0.000149876
0.000418057
-0.00570816
-0.0079018
0.000262894
0.00122194
-0.0115467
-1.59809e-05
-0.0248022
0.0474506
-0.0134281
0.00122675
-0.00166412
0.00109345
0.0021979
-0.000600416
0.00555335
0.000177261
-0.0465013
0.00212145
-0.0941245
0.0116394
4.28614e-05
-0.00189231
0.0001555
0.0186612
0.129377
-0.319425
-6.55175e-05
-0.0730968
-0.000198827
-0.0083462
-0.00239592
-0.0715598
0.00014885
0.148519
0.0102444
-0.00862619
-0.153115
-0.00272142
-0.0082579
0.000237996
0.000328016
0.000484292
8.19204e-05
0.006282
0.146713
-8.42529e-05
-0.00865307
0.00519986
0.652959
-0.0985181
-0.0282713
0.556321
0.00296908
-0.311598
6.64355e-05
0.449195
-7.21123e-05
-5.36578e-05
4.72339e-05
0.0697191
-0.000202526
0.00635739
-0.000211455
-0.00739156
-0.0947037
-0.142159
0.00805774
0.0136555
0.00366703
0.00824491
0.0120989
5.92445e-05
-0.858944
0.00201686
-5.2193e-05
0.000924729
-0.0531552
0.00126857
-0.000362874
0.00303355
0.135406
0.491803
0.0224225
0.00179385
-0.000328404
0.00173327
0.00158127
-0.0646219
0.651578
0.000164565
1.79476e-05
-5.425e-05
0.000631654
-3.80252e-05
0.00529872
-0.0200217
-0.058182
-0.0976005
-0.00862222
0.00393175
0.0239929
4.57136e-06
-0.000711163
0.00102841
0.0579143
-1.1249
0.00284926
5.97007e-05
0.135252
0.00155794
0.0168179
-0.000202993
-0.000771805
7.59729e-05
-0.0506716
0.00138655
0.19527
0.00254921
0.00426867
0.000415572
6.85805e-05
-0.000178013
0.000169695
0.00667137
0.00133211
-0.000562227
-0.0380334
0.000159454
0.283195
-0.00555969
0.00931725
0.000620733
3.31535e-05
0.00118771
0.0113887
-0.00192462
0.00250257
0.00561009
0.000374828
-0.130601
0.000110585
-0.115607
-0.00257548
0.00716438
0.00262921
0.0275628
0.394838
-0.000846301
0.468996
-0.160452
0.312222
-0.0551358
6.20387e-05
0.00683093
0.144834
-4.94677e-05
-0.00383951
-0.000597261
0.0245199
0.0019683
-0.000209013
-6.78507e-05
8.65866e-05
0.123027
0.000164696
-2.94192e-05
7.97749e-05
0.000540874
-0.755084
0.00159691
0.331997
0.000198153
0.000326574
-0.000248492
-0.00411598
-0.660898
0.00667824
-8.40654e-05
-0.0210284
0.00041191
0.000311826
-0.000440714
0.000150796
0.00607427
-0.00013323
0.00112353
-0.000195233
0.00150505
0.000628827
-0.000147528
-4.75176e-06
0.000162097
0.00566677
-0.464188
9.26828e-05
-0.000598696
0.0001001
6.87262e-05
0.0022615
9.70319e-06
-0.0319942
-0.000125079
-0.00177212
-0.00887002
-5.1222e-05
-0.00717783
0.013253
0.00114745
-0.0236018
0.105493
0.0148838
0.00462869
0.000554535
0.00292724
-0.00276596
-0.00543965
0.00288813
0.221953
5.86008e-05
-6.59353e-05
3.5507e-05
0.147685
-3.52245e-05
0.0687746
-0.00112638
-0.0136235
0.0201223
0.296856
0.000760969
0.0102485
0.000313826
0.143273
5.34151e-05
-0.000519201
-0.0157635
0.000169402
-1.85033e-05
0.359549
0.00173967
0.0726127
0.0015311
0.00750747
0.0704115
0.000566747
0.00388499
0.000371177
4.83998e-05
-0.00139693
-1.56087e-05
-0.117599
-5.78119e-05
-0.00170063
0.00255528
-0.063733
0.144637
0.000933177
-0.121939
0.00011525
0.00933548
0.00337355
-0.0317361
0.0132371
-0.000165713
0.00487992
-0.00125956
0.000565889
0.00871036
-0.100083
-0.0587006
-0.329511
0.000195154
-0.0764065
0.00079177
6.01793e-05
-0.000527573
-0.0535382
0.00509755
0.039337
-0.0713156
0.000146904
0.00115486
-0.0535491
-0.00101352
0.000619604
5.484e-05
0.00145888
0.0446898
0.00109875
0.010234
0.110978
5.6548e-05
0.000187204
-5.15955e-05
8.19054e-05
0.00154682
0.00205204
0.000219428
0.00135546
0.00264616
0.00103923
0.000472522
0.0028158
0.00852628
-0.000653664
0.000962272
-0.0288252
7.82752e-05
-0.000991333
-0.058512
0.00527749
6.34063e-05
0.00109434
0.182899
-0.000309392
-0.00151634
0.00201424
-4.10428e-05
0.0147211
0.00688655
0.00578195
0.000233748
0.00188706
0.0069503
0.000466825
-0.000455427
0.310348
0.000275882
-0.00685962
0.00559651
-0.00181264
-0.00392997
-0.023502
0.0023682
-0.423957
0.000470916
-0.000144126
3.18254e-05
-0.000387391
-0.00103906
0.0490156
0.000803704
0.00022699
3.03029e-05
0.280312
-4.59286e-05
0.0119889
-5.27433e-05
0.00227949
0.0146699
0.000935629
0.00084544
-0.000784153
-0.000415182
8.76679e-05
0.000103101
0.119992
0.00107308
7.49413e-05
-0.00425681
0.0245456
0.00121785
0.00255883
-0.000124016
0.0159318
3.01055e-05
0.00132075
0.41509
-0.0117522
-0.00030726
-4.56808e-05
0.00195685
-6.48831e-06
7.45181e-07
-0.00176844
0.00900993
-0.00112696
0.00130739
0.000697279
0.128956
0.000403391
-0.00020185
-0.048249
0.000338778
-0.0239513
0.000609384
-0.305731
-0.00103045
0.00143362
-0.000288779
-1.77837e-05
-0.000304512
0.431839
0.00048937
-0.00264986
0.0136109
0.00373368
0.000637174
-0.00180887
-0.00259287
-0.000109951
-1.04191e-05
0.0146888
0.0016879
0.000482644
0.525698
-9.20664e-05
-0.0205349
0.000759347
0.0214034
-0.0805285
0.00898718
0.00201599
0.00422479
0.00642204
-0.000446782
3.29501e-05
-0.0389832
0.111057
0.00046815
7.41828e-05
9.4769e-06
-0.000231679
-0.000147493
0.00956248
0.00198839
1.84419e-05
-0.00466963
0.00249667
-0.000116611
0.0884346
0.00013618
-0.000996014
-8.70275e-05
-0.0127155
-0.268316
1.69501e-05
0.000167865
0.278153
0.00665309
0.00502835
-0.000132438
-0.000217928
-0.000214985
-0.000920574
0.00602413
0.1454
-0.000133406
-0.000167734
0.000785424
0.000608019
-0.000164898
-0.000481117
0.000585083
-5.72354e-05
-0.0026058
8.09182e-05
5.27514e-05
0.16433
-3.2964e-05
-0.0543924
0.0109055
-0.337212
0.000142975
0.000169241
-4.82502e-05
1.10351e-06
0.00018535
-2.80711e-05
-6.22707e-05
0.0260199
-0.000172114
0.000508827
0.000429101
0.0096349
-0.15586
0.0137954
-0.000660915
-0.00304076
-0.0305017
-0.380727
-0.000119012
0.118139
-0.00156046
0.0257723
-0.000558105
0.000703684
3.65979e-05
0.00098091
0.000223696
0.000376017
0.00208823
-0.00808821
-9.5631e-06
-0.207915
0.00014747
2.11481
0.00249952
-0.000724611
6.27196e-05
0.0025326
4.04044e-05
-3.20962
-0.000845721
7.07878e-05
-5.94888e-05
-5.00382e-05
-4.98324e-05
0.000127025
-0.000183592
0.00141707
-0.000559548
-0.000266805
-0.00033395
0.00169654
2.93108
-0.000586922
-0.0101411
-0.000190268
1.34223
0.131057
0.000343623
0.00538879
-0.000113187
0.00287149
0.000514034
-0.00557885
-9.19034e-05
0.000321228
0.180756
0.00190872
-0.0010083
-2.06155
0.000117219
0.00959213
-0.000173912
-0.0464829
2.59123e-06
0.251322
0.000353703
0.00676363
-0.000449065
-0.00475469
-0.0122363
-0.000107732
-0.000377486
-0.000361545
-0.000896894
-0.000190699
0.00048966
0.000114187
0.1252
-0.0512224
0.0872305
-0.087023
0.00709824
-0.00371483
0.00115993
2.52284e-05
0.0125711
0.000364998
0.000471967
-4.30723e-05
6.25504e-05
-3.63635e-05
-0.00134933
-2.94724e-05
-0.00106066
0.0072742
0.000250031
0.0138618
-2.29301
-0.144321
0.000254521
0.0066696
-0.000210344
-0.000219413
-1.25956e-05
0.000109897
9.206e-05
0.365923
0.13709
0.000558532
1.86798
0.0012927
-0.000171281
0.0128945
2.63792e-05
-0.00685921
0.000156279
0.0056994
-0.000252189
0.000798625
0.000279911
3.48858e-05
0.000241369
0.01181
0.00161499
-0.383609
-0.00059492
0.000334626
-0.126147
-3.21225e-05
0.0235315
0.000965713
0.0021311
0.00153292
7.68793e-05
-0.000248879
-1.86596e-05
0.000304836
0.00516534
0.0631202
-0.00455714
0.00530142
-0.00032043
0.051126
-0.00694853
0.000915587
0.000107586
0.00116135
0.000434475
0.00286255
0.00138227
0.198307
0.000103821
0.00142141
0.00430429
1.05384
0.000971177
0.000157518
-0.000284126
0.0021867
-0.603217
0.00221902
0.0721008
0.00420245
-5.50211e-05
0.00160654
0.000254136
0.0042164
-0.00819828
4.5648e-05
-7.5794e-05
0.00229627
0.00139836
-0.00040425
0.00157549
-0.0141481
-0.0107167
-0.000764041
-4.15479e-05
-0.00389897
0.0108964
-0.0118614
6.00955e-05
7.83674e-05
0.000226193
-0.0137287
0.00150186
0.242831
0.00237164
-0.000372673
-7.97754e-05
0.00095103
-0.00880981
-9.87304e-05
0.000423882
0.000586558
5.79285e-05
-0.003199
-0.000866064
0.000985091
-0.000878659
1.30072
0.00961279
1.22392e-05
0.000532754
0.00305519
0.000190598
0.000119657
0.0938238
0.00994917
0.000824624
7.90267e-05
-0.000170442
0.116873
0.000334063
0.00559412
0.0125711
-0.000753478
0.000817726
-0.0166366
0.00128772
0.00559999
6.84801e-05
8.76408e-05
-0.000823042
0.00056336
0.00700154
6.4267e-05
-0.000132528
-0.0198108
1.6031e-05
0.00962096
0.00187513
-0.000114427
0.030297
-0.00804726
1.08912
0.000845389
0.00395034
-5.13128e-05
-0.00452086
-0.000267411
0.149215
0.00110158
5.46522e-05
-0.00138937
0.00126131
0.00499899
-9.88048e-05
0.097554
0.000509113
-0.586602
0.00710999
-0.024159
5.41296e-05
0.00980713
0.12103
0.00933188
-0.000201077
0.123754
-0.145552
-0.00106397
-0.000760856
-0.00255288
-0.00205112
0.000667319
0.00148485
0.140582
-0.000205685
-0.294721
0.0349909
-0.000174141
0.00764199
0.00241811
-0.0053539
0.00081258
-0.000100951
-0.0218135
0.501249
0.000215897
-0.00546988
-0.00547576
0.0030967
0.000195204
0.00345289
0.00455857
0.00589261
0.40211
-0.000205434
-0.00666551
6.34782e-05
0.00617848
-0.00671282
0.00464572
-0.000203781
-0.00822548
0.0129703
0.2473
0.00845406
-0.000114955
-0.00132742
-0.000235501
0.0267087
0.000132328
0.000523892
-0.000103919
0.00680481
0.000147346
-0.0598593
0.0526343
0.000318601
0.000184362
0.151993
0.00529376
0.00187977
0.00345457
0.0013686
0.00229762
-8.68894e-05
0.00073262
0.00236217
0.00690041
-0.000260942
7.00003e-05
-9.10378e-05
-0.0951237
-0.00273711
-0.0716344
-0.000663613
0.00332297
0.00512483
-0.00461989
-0.417279
0.000111312
-0.0002687
0.00173077
-0.000252513
0.00124473
-0.00265275
0.000536588
0.0407828
7.49856e-05
-0.0071143
-0.0104216
0.000136007
0.000158788
-9.656e-05
0.000142585
-0.000895922
0.00065014
-0.00179981
0.00720287
-0.0300733
0.00888832
0.000245149
-0.0794843
0.000911745
-0.000960161
-0.000841299
4.41053e-05
0.00877921
0.0382396
0.00209023
-0.0328951
0.000282982
-0.000723985
0.000410899
6.36533e-05
-0.000463305
-0.000370946
-0.288096
0.000809028
-0.137253
-0.00144681
-0.00741891
-0.370148
0.00306378
0.0640493
0.00322999
-0.00268975
0.073531
0.000279032
0.000654557
-8.71841e-05
0.0277182
-0.000154049
0.000202227
0.0035314
-0.00161588
-0.000199282
0.000111583
-0.000711257
-0.00435507
0.174725
-0.00495338
0.00241121
-0.00236671
0.000173606
0.108533
-0.738359
1.44875e-05
-0.000519822
-0.0809627
0.0247986
0.252422
0.00011742
0.00343149
0.000790132
0.325119
-0.00426978
0.000208815
-0.0023916
-6.61625e-05
0.000785334
0.000160983
0.00143701
-0.0252868
-0.0432628
0.4211
0.000915481
0.000161307
-6.26994e-05
8.63278e-05
-8.37203e-05
-0.00014977
0.000923894
0.000102603
0.00130228
-0.00210705
0.130373
-6.39678e-05
1.4455
-0.0210647
0.0175644
0.000480181
-0.0202543
0.104643
0.00114874
0.000699606
0.00516463
0.00167489
0.00277564
-0.00100047
0.00146114
-0.0537856
-0.000275087
0.00251694
0.00074176
5.8087e-05
0.000163644
7.30516e-05
-0.00224391
-0.00343861
0.00440323
-0.00041075
-7.30251e-05
0.000944984
0.354585
0.000266798
2.34674e-05
0.00556289
0.000417806
-1.10856
0.00430228
-0.000156468
-0.0519531
-9.57248e-05
0.22601
0.00147427
-0.00113565
5.83223e-05
-0.000139862
0.00533575
-0.0235761
-0.0241372
-0.212299
0.000803636
2.40123e-05
0.00044064
-0.02069
-0.000388434
-5.85824e-05
-8.23914e-05
0.311828
0.000126633
-0.0570241
-0.0545001
0.00653085
0.000161624
-0.0712562
0.0114698
-0.00172878
-0.000128403
0.00314896
8.72773e-06
0.0970923
-0.000127835
-8.51821e-05
0.00228088
0.000265783
-0.000135075
0.214177
3.04959e-05
0.0931175
0.00021601
-0.00153946
-0.000661607
0.00131666
-0.000990605
-0.0230957
0.000175271
0.00512906
0.000828198
-1.37332e-05
7.21026e-05
0.000343209
-0.000741074
-0.0151964
0.000405058
0.311849
-0.000187713
0.00237325
0.000167451
0.00201534
0.00132678
8.61767e-05
0.000114069
8.445e-05
0.0131631
-0.00195546
-7.66731e-05
0.00355865
-0.010793
0.00172168
0.0791461
0.000304383
-0.000352384
-4.54481e-05
-0.00171497
0.317755
-0.0130015
0.0127751
-6.72506e-05
0.00091146
-0.00352963
0.742766
0.00832141
0.0690704
-0.000296239
-0.00405056
6.80565e-05
-0.00560714
0.000381331
-0.00012083
-0.0583103
0.00602437
5.68009e-05
7.41369e-05
-0.0526362
-0.00194063
0.000191301
0.590709
0.000824384
-8.50827e-05
-0.544193
-0.0105055
-7.54385e-05
2.59459
-0.000119403
0.000150037
0.00022068
7.08594e-05
-0.385671
-0.000138793
0.000133356
-0.0404274
-0.000378734
0.136269
0.00122467
0.000145711
0.000196738
0.000359891
0.000635366
0.00579241
-4.43677e-05
0.015666
-9.54411e-05
-0.0125667
0.00092354
-0.000160803
-0.00773795
9.66604e-05
0.0104246
0.000248319
-0.0462564
0.000186476
0.00543488
0.00954528
0.00131307
0.000678085
1.82019
-0.019445
-1.81221
0.000898001
-0.00484328
0.00439114
0.00908415
-0.193727
0.000846331
-0.0262591
0.00353242
-0.00049417
-0.00929298
8.11288e-05
0.00150912
0.000253415
0.000208738
-6.63183e-05
-0.000131195
0.000147783
9.75844e-05
-0.0696071
-7.83821e-05
0.00183176
-0.000107915
-0.305621
0.00595309
-1.4105e-05
-0.000420517
0.00129259
-0.00963531
0.0168295
0.00207725
0.141554
0.000687997
-0.0672305
-0.000311908
0.00707043
4.5169e-05
-0.000266568
0.000155085
0.0778034
-6.33743e-05
-0.000159193
0.00020495
0.447339
0.0195231
0.000632296
-0.000298278
-0.00709539
-7.47724e-05
0.0173491
7.04039e-05
-0.000168139
-0.000132238
0.00761693
0.000184426
1.45957
-0.000115392
0.00022841
-0.270564
-0.000195031
0.000124521
-0.000480627
0.0118205
-0.00066516
0.0560826
-0.000285465
-0.000258266
0.00123888
-7.52576e-05
0.198895
0.0858555
0.394796
0.000343527
-0.352984
-0.753856
0.000108706
-2.79858e-05
0.000310994
-0.000736436
-0.0639692
-0.000305223
8.97953e-05
0.000367838
0.00171923
4.75655e-06
0.00336173
-0.000448652
-0.000462447
0.000155751
-2.9439e-05
-0.0854193
0.00457078
-0.00127057
-0.00033074
-2.07064e-05
-0.0783249
-2.19686e-05
0.000128644
0.0028357
0.00044218
-0.000309436
-0.000331308
-0.000100167
0.00264929
0.00032216
0.000524243
-4.53793e-05
-0.0172277
0.00026332
0.000664766
0.0628992
5.8045e-05
0.00229145
-0.000105044
7.28049e-05
2.45519e-05
-0.00256125
-0.047692
-0.00149085
-7.35058e-05
-5.82371e-05
-0.0893938
-4.68229e-05
0.00583739
-0.00098362
0.00144511
-0.00120007
0.000147707
0.00159451
0.249078
0.000208173
-0.0803789
-0.0735275
0.00151618
0.00146475
0.00181531
-9.65963e-05
0.00148797
0.000777326
-0.00147171
1.79137e-05
2.05843e-05
0.0036148
2.12866e-06
-0.00221725
-0.00372982
-0.000167446
0.00100087
5.23555e-05
-0.0948484
-4.00985e-05
-0.00586916
-0.000596904
0.00131437
-0.00207244
-0.00650847
-0.0474508
-0.00149325
0.125119
-7.92219e-05
-0.000567028
0.00908924
-8.12153e-05
-0.00434334
0.00022833
0.0013577
-0.000226223
-0.000108865
4.09234e-05
-0.00135658
7.55849e-05
-0.000153153
-0.00250389
0.000633694
-0.000995192
-0.000205481
0.00401747
0.00023604
0.000268837
-9.54692e-07
-0.000591997
0.000195586
-7.93436e-05
7.02981e-05
-0.000125811
0.00586553
-0.000364609
-0.000228631
-0.000188254
0.0052633
0.254217
-0.037696
-0.295173
-0.000118433
-0.0183773
-0.00470144
0.0158315
-5.72109e-05
-0.129005
1.5235
6.63357e-05
2.88159e-05
-0.000148286
0.00159827
0.957943
-0.00138981
-9.11577e-05
0.00125666
0.000206402
0.00301053
-0.0521135
-0.00156025
0.179959
0.000794054
1.59419
-0.0265277
-0.00174266
-0.000760672
0.000606936
-0.000205832
0.00129687
0.0166375
0.00112676
-0.00012321
0.00120333
0.000951677
0.000200233
-0.0235741
-0.000356192
-0.0036897
0.00104215
0.000819409
0.000790655
5.00211e-06
-0.000392392
0.00284051
-0.563207
-3.46785e-06
-0.044034
-8.31001e-05
0.00615402
-0.000231608
5.97365e-05
-0.00521978
-0.000436174
0.001961
-0.000423857
-4.74872e-05
-0.344297
0.00027773
0.00237202
0.000939229
0.00225873
-0.000541326
-0.11016
7.8281e-05
-7.87568e-05
-0.0163758
-9.2618e-05
-0.319096
-8.62096e-05
0.0113385
-0.000294299
-5.36854e-06
0.00169148
-0.000173668
-0.059111
-0.00299487
0.000211676
-0.0121295
0.00296823
0.000224731
3.61042e-05
0.139302
0.000914093
-0.000192072
0.576814
-0.0102789
-2.95378e-05
0.00102684
-0.00333924
0.000410807
-0.010232
0.00195539
-0.000136203
0.000236105
0.00299299
0.00528989
-0.00346423
-0.00301106
0.00251297
0.00101827
0.000249435
0.00282814
-0.000401577
-0.000818646
6.96985e-05
-0.00594513
-0.00155197
2.30315e-06
1.04043
0.000307747
0.000400953
-0.0320456
-0.0713204
-9.38641e-05
-0.000331031
0.00192662
-0.14218
0.000934291
0.000196485
0.000315099
0.216731
0.123927
0.000106061
0.000102185
0.00638031
0.00124101
0.689699
0.000463774
-7.90219e-05
-7.24669e-05
-4.6574e-05
-0.000164652
-0.000237624
0.0002657
-0.00063375
-0.0912364
-7.3358e-05
0.142019
-0.0200213
-0.0275315
-0.0238708
-0.756225
0.184291
-0.000546122
4.67955e-05
0.000395596
4.13266e-05
0.00162609
-0.00303948
1.50047e-05
0.00193052
0.109029
0.312555
3.76069e-05
0.000581347
-0.00031314
0.00169955
-0.0391673
0.0805374
0.0015638
-0.00351795
-0.000713702
-0.082605
-6.46502e-05
-0.0024559
-0.0226804
0.000226173
-0.073721
1.37458
-0.0956678
-0.000279239
-0.44948
-0.000629986
-0.0271978
9.05389e-05
0.000428611
0.0895455
-0.0961623
0.0897342
0.000131574
0.00219846
0.000371309
0.00115683
-0.00400568
-0.00208623
-0.283599
-1.32444e-06
-0.117196
-0.00150598
0.0891441
-0.0269958
-7.07422e-05
5.87449e-05
-0.000348268
-0.104814
-0.0481452
-0.581727
0.00156344
-0.182901
0.029054
-0.359635
0.500251
-0.795563
0.000216172
-0.00337978
0.000190807
-0.00522045
0.000111058
0.000323537
0.000368382
-0.0396566
0.00155631
-0.000178492
8.91519e-05
-0.342297
-0.0433102
0.00150304
-0.00566807
0.0124242
3.1117e-05
-0.000257493
-0.014193
0.0124158
-1.77036
0.0106209
-0.000265928
0.00184646
0.598232
-0.000666875
0.141774
0.000101135
0.000309564
0.173331
-0.0306109
0.000193533
-0.0333014
-0.282393
0.00865422
0.428016
2.07628
1.82384
0.00274987
0.00150216
0.00109912
-0.000776259
-0.00331128
-9.807e-05
0.000300413
-0.0119507
-0.0145102
-4.44868e-05
0.000285201
0.00101372
0.138641
0.00233665
1.8891e-05
0.0024717
-0.001375
0.0743854
0.237962
-0.000111492
-0.0676663
8.69073e-05
0.738118
0.00152429
-0.000247705
-0.0822954
-0.0592783
-0.00286676
0.000238019
0.0013301
-0.0204051
0.000724852
-0.00207855
0.00113371
-0.00027067
0.00764758
-0.391168
-0.00422408
-0.000292513
-0.123923
0.0597077
-0.0299385
0.0133387
0.00115267
0.000122295
-0.000263816
0.00113139
-0.00020688
0.0757598
0.0052252
-0.000419408
0.000113819
0.00109667
8.9131e-05
0.00221071
0.00111067
0.0122487
-0.00019774
-0.0337464
-6.17996e-05
0.00431653
-0.00019679
-0.000292211
0.00341687
-0.00635319
-0.000633994
0.25548
0.527696
0.999489
0.00569641
-0.000130351
-0.443711
0.773023
0.000722047
0.0116891
0.00522872
0.00180735
-0.0790448
-0.00364777
0.00124786
0.000101893
-0.00264271
0.000216312
0.00349146
-0.000647582
-0.000360698
0.00113905
0.000164541
0.0793648
0.00240595
-0.000119898
0.000108834
-0.000379963
0.0461267
-0.000102138
-0.00665093
-6.60477e-05
-0.00656199
0.00136958
0.00164477
0.00213383
-0.00207723
0.000197135
0.000191917
-0.00276845
-0.0177676
0.0614254
0.0480835
0.000460216
1.02101
-0.00015691
1.27202
0.000264134
-0.00285177
-0.0239561
-5.76525e-05
0.00713744
-0.0034432
0.000349195
-0.00043393
-8.78773e-05
0.00161917
3.43213e-05
0.0520785
-9.25319e-05
0.00323468
0.378417
-0.000131976
0.0188202
-0.000111575
0.0031635
-0.00010821
-0.00156583
0.0167842
0.000215482
0.000397791
0.00197733
9.71432e-05
-0.000243245
0.000209961
-0.000339043
0.143479
-0.00769728
-0.00147614
-3.25651e-05
-0.0486845
-0.00625207
0.000114331
2.03957
-7.69696e-06
0.00177751
-0.0628031
0.00194921
-0.0419564
-0.000202838
-0.00578356
-0.0395927
0.00215745
0.000488941
-0.219036
0.0352686
-0.00554536
0.00178765
2.1524e-05
0.000155777
0.00144949
0.00019624
0.0250969
-6.94531e-05
0.000148394
0.411147
0.0113829
0.217243
0.0160569
0.000402185
-0.0606001
0.00139248
0.0327946
0.0131422
-8.30192e-06
-0.000173028
-0.000541161
0.00182268
0.00035683
-2.52027e-05
0.000728268
0.00233441
-0.089831
-0.00345714
1.30743
0.00464003
0.632771
-0.00017244
0.00028253
0.000267186
1.5652e-05
0.0190958
-0.000220316
0.000220783
-0.00628035
0.00013611
0.000113
0.00621338
0.000185877
-0.000777608
0.0585818
0.000418989
0.0346754
0.102557
-0.000307834
-0.00218141
0.00707456
-0.387091
0.00156009
0.0136666
0.00985809
-0.0818544
-0.02458
-0.00384772
0.000403987
0.0683694
5.17695e-06
-0.63704
0.00561933
-0.000814237
0.0673975
-0.000751179
1.77383
0.000390264
0.274054
2.31482
0.0010796
0.00606008
-0.000195228
0.121277
-0.000124767
-0.00786551
0.210964
-0.212618
0.0246789
0.000735463
0.0010573
0.000252119
0.000702656
0.000388724
0.000338501
0.000717193
0.044215
-6.92655e-05
-9.88457e-05
-1.91874e-05
0.0936453
-4.03248e-05
1.43731
0.000681979
8.40666e-05
-0.000575731
0.000658398
0.00113137
0.000322398
-0.141287
-0.000940052
-5.26812e-05
-0.00063629
0.00319181
0.00354229
-0.00623998
0.00101331
0.00769801
0.000671885
0.0010742
0.64903
-0.199194
-0.00164167
-0.00158925
3.79883e-05
0.0147024
0.000545415
-0.0066599
6.66354e-05
-4.67748e-05
-0.00073573
0.00532278
0.000980821
0.000242668
0.00180147
6.20152e-05
-0.00030552
-0.0881134
0.00456407
-6.89449e-05
-0.000162495
-0.000564168
-0.000115212
0.28084
-0.0362093
-0.00117021
-0.00516662
-0.0612222
0.00668714
-1.35524e-05
-0.000271637
0.0018293
-8.47414e-05
0.000335531
0.160241
0.00169005
0.0105297
0.0147808
0.00156194
-0.000278801
-0.000503401
2.48022e-05
-0.000788143
0.0366088
-0.000645569
0.704329
0.000283709
-0.000994344
0.000477467
0.00150572
-8.61618e-05
1.86104
0.00295774
0.000540796
0.178187
0.105624
0.000259883
0.000729683
-0.0385853
-2.61885
-0.000335102
-0.000142891
-0.0067795
-0.000891074
-0.0351455
0.00249619
4.02019e-05
-0.000382712
0.00177347
0.00697509
0.000591941
0.000817624
0.000451031
-0.00288519
6.17966e-05
-0.00479445
-0.0200318
-0.0642007
0.000207575
0.218282
-0.000989197
-1.50464
-0.00696733
4.32836e-05
0.000287521
-0.00162006
0.00133823
0.00110024
0.00125381
0.0523497
0.00207423
-0.00158958
9.71053e-05
0.00020388
-0.00502347
4.59749e-05
-0.0369853
-0.0430552
0.000461848
0.022333
0.000398543
0.766291
0.000370743
0.00134733
-0.000377917
2.1144
0.00245205
-0.506525
0.000120264
0.00043102
0.000907121
-0.0016001
0.00202145
-0.197359
0.0862144
8.93564e-05
-8.21933e-05
0.0013782
-0.924008
0.00159426
0.000501537
-0.000202328
-0.026569
-0.000148764
0.000193944
0.000511951
0.0738512
-0.000808962
-0.0150352
0.000339359
0.00121936
6.39501e-05
-0.00185548
0.00795998
-0.00419911
-2.20294e-05
0.000109275
0.00012485
-0.000103631
-0.000796592
-3.12624e-05
-0.257725
-0.000129211
0.0107677
-0.0164238
0.000752722
0.00014263
-9.38902e-05
-0.000199967
0.000671578
0.000970786
7.62533e-05
0.123435
-0.00669779
0.00574796
-0.000108716
0.000235282
1.60105e-05
0.000403275
0.642927
0.00566882
0.00231934
-0.00314954
7.61791e-05
-5.14011e-05
3.34014e-06
-0.00139334
-0.00062577
-0.000354359
1.4174
-0.961322
0.00142985
-5.55989e-05
-0.00140525
0.000292703
0.0125268
0.000648474
-0.0186598
-0.0958087
-0.00177716
0.000135386
0.000453197
1.00342e-05
8.97476e-05
-6.45864e-05
0.000177264
0.147916
-9.9355e-05
-1.02567e-05
0.0170656
0.312549
-0.0600384
-4.18028e-05
0.00027345
0.0825324
-1.53822
-0.000911742
-0.128998
1.87089
-0.0396331
-3.82007e-05
0.124655
0.000102293
-0.0695254
1.94462
6.40562e-05
-0.000875885
0.000985287
-0.00592888
0.000232179
0.00243716
-5.38193e-05
0.000232083
0.00131418
2.33829
-0.000977864
0.00509503
6.49468e-05
8.02185e-05
-0.00150402
8.34328e-05
0.0173955
-0.0249635
0.0525388
-0.00011817
-0.00125174
0.000622551
-7.5671e-05
5.4213e-05
0.00491171
0.000528758
3.85628e-05
0.151946
0.000533442
-0.000199061
-0.000615249
-7.80157e-05
0.0443219
-8.2422e-05
0.00494344
-0.00338045
0.01293
0.000117438
0.00103846
-0.0509997
0.00117299
0.0163487
0.000728579
-0.0303538
-0.0150526
-0.000178666
-0.532107
-0.00011621
-4.81497e-05
-0.000154422
2.02759e-05
-2.01449e-05
0.000160919
5.63823e-05
-7.06555e-05
-0.47022
0.00116614
-0.0223029
0.000238378
0.000623776
-0.000151485
0.000318508
-0.000459379
0.00868706
0.0003131
-0.000215418
0.00101448
0.00518497
0.0620456
0.000823114
0.000438139
4.57862e-05
-0.000102487
0.00894985
-0.0001304
-0.000362148
0.010551
5.45244e-05
0.000276528
-0.000281696
0.101628
2.40757
-0.0764757
0.000197302
0.00524225
0.202377
0.194317
0.00094028
5.82938e-05
9.39625e-05
0.000265623
0.00929971
0.000732667
-0.00285876
0.00850512
-0.151353
-0.00356599
-0.000372202
-0.000113854
-0.000130556
0.00817846
-0.0119069
0.016721
-0.00064556
0.0140448
-2.41384
-0.0676474
0.00224353
8.39448e-05
-0.00352925
-9.10457e-05
-0.000297742
-0.000138379
-0.00203582
0.00110547
2.10027e-07
-0.000446583
4.87098e-05
-0.00232683
-0.00290349
0.000511099
0.0187936
0.000418995
-0.00307656
-7.66253e-06
-0.00123497
-0.000122642
0.00216178
0.00278694
0.000563401
3.83877e-05
-0.00260585
-0.000712515
-0.000546744
-0.375318
-0.123379
0.461068
-0.00023038
-0.00576978
-0.000186935
0.00259398
-0.288151
0.000495121
0.000588857
0.00546945
0.000304978
7.80851e-05
0.00022036
2.24135e-05
-0.0911383
0.0107862
0.000678064
0.00277503
-0.000190298
-0.000287064
-0.167069
0.000987521
-0.000281762
0.0153526
-0.00355794
0.00605756
0.000891159
0.111091
-8.96325e-05
0.0957902
0.000204239
0.000452691
-0.000317303
0.0126891
-0.0179119
0.00235767
0.000438286
4.29802e-05
0.000824928
-0.000129622
0.00259148
0.0932917
0.000188376
-0.0550945
-0.000520151
0.012365
-0.0263355
0.000340105
-0.000133737
-0.000256947
-0.000840655
-7.41338e-05
2.29433e-06
0.000117228
-0.0573908
0.00104932
1.61755
0.000259794
0.00553123
-4.78743e-05
3.50609e-05
-0.000114203
0.000536955
-8.10614e-06
7.80968e-05
8.23732e-05
-0.260109
0.00697517
-0.000942074
-0.000112938
0.011906
-5.15598e-06
0.000592921
-0.0322493
-5.87181e-05
-9.77091e-05
-0.00244126
-0.00981982
1.07094e-06
-9.18096e-05
0.0010255
-0.000108261
0.0988773
-0.0047478
0.000301615
-0.00762267
0.00221275
-0.00386428
-0.1489
-0.000187032
3.34011
3.37721e-06
-0.00484378
0.0010433
0.00870474
1.59853e-05
0.000372818
-2.63389e-05
0.000347187
0.00027154
-0.000224056
0.000516518
0.00907835
0.000284606
-0.0002451
0.000380933
-0.00104628
0.00164241
0.00747892
-0.000164455
0.00757035
0.00498299
-0.00718092
0.00531948
-0.341403
0.0453422
0.00608693
-0.000561521
3.46371e-05
-9.4132e-05
0.541136
0.0536867
-0.00200056
-0.00061049
-5.79969e-05
-0.000269078
0.0002709
0.00131101
0.0909638
-0.104301
0.000638238
0.00186609
-7.20024e-05
-0.0682458
0.171341
-0.000310942
0.000402098
-0.000287401
0.0223989
0.00170868
0.0127066
-0.0377546
0.000139346
0.114153
0.00333737
0.00799375
0.00028068
-5.79991e-05
0.000149197
0.682442
0.00138879
0.0742217
-0.0561912
-0.00546851
-0.00695637
-0.000477847
0.216805
-0.0120909
-0.000177077
0.0153728
0.011651
0.00174039
0.000398781
2.21711e-06
0.000656843
0.000296162
-0.0666561
-0.106764
-0.147273
-0.00027708
-0.000101666
-6.69185e-07
-0.000213645
0.00237528
0.170586
0.000289158
-0.0035921
0.00130917
0.00033086
0.00018417
-6.63379e-05
0.00359851
0.000123401
-0.783692
-0.000134434
0.000104638
0.0261655
0.00279949
-0.053294
-0.000514237
-0.0475511
8.7766e-05
0.00760428
0.000789136
-0.000107667
-9.61217e-05
-7.00973e-05
-0.0128688
-0.00241821
-0.000136739
2.64155e-05
-0.000203124
-0.000535416
0.0164584
-0.00174237
-0.000158748
-0.00109884
-0.155555
5.19417e-06
0.00114713
-0.000173416
0.000478531
-0.0318174
-0.974881
0.000118899
-0.0629115
0.00315579
-0.000272909
0.00686609
-0.000191385
-0.713375
-0.78257
0.00238201
0.00546272
3.23334e-05
0.000102814
4.49652e-05
0.00444471
0.000816594
-0.00679236
0.00680058
-0.00430568
9.0344e-05
-0.000242353
-0.00146666
-0.00069476
-0.0110746
0.00210622
0.000171744
-0.789114
4.26772e-05
-0.0329762
-0.000184407
0.0540136
0.000126789
-0.00453383
-0.000240252
-0.00235231
-0.00298998
0.00031578
-0.000159409
0.000189149
0.000656733
-0.0192183
0.00553967
-0.000381169
-0.000330413
0.00288549
-7.07533e-05
3.03492e-07
-0.00510676
-0.0020854
8.98001e-05
0.0028546
0.00010647
-4.46073e-05
1.95159
-0.706923
-0.174405
0.00446109
-0.000241443
-0.677559
-0.118094
-2.22397e-05
5.44853e-05
0.00740279
-0.000958154
-0.00150638
-0.000232377
-0.00593413
-0.129546
0.104077
0.000212395
0.000413364
0.00126225
0.0058366
7.59869e-05
-0.0729899
-0.00293469
-0.000156684
0.000136984
0.00844668
0.549715
0.0554383
0.000102865
0.000592786
-0.000689106
-0.00319807
-0.00898493
0.0036478
-0.0643229
-0.00629169
-3.02415e-05
1.83542e-05
0.00162827
0.00209965
-0.000119718
0.0214617
-0.000428713
-0.0509334
9.84116e-05
2.23584e-05
0.000185487
0.0802286
-0.322724
0.00229495
-0.114824
-1.07522
0.000234643
7.72696e-05
3.23644e-05
5.3244e-05
-5.24239e-05
-0.298621
-0.000242034
-0.000247772
5.30976e-06
-0.796151
0.0004745
0.000290789
-0.000480548
-0.325781
0.00408822
9.7341e-05
-0.357827
-4.37812e-05
0.000200966
-0.0495204
-7.39794e-05
-0.0239073
-0.000126191
-0.318037
-7.07092e-05
-0.000283647
-0.0317058
-3.05443e-05
0.000117586
-8.95736e-05
8.40308e-05
-8.96356e-05
-0.00438642
8.92011e-05
0.202904
-0.0906995
-7.62536e-05
-0.000214289
-0.000165592
-0.000111225
4.69934e-05
0.000459382
-0.00876623
0.00175195
0.293874
0.114332
-0.0575519
-8.91755e-05
-0.000213873
-0.015719
-0.00509155
-0.00563825
-0.00712605
-0.000358336
-0.000188914
0.000102815
0.000528857
0.00162729
-0.000126543
0.121415
3.08823e-05
-0.00172027
-9.96597e-05
1.96552
0.00105732
0.000396887
-0.00186277
-0.730362
-0.000616525
-0.000216698
-0.0231054
0.024401
0.017657
0.00242578
0.014864
0.000664834
0.00132377
0.00106646
-0.0554853
0.0112315
0.00026089
0.00658167
0.000602782
-3.85671e-05
0.000956581
0.000691072
3.0754e-05
-0.000915944
-0.00257601
0.000645448
0.0304755
0.0171929
0.00930419
0.000457429
-0.00617968
0.00343161
-0.000138519
0.000395976
0.000210698
-0.00204674
0.000206217
0.0417274
-0.0793284
0.000475929
-1.40521e-05
-0.000334849
0.000352317
0.00129251
-0.00014647