/*--------------------------------*- C++ -*----------------------------------*\
| =========                 |                                                 |
| \\      /  F ield         | OpenFOAM: The Open Source CFD Toolbox           |
|  \\    /   O peration     | Version:  v2012                                 |
|   \\  /    A nd           | Website:  www.openfoam.com                      |
|    \\/     M anipulation  |                                                 |
\*---------------------------------------------------------------------------*/
FoamFile
{
    version     2.0;
    format      ascii;
    class       volVectorField;
    location    "50";
    object      U;
}
// * * * * * * * * * * * * * * * * * * * * * * * * * * * * * * * * * * * * * //

dimensions      [0 1 -1 0 0 0 0];


internalField   nonuniform List<vector> 
18232
(
(1.0332 0.070727 0)
(0.361556 0.0649318 5.22197e-20)
(0.468598 0.383897 8.56861e-20)
(1.06516 0.224632 0)
(1.06539 0.135359 -5.8314e-21)
(1.2689 0.423151 -1.6341e-19)
(0.877111 -0.317625 -8.52559e-20)
(0.975601 0.000695167 -6.32573e-22)
(0.971061 -0.0184377 0)
(0.938389 -0.235473 0)
(1.07613 0.140002 2.72002e-21)
(0.998156 -0.00366427 -4.26634e-21)
(0.937568 0.122512 7.94586e-21)
(0.803654 -0.17096 2.58969e-19)
(0.904522 0.0947228 1.87965e-21)
(0.881825 0.271124 -4.88866e-21)
(1.0684 0.157112 -4.02058e-20)
(0.929282 0.349237 -9.68895e-21)
(0.996798 0.000482518 4.97073e-22)
(0.919926 0.181205 -5.75863e-21)
(1.01114 0.495069 1.64297e-20)
(0.808374 -0.287165 -8.7839e-20)
(0.939173 0.122119 -4.86083e-21)
(0.980847 -0.0507697 -1.00745e-21)
(1.03062 0.0698607 1.12979e-21)
(1.16781 0.0449571 -9.7527e-22)
(0.917838 -0.0265718 6.48043e-23)
(0.792217 -0.0244927 2.98187e-21)
(0.986946 0.0141651 9.38519e-22)
(0.378673 0.0825885 0)
(1.16377 0.0498295 8.69374e-22)
(0.915687 0.188875 0)
(1.0944 0.299585 0)
(1.04404 0.0356188 1.76329e-20)
(1.06753 0.217494 5.53163e-20)
(0.974509 0.000792179 -6.82025e-22)
(1.02271 0.477038 7.22056e-20)
(1.05608 0.104773 7.05696e-21)
(0.701472 0.449098 1.83162e-20)
(1.0383 -0.0190114 0)
(0.404898 -0.0209952 7.67865e-21)
(1.02106 -0.0162325 -2.46374e-21)
(0.478328 0.399626 -1.16348e-19)
(0.981903 -0.0556038 -2.75181e-22)
(0.378044 -0.0381653 0)
(1.0192 0.0472933 1.82857e-20)
(0.881043 -0.0448136 -2.22568e-21)
(1.08933 0.289342 0)
(0.896452 0.0946263 -9.11303e-21)
(1.27487 0.424605 5.12676e-20)
(1.06542 0.153301 3.22632e-20)
(0.905359 0.0914792 -4.03842e-21)
(1.05414 0.0335843 3.10195e-21)
(0.9735 -0.0308647 -6.82095e-23)
(1.06348 0.0641327 -1.43976e-21)
(0.971297 -0.0178353 0)
(0.880693 0.265174 4.33294e-21)
(0.895163 -0.0427694 -2.31115e-21)
(1.01392 0.012498 1.36242e-20)
(0.910787 0.0869389 -6.42212e-21)
(0.981643 0.19476 0)
(1.06587 0.117591 5.39769e-21)
(1.00361 0.137686 1.51021e-19)
(1.00352 -0.269053 -4.10749e-20)
(1.3137 0.151257 4.66965e-21)
(1.1661 0.0957855 -1.4842e-20)
(0.670347 0.445517 9.62561e-21)
(1.01899 0.0474657 -1.01609e-20)
(1.30065 0.00515711 0)
(1.01337 0.0116828 -9.65572e-21)
(1.02463 0.00450417 0)
(0.971829 -0.00603773 0)
(0.926246 0.0415772 7.71589e-22)
(1.01973 -0.0158652 0)
(0.982096 0.191886 -2.28142e-20)
(1.02113 -0.0173986 0)
(0.906479 -0.0342679 0)
(0.611454 0.19455 0)
(0.996173 0.0404902 0)
(1.05455 0.274746 6.78224e-21)
(0.998311 0.283263 2.69733e-20)
(1.08467 0.214771 1.81414e-20)
(1.09522 0.349314 -9.87555e-20)
(1.37978 -0.0559816 0)
(0.970389 -0.00531252 -1.24325e-23)
(1.18615 0.364567 -1.98878e-20)
(1.07073 0.137411 6.8279e-21)
(0.997072 0.000608587 0)
(0.987523 -0.041248 4.35873e-24)
(0.677056 0.451623 -9.2108e-20)
(1.07486 0.106466 0)
(1.04398 -0.0506814 0)
(0.989634 0.193182 -1.48335e-20)
(0.886712 -0.0628182 -1.16513e-20)
(1.31151 0.143339 -1.13509e-20)
(1.3758 -0.0410364 -9.43504e-21)
(1.11489 0.0996475 -9.18776e-21)
(1.04591 -0.0504652 -1.74663e-21)
(1.11102 0.105925 5.3887e-21)
(1.0399 0.0817676 -8.69735e-21)
(1.24579 0.465566 -1.10057e-19)
(1.06856 0.0991724 5.48658e-21)
(1.10835 -0.00403274 0)
(0.980568 0.0244272 1.81263e-21)
(1.02387 0.00452914 0)
(0.787985 -0.0232361 -1.03115e-21)
(1.01062 0.0258234 0)
(0.745793 -0.146835 0)
(0.939037 0.357893 0)
(1.30987 -0.121894 0)
(1.41842 0.038429 1.07635e-19)
(0.907621 -0.0473538 1.03153e-21)
(0.991333 0.187768 2.49849e-20)
(1.20771 0.387683 -4.3803e-20)
(0.981529 0.0237006 -1.30121e-21)
(0.978942 0.0428249 5.4438e-21)
(1.03758 0.0801717 -4.07892e-21)
(0.92337 0.0387898 -4.0607e-21)
(0.994678 0.409216 3.87138e-20)
(1.1619 0.0991708 1.98187e-22)
(0.970666 -0.0058369 4.1397e-23)
(0.939545 0.0605962 1.08549e-21)
(1.00677 0.0020443 2.38734e-21)
(0.927987 0.115527 5.10394e-21)
(1.02277 -0.0183311 -2.09228e-21)
(1.06236 -0.000623697 0)
(1.03491 0.0894432 -1.7445e-20)
(0.622234 0.427578 0)
(1.10187 0.276253 0)
(0.489566 -0.370873 -6.32653e-21)
(0.963014 -0.16475 -2.64569e-21)
(1.06211 0.214124 -5.00786e-20)
(1.05837 0.0533706 -1.16184e-21)
(1.0546 -0.0201027 -2.83026e-22)
(1.02225 0.0471938 1.93704e-20)
(0.988714 0.0131536 -4.82921e-22)
(1.06995 0.228195 0)
(1.01704 0.153873 7.21848e-21)
(1.04092 0.464781 -6.69138e-20)
(1.2701 0.435817 7.07502e-20)
(0.987932 0.0142956 -4.58444e-24)
(0.660131 0.561773 6.63918e-20)
(0.411757 0.365488 1.26525e-19)
(1.09073 0.347412 1.16438e-19)
(1.05614 -0.00234183 5.00842e-22)
(1.02622 0.0320605 1.67502e-22)
(1.03097 0.0876742 -1.65867e-20)
(0.92541 0.153794 -5.4691e-22)
(1.05826 -0.141393 0)
(1.0807 0.145751 -5.95932e-21)
(0.984953 0.257709 -4.89033e-21)
(1.05575 0.0509359 2.38173e-21)
(1.24498 0.462859 1.01289e-19)
(1.0375 0.107369 -1.1337e-20)
(0.662677 0.464908 3.42526e-21)
(1.01553 0.263516 1.55974e-20)
(0.419056 0.379727 -3.96287e-20)
(1.04373 0.166478 4.64458e-20)
(0.974044 -0.174741 0)
(0.711783 0.586459 6.04276e-20)
(1.01033 -0.0517063 0)
(1.04612 0.0871909 0)
(0.678597 0.458597 -6.64109e-21)
(1.18078 0.328188 -1.0099e-20)
(1.35183 -0.163835 -9.25688e-20)
(1.05223 -0.0215276 -4.12684e-21)
(0.935623 0.134442 9.81422e-21)
(1.07269 0.116077 -1.24021e-20)
(1.02134 0.000886147 8.77428e-21)
(1.00746 0.261773 -2.33321e-20)
(0.994094 -0.00913963 0)
(0.939019 0.10749 3.42155e-21)
(1.10627 0.279132 -5.19091e-20)
(1.01947 -0.0141421 -2.37389e-21)
(0.965511 0.0104772 -6.50992e-22)
(1.03902 0.0260123 1.04519e-21)
(0.924073 0.417019 1.19927e-20)
(1.02349 0.0333536 -3.6001e-22)
(0.979552 0.0263483 -1.31965e-22)
(1.03971 0.0258243 1.0258e-21)
(1.0547 0.0598972 -1.28668e-21)
(1.00058 0.447812 -1.60159e-20)
(1.02889 0.0912993 -2.07964e-20)
(0.918683 0.432688 -3.48884e-21)
(0.968559 0.0153686 -6.75704e-22)
(1.06079 0.0421249 0)
(0.991167 0.00195735 -4.95169e-22)
(1.03945 0.475032 -4.99076e-21)
(0.792465 0.0583773 1.47477e-21)
(1.0515 0.20937 2.58768e-20)
(1.02235 0.0450472 -8.74575e-21)
(1.00155 0.207767 8.94013e-21)
(0.951025 -8.775e-05 -8.30192e-22)
(0.951857 0.000987469 0)
(0.996416 -0.0114223 0)
(0.950111 -0.00136385 -7.17989e-22)
(0.934233 0.132852 7.36867e-21)
(1.02639 0.030125 -3.64201e-23)
(1.02639 0.0909658 1.86743e-21)
(1.02275 -0.0188246 5.57752e-21)
(1.03568 0.118153 -1.07973e-21)
(1.05975 0.0702101 0)
(1.01399 0.00667207 0)
(0.963659 0.00918888 -1.17088e-21)
(1.02359 0.0318142 -1.26058e-20)
(0.95745 -0.16192 0)
(0.793578 0.0550034 6.66244e-22)
(0.970452 -0.0187412 3.68586e-23)
(0.970307 0.00227524 0)
(0.966263 0.0142576 6.93352e-22)
(0.992331 0.0157959 0)
(1.14004 0.0994465 0)
(1.07136 0.0197197 -1.21137e-21)
(1.44278 -0.0273121 0)
(1.01299 0.00523743 -6.39205e-21)
(0.930457 0.290312 0)
(0.905141 -0.0498804 1.53407e-21)
(1.02152 0.00104283 -5.78969e-21)
(0.924212 0.116715 -2.2416e-21)
(0.990158 0.280822 -8.60737e-22)
(1.03976 0.111143 0)
(1.43288 -0.0646463 0)
(0.956272 0.0509003 -6.83625e-22)
(0.937929 0.113987 0)
(1.07621 0.211161 -2.86065e-21)
(1.06017 0.0669515 1.3937e-21)
(1.09126 0.15451 0)
(1.25143 0.0579522 -1.28183e-20)
(0.917223 0.0873304 0)
(1.08959 0.221 -2.92487e-20)
(0.960249 0.41691 5.1145e-20)
(0.99351 0.0159618 0)
(0.965539 0.0106792 6.6383e-22)
(1.0479 0.0349988 -2.96207e-23)
(1.27782 0.176526 0)
(0.980708 0.0261812 0)
(1.26873 0.188324 -5.19007e-21)
(1.04539 0.272277 -3.69825e-20)
(0.859268 -0.0232017 0)
(1.28391 0.0232364 1.38134e-20)
(0.60816 0.542768 2.81778e-20)
(1.02668 0.0660972 -1.07731e-21)
(1.24743 0.0675639 0)
(0.955276 0.0524997 0)
(0.873511 -0.066257 1.12103e-20)
(0.9736 0.00152616 7.88612e-22)
(1.02905 0.150889 1.47874e-20)
(0.867038 -0.0262902 -3.51796e-22)
(1.05633 0.0346635 -4.68799e-21)
(0.963773 0.00949892 1.17702e-21)
(0.649119 0.564945 0)
(0.991429 0.131924 4.14254e-21)
(0.963914 0.500422 0)
(1.03805 0.165978 -6.1584e-20)
(1.05537 0.215112 -2.63955e-20)
(0.963283 0.402597 -5.39746e-20)
(1.0134 0.0474389 7.35534e-21)
(0.914834 0.303995 1.69763e-20)
(0.951037 -0.000196329 3.92189e-22)
(1.05163 -0.0219247 5.14655e-21)
(0.926083 0.110618 5.65144e-22)
(1.07423 0.0148332 0)
(0.188963 0.142034 -1.88563e-19)
(1.05582 0.00272698 1.6689e-21)
(0.996092 -0.0824823 1.1915e-21)
(1.04765 0.264772 2.93362e-22)
(1.45838 -0.0473018 -3.67378e-20)
(1.30033 0.0073549 -1.39602e-20)
(1.02887 0.0675648 1.14566e-21)
(0.170489 0.137079 1.80631e-19)
(0.970821 -0.00052389 2.95029e-22)
(1.24738 0.177969 0)
(0.979882 0.25375 1.60522e-20)
(1.06119 0.448787 0)
(0.882995 0.202441 -1.12509e-20)
(1.01872 -0.0131191 0)
(0.945531 0.290519 -1.28769e-21)
(0.993525 -0.0775055 -2.83274e-22)
(1.05564 0.0715614 3.70816e-22)
(0.891667 0.196733 9.98801e-21)
(0.570625 0.218788 -2.10441e-19)
(1.26893 0.367651 2.19072e-21)
(0.623386 0.382988 -7.85037e-21)
(0.960962 0.00777532 -2.87058e-22)
(1.45813 -0.0731556 -1.5384e-20)
(1.13502 0.0387598 1.07365e-21)
(1.06118 0.00116458 -3.76192e-21)
(1.03103 -0.04832 0)
(0.747172 0.47135 0)
(0.974931 0.300017 -2.23448e-20)
(0.526787 0.248876 0)
(1.27175 0.383557 0)
(0.989725 0.0133688 -4.8059e-22)
(0.972696 0.0664621 -2.49136e-21)
(1.28379 0.0331585 0)
(1.01711 2.4952e-05 6.87787e-21)
(1.05503 0.0749941 -3.63179e-21)
(0.994246 0.0172206 1.10097e-21)
(1.04353 0.116168 -3.63695e-21)
(0.910725 0.0272777 4.40767e-21)
(0.972735 0.0650489 1.61733e-21)
(1.09585 0.335276 -3.3262e-20)
(0.976084 0.507649 -9.40838e-22)
(1.04925 0.0364855 2.43023e-21)
(0.960976 0.00828593 7.02284e-22)
(1.03895 -0.016835 3.14979e-21)
(1.04219 0.0407206 1.87444e-20)
(0.959673 0.111881 0)
(1.12675 0.0997273 6.02857e-21)
(1.02111 0.0523424 -3.60706e-21)
(1.00661 0.00199944 -3.70283e-21)
(1.1178 0.26254 0)
(0.987871 -0.04342 0)
(1.06088 0.0612629 -1.41954e-21)
(1.07941 0.15893 3.48225e-21)
(0.877394 0.191769 4.53782e-21)
(1.00775 -0.0524019 0)
(0.967946 0.0618184 -2.31345e-21)
(1.35156 -0.0276145 5.2394e-20)
(0.970574 -0.00660289 9.72385e-24)
(1.07145 -0.137862 0)
(1.03199 0.223154 -1.97207e-20)
(0.974573 0.196325 5.43762e-21)
(1.05416 -0.0206592 0)
(1.10898 0.267078 0)
(1.02988 0.119258 4.99474e-21)
(1.00021 -0.00379824 9.15417e-21)
(1.06686 -0.137796 -6.35498e-22)
(1.12296 0.105462 -5.95907e-21)
(1.03973 -0.0166066 -3.23135e-21)
(1.10438 0.316607 -1.89295e-20)
(0.954317 0.164693 1.87338e-20)
(0.871608 0.194417 -3.97143e-21)
(1.04415 0.0382985 -2.41776e-20)
(0.993972 0.135329 0)
(0.969884 0.193313 -1.93345e-20)
(1.10662 0.00150583 1.11644e-21)
(0.984609 -0.0328311 0)
(0.691039 -0.271233 1.10803e-21)
(0.974482 -0.0317814 2.98094e-23)
(1.206 0.281842 -1.02066e-20)
(0.970383 0.297047 2.49829e-20)
(0.915352 -0.0258416 -5.75785e-22)
(1.20368 0.269531 4.80438e-20)
(1.33549 -0.0409381 -5.88933e-20)
(0.957878 0.110773 0)
(0.795707 0.0269134 0)
(1.12569 0.0351989 -1.958e-21)
(1.01939 0.0328323 0)
(0.967062 0.013055 1.27736e-21)
(1.03036 -0.0399502 1.3198e-21)
(0.934158 0.109373 3.70708e-21)
(0.496674 -0.243497 0)
(1.05294 0.10357 6.12577e-21)
(1.03717 0.0561951 1.2322e-20)
(0.966195 0.0141225 3.38927e-22)
(1.11069 0.161465 7.74601e-21)
(1.02122 0.00062713 1.44502e-21)
(1.181 -0.0924011 -3.89156e-21)
(1.03225 0.0281062 2.03304e-20)
(1.13582 0.105449 0)
(0.92246 0.129042 -5.09774e-21)
(0.943953 0.113432 -1.0346e-21)
(1.00224 0.0017037 0)
(1.07947 -0.133096 0)
(1.03459 -0.0451736 0)
(0.967434 -0.000214583 3.21519e-22)
(1.03363 0.0309012 0)
(0.472468 -0.3183 -3.09103e-21)
(1.14088 0.0369583 1.82243e-21)
(0.97307 0.00158545 -9.57429e-22)
(0.907068 -0.0323627 0)
(0.76338 0.0135934 0)
(1.04772 0.111957 3.13486e-21)
(1.2373 0.194177 0)
(1.02067 -0.00443232 0)
(0.580347 0.270569 0)
(0.971296 -0.00898493 -3.8133e-24)
(1.09181 0.100252 -8.76581e-21)
(1.06756 0.15176 0)
(0.681852 -0.0352436 0)
(1.02287 -0.0293764 0)
(1.02223 0.0333788 -1.38447e-20)
(1.02222 0.155789 -6.80954e-21)
(0.971363 -0.00281654 3.21792e-24)
(0.971242 -0.00307866 1.0112e-23)
(0.948978 0.0489385 2.26764e-21)
(1.08021 0.273992 0)
(0.950219 0.0174272 2.89347e-21)
(1.08996 0.100259 4.95746e-21)
(0.957661 0.0574179 0)
(0.94195 0.0598694 -1.78789e-23)
(1.06071 0.0435236 2.0159e-21)
(0.98989 0.00165129 -1.40746e-21)
(1.26852 0.0455942 5.45588e-21)
(1.03898 0.0621944 -1.35429e-20)
(1.18448 -0.353731 0)
(1.13027 0.033832 2.96509e-21)
(1.03734 0.226266 1.19571e-20)
(1.03724 0.0855504 0)
(1.0948 0.290633 6.5902e-20)
(1.02949 0.0227 0)
(0.976146 0.0530098 -1.78221e-22)
(1.03705 0.0849774 -5.59306e-22)
(1.17411 0.307109 -4.70891e-21)
(0.939476 0.115301 9.68602e-22)
(0.939516 0.0113126 0)
(0.924262 0.131601 0)
(0.999468 0.184467 -1.75698e-20)
(0.955417 0.0574359 0)
(0.927362 0.117072 -5.18879e-23)
(0.947148 0.0141982 -2.30988e-21)
(0.978041 -0.033671 0)
(1.03235 0.026905 -2.40338e-22)
(1.1814 -0.101045 2.81875e-21)
(1.06533 0.130328 0)
(1.03362 0.0601263 0)
(1.17258 0.310275 0)
(1.02492 0.010522 7.92231e-22)
(1.26585 0.0529961 5.22272e-21)
(0.9644 0.060656 0)
(1.00268 0.199747 -1.35047e-20)
(1.44966 0.013594 0)
(1.06281 0.291005 0)
(1.08039 0.0953242 -3.24983e-20)
(1.03284 0.22896 -1.66614e-20)
(0.932873 0.132375 -1.05996e-22)
(1.01898 0.000342337 -2.46158e-21)
(1.03107 0.0241333 -1.31416e-20)
(0.693879 0.326426 -6.99288e-20)
(0.777402 -0.915265 7.85793e-20)
(1.01684 0.05088 -8.45406e-21)
(1.03371 0.0294801 0)
(1.04251 -0.00480184 0)
(1.03031 0.0229669 -9.52773e-22)
(0.955721 0.00402712 0)
(0.937603 0.156713 6.16205e-21)
(1.04021 0.135051 -2.05989e-21)
(1.02352 0.00900009 0)
(0.917365 0.088564 0)
(1.14845 0.103097 -3.52302e-21)
(1.05513 -0.00276715 -5.99898e-22)
(0.939548 0.0501612 -7.96368e-22)
(1.05728 0.00352838 0)
(0.978927 -0.0325201 0)
(1.01207 0.0229216 0)
(0.890356 0.101092 2.77811e-21)
(0.71475 -0.731819 0)
(1.07223 0.0213175 1.24457e-21)
(1.04379 0.0421338 -2.83095e-20)
(1.11886 0.170602 1.80105e-20)
(1.16282 0.181505 -1.45574e-20)
(0.931726 0.133116 1.35093e-22)
(1.0208 -0.00554924 0)
(1.02513 -0.0255065 -1.85028e-21)
(1.02446 -0.0236453 4.09242e-21)
(1.08143 -0.1464 1.21697e-21)
(0.909874 0.205455 -4.06664e-21)
(0.829187 -0.0340501 1.38363e-21)
(1.02098 -0.00656307 0)
(0.996971 -0.00639518 4.5988e-21)
(1.02271 0.00381442 0)
(0.960938 0.0590748 0)
(1.00533 -0.000404165 -5.43971e-21)
(1.00464 0.0808695 -1.43901e-20)
(0.958756 0.0594374 0)
(1.0392 -0.0186202 0)
(0.925284 0.110879 5.07366e-22)
(0.971241 -0.00668947 0)
(0.971047 -0.00570502 7.81779e-25)
(0.702487 -0.0401043 -4.35482e-22)
(1.00526 0.0789999 0)
(0.685676 0.443859 6.24422e-20)
(0.359456 0.347377 -3.60535e-20)
(0.653959 0.396681 0)
(0.981561 0.00307409 -1.22893e-21)
(0.981034 0.00255664 -7.37918e-22)
(1.02521 0.00624 -6.77451e-21)
(0.977093 -0.0334125 2.168e-24)
(1.01986 0.0504827 3.85032e-21)
(0.970346 -0.0137823 8.14357e-23)
(1.02149 0.00104338 0)
(0.919145 0.211099 0)
(1.02596 0.0129321 7.42634e-22)
(1.05755 0.0616391 2.59719e-21)
(1.05839 0.0559968 0)
(0.939335 0.15323 6.29515e-21)
(0.826288 0.447616 1.46171e-19)
(1.1987 0.347645 2.95042e-20)
(0.976913 0.0485693 -1.16933e-20)
(0.91665 -0.0156958 0)
(1.1167 0.511778 -3.76733e-20)
(0.00985815 -0.0233187 -3.81053e-20)
(1.02327 0.0167031 1.46427e-21)
(0.948623 0.0563828 -3.17571e-22)
(0.982817 -0.0193559 0)
(0.366004 0.360202 -1.40354e-20)
(1.01069 -0.0227169 1.59559e-21)
(0.962168 0.0612888 0)
(0.996401 0.0134925 -1.16325e-21)
(0.985688 -0.0420789 -4.36419e-24)
(0.997989 0.0035172 -1.10718e-21)
(0.951864 0.000814729 8.88261e-22)
(1.10695 -0.135521 1.5155e-22)
(1.05711 0.464702 8.80524e-20)
(0.966962 0.0129135 -1.49732e-21)
(0.821223 -0.0451334 0)
(0.950871 -0.00213841 1.0042e-21)
(1.16805 0.596701 5.65944e-20)
(1.15244 0.0977648 7.25745e-21)
(0.931512 0.0886025 0)
(0.970703 -0.0171549 0)
(1.04715 0.17376 -6.83922e-21)
(0.973677 -0.00113494 -6.25773e-23)
(0.61418 0.262108 9.85213e-22)
(0.977814 0.0505271 -3.43037e-21)
(0.966863 -0.000687733 -1.76763e-23)
(1.02152 0.00107356 -5.28632e-22)
(1.02493 0.00598667 0)
(1.06349 0.0237728 -1.17923e-21)
(0.99155 0.0122755 1.0461e-21)
(1.05669 0.00612966 1.7831e-21)
(1.0409 0.105988 -1.89105e-21)
(1.01102 -0.0258609 1.56453e-21)
(1.02358 -0.0297731 0)
(1.05345 -0.0538774 -1.5357e-21)
(0.993427 0.162737 -2.61688e-20)
(1.01802 -0.835009 0)
(1.03348 -0.00221998 0)
(0.897921 0.0977612 3.34465e-21)
(1.05832 -0.047461 0)
(0.724485 0.643147 1.04684e-20)
(0.949251 0.0580366 3.26229e-22)
(1.05552 0.0490079 0)
(1.17049 0.288738 0)
(0.986582 0.0535827 1.21101e-22)
(0.824094 0.247278 1.3575e-20)
(1.05538 0.0564776 2.38322e-21)
(0.924445 0.114634 2.99587e-21)
(1.02105 -0.00169048 -5.88422e-21)
(1.0113 0.047904 -2.71997e-21)
(0.711223 -0.0582161 3.72979e-22)
(1.03272 0.153708 -2.87615e-21)
(0.953109 0.0551338 7.62248e-21)
(1.17218 0.381647 5.94657e-20)
(0.970649 -0.0199628 -3.0811e-23)
(1.19047 0.179699 0)
(1.02436 0.0174306 -9.04972e-22)
(0.901775 0.398426 7.80029e-20)
(1.07549 0.016161 0)
(0.617819 -0.399998 0)
(1.00198 0.0507824 7.85683e-21)
(1.10913 0.170399 -2.03929e-20)
(0.991906 0.000755004 1.16645e-21)
(1.10245 0.287533 -5.2331e-20)
(0.841079 0.0493171 2.68684e-22)
(0.959596 0.0160237 -8.25046e-22)
(1.03305 -0.0493555 0)
(1.03183 -0.0399445 4.01167e-23)
(0.939005 0.0570727 7.43548e-23)
(1.0232 0.09367 1.56286e-20)
(1.11926 0.0237998 0)
(0.970012 -0.00104771 0)
(0.938873 0.0591439 0)
(1.24634 0.502618 -1.22533e-19)
(0.94871 0.0575241 -3.33487e-21)
(0.839369 0.0525101 1.1685e-21)
(1.05115 0.269789 -3.47014e-21)
(0.94092 0.302005 1.37569e-21)
(0.943815 0.0404138 9.24651e-22)
(0.972609 0.0289958 -1.10383e-21)
(0.917981 0.358075 2.19796e-20)
(1.01055 0.0463208 3.69227e-21)
(0.953385 0.0511082 6.47255e-22)
(0.973784 0.0276631 1.97866e-21)
(0.974209 -0.00109139 6.25323e-23)
(0.967532 0.0116291 0)
(1.02534 -0.000947376 -3.15557e-21)
(0.970806 -0.0136156 -1.58527e-23)
(0.886185 0.284653 0)
(1.16691 0.175114 2.05353e-20)
(0.999313 0.00306147 0)
(1.2111 0.362949 4.06278e-20)
(0.605889 0.254629 0)
(0.675346 -0.382101 0)
(0.968948 0.0287835 -5.16462e-22)
(1.18992 0.301909 -5.38615e-20)
(1.05091 -0.075955 -9.92267e-23)
(1.00991 0.0487272 1.66107e-20)
(0.97159 -0.00459037 0)
(0.970269 -0.0192317 0)
(0.991579 0.014674 0)
(1.26037 0.51636 1.92914e-19)
(1.23162 -0.167096 0)
(1.10026 0.00145396 2.37457e-21)
(1.16922 0.596419 -8.78035e-20)
(1.08271 0.0996754 -4.36613e-21)
(1.05243 0.1682 4.80496e-21)
(1.17554 0.403782 -3.15516e-20)
(0.998311 0.00959586 0)
(0.872572 0.0373685 0)
(0.923472 0.160947 2.62223e-21)
(0.876549 0.251808 -1.89044e-21)
(1.09332 -0.143141 0)
(0.957668 0.0419514 -1.1941e-21)
(1.05233 0.034147 -5.00548e-22)
(1.04748 0.00779598 -2.59477e-21)
(1.01406 0.0503872 0)
(0.90776 0.377749 2.5336e-20)
(1.01786 0.149389 0)
(0.927205 -0.631556 0)
(1.05029 -0.0721832 -4.05476e-22)
(0.988415 0.0479177 1.0772e-22)
(0.693109 0.288953 0)
(1.04772 0.00788283 2.81266e-21)
(1.10941 0.495314 0)
(0.900511 0.365945 0)
(1.02921 0.169257 3.22925e-21)
(1.10357 0.100594 -2.83486e-21)
(0.979757 -0.000601907 -7.51672e-24)
(0.954267 0.00538351 -4.61791e-22)
(1.06476 0.0243144 1.206e-21)
(0.97378 -0.0305829 3.05925e-23)
(0.943894 0.216406 0)
(0.698924 -0.21459 6.93815e-22)
(1.20324 0.333725 1.56895e-21)
(0.943895 0.0521032 -5.35678e-22)
(0.934564 0.116401 -3.6808e-21)
(0.820826 0.0514502 4.1145e-22)
(0.907791 -0.0639718 -1.97707e-21)
(0.945912 0.0392451 0)
(1.04547 0.0357367 9.34615e-21)
(1.08038 0.0973556 0)
(0.31972 -0.208115 -4.53672e-20)
(0.929574 0.196063 -3.38328e-21)
(0.952616 0.108882 -8.042e-21)
(0.536878 -0.355875 1.03545e-20)
(1.05466 -0.00613235 2.27021e-21)
(1.03881 0.102178 -2.64835e-21)
(1.05893 0.213982 0)
(1.15709 0.300871 7.7474e-21)
(0.947252 0.0404264 -1.00567e-21)
(0.967857 0.014247 6.37146e-22)
(1.0963 -0.140437 -1.49928e-22)
(0.924043 0.203642 0)
(0.877131 -0.171116 -5.3115e-22)
(0.644326 -0.206422 0)
(1.21752 -0.181633 0)
(1.06942 0.204233 -2.44822e-21)
(0.966151 0.0116825 1.33939e-21)
(1.04332 0.136748 -1.36018e-20)
(0.968695 0.0156314 4.11462e-22)
(0.998291 0.159272 0)
(1.20413 0.349835 -6.29836e-20)
(1.09398 -0.0299103 2.72629e-21)
(0.960305 0.0176477 7.42859e-22)
(1.06115 -0.000325824 9.29658e-22)
(0.945355 0.0413541 0)
(1.07973 -0.0779113 -8.50313e-22)
(1.03794 0.121767 1.22425e-21)
(0.890838 0.101652 -3.18991e-21)
(0.869483 0.0505968 0)
(0.975861 -0.0361928 0)
(0.960211 0.0181571 -3.66934e-22)
(0.931111 0.0912625 -4.93962e-21)
(0.926455 0.159715 2.49443e-21)
(0.881867 0.107873 0)
(1.01316 0.0298115 0)
(0.970291 -0.0060866 -4.73944e-23)
(0.948005 0.0302334 3.81407e-22)
(0.640231 0.304904 -1.15973e-20)
(1.09983 0.103186 2.82047e-21)
(1.22169 -0.167438 -9.81423e-21)
(0.985698 0.240002 0)
(1.03635 -0.0453687 1.42976e-21)
(1.02082 5.83447e-05 -6.06201e-21)
(1.07179 0.104289 2.25025e-20)
(0.886277 0.0371728 -1.02281e-21)
(0.975116 0.0287164 0)
(1.10778 -0.150332 -6.11726e-24)
(0.960404 0.0392374 1.70551e-21)
(1.05501 -0.00556608 -1.05957e-21)
(0.981328 0.262142 5.16413e-21)
(1.0328 -0.001969 0)
(0.974999 0.0636245 0)
(0.970219 -0.00111609 1.81469e-22)
(0.723285 0.608909 0)
(1.20784 0.197518 0)
(1.03091 0.0258863 -1.9553e-21)
(0.96164 0.0377888 0)
(1.03529 0.200532 6.67656e-21)
(1.08212 0.0039829 2.54264e-21)
(0.972486 0.00119333 7.88878e-22)
(1.24711 0.440502 5.44387e-20)
(1.1561 0.237532 9.14964e-21)
(0.965712 0.0625255 1.61204e-21)
(0.966936 -0.000770376 -5.17672e-22)
(1.01958 -0.0114181 0)
(0.948944 0.0579091 2.7456e-21)
(0.976928 0.0793414 0)
(0.916237 0.197166 3.47494e-21)
(1.23474 0.0718676 0)
(0.98282 -0.0276855 0)
(0.957325 0.040546 1.81791e-21)
(1.21012 0.331242 -1.10608e-19)
(0.97016 0.0677452 0)
(1.10877 0.167477 8.69816e-22)
(0.950205 0.111887 -8.75156e-21)
(1.09319 -0.0272306 0)
(0.982459 0.0486917 -6.09508e-21)
(0.961485 0.0388846 5.38712e-22)
(1.21672 0.179845 -7.3926e-21)
(1.04898 0.0358776 -2.0703e-20)
(1.0204 -0.00428591 0)
(0.90885 0.516255 3.00875e-20)
(1.04424 0.0561552 0)
(1.14414 0.240652 -8.61682e-21)
(1.03171 0.146153 -6.86314e-21)
(1.04611 -0.0415324 5.13677e-22)
(1.10017 0.440099 0)
(0.886217 0.038469 6.97809e-22)
(1.05152 0.601063 0)
(0.954714 0.048746 0)
(1.05298 0.205944 8.35028e-21)
(1.01393 0.0290368 9.0569e-21)
(0.920366 -0.0686803 2.58285e-22)
(1.00451 -0.00358962 0)
(1.21288 -0.183194 -4.14094e-21)
(0.940194 0.235492 -1.16555e-20)
(0.995474 0.0173408 0)
(0.947165 0.000291131 -6.90731e-22)
(0.954449 0.0475483 -2.00855e-21)
(1.1322 -0.132726 0)
(1.0197 -0.000142199 8.09391e-21)
(0.954742 0.0484906 0)
(1.03702 0.0576186 0)
(0.891892 -0.180177 0)
(1.21147 0.0897953 0)
(1.12557 -0.335992 4.22804e-20)
(1.0386 0.0302432 0)
(1.20487 0.255523 4.17103e-20)
(0.956013 0.0542364 2.90603e-21)
(1.18239 0.192085 0)
(0.937602 0.0450776 0)
(1.23977 0.442781 -5.48024e-20)
(0.849705 0.52616 7.30214e-20)
(0.967599 0.00483905 -5.91303e-21)
(0.93837 0.0463699 0)
(0.822846 0.0630884 -2.11348e-21)
(0.878393 0.366898 4.69515e-20)
(0.964281 0.047217 -1.4648e-22)
(1.0386 0.113733 4.13723e-21)
(0.857144 -0.461585 -4.3716e-21)
(1.01871 -0.0137981 0)
(0.659877 0.359268 3.54755e-21)
(0.902251 0.502925 -2.71838e-20)
(1.01994 -0.0125439 1.52965e-21)
(0.955683 0.185726 0)
(1.04156 0.168626 2.47501e-22)
(1.20621 0.380971 7.59567e-20)
(1.00066 0.000925857 5.97768e-22)
(0.95964 0.0165474 -3.4579e-22)
(1.16104 0.288411 0)
(0.773535 0.600983 -5.72146e-20)
(0.970434 0.00114485 3.49695e-22)
(0.89256 -0.0190959 0)
(1.21096 0.259301 -9.16883e-20)
(1.09823 0.15559 -9.67203e-21)
(1.03953 -0.00450194 -6.98106e-22)
(1.35565 -0.474057 -1.72857e-20)
(1.01574 0.18517 -1.70853e-20)
(1.07552 0.23456 -1.46854e-21)
(1.06506 0.121857 -5.31418e-21)
(1.05507 -0.0532585 1.45486e-21)
(0.877588 -0.0233151 -1.6694e-21)
(1.05989 -0.0199464 0)
(1.06067 0.250303 -1.11535e-20)
(1.15989 0.180105 -8.32733e-20)
(0.966833 0.312524 -1.79496e-21)
(1.0099 0.00422581 -3.7127e-21)
(0.857484 0.251337 -7.57722e-21)
(1.22988 0.079905 0)
(0.65092 -0.381364 7.26238e-21)
(1.21738 0.0818992 0)
(1.03903 0.0312098 0)
(0.73683 -0.0530298 9.47953e-20)
(1.00007 0.0615347 0)
(0.947791 0.0525701 -1.14889e-21)
(0.985831 0.016927 3.66593e-21)
(1.02551 0.0606936 -5.36225e-21)
(1.19501 0.304831 5.27e-20)
(0.958349 0.162096 -3.72087e-21)
(0.952411 -0.00220894 1.93639e-22)
(0.933467 -0.167429 7.11852e-21)
(1.23438 -0.171552 0)
(1.11532 0.0255614 0)
(0.966991 0.0153269 0)
(0.602221 -0.325811 0)
(1.06981 0.231098 -2.48208e-21)
(0.943237 0.125122 2.81753e-21)
(0.9972 0.191298 -1.57194e-20)
(0.984798 0.0890871 -3.61016e-21)
(1.07839 0.102451 0)
(1.02099 -0.000862381 0)
(1.08443 0.0996677 3.34747e-20)
(1.03447 0.174924 -9.85253e-21)
(1.06772 0.253891 1.53295e-20)
(0.980373 0.0832363 -1.03784e-20)
(1.05846 -0.0176308 -2.19771e-21)
(1.02474 0.011791 0)
(0.39124 -0.0818925 2.27925e-20)
(0.955583 0.0366749 0)
(0.856096 0.373823 -8.42231e-20)
(0.916051 0.174793 6.55628e-21)
(1.18265 0.0626706 -1.30443e-20)
(1.08103 0.21761 8.21746e-21)
(1.15025 -0.136643 -8.97971e-22)
(0.664467 0.35027 -2.9402e-21)
(0.970398 -0.000222266 -1.66676e-23)
(0.993193 0.0011075 -1.01804e-21)
(1.14818 0.0307278 -1.15059e-21)
(0.989319 0.0291233 -1.36385e-21)
(1.03371 0.0906697 3.65143e-21)
(1.16595 0.293184 0)
(1.06362 0.0660733 -8.25564e-24)
(0.933588 0.0267191 -1.92006e-21)
(0.970708 -0.00661425 2.78976e-23)
(0.890191 -0.0117474 0)
(0.879415 -0.0199015 -1.0075e-21)
(0.972456 -0.000890462 -2.73049e-23)
(0.958506 0.00670376 0)
(1.01994 -0.000487823 -5.82561e-21)
(0.986678 0.0163014 -2.61171e-21)
(0.93753 0.087833 0)
(1.02679 0.0609042 4.79395e-21)
(0.92702 0.0649265 3.76634e-21)
(0.950816 0.16236 -1.8569e-20)
(0.282291 0.161201 4.89171e-20)
(1.13023 0.232386 6.44049e-20)
(1.10994 0.0294393 0)
(0.33791 -0.134314 -1.76083e-20)
(1.0581 0.0890889 -6.99197e-21)
(0.968269 -0.00353341 1.70819e-21)
(1.01574 -2.47139e-05 0)
(1.02534 0.042925 0)
(0.958285 0.191904 2.66045e-20)
(0.917751 0.026383 5.83634e-23)
(0.88552 0.378469 -1.99593e-20)
(1.06846 -0.191049 -2.02781e-19)
(1.11372 0.0286257 -1.75396e-21)
(0.969091 -0.00967731 1.76729e-21)
(1.05307 0.079415 2.52325e-20)
(0.971926 -0.00839605 -1.99403e-24)
(0.942903 0.062043 4.7183e-21)
(1.06168 -0.000928287 0)
(0.74364 -0.697261 -3.42536e-20)
(0.941381 0.0415727 -9.99563e-22)
(0.709413 0.470866 -6.76462e-21)
(0.940487 0.00533704 7.46754e-22)
(1.13903 -0.149028 0)
(0.993028 -0.488452 0)
(1.08566 0.161395 0)
(1.09759 0.453894 5.24403e-20)
(1.17831 0.0697025 -3.69966e-21)
(0.936243 0.113644 6.96617e-21)
(0.932976 -0.164588 -7.75904e-21)
(1.01321 0.0488311 -2.51382e-22)
(0.979395 -0.0401188 3.32742e-23)
(1.02097 -0.0010645 5.70589e-21)
(0.460493 -0.218786 -9.15127e-21)
(0.991797 0.0319878 1.31433e-20)
(0.974911 -0.0290359 1.35357e-23)
(1.12731 0.231463 0)
(1.05602 -0.00220744 0)
(1.01005 0.00336844 1.13649e-20)
(0.953112 0.012657 -2.98087e-22)
(1.02782 -0.00149113 0)
(0.979309 -0.141254 1.26661e-21)
(1.04447 0.0615718 -1.40263e-22)
(1.09248 0.301737 2.67636e-20)
(1.02281 0.182129 0)
(1.05343 -0.139151 -6.76188e-23)
(0.986147 0.0148879 -5.51205e-22)
(0.928298 0.0625156 7.73756e-22)
(1.17262 0.504122 0)
(1.01217 0.0514631 9.90565e-21)
(1.02598 0.0958507 2.35128e-21)
(1.40464 -0.0138702 -1.3535e-19)
(1.18688 0.394865 3.64095e-20)
(0.592317 -0.37636 2.54796e-21)
(0.9496 -0.00518724 -3.4525e-22)
(1.03656 0.204343 -1.04189e-20)
(0.966941 0.0432296 4.19472e-21)
(0.715249 -0.271054 -1.33525e-21)
(0.935892 -0.00607235 -1.69367e-21)
(0.969702 0.0279957 -1.04814e-21)
(0.987953 -0.142611 1.21341e-21)
(1.02233 0.00265666 -1.08488e-20)
(1.08442 0.300074 0)
(0.95045 -0.00567465 1.61326e-22)
(0.998476 0.109733 3.18298e-21)
(1.22401 -0.095294 3.53546e-21)
(1.22562 -0.0935852 0)
(1.07987 0.104041 -4.37173e-21)
(1.05547 0.107464 -4.14009e-21)
(1.0434 0.0376434 0)
(0.973066 0.00292378 0)
(0.986196 0.0185166 -1.06825e-21)
(1.0473 -0.0411338 0)
(1.05994 -0.0518942 4.14134e-22)
(0.965509 0.109002 1.21126e-20)
(0.971406 0.0281809 1.06852e-21)
(1.0742 0.238951 0)
(0.947573 0.515023 -3.115e-20)
(0.925023 0.0581992 2.37422e-22)
(1.02248 0.00303894 9.58395e-21)
(1.10963 0.60262 -3.61341e-21)
(1.15327 0.294782 -3.78305e-20)
(0.945133 0.0524471 1.61359e-21)
(1.06093 0.00117721 2.19477e-21)
(0.34181 -0.465984 0)
(0.927714 0.0629814 -3.37684e-22)
(1.07396 0.0947496 7.77463e-21)
(1.06439 0.0659345 -1.08086e-20)
(1.14556 0.174694 -1.52239e-21)
(1.02218 0.15442 -8.53567e-21)
(1.01364 0.193637 1.66688e-20)
(0.937407 0.0905698 0)
(0.994982 0.113034 -1.47692e-21)
(0.724683 0.101028 -8.34322e-20)
(1.05058 -0.049313 -1.64808e-21)
(1.07495 0.153442 8.08007e-22)
(1.00451 0.0548847 0)
(0.979693 0.0316761 0)
(0.970594 0.0290183 0)
(0.980114 0.031965 -7.49182e-22)
(0.918281 0.0577357 -1.57717e-21)
(0.91742 0.0560452 -1.0363e-21)
(1.02138 0.187914 1.88231e-20)
(0.987663 -0.0294537 1.08173e-21)
(1.0434 -0.0055124 0)
(1.04872 0.102457 -3.51129e-21)
(1.02958 0.421651 4.58491e-20)
(1.07841 -0.0150979 1.01741e-21)
(1.04144 -0.00412968 3.06018e-21)
(0.937955 0.0548211 -1.02309e-21)
(1.064 0.0485233 0)
(1.1627 0.459656 -4.16653e-20)
(1.14208 0.165919 6.95893e-21)
(0.955407 0.00485558 2.41836e-22)
(0.720444 0.376194 0)
(0.955314 0.00623197 0)
(0.752143 -0.28648 -1.04578e-21)
(0.425192 0.246218 -1.15929e-19)
(1.01754 0.00018449 4.94329e-21)
(0.966353 -0.00090995 4.83023e-22)
(0.94553 0.0247662 1.47864e-21)
(0.946551 0.185076 0)
(0.92331 0.076601 -5.69023e-22)
(1.00431 -0.385086 2.08516e-19)
(0.673946 -0.526347 1.25018e-19)
(0.965348 0.108852 8.64715e-21)
(0.997649 0.013586 0)
(1.10471 -0.0151367 1.56199e-21)
(1.06754 -0.407273 3.96322e-20)
(0.983047 0.0786671 -4.31671e-21)
(0.964998 0.00950791 0)
(1.02113 0.00556264 0)
(1.29161 0.180569 -1.7498e-20)
(0.977513 0.00335392 7.67082e-22)
(0.383738 0.0341464 -6.38812e-20)
(0.710375 0.379514 -5.63396e-22)
(1.11384 0.42455 0)
(1.0509 0.077314 -1.80575e-20)
(0.712879 0.169729 1.78024e-19)
(0.925722 0.152457 -5.93967e-21)