/*--------------------------------*- C++ -*----------------------------------*\
| =========                 |                                                 |
| \\      /  F ield         | OpenFOAM: The Open Source CFD Toolbox           |
|  \\    /   O peration     | Version:  v2012                                 |
|   \\  /    A nd           | Website:  www.openfoam.com                      |
|    \\/     M anipulation  |                                                 |
\*---------------------------------------------------------------------------*/
FoamFile
{
    version     2.0;
    format      ascii;
    class       volScalarField;
    location    "250";
    object      nut;
}
// * * * * * * * * * * * * * * * * * * * * * * * * * * * * * * * * * * * * * //

dimensions      [0 2 -1 0 0 0 0];


internalField   nonuniform List<scalar> 
18166
(
0.000195028
0.00671892
0.00672588
0.000262837
4.53219e-05
0.000237815
0.00672663
0.000110934
0.0124546
5.50881e-05
0.00672345
0.00605683
0.0035034
0.000486993
0.0117915
0.000539945
0.00672296
2.17129e-05
0.00483389
0.00280126
0.000254809
0.00672292
0.000285273
0.00672243
0.00672345
0.00672603
0.000207811
0.00084912
0.00294161
0.00030432
0.000615679
0.00672359
0.00349492
0.00673413
0.00672088
0.00672229
0.0131687
0.0067224
0.00676084
4.03096e-05
0.0067255
0.00132519
0.00372444
0.00334454
0.000195098
0.00672275
0.00045393
0.000247737
0.000315954
0.000211047
0.000604671
0.000551323
0.000395292
0.00672482
0.00672349
0.00481503
0.00149936
0.000237865
0.00125035
0.000896421
0.000345491
0.00104072
0.00504084
0.000684712
0.000514068
0.0067225
0.00990487
0.0113852
0.00321345
0.00093786
0.00672056
0.001886
0.000167194
0.000924883
1.00935e-05
4.72393e-05
0.000316745
0.0032967
0.00100044
0.0067223
0.00672573
0.0148318
0.00672234
0.00672351
0.00671977
0.0029157
0.00163142
0.0067207
0.000663566
0.0067579
0.0018996
0.000174645
0.00150547
0.00672601
0.00672534
0.00271197
0.00671913
0.00010282
0.000733782
0.000618742
0.00672961
0.00672286
0.0130446
0.00061041
0.000973667
0.00672299
1.4048e-05
6.73104e-05
0.000568634
0.00672282
0.000898567
0.0141016
0.0140319
0.00883271
0.00672324
0.00678734
9.49503e-05
0.00255868
0.00167196
0.00732257
3.70075e-05
0.00300855
0.000370082
0.00965274
0.000322495
0.00673211
0.00672302
0.00326884
0.000612255
0.000266871
0.000327214
0.000824123
0.00133138
0.0143689
0.000401597
0.000360587
0.00672244
0.00672222
0.00194967
0.00494309
0.0111454
0.000517419
0.000425425
0.0148936
0.000834978
0.00584763
0.000219011
0.0127316
0.00413857
0.00140559
0.00671887
0.01205
5.5147e-06
0.000409818
0.00672538
0.00672292
0.00161416
0.00238437
0.00672252
0.00317487
0.00671841
0.0124639
0.000792159
0.00672179
0.000602494
3.63536e-05
0.00672292
0.0150285
0.0162868
0.000487769
0.000383867
0.00892855
0.000270267
0.00969001
0.00145543
0.00407509
2.12921e-05
0.00867337
0.0067188
0.00672051
0.0067233
0.000295162
4.84438e-05
3.13482e-05
0.00749304
0.00672001
0.000199135
0.000332038
0.00672142
0.00678302
0.000295789
0.00604066
0.00072214
0.00672306
0.000308319
0.0021024
0.000166936
0.000259299
0.00324706
5.45899e-05
0.00034793
0.0125271
0.0056939
0.0127674
0.00279667
0.000553022
0.0163459
0.00265722
6.72053e-05
0.000119576
4.36109e-05
0.011753
0.00671878
0.0067223
0.000824565
0.000272924
0.00054867
0.000164612
0.0168308
0.0154787
0.000891353
0.00672806
0.00671987
0.00013802
0.00152736
0.00673365
0.000168921
0.00671934
0.000994909
0.00576126
0.00206267
0.0141854
0.00193999
0.0134122
0.00672147
0.00260544
0.000594041
0.00027348
0.0120587
0.00431589
0.00105064
0.0150511
0.0030819
0.00123782
0.0109963
0.00325857
0.000355433
0.0147101
0.0139102
0.00114834
0.000179717
0.00672298
0.0022621
0.000376003
0.0109168
0.000658912
0.00672278
0.015834
0.000712057
0.0067188
0.00672234
0.0125701
0.000249364
0.000262709
0.000134571
0.0148731
0.0108354
0.00121915
0.00672583
0.000670887
0.000545087
0.00672236
0.00672111
0.0133401
0.000578169
0.00486275
0.00856354
0.00671854
2.18054e-05
0.00671953
0.000381381
0.0111094
0.000982601
0.00371757
0.00132459
0.000192685
0.00191166
0.00198879
0.0138028
0.00672352
0.000859268
0.000454653
0.000838971
0.00672259
0.000753822
0.00301046
0.00672765
0.00672242
0.00673155
0.00957951
0.00813547
0.00672241
0.00256009
0.00672123
0.00851653
0.00327525
0.00430489
0.000285739
0.00288926
0.00678782
0.00136633
4.50413e-05
0.00435914
0.000314046
0.00672352
4.32064e-05
4.18347e-05
0.000722531
0.00672235
0.00045779
0.00672829
0.000473326
0.0134011
0.000247269
0.000193596
0.000724099
0.00263991
0.00424325
0.0067453
0.0132546
0.00672239
0.014551
0.00440813
0.00679659
3.4198e-05
0.0125985
0.00034726
0.0161851
0.00298209
0.0118515
0.00447494
0.0101319
0.000406988
0.0121214
0.00262584
0.00672319
0.00672817
0.000362899
0.00195112
0.000277281
0.00100476
0.000513138
0.00672257
0.00671986
7.37678e-05
0.00089675
8.02448e-05
0.00074628
0.0067233
0.00674349
0.00672054
0.0147339
0.00242126
0.00672275
0.00672475
0.006726
0.00672574
0.000152599
0.00672582
0.00525006
1.59444e-05
0.00672051
0.0067279
0.000550516
0.0142128
6.61948e-06
0.0112623
0.00672547
0.000741471
0.000443804
0.00543216
0.00644623
0.000195415
0.00162865
0.00116422
0.00380117
0.00672242
0.00672582
0.0125827
0.00525303
0.00672039
0.00125554
0.00674534
0.0129243
0.000379547
0.00672532
0.00672271
0.000933874
0.00672496
0.00672406
0.00184637
0.000644538
0.0126699
0.00672586
0.00909794
0.00284469
0.00596922
0.00445769
0.00676489
0.00163463
0.00701532
0.000801741
0.000192987
0.00919774
0.00137863
0.000839432
0.000185863
5.80337e-05
0.00672504
0.00672244
0.00237762
0.00673124
3.1063e-05
0.000923002
3.16461e-05
0.00672586
0.000348781
0.00608812
0.00279092
0.000142399
0.000469552
3.23246e-05
0.00023691
0.00231001
0.000728234
0.0124077
0.0116324
0.00672395
0.00591508
0.000768683
0.00673994
0.00831118
0.0125539
0.006728
0.0125265
0.0101438
0.00672249
0.000175369
8.01788e-05
0.00563744
9.63899e-05
0.012886
0.000675161
0.000661084
0.0141267
6.40804e-05
0.000351144
0.000326327
0.00674272
0.00267544
0.00445533
0.00309599
3.88247e-05
0.008535
0.00112144
0.00185751
0.000747141
0.00141542
0.00217224
0.00672905
0.00671936
9.82491e-05
0.00972716
0.00672041
0.000376122
0.00672596
0.00668669
0.00672253
0.00671946
0.000139409
0.0105461
0.000206116
0.0140346
0.00672301
0.00672278
0.0153843
0.00273971
0.000349385
0.00336949
5.01428e-05
3.99885e-05
0.00672429
0.00672307
0.0067253
0.00160104
0.0121728
0.0149022
0.00314321
0.00135375
7.19594e-05
0.0039617
0.00045235
0.00672081
0.000929653
2.61155e-05
0.00265165
0.00672293
0.00672248
0.00672936
0.000452001
3.15831e-05
3.15689e-05
3.87709e-05
0.00672243
0.000311453
0.00672386
0.00672588
0.00861639
1.98734e-05
0.000139196
0.0122506
0.0143498
0.0116369
0.015076
0.000231744
0.0149182
0.0029491
0.000423908
0.00321074
0.00633965
6.96927e-05
0.00179408
0.00250902
5.50534e-05
1.99436e-06
0.000991187
0.000423365
0.0112609
0.00070584
0.00672541
0.00485166
3.72741e-05
0.0130689
0.0155471
0.00672697
0.0004587
0.00296079
0.00121524
0.00289734
0.00672671
0.000507555
0.0010862
0.00130643
0.00672477
0.0162427
0.00672254
0.01374
0.000842367
0.00230415
0.000947316
0.00304889
0.00679223
0.00672113
0.0103596
0.0158954
0.000188018
0.0122199
0.0034913
0.00672231
0.00672364
0.0129295
6.73315e-05
0.00358425
0.000691449
2.98953e-05
0.0166229
0.000529647
7.11288e-05
0.00126572
0.00245072
0.00672761
4.42337e-05
0.0135675
5.18062e-05
0.00136409
0.0135262
0.00197897
0.00672142
0.00256579
0.00535472
0.00672508
0.00011189
0.014518
0.00672528
0.0067225
0.00672036
4.67734e-05
0.012226
0.0067211
0.000369722
0.00107811
0.00407229
0.00672222
0.000239822
0.000383341
0.000828289
0.00330972
0.00672264
0.00672008
0.00840383
0.000457661
0.000456945
0.00189875
5.35081e-05
0.00175203
0.0033821
0.00360128
0.000732943
1.4523e-05
0.000140107
0.000946956
0.000277015
0.0113224
0.000673747
0.000315072
0.00131312
0.000485873
0.00304844
0.00672149
0.0107817
0.000326113
0.000113853
0.000192795
0.00674221
0.00305456
0.00495011
0.00672127
0.00672261
0.000319532
0.0067359
0.000385839
0.00416068
0.00030582
0.00195541
0.000723704
0.00674329
0.00012243
0.00189487
2.80979e-05
0.00165119
0.00191082
0.0151724
4.81206e-05
0.00498189
0.0131043
0.00247395
0.000224035
0.00672312
5.23735e-05
0.00458935
0.00342906
0.00047395
0.000613412
0.0137075
0.00672079
0.00169811
0.00672088
0.000461753
0.00070137
0.00513432
0.00672075
0.00779002
0.000439423
0.00177935
0.0166384
0.0026113
0.000121328
0.00672109
0.000621243
0.00672576
0.00672465
0.00672829
0.00478682
3.54642e-05
0.00069559
0.00921037
0.0063706
0.00399495
0.00460738
2.55466e-05
0.000264559
0.00672319
0.00621626
0.00672254
0.00744902
0.0105804
0.00673782
0.000461787
0.013395
0.0157479
0.0100723
0.000563263
0.000418694
0.00674729
0.0120175
0.00293277
0.0111942
0.000156436
0.000194459
0.000496152
0.000207588
0.00786816
0.00130871
3.84496e-05
0.00672331
0.00286439
0.000473796
0.00046605
0.014101
0.00673399
0.000455009
6.77147e-05
0.0067352
0.000347596
0.0123658
0.00870879
0.010326
0.000318451
0.000782408
0.00672091
4.20466e-05
9.57466e-05
0.000467421
0.0104565
0.00617345
0.0169741
0.0146322
0.00113891
0.000723021
0.00672595
0.000177717
0.00672566
0.0029418
0.000342239
6.36885e-05
0.00672689
0.00673449
0.0067462
0.00205342
5.78413e-05
0.0002239
0.00259791
0.000462744
0.00340146
0.00672284
0.00672259
0.000192638
0.0015773
2.06108e-05
6.45821e-05
6.3296e-05
0.000540364
0.00289322
0.00753928
0.0119573
4.19223e-05
0.00264135
0.00672078
0.00150037
0.00672324
0.000340599
0.00107108
0.00674572
0.000414561
0.00115627
0.0123384
8.02557e-05
0.000259437
0.00672062
0.0123294
0.00679118
0.00138992
0.00849658
6.88173e-05
0.00672296
3.94266e-05
0.0161007
0.00563768
0.00672236
0.00623739
7.84497e-05
0.00288016
0.0067212
0.00316496
0.00672559
0.00246322
0.00411845
0.00340112
0.00468954
0.000126277
0.000766507
3.26635e-05
0.00671951
0.0110832
0.00597724
0.00671997
0.00672972
0.00287739
0.0136547
0.00516849
0.00672136
0.00160887
0.00674629
3.12078e-05
0.00137434
0.00248289
0.00672214
0.00672334
0.00672151
0.0120248
0.000712019
0.000220823
2.09414e-05
0.00671995
0.0139016
0.014184
0.00124187
0.00672689
0.00474482
0.0087375
0.000900728
0.000383008
0.0131707
0.000212849
0.00561561
0.000532886
0.000585888
0.000460803
0.0159757
0.00348413
0.00674451
0.00418451
0.0067356
0.000427981
0.000633764
0.000414554
0.00470964
0.00152603
0.0048436
0.00979028
0.00672353
0.000470712
0.0067423
0.00260864
0.00672147
0.000715554
0.002138
0.00672354
5.69861e-05
0.00103704
0.00672258
2.96732e-05
0.00672223
0.0140001
0.000808786
0.000100975
0.00454878
0.000373231
8.68424e-05
0.00304532
0.00228324
0.000485397
0.0132197
0.0067233
0.000709378
0.000377452
0.0141607
0.00672731
0.00130101
0.00155605
0.0106327
0.00672603
0.000319967
0.000476973
0.00113733
0.00672216
0.00672283
0.00672086
0.000561061
0.00673759
2.44781e-05
0.00055167
0.0067422
0.00138686
0.00295083
0.00672826
0.000905497
0.00672444
0.00672161
0.00041834
0.000295659
4.81392e-05
0.000183055
0.00207814
0.00235969
0.00260523
4.7029e-05
0.0101116
0.00134871
8.02809e-05
0.000512035
0.00672181
0.000371301
0.00157233
0.00258744
0.013305
0.00672253
0.000144428
0.000221855
0.00132669
0.00657046
0.00672457
4.8226e-05
0.000639523
2.97861e-05
0.00437812
1.97028e-05
0.00672557
0.00120082
0.0067257
0.00581085
0.0104339
0.00672629
0.00295379
0.000105999
0.00807742
0.00672132
0.00528147
4.48965e-05
0.00677878
3.34966e-05
0.00672167
3.16441e-05
0.00792972
0.000345879
0.00539387
0.000415016
5.24829e-05
0.00672822
0.00266443
0.00601916
0.00672645
0.00672759
0.00155489
0.0143633
0.0147939
0.00585197
0.00177124
0.000496944
0.000168334
0.00672619
0.00259492
0.00868434
0.00375792
0.005069
0.00948277
0.00672256
0.000673351
0.0035548
0.00148842
0.000573513
6.38474e-05
0.00546891
0.0130245
0.00460905
0.00672719
0.00157585
0.00672134
0.000146694
4.77455e-05
0.00313596
0.000774631
0.00672253
0.00672612
0.00673392
0.00102531
0.00010648
0.00672177
0.00265854
0.00153933
0.00510675
0.00263063
4.6602e-05
0.00459272
0.000217172
0.00377728
0.00467021
3.98101e-05
0.0134995
0.000166055
0.00672261
0.000407534
2.95625e-05
0.00102656
0.000462586
0.0053648
0.0137978
0.00155679
0.000523459
0.00129123
0.00151328
0.0124082
5.95653e-05
6.28389e-05
0.000318722
0.00672678
0.000376453
0.000533509
0.00296764
8.63626e-05
0.00293972
0.00435983
5.5812e-05
0.000234597
3.24628e-05
0.00239483
0.00672682
0.00224772
0.00672589
5.58785e-05
0.000639672
0.0010987
0.000503682
0.000135723
0.00110281
0.000386714
0.00672126
6.12202e-05
0.0150905
0.013855
0.0123907
0.000361381
0.00672455
0.00206725
0.00308826
7.97966e-05
0.00672809
0.00490349
0.0029814
0.000284028
0.000257159
0.00672283
0.00250545
0.00281698
0.00371678
8.05501e-05
0.00672489
0.0162922
0.000881694
0.000353907
0.0155802
0.00203203
0.000379207
0.000304346
0.00904915
0.00487491
0.0014565
0.000121943
0.0108429
0.000261983
0.000603857
0.0144016
0.000232513
7.22152e-05
0.00672584
0.00672555
0.00672302
0.00672561
0.00178593
0.001326
0.00672042
8.2553e-05
0.00672068
0.00155714
0.00725566
0.00672373
0.000413589
0.00259812
0.00568794
0.000377319
0.0030599
0.00356021
0.00672373
0.00672602
0.0120006
0.000414752
0.000422702
0.00239144
0.0072633
0.00200444
0.000220191
0.00139354
0.00672574
0.00065674
0.00318248
0.000304859
0.00672527
0.00672265
0.00122212
0.0067227
0.000297833
0.000234255
0.0010351
2.92948e-05
0.00672534
0.00259204
0.0105299
0.000494485
0.0096563
0.000196514
0.000311658
0.000638743
0.000436323
0.00662833
0.00339368
0.00846373
0.000571353
6.13141e-05
0.000788704
0.0167205
0.0103541
0.016497
0.000227303
0.00710514
0.00332353
0.00672452
0.00673824
0.0118771
0.000771368
0.0146672
0.0147146
0.0118873
0.00673303
7.67255e-05
0.00871117
0.00672334
0.0028285
0.000302456
0.00129725
0.0142366
0.000831638
0.00100258
5.38826e-05
0.00672244
0.00196111
0.000982154
0.00219673
0.000119607
0.000944172
0.00456337
0.00205901
0.0166345
0.0067215
0.00905498
0.00672576
0.00413227
4.58087e-05
0.000271429
0.00672827
0.00674055
2.57572e-05
0.0067265
0.00672254
0.00565167
0.00137993
0.00726964
0.000502547
0.00672474
0.00289269
0.016321
0.00024078
0.00032472
0.00242965
0.0069049
0.00248713
0.000286525
0.00671889
0.000116802
0.00139562
0.00380338
0.000295796
0.00672277
0.00464779
0.0112132
0.0128472
0.0013493
0.00599765
0.0067249
0.00672546
0.000212405
0.00590493
0.000211661
0.000111609
0.0107361
0.0151255
0.000439624
0.00893405
0.000596782
0.00673643
0.000187681
0.00124867
0.000345946
0.000115329
0.0026105
0.0137708
0.00672229
0.000355386
0.0004407
0.000563273
0.0120506
0.0067196
0.00808535
0.00540939
0.000492693
0.000861222
0.000362084
0.00179479
0.000336246
0.00275169
0.00672264
0.00797859
7.90484e-05
0.0069898
0.00151176
7.7756e-05
0.000335896
8.8909e-05
0.000364203
0.00252336
0.00673957
0.0131308
0.00672608
0.00309116
0.00301162
0.00672379
0.00673146
0.00673067
0.00671962
0.00672281
0.00560913
0.0140856
0.00017813
0.000146712
0.00673519
0.00154436
0.000991828
0.000290184
0.00046581
0.00672345
3.43456e-05
0.00672052
0.00672247
0.000481198
0.00910469
0.000461398
0.0131734
0.00110895
0.00344144
0.00611665
9.6174e-05
0.000609421
0.000659049
0.00672267
0.00672276
0.000136663
0.000148552
0.00672186
0.00672643
0.00105674
0.00753645
0.000574679
0.00137621
0.000403805
0.00698575
0.0001594
0.000232191
0.00042655
0.000187687
0.00996094
0.00672094
0.00115096
0.00562148
0.00307749
0.00337862
0.000238029
0.0024911
3.21421e-05
0.00672242
0.0067203
0.000484366
0.00672289
0.000349312
0.00672075
0.00672608
2.36416e-05
0.00672855
0.00672366
0.0078378
0.000899876
0.00089061
0.000290139
0.0144982
0.000599036
0.0159994
0.00594151
0.000356663
0.000308804
0.00672099
0.0079775
0.000787434
0.00381255
0.000338537
0.00673738
0.00223705
0.00672492
0.000466782
0.0113072
0.000412047
0.00214283
0.0148277
0.00435007
0.000379002
0.000315393
0.0067241
0.0022744
0.00396906
2.69134e-05
0.00833882
0.0083877
0.00072792
0.000261305
9.99518e-05
3.49997e-05
0.00672481
0.0028616
0.000427008
0.0104362
0.0030693
0.000274086
8.55327e-05
0.000208231
0.00674136
0.013913
0.00673394
8.12702e-05
0.00284589
0.00953233
0.00671996
0.0007919
0.00966225
0.00672251
0.000356666
0.00392217
0.00275136
0.0087118
0.00672271
0.000423592
0.00284927
0.00105408
2.87644e-05
0.0111741
0.0168718
0.000216684
0.00561407
2.68783e-05
0.00438927
0.00405498
3.2258e-05
0.00282013
0.00119668
0.00674165
3.69901e-05
0.00261204
0.0133786
0.000287111
0.000390629
0.000977798
0.00261509
0.000507336
0.000739211
0.00168443
0.000451525
0.0138596
3.33598e-05
0.000612505
0.00127875
0.0120072
0.00536128
0.000922246
0.00281445
0.0101026
0.00300114
0.00672249
0.0161055
0.00508898
0.0047856
0.00146877
0.0117458
0.00672548
0.00672579
0.0120257
0.000261519
0.00262746
0.00266638
0.00193159
0.000270734
0.00504512
0.012686
0.00672614
0.00650886
0.000765103
0.0112758
0.0137121
0.000266908
0.0149917
0.0120138
0.00140545
0.00325781
0.000830662
0.00815444
0.00677443
0.0115633
0.00827762
9.20974e-05
0.000302592
0.00179692
2.58713e-05
0.0097749
0.00070679
0.00672564
0.000282614
0.00150558
0.000428622
0.000903076
0.000449654
0.00672507
0.00333391
0.00672706
0.000668945
0.0108624
6.92222e-05
0.00672355
0.0127382
0.00270989
0.00151606
0.00297384
0.00672642
7.3224e-05
0.000452216
0.00673199
0.0120295
3.61688e-05
0.00676151
0.0156211
0.00674498
4.54355e-05
0.0119355
0.00672262
0.00673151
0.00189619
0.00465158
0.0110592
0.000385859
0.00680858
0.00365608
0.00176218
0.00640196
0.0079109
0.00674668
6.46473e-05
0.000455699
6.06654e-05
0.00672244
0.00193816
0.000727718
0.000298275
0.00857347
0.00674247
0.00672249
0.00051385
0.00672229
0.00672297
0.00166419
0.0128572
0.000513046
0.00501323
0.00271231
0.0160763
0.00486457
0.0130392
0.000120134
0.0103619
0.00276562
0.00562708
0.0128071
0.00540365
9.86418e-05
0.0050639
0.00066334
0.00525462
0.0147168
0.0160226
0.00163557
0.000307787
0.000356488
0.00672617
0.00483201
0.00907183
0.00086654
0.000397587
0.00671956
0.00672682
0.0132491
0.00671954
0.0014244
0.00115611
0.0067205
0.00673432
0.0067258
0.000779955
0.0132539
0.000202933
0.00583992
0.00672258
0.00672278
0.00672612
0.010956
0.00672247
0.00623159
0.00574161
0.000373934
0.00542611
0.00244627
0.00672561
0.00672158
0.00673235
0.0029939
0.000101025
9.19275e-05
0.000167969
0.00339372
0.000453579
0.00051576
0.00672837
0.00133575
0.00138607
0.00112553
0.0011739
0.0161122
0.000280909
0.0102588
0.000393916
0.000624606
0.00854493
0.00905045
0.00165325
0.00041273
5.96692e-05
0.00674114
0.00672909
0.00184423
0.00492279
0.00556053
0.00673497
0.00919845
0.00568438
0.0165504
0.000290969
0.00672305
3.43713e-05
0.00018574
0.000521398
0.00677881
0.0136826
0.000381926
0.006724
0.00672264
3.63139e-05
0.00247638
0.00672292
0.00676937
0.00672659
8.20986e-05
0.000244679
0.00694164
0.00672898
0.000325037
0.00447161
0.000181895
0.0103798
0.000358116
2.36949e-05
0.000264658
0.00285924
0.000942069
0.000293361
0.00672256
0.00408514
0.002415
0.00103364
0.00676025
3.52438e-05
0.0101901
0.00671911
0.00164642
0.00462025
0.00673251
0.000392731
0.00124188
3.99953e-05
6.42881e-05
0.000283294
0.000328242
0.0163206
0.00149308
0.00413496
0.00248638
0.000104104
0.00672217
6.64355e-05
0.00185546
0.000170863
0.00672236
0.00671994
0.00672042
0.0156455
0.00672369
0.000123116
0.00931536
0.00015744
0.000205611
0.000351675
0.00114724
0.000561696
2.49534e-05
0.00135618
0.00676103
0.00672174
0.00671854
7.30734e-05
0.00272977
0.00486463
0.000276612
0.0034746
0.00672552
0.000144647
0.00276669
0.00024721
0.000680874
0.00135798
0.000787701
0.000470973
0.012443
0.00342734
0.00672227
0.00672589
2.46074e-05
0.0102598
0.0121932
0.00943215
0.0124841
0.000784587
0.00914663
0.00672028
0.00128446
0.00672736
0.000220079
0.00171285
0.00873828
0.00800203
0.0026622
0.0056433
0.00716203
0.000224375
0.0117622
0.00673484
0.00402158
0.00362093
0.0012488
0.00673191
0.00672244
0.0133098
0.000136435
0.0067263
0.000470092
0.0142046
0.00969627
0.0103652
0.00649072
0.00296169
0.00280441
0.0077009
0.00324139
0.0067286
0.00882503
0.000926239
0.00140158
5.00819e-05
0.00015886
0.00419641
4.85528e-05
0.00322528
0.00420576
0.000484345
0.0136537
8.37856e-05
0.0130416
0.0111883
0.00206545
0.00672576
0.000171953
0.0031604
0.000335677
0.0105732
0.000737268
0.00159705
0.00672045
0.00178583
0.0004969
0.000321789
0.00672056
3.22585e-05
4.4751e-05
0.00407604
0.000476076
0.000301229
0.00407485
0.00672265
0.00674565
0.00642591
0.000348291
0.000270419
0.000983941
0.000774988
0.00394679
0.00672354
0.0127839
0.0145668
0.00672536
0.00454537
0.00672688
0.0134753
0.00028674
0.00384397
0.000331278
0.00672221
0.000408565
0.00671955
0.0133264
0.0149276
0.00854051
0.00213266
0.00672308
0.0026556
0.00672407
0.00673105
4.20608e-05
0.00672665
0.00158493
0.003052
0.000311571
0.00447995
0.00672359
0.015226
0.0067227
7.80912e-05
0.00672067
0.00672257
5.26594e-05
0.00672855
0.000445392
0.0067229
0.000240812
0.000482
0.00672041
0.00672692
0.000620163
5.1804e-05
0.000728448
0.0102599
0.00978851
0.0109234
0.00144571
0.00552051
0.00672107
0.000379632
0.00673295
0.0071639
0.000278654
0.000126165
0.000422214
0.0062286
0.00673381
0.00672057
0.0125188
3.53941e-05
0.012075
5.41927e-05
0.00672604
0.00617274
0.00672552
0.00106722
0.0067251
0.00266069
0.00674763
0.000899989
2.66528e-05
0.00672577
0.00268723
0.00672562
0.000567284
0.0067231
0.00673458
0.0067221
0.00672527
0.00178696
0.000842458
0.016398
0.0067265
0.00319384
0.0126067
0.000509249
0.00105026
0.013723
0.000123805
0.00672168
0.00379962
0.000294824
0.00672606
0.0149549
2.8937e-05
0.0050987
0.00672828
0.00055526
0.00672301
0.00672418
0.0101071
0.00674314
0.0067217
0.00182779
0.00303551
0.00100242
0.00217389
5.06539e-05
0.00225333
2.34645e-05
0.00567069
0.000135945
0.00672173
0.00116562
0.000615512
0.00250627
0.00672596
0.00672242
0.000531518
0.000355769
0.00672321
0.00672278
0.000496531
0.00672211
0.000423339
0.00659157
0.00103165
0.011449
3.70031e-05
0.000136215
0.00672602
0.000303862
0.000188916
0.000244816
3.78453e-05
0.0067326
0.00672161
0.00672277
0.00291844
0.00672251
0.00672046
0.00429174
0.00244164
0.000383341
0.0067206
0.00672313
0.0149553
0.0026315
0.000465288
0.000285139
0.00550486
0.0026744
3.48507e-05
0.000255961
0.000681222
0.000735223
0.0152105
0.00182039
0.00221355
0.000932766
0.00672676
0.00672463
0.00216866
0.000975781
3.78403e-05
0.00772046
0.000269934
0.00568667
0.00169579
0.00672035
0.00167933
0.000182275
0.00463508
0.0109869
0.00672118
3.49147e-05
0.000223498
0.0103805
0.000214098
0.00672246
0.00165436
0.00103444
0.000853675
9.1169e-05
0.0158995
0.00788507
0.000404592
0.00672306
0.0142414
0.00673036
0.00672541
0.0164995
0.0113438
0.000463827
0.00253014
0.0124346
0.000523484
0.00674511
0.00303095
0.00672264
0.00348087
0.0098652
0.00737383
0.00672202
0.00672209
0.00297863
0.00287462
0.00930435
7.88241e-05
0.00672206
0.000219599
0.0087079
0.000103117
0.0017442
0.00672154
0.000590069
0.000725266
0.00672242
0.00676273
0.000477619
0.00058583
0.000397867
0.0138432
0.000372613
0.00660216
7.9059e-05
0.00413229
0.000671347
0.000361419
4.41527e-05
0.00672245
0.00672681
0.0121036
0.010608
0.000361364
0.0146913
0.00931819
0.00182774
0.0055566
0.00442317
0.00426834
0.00672111
0.000490979
0.00153528
0.00576226
3.73648e-05
0.000912111
0.0153111
0.000386911
0.011975
0.0125882
0.00205812
0.000437715
0.000199907
0.00672487
0.00676832
0.00047332
0.00250142
0.00108475
0.00412471
0.0067372
0.00165633
9.51675e-05
0.00407719
0.0122699
0.000474933
0.000693345
0.000381736
0.00673116
0.00152853
0.000357843
0.00393725
0.00113338
0.000426111
0.00128107
0.000466827
0.000280678
0.0060678
8.85921e-05
0.000339172
0.00917174
0.00025572
0.00674007
0.00796907
0.00391476
0.00835234
0.00638263
0.000207069
9.79562e-05
0.00037814
0.0010088
0.00412561
0.00358415
0.000498268
0.00840456
0.00420397
3.52112e-05
0.00672208
0.000259947
0.000505882
0.00126786
0.00130231
0.0150775
0.00211996
0.00302339
0.00439777
0.00672464
0.000459926
0.00672224
0.00957757
0.000335826
0.00460474
0.000692733
0.000406489
0.00672594
0.000913937
0.00673405
0.00563274
8.80762e-05
0.00167112
0.00672261
0.0129236
0.00696295
0.00239264
0.00287753
0.00672212
0.00672229
0.000449165
0.00901034
0.00150924
0.000241555
0.000711262
0.000880672
0.000458663
0.00407317
0.00786516
0.000591018
0.00100409
2.69765e-05
0.000247313
0.00649303
0.0124855
3.25446e-05
0.000441501
0.00276923
0.000261744
0.00411305
0.00672208
0.000434831
0.000311473
0.00672292
0.00569634
0.000350094
0.000181393
0.00672287
0.00101493
0.000512783
0.00191335
0.00673248
0.00673099
0.00119502
2.19404e-05
0.00011703
0.00132722
0.00171565
0.00672896
0.00401773
0.00933522
0.00503341
0.00230966
0.00040423
4.01704e-05
0.0016329
0.000440392
0.0026974
0.00672226
0.000314747
0.000777753
0.00271862
0.00133499
0.00581268
0.000560823
0.0110764
0.0162969
0.000538082
0.0137338
0.00397424
0.00038973
0.00292397
0.00673224
5.43035e-05
0.0041309
0.00675042
7.84359e-05
0.00673556
0.00672475
0.0022658
0.00218711
0.00060724
2.50152e-05
0.00546746
0.000111048
0.000685525
0.00855484
0.000564687
0.00449008
0.00268906
0.012889
0.00803381
0.000370691
5.34639e-05
0.00765317
0.000358956
0.0157768
0.00402936
0.00039337
0.00727436
0.0030728
3.24039e-05
0.000322769
0.000555503
7.98064e-05
0.00672737
0.0067226
0.00672259
0.0009036
0.014381
0.00701505
0.00139808
0.0143377
0.00214687
0.00600915
0.000724571
0.00684931
0.00471026
0.00672187
0.0121432
0.000385635
0.00477614
0.00160966
0.000108322
0.0148201
0.000525577
0.00344577
2.36179e-05
0.00031312
0.000306963
0.0135396
0.000333863
0.00336274
0.0170754
0.0150197
0.00204986
0.000218145
0.00223881
0.000384273
0.00672585
0.00671954
0.00672282
0.000726372
0.000384412
3.65195e-05
0.000143329
0.00239742
0.000717228
0.0161547
0.00597444
0.00672038
0.00115261
0.00672899
0.00051387
0.00678682
0.0067233
0.0134714
0.00111512
0.00672131
0.00672304
0.00032619
0.00711237
0.0039925
3.67577e-05
0.00321675
0.00131807
0.00673086
0.0103448
0.00348038
0.00671862
0.00590227
0.00998389
0.0047759
0.000422398
0.000370928
0.00207707
0.0072554
0.00192435
0.0163366
0.011892
0.000559353
0.000287154
0.00672724
0.00889498
0.00149929
0.00261833
0.00676593
0.00672336
0.00200802
0.00675407
0.00672839
0.00672583
0.000152689
0.00672802
0.00599297
0.00027269
0.00928638
0.000276886
0.00856616
0.00667608
0.0130632
0.00373955
0.00312131
0.00460147
0.0124409
0.000760967
0.000587909
0.000423475
0.000552798
0.00114349
0.000790514
0.00674442
0.000183159
0.000675168
0.00634436
0.0150761
9.41078e-05
0.00168003
0.0067261
0.000455509
0.000623664
0.0059231
0.000178922
0.00672496
0.00672041
0.0113105
0.00392597
0.00548411
0.00133888
0.00672142
0.0067269
0.0141294
0.00672134
0.00753283
0.00714223
0.0103389
0.00672883
0.000787544
0.00672312
0.00342572
0.00672457
0.00904086
0.00672678
0.0107133
3.14372e-05
0.00779915
0.00676712
0.000110545
0.000267518
0.00203766
0.0136072
0.000468089
0.0123135
0.0066693
0.00958053
0.0125197
0.00672271
0.0112084
0.00144659
0.00672032
0.00525064
0.00841371
0.0149364
0.000278873
0.00445089
0.000331052
0.000437458
3.32129e-05
0.00672808
0.00260409
0.000263077
0.000122868
0.00951447
3.24304e-05
0.00871638
0.00672603
0.0011897
0.000366455
0.0017672
0.00893141
0.0085762
0.000235993
0.00806051
0.000475062
0.000277793
0.000695751
0.00672325
0.00104872
0.00688695
0.000234992
0.00129749
0.0026313
0.000760065
0.000198488
0.0129026
0.000406487
0.00673176
0.000549912
0.00672665
0.000129095
0.00672041
0.000201426
0.000128301
0.00115918
1.93246e-05
0.000435532
0.00270421
0.000923759
0.000364237
0.0029885
0.00623373
0.016844
0.00417877
0.000316537
0.00545923
0.000186055
0.00672564
0.00388396
0.00674516
0.00422964
0.000277379
0.00672384
0.00672608
0.00316754
0.00672347
0.00672294
0.00272321
0.00119471
0.00166164
0.00664984
0.000640182
0.00672068
0.00293409
0.00672532
0.0144626
0.0162806
0.000351912
0.00672241
0.00162066
0.00107791
0.000333383
0.00017393
0.00672257
0.00672347
0.00673464
0.0139303
0.00715338
0.000182799
0.00763642
0.00762882
0.000432396
0.00570136
0.00749159
0.00653803
0.00399233
0.0143076
0.000289809
0.0067205
0.0059596
0.00411418
0.00257146
0.000203943
0.0004635
0.000697899
0.00263493
0.0109765
0.000672116
0.0083322
0.000262843
0.00672461
0.000461041
0.000354227
0.000332341
0.00672567
0.000122483
0.000620239
0.00461606
3.48727e-05
0.00672259
0.00672219
0.000428738
0.00673026
0.000696129
5.39701e-05
0.000285212
0.0168312
0.00971948
0.00672684
0.0110008
0.00682902
0.00725815
0.000742125
0.000136184
0.000678326
0.00672517
0.00672296
0.000374877
2.019e-05
0.00672287
0.000384795
0.00193846
0.0105775
0.00824365
0.00046646
0.00878227
0.00647706
0.0155685
0.0046951
9.28442e-05
0.000787494
0.000721526
0.00672241
0.00672945
0.0108333
0.015887
0.00672201
0.00673368
0.00674899
0.0067215
3.76387e-05
0.00239862
0.00228834
9.15489e-05
0.000454148
0.000284535
0.00616122
0.007888
2.80985e-05
0.000551648
0.0014774
0.0067258
0.00673016
0.00675716
8.44043e-05
0.00471013
0.00066918
0.00142652
0.000562156
0.00672223
0.0067236
0.00123938
0.0067481
0.00672669
0.000590321
0.000889703
0.000372845
0.0119546
0.0067453
3.58439e-05
0.000350793
0.00675207
0.000250911
0.0169239
0.00672373
0.00222605
0.0102809
0.00673177
0.000320327
0.000374089
0.000222586
0.00672326
0.000430495
0.00678649
0.0162122
0.000410308
0.0137646
0.00373341
0.000286517
0.00097859
0.00673341
0.0092888
0.00037118
0.0119663
0.0107843
0.0121732
0.00763385
0.0129839
0.00195459
4.89845e-05
0.00411922
0.0160902
0.000983089
0.000201182
0.00730051
0.00672154
0.0106673
0.00477737
0.000138402
0.00355996
6.878e-05
0.000332012
0.0102763
0.00672071
0.00338695
0.000786543
0.00674713
0.0128534
0.0123398
0.000641707
0.00672631
0.00132227
4.48908e-05
0.0015147
0.000699186
0.0161626
0.00218189
0.00672274
0.00672254
0.00133925
0.00735367
5.48883e-05
0.000812463
0.000871483
0.0136082
3.74493e-05
0.00643913
0.0101702
0.00244529
0.000149582
0.00365122
0.00428351
0.000270916
0.000889143
0.00606109
0.00777626
0.00163662
0.0112082
0.00898115
0.00890954
0.00674105
9.2305e-05
0.000448645
0.000358946
0.000168758
0.000521013
0.00351346
0.00672738
0.000139865
0.00035915
0.00618579
0.00131295
2.88683e-05
0.0171071
0.00769547
0.0141931
0.00243179
0.00206327
2.01771e-05
0.00177623
0.00809007
0.00673107
0.012099
0.0165037
0.00125311
0.00123816
0.000846319
0.0137522
0.015953
0.00825695