/*--------------------------------*- C++ -*----------------------------------*\
| =========                 |                                                 |
| \\      /  F ield         | OpenFOAM: The Open Source CFD Toolbox           |
|  \\    /   O peration     | Version:  v2012                                 |
|   \\  /    A nd           | Website:  www.openfoam.com                      |
|    \\/     M anipulation  |                                                 |
\*---------------------------------------------------------------------------*/
FoamFile
{
    version     2.0;
    format      ascii;
    class       volScalarField;
    location    "250";
    object      omega_0;
}
// * * * * * * * * * * * * * * * * * * * * * * * * * * * * * * * * * * * * * //

dimensions      [0 0 -1 0 0 0 0];


internalField   nonuniform List<scalar> 
18166
(
0.0336843
0.0219221
0.0222718
0.098883
3.69297
0.0403592
0.021793
29.2045
3.56296
2.55277
0.0220421
0.0219771
3.63653
0.302064
5.61334
0.2989
0.0221228
3.8338
0.021974
7.69865
0.139899
0.0221238
0.13673
0.0220725
0.0218933
0.0217984
0.0315558
0.0287344
0.0220153
0.104626
12.6935
0.021515
0.0219468
0.0219549
0.0214636
0.0220414
3.55485
0.0220475
0.0217036
2.55548
0.02226
12.6695
0.0219575
0.022028
0.0346414
0.0221365
0.0874713
22.1806
0.198825
0.0303907
0.0440258
0.0446066
0.155954
0.0222355
0.0220483
6.13591
12.0588
11.2058
0.0232083
0.0254869
0.0611523
0.0262643
5.84645
0.0306269
0.297084
0.0220828
4.08524
4.82541
16.8705
0.0304966
0.0214671
0.0224222
0.0349021
0.0241174
7.97282
0.832843
0.156483
13.6446
0.0250712
0.0220735
0.0222556
3.7965
0.0220787
0.0220442
0.0216037
0.0229033
0.0258106
0.021935
0.0440779
0.0216952
8.36005
0.0380974
4.82173
0.0222767
0.0222529
0.0230101
0.0215827
0.0590488
0.0245699
0.0283585
0.0219706
0.0221402
5.68449
0.0307104
0.0304568
0.0221486
13.8254
3.13404
0.0244626
0.0220737
5.95182
3.58422
3.99869
4.90577
0.0221501
0.0216728
0.0599129
4.47839
0.0222336
4.32188
4.42043
0.0220272
0.579656
7.40733
0.131324
0.0219835
0.0221555
3.52649
0.0283745
0.0384938
0.152277
28.6873
0.0246765
2.94123
0.0273288
0.0861828
0.022052
0.0218776
0.0247543
3.05571
3.5019
0.321334
0.60521
2.68986
0.0242367
9.64439
28.3939
5.76637
0.021896
0.0265198
0.021581
3.68449
10.1641
0.132143
0.022251
0.0220797
0.0224521
10.117
0.0220592
3.53393
0.0216554
4.38611
0.0251084
0.0218027
0.0453286
0.573964
0.0221521
2.57526
3.88921
6.29342
0.2174
4.87186
0.0379122
4.77432
5.97007
0.0219668
0.311646
4.89283
0.0219038
0.0219405
0.022151
0.0366072
0.173358
0.31653
6.86191
0.0218643
0.0518339
0.0938037
0.0220386
0.0216573
0.0657344
0.0219723
0.0423872
0.0220487
0.0339412
5.907
0.0393161
0.0333151
4.01078
2.91942
0.208499
4.01576
0.021795
5.82509
0.0220545
0.0456181
3.90897
9.39078
3.71983
24.3401
3.87119
3.4886
0.0219138
0.0221054
0.0459731
0.0366845
0.50528
0.0590049
3.9901
3.71556
0.0248216
0.0219515
0.0218693
0.0488383
7.29976
0.021776
0.0551976
0.021848
0.0233482
0.0217879
8.82189
3.99794
0.0233263
1.92294
0.0220111
0.0228183
0.0445904
0.0566125
3.98413
9.83127
0.0426457
3.72317
7.8557
0.0250541
5.26149
0.0221211
0.0988576
3.71904
3.24991
0.0229405
0.0354088
0.0221515
0.0220511
0.0283309
3.84077
9.14126
0.0221098
3.84932
4.99283
0.0218057
0.0220933
1.9705
0.060141
0.19791
10.3659
4.33058
4.43767
0.0240021
0.0222637
0.0288524
0.0306864
0.0221076
0.0219098
5.2981
0.0451509
6.57973
4.80365
0.0218371
0.734081
0.0215507
0.0824797
3.92324
0.0239058
0.0221639
0.0243375
0.0826837
0.0263972
0.0225002
3.56745
0.0221618
0.0287134
0.0804657
0.0246402
0.0221066
0.0238807
4.62782
0.0217811
0.0221191
0.021774
5.26315
4.67373
0.0220754
0.0222667
0.0219042
7.80708
0.0219469
6.71947
0.14645
0.0220392
0.0216537
0.0245231
0.776007
6.08178
0.0272299
0.0221613
4.53965
0.0745428
0.0247888
0.0220955
0.337911
0.0219351
0.0244708
4.01268
0.0583014
0.0357512
0.0295513
0.0224998
0.0219494
0.0216252
4.27012
0.021874
2.77529
0.0221718
0.0217993
15.3923
3.62269
0.248443
3.90706
6.30949
4.63194
0.0219189
4.09886
0.346342
1.85605
0.0227397
0.0220605
0.0217938
0.0277267
0.0225035
0.0539011
0.0233814
0.0780279
0.0221202
0.0218835
0.0676789
0.0258446
0.0677969
0.0418176
0.0220567
0.0216259
0.0219503
4.2249
3.98296
0.0221142
0.0217968
0.0220182
0.0222699
0.104165
0.022272
8.17152
6.49612
0.0219174
0.0219366
2.98635
3.65175
17.2399
1.89917
0.0222466
0.042755
0.255554
0.0218064
2.61988
1.03334
0.0264588
0.0238996
0.0219843
0.022085
0.0222755
3.95621
0.0219802
0.0214806
0.0262503
0.0216913
3.99
0.271652
0.022241
0.0221319
6.45227
0.0218189
0.0218302
0.022198
0.277341
3.7286
0.022271
6.7445
0.0227484
0.0217878
6.90515
5.37585
0.0223975
8.09852
7.78818
0.0386417
6.01967
0.0244441
0.0278945
0.0797871
0.233251
0.0214058
0.0220989
0.0224943
0.0219868
1.00026
0.0240609
0.95689
0.0222689
0.502409
0.0219528
3.77294
30.2262
0.0258672
0.513968
0.0366897
0.0225162
0.0419217
3.99355
5.59998
0.0222001
7.21757
0.0356653
0.02167
7.73758
3.80265
0.0219509
4.28897
4.34867
0.0220885
25.8449
0.114193
0.0217764
0.0489595
5.31337
4.49215
0.04523
3.03855
3.55092
0.325862
0.0784288
0.0216849
3.72619
0.0219744
0.0220295
0.603891
6.07592
0.0229153
0.0223446
0.0351279
0.0242466
0.0221103
0.0217897
0.02161
0.0552664
3.44774
0.0219562
0.081632
0.0222788
5.07006
0.0221036
0.0220187
0.260518
5.97066
0.0512529
4.26947
0.0219884
0.0219996
3.70369
18.9625
0.0581904
0.0223371
0.21874
0.206944
0.0221954
0.0221563
0.0222378
0.0229763
4.3737
3.7175
0.0220095
0.0226318
0.103934
3.63161
16.5587
0.0214781
0.0229285
5.25411
0.0220531
0.0221521
0.0220831
0.0217045
0.0595162
0.399489
2.32455
0.294198
0.0220655
0.187666
0.0218926
0.0222763
5.1628
2.19452
0.0501248
5.12914
4.02768
6.08772
3.66474
0.166541
3.86313
7.78734
0.0909408
6.67885
0.0219759
0.0711263
0.0228974
0.0230548
0.0939945
1.01062
0.0230593
0.614817
6.09564
0.0423085
0.0222541
0.0219981
2.06409
3.76362
4.38938
0.0215254
0.53992
3.74969
0.0224267
0.0227498
0.0220159
0.025083
28.1913
4.92093
0.0222335
4.01769
0.0221191
3.36001
0.0258004
0.0221756
0.0275973
3.99559
0.0216647
0.0220485
3.49947
3.82664
0.094197
5.70807
0.022316
0.0220846
0.0221875
2.02971
0.0947778
3.81045
0.0302934
3.08427
4.08077
0.0448743
15.4862
0.0228091
5.37282
0.0216888
0.206308
4.25381
0.0922003
0.0247314
4.5119
5.27847
0.0220485
19.6257
0.0219699
0.0222458
24.8076
3.67236
0.0222368
0.0220935
0.0216031
3.6777
4.0138
0.0220419
0.238285
0.0242622
0.0221279
0.0219939
0.075729
0.195032
0.0253801
17.6623
0.0221112
0.0218797
4.77591
20.7983
0.342156
10.3613
2.20794
0.0222152
3.77883
16.5501
0.0240844
5.0172
0.0678273
0.0248701
0.0437688
3.9916
0.0258571
0.074286
0.0228457
0.0330414
3.61541
0.0220513
5.12601
0.0607299
0.0525055
0.0378355
0.0216784
0.022475
6.54325
0.0220587
0.0221241
0.101579
0.0216794
0.0609088
0.022162
0.148153
0.022172
0.0305324
0.0216332
29.5997
10.367
4.1358
0.0228862
8.64992
3.67813
0.16307
0.0217782
3.99065
0.0223198
24.0987
0.0220538
0.092664
7.90927
3.24521
19.9476
1.76201
3.9428
0.0214497
11.5939
0.02193
0.027546
0.0240568
0.0219838
0.0220605
4.68397
0.0739471
0.0225451
4.19205
12.2496
0.0504963
0.0214567
0.0259772
0.0222636
0.0218152
0.0217012
0.0219663
0.466313
0.0276618
6.51715
4.0445
6.80738
4.72762
0.238084
0.0261149
0.0221656
7.82514
0.0218758
4.83888
4.21612
0.0216716
0.0346232
4.01499
4.47736
5.1179
0.0312106
0.0256729
0.0217944
3.53746
8.36499
6.44851
0.0667167
1.80192
21.478
0.0635543
3.52987
22.3596
0.192974
0.0219912
7.27855
0.0859729
0.0699668
3.96666
0.0218161
0.130139
0.0894356
0.0218132
0.29939
5.61662
3.5482
5.02916
0.0311451
0.0298282
0.0220686
0.192003
1.47034
0.0269213
4.15222
0.0219218
4.20581
3.67056
0.0257994
0.0241324
0.0222698
0.0355614
0.0222577
15.0791
0.11876
3.4212
0.0217853
0.0218069
0.0217977
24.3988
3.63162
0.0323184
15.2848
0.07538
7.75003
0.0220594
0.0221495
0.525722
0.0229312
0.0576036
8.84325
0.0736166
0.553171
0.0222472
4.70301
5.22468
0.240736
0.0232662
0.0217453
0.0227768
0.0221575
0.242868
0.0243715
0.0217163
0.315514
0.0230781
2.04505
0.174291
0.0373729
0.0219246
3.97505
0.0216835
0.0260141
2.80495
0.105465
0.0220008
0.202762
4.35678
0.0217795
0.0220917
0.0219769
0.0555084
3.48289
0.0220462
8.71698
0.0222625
3.82392
10.7988
3.89688
3.03763
0.0552909
0.0298607
0.742762
0.0219417
5.90019
0.0217799
0.0218239
0.0215455
0.021985
3.33076
0.0218606
0.0220657
0.0222359
0.0217117
0.750595
0.0230558
4.26991
0.0219912
0.0221667
0.0220405
5.21334
16.6198
40.6974
0.861519
0.0218298
3.98059
3.67581
0.0229966
0.0219945
6.51715
4.42951
0.0248874
0.141202
5.30174
0.0550581
0.0217887
0.0607379
0.0322131
0.0607934
4.54856
8.73054
0.0216092
6.79922
0.0218062
0.650782
0.0675702
0.0508513
0.0219829
11.104
6.59294
5.79397
0.0221817
0.0732462
0.0216746
8.76312
0.0220591
0.0401826
0.0225008
0.0218836
0.0808775
0.0237523
0.0220848
1.28245
0.0221009
4.02591
0.028594
0.623504
0.0219492
0.250421
0.0772652
0.0220237
3.84881
0.502351
5.30677
0.0221702
0.024954
0.155894
5.3464
0.0219897
0.022455
0.0237889
5.14705
0.0215828
0.0880147
0.258357
0.0229874
0.0215073
0.0221592
0.0219137
0.0472199
0.0216786
0.614534
0.0342839
0.0216052
0.0237123
6.60298
0.0219247
0.024424
0.021827
0.0220644
0.0590012
0.239697
4.82328
0.212904
0.022945
0.0222838
4.33711
2.58328
6.72768
11.0432
0.10073
0.349157
0.0219973
0.033553
5.23176
8.18577
3.77324
0.0221107
0.0735914
0.0528146
11.2288
4.11748
0.0220339
0.0858033
0.0253306
3.54259
5.40098
4.568
0.0217935
2.88714
0.0222705
0.0217869
4.40296
0.0222939
0.0225739
8.80875
2.19804
0.0219091
6.00514
0.112713
0.021649
0.509584
0.0215107
9.68304
3.46629
0.105411
5.84389
0.599776
4.0971
0.0215305
0.0225163
0.0219342
0.0215673
0.0215562
0.0241394
3.60493
4.37863
0.0218677
6.34047
0.0348581
0.0383003
0.0219965
0.0230268
4.40167
3.51143
4.62976
4.77187
0.0220899
0.044288
4.8473
0.0248357
0.258132
0.125699
3.5944
3.94752
0.0218674
0.0219281
0.0239947
0.0220695
0.0521941
1.29816
0.022423
2.96951
0.0221173
0.0222816
0.0218343
4.92249
0.229921
0.0219947
0.0222074
6.48397
0.0219563
6.99978
3.64036
0.0219397
0.487028
0.021957
6.64771
3.89934
3.64564
0.367847
0.0221086
0.0803075
0.884185
0.0231628
22.4169
3.8361
3.22675
0.0225587
0.0486988
0.0234246
0.0224894
5.55586
2.37322
0.107877
0.118791
0.0215583
0.209872
0.043789
0.0221503
0.0746919
4.16767
6.78184
2.17719
0.0348978
0.57206
7.69717
0.0215731
0.0228518
0.0222674
0.0972001
0.0403329
0.0237324
0.0332547
0.0499183
0.0260067
0.136673
0.0220625
0.0798279
3.97977
3.65884
4.0235
18.06
0.0218046
0.0224232
12.7903
0.0805901
0.0217836
0.0218825
4.07684
0.0322484
0.135694
0.0221441
0.0229435
7.96177
7.53296
22.8243
0.0220357
4.09649
0.0232674
0.298642
4.45893
0.0222225
0.0587822
0.048997
2.34867
6.51197
0.0239448
3.68512
5.06618
0.979737
0.0428339
3.76212
0.0313285
14.6623
0.0222707
0.0222585
0.0219964
0.0219887
0.0234569
0.0449961
0.0219653
0.18075
0.0219278
0.0228432
5.15139
0.0220544
0.0953088
9.41501
2.79125
8.77251
0.0220003
0.022035
0.021838
0.0222783
4.11971
0.320152
0.144428
6.47338
3.43806
0.0221886
0.0361773
0.0234873
0.0222707
0.0307998
0.0221177
0.0315761
0.021511
0.0221039
0.0227274
0.0221109
0.144819
0.145759
0.0252551
3.90738
0.0219959
0.0220957
5.74727
0.0304434
4.23626
0.307028
0.0963346
0.330037
15.6762
2.59694
0.0219635
5.944
0.0252388
3.75605
0.0350859
4.01852
4.09185
2.0999
0.0363049
4.30113
0.0220081
0.0222028
0.0218734
3.93244
0.0458653
3.71047
4.0787
2.97579
0.0217675
4.22812
4.64826
0.0219003
0.0226722
0.0457583
0.0229908
5.18048
0.0303807
0.0266012
2.91966
0.0220808
7.97475
0.0231622
0.0224184
3.92314
0.0237154
3.15833
0.0223643
4.44025
0.0220795
2.08709
0.0222582
0.0220249
2.46258
0.230226
0.0216912
0.0217909
3.15471
0.0215156
0.021902
5.4619
0.0224759
4.44049
0.379828
0.0222144
7.011
4.14344
0.11429
0.101742
0.0222472
3.06328
0.0220521
0.130034
0.0216498
0.0481085
0.0225838
0.0219378
0.22902
0.0221413
3.65127
2.72083
4.5652
0.0233942
0.0219194
0.0222209
0.0215959
0.0899836
0.0217965
36.0999
18.713
3.0682
4.49845
0.574268
5.28191
0.292024
0.0216188
0.0469232
0.0249551
0.125061
0.0638734
0.0228371
1.83727
0.0220876
0.361381
0.0266419
17.1447
4.36139
0.0215985
4.5615
5.67883
0.0593906
0.041602
0.0464329
10.509
0.290378
4.75572
0.0221268
2.34084
0.0658375
4.47552
9.38416
1.625
0.108184
13.0311
0.175229
3.88072
0.0217946
4.61393
0.0215923
0.0226088
0.022581
0.0220473
0.0219694
0.021534
0.0218537
0.0221205
5.73494
3.57711
0.402884
2.12284
0.0216208
0.0224517
0.0246416
1.16751
0.524046
0.0218849
11.5187
0.0219774
0.0219315
0.0643346
6.2096
0.0271513
4.18555
0.0236419
8.37642
0.0217664
0.19274
0.0259145
1.03753
0.0221337
0.0221185
0.0482063
2.49637
0.0219861
0.0218956
0.0306874
4.57873
0.041936
0.0222687
0.0699885
7.57458
0.0411569
0.115094
0.0280053
0.0494279
6.59626
0.0217503
9.25664
0.0217795
8.8091
0.0222554
2.04925
0.0221512
5.27083
0.0220088
0.0217933
0.0275016
0.0221185
0.0443922
0.0219118
0.0222783
1.75816
0.022004
0.0221924
3.41959
0.0261534
8.75989
0.0710335
3.69666
15.8136
3.82037
0.021933
0.510837
10.5714
0.021757
2.30912
0.028033
0.0219887
0.196081
0.0218747
19.5814
0.0216916
0.109031
4.1074
0.240189
0.0229587
3.6977
0.0220673
0.196318
0.045669
0.0222104
7.27602
4.47213
1.18176
4.19074
3.53723
0.0412755
13.9006
0.649831
0.374941
0.0216073
8.06958
0.0275393
1.94931
8.54701
0.142987
0.0807517
0.0447855
0.0215969
3.56368
0.0218254
2.75999
4.95648
3.7588
0.0217967
0.035656
6.20161
0.0219128
0.146747
7.06819
0.0223843
4.83403
0.0221261
0.421456
0.0220019
7.85567
0.44378
5.17791
4.08033
35.8093
3.54035
0.455097
0.0219879
7.25063
0.937363
0.0219995
0.0228689
0.021633
0.200018
4.84898
3.69679
0.0732351
20.4249
0.0433337
0.0221949
0.0264318
0.0249296
9.70369
15.536
5.31558
1.96145
0.0365474
0.0236934
3.93136
0.0217505
0.0242669
0.0228855
4.04185
0.0221737
0.022099
2.10724
10.1031
6.31922
0.024136
3.93955
0.0219118
0.0220249
3.49824
1.15981
0.0221659
9.2361
5.41545
0.221152
0.0218964
2.09605
0.0222877
5.23858
0.0355717
6.20409
4.04821
0.09766
4.22808
4.81808
0.0237434
8.5795
0.0264698
3.8675
0.0216481
3.9785
4.56366
7.45182
0.06863
8.56709
3.53312
5.19441
0.0309098
0.0222559
0.349932
8.52227
0.0285354
0.0350564
0.168111
0.022027
8.51487
0.0219252
0.0425834
4.18236
0.0665032
0.0221803
4.066
0.0221376
0.0225348
14.2041
0.0215791
0.13481
0.049061
0.0217515
6.3136
0.313253
0.0216868
4.63262
0.021704
2.25794
6.01256
0.0220793
0.0219658
0.0222153
5.41929
1.92055
0.0969659
5.20885
4.01674
6.12293
6.78432
2.42378
0.0217285
0.0659448
0.295329
1.66532
0.0220096
20.5815
0.0251429
0.128746
3.8001
0.0222072
0.0220991
0.0260271
0.0220973
0.0220746
10.4618
3.72617
0.0581554
6.50721
0.0228649
4.06
5.96763
1.873
0.135799
6.56036
0.0220138
0.0219843
3.88328
5.73005
0.156457
0.0218914
0.0254725
0.0219729
4.2744
4.41095
0.0221384
0.0775795
0.201817
0.0220234
11.1463
8.23601
0.0328338
0.0392846
0.0219291
0.0219924
2.09754
0.0219941
0.0225329
0.025897
0.0219683
0.0226693
0.0216881
0.0397523
5.32415
23.4753
5.69551
0.0221016
0.022137
0.0219015
3.52027
0.0221097
8.21344
0.0219612
0.0693397
4.94612
0.0221722
0.021805
0.0220865
0.0217622
0.0222396
0.69974
3.45374
0.0501287
7.75138
0.0805454
0.0677364
0.0220036
0.0262254
0.0234294
6.01258
0.0235566
4.10488
0.0337054
5.64244
0.0406515
0.0347864
4.53875
4.51696
0.0238468
0.0455649
0.0752221
0.021593
0.0220018
0.0222611
0.0219703
3.49921
0.0218216
2.19396
0.0218293
4.55882
0.396249
0.0221568
1.1729
9.35582
0.0273287
0.0216565
4.52238
0.379198
0.0215612
0.0220812
0.78778
0.0238883
0.0220034
0.0220302
0.0219176
0.204092
0.0353556
4.66325
0.0219287
0.0586264
0.02199
0.405507
4.2135
0.0278156
2.01696
0.034999
0.0226577
0.0355992
0.248837
0.0220678
0.0219471
13.8705
0.0386526
0.0217094
0.424732
5.56883
0.0217332
11.1486
0.0219206
7.42606
0.11053
0.0255076
1.91591
0.0728004
0.094956
0.0874559
3.99644
0.0223703
0.0221225
19.9519
11.0928
0.0220913
1.27879
0.0227088
11.7166
0.0219201
0.0215954
0.0219135
4.32548
0.0221778
0.0523188
4.36349
0.0518292
0.0473687
0.258682
0.0227506
0.0325768
1.80545
7.42948
0.0216917
0.0219833
0.021908
1.04376
0.0224845
3.56962
0.23329
4.18141
0.0222638
0.235229
6.64333
0.134064
11.3505
0.0224332
0.0237649
0.039801
4.34554
0.0225673
0.0221028
0.0222697
3.93088
2.87483
2.70181
5.38594
4.00249
0.0243768
5.61285
0.0217665
0.0224841
0.0220116
0.035851
0.022686
8.53087
4.77022
0.0220795
8.16013
3.44716
0.238617
5.05134
0.0218302
9.53704
4.65647
0.0261135
0.0216003
0.0219234
3.73701
0.0479589
0.0222895
0.0736004
4.40826
2.28679
5.12558
3.59816
0.0226592
0.0223378
4.8742
0.0219531
0.0215402
6.29075
0.0241387
0.0233934
0.168229
0.0407478
0.0219873
0.132809
3.23685
14.1017
0.0346733
3.72713
1.66352
3.85344
4.00478
0.0221506
0.0219143
5.65006
4.32475
0.0682676
5.1161
1.07037
0.0237179
0.0219837
9.66862
0.351096
0.119952
0.0217793
1.77514
0.272748
0.0220222
0.223489
0.428263
0.0219594
0.0220754
0.0217016
4.64454
0.226454
0.0468759
0.0246334
0.0284794
0.0219469
0.0221735
3.48626
3.63441
0.0222573
3.53682
0.0220171
5.53013
0.167463
5.95768
0.0880911
0.0216964
19.4939
0.0219195
1.81339
4.79513
4.60049
8.22847
0.0220694
0.0221824
0.0218827
0.0219484
0.150073
0.0216937
0.0240018
0.0226987
0.409169
0.0219749
0.0219925
4.75522
0.0221294
0.0694433
0.0217632
0.0221066
3.23028
0.0220067
0.0270903
0.0221282
1.25816
12.9842
0.0219056
0.0219109
0.0253066
1.78732
0.0240574
3.67187
4.22567
4.0062
0.0225497
3.22566
0.0217233
0.309169
0.0217559
5.23554
0.104329
0.177537
0.044053
0.0217562
0.0219087
0.0218176
1.84046
0.315227
4.89238
1.7687
0.0219843
2.86286
0.0216045
0.0280854
0.022232
9.14006
0.0215537
0.0238154
0.617256
0.0222716
4.78867
0.0222675
0.0261459
0.0218973
0.021629
0.0219611
0.0222378
3.57192
0.0370316
4.09902
0.0220174
0.0229279
5.21836
0.361461
0.0253905
4.89842
0.0437019
0.0215257
0.0220024
0.0460289
0.0222733
4.74106
0.579165
3.52179
0.0220082
0.271135
0.0221354
0.0220023
5.0806
0.0215121
0.0220696
9.08907
0.0222455
0.0240167
0.0222585
0.115967
9.78204
1.78823
5.60509
0.046098
0.022076
0.022907
6.75141
0.0222201
0.021925
0.0218689
0.0269052
18.0273
0.0221672
0.0221086
0.0477731
0.0220267
0.359538
3.08547
0.0243993
4.08368
1.39266
0.0878401
0.0219576
0.12744
0.0435979
0.942673
0.372482
0.0216235
0.0220912
0.0221461
0.0223518
0.0221037
0.0217848
0.0220666
4.53816
0.0424811
0.0217536
0.0221542
3.78274
5.43922
0.0284748
0.121883
0.0219714
0.022498
0.306259
0.229037
0.0468821
3.3304
4.5677
0.0229081
0.0225033
4.25565
0.0220057
0.0219999
0.0222499
0.0241489
0.248366
3.92188
0.0491521
3.26443
7.27642
0.0219878
0.0283931
0.0372045
9.60462
4.07028
0.0220816
0.64804
0.633672
4.10996
0.108785
0.0218261
0.022336
8.48505
0.0235554
0.0743962
3.89298
5.95371
0.197936
0.0220658
4.12374
0.0219945
0.0222572
4.31634
4.32517
0.228122
3.68722
2.82622
0.0713296
0.0215449
0.0221007
0.0219348
0.0219752
4.32922
3.80352
0.0219692
0.0215211
0.0221468
0.0230377
4.35057
0.0462625
0.0217044
0.29542
5.18127
0.0914418
7.13123
0.0215393
0.0249985
0.0242577
0.0216799
0.0216769
0.034279
0.0432241
0.167919
4.31107
0.103467
6.94072
0.219422
11.7368
0.0867339
0.0675379
2.24539
0.0219095
0.0219205
1.87185
4.9981
0.34612
3.65071
3.77641
4.16324
5.4994
3.58729
0.021902
0.022016
0.263291
0.0231856
0.0219095
0.604754
0.0391016
2.50206
0.246535
5.35129
1.8432
0.0223691
0.195448
0.0365074
0.0219134
0.0218775
0.0826181
11.7945
9.09274
4.60974
0.0217584
0.022444
0.0526784
0.0220054
6.11018
0.308533
2.49872
0.185587
0.0219467
0.0237222
0.0407775
3.77394
0.0228718
9.75959
0.0227031
0.0312311
0.195514
8.05807
0.0888514
0.0597141
3.46782
0.077893
0.0216408
2.36752
0.0220044
3.7981
0.0217838
0.0455901
0.0609416
0.101011
0.0360431
0.0219133
15.5847
0.0415603
3.42738
8.00432
6.91907
0.0221137
0.0561332
1.50406
0.0232613
0.0229652
3.68159
5.30019
0.0220649
0.0219609
0.0222119
24.3554
0.0221211
4.24495
0.390233
4.34822
0.0427265
0.18301
0.0222773
0.0363666
0.0216869
10.1726
0.0612836
0.0223553
0.0220874
2.58299
8.49587
0.0220309
6.23214
0.0221224
0.0221305
0.038293
7.46136
0.0250184
0.0465998
0.0242807
0.0252662
0.360803
7.22637
3.42315
0.0562392
0.0229293
0.398352
0.542046
4.74424
5.30315
0.24563
0.0522249
0.0220759
0.0962569
2.86613
0.0220913
0.43808
0.111407
0.0221434
0.0218099
0.18322
0.0448062
0.022064
0.0253144
0.024616
6.27163
0.0218349
0.0215425
0.0287419
1.21456
0.68224
0.0233135
3.95098
0.0220055
0.0219269
5.9722
6.21014
5.66596
0.0893478
0.879445
7.54839
0.0388099
0.0221061
0.0220948
0.0804113
0.0352883
0.0221539
0.026057
0.0218026
0.0253898
5.83397
4.16535
0.543498
3.85704
0.0221177
0.050464
4.37377
0.0217724
2.5943
0.0219255
0.0215566
0.061602
0.0216863
0.0222302
0.0238299
0.0221612
0.0351963
0.922298
0.0217709
0.264858
4.19701
4.59611
35.2799
0.0219836
0.0220917
3.50376
3.71585
0.0955584
0.130041
6.72788
0.143253
4.67872
0.0219449
0.03224
5.75115
0.0219936
0.201495
0.120325
0.0833676
0.063123
0.0219185
0.0216824
0.0220901
0.0248457
1.83209
4.44365
0.0228678
4.04541
3.71891
0.0218169
0.0270264
6.35052
11.7539
0.0221036
4.82818
0.0482799
8.53894
0.0235644
1.70518
1.86298
0.0311259
7.37261
0.611398
0.130686
0.21432
5.28381
0.20125
0.0219774
4.4087
4.15712
0.0225504
0.0387645
0.0227574
0.463481
0.0222632
0.021924
0.0221235
0.0299249
0.0293627
6.04657
0.039612
5.61568
7.89683
3.91446
9.63394
0.0219811
0.0279659
0.0220012
0.0367669
0.0216366
0.0221559
3.59535
15.3428
0.0219222
0.0220689
0.238586
3.95965
0.022115
0.3068
0.0220003
0.0240722
0.0219911
4.17524
0.0224806
0.0218969
0.0217609
6.71764
4.04888
0.0613685
0.0359585
0.0222406
4.6562
0.0242903
4.40285
4.05432
10.9361
0.0718852
0.0219161
5.03326
0.0283418
0.0223607
0.0216875
0.022161
10.4602
0.0216916
0.0220018
0.0222696
0.0499728
0.0219455
4.68435
0.0352337
4.43793
0.0624986
4.33196
4.04282
5.62865
0.0219297
0.0225534
4.33526
5.49551
1.51607
18.8558
0.0577866
0.0266886
0.0237367
19.8427
0.0217264
0.383874
32.7783
0.0219816
4.49687
4.42141
8.58922
0.0222783
0.032055
0.0426594
0.0218675
0.043163
0.0216999
0.0220041
4.08553
7.46725
3.63724
0.0225417
0.0217276
0.0219973
4.17052
0.0215531
5.04892
4.71104
2.05355
0.0218405
0.0295845
0.0221446
0.0219397
0.0217157
4.76298
0.0219082
3.72373
0.323329
3.41683
0.0216506
0.0548516
1.03225
0.0242722
4.64506
2.71105
3.8735
0.0219891
3.63455
1.87748
0.0219526
4.0302
5.90878
0.0220015
5.23172
4.66299
4.54844
0.0844626
0.0219899
0.0456974
25.7081
0.49463
0.02201
9.3597
0.104873
0.0621882
3.46289
0.787073
4.02593
0.0222779
0.0251623
0.157565
26.2164
4.71831
4.08634
0.0593541
4.40396
0.272861
0.363671
0.0242642
0.0218416
0.0232388
3.92974
0.474231
22.0356
3.61512
0.0340188
0.035088
3.95558
0.221616
0.0218402
5.14057
0.021739
0.0517635
0.0219973
0.0461659
2.27363
0.0227893
7.43833
0.0680542
0.0222453
0.023447
0.0917309
0.0221691
0.0218136
4.24396
0.0218892
0.181645
4.7592
0.0666255
0.0219217
14.8203
0.0217524
6.60024
0.335804
0.0220425
0.0222796
0.0220899
0.0221684
0.0220673
0.0223143
0.0227418
0.0222432
4.4101
0.024027
0.0218565
0.0220537
0.0217121
3.83436
4.45174
0.120359
0.0220764
0.0230788
12.2101
0.115063
0.0383239
0.0220431
0.0221707
0.0216729
4.86335
4.8843
0.0449939
4.48661
4.22077
0.670321
8.23093
4.4557
0.0218619
4.09064
1.85553
0.0472721
0.0219932
3.89173
0.0218984
3.66796
0.0470074
0.0585717
0.0289634
10.872
4.13472
0.0426874
4.25553
0.108726
0.0219977
0.0935224
0.135881
0.129069
0.0222159
0.0645802
0.0250622
3.57692
1.73988
0.0219423
0.0216683
0.254052
0.0214586
0.0300132
2.98665
0.127381
4.26441
4.32901
0.0219983
4.91352
0.0223797
6.66477
0.0241653
0.135591
0.0242024
0.0219163
0.022078
0.0643645
1.61091
0.0218506
0.68808
0.0228093
6.46902
5.82702
0.170337
6.02687
2.81641
4.38238
3.39857
0.0767429
0.0312573
0.0299482
0.0220943
0.0215281
5.03024
4.59259
0.0220942
0.0216601
0.0217875
0.0220838
0.315706
10.3569
0.0220963
0.104476
0.466463
0.0324411
4.52516
2.7883
2.89026
0.0257067
0.0284836
0.022268
0.021554
0.0219256
0.0762132
0.0218737
0.0261357
0.0237257
0.298845
0.0220972
0.022171
0.023449
0.0217505
0.0219538
0.0758353
0.0388556
0.0647892
3.94951
0.0217473
0.44683
0.178589
0.0216826
0.202976
4.02463
0.0221871
5.99599
5.05827
0.0217417
0.105218
0.0982544
0.0430802
0.0220654
0.376871
0.0216317
4.04548
0.134782
5.6133
4.29234
0.223106
0.0364849
0.0219068
3.55345
0.172581
4.56427
3.55891
4.7293
2.49892
3.54253
0.0223508
0.142119
3.56125
4.05702
0.0368501
0.0330113
5.61786
0.0217243
5.0926
2.75227
0.216173
0.0219733
0.116208
4.747
5.53366
0.0217286
7.06778
0.0236214
0.0215387
5.47552
4.42642
0.0362896
0.0220073
0.0243505
2.3269
0.0255321
5.39455
4.10235
20.9423
0.0221162
0.0221038
4.37625
2.6864
0.0927073
0.0297313
0.0322594
1.88526
1.44597
4.22466
4.17205
13.0269
0.212142
0.0219874
6.77327
0.114688
0.0239756
3.52818
2.32612
0.0254965
3.32502
4.24789
4.68513
0.0216793
0.0519927
0.349012
0.149151
0.0498791
0.0269432
3.95077
0.0217375
0.0436684
0.131569
2.97612
8.32489
0.390668
4.39594
4.35651
4.34499
10.0372
0.0222164
1.42381
0.0279459
3.7517
0.0219085
3.92078
4.32408
5.37835
8.021
0.0240265
3.6361
4.84421
3.63966
4.06208
0.0257364
0.362995
0.022274
0.0217121
0.142909
0.0342743
1.70177
4.23875
0.022001
0.0220233
15.7275
0.0218594
3.91216
0.0218871
5.84317
0.0222504
0.027785
5.22483
0.0218722
3.64387
3.72006
5.54062
0.022015
0.059595
4.55731
0.210739
0.312268
11.0135
5.19675
0.0253944
0.0217472
0.0341363
0.218872
0.0228656
3.99027
3.88474
1.23088
0.0244001
0.80914
0.0258292
4.6685
0.688965
0.0220195
0.0221151
3.9368
0.427707
1.38488
1.59238
0.0218609
2.74865
13.7906
35.546
36.2757
0.204534
5.60231
0.0219155
0.222352
0.0219529
0.0230624
0.0227376
0.14567
0.0436094
0.0219089
3.40769
0.0219365
1.04992
0.0335063
0.105134
0.323877
6.43156
0.3558
0.0666864
0.0220074
3.59168
0.0737896
0.0247361
0.0246429
6.69014
4.13022
0.0219748
6.50752
3.71688
0.0706765
4.38271
0.0267765
0.0219885
3.76393
3.55625
3.9874
0.637854
4.0404
0.19863
0.0349286
0.023718
0.022134
0.261998
0.34589
0.0221566
0.0223126
12.1397
3.5284
5.17488
1.93252
3.86442
0.0473753
2.57264
0.0221057
0.0314958
4.67215
3.86848
4.12537
5.24087
0.0326403
0.346185
0.511847
3.76957
0.163772
4.8352
1.72049
0.0222136
3.92627
0.0600211
0.0215136
0.0221054
5.85248
0.0221634
0.022096
0.0349394
0.454144
0.0455506
0.0286419
0.0240668
1.14572
0.0393697
0.07072
0.0259328
0.510855
0.12755
0.0254647
0.0218856
0.0220085
5.27456
4.14681
0.0220579
0.0223646
0.734484
0.0216427
0.229444
0.0476272
1.36542
0.0219576
0.189357
0.0217617
0.0548046
0.0218674
0.348383
4.16415
0.59644
0.504208
0.0222372
0.384715
0.0624842
3.03021
0.0217435
0.0221515
0.0233291
4.70718
5.31401
0.0246272
0.0221873
0.163927
0.389999
7.57472
0.0216547
4.60712
0.0220127
0.0221729
0.0226193
2.00182
0.0216481
0.025242
0.0221671
3.60619
0.0245282
0.0217907
6.16989
9.0921
0.0220095
21.2045
0.0380845
0.0671548
2.80611
2.04412
0.021896
3.81165
4.44138
3.8958
0.0220972
2.49116
0.0225026
0.0409365
0.167542
0.0223337
3.10514
0.176
0.0470035
3.91913
0.0234182
0.223955
0.531147
5.21242
0.0219502
4.04466
3.90595
0.037354
3.44543
0.102575
6.74672
0.0562243
2.71302
0.0483996
0.0217238
0.0220616
0.124397
2.18219
0.0372462
0.0216239
0.0326453
0.022025
4.1461
0.0253902
4.24302
0.0219407
0.118614
0.192248
0.0375406
0.0221013
0.0557895
0.0427982
0.021772
5.07925
0.0316701
3.75108
0.0569739
0.037976
4.83768
21.3856
4.58636
0.570643
0.0771614
0.038579
0.0291428
0.246938
0.0221004
0.127752
0.0737605
0.0370384
5.07352
0.0219394
0.0573837
0.0220705
20.9954
0.0236068
0.199343
0.0770347
0.022203
0.0216027
0.370056
0.0404959
7.35514
0.269633
0.286505
0.0293729
0.0990825
0.0219252
0.0465965
0.0219819
0.0221156
3.50459
0.0955328
4.30908
1.29746
0.0221978
0.023054
0.158721
0.02229
0.0240511
0.0219815
0.0391951
10.7484
0.0292455
33.3218
0.280333
0.0221891
0.0917827
2.36345
0.0222788
0.0216762
0.0221684
0.607618
1.8495
0.0222447
0.358028
3.89301
0.299456
0.021829
0.166198
0.029348
0.0219849
7.61226
0.0236148
4.9889
0.0223079
3.29203
5.15497
3.78278
24.6465
0.127488
4.75469
3.61311
18.8214
0.022283
3.69254
0.0587919
0.0216656
0.0836459
1.76451
0.0221234
3.87734
0.0219133
0.0260013
3.94277
0.0229915
0.0470689
0.0230917
0.0219198
4.0148
0.0338693
0.0434084
0.022086
0.0219354
0.0219993
0.0844895
0.021549
2.52231
0.0751915
0.0238709
0.0219075
10.8114
0.0990604
0.0821531
9.57137
0.0239738
2.36024
3.16309
0.0245766
5.01922
0.0479453
0.0476797
0.0393183
0.0221468
0.0219785
5.03508
0.0551697
0.0219675
3.83362
0.0582852
0.0730305
0.0219973
0.0628366
0.0325696
0.040651
0.0219211
0.0221638
0.324957
0.0436402
6.94705
0.0629112
0.038291
0.059604
16.5505
0.0509406
0.0678587
0.0219261
5.76161
4.52681
19.9842
3.51153
4.22688
0.377421
1.04192
0.0219811
4.50683
0.100527
0.165049
7.69006
0.021745
0.0365185
3.97143
0.0219219
0.021677
30.4883
3.73624
0.022315
3.9517
5.43356
0.0215354
5.72274
0.308238
5.22608
0.0219835
3.29182
0.0220087
0.0222634
34.4643
0.311086
0.114025
0.0452251
4.58246
0.0966464
2.26457
2.12574
0.0351734
0.230783
2.6417
0.0365691
3.83
0.0219166
2.23652
0.0219195
0.0219867
1.77778
0.0222889
0.0216642
3.52164
0.0237109
0.0220724
0.032678
1.63138
4.10062
0.0226995
9.04183
0.159799
0.028452
0.0217724
0.0312182
0.0218702
3.62002
0.0221439
0.138061
1.79482
0.191658
3.77795
0.0245062
14.1238
0.0217977
0.0240745
1.05202
0.0217277
0.0925369
1.97369
0.0219576
0.0609374
4.83961
0.348281
1.73013
0.0616432
2.48061
0.0221279
4.25832
4.0483
0.021868
0.0220835
0.161224
0.0372388
4.0074
3.57304
2.14624
0.399622
0.0435733
4.59903
0.0215525
0.206075
0.0849663
5.3037
1.94214
0.0480631
0.0217244
0.0297924
3.20412
0.0219234
0.0222227
2.32057
0.0217236
0.0221352
3.85958
4.22396
2.03282
0.0219845
1.88818
0.0220889
0.225918
0.0217773
0.620294
0.191579
3.81295
2.4583
5.89364
0.0218078
3.72711
5.01871
3.34924
0.327238
0.553641
2.84936
0.383918
0.22673
0.0218758
4.13922
11.0895
0.560693
0.0219608
3.51274
0.085697
0.21234
0.0379202
0.0301859
0.0671968
0.0261145
4.26548
1.84214
0.0218516
0.0603087
0.0714042
4.20043
0.027501
0.0353144
0.0286612
2.42803
0.0216678
0.021544
4.1013
0.353873
5.18064
5.01327
1.20524
1.70047
0.182494
0.0219943
0.0221556
0.0415429
0.0473476
0.0688749
0.171335
2.74361
0.022174
0.0370734
0.109761
20.3352
0.0231865
0.130604
0.0286743
1.29347
0.0220046
0.741467
0.411112
4.72721
0.0221416
0.551417
0.0220821
0.0219556
0.0219908
1.88994
3.66243
6.4381
0.0654295
0.0219853
0.0802741
0.227136
4.67195
3.04799
0.0221174
4.30991
0.0539907
0.050067
2.06192
0.14871
3.63322
26.3916
0.0221311
0.352466