/*--------------------------------*- C++ -*----------------------------------*\
| =========                 |                                                 |
| \\      /  F ield         | OpenFOAM: The Open Source CFD Toolbox           |
|  \\    /   O peration     | Version:  v2012                                 |
|   \\  /    A nd           | Website:  www.openfoam.com                      |
|    \\/     M anipulation  |                                                 |
\*---------------------------------------------------------------------------*/
FoamFile
{
    version     2.0;
    format      ascii;
    class       volVectorField;
    location    "250";
    object      U_0;
}
// * * * * * * * * * * * * * * * * * * * * * * * * * * * * * * * * * * * * * //

dimensions      [0 1 -1 0 0 0 0];


internalField   nonuniform List<vector> 
18166
(
(0.839817 -0.00411398 -2.89428e-20)
(1.00561 -0.00150319 7.1394e-22)
(0.999924 -0.000883114 1.09537e-20)
(1.21195 0.0172632 -4.26821e-20)
(0.0994498 -0.389873 -1.37676e-19)
(0.831438 -0.129081 -4.41657e-20)
(1.01377 -0.0105647 3.44363e-21)
(-0.330639 -0.00954466 -4.71927e-21)
(-0.102435 -0.00907113 8.6541e-20)
(0.144677 -0.145333 -5.52573e-20)
(0.999112 -0.00972094 0)
(0.995571 -0.0161804 0)
(-0.111832 -0.0279656 -1.58645e-19)
(1.27656 -0.0778914 0)
(0.594752 0.0383843 -5.49986e-20)
(1.27829 -0.0712421 5.26485e-22)
(1.00078 -0.00552947 1.16259e-21)
(0.0384872 -0.905767 5.13403e-21)
(0.991269 -0.0176865 2.54711e-21)
(-0.280278 -0.0125212 1.3332e-19)
(1.23541 -0.125796 1.32244e-19)
(1.0007 -0.00557746 -4.15103e-21)
(1.23421 -0.109832 -1.12452e-19)
(0.996132 -0.0013014 2.22428e-21)
(1.00795 -0.0116581 -6.64382e-22)
(1.01333 -0.0101902 -5.46365e-21)
(0.858643 -0.0224297 -3.43833e-20)
(1.09837 -0.0466675 3.21578e-20)
(0.987223 -0.0284302 7.92284e-21)
(1.21895 0.0165121 -4.59744e-20)
(0.00377924 -0.117556 0)
(1.01676 -0.000605265 3.06618e-21)
(1.00032 -0.0305006 2.58925e-21)
(0.996608 -0.0201218 0)
(1.01967 8.17832e-05 0)
(1.00192 -0.00823888 1.23095e-22)
(-0.0839657 -0.00920118 0)
(1.00178 -0.00801671 -1.0333e-22)
(1.02776 -0.00882171 0)
(0.174379 -0.184743 1.14224e-19)
(1.00006 -0.000699391 -1.55164e-21)
(1.18317 -0.240124 3.34458e-20)
(0.999857 -0.0320336 6.57646e-22)
(0.980966 -0.0182115 0)
(0.837084 -0.0213845 -1.18322e-20)
(0.998261 -0.00208912 -1.05447e-20)
(1.09964 0.112022 -3.85032e-20)
(-0.0025458 -0.124333 0)
(1.14135 0.179839 2.75142e-20)
(0.867496 -0.0207849 3.17354e-20)
(1.10049 0.052947 2.41268e-20)
(1.13064 0.0229437 -3.56101e-20)
(1.24742 -0.08725 -3.68284e-20)
(1.00018 -0.00065591 5.68384e-22)
(0.999176 -0.00927757 0)
(-0.258056 -0.00134594 1.15642e-20)
(1.17583 -0.232818 -9.76253e-20)
(-0.192137 -0.0112011 -8.24931e-20)
(0.988463 -0.0667396 -1.18412e-20)
(1.08202 -0.0383137 1.15064e-20)
(1.16133 -0.134365 0)
(1.07916 0.00689285 -9.94766e-21)
(-0.279846 -0.00753396 -1.47231e-19)
(1.08526 -0.0964603 0)
(1.28037 -0.0620783 -3.82057e-22)
(0.996863 -0.00338012 0)
(-0.197787 -0.0145715 -2.19147e-20)
(0.404387 0.181425 0)
(0.398009 -0.116609 -1.71691e-22)
(1.10382 -0.0060004 0)
(1.01949 -6.76516e-05 0)
(1.02553 -0.0480713 0)
(0.841681 -0.0550482 0)
(1.0321 -0.080065 2.22972e-22)
(0.0613391 -0.399182 -7.07581e-20)
(0.354764 0.347735 9.31983e-20)
(1.24143 -0.104515 1.59687e-20)
(0.233816 -0.0809999 0)
(1.07043 -0.0589153 0)
(1.00132 -0.00685833 -9.25436e-22)
(1.00003 -0.00172476 1.76421e-21)
(0.00589179 -0.0134778 3.46396e-20)
(0.996471 -0.00151772 -1.64638e-20)
(0.994892 -0.00348171 8.91538e-21)
(1.01664 -0.00137959 0)
(1.0525 0.00840713 0)
(1.08483 -0.0313719 5.06312e-21)
(1.00565 -0.00631665 1.14701e-22)
(1.12748 0.0273541 -1.67917e-20)
(1.02725 -0.00830572 3.75376e-21)
(-0.254637 -0.01062 1.67831e-19)
(0.866462 -0.141402 -2.03586e-20)
(-0.186728 -0.0159946 0)
(1.00002 -0.00064905 0)
(1.00016 -0.000955958 1.61042e-21)
(1.05288 0.0105704 0)
(1.017 -0.00114613 3.24547e-21)
(0.995783 -0.251455 -3.6033e-22)
(0.923681 -0.0087648 -1.46028e-20)
(1.09744 -0.0328485 2.40918e-20)
(1.005 -0.000780055 1.10403e-21)
(0.999009 -0.00449462 -2.66261e-21)
(0.663114 0.0412973 -9.24691e-20)
(1.08268 -0.0984777 0)
(1.10271 -0.00702713 0)
(0.999061 -0.00409972 -5.10139e-21)
(-0.0646946 -0.382175 2.68075e-20)
(0.0909742 -0.00823852 -1.47936e-19)
(0.981702 -0.0799403 1.04988e-20)
(0.999637 -0.00795744 1.96467e-21)
(-0.178329 -0.0149733 -1.73313e-19)
(-0.0442052 -0.00400889 0)
(-0.0984408 0.0343203 0)
(0.874599 0.221112 1.10174e-19)
(1.00054 -0.00464994 2.23116e-21)
(1.03164 -0.000860893 -7.69413e-21)
(1.01137 -0.260663 0)
(-0.000441896 -0.0346657 -2.15312e-20)
(0.974805 -0.0295752 3.38109e-21)
(0.720228 0.269644 0)
(0.609909 0.791015 -4.39473e-21)
(0.986444 -0.0272519 -4.95857e-21)
(1.27644 -0.230117 9.85494e-20)
(0.421348 -0.000162382 0)
(1.23781 0.0198132 -3.23807e-20)
(0.994152 -0.0144895 -4.62093e-21)
(0.9987 -0.00222504 -3.45406e-21)
(-0.139549 -0.0227627 1.00098e-19)
(0.94467 -0.107745 7.54248e-21)
(0.941769 -0.178154 1.87364e-20)
(1.24513 0.039209 4.06028e-20)
(0.823761 -0.412477 2.92224e-20)
(1.07669 -0.00630845 5.09314e-22)
(0.171364 0.108263 -2.29907e-20)
(0.935991 -0.0882362 2.12437e-20)
(1.09388 0.110616 3.13957e-20)
(1.00161 -0.00809584 0)
(1.00843 -0.00938875 0)
(1.07782 -0.00402094 0)
(-0.0167546 -0.0438348 -2.5776e-20)
(-0.121392 -0.00454395 0)
(1.28342 -0.065659 -4.32974e-20)
(1.19579 0.250932 0)
(0.141989 0.10516 0)
(0.985219 -0.0774773 -1.29485e-20)
(0.897818 -0.0495982 1.51636e-19)
(-0.319821 -0.0142701 0)
(0.799828 0.0511767 0)
(1.03997 -0.006885 4.29841e-21)
(1.0861 -0.00699539 -2.27188e-20)
(1.01684 -0.000967894 5.44892e-21)
(0.087131 0.0359185 -3.23823e-20)
(0.534755 -0.722158 8.81594e-21)
(1.23791 0.0196379 0)
(0.999866 -0.00118607 -2.31901e-21)
(0.999672 -0.00756305 2.00864e-22)
(1.00819 -0.0533235 0)
(-0.292364 -0.00985585 1.11683e-19)
(1.00147 -0.00762682 -1.04744e-21)
(-0.133534 -0.0241637 8.97706e-20)
(1.01444 -0.00125983 0)
(0.295817 0.146887 0)
(1.07824 -0.0425595 1.46379e-20)
(1.00963 -0.00133295 -2.50049e-21)
(1.13079 0.0242211 3.86305e-20)
(0.330421 0.00491246 -3.82765e-20)
(0.998751 -0.00285439 -8.56106e-21)
(0.122291 0.0972143 2.31639e-20)
(-0.00624677 -0.0147352 3.52583e-20)
(-0.137443 -0.0189734 1.80112e-19)
(1.27452 -0.016647 0)
(0.930852 0.227456 -3.35427e-20)
(0.943463 -0.183776 -1.36215e-20)
(0.383884 0.17661 0)
(1.26483 -0.0602393 0)
(0.994464 -0.0200486 0)
(0.604383 0.392074 1.48332e-19)
(0.529777 0.209702 9.46157e-20)
(1.00596 -0.00115633 0)
(1.00545 -0.00584498 0)
(1.00047 -0.00477954 -2.73371e-21)
(0.95877 -0.173699 1.16098e-20)
(0.520519 -0.0750112 -1.31789e-19)
(0.595734 0.353004 -3.88897e-20)
(1.02514 -0.00365958 8.79582e-20)
(1.00795 -0.00472656 -1.4464e-21)
(1.04182 -0.222513 1.10598e-20)
(1.20519 0.0253824 4.40703e-20)
(1.00256 -0.0056808 0)
(1.03096 -0.000517552 4.24237e-21)
(1.16919 -0.126329 1.79179e-20)
(0.990814 -0.0187865 -3.01272e-21)
(1.11451 0.0365061 0)
(0.99517 -0.00338245 0)
(1.02948 -0.156202 0)
(-0.00520365 -0.0963985 0)
(0.839917 -0.11519 7.38329e-20)
(1.02363 -0.147496 -2.86134e-21)
(0.0027172 -0.0364336 -7.93511e-21)
(0.106192 -0.00172624 -2.63901e-19)
(1.27179 -0.0240658 2.45326e-20)
(-0.0673898 0.0442059 0)
(1.0367 -0.0014891 -6.74699e-21)
(0.81955 0.0481357 -2.66315e-20)
(0.997269 -0.0392373 2.67218e-21)
(1.13432 0.0176156 3.8838e-20)
(0.0413834 -0.0128624 6.00472e-20)
(-0.272246 -0.00419748 -1.46928e-20)
(0.128994 -0.480833 1.82646e-19)
(-0.275854 -0.0105136 4.74114e-21)
(0.134684 -0.338556 -9.08553e-20)
(-0.10829 -0.00439235 4.81619e-20)
(1.00591 -0.00139992 0)
(0.997547 -0.00261062 -3.16458e-21)
(1.10999 0.0488854 1.28956e-22)
(0.86573 -0.140789 0)
(1.28749 -0.0555675 1.07502e-19)
(1.0085 -0.251322 -2.12924e-21)
(0.0297853 -0.0145183 -3.10334e-20)
(-0.0208326 -0.0150754 -6.0674e-20)
(1.07576 -0.0304805 2.47188e-20)
(1.00227 -0.0164902 -2.15439e-21)
(1.00781 -0.00477593 1.2529e-21)
(0.756708 -0.0101702 -4.05186e-21)
(-0.247487 -0.0101964 0)
(1.01698 -0.012746 2.3742e-21)
(0.991487 -0.244266 2.63929e-21)
(1.00794 -0.00140286 -5.75964e-22)
(0.977274 -0.0663554 0)
(1.03621 -0.00228066 1.3994e-20)
(-0.278302 -0.0123441 -8.72507e-21)
(-0.104951 0.0320621 5.2472e-20)
(1.05972 0.00418787 5.53749e-21)
(-0.0209005 -0.0116946 2.14244e-20)
(1.00321 -0.000595688 -4.17739e-22)
(1.05283 0.00687464 -1.53561e-20)
(1.10988 0.0443231 0)
(1.15035 -0.130606 -2.5313e-20)
(-0.178135 0.0143763 -4.76906e-20)
(1.02495 -0.0679234 -2.70568e-20)
(1.11371 0.0370392 0)
(-0.0648961 -0.0156652 0)
(-0.281749 -0.012327 0)
(1.07942 -0.0349493 -2.47349e-20)
(0.906701 0.155625 9.82014e-20)
(0.970631 -0.00155902 -1.83124e-20)
(1.21034 0.0233516 8.0373e-22)
(-0.0791429 -0.0159499 0)
(0.201217 0.114816 4.97555e-20)
(1.03879 -0.0520447 0)
(0.827592 0.0114486 -2.14085e-20)
(0.998581 -0.0020869 9.65028e-21)
(0.998346 -0.0375782 -1.91152e-21)
(0.944046 -0.104638 1.33121e-20)
(0.0649292 0.0200699 1.72582e-20)
(-0.156696 0.0205672 1.10094e-19)
(0.999997 -0.00638386 0)
(-0.0534101 -0.01424 7.08939e-20)
(-0.126591 -0.0213794 -2.30978e-19)
(1.00931 -0.00117328 2.98791e-21)
(0.997212 -0.00298737 0)
(-0.0202645 -0.020185 -2.5143e-20)
(1.15798 -0.14663 9.04694e-20)
(1.1341 0.181564 3.71355e-20)
(0.0148015 0.0267629 0)
(0.0074093 0.0629229 0)
(0.00901471 -0.00203834 -2.17112e-19)
(1.0309 -0.0786861 -1.56573e-21)
(1.00004 -0.00122281 0)
(1.10134 -0.03418 -2.81063e-20)
(0.86161 -0.0235975 3.77207e-20)
(0.997592 -0.00251413 -2.61253e-23)
(1.0068 -0.00769606 3.02049e-22)
(0.412697 0.103844 -4.71272e-20)
(1.12748 0.0292558 -1.23015e-20)
(-0.134705 0.0131257 0)
(0.59181 0.224072 0)
(1.00838 -0.00117726 6.26162e-22)
(0.377555 0.318702 0)
(1.01694 -0.000719297 1.04693e-22)
(1.12871 0.0957636 -1.59645e-20)
(-0.182056 -0.0144588 0)
(1.02831 -0.0768127 0)
(1.04281 0.00603352 2.40772e-21)
(1.0729 -0.0325437 -1.65697e-20)
(1.15623 -0.195082 0)
(1.07897 0.00849834 0)
(1.05002 -0.0266421 0)
(-0.065995 -0.00897637 0)
(1.00037 -0.00427384 2.351e-21)
(1.09807 -0.0458223 3.07066e-20)
(1.09461 0.1013 3.77723e-20)
(1.0402 -0.0782619 7.2347e-21)
(1.00011 -0.00643724 0)
(1.0255 -0.0767761 0)
(-0.00769772 -0.0890732 0)
(1.01459 -0.0106423 -8.68115e-22)
(0.997895 -0.00230825 9.4362e-21)
(1.01667 -0.0127001 -2.31875e-21)
(0.983157 0.163383 7.37908e-20)
(0.684241 0.242773 -1.07251e-19)
(1.00121 -0.00708017 2.12353e-21)
(1.01495 -0.0464053 0)
(1.00706 -0.00788855 0)
(0.822439 -0.0127993 0)
(1.00245 -0.032918 0)
(-0.264258 -0.00215697 -1.35911e-20)
(1.23679 0.0540572 -3.26727e-20)
(0.980388 -0.0194496 0)
(1.03105 0.000684809 6.21868e-21)
(1.07495 -0.00944796 -2.01401e-20)
(0.315401 -0.134141 -1.06496e-19)
(-0.261851 -0.0128326 -4.29916e-20)
(0.905956 -0.0555442 -3.13183e-20)
(1.0003 -0.00451943 0)
(0.118855 0.349529 7.10995e-22)
(0.659172 0.0331968 1.07387e-22)
(1.04366 -0.0796171 3.39078e-21)
(0.997232 -0.0027947 -3.93051e-21)
(1.27728 0.125416 -8.52397e-21)
(1.0037 -0.0173969 2.09818e-21)
(0.928438 -0.0114052 6.01753e-20)
(-0.0424921 0.0524197 0)
(1.15229 -0.148397 -7.31753e-20)
(0.931004 -0.162439 0)
(0.868581 -0.0106471 -8.17304e-20)
(1.05096 -0.0255973 9.9347e-21)
(1.00176 -0.0328307 0)
(1.02485 -0.00437601 3.1064e-21)
(0.136944 0.0950055 -2.54271e-21)
(1.00848 -0.00954548 -6.16607e-22)
(0.14757 0.098448 1.4591e-21)
(1.04298 0.007147 0)
(1.03628 -0.000517548 0)
(0.502718 1.08249 7.7128e-20)
(-0.049234 0.00219511 0)
(1.27807 -0.000632831 -1.07994e-19)
(-0.0354581 -0.013394 5.78736e-20)
(-0.243307 -0.0102361 -1.27228e-19)
(0.176385 0.112793 0)
(1.04079 -0.00590723 -4.87404e-21)
(-0.0346556 -0.00583095 0)
(1.27684 0.119386 0)
(-0.0291365 -0.0154417 -1.7177e-20)
(1.05146 0.00745468 1.44549e-20)
(0.99956 -0.00849493 4.5899e-21)
(1.01452 -0.0121351 -3.15647e-21)
(0.900241 -0.0358311 1.84822e-20)
(1.02478 -0.0483277 -5.38832e-21)
(1.14256 -0.130078 1.23671e-20)
(0.987684 -0.0668503 1.03791e-20)
(1.09069 0.101455 -1.80227e-20)
(0.997933 -0.0022732 -6.99064e-21)
(1.00726 -0.00450129 -1.52375e-21)
(0.682593 0.0747901 2.25567e-20)
(1.08442 -0.0331738 9.85295e-21)
(0.669974 0.0452174 0)
(1.11772 0.0320886 -2.74361e-20)
(0.999301 -0.00879581 0)
(1.02428 -0.00501376 -6.1295e-21)
(1.00513 -0.0058855 0)
(-0.0184161 0.0557387 -1.7752e-20)
(-0.00839308 -0.016277 -7.2382e-21)
(1.00012 -0.00618192 1.50969e-21)
(1.01278 -0.00924868 0)
(0.993153 -0.00508409 5.32184e-21)
(0.999885 -0.000584705 0)
(1.05728 -0.311617 -2.15081e-20)
(1.00006 -0.000731975 0)
(0.166458 -0.0316278 0)
(0.400791 -0.739197 1.59465e-20)
(1.00642 -0.00595993 0)
(1.0032 -0.0174119 -1.47605e-21)
(1.32562 0.0287355 8.63174e-20)
(-0.0802363 -0.0157898 0)
(0.62083 0.900518 6.06896e-21)
(-0.0280098 -0.0181972 3.43533e-20)
(1.00006 -0.00189299 3.72052e-21)
(1.11772 0.0327929 2.89747e-20)
(1.27926 0.0134092 1.90151e-19)
(1.03654 -0.00114954 9.00645e-22)
(-0.0204411 -0.0425229 4.2737e-20)
(1.21895 0.248639 4.88496e-20)
(1.08603 -0.00869285 1.67269e-20)
(1.04072 -0.0705175 7.76215e-21)
(0.986842 -0.0111805 4.81794e-21)
(0.99689 -0.00314954 0)
(1.00002 -0.000154525 4.24711e-22)
(-0.166476 0.0165923 0)
(0.987813 -0.0112087 -3.54804e-21)
(1.01931 -0.000272368 0)
(1.08694 -0.0154855 6.16175e-21)
(1.02373 -0.00893318 -1.7097e-21)
(0.0314646 0.0605674 0)
(1.25723 0.123739 1.4499e-19)
(0.999973 -0.00205701 -3.11944e-21)
(0.998014 -0.00200346 7.12826e-21)
(-0.198625 -0.0142193 -4.75154e-20)
(1.01201 -0.0111022 0)
(1.01122 -0.0107241 0)
(1.02046 -0.0421954 2.06287e-21)
(1.27628 -0.0527644 1.22943e-19)
(-0.0369569 0.00174425 -1.94789e-20)
(1.0001 -0.00102608 0)
(0.940764 -0.000462355 0)
(1.05293 0.00448995 -7.91698e-21)
(1.03622 -0.00263094 -1.89759e-20)
(-0.152035 0.0105653 8.04099e-20)
(-0.136702 0.0173745 0)
(0.979359 -0.0428862 3.8138e-21)
(0.92234 -0.0211049 9.21516e-20)
(-0.139442 0.0292451 -1.58304e-19)
(0.921623 -0.176794 0)
(1.01004 0.0520291 1.12523e-19)
(1.07553 -0.0156009 9.60713e-21)
(1.09509 -0.0382139 3.9558e-21)
(1.14914 -0.204959 0)
(0.970934 -0.443218 -5.20112e-21)
(1.0181 0.000192015 3.27114e-21)
(0.998883 -0.00617483 -7.0823e-21)
(1.04948 -0.0286792 2.20501e-22)
(0.994374 -0.0140488 0)
(0.294304 -0.00353013 0)
(1.00553 -0.0809425 1.05249e-21)
(0.401288 -0.438194 4.38822e-20)
(0.999949 -0.000941136 -3.59959e-21)
(1.26523 -0.22503 0)
(0.996624 -0.0198863 0)
(-0.00973982 -0.0192619 6.98607e-21)
(-0.342258 -0.00901103 -4.31556e-21)
(0.907691 -0.00207811 1.92482e-20)
(0.376814 0.0467582 8.51222e-20)
(0.928927 -0.171942 0)
(1.05043 -0.0281392 0)
(1.0992 0.0469485 -3.20646e-20)
(0.024599 0.0537003 0)
(0.907752 0.0882668 -1.42038e-19)
(1.0004 -0.000189927 -3.38582e-22)
(0.108756 -0.0304747 5.32229e-20)
(1.11342 0.01327 0)
(1.02251 -0.00710243 0)
(0.464816 -0.00376831 0)
(-0.154375 -0.0152558 -7.87311e-20)
(1.00195 -0.0170461 -3.12141e-21)
(0.296874 0.146532 0)
(-0.0115653 -0.00494919 4.53826e-20)
(0.999767 -0.00703832 -2.05716e-22)
(-0.304868 -0.00651117 -3.948e-21)
(1.05754 -0.329138 -1.1819e-20)
(1.03585 -0.00335976 1.5907e-20)
(0.770213 -0.0198113 3.31309e-21)
(0.474533 0.112765 -4.97949e-20)
(1.28109 -0.0585057 -2.25863e-20)
(1.10437 0.0513962 -1.66748e-20)
(0.174012 0.10317 6.29021e-20)
(0.070782 0.350762 2.24099e-20)
(1.26184 0.138355 8.01319e-20)
(1.20236 -0.0371238 4.28602e-20)
(1.02324 -0.00839441 4.59567e-21)
(-0.158426 -0.020048 -8.20984e-20)
(0.992211 -0.0179292 -4.87915e-21)
(0.995882 -0.0369137 0)
(0.343277 0.0672144 -1.20451e-19)
(1.0321 0.0486789 -4.61059e-20)
(0.999106 -0.062896 4.79593e-21)
(0.979106 -0.0428566 -3.4935e-21)
(1.11076 0.0152814 2.74299e-21)
(1.07367 -0.0127035 -9.54696e-21)
(0.971577 -0.0026317 1.43171e-20)
(1.01505 -0.0121383 3.21053e-21)
(1.01634 -0.00146955 0)
(1.02725 -0.232758 8.60236e-21)
(-0.125755 -0.00434556 0)
(1.00492 -0.00541764 1.437e-22)
(1.12343 0.0944381 2.33077e-20)
(0.999946 -0.000532291 -2.22821e-21)
(-0.258308 -0.00801834 -5.94204e-20)
(0.998924 -0.00600197 2.20982e-21)
(1.0031 -0.000280338 5.08085e-22)
(1.20003 0.234604 -3.54503e-20)
(0.586019 0.00549327 -6.18083e-20)
(0.975251 -0.243185 0)
(-0.0285572 0.0441063 0)
(1.00354 -0.00972626 0)
(1.00309 -0.00940658 6.25779e-22)
(-0.0216957 -0.0133502 -6.69036e-20)
(0.727118 -0.183009 -1.25144e-19)
(1.15156 -0.139512 2.72879e-20)
(1.04953 0.000835859 -1.44361e-20)
(0.60024 -0.341039 0)
(0.504426 -0.053206 1.2138e-19)
(1.0002 -0.00352921 1.21471e-21)
(0.99879 -0.00259366 7.98704e-24)
(1.00002 -0.00238149 -5.3204e-21)
(1.03579 -0.056192 1.6676e-21)
(0.166264 0.10457 -3.68659e-20)
(-0.00888054 -0.0101742 -1.80385e-20)
(0.994329 -0.0346805 2.57766e-21)
(1.00524 -0.057324 0)
(0.623873 0.134511 -1.12676e-21)
(-0.158239 -0.0189348 0)
(-0.274346 -0.0105337 -6.76045e-20)
(1.01949 -0.000199191 2.57314e-21)
(0.965641 -0.0455489 -3.59264e-21)
(0.612062 0.813011 2.16343e-21)
(0.996416 -0.0368256 -2.86692e-21)
(0.998606 -0.00186945 0)
(1.00081 -0.007087 0)
(1.01775 -0.00742635 -3.82849e-21)
(1.17636 -0.0686704 0)
(0.463638 -0.274378 1.13522e-19)
(0.695105 -0.747553 0)
(0.994293 -0.45334 1.89228e-20)
(1.00145 -0.0073925 2.97436e-21)
(1.26206 -0.0349431 4.04598e-20)
(1.0079 -0.0118916 -3.78644e-22)
(1.00003 -0.000371846 -8.45797e-23)
(0.0257215 -0.0108453 8.26486e-20)
(0.918499 -0.728305 2.05388e-20)
(1.02916 -0.226057 5.82539e-21)
(0.504145 0.177861 6.27327e-21)
(-0.0890521 0.0360744 -2.01835e-20)
(0.659914 0.0073118 1.04675e-19)
(-0.0294808 -0.00979443 4.77782e-21)
(1.24442 -0.111993 -4.43235e-20)
(0.0256114 -0.000295545 -1.33855e-19)
(-0.293184 -0.0112395 -6.90695e-20)
(1.10098 0.114729 2.46763e-20)
(-0.265982 -0.0125981 6.43582e-20)
(0.994943 -0.0169519 1.8858e-21)
(0.670457 0.0544309 0)
(1.04073 -0.0513769 6.79427e-21)
(1.05535 0.00773213 -2.30377e-20)
(0.640596 0.111257 9.91639e-22)
(1.20617 0.257862 0)
(0.98705 -0.062579 8.25472e-21)
(1.28821 -0.167196 0)
(0.883437 0.0316707 2.62135e-20)
(1.13227 0.0121741 -3.39365e-20)
(0.999837 -0.00112291 1.18782e-20)
(0.980624 -0.00947814 -1.00925e-22)
(0.896424 -0.676697 -7.54972e-21)
(-0.0239363 0.00353639 0)
(0.000660338 0.0500457 -1.09985e-19)
(1.02085 -0.00115775 2.46936e-21)
(1.28627 -0.160182 0)
(-0.103461 -0.0295146 2.88363e-23)
(0.960347 -0.00958369 0)
(1.05362 0.00411153 1.68879e-20)
(0.992777 -0.00496745 -2.97276e-21)
(0.920071 -0.0261808 -2.04568e-20)
(0.693863 -0.336461 -6.35916e-20)
(-0.166466 -0.0171852 1.71242e-19)
(1.00021 -0.000747836 -5.27439e-22)
(0.0680538 -0.0128528 0)
(0.998872 -0.00505867 0)
(0.201306 0.111467 -5.78545e-20)
(1.07245 -0.0612336 -1.02313e-20)
(1.01633 -0.0425686 -9.72409e-22)
(1.07409 -0.0774347 -1.47279e-20)
(-0.17792 -0.0168916 -1.30463e-19)
(1.03148 0.00128407 -3.25001e-21)
(1.00247 -0.00491043 0)
(-0.103572 -0.00375917 8.88225e-20)
(0.0254766 -0.00881498 1.54543e-20)
(1.16822 -0.199376 -6.71937e-20)
(0.728633 0.0486662 1.03625e-19)
(1.049 -0.000188137 1.52867e-20)
(1.00105 -0.00655188 0)
(0.999231 -0.00147302 -1.43871e-21)
(-0.00826582 -0.00843748 -6.09113e-21)
(0.718061 -0.259825 1.26536e-20)
(-0.0134412 -0.0552092 0)
(1.09769 -0.0711717 -2.50603e-20)
(0.672481 -0.762816 0)
(-0.0126799 -0.00623742 -3.76098e-20)
(1.11218 0.0423471 -4.28137e-20)
(-0.18809 -0.0105945 5.47274e-23)
(0.964596 -0.0443339 3.62139e-21)
(-0.237337 -0.010531 1.86546e-20)
(1.01766 -0.00636547 0)
(0.505611 -0.0224648 0)
(0.0630028 0.00545954 3.35605e-20)
(0.690838 -0.199922 1.29611e-19)
(1.0765 -0.00712841 2.01108e-20)
(0.160138 0.107601 0)
(-0.218913 -0.0120704 1.78465e-19)
(1.0023 -0.00589619 0)
(0.401701 -0.14184 -9.13143e-20)
(0.991014 -0.018869 3.9096e-22)
(1.00012 -0.00061531 -6.64476e-22)
(-0.276722 -0.0115475 -3.82763e-20)
(-0.075256 -0.0155767 0)
(0.999995 -0.00242348 6.38081e-21)
(0.999982 -0.00696325 0)
(1.01444 -0.00107099 -2.63523e-21)
(0.122879 -0.450439 -6.9512e-20)
(-0.00827892 0.0028461 7.61355e-20)
(1.00256 -0.00529179 0)
(1.28397 -0.00374448 -6.01143e-20)
(1.04085 -0.0740808 -1.07034e-20)
(1.04279 0.00459852 0)
(1.00342 -0.0090424 -4.44255e-22)
(1.18608 -0.123142 4.23061e-20)
(1.26601 -0.02867 -2.88284e-20)
(1.08159 -0.0413777 -2.4765e-20)
(0.482471 -0.124134 -4.60559e-20)
(1.0002 -0.00623636 -3.02075e-21)
(1.00743 -0.00460953 1.4461e-21)
(0.619468 0.228028 0)
(-0.33086 -0.00969671 0)
(1.28239 0.109439 -1.52024e-20)
(-0.301806 -0.0115233 -1.77319e-20)
(0.15869 -0.0813266 -6.49958e-20)
(0.96805 -0.00814968 -2.34908e-20)
(-0.102705 -0.029234 5.21553e-20)
(0.481454 -0.116353 -4.54356e-20)
(0.938319 -0.0425461 2.46484e-20)
(0.326541 -0.630499 -3.79427e-20)
(1.04791 -0.27655 0)
(1.0671 -0.0624899 0)
(1.08078 -0.170086 -1.31888e-20)
(0.0348888 0.0525219 0)
(0.902709 0.00822321 0)
(1.19646 -0.0383524 -4.18135e-20)
(1.03159 -0.0555436 1.36427e-21)
(1.09035 -0.0934421 -1.10703e-21)
(-0.115188 -0.0274576 -5.34937e-20)
(1.00234 -0.00558372 -8.10275e-22)
(0.416081 0.172153 9.13832e-20)
(1.179 -0.0749067 -1.82666e-20)
(0.892459 -0.238816 -2.74376e-20)
(0.953845 -0.177941 -1.43737e-20)
(1.02329 -0.008281 0)
(1.05154 0.00153004 -3.77195e-21)
(-0.0892813 0.0177871 3.83777e-20)
(1.00227 -0.00483771 -6.42996e-22)
(0.999039 -0.0052353 -2.31081e-21)
(1.21917 0.00621497 -5.3088e-20)
(1.02098 -0.00758493 -2.65513e-21)
(1.15868 -0.132149 -3.07366e-20)
(1.04317 0.00534908 -2.72722e-21)
(1.24095 0.0448762 1.93671e-20)
(0.976637 -0.0296501 5.89404e-21)
(1.10111 -0.0661695 -4.0913e-20)
(1.02418 -0.00516552 0)
(0.260966 -0.251407 -1.22591e-19)
(-0.294803 -0.0125357 0)
(0.0885133 0.499691 -1.64716e-19)
(1.03307 -0.0559543 0)
(-0.262142 -0.0119162 0)
(-0.0272688 -0.0113334 3.90017e-20)
(0.52472 -0.010824 0)
(1.03586 0.00123251 0)
(0.00629592 0.00469622 -6.95368e-20)
(0.963175 -0.00211049 2.42147e-20)
(-0.147953 0.203544 -9.6091e-22)
(0.99546 -0.00349418 0)
(0.654575 -0.0880117 -9.76233e-20)
(1.09789 -0.0347234 0)
(-0.0110196 -0.0144563 1.30193e-20)
(-0.326693 -0.00899944 -6.90754e-20)
(1.29569 -0.080597 -1.12204e-19)
(-0.137989 0.0210274 4.24826e-20)
(1.01958 0.000361144 -7.16036e-21)
(-0.302438 -0.00758015 0)
(1.0054 -0.000543228 0)
(0.90609 -0.067467 -1.00723e-20)
(0.941637 -0.0483251 0)
(0.988633 -0.010071 7.45452e-21)
(1.00233 -0.000600846 0)
(-0.249909 -0.00592357 -2.89661e-20)
(1.12493 0.0874794 2.20866e-20)
(1.04885 -0.0312511 9.6326e-21)
(0.107085 -0.0115347 6.45097e-20)
(0.131211 -0.070888 0)
(0.77072 -0.13238 -2.27104e-20)
(1.01967 0.00015078 4.27289e-21)
(0.944668 -0.0806465 2.26695e-20)
(1.00012 -0.00115744 0)
(1.01229 -0.0115286 1.3069e-21)
(1.01757 -0.00703019 0)
(0.993549 -0.0205648 3.19939e-21)
(0.455698 -0.288906 -1.04553e-19)
(1.07085 -0.0794395 1.08153e-20)
(0.530099 0.000430137 -1.23002e-19)
(-0.1947 -0.005703 4.78209e-20)
(-0.284892 -0.00706669 -3.8239e-20)
(-0.215106 -0.00697561 -1.1498e-19)
(0.755541 -0.442086 -4.24846e-21)
(0.905661 0.0103939 -1.15205e-20)
(0.998875 -0.00211602 4.13263e-21)
(0.994871 -0.0237827 -5.19267e-20)
(1.00853 -0.00913917 -7.4199e-22)
(-0.251953 -0.00423982 -1.27595e-19)
(-0.0402289 0.0403949 3.25405e-20)
(1.02182 -0.00733346 0)
(1.09408 -0.10778 -1.4091e-21)
(0.103767 0.0742527 0)
(0.0429704 0.0219683 -5.26616e-20)
(0.515908 0.183672 -6.06225e-20)
(1.10473 -0.0630423 1.1981e-20)
(0.910577 0.0152897 0)
(1.02083 -0.0176065 -3.69485e-21)
(0.0936404 0.0353299 3.33853e-20)
(-0.290336 -0.00730357 0)
(0.818583 0.00517817 4.24684e-20)
(1.04674 -0.256877 1.13846e-20)
(1.29922 -0.0605776 -1.23967e-19)
(-0.338277 -0.0100133 0)
(1.03406 -0.26428 -1.42062e-20)
(0.05341 -0.0140178 4.53207e-20)
(0.915846 -0.356971 1.21713e-21)
(0.782508 -0.451022 -2.12333e-20)
(1.00335 -0.00980166 6.02203e-22)
(-0.271741 -0.0132332 -8.27711e-20)
(1.1318 0.0984392 8.00068e-21)
(1.12402 0.0789993 -6.58138e-20)
(-0.121979 0.024296 0)
(1.01503 -0.0166859 -2.33455e-21)
(1.14041 0.135039 0)
(0.705474 -0.212353 0)
(1.01569 -0.0165726 2.7659e-21)
(1.23476 0.167224 3.89846e-20)
(0.863952 0.0815741 1.06923e-19)
(0.061283 -0.00478273 -4.49885e-21)
(0.0524571 -0.00261856 1.1404e-19)
(0.85782 0.0155534 -2.51371e-20)
(1.0971 -0.0561598 0)
(1.0021 -0.000734818 0)
(0.605195 -0.324442 0)
(1.04234 -0.591833 2.51524e-20)
(0.937417 -0.0851529 -6.96082e-21)
(-0.0237317 -0.00383485 -1.02723e-19)
(1.0025 -0.0228012 2.01911e-21)
(0.0264357 -0.00500998 7.1405e-20)
(-0.0160743 -0.00334733 0)
(1.08277 -0.00281838 2.52545e-21)
(0.978401 -0.0772346 0)
(0.999931 -0.00123996 0)
(0.870287 -0.125415 1.87295e-20)
(1.00013 -0.00153689 -5.94211e-22)
(0.24352 -0.0839017 9.55157e-20)
(1.17523 0.105085 0)
(0.0701639 0.00306903 1.83343e-19)
(1.01415 -0.0102795 1.45313e-21)
(1.01574 -0.0159682 0)
(1.02025 -0.0179415 -3.63987e-21)
(0.564444 -0.197257 -5.18322e-20)
(0.0753887 0.0276909 1.19265e-19)
(0.846138 0.0203675 -2.24333e-20)
(0.195621 -0.0853199 9.98561e-20)
(1.11485 0.0905587 0)
(1.15531 -0.0433398 9.38259e-20)
(0.995787 -0.00342688 0)
(1.00091 -0.000479182 8.76124e-24)
(1.24484 -0.300357 -4.47786e-20)
(0.998307 -0.065079 -2.09052e-21)
(1.2524 0.20997 0)
(0.0643868 -0.403491 0)
(0.78507 -0.224701 1.38225e-21)
(1.28825 -0.0544198 0)
(1.04051 -0.0311855 -2.66414e-21)
(-0.2445 -0.0105446 -1.4114e-20)
(0.399229 0.148307 6.59762e-21)
(0.59624 0.351037 -5.43273e-21)
(1.05908 0.00458382 -1.70069e-20)
(1.01158 -0.0014009 -2.66087e-23)
(1.05037 -0.0340926 -9.1237e-21)
(0.999308 -0.00420543 0)
(1.28749 0.0286946 1.1359e-19)
(0.986382 -0.0810756 0)
(1.0234 -0.0106707 1.05059e-20)
(1.2341 0.168688 0)
(0.950793 -0.0286462 1.5717e-20)
(-0.0113509 -0.0162251 -1.72147e-20)
(1.01013 -0.384849 -2.56504e-20)
(0.921787 -0.1722 -2.13332e-20)
(1.00606 -0.00607404 -7.08621e-22)
(0.0571019 0.0605475 -2.79605e-21)
(1.03213 -0.000328117 1.24368e-20)
(1.08436 -0.00608814 -1.0918e-22)
(0.069226 -0.000626735 -3.47831e-21)
(0.626482 -0.14238 0)
(1.00295 -0.00971559 0)
(0.998933 -0.424701 -2.40611e-21)
(0.0150019 0.0171534 -1.99179e-20)
(1.02931 -0.0143156 -6.24189e-21)
(1.00072 -0.00662921 0)
(0.996191 -0.0166264 0)
(0.758846 -0.123846 -3.14656e-20)
(-0.00995455 -0.0124974 -2.60965e-20)
(1.0025 -0.00526093 1.63402e-22)
(-0.119123 0.0116862 -9.21723e-20)
(1.00006 -0.00087868 0)
(-0.148564 -0.0222318 0)
(0.186845 -0.0573835 -1.33679e-19)
(-0.0126136 -0.0509893 0)
(-0.00484992 -0.0276065 -8.71517e-21)
(0.978331 -0.245138 0)
(1.09978 -0.0520417 2.03136e-20)
(0.352856 -0.105324 -5.88212e-20)
(1.00489 -0.000613153 -1.71466e-21)
(0.890859 0.051955 9.60321e-20)
(1.02879 -0.0149928 0)
(1.00954 -0.00404102 -3.48141e-22)
(1.02155 -0.00193628 0)
(1.03957 -0.0174971 -1.78953e-20)
(0.169383 0.0881632 -6.48973e-21)
(1.02499 -0.0231686 -2.59512e-21)
(1.00215 -0.0045085 6.12147e-22)
(1.01403 -0.0451991 -6.26078e-22)
(1.02373 -0.0103607 -3.96423e-21)
(0.932347 -0.580848 2.05297e-20)
(0.967495 -0.051195 8.47374e-22)
(-0.185813 -0.0159905 7.3474e-20)
(1.00357 -0.00906048 4.38231e-22)
(0.999436 -0.00390744 4.32399e-21)
(1.00246 -0.00597219 0)
(0.377372 0.146864 0)
(-0.32072 -0.013924 1.45583e-19)
(-0.386665 -0.136287 7.26476e-20)
(0.451483 -0.391137 -1.08488e-19)
(1.00924 -0.00359877 -4.24294e-22)
(-0.111692 0.031123 -7.72229e-20)
(-0.0876192 -0.0157273 -2.06276e-20)
(1.03565 -0.0534365 2.16162e-21)
(0.999874 -0.0135116 -3.91007e-21)
(-0.202104 0.00709367 0)
(-0.237149 -0.00727726 4.68766e-20)
(1.06324 -0.0641412 8.31639e-21)
(1.21409 0.0922588 3.0425e-20)
(0.569429 0.123441 6.18159e-20)
(1.03721 -0.238027 0)
(1.03646 0.000735539 -1.22514e-21)
(1.15501 0.0396359 4.01501e-21)
(1.08937 -0.0925512 2.69101e-21)
(1.15296 0.0387714 -3.25432e-21)
(0.0565838 0.0259287 9.57681e-21)
(0.0908038 -0.0446317 -4.75939e-20)
(1.02466 -0.00383488 -5.63672e-23)
(-0.269644 -0.00319557 2.45568e-22)
(1.01651 -0.0159227 -2.40381e-21)
(1.29711 -0.18352 0)
(1.12045 0.0808229 -4.11246e-21)
(1.14097 -0.121559 0)
(0.987811 -0.0105027 4.09906e-21)
(-0.298206 -0.0111646 0)
(-0.104747 0.0164366 5.56221e-20)
(0.988277 0.0726151 7.58485e-20)
(0.999063 -0.00141306 7.28934e-21)
(1.09009 0.0946783 3.40031e-20)
(1.02353 -0.00790911 0)
(-0.296182 -0.00736595 8.04234e-20)
(1.00217 -0.00552052 -1.13082e-21)
(1.09899 0.0415511 2.14778e-20)
(1.05369 -0.0220951 -1.12028e-20)
(1.00833 -0.0112931 -4.79819e-22)
(0.771973 -0.261706 -1.58071e-21)
(1.00449 -0.077857 -3.29647e-21)
(0.99751 -0.005007 8.7388e-21)
(0.259473 0.109202 1.7866e-19)
(1.00132 -0.00548891 1.05529e-21)
(0.0332011 0.00340698 -1.70174e-20)
(1.09716 -0.0411535 -4.03775e-20)
(1.13873 -0.444723 -6.87082e-20)
(0.998232 -0.0289884 7.66656e-21)
(1.24947 0.132607 -1.3919e-19)
(0.938243 -0.303966 0)
(0.994661 -0.0353795 -2.76248e-21)
(-0.148211 -0.0218167 0)
(1.28423 -0.150177 -7.75773e-20)
(0.503572 0.112812 -1.51424e-20)
(0.99894 -0.002297 0)
(0.920416 -0.0112937 0)
(1.24176 -0.103469 -1.8602e-20)
(0.392192 0.0114796 1.63959e-20)
(0.999687 -0.0139644 4.44741e-21)
(1.006 -0.053379 5.96663e-22)
(1.06439 0.00305358 1.31151e-20)
(0.366437 0.159742 -1.2413e-19)
(1.01956 -0.00274513 -6.43885e-21)
(1.20781 -0.00720252 4.49423e-20)
(1.28678 0.026962 7.30358e-20)
(0.968586 -0.0522499 3.26413e-21)
(1.01953 -0.000739404 0)
(1.00076 -0.00038059 2.08801e-23)
(1.0066 -0.00687122 -4.64627e-23)
(1.11487 -0.152275 3.25789e-20)
(1.02159 -0.00761372 5.53947e-21)
(0.91996 -0.546146 -1.23404e-20)
(1.12071 -0.0325834 -1.06111e-23)
(1.0242 -0.00377932 -5.04064e-23)
(1.02173 -0.075244 7.60653e-21)
(-0.250882 -0.0114219 0)
(1.00451 -0.0176685 0)
(1.06724 -0.0456311 -1.61725e-20)
(1.01152 -0.0110676 -8.87501e-22)
(1.00196 -0.00573216 1.05267e-21)
(1.17356 -0.0831738 -6.52067e-20)
(1.24078 0.141723 5.92471e-20)
(0.0600861 -0.475789 6.94198e-20)
(1.19048 0.227046 -5.82261e-20)
(1.05994 -0.00662985 -1.07398e-20)
(1.04189 -0.0304892 8.01847e-21)
(-0.189742 -0.0155662 1.49337e-19)
(0.126119 -0.0958381 8.91443e-20)
(0.588637 -0.00400752 1.61667e-19)
(-0.278044 -0.0128745 0)
(0.696114 -0.25323 -1.32634e-19)
(1.28309 0.108736 -8.8493e-21)
(1.00345 -0.00847557 0)
(1.08995 -0.104682 -1.93298e-20)
(-0.202814 -0.0140186 0)
(-0.28376 -0.0118234 0)
(-0.139833 -0.014988 -4.51502e-20)
(1.0012 -0.00514342 -1.48228e-21)
(0.940868 -0.316778 7.03246e-21)
(1.04067 -0.231603 0)
(-0.263188 -0.00268911 1.52782e-19)
(-0.193952 -0.00665422 5.00138e-20)
(0.997635 -0.00963442 -3.0134e-21)
(0.665238 0.133591 0)
(0.91725 -0.0137731 -2.01875e-20)
(0.117565 0.198546 6.00714e-22)
(-0.231238 -0.0114558 0)
(0.166339 0.519937 2.18349e-19)
(1.01324 -0.00977185 1.31036e-21)
(1.29627 -0.0903318 2.49389e-20)
(1.00002 -0.000195509 5.8497e-24)
(1.0358 0.0022957 0)
(-0.000830862 -0.00359947 9.92852e-20)
(0.999998 -2.67054e-05 0)