/*--------------------------------*- C++ -*----------------------------------*\
| =========                 |                                                 |
| \\      /  F ield         | OpenFOAM: The Open Source CFD Toolbox           |
|  \\    /   O peration     | Version:  v2012                                 |
|   \\  /    A nd           | Website:  www.openfoam.com                      |
|    \\/     M anipulation  |                                                 |
\*---------------------------------------------------------------------------*/
FoamFile
{
    version     2.0;
    format      ascii;
    class       surfaceScalarField;
    location    "150";
    object      ddtCorrDdt0(phi);
}
// * * * * * * * * * * * * * * * * * * * * * * * * * * * * * * * * * * * * * //

dimensions      [0 3 -2 0 0 0 0];
oriented        oriented;


internalField   nonuniform List<scalar> 
27506
(
0.00214746
0.00210969
-0.00425713
-2.90576e-05
-2.43593e-06
3.1483e-05
0.000166413
-7.22413e-05
-9.4164e-05
0.00192551
-0.00133343
-0.000592008
2.95656e-05
-0.00052562
0.000496059
-0.000393815
-0.000499956
0.000893759
0.000346846
-0.000317284
4.51512e-05
0.000499413
-0.000544578
-0.000299073
0.000761289
-0.000462145
-0.00013945
-0.000174176
0.000313567
0.000926576
-0.00027444
-0.000652108
0.0002201
-0.00010097
-0.000119132
-0.000136789
-0.00125286
0.00138965
0.000143426
7.70952e-06
-0.000151125
-0.00435909
0.00291627
0.00144284
0.00294208
-0.00116479
-0.00177728
0.00119939
-0.00388541
0.00268598
-0.00149556
-0.000420402
0.00191595
-0.000376093
6.84752e-05
0.000307594
0.000482462
-0.00139784
0.00091542
-0.000499562
0.00223431
-0.00173474
-0.000984193
-0.000417086
0.00140124
0.000100101
-8.20692e-05
-1.80406e-05
0.000441176
-0.00726923
0.00682808
-0.000340617
0.000385786
-0.00114861
0.00277163
-0.00162309
0.00102298
0.00112749
-0.00215047
0.00294844
-0.0016819
-0.00126647
0.00104748
-0.00090655
-0.000140935
0.00433446
-0.002868
-0.00146636
-3.9495e-05
1.04474e-05
8.88395e-05
-3.59612e-05
-5.2933e-05
0.00134718
0.00189568
-0.00324286
0.00417521
-0.000843119
-0.00333205
0.000503434
-0.000467837
-3.56177e-05
0.00162252
0.000303011
-0.000402881
-0.000581346
-1.9533e-05
6.37388e-05
-4.41965e-05
7.34531e-05
1.22306e-05
-8.56709e-05
-0.000109961
-0.00657966
0.00668962
0.000107067
-7.14818e-05
-3.55617e-05
-0.000126872
0.000195131
-6.82727e-05
-0.000480934
5.61624e-05
0.000424635
-0.00250892
0.00262115
-0.000112221
0.00139762
0.00155087
0.000201121
-0.00134972
0.00502995
-0.00280634
-0.0022237
0.000115358
5.10463e-05
0.000898728
-0.00139827
0.00110159
-0.00108899
-1.25905e-05
-8.60743e-06
0.000152013
0.000350905
-0.000378791
2.79442e-05
-0.000110593
0.000593057
1.81397e-05
1.52192e-05
-3.33445e-05
-0.00209201
0.0014404
0.000651551
0.0012388
-0.00120939
-2.94048e-05
0.000840032
-0.000976821
0.00040596
4.35668e-05
-0.000449497
-0.00145482
0.00255969
-0.00110483
-0.000124018
0.000936914
-0.000740797
-0.000196112
0.000799299
-0.000640314
-0.000158983
-0.00267012
-0.00254734
0.00521749
-0.00350537
-0.00455192
0.00805728
0.0014575
0.00240148
-0.00385897
-3.62516e-06
-0.000164556
0.000168179
0.000757918
0.000348011
-0.00110595
-7.62093e-05
3.67721e-05
3.94402e-05
0.00217251
-0.00220999
3.74383e-05
-8.25495e-06
-5.87808e-05
6.70375e-05
2.97235e-05
0.000269681
0.00121983
-0.00148952
-0.00174576
0.00303227
-0.00128643
-0.000178358
0.000584315
0.00250745
0.000239938
-0.0027474
0.00525766
0.00110354
-0.00636119
0.000585401
0.000613971
5.95557e-05
-6.51309e-05
5.5798e-06
0.000290087
-0.00178561
0.00101545
-0.0031016
0.00208615
-0.000242001
-0.00116262
0.00140463
0.000127172
0.00617221
-0.00629943
-4.67891e-05
-3.76266e-05
8.44184e-05
0.00373648
0.00361727
-0.00735371
0.000896534
4.03611e-05
-0.00221716
0.00056779
0.00164937
-0.000310355
-5.57806e-05
0.000366167
0.000134956
-0.000102981
-3.19823e-05
0.00166571
-0.00134698
-0.000318718
-0.00177791
-0.000439251
0.00259096
0.00130732
-0.00389818
-0.000295772
0.000211637
8.41675e-05
0.00438624
-0.00201929
-0.00236687
-4.74142e-05
3.47374e-05
1.26755e-05
-0.000496677
0.00021261
0.000284066
-0.000315177
0.000175688
-0.000206507
0.000247345
-4.08573e-05
-1.95022e-05
-0.000786427
0.000805947
0.00311882
0.00125461
-0.00437342
0.000438156
-1.96413e-05
-0.000418526
-0.000172706
8.08892e-05
9.18096e-05
5.28307e-05
-5.62307e-05
3.39492e-06
-0.000998206
0.00201354
0.00108647
0.00185561
-0.000300643
0.00136936
-0.0010687
0.00024886
0.00109841
-8.88502e-05
-8.38542e-05
0.0001133
0.000154387
-0.000267641
-0.00014181
-0.00252828
0.00110151
-0.000515036
-0.000586495
-0.000369329
0.000369381
-0.000743915
0.00621063
-0.00546665
7.19136e-07
5.88393e-05
-0.00102394
0.000552249
0.000471762
-0.00264913
0.0014938
0.00115528
0.00164484
-0.00353726
0.00189241
0.00102107
-0.00238977
0.0013687
0.00121357
-0.00123309
0.000585245
-8.18477e-05
-0.000356393
-3.74311e-05
4.35089e-05
-0.000419576
-0.00629408
0.00174638
0.00454769
-0.000778569
0.0019006
-0.00112199
-0.000526955
-0.00294078
0.00346783
3.3548e-05
-8.01626e-05
4.66065e-05
0.000459947
0.000587522
0.00149083
-0.0015116
2.07192e-05
-0.000335952
-0.000512745
0.000848701
-0.000489051
7.93032e-06
0.00285527
0.00240237
-0.00283322
0.000814748
0.00201835
-0.000519518
0.00216433
-0.000184254
0.00269176
-0.00180504
0.00227382
-0.000468765
0.000144394
-2.90251e-05
5.3009e-05
-4.33135e-05
-9.69114e-06
0.000177047
0.000749516
-0.00168358
-0.000154857
0.00183844
-0.000485224
0.00021277
0.000272427
-0.000185462
0.000181834
-0.00185046
0.00330796
-0.00194096
-0.000339454
0.00228047
-0.000909343
-0.00105577
0.00196511
0.000342135
-0.000216001
6.55856e-05
0.000150418
-0.000103628
-1.95283e-05
0.000123155
-0.000261963
0.00175279
0.000189543
-0.00199458
-0.00111109
-0.000572533
-0.00378018
-0.00251394
6.83832e-05
-8.11257e-05
1.27381e-05
-0.000252724
-0.000194245
0.000446927
0.000128487
-0.000164364
3.58692e-05
0.00178867
0.000404689
-0.00219334
-0.00106014
-0.0011197
0.00217981
-0.000135579
-0.000163396
0.00392291
-0.00379581
-0.000139875
-7.61251e-05
7.99635e-05
0.000105153
-0.000185141
-9.20209e-05
0.000205236
0.00225555
-0.00141344
-0.000842085
-0.00119896
0.00111621
8.27406e-05
-7.08489e-06
0.00017661
-0.000169504
0.000110901
3.34829e-05
0.00042799
-0.000359368
-2.65445e-05
0.000246649
-0.00202189
0.00268426
-0.000662381
-0.00134649
0.00101053
-0.00191431
-0.00244476
-1.96177e-05
-0.000335183
0.000354816
0.000105296
2.96824e-05
0.000273155
-0.000482853
0.000209707
0.000863052
-0.000955121
9.21172e-05
0.000146224
0.00151949
-4.32617e-05
0.000739224
-0.000695981
-0.000394787
-0.00316616
0.00356096
0.000704953
9.43448e-05
0.00204009
-0.00281945
0.000779404
-0.00411632
0.00305619
-0.00246368
0.00368407
-0.00122027
-0.00110569
-0.00163954
0.00274524
0.000224005
-0.0012063
0.000982301
-0.00125998
6.10086e-05
-0.000899775
0.000604003
0.000711563
-0.00165948
0.000947901
-0.00450657
0.000315461
0.0041911
1.85003e-05
-0.000245695
0.000227132
0.00057136
0.000216779
-0.000788154
0.00137438
-0.00141735
4.29625e-05
0.00141395
-0.00039291
-0.000212722
0.000485873
-0.000293252
5.1234e-05
0.00206054
-0.00117959
-0.000880988
6.70271e-05
-3.34893e-05
-0.000457309
0.000146307
0.000311028
3.21925e-05
4.77844e-05
-0.00120807
-0.000282684
0.00149069
-0.00275199
0.00218141
0.000570566
-0.00132989
0.00506637
0.000919101
0.00161359
-0.00253269
-0.00274415
0.000909852
0.00183427
-0.00256131
0.000197538
0.00236378
-0.00207361
0.00130716
0.000766448
0.000798714
0.000302873
0.00188269
-0.00288706
0.00100437
-0.00521735
0.00447347
9.27281e-05
0.00011851
-0.000211204
0.000772435
0.000850129
-0.0019617
-0.000830901
0.00279261
-0.000485389
0.000307458
0.000177936
3.36397e-05
5.51771e-05
-0.000866491
0.000975898
-0.000109432
0.00251253
-0.000472415
7.6395e-05
-0.000151675
7.53389e-05
0.00284377
0.00154252
0.00105289
0.00126615
-0.00231906
-0.00353132
0.00300442
0.01203
-0.0110265
-0.00100352
-0.00674659
0.00718775
0.000870034
-0.000888728
1.8703e-05
-1.33026e-07
-0.000866365
0.000335868
0.000200475
-0.000536479
-0.00537121
0.00191786
0.00345336
0.000500052
-0.00083815
0.000338083
0.000261087
0.00476887
0.000427934
0.000212895
0.00132487
-0.00153775
-0.000201628
-0.000283763
0.00147049
0.000701993
0.00200142
-0.00157284
-0.000428602
-0.000344881
0.000138381
0.0003323
-0.0011481
0.000815805
-0.00269964
0.000953881
0.000189333
5.79987e-05
-0.000215615
0.000208552
-0.000313136
0.000581773
-0.000268641
-1.83996e-05
-6.77681e-05
8.61875e-05
-0.000612196
0.00135373
-0.000741511
0.00163192
0.000623657
0.0014839
-0.0035575
0.000260867
-0.00112896
0.000867995
-0.00490783
0.0089817
-0.00407389
-0.00390823
0.00158787
0.00232025
7.16671e-05
0.000141223
0.00242297
-0.000540283
0.00218615
-0.000288085
-0.00189807
5.76217e-05
4.94229e-05
-3.3148e-05
0.000115632
-8.24737e-05
-0.00039591
0.000259928
0.000136035
-0.000341812
-6.59525e-05
0.000407702
0.00344914
0.00168656
-0.00513574
-0.00272145
0.000759744
0.000135315
-0.000344682
0.000209354
-7.08419e-05
-0.000181893
0.000558579
0.000152994
0.00662612
-0.0101315
0.00114301
-0.00104328
-9.97496e-05
0.00148688
-0.000200556
-0.00128622
6.65199e-05
-9.30851e-05
-0.00822248
-0.00230773
0.0105302
-0.000135818
0.00676193
-5.04792e-05
-0.00237696
0.00242745
0.000161541
-0.000240474
7.89594e-05
0.00512389
0.00128578
-0.000337317
0.000134088
0.000203261
0.00064016
-0.00103605
0.000503791
0.00143876
-0.00194259
-8.54892e-06
0.00190702
-0.00189848
-6.63133e-05
0.000196732
-0.000120346
-0.000166884
0.000195804
-2.8917e-05
-0.000754863
-0.00375171
0.000425159
-0.00422072
0.00379545
-0.000587984
0.00038809
0.000199887
-0.00255333
0.00136046
0.00119287
0.00362713
-0.000793737
-0.0028334
0.000178261
-4.97613e-05
-0.000122684
-0.000974571
0.00109727
-0.00429785
0.00688874
-0.000220638
-0.000240138
0.000460783
0.000393741
-0.000432436
3.85977e-05
0.00115226
-0.00306655
0.000669586
-0.00041169
-0.000257909
7.00297e-06
-2.54196e-05
-0.00506524
0.00336033
0.00170499
3.73843e-05
-4.56395e-05
0.00231938
0.000581731
-0.00290101
0.000647626
0.00135382
0.00048832
-0.00202938
0.00154112
-0.00311461
0.0016971
0.0014176
-0.000860471
0.00190647
-0.00103642
0.00298331
-0.0018732
-0.00111011
-5.43609e-05
1.67358e-05
0.00399703
-0.005073
0.00107597
-0.00118245
-5.70134e-05
0.00123944
-0.00117588
-0.00157609
-0.00254302
-0.00313385
0.0052315
-0.00209768
-0.000371589
-8.57498e-05
0.000233739
-0.000414147
0.000180406
0.00300591
-0.00159311
-0.00141282
0.00424725
0.00695722
-0.0112045
-0.000769819
0.00141479
-0.000644982
0.00325755
-0.00274139
-0.000516114
-1.67977e-05
-0.000108439
0.000125225
-0.000502483
0.000763344
7.83003e-05
-9.91656e-06
-0.000882796
0.00236964
5.81547e-05
-2.4568e-05
0.0118297
-0.0126639
0.000834205
4.34626e-05
8.60056e-05
-0.000129471
0.00267823
0.000948886
-0.00147004
-0.00245698
-0.000641362
0.00309834
-0.00402979
0.00585327
-0.00182336
0.00343646
-0.000520191
-6.08558e-05
8.23476e-05
-2.15188e-05
-0.000798162
-0.00457305
0.000335902
-0.000164321
-0.000171647
-0.0002741
-0.0014386
0.00171263
-0.00582083
-0.0047851
0.0106059
-0.000425072
8.32392e-05
-0.00207917
0.000624375
-0.00101484
-0.000417264
0.00143209
-0.000206825
-3.09819e-06
0.000209922
4.85379e-05
0.00114728
-0.00119586
0.00156555
-0.00258948
0.000149172
-5.01278e-05
-9.90136e-05
0.000154618
-4.64905e-05
-0.000108106
-0.000136773
0.000677377
-0.0026183
0.00164969
0.000860014
-0.00250967
0.00129112
-0.00190331
-0.000882795
-0.0019505
0.00267318
0.000182099
0.000148503
-0.000168113
-0.000187709
0.00010885
7.88939e-05
0.00102947
-0.00246938
0.00143992
-0.00117448
0.000404701
0.000143485
0.000909409
-0.00189999
0.000990624
-0.000443015
0.000608808
-0.0001658
-0.00203677
0.00279461
-0.00260419
9.11765e-05
0.00251309
-0.00379912
-0.000536244
0.00433538
7.28986e-05
-0.000293547
-0.000678847
0.00101474
-0.000130393
0.000107301
2.31006e-05
-0.0200822
0.0131274
0.00695493
-0.0014973
-0.00476941
0.00626694
8.20243e-05
-0.000132968
5.09496e-05
0.00531732
-0.00132035
0.000270872
1.20438e-05
-0.00028292
-0.000342016
0.000317102
2.48578e-05
0.000513916
0.00256835
-0.00308222
-9.29661e-05
0.000167032
-7.40982e-05
-2.71656e-05
-0.000137196
0.000415963
-0.000355701
-6.02649e-05
0.00392906
-0.0121515
-0.00194495
0.000762521
0.000111391
-4.76248e-07
-7.31222e-05
5.63361e-05
-0.000826494
-0.000279227
0.00245797
-0.000964223
0.00176523
-0.00143266
-0.000332613
-0.00016466
3.81517e-05
-9.22554e-05
-3.45825e-05
-0.000298428
-3.67448e-05
6.37885e-05
-6.97489e-05
5.94662e-06
0.00138063
0.000475075
-0.00185569
3.98537e-05
-0.000111372
7.15198e-05
-0.000570123
0.00012075
0.000449321
3.21533e-05
-0.000368038
0.000335873
-0.000105705
-0.00681314
0.0110604
-9.59681e-06
0.00867049
-0.0137902
0.00511972
0.000115943
0.000553644
-0.0115071
-0.00100208
0.0125091
-0.00247891
0.00365513
-0.00117619
7.14321e-05
6.87242e-06
0.000202127
0.00324699
0.00255505
-0.00222276
0.00214144
-0.000155837
-0.00198561
0.000105519
-0.000125051
-0.000471612
-0.000305864
0.000777343
0.00270527
0.00162922
3.70178e-05
-2.73635e-05
-9.64904e-06
-0.00378652
-0.00180593
0.00559238
-0.0030174
7.85039e-06
6.35794e-05
-0.00042134
0.000482294
-6.09493e-05
0.00181946
0.00118636
0.0013445
3.6142e-05
-3.56069e-05
-5.71814e-05
9.27804e-05
-0.00133959
0.00180165
-0.000462077
-0.00101277
0.00178525
1.82006e-05
1.88195e-05
-0.00343825
0.00575768
-0.000542478
0.000211817
0.000330538
-0.000115105
-0.00190678
-9.85529e-05
-3.18321e-05
0.000319491
-0.000350639
3.10828e-05
0.000399904
-0.000199926
-0.000199999
0.000209408
-0.000215266
5.85529e-06
0.00821712
-0.00771779
-0.000499318
0.000598521
-0.00137709
-0.000387919
0.000165383
0.000222561
0.00397213
-0.000941448
-0.00303067
-0.0125652
0.00105804
0.000310507
-0.000175165
0.000967783
0.000117141
-5.76663e-06
-0.000239684
0.000639582
0.000345523
0.000229428
-0.000574924
0.000249351
-0.000140518
-0.00137215
0.000162752
-0.00446103
0.000552792
0.00131229
0.000337348
-0.00351937
-0.0134329
0.0169523
0.00454895
-1.63721e-05
-0.000365929
0.000716865
-2.07434e-05
5.87958e-05
-3.80445e-05
0.00149544
-0.00166584
0.00017045
-6.37168e-05
4.29793e-05
-0.00175821
-0.0105472
0.0123055
0.000755995
-0.000191861
-0.000564144
0.00307699
-0.00166303
5.96415e-05
9.49813e-05
0.0021421
-0.00259645
0.00045433
-0.000138763
0.00202897
-0.00189022
0.00165427
-0.00166282
-0.00102341
0.00139191
-0.000368535
0.00311893
-7.22178e-06
0.000107333
-6.00279e-05
-2.14905e-05
8.15155e-05
-0.00332662
0.000236197
-0.000177102
-5.91106e-05
-0.00123441
0.000762759
0.000352471
0.000749054
0.000301607
0.000198421
0.000421646
-0.00102116
0.000599505
-0.000150329
-2.3931e-05
0.000174198
-0.000203567
0.000116576
8.69952e-05
-0.000313602
0.000154126
0.000159504
0.000679306
-0.000257663
1.47425e-05
5.1764e-05
1.88816e-05
-1.87972e-05
-8.96604e-08
-0.00292333
-0.000119458
0.00304274
0.000205028
-0.0015446
8.6665e-06
4.43279e-05
1.51535e-05
6.66541e-05
-8.18256e-05
-0.00027454
5.38622e-05
0.000220694
-0.00049847
5.57822e-05
-0.000682643
-0.00077018
0.00145284
-0.000158953
0.000400661
-0.00035553
-4.51481e-05
0.00102298
0.000585165
-0.0004717
-0.00011345
0.000299026
-0.000342257
-0.00118733
0.00123585
-0.000275119
-9.47343e-05
0.000139762
-4.5015e-05
-0.000161255
0.00300507
0.00276026
-0.00315503
-0.000921479
0.000364124
0.000557352
0.00267398
-0.00130949
-0.00136447
-0.000274916
-0.0022784
0.00589866
-0.0259808
0.00122081
0.00025866
-6.11138e-06
-0.000252551
2.5218e-05
4.02923e-06
-2.92926e-05
-0.0059169
0.00211779
4.89955e-05
5.16487e-05
-0.000100626
0.00257105
-0.000428927
5.26069e-05
2.27954e-07
-0.002149
0.00468649
-0.0025375
-2.31998e-05
-2.42153e-05
-0.000624947
0.000502247
6.37708e-05
-2.19367e-06
-6.1597e-05
0.00214073
-0.00163697
-0.000488246
0.000312826
0.000175405
1.50133e-05
-0.000936496
0.000736617
-0.000151352
0.00178457
-0.00196883
0.000182111
0.000153776
0.000214232
-0.000189524
-2.47073e-05
-9.28235e-05
-0.000495158
-2.2888e-05
0.000604635
0.00170364
-0.00167
-3.35866e-05
0.00203101
-0.00214097
0.00112474
-0.0013346
0.000209863
-0.0069641
0.000594449
0.00636971
-0.00201479
-0.000389419
0.00240425
0.00161404
-4.84906e-05
0.0022794
-0.00232992
0.00247148
-0.00159975
-0.000871771
-0.000152253
0.000329313
-0.000711981
-0.00520495
0.00588992
-0.00331975
-0.00257013
-0.000116746
0.00930684
0.00272315
1.425e-05
2.94462e-05
-4.37157e-05
-0.00142652
-0.001622
0.000124766
-0.00029013
4.14633e-05
0.000248662
-0.000153378
-0.0081023
0.00825568
0.00234671
-0.00264251
0.000295829
-7.95853e-05
0.000313309
-0.00027922
-0.000219209
8.47684e-05
0.000110377
0.00136524
0.00260689
0.000752402
-0.00280043
0.00204802
-0.000461009
0.000493109
0.000430133
-0.000350047
-8.00771e-05
6.30898e-05
-5.0371e-05
-1.27269e-05
0.00229516
-0.00542472
0.00312956
-2.72433e-05
-4.8967e-05
0.00015544
0.000269757
-9.94794e-05
-2.01812e-05
0.000119675
0.00266862
4.55966e-06
-0.00421587
0.00108203
0.000617111
0.00116742
-3.5805e-05
8.48025e-05
-0.000153434
5.97838e-05
9.36481e-05
0.00172814
-0.00123979
1.38884e-05
4.92013e-05
-0.000343978
3.36158e-05
0.00278882
-0.00241605
-0.000372825
-0.000987771
-0.00391999
0.00461777
-0.00163449
-0.000110205
-5.64462e-06
3.42037e-05
-2.8535e-05
0.000142893
-9.94277e-05
-0.00162543
0.00160933
1.60878e-05
-0.00211262
-0.000350968
-6.71148e-05
0.000150291
-8.31803e-05
-3.79395e-05
-0.000254553
0.000292478
-0.000206062
8.08705e-05
0.000125175
-9.37009e-05
0.00062542
-0.000531755
0.00124592
-0.00181606
-0.000492336
-0.00101315
0.00150553
-0.00064493
-5.26822e-05
-0.000114143
7.83458e-05
-2.59318e-05
0.000284607
-0.000392126
-0.00123329
4.14198e-05
0.00039778
-0.000439271
-0.000327983
-4.99564e-05
0.000377941
0.000374365
-8.59003e-06
-0.000365798
0.00010612
1.10247e-05
-0.00134584
-0.00176879
-0.000599597
0.00250662
6.65259e-05
-2.74653e-06
-0.00149951
0.000127721
0.00137174
0.00149809
-0.00403128
0.00155235
0.00116149
-0.000636523
-0.000524959
4.77996e-05
-4.99506e-06
-4.28116e-05
-0.00026626
-7.86124e-05
0.00298176
-0.00136772
-4.2662e-05
-1.71362e-05
5.98064e-05
0.000773154
-0.00039884
-8.45623e-06
0.000354464
-0.000346
0.00152193
-0.000658073
-0.000863847
8.88612e-05
1.72624e-05
-0.00367064
0.00956041
0.000409945
0.00132639
-0.00110239
-2.33274e-05
-5.84802e-05
8.18076e-05
-0.000201349
0.0117292
-0.00340116
-0.00832807
-0.000187687
-0.000102441
0.00180664
-0.00532592
-8.85899e-05
0.000113778
-0.000174881
4.70826e-05
0.000127802
0.00147135
-3.99447e-06
-0.00027054
6.28103e-05
-0.000201363
0.000138567
0.00149669
-0.000725502
-0.000771157
-8.62436e-05
-6.54602e-05
0.00272877
6.00086e-05
0.0141786
-0.00105632
-0.0131223
0.00116688
-0.00221496
0.0010481
-0.00065335
0.000368612
0.000284752
0.000110917
0.000165804
-0.000276708
0.000181065
3.31326e-05
0.000491649
9.35159e-05
-0.000477415
0.00162044
-0.000982476
-0.000106516
-7.54539e-05
1.22268e-05
6.32041e-05
-1.32609e-05
-8.61553e-05
-0.000293786
-0.000194481
0.000274866
-0.000140118
-0.000134786
-0.000132056
7.12188e-05
-9.56628e-05
0.000171097
-7.54234e-05
-0.00132123
-0.000118925
0.00144009
0.000239309
-0.000332872
9.35692e-05
5.94768e-05
1.39827e-05
0.000692925
0.00462439
-8.74822e-05
-0.00202538
0.00211296
0.000251578
-0.000158709
-9.2858e-05
-0.000174364
0.00272384
-0.00254943
0.000180574
-0.000272537
0.00271854
-0.000577099
-0.00210376
0.00194252
0.000359142
-3.96784e-05
-1.72972e-05
6.58641e-05
-4.8654e-05
0.00165358
-0.00174102
-0.00101778
2.18391e-05
0.000995935
0.00528819
-0.00299304
8.35486e-05
9.68885e-05
-8.09473e-05
-0.00124026
0.00042516
-9.22284e-06
-0.00154636
0.00312072
-0.00157436
-0.000434962
7.92684e-05
-9.04734e-05
0.000130469
-3.99779e-05
-0.00392399
-0.00662708
0.0105511
0.000243372
4.48132e-07
-0.000243818
-0.00265524
0.00264123
1.39864e-05
0.000914436
-0.000692779
-0.000221634
-5.22621e-05
4.82868e-06
4.74229e-05
0.00234617
-0.00117929
-0.00184458
0.00827181
-0.00642718
-0.00189498
-0.00506908
0.00184583
0.000966625
-0.00281248
0.000625702
-2.75523e-05
-0.00059814
0.000165692
-0.00129463
0.000304804
0.00122382
-0.00152866
-0.000649301
0.000593205
5.60868e-05
0.000916021
-0.0083651
0.00744914
-0.000173456
0.000204166
-3.07455e-05
0.00091001
0.00127609
3.2122e-05
-1.39715e-05
-4.23041e-05
0.000185201
0.000187216
-0.000107907
-7.93217e-05
0.00187243
-0.00148088
-0.000391519
-6.21588e-05
-5.19788e-05
-0.00111927
-0.00266561
1.03428e-05
0.000569776
0.00176762
-0.00233739
-6.62691e-05
-0.000418963
-0.0017822
-0.000551687
9.11413e-06
0.000323799
-6.54546e-05
-0.000227777
-0.00369688
0.00160486
-3.95669e-05
-3.63231e-05
7.58632e-05
0.00123968
-0.00139195
-0.000727778
-0.00235959
0.00308732
-6.89122e-06
-5.95963e-05
6.64996e-05
4.78716e-05
4.66162e-05
-9.4569e-05
-7.17375e-05
-0.000103144
0.000661254
-0.00039158
-0.00231938
0.000106562
0.000145014
-0.000557911
0.00104806
-0.000152958
-0.00237135
0.0019539
0.000417449
-0.000108315
0.000101407
0.00129601
-0.00465288
0.00335691
0.00769162
-0.0126568
0.0049652
-0.000408045
-8.8626e-05
0.000214378
-0.000392695
-0.000525194
3.2879e-05
-1.8969e-05
-0.00029462
0.0118708
-0.0123835
0.000512669
0.00582445
0.00239268
0.000200503
-0.000173816
-2.664e-05
0.000910175
-0.000957955
4.7789e-05
-0.00790388
0.00387409
-0.000408887
0.00753664
-0.00712772
-0.00569882
0.00554546
0.00396297
-0.00283547
0.000387655
-0.000369189
0.00248393
-0.00145445
-0.00179369
-0.00279511
0.00458883
0.000225027
-0.000289209
6.41899e-05
0.000413591
-0.000157702
-0.000255854
-0.000379342
0.00020517
0.000163081
-0.00010026
0.00283464
-0.0123339
0.00949928
-0.000402486
0.000313253
8.92312e-05
8.83267e-05
0.000774739
-0.000902539
0.000253246
0.0034067
-0.00208837
-0.00131836
-0.00147702
-0.00221989
9.54283e-05
-0.00019398
0.000171574
1.56623e-05
-3.22345e-05
-2.00303e-05
-0.000210216
0.00227068
-0.00232833
0.00057021
-0.00021985
0.000434207
-6.01666e-05
0.000483107
-0.000422971
0.000929292
0.00059265
-4.84102e-05
2.56035e-05
2.27965e-05
-0.000813085
0.00453024
-0.00371711
-9.69387e-05
0.00019237
-2.08187e-05
-0.000146104
0.00198051
-0.000951268
-0.00102925
-4.61854e-05
5.84274e-05
0.000146492
0.000409623
-0.000329758
-7.98572e-05
-9.69271e-05
3.68973e-05
-2.87987e-05
-4.14768e-05
7.02779e-05
-0.00238445
0.00194517
0.000439294
0.000232916
0.000503704
-0.000135771
0.000332636
-0.000196799
0.00116256
0.0014807
-0.0026433
5.14523e-05
-4.77432e-05
-3.7205e-06
-0.000140102
9.7805e-05
-0.00392135
0.00108753
-0.00263389
0.00293783
-0.007215
0.00427719
-0.000280775
0.000338098
-5.73749e-05
-0.0001626
7.63572e-05
0.000626089
-0.000104758
-0.000521349
4.20031e-05
-4.96084e-05
7.60962e-06
0.00256422
0.00751942
-0.0100837
0.000470254
0.0020012
0.00158634
-0.000346668
-1.07169e-05
6.01912e-07
1.01202e-05
-4.49947e-05
0.000150316
-3.48233e-05
0.00353438
-0.00349959
0.0013824
-0.000160626
-0.00122177
-0.000182192
-0.000117353
0.000299559
-1.79266e-05
6.26087e-07
-6.25076e-05
0.000182363
-0.000119822
0.000569573
-0.000604407
0.00428459
0.00744465
-3.14854e-05
-0.000263069
0.000294519
0.000190729
-0.00165402
0.00349978
-0.00223624
-0.000135105
0.000120472
7.62414e-05
-9.62006e-06
1.66233e-05
-6.98753e-06
-0.00878533
0.00837648
-0.00106421
-0.00149711
-0.0036571
6.93589e-06
4.08636e-05
-0.00020553
-0.000992677
0.00119816
-0.00077737
0.000777377
0.00113457
0.000519001
-0.000888694
-4.5448e-05
0.000934151
-0.000635464
-0.000253248
-0.000609765
0.000879545
-0.000269814
-5.75376e-06
0.000182537
-0.00017679
-0.000542438
0.00153381
-0.000991426
0.00236731
-0.000670188
0.000790617
0.000123819
6.78413e-05
-0.000100394
3.25296e-05
-4.30368e-05
-2.50629e-05
6.81117e-05
9.56479e-06
-1.9175e-05
1.34651e-05
-6.15818e-05
4.81325e-05
-0.000622647
-0.000669626
0.000226603
-0.000652421
-0.00104752
0.00169991
1.95184e-05
3.92877e-05
-0.000150228
-5.33345e-05
0.000802167
-0.0011028
-6.71089e-05
-9.54763e-05
0.000107867
-6.80078e-05
-5.39318e-05
9.65789e-05
-4.26373e-05
0.00550208
0.00107369
-0.00657588
0.00103719
0.000835253
3.26711e-05
-0.000103934
7.12561e-05
8.29629e-05
0.00129942
0.000177618
0.00136852
-0.00154613
-0.000393497
6.55112e-05
-0.0012392
0.00107868
0.000160539
-0.00101979
0.00051882
0.000501167
-0.00584789
0.00210198
0.00374592
0.00713509
-0.000971328
-0.0061638
0.000416323
-0.00167678
0.00126051
0.000597813
0.000898868
1.93952e-05
-6.24225e-05
0.00316419
0.00581759
-0.00184596
0.00227455
-0.000428598
-1.8697e-05
6.07007e-05
0.00519159
-0.000889317
-0.00430226
-0.00216924
-0.000795832
0.0029651
0.000122153
0.000291434
-0.00158657
0.000809464
-0.00189615
2.65114e-05
0.0018696
-0.00278576
0.00992077
-0.000108512
-0.000247751
-0.000121598
-0.000115184
4.48872e-05
7.03131e-05
-0.000202345
0.000335323
-0.000132939
0.000496853
-0.00101192
-0.000554939
-0.000357585
0.000398953
-4.12312e-05
0.0001414
-9.4387e-05
-4.69992e-05
0.000724622
-0.000670006
-5.46173e-05
0.0022223
0.00118439
-8.10831e-05
0.000293699
1.67104e-05
-8.38025e-05
0.00736075
-0.00807274
0.00104308
-0.000351466
-0.000691602
-0.000162508
0.000622451
0.000463716
-3.35774e-05
-0.00473316
0.00767099
0.00019836
-0.000156981
-0.000246779
-5.70351e-05
0.000303787
-0.000363875
0.000269188
-0.0032582
0.00161611
0.00164207
4.45833e-05
6.32942e-05
-0.00119365
-0.00115023
0.00234415
-4.32801e-05
5.67379e-05
-0.00282178
0.00268001
0.000100882
-3.30343e-05
0.000695099
-0.000621986
-7.31112e-05
-0.000180862
0.000226764
-4.59073e-05
-0.000196372
-2.14495e-05
-9.82613e-05
0.000222762
-0.000146651
-7.61475e-05
3.49377e-05
0.00235891
3.11327e-05
-0.00239002
0.000270364
1.60253e-05
-0.00028641
0.00559291
-0.00882209
0.00322918
-3.92142e-05
4.65555e-05
-7.32879e-06
7.80971e-05
-0.000257865
0.000179748
-0.0007297
0.000294284
0.00043543
-0.000472748
0.000973686
0.000466727
-0.000150832
0.00035135
-0.000126116
0.000882115
-0.000193068
-0.000460284
0.000182247
-0.000651956
0.000295165
0.000356781
0.00264272
0.00106474
0.000309662
3.26172e-05
0.00044986
-0.000482474
-0.000756399
-0.000122875
0.000879409
-0.00081725
-0.00116328
0.00198054
-0.000344625
0.000970697
-0.00144132
-0.00131711
0.00275844
4.68333e-05
0.000189363
-0.000200608
-3.63439e-05
0.000236902
0.000491351
-0.00103386
6.24444e-05
6.44905e-05
3.67149e-05
-0.000101242
-3.42736e-05
-2.00032e-05
5.42605e-05
0.000100782
6.23046e-05
0.00379306
-0.00497265
-0.000744534
0.00165472
-0.000168683
-0.00372822
0.00407621
0.000120543
-2.78322e-05
-0.000151
-0.000106869
-0.00112262
-0.00148154
0.00326749
0.00258581
-7.42812e-05
-0.00039742
0.000167592
-6.68126e-05
0.00172763
-0.000773499
-0.000954142
-2.31839e-05
3.84076e-05
-0.000394218
-0.00173204
0.00398643
-0.00225439
0.00030444
0.00106408
0.000303026
-7.11533e-05
-0.000231761
-0.000170666
8.19655e-06
0.000162476
9.82048e-05
0.000271108
-0.000122099
0.0014145
-0.00129237
0.000551423
-4.92293e-05
1.00184e-05
-1.9311e-05
0.000221996
-0.000202708
-0.000603712
-0.00256904
0.00317277
-0.000176941
-0.000220462
0.000397344
-0.000123577
0.000207656
-0.000314316
0.000106643
-0.000422047
0.000868574
-0.000446505
-0.0013734
0.00119902
-0.00376463
0.000598541
-2.30628e-05
-5.90081e-05
-0.000277771
0.000100911
-0.000417205
0.00101897
-0.000601768
0.000792843
5.85756e-06
-0.000798707
-0.00646768
0.00268109
8.29878e-05
-0.00017596
-0.000383099
-0.000174845
1.80123e-05
0.000419431
-0.00043744
-0.00242887
-0.000142725
0.00257159
0.00275898
-0.000530707
-0.00222822
9.91755e-06
-5.5922e-06
-4.31875e-06
-0.00145956
0.00118547
-0.000256029
-0.000473662
-0.00120819
-0.00328764
0.00888051
5.63174e-05
-1.95394e-05
6.10471e-05
0.000348568
-7.34449e-06
0.00113207
-0.00157367
-0.00503102
0.00732666
-0.00229557
0.000443399
-4.96453e-05
-0.000107322
0.000152428
-4.51107e-05
0.000294551
0.00489709
-0.0022038
-0.000392663
-0.000291887
-0.000731529
0.00533598
-0.00141306
-6.54652e-05
-8.79801e-05
-0.000266983
-7.50137e-05
0.000366295
-9.2359e-05
7.45252e-05
1.78309e-05
0.000942157
-0.000596541
-0.00979898
0.00587501
0.000204926
-0.000592827
-0.00340546
0.00101359
0.00239187
0.00178697
0.00238826
-7.63548e-05
7.03081e-05
6.05684e-06
3.4899e-05
-0.000115555
8.06199e-05
-9.04e-06
-0.000192791
0.000201843
-0.000253106
-0.00559478
-0.00168114
0.000474832
0.000305415
0.00119412
-0.00149954
0.000153135
-0.00076291
1.07791e-05
-3.535e-05
2.45516e-05
-0.00156105
0.00227851
-0.000717498
-0.00603508
0.00522203
0.00261289
0.000294562
-0.00290748
0.000726304
0.00477582
-0.000234487
0.000344675
-0.00011025
-0.00325089
0.000894073
0.00235675
-0.00215838
0.00468251
-0.00252419
0.00250603
0.00845271
3.2979e-05
9.52959e-05
7.22867e-05
0.000284825
1.81848e-05
0.000451995
-0.00178453
0.00133253
-0.0019212
-0.00120073
0.00312193
-0.000327163
-3.0498e-05
1.06099e-05
-0.000177535
0.000166904
-0.000810721
0.000655881
-7.90694e-05
2.55395e-05
5.352e-05
0.000607718
-0.000390944
0.00132739
-0.0021447
-2.14626e-05
-5.75993e-05
0.00159598
0.00108827
0.000274882
-3.86487e-05
-0.000236217
0.000410572
0.00028452
-0.00168319
0.0045055
-0.00282227
0.00617445
-0.00491987
5.52277e-05
0.00012303
0.000183641
-0.000284592
0.000150406
0.000988287
-0.00113874
0.00341544
-0.002588
-0.000827432
-9.1685e-05
0.000655615
-0.000563942
-0.00131075
0.000785135
0.00140437
0.000383239
-0.000252517
-0.00013072
-0.00272774
0.00105668
0.00167105
0.000122124
-0.000107376
0.000343336
0.002024
-0.000241571
-5.27455e-05
0.000294387
-5.43364e-05
-9.47339e-05
0.000149076
-0.000301076
0.000305165
0.00691513
-0.0072599
0.000344916
-0.00039193
5.46009e-05
0.00017767
0.00609082
-0.00626837
-3.3594e-05
-5.76528e-05
9.12566e-05
0.00262445
0.000134547
-3.59042e-05
0.00284789
-0.00457996
-4.32771e-05
3.53447e-05
7.93131e-06
0.000109716
0.000165154
0.000603226
-0.000111571
0.00163112
0.000310972
-0.00194207
-2.78653e-05
-1.54115e-05
4.93436e-05
-1.40025e-05
0.000171001
0.000989056
-0.00116
0.00925347
-0.00731994
-0.00193355
5.48012e-05
-3.08548e-05
5.03829e-05
0.000234737
-0.000205877
-2.88419e-05
-5.97329e-06
-4.74172e-06
-0.000692388
-0.00363275
0.0043252
-0.00469436
0.00177433
0.00292006
-1.65267e-05
0.000286882
-0.000513119
-0.000508031
-0.00181258
-0.00135613
0.00316871
-6.09529e-05
-1.17274e-05
7.26739e-05
-9.22597e-05
0.000392045
-0.000299736
0.00686592
4.90268e-05
-6.21356e-05
0.00343961
-0.00337744
-0.000981586
0.00155137
0.00348677
-0.00193279
-0.00155398
0.0063146
-0.00178437
0.0001532
-0.000142592
0.000296256
-0.000718306
0.0024817
0.00229863
-0.0047803
-0.00034346
0.000162596
-0.00221288
-0.00248144
0.000347265