/*--------------------------------*- C++ -*----------------------------------*\
| =========                 |                                                 |
| \\      /  F ield         | OpenFOAM: The Open Source CFD Toolbox           |
|  \\    /   O peration     | Version:  v2012                                 |
|   \\  /    A nd           | Website:  www.openfoam.com                      |
|    \\/     M anipulation  |                                                 |
\*---------------------------------------------------------------------------*/
FoamFile
{
    version     2.0;
    format      ascii;
    class       volScalarField;
    location    "150";
    object      nut;
}
// * * * * * * * * * * * * * * * * * * * * * * * * * * * * * * * * * * * * * //

dimensions      [0 2 -1 0 0 0 0];


internalField   nonuniform List<scalar> 
18540
(
0.0210328
0.00672611
0.00632113
0.0177746
0.00179633
0.000837645
0.00128452
0.000450619
6.56347e-05
0.00137803
0.000802948
0.00524836
0.0123285
0.00582219
0.0205075
0.000133339
0.00010964
0.000231896
2.38118e-05
0.0115313
9.59192e-05
0.000269733
0.00672352
0.00275248
0.00041384
0.000286176
0.000616725
0.000502222
0.000879819
0.0094611
0.00672604
0.00672712
0.000843944
0.0227469
0.000564536
0.0166138
0.000267038
0.00672549
0.0067727
4.63503e-05
0.00672557
0.00672566
0.00141206
0.0228489
0.000447597
0.000296377
0.000153211
0.00674577
0.000162031
0.000593912
0.00561952
6.588e-05
0.0140036
0.00672514
0.00041461
0.000867059
0.0111722
0.0107551
0.00268287
0.00680818
0.00252599
0.000921873
0.000616438
0.000119386
0.0178685
0.00578406
7.66588e-05
0.00672245
0.00203291
0.00677038
0.000896222
0.000176748
0.000923449
0.0109239
0.000598531
0.000138065
0.000190478
0.00672153
0.000316229
0.000147868
0.000848258
0.00784241
0.00672477
0.000534408
0.0031929
0.0191307
0.00314651
0.00672378
0.000604356
0.0188331
0.0002663
0.00032405
0.000349783
0.00675663
0.00115226
0.00208307
0.000762371
0.000628083
1.06189e-05
0.0018677
0.00295458
0.00672729
0.000130931
0.000358905
0.00349642
0.000658859
0.00274228
0.00503431
0.000564141
0.000765555
0.000341948
0.00484268
0.00672174
0.000564845
0.0128576
0.000241802
0.000263415
0.00057914
0.000515309
0.00106951
9.27622e-05
0.00818664
0.00251962
0.0118285
0.00672296
0.000893317
0.000822857
0.00018271
0.000845497
9.58042e-05
0.000305041
0.000322805
0.00045256
0.0209907
0.00674446
0.00672424
0.00062575
0.000445335
0.00121981
0.00580058
0.0182567
0.000572603
0.00062948
0.00271288
0.00676973
0.00674005
0.00065768
0.0177471
0.000688877
0.00865899
0.00673237
0.0011567
0.0067569
0.0135399
2.97837e-05
5.44697e-05
0.00914846
0.00676889
0.00533434
0.0045512
0.000628777
0.000676108
0.00672606
0.0067429
2.9335e-05
0.00551463
0.0192609
0.000195001
0.021246
0.00299832
0.006724
0.00110018
0.000997206
0.00083794
0.00225652
0.0115289
0.000824073
0.0196244
3.08601e-05
8.40947e-05
0.00116441
0.000161374
0.000618408
0.000459524
0.000440968
0.00332151
0.00152067
0.00131416
0.000342495
0.000535119
0.000782093
0.000781965
0.000483028
0.00672272
7.51267e-05
0.00674665
0.000820191
0.000298411
0.000630338
0.000400611
0.000291279
0.00041939
0.000190651
0.000705242
0.0218543
0.00706367
0.0042536
0.0161809
0.0164263
0.000596258
0.00672631
0.00496927
0.0188077
0.00672488
0.000357865
0.000468178
0.0118084
0.000115993
0.00157209
0.012491
0.00379292
0.000192736
0.0123974
6.34159e-05
0.000173549
5.64741e-06
0.000561803
0.000972725
0.00294284
0.000555642
0.000596038
0.000689565
0.000748771
0.000947008
0.00672621
0.00116164
0.00672675
0.00020338
0.000497935
0.000256285
3.30713e-05
0.000115094
0.00020565
0.000623532
0.0207908
0.0146057
0.00672565
0.0067408
0.000742037
0.00210767
0.00015866
0.0159185
0.00262946
0.000987123
0.000355543
0.000119453
0.000576239
2.87774e-05
0.00645682
0.00827159
0.000137548
0.0218674
0.00181074
0.000141524
0.00208745
0.000767787
0.011472
0.0118128
0.00672526
0.00672477
0.00141132
0.00445091
0.00044864
0.00169446
0.000520793
0.0238742
0.00675487
0.000481347
0.000388771
0.00643867
0.00672696
0.025285
0.00109133
0.00672609
3.6983e-05
0.00677443
2.66811e-05
0.000578162
0.017372
0.00110646
0.0133624
0.0103511
0.000234412
0.00672476
0.0086792
0.000568633
0.000481718
0.000338549
0.00671114
6.53893e-05
0.002505
0.00267409
0.00068247
9.7632e-05
7.65852e-05
0.00672616
4.34754e-05
0.0067322
3.13053e-05
0.0067267
0.00532277
0.00245934
0.0228875
0.000738399
0.000574125
3.52514e-05
0.0222051
0.00672926
0.0102335
0.00515397
0.0041814
3.43972e-05
0.00201956
0.00146566
0.00095976
0.00435908
0.000667226
0.000777255
0.00673025
0.00672963
0.00674138
0.000428807
5.10682e-05
0.000278455
0.000287572
9.45262e-05
0.0031707
0.00672526
0.00349765
0.000106741
0.000559334
0.000718375
0.00162305
9.9574e-05
0.000509604
5.03785e-05
0.00602561
0.000239881
0.00144121
2.67747e-05
2.30408e-05
0.00672513
0.00790631
0.00191948
0.0067265
0.0111276
0.00672487
0.00675722
0.00397154
0.00827556
0.000570452
0.00674196
0.00672598
0.000501963
0.0127364
0.000160061
0.00679284
0.00672553
0.00283376
0.00672306
0.0168801
0.00673666
0.000278439
0.000580081
0.00672515
7.52258e-05
0.00672607
0.00291077
0.00105586
0.000674066
0.00638173
0.00673146
0.000167432
0.000622249
0.000362635
0.00674033
4.41438e-05
0.0099634
0.00672371
0.00283244
0.0110285
0.00673109
0.000571094
0.00337552
0.0165457
0.00672568
0.0142167
0.0167266
0.00672387
2.52685e-05
0.00223107
0.0188323
0.00136006
0.00672513
0.000839246
0.00676068
0.0201618
0.0013836
0.00232747
0.000511368
0.00165944
0.00397691
0.000120936
0.00674042
0.000629052
7.15474e-05
0.00672554
0.000778697
0.000205458
3.73151e-05
2.60746e-05
0.0192927
0.00672326
3.12533e-05
0.00673002
0.000615361
0.00673035
2.04763e-05
0.000448633
0.000271668
0.00672896
0.0222222
0.000631749
0.0110863
0.0010707
7.27648e-07
0.00672366
0.00673453
0.00902869
0.0053114
4.96216e-05
0.000445138
8.44936e-05
0.00714935
0.00533099
0.0035315
0.00250475
0.00545148
0.00542273
0.00678042
0.00987214
0.0144039
0.00673206
0.0067384
0.00441713
0.0025058
0.000759116
0.00652834
0.00311
0.000289809
0.00145694
0.00222503
0.000649302
0.000618354
0.0067242
0.000176257
0.0101928
0.00149205
0.000769885
0.000586584
1.37472e-05
8.9278e-05
0.00665771
0.0080227
3.20791e-05
0.00676081
0.0220695
0.00672008
0.00363402
0.00674956
0.000435146
0.00675163
0.0124173
0.00185263
0.00110523
0.000511276
0.000652402
0.00534766
0.00501317
0.00143568
2.46851e-05
0.000556311
4.85579e-05
0.00193181
0.00596128
3.56097e-05
0.000526818
0.021712
0.000632702
0.000656507
5.11134e-05
0.000124175
0.00679729
6.34508e-05
0.00672607
0.00101343
5.33634e-05
0.00289569
5.14179e-05
0.0204212
0.00437999
0.00256439
0.00672571
0.000393051
0.0194974
0.000740238
0.00111482
0.00672454
0.00755157
0.00672236
0.000421384
0.00672592
0.000161893
0.00826068
0.000657858
0.0067581
0.0067255
0.0160427
0.00672416
0.00311467
0.00902783
0.000148492
0.000132633
0.00672371
0.00672544
0.00258062
0.016995
8.23752e-05
0.000374313
0.00388166
0.00672509
0.000228523
0.00028536
0.000256366
0.00102909
0.0067565
0.00774602
0.0139582
0.000792251
0.00076582
0.000294257
0.00673954
0.00109526
0.0128811
0.00674981
0.000736136
0.000544864
0.00582798
0.0104941
0.00674546
0.000928066
0.000514085
0.00673148
0.000452769
0.00153621
0.0172436
0.00673805
7.57979e-05
0.000485954
0.000257939
0.00675646
0.00672622
6.57633e-05
0.00283715
2.56053e-05
0.00829826
0.00600375
0.000711491
0.00446612
0.00554038
0.000282572
0.00672478
0.00915908
0.0091812
0.00778497
0.000237311
0.00468289
0.00512239
0.0014283
0.00068173
0.000863194
0.00673481
0.00672559
0.00184974
0.00208229
0.0061343
0.00550979
0.0016045
0.00179529
0.00677329
0.00753439
0.000477351
0.00436005
0.000120432
0.00434229
0.000319106
0.000246653
0.00672496
0.00672482
0.000576484
0.00118273
0.00569852
0.00399731
0.00249574
0.0039167
0.00799398
0.00225835
0.00672605
0.0208356
0.00388508
0.0170026
0.00878134
0.00677886
0.00933522
0.000111017
0.00620275
0.000197878
0.00151781
3.14435e-05
0.00699696
0.000954411
0.0169938
0.00517278
0.01487
0.00672537
0.00310964
0.000548383
0.000391769
0.00675691
0.000967591
0.0180886
0.0183924
0.00264933
0.000634807
0.0026842
3.24246e-05
0.000914797
0.000297393
0.00672424
0.000706569
0.0181282
0.00672558
0.00672445
0.00480395
0.000168053
0.0178235
0.00548022
0.000506534
0.00444247
0.00905002
0.00672518
0.0105613
3.3314e-05
0.00127283
0.0105812
0.000220213
0.00302093
0.0229292
0.0186213
0.000123049
0.000716174
2.21513e-05
0.0135716
5.51071e-05
0.00156865
0.00135554
0.00575976
0.0101144
0.00322881
0.002813
0.0017223
0.00655488
0.00968537
0.00106418
0.00100539
0.000867772
0.0177547
0.000382018
0.00139086
0.00078781
0.00679642
0.000545735
2.12612e-05
0.0105299
0.000951282
0.0159248
0.0067375
0.000185888
0.00149558
0.00200687
0.000202879
0.00676887
0.00206968
0.00240991
0.00673559
0.0067318
3.80021e-05
0.000560913
9.0512e-05
0.00325183
0.00678282
0.00298688
0.00799471
0.00640502
0.0190603
0.00672647
0.00672469
0.000240816
0.00672649
0.000164724
0.000731406
0.000553944
0.00672584
0.00672414
0.000260388
0.000301366
0.000118249
0.0067252
0.00672643
0.000414618
6.03938e-05
0.000628309
0.00111121
0.000222806
0.0100621
0.0067248
0.00669752
0.0107657
0.000354374
0.000466009
0.00673532
0.000358241
6.53389e-05
0.000637254
0.00068899
0.000677916
0.0112059
0.00424817
0.00256172
0.000998777
0.00712155
0.00672812
0.00672382
0.00676702
0.00672556
0.000347117
0.00136332
0.000189639
0.00672972
0.00277347
0.00564018
0.00672448
0.00673641
0.00673594
3.52523e-05
0.000424935
0.00674072
0.000293062
0.000321382
0.00067093
0.000193404
8.58415e-05
0.000400811
0.000173046
0.00109208
0.000316146
0.00672398
0.000223207
0.000111807
0.0067259
0.000357138
0.0204502
0.00352657
0.000228662
0.000238402
0.000152032
0.00186088
0.000735631
0.000380149
0.000137891
0.000751223
0.000811907
0.000952753
0.00672838
0.00139312
0.0176264
0.00101511
0.000311768
3.02553e-05
0.000602338
0.00110291
0.000925233
0.0182996
0.000632077
0.00196465
0.00256431
0.00208394
0.00673495
2.95565e-05
0.00672453
0.000541212
0.00672748
0.00057007
0.00258995
0.00419957
0.00136456
0.00687895
0.00673727
0.00192745
0.00478522
0.0178991
0.00672597
0.00190513
0.00179664
0.0196967
0.00031865
0.000173239
0.000389929
0.000153439
0.00675871
0.000725506
0.0228364
0.000363319
0.00193151
2.80161e-05
0.000681351
0.000115767
0.00738844
0.00570714
0.00390266
0.00456233
0.00291618
0.000453022
0.0067294
0.00673418
0.00675768
0.00058918
0.000653216
0.0017982
7.96063e-05
0.00344654
0.00193244
0.000456539
2.8053e-05
0.0013723
0.00675683
0.0174963
0.00672494
0.00129262
0.0163644
0.000320225
0.00193366
0.00655833
0.000552715
0.0017688
0.00139296
0.00673041
0.00275188
0.000467284
8.47105e-05
0.00643319
0.00179209
0.00274689
0.000156167
0.0114607
0.00672341
8.06119e-05
3.77009e-05
0.00131497
0.00423662
0.0067248
0.000498408
0.00213229
0.0116029
0.000476944
0.0067249
0.00248637
0.00154517
0.000410288
0.0162149
0.00672252
0.00190841
0.00289076
0.000517709
3.20078e-05
0.00672714
0.00290544
0.000429525
0.0187021
0.000819256
0.00911181
0.00672544
0.00672659
0.000455005
0.00672578
7.34098e-05
0.0206303
0.00192179
0.0203438
0.0225023
0.00672535
0.00531575
0.00500434
0.000639076
0.000175101
0.000400359
0.0103288
0.00672625
0.0106839
0.00023413
0.0175393
4.94787e-05
0.00231255
0.0102001
0.0054541
0.0201245
0.0106252
0.00672745
0.00675423
0.00125415
0.000220448
0.019046
0.00153798
0.00495817
0.000588958
0.00672274
0.00130474
0.000635018
0.00672285
0.0189297
0.00101334
0.000634504
4.00372e-05
0.00011773
0.00675094
0.00540997
0.000176576
0.0193214
0.000642496
0.00019732
0.00938348
0.0156793
0.00170938
0.00865359
0.00500238
0.000982701
0.00672654
0.00580409
0.0074907
0.00730006
0.00314918
0.00614034
0.00673104
0.000519213
0.00672884
0.0151181
0.00673729
0.00197334
0.00165374
0.000242386
0.00673748
0.00673565
0.00216699
0.00878562
0.00672967
0.00672951
0.00534529
0.0067257
0.000195365
0.000927396
0.0041692
0.0083182
0.0048742
0.00675633
0.00410208
0.00835667
0.000737958
0.0173719
0.0172307
0.000318838
0.00473466
0.00190791
0.0226751
0.00335264
0.000899235
0.00934026
0.000845533
0.0109838
0.00674009
0.00850381
0.000923326
0.000144098
0.00672189
0.00211871
0.00273787
0.000864652
0.00893185
0.00672581
0.00963664
0.0011863
0.000511859
3.88166e-05
0.00933485
0.000767083
1.78668e-05
3.4335e-05
0.00141084
3.47705e-05
0.0122502
0.00136781
0.00814162
0.000222049
0.00106529
0.00198894
0.000195965
0.00578721
0.0055064
0.0203368
0.0192814
0.00672514
0.0204994
0.00672607
0.000104934
0.00182295
0.00285445
0.00539661
0.00330136
0.00672693
0.00104526
0.006725
0.00673842
0.000407922
0.00175357
0.00305996
0.000474861
0.0067463
0.00672525
0.00118371
0.000431896
0.0106219
0.00307548
0.000595031
0.000731304
3.57249e-05
0.000907553
0.00673529
0.000659685
0.00674262
0.000539463
0.00366242
0.00673073
0.00677148
0.000768515
0.0106885
0.01872
0.000577326
0.000186436
0.00672303
0.000319248
0.0218717
0.0046616
0.00440659
0.000549519
0.011819
0.00137303
0.00108605
0.000993845
0.000201989
4.86609e-05
0.0224396
6.12145e-05
0.000790183
0.00278998
0.00673725
0.00141154
0.00308345
7.2415e-05
0.00303655
4.71429e-05
0.0193387
0.00280829
0.000973484
0.0163823
0.021012
0.000349038
0.000323227
0.000362454
0.00674591
0.0161657
0.0067694
0.0001003
0.000728826
0.00673476
0.00155575
0.0129763
0.000310874
0.00164126
0.000776063
0.0211126
0.0104663
0.000231753
0.00672831
0.00316952
0.000600404
0.000346367
0.014602
0.00672497
0.00214373
0.00228194
0.00522307
6.4242e-05
0.00672325
0.00257999
0.019048
0.00863194
0.000108019
0.00193948
0.00672611
0.0183928
0.000127492
0.00672407
0.000468528
0.00452839
0.000836877
0.00672658
0.0174411
0.00669091
0.000579661
0.0232667
0.00327478
0.000130839
0.000777542
0.0102236
0.000828818
0.00673787
0.00018809
0.00672638
0.00411142
0.000568448
0.000325416
0.00674401
0.000253661
0.00673557
0.00672589
0.00259918
0.00110342
0.00178933
0.00366658
0.000109128
0.000177668
0.000529734
0.00605734
0.000374839
0.000144253
0.00053666
0.0067257
0.000185664
0.00672437
0.00672761
0.00672615
0.00673203
0.0052633
6.64404e-05
0.00672626
0.00672624
0.0112992
0.00611628
0.000638788
0.00501459
0.0067401
0.00572497
0.00240081
0.0229984
0.00353891
0.00102588
0.0156121
1.97689e-05
0.000569324
0.00672503
0.00672573
6.89281e-05
0.00672682
0.00672637
1.94592e-05
0.00672598
0.00286351
6.70549e-05
0.000230119
0.00501201
0.00176105
0.00103298
0.000499919
0.0159563
0.00672444
0.00416303
4.99039e-05
0.00601632
0.000303086
0.000255977
0.000145174
0.000540069
0.0041419
0.00633837
0.000273436
0.00573118
0.00725508
0.00676963
0.00199673
0.000980219
0.00924901
0.0067292
0.0067254
0.00573599
0.000724095
0.00673148
0.00558364
0.0191531
0.00373227
0.00239691
0.0172348
5.74865e-05
8.49495e-05
0.00633597
0.00676128
0.00159096
0.0117807
2.95495e-05
0.00672619
0.00385389
0.00672498
0.000552563
0.00202363
0.0172247
0.000655211
0.0121396
0.000222279
0.00147751
4.07079e-05
0.00673843
0.00355727
0.0018077
0.00026787
2.21148e-05
0.000542788
0.00240256
0.000593476
0.00672469
0.0186057
0.00075562
0.01541
0.0143061
0.00673116
5.34159e-05
0.001197
0.00434087
0.00449231
0.00672558
0.000540259
0.00674276
0.000204467
0.000227185
0.000379112
0.00559484
0.000456567
0.00227271
0.00673532
0.0152204
0.00672446
0.000563168
0.00673111
0.00672495
3.8932e-05
0.0129186
0.00674497
6.53695e-05
0.00672819
0.00356712
0.00145847
0.00487792
0.000153035
0.00063569
0.0145759
0.00208592
0.0064428
0.0225998
0.00199475
0.000798603
0.00841514
0.0067318
0.00674281
0.00025454
0.00200564
0.000650388
0.00354251
0.00672218
0.000160523
3.48939e-05
0.000731187
0.00672649
0.0121499
0.00989884
0.00767741
0.000648674
0.0013522
6.85388e-05
0.00673907
1.91676e-05
0.000780585
0.0067393
0.00645644
0.00705964
0.000198348
0.00672449
0.000211987
0.00672497
0.0067124
0.0187754
0.000950934
0.00162587
0.00475407
0.00673548
0.0192317
0.0123543
0.00698654
0.00033525
0.00362673
0.00221831
0.00754844
0.00381108
0.00674163
3.59997e-05
0.00636954
0.000429687
0.00753865
0.0017746
0.0208768
0.0033069
0.00672456
0.0124146
0.00203525
0.00672452
0.0184028
0.0175574
0.000296918
0.000236541
5.13156e-05
0.00237907
0.0015281
0.000340825
3.45985e-05
0.00107342
0.00672588
0.00108306
0.0171599
0.00673679
0.0117521
8.21253e-05
0.0038235
0.000605388
0.0121568
0.00673447
0.00358535
0.0181885
9.62094e-05
0.0112662
0.00193976
0.00673751
0.00672523
0.00672225
0.0016821
0.00201822
0.0010342
0.0026086
0.000235824
0.00674344
0.0166268
0.00677544
0.000253041
6.32033e-05
0.000981108
0.00134606
0.00509701
0.00121494
0.00190704
0.000620296
0.0170965
0.000221093
0.00256528
0.00673229
0.000356976
0.000782859
0.00447556
0.0224946
0.00672615
0.00087101
0.00850447
0.000684511
0.000268087
0.000333124
0.00212476
0.00675062
0.010394
0.0108443
0.0123142
0.00673434
0.00672675
0.00360024
3.96221e-05
3.78597e-05
0.00672872
0.00673646
0.00143609
0.00280602
0.000146667
0.000550479
0.00014881
0.000631094
0.000315068
0.00041546
0.00541709
0.00672458
6.53805e-05
0.000937163
0.00434252
0.00674774
0.000110542
0.00917221
0.00550621
0.00651928
0.000200434
0.00673277
0.00673844
0.000504306
7.0299e-05
0.000247491
0.0102213
0.000198408
0.00192208
0.00419905
0.0180881
0.000113665
0.00361274
0.00036736
0.00274864
0.00672512
0.00544178
0.00050542
0.00202414
0.000110877
0.006063
0.0169466
0.000156865
0.00674047
0.00672891
0.00041175
0.00279045
0.00307022
0.0067235
0.000556619
4.40865e-05
7.79908e-05
0.00239246
0.00672508
0.00273061
0.0114238
0.00672477
0.000283811
0.00672525
0.000686878
0.00672498
0.00443463
0.00127539
0.00866041
0.00228931
0.00138499
0.000267836
7.60325e-05
0.0183842
0.0192118
0.000196883
4.21507e-05
0.00371226
0.00480675
0.000584961
0.00490804
0.00020078
0.0207887
0.00323788
0.0107529
0.0129637
0.00181962
0.000181579
0.00256322
0.0147883
0.000333728
7.42381e-05
0.0232516
0.000416483
0.000483292
0.0158016
0.000761328
0.00373975
0.00672388
0.00208911
0.0010604
0.000397224
0.000245817
3.20462e-05
0.00905944
2.35647e-05
0.0109106
0.000127419
0.00645277
0.0166617
0.00604644
0.000151453
0.00120807
0.00961139
0.00611497
0.000374597
0.00225248
0.0177082
0.00170096
0.00142818
0.00672571
0.00462309
0.0067235
7.41537e-05
0.000544657
0.0023043
0.0168479
0.000381085
9.29915e-05
0.00155329
0.00673783
0.0212826
0.0114246
0.00672561
0.00319252
0.000757425
7.72533e-05
0.00386062
0.00672504
0.00672609
0.00032759
0.000139706
0.00164669
0.00672599
0.00560644
0.00398204
0.007071
0.000213781
0.0112171
0.000969448
0.00171839
0.00299425
0.0132128
0.00672345
0.00347392
0.000238505
0.000146629
0.00320972
0.000223021
0.00157764
0.00244597
3.2751e-05
5.46936e-05
0.00199921
0.000769029
0.0188736
0.00673384
0.000991043
0.012657
0.00672775
0.000128787
0.00091294
0.00672821
0.000822861
0.00889738
0.0067265
0.000167588
0.00363053
0.00165173
0.00600676
0.0171237
0.00672742
0.0189535
0.000662798
0.00675417
0.000240343
0.00059793
0.00672916
9.10945e-05
0.00982652
0.00672514
0.000735778
0.022548
7.28843e-05
0.00728298
0.00476981
0.00375179
0.00118374
0.000655086
6.97132e-05
0.00672324
4.52035e-05
7.85899e-05
0.00319115
0.00674935
0.00674949
0.0035173
0.00672425
0.00023927
0.00103617
0.000993529
0.000604281
0.000482283
0.0171719
0.0225059
0.0033822
0.00328242
3.01173e-05
0.0163529
0.0130052
0.000675977
0.00672509
0.000897962
0.000108025
0.00973949
7.07695e-05
0.00392143
4.929e-05
4.05847e-05
0.000893582
0.000181682
0.0042628
0.000278774
2.84667e-05
0.0062899
0.00678348
0.00672614
0.00614532
0.000293778
0.00407183
8.93456e-05
0.000612631
0.00313423
0.00547044
0.00673142
0.00672994
0.00514485
0.00673416
0.00015358
0.00139912
0.00381496
0.000161049
0.000235319
0.0188498
0.00658482
0.00274914
0.00673307
0.0152266
0.00243774
0.00166275
0.000660753
0.00037105
0.00014061
0.000113232
0.00245741
0.00202316
0.00289454
0.000573641
0.00059956
0.00131764
0.0196682
0.00178628
0.000665174
0.00299275
0.017743
4.976e-05
0.00319299
0.00673451
0.00169742
0.00672542
0.00166647
0.000784119
0.0022046
0.00299442
0.00672305
0.00566295
0.0017895
0.0194438
0.00337895
0.00803215
0.000867484
0.000164007
0.000244658
0.00046682
0.00031213
0.00162508
0.000569265
0.0120722
0.000402423
0.000388349
0.00488544
7.75936e-05
0.000189616
0.000449023
0.000642117
5.61189e-05
0.0185193
0.006728
0.0191655
0.000583596
0.00560127
0.0194272
0.000648999
0.000160842
0.00986008
0.000252948
0.000573535
0.000797313
0.000457287
0.000928258
7.17563e-05
0.00672638
0.00298616
0.000287768
0.00574708
0.000228725
0.00484284
0.000280038
0.00673535
0.00908349
0.0193739
3.1964e-05
0.00222474
0.000737875
0.000158348
0.000219256
0.00318723
0.00365295
0.0013572
0.0013222
0.00678195
3.47096e-05
0.000101186
0.00672687
0.000161622
0.00223427
0.0130465
3.73087e-05
0.0031457
0.000995545
0.000164825
0.00352699
0.000223378
0.000323246
0.00820773
0.000111968
0.00678049
0.00672621
0.0109639
0.0194025
0.00674952
0.0112845
0.00653818
0.00677874
0.000125854
0.0102766
0.000561974
0.00511993
0.00674772
0.00356848
0.00466843
0.00675096
0.00675062
7.78371e-05
0.00342758
0.0170948
0.00123654
0.00101177
0.00379978
0.00672677
0.00390947
0.000639352
0.00102904
0.0119603
0.00991177
0.000625577
0.017343
0.00194659
0.00977921
0.0183155
0.00421418
0.000754423
0.000296702
0.0131908
0.00614909
0.00675398
0.00675892
0.000341086
0.00235988
0.000434185
0.00672313
0.00672702
0.00674205
0.00386254
0.00784326
0.00120721
0.000155308
0.000428342
0.00345743
3.31594e-05
0.00676306
0.000498559
0.0015258
0.00887723
5.01798e-05
0.000879265
0.00838777
0.0192455
0.00625844
0.00110092
5.23364e-05
0.00672213
0.0067336
0.0028665
7.90168e-05
0.00672622
0.00673262
0.0104095
0.00805518
0.00672467
0.000147508
0.000447834
0.012282
0.00672636
0.00124787
0.000256082
0.00797313
0.00774855
0.0125293
4.14963e-05
0.00250885
0.00445013
0.00672643
0.00690822
3.14204e-05
0.00672698
0.000466829
0.0078254
0.0180355
4.77299e-05
0.0062765
0.00120921
0.0106444
0.00260704
0.000334378
0.0193877
0.000739835
0.00214137
0.00672632
0.0114541
0.00672617
3.30033e-05
0.00026577
8.47204e-05
0.00188216
0.000483645
0.0179788
0.00676665
0.00673792
0.000360917
0.0067262
0.0187086
0.00173276
3.53092e-05
1.95327e-05
0.000146455
0.000367676
0.00674227
0.000100271
0.00672783
0.000292204
0.00673851
0.000957736
0.000325668
0.00423311
0.00233835
0.00672628
0.00135589
0.013951
5.12515e-05
0.0068116
0.0119334
0.00849071
0.00494124
0.00956197
0.00672439
0.00725596
0.00674607
0.00672233
0.000863161
0.000120953
0.000430143
0.000961822
0.00016944
0.00467354
3.09642e-05
0.000362548
0.00112243
0.0096638
0.00493848
0.00156933
0.00026219
0.0209767
5.98294e-05
2.40453e-05
1.06751e-05
0.000595817
0.00468487
0.00187458
0.0117639
0.00672612
0.00672519
0.0005747
0.00262906
0.00449608
0.00917498
0.00672652
0.00435179
0.0208386
0.00113011
0.000213789
0.018938
0.00670438
0.000252737
8.26646e-05
0.00680861
3.41325e-05
0.000564535
0.00673457
0.00186797
0.000153054
0.00672225
0.00166997
0.000345444
0.00432299
0.00673947
0.000709241
0.000550138
0.000458263
0.000153067
0.000256769
0.000856293
0.0004679
0.00203632
0.008098
0.0184373
0.00672518
0.000355991
8.88137e-05
0.000112691
0.006174
4.59066e-05
0.00177607
0.000535161
0.00160309
0.00211048
0.00672565
0.000498807
0.021693
0.00672637
0.00512995
0.00213162
0.00672452
0.000111898
0.00672885
0.000843388
0.000117156
0.00619546
0.000431768
0.0021676
0.00232876
0.000917775
5.58562e-05
0.000438113
0.00528592
0.0067455
0.00674929
0.000202646
0.0067235
0.00673039
2.84484e-05
0.0187716
0.0067333
0.00408153
5.28428e-05
0.0067242
0.00676749
0.00672137
0.00409585
0.000615784
0.0177938
0.00020484
0.0123648
0.000965342
0.00134042
4.04626e-05
0.00672446
0.00107515
0.000721503
0.0191393
0.0144395
0.001077
0.00114404
0.00677795
0.000806546
0.0179459
0.00672596
0.000539679
0.00672785
0.0067253
0.00593621
0.0205531
0.00552042
0.00672321
0.00672606
0.021212
0.0164954
0.000720662
0.00672557
0.000866998
9.32973e-05
0.0164611
0.0215223
0.00672536
0.00439548
0.00672542
0.000461061
0.00646495
0.000347701
4.20299e-05
0.000938652
0.000523723
0.00331755
0.0067253
5.08138e-05
0.00672434
0.00962396
0.00462327
0.00672692
8.90259e-05
0.00250953
0.000229763
0.00151115
0.00675749
0.0106038
0.00673349
0.000793312
0.00672916
0.00193443
0.00672185
4.4411e-05
0.00674737
0.00527373
0.00672685
0.000638354
0.00475551
0.00349
0.00382677
0.000560608
0.0195079
0.00666235
0.000677773
0.0114477
0.000444617
0.000366547
0.00056937
0.00808694
0.0168454
0.00672843
0.00676436
0.00672547
0.00494422
0.00991309
4.66561e-05
0.00963549
0.0035659
0.000566828
0.0192782
0.00015076
0.000613502
0.00212926
1.27924e-05
0.00117279
0.000402824
0.000295998
0.000606949
0.000803796
0.00468869
0.00136357
0.00191037
0.00674163
0.00673244
0.00604896
9.98465e-05
0.00672488
0.00672583
0.0015618
0.00301252
0.00672534
0.00150477
0.00753416
0.000513861
0.0116193
7.29258e-05
5.0058e-05
0.00673563
0.00118214
6.58157e-05
4.7718e-05
2.21608e-05
0.000475263
0.000114313
0.000142902
0.00677043
5.30341e-05
0.00672544
1.22734e-05
0.00673316
0.0067322
0.000446651
0.000206571
0.00268251
0.000371773
7.60821e-05
0.000414987
0.00511556
0.00672616
0.000648021
9.66172e-05
0.0067264
3.74074e-05
0.0170183
0.013088
0.000301201
0.00489461
0.000915139
0.0146919
0.000170328
0.0166769
0.0107009
0.00197985
2.98723e-05
0.00672566
0.00772341
0.00441751
0.0183238
0.0184118
0.00080329
0.0123196
0.012514
0.00108113
0.00676244
0.000487879
0.00673717
0.0104099
0.00865169
0.000602768
0.000298094
0.0067263
0.00163165
0.00107664
0.00912155
0.0085313
0.00050704
0.000526936
0.0214362
5.24056e-05
0.000690277
0.000300824
0.000134779
3.55927e-05
0.00613012
0.000206557
0.00672587
0.00677355
0.0069542
0.0163722
0.00043802
0.000156861
0.000698227
0.00123734
0.00676708
0.00564339
0.000278462
2.9838e-05
0.000251834
7.35411e-05
0.00673333
0.00316275
0.00492378
0.00434154
0.00210379
0.00353086
0.000692551
0.000134079
9.93082e-05
0.000332188
0.00035303
0.000501849
5.65514e-05
0.006746
4.18793e-05
0.0212495
0.00068737
3.58523e-05
0.00672672
0.00816579
0.0101406
0.00673355
0.00318621
0.000567392
0.0161331
0.000124169
0.00479715
0.000242492
0.000781283
0.000523667
0.0115096
0.00165794
5.43596e-05
0.00158205
9.82404e-05
0.00228928
0.00509421
0.0166602
0.00401297
0.00396532
0.00114885
0.00672405
0.000900256
0.00672233
0.00611411
0.0135757
0.00672245
0.00133661
0.00677099
0.0221081
0.00494313
0.00673233
0.00672576
0.00644045
0.000751358
0.00601358
7.36329e-05
0.0010217
0.000852391
0.000232313
9.87429e-05
0.00677406
0.000466578
0.000553149
0.011604
0.0111199
0.000328801
0.00124525
0.0134947
0.000892427
0.01953
0.00675168
0.00672748
0.00673281
3.73469e-05
0.000878473
0.000999561
0.000761846
0.000166166
0.00672536
0.000210595
0.0202616
0.0189446
0.00672609
0.000584779
3.32351e-05
0.00673099
0.0182251
0.017964
0.00435453
0.0146333
0.00464382
0.00673373
0.00560703
0.00672241
5.65932e-05
0.0120693
0.0191687
0.000331694
0.00673559
0.000424104
0.00319174
0.00136425
5.67577e-05
0.0148513
0.00115972
0.00817156
0.013794
0.00789795
0.000411789
0.0219987
0.000158902
0.0201108
0.00672601
4.80467e-05
0.00716346
0.00117803
0.000817236
8.58968e-05
0.00532988
0.000648377
0.00740044
3.45858e-05
0.00128728
0.00674233
0.000639442
0.014022
0.000521718
0.00204901
0.0135387
6.52909e-05
0.00339246
0.00252017
0.0178976
0.00366798
0.000730492
0.000312903
0.000406759
0.0190975
0.000891423
0.0131119
0.00672437
0.0153498
0.0052446
0.00672531
0.000675883
0.00337476
0.000130946
0.000433795
0.00674469
0.000400931
0.0095498
0.000498192
0.00184634
0.00345549
0.000295598
0.00672162
0.0067325
0.000220757
0.0067309
0.000145441
0.00052768
0.000804656
0.0016821
0.000382012
0.0126791
0.0202603
0.00673184
0.0115319
0.000256268
0.00486214
0.000306075
0.000463477
0.0126035
0.00352292
0.0015219
4.17237e-05
0.00673186
0.00672398
0.000700925
0.00273187
9.01378e-05
0.00873691
0.000476149
0.00173936
0.0104272
0.00672454
0.0078261
0.0171906
0.00173281
0.0203411
0.0111718
0.00672188
5.47194e-05
0.000513178
0.00135587
0.000438042
0.000646769
0.00672765
4.10885e-05
0.00249006
0.00831082
0.00095215
0.0139269
0.000899488
0.000735826
0.000224398
0.00697776
0.0067267
0.000264427
7.32981e-05
3.4071e-05
0.000374928
0.00826243
0.000327108
5.35349e-05
0.0211216
0.00324159
0.0094341
0.000539128
0.00672559
0.00672498
0.00672407
0.000232408
0.0205798
0.000675841
0.0134877
0.0102946
0.00293465
0.000431471
0.00672436
7.20642e-05
0.00679055
0.00930895
0.00672604
0.00101027
0.01667
0.00160524
1.33228e-05
0.000165877
0.00221489
0.00736405
3.00285e-05
0.00115625
0.020362
0.000402242
0.00580945
4.40819e-05
0.000155196
0.000256724
0.0210571
0.000808991
0.00202121
0.00672562
0.000379068
0.0102008
0.00313558
0.00239727
0.0175979
0.0195605
0.00673278
3.86879e-05
0.0112042
0.000324064
0.000691294
0.00529989
0.0246051
0.00161776
0.0195246
0.00513003
0.00672463
0.0179341
0.00198883
0.00442385
0.0065261
0.00673119
0.00672975
0.000825904
0.000104291
0.00672523
0.00631729
0.00871202
0.00384915
0.0111037
0.00114738
0.000426312
0.00137625
0.00316434
0.00138338
0.0012466
0.00156131
6.0011e-05
0.000723521
0.00459377
0.000394819
0.00200561
0.0067587
0.0170094
1.76132e-05
3.61799e-05
0.000382404
0.000431569
0.000154259
5.70802e-05
0.00017057
0.00672201
0.0112198
3.65388e-05
0.0109447
0.00672492
0.000275145
0.000212488
0.00230974
0.000561184
0.000365315
0.000790117
0.00672607
0.016713
0.000126537
0.0003853
0.00130259
0.0154884
0.000640296
0.000431379
0.000578866
0.0174284
0.00672685
0.00932624
0.00661705
0.000253691
0.000713067
0.00071636
0.000780332
0.00674231
0.00298225
0.0102946
0.00544278
0.00166757
0.00749035
0.0101109
0.017929
0.000663754
0.00336513
0.0020291
0.017213
9.68431e-05
0.00074079
0.00049884
0.00112143
0.00022926
0.00672326
0.000471162
0.00870661
6.56401e-05
0.0094319
2.23871e-05
0.00401375
0.000347521
0.00132759
0.0195872
0.00672961
0.00672818
0.0182791
0.00027193
0.000397828
0.00673241
0.0091422
0.00054211
0.0203201
0.0022133
5.20105e-05
0.000324639
0.00499715
0.0192376
0.00672495
0.00676397
0.00119782
0.00672523
0.000312961
0.00101273
0.000927015
0.000881169
0.000465826
0.000858297
0.00522438
0.000521586
7.15282e-05
0.00672576
0.0105234
0.00787948
0.00672533
0.00672573
0.00672862
0.000328411
0.000229868
0.00496494
0.00171853
0.000428944
5.31439e-05
0.00835238
0.0247244
0.000884861
0.000313131
0.00673325
0.0139403
3.72789e-05