/*--------------------------------*- C++ -*----------------------------------*\
| =========                 |                                                 |
| \\      /  F ield         | OpenFOAM: The Open Source CFD Toolbox           |
|  \\    /   O peration     | Version:  v2012                                 |
|   \\  /    A nd           | Website:  www.openfoam.com                      |
|    \\/     M anipulation  |                                                 |
\*---------------------------------------------------------------------------*/
FoamFile
{
    version     2.0;
    format      ascii;
    class       volScalarField;
    location    "150";
    object      omega;
}
// * * * * * * * * * * * * * * * * * * * * * * * * * * * * * * * * * * * * * //

dimensions      [0 0 -1 0 0 0 0];


internalField   nonuniform List<scalar> 
18540
(
4.17501
0.0222779
0.0218333
2.92219
0.0254842
0.0328349
0.025498
0.0641565
0.0902329
0.0223386
0.0253325
0.0220078
3.38948
0.0220076
3.48428
1.25886
0.083456
0.029838
4.69858
5.86092
0.0491306
0.0931843
0.0221067
11.4537
0.061169
0.0385532
20.6056
0.070442
0.0310084
6.04093
0.0222714
0.0220302
0.140251
2.39439
0.0287752
2.95973
0.0968555
0.0219538
0.0217153
0.146275
0.0222518
0.0220829
4.36032
4.05066
0.0678892
0.0379351
2.44729
0.0218331
0.0460663
0.0365193
0.0220103
4.57787
5.62737
0.022247
0.0331025
0.0359978
3.52676
2.87352
6.09978
0.0216824
7.17363
0.0268505
0.029846
0.244376
4.48657
0.0218651
0.0862314
0.0221202
7.06364
0.0216902
0.0346866
0.0379208
0.16655
3.01489
0.0577351
0.141643
0.0721041
0.0220748
0.0289387
0.16038
0.0248535
10.3128
0.0219564
0.187307
6.07398
4.26984
0.022049
0.0221343
0.0279652
4.34126
0.261514
0.151476
0.0458316
0.021644
0.0260485
0.0223811
0.0250841
0.0406363
9.25497
10.2758
0.022151
0.0220315
0.149748
2.34144
6.59123
0.133497
0.0221894
4.25149
0.0302361
0.0250652
28.2918
8.62096
0.022085
0.0281867
5.01695
0.0372372
0.0378687
0.0408928
0.0283441
0.0328825
9.99061
10.776
6.71034
7.67493
0.0220319
0.0304812
0.0396874
0.037431
6.01422
0.156645
0.95687
0.0371266
0.0563164
4.18452
0.0218389
0.0216823
0.0252363
0.0302964
0.022379
0.0218593
4.56119
0.11584
0.0420578
8.43459
0.0217959
0.0217738
0.0401429
4.13759
0.0305767
10.3514
0.0218156
0.0226495
0.0218118
4.42475
0.482414
0.0846998
9.9387
0.0217991
0.0219547
5.26738
0.0812018
0.0486509
0.0222522
0.0218384
6.72118
0.0220061
4.1982
0.0357975
3.58364
0.0221117
0.0221365
0.032458
0.0249493
0.0275454
0.0222343
7.11626
0.026586
2.79989
0.459885
0.883682
0.0267081
0.0408422
0.0487007
0.14938
0.0255818
9.29045
0.022721
0.0248759
0.362682
0.0354975
0.0318452
0.0244189
24.177
0.0220371
0.0696056
0.0219554
0.0425222
0.217586
0.188255
0.0288353
0.0385651
0.147993
0.0355932
0.035738
4.02052
7.11462
0.0220096
2.96604
2.80429
0.0390023
0.0220341
3.78963
2.78599
0.0221752
0.0461855
0.039402
7.33888
0.190364
15.3683
4.49797
4.37702
0.0837173
5.10016
0.0797963
1.92554
4.67774
0.0351109
0.0383396
5.45296
0.0579263
0.0253733
0.363667
0.173062
0.0250026
0.0222611
0.0266091
0.0220491
0.0304847
0.0784171
0.0358238
0.807347
0.583209
0.267476
0.0350391
3.98368
2.73119
0.0222534
0.021786
0.0343133
0.0222127
0.09209
2.73508
4.12674
0.0227224
0.0260806
0.245385
0.382359
0.310952
0.0220064
5.05729
0.200516
3.15588
0.022225
15.8587
8.41432
0.0344825
7.70378
6.14494
0.0219504
0.0221674
6.66061
7.60494
38.893
0.0230653
0.157085
3.28898
0.0218034
0.0505691
0.270571
0.0219642
0.0221676
3.5877
0.0256204
0.0220495
2.73629
0.021697
0.915288
0.0554427
2.89267
0.190334
4.46038
4.44219
0.0492226
0.0219505
10.353
0.0628065
0.278083
0.0392197
8.95588
0.0731567
0.0221172
6.34014
0.551549
0.0560027
0.096922
0.0220256
0.782188
0.0218226
0.338994
0.0220386
7.36612
0.0225229
3.22585
0.0427056
3.5316
2.16569
3.37629
0.0220113
5.18524
2.97231
5.02423
0.657221
0.0221586
8.49502
0.0250611
0.0220888
0.0488091
0.0279835
0.0220094
0.0219747
0.0217797
0.109543
0.18833
0.0289612
0.963866
0.140958
0.0221044
0.0221725
7.52652
0.0559244
0.0380079
0.0413113
0.0242967
0.0919372
0.358877
0.233166
0.0219624
0.0890541
0.0251021
0.00380246
0.677657
0.0221759
11.2477
0.0223472
0.0221678
6.48635
0.0221596
0.0218095
0.0219978
4.5002
0.064097
0.0218453
0.0220317
0.0266319
4.94505
0.0489372
0.0216411
0.0220749
0.0221442
0.0220161
3.05026
0.0217844
0.253847
0.0247145
0.0221689
0.633925
0.0220436
2.70279
0.0251152
33.7317
12.752
0.0218273
0.0919015
0.379291
0.0308163
0.021768
0.147077
5.98936
0.0221911
10.6403
6.89756
0.0218335
0.0275108
5.26905
3.06985
0.0220772
2.93361
2.93567
0.0221979
0.935426
15.2283
4.16082
0.0249027
0.0221646
0.0436496
0.0218067
3.93328
9.22705
0.0222843
0.0793028
19.4291
3.35219
0.192688
0.0218446
0.0450427
2.60929
0.0221655
0.0365644
0.316931
0.207667
0.487305
4.21386
0.0220211
4.74899
0.0217553
0.0515973
0.0217482
0.743958
0.0284341
0.0362043
0.0219793
3.18802
0.047744
5.70493
0.0248491
5.66541
0.0221158
0.021686
10.0558
0.0220092
0.158347
0.0250966
0.083399
4.06925
0.0220105
0.0221966
0.0221352
4.6202
0.0220097
0.0216999
7.98928
2.93064
0.0217383
0.0216876
0.022068
0.0221051
0.0442301
0.0220121
6.22463
32.8397
0.0260113
0.0222028
0.0481572
0.0277533
0.0221643
0.0472438
6.69149
0.0275819
0.306987
0.150712
7.07032
0.0910561
2.91983
4.1892
0.275213
0.0215841
3.24019
0.0220173
4.41741
0.0215556
0.052636
0.0216148
7.48064
0.0222538
0.0277347
0.0280261
0.0555732
2.96448
0.0220078
0.0230488
0.946787
0.0753736
0.122863
7.91707
7.21611
3.88167
0.0282715
3.31484
0.214576
0.0247823
0.28908
0.0936042
0.0216554
0.171142
0.0222753
0.025454
0.483192
0.0225922
0.103984
2.83291
0.0221093
0.0221067
0.0220851
0.0775657
3.76083
0.0246899
0.0272073
0.0219173
6.46881
0.022112
34.8231
0.022071
0.137239
8.86334
0.0540102
0.0215807
0.0221086
2.94427
0.0219218
0.022049
5.84186
0.500663
0.0501547
0.0221233
0.0222557
0.0224539
4.88397
0.809306
0.0335473
0.0220321
0.0221854
0.0349058
0.282277
0.0650382
0.0294231
0.0215863
2.80164
5.11317
0.025401
0.0347468
0.0265238
0.0218514
0.186278
6.49406
0.0216059
0.0433972
0.267662
13.9373
3.44294
0.0219959
0.0252047
0.0278616
0.0217219
0.0259206
0.0235328
3.02721
0.0218515
0.0958614
0.0259141
0.0421942
0.0216564
0.0222675
0.258954
0.02259
0.437058
3.64762
0.0218467
0.0278319
0.0220745
0.0218612
0.126928
0.022173
6.43849
4.28945
3.26573
0.0331869
0.0219978
0.0220065
0.025737
0.401106
0.0380686
0.021475
0.0220709
0.0222512
4.84945
0.0220093
0.0218865
8.00392
0.0231579
0.0217096
11.4216
0.0760199
0.0219897
0.0515475
5.50871
0.0309429
0.041681
0.0221584
0.022061
0.0800051
0.0281693
7.28872
6.97126
6.02329
0.0220075
3.45853
0.0220126
0.0222684
3.85633
0.0222302
3.7673
3.89585
0.0226079
3.01259
0.290615
7.12963
0.0625504
0.0258577
0.532972
3.95744
0.0290419
2.79738
3.4063
2.78499
0.0222563
0.0223768
0.0237982
0.309685
0.0215921
0.031694
4.02002
3.0531
0.0223326
0.0440195
20.1633
0.248562
0.0240694
0.0338316
0.0220723
0.0246621
2.75539
0.0219897
0.0220762
0.0218735
0.0363982
4.07326
0.0219833
23.9978
0.0221011
3.45863
0.0219949
5.81079
0.307648
0.0263438
3.02723
0.0630361
0.02213
3.92445
3.94998
0.0439036
0.0257059
1.53662
3.39895
0.0999461
11.2501
0.0226645
5.44721
5.22331
0.0220088
0.0220532
0.0223324
0.021864
3.50977
0.0277686
0.0249572
0.0293138
2.79439
0.0334765
0.0248319
0.023561
0.0226547
29.4257
0.730031
3.25105
0.029511
3.08721
0.0216731
0.0560493
0.0247026
5.17576
0.0421023
0.0217095
0.0231304
0.0222904
0.0216832
0.0217087
0.467203
0.0275555
0.0718448
5.38015
0.0217184
0.0223199
6.74933
3.82457
4.00901
0.0221333
0.0221625
0.0312445
0.0218253
0.10095
0.243027
0.0243004
0.0222763
0.0221465
0.03331
0.0329918
0.0490153
0.0220571
0.0222697
0.0332553
0.269431
0.025999
0.0280435
0.060616
3.32128
0.0221704
0.0233629
4.2032
0.136903
0.0656107
0.0219771
0.0880595
15.1029
0.0800127
0.0300705
0.0309661
2.71593
0.02191
25.4596
0.216327
4.31673
0.021951
0.0219833
0.0222207
0.0218841
0.0935308
0.0245209
0.0367341
0.0217609
0.0222414
5.02118
0.0221595
0.0217914
0.0218598
2.81407
0.397707
0.021759
0.0322907
0.124146
0.0353661
0.0420611
0.0621271
0.140246
0.120206
0.0233318
0.12156
0.0219773
0.707471
0.0417281
0.0218294
0.113581
3.76814
0.0220467
10.292
0.0680494
0.116123
0.0223838
18.366
0.114754
0.0480714
0.0251812
0.0442835
11.1021
0.0220173
0.0235145
2.78593
0.0260825
0.0332057
0.376353
0.0393038
0.0298342
0.0270187
4.01788
0.0248797
0.02242
8.54307
0.023148
0.0217937
0.527542
0.0218874
0.0303507
0.0219551
0.0597571
4.00318
0.0221739
0.0245913
3.04572
0.0218589
7.69146
0.0220075
2.41391
0.0218063
0.0224304
0.0240395
2.80375
0.031502
0.0440046
0.028222
0.0319513
0.021805
0.0266573
3.28892
0.325146
0.0222779
4.95149
0.141118
0.0328694
4.74582
0.0220063
0.0222304
0.0220183
21.2441
0.122192
0.0219412
0.0216154
0.0218624
22.036
0.0256085
0.0224646
0.0877449
0.022018
0.0224616
0.344411
2.34615
0.026147
0.0218663
2.96264
0.0222379
0.0265198
4.86572
0.133983
8.60514
0.0218002
19.6143
0.0224646
0.0258493
0.0218384
0.0221013
12.918
0.0695593
0.021823
5.28881
0.0221747
0.0471378
7.03065
0.0221009
0.0706906
0.429093
0.0300262
12.1207
0.0221669
14.0474
0.0221489
6.05382
0.0702122
0.0222386
6.51166
0.024115
0.0303367
2.41648
0.022127
0.0222463
6.13678
0.0306605
7.49274
0.0221618
0.0221405
0.110518
3.26926
0.0248839
9.92812
0.0221049
0.0221619
0.0257195
0.0219701
2.05159
3.87708
0.0223264
4.01034
2.30285
0.0219775
0.0219766
0.0219869
0.156645
0.0410509
0.0420159
2.73485
0.0222898
2.85273
0.0510377
2.72263
3.13592
0.0222202
6.25254
15.0534
4.08859
3.25335
0.0220217
0.0218647
10.528
0.0343966
4.39
8.73016
0.021876
0.0304319
0.0220263
0.0249576
0.132914
0.0220194
4.15075
0.0278133
0.0612097
0.168943
32.447
0.0217984
0.0220078
0.0410563
3.33477
0.0286965
0.0670758
2.99761
3.10619
0.0232911
3.19894
0.0220079
0.220793
0.0221512
0.021843
4.89676
4.55613
6.40711
5.50564
0.0217349
0.0679752
0.0219458
4.94844
0.0216343
5.23744
0.0256743
0.0435561
0.0216444
0.0216309
27.4956
4.86906
0.0220144
0.0217684
0.0219999
0.0222708
1.65729
0.248356
0.0220054
3.82035
6.21047
0.0219908
0.0220088
4.085
0.167815
3.08321
2.74007
0.0566463
0.0218768
0.0221836
2.21794
3.56532
0.25863
3.59813
0.0343366
2.73292
0.0215491
3.40411
0.0239631
0.0993232
0.0220071
0.0223354
3.43419
0.0250993
6.61785
0.0216976
9.47833
0.0282436
0.0350722
2.22079
4.13525
0.0427417
1.88305
0.444821
0.0233516
0.38166
5.66441
10.818
4.52686
0.0495779
0.0271799
0.0222583
0.0386597
0.0220094
0.0218421
3.88394
3.42897
0.0221727
3.89565
0.0221208
2.36899
0.0221833
0.0221807
0.0219852
3.21443
0.0221624
1.95691
0.0221341
0.0215497
0.137614
0.0235181
10.8888
0.112495
0.0219954
0.022111
28.0232
0.037265
3.55711
0.0220754
0.0548265
0.0239875
0.1746
0.0251891
0.0216204
0.0509412
0.021761
0.395928
0.0219836
0.0217422
0.0217892
0.0249391
4.1196
2.7759
0.0532035
0.0459056
0.0220074
0.033874
3.87433
0.0220055
0.0219997
0.0752066
4.88356
0.0229563
0.0238332
0.0264895
0.0478352
0.125724
2.4835
0.540127
0.0251797
0.0221004
0.0216479
0.0228373
0.0224489
0.0758255
0.0220511
2.22341
4.45066
7.98404
0.0294959
3.00314
2.61706
0.0310883
0.036004
0.0360638
0.0217168
4.71629
0.021782
0.0596938
0.0332876
0.0218005
0.0254097
2.92004
0.348156
0.0224118
0.0253896
3.80542
5.56456
1.32809
0.0218003
5.72494
0.138149
0.0338624
4.34506
0.0221376
0.0221771
8.12776
5.96075
0.146431
0.0220018
3.46205
4.11811
3.60202
0.0468241
9.6169
0.0221274
2.77524
0.0478847
0.022154
0.0372485
16.6626
7.48248
0.0221378
2.65964
0.0226468
0.0266701
3.88749
0.0221886
0.0510504
0.0301044
3.94612
0.0337929
0.0215214
0.0475542
0.0220425
7.31665
0.122442
2.01294
0.0217157
0.0358781
0.021708
0.0222606
0.022199
0.187138
10.3504
0.0221446
0.265882
0.0376961
21.5198
0.021878
0.486062
0.250988
0.0789269
0.022262
0.628544
0.0221672
0.0218034
0.0222773
0.0217169
4.55499
3.61696
0.0222778
0.0222737
5.66352
0.0218003
0.0430464
0.0219676
0.0217634
0.0218691
0.0221195
2.4383
0.0220008
0.0233744
4.337
2.87423
0.0290835
0.0220708
0.0222549
7.76664
0.0221562
0.0220465
5.08576
0.0222686
0.0222582
0.10445
0.0427578
0.0218102
0.0231679
6.2148
0.0771661
4.81124
0.0220724
8.87528
0.121154
13.3438
11.0002
14.5002
1.12963
0.0642354
3.20453
4.8349
0.320623
3.08155
4.36917
0.0216963
0.0222801
0.023383
4.91437
0.021788
0.022106
0.0217972
0.0250186
0.0217297
0.0218426
4.36435
6.66357
0.0221477
2.73765
0.103994
0.135186
6.4628
0.0218135
0.0225355
3.31009
0.520494
0.0222667
5.93541
0.0221815
0.034949
0.0221736
3.83959
0.358658
5.40572
11.7744
0.0228595
0.457162
0.0216805
3.90153
0.0240641
8.75377
4.67314
0.34575
0.0221718
0.040235
0.0222082
2.48851
0.0272891
4.78588
5.00504
0.0219266
2.66441
4.33142
0.0218621
0.0219543
0.0219723
0.133493
0.0217225
0.680645
0.0344381
0.0377909
4.36836
0.240371
1.94927
0.0215944
5.5556
0.021856
0.0605147
0.0219241
0.0221776
1.19435
5.55685
0.0218822
0.0693705
0.022014
0.0219745
0.0240559
0.0218864
0.0465902
0.0497039
4.4394
25.7667
0.0217883
2.16182
8.85471
5.43378
2.77809
0.0220093
0.0217274
0.0289219
0.024196
0.0528421
17.1148
0.0219225
0.154151
1.08696
0.0261181
0.022268
3.20497
3.61095
6.02903
0.0392317
0.0236406
0.262059
0.0215206
3.59783
0.026655
0.0215111
0.0217913
11.4442
0.0353408
0.0220662
0.159252
0.0221626
0.0217826
2.6336
0.023475
0.0229791
0.0219598
0.0216996
3.06557
2.80773
6.06421
0.0342181
0.0221483
5.45136
4.67607
7.37276
0.0215074
0.124088
10.6526
0.119141
4.70595
0.0229899
3.9948
0.0221864
0.0218539
7.62246
0.0222729
0.0219086
2.94892
3.9545
0.0395519
0.0338931
0.10611
8.63683
0.022529
0.0324785
1.07423
0.0268962
0.022179
0.0277162
2.73655
0.0216886
2.74759
0.0628143
6.82195
0.0264354
5.65002
0.0215892
0.0219944
4.07224
0.0472389
2.74283
0.0254788
0.0216676
0.0222457
0.0219189
7.03095
4.86151
0.193423
5.61001
0.0345355
0.021881
4.67226
0.0216912
0.0327296
0.0695343
0.0273004
0.0245263
0.0218789
0.0271059
0.0238977
0.0454784
4.35122
0.039823
10.4686
0.0220069
0.0318255
0.0343943
0.0220162
2.2306
0.0222235
0.147746
10.5188
0.212955
0.0335722
0.0407457
0.0222886
0.0218057
3.38352
4.8123
3.62547
0.0216943
0.0221653
9.65881
0.345154
0.125741
0.0217925
0.0219774
0.0229112
6.01503
6.52187
0.41257
0.34421
0.0509355
0.0426523
14.4135
5.78587
0.0221133
0.236991
0.0289321
0.0219093
0.0218031
0.0556417
10.0621
4.95186
6.30903
0.12388
0.0216938
0.0219618
0.288261
0.515282
1.02858
3.26455
0.0407574
0.0222013
3.31161
4.46035
0.0450179
0.0219605
18.4419
0.0221713
0.0222493
4.35637
0.0627205
0.0240096
0.104923
4.29835
2.89928
0.0464163
0.0215098
0.0220142
0.037335
0.0223079
0.0220602
0.0221438
0.0304043
2.79889
0.104927
0.0226534
0.0219605
3.87316
4.95862
0.0220973
0.0293745
0.0220583
0.02632
0.022173
0.0218979
0.0243796
7.24494
0.0222774
0.0263043
0.113861
0.145449
4.33339
4.23311
0.0474085
0.165024
3.53263
6.6826
0.360889
0.021911
0.0397655
3.91407
5.18834
6.54412
4.56382
0.0252584
1.23995
6.84318
3.04142
0.0319786
0.072823
3.98958
1.21439
0.0750214
4.97041
2.1114
0.0219733
0.0219132
0.0234547
0.17227
0.103013
0.0352473
1.90067
7.36265
0.476252
3.82201
0.0505235
0.0248176
5.26691
6.10239
0.307084
0.0239109
5.28726
0.0218208
0.086175
0.0221624
4.05474
0.0225353
0.0228163
0.0217206
4.96947
0.0218792
0.105975
0.0247581
4.62147
3.64756
0.0380379
1.04945
0.0248266
0.0219717
3.85926
3.61761
0.0220637
0.0223781
0.23743
0.0563006
0.0219708
0.0221468
0.0222798
0.0859774
0.0445135
0.0223106
0.0221281
5.34241
8.53629
3.02163
0.0473837
2.93642
0.0237906
0.0224737
0.0223046
4.35631
0.0218822
0.0220364
1.10492
0.0582837
0.0221473
0.14705
0.0250573
0.0221547
0.457793
0.120121
0.0225164
0.0347176
2.79048
0.0220054
0.0235394
6.72311
0.0220284
0.117994
0.031271
0.0219897
0.0330196
5.87247
0.0219637
0.0389658
7.0313
0.0225341
0.0219846
4.06955
0.0220242
4.84584
0.147825
0.0216558
0.286867
0.0719325
0.0220105
4.75447
5.13239
0.0221605
0.0331385
4.06585
0.0785197
5.75892
0.0218864
3.91473
0.0268447
0.0288144
0.126169
0.0221692
0.142339
3.53001
0.0220959
0.0216448
0.0217008
0.0219992
0.0220761
0.0871112
0.0292605
1.22367
0.0300629
0.0274102
4.11344
2.16148
0.022033
0.0223256
0.705443
5.09
3.08132
0.0500643
0.0221506
0.0257165
0.0800877
4.87549
0.0682707
3.85281
2.65412
0.34508
0.0289475
0.0959144
0.0219124
0.075217
3.58312
0.0218452
0.0217137
0.0222753
3.14952
0.138167
5.39302
0.0702213
0.0662409
0.0220465
0.0219334
0.0214756
0.0220072
0.0218887
0.0218688
0.0485954
6.86322
0.0220221
0.0430366
1.19943
3.41034
0.0219831
0.0222328
0.0216969
4.3873
0.0221864
0.0246056
0.0482999
0.0270954
0.0456145
0.0570105
0.0227338
0.0235554
6.97609
0.39439
1.07948
0.0228644
3.51368
0.0238
0.0279593
0.0222191
2.99493
0.151953
0.0222169
0.0219771
8.85253
0.0220729
0.0243022
0.0258861
0.0222878
0.0220072
0.0221505
5.04894
0.0234058
3.46099
0.0220593
4.0135
0.0318868
0.546416
0.0340735
0.0339552
0.0396573
0.0221691
0.0254399
7.76548
0.0381538
0.131591
0.0220106
0.321861
0.0399774
0.13684
0.130709
3.40693
4.28316
0.0218398
3.78786
0.0598779
0.0218418
4.19254
0.0344122
0.0374595
4.30797
0.03059
0.0805306
0.0265284
0.0250918
0.260194
0.146321
0.0221762
0.0220389
1.22827
3.52781
0.0985085
3.16203
0.0671098
0.0218672
3.8103
3.99705
0.597258
3.60049
1.72715
0.173723
0.0447708
0.0220875
0.022101
0.0244658
0.0234925
0.0216518
4.18013
0.128244
0.0218511
0.63851
0.0226304
2.75896
0.310735
5.33527
7.28912
0.0558831
6.49211
0.0449479
0.0399162
3.39229
0.392813
0.0216954
0.0221804
5.02284
4.28145
0.0218766
6.12212
0.021997
0.0217121
0.111667
2.7358
1.22197
12.0207
0.0218759
0.0220956
0.0218971
0.0215875
0.021872
0.0763374
8.57195
3.04464
0.0273557
0.0227947
5.14145
0.0219612
0.0219231
0.0537161
0.0298262
2.64424
4.06842
0.053414
2.97766
0.0221859
3.80699
3.07461
0.0221269
0.0340124
0.030918
6.44767
0.0220112
0.0220023
0.0220116
0.0420287
10.3788
0.048442
0.0220999
0.0221565
0.0220015
0.0219725
4.31581
8.38691
2.28273
0.111293
3.39435
1.23994
0.0215833
0.0752109
0.0235638
3.19158
0.0790729
0.0283913
5.50548
4.43391
0.0219227
0.0261821
0.172673
0.0220056
0.0218037
5.72326
0.118317
0.0222763
0.0216144
6.874
5.50403
0.0222002
0.0476933
0.111911
5.78178
0.0221428
8.4099
0.0323966
4.03404
4.33209
2.81148
2.68414
0.0221021
0.0219693
0.0220263
3.64695
3.92229
0.0220218
0.328223
3.95919
4.02394
2.17885
0.0219646
10.8478
7.34764
0.0220879
0.0306204
4.27041
0.0479222
25.9992
0.0222797
3.07634
0.0222666
0.549176
1.00401
0.213091
0.0226066
0.0256162
2.8668
0.0222926
0.0217823
0.0870328
0.0222784
3.5439
10.3029
1.61339
3.83255
0.0558607
0.0979394
0.0217678
0.298472
0.0218495
0.032533
0.021966
0.230093
1.85039
0.0219709
9.33584
0.0222818
8.74353
3.23282
3.73492
0.0217809
6.7733
3.32515
4.45851
3.79127
0.0221171
3.38552
11.9741
0.021999
10.2522
0.0493395
0.108002
0.235046
0.036847
4.64494
0.188988
0.0309536
0.0288373
3.68725
4.27029
0.0224976
0.0999018
4.05535
2.84153
0.578504
6.61048
0.0299506
0.0219193
0.0222511
2.75656
0.0221367
0.0220704
0.0644665
0.0227332
0.0219715
3.13946
0.0222066
3.93479
3.8308
0.0267926
0.124672
3.52863
0.0232985
0.127695
0.100934
0.0217623
0.245142
0.406989
0.0214977
11.4067
0.0462995
0.0219267
0.0230374
0.035312
0.0219024
0.0217873
0.0358281
0.0253219
0.103375
0.0791092
0.0495235
0.0276011
0.0991397
0.0236134
10.1927
4.2079
0.0220569
0.0360427
0.0693166
3.79938
2.92514
0.162684
2.32728
0.0522821
0.02537
6.95473
0.0222688
0.0746679
3.88517
0.0222695
15.2709
0.0224267
0.0220845
0.059397
0.0218381
0.0301528
0.0669561
13.4822
0.101826
6.87475
3.97292
0.023432
0.09547
0.0285994
0.0219177
0.02181
0.0214889
0.161928
0.0221755
0.021978
0.585587
2.45572
0.0216198
0.0220132
0.348141
0.0221092
0.0217663
0.0220425
0.0219245
0.0466077
2.84227
0.0354536
6.52668
0.17533
0.0227402
0.13763
0.0221996
0.0235683
0.0289914
2.99089
5.29127
0.0295834
0.0258885
0.0216389
0.0242441
3.46313
0.0221315
0.0345363
0.0220189
0.022082
5.77998
2.2659
0.0218631
0.0220932
0.0217126
3.81115
3.04442
0.0246274
0.0222611
0.0329395
3.66416
3.32903
3.35321
0.0221935
0.0219664
0.0220624
0.0500948
0.0247129
0.149093
0.130244
0.248643
0.034004
0.0221863
0.0222022
0.122054
0.0220564
4.09879
0.0219043
0.0221696
0.0715036
0.022137
0.033744
0.0257272
0.0216121
2.84696
0.0218109
0.0308463
0.0220081
7.63285
0.0219312
0.153283
0.02181
0.0218954
0.0221699
0.0279041
0.0219995
0.0219977
3.66201
0.0304917
3.78979
10.1205
0.0727858
8.02969
0.0922156
0.0962658
0.14776
4.78857
2.73623
0.0220117
0.0219708
0.022087
6.62422
3.08571
3.08884
4.02455
5.13811
0.0247629
4.32195
1.30929
1.99701
29.238
5.28319
4.56705
0.0329218
0.0312055
0.11659
0.149774
4.84717
0.0225679
0.0229768
6.02331
0.021878
3.54019
1.2176
0.0221015
0.0221228
0.0224311
3.38322
0.0219744
0.0228406
4.06309
0.0322424
5.56302
4.48608
16.4871
0.0220071
0.024698
0.0948392
4.58037
18.6956
0.0500295
1.09224
0.0868768
0.0217751
2.87669
0.0220763
2.83292
0.0218064
0.0218012
0.102842
0.035244
0.0220809
0.133359
0.0711121
2.05369
3.6875
0.022261
0.0267551
4.57743
0.0222114
0.510432
4.38866
3.30001
0.0392758
7.95152
6.25967
5.10077
0.0399586
4.58724
5.8482
8.51184
2.44809
0.0222699
9.24304
4.88553
2.63193
2.87376
0.0244418
5.71785
6.92411
0.0232986
0.021576
0.0351624
0.0219727
5.72223
2.80323
0.12679
0.0310639
0.02228
0.0224351
0.0234558
3.76362
3.88261
0.217191
0.0287436
3.82349
3.47591
0.0279097
0.0407757
0.0388868
0.36452
0.0220117
0.0371895
0.0222775
0.021574
4.30622
2.81116
0.0448339
0.0848995
0.0538424
0.0229409
0.0219819
0.0218189
0.0304859
3.26148
0.0430967
0.108157
0.0215015
0.022259
0.0218669
0.0221846
0.0227071
3.25681
0.122975
0.0488365
0.0622796
0.257503
0.0477359
0.0449059
0.114414
0.021875
1.51912
3.36801
0.0321237
0.624849
0.0222189
2.78129
3.08004
0.0218757
8.61281
0.029898
5.7063
0.0515394
0.0219133
0.923622
9.5298
0.0273423
3.4121
5.29083
0.109895
0.0232191
1.02072
3.53019
3.13439
2.91615
3.07479
3.06576
0.0232812
0.0220839
3.34598
0.022011
2.89319
2.80958
0.0220135
0.0234171
0.0222216
3.84031
4.27224
0.0219789
0.022168
0.0249249
0.0375445
9.29929
2.24334
0.212608
0.0248536
27.0748
0.0394661
0.0216336
0.0431924
0.0332791
2.75271
3.85934
0.789778
0.0229593
5.74491
0.0340491
2.92459
0.0216459
0.0220266
0.0217048
0.406301
0.0268062
7.29844
0.312566
0.0995849
0.0220519
0.0474584
3.04578
4.46182
0.0222741
0.0315945
0.312044
0.0214979
2.75918
2.85031
15.6715
3.09213
0.0219908
0.0215503
0.0220063
0.0220231
0.115183
7.30958
2.87717
0.073887
0.021569
0.0278559
0.0219912
0.0229472
1.0474
2.6738
0.0250601
3.84346
2.92628
3.80027
0.102235
3.12203
0.908478
3.91144
0.0222285
0.171917
3.44919
0.0246708
0.0247217
0.09466
3.46777
0.112341
3.15776
0.310255
0.0268972
0.021814
0.1061
5.04979
0.189211
0.0229742
5.8712
0.0910231
3.25923
8.06573
4.08111
0.0220204
0.22718
0.195144
0.0290634
4.17685
0.0322894
6.39103
0.0221922
3.34142
0.022009
0.0222162
0.0674329
13.849
0.0478057
0.120846
0.0218156
0.108299
3.00729
0.030978
3.7121
0.0222659
0.228939
0.0220678
0.0218131
0.254086
0.0218876
0.119113
0.0539224
0.114661
0.02389
0.207329
2.68901
2.97109
0.0216531
5.76459
7.69097
9.81647
0.0552722
0.273593
3.55286
3.79161
0.023691
0.390223
0.0216185
0.0220873
0.399992
0.0220879
0.21232
5.77497
0.311174
0.0256673
6.8202
0.0220888
4.51477
3.05895
0.0251737
2.83027
4.02429
0.0219257
2.6939
0.0263517
0.0246035
0.0484973
0.0315671
0.022014
2.04881
0.0221977
4.30627
24.8545
3.08905
0.158074
0.0289847
0.0348121
3.5053
0.0221509
0.0624974
0.0560204
1.19105
0.0815385
4.5879
0.0859342
0.164541
3.5554
7.98313
3.93337
0.189128
0.0219944
0.021996
0.0221829
0.0407041
3.53665
0.0260082
2.68754
8.00625
16.0062
1.4498
0.0219639
0.0635688
0.0216578
5.94708
0.0222728
0.0236573
4.79187
0.0233295
0.848846
0.0566266
0.022189
3.22816
1.58716
10.3968
2.83558
0.0394926
3.55994
0.252684
0.0429644
0.0756429
3.9563
0.024965
0.022881
0.02208
0.105908
2.98508
3.25057
25.9953
4.57296
2.84661
0.0216855
2.0818
3.60429
0.251696
0.0413457
0.022007
3.32206
0.0228877
2.81136
3.277
0.0221205
4.44324
10.2911
9.66851
0.0220062
0.0217188
0.0216922
10.3351
3.27554
0.0219867
8.90775
3.45768
0.0219744
4.27243
0.0231781
0.0479554
0.0270843
0.0220746
0.0229118
10.1096
5.68043
0.0698053
0.333899
0.0219963
0.109084
7.78563
0.0216645
4.43144
6.4108
0.388151
0.0807833
0.0714258
0.193682
0.225379
0.0442895
0.0219212
5.16007
2.34777
7.8597
0.0220571
0.115019
0.0401675
0.0221432
0.111921
0.0317164
0.0237012
0.0222577
2.88806
0.0472674
0.104707
0.0253469
3.33344
0.0350071
0.307585
0.131879
3.01564
0.022165
2.83577
0.0220138
0.0302254
0.025524
0.351827
0.0354556
0.0217575
0.0221083
3.82827
0.0219142
0.0265538
4.55927
3.37587
4.44074
0.412462
3.68882
9.70448
2.7611
18.3732
0.133312
0.0271679
0.0270849
0.0374113
0.0219261
0.0474484
5.74423
0.126336
3.22071
0.531082
0.0221808
1.34596
0.025146
2.96502
0.0219935
0.0220097
3.91595
0.260706
0.220054
0.0215151
3.71777
0.0266835
2.87238
0.022286
0.103329
0.0862886
5.47939
2.98403
0.0221101
0.0217934
0.0234114
0.0221358
0.0347078
16.8974
0.0338603
0.0318584
0.0347482
0.0233477
0.0218669
0.175071
2.9613
0.0219653
5.53489
3.27219
0.0222071
0.022176
0.0220155
0.456661
0.0354625
10.0104
0.0223526
0.313777
0.823908
3.71439
3.53127
0.0272899
11.8897
0.0216716
4.83227
0.566973
0.0286309
0.0219964
0.179016
0.0221779
0.0218079
0.0220724
2.78562
5.4766
2.60795
0.0272851
3.36176
0.0221901
0.0221899
0.0320083
3.03286
0.0215526
0.0221449
0.0321446
0.0242418
2.78301
3.19055
0.0918691
0.03218
0.105404
3.30108
0.207993
0.023422
0.0215545
0.192438
0.081392
2.97084
0.416594
4.63606
0.0349503
6.96456
2.89076
0.0529897
2.99378
3.02338
0.021667
0.021706
9.66657
0.0329547
3.21213
3.42801
8.93413
0.0233789
7.65445
0.0220503
0.0224931
0.022019
10.2755
0.0242441
2.94486
0.0223924
0.0981544
4.12863
6.10191
4.25264
0.0359797
3.25269
0.0220114
0.0220895
0.0220837
0.0217945
1.21851
4.71536
0.0220646
4.68732
2.97062
0.706341
2.22381
0.19105
4.47957
0.0519319
2.80941
5.82904
0.0306064
0.119542
0.0440654
5.4522
0.0218243
0.0241953
3.78372
0.032147
0.0221144
0.0220651
3.41917
0.0236131
0.207986
0.0219081
3.30567
0.0313118
0.047622
0.0262332
0.254879
0.0911657
6.17169
0.0275511
0.0218214
0.0216739
4.32116
3.29523
7.19839
4.35448
0.0258376
4.7088
0.0265291
0.356018
0.100588
3.53567
3.07722
0.0220843
2.84987
26.3227
5.64769
0.0430043
6.15603
3.92483
0.0275892
4.30695
1.87176
0.10051
2.89884
0.0249215
0.041499
0.0517007
0.0266467
0.021894
0.0602183
0.270541
2.64829
0.0225142
3.67831
0.0257447
0.0384507
0.030743
0.0221548
0.0220023
2.27668
5.88811
14.8312
0.0260494
0.0217485
0.0224629
0.0220579
0.0345062
0.0227333
3.59019
0.909478
3.05036
6.26133
0.0221951
0.171662
2.8559
0.0238174
3.95559
4.26258
4.14243
0.0219869
0.0221798
3.97751
5.83371
0.256884
0.0458257
0.0219665
3.6318
0.0231439
0.028767
0.0538392
4.97308
0.0235611
0.0219956
2.40318
0.0783095
3.14226
2.97407
1.93847
2.30623
0.0219031
0.3704
3.98019
0.0964429
4.02861
0.170578
0.029687
2.94391
4.20712
0.0224967
0.0686389
0.0307433
0.0219891
8.62372
0.234891
21.0102
4.48045
0.140847
0.0248991
0.113579
0.0667119
0.0217068
0.0506993
0.0255388
0.0218163
0.0331203
0.0228811
0.0327743
0.062137
4.98029
3.44238
0.673563
6.73359
0.0886602
0.0224259
0.0285433
2.99756
0.0225711
3.2748
0.213512
4.24848
0.033779
3.79794
0.0448101
3.0953
0.0250094
7.05002
6.72364
0.0224455
3.63788
5.46008
2.93464
2.58702
7.99599
0.0356713
6.05976
6.71883
8.379
0.0404609
0.350047
0.0216567
9.33429
3.02153
0.508076
0.50773
0.0562109
3.30552
0.0660677
0.0220042
0.0220289
0.0217104
3.98396
3.9067
0.0220291
0.0583256
0.021954
2.98398
0.0310376
0.0228682
0.231961
0.0244222
0.0267048
1.21822
0.0577145
0.0825194
0.0269973
0.0318146
0.021907
7.37219
1.11421
0.0224183
0.0293208
0.0755554
6.18266
0.022897
22.7326
0.0224999
0.0365189
3.35865
1.23272
2.85931
0.745784
0.0216406
11.1276
3.61603
35.0004
3.43059
0.0315767
7.95881
0.0921023
0.0287013
0.34772
23.4906
0.0831424
2.83791
0.0257153
0.0218229
0.0230978
0.022341
4.46538
0.480757
1.63035
0.124227
0.0225814
0.0221798
0.0351219
0.0227986
0.0411151
5.56035
2.97984
0.0292128
0.0223996
2.7603
0.022051
0.0663833
3.44973
0.127877
0.050625
0.0257483
0.0226579
3.97625
0.0219727
3.23096
0.0563978
0.0220964
8.62249
0.0224893
2.93478
12.6434
0.0256015
0.0215848
13.7163
4.80518
3.35346
0.0218851
0.0214982
0.0236573
0.049072
0.0222312
0.0305797
0.0905106
0.0219912
0.0221298
0.0220992
0.454481
0.0230626
0.0232591
0.151035
8.4394
4.52674
1.36272
2.99731
0.070731
0.039118
25.0801
0.0254138
0.0316188
2.24068
8.61494
0.036843
0.0282073
4.16489
0.0428557
2.91832
4.12712
2.26708
0.0486667
0.0409927
0.0373416
4.45525
8.25521
8.11166
6.51534
1.39279
2.20875
0.0220927
5.00239
17.8475
3.81407
13.074
3.91881
0.0348353
0.0220245
7.47718
0.0380173
0.0247029
7.30647
0.763485
0.0521282
2.86738
2.83283
0.0220137
0.0780445
5.33473
0.0222751
7.71487
3.61457
0.0582781
0.0364454
6.72589
0.593176
0.0540764
4.07754
0.0220395
0.128817
0.058329
0.0370726
2.1052
0.0651571
0.0724125
0.0667769
0.668637
0.022278
4.4667
0.0257223
0.0335162
0.217495
28.6708
8.83981
2.20315
0.0242575
1.83049
0.670046
2.70014
3.92226
2.87356
4.18698
6.15425
2.81128
0.0234962
2.14062
0.21569
0.477728
0.0222211
3.97885
3.02304
0.026461
2.69285
0.372428
5.56628
0.0220912
0.021796
0.0216352
2.85805
6.85818
0.0220511
4.37873
3.98166
0.0221581
6.2329
2.43518
5.95725
3.02523
2.45459
0.0220465
0.0418144
16.7007
4.78144
2.18547
0.023007
1.87433
2.90871
1.25029
3.28684
6.29644
0.0366484
0.239234
0.0286626
0.0221675
0.0218206
0.0220091
3.38435
0.0278349
0.0272633
2.61861
0.402475
1.17576
0.0221009
30.0947
0.0218692
2.95663
0.0235566
0.022181
2.95236
29.6607
1.89548
0.0259136
0.0299011
0.0222731
0.195389
0.0232704
0.279765
2.73716
0.282697
3.03366
17.5702
4.31875
0.187296
0.024643
0.0267423
0.0217928
0.0308239
0.0225423
3.27371
0.134522
0.04688
4.07154
0.0219345
3.63928
0.0407611
0.0220062
0.349892
0.114069
0.0245153
0.0263884
0.0798008
0.398291
0.0220789
0.0440669
6.06033
3.23005
2.69646
0.0235335
2.90695
0.119219
0.259203
2.96041
0.0222822
4.21144
0.101222
0.0260825
11.1979
5.83521
0.0220105
0.032145
0.0581941
0.0536715
0.0216582
0.0220985
0.0355881
0.0244569
22.2155
0.0479101
0.0963638
3.62611
0.0218961
0.028794
0.0216968
4.29926
0.0614443
0.0234791
0.0218446
0.0249016
16.428
0.0220625
0.0222805
2.01509
0.047103
0.0220641
4.45441
0.0242047
4.57089
0.147324
0.0455262
2.54238
4.15796
0.021764
3.01144
0.83476
9.73747
4.38814
0.0225833
0.0611254
0.0312477
5.19579
0.0222169
12.9545
3.00552
0.0232606
0.026819
0.0222671
0.0221272
0.0535706
3.22015
4.47343
3.8412
7.65368
0.0619857