/*--------------------------------*- C++ -*----------------------------------*\
| =========                 |                                                 |
| \\      /  F ield         | OpenFOAM: The Open Source CFD Toolbox           |
|  \\    /   O peration     | Version:  v2012                                 |
|   \\  /    A nd           | Website:  www.openfoam.com                      |
|    \\/     M anipulation  |                                                 |
\*---------------------------------------------------------------------------*/
FoamFile
{
    version     2.0;
    format      ascii;
    class       surfaceScalarField;
    location    "150";
    object      phi;
}
// * * * * * * * * * * * * * * * * * * * * * * * * * * * * * * * * * * * * * //

dimensions      [0 3 -1 0 0 0 0];
oriented        oriented;


internalField   nonuniform List<scalar> 
27506
(
-0.0246554
0.0151059
0.00954957
0.29617
0.206164
-0.502334
-0.250017
-0.125923
0.375941
0.00356567
-0.00642888
0.00286321
0.26609
-0.172788
-0.0933017
-0.239817
0.162763
0.0770544
0.166017
0.100073
0.0534476
-0.159652
0.106204
-0.0656666
0.0250781
0.0405886
0.154746
0.10776
-0.262506
-0.100948
-0.0716828
0.172631
-0.233303
0.34004
-0.106736
0.00824426
0.00171975
-0.00996401
0.0647089
-0.271996
0.207287
0.00780052
0.00493671
-0.0127372
-0.035465
0.112837
-0.0773718
-0.0416218
0.104016
-0.0623939
-0.0972538
0.118696
-0.0214427
0.000194752
-0.00158885
0.0013941
-0.0128704
-0.0104448
0.0233152
-0.0660036
0.00386171
0.0621419
-0.0592795
0.152402
-0.0931222
-0.495204
0.229269
0.265935
-0.00822411
0.0196814
-0.0114573
0.178447
-0.125
0.066347
-0.152095
0.0857479
0.005945
-0.00138458
-0.00456042
-0.0962141
-0.0591165
0.155331
0.0837485
0.127902
-0.211651
0.0726032
-0.0383427
-0.0342605
-0.0623859
0.358556
-0.419849
0.227059
0.192789
-0.0698195
-0.0554503
0.12527
-0.017249
0.0134732
0.00377584
-0.0868971
0.164452
-0.077555
0.00665891
-0.00309324
-0.137708
0.0784281
0.124397
-0.402201
0.277805
0.433549
-0.319959
-0.11359
-0.0197897
0.0614851
-0.0416954
-0.0730043
-0.34111
0.414114
0.404678
-0.132536
-0.272142
0.00757722
-0.00022945
-0.00734778
0.0405069
-0.055225
0.0147182
0.0746451
-0.170859
0.147662
-0.0813147
0.061156
-0.0774736
0.0163175
-0.393869
0.143851
0.0149361
-0.0809397
0.0792846
0.119919
-0.199203
0.298757
-0.234048
0.0064194
-0.00842591
0.00200651
-0.0220782
0.00920784
-0.580368
0.436691
0.143677
0.186516
-0.118669
-0.0678467
0.0608395
-0.22302
0.162181
-0.000422765
0.00866702
0.00830184
-0.0101768
0.00187498
-0.00931632
0.016908
-0.00759164
-0.324576
0.0137426
-0.00799229
-0.00575034
-0.126568
-0.0884632
0.215031
-0.17612
0.117572
0.0585479
-0.132001
0.0775088
0.0544924
-0.0301877
0.0129966
0.0171911
0.323655
-0.106486
-0.21717
0.0816797
-0.0659511
-0.0157287
0.589942
-0.426645
-0.163297
0.015218
-0.0160459
0.000827922
0.274462
-0.401471
0.12701
-0.162041
-0.0714114
-0.0297133
0.101125
0.122694
-0.159233
0.0365386
0.00898528
-0.00068344
-0.0847063
0.168236
-0.0835294
-0.127182
0.0754483
0.0517337
-0.119317
0.0776956
-0.450977
0.49128
-0.0403025
-0.153406
0.0561525
-0.0504573
0.122563
-0.0721062
-0.123761
0.203738
-0.0799777
-0.0250567
-0.0376884
0.0627452
0.297359
0.249827
-0.547186
-0.161075
0.0470555
0.114019
0.00992403
0.0038186
0.00899881
-0.00217534
-0.00682347
0.0436781
0.232955
-0.276633
-0.131673
0.473471
-0.341798
0.0574327
0.114587
-0.172019
0.00978444
-0.000785632
-0.128385
0.0953621
0.0330227
0.108504
-0.130417
0.0219129
-0.0544883
-0.0650515
0.11954
-0.466995
0.459537
0.00745731
-0.107136
0.250327
-0.14319
0.250441
-0.0956942
0.208787
-0.0992421
-0.109545
-0.204849
0.150957
0.0538924
-0.0175341
0.0119981
0.00553594
0.00744358
6.17356e-05
-0.00750531
-0.0736747
0.317462
-0.243787
-0.462369
0.478073
-0.0157039
-0.131792
0.0813351
-0.0987928
0.0633279
-0.00164395
-0.0101332
0.0117771
0.0553614
-0.125181
-0.282664
0.20899
0.0058916
-0.00621595
0.000324358
-0.113145
-0.0629751
-0.165747
0.194847
-0.0291004
-0.0105869
0.0105869
0.00767977
-0.016088
0.00840823
0.00474377
-0.455721
-0.222165
0.0871599
0.135005
-0.0021299
-0.000780374
0.00291028
0.1577
-0.0219112
-0.135789
-0.0804108
0.147797
-0.0673863
-0.0739242
-0.130925
-0.171761
0.0848641
-0.193172
-0.0466457
0.00292549
-0.00273074
0.0510839
-0.0304778
-0.0206061
-0.00625978
0.0129026
-0.00664284
-0.0185581
0.0372552
-0.0186971
-0.402142
0.394551
0.0075914
-0.133013
0.216762
0.253223
-0.0679624
-0.185261
-0.122467
0.0572778
0.0651896
0.00822738
-0.000650159
-0.0783031
-0.0488789
-0.106172
0.0850264
0.0211459
0.108666
0.0490341
-0.173575
0.0888683
0.0490772
-0.066653
0.0175757
-0.276569
-0.1173
-0.462969
0.0696165
0.393353
-0.183765
0.0828166
-0.113441
0.213041
-0.0995994
0.0610366
0.164956
-0.225992
0.23052
0.0931353
-0.0192649
-0.0109227
-0.0744147
0.140427
-0.0660118
-0.211914
0.133241
0.0786726
0.00710481
-0.0582083
0.313327
-0.255118
-0.199141
0.47968
-0.280539
0.169264
0.0839589
0.000336227
0.048741
0.0698714
-0.183313
0.0463499
0.00473399
-0.459237
0.297509
0.161728
0.251888
-0.0843748
-0.167513
0.119318
0.228627
-0.347945
0.00260574
0.000591089
-0.00319683
0.0527386
-0.00789908
-0.0448395
-0.0240462
-0.0416204
-0.0463973
0.0213405
0.238413
-0.296622
-0.412838
0.160182
0.252656
0.00429004
0.00160156
-0.112397
0.171441
-0.0590437
0.160937
-0.00347048
-0.157466
-0.544738
0.359894
0.184844
-0.401468
0.124899
-0.000113111
-0.00147574
-0.329637
0.0963334
0.060933
-0.0316182
-0.0293148
-0.05538
-0.0670873
0.0158022
-0.00800171
0.298902
-0.113468
-0.185434
-0.463513
0.33184
-0.12621
-0.0862737
0.212484
-0.135824
-0.0797166
0.21554
0.178618
-0.121185
-0.256613
-0.0148193
0.271432
-0.0113691
0.0225986
-0.0112294
0.0966438
-0.223212
0.0042753
-0.0064136
0.0021383
0.0337534
0.0189853
0.0711865
0.00640833
-0.0775948
-0.190386
0.204223
-0.0138368
0.0505982
0.0655076
-0.116106
-0.0267107
0.187647
-0.0195912
0.128095
0.126122
0.0176603
-0.143782
0.00385991
0.000836488
-0.0046964
-0.177409
0.248019
-0.0706102
-0.170559
0.250986
-0.0804274
0.110277
-0.0502751
-0.0600022
0.0593526
-0.139763
-0.210693
0.084483
-0.225283
0.101523
-0.00674965
0.00860156
-0.0018519
-0.378912
-0.0232308
0.0145498
0.0439707
-0.0585206
-0.186172
-0.226666
-0.239872
0.165273
0.0745993
0.0410016
0.0542416
-0.0952433
-0.0401056
-0.120969
-0.186646
0.110787
0.0758586
-0.0631488
0.147887
-0.0847377
-0.100397
0.151842
-0.0514456
-0.0394018
-0.0838969
0.123299
-0.128527
0.207812
-0.0159799
0.0175009
-0.00152097
0.0147364
-0.00705667
0.215623
-0.336251
0.120628
0.0069127
-0.000253785
-0.00447897
-0.00635014
0.0108291
0.196323
-0.166678
-0.0296456
-0.251989
-0.16786
-0.00982284
0.0159128
-0.00608999
0.00643519
-0.00215988
0.30529
0.123357
-0.428647
-0.114709
0.0602211
-0.17487
0.190185
-0.015315
0.0109362
-0.0294943
-0.0469608
-0.0424711
0.0894319
0.00741627
-0.0156404
0.0562713
0.0290433
-0.0853147
0.00233933
-0.0121622
-0.0622655
0.131342
-0.0690769
-0.0237236
-0.0454078
0.0691314
0.0443932
0.0177167
-0.0621098
-0.0166967
0.0778528
-0.000113111
0.188353
-0.184907
-0.00344588
0.176329
0.0199947
0.0113297
0.0038883
-0.095931
-0.0677494
0.16368
0.0834537
0.125333
-0.0438184
-0.0697575
0.113576
0.119138
0.00355673
-0.241563
0.142321
-0.263245
-0.281493
-0.270911
0.138068
0.132842
-0.070949
0.313916
-0.242967
-0.127532
0.112943
0.0145888
-0.168943
0.0565453
-0.104989
0.0655873
0.0228283
-0.0107422
-0.012086
0.0624079
0.0277575
-0.0901653
0.042125
-0.113362
0.0712372
0.185161
0.00319192
-0.0142149
-0.00176507
0.00916353
0.00305383
-0.0122174
0.295438
-0.368442
0.469278
-0.34175
-0.127528
0.21582
-0.168569
-0.0472507
-0.0735694
0.219699
-0.14613
0.125408
-0.0511647
-0.0742435
-0.0104751
0.00599617
-0.00328805
0.0117242
-0.00843613
0.171062
0.080826
-0.00737337
0.133495
-0.0735142
-0.0584869
0.0511495
-0.123928
0.0727785
0.0165496
-0.033245
0.0166954
-0.211317
-0.11832
-0.00577802
0.00180586
0.00397216
-0.1406
0.067086
-0.00192932
-0.000424418
0.00235373
0.23796
-0.0807036
-0.157256
-0.034271
-0.0333274
0.0119682
-0.0123726
0.000404437
0.0540619
0.161758
-0.0202976
-0.028145
0.0484426
-0.00283049
-0.0130367
0.0158671
0.421756
-0.11892
0.42421
0.0127606
-0.01281
4.94136e-05
-0.0018303
0.00569021
0.021774
-0.00650285
-0.0152711
0.0956639
0.154305
-0.249969
0.0908976
0.0417519
-0.13265
-0.00453496
0.00758964
-0.00305468
-0.261058
0.380376
-0.0557849
0.172197
-0.116412
-0.0978738
-0.030511
-0.237573
0.370921
-0.133348
0.183232
0.245173
-0.428405
0.00974237
0.00605986
0.0210138
-0.169363
0.148349
-0.30731
0.236361
-0.024761
-0.0084043
0.0331653
0.365157
-0.0906957
0.00788183
0.0138065
-0.0216883
-0.163232
0.0673011
-0.00196276
-0.00473274
0.0066955
0.148261
-0.05925
-0.0890112
0.000475842
-0.0502854
0.106557
0.128536
-0.0821909
-0.0463452
0.400827
-0.150999
-0.0198318
0.0430899
-0.0232582
-0.193679
0.153993
0.0396857
0.103725
-0.0627231
0.0845129
0.0285338
-0.0802164
0.0516826
0.0446257
-0.0300759
-0.303879
0.134851
0.169028
0.0176426
-0.00949131
-0.00815134
-0.125969
0.0774234
0.0485458
0.0600209
-0.0923918
0.0323709
-0.0885956
0.0745054
0.0140903
-0.383787
0.2693
0.114486
0.01644
0.00638824
-0.325384
-0.133853
-0.0180046
0.0345542
-0.432732
0.180743
0.00113831
-0.00256329
0.00142499
-0.188329
0.292379
-0.10405
0.00130583
-0.00584079
-0.0706079
0.079335
0.0217907
-0.101126
0.0147559
0.00451531
-0.0192712
-0.00561329
0.01055
0.358099
-0.205
-0.153099
0.0446244
-0.068348
-0.00979634
0.00293055
0.00686579
-0.00345055
-0.00830813
0.0117587
-0.0457604
0.0456501
0.000110326
0.187389
-0.260958
-0.0135604
0.00424411
0.240953
-0.118926
-0.122027
-0.325663
0.238303
0.0873603
-0.224624
0.120257
0.104368
-0.139281
-0.0828842
-0.377886
0.0398836
0.338002
-0.411582
0.0508343
0.360748
0.270138
-0.149747
0.0753322
-0.0427327
0.0526926
-0.00995994
-0.102174
-0.0253581
-0.0742462
-0.031926
-0.0128085
-0.0654947
0.115194
0.183709
0.0977411
0.340607
-0.438348
-0.00705873
0.0122175
-0.00515879
0.0726017
-0.0125809
-0.166102
-0.00876869
-0.0452782
-0.166636
0.160954
0.0647258
-0.22568
0.0658941
0.0157856
-0.145134
0.0897525
0.0553817
0.0526977
-0.0391793
-0.0135183
-0.400246
0.162673
-0.129667
0.067402
-0.128217
0.22623
-0.0980134
-0.00496149
-0.0349875
0.039949
0.00467581
-0.052234
0.0475582
0.32288
0.100842
-0.423722
-0.0489032
0.0290715
-0.0706608
-0.18575
0.256411
0.282151
0.178627
-0.460778
0.00901253
-0.0144678
0.00545529
-0.317745
-0.106617
0.424362
0.396848
-0.168222
-0.18541
0.315055
-0.129645
-0.00322534
-0.00255268
-0.0661158
-0.127563
-0.27348
-0.127988
-0.101303
-0.282483
-0.184616
-0.00576969
0.000404294
-0.00118467
0.128416
-0.0665446
-0.0618718
-0.147856
-0.200033
0.0946094
0.310068
0.188188
-0.301657
-0.176397
0.386312
-0.209915
-0.00815797
0.00554936
0.00260861
-0.447694
0.339211
0.108483
-0.0511103
0.129059
-0.0779486
0.105315
0.0793253
-0.18464
0.420621
-0.0647091
-0.06126
-0.118816
0.0718171
0.0542442
-0.126061
0.212538
-0.191524
0.0143143
0.00325203
-0.0175663
0.0270413
-0.0358409
0.0087996
-0.442294
0.11691
0.0979359
0.0274723
0.0605622
-0.104381
0.078967
0.0625372
-0.141504
0.213001
0.266679
0.0367016
-0.0298898
-0.00681184
0.0544369
0.0181663
-0.405292
0.468606
-0.0633147
0.0201767
0.0701657
-0.0903424
0.0199487
-0.120668
-0.321626
-0.072791
-0.114918
0.187709
0.0113677
0.00627495
-0.000974442
-0.00718353
0.234726
0.135308
-0.370034
-0.0107266
0.00707573
0.00365087
0.0013627
0.00554999
-0.433532
0.02824
-0.0154743
0.0233561
0.0089142
-0.00207573
-0.00683847
0.0287902
0.0321428
-0.241064
0.112846
0.202749
0.184876
-0.387624
-0.196793
0.174226
0.0225661
-0.286742
-0.0678421
0.354584
-0.0227863
0.0577138
-0.0349275
0.00398553
-0.0102453
0.276454
-0.214969
-0.0614852
-0.0514073
0.141343
-0.0899358
0.01946
-0.00514575
-0.0103313
0.00704322
-0.0651519
-0.402933
0.129454
-0.0411953
-0.155597
-0.00572963
-0.0123681
0.0180977
-0.0744864
0.415093
-0.072392
-0.150628
0.107294
-0.0651689
0.00425315
-0.0469858
-0.0614288
0.0368826
0.0245462
-0.0116589
0.218154
-0.00407789
0.0104973
0.472725
-0.355502
-0.117223
-0.143207
-0.0320221
0.175229
0.314467
0.158258
0.00322892
-0.0295156
0.0262867
-0.170852
0.120199
0.0506528
0.150943
-0.0915907
-0.319543
-0.0920397
-0.0014846
5.1268e-05
0.00143333
0.213678
-0.131832
-0.0818453
-0.00857637
0.00574588
0.0901062
0.119511
-0.209618
-0.0175341
-0.342412
-0.152792
0.337989
-0.450747
0.112758
0.0126121
-0.223262
-0.0925484
0.31581
0.00785177
0.0288499
-0.175956
0.0102092
-0.000273145
0.0446663
-0.00111121
-0.008905
0.0100162
-0.0962704
0.306561
-0.21029
-0.103104
-0.179638
0.282743
0.188636
0.0389306
-0.227567
0.00783626
-0.00894747
-0.349172
0.137856
-0.248735
-0.175473
0.424208
0.00416467
0.0159764
-0.020141
-0.00471279
-0.00601381
0.00707791
-0.470047
0.469841
-0.339652
-0.130189
-0.397501
0.259999
0.137502
-0.116522
0.237882
-0.200316
0.140378
0.0599378
0.202486
0.00655317
-0.0126907
0.0061375
0.005945
0.0892417
-0.252865
0.163623
0.0598932
-0.316506
-0.106703
-0.117921
0.105827
0.484824
-0.163625
-0.321199
-0.0466841
-0.0680253
-0.0143915
0.00302238
-0.265422
0.18335
0.0820727
-0.047602
0.108692
-0.0610901
-0.0456087
0.136506
-0.0423037
0.0373423
-0.0227015
-0.00430062
-0.00673362
0.0110342
-0.00134001
0.00522883
-0.00388882
0.0124525
0.0402452
-0.163301
0.350552
-0.18725
0.00148716
-0.00297176
-0.424698
-0.0376711
0.0579366
0.0391694
-0.097106
-0.0735115
-0.393483
-0.143385
0.0876003
0.176571
0.233797
-0.410367
-0.0398407
0.0195431
0.114426
-0.263005
0.148579
-0.184366
-0.0810566
-0.104891
-0.0668702
-0.112277
-0.0612973
-0.00348304
-0.0063133
-0.178805
-0.100581
0.279386
0.212058
-0.116394
0.0257876
-0.0119811
-0.171238
0.0990214
0.072217
-0.0583857
0.038596
0.0118888
-0.012617
0.000728211
0.0187874
-0.00618349
-0.0126039
0.0281589
-0.0307678
0.00260887
-0.220652
0.0813715
-0.00119969
-0.000729627
-0.0473031
-0.0747354
0.122038
-0.111323
-0.0724415
0.047169
-0.0347165
0.0621121
0.0215418
-0.083654
-0.32914
0.0518342
-0.098795
0.512329
-0.354967
-0.157362
0.07159
-0.0584281
0.063104
-0.254544
0.236137
0.0184072
0.060908
0.0145485
-0.0754564
0.00444781
-0.00523858
0.000790776
-0.21493
-0.0889489
0.142555
-0.259077
0.22847
-0.361006
-0.146797
0.0953894
0.0145809
-0.0131571
-0.0014238
0.21012
-0.104805
-0.234821
0.0454442
0.189377
-0.309045
0.380572
-0.0715276
-0.00112394
0.0114699
-0.010346
0.305272
0.284669
-0.00196337
0.0237374
-0.0151439
0.289941
-0.274797
0.0863022
-0.0991107
0.0592347
-0.0307008
-0.181217
0.06894
-0.368795
0.205494
0.160791
-0.379601
0.21881
0.00526633
-0.00722909
0.0573372
-0.366382
0.267918
-0.22424
0.00172852
0.00197616
-0.00370468
-0.0275554
0.0899633
0.101385
0.027151
0.131059
0.521781
-0.29748
-0.224301
0.103863
-0.292193
0.00590105
-0.00875068
0.00284963
-0.0049455
0.076132
-0.0883794
0.153036
-0.0646562
0.334161
-0.112547
-0.221614
0.114625
0.323672
-0.438297
-0.060787
-0.0361545
0.0969415
0.0641037
-0.115214
0.0608697
0.0622362
-0.123106
-0.105061
-0.176435
-0.413695
0.0449002
0.00796621
-0.0122668
-0.00257942
0.00848047
-0.122382
-0.0704819
0.192864
0.148032
-0.227692
0.0796602
-0.163129
0.0406908
0.122438
-0.283544
-0.11939
0.0758742
0.072387
0.0110697
-0.0241064
0.384688
-0.208117
-0.230488
0.156304
0.0741837
0.0561227
0.0444894
-0.0174481
0.0070142
-0.00896375
0.00194956
-0.53519
0.0673752
0.467815
0.203783
-0.120329
-0.0774915
-0.143161
0.330668
-0.463229
0.132561
-0.0119453
-0.151184
-0.27703
0.0348069
0.242223
-0.0021535
0.0067914
-0.0046379
-0.406007
0.122464
0.0961636
-0.0340515
0.124568
-0.0566019
0.1072
-0.296309
-0.0780688
0.374378
0.249084
-0.0583797
0.0886266
-0.030247
-0.0163109
-0.238233
-0.0342683
-0.0271605
0.00445832
-0.00579833
-0.124231
-0.222822
0.347053
-0.099486
-0.288453
-0.109048
-0.415468
0.318341
0.0971265
0.0558175
0.0778477
-0.133665
0.422477
-0.29912
-0.00756072
0.00928924
-0.00341144
0.00849868
-0.00508724
0.00521448
-0.0130099
0.00779543
-0.0961346
0.107441
-0.0113065
-0.350196
0.0750176
0.275179
0.0961768
-0.274981
0.249358
-0.160117
-0.0751476
0.126297
-0.0779681
0.197887
-0.421347
-0.0296369
0.450984
-0.285791
0.270647
0.234669
-0.120243
-0.0127203
0.00544725
0.00727305
0.192968
0.165131
-0.328935
0.118515
0.210421
-0.0132281
-0.000383238
0.0136113
-0.270156
0.201749
0.068407
0.168342
0.265208
-0.0203248
-0.0285785
-0.0669429
0.170242
-0.103299
0.3094
0.0169181
-0.326318
-0.053392
-0.0466046
0.0999965
0.00426383
2.62071e-05
-0.0455985
0.124566
-0.118551
0.0718664
-0.181159
0.383908
0.375628
-0.225301
-0.150326
-0.170814
0.103871
-0.276823
0.201161
0.0756622
-0.010105
0.0089811
0.00171332
0.00255051
-0.00222307
-0.011005
-0.318431
0.133021
-0.007433
0.0146569
-0.00722387
0.0198301
0.295225
-0.339096
-0.0825902
0.421686
-0.0324394
0.067869
-0.0354296
0.35288
-0.252578
-0.100302
0.000434139
-0.00537235
0.00493821
-0.00542193
0.0121015
-0.00667952
0.590121
-0.139506
-0.450615
0.0141288
-0.00891431
-0.0792022
-0.0176441
0.0968463
0.011464
0.0073234
0.101282
-0.118649
0.0173666
0.236324
-0.154384
-0.0819399
-0.0250433
0.0143011
0.00430292
0.00643162
-0.0107345
-0.143985
-0.0983498
0.242335
0.00840735
0.00681503
-0.0152224
0.00254784
0.00978527
-0.0123331
0.000846241
0.00831729
-0.216395
-0.363973
-0.212678
0.316541
-0.202456
0.067421
0.135035
0.0651741
-0.103654
0.0384802
-0.0428517
-0.370844
-0.0827911
0.00957749
-0.00914335
0.00478863
-0.00728044
0.0024918
-0.161591
0.222627
-0.0652155
0.0141631
-0.00524895
0.0135133
-0.13985
-0.0854329
0.106685
0.079831
0.38023
-0.192423
-0.187808
-0.17676
0.0654365
-0.00168175
-0.00696478
0.00864653
-0.366816
0.356845
0.00997156
0.204631
-0.394749
0.190118
0.179696
-0.303927
-0.104307
0.032896
0.0408431
-0.0344391
0.343839
0.00164562
-0.00735191
-0.0656646
-0.010916
0.0100729
0.000843173
0.00343062
-0.370247
-0.00601366
0.0131551
-0.00714146
0.0083716
0.0546301
-0.0630017
0.113677
-0.220813
0.00722235
0.00176294
-0.0689361
0.129806
0.281347
-0.0927104
-0.0181753
0.0531614
-0.0349861
-0.062586
0.0397996
0.055675
0.0304219
-0.0860969
-0.199422
0.145324
0.0540973
-0.00533968
0.0200956
0.0072064
-0.0169081
0.00970173
0.00559971
0.0553083
0.00048771
-0.00187229
-0.241758
0.0643496
-0.0105168
0.00345806
-0.00156837
0.00983474
-0.00826636
0.121722
0.187831
-0.309553
-0.123755
-0.15808
0.281835
0.286658
-0.178898
-0.29951
-0.115958
-0.0187507
0.0118342
0.00691653
-0.112844
-0.103581
0.216425
-0.224633
0.088809
0.0657926
-0.209778
0.0109909
-0.00556326
-0.00542763
0.202753
-0.0960686
-0.15745
-0.0836133
-0.128713
-0.0737433
0.344485
0.245637
-0.00281586
-0.00393379
-0.0289553
0.0321842
0.00760946
-0.000387115
-0.0788075
-0.12231
0.201117
-0.0078305
0.005677
-0.218569
0.490069
-0.2715
-0.0594953
0.153747
-0.0942519
-0.255327
0.097877
0.004571
0.00818958
-0.0531076
-0.0684206
0.121528
-0.341532
0.021572
-0.0580988
-0.197135
-0.103028
0.300162
-0.0878436
0.425833
-0.431155
0.317486
0.11367
0.00748129
-0.027786
0.0203047
0.0684811
-0.173372
0.0600359
-0.0633492
0.00331329
0.00642097
0.00786584
-0.0142868
0.414224
-0.29749
-0.116734
-0.27643
0.0637517
0.00872278
0.00553106
-0.0129641
0.0399774
0.0318699
-0.0718473
-0.13245
-0.278736
0.411186
0.137758
0.284719
0.11891
-0.022612
-0.0962976
-0.261676
0.406655
-0.144979
0.0997782
-0.0331313
-0.066647
-0.11967
0.0723673
-0.074495
-0.102265
0.331913
-0.442404
0.110491
-0.328234
-0.135279
-0.202048
0.140184
0.0618644
-0.0804551
-0.0591036
0.139559
-0.0691783
0.0638856
0.00529277
0.298599
0.077029
-0.356021
-0.00685212
0.362873
-0.112829
-0.0892191
0.0208407
-0.0792204
-0.081338
0.166137
-0.0847992
-0.211194
0.137119
-0.0358366
-0.0119664
0.00105038
-0.43536
0.31644
-0.0220557
0.448338
-0.426283
0.0165998
-0.00939338
-0.135918
0.0355211
-0.0489743
-0.0951914
-0.439999
-0.060973
0.151492
-0.090519
0.00888037
-0.00888037
-0.125431
-0.0453833
-0.0496521
0.191515
-0.141863
-0.158851
0.109199
0.00389125
0.00728389
-0.0111751
0.351872
-0.197824
-0.154048
0.00769402
-0.039514
0.03182
-0.142353
0.0831033
-0.0110869
0.00566494
-0.294309
0.413396
-0.119087
0.418717
-0.0508944
-0.367823
0.421835
-0.44389
-0.251821
0.385483
-0.133662
0.0914286
-0.0678113
0.228766
-0.104328
0.0552595
0.0490689
-0.436233
0.080731
0.121328
-0.224432
-0.00914194
0.00749798
-0.284999
0.422758
-0.304138
-0.143556
0.27607
-0.400618
0.124549
-0.0290541
0.0208956
0.00815842
0.102087
-0.0369125
-0.461475
0.190593
0.270883
-0.137726
0.0572711
0.137314
-0.0408084
-0.0965052
-0.0435792
0.191611
0.0689853
-0.130804
0.0618189
-0.0199322
-0.0414582
0.0613905
0.0796459
0.0467626
-0.126408
-0.0401071
0.120562
-0.0804551
-0.142256
0.24594
-0.103684
-0.077258
0.133076
0.051531
0.367186
0.0836126
-0.0558551
-0.0805864
-0.000714565
0.0813009
0.147007
-0.408683
0.0558642
-0.148655
0.0927913
-0.0121061
0.019249
-0.00714292
0.131355
-0.25511
0.00773289
0.00114748
0.0550277
-0.117459
0.0624316
-0.120879
0.0807715
0.215997
-0.0034044
-0.00718245
-0.0546392
-0.084182
0.138821
-0.0521938
-0.0199859
0.0721797
0.116155
0.0786922
-0.0440117
-0.00466005
0.00612988
-0.00146983
-0.405483
0.320439
0.0850439
-0.117353
-0.129713
0.247066
0.00569806
0.00529283
0.177305
0.0730217
-0.155534
0.067155
0.0118714
0.0352976
-0.0682124
-0.102501
0.170714
-0.217101
0.0840882
-0.0797458
-0.155075
0.0830752
-0.0430977
-0.178853
0.0564713
0.333767
-0.15317
-0.180597
-0.00709517
0.00699611
-0.0319521
0.211966
-0.180013
-0.430669
0.126531
-0.0250337
0.00865253
0.0163812
0.120844
-0.372665
0.0765539
-0.189699
-0.4193
0.124992
-0.0670469
0.170972
-0.103925
0.00737842
-0.00820329
0.000824872
-0.142793
-0.2125
-0.23837
-0.00736476
0.00246709
0.00489767
-0.129938
0.0130743
7.41738e-05
-0.0131485
-0.346669
0.261509
0.0851599
-0.0177658
0.0114587
0.00630715
0.375491
-0.399463
0.0239719
-0.180495
0.318552
-0.138057
-0.273764
0.233032
0.0407315
-0.00196579
0.0481292
-0.166798
0.0764677
-0.0207926
-0.124646
-0.0462061
-0.00510635
-0.0910282
0.110107
0.124214
0.0812004
-0.205414
0.00197635
0.0474028
0.0628745
0.201901
-0.284914
0.0830133
0.0110804
0.00376453
-0.0148449
0.0514231
0.0840934
-0.135516
0.102871
0.016039
0.00247164
0.00773077
-0.0102024
-0.295242
0.0719798
0.191232
-0.265456
0.0742242
-0.0132687
0.0209627
0.0826744
-0.369165
0.0415473
0.327618
-0.0879128
-0.287118
0.375031
-0.412833
0.113324
0.00397856
0.00462299
-0.155421
-0.0440002
0.153271
0.00428206
-0.0702331
-0.0290252
0.244648
0.22851
0.0900418
-0.0742865
-0.0708477
-0.0120899
0.0166052
-0.17349
-0.0793743
-0.294608
-0.118225
0.0043429
-0.00651635
0.00217345
0.431726
0.00496528
-0.0936056
-0.0604009
0.0213544
0.0390465
-0.115654
0.0748455
0.00544128
0.000509993
-0.00595127
-0.107652
-0.229348
0.337
0.00343209
0.00715476
0.264126
-0.148994
-0.115131
0.0628338
0.442742
-0.0672504
-0.261909
0.104116
0.157793
-0.00388782
0.00216665
0.00172117
0.0207865
0.0334268
-0.0542134
-0.330474
-0.00912807
0.011929
-0.00280098
-0.326636
0.222352
0.104284
0.0490244
-0.102416
0.00932029
0.0132783
-0.0990843
0.328353
0.040781
-0.0199944
-0.0211097
0.00892958
0.0121801
0.252779
-0.167654
-0.0851252
0.0643441
-0.0441674
-0.430559
0.112814
0.00363108
-0.00198546
0.271933
-0.162987
-0.108946
0.00560636
0.00667171
-0.0122781
-0.0920898
0.15886
-0.0667706
-0.450626
0.459349
-0.00872284
-0.0116174
0.00816684
-0.246735
-0.0270286
0.187341
-0.0106884
-0.00707745
-0.470494
0.0438491
-0.283145
0.0860102
0.00234065
0.00954813
0.165701
0.0455524
-0.0452717
-0.000280671
-0.229272
0.412504
-0.0774951
-0.198192
0.275687
0.153532
-0.0976679
-0.00176081
0.00181207
0.169537
-0.0794313
-0.0435649
-0.00283239
-0.160606
0.321397
-0.0508764
0.333028
-0.15182
0.454253
-0.334089
-0.120164
0.00692166
-0.0126513
0.0241739
-0.0566133
0.161007
0.115447
0.042789
-0.0151269
-0.027662
-0.016499
-0.000750035
0.321607
-0.40068
0.0790732
0.216661
0.102727
-0.319388
-0.210336
0.309229
-0.0988928
-0.0525231
0.132169
0.12966
-0.0641525
0.177421
-0.10521
-0.0722108
0.0114545
-0.00756321
0.468409
-0.179916
-0.288493
-0.0073013
0.0139669
-0.00666561
0.0839887
-0.143484
-0.00533741
0.0135653
-0.00822788
-0.0141146
-0.0149395
0.185686
-0.270742
0.0850567
0.00210223
0.00753864
-0.00964087
0.0209927
-0.0513684
0.0303756
-0.0264348
-0.00850078
-0.136183
-0.372183
0.0775747
0.00605748
-0.000616201
-0.0772805
0.133531
-0.0562501
0.0133106
-0.00142145
-0.0118891
-0.00584437
0.00118432
-0.336918
0.244132
0.092786
0.0858218
0.127219
0.307982
0.0956107
-0.403593
0.111693
0.139293
-0.0840797
0.135503
-0.101528
0.40951
-0.0478433
0.0162251
0.156478
-0.227419
0.0709403
-0.169887
0.10284
0.00997082
0.0349599
-0.0449308
-0.000217138
0.0122153
-0.38169
0.120633
0.152829
0.187211
-0.0954742
0.0378769
0.0575973
-0.00706798
0.000217626
0.00685035
-0.0799568
-0.11943
0.199387
-0.0642897
0.0068275
-0.00228114
-0.164656
-0.0480056
0.212661
-0.0139862
0.00631861
0.00766759
-0.130181
-0.218991
-0.0861384
-0.0562149
-0.227484
0.449501
-0.222017
0.398286
-0.231237
-0.167049
0.00265283
0.002576
0.00398649
-0.00990527
0.00591878
0.00202721
0.009941
0.00356226
0.00374594
-0.0073082
-0.475616
0.342283
0.133333
0.0624698
-0.15456
0.0442303
-0.0322474
-0.0281535
-0.289985
0.0103943
0.279591
-0.00301307
-0.00970723
0.0863895
0.162969
0.0678296
0.0607967
-0.128626
-0.464786
0.174801
0.338231
-0.327837
-0.00913044
-0.0235123
0.0326427
-0.0201738
0.0133462
0.00682758
-0.0574463
-0.0725206
-0.363713
-0.101682
0.333268
-0.231586
-0.149231
0.481144
0.0538726
0.0248929
-0.0787655
0.135715
-0.0888688
-0.0468463
-0.21153
-0.135139
-0.0111416
0.00223661
0.00810123
0.00266061
-0.0107618
-0.413845
-0.00853356
0.422378
-0.203593
-0.103751
0.307343
0.0104557
-0.0064692
0.0988831
-0.145104
0.0462205
0.00737858
-0.00258994
0.0115314
-0.00731838
-0.004213
0.109407
0.0443398
-0.244569
-0.0923487
-0.233054
-0.0935821
0.0105918
-0.0171276
0.00653584
0.0109222
-0.00354374
0.0833765
0.0523386
-0.002425
0.0094392
-0.203997
0.0754697
-0.00423595
-0.00589121
0.0101272
-0.243691
-0.129476
0.373167
-0.0200461
0.0123478
0.00769825
-0.217861
0.0780112
0.096619
-0.0591786
-0.0374405
0.326948
0.151125
0.167598
0.0820732
-0.249671
0.117665
-0.0597287
-0.252342
0.0879229
0.164419
-0.00124877
-0.00631195
-0.430727
-0.0285948
0.459322
-0.000769942
0.0233055
-0.0225356
-0.093474
-0.11928
-0.0626792
0.181959
-0.031566
0.00680492
-0.007817
0.0102886
0.10267
0.0715568
0.0204479
-0.0249327
-0.000100994
-0.236353
0.119
-0.0500565
-0.062628
0.0172103
0.0454177
0.00991512
-0.00336195
0.00696947
-0.0103809
0.0462255
0.118739
-0.22232
0.272458
-0.0867725
-0.101478
0.071765
-0.183422
0.259977
0.138309
0.0395094
-0.0576847
0.00222392
-0.00398473
0.383364
-0.211961
0.00743333
0.00714755
-0.25931
-0.0903277
0.349638
0.119245
-0.03991
0.188401
0.0835322
0.231918
-0.320514
0.0885964
-0.315876
0.10554
0.001481
0.00578782
-0.00726882
0.4238
0.115065
-0.0613232
-0.0537419
-0.194724
-0.199852
0.394577
0.140838
-0.384529
0.15436
-0.0724962
-0.0818639
-0.0752804
0.0134979
-0.063268
-0.0864789
-0.145483
-0.204714
0.287196
-0.447802
-0.057484
0.0483536
0.06397
0.103992
-0.167962
-0.00752462
-0.0112261
-0.191699
0.306892
-0.0954077
-0.0678244
-0.160743
0.0862477
-0.0553086
0.0558246
-0.000515988
-0.212292
0.132575
0.250318
-0.169917
-0.42258
0.185487
0.237094
-0.125423
-0.122067
-0.17798
0.300047
-0.161149
0.0837768
0.22955
-0.113661
-0.138681
-0.011454
-0.0087198
-0.00717666
0.000714548
0.00646211
-0.165688
0.0702808
-0.0536882
0.121518
0.392589
-0.00627697
0.0899242
-0.0218946
0.0219397
-4.51034e-05
-0.333365
0.231684
-0.309827
0.106234
-0.072233
-0.0990054
0.0086003
-0.0101687
-0.246496
0.10424
0.0955331
0.127319
-0.222852
-0.0602047
0.198273
-0.111034
0.095775
0.0152588
-0.000957465
0.0166002
-0.00312706
0.0692856
-0.0742311
0.155911
0.0478721
-0.120293
-0.141616
-0.292714
-0.172072
0.155225
-0.184695
0.0294698
-0.184757
-0.105659
0.290417
0.0511435
-0.0832796
-0.200062
0.283341
0.00412205
0.0147726
-0.0188947
0.00731857
-0.00306017
-0.0042584
-0.000477102
0.00371883
-0.141227
-0.0664172
0.207644
-0.00266773
0.00701063
-0.0146995
0.00936205
0.0202799
0.0926635
0.129032
0.101612
0.0703522
-0.171965
-0.111981
0.330075
-0.218094
0.00219724
0.00124506
-0.0034423
0.317157
-0.233381
-0.0533366
0.0334044
0.0772353
-0.196515
-0.315642
-0.115027
0.255209
-0.168819
0.00664168
0.00289861
-0.00954029
0.127152
-0.0333958
-0.0937564
-0.0881111
0.253067
0.133815
-0.0206536
0.00854753
-0.00443536
0.00483966
-0.0270763
0.0809489
-0.256488
0.392319
-0.135831
0.00961256
0.00329006
0.0931261
0.061234
0.0418715
0.0609991
0.000915386
-0.00951988
0.0086045
-0.383887
0.189163
-0.171967
0.210897
0.115435
-0.0452695
-0.00377924
0.000300673
0.00347856
-0.0496209
-0.00568772
0.371834
0.0207549
0.00720812
-0.00572712
-0.00025404
0.000144582
0.000109457
-0.00668242
0.0109853
0.0242739
-0.0115231
0.00138989
-0.366454
0.107144
-0.000741472
-0.0861412
0.0169629
0.15659
0.165582
-0.00652899
0.0343523
-0.0278233
0.0799825
-0.0581918
-0.360268
0.227818
0.00350966
-0.0117471
0.00823744
0.00699598
-0.420841
0.0663069
0.089775
-0.156082
-0.000931676
-0.0209629
-0.314734
0.105894
0.20884
-0.085178
0.0385734
0.112707
0.0186588
-0.0129928
-0.00566601
0.125346
-0.206512
0.0811664
0.275938
0.113766
-0.389704
-0.0267333
-0.0843005
-0.12501
-0.18192
0.30693
0.00922345
-0.00566119
-0.0807668
-0.0607753
0.141542
0.0700072
0.0450579
-0.340079
0.228097
-0.13554
0.0305506
0.463541
-0.330316
-0.133225
0.179858
-0.431337
0.251478
-0.183
-0.100145
-0.145696
0.0595579
9.63825e-06
-0.311694
0.215253
0.096441
0.0922674
-0.0147586
-0.10617
0.0255832
-0.00442642
0.1087
-0.329119
-0.0227469
0.10017
0.0130652
-0.0699212
-0.493866
0.152756
-0.0781747
0.0973494
-0.0191747
-0.448624
-0.396631
0.140143
-0.508235
0.169139
-0.100487
0.0127325
-0.00630088
-0.00713995
0.00152942
0.00561054
-0.493549
0.137528
-0.332897
-0.145193
0.47809
0.0050125
0.116479
-0.29152
0.17504
-0.0402988
0.190439
-0.15014
0.233259
0.137662
-0.248474
-0.0613706
-0.310812
0.297281
-0.195841
-0.101441
-0.0109236
-0.306883
0.184816
0.290725
-0.133271
-0.157455
0.0306611
-0.0760342
0.045373
0.0479875
-0.0213062
-0.0266813
-0.155847
-0.0450265
0.200874
0.320627
-0.0859011
-0.215125
0.394983
0.0458611
-0.000308644
-0.430977
0.203493
0.187589
-0.312599
0.0203066
-0.00922619
-0.370897
0.288307
-0.106388
-0.164021
0.27041
0.034187
0.062432
0.0765525
0.253997
-0.137517
0.0646528
-0.229309
-0.00914315
0.00944291
-0.000299757
0.0980089
-0.0335663