/*--------------------------------*- C++ -*----------------------------------*\
| =========                 |                                                 |
| \\      /  F ield         | OpenFOAM: The Open Source CFD Toolbox           |
|  \\    /   O peration     | Version:  v2012                                 |
|   \\  /    A nd           | Website:  www.openfoam.com                      |
|    \\/     M anipulation  |                                                 |
\*---------------------------------------------------------------------------*/
FoamFile
{
    version     2.0;
    format      ascii;
    class       volScalarField;
    location    "50";
    object      ddt0(k);
}
// * * * * * * * * * * * * * * * * * * * * * * * * * * * * * * * * * * * * * //

dimensions      [0 2 -3 0 0 0 0];


internalField   nonuniform List<scalar> 
18232
(
3.19192e-07
-0.00922497
0.000272928
1.35552e-06
9.37768e-08
-0.002787
0.00202698
-1.24598e-06
-5.46606e-07
0.00304954
-7.21372e-08
-6.86827e-10
1.73301e-05
0.00945555
-6.30109e-07
0.0160523
-2.48779e-07
-0.00427469
2.0698e-06
-8.87034e-05
-0.0105031
0.00858685
1.00496e-05
-2.04132e-08
3.30827e-07
-2.24286e-07
3.01659e-07
-0.00287287
-6.60052e-07
-0.00726915
-2.48662e-07
-0.000108872
-0.000227045
2.60498e-08
1.1063e-06
-1.27658e-06
-0.0121389
-0.0535222
-0.0241198
-2.66555e-09
5.11311e-05
-3.11875e-08
0.000489074
-2.33307e-08
0.00034727
1.39206e-08
0.0269844
0.000190776
-1.19767e-06
-0.00233872
-3.88461e-07
-1.39878e-06
6.51629e-08
-2.44438e-07
-2.10721e-07
-5.06633e-07
0.0158859
0.0230786
-1.09331e-08
-8.3813e-07
-4.06004e-06
0.000522444
-0.013072
-0.00077695
-1.69132e-06
-4.0813e-07
-0.0228973
7.54046e-09
-2.69907e-07
1.81253e-08
-1.06875e-08
-6.36601e-07
-0.000123441
-1.90584e-08
-4.55675e-06
-2.95918e-08
3.56294e-07
-0.00403948
-0.0155903
-0.000499717
2.4152e-06
1.54344e-06
1.2621e-05
6.10251e-06
-5.16604e-07
0.0314737
-1.2293e-07
1.79415e-06
-1.94427e-07
-0.00182173
-1.78583e-07
-1.97773e-08
-2.78584e-06
0.0183015
-4.81126e-06
5.43271e-06
-2.52363e-07
-3.82617e-08
-2.74187e-07
-1.26057e-07
-0.00792345
0.000767717
-6.27665e-08
-1.12809e-06
-1.99423e-09
-0.00239618
1.74333e-08
0.00804714
-0.00763225
-0.0072627
-0.00617004
3.05899e-07
-3.5732e-06
-0.000171454
-1.0703e-06
3.22849e-08
-1.10924e-07
-7.5938e-05
-0.0286628
-4.19508e-07
-5.3806e-07
2.79518e-05
6.3813e-07
0.000451789
-1.38037e-08
-4.24455e-07
-2.0145e-07
-0.00132756
6.94032e-06
-5.5307e-05
-1.40575e-07
6.62692e-07
-8.53568e-08
-2.046e-08
1.02777e-08
-5.76701e-07
1.76863e-06
-1.3906e-06
-0.015515
-0.0039894
-6.4531e-07
0.00186123
0.000749793
-1.65737e-05
-2.6321e-07
-1.44624e-08
-2.00718e-07
-1.44905e-05
-1.50117e-07
-1.67156e-07
1.11528e-06
-1.01885e-08
-0.00692886
-3.43318e-07
-0.00754853
3.11606e-06
0.000943315
-9.15487e-07
-1.88072e-07
0.00189014
-2.2326e-08
0.00120297
-0.00125184
0.0220196
-0.00770738
-6.55223e-09
-1.09682e-05
-0.060995
-4.29095e-08
2.95041e-06
8.90621e-09
0.000562226
7.17129e-06
-3.75447e-09
-7.62898e-07
-1.74256e-07
-0.00299553
-1.27045e-08
-1.25179e-06
-6.95074e-08
1.21118e-07
-0.0193742
-2.27445e-07
-0.00334343
-3.46029e-07
-1.35234e-07
6.6722e-08
-0.0138938
-3.08559e-07
1.61924e-07
2.50958e-08
-0.000751389
9.01649e-08
-5.6826e-07
1.19863e-08
-1.84558e-07
-1.07912e-05
-5.57753e-09
-2.28637e-07
-1.21824e-08
2.81615e-07
-1.12824e-07
2.48958e-08
-7.45441e-07
-1.22544e-08
-1.15264e-07
5.65704e-07
-5.85863e-07
6.57687e-08
-4.68513e-07
-8.64443e-07
-3.90467e-07
9.17306e-09
-3.51426e-05
1.25585e-08
-0.00284918
3.13921e-07
-2.98797e-08
2.95381e-06
2.92008e-06
-3.18708e-07
3.37821e-05
5.34771e-06
0.000240038
-2.77874e-05
-1.09744e-07
-2.4465e-07
-6.21129e-07
-6.45368e-07
1.95657e-06
-0.0029466
-9.24611e-07
-7.85245e-07
2.9223e-07
-4.72272e-07
-1.17253e-06
6.21402e-07
4.98304e-06
8.40885e-07
-1.95779e-07
0.00188984
8.57784e-08
-4.11431e-07
-1.08528e-06
0.0226976
-1.37479e-06
-1.07762e-06
6.82535e-07
-5.01654e-08
-7.41865e-07
0.00201989
-1.64322e-06
-0.00271388
-9.34358e-07
5.87293e-07
-0.00289363
2.89318e-08
-0.00183224
5.23629e-09
-7.37204e-09
6.93743e-06
-7.15401e-08
0.000298471
-4.35158e-07
-7.07644e-08
4.24238e-06
-0.000995967
-2.83356e-07
1.65766e-07
0.000491265
-1.35683e-06
1.12263e-07
-1.67389e-07
-0.0175128
0.0195896
-8.47216e-09
-0.0012357
-5.08842e-08
-1.59646e-07
0.0144348
-0.00470628
0.000142323
-0.00429581
-3.92504e-07
-0.000201222
-1.32906e-07
-3.52484e-07
-6.36065e-08
-0.00282125
-3.65839e-05
-0.00350578
0.000668801
-7.73461e-07
1.41085e-06
-3.98804e-07
-1.88448e-07
-1.93411e-07
-8.88834e-07
8.00122e-08
-6.16692e-05
7.57714e-07
6.30123e-06
-0.00431519
1.8003e-07
-3.70554e-07
1.19457e-09
1.22433e-08
-1.73017e-06
-3.39435e-07
-6.20421e-07
3.62006e-07
6.20307e-06
-4.15466e-08
-1.38943e-07
3.65993e-07
0.0268957
-2.81933e-08
-3.84851e-07
-1.89895e-06
-4.60391e-07
-1.33151e-07
-0.0107018
-4.35325e-06
-1.84713e-08
5.9773e-06
0.000908961
-3.25179e-09
-1.44216e-07
-3.14221e-07
7.10488e-09
-5.15979e-05
-8.86115e-06
0.0286752
2.64204e-08
-1.62073e-06
-4.59653e-06
-9.01718e-08
-1.61086e-08
-4.87407e-07
-4.57522e-07
1.19276e-05
-3.45865e-05
2.90421e-07
9.32514e-06
-4.23957e-06
-1.775e-06
0.0277061
-1.79828e-07
-2.30725e-08
-6.30414e-07
-3.82984e-08
-2.97818e-06
9.98992e-06
-3.0799e-07
-3.80034e-08
-5.94938e-07
-0.0587052
-1.75689e-08
-8.51741e-08
8.22143e-09
-3.95878e-07
-4.73388e-05
-2.8754e-06
-3.97688e-07
-1.27704e-07
-5.00652e-08
-5.70505e-07
-5.03828e-09
9.30459e-06
-1.53768e-07
-1.33103e-06
3.36482e-07
0.0249298
-1.43516e-07
1.77147e-06
4.92525e-10
-0.00390234
-7.5549e-07
-3.24445e-07
0.00018785
0.00615099
-1.51841e-08
-2.52075e-09
-1.29961e-06
-6.33912e-07
-6.3145e-07
9.96584e-08
0.00237237
1.77697e-07
-2.43752e-07
-7.13433e-07
2.00007e-05
-7.76976e-08
-1.65506e-07
-4.32741e-07
-4.9496e-08
-0.00932098
-1.40178e-07
-0.0175808
-1.65576e-07
8.34361e-06
-2.55993e-06
-5.23466e-08
-1.63029e-07
0.0211023
-2.8607e-06
2.43246e-07
-2.57517e-05
-2.84278e-06
-8.89323e-07
1.34023e-05
1.85735e-07
-2.20657e-06
-3.18428e-09
-9.00765e-08
1.82402e-08
-5.16352e-08
0.0250958
-1.70387e-06
-7.21025e-07
1.02107e-06
-0.000962194
-0.00293832
4.0053e-05
-1.47398e-07
0.00316831
-1.41308e-05
-6.89839e-08
-1.20716e-09
-0.00456623
-0.015002
3.07332e-08
-7.9426e-09
-7.371e-08
-2.4414e-06
-8.02389e-07
-1.2438e-05
-6.4455e-07
-1.44344e-06
-8.18866e-07
-4.32975e-07
-3.20172e-07
-0.000111821
-1.14549e-07
5.75023e-09
1.15443e-08
-5.93313e-07
-0.0153492
-3.4104e-08
2.05548e-08
-0.0623126
8.85466e-06
-1.26209e-05
-9.42471e-09
-5.73078e-09
3.99318e-09
-1.50452e-07
0.00454715
1.05186e-06
-1.02401e-08
2.50392e-09
-1.05729e-06
7.54836e-07
-5.32217e-09
-1.6995e-07
-2.53525e-07
-1.68095e-08
4.25245e-06
-5.40291e-07
-5.81164e-07
0.0210905
-1.36402e-07
-0.00228148
0.0011162
-0.00538386
-3.92016e-07
-4.30112e-07
1.9973e-09
-2.32318e-06
-5.82798e-07
-7.62402e-07
-2.39559e-08
-7.92082e-05
-1.40018e-06
-3.73967e-08
-5.67297e-08
-9.73664e-06
0.00174233
1.62734e-05
4.51173e-09
3.09742e-07
-0.0136418
0.000206998
-9.8091e-07
-4.29074e-05
1.25231e-08
0.00125727
-5.47267e-09
1.22127e-06
-1.02243e-06
-1.08841e-07
-6.77379e-07
-1.03339e-07
-1.2568e-07
-0.0165021
-6.98153e-07
1.13276e-06
-1.98877e-07
-0.00823161
-4.10536e-07
-9.75849e-07
-5.90564e-07
4.06732e-06
-6.74778e-07
0.0038796
-1.92605e-08
-8.20226e-07
-2.20841e-08
-9.88946e-10
-2.34589e-09
-8.5382e-07
-5.81356e-09
1.16088e-07
-2.91438e-08
-1.90803e-08
-3.38834e-08
-2.54775e-06
-0.00989149
-2.18378e-07
-2.04722e-06
-2.9043e-08
0.0038367
-4.11482e-05
-7.88292e-08
1.14878e-05
3.4409e-08
-0.00240749
5.08471e-08
5.08306e-06
-1.67407e-08
-5.16207e-07
0.0216674
7.09692e-06
7.5361e-08
0.032956
-6.3661e-07
2.79051e-06
-1.31283e-06
-0.00584076
-7.85522e-08
7.16501e-06
-3.00617e-08
5.21066e-07
4.53297e-07
8.47859e-06
9.87964e-07
-7.9966e-07
-3.9146e-08
-3.42034e-08
5.56245e-08
-2.8441e-07
-1.03072e-07
-5.07074e-07
1.15312e-05
-0.00847223
-6.99793e-06
1.1573e-06
0.00269856
-0.00483612
8.85104e-07
-1.24855e-06
-0.000524271
-4.4925e-07
-6.69267e-07
-1.19042e-06
-6.10396e-07
-7.86655e-07
-1.16367e-06
-7.80658e-07
0.0136415
4.41386e-06
-5.81205e-07
-1.74484e-05
0.00546278
-0.0141691
-1.0426e-06
1.26597e-05
-3.56236e-08
1.28586e-08
-6.77118e-07
-6.25078e-07
-8.30756e-07
-0.008292
-3.57869e-07
-6.87956e-08
-0.00864209
-1.97855e-07
-6.31205e-07
-0.00236924
-9.09075e-07
6.30732e-07
0.00389554
0.0190825
-1.41533e-07
4.81961e-07
8.48368e-08
7.77327e-08
-5.93011e-07
0.00386927
2.73143e-06
-0.0185713
-2.68775e-08
5.31541e-08
-0.00230579
1.59916e-08
-0.0143016
0.00690622
2.27003e-06
-2.88608e-07
-4.19387e-07
-1.19983e-06
9.68455e-09
-3.25766e-07
-0.000225676
1.22351e-06
2.36241e-05
-2.90244e-06
-3.46385e-06
1.26547e-06
2.40769e-07
-3.24862e-07
3.37184e-08
-1.78309e-07
-0.00372384
0.010958
-1.69612e-06
-7.81767e-05
-2.28486e-08
1.44981e-07
0.000197034
-0.0102885
-8.55612e-07
-3.95489e-07
-1.27888e-07
0.00833243
3.00252e-07
0.0054341
-4.49683e-07
-3.22201e-05
-7.91678e-07
-6.09564e-07
-2.85322e-07
-2.46653e-06
1.79572e-05
-3.82035e-08
-6.88499e-07
-5.63551e-07
-2.23449e-07
-5.09434e-08
2.95346e-07
-3.26719e-06
6.85017e-07
2.33564e-08
-6.27611e-07
-1.0894e-06
-1.64821e-05
-4.77603e-06
5.22237e-08
-4.58991e-07
-5.32404e-07
-0.00414601
-2.97125e-07
-3.10996e-07
0.000998942
-3.0586e-08
-7.47057e-09
-2.0564e-07
6.03309e-07
-1.19789e-06
-1.4801e-07
-1.8874e-08
-5.21644e-08
1.82344e-06
-5.66751e-07
1.01343e-06
5.83054e-08
0.00382612
2.84944e-06
-4.67519e-09
-3.03702e-07
0.000388083
-5.5968e-08
-1.22775e-06
-0.00470799
0.000257058
8.15486e-07
-6.56573e-07
-2.54045e-09
-1.6164e-05
-2.74664e-07
0.00865192
-2.85137e-07
-2.04813e-09
4.94771e-07
2.39061e-05
6.27271e-07
4.39437e-07
-2.10261e-06
-3.98687e-08
3.63423e-08
-3.81565e-07
1.74899e-06
-1.07718e-08
2.57542e-08
0.0047562
-7.31703e-09
0.000223735
-8.62071e-07
-4.78498e-08
-0.0159914
4.5245e-07
-0.00583813
-7.08024e-07
8.49496e-05
4.68823e-08
1.33031e-07
-4.61151e-09
-3.07687e-07
3.53166e-06
-9.11239e-07
1.55594e-07
-6.79745e-07
-1.22698e-07
-1.27739e-08
1.16658e-05
-5.52194e-08
2.09964e-07
-2.41256e-07
-0.00853428
-1.81972e-08
7.73138e-06
-3.04663e-06
4.30825e-06
2.82406e-07
-0.00512536
0.00412763
7.74939e-08
2.48874e-07
5.4015e-07
0.013175
8.23686e-08
3.00492e-07
6.16129e-06
-1.37731e-08
-0.00604231
0.00546569
5.62709e-09
-6.49076e-06
3.93295e-06
-0.000720857
-2.5946e-07
-7.46937e-07
1.12725e-05
0.000579336
-1.1527e-07
5.08071e-07
9.32468e-06
-2.1881e-07
-7.61354e-08
-1.72055e-05
-1.76587e-06
0.000873929
-0.000184471
-2.77347e-08
6.26318e-07
-2.7505e-08
0.00287272
1.50231e-06
-0.00114603
3.675e-09
0.0245467
-1.82624e-07
4.47913e-06
-2.69588e-07
-5.63353e-09
0.00727541
-3.86787e-09
-4.18818e-06
-8.34702e-07
-2.45864e-07
1.36439e-05
-5.82467e-06
-3.20201e-07
-4.27192e-08
-5.55134e-07
-1.17824e-07
-3.50736e-07
1.62171e-05
0.000530432
1.65842e-05
-2.82051e-06
-5.95073e-08
-1.82578e-07
-2.96269e-09
-1.33e-07
7.25781e-06
0.00334343
-2.75886e-07
-2.87493e-08
-1.37705e-06
-0.00624458
1.51325e-07
-0.00555146
-1.38211e-07
-2.31234e-07
-2.91319e-05
-1.47441e-07
-0.000907586
-6.08077e-07
4.32726e-07
-1.97343e-07
5.86436e-08
5.92903e-07
1.16194e-05
-1.87817e-07
4.6661e-05
-4.9086e-07
5.48131e-07
5.96211e-07
-3.43763e-07
-5.23716e-07
-1.9629e-08
-7.57613e-07
-7.96865e-07
-2.48667e-07
-1.00622e-08
-9.40502e-06
-0.000817993
3.87022e-06
-1.26734e-07
-0.00528171
-8.17884e-08
8.2718e-08
-2.45899e-07
2.39479e-08
-5.92588e-06
8.20564e-06
0.010356
-0.000998697
-1.19314e-07
9.58759e-08
-4.96856e-08
-6.09575e-07
5.99483e-10
-4.84486e-07
-0.0168004
3.49986e-07
0.00745018
2.12131e-07
-1.81933e-07
-2.94424e-06
3.09557e-07
-0.0165677
-2.48519e-07
6.20843e-06
-4.7347e-08
-5.54429e-07
-4.63194e-07
-2.09124e-08
1.33513e-05
3.07105e-08
-4.56383e-07
3.35483e-06
-6.0357e-07
-1.9058e-08
-5.81051e-07
-1.0729e-07
-1.2368e-07
0.00141965
9.15489e-06
-1.4076e-06
-1.43692e-07
-6.99031e-07
0.000613988
0.0278892
2.15907e-08
-2.7577e-07
-0.00635509
-0.00196188
1.24682e-05
-9.88189e-07
0.000710086
6.71652e-08
-4.08754e-07
2.26274e-07
-1.16297e-06
-1.06282e-07
-8.93854e-09
9.01665e-06
-9.02221e-07
1.19355e-06
-1.00341e-07
-1.15473e-07
0.000538409
-2.53844e-07
2.85405e-07
-1.21815e-06
-9.1046e-07
-3.76394e-08
-2.77625e-08
-1.31387e-06
-1.20839e-06
2.59601e-06
-0.000649008
0.00165483
-5.14788e-09
-0.0072985
1.12802e-05
-4.23517e-06
-4.0805e-07
-0.00161013
0.00129057
-1.48822e-07
-1.41609e-08
4.17639e-06
3.22955e-06
-1.725e-06
-9.61637e-07
1.19354e-06
0.00644996
-4.18701e-08
2.40404e-07
-3.04921e-08
-8.96805e-07
-1.18727e-06
-9.20972e-07
4.77802e-06
6.5724e-07
-1.45215e-06
-1.9015e-09
-6.21448e-08
-7.76172e-08
-0.00249368
-6.51246e-08
-1.12711e-07
-3.03844e-06
-2.181e-07
0.0342672
6.07249e-07
-8.01553e-07
0.0156925
-6.13703e-07
3.72643e-07
-0.00175477
-2.2858e-07
-6.10835e-07
-5.98427e-07
-7.89665e-06
0.000248757
-0.005308
-0.0148174
-1.50395e-06
-8.59073e-07
-3.89334e-08
-0.00943022
-2.29883e-07
-7.55338e-07
9.81395e-10
-9.24836e-07
-8.76723e-07
-0.0080043
0.0127216
-0.0124254
-6.00964e-08
0.00669796
-2.57644e-05
-2.19388e-06
4.97255e-08
6.75406e-05
-8.19035e-07
4.24252e-07
-9.9689e-07
4.58617e-08
1.16325e-05
-1.09824e-06
-2.14817e-08
6.57823e-06
-7.47111e-07
1.08162e-05
-4.09868e-08
1.7519e-07
2.63336e-08
-1.75602e-07
-5.4391e-09
0.000966282
-9.1915e-09
-1.30263e-05
-2.41713e-07
3.7003e-07
-3.71911e-08
-3.76628e-08
-5.60733e-07
-0.0001351
-2.48821e-07
0.00208192
-1.85832e-07
2.38768e-05
-8.38467e-07
-3.72559e-07
-2.08904e-07
-1.99363e-07
-7.45339e-07
-7.46814e-07
-3.54498e-07
-5.99663e-07
-1.08657e-06
0.00327211
6.01274e-07
3.51075e-06
0.0244516
-1.92567e-06
6.03037e-09
-1.1919e-06
1.54099e-07
-2.49319e-07
-1.78552e-07
-0.0146916
-1.467e-08
-1.51124e-07
-1.94962e-07
-0.0132429
0.0031463
-0.00235282
-2.59934e-08
-1.12664e-07
-7.36418e-07
2.97241e-06
-2.14884e-07
-5.08674e-08
2.60832e-06
-1.79278e-06
3.08356e-07
-4.62952e-07
-1.48804e-05
1.81464e-08
-1.44809e-07
0.0015809
-5.85102e-08
-1.88243e-08
2.19749e-06
3.29915e-06
6.0553e-08
-0.00912186
-6.43011e-08
-9.13019e-07
-4.10443e-07
-8.83178e-07
0.000359936
5.19089e-08
-2.6727e-08
-0.00734894
-1.59176e-08
-2.1706e-07
-2.23601e-07
-8.72714e-07
-4.29969e-07
-5.27173e-08
-1.64379e-07
-1.27779e-05
-1.06798e-08
0.000319739
2.9144e-08
1.93726e-05
0.0317539
-8.65272e-07
1.02348e-05
-8.27272e-07
-0.00493634
-4.53157e-08
0.000198601
-4.74565e-07
-0.00483026
-0.00583506
1.6415e-06
-6.82098e-08
0.00542472
-0.000144466
0.0334919
-8.71886e-08
-1.04163e-07
0.00165731
-0.00532396
-0.0153054
-4.49892e-08
3.00081e-06
4.54484e-06
-6.18568e-07
4.24953e-06
-3.63085e-07
2.38381e-06
3.47824e-06
-4.2627e-07
-1.22992e-06
7.25574e-08
-1.14355e-07
-9.17705e-07
-0.00928635
-1.251e-06
-9.17536e-05
-2.50544e-08
1.03396e-05
0.00592061
-1.8575e-08
-9.26363e-10
4.69708e-07
-1.98763e-07
-0.0125686
6.03215e-06
0.00169555
-9.79803e-07
-4.08259e-05
-1.00396e-08
-5.45039e-08
-9.10399e-07
-4.41164e-08
-8.04457e-07
-0.00325759
-7.54212e-07
-3.41239e-09
-1.62737e-08
0.0121418
-2.10427e-07
-6.63681e-08
-1.17e-07
2.30967e-07
-1.76991e-07
3.42732e-06
-5.36779e-07
-5.52178e-09
-5.73816e-08
3.97981e-06
-2.64931e-07
0.00186853
-8.14141e-07
1.4403e-07
-1.20106e-05
-1.71864e-07
-5.05935e-07
-1.55726e-06
-1.02647e-05
7.16361e-07
-5.90775e-06
-1.35319e-08
6.22076e-10
-1.77709e-07
2.35768e-08
-9.38433e-07
0.00112433
-0.00800184
-9.34464e-08
-0.018966
0.0298447
3.1682e-08
-5.49053e-07
-4.1701e-08
-1.45226e-06
-0.00497835
-9.07867e-08
1.66277e-08
-2.33892e-07
5.45976e-06
2.52542e-08
-3.39538e-07
-1.43214e-06
2.11943e-06
-6.33333e-07
-2.78656e-08
8.84119e-05
2.02564e-06
-1.44208e-07
-1.90089e-06
-7.80584e-07
-0.00676325
-8.98148e-07
-7.77701e-07
1.9276e-05
-6.59924e-07
8.41255e-07
-1.97048e-06
-9.23148e-07
-1.33668e-07
-2.41195e-07
-1.05069e-06
-7.42007e-07
-0.00115132
-6.0713e-07
-2.37514e-07
-0.000212171
-5.97895e-07
-8.16699e-07
1.4743e-08
-4.76537e-07
2.14206e-08
2.04606e-07
1.93851e-06
-5.44921e-07
-1.09018e-08
-6.13723e-09
-0.000415327
1.02603e-08
-7.5235e-06
-1.73783e-07
1.48334e-07
1.3405e-07
1.13719e-08
-1.90674e-07
1.04412e-05
-4.46232e-07
-0.000533427
-0.00170291
2.22561e-06
1.11885e-06
1.7535e-05
1.56821e-08
1.85476e-06
-5.38843e-08
6.83346e-09
-6.20067e-07
-6.49915e-07
0.00156571
-6.42996e-07
0.0221967
1.88801e-07
1.01367e-09
-9.41617e-08
-3.05335e-07
-0.00336303
-8.30379e-07
2.69292e-06
-5.95078e-08
-9.67512e-07
-8.02329e-07
1.63263e-07
8.23797e-07
-1.74813e-07
0.000412394
3.53243e-08
-3.99045e-07
-8.91653e-06
5.00538e-08
-1.00794e-07
-1.14045e-07
3.31693e-08
-1.20207e-06
-3.69016e-08
-7.92988e-07
-0.00105136
-4.50102e-07
3.63725e-09
1.60405e-07
-0.0103192
6.16713e-06
1.90981e-08
-2.0932e-07
-3.31529e-07
-2.47576e-07
-3.5636e-07
-2.89052e-08
-4.24369e-08
7.5974e-09
-3.74832e-07
-4.96104e-07
7.87534e-06
-8.33257e-08
-1.09711e-06
9.56459e-09
-2.19965e-07
0.0018921
-0.00418847
-2.50105e-05
7.104e-08
-0.00665738
1.01435e-07
-0.00218391
8.1281e-09
2.40892e-06
0.00613738
-3.70769e-08
-7.67444e-07
-4.05961e-08
1.85003e-06
-0.012915
-5.45854e-08
-1.03154e-08
1.64094e-07
-2.73224e-07
-0.000461575
-0.00420497
-5.42194e-08
0.00256045
-3.43553e-07
0.00467829
0.0182588
-1.4907e-07
-8.64549e-07
-2.41516e-06
-2.28837e-09
-7.1268e-07
0.000852791
-3.84125e-07
3.39178e-08
-3.19579e-06
-2.11486e-06
-5.52385e-07
-9.33156e-06
-7.10479e-08
-2.7821e-08
-1.77159e-06
8.60274e-07
0.00782292
-9.3679e-07
-1.27403e-06
4.32587e-05
0.0287872
-7.67739e-07
1.83765e-05
-9.51426e-07
-1.55957e-05
-1.91279e-08
1.69616e-10
2.34859e-07
8.02061e-08
3.82829e-06
-2.39504e-07
-9.83583e-07
-0.0176535
-6.89267e-08
2.24033e-07
-1.05129e-06
-3.28072e-07
-6.67415e-08
0.00442193
-1.56744e-08
1.10742e-09
0.0158105
-2.54899e-08
0.0199319
-3.11922e-09
4.10696e-06
-1.69596e-08
1.95149e-07
1.46742e-05
-5.6428e-08
-1.71341e-05
3.93515e-06
-6.04837e-08
0.0218708
0.0103687
1.7984e-08
-5.84838e-07
-6.05729e-06
-2.06421e-06
8.01582e-08
-0.00340266
-1.86964e-07
-5.42834e-08
-0.000283394
0.00577383
-1.32763e-07
-6.7901e-05
9.93245e-06
-3.71967e-08
-1.79993e-07
5.20263e-06
-1.54858e-05
-1.33177e-07
7.54426e-06
2.51169e-05
0.00150957
3.55e-08
-3.34819e-07
-3.0329e-07
8.96375e-08
-8.53364e-07
-0.0118327
2.23901e-06
-4.78586e-07
-0.00597881
-3.95154e-07
-1.03147e-07
-0.00375638
-0.00164539
1.22785e-08
1.43054e-08
-2.23754e-06
-0.00195849
-5.21744e-08
-2.08105e-07
-7.85127e-08
0.0265826
0.0225618
-2.9347e-07
1.36198e-08
-0.00241709
2.13224e-07
-0.00424166
-1.34036e-07
-1.01029e-09
-4.48037e-07
-2.80557e-09
-4.46451e-08
-1.44048e-08
-1.47856e-08
0.00485521
-0.00393289
7.32274e-08
0.0278632
1.559e-06
-0.00094779
9.78146e-07
0.000561273
4.363e-07
9.16275e-08
-7.28357e-07
-2.13918e-07
-3.6757e-09
-4.20544e-07
-1.23593e-07
-1.07579e-06
-0.00045756
-4.5561e-05
0.000635671
8.46934e-07
-7.40499e-07
-4.37738e-07
-2.06057e-06
-0.00468559
-1.03391e-05
1.68821e-06
1.16878e-07
-1.99284e-08
0.00903056
-2.70735e-08
-1.19504e-06
-1.61243e-06
-7.92157e-07
-6.68764e-05
0.00365111
0.0164836
-6.60523e-07
0.0282785
-2.20342e-06
-0.000750515
-8.50575e-07
0.00785192
2.01711e-05
4.58545e-05
-4.51239e-07
-5.31992e-08
6.61593e-06
-2.2834e-07
3.78588e-07
-0.00273256
-0.000199114
-0.0157792
-0.000136001
2.05061e-06
0.00364989
0.00761166
-0.000926858
-2.60349e-08
-8.49977e-07
-3.75151e-08
0.00517576
4.71305e-05
0.00530097
2.30996e-06
-0.00781062
0.000525613
-0.0192648
4.78185e-07
0.0321374
-5.17564e-07
-1.30893e-07
-2.91553e-07
7.65018e-06
-4.6893e-07
-2.17403e-08
-9.07472e-09
-0.00220416
3.35668e-06
-2.40653e-06
-2.70401e-07
-0.021322
0.00697002
-1.51732e-05
-5.26854e-05
2.92067e-05
2.27373e-09
-9.81775e-09
1.8305e-05
9.24668e-06
0.0242431
-0.00315477
3.16992e-09
0.00813422
-3.64921e-07
-1.59224e-06
0.0013062
-8.27279e-07
-1.05443e-07
1.05382e-05
-0.00904494
-4.78671e-07
-0.00468973
-0.0183516
2.72172e-05
-3.02708e-07
-0.0119509
-0.00633365
3.35928e-06
3.35605e-06
-4.00926e-08
2.08242e-07
-8.49757e-05
-5.37761e-07
-5.22397e-07
-2.62149e-08
-1.1603e-06
-4.52075e-07
-5.46631e-07
8.74141e-07
6.68564e-06
4.07933e-06
-7.37059e-08
-9.51413e-08
9.92845e-06
-5.86471e-06
0.00151222
-5.4089e-07
0.00278992
-3.18405e-07
-0.00413825
2.45201e-06
-2.35033e-08
-0.00283738
-2.429e-05
2.08606e-07
-2.89986e-08
-2.10607e-06
0.0217178
3.64647e-07
1.231e-07
-2.4729e-07
4.57183e-08
-0.00528079
0.014784
1.69332e-07
-1.32728e-08
0.00105476
0.0209899
0.0142769
-1.32032e-05
-2.00853e-06
-6.49883e-07
-6.58155e-09
-2.19458e-07
-2.12053e-08
-5.88213e-06
-1.71003e-06
-3.86856e-08
-7.73485e-07
-2.0926e-07
-6.83318e-07
0.00389431
-3.47618e-07
5.98311e-06
-3.45919e-08
8.96667e-07
-1.94219e-08
-1.80213e-05
-5.66096e-09
-3.84933e-08
7.96379e-06
-0.000639723
5.11259e-08
-3.23463e-07
0.00778699
-0.000155405
1.28593e-06
-1.64486e-09
0.0103379
-0.00141518
-7.44165e-07
-2.93134e-06
-8.68507e-07
-2.06762e-07
-0.00323269
4.48924e-08
-5.67871e-05
-2.37989e-08
-1.12574e-06
-6.41262e-07
9.19838e-07
1.49108e-08
-1.80549e-08
-8.11479e-08
-6.60746e-07
-3.38059e-07
-9.39871e-07
-4.81568e-08
-6.27121e-09
-2.38038e-07
-7.09474e-07
-3.06065e-08
0.0225439
6.48713e-08
-3.26347e-06
7.10767e-08
-5.70054e-08
-2.55412e-07
7.47371e-08
-1.82906e-08
7.31877e-08
8.82027e-07
1.31567e-05
0.0310642
-8.33705e-05
-1.62046e-07
0.00103637
-6.59146e-07
-0.00722321
-3.15919e-07
1.4768e-07
0.0200831
-1.03635e-08
2.10284e-05
2.10716e-07
-1.99528e-07
2.12649e-08
-2.83e-08
-1.72805e-06
-7.8373e-07
0.000764732
-8.07735e-07
-4.15205e-07
0.0234266
-9.80072e-07
2.47242e-06
-1.59572e-06
-2.51922e-08
-1.90183e-08
1.96418e-07
0.000130203
0.0219911
6.87156e-07
-3.65409e-07
-1.892e-08
-2.63111e-08
2.5509e-07
2.13713e-06
-0.00574206
-5.75287e-06
-6.35358e-07
1.35797e-08
4.33031e-09
-1.07461e-05
2.43834e-07
0.00424519
-7.75127e-07
-1.21758e-06
-0.00178848
6.90689e-07
-0.00409781
-6.96525e-07
-4.97381e-06
-0.000542415
-1.18944e-07
-1.06215e-07
-8.04206e-06
-2.69202e-05
-3.04258e-07
-3.32553e-07
-2.09578e-08
-2.72461e-08
-5.43847e-08
-3.42214e-07
-0.00293663
-3.87067e-08
-2.95103e-08
0.00677109
-7.46424e-08
0.00984693
-0.00735079
1.86317e-08
-4.85318e-06
7.13386e-06
-1.77627e-07
4.38817e-06
-9.76214e-07
4.73844e-09
1.5e-08
0.00488135
-4.76432e-07
-5.49251e-07
-5.64157e-07
5.04277e-06
-5.88409e-06
1.26252e-05
0.00459313
9.25595e-08
-2.955e-07
-6.57665e-07
-6.81994e-07
-4.62164e-08
-8.1212e-07
-0.00218192
-1.62045e-08
-5.83203e-07
0.0208557
-8.15175e-09
-6.61423e-07
2.14133e-05
2.81629e-08
-6.31492e-07
-0.00513275
-3.755e-07
0.00937806
-0.00757679
-1.40101e-06
-4.10713e-08
-2.73743e-06
-0.00983114
2.25311e-06
-8.50853e-05
8.0565e-06
0.0057399
-0.000975037
1.00704e-05
-2.92625e-07
0.00167161
-5.02014e-07
0.000993543
-3.87527e-06
-4.76328e-07
1.63884e-06
-1.28138e-06
-0.00356321
-3.55693e-07
-5.47138e-06
-0.00730825
6.24567e-07
-6.59439e-06
-7.88344e-07
-5.28346e-06
6.87245e-09
6.75834e-06
0.0175386
0.0114566
-0.0114265
6.30483e-07
-4.81834e-08
-9.71777e-09
-7.32454e-07
-1.08735e-07
7.10731e-09
-1.49566e-06
-3.04795e-06
-8.80602e-07
3.76287e-08
-7.94542e-07
-2.26228e-07
-7.50719e-07
-0.00651129
0.0021839
-2.61896e-08
-7.71169e-08
-3.10665e-08
-2.67774e-07
1.70532e-08
0.00304701
-4.37195e-08
3.95968e-08
-5.54057e-08
1.49704e-06
9.339e-07
1.15511e-05
6.15957e-09
0.0157847
-6.73772e-07
-2.8519e-09
-0.00392175
-0.0104046
-1.91753e-07
-2.90671e-06
-5.70167e-07
-0.0123232
-6.98769e-08
4.11601e-06
-3.66207e-07
3.23656e-08
-8.80978e-07
2.33997e-06
-1.64016e-07
-3.49185e-07
2.63447e-07
-1.55465e-08
-4.42364e-08
0.000806501
-7.6369e-05
3.9844e-09
2.79886e-08
-6.46049e-07
-1.57854e-08
0.0272098
0.00682344
-1.36961e-06
4.89637e-08
2.28328e-06
1.55184e-06
-1.09194e-08
1.83963e-07
-6.095e-07
-8.74761e-09
9.08875e-09
-0.000105638
0.0309966
1.86331e-06
-0.00284653
-2.40326e-07
-5.37904e-09
1.44627e-07
-6.48711e-07
-1.88523e-08
-0.000282821
7.61959e-08
-0.00115144
-1.288e-08
-1.06969e-06
-3.11049e-07
-2.81867e-07
-1.64291e-06
0.00458252
4.83918e-06
0.00396002
-2.28633e-07
-0.013481
-1.26831e-06
-4.69479e-07
-0.0010088
0.00640776
1.12941e-08
-9.27178e-09
4.90071e-07
2.64007e-08
-0.000332425
1.67963e-06
-4.93002e-07
-3.77584e-08
-4.23216e-07
-1.33603e-06
-1.5194e-07
3.67915e-07
-3.41785e-08
8.77494e-07
-6.27163e-09
-0.00117267
0.0032229
-0.0046869
-1.1542e-07
-2.23149e-07
-1.61617e-08
1.60043e-06
8.51222e-07
-2.94528e-08
-2.44932e-07
-1.73569e-06
9.80769e-08
-4.87763e-07
-0.0176293
-0.0023482
-9.90368e-07
-1.62661e-06
6.52104e-08
-6.40691e-07
9.32016e-07
1.00537e-07
0.00564927
-0.00384183
-1.92313e-06
-0.00288671
1.70143e-07
-0.00371673
6.1568e-07
-7.37559e-07
-5.11924e-08
-0.00830443
-1.67178e-07
0.000537963
-7.63765e-07
-6.6996e-07
-5.90282e-08
-1.87309e-06
0.00726096
-0.0131872
-0.00235403
-6.1278e-08
1.49848e-08
-2.54885e-07
0.0279902
7.85929e-07
-4.37696e-07
-2.07982e-08
-0.000815009
-4.9378e-08
-6.99404e-07
-3.94528e-07
-0.00737761
-2.13936e-08
-0.00188999
-6.56556e-07
1.96702e-07
-1.58472e-07
-1.87582e-06
1.69689e-06
4.65811e-07
3.17015e-08
2.13175e-08
-3.19988e-08
-1.92132e-07
-1.61807e-06
-7.85559e-07
-0.0149438
-8.59042e-09
9.81878e-07
0.0238926
-2.87603e-08
-2.04728e-08
-1.17893e-06
-7.63986e-09
1.56387e-05
-8.80607e-08
1.60452e-08
0.0177611
1.89649e-07
1.5342e-06
-1.06648e-08
-5.95861e-07
-6.51013e-07
-6.18116e-08
-0.00375419
1.39179e-07
1.17172e-06
-2.87947e-06
-2.0011e-08
-1.46632e-08
3.92855e-08
-9.21205e-07
8.31983e-08
-3.02358e-08
-0.00129093
0.0172286
8.88929e-07
-3.32195e-08
-1.68518e-06
-7.55973e-09
-0.00233011
-6.65864e-07
-2.22938e-07
-0.010885
-1.88238e-06
6.56232e-08
-6.40435e-07
-2.03324e-08
-4.57071e-07
-8.63399e-07
-1.28906e-07
0.00800822
-3.54187e-08
-4.39496e-08
-0.00189656
-2.2994e-07
-8.37057e-05
-7.34997e-07
-5.00883e-08
0.0107411
1.29707e-06
-5.36729e-08
-0.00566189
-0.00875107
0.0258271
2.78961e-07
2.19003e-05
4.8733e-08
-0.00934095
-0.00566834
8.35986e-08
-1.47193e-06
3.80229e-07
1.39123e-07
1.66715e-08
0.006385
1.05726e-08
-1.07543e-07
-8.6728e-07
-0.005867
-3.3222e-08
9.29339e-07
-8.66228e-07
-4.95641e-07
-1.66539e-06
-8.27106e-08
0.000124662
-0.0100343
-0.00764582
-5.55531e-07
-4.33491e-08
-7.48161e-08
-7.82833e-07
-2.71452e-07
-0.00418334
-3.49972e-07
-4.34312e-07
0.000473687
1.07595e-07
-2.83929e-08
-8.1842e-09
-7.78181e-07
0.000315426
-4.22403e-07
-0.00531265
0.0220745
-2.30135e-05
-6.43105e-07
-2.21963e-06
-5.53485e-06
6.9471e-07
0.00396235
5.39509e-06
-3.46377e-07
-2.84719e-07
-3.17905e-08
0.0103376
-1.74475e-08
-9.23171e-07
1.45432e-08
-7.49613e-07
-9.18339e-07
-2.98061e-08
-9.11343e-07
-9.52664e-07
1.51536e-06
-2.20102e-07
-2.91947e-07
-2.9476e-07
1.56023e-07
-1.00466e-09
4.79782e-08
1.82813e-07
-5.82574e-06
-6.35641e-07
7.07772e-09
3.90661e-07
-0.00251091
0.000921587
1.69222e-07
-6.27282e-07
-1.02846e-06
-1.08106e-08
6.36786e-07
-1.83249e-08
-1.66977e-06
-0.0051075
0.0371907
-1.55666e-06
-1.50167e-10
-0.00948382
-0.010269
-0.00669722
-7.46306e-08
-3.89191e-07
0.0203826
-0.00288329
1.63367e-06
-5.99881e-07
-7.80843e-07
-7.04383e-07
1.16551e-05
4.28499e-08
-7.90048e-08
-1.06788e-06
-1.67228e-06
-4.2191e-08
-1.31334e-06
-2.05315e-08
-1.11769e-06
1.93204e-07
8.74236e-06
3.13644e-06
-3.6658e-07
6.41799e-06
0.0241324
0.0087887
-1.56444e-07
-4.28653e-07
2.36908e-07
3.51887e-08
5.75117e-07
-3.21792e-08
-5.89539e-08
-1.79347e-07
1.39834e-08
-4.84786e-07
-6.90341e-07
-0.0159457
-1.24281e-07
-4.31149e-07
8.28994e-06
-1.13538e-06
-3.73813e-06
-5.00631e-07
1.61633e-07
3.33483e-09
2.6e-06
-6.40159e-08
-2.17929e-07
-5.45583e-07
-8.72261e-08
9.44436e-08
5.39022e-08
3.88853e-08
-0.0037017
5.35896e-05
-6.81676e-07
-0.0011561
-2.50295e-08
-1.9423e-06
-0.0102021
2.19973e-07
5.53345e-06
-0.00208923
-3.04588e-07
-6.20471e-07
-6.35639e-07
-1.52474e-08
-0.000386235
-0.00202449
-3.79243e-07
6.00099e-07
1.34208e-07
0.0148715
0.0142644
1.66029e-06
-1.65259e-07
-0.0024083
-1.929e-08
3.6671e-05
6.01463e-07
0.0275422
5.0165e-09
0.00114117
-1.06114e-08
-4.55253e-08
-3.60305e-09
-3.40444e-05
-1.43735e-06
1.04693e-05
-1.89025e-07
-5.02616e-08
-8.72702e-08
1.14635e-08
0.00557492
-0.00596614
-5.57325e-07
-2.43288e-05
6.07604e-08
6.74081e-07
0.0222113
4.09043e-08
-2.26512e-08
3.75289e-08
-1.28414e-06
-2.05905e-09
-1.03543e-07
4.26376e-08
0.0312429
-3.29792e-07
-0.00763185
5.10304e-08
9.35602e-08
-2.98456e-08
-7.30036e-07
-5.34669e-08
-1.14577e-08
-9.6133e-07
-4.34817e-07
-9.20875e-07
-6.19458e-06
-5.52826e-07
-1.9235e-08
-1.80775e-08
-5.96048e-06
7.27629e-08
1.63342e-07
-0.0038315
2.52239e-08
1.66012e-08
-1.43344e-07
0.0334074
-9.11522e-07
-4.60047e-09
-2.95834e-07
-1.65395e-08
0.00883578
0.0361698
-7.72785e-07
0.0247924
4.45228e-06
6.8712e-08
0.0102824
6.34415e-09
-0.0119633
-1.17482e-06
4.64485e-07
2.55387e-07
3.26088e-06
-5.46193e-07
-6.92017e-07
-3.47452e-07
2.22542e-07
-1.68016e-07
-4.03924e-09
-3.90705e-07
-0.00244649
-3.09165e-08
1.00562e-07
-5.44581e-07
6.55497e-08
-0.000839666
3.81256e-09
-1.35467e-08
-1.08386e-06
-4.76788e-07
-5.4163e-06
2.31151e-07
0.00254452
-0.00386362
0.0303828
-3.84779e-08
-1.15485e-06
8.94799e-09
0.00815037
-5.6327e-08
-5.19389e-08
-1.40134e-08
1.00311e-07
-1.20882e-08
-6.18319e-07
3.98721e-07
-0.000150186
0.0103332
-7.14498e-08
-6.43174e-08
-1.20702e-06
-0.00551779
-2.92414e-07
-1.47557e-07
-6.74503e-07
2.32435e-07
-0.000696641
-1.18812e-06
-7.73916e-06
0.0250127
-6.30348e-07
0.00108015
-4.55137e-07
-1.51724e-06
-1.08317e-06
-5.12537e-08
-8.37634e-07
-0.000269699
1.08423e-06
1.93107e-06
-0.00702053
-4.70371e-06
2.72474e-07
-2.20112e-08
0.0161149
-0.000131725
1.61847e-07
-4.54114e-05
8.28207e-06
-2.30159e-07
-6.9621e-07
-8.01589e-09
-3.08517e-08
3.50386e-07
-0.00663855
0.00421161
-0.00257276
2.77502e-07
-3.72471e-07
-3.41991e-08
-2.45079e-08
-1.88154e-07
-4.54927e-06
-5.51022e-07
1.00083e-06
7.10801e-07
-5.72541e-07
-6.07282e-07
-1.32092e-07
-4.88781e-07
-1.5624e-07
1.59376e-06
-2.80135e-08
-6.26011e-07
1.34927e-06
0.00136926
-0.000331991
-2.57424e-08
0.023077
-7.9948e-07
-1.37546e-06
-4.89884e-07
-1.97605e-08
3.76165e-09
-6.03125e-08
0.0132347
1.99486e-07
-1.02514e-06
-2.30209e-08
2.32682e-08
-5.27792e-08
0.0203628
-1.40289e-06
-3.48044e-08
-2.33588e-06
0.00270869
-4.28486e-09
1.67025e-07
-9.78382e-08
-4.04862e-07
-0.00386475
9.93637e-07
-2.63151e-07
-0.00030005
1.66837e-06
-5.76973e-08
-8.47023e-06
2.79344e-11
0.000404338
0.000509458
-1.32427e-06
-6.16089e-06
-5.57262e-07
-6.86159e-07
-2.34222e-08
-4.52621e-07
2.42815e-07
-3.97989e-06
-7.49975e-06
-9.08368e-07
-1.02263e-08
-6.65337e-08
-1.92203e-07
-6.34173e-07
8.15301e-07
2.94412e-07
-3.55759e-09
8.13296e-07