/*--------------------------------*- C++ -*----------------------------------*\
| =========                 |                                                 |
| \\      /  F ield         | OpenFOAM: The Open Source CFD Toolbox           |
|  \\    /   O peration     | Version:  v2012                                 |
|   \\  /    A nd           | Website:  www.openfoam.com                      |
|    \\/     M anipulation  |                                                 |
\*---------------------------------------------------------------------------*/
FoamFile
{
    version     2.0;
    format      ascii;
    class       volScalarField;
    location    "250";
    object      ddt0(k);
}
// * * * * * * * * * * * * * * * * * * * * * * * * * * * * * * * * * * * * * //

dimensions      [0 2 -3 0 0 0 0];


internalField   nonuniform List<scalar> 
18540
(
1.03958e-05
3.08635e-09
-4.02213e-09
5.92813e-07
9.18254e-09
-9.52225e-09
1.73987e-08
1.10867e-08
-5.89494e-05
-2.22648e-08
6.80009e-08
-1.23188e-07
1.47748e-05
-1.04941e-08
-1.03091e-05
6.15881e-05
1.88419e-07
-2.48553e-08
1.27899e-05
9.38172e-07
-1.21036e-07
-2.46246e-08
2.2896e-08
5.9838e-05
8.66654e-09
1.39958e-08
6.93099e-06
4.0711e-08
3.27736e-08
8.25047e-05
-3.51984e-09
3.07774e-08
7.47663e-07
8.48412e-05
9.63319e-09
1.22733e-06
-3.05298e-08
1.41099e-08
4.26745e-09
-5.94489e-06
-4.95246e-09
1.61013e-08
-5.05253e-06
-0.000122532
3.58287e-08
6.04361e-09
2.13485e-05
-1.00012e-08
-1.59503e-08
3.92427e-08
-8.29839e-09
-4.45736e-05
-6.0954e-06
-3.04547e-11
4.97384e-09
-2.68883e-09
1.50816e-05
-1.74999e-05
-1.42278e-05
-8.97992e-09
4.74353e-06
-3.98845e-08
1.86364e-08
-1.2358e-07
1.71673e-05
-1.07832e-09
1.20068e-06
-3.95951e-09
-1.42754e-05
1.13944e-08
-1.10441e-09
5.08963e-08
1.18169e-07
-2.11128e-05
-1.39295e-08
2.19912e-07
-1.79402e-07
-5.6597e-09
-7.85764e-08
-1.9407e-07
4.65269e-09
-8.86056e-05
-1.15918e-08
-1.37823e-06
5.08994e-06
-0.000121007
-1.26439e-08
-6.99268e-09
-3.77396e-09
-0.00012752
-2.46457e-06
4.72759e-07
-4.32881e-08
2.69514e-09
-1.11226e-08
-3.05614e-08
-5.21627e-08
-8.27698e-09
-2.69675e-06
2.78029e-05
-6.21409e-09
-9.55807e-09
8.26908e-08
8.21128e-05
1.42569e-05
6.48279e-07
-3.20361e-09
-1.50958e-05
1.87413e-08
4.78871e-08
1.47078e-05
1.52374e-05
8.84863e-11
2.36589e-08
-2.00454e-05
-3.56212e-08
-3.79504e-08
-8.3222e-09
2.1794e-08
-7.14691e-09
1.53433e-05
-0.000106852
-2.80503e-06
3.20772e-05
-1.25549e-08
3.1007e-08
-1.40955e-08
-1.06681e-07
-4.24534e-06
1.32871e-07
-1.51136e-05
-3.47607e-08
-1.19936e-08
-0.000151473
-6.42348e-09
2.44256e-09
7.01651e-08
-2.03733e-08
5.22921e-08
-1.31028e-08
1.96355e-05
2.89912e-08
1.00516e-08
3.29783e-05
-3.5598e-08
7.42528e-09
-2.51411e-08
-0.000154368
-1.66021e-08
-0.000101295
-2.79184e-09
-6.58093e-08
1.7872e-08
-2.72226e-05
-7.87151e-05
2.34768e-05
-7.59167e-05
-7.22312e-09
-3.65359e-08
-8.18224e-06
6.98117e-08
-2.44197e-08
-3.41928e-07
1.23702e-08
7.3238e-06
-1.11247e-07
-0.000111211
1.15026e-07
-1.2788e-05
1.56156e-09
-1.12616e-08
2.84557e-11
-9.96543e-09
1.22699e-08
-1.53314e-08
-2.33859e-06
-4.64988e-08
-3.94548e-06
-8.96049e-05
6.7368e-05
1.23166e-08
-2.05915e-07
-2.27204e-08
2.4251e-07
6.49566e-08
1.22504e-06
-6.92576e-08
1.13084e-08
4.89277e-06
-3.22229e-08
7.21387e-09
-2.33558e-09
9.39085e-05
-3.44029e-08
-1.0347e-07
-4.31736e-08
-2.93663e-08
6.95827e-05
-2.22912e-06
2.01668e-08
9.85806e-09
4.29254e-07
5.81731e-08
2.11335e-08
-0.000107616
2.99069e-06
2.61078e-08
1.06978e-06
-2.99022e-05
-7.58583e-09
8.91512e-08
-1.30086e-05
-4.35264e-06
-6.93732e-09
-1.0042e-07
-1.71675e-08
1.38505e-05
-5.11416e-06
6.70319e-05
-0.000173144
-1.26671e-05
1.61989e-07
-1.17735e-05
-8.06311e-07
3.84112e-05
4.73504e-06
-2.04324e-08
-2.13504e-09
-1.45867e-05
1.22124e-08
-9.65837e-09
-1.36389e-08
1.02394e-06
-3.68904e-08
1.93695e-07
-1.16307e-08
1.99472e-08
-7.03637e-08
8.27375e-08
5.41277e-08
-5.90194e-05
-2.57702e-05
-8.54911e-07
-2.18776e-08
-0.000104508
-2.61643e-05
7.7605e-09
1.02856e-08
9.85759e-09
-2.25897e-08
3.61137e-07
-2.63733e-05
-7.71888e-06
-5.15209e-08
9.37044e-08
-1.09163e-07
4.8375e-06
9.25534e-05
-8.86978e-09
-5.38269e-05
-3.26782e-07
1.21629e-06
-4.18973e-08
1.25923e-05
1.02932e-05
8.23909e-09
9.52649e-05
-3.01986e-05
-1.51719e-07
5.14253e-08
-2.55023e-06
3.27724e-06
1.82347e-06
2.58492e-08
-1.97329e-07
-6.73281e-06
-2.29797e-08
2.46012e-08
-2.12245e-06
1.16696e-07
-2.87253e-08
-1.42802e-05
9.59291e-09
-1.99541e-08
-1.49255e-05
-3.50689e-09
-4.65199e-05
6.01371e-09
-6.05744e-07
1.92455e-06
-2.41173e-05
-0.000193309
-8.03594e-08
1.27599e-07
-0.000100297
-8.46631e-09
5.06568e-05
1.5566e-08
0.000126043
-1.30876e-07
-3.54499e-09
-1.33713e-05
-0.000119771
1.6185e-06
3.27193e-07
1.37644e-09
-7.4402e-05
8.34274e-10
6.36205e-05
5.46127e-08
-4.37524e-05
1.79521e-09
-5.71915e-06
-2.24834e-08
6.02849e-05
-7.63403e-05
-9.86229e-06
1.8765e-07
-8.24598e-06
-1.7631e-05
-4.3357e-07
2.8921e-05
-9.20092e-09
-1.30591e-05
2.38519e-08
5.977e-09
-2.57205e-08
2.26323e-08
-5.55826e-08
3.35773e-08
-5.81251e-09
1.14624e-08
-1.11e-05
-4.69749e-08
-2.76807e-05
1.52058e-07
1.51168e-08
-5.00168e-08
1.40878e-05
-1.53186e-06
-1.95882e-08
1.21155e-08
-4.61558e-09
2.82941e-06
-6.02269e-07
7.14833e-05
-1.62417e-08
2.88078e-07
-2.37257e-08
2.02779e-05
-2.44054e-06
8.6205e-08
-0.000105544
-3.35999e-08
4.17397e-07
-1.70577e-05
-1.64473e-08
1.49283e-08
-5.34862e-08
-5.33734e-05
-1.93182e-08
2.17579e-08
4.1107e-08
1.06544e-08
-1.98411e-05
8.71284e-08
-2.13327e-08
3.04431e-08
3.20698e-08
-5.28887e-09
1.01047e-05
-4.2472e-09
-4.20652e-07
1.02364e-08
-7.69036e-08
-0.000146185
7.82803e-09
-0.000293201
1.3264e-08
0.000154332
-3.73238e-05
3.89023e-09
3.77972e-07
-2.45105e-06
4.74183e-08
9.68496e-09
-8.30458e-06
7.7744e-05
-1.00687e-09
-4.28587e-05
-3.22504e-06
9.75186e-09
2.37731e-08
-1.38564e-05
1.11581e-05
-1.16191e-07
-2.3624e-05
4.28864e-07
3.97878e-09
-3.63903e-05
5.36291e-05
-0.000120628
-2.24328e-08
9.50458e-08
3.5577e-09
2.31786e-08
-0.000277744
-3.17583e-06
-8.79156e-09
-1.56373e-08
0.000146612
-1.11499e-05
-2.5152e-07
-2.33778e-09
3.32378e-09
-2.39148e-05
-1.31537e-07
-1.18708e-08
-1.25553e-06
-9.13284e-06
0.000183069
1.25489e-05
-6.48813e-09
-4.59529e-05
-1.59789e-08
-3.32911e-08
3.8751e-09
-1.39007e-05
-2.4937e-08
-7.11447e-08
-2.06151e-08
3.28639e-06
-1.77263e-08
-3.88352e-05
-2.37016e-08
-4.33758e-06
-1.50785e-08
-1.00187e-08
-9.50492e-05
-4.42122e-08
-1.21687e-05
2.97961e-08
-7.20289e-09
7.54218e-06
-1.13163e-08
-4.88898e-09
3.61667e-08
7.70154e-06
1.08601e-07
-1.48738e-08
-5.3905e-05
-2.41026e-05
3.8824e-09
-4.08573e-09
-2.36506e-09
-4.20503e-08
-3.70291e-08
-2.31034e-08
8.76871e-06
2.12483e-05
-1.39747e-08
-1.78907e-08
-2.38569e-08
1.36304e-08
-5.39188e-09
8.88963e-08
-1.34351e-05
-9.46147e-09
3.01571e-05
1.64064e-07
2.05179e-05
1.67074e-06
-1.04118e-05
-4.99789e-05
-2.06919e-05
-9.07624e-10
3.36568e-06
2.92842e-09
1.1076e-05
1.11188e-08
2.86823e-08
4.92097e-09
5.98497e-05
-1.47294e-08
-8.22385e-09
7.27355e-09
-1.31681e-08
-1.81375e-05
-1.97289e-08
6.2e-09
-6.49286e-05
8.52506e-08
-2.94185e-07
2.48279e-06
3.8161e-05
-1.89777e-05
2.58368e-08
2.45942e-06
-8.64895e-08
7.19233e-08
6.21903e-05
-1.10794e-06
-1.98852e-08
-1.20203e-07
1.42838e-08
3.12422e-08
-1.9018e-05
1.19439e-08
-1.14915e-05
-3.02484e-06
4.42816e-10
-9.82291e-08
1.4286e-08
-1.41321e-08
-7.6969e-05
2.06691e-08
2.56217e-08
-1.07272e-08
1.07615e-06
-2.92549e-09
1.11597e-06
-2.29136e-08
-3.609e-07
0.000122532
-9.86597e-09
-1.00317e-09
1.37524e-07
6.29731e-08
-1.46585e-08
1.23993e-08
-2.21534e-05
-2.56132e-05
-2.12563e-08
6.36186e-09
2.68902e-09
1.00518e-08
-3.04467e-05
9.38556e-05
1.14961e-08
4.68557e-09
-4.83732e-08
6.06033e-08
-4.80249e-07
-6.29953e-08
-9.69665e-10
3.18622e-09
-1.25953e-05
-2.80423e-05
2.08001e-08
-5.13497e-08
-1.00321e-08
-9.47715e-10
1.23336e-06
-1.68895e-05
7.18748e-09
-3.7753e-08
4.11606e-05
-2.12039e-05
5.71088e-06
3.5727e-08
-2.49684e-08
2.83077e-08
-2.22907e-08
-2.25523e-08
7.25738e-09
8.47104e-06
-1.18956e-08
-7.2903e-07
2.33067e-08
-2.11461e-07
-1.3955e-08
4.04682e-08
1.06953e-06
1.09593e-08
8.59846e-05
-4.40824e-05
-2.90282e-08
2.02152e-08
1.48495e-08
2.68428e-08
2.69427e-07
-1.56616e-09
-2.47089e-05
-4.08021e-05
-1.65726e-05
-3.72881e-08
-2.10146e-08
5.03737e-09
-9.02132e-09
6.11474e-06
1.85288e-08
1.5996e-07
3.86045e-08
-1.81334e-08
-3.76564e-06
1.6137e-07
-1.99465e-09
-1.36288e-05
3.81338e-09
4.46558e-09
-0.000102549
1.26017e-07
1.22708e-08
2.60308e-07
-5.46523e-06
6.75731e-08
9.58225e-08
3.85279e-08
5.31727e-08
1.53887e-07
-1.32293e-08
6.70303e-06
1.47393e-06
-1.45644e-05
-6.381e-08
-9.98674e-06
-5.44046e-08
3.07228e-08
-0.000329877
-1.14743e-08
1.1962e-05
1.41119e-05
2.26971e-08
-1.74471e-05
1.39709e-06
2.47652e-05
-9.4546e-08
-9.79943e-09
-1.72336e-05
8.18033e-07
-2.59447e-08
0.000135241
-9.17925e-06
-2.74263e-05
-2.00143e-10
9.97202e-09
1.54846e-08
2.20516e-06
5.02057e-10
9.76977e-09
1.47821e-05
1.14519e-05
5.83964e-08
-3.29521e-08
3.92859e-05
7.50273e-06
-2.75248e-08
-2.64072e-09
-9.1881e-08
5.77586e-08
-1.25892e-05
-3.68417e-08
1.28104e-07
1.44688e-09
9.67349e-08
-0.000138031
-1.06048e-09
2.37628e-05
-6.33507e-09
-2.03116e-06
4.02467e-08
-1.5646e-05
7.88068e-06
-1.44737e-08
-2.20889e-05
-4.58322e-08
-1.69253e-08
-0.000291835
-0.000286905
4.6334e-07
-1.45828e-08
-7.48338e-05
0.000146202
-6.31764e-06
2.72594e-05
-1.09729e-07
1.5293e-05
1.36803e-06
6.1247e-09
-1.28257e-08
-3.31822e-08
9.80327e-09
-1.34725e-05
-1.73968e-08
-2.38934e-08
-1.57897e-08
-2.14255e-05
-1.50821e-09
-1.94441e-08
3.27832e-08
1.81667e-08
0.000111738
-1.86182e-05
-2.62552e-05
-5.60908e-09
1.01347e-05
1.2272e-08
4.02835e-08
-1.71891e-08
-2.98084e-06
-1.00878e-07
9.22859e-09
3.20883e-09
-2.63858e-08
-8.88778e-09
-8.85639e-09
1.10485e-05
1.48789e-09
-2.16149e-07
-8.8955e-06
-1.7367e-08
9.60831e-09
-4.66828e-06
-9.73785e-06
-0.000281442
-2.84157e-09
3.73989e-09
-5.76434e-08
-3.66565e-08
3.8525e-07
-3.60253e-08
-1.36892e-08
5.7207e-11
-2.01887e-09
-1.14596e-08
2.98536e-08
-1.63878e-08
8.22631e-07
-2.28168e-09
-8.16813e-09
6.70945e-06
2.42138e-08
-1.9054e-08
-1.09977e-07
-2.03606e-06
1.80393e-08
1.53136e-08
0.000146272
3.57252e-07
-4.85717e-09
8.89456e-09
3.91305e-09
2.56751e-06
1.43569e-07
1.92437e-08
1.35299e-08
-1.39208e-05
2.47185e-08
8.19456e-06
2.85573e-06
1.47738e-05
1.52308e-08
-2.52717e-08
1.11441e-08
-1.14539e-08
8.9998e-09
-8.15216e-09
9.27532e-08
-2.2761e-08
2.86317e-09
1.58427e-05
1.1543e-08
-1.07923e-08
9.79461e-09
-1.93548e-05
2.59402e-05
2.31609e-09
9.9522e-08
2.67956e-07
-4.34464e-08
3.49769e-08
-7.81718e-05
2.57115e-08
4.93943e-07
3.26243e-08
2.37943e-07
5.74773e-09
-2.451e-05
2.07616e-08
1.77633e-08
1.32498e-07
-5.77419e-05
-3.78715e-08
2.91284e-06
-3.88284e-07
4.30912e-07
-4.09017e-08
3.14658e-05
1.94267e-07
2.27163e-07
5.48881e-08
-3.56511e-08
1.57172e-05
-2.33327e-08
3.83204e-09
-2.17632e-05
-1.09658e-08
3.01898e-08
6.09749e-05
4.54304e-09
2.48578e-08
1.44418e-08
-0.000307039
9.50395e-09
-1.62305e-08
3.27524e-05
2.13931e-08
-1.35527e-08
-1.1418e-05
-6.8071e-09
2.62884e-08
1.38163e-08
1.08752e-08
-7.92659e-06
1.0738e-08
1.86118e-08
-2.91082e-05
1.77062e-08
-7.57311e-06
-2.24408e-08
0.0001139
-2.52782e-08
-1.26996e-08
7.02325e-09
-3.62156e-06
9.89505e-09
1.22511e-07
-3.16978e-08
-5.61442e-08
-1.22412e-08
2.41351e-08
-7.76033e-06
3.92732e-06
-2.5164e-08
-4.53069e-05
5.25589e-07
-4.65999e-08
1.52435e-05
-9.91491e-09
-1.21229e-08
3.11509e-08
1.91918e-05
1.81517e-07
-4.76526e-09
1.31084e-08
-1.52856e-08
8.49397e-05
-1.40398e-08
-1.87106e-08
8.88303e-07
1.21715e-07
-8.34334e-09
-2.71381e-07
-6.66878e-05
-1.77606e-08
-2.96075e-08
3.24044e-06
1.79988e-10
-1.30835e-08
-1.65702e-05
2.63696e-07
2.32597e-05
-3.11187e-08
2.64752e-05
-1.00997e-09
-1.27171e-08
-2.79636e-08
6.27746e-08
6.37993e-05
-1.02155e-05
2.23952e-08
-4.77442e-06
7.11845e-09
-7.61763e-08
-1.96582e-06
3.50646e-08
3.1624e-05
7.35188e-06
-1.66041e-08
-7.12834e-05
3.71077e-08
2.36404e-05
1.91455e-08
-3.20643e-05
-3.99463e-08
-3.96458e-10
-8.68217e-07
7.28479e-09
2.72692e-08
0.000104062
-1.78725e-10
-1.95731e-08
2.28886e-06
6.64011e-09
4.35428e-05
6.23711e-08
5.9198e-09
8.9225e-08
4.84542e-06
-3.98047e-09
-8.0966e-05
4.33306e-08
-2.70142e-07
1.25838e-08
-1.50757e-08
-2.02986e-05
-0.00030777
3.42538e-08
-0.000144039
0.000104928
-9.12461e-09
5.63633e-08
-1.95685e-08
-6.61589e-07
-1.67941e-07
-2.83729e-09
-1.35084e-05
6.82413e-09
-1.86506e-05
2.48697e-08
4.37643e-05
-2.04858e-05
-1.55001e-08
-1.59374e-05
-2.56861e-06
-0.000117604
0.000135926
-2.88613e-08
-4.62104e-08
1.93671e-05
1.0233e-07
-0.000144869
1.88756e-05
1.43236e-08
-2.28254e-08
-2.16842e-08
-3.96262e-11
4.37864e-07
-1.18023e-08
-9.63402e-05
8.72731e-09
1.52135e-08
6.08575e-07
-2.07599e-06
-1.69749e-08
-1.70675e-07
9.94466e-08
4.52719e-06
-3.10635e-08
-3.51941e-07
-1.75613e-05
1.09972e-05
-3.62188e-09
-1.44142e-05
2.16089e-07
3.98759e-06
-1.96228e-08
-7.62209e-09
-5.45457e-05
-4.52618e-05
1.07173e-05
-4.96041e-05
1.8734e-09
-3.62018e-08
6.17881e-09
-8.37802e-06
-7.15949e-10
-3.51893e-06
-1.48627e-09
3.86895e-08
-4.725e-09
-1.88981e-08
9.86411e-06
0.000126009
-2.05533e-08
4.33881e-09
3.85722e-08
-4.12869e-10
6.59832e-05
-6.85606e-07
2.47527e-09
7.7223e-06
1.28442e-05
-4.38477e-08
4.40015e-08
-4.29629e-05
4.35006e-07
1.27989e-05
-1.88517e-05
4.06016e-08
4.80489e-09
9.7377e-09
0.000132237
-1.07009e-05
-2.79573e-06
5.79665e-06
3.70448e-08
-1.34903e-05
-1.3473e-08
7.21783e-05
-6.68103e-08
-2.05077e-07
-1.57913e-10
-3.72637e-09
6.75232e-08
-2.78285e-08
-2.92327e-05
8.34742e-09
-7.73345e-05
-4.10825e-09
-1.01409e-08
-1.18728e-05
1.59549e-05
-7.36759e-09
-6.8403e-05
-8.55991e-06
8.82143e-09
6.61888e-06
5.39962e-05
6.10028e-06
-3.74414e-05
-1.26306e-07
-1.52473e-08
2.61038e-09
6.28506e-08
-5.02013e-08
-1.20193e-08
-0.000303292
6.77571e-06
-1.44185e-07
-8.9678e-05
-1.50937e-07
4.82754e-05
-7.14622e-09
-1.29511e-08
-1.89185e-08
-5.76559e-06
2.04752e-08
0.000163951
-3.26191e-08
-2.76679e-08
4.17359e-07
4.89044e-09
4.47425e-05
3.24743e-08
4.70939e-09
-6.69369e-08
-5.0648e-06
-7.97323e-09
-8.87972e-06
-2.72293e-09
1.38826e-08
-1.55192e-07
-8.96738e-07
-1.01686e-08
-9.80793e-09
-3.04646e-08
8.18236e-09
3.91176e-06
-3.16106e-09
-2.59471e-09
1.0816e-09
-2.65185e-08
0.000140743
-5.25756e-06
3.50754e-09
2.90685e-09
-1.47602e-08
-3.83843e-09
-7.96354e-05
-4.57637e-08
9.07808e-09
9.53094e-08
-2.22189e-06
1.25381e-08
-1.15004e-08
-1.02907e-08
2.44066e-07
8.05692e-07
6.13507e-05
6.96643e-05
-5.59476e-09
1.14997e-07
-8.33946e-09
-1.21463e-07
-1.44379e-08
-1.45126e-06
1.81053e-08
-3.47744e-05
-0.000125672
2.96137e-05
9.58453e-09
3.9742e-06
5.04691e-05
-6.90178e-08
-1.67464e-08
-9.3847e-09
-4.28961e-10
-4.60349e-05
3.04857e-08
1.33932e-05
-9.1878e-09
-1.34639e-08
3.51952e-09
-1.57304e-05
-1.13845e-06
2.14676e-08
8.77763e-08
-5.99931e-05
-1.87528e-05
5.6795e-05
1.90385e-08
-2.53659e-06
4.08819e-07
-7.83333e-09
-5.10936e-06
-1.03017e-08
-4.06137e-08
-3.75964e-05
-2.53573e-05
-8.85459e-06
7.31199e-09
-6.43091e-06
-7.33578e-05
2.03155e-07
8.53435e-07
1.19498e-05
-6.93131e-09
-4.88833e-06
1.40286e-08
2.32773e-08
-9.62689e-09
2.25451e-05
6.60089e-05
3.54276e-08
0.000149413
4.87329e-08
3.60991e-08
-7.68454e-05
1.46561e-08
5.40886e-07
-5.92021e-10
-1.09254e-05
4.45333e-08
-8.34997e-09
2.59307e-07
3.44665e-08
-4.64095e-05
-2.83318e-08
0.000170487
-3.33006e-08
-1.52192e-08
4.82293e-09
-3.02849e-09
-1.41253e-08
2.16047e-06
2.89713e-05
-1.1436e-08
2.63748e-07
1.43167e-07
1.87519e-05
2.39914e-08
-0.000103073
7.0649e-07
8.03454e-08
-2.31136e-10
-3.25691e-05
-1.46866e-08
2.91804e-08
-1.14406e-09
6.93464e-10
5.00396e-07
-4.63712e-05
-9.07369e-10
-2.12488e-08
-1.69654e-05
-3.16444e-08
-1.65884e-08
7.81632e-08
3.24057e-08
-4.42154e-10
5.57429e-08
8.17643e-05
2.6935e-08
9.35888e-09
-0.00019963
2.16349e-05
1.82625e-08
-1.33214e-07
1.19319e-08
4.78913e-05
9.69591e-08
4.55971e-08
-5.20137e-05
3.14599e-08
-3.2506e-09
-2.91971e-07
-1.11357e-07
-4.7228e-09
-1.42734e-08
-6.25314e-06
1.22876e-07
2.44355e-05
-3.27143e-08
1.70978e-05
3.11912e-06
-2.72027e-05
-2.50524e-06
-2.78078e-06
9.076e-05
1.45069e-08
-1.40494e-05
-3.15694e-05
-1.18654e-06
-8.47961e-06
-0.000175777
1.26144e-08
-5.89473e-08
4.89137e-09
-6.61451e-05
2.73067e-09
-1.60141e-07
-7.06158e-09
-3.67117e-08
7.67246e-10
3.20522e-09
-0.000157447
1.53091e-05
2.52086e-09
-1.18785e-05
1.59275e-06
-1.10735e-06
2.94279e-05
-1.94555e-08
4.12968e-08
-2.01589e-05
4.8782e-05
-4.87129e-08
1.43725e-05
-5.54527e-08
-2.40345e-08
-1.11817e-08
-2.25529e-05
3.31794e-06
-1.93021e-05
-1.96766e-06
1.74426e-08
1.85938e-05
4.40955e-09
3.16956e-06
-1.98882e-09
-1.92495e-06
-3.39555e-05
-7.96374e-06
8.13446e-09
2.39293e-09
-2.07325e-08
0.000151532
2.72192e-09
-5.15539e-05
-4.47839e-05
-2.72542e-09
-4.95477e-05
3.00152e-07
-1.89482e-09
1.1214e-08
-8.8237e-09
3.51708e-07
-4.43056e-08
4.35309e-05
6.45876e-08
-1.57354e-08
6.26949e-08
-3.1152e-05
-0.000290203
2.75827e-08
-4.015e-05
2.47671e-08
7.19046e-09
4.70863e-08
2.3546e-08
-4.74151e-05
-4.04568e-05
-1.65515e-08
1.46949e-06
-1.14079e-07
5.25199e-09
-1.23419e-08
1.38222e-08
-1.10508e-07
-2.69052e-08
-0.000173713
2.30946e-05
2.46437e-09
0.000152997
2.52592e-05
6.23777e-08
-1.58536e-05
2.54804e-08
-5.78286e-10
-1.75151e-08
-4.21751e-09
4.83003e-09
4.02295e-05
2.50441e-08
6.5865e-08
-4.94341e-05
-6.20517e-09
5.02648e-10
8.84544e-05
-3.89148e-05
9.41734e-05
-1.61073e-08
-3.65574e-09
1.36455e-06
-1.19824e-08
-1.80022e-05
1.3172e-08
8.56883e-09
-4.89328e-10
-6.0251e-05
4.83027e-08
2.26368e-08
-2.16181e-07
-2.10552e-08
9.22398e-09
3.55006e-05
1.67081e-08
1.29353e-08
-2.27696e-08
-1.55631e-09
1.01628e-05
-1.47413e-05
-4.86606e-05
1.16133e-07
-1.95688e-09
-8.00503e-06
-4.90396e-05
5.25608e-06
-1.09421e-09
2.78394e-06
-0.00010532
1.88067e-08
-7.3967e-05
-1.14726e-09
-0.000194781
5.18881e-09
-3.948e-09
3.54477e-05
-3.01413e-08
2.09998e-08
3.17168e-06
-2.57158e-05
2.86581e-09
-2.85114e-08
4.67416e-06
3.01354e-05
-2.30637e-08
9.158e-09
-5.77312e-05
6.3692e-09
2.07303e-08
1.9029e-08
-1.90095e-05
-2.7072e-09
-1.40889e-05
-5.95413e-06
1.44651e-05
4.47133e-08
-2.25063e-05
-1.4583e-08
6.03017e-09
-0.000119018
3.73683e-08
4.08434e-05
2.80404e-08
7.98579e-09
-8.56273e-10
-1.78264e-08
-8.0099e-06
0.000299275
2.29173e-06
-1.26794e-05
3.20934e-08
-6.44415e-09
-5.21644e-05
-1.69756e-08
7.46774e-08
4.86999e-06
2.28122e-08
-3.37577e-09
-1.21958e-08
-6.21639e-09
2.964e-08
-1.79976e-08
-0.000105722
-4.71281e-08
6.87161e-06
4.93169e-09
1.73023e-07
4.71733e-08
4.45368e-09
0.000124944
-2.58267e-07
-2.44944e-07
-0.000104008
2.47496e-06
1.27443e-07
2.00903e-08
-3.01344e-08
-1.99894e-08
-9.07258e-06
-2.82413e-05
0.000114874
4.44931e-09
6.2364e-09
1.43587e-05
-2.55693e-05
-1.16106e-06
9.74239e-09
6.03574e-09
1.38715e-08
-8.21789e-06
1.50658e-05
-5.94449e-06
2.63383e-06
-1.02019e-08
1.22333e-08
6.51087e-05
1.45604e-05
-5.90665e-08
-6.27324e-07
3.02129e-08
1.47566e-08
-2.63849e-08
2.35481e-06
-9.14615e-05
9.16537e-06
-4.16349e-05
-3.23638e-07
2.34161e-08
7.33995e-10
5.18222e-05
6.41373e-05
9.59028e-05
-3.31252e-05
5.75093e-09
-1.20165e-07
-1.11378e-05
-0.000137571
-1.91167e-08
-2.39574e-08
-1.90981e-06
-6.20709e-09
2.43156e-10
-2.31145e-06
-3.89848e-08
1.43307e-08
-2.59217e-07
2.8727e-06
-3.29715e-05
5.03356e-08
-2.90363e-10
1.37669e-07
-1.4742e-08
-1.33983e-09
-1.2274e-08
-3.15792e-09
2.49811e-08
-2.63168e-05
-3.82407e-07
-4.61127e-09
1.73272e-08
-7.57922e-06
-5.30594e-05
-1.82276e-07
3.51397e-08
-7.67638e-08
2.37855e-08
1.71041e-08
2.46242e-08
-8.97993e-09
-3.64555e-05
3.41844e-09
8.92876e-09
-1.55334e-07
-4.10999e-06
-0.00010547
-0.000177768
-5.71488e-08
9.42968e-07
-8.37342e-06
9.26982e-06
-7.10259e-06
1.01663e-08
-1.85007e-08
-6.398e-05
-1.45052e-05
-1.69911e-05
-1.72834e-06
3.08239e-08
9.09571e-05
3.10131e-06
2.13811e-06
-5.38039e-09
-1.79119e-07
-0.00015087
-4.84859e-05
-4.66551e-08
2.94124e-06
4.3156e-05
-1.78983e-08
2.28287e-08
-4.0251e-09
6.23977e-07
1.51247e-07
1.18255e-07
-3.33641e-05
-4.04853e-05
6.35018e-06
1.58166e-05
-1.80888e-07
3.60517e-08
3.3837e-05
4.55898e-05
1.89496e-06
1.5284e-09
-2.63723e-05
-2.39813e-08
-1.48724e-07
2.35459e-08
-0.000149632
-1.13654e-09
-6.18782e-08
-4.9853e-09
6.42453e-06
-1.74576e-08
-9.5489e-08
5.88885e-09
0.000274148
-3.63263e-07
5.97148e-09
2.68026e-05
-8.17026e-09
-2.30795e-08
-5.69195e-05
-2.43357e-05
-7.38245e-08
-6.75663e-09
3.86792e-06
1.59637e-07
9.05126e-10
-1.65528e-07
-2.67276e-08
-1.40913e-07
-2.0258e-06
-1.24205e-08
-1.27247e-08
-2.98803e-05
-5.27515e-05
-2.96808e-05
-3.02959e-08
-1.72407e-05
-5.17346e-08
2.08835e-08
-1.16763e-09
-0.000222683
-3.28045e-08
5.45471e-09
-3.65151e-05
-1.09596e-06
-1.10269e-08
-4.34697e-05
-7.74725e-09
-2.41954e-08
2.64966e-05
4.74103e-05
-7.67878e-09
-3.88967e-08
-1.2494e-05
-1.22881e-08
2.99674e-08
1.00616e-05
1.7448e-07
7.22412e-08
-2.21297e-08
7.83678e-10
1.76566e-08
-7.04421e-07
-7.66774e-09
6.75076e-08
-3.63937e-05
1.93937e-08
-3.54305e-08
-4.33733e-05
1.16605e-07
2.68699e-05
-2.85948e-07
-8.34048e-10
-1.34988e-06
4.20681e-08
3.5096e-08
-4.94801e-05
3.79291e-06
1.02143e-07
-1.35512e-08
-6.39189e-05
-1.6649e-07
-5.94812e-05
9.80739e-09
4.15379e-09
-2.05585e-08
-3.07996e-08
-1.52266e-06
-3.88595e-09
-7.94945e-05
-5.42011e-05
4.8644e-08
-1.13075e-08
6.76066e-12
-4.3088e-08
3.68481e-09
-1.72945e-07
1.54258e-08
2.67391e-05
2.09228e-08
-3.40795e-08
-4.32195e-05
0.0001478
-2.13064e-08
3.85123e-09
-4.12105e-05
3.2473e-05
-1.62417e-05
-1.67659e-08
-9.92577e-08
-1.86078e-08
2.2239e-06
-7.43573e-05
-1.71869e-07
-8.27305e-06
-2.97934e-05
5.96817e-06
1.63823e-08
-2.30106e-07
-1.78217e-09
6.32781e-08
-3.60419e-05
2.95506e-08
-1.59313e-08
-1.13493e-08
-9.45599e-06
3.01996e-07
6.81623e-06
8.18346e-07
3.42346e-08
1.31161e-08
-3.30873e-08
1.41116e-07
4.52213e-08
-2.41525e-08
6.46119e-08
-5.59489e-07
-2.32337e-06
1.05772e-08
5.60571e-07
-3.62856e-05
3.88091e-06
-5.11107e-09
-4.40687e-09
1.92889e-09
-1.01262e-05
-1.10375e-09
-1.19961e-08
-1.6971e-08
5.05335e-08
5.41676e-07
1.9376e-05
9.94827e-09
-4.57139e-10
1.13823e-05
8.57588e-07
-0.000183745
4.40512e-08
-5.03224e-05
9.60939e-09
-2.23177e-08
-7.60638e-09
6.02113e-06
8.46706e-07
1.19983e-08
-1.05874e-09
2.09614e-05
-1.59364e-08
-1.29708e-08
2.1579e-08
-9.47761e-09
-4.04025e-09
3.29585e-09
-2.99188e-05
-1.47483e-08
4.55123e-07
1.99885e-08
-3.86641e-05
-1.00117e-08
-2.91876e-05
1.36494e-08
1.64412e-08
2.01512e-08
2.33836e-08
8.25496e-09
5.94273e-05
-2.10881e-08
3.5252e-07
-3.22677e-08
-1.28323e-07
9.6539e-08
2.40792e-07
4.44799e-07
-2.73688e-05
-9.18733e-05
-1.1933e-08
6.75759e-07
1.51082e-08
1.99839e-08
-9.15597e-05
-1.24314e-08
2.78592e-09
1.19957e-05
1.87698e-08
6.10409e-08
2.87e-08
2.82201e-08
-8.44774e-06
-1.04636e-06
2.46592e-08
-1.96983e-08
1.32811e-05
-1.4358e-05
-1.87138e-07
-1.14085e-05
8.78688e-08
4.3474e-08
1.35652e-05
-0.000198891
-2.12577e-05
-5.51826e-06
0.000101956
1.34478e-07
6.14959e-08
-9.88629e-09
4.33055e-09
-2.21348e-08
2.36189e-09
1.29295e-08
-2.28213e-05
-1.63572e-06
-1.14773e-08
-2.25728e-05
-9.58643e-09
3.85136e-05
1.57849e-05
-1.29336e-05
-2.21875e-06
-9.47514e-06
1.41619e-05
4.55882e-08
-4.79667e-09
-1.02814e-05
-8.98657e-06
-1.31434e-08
1.38592e-08
-4.46606e-05
-0.000184391
8.90729e-09
8.84373e-06
-2.99983e-08
-1.05675e-08
-4.00269e-07
-1.30758e-05
0.000135245
-8.22629e-05
2.30408e-08
-2.19412e-08
2.25354e-08
-8.9791e-09
3.44307e-08
-1.70484e-07
5.83278e-06
-3.58982e-05
-3.14123e-09
1.8141e-08
-5.90173e-06
-7.51176e-10
8.89384e-10
1.00266e-08
2.13539e-08
6.03922e-05
-4.3845e-05
-1.30963e-08
3.87081e-06
-8.57891e-09
-1.48583e-05
1.17069e-05
2.37235e-08
3.38247e-08
4.9751e-08
7.91076e-06
5.33345e-08
5.02987e-08
6.71938e-09
-4.65584e-09
1.05956e-05
1.64961e-08
1.85858e-08
9.07468e-09
-5.08313e-08
3.10702e-08
1.69328e-05
-6.81897e-06
1.79527e-05
1.04e-07
-1.43092e-06
-4.828e-05
-6.57126e-10
-4.90665e-08
2.07968e-08
-1.40544e-05
1.69893e-06
3.2848e-08
5.76984e-06
-0.000117668
-5.50884e-08
3.04044e-08
8.60527e-07
2.11075e-09
-1.22255e-08
-1.47697e-05
-1.80224e-06
5.64709e-09
1.2105e-08
-1.28562e-05
6.54399e-06
-1.24523e-08
-7.83737e-08
1.29905e-07
-3.78972e-05
3.22049e-09
1.58959e-05
-3.06821e-08
1.27995e-05
-3.06723e-05
-1.4918e-05
-5.72884e-05
-1.93779e-08
-2.46672e-08
1.12849e-07
-1.09292e-05
-1.817e-05
2.29855e-07
2.83476e-05
8.43926e-06
7.38079e-06
-4.99889e-05
-4.94679e-08
-9.07984e-06
-5.46953e-06
-7.57255e-08
-8.12155e-09
-0.000163987
-3.73557e-08
6.85239e-06
6.07193e-09
-1.9219e-05
4.17446e-08
1.87239e-05
8.7762e-06
5.66222e-07
5.7042e-09
-3.56581e-10
-2.46197e-05
-1.08344e-08
5.66999e-09
2.66184e-08
1.0202e-08
4.45739e-07
2.81284e-05
-1.94383e-05
3.69234e-05
2.70133e-07
1.39761e-07
-2.43392e-08
-5.73033e-08
-1.79271e-08
6.96266e-08
-1.9205e-08
1.40716e-06
0.000123834
5.45644e-08
1.3675e-05
-9.25253e-12
1.67019e-05
1.34586e-05
-5.61413e-05
-2.74425e-08
-7.3045e-07
-1.11928e-05
-7.02357e-05
1.56748e-05
1.7676e-07
-1.62077e-05
-5.21096e-05
-1.25864e-08
-6.14138e-06
7.01388e-07
3.44232e-08
2.20236e-06
4.06071e-08
-6.11365e-06
6.26647e-06
-7.60161e-08
-2.85573e-09
1.20044e-05
-1.46726e-05
-7.16882e-08
-2.02145e-07
1.57178e-05
-4.55093e-05
1.57042e-05
1.18943e-05
2.00379e-08
1.19578e-08
-1.1381e-08
-2.03048e-05
-1.81204e-08
1.56916e-07
-3.87618e-08
-2.212e-08
3.11831e-08
1.59027e-05
-2.1491e-07
-0.000142738
-0.000335567
-1.37561e-08
-3.4375e-07
-2.68294e-05
-1.92243e-08
-1.03614e-07
-2.33518e-07
-2.06697e-08
-4.87194e-05
-1.22757e-05
1.38408e-08
3.17582e-05
-8.62934e-07
-2.30001e-08
1.49224e-08
-2.48378e-08
4.26822e-09
-5.07187e-09
-1.25898e-08
-6.62767e-08
-7.71344e-08
2.6805e-08
3.86512e-08
4.20961e-08
3.99581e-08
2.40401e-08
-7.44627e-05
-0.000138122
2.24414e-09
-2.79688e-08
-1.63221e-07
3.25891e-06
-1.47236e-05
5.63216e-06
-1.99035e-05
7.75467e-09
1.11149e-08
-1.37735e-05
3.03195e-09
3.49661e-08
-5.08787e-05
-3.39605e-09
2.31229e-06
-2.69589e-08
5.14024e-08
-1.82947e-06
-5.49494e-09
3.98599e-10
4.29478e-07
-3.28331e-05
-1.10043e-07
-1.35177e-05
-8.14786e-06
5.94794e-10
1.31454e-06
1.40931e-08
-1.18276e-08
1.7652e-08
3.96372e-08
-5.01952e-06
2.651e-10
2.43733e-08
1.74001e-05
0.000149964
7.16629e-09
-1.66648e-07
-9.86216e-06
-1.92829e-07
2.29764e-08
1.746e-09
-7.75949e-09
-3.79079e-08
-2.44705e-05
1.04455e-07
-6.98512e-06
2.50277e-07
-1.60513e-08
5.26155e-07
-1.93e-08
-2.08478e-08
-3.02909e-09
7.95994e-06
3.688e-05
1.00996e-09
-2.54504e-08
-2.43514e-09
5.34451e-08
-2.30017e-05
6.01491e-10
-1.75055e-08
3.45435e-08
8.29378e-08
7.73842e-05
0.000152559
3.75195e-10
2.1794e-08
2.0304e-08
-0.000359648
7.58767e-06
-2.0113e-08
1.26935e-09
1.55686e-09
5.50803e-06
-3.31905e-05
1.68841e-06
-2.68742e-08
1.87742e-08
6.94833e-09
1.12926e-08
1.23609e-08
4.9072e-07
-7.35309e-08
-8.06711e-06
-6.77407e-09
1.95542e-09
4.1726e-08
-2.47393e-05
4.54346e-09
-4.35743e-05
-1.22613e-08
1.50833e-07
-8.45196e-08
-1.51116e-09
1.01402e-07
-1.91163e-08
-1.12257e-09
-1.8823e-05
-9.9363e-09
3.6823e-08
5.78342e-08
-6.46588e-06
2.55331e-08
-2.58493e-07
1.24072e-08
-5.38341e-08
2.02553e-07
-2.45725e-08
-9.44191e-08
1.60492e-08
-6.34792e-06
2.15533e-08
1.25178e-05
-8.29566e-05
5.97754e-08
7.85332e-05
1.43465e-07
-6.51749e-08
-3.63379e-05
-5.48823e-05
-1.12119e-05
1.88753e-08
-9.0024e-09
7.93823e-08
7.83197e-06
3.53785e-06
-3.26551e-05
-4.71369e-05
-1.41405e-05
-3.45895e-09
-0.000139278
9.02686e-05
4.7902e-05
7.53516e-06
-4.12458e-05
-3.67361e-06
3.53471e-08
3.14349e-08
3.83669e-09
7.45335e-07
2.60442e-06
-8.09244e-08
3.45339e-08
6.82142e-06
6.92549e-08
-1.65513e-05
5.04225e-05
1.01491e-07
2.03962e-08
2.88055e-08
-1.11449e-05
-3.97837e-09
5.97972e-08
9.93444e-06
-1.43901e-08
-2.01415e-05
-4.91742e-05
-9.88865e-06
-1.55836e-08
-2.36716e-09
4.25629e-06
-4.98191e-05
-1.03376e-05
1.68749e-08
8.08943e-05
4.33221e-08
3.98987e-08
-2.3709e-05
9.97611e-08
-3.82818e-05
1.6418e-08
1.14619e-08
2.49185e-08
1.14803e-07
-2.44976e-09
2.52564e-07
-5.55183e-08
-4.8641e-05
-1.29063e-05
4.22354e-08
5.14786e-09
7.35562e-06
-3.16021e-07
-1.12721e-05
-9.46587e-05
-1.71924e-05
1.2529e-08
5.65758e-05
-7.024e-06
8.00649e-06
5.55493e-08
-8.99527e-05
6.74444e-05
-4.12205e-05
-1.69917e-05
1.1721e-09
5.79164e-05
-2.62954e-06
9.81473e-05
-6.80811e-07
-2.53466e-08
5.78024e-05
1.55861e-05
1.35694e-08
1.6816e-08
-7.82081e-09
1.63539e-08
5.73316e-05
-2.05217e-05
4.50798e-07
-1.9085e-08
-1.17137e-08
1.81738e-08
1.41874e-08
-3.69619e-05
-5.08289e-05
-1.93394e-06
-4.80875e-09
-4.37905e-05
-5.49024e-05
-3.98544e-08
-1.65659e-08
6.10077e-08
-6.16549e-05
-1.31938e-08
-4.97589e-07
3.8525e-10
-1.42488e-08
-0.000151193
-3.02975e-05
-2.77052e-09
-2.80292e-07
8.96089e-09
-1.45666e-09
1.3265e-08
-2.44443e-08
-1.06778e-07
-2.89244e-05
-3.0922e-07
4.70662e-06
-2.78449e-08
2.02215e-08
5.36071e-10
1.79791e-09
7.43447e-09
-1.25521e-05
3.39525e-07
-2.96335e-07
7.60072e-07
8.26838e-07
-2.56401e-09
-1.91546e-08
8.04125e-08
8.00154e-09
-3.58369e-05
1.48879e-06
3.17151e-08
0.000149596
-9.03116e-08
-1.63682e-05
-1.21232e-05
5.29753e-08
3.59099e-05
-2.19421e-08
-8.04822e-06
-3.49928e-06
7.71113e-09
3.0309e-05
-1.20696e-06
1.72524e-08
1.00896e-05
-4.73896e-06
3.85402e-07
1.83334e-08
4.38559e-05
-8.33133e-06
-1.14576e-05
-3.32399e-05
-1.39993e-05
-1.26444e-05
-1.62053e-08
-1.6763e-07
0.000243916
-1.80086e-08
-2.18225e-05
-1.777e-05
2.07403e-09
2.15485e-09
1.16274e-08
-0.0003221
-9.56044e-06
3.19756e-09
-1.4191e-07
-6.34495e-09
-1.89519e-09
3.52005e-05
6.88617e-06
5.96793e-07
-3.87661e-08
7.51875e-06
8.00509e-08
-1.46414e-09
1.39124e-08
1.65943e-08
-1.40351e-05
-1.17458e-06
-8.67136e-06
-2.4723e-09
2.32493e-05
-1.6356e-08
1.96385e-06
1.33053e-08
-5.60871e-08
-2.07093e-09
3.43287e-05
3.89133e-08
2.05749e-05
1.53143e-05
1.00808e-07
1.69102e-07
8.3269e-08
8.16206e-06
-0.000130556
4.36174e-08
-1.12074e-08
-3.78004e-05
-3.02185e-08
-7.17927e-06
-1.73902e-06
2.70613e-05
-2.56844e-05
1.11751e-09
-4.71868e-09
2.63888e-07
3.11808e-09
6.50061e-06
7.91406e-05
-3.59798e-07
6.78602e-08
-1.31655e-08
6.70351e-08
1.7672e-08
-2.60244e-08
-3.94382e-05
5.15036e-05
-2.08989e-08
-3.13254e-05
-1.80979e-05
2.19651e-06
7.21518e-08
1.56574e-06
7.08761e-05
-0.000324815
4.09443e-08
-7.1594e-06
-1.43074e-05
7.49299e-09
6.90741e-09
-1.17903e-06
-1.07891e-05
1.20775e-07
-1.55066e-05
-3.54622e-05
2.70085e-08
7.95935e-08
8.52822e-08
-2.99516e-05
-1.7988e-05
1.56612e-08
3.17537e-05
-3.5181e-07
-1.22469e-05
2.543e-05
1.33858e-05