/*--------------------------------*- C++ -*----------------------------------*\
| =========                 |                                                 |
| \\      /  F ield         | OpenFOAM: The Open Source CFD Toolbox           |
|  \\    /   O peration     | Version:  v2012                                 |
|   \\  /    A nd           | Website:  www.openfoam.com                      |
|    \\/     M anipulation  |                                                 |
\*---------------------------------------------------------------------------*/
FoamFile
{
    version     2.0;
    format      ascii;
    class       volScalarField;
    location    "350";
    object      k;
}
// * * * * * * * * * * * * * * * * * * * * * * * * * * * * * * * * * * * * * //

dimensions      [0 2 -2 0 0 0 0];


internalField   nonuniform List<scalar> 
18540
(
0.000161423
0.000181815
0.000142799
0.000203707
0.000151333
0.000131293
0.000148026
0.00912572
0.00013548
0.000157147
0.000154187
0.000206048
0.000137026
0.0171356
0.00015156
0.000135377
0.000175083
0.000144106
0.000136824
0.000147934
0.000175164
0.000181921
0.000132903
0.000153867
0.000141264
0.000151881
0.000148994
0.044944
0.000198654
0.0161581
0.059586
0.00018189
0.000149279
0.000208247
0.000151315
0.000156169
0.000389363
0.000148232
0.00014628
0.000165475
0.000174039
0.000195897
0.000144504
0.000146842
0.000142543
0.000149778
0.00178762
0.00016612
0.000146815
0.000213919
0.000305496
0.000162197
0.000174138
0.000173498
0.000194221
0.0658371
0.000165848
0.000151884
0.00016169
0.00017447
0.000151141
0.000141582
0.000139967
0.000137143
0.000136874
0.000134638
0.000160129
0.000197879
0.000250508
0.000137211
0.000142883
0.000199967
0.000158345
0.000137543
0.000146809
0.00851037
0.000128411
0.000151597
0.000142824
0.0100452
0.000141953
0.000146255
0.000186127
0.000138745
0.000154544
0.0001427
0.000190406
0.000178681
0.000146284
0.000217312
0.004352
0.0124565
0.00021572
0.000146271
0.000134395
0.000144867
0.000193202
0.000143251
0.00750858
0.000147584
0.000134268
0.000194544
0.000147674
0.000134006
0.000134662
0.000134332
0.00014837
0.000230571
0.000162039
0.000143435
0.000158692
0.0001375
0.000145853
0.000144497
0.000134203
0.000134138
0.000140662
0.000143611
0.000147427
0.000142852
0.0001432
0.0128186
2.04978e-05
0.000141626
0.000158257
0.000191491
0.000148294
0.00433745
0.000136864
0.000151917
0.0824902
0.00014736
0.000139995
0.000120567
0.000133298
0.000151779
0.000147561
0.000158757
0.000139933
0.00013407
0.000131428
0.000149396
0.000143392
0.000150981
0.000209289
0.000175433
0.00020826
0.0097401
0.000137165
0.000161064
0.000253796
0.000183904
0.000138713
0.000148031
0.000138834
0.000174305
0.000257502
0.000142268
0.000141385
0.00847832
0.000266786
0.000279203
0.00017636
0.0100834
0.000191269
0.000141927
0.000155871
0.000141582
0.000141766
0.000158379
0.000220431
0.000142757
0.000156734
0.0717519
0.00747093
0.000248817
0.000178153
0.0181855
0.000152638
0.000141461
0.000668236
0.000162811
0.00014475
0.000169173
0.000147356
0.000156075
0.0198194
0.00043346
0.000242069
0.000176613
0.000169676
0.0116749
0.000147187
0.00898836
0.000152322
0.00014162
0.000258793
0.000450199
0.000146636
0.000188845
0.000145153
0.0225415
0.000141623
0.000151421
0.000158823
0.000150696
0.0101203
0.000197828
0.0113211
0.0167285
0.000142524
0.000147248
0.000146937
0.000143962
0.000189817
0.0556426
0.000145415
0.000165593
0.000119164
0.00843359
0.000180954
0.000133846
0.00993953
0.000189205
0.000154709
0.00014376
0.00883764
0.000188547
0.000220721
0.000157892
0.000212501
0.00014935
0.0283924
0.000192137
0.00019283
0.000173914
0.000178143
0.000154274
0.000134163
0.000146214
0.0001737
0.000175414
0.000153921
0.000157781
0.000134561
0.000139983
0.000209273
0.000153623
0.000153995
0.000181439
0.000146819
0.01713
0.000139012
0.000142224
0.0144609
0.000182451
0.000255679
0.00861417
0.000224032
0.00845398
0.00765514
0.0107744
0.014197
0.0001516
0.000143007
0.00109386
0.000140395
0.00014877
5.58778e-05
0.000144035
0.000133478
0.000193543
0.000149699
0.000134741
0.000137236
0.000140401
0.000148757
0.000176995
0.00730792
0.000163189
0.000137906
0.000145201
0.000223068
0.000142408
0.000205914
0.0468241
0.000144253
0.00014796
0.000213231
0.000505141
0.000142656
0.000153525
0.000190092
0.000156383
0.000143703
0.00014435
0.000184638
0.000150871
0.000154221
0.000189268
0.000135367
0.000182951
0.000142371
0.000390329
0.000177751
0.000142193
0.000225894
0.000142939
0.00427459
0.000135297
0.000146007
0.000154612
0.000159988
0.000152383
0.000173511
0.000143548
0.000176772
0.000155206
0.000138931
0.000219952
0.000143424
0.000148862
0.000145557
0.000133625
0.000719223
0.000159382
0.000141097
0.000180164
0.000144492
0.000155776
0.000149943
0.000133579
0.000142961
0.000142478
0.000153696
0.000159038
0.00622669
0.000137727
0.00017635
0.000145963
0.00015508
0.000141821
0.000149673
0.000141652
0.000149249
0.000984304
0.000155173
0.00888527
0.000162074
0.000148034
0.000162905
0.000132831
0.000156698
0.00422559
0.000184347
0.00752135
0.000147191
0.000137656
0.000444857
0.000144338
0.000142842
0.00015989
0.000195346
0.000179306
0.000174836
0.000143456
0.000148599
0.000143928
0.000152976
0.00021165
0.000142917
1.1797e-06
0.000146403
0.00567493
0.000281583
0.00296708
0.000149155
0.000170845
0.000151723
0.000142572
0.0275587
0.000151228
0.0001554
0.000143466
0.000181586
0.000154715
0.000147523
0.000148577
0.00026091
0.000200274
0.000146168
0.000190469
0.000138558
0.00123718
0.0119047
0.00019143
0.00013446
0.000146493
0.000740939
0.000144771
0.000133202
0.00295698
0.000175306
0.000173354
0.000142717
0.000152439
0.000142192
0.00026064
0.000170277
0.000151747
0.00949269
0.000137265
0.000142353
0.00014372
0.00016927
0.000122854
0.000137445
0.000181098
0.00014166
0.000927877
0.00753473
0.000142412
0.000133135
0.00018433
0.000194488
0.000147457
0.000149602
0.000144686
0.0144319
0.00014159
0.000155203
0.000150708
0.000133014
0.000148259
0.0001451
0.000133082
0.000136918
0.00723817
0.000139942
0.000157884
0.0115296
0.00826729
0.0350378
0.000150332
0.000138711
0.000143423
0.000142354
0.00814215
0.000133091
0.000136952
0.000189414
0.000138456
0.000133355
0.000173726
0.000166156
0.000189526
0.0166239
0.000138599
0.000169448
0.000143877
0.000143335
0.000147114
0.0073329
0.000133869
0.0604569
0.00046567
0.000143012
0.00868735
0.000137328
0.00450015
0.000163429
0.0066139
0.00014158
0.000144188
0.000146276
0.00014346
0.00777279
0.000135753
0.00016943
0.000152572
0.000188339
0.000147238
0.000179028
0.000128194
0.000141639
0.000185063
0.000199888
0.000153872
0.00927991
0.000166744
0.00019025
0.000135368
0.000232196
0.000167474
0.00491921
0.000120888
0.000171775
0.00013532
0.000144402
0.000130331
0.00246351
0.000144244
0.0540797
0.000165542
0.00398815
0.000139803
0.000137418
0.000142949
0.000144286
0.000144088
0.000161764
0.0658738
0.000166997
0.00248165
0.000150149
0.000187763
0.000147888
0.000143455
0.000104421
0.00015505
0.000141624
0.000148199
0.000137407
0.0812511
0.000229507
0.00772028
0.000143217
0.000138157
0.000148932
0.00840174
0.000141366
0.00944178
0.000155083
0.000130159
0.000133925
0.000135345
0.00014347
0.000138107
0.000145368
0.000172889
0.00173864
0.000160176
0.00897776
0.000143891
0.000139663
0.0494835
0.00016666
0.000147452
0.0014877
0.000174617
0.00014932
0.000133871
0.00569613
0.00012945
0.000132679
0.000167791
0.00852677
0.000135381
0.00236443
0.000141027
0.00014934
0.00938459
0.000172873
0.000155112
0.0448812
0.00013454
0.000158458
0.000149219
0.000147292
0.000176079
0.000149181
0.0723873
0.0167432
0.000156998
0.000200218
0.000191499
0.00017079
0.000183517
0.000133724
0.00497476
0.00345481
0.000143955
0.000144064
0.000234375
0.000154868
0.000184307
0.000144346
0.000143646
0.00014738
0.00014741
0.000149561
0.000180357
0.00014685
0.000146028
0.000137004
0.013225
0.000140773
0.000141748
0.0013868
0.00013841
0.000142359
0.003301
0.00014338
0.000132681
0.000132761
0.000257221
0.000164114
0.000156437
0.00015749
0.000159086
0.000130261
0.000183973
0.000200726
0.00642326
0.000139732
0.000141513
0.000142157
0.00015559
0.000144281
0.000142974
0.000148987
0.000139268
0.000147335
0.000138879
0.000170891
0.000143038
0.000144
0.00400357
0.000146962
0.000143565
0.000145682
0.000132964
0.000141243
0.000155454
0.00015355
0.000188763
0.000138889
0.000229217
0.00552227
0.000142201
0.000225428
0.000148878
0.000140993
0.000178301
0.00543169
0.00017604
0.000137956
0.0751632
0.000146068
0.000146338
0.000177669
0.00454928
0.000141546
0.000154074
0.000209517
0.000150609
0.000150137
0.000166331
0.000153643
0.000147357
0.000145586
0.00985266
0.000143178
0.000161838
0.000155358
0.000143705
0.000130162
0.000183175
0.00110731
0.000142929
0.000150374
0.000139276
0.000142691
0.000174814
0.000143067
0.000133496
0.000139516
0.0114856
0.000174851
0.000149697
0.00015282
0.000151882
0.000143465
0.000133686
0.000141546
0.000174916
0.00756376
0.000138307
0.000133779
0.000141242
0.00861319
0.000135608
0.000135519
0.000138206
0.000903068
0.0593747
0.0401416
0.00018578
0.000132918
0.000145638
0.000180593
0.00018564
0.000159857
0.000155824
0.000194397
0.00618165
0.000141467
0.000174772
0.000226735
0.000140241
0.000143875
0.000148488
0.000140999
0.000170801
0.000154552
0.000138173
0.000166742
0.000154384
0.000133408
0.000191088
0.000173324
0.000142009
0.00428722
0.000141633
0.00610257
0.000139929
0.000203573
0.00668296
0.000133787
0.000157375
0.000161012
0.000139322
0.0591685
0.000157286
0.00014548
0.00971547
0.000143626
0.000130912
0.0001671
0.000141066
0.000203563
0.000159132
0.000170269
0.000161645
0.000156985
0.000143852
0.000140024
0.000159688
0.000155793
0.000150885
0.000157138
0.000143834
0.000175673
0.000137022
0.000133719
0.0166401
0.00541876
0.00020563
0.000225914
0.000139431
0.000236334
0.000139579
0.0156339
0.000143806
0.000137037
0.000180873
0.000228895
0.000196667
0.000153024
0.000139016
0.000131126
0.00019245
0.000141565
0.00019592
0.000160713
0.000240717
0.0611463
0.000159862
0.000143319
0.00626672
0.000143342
0.00838173
0.000142598
0.000167805
0.0001965
0.000141146
0.000149497
0.000191585
0.000146592
0.000246863
0.000141939
0.000137068
0.000138596
0.000145976
0.000151841
0.000139081
0.00931514
0.00014405
0.000147027
0.000155396
0.000279357
0.000160735
0.000139349
0.000181263
0.0173493
0.000139287
0.00014224
0.0167639
0.000202772
0.00751345
0.000139157
0.0143191
0.000152302
0.000138539
0.000139508
0.000175413
0.000146472
0.000246798
0.000139149
0.000143338
0.00605248
0.000223815
0.000142433
0.000158386
0.000139332
0.0180728
0.000139532
0.000182899
0.000202728
0.00662592
0.00014205
0.0116797
0.00014342
0.0540902
0.000154956
0.000139831
0.000150906
8.32842e-05
0.000152236
0.0116466
0.000172174
0.000171746
0.000139451
0.000165405
0.000155989
0.000147035
0.00215891
0.000190362
0.000139689
0.000134868
0.000240898
0.000144056
0.000187672
0.000162017
0.000139461
0.000142389
0.000134726
0.000144164
0.000153865
0.000152517
0.000152533
0.000175379
0.000161966
0.00013295
0.000157463
0.000141586
0.000142173
0.00198972
0.0088652
0.00014387
0.00014515
0.000140698
0.000156502
0.000155861
0.00014266
0.000162748
0.000141816
0.000154061
0.000139373
0.00017043
0.000191939
0.000141513
0.00014216
0.000131944
0.0710602
0.000562984
0.000143775
0.0159571
0.000143558
0.00880733
0.000152928
0.000133942
0.000143782
0.000151013
0.000153741
0.000455564
0.000152582
0.000146029
0.000137463
0.000198694
0.000351742
0.000133831
0.000152908
0.000156135
0.000147273
0.000138717
0.0129125
0.000147735
0.000143381
0.000141337
0.000157396
0.000143209
0.000141004
0.000141125
0.0001368
0.000153776
0.000144074
0.000111917
0.000145316
0.0001394
0.000186109
0.000193913
0.000174658
0.000153434
0.000133505
0.0136109
0.000141852
0.000156334
0.000144006
0.000143953
0.000133891
0.000159651
0.00829439
0.0168512
0.0140336
0.0202738
0.000143957
0.00602037
0.000143342
0.000137053
0.000143845
0.000243181
0.000142327
0.000172895
0.00017826
0.00967535
0.000148882
0.000136041
0.0117769
0.000143107
0.000146144
0.0121547
0.00260646
0.0809135
0.000147443
0.000206139
0.000142237
0.000185771
0.000143331
0.000224666
0.00014993
0.000140052
0.000194754
0.000152435
0.00704369
0.000142085
0.016756
0.00014301
0.000162812
0.000178483
0.000165681
0.000197279
0.000141431
0.000139281
0.00017586
0.000129898
0.000177255
0.0138417
0.0649655
0.00118842
0.000157019
0.00553076
0.000185534
0.00663459
0.00015719
0.000172541
0.00017624
0.000142367
0.00013997
0.000144321
0.000153943
0.000143882
0.000147606
0.00013696
0.000142894
0.000143521
0.000133042
0.000164363
0.000183309
0.000195647
0.000201866
0.00018455
0.00013829
0.000183197
0.000156972
0.000153688
0.000141326
0.0167521
0.000145002
0.000145697
0.000141579
0.0822911
0.000141438
0.000713049
0.000165188
0.000148102
0.00123245
0.000154387
0.000150302
0.000139542
0.000133882
0.000139329
0.000155002
0.000156741
0.000197596
0.000148392
0.000176619
0.000149928
0.000159083
0.000342346
0.000146833
0.00251361
0.000143047
0.000143896
0.00014406
0.000143504
0.000172187
0.000139057
0.00764076
0.000143007
0.000145221
0.000144249
0.00015922
0.000150073
0.000143914
0.000140104
0.000183325
0.00013875
0.000138116
0.000188353
0.000143343
0.000750354
0.000141374
0.000142412
0.000158973
0.0166087
0.000192351
0.000133944
0.000148374
0.000149058
0.000133106
0.00965537
0.000146504
0.000136178
0.000221117
0.000177078
0.000140155
0.000214573
0.000142633
0.00237682
0.00013168
0.000141095
0.000153757
0.000184758
0.000144367
0.00797538
0.00014584
0.000146091
0.000141515
0.000136746
0.000135932
0.00014345
0.000146417
0.000159121
0.000140296
0.000143309
0.000141956
0.000142503
0.000184592
0.00017239
0.000140646
0.00148501
0.000141505
0.000157713
0.000488892
0.000132732
0.000143766
0.00214751
0.000140942
0.000136705
0.000144636
0.000181264
0.000202377
0.000165543
0.0001415
0.000218119
0.0454608
0.00015826
0.000140824
0.000195628
0.000173158
0.000154373
0.005243
0.000149272
0.0547513
0.000134598
0.000149175
0.0001759
0.000154156
0.000162719
0.00968128
0.000204077
0.00751244
0.000171927
0.000143623
0.000139963
0.000142959
0.00014399
0.000142507
0.000133784
0.000319247
0.00015115
0.0001371
0.000134584
0.00014442
0.000180262
0.00014103
0.000169554
0.000151014
0.00742551
0.000159607
0.000140061
0.000142417
0.000146059
0.0141548
0.000144047
0.000169454
0.000140412
0.00171406
0.000143825
0.000175855
0.00423991
0.000143751
0.000148717
0.000132896
0.000169643
0.000148902
0.00796404
0.000169179
0.00017392
0.000132731
0.000164974
0.000143032
0.00013278
0.000134876
0.000135364
0.000156118
0.000201537
0.00782005
0.000140051
0.000138608
0.000159962
0.00013447
0.000153803
0.000140948
0.000163581
0.00902972
0.00249355
0.000141696
0.00896365
0.00015324
0.000136145
0.000192968
0.000165211
0.00014257
0.000140472
0.000177686
0.000134021
0.000160826
0.000144337
0.000140784
0.000133224
0.000140406
0.000144696
0.000151813
0.000147509
0.000145952
0.000184888
0.000140828
0.0128642
0.0332669
0.0161552
0.000158417
0.00014094
0.000148867
0.00014691
0.000144616
0.000149564
0.00350473
0.000142074
0.000148036
0.000189063
0.000137887
0.000833694
0.000135565
0.0111557
0.000143962
0.000135317
0.000148225
0.000139038
0.000138324
0.000134664
0.00847844
0.000133249
0.000184939
0.000163251
0.000182929
0.000137321
0.000141507
0.000142534
0.000188444
0.000164334
0.000141962
0.000154965
0.000137395
0.000132963
0.000141019
0.000167438
0.000155152
0.000149792
0.000138956
0.000171898
0.00016403
0.000142298
0.000164603
0.00641566
0.000162397
0.000165398
0.000183951
0.000237659
0.000133919
0.000212868
0.000142629
0.000141269
0.000142761
0.000188457
0.000157038
0.000139164
0.0001346
0.000133767
0.000138883
0.000215605
0.000173388
0.000181654
0.000119348
0.000254323
0.000132615
0.000159652
0.000208815
0.000189075
0.000152139
0.000133056
0.00748872
0.0661957
0.000130247
0.000155201
0.000142725
0.00966747
0.000139837
0.000135021
0.000141116
0.000208021
0.000163537
0.000161507
0.000172039
0.000144096
0.000253999
0.000168335
0.000137105
0.000206726
0.000156667
0.000496031
0.00501075
0.000162109
0.00018556
0.000142029
0.000141058
0.0105345
0.000194716
0.00014841
0.000164138
0.000181777
0.00014198
0.000137797
0.000169043
0.000132624
0.000181036
0.000560585
0.000142434
0.0501866
0.051826
0.000151987
0.000143475
0.0729593
0.000155297
0.000141916
0.000141214
0.0078896
0.0113616
0.000230679
0.000132609
0.000134772
0.071465
0.000132813
0.00017422
0.000146912
0.000132349
0.00320053
0.000139324
0.000129793
0.0120609
0.000157456
0.000143113
0.000138525
0.000142856
0.000149924
0.00013013
0.000163951
0.000157385
0.000141899
0.00013533
0.00016023
0.000132666
0.000154752
0.00013264
0.00015447
0.000132493
0.000132621
0.000135191
0.00885418
0.00854945
0.000141718
0.000157426
0.000144075
0.000143575
0.000164963
0.000132671
0.00017224
0.000146255
0.00377704
0.0184281
0.000132718
0.000142127
0.000156527
0.000237219
0.000163593
0.000165269
0.000132696
0.0457232
0.000164699
0.000132703
0.000132707
0.000143968
0.0164532
0.000170865
0.000144308
0.000132954
0.00013537
0.000147288
0.000157921
0.000138577
0.00016271
0.00265296
0.000143733
0.000155104
0.000135097
0.000133246
0.000130084
0.000142324
0.0630544
0.000146485
0.00013443
0.000182278
0.00505198
0.00015457
0.00369323
0.000163132
0.00014253
0.000177457
0.000149697
0.0748527
0.000142571
0.000143155
0.000150393
0.0176399
0.00753153
0.0001477
0.018318
0.000185179
0.000173062
0.00014875
0.000141382
0.000199337
0.000137064
0.000139925
0.000159254
0.00915811
0.000133847
0.00013749
0.000132668
0.000178676
0.000160168
0.00215121
0.000135124
0.000153149
0.000151333
0.00927547
0.000147675
0.0103127
0.00869864
0.000131951
0.000201538
0.000188756
0.000148847
0.000139419
0.000172604
0.000135242
0.000237942
0.000135317
0.00015326
0.000155685
0.000147419
0.000148336
0.000135534
0.000142379
0.000177193
7.10539e-05
0.0167502
0.000204484
0.000130188
0.000148844
0.000141404
0.000187626
0.000140788
0.000158976
0.0111018
0.00013519
0.000142085
0.000141232
0.000142722
0.000137051
0.00014246
0.000146117
0.000145742
0.00014491
9.88122e-05
0.000181169
0.0144611
0.00597619
0.000136438
0.000140024
0.00706873
0.000130777
0.000162802
0.00015571
0.000149943
0.000141909
0.000146828
0.000187834
0.000136969
0.000136983
0.000145884
0.000139325
0.000169281
0.000147437
0.000152738
0.000142185
0.00333843
0.00014176
0.00015463
0.000172391
0.000151274
0.000210702
0.000158371
0.000143027
0.000137019
0.0167662
0.00706621
0.00163951
0.000174678
0.000162469
0.000134393
0.000133187
0.000155514
0.00014622
0.000142487
0.000132657
0.00956787
0.000135688
0.000141609
0.0760878
0.000143388
0.0001423
0.000136552
0.000139382
0.000139984
0.000133165
0.0175995
0.00121781
0.000158581
0.000156532
0.000154583
0.000641207
0.000152137
0.000147188
0.000148664
0.000244357
0.0153426
0.000169552
0.00133824
0.000172937
0.00018838
0.00014118
0.00125115
0.0766045
0.0160949
0.000167605
0.000143318
6.58703e-05
0.000133769
0.000356698
0.000137113
0.000140748
0.000155348
0.000141509
0.000130066
0.000139994
0.00018315
0.0517257
0.000143199
0.00826961
0.000143177
0.000137507
0.000172652
0.00243132
0.000144515
0.000143428
0.000139046
0.000134775
0.000312475
0.0016275
0.000154232
0.000231806
0.000136997
0.000141786
0.0120679
0.000142296
0.000171514
0.00905139
0.00845652
0.0365598
0.000148066
0.000132614
0.000139452
0.000155249
0.000140975
0.00776639
0.000154026
0.000191573
0.000146152
0.000132665
0.00014228
0.000355234
0.000147622
0.000149003
0.000184908
0.000143448
0.000139716
0.0442658
0.0117511
0.000179224
0.000137758
0.000132548
0.00014152
0.000147771
0.000137863
0.0001416
0.000188144
0.000197624
0.000138767
0.000131699
0.000139403
0.00929623
0.000150948
0.000214972
0.00014827
0.000147108
0.000167865
0.000143304
0.000137723
0.000171465
0.000174793
0.000137698
0.000143893
0.000172523
0.00014337
0.000144101
0.000134783
0.0240329
0.000147919
0.000164149
0.000139457
0.000141091
0.000199943
0.000140862
0.000159148
0.000183012
0.0001821
0.000159886
0.00018328
0.0113696
0.000141545
0.000332678
0.000332201
0.000134499
0.000183583
0.000141339
0.000143822
0.0122276
0.0138712
0.000142633
0.000142829
0.000645597
0.0649546
0.000138756
0.000155251
0.000165999
0.000142693
0.000143343
0.000140043
0.000191433
0.000146397
0.000150562
0.000144123
0.000134528
0.00014908
0.0790983
0.000155913
0.000139057
0.010045
0.000182464
0.000153578
0.000329338
0.00013321
0.000163058
0.000140271
0.000149584
0.000135714
0.053382
0.000176058
0.000136376
0.0537842
0.000148781
0.000331881
0.000148374
0.000141605
0.00531953
0.000156021
0.0143104
0.0021724
0.000342605
0.00019047
0.000136152
0.000142132
0.000173617
0.000137148
0.000155719
0.000231062
0.013565
0.000276772
8.9036e-05
0.000194936
0.00568092
0.000141371
0.000140087
0.000141233
0.000136095
0.0150222
0.000140216
0.000275398
0.000143678
0.000165417
0.000162949
0.000142923
0.0001391
0.000135006
0.000167459
0.0001423
0.00014821
0.061457
0.000168207
0.0362779
0.000136429
0.000176941
0.00013914
0.00013327
0.00346951
0.000134628
0.000239203
0.000746102
0.000151938
0.000180443
0.000139357
0.0482695
0.000134611
0.000142035
0.000158374
0.000145497
0.000134963
0.00014411
0.000164665
0.000166265
0.000144495
0.000141922
0.000186044
0.000159465
0.00783677
0.00014971
0.000134922
0.000141892
0.00455737
0.000134597
0.000163847
0.000152691
0.000167903
0.000137253
0.000184963
0.000176785
0.000162772
0.000164263
0.000139091
0.000281246
0.000138934
0.000135962
0.000389141
0.00227643
0.000154716
0.00298916
0.000134518
0.00509096
0.00346419
0.000161903
0.000138033
0.000138483
0.026333
0.000130151
0.000141994
0.000135992
0.000157965
0.0001446
0.000143722
0.000142247
0.0001425
0.000171689
0.000146168
0.000142087
0.0001594
0.000231527
0.000157331
0.000145105
0.00016124
0.00796782
0.0001681
0.00154123
0.000149665
0.00930139
0.00103281
0.000136024
0.000204332
0.000143233
0.0799601
0.000136906
0.000157458
0.0108519
0.000140998
0.000141783
0.0204276
0.00221653
0.000158719
0.000115939
0.000198356
0.000214211
0.000144719
0.000139317
0.000141689
0.000143305
0.000173802
0.000137117
0.000133257
0.000144182
0.000143935
0.000219209
0.0147725
0.000142647
0.00720684
0.000139608
0.000137064
0.00014243
0.000145577
0.000155478
0.000169109
0.000145624
0.000184091
0.0452881
0.0772023
0.000161794
0.000153981
0.00014637
0.000141277
0.000176854
0.000132725
0.000150362
0.00669661
0.0458503
0.0134952
0.000176997
0.000144604
0.000152962
0.000224392
0.000154151
0.000141465
0.000182778
0.0177673
0.00019788
0.000143154
0.00539215
0.000166831
0.000141324
0.00330334
0.000132672
0.000149547
0.000141247
0.000146233
0.000140464
0.000148549
0.000175007
0.000143379
0.000139673
0.00786105
0.00611193
0.00015412
0.000132768
0.00014884
0.000166434
0.00014338
0.0488472
0.00429258
0.000152095
0.00793672
0.00860545
0.000154073
0.000148487
0.00307071
0.000145158
0.0001637
0.00443098
0.00013797
0.00742041
0.000172279
0.000155175
0.000140876
5.39027e-05
0.000144124
0.000140515
0.000149009
0.000141103
0.000141701
0.015626
0.000166545
0.000132501
0.000159497
0.000208005
0.000143699
0.000145703
0.000148849
0.000141811
0.000139005
0.00777194
0.000164171
0.000142538
0.000166982
0.00944124
0.000143121
0.000273572
0.000258615
0.000147329
0.000132612
0.000131112
6.23453e-05
0.000138101
0.00713349
0.000163765
0.000157868
0.000135395
0.00265059
0.000192365
0.00382691
0.000110658
0.000141646
0.000159525
0.000160719
0.000135278
0.0196232
0.000132538
0.000144922
0.00013866
2.16222e-05
0.00014365
0.000137017
0.000146255
0.000173773
0.000139201
0.000141868
0.000148965
0.000157832
0.000144166
0.000194735
0.00013263
0.000145757
0.000143071
0.0260305
0.000694271
5.0391e-05
0.000140908
0.000148495
0.000136295
0.000185571
0.00013775
0.000135483
0.000142678
0.000132476
0.000142996
0.000141263
0.000142967
0.000333326
0.000201342
0.000139512
0.00632828
0.000132426
0.000179587
0.000140836
0.0081264
0.000143348
0.000141239
0.000182043
0.000148031
0.000135892
0.000194702
0.000158994
0.000162729
0.000186461
0.000144105
0.000210835
0.0169834
0.000177985
0.000169127
0.000138151
9.66944e-05
0.00145794
0.000316796
0.000149076
0.00475051
0.000134646
0.000165465
0.000147275
0.000130187
0.000202527
0.000197647
0.000138896
0.000157372
0.000150013
0.00756733
0.0089016
0.000157584
0.000167024
0.0143082
0.000145281
0.00013292
0.000137078
0.0813649
0.000163894
0.000187548
0.000184664
0.000135826
0.000203493
0.0428758
0.000146671
0.000177815
0.000134679
0.000140333
0.000187826
0.00013623
6.39167e-05
0.000201196
0.000101315
0.000141974
0.000203455
0.000404385
0.0544722
0.000193536
0.000136153
0.000146458
0.000142692
0.00010223
0.0456263
0.000140643
0.000184784
0.000135685
0.000188207
0.000327306
0.00171084
0.000196424
0.000166254
0.000147407
0.000138936
0.00015373
0.000142282
0.00158953
0.000178469
0.000179797
0.000137906
0.000135489
0.00018284
0.0037478
0.0373697
0.000139943
0.000139187
0.000132967
0.000135016
0.00015204
0.000168339
0.00015841
0.000140142
0.000135084
0.00017447
0.000136292
0.000152562
0.000167529
0.000140564
0.000132557
0.000147798
0.000134511
0.0020534
0.000135139
0.000141325
0.000142324
0.000141746
0.000177022
0.000139293
0.000362008
0.000134557
0.0001436
0.000159541
0.00012383
0.000133456
0.000152313
0.000178981
0.000134347
0.000141002
0.00018501
0.000140319
0.000135942
0.00614543
0.000135759
0.00971688
0.000140852
0.000135322
0.000194905
0.00803517
0.00970652
0.00012484
0.000186102
0.000181735
0.00019008
0.000132669
0.000155784
0.000159526
0.0124628
0.00839891
0.00658751
0.000167392
0.00765076
0.000140841
0.0221173
0.000467642
0.00828417
0.000138272
0.00016142
0.00015865
0.000140761
0.000177372
0.000137257
0.000148322
0.000141088
0.00014295
0.000152036
0.000142318
0.00018429
0.00831495
0.000143774
0.000137915
0.000156181
0.0314782
0.00014001
0.000151442
0.000135416
0.00013956
0.000159905
0.00938431
0.000172144
0.00738155
0.0826098
0.000156956
6.7055e-05
0.000138172
0.000139424
0.00014654
0.000154721
0.000143491
0.000149733
0.00608251
0.000139469
0.000134757
0.000145384
0.000140241
0.000149797
0.0818072
0.000149918
0.000137166
0.000151341
0.000155073
0.000139224
0.00136154
0.000149122
0.00298791
0.000136858
0.000139837
0.000143041
0.00346624
0.000141227
0.000143834
0.0105873
0.000143836
0.000137729
0.00019704
0.000153612
0.000104279
0.000137363
0.000143243
0.000176193
0.00190475
0.000140104
0.000163182
0.00936513
0.00013455
0.000139849
0.000139091
0.000160758
0.000143134
0.000230766
0.000159001
0.000298595
0.000210312
0.000987207
0.000194494
0.000159212
0.000213511
0.000152208
0.000141009
0.000169909
0.000198461
0.00360472
0.000171903
0.000304455
0.000139253
6.54727e-05
0.000153124
0.000140623
0.00701549
0.000138954
0.000135331
0.00841092
0.000143881
0.000139922
0.000141127
0.00565176
0.000172202
0.000170648
0.000135266
0.000147816
0.000144628
0.000187288
0.000158729
0.000176715
0.000141973
0.000139342
0.000157448
0.00014215
0.00015065
0.000150966
0.00017589
0.000151236
0.000135741
0.000145789
0.00022135
0.000143491
0.00018325
0.000142317
0.000214388
0.000142968
0.000141328
0.000136052
0.000170178
0.00014343
0.000149305
0.000201148
0.000144155
0.000234316
0.000225414
0.000152155
0.00017745
0.000142858
0.000143062
0.000136905
0.000140229
0.00018474
0.000147713
0.000169254
0.000139755
0.000159951
0.000396873
0.000140949
0.000157846
0.00014129
0.00807355
0.000150902
0.000137616
0.0105259
0.000178164
0.00013562
0.000171068
0.000169069
0.0105806
0.000156286
0.000134387
0.000141364
0.000141037
0.00792363
0.0128504
0.000268715
0.000152834
0.000170792
0.000156532
0.000153648
0.000159334
0.00593761
0.000142817
0.000185372
0.000179076
0.00914927
0.000232165
0.000145944
0.000188106
0.000133113
0.000160714
0.000172279
0.000149938
0.000261008
2.55369e-05
0.000178651
0.00013908
0.000146244
0.000140505
0.000680275
0.0159326
0.000141642
0.000153938
0.00647792
0.000139051
0.000197953
0.000151443
0.000143721
0.000141331
0.000132554
0.000216864
0.000155425
0.000141328
0.000203666
0.000164303
0.000146389
0.000731315
0.000159583
0.000137696
0.0101123
0.000166183
0.000168778
0.000142763
0.000153089
0.000141351
0.0107759
0.0001322
0.000149817
0.000141603
0.000161111
0.000184275
0.0485234
0.000141529
0.000134723
0.000180986
0.000145474
0.00788603
0.000143521
0.000170462
0.000147184
0.00771519
0.000169178
0.000147457
0.000141356
0.000143672
0.0081538
0.000145529
0.00013551
0.000143117
0.00286558
0.000167841
0.000173313
0.0032263
0.000148344
0.000173
0.00724169
0.000139034
0.000171377
0.000211027
0.000135213
0.000141376
0.000152339
0.000142224
0.000141808
0.000147247
0.00013226
0.000168441
0.000140707
0.000149128
0.0812561
0.000226938
0.000161701
0.000141756
0.000158979
0.000135614
0.00460918
0.000141091
0.00807596
0.000143871
0.000141537
0.000193376
0.0782557
0.000139436
0.000147223
0.000142338
0.000146053
0.000149706
0.000141859
0.000137235
0.000148213
0.0117153
0.000166011
0.000153462
0.000163747
0.00014236
0.000158954
0.000163512
0.000140092
0.000139252
0.00337337
0.00016986
0.000138722
0.000413854
0.000149557
0.000142205
0.0452281
0.000149639
0.000151071
0.00013796
0.000148635
0.0204688
0.00701185
0.000178324
0.0105286
0.000138101
0.000141958
0.00013788
0.000147986
0.000148749
0.000142145
0.000141046
0.00415121
0.000142227
0.00015335
0.00016318
0.000140913
0.000163692
0.000150542
0.0443362
0.00023872
0.000162599
0.000216033
0.000141722
0.00319751
0.000143742
0.0118553
0.000147963
0.000150512
0.0143284
0.000165925
0.000141467
0.000523179
0.000135398
0.0111222
0.015757
0.000202501
0.00980687
0.000143284
0.000182826
0.000148629
0.000146126
0.000184514
0.000149428
0.000161274
0.000146671
0.000155821
0.00459261
0.000141401
0.000134818
0.000157428
0.0001411
0.000142434
0.000138506
0.000155287
0.00015931
0.000228588
0.000134698
0.000161395
0.00346792
0.000169069
0.000151727
0.000143119
0.000184384
0.000138679
0.000152433
0.000183069
0.000141477
0.000159854
0.00015064
0.0001325
0.000158807
0.00015431
0.000140738
0.000147197
0.000140485
0.000154444
0.000147017
0.013701
0.000144024
0.000138034
0.000142456
0.00017825
0.00815468
0.0146468
0.0787534
0.000141792
0.000160916
0.000141237
0.000143925
0.000155582
0.000143045
0.000139899
0.000144282
0.000134799
0.000168312
0.000157086
0.000143056
0.000139252