/*--------------------------------*- C++ -*----------------------------------*\
| =========                 |                                                 |
| \\      /  F ield         | OpenFOAM: The Open Source CFD Toolbox           |
|  \\    /   O peration     | Version:  v2012                                 |
|   \\  /    A nd           | Website:  www.openfoam.com                      |
|    \\/     M anipulation  |                                                 |
\*---------------------------------------------------------------------------*/
FoamFile
{
    version     2.0;
    format      ascii;
    class       volScalarField;
    location    "350";
    object      nut;
}
// * * * * * * * * * * * * * * * * * * * * * * * * * * * * * * * * * * * * * //

dimensions      [0 2 -1 0 0 0 0];


internalField   nonuniform List<scalar> 
18540
(
0.00558774
0.00705344
0.00670799
0.000458616
0.00439249
0.00668768
0.00679952
0.0224431
0.00669605
0.00197687
0.00438155
0.000548789
0.00023254
0.01532
0.00393334
0.00669437
0.00743011
0.00675493
0.00669176
0.00672803
0.00045575
0.00760302
0.00668162
0.00630015
0.00673897
0.00340658
0.00479332
0.0181928
0.000321897
0.0146963
0.0215074
0.00753741
0.0053131
0.00841933
0.00443082
0.00707709
0.00517318
0.00639799
0.0070226
0.00175543
0.00056414
0.00916724
0.00674714
0.00678886
0.00679789
0.0069401
0.00532276
0.00711065
0.00689506
0.000623433
0.00552304
0.00698671
0.00739082
0.000617783
0.000488769
0.0228632
0.00194381
0.00323361
0.0037203
0.000559812
0.00437629
0.00671295
0.00670025
0.00668593
0.00669181
0.00668665
0.0069968
0.00052532
0.000594603
0.00668555
0.00670675
0.000339042
0.00991629
0.00669397
0.00687483
0.0227098
0.00015706
0.00405356
0.00670627
0.0238686
0.00678561
0.00678669
0.00765093
0.00670782
0.00370108
0.00670594
0.000218621
0.00750541
0.00679623
0.000490524
0.00596932
0.00171285
0.000302521
0.00677642
0.00668234
0.00686457
0.00025028
0.00672923
0.024073
0.00679952
0.0066814
0.00271114
0.00679915
0.00667914
0.00668965
0.00668219
0.00650264
0.00124598
0.00266388
0.00671357
0.00603735
0.00669411
0.00679526
0.00674778
0.00668117
0.00668029
0.00675728
0.00674458
0.00679161
0.00670821
0.00672763
0.00179324
8.64869e-05
0.00671067
0.00140723
0.0031517
0.00629599
0.00593154
0.00669103
0.00468479
0.0262214
0.00679092
0.00669907
0.000368457
0.0066772
0.00347965
0.00676095
0.00452782
0.00669873
0.00667998
0.00670288
0.00676228
0.00671329
0.00556607
0.000488895
0.000697516
0.000412523
0.023831
0.00671121
0.00708791
0.000178481
0.00458285
0.00671009
0.00679664
0.0067093
0.00735814
0.00122845
0.00677237
0.00671088
0.0189274
0.00123194
0.0002468
0.000808789
0.0130509
0.00071143
0.00676646
0.00195545
0.00670985
0.00672233
0.00170733
0.00361314
0.00670598
0.00219317
0.0210341
0.00938937
0.00117118
0.00743469
0.00402969
0.00676305
0.00671196
0.000625769
0.002981
0.00676861
0.00728657
0.00679843
0.00202196
0.00447236
0.00287391
0.000655405
0.000395527
0.00132959
0.0146617
0.006795
0.0217417
0.00289622
0.00671285
0.00119939
0.000346315
0.00678403
0.000731428
0.00677107
0.00500223
0.0067826
0.0058921
0.00721729
0.00678189
0.0122516
0.00683889
0.0137142
0.0143597
0.00670942
0.00679809
0.00679168
0.00679584
0.000195984
0.019662
0.0070919
0.0073107
0.000345364
0.0196749
0.000636664
0.00685963
0.0240213
0.00179704
0.00272826
0.00674746
0.010968
0.000280709
0.000920177
0.00387827
0.00974022
0.00584743
0.0175243
0.000224395
0.000222974
0.000601412
0.00038073
0.00461002
0.00694583
0.00677486
0.00734326
0.000567111
0.00531108
0.00693218
0.00668566
0.00670001
0.00171051
0.00275622
0.00580333
0.00685703
0.00678852
0.0141675
0.00671151
0.00670503
0.0177515
0.000456247
0.0010353
0.0176176
0.00064043
0.0200742
0.0194297
0.0212783
0.0179238
0.00719844
0.00678239
0.00380403
0.00670132
0.00575914
0.000107756
0.00673303
0.00667862
0.00711012
0.00698448
0.00669068
0.00668593
0.00670178
0.00591112
0.000429735
0.0184136
0.0069429
0.0067237
0.00677133
0.000160293
0.00670858
0.00260379
0.0109269
0.00675834
0.00679707
0.00485186
0.00131484
0.0067769
0.00325965
0.000282938
0.00162127
0.0067158
0.00674491
0.0154039
0.00675506
0.00571371
0.0003981
0.00668602
0.0068211
0.00670833
0.000502113
0.000422361
0.00670475
0.00131338
0.00670695
0.00584748
0.00668532
0.00678318
0.00263373
0.00673271
0.00678766
0.000592341
0.00670776
0.00945476
0.00205472
0.00671352
0.000828042
0.00671218
0.0067723
0.00678015
0.00668234
0.0032661
0.00695523
0.00677235
0.000800322
0.00675923
0.00723168
0.00674906
0.0066826
0.00676671
0.00670922
0.00676902
0.00196966
0.0155475
0.00669716
0.000637396
0.00678288
0.00272528
0.00671205
0.0047861
0.00670929
0.0052152
0.0017494
0.00240411
0.0231522
0.00338998
0.0061206
0.00711171
0.00668059
0.0021981
0.00579149
0.0036646
0.0255338
0.00679445
0.00669621
0.00483374
0.00674544
0.00674264
0.000976729
0.000935638
0.000495441
0.000670868
0.00676275
0.00632461
0.00674964
0.00708331
0.000876982
0.00676639
1.62509e-05
0.00690849
0.00709858
0.000616516
0.00805296
0.00553135
0.000897447
0.0043673
0.00674105
0.0170296
0.00676377
0.00528561
0.00674079
0.00110195
0.00369246
0.00683895
0.00645297
0.00102929
0.000241014
0.0068192
0.000257949
0.00670851
0.00482612
0.0220377
0.00020371
0.00668307
0.00678806
0.00127536
0.00676816
0.0066795
0.00530618
0.00112582
0.00155374
0.00675002
0.0027419
0.00673425
0.000598641
0.00720967
0.0069513
0.0195237
0.00669264
0.00673748
0.00671645
0.00191383
0.00322458
0.00669068
0.00118994
0.00672046
0.00339116
0.00851406
0.00671244
0.00667868
0.00676511
0.000972435
0.00679826
0.00684457
0.00686257
0.011716
0.00671145
0.00295001
0.00565074
0.00667791
0.00584926
0.00678003
0.00667875
0.00669101
0.0118773
0.00674821
0.00252739
0.0106016
0.0133756
0.00793629
0.00701097
0.00669466
0.00678803
0.00671199
0.0209379
0.00668136
0.00668953
0.000242646
0.00670678
0.00667786
0.00660415
0.00733283
0.00665407
0.0144885
0.00670809
0.00130861
0.00671504
0.00673827
0.00679347
0.0183066
0.00668367
0.0207777
0.00317954
0.00678176
0.0182838
0.00669324
0.0142279
0.00708448
0.0165315
0.00670675
0.00672335
0.00676987
0.00678805
0.0239182
0.0068865
0.00748464
0.0068021
0.000291689
0.00675513
0.000460928
0.0110948
0.00671176
0.00745477
0.000236725
0.00511613
0.0201755
0.00715899
0.000242368
0.0066921
0.000566284
0.00118886
0.00903694
0.00327833
0.000676543
0.00669046
0.00675595
0.00666779
0.00200294
0.00674854
0.0169829
0.00732182
0.012936
0.0067554
0.0066921
0.00675481
0.00675395
0.00672251
0.00711961
0.0204145
0.00134264
0.00705616
0.00688983
0.000363097
0.00695165
0.00676373
0.0019556
0.00712207
0.00670925
0.006793
0.00669145
0.0252978
0.0011924
0.0162238
0.00675145
0.00670487
0.00561241
0.017653
0.00680095
0.0231657
0.00416374
0.00666284
0.00668379
0.00668734
0.00676599
0.00670444
0.00677456
0.000637931
0.00405516
0.00673496
0.0214698
0.00672795
0.00670573
0.0150135
0.00136605
0.0067623
0.00251849
0.000592336
0.00676147
0.00668783
0.0130137
0.00120159
0.00667853
0.00129781
0.0172137
0.00668868
0.00637892
0.00676444
0.00577502
0.0234914
0.000125904
0.0071435
0.0159901
0.00668473
0.0034845
0.00564153
0.00679101
0.000339573
0.00540016
0.0227373
0.0147887
0.0050378
0.000335621
0.000191433
0.000513907
0.00258162
0.00668199
0.0124514
0.00541973
0.00676648
0.00672262
0.000174728
0.00702356
0.00750554
0.0067816
0.00673135
0.00679116
0.00679178
0.0060592
0.00224472
0.00679247
0.00678535
0.00668949
0.010892
0.00676151
0.00671128
0.00369706
0.00670698
0.00670418
0.00531409
0.00671185
0.00668091
0.00668215
0.00172422
0.00728213
0.00209634
0.00680026
0.00719374
0.00666702
0.00358808
0.000150219
0.0160591
0.0067096
0.00674075
0.00672989
0.00240303
0.00675461
0.00670853
0.00601026
0.00670777
0.00684152
0.00669474
0.00141097
0.00689481
0.00673179
0.00885046
0.00677362
0.00672769
0.00677884
0.00668025
0.00672399
0.00296613
0.00450779
0.00377618
0.00670914
0.00100379
0.0127281
0.00673001
0.000147735
0.00563053
0.00670125
0.00046498
0.0097979
0.000482721
0.00671905
0.0223679
0.00678554
0.00682729
0.00312273
0.00894089
0.00676189
0.00414489
0.00650052
0.00584685
0.00676599
0.00202514
0.00546989
0.00679044
0.00683152
0.0203417
0.00675933
0.0072557
0.00344428
0.00677027
0.00666318
0.00455996
0.00194884
0.00675543
0.00604977
0.00669358
0.00675055
0.000642651
0.00677079
0.00668138
0.00669551
0.0217637
0.000542359
0.00676159
0.00306063
0.00342891
0.00677844
0.000576811
0.00670744
0.000561008
0.0190076
0.00670532
0.00668214
0.00675591
0.00651546
0.00670126
0.00669886
0.00669227
0.00348611
0.0155558
0.0145506
0.00035785
0.00668031
0.00677279
0.000363061
0.00767791
0.00584063
0.00281973
0.000320395
0.0153564
0.00671893
0.000509911
0.00104111
0.00675466
0.00672627
0.00646468
0.00670107
0.000875382
0.00645379
0.00669185
0.00194718
0.0026788
0.00667771
0.000310025
0.000506853
0.00673165
0.00938852
0.00670691
0.0147609
0.00669627
0.000144497
0.0161512
0.00667998
0.00612271
0.00202241
0.00670933
0.0152014
0.00312249
0.00676953
0.0232967
0.00671128
0.0066819
0.00736443
0.00670089
0.000399884
0.00041078
0.00770587
0.00726189
0.00616411
0.00672884
0.00670242
0.0058705
0.00261914
0.0067797
0.00348264
0.00671558
0.000535871
0.00668635
0.0066838
0.0133578
0.0098936
0.000421684
0.000891462
0.00669431
0.00021545
0.00670457
0.0129172
0.00672514
0.00669163
0.000578827
0.000997831
0.000270207
0.00707337
0.00672394
0.00668362
0.000207949
0.00674123
0.000194476
0.00144371
0.0016558
0.0187846
0.00683583
0.00671078
0.0122091
0.00681519
0.00641645
0.00674066
0.00695919
0.00101003
0.00670896
0.0047638
0.00182043
0.00680318
0.00339655
0.00670279
0.00668633
0.00669444
0.00690485
0.00296264
0.00672481
0.0201169
0.00673887
0.00683589
0.00682194
0.00373426
0.00147686
0.0066948
0.000626657
0.00407477
0.00673075
0.00670333
0.00394632
0.000478413
0.0230534
0.00681712
0.00593434
0.00406328
0.00669431
0.00673463
0.0065027
0.00680018
0.000157169
0.00681803
0.0067106
0.011869
0.00469291
0.00670445
0.00237902
0.00671297
0.014347
0.00670479
0.000710993
0.00370515
0.0152846
0.00670353
0.0219595
0.00681508
0.0168274
0.00687204
0.00671105
0.00694513
0.000895245
0.00703302
0.0087243
0.000575084
0.000782716
0.00670371
0.00702665
0.00209424
0.0068309
0.00583763
0.000305911
0.00674314
0.00670347
0.000654001
0.00676716
0.000481132
0.00145749
0.00669515
0.00676529
0.00670206
0.00672359
0.00686895
0.00391563
0.00523805
0.00110213
0.00401065
0.0066817
0.00711639
0.00670746
0.00670792
0.00286434
0.016824
0.00673143
0.00682599
0.00672942
0.00274092
0.0019867
0.00677099
0.00159268
0.00672231
0.00301094
0.00671326
0.00665216
0.013599
0.00677781
0.00673456
0.00665886
0.0192133
0.00425103
0.00673173
0.0169654
0.00674532
0.0199778
0.00317248
0.00667873
0.0067314
0.00361244
0.00271694
0.00261326
0.0059258
0.00682354
0.00669131
0.000275814
0.000223288
0.00667938
0.00675933
0.00289038
0.00679437
0.00669505
0.0154563
0.00679788
0.0067114
0.0067109
0.00484353
0.00674812
0.00672303
0.00672633
0.00669203
0.00189697
0.00675315
0.00172555
0.0067641
0.00669509
0.000764347
0.000207784
0.000786936
0.00677213
0.00667973
0.014785
0.00671298
0.00623314
0.00673306
0.00673711
0.00667974
0.00161093
0.0094486
0.0146581
0.0165348
0.00443651
0.00675219
0.0145209
0.00671122
0.00668838
0.0067162
0.000230086
0.00671258
0.000526556
0.000414665
0.0200917
0.00569922
0.00677824
0.0246506
0.00671248
0.00682757
0.0145286
0.00336385
0.0252653
0.00679711
0.00018881
0.00670794
0.000224963
0.0067546
0.000638677
0.0038737
0.00670537
0.00104727
0.00390606
0.0085228
0.00670394
0.0139422
0.00670788
0.00151498
0.000652441
0.00185942
0.00957391
0.00670569
0.00670985
0.000434242
0.00665948
0.000395728
0.016127
0.0162355
0.00415357
0.00227782
0.0126792
0.00295987
0.0166318
0.00657957
0.000887768
0.000451242
0.00671276
0.0067022
0.00677396
0.00687074
0.00671553
0.00679217
0.00669021
0.00690873
0.006737
0.00668146
0.006654
0.00760426
0.000328481
0.000167279
0.000374291
0.006708
0.000258219
0.00222589
0.00309035
0.00671226
0.00394489
0.00676778
0.00684137
0.00671466
0.0257399
0.00670516
0.000478985
0.00153044
0.00676284
0.00362284
0.00644907
0.00570346
0.006632
0.00667898
0.00671131
0.00418886
0.00166951
0.000293659
0.00553463
0.00735968
0.00427996
0.00714935
0.00209651
0.00679226
0.00268162
0.00670857
0.00673136
0.00671995
0.00684449
0.000679695
0.00671447
0.0246731
0.00670829
0.00676169
0.00677312
0.00690154
0.00555095
0.0067298
0.00670552
0.00212231
0.00665004
0.00644581
0.00147648
0.00672463
0.000466256
0.00671726
0.00671176
0.00673053
0.0133167
0.000242755
0.00667939
0.00614326
0.00599295
0.00667193
0.0202404
0.00679015
0.0067864
0.00129147
0.000416222
0.00675076
0.00638723
0.00677733
0.000859275
0.00666971
0.00670893
0.00682313
0.000680922
0.00674886
0.0207289
0.00678165
0.00676748
0.00671888
0.00673203
0.0066893
0.00673494
0.00678752
0.00722235
0.00674135
0.00673868
0.00670409
0.0067054
0.000456795
0.00079503
0.00671398
0.00441453
0.00671184
0.00172448
0.00324775
0.00667856
0.00674655
0.00639942
0.00671985
0.00673045
0.00673579
0.000593486
0.000577268
0.00733496
0.00671342
0.00627476
0.0185859
0.00601124
0.00671785
0.00022682
0.000863953
0.00614612
0.00926523
0.0064933
0.0130345
0.00671171
0.00654415
0.000459885
0.003138
0.0023462
0.0170888
0.000739447
0.0224727
0.00152283
0.00672953
0.00670736
0.00670813
0.00672178
0.00672637
0.00673132
0.00191455
0.00675634
0.00668572
0.00668394
0.00683288
0.000615124
0.0067081
0.00721211
0.0068375
0.0168829
0.00717246
0.0067365
0.00671157
0.00677328
0.0117526
0.00674846
0.000865768
0.00676083
0.00556808
0.00671451
0.00737567
0.0046841
0.00673324
0.00677691
0.00670736
0.000949831
0.00677233
0.020278
0.00176323
0.000770266
0.00670054
0.0071796
0.00670875
0.00667587
0.00669162
0.00686798
0.00667817
0.000366527
0.00964324
0.00670868
0.00672379
0.00692272
0.00668387
0.0067751
0.00672799
0.00203657
0.0202731
0.00487606
0.00674665
0.019117
0.00294776
0.00670195
0.00776104
0.00717907
0.00670536
0.00675733
0.000516998
0.00703623
0.00247133
0.00678041
0.00669882
0.00667814
0.00676142
0.0067629
0.00533514
0.00679383
0.00676448
0.000309019
0.00669909
0.0158047
0.0110586
0.0147952
0.00680554
0.00672909
0.00626889
0.006792
0.00673609
0.00476521
0.00569381
0.00671526
0.00679572
0.000815596
0.00674494
0.000463326
0.00669843
0.0137334
0.00674705
0.00669226
0.0067865
0.00671986
0.00670971
0.00668781
0.016752
0.0066794
0.00903898
0.00165217
0.000292063
0.00669737
0.00671681
0.00672601
0.00855061
0.00209228
0.00675272
0.0028028
0.00669847
0.00667795
0.00678356
0.00120961
0.0025955
0.00502818
0.00671238
0.000765791
0.00110745
0.00677185
0.000262486
0.0106952
0.001448
0.00171212
0.00757327
0.000153615
0.00668759
0.00103325
0.00670545
0.00673284
0.00670794
0.000499221
0.00687049
0.00672359
0.0066994
0.00668588
0.00669512
0.000986288
0.000631228
0.000307316
0.000598514
0.000966792
0.00667471
0.00668647
0.000173211
0.000233114
0.00433627
0.00667994
0.012325
0.0195882
0.00666596
0.0063799
0.00674627
0.0193928
0.00675159
0.00670612
0.00673124
0.00103667
0.00118453
0.00663655
0.00733746
0.00678302
0.000982451
0.000813865
0.00668833
0.00699049
0.00358032
0.00277143
0.00440707
0.00127246
0.000417359
0.00671433
0.0067011
0.0202759
0.000173862
0.0067893
0.00142685
0.000338183
0.00670324
0.00669915
0.000878766
0.00668095
0.000440929
0.00227132
0.00670473
0.0129424
0.0182975
0.00356477
0.00672614
0.021869
0.00708181
0.00673279
0.00670988
0.0178944
0.00848837
0.000437483
0.00668231
0.0067158
0.0197105
0.00668192
0.00737543
0.00679037
0.00667101
0.00642588
0.00669391
0.00665817
0.0251411
0.00202497
0.00670875
0.00671429
0.00025679
0.00480797
0.00666321
0.00645448
0.00153482
0.00670445
0.00668883
0.0015435
0.00668268
0.00641956
0.00668787
0.00320242
0.0066857
0.00668343
0.00671036
0.0191989
0.0202566
0.00671013
0.00162538
0.00677738
0.00672939
0.00111815
0.00668364
0.000581692
0.00677691
0.00886809
0.0145145
0.00669171
0.00674186
0.00620819
0.00139369
0.00650823
0.00101441
0.00668728
0.0166938
0.00200969
0.00667945
0.00668976
0.00672183
0.0130915
0.000811026
0.00682415
0.00670266
0.0066903
0.00679057
0.00605688
0.00671478
0.00196415
0.00670218
0.00678482
0.0063853
0.00670665
0.0066771
0.00666206
0.00672571
0.0200448
0.00677329
0.00669683
0.000433423
0.0089437
0.00303149
0.00379536
0.000239183
0.00674222
0.00657502
0.00681522
0.0179406
0.0067293
0.00671264
0.0038782
0.0159917
0.00998605
0.00599049
0.0144374
0.000270434
0.000609049
0.00677765
0.00670468
0.0019326
0.00668593
0.00674942
0.00593351
0.0187181
0.00668031
0.00670336
0.0066736
0.000494422
0.0031265
0.00639722
0.00670432
0.0022206
0.00458631
0.0117622
0.00679363
0.0199224
0.0161357
0.000833306
0.00746834
0.00627328
0.0062472
0.00669454
0.000771783
0.0066967
0.000508555
0.00668367
0.00309353
0.00252081
0.00679499
0.00678392
0.00671639
0.00673704
0.000375207
0.000810134
0.0137035
0.00035615
0.00666535
0.00677879
0.00673651
0.00112459
0.00672617
0.00362728
0.0118736
0.00669649
0.00673617
0.00677674
0.00671251
0.00668888
0.00672723
0.00692805
0.00641227
0.00683682
0.000165831
0.00753784
0.00203095
0.0101998
0.00668798
0.00676513
0.00654345
0.00667585
0.00296517
0.0067927
0.00490985
0.00670831
0.00694126
0.00622029
0.00668678
0.00669168
0.006782
0.00670283
0.00786542
0.00679576
0.00400486
0.00670743
0.00417141
0.00670199
0.00679481
0.000827347
0.0047579
0.00088814
0.00602
0.00673422
0.00669079
0.00252928
0.00888301
0.00565949
0.00685595
0.00279408
0.00669279
0.00671815
0.00671557
0.00679392
0.00675598
0.00668859
0.0106918
0.00668123
0.00672058
0.0239659
0.00675252
0.00670342
0.00668937
0.00669388
0.00676479
0.00667233
0.0137786
0.00484363
0.00708081
0.00438617
0.00519422
0.00236446
0.00273535
0.00679504
0.00643723
0.00121709
0.0124104
0.000690263
0.00370321
0.000603235
0.00854896
0.00671564
0.00477503
0.0218988
0.0136744
0.00674241
0.00670705
0.000124239
0.00668371
0.00191833
0.00668604
0.00671566
0.00690203
0.00679057
0.00823001
0.00669653
0.000272811
0.0130909
0.00671014
0.0186178
0.00673616
0.0067029
0.00064077
0.000916634
0.00673438
0.00672606
0.00669398
0.00669571
0.003896
0.00530099
0.0060546
0.000337727
0.00668892
0.00672923
0.0124602
0.00670376
0.000659725
0.0166663
0.0168199
0.0108536
0.00675996
0.00667308
0.00669582
0.00650012
0.00670803
0.00960052
0.00231931
0.000207112
0.00678419
0.00670242
0.00680435
0.000767913
0.0069544
0.00607542
0.00237521
0.006714
0.00670743
0.0181459
0.0145624
0.000271445
0.00668938
0.00667169
0.00675537
0.00690073
0.00670006
0.0067922
0.000227666
0.000219524
0.00640529
0.00376233
0.00670384
0.00241104
0.0067785
0.00137704
0.00679092
0.00678225
0.00735716
0.00672193
0.00668923
0.000720879
0.000806806
0.00636712
0.00681275
0.00724621
0.00672917
0.00671993
0.00669025
0.00912297
0.00678987
0.00728615
0.00669627
0.00671413
0.00055051
0.00670458
0.00595119
0.00114517
0.000392242
0.00194816
0.00268187
0.02384
0.00679375
0.00732692
0.00131824
0.00669918
0.000484685
0.00670136
0.006714
0.0152499
0.0119429
0.00670565
0.00670771
0.0014207
0.0206009
0.00670995
0.00875866
0.00148869
0.00676067
0.00680431
0.00670672
0.000266555
0.00969692
0.00404334
0.00675728
0.00669896
0.00643806
0.0237809
0.00678119
0.0066936
0.0214634
0.000344813
0.00689927
0.00231576
0.00667198
0.00167109
0.00670083
0.00475995
0.00668151
0.0186946
0.00052275
0.00668481
0.0128835
0.00621287
0.0107658
0.00678416
0.00671846
0.00541312
0.0103348
0.00550128
0.00085699
0.00025672
0.000188245
0.00668504
0.00670285
0.000850763
0.00673895
0.00633185
0.00497107
0.00958908
0.000252929
0.000601499
0.00212962
0.00577204
0.0067122
0.00670669
0.00671569
0.00668436
0.0120923
0.0067006
0.00191314
0.00676866
0.00176628
0.00229893
0.00673137
0.00671428
0.00672195
0.000949112
0.00670548
0.00689107
0.0174496
0.00726536
0.0079197
0.00668541
0.00772857
0.00669925
0.00667821
0.00585655
0.00671902
0.000505771
0.00437768
0.0047047
0.00733877
0.00669453
0.0157814
0.00668799
0.00674306
0.00603013
0.00677174
0.00672596
0.00679179
0.00689098
0.000982683
0.00673457
0.0067063
0.000361012
0.00185514
0.0180258
0.00676289
0.00669311
0.00670154
0.0015908
0.00668474
0.00651448
0.00681356
0.00872618
0.00659351
0.0012432
0.000414157
0.00322541
0.00224227
0.0066943
0.000171311
0.00671226
0.00668327
0.0124372
0.00501424
0.006073
0.00533071
0.00668313
0.00883913
0.00750719
0.00136465
0.00669037
0.00669837
0.00842025
0.00666425
0.00670343
0.00668954
0.00306402
0.00675711
0.00671404
0.00672345
0.00670484
0.000678861
0.00678397
0.00670246
0.00119258
0.000607669
0.00692574
0.00676359
0.0030527
0.0123245
0.00109199
0.00517881
0.00537718
0.0202744
0.00337105
0.00668396
0.000140672
0.00671028
0.025765
0.00669025
0.00611539
0.0115759
0.00678515
0.00679018
0.0159528
0.00108143
0.00257755
0.000490336
0.000306075
0.000219983
0.00614174
0.00670045
0.00670456
0.00672329
0.00345043
0.00668994
0.00667214
0.00678409
0.00681157
0.000201627
0.00250665
0.00675054
0.0180903
0.00675657
0.00669
0.00672757
0.00680624
0.00600134
0.000855453
0.00677835
0.00764985
0.013959
0.0193551
0.00690798
0.00691298
0.00677291
0.00670426
0.000358373
0.0066753
0.00464844
0.013172
0.0107726
0.00952074
0.000717964
0.00675241
0.00296568
0.00110424
0.00241224
0.00671696
0.000228542
0.0142774
0.00013172
0.00673661
0.0113369
0.00135274
0.0067173
0.00804883
0.00667528
0.00532896
0.00671111
0.00678659
0.0067749
0.00659814
0.000390339
0.00670745
0.00670778
0.025398
0.00172357
0.00330372
0.00669779
0.00525559
0.00113303
0.00671068
0.0140004
0.00623574
0.00555698
0.00717268
0.0207693
0.00221772
0.00678507
0.00836467
0.00678957
0.00838686
0.00776351
0.00669482
0.0253654
0.0011206
0.00685966
0.00670517
0.0040299
0.00678262
0.00671988
0.00675898
0.00670631
0.00670575
0.0127142
0.00129499
0.0066725
0.00266051
0.00104641
0.00672417
0.0067759
0.00690946
0.00670558
0.00669323
0.00942117
0.00784097
0.00690254
0.00101554
0.0168629
0.00671122
0.00119373
0.00407209
0.0067962
0.00667413
0.00668727
0.00387504
0.00668997
0.0134873
0.00728295
0.00676849
0.00668719
0.00637797
0.000233544
0.00703469
0.000561252
0.0067266
0.00171412
0.0014513
0.00668449
0.00454228
0.00668687
0.00678718
0.00674309
0.000569635
0.00676639
0.00668675
0.00678706
0.000662653
0.00669989
0.00670616
0.00597348
0.00343254
0.00672084
0.00769474
0.00668783
0.00677595
0.00676241
0.00549784
0.00282462
0.000974692
0.00670414
0.00684518
0.00678687
0.000343779
0.00669224
0.00668235
0.00671294
0.00667141
0.00677781
0.00670985
0.00677826
0.00394289
0.000165196
0.00669584
0.0129213
0.00667127
0.00720656
0.00670075
0.0150407
0.00672332
0.00671407
0.00040809
0.00678836
0.00668286
0.000349512
0.00449964
0.00713726
0.00178381
0.00675802
0.00162711
0.0140551
0.000747155
0.00120203
0.00674234
0.000137497
0.00514034
0.00230467
0.00550234
0.0119366
0.0067096
0.00149796
0.00678403
0.00666422
0.011227
0.00563799
0.00669296
0.00488748
0.0055533
0.0148337
0.0232423
0.00193397
0.00116504
0.00270685
0.00676758
0.00667373
0.00673705
0.0252098
0.00776043
0.000206841
0.000265676
0.00668218
0.000187812
0.0154718
0.00678848
0.00749791
0.00670746
0.00678453
0.00596523
0.00668494
0.00185658
0.00179568
0.00112775
0.00673194
0.00101295
0.00678443
0.0132122
0.00180192
0.00656284
0.00678479
0.00671353
0.00981708
0.0184972
0.0067222
0.000455221
0.00668101
0.000400158
0.00460922
0.00433508
0.00231049
0.00102613
0.00694132
0.00674131
0.00221785
0.00670718
0.00424768
0.000579423
0.000585316
0.00673695
0.00671353
0.000337152
0.0057813
0.0141193
0.00670993
0.00674799
0.00667362
0.00670672
0.00698508
0.00139508
0.00547638
0.00669987
0.00671788
0.00201073
0.0066852
0.00275079
0.00111556
0.00670233
0.006673
0.00678914
0.00669501
0.00405873
0.00671694
0.00670375
0.00674677
0.00670204
0.000531337
0.00670163
0.00893918
0.00669959
0.00673368
0.0022213
0.000365132
0.00667988
0.00689807
0.000355099
0.00669337
0.0067773
0.00061388
0.00669817
0.00674844
0.00827192
0.00668175
0.0169304
0.00670359
0.00671193
0.000172205
0.0204884
0.0169
0.00138537
0.000300284
0.000391347
0.000220498
0.00667416
0.00689343
0.00838203
0.0107422
0.0133612
0.0109296
0.00137676
0.0253501
0.00676875
0.0171246
0.0053041
0.0204754
0.00673264
0.00673541
0.00474127
0.00670445
0.000356244
0.00670288
0.00678733
0.00671247
0.00673101
0.00525546
0.00671289
0.000240887
0.00219915
0.00671454
0.0066947
0.00246323
0.00682959
0.00669887
0.00546254
0.00673222
0.0067241
0.00144018
0.0115222
0.000680462
0.00675562
0.0264704
0.00643163
0.00141625
0.00675352
0.0102743
0.00645761
0.00396991
0.00671108
0.00510827
0.0126071
0.00675903
0.00669314
0.00676653
0.00669809
0.00559788
0.0249959
0.00568748
0.00670142
0.00676967
0.00502155
0.00669357
0.00566039
0.00676009
0.00568085
0.00668684
0.00674706
0.00670825
0.00533102
0.00670427
0.00680151
0.00259931
0.00680139
0.00673223
0.000341074
0.00676289
0.000115842
0.00670389
0.00672758
0.000368932
0.00432121
0.00669972
0.00700487
0.0199737
0.00671201
0.00670848
0.00675162
0.00360722
0.00671157
0.00208148
0.00488548
0.0023615
0.000154778
0.000556834
0.000232123
0.00416353
0.00244191
0.00392401
0.00677581
0.000925464
0.000175207
0.00609315
0.000624235
0.000535559
0.00675491
0.0067422
0.00476279
0.00672422
0.0174688
0.00669332
0.00668432
0.0211833
0.00681769
0.00670769
0.00673023
0.00851233
0.00054487
0.000665551
0.00686933
0.00678076
0.00674954
0.000244228
0.00207572
0.000442369
0.00670869
0.00670149
0.00272911
0.00672177
0.00520674
0.00438492
0.000563661
0.00568067
0.00668153
0.006776
0.000286796
0.00671067
0.000461702
0.00671569
0.00039982
0.00670764
0.00670154
0.00687661
0.000888131
0.0128087
0.00686555
0.00682519
0.00672222
0.00186485
0.00205021
0.00601398
0.000365943
0.0067285
0.00674085
0.00668726
0.00669822
0.000393375
0.00679772
0.000847062
0.00669483
0.00682576
0.00175236
0.00671259
0.00606635
0.00670883
0.0168685
0.00640717
0.00669485
0.00958818
0.000338467
0.00668212
0.000894019
0.00791544
0.00196881
0.0025415
0.00669658
0.00673977
0.00671403
0.0165909
0.0108276
0.00204876
0.0024957
0.000862212
0.00550133
0.00278059
0.00245816
0.00170978
0.00680154
0.000272221
0.00740008
0.0197233
0.00171719
0.00678016
0.00715707
0.0066715
0.00526069
0.000749163
0.00535099
0.00101312
0.000682075
0.00116173
0.0067119
0.00677874
0.00670922
0.0036092
0.0131107
0.00670518
0.00396625
0.01537
0.0067504
0.0022261
0.00416243
0.00671352
0.00670471
0.00667213
0.000225147
0.00616824
0.00671549
9.10905e-05
0.00596976
0.00678846
0.00401049
0.00195989
0.00669213
0.0218891
0.00135861
0.000901392
0.00670746
0.00694269
0.00670964
0.0231812
0.00667052
0.00687649
0.00672668
0.0100171
0.000546381
0.0108764
0.00670607
0.00671172
0.000525224
0.00675807
0.00797405
0.00671451
0.000919148
0.00678492
0.00727864
0.00107668
0.00679469
0.00675296
0.00670883
0.0211567
0.00680374
0.00673222
0.00670817
0.00614771
0.00101873
0.000628341
0.00580033
0.0067723
0.000585166
0.0111978
0.0067487
0.000814213
0.000194114
0.00671154
0.00670417
0.00403081
0.00670658
0.0067051
0.00669773
0.00667089
0.00661342
0.00670428
0.00575359
0.024384
0.00119092
0.00373461
0.0067046
0.00199259
0.00673528
0.00645806
0.00674763
0.021336
0.00671398
0.00679153
0.00289811
0.0228844
0.00670104
0.00678424
0.00670564
0.00677523
0.00570813
0.00679115
0.00668806
0.00675916
0.00833887
0.00135645
0.00346212
0.00609313
0.00670561
0.00681962
0.00151559
0.00670847
0.00669974
0.00856297
0.00445393
0.00674364
0.00216285
0.00446047
0.00670431
0.0131489
0.00583707
0.00604619
0.00673635
0.00619406
0.0204567
0.0143822
0.00752282
0.026805
0.00669028
0.00671356
0.00668912
0.00678797
0.00578541
0.00670423
0.00670254
0.00647634
0.00674883
0.00458916
0.00686712
0.00670724
0.00213681
0.00687952
0.0144118
0.000966791
0.00224038
0.0020659
0.00677891
0.00625135
0.00695436
0.00832904
0.00679758
0.0044872
0.0173172
0.00120101
0.00672417
0.00386494
0.00670921
0.00208702
0.00633985
0.000194805
0.00513194
0.00670992
0.00032689
0.00559267
0.00678441
0.000267159
0.00624886
0.00133343
0.00678789
0.00830471
0.0110657
0.00670961
0.00669576
0.00545802
0.00678165
0.00670599
0.00669927
0.0016819
0.00156538
0.000244125
0.00672471
0.00352637
0.00609416
0.00108545
0.00471616
0.00673781
0.000432733
0.00670758
0.0068248
0.000359506
0.00670616
0.0017096
0.00691891
0.00667205
0.00196464
0.00327504
0.00672998
0.00679083
0.0067204
0.00340059
0.00678936
0.00999074
0.00699902
0.00668996
0.00670596
0.0012156
0.0218334
0.0174822
0.0267812
0.00670254
0.00562494
0.00670087
0.00675451
0.0021286
0.00674299
0.00683421
0.00675525
0.00673248
0.00101688
0.00175315
0.00671287
0.00674783
0.0067426
0.00679322
0.0145858
0.0205048
0.00667908
0.00669931
0.00631995
0.00676078
0.00679522
0.00424211
0.00611879
0.00709656
0.00116612
0.00675659
0.00119602
0.00671063
0.00667681
0.000223367
0.00195222
0.00673901
0.00671304
0.00678476
0.00536394
0.00430712
0.00678283
0.00700049
0.00727293
0.00138379
0.000280617
0.0050206
0.00680392
0.00673324
0.00216657
0.00677717
0.00669869
0.00232482
0.0075809
0.00019186
0.0267652
0.00671407
0.00667306
0.000291237
0.00587171
0.00613823
0.00340614
0.000770527
0.00389461
0.000325942
0.00131148
0.0129482
0.00678288
0.00676086
0.00447805
0.00486028
0.00671166
0.00678132
0.000238495
0.000384559
0.00671034
0.00672286
0.00202408
0.000190419
0.00609394
0.000650056
0.0066747
0.00670376
0.000611241
0.00667198
0.00670437
0.000492669
0.00680784
0.00669097
0.00672917
0.00392477
0.00667699
0.0136324
0.0124833
0.00524727
0.00132257
0.00191631
0.00674681
0.00667215
0.00147074
0.00678434
0.00667569
0.00674758
0.00254617
0.0069611
0.00677462
0.00149366
0.00671343
0.00674198
0.0177215
0.0067673
0.000213073
0.0125059
0.000589046
0.00140851
0.00678493
0.000259726
0.00677381
0.00474416
0.00667298
0.00327582
0.00439736
0.00043481
0.0135732
0.00676879
0.00284207
0.00682709
0.00669393
0.00125029
0.00668586
0.000424967
0.00672053
0.00679109
0.00668493
0.00671028
0.000901552
0.00680149
0.000755087
0.00669539
0.000849491
0.00678843
0.00670734
0.00668817
0.00535291
0.00686847
0.0103369
0.0066934
0.00667081
0.00670217
0.00699063
0.00358915
0.00672468
0.00706266
0.00670084
0.00673545
0.0102893
0.00376024
0.0010733
0.00673836
0.00131177
0.00321592
0.00635969
0.0227141
0.00442649
0.00146936
0.00668162
0.00679837
0.00268902
0.00579603
0.0066758
0.000262731
0.0106845
0.00671686
0.00671061
0.00245527
0.00862155
0.0010951
0.00672715
0.00672615
0.0255592
0.0208776
0.000216749
0.0061736
0.00674545