/*--------------------------------*- C++ -*----------------------------------*\
| =========                 |                                                 |
| \\      /  F ield         | OpenFOAM: The Open Source CFD Toolbox           |
|  \\    /   O peration     | Version:  v2012                                 |
|   \\  /    A nd           | Website:  www.openfoam.com                      |
|    \\/     M anipulation  |                                                 |
\*---------------------------------------------------------------------------*/
FoamFile
{
    version     2.0;
    format      ascii;
    class       volScalarField;
    location    "300";
    object      ddt0(epsilon);
}
// * * * * * * * * * * * * * * * * * * * * * * * * * * * * * * * * * * * * * //

dimensions      [0 2 -4 0 0 0 0];


internalField   nonuniform List<scalar> 
18618
(
6.50859e-06
5.5454e-05
1.98445e-11
4.63415e-05
-2.16544e-11
3.49404e-09
7.55839e-11
2.93998e-05
-3.58567e-10
1.61536e-09
-2.56689e-10
-1.56242e-11
6.88853e-05
3.04813e-10
-6.76761e-11
1.61902e-11
1.86842e-11
-4.62553e-06
-1.8191e-11
-3.07896e-10
3.78316e-08
7.20236e-12
1.50504e-11
2.85224e-09
2.13203e-12
-8.35992e-09
3.9545e-06
2.49748e-11
1.29216e-11
-1.37103e-11
3.64047e-11
-1.67138e-10
8.52164e-11
6.58535e-09
1.18603e-05
9.20313e-11
-1.05762e-11
-8.12996e-08
-7.16465e-10
-2.01835e-11
0.000147947
1.78353e-06
-3.11341e-12
-0.000114753
-3.71861e-10
-4.33182e-10
4.29791e-05
2.04633e-11
6.68118e-07
-0.000641606
-2.25435e-11
1.24899e-10
9.89922e-05
9.24993e-05
3.62923e-11
-4.65692e-05
3.29856e-10
-2.76773e-10
5.13859e-09
-4.30566e-10
2.06125e-11
2.97745e-11
-3.18044e-10
-4.68251e-11
2.17432e-08
-0.000569686
3.65126e-11
4.96209e-11
2.61299e-11
5.9208e-05
-2.48386e-10
1.9814e-06
1.2949e-09
-1.34055e-05
7.05069e-11
7.41235e-11
-1.81329e-08
-0.000625901
3.59608e-11
-9.78741e-05
1.26007e-05
2.11586e-06
-1.60486e-05
-2.16962e-09
8.92952e-11
-7.6999e-12
3.44384e-09
2.32441e-09
-1.47743e-10
-4.43183e-06
1.2118e-09
1.96992e-08
-0.000140797
-2.66448e-08
4.87139e-05
8.29493e-11
1.07981e-11
-0.000483826
2.5374e-10
-2.3761e-12
4.15255e-05
-1.7216e-11
-2.47856e-08
-2.27634e-10
-1.62948e-09
4.68467e-05
1.3585e-11
1.91155e-11
9.71515e-09
-3.15483e-12
-0.000589826
4.94105e-11
-1.94153e-11
3.49146e-12
2.26267e-11
3.39013e-11
3.60179e-11
0.000195464
-4.76518e-11
-3.61043e-09
-0.000597512
1.15661e-11
-4.5211e-05
-1.41785e-06
1.10696e-05
-3.34344e-08
0.000102242
-8.62625e-06
-1.70388e-10
-7.14987e-10
2.6815e-10
7.33461e-11
1.20193e-05
-5.43662e-09
-3.34074e-11
5.71289e-11
-3.83137e-12
-1.30931e-11
-4.20967e-05
1.98737e-11
5.74863e-11
4.90914e-11
2.47711e-11
-2.83089e-11
-5.09618e-12
-6.5736e-09
2.79042e-11
1.89601e-12
7.25756e-05
-1.09891e-10
3.0946e-10
0.000193632
-7.64145e-05
1.43212e-11
-2.57495e-11
2.91307e-05
0.000143316
-0.000225785
4.08008e-09
-3.52878e-11
6.46729e-12
-3.66461e-05
8.20494e-12
1.71609e-08
-1.97444e-11
-0.000264951
-1.728e-11
4.39015e-11
1.37511e-05
1.50636e-10
-2.36379e-10
-8.80594e-12
-2.5068e-10
9.97798e-10
-0.000165096
8.57194e-11
7.25269e-08
-1.04821e-05
-2.31534e-11
1.8159e-11
4.1413e-11
9.34567e-10
5.32493e-11
7.63204e-11
0.000160287
4.76133e-11
-1.87627e-10
2.43693e-10
1.17485e-07
5.82885e-08
-3.02429e-11
3.11405e-10
-0.000375211
2.16425e-11
1.88898e-08
3.58687e-09
6.05813e-10
-8.78995e-05
-4.49458e-10
7.81356e-05
4.27443e-07
-8.24837e-05
-4.57684e-10
-4.84592e-12
9.79145e-06
2.23575e-06
-4.71723e-05
0.000193253
-4.44085e-10
-0.000124067
1.66833e-07
3.14687e-11
0.000177786
0.000132583
6.58137e-11
1.19683e-11
2.84809e-09
8.98776e-06
1.2891e-10
0.000159508
-2.92109e-11
-2.43256e-11
4.61373e-11
-2.45403e-08
-1.29608e-09
-1.29014e-09
-5.18362e-11
-1.12387e-11
-2.82174e-05
4.2859e-09
-0.000173056
-1.01343e-07
8.44963e-11
8.41168e-11
1.61867e-11
-5.91336e-10
-2.58513e-10
6.23144e-10
-1.38115e-12
1.47991e-05
2.11705e-10
-2.22236e-10
-4.75231e-10
7.70682e-11
4.29339e-05
1.06996e-10
3.23398e-09
1.73414e-05
2.72888e-11
-2.98164e-11
0.000117333
3.67181e-08
5.83962e-11
5.02596e-06
1.07465e-10
8.4556e-13
1.21608e-10
4.60189e-09
-1.52047e-11
1.90552e-09
-1.39795e-07
7.58412e-11
-2.81553e-08
-0.000454318
3.3672e-08
-2.26144e-11
3.729e-11
2.13193e-07
9.25807e-11
-1.25395e-10
1.26263e-10
-3.26366e-11
5.54937e-12
3.53489e-11
1.57621e-12
-0.000216478
1.79118e-10
2.71045e-11
5.73753e-06
2.3351e-12
-1.00194e-10
1.67129e-12
0.00012585
1.68773e-05
-1.1682e-09
-1.25734e-05
-1.00778e-10
-5.5038e-09
-3.28646e-11
2.83321e-08
4.13096e-11
-6.51705e-10
-6.93418e-12
-8.06459e-11
0.000150515
1.23435e-11
4.62196e-12
-4.75383e-11
-0.000182844
0.000196449
-0.000152452
0.000270248
-0.000434438
6.80056e-10
4.24723e-09
7.44056e-05
8.74803e-05
2.16401e-11
-1.06515e-10
6.9981e-10
-2.19223e-11
-9.3325e-10
-1.30332e-10
2.24145e-11
-7.12504e-11
8.44519e-05
-4.16572e-05
-7.18986e-09
-1.13173e-10
5.04535e-11
-5.68666e-11
5.52063e-09
2.85613e-10
8.92015e-05
-2.4391e-11
8.41208e-09
-7.36672e-05
7.46637e-12
4.22848e-10
3.3441e-11
4.96555e-11
-5.60933e-12
2.90139e-12
8.15029e-13
-2.29612e-10
-1.5895e-11
-1.92879e-08
7.00263e-10
0.000140914
2.29914e-05
1.08227e-12
1.24394e-06
-3.93272e-10
-1.39229e-11
2.81737e-11
1.62456e-09
1.52486e-09
3.19798e-10
-8.35366e-05
-4.48633e-11
-7.10465e-05
4.17667e-09
-1.35662e-10
2.20318e-10
-0.000131834
-2.56902e-09
-1.67125e-13
1.54972e-05
-3.50683e-11
2.57917e-09
0.000105925
-0.000121069
4.35433e-07
2.67653e-09
-0.000150311
-4.05189e-05
1.71583e-11
-1.16417e-10
-2.84247e-08
-8.37005e-13
1.63171e-11
8.12991e-12
-0.000155375
-0.000105697
1.8872e-11
6.41492e-11
-0.000224947
-2.04839e-11
1.72557e-07
7.31252e-07
2.72196e-10
-1.2231e-10
4.14424e-05
8.14615e-05
-2.43592e-11
1.37265e-10
8.45337e-12
4.74624e-07
6.39586e-12
-1.07968e-10
1.71406e-11
-5.70046e-09
-1.40625e-10
4.90048e-11
5.15557e-06
7.06823e-05
1.39183e-09
-8.19913e-05
-1.4867e-11
2.56704e-10
7.94581e-11
0.00032809
9.59056e-08
0.000179262
3.78286e-11
3.95837e-05
4.37781e-11
6.61578e-11
1.51549e-11
-2.89607e-09
-2.94714e-11
4.33567e-05
0.000321262
2.29869e-07
-6.16062e-11
1.13563e-06
-6.71228e-12
-2.44134e-10
2.03859e-10
8.82317e-05
1.359e-10
-1.51193e-10
5.01788e-11
-3.25395e-05
0.000270633
8.81886e-12
2.60458e-10
-2.78491e-09
-3.67007e-12
9.39861e-11
-1.83158e-12
1.53128e-11
1.37169e-10
5.40641e-09
-2.67311e-09
2.48339e-10
1.96964e-10
-5.28673e-11
8.66745e-05
2.95128e-11
-4.10067e-07
0.000266264
2.86934e-10
1.3282e-10
-6.27155e-06
-2.68533e-10
0.00027312
0.000158571
1.24093e-10
1.13767e-10
3.36231e-11
-6.30882e-05
0.000143698
-1.7168e-11
8.50884e-09
7.59019e-05
-9.142e-12
0.000180615
1.05104e-11
7.54402e-06
0.00024798
-2.92368e-11
-0.000158231
-3.7956e-12
2.5662e-05
2.84787e-10
5.42672e-05
1.52842e-10
-0.000337868
2.803e-11
-2.1935e-11
-5.0475e-12
-8.16548e-08
1.85117e-09
1.44274e-11
1.5996e-11
1.14007e-11
-0.000124166
0.000140261
-1.32114e-10
-4.9329e-06
3.9397e-05
-8.3795e-11
-9.52041e-13
1.29898e-11
0.000157411
2.59169e-12
3.73206e-11
2.56532e-06
-2.16367e-05
4.18971e-07
-7.19017e-12
1.16718e-09
-5.31088e-10
0.000517045
4.82296e-11
5.16991e-07
9.14248e-11
1.06555e-10
-1.29153e-09
-0.000234208
-1.6958e-11
-0.000326822
-1.19126e-10
-2.38704e-10
-1.2159e-09
-7.22065e-12
3.90991e-11
5.24307e-12
-3.33207e-06
-0.000611351
1.41965e-07
7.51969e-09
-1.33409e-10
2.09575e-11
1.98719e-10
0.000489063
-7.07096e-10
-0.000391979
2.40703e-11
-0.000617591
7.67917e-11
5.9817e-11
4.74692e-09
-3.61562e-05
-4.53785e-09
9.25029e-12
-1.44083e-09
-0.000289651
-2.61377e-05
1.94186e-11
3.48004e-11
4.95032e-11
1.81784e-10
-2.43179e-11
-9.27657e-05
3.23375e-08
-6.72633e-12
1.11239e-05
4.59594e-05
0.000547243
1.86359e-05
5.6269e-10
-0.000220885
-1.82958e-10
-2.78456e-11
5.72852e-05
3.22861e-05
3.51079e-08
2.23576e-10
6.47554e-11
4.96469e-11
-1.99913e-10
-2.20261e-09
-4.36584e-09
1.39846e-11
3.32836e-10
3.38629e-08
2.22801e-10
3.66148e-10
4.49355e-11
1.0165e-05
-2.34969e-10
2.7966e-05
1.68215e-10
-9.48634e-10
-4.59349e-08
-3.79202e-11
1.06868e-10
0.000145994
8.62091e-11
3.8477e-05
1.26711e-05
-9.27431e-05
4.24751e-10
-5.647e-10
4.54029e-06
3.04064e-11
-4.08191e-11
3.70381e-09
8.13046e-10
1.72887e-11
0.000134801
-5.38105e-06
1.17444e-10
-2.24854e-09
6.71929e-11
6.29563e-10
8.95276e-12
2.11397e-09
5.03905e-10
1.54468e-05
4.29612e-10
5.46908e-06
-1.60441e-10
6.46944e-06
4.11421e-11
9.20648e-10
-0.000138296
-6.54107e-11
-2.15407e-05
2.61346e-11
-3.14551e-08
-2.55253e-09
-8.10518e-11
-7.47637e-11
2.65991e-05
-2.92884e-12
9.81065e-11
5.41964e-11
1.92447e-10
0.000107523
5.09608e-08
2.14043e-12
0.000193
0.000144261
-2.31598e-10
0.000176799
3.01088e-12
2.48953e-11
1.62975e-09
2.90096e-10
-1.76606e-10
-5.01214e-05
-2.43257e-11
3.06726e-08
-2.38068e-10
0.000190599
-0.000192793
2.46484e-11
1.24831e-11
4.25133e-11
0.000282094
-3.8171e-10
3.4656e-05
3.5997e-11
1.22103e-11
-2.82029e-11
-4.12404e-12
5.98992e-12
-7.82852e-12
1.16223e-09
-2.03911e-08
6.38505e-05
2.16264e-11
-5.19689e-11
-0.000550921
-4.81162e-11
2.84704e-11
0.000244327
2.14315e-09
-2.70509e-10
-5.72156e-11
-1.18014e-11
4.10174e-06
1.2044e-10
0.000116888
6.56375e-10
1.74946e-10
-8.05601e-11
8.45256e-06
-1.69607e-10
0.000111366
6.90548e-05
3.84008e-05
-1.26277e-08
-1.33036e-10
1.47724e-09
0.000161721
-6.47997e-12
1.70447e-09
3.68945e-11
-1.0505e-09
-5.62359e-08
0.000158043
2.06787e-11
-1.12273e-05
-5.07515e-11
-0.000447347
-4.08052e-11
-8.09817e-11
1.89118e-09
-4.94355e-08
-4.394e-06
0.000182218
9.15781e-12
-0.000226424
-3.164e-11
1.08036e-06
-1.31286e-10
4.80155e-09
-2.35665e-10
1.83449e-10
-1.89272e-10
3.49812e-10
-6.03219e-11
1.71594e-09
2.14409e-11
1.04445e-10
1.1885e-11
-1.3057e-10
-1.42325e-09
-1.00357e-11
-2.29924e-11
-6.7875e-05
5.0233e-11
5.649e-05
-4.14438e-14
1.79919e-10
2.01888e-11
-8.70099e-09
2.93094e-12
-2.9206e-05
-5.25884e-10
0.000433927
-1.41784e-08
-8.13029e-12
2.96917e-11
-2.0037e-11
9.89601e-11
-5.54716e-11
-7.77257e-11
-3.19296e-10
3.3538e-05
-1.54471e-11
-1.41164e-05
9.21125e-05
4.62324e-08
1.09885e-12
-2.25025e-11
0.000123795
0.000643395
0.000467881
7.02085e-05
7.38731e-05
4.64431e-05
0.00019354
-3.48815e-10
-2.16073e-05
-5.03511e-11
2.8532e-10
1.00734e-11
-1.45248e-07
1.36466e-11
5.69002e-10
1.8411e-09
-8.79159e-11
0.000305067
2.19351e-11
3.47471e-07
7.81311e-10
0.000409801
-6.2304e-08
1.76854e-08
1.6906e-07
-1.36445e-09
-9.89246e-11
8.10912e-11
5.26533e-10
3.12479e-05
0.000109357
7.36428e-11
-2.12631e-11
-0.000275689
1.36173e-09
0.000105018
-6.6369e-12
2.87694e-08
-1.6542e-10
0.000117934
1.5429e-10
2.34752e-11
9.57992e-12
7.17059e-12
5.98756e-11
-3.98591e-11
-3.64261e-10
-9.10293e-06
2.76511e-05
3.07719e-11
-5.56448e-06
3.64437e-10
4.57139e-06
-1.50554e-06
-8.59571e-05
8.873e-13
-6.99196e-10
-0.000193261
-2.33857e-12
0.000488027
1.86124e-09
9.59543e-11
-3.87569e-10
5.71504e-11
-0.000193867
1.22254e-10
-1.96715e-11
-4.11998e-08
8.21786e-10
2.87887e-10
8.72883e-11
-0.000359984
2.66878e-12
-1.46404e-10
1.53712e-10
-2.56367e-11
2.09547e-11
8.24765e-11
-5.94428e-11
-2.30512e-10
-0.000986532
1.65353e-10
6.51998e-11
-3.68518e-11
-2.25511e-11
-1.32078e-10
5.84382e-09
9.88527e-10
3.18348e-05
1.40707e-10
2.84599e-10
7.61467e-06
5.87895e-11
-1.12464e-05
1.53593e-09
-8.48976e-11
7.65604e-11
0.000113232
-3.19107e-11
-1.61355e-10
6.29668e-11
1.09525e-12
-1.13417e-10
1.0334e-10
-0.00021364
-2.41459e-10
4.8367e-10
-1.2951e-10
0.000440534
-1.09324e-08
-2.54855e-09
-5.58985e-13
8.23601e-05
2.73606e-10
0.00014704
5.18173e-11
1.03328e-10
-0.00101144
-8.35357e-11
0.000679666
7.3339e-10
9.22916e-06
6.10854e-11
-4.19859e-12
-1.06888e-11
-1.75404e-10
6.22792e-11
3.14531e-10
1.87903e-05
-0.000325365
7.06927e-11
1.13855e-06
0.000124244
-0.000515969
1.74261e-05
-2.86872e-10
-1.47998e-07
1.0848e-11
1.49242e-05
1.70416e-10
-1.76269e-08
7.85892e-10
0.000468905
1.33923e-11
-1.57968e-10
3.03731e-11
-5.78221e-11
4.84733e-05
5.98334e-10
2.17085e-05
6.39586e-12
1.18689e-09
0.000278207
1.84623e-10
-1.60869e-11
-6.21604e-11
-0.000431397
-0.000989217
0.000556199
7.28005e-09
2.44041e-11
0.000340203
1.09335e-11
-3.1752e-08
-4.93596e-08
-3.44676e-08
2.15831e-09
2.70932e-09
3.21565e-06
1.92552e-05
6.03565e-11
2.94423e-09
3.10803e-05
-0.000124548
1.77154e-05
-0.000350547
3.0841e-05
-5.62073e-09
1.31853e-07
0.000215711
1.35854e-10
1.80444e-10
6.07988e-12
2.86256e-05
-0.000177612
-0.000100183
-2.14451e-10
1.48304e-07
1.63769e-11
-9.09589e-11
-3.98291e-11
-2.22591e-10
1.34289e-11
2.48493e-08
-2.78585e-11
0.000233903
-6.81703e-11
1.18688e-12
-1.32777e-10
-1.22304e-05
1.10713e-05
-2.26214e-10
0.000249223
-3.37074e-11
5.13526e-05
2.43694e-11
-1.48229e-08
1.22034e-10
3.90425e-11
-3.06206e-11
1.2443e-10
0.000225194
1.4594e-12
2.81696e-10
3.8195e-05
2.96537e-05
1.74683e-09
2.63018e-10
-9.50392e-11
-0.000207195
1.12e-11
2.04107e-10
-0.000322154
-6.71922e-11
1.75616e-05
-2.26706e-11
4.56923e-10
-1.56954e-09
-0.000534374
-2.03041e-10
-1.36375e-10
8.80759e-09
-0.000411647
4.15935e-10
-3.18015e-11
2.57856e-11
1.93171e-10
0.000162964
2.84997e-12
3.60317e-05
3.32706e-11
-2.36113e-08
-2.41353e-07
3.10076e-10
-7.53319e-11
3.89679e-12
3.23315e-11
-1.49608e-09
0.000248454
3.59216e-05
4.53142e-09
-2.74042e-09
-7.84764e-11
-2.93381e-10
6.45703e-11
7.6941e-11
-9.11133e-09
-1.3352e-11
-7.8627e-06
1.62892e-10
6.31322e-12
1.43906e-07
6.45315e-12
6.66632e-11
1.75203e-07
1.10838e-11
8.22932e-10
-6.37868e-11
3.83809e-11
1.87875e-08
-5.11271e-11
1.42478e-10
-3.3054e-08
2.29599e-11
-1.0383e-06
4.3918e-05
-0.000342536
3.84567e-11
4.96438e-05
-1.92045e-10
6.15471e-11
-7.97632e-08
-2.4269e-05
1.12674e-09
1.62065e-09
9.84969e-12
1.29177e-10
1.24114e-10
-8.84572e-12
6.16153e-11
-6.65095e-11
1.19866e-11
1.39207e-08
-0.000994544
-4.50564e-10
4.24605e-11
3.38866e-10
6.48528e-07
-6.49959e-11
0.000254934
-1.59171e-10
5.22563e-09
-2.1939e-10
-4.47489e-11
-1.4756e-08
-2.87395e-07
-1.83303e-10
3.03875e-11
1.93632e-11
1.73846e-10
0.000123841
3.55936e-11
-8.96077e-11
-2.16727e-10
3.25584e-10
-1.19943e-08
2.51035e-11
-3.40517e-12
1.98766e-10
-3.38248e-12
3.97376e-05
-5.46028e-09
-1.53511e-11
-1.76238e-05
6.37457e-11
-1.31966e-08
-3.13682e-10
7.28348e-11
4.93317e-11
-0.000127965
1.53775e-11
-1.23893e-11
-8.89175e-10
-1.94658e-10
1.94121e-06
3.00873e-11
7.19695e-10
-3.57218e-11
5.30342e-11
1.4012e-10
3.39115e-05
-0.000974116
1.92286e-11
0.000552126
-2.59703e-11
2.53098e-09
0.000600109
1.26792e-06
3.74317e-06
8.8375e-05
-3.17832e-06
3.40253e-12
-6.96264e-05
-9.80411e-05
-7.60299e-05
-3.36032e-11
1.21509e-05
2.44083e-06
9.71532e-12
4.27599e-10
-5.61334e-06
-1.23084e-11
-2.90907e-05
1.60009e-10
0.00033631
5.7846e-05
0.000575371
6.44712e-11
-1.47693e-08
-6.40081e-09
3.576e-11
-0.000432918
1.05131e-10
-6.83285e-11
-6.2533e-10
2.14975e-11
-4.01643e-07
-5.62397e-05
-6.96544e-10
6.03014e-11
1.80252e-10
-0.00016921
2.81968e-05
3.7055e-09
4.56458e-11
5.02172e-05
-1.38902e-10
2.2613e-12
2.63359e-10
4.09524e-10
6.86538e-12
2.35508e-11
0.000172246
0.000758572
1.10352e-11
1.32036e-09
4.1107e-05
5.65213e-05
3.79309e-11
4.21837e-11
3.12138e-10
-0.000103154
3.51379e-10
-0.000260175
2.67866e-10
3.83779e-05
7.60718e-11
3.80639e-11
-2.05271e-11
4.65184e-10
5.27189e-10
2.73732e-11
1.66484e-11
-8.03157e-11
-3.29605e-05
-6.23512e-07
-1.89884e-12
-2.16409e-11
2.11294e-11
3.08456e-10
4.85751e-05
1.41403e-11
-2.59955e-10
-0.000601202
-2.0229e-10
-1.85306e-05
-5.59598e-05
1.2451e-10
-0.000194793
0.000129121
0.00028735
-1.0707e-07
-3.72239e-05
1.19304e-10
-5.57402e-11
7.86613e-11
-4.59013e-11
1.99031e-06
-3.69515e-10
5.79079e-11
2.15656e-11
7.10861e-11
-1.18976e-09
-8.88238e-11
-7.81143e-06
-4.7569e-10
4.24057e-10
1.88606e-11
2.4928e-11
-1.54377e-10
1.15685e-09
-1.77173e-10
-1.53969e-11
-4.95965e-11
3.48157e-11
1.33937e-06
-3.37569e-10
-5.09161e-11
6.58245e-11
6.24405e-10
3.70334e-11
4.63733e-05
0.000211058
5.29902e-09
-2.69636e-11
2.98085e-11
1.22573e-08
-1.26988e-05
0.000149661
-1.73075e-09
3.92236e-10
0.000358245
-3.0209e-09
-1.65362e-11
-3.24846e-10
-1.48818e-06
-2.03117e-12
0.000444965
1.18397e-11
8.27772e-10
-2.02203e-09
5.5501e-11
3.45699e-12
-5.48547e-12
-6.19773e-06
5.94377e-06
2.91921e-05
-5.33836e-11
0.000142507
3.59209e-10
-4.89674e-12
7.71287e-12
1.65934e-06
-5.48358e-11
0.000203979
4.2236e-10
1.303e-06
-1.40704e-09
4.24698e-09
1.27685e-09
-1.82399e-11
0.00054602
-9.02596e-11
1.14955e-05
0.000124649
-3.31601e-11
1.33644e-07
-6.66214e-09
6.77678e-05
7.23971e-05
1.02985e-10
-0.000250906
4.16478e-12
2.26576e-05
-3.70129e-11
0.000470405
0.000150794
4.85645e-12
-1.01983e-10
-3.67635e-05
8.09229e-09
-5.87595e-06
8.07432e-06
4.11547e-12
-1.70139e-12
-1.11011e-09
7.26392e-11
2.40716e-10
-0.000773733
1.11289e-10
-1.03613e-05
-8.50856e-11
4.36949e-09
2.24202e-12
-1.38732e-09
-1.64941e-11
7.87092e-06
2.1369e-11
-8.63749e-10
-5.38661e-11
-1.70409e-11
-7.09076e-11
-8.1091e-12
-3.67991e-11
-4.61479e-10
0.000488009
-7.156e-12
6.09278e-13
-1.2318e-05
-2.13386e-10
3.36112e-09
-5.98843e-06
-4.03937e-06
4.19334e-10
9.24631e-12
-2.48456e-09
4.4256e-05
-1.38981e-10
7.77448e-10
4.41156e-09
-0.000836079
4.05991e-13
2.49202e-05
-5.58448e-11
0.0003838
-1.43454e-10
-4.92415e-11
-5.82625e-10
1.33527e-10
-0.000678287
5.52527e-05
-3.87873e-06
3.49636e-10
-4.38813e-05
2.16708e-05
2.64402e-05
3.59552e-11
-4.0027e-11
1.1534e-10
1.64501e-11
-7.70429e-12
9.03537e-12
-7.80024e-12
-2.58681e-10
4.53359e-11
1.39229e-11
-8.42131e-11
-2.03028e-11
8.79308e-11
4.73389e-10
-2.52914e-11
-7.21898e-06
4.73545e-11
-1.51612e-11
-0.00029438
-2.69365e-10
-0.000273341
1.82886e-05
4.68693e-09
2.14308e-05
4.14371e-11
7.77067e-05
-1.00149e-11
0.000106562
-6.14672e-11
9.10186e-05
-2.57868e-09
-2.61504e-05
-2.4583e-11
-1.19666e-11
-3.34561e-05
-2.00206e-09
-6.04529e-10
5.8749e-11
1.11057e-10
-0.000181407
-9.53154e-10
5.81209e-10
1.22701e-11
9.09951e-11
-6.78601e-06
-2.34698e-10
-3.93843e-11
6.36807e-08
-7.89802e-05
0.000167173
-8.26051e-11
-3.92194e-12
-7.18943e-11
7.50328e-13
1.14068e-09
0.000286662
-1.49353e-05
-3.46219e-12
2.922e-12
-0.000221488
-1.2445e-10
-5.37825e-11
3.8702e-11
-1.65822e-10
1.56441e-11
2.81093e-11
9.06094e-11
-2.27189e-11
-4.06189e-10
-9.23772e-11
0.000125321
5.11041e-05
-1.22168e-09
3.82156e-10
1.56456e-10
3.96594e-05
-1.11249e-08
5.74357e-10
-2.78411e-10
8.82559e-09
2.02151e-08
2.08841e-11
-4.37576e-11
1.34529e-12
2.33529e-08
5.40855e-10
-2.00712e-05
9.50265e-05
4.2008e-05
4.6945e-11
3.95518e-09
0.000108222
0.000532205
0.000115131
-9.99013e-05
2.58486e-10
-6.82029e-05
2.86974e-10
-1.99735e-09
4.75645e-11
-0.000418745
9.55559e-11
-7.24504e-10
-4.01684e-10
-5.68354e-05
4.36301e-11
0.000287915
6.10861e-05
6.44778e-11
-1.53636e-11
1.77529e-10
1.87649e-09
-1.00466e-10
-5.59526e-10
0.000172954
-3.72475e-13
-1.04759e-10
-1.86227e-10
-0.0002652
4.73821e-11
-5.07774e-11
-1.42899e-11
5.96823e-11
-9.20469e-11
4.3165e-05
2.65105e-10
-1.2904e-10
1.6663e-08
0.000626936
7.15483e-12
6.24692e-05
4.22073e-12
1.65557e-10
2.90468e-05
-1.38679e-11
-1.56776e-11
-7.81957e-11
-1.19433e-10
1.72647e-10
-4.53125e-11
-1.34579e-09
0.00011764
-9.26118e-11
7.44919e-12
-2.16613e-09
-4.62567e-06
1.27154e-11
-6.64717e-10
-1.04048e-11
-0.000294496
-5.68779e-11
-2.69564e-10
-1.35387e-05
-7.46506e-11
1.95016e-11
2.77171e-11
-0.000298018
4.04346e-05
3.58442e-11
-0.000465657
1.3531e-11
5.58598e-11
-2.40254e-05
-2.30357e-12
4.78358e-10
-8.17488e-11
1.88906e-10
2.76749e-09
1.41203e-09
1.06752e-10
-1.74233e-12
4.31558e-11
1.15139e-08
3.51627e-05
-6.62768e-11
-8.88119e-10
9.20498e-11
-0.000607162
-4.314e-09
-2.41041e-06
-8.66235e-05
4.6448e-10
4.14922e-11
5.11108e-09
-9.84647e-10
-1.13315e-06
3.54413e-11
8.4498e-11
-1.50289e-10
-3.50436e-12
-6.31415e-12
-1.17188e-10
0.000148203
1.83257e-11
-0.000579665
3.68708e-11
0.000263637
2.88807e-11
1.96471e-10
8.36322e-07
-6.48446e-06
9.54195e-05
-6.44581e-11
-1.25501e-11
-6.32771e-09
5.33577e-12
3.44589e-12
3.88562e-05
3.72637e-05
2.64822e-10
3.12316e-10
-0.000336454
6.09117e-05
6.86016e-05
-1.34639e-10
4.48723e-11
-7.93193e-11
-1.06702e-10
-0.000287778
-1.19103e-09
-1.44931e-11
-2.28575e-06
-0.000271383
0.000135872
1.50947e-10
-3.8995e-11
-7.48291e-09
-7.19719e-05
1.33163e-05
4.71503e-05
3.40071e-11
3.58887e-10
4.17786e-10
-0.000606066
-0.000315336
-9.27913e-06
-9.84808e-11
-9.91968e-05
3.63819e-12
1.42275e-11
4.70501e-10
-0.000498556
-3.7916e-13
-6.9743e-11
-8.41009e-06
-4.82795e-10
2.12266e-10
-3.37818e-11
-4.875e-11
2.47081e-10
4.58924e-05
3.00657e-07
3.40027e-11
1.75012e-10
-1.48415e-10
2.78528e-09
-2.87115e-09
-1.1914e-09
8.39312e-05
-1.33065e-11
-2.04827e-05
0.00056187
-0.000448354
5.97216e-12
3.44423e-10
2.98224e-05
-0.00114913
-1.71949e-11
-1.66588e-05
2.97488e-05
8.19708e-11
-0.000166174
-2.56938e-10
4.16585e-10
-5.24741e-11
-4.8349e-11
-1.60006e-05
5.12992e-08
5.60283e-12
-1.98606e-11
1.15736e-06
-0.000251179
-9.63344e-11
-1.28415e-10
-0.000110942
-2.43404e-05
1.81569e-11
-3.76852e-05
-3.32391e-06
2.28413e-11
6.52765e-11
1.32645e-10
-3.22009e-08
4.73877e-11
7.25597e-10
6.48019e-06
-1.51577e-11
-5.9642e-09
0.000193642
-2.06804e-08
-9.55304e-05
3.43914e-11
-2.85374e-10
-0.000479415
-0.000174025
-3.19367e-10
-6.13206e-12
-5.23173e-06
5.09706e-05
2.10649e-11
2.18396e-11
1.08188e-05
-4.9996e-09
-1.72365e-09
-6.76143e-11
-2.68813e-06
-4.87493e-11
1.11078e-11
-9.79177e-07
1.95547e-07
-4.12815e-09
-1.36647e-05
-3.55071e-08
8.15611e-11
1.27905e-11
1.47193e-08
-1.85006e-11
-1.29333e-08
0.000104601
4.78374e-06
-2.94317e-11
2.54502e-11
1.12497e-06
1.45128e-09
3.03048e-11
3.62623e-07
-7.09319e-11
-1.78824e-10
-7.33346e-06
4.77664e-10
2.46261e-12
-2.3013e-09
-1.76486e-10
-1.23745e-10
0.000143131
3.24459e-05
8.34728e-07
4.4821e-09
-9.63954e-05
4.56341e-09
-7.03574e-05
-5.30984e-11
-2.51178e-10
6.82739e-09
-1.15007e-07
-0.000224022
-1.10562e-10
4.1711e-11
-1.19447e-07
7.25152e-11
6.69937e-07
3.10691e-09
-1.19955e-10
1.55518e-12
1.78007e-10
-1.43927e-08
4.18743e-12
-2.4719e-10
1.18664e-10
2.67151e-11
-1.57818e-05
3.22666e-10
-5.53887e-09
4.38193e-11
7.06281e-08
-2.06717e-07
-1.13446e-10
9.32105e-09
-4.23738e-11
-6.96878e-09
3.03108e-05
1.73123e-09
-5.09287e-11
4.4408e-11
5.58783e-05
-2.6905e-11
-1.07797e-10
3.00973e-05
9.94147e-11
-7.24953e-11
4.65749e-05
-1.91272e-10
8.34414e-12
-0.000551411
-4.69491e-07
-7.80969e-11
1.91259e-05
-0.000139664
5.404e-12
-2.60041e-10
3.34801e-05
1.27338e-10
-3.90592e-10
4.8297e-11
1.28094e-11
0.000380656
-1.47842e-09
1.90039e-09
3.51772e-11
1.62406e-10
-1.10045e-10
3.19782e-11
0.000152205
-1.61651e-10
5.4695e-05
-2.23224e-09
4.24655e-12
8.84748e-11
9.68213e-05
1.04267e-07
2.51247e-10
2.77178e-10
0.000130543
-5.25023e-10
9.34904e-05
0.000107932
3.0529e-10
5.36043e-06
5.5785e-05
-6.85268e-08
-2.89892e-10
3.57086e-10
1.39492e-07
4.91045e-11
-8.80838e-05
-4.9784e-10
4.2897e-12
-0.000181262
2.74515e-08
1.02519e-09
-1.85284e-10
-0.000399421
-0.000627083
-4.30106e-11
4.65141e-11
5.26813e-10
-4.18142e-10
-4.86267e-12
1.59703e-11
0.000109028
-0.000220951
1.01762e-05
0.000156001
3.35644e-09
3.12902e-11
-4.11844e-09
-2.12698e-11
-1.11822e-11
6.29165e-05
1.69524e-10
-2.85466e-10
2.45389e-10
-9.28534e-11
1.72006e-05
-1.10203e-10
1.722e-05
1.84948e-05
4.83218e-10
1.24543e-08
-1.15264e-06
-4.57969e-11
2.94141e-11
-0.000125476
-4.46641e-11
2.6181e-09
-0.00020013
-2.95096e-09
1.59604e-05
2.0847e-10
-0.000113035
-0.000705752
5.64447e-05
-6.38419e-05
2.69019e-11
0.000100605
3.93616e-05
-4.20663e-08
-0.000424784
2.34313e-11
-8.9315e-05
-2.08991e-05
2.2802e-06
0.000101218
-8.47028e-11
-0.000119892
-0.000111423
6.93084e-05
-3.84617e-05
4.8663e-05
-1.76246e-05
4.43976e-06
-4.65249e-10
1.8833e-11
0.000116686
-2.23691e-12
-1.02973e-10
-3.60533e-11
0.000148281
1.52839e-09
6.26593e-11
-2.79964e-05
9.88218e-11
-0.000121813
-0.000133236
2.42433e-10
-2.77932e-11
3.17368e-11
0.000127559
2.53158e-05
5.62071e-12
-1.10569e-10
-1.32422e-08
5.66223e-09
1.16081e-10
-5.04238e-11
7.23594e-11
-4.4595e-12
-2.11719e-11
0.000403303
-2.5831e-11
5.35179e-06
4.20812e-05
-5.60951e-11
9.12327e-06
2.35997e-11
-1.1177e-10
2.86964e-11
-2.98723e-12
2.58135e-09
1.42953e-11
1.56038e-10
-5.09217e-05
1.11079e-10
3.64925e-11
-7.09155e-11
3.97696e-11
8.14683e-09
1.77928e-10
6.38336e-12
1.24498e-11
7.63671e-11
4.98443e-10
-1.32282e-11
2.77783e-11
1.87006e-09
-1.65048e-05
-2.21717e-09
3.34357e-11
2.56193e-10
-5.21537e-11
-1.79224e-05
-1.04014e-10
-2.45108e-05
9.18968e-11
-4.48517e-08
-3.07691e-11
2.42224e-11
-5.53052e-12
4.18228e-10
6.89046e-05
2.29549e-05
-0.000342839
-1.57619e-10
-0.000977417
4.4765e-09
7.11599e-05
-3.59278e-11
9.53415e-06
-2.18293e-05
8.74345e-12
0.00010435
-1.45806e-05
8.30388e-05
-2.73625e-09
4.5149e-10
6.07141e-10
4.99388e-09
-7.84859e-11
8.37208e-06
0.000111174
6.55862e-11
-0.000138846
1.68349e-11
6.58971e-10
0.00010526
9.54011e-11
-1.39611e-10
3.75913e-05
0.000352665
1.60925e-08
-3.07205e-10
1.65433e-11
-0.000423036
2.17363e-11
1.83699e-05
-8.14755e-10
3.9937e-11
4.91571e-11
1.78072e-10
-0.00100343
1.80448e-05
1.58499e-10
3.03434e-06
4.28676e-11
-0.000150991
-2.34352e-05
2.93121e-09
0.000178016
-2.10947e-10
0.000152722
1.19638e-10
-8.64824e-11
-6.77285e-11
2.88986e-09
-1.59308e-05
-2.86126e-10
-7.63949e-11
8.55028e-11
0.000137638
2.3941e-06
0.000347051
2.87549e-06
-5.12875e-11
1.45691e-11
0.000134112
0.0001394
-1.01092e-10
5.62472e-08
-3.0363e-06
2.31856e-08
0.000137694
4.30153e-05
4.66445e-10
-1.16913e-09
1.26685e-09
-8.53577e-06
2.38411e-05
3.78388e-10
-7.29388e-11
6.94086e-11
-4.68142e-06
2.16099e-10
5.66384e-11
-5.50155e-05
0.000194836
1.23434e-10
2.5902e-10
1.03817e-08
1.2188e-05
3.19277e-11
-4.44415e-11
-4.31868e-12
-9.56017e-06
-4.26147e-10
-2.11139e-11
3.19103e-11
1.06566e-05
7.28007e-05
-7.48122e-09
0.000361075
-1.43487e-10
-2.31412e-11
-5.04112e-09
0.000110532
1.96749e-09
-1.0323e-09
-1.21739e-06
-8.66884e-06
-2.64228e-11
7.22107e-10
6.22271e-11
6.11797e-08
4.12027e-09
-8.26956e-05
-6.3963e-11
1.02234e-10
-2.06156e-09
7.82653e-06
-1.87861e-07
-3.02231e-05
3.19983e-07
6.14453e-09
-1.12284e-07
-1.68032e-10
7.47755e-05
1.68474e-10
7.29022e-11
4.44334e-05
7.73608e-10
-7.41574e-07
9.42961e-12
-7.88266e-11
7.36939e-12
4.59685e-06
3.57214e-05
-5.26725e-09
-6.60045e-06
1.69076e-11
-6.62889e-06
1.13951e-10
2.70602e-06
-2.77725e-10
-4.2907e-11
-1.67744e-11
-3.7072e-10
-2.6281e-05
-5.19921e-10
-1.11941e-10
-6.63286e-06
1.9261e-05
9.04942e-05
-4.6662e-11
-1.10873e-10
-1.59554e-10
2.63959e-09
2.11419e-08
-5.14153e-10
2.44862e-11
1.62087e-06
0.000118934
8.63853e-06
1.49123e-05
5.382e-10
-0.000173292
2.87729e-06
-1.65642e-11
6.11247e-12
-2.92831e-06
-3.17728e-09
3.70202e-05
-4.35733e-12
-0.00023726
-5.14088e-11
-5.70145e-11
-4.94783e-07
-0.000321218
-4.40295e-11
0.000142391
1.45643e-10
-1.5539e-10
-3.16737e-05
8.14948e-11
-5.63732e-10
7.9198e-12
1.32748e-10
1.76912e-09
5.82433e-07
5.07201e-05
-1.34823e-10
5.2347e-11
3.25619e-05
-6.60279e-07
8.66429e-08
-4.17939e-10
-0.000228309
-4.02576e-11
9.93638e-11
4.66536e-05
-1.84492e-05
1.23539e-10
-0.00012641
-1.53028e-05
4.89817e-10
-2.93953e-06
1.62347e-09
6.33577e-12
-1.72256e-08
2.39642e-08
0.000115313
-5.80822e-10
-2.71123e-11
2.40717e-07
5.73112e-12
-1.3283e-11
1.2652e-11
-7.38462e-10
-0.000348431
3.97975e-10
7.42701e-09
1.56354e-10
0.000134506
3.61465e-11
-9.85764e-09
-0.000256072
-1.3022e-10
0.000118711
-7.12509e-06
-0.000116424
1.57589e-05
1.31474e-10
3.17466e-10
-7.22279e-09
4.03473e-08
4.70081e-11
6.83419e-12
1.12424e-07
-4.52111e-05
5.87047e-05
4.9916e-12
-1.95386e-10
0.000149448
-4.77449e-11
-0.000244247
8.77874e-11
1.52035e-11
1.36507e-10
3.49616e-11
-3.44782e-05
3.96799e-11
8.18288e-11
5.18699e-11
2.42098e-09
-1.61406e-11
-1.46945e-08
-1.41108e-11
-2.8892e-10
2.02975e-05
1.5042e-06
4.79839e-10
4.35278e-11
5.85914e-11
2.22968e-10
5.07708e-10
2.87969e-05
1.56876e-11
2.09746e-05
-5.49596e-12
-5.4115e-05
-2.65288e-11
-8.17628e-11
-5.75329e-11
6.91867e-10
1.2365e-08
-4.82029e-11
2.74903e-09
-1.2591e-10
3.27708e-10
1.91309e-10
-6.49683e-11
-5.93659e-11
4.89128e-10
-0.000226758
7.83449e-05
0.000110162
8.05378e-05
2.01515e-10
-1.93029e-09
-5.37955e-11
-0.000317235
-5.32291e-05
1.68624e-10
-4.08124e-05
6.35497e-08
1.07987e-05
1.62676e-05
-8.5465e-12
1.49794e-07
1.04143e-10
-3.35158e-10
6.35797e-05
3.61291e-11
-1.16249e-10
-0.000110278
0.000129149
1.54509e-10
-1.62352e-10
3.46153e-10
-2.57305e-10
3.41798e-06
-1.68223e-08
3.63204e-11
8.61099e-05
9.90245e-05
-4.55856e-06
2.50103e-07
0.00033046
-6.80529e-10
7.50829e-05
0.000369534
0.000255508
1.61164e-10
6.71377e-06
1.53305e-10
-4.31724e-10
7.65572e-05
-7.26386e-09
0.000192838
-6.45342e-12
-0.000100752
-5.26842e-05
6.45271e-11
1.11215e-11
1.68303e-10
2.47552e-09
2.28926e-10
-4.09443e-08
3.89935e-05
0.000149779
4.40294e-05
0.000149034
-7.06901e-12
-7.29701e-10
2.57604e-06
-5.53925e-05
-3.35861e-11
3.5593e-10
1.1474e-09
-1.49003e-09
1.09106e-11
-6.26884e-11
-1.29867e-05
1.07846e-05
-7.06708e-05
1.70592e-11
-0.00018768
1.07509e-12
2.38262e-11
-1.73961e-11
0.000151807
6.94594e-08
1.02791e-08
-1.04575e-11
7.72472e-05
1.83019e-11
6.78659e-11
0.000368357
1.93567e-05
7.86686e-11
-7.82731e-11
1.92608e-11
9.25974e-11
7.56909e-10
-2.44015e-10
6.85459e-11
-8.10362e-05
-5.39043e-10
-4.69069e-11
-4.45376e-12
-6.24223e-10
7.3472e-11
-7.95933e-05
-0.000250493
9.45778e-10
0.000351121
3.02027e-05
0.000145843
3.14334e-05
-2.60932e-10
1.92253e-07
-1.28676e-13
1.5656e-10
2.10426e-05
6.57929e-05
-4.38873e-10
4.43926e-06
-1.0621e-05
1.5057e-05
1.88604e-05
1.66447e-05
4.09814e-05
-6.45092e-11
3.90908e-05
-2.59439e-10
0.000123575
2.08768e-11
1.46098e-10
1.92975e-09
2.88061e-06
1.33519e-11
-6.67165e-11
1.22414e-09
-2.68202e-10
5.34626e-05
-1.63959e-10
-1.67051e-05
7.54519e-11
-1.65531e-11
0.000133939
3.83182e-10
2.04976e-05
-1.28042e-11
1.5221e-11
-1.08197e-05
7.88566e-11
4.84923e-05
-1.76071e-11
-5.15604e-05
6.11387e-05
0.000125616
-1.76097e-11
1.31744e-05
-1.28374e-10
4.81833e-10
1.92426e-11
6.77064e-11
-7.14755e-05
-7.09169e-07
2.50584e-05
-8.8306e-10
-6.78205e-10
-7.61326e-11
2.43748e-06
0.000186422
8.91727e-05
-0.000436186
2.30248e-10
0.000342323
0.000195379
-1.45142e-10
0.0009295
1.66625e-10
-1.07202e-07
1.16406e-10
3.76519e-11
0.000214093
-1.44721e-10
1.10946e-09
2.61903e-10
0.000289202
-1.90294e-12
3.96423e-10
-6.71217e-12
-3.06029e-11
-1.13646e-11
0.000233127
2.27624e-05
-3.37057e-09
-1.5444e-07
3.32667e-09
4.01726e-06
-1.82137e-10
4.55694e-09
-1.10279e-05
0.000105686
4.21897e-11
-4.86316e-11
9.39594e-05
-5.59746e-11
-0.00024837
1.49141e-11
1.79411e-10
-1.35334e-10
2.15446e-06
0.000129961
-6.98928e-11
0.000107828
1.17737e-05
-1.6359e-10