/*--------------------------------*- C++ -*----------------------------------*\
| =========                 |                                                 |
| \\      /  F ield         | OpenFOAM: The Open Source CFD Toolbox           |
|  \\    /   O peration     | Version:  v2012                                 |
|   \\  /    A nd           | Website:  www.openfoam.com                      |
|    \\/     M anipulation  |                                                 |
\*---------------------------------------------------------------------------*/
FoamFile
{
    version     2.0;
    format      ascii;
    class       volVectorField;
    location    "300";
    object      ddtCorrDdt0(U);
}
// * * * * * * * * * * * * * * * * * * * * * * * * * * * * * * * * * * * * * //

dimensions      [0 1 -2 0 0 0 0];


internalField   nonuniform List<vector> 
18618
(
(0.0148246 -0.0160919 -1.46617e-22)
(0.00151915 -0.0133875 -1.24426e-22)
(-5.18079e-06 3.60976e-06 0)
(-0.00119837 -0.0702532 3.21288e-21)
(2.52783e-05 -1.62264e-05 -1.93416e-21)
(0.00813531 0.0102092 2.32811e-22)
(6.06633e-05 2.92376e-05 8.78221e-22)
(0.000261256 -0.01199 6.2831e-22)
(-0.00141027 4.68054e-06 2.93398e-22)
(1.83931e-06 -7.47013e-07 1.30058e-22)
(-2.062e-05 3.69568e-05 -2.94746e-23)
(-4.93599e-06 3.64059e-06 1.49277e-23)
(0.00653192 -0.0670783 0)
(0.000489213 0.000351117 -2.13862e-23)
(2.59917e-05 -1.3254e-05 1.59235e-21)
(2.63918e-06 -6.02057e-08 2.88605e-22)
(-1.03623e-05 2.86442e-05 0)
(-0.00351371 -0.00310001 3.83474e-22)
(9.32268e-06 1.08208e-05 0)
(0.00115765 -0.000728652 -4.04432e-22)
(0.00836246 0.00768864 -3.62545e-23)
(4.98054e-05 -1.251e-05 2.52128e-23)
(2.46097e-06 -3.71561e-07 -2.81547e-22)
(-0.000732146 0.000918444 -3.68868e-22)
(6.94304e-06 -6.21365e-07 -6.0409e-22)
(0.00337099 -0.00164399 -1.0596e-22)
(0.0178172 -0.0122043 3.67982e-22)
(1.43909e-05 1.37661e-05 1.65484e-22)
(2.60993e-06 2.1231e-07 7.50118e-23)
(4.70796e-05 -1.09871e-06 -4.55022e-22)
(5.97436e-06 -8.19558e-07 0)
(3.66123e-05 -0.000248779 0)
(4.27193e-06 -4.63425e-06 0)
(-0.00297406 0.000245684 0)
(-0.000164461 -0.0806802 0)
(3.61357e-05 7.62849e-05 -3.05022e-22)
(2.31692e-06 -3.29637e-07 3.21218e-22)
(-0.0060302 0.0223701 0)
(0.000487889 -0.000608352 1.57585e-21)
(4.45714e-05 4.30165e-06 4.66333e-22)
(0.0132858 -0.00881596 1.61534e-22)
(0.0146853 -0.00926366 -1.87711e-22)
(-1.95185e-05 -1.42478e-05 1.53075e-22)
(-0.00973573 0.0362072 5.17185e-21)
(-0.00167386 -0.000123673 -2.66324e-22)
(-3.05384e-06 1.27819e-06 -5.05787e-22)
(-0.00343325 -0.0124702 -5.41556e-22)
(9.91052e-06 1.89364e-06 0)
(0.0164329 0.0119213 0)
(0.0137431 0.012622 5.63285e-21)
(1.38556e-05 1.71184e-05 1.74209e-21)
(-7.37483e-05 5.96636e-05 1.18149e-21)
(-0.00749193 -0.101729 -2.19646e-21)
(0.0178084 -0.00467088 1.52351e-21)
(7.18266e-06 6.45712e-07 -5.29176e-22)
(-0.0066817 -0.0390635 0)
(0.000526896 0.000506258 2.26061e-23)
(0.00118268 -0.0004924 7.18708e-22)
(-0.00296047 -0.000100636 0)
(0.000574551 -0.000412942 0)
(4.50903e-05 3.51724e-05 3.47578e-22)
(9.73941e-06 3.3889e-07 -4.00591e-22)
(0.000962734 -0.000778712 0)
(5.45128e-06 -3.90132e-07 0)
(-0.00313368 0.00243097 -9.2291e-22)
(0.00217968 0.0117799 -1.43428e-21)
(-2.26368e-06 1.49449e-06 -6.81893e-23)
(1.49363e-05 9.11958e-05 -2.32996e-22)
(7.35264e-06 4.07787e-06 -1.0931e-23)
(0.029551 0.0419176 -5.32033e-21)
(-1.81527e-05 3.33095e-05 3.79909e-22)
(0.0151382 -0.000866127 2.9313e-23)
(0.000209789 0.000339435 3.7124e-22)
(-0.00072828 -7.73568e-05 5.41853e-22)
(4.43615e-06 -6.82517e-07 7.63938e-23)
(2.77568e-05 6.12815e-05 4.63608e-22)
(0.00805311 -0.00405657 2.0165e-23)
(0.0141701 0.0113777 -2.61736e-21)
(7.43013e-06 3.35484e-06 0)
(-0.00135423 -0.0115201 -3.4112e-22)
(-0.00105623 -0.000674784 -4.48185e-24)
(-0.00423381 -0.00277497 8.64688e-22)
(-0.000695542 3.15816e-05 0)
(1.87282e-06 -1.94419e-07 -1.95147e-22)
(4.54534e-06 -4.38287e-06 0)
(-1.60494e-05 -1.88665e-05 -7.56499e-23)
(-0.000924377 0.00128223 2.54357e-23)
(1.70288e-06 -8.01051e-07 1.82671e-22)
(0.00112653 0.00088331 -7.15615e-23)
(-0.00372955 -0.00305143 0)
(0.000240624 0.000314569 -1.3512e-21)
(0.00505499 0.0117537 0)
(-0.00914765 0.0381761 1.34466e-22)
(0.00768914 -0.00511493 7.48047e-22)
(-0.00540265 -0.0385358 1.20892e-21)
(3.37086e-05 5.91538e-05 -5.92664e-22)
(1.56966e-06 2.61338e-06 0)
(0.0229442 0.0291008 -2.13074e-21)
(0.000564558 0.000264065 2.12626e-23)
(-4.73633e-06 3.23076e-06 -6.391e-23)
(0.00146397 -0.0343216 -1.19025e-21)
(5.34205e-06 -2.84332e-07 4.98032e-23)
(0.00925785 0.00267063 0)
(1.3342e-05 -0.00027209 -8.99031e-23)
(1.53947e-06 -2.50167e-07 -8.4268e-24)
(0.00115543 -0.00600553 7.40742e-22)
(7.32654e-06 6.49117e-07 7.93735e-22)
(2.0915e-06 6.52385e-08 -4.68398e-23)
(-0.00335928 0.00204633 0)
(2.39784e-07 2.67047e-06 -5.16238e-23)
(0.0340018 0.0265439 5.01696e-22)
(1.0966e-05 -1.73614e-06 0)
(-2.72268e-06 -6.404e-06 -3.93466e-22)
(1.54525e-06 -1.74643e-05 0)
(8.50095e-06 1.91134e-05 -4.58938e-22)
(-4.58219e-06 3.05537e-06 6.0823e-23)
(-2.13194e-06 1.22919e-06 7.60114e-23)
(-0.0013615 -0.00285187 0)
(6.99946e-06 -3.70281e-06 4.018e-22)
(0.00135716 0.000600297 -1.81145e-21)
(0.0206573 0.0276078 1.66017e-21)
(-2.48287e-06 -7.06714e-06 0)
(-0.0106223 -0.035487 -5.99511e-23)
(-0.00415509 -0.00286621 -1.19687e-21)
(0.0138528 -0.0201485 -2.36207e-22)
(-0.00293602 0.0133922 2.59067e-21)
(0.0194042 0.000583726 1.25094e-21)
(-0.00167805 -0.000949589 5.46088e-23)
(-3.86018e-05 5.59007e-05 -7.72237e-22)
(0.000284541 -0.000221303 3.34092e-22)
(0.000594994 -0.000117869 1.12196e-21)
(1.08557e-05 -1.42338e-06 0)
(-0.00446691 -0.00211586 2.53289e-21)
(0.0146547 0.0053679 3.02752e-21)
(7.43467e-06 1.67175e-05 1.51212e-21)
(2.48375e-05 3.32846e-05 -1.92886e-22)
(1.03433e-05 -1.23332e-07 -1.20582e-21)
(2.20465e-06 -2.293e-06 -3.33205e-22)
(0.00653335 -0.0122651 -1.48107e-21)
(2.34559e-06 4.344e-07 0)
(5.3245e-06 -1.25104e-07 0)
(2.07458e-06 2.8382e-07 0)
(9.8977e-06 2.54531e-07 -3.99217e-22)
(1.70976e-06 1.54956e-06 2.97799e-22)
(-6.18854e-06 -1.07177e-05 1.01966e-22)
(0.00285459 -0.00170426 0)
(1.37689e-06 -5.74415e-07 0)
(1.09678e-05 1.74068e-05 -1.89505e-22)
(0.00103754 -0.00577315 -6.08907e-22)
(5.89571e-05 6.14929e-05 0)
(0.000406027 0.000566839 -2.25781e-23)
(-0.00152609 -0.00283525 -7.02035e-22)
(0.00718059 -0.0108592 1.71441e-21)
(2.49002e-06 8.34501e-09 -1.53473e-22)
(8.8604e-06 -9.72799e-07 5.09634e-22)
(0.0143848 -0.0244359 -5.67019e-23)
(0.00106001 -0.00373104 7.86447e-22)
(-0.00113534 0.00799275 -4.92212e-22)
(-0.0015853 0.000824825 4.40437e-23)
(3.631e-06 1.67816e-05 0)
(-6.32132e-06 1.75734e-06 0)
(0.0159455 0.0419128 2.55265e-22)
(1.73942e-06 -1.66483e-06 0)
(0.00904109 0.00775789 8.608e-22)
(1.10175e-05 -2.01472e-06 1.85813e-22)
(0.0057244 0.0245966 2.22865e-21)
(8.73581e-06 -7.74274e-07 -2.47438e-22)
(1.38872e-06 4.61473e-07 1.11046e-22)
(-0.00111609 -0.000744236 3.84505e-22)
(-2.15513e-06 -5.68586e-06 0)
(4.15695e-06 -7.28195e-07 0)
(-3.86074e-06 1.09844e-05 0)
(0.0006371 -0.000134409 -1.13929e-21)
(0.0003038 9.16022e-06 7.14401e-22)
(-0.00661068 0.00489144 0)
(2.33078e-05 7.63881e-05 -4.63537e-22)
(0.0126182 0.00309501 0)
(-0.00171489 -0.000848724 -6.00739e-22)
(-3.56945e-06 9.59171e-06 0)
(8.09619e-06 4.13545e-06 -5.42225e-24)
(0.000190207 5.50575e-05 2.91317e-24)
(0.000331069 9.13066e-06 0)
(2.44231e-05 7.99915e-05 1.72957e-21)
(-2.35772e-06 5.7491e-05 -2.97717e-23)
(0.0155194 -0.00421229 -1.00067e-21)
(1.00603e-05 1.34691e-09 -6.37599e-23)
(0.000707737 -0.000244716 1.35234e-21)
(0.000173946 6.62835e-05 1.94143e-22)
(0.0128079 0.00107132 0)
(0.0103462 0.0114612 0)
(-6.21365e-05 -2.1891e-05 3.11857e-22)
(0.000265156 -1.55379e-05 5.81811e-22)
(-0.000420094 0.00846564 4.18627e-22)
(2.30661e-06 4.63973e-07 1.08193e-22)
(-0.0041066 0.00170761 -1.95185e-22)
(0.0039725 0.00320132 -5.08617e-23)
(0.000208516 6.0882e-05 -2.14681e-22)
(-0.00752422 -0.00164424 -2.71616e-21)
(1.76621e-06 -7.99696e-08 0)
(-0.0014693 -0.00423773 8.46812e-22)
(0.00466169 0.0193229 0)
(-0.0088973 0.0311532 -4.36873e-21)
(0.0006001 -0.000549528 9.88561e-23)
(-2.34577e-05 9.09097e-06 0)
(-0.00112294 -0.000750664 4.21154e-22)
(-0.00147221 0.00134822 7.00855e-22)
(-0.00278974 -0.0130234 -3.31482e-22)
(-0.00160785 -0.00262495 6.21419e-22)
(-7.44593e-06 -5.49065e-06 0)
(0.00382661 -0.0511148 -7.04063e-22)
(0.0163008 0.00668072 0)
(9.93454e-06 -1.37982e-07 -4.56059e-22)
(-0.00101203 -0.0033543 6.61204e-22)
(0.00253539 -0.00205463 8.10055e-22)
(-8.3239e-06 5.64808e-05 0)
(1.59356e-05 6.79188e-05 1.21237e-21)
(0.00460649 0.0052908 4.77544e-22)
(-0.00108454 -0.0006795 0)
(-2.60003e-06 -5.75094e-06 -9.96987e-24)
(-0.00111875 -0.00356046 5.0023e-22)
(-1.28728e-05 3.9737e-05 0)
(-1.03587e-05 -3.75724e-05 1.47912e-22)
(1.00112e-05 6.39773e-08 6.59621e-23)
(0.000410523 -0.00110921 3.30977e-22)
(0.000528629 -0.000755981 -2.69043e-22)
(7.59493e-05 -0.000722136 6.12213e-22)
(-1.35994e-05 3.33642e-05 0)
(1.12472e-05 -1.36756e-06 2.31816e-24)
(-0.00350985 -0.0294328 -5.37188e-22)
(-0.00126029 0.000886161 -7.46495e-22)
(0.0049182 -0.0494541 0)
(0.00761183 0.00875147 -4.82678e-23)
(5.40198e-06 -1.14083e-07 0)
(2.6416e-05 8.78894e-05 2.55779e-22)
(5.79777e-06 -8.48792e-07 0)
(0.00028466 -0.000191815 6.79162e-22)
(0.000631196 -0.00033417 9.97197e-22)
(0.00137571 0.0025162 -1.00799e-23)
(4.66511e-06 6.91598e-05 1.06513e-21)
(-0.00172984 -0.0250423 2.81683e-22)
(0.00014437 6.44854e-07 -9.092e-22)
(3.53058e-05 -0.000192654 2.20843e-22)
(1.00497e-06 -2.468e-06 0)
(0.000965992 0.00101649 0)
(0.00856115 -0.0327058 2.95688e-22)
(-9.52249e-05 6.42268e-05 -1.22389e-21)
(-0.000852597 0.000997606 3.61238e-22)
(-0.000821291 0.00246184 5.26762e-22)
(9.53959e-06 -3.4881e-08 0)
(-4.20405e-05 5.009e-05 1.23746e-21)
(-0.00446907 -0.104231 1.95212e-21)
(0.00811969 0.00810953 1.697e-22)
(-2.54419e-05 6.393e-06 0)
(-0.00137269 0.0373433 0)
(-8.93142e-06 -7.13149e-06 6.83198e-22)
(2.59186e-06 3.04017e-07 0)
(-1.08814e-05 -8.48792e-06 2.65887e-22)
(-0.00180282 0.000921855 0)
(-2.50734e-05 1.79234e-05 7.11428e-24)
(-3.07556e-05 0.000817379 2.70702e-23)
(0.000486515 -0.00113858 -6.15005e-22)
(-1.00535e-05 -7.22509e-06 -7.72263e-22)
(0.00861016 0.00374061 0)
(0.0141668 0.0039068 0)
(0.00912483 0.00668598 1.30521e-22)
(1.40311e-05 -1.38985e-05 0)
(0.000111115 8.95911e-06 -4.13782e-22)
(0.0130437 0.0101706 0)
(-1.04562e-05 -9.9202e-06 -3.35892e-22)
(-1.70625e-05 2.46405e-05 0)
(2.88349e-05 7.20123e-05 0)
(1.17003e-07 1.5507e-05 -4.31411e-25)
(5.10602e-05 1.32233e-05 0)
(1.661e-05 1.286e-05 -1.88743e-22)
(1.04759e-05 4.87402e-06 0)
(-0.00527383 0.00790375 -2.33853e-21)
(0.00144253 -0.00101205 -4.4762e-22)
(1.13761e-05 2.92244e-06 6.26036e-23)
(-0.00116873 -0.00078696 -2.20474e-22)
(4.72193e-05 1.83861e-05 -4.36317e-22)
(-6.11459e-06 -3.79985e-05 1.24131e-22)
(-2.76091e-07 1.34543e-05 5.10896e-23)
(-0.000792178 0.036253 2.57208e-23)
(-0.00110014 0.00229289 0)
(0.000170755 -0.000681445 -7.31319e-22)
(0.0260131 0.0634727 6.62792e-22)
(0.000108147 -0.00094283 -1.59842e-22)
(0.00261833 -0.00124789 0)
(4.07581e-05 -5.80477e-06 1.18938e-23)
(0.00155491 -0.00756264 0)
(3.0391e-05 3.61811e-05 4.25063e-22)
(0.000463499 -0.000723907 -2.16625e-21)
(6.3226e-06 -6.22209e-07 0)
(0.000224232 -0.000873202 3.72637e-22)
(0.000585321 -0.00381834 -8.78091e-23)
(2.72569e-06 3.25646e-08 7.97399e-23)
(-1.41618e-05 2.34697e-05 -7.00291e-22)
(-2.80776e-06 -8.22106e-06 -2.78256e-22)
(-0.000824036 -0.00216216 2.69019e-23)
(-0.00148168 -0.00265265 9.53907e-24)
(0.0299769 0.0438162 5.66409e-21)
(-0.00278756 0.0534615 -1.12545e-21)
(0.01416 0.00497376 0)
(0.000446042 0.000118618 -2.53026e-24)
(-0.0014321 0.000984146 6.97787e-22)
(-0.00159606 -0.00401994 -6.22367e-22)
(0.0150049 0.0776464 1.75266e-22)
(-0.000133628 1.0664e-05 2.41521e-23)
(-3.0398e-06 -7.68371e-06 2.8995e-22)
(0.000290881 -2.12506e-05 -3.08981e-22)
(1.51974e-06 1.04216e-05 0)
(2.60755e-06 -2.57176e-07 -2.02177e-22)
(-1.24699e-06 -4.30073e-05 1.28227e-22)
(5.17766e-05 2.9606e-05 4.55036e-22)
(5.55261e-05 5.45564e-05 -6.36189e-22)
(0.0121121 0.0766768 4.75231e-22)
(0.00576308 -0.0522714 1.10687e-21)
(0.00662449 0.00704575 -1.99994e-22)
(1.37738e-05 -1.19163e-05 -1.60467e-22)
(1.04149e-05 -3.45664e-08 0)
(1.47101e-06 -1.09735e-08 0)
(-0.00385813 0.00216064 2.07145e-22)
(0.00015792 5.79561e-05 4.1459e-22)
(0.00958314 0.0911851 6.42664e-23)
(1.03933e-05 -1.50725e-05 -1.11924e-22)
(0.00498247 0.00340351 8.14975e-23)
(-0.00612944 -0.0119382 0)
(1.15373e-05 6.77724e-06 0)
(0.000438333 0.000152922 -5.28567e-22)
(0.000491394 -0.000372003 0)
(6.55712e-07 2.84981e-07 -1.01725e-22)
(4.50084e-06 -1.85382e-05 0)
(0.000230473 -3.26402e-05 0)
(1.68481e-06 8.84839e-06 0)
(-0.00180971 -0.000714665 -3.0143e-22)
(8.98049e-06 -1.61857e-05 -9.13931e-23)
(0.0047496 0.0106786 0)
(0.0010203 0.00223549 6.72555e-24)
(-0.00413681 -0.015496 -4.64907e-22)
(-0.00574134 -0.00747735 1.38225e-21)
(-5.86849e-06 4.68716e-05 5.77915e-22)
(-0.0012568 -0.000835245 2.15117e-22)
(-0.00156347 -0.000450523 0)
(-6.93887e-06 3.59492e-06 0)
(8.1012e-06 5.32287e-06 0)
(2.53403e-06 -8.27952e-07 1.34707e-22)
(0.00263387 0.00513541 -6.9724e-23)
(8.95025e-06 6.5213e-08 0)
(0.0223375 0.0400562 -1.0492e-21)
(-8.52082e-06 -5.54732e-06 0)
(-0.0281494 0.0336654 1.04335e-21)
(-0.00196261 0.000680311 5.58486e-22)
(-5.24238e-06 -4.30209e-05 0)
(2.52021e-06 -1.06523e-06 2.03243e-22)
(-0.00780821 0.0035661 -4.20015e-22)
(0.00141909 -0.000179546 1.67625e-21)
(2.76632e-06 2.54056e-07 -1.04962e-22)
(0.00161941 -0.00158185 3.94606e-22)
(2.70312e-06 1.50668e-05 0)
(-0.000824917 0.000597352 2.87602e-22)
(-0.0166227 0.100219 -4.29741e-22)
(0.00733874 -0.0104007 -3.52379e-22)
(0.000808309 -0.00122397 -5.96893e-22)
(0.00180889 0.00547259 3.45086e-22)
(0.00818217 -0.00894665 0)
(0.00485968 -0.0308206 -2.49299e-21)
(0.000413614 -0.000307655 0)
(-2.03074e-05 2.84618e-05 -3.18958e-22)
(0.00369184 0.00692764 4.77667e-23)
(-4.21537e-06 -1.24229e-05 1.09741e-22)
(1.05092e-05 2.06266e-07 -1.946e-21)
(1.56314e-06 -1.93109e-06 2.69962e-22)
(0.0259274 0.039708 -1.14463e-21)
(-0.0244986 0.0144329 -2.79002e-21)
(6.46484e-05 -6.87911e-06 -1.88852e-23)
(-0.000161041 -8.1287e-07 -9.19521e-22)
(0.0343954 0.0462194 3.23009e-21)
(2.18149e-05 1.25918e-05 -2.06033e-22)
(0.0157532 0.0103303 -5.5612e-22)
(0.00184792 0.019214 0)
(0.000770733 0.000953363 0)
(1.84614e-05 -0.000210771 0)
(-0.00162815 -0.0014992 7.75744e-22)
(-0.00624439 -0.100698 4.06416e-21)
(7.65481e-06 1.04096e-05 -7.82445e-22)
(-2.96487e-06 -1.10375e-05 -5.86743e-24)
(1.64959e-05 -5.71884e-06 -1.20051e-22)
(0.00153504 -0.00150586 3.24284e-22)
(-6.09209e-06 1.47338e-06 0)
(2.59429e-06 -1.09149e-06 1.9629e-22)
(1.656e-05 1.83303e-05 -3.22289e-23)
(0.0108077 0.00807162 1.85129e-21)
(-2.50551e-06 9.50505e-07 5.03152e-22)
(1.78085e-05 1.50899e-05 3.22942e-23)
(-0.00112586 -0.000700652 -7.20091e-22)
(-0.0349063 -0.0609013 -4.49968e-21)
(0.00126786 0.000534173 2.15588e-21)
(-0.0020714 -0.0118225 -1.84181e-22)
(1.10121e-05 -4.37496e-07 1.78668e-24)
(2.22246e-05 0.000225387 0)
(-2.04649e-06 -1.07834e-05 0)
(-0.00198074 -0.0373431 -1.50414e-21)
(0.0138847 0.011405 -5.3901e-22)
(-0.00150096 -0.00243234 0)
(1.54056e-05 -4.11175e-06 3.28636e-24)
(-0.00152976 -0.00124296 -3.67383e-22)
(-1.94822e-05 2.80701e-05 0)
(-0.000147087 0.000133959 0)
(7.20415e-06 1.18139e-07 0)
(0.000327637 -0.00217018 2.76285e-22)
(3.94213e-06 1.48102e-05 -1.87497e-21)
(-0.00172491 -0.0017858 3.11265e-22)
(-0.010313 0.0263821 1.76887e-21)
(-0.0102121 0.0124755 -5.92726e-21)
(0.000472937 0.000176958 5.91873e-22)
(0.000755226 -0.00132417 -5.1347e-24)
(-3.06359e-07 -9.06786e-06 0)
(-0.000190962 4.05938e-06 -9.8393e-22)
(1.13442e-06 -2.29307e-06 -3.61786e-22)
(0.0206958 -0.0234684 8.49726e-22)
(1.75511e-06 -2.07976e-06 -1.27702e-22)
(-1.03102e-05 -1.63355e-05 -1.52626e-22)
(0.00126768 -0.00132599 4.6692e-22)
(-0.000699026 -0.0270276 0)
(0.015596 -0.00534851 2.91586e-21)
(-2.4873e-08 3.10092e-06 2.38886e-23)
(-3.58797e-06 0.00023221 0)
(-0.00488304 0.0122675 -9.25627e-22)
(7.66653e-06 7.92918e-07 0)
(-3.43105e-05 2.73236e-05 2.79767e-22)
(3.68673e-05 5.34235e-05 0)
(1.85606e-05 8.90656e-06 -8.18306e-22)
(-1.81319e-05 2.22799e-05 0)
(0.0069876 0.0111038 7.16458e-23)
(0.00026679 -0.00195753 -4.3262e-22)
(1.12023e-06 -2.2977e-06 4.12296e-22)
(0.000553408 -0.000148863 1.92517e-22)
(3.90592e-06 1.28436e-05 8.92215e-22)
(0.0015264 -0.00526502 -6.37223e-22)
(8.80321e-06 3.24908e-08 5.59995e-22)
(-0.00196968 0.023131 0)
(-0.0109359 0.026654 -2.69251e-21)
(-0.000186922 -0.00171497 0)
(5.30863e-05 -0.0015744 0)
(-0.00150301 -0.000914742 0)
(-0.000190034 -1.65143e-05 3.03621e-22)
(-0.00742304 0.0500653 -1.4111e-21)
(-0.000241527 -0.00379564 6.23616e-22)
(1.4536e-05 -8.35418e-06 -5.77042e-23)
(-0.00050778 2.25109e-05 9.09743e-22)
(8.7089e-06 7.23991e-08 7.30684e-22)
(0.00145908 -0.00852795 -6.3322e-22)
(-0.0211517 -0.0306869 7.94189e-22)
(-8.39671e-06 -2.18147e-05 -2.71729e-22)
(0.00147148 -7.02622e-05 -5.24899e-22)
(-0.00343204 -0.0157912 3.28252e-24)
(6.76899e-06 -7.53724e-07 4.33117e-22)
(0.0147886 0.0861539 1.41908e-21)
(-5.10805e-06 1.57039e-06 0)
(-0.00428051 -0.00226776 -6.13839e-22)
(-0.0222477 -0.0319023 -6.98693e-22)
(-1.97932e-05 8.05309e-06 0)
(0.0129018 0.0036605 2.29805e-21)
(-2.10299e-05 6.49872e-06 1.62559e-22)
(-0.000212878 -0.00176548 -8.14e-22)
(0.000483886 0.00022249 -5.5588e-22)
(0.00495576 -0.00143753 -1.78144e-21)
(-4.45364e-06 -1.32854e-06 1.1737e-22)
(0.0414792 0.0414421 -3.72049e-23)
(-0.000154156 -3.47478e-05 -1.11864e-21)
(1.10048e-05 -6.34912e-06 -1.78471e-22)
(1.03992e-05 1.24164e-05 0)
(-0.00566554 0.0186293 -8.28128e-23)
(0.000244488 0.00057416 -1.371e-21)
(6.1968e-06 -7.29374e-07 2.99931e-22)
(8.9274e-06 1.48485e-06 0)
(1.0652e-05 8.06555e-07 1.91937e-22)
(0.012608 0.00503674 -2.58181e-21)
(-3.48519e-05 -0.0041946 -1.31848e-21)
(0.000729369 -0.000116651 -1.31449e-21)
(-0.00345072 -0.00358301 5.56161e-22)
(9.52959e-05 -0.00165215 0)
(-1.80497e-05 1.05215e-05 1.43487e-22)
(7.45641e-06 -3.04117e-06 4.69089e-22)
(2.81552e-06 5.4481e-07 7.09865e-23)
(0.00593989 0.101408 -1.29025e-21)
(2.56498e-06 -1.03787e-06 1.56254e-22)
(6.43372e-05 3.46804e-05 -5.76432e-22)
(0.0147935 -0.00391127 -3.32614e-24)
(-0.0150161 -0.035358 -1.72454e-22)
(0.00172678 -0.000952267 0)
(1.18941e-05 -4.49777e-06 0)
(0.00377148 0.00218682 -3.54348e-23)
(-0.000642097 -0.000271225 4.99306e-22)
(-0.020344 -0.0479799 0)
(1.7461e-06 3.69667e-07 -5.47795e-23)
(-0.0016153 0.00119897 -8.20343e-22)
(7.77709e-06 -2.61407e-06 -4.98789e-22)
(0.000222452 0.000324412 -2.30795e-23)
(0.00131243 -0.0016917 2.15737e-21)
(0.00388002 -0.0470018 1.72968e-21)
(8.58293e-06 -9.28432e-08 -3.8381e-23)
(0.00318301 0.0220058 -5.4069e-21)
(5.85106e-06 -9.18646e-07 0)
(2.07087e-06 -2.02566e-06 1.42701e-22)
(0.00053211 -0.000633376 2.81895e-22)
(7.38541e-06 7.56972e-07 3.75805e-22)
(9.9736e-06 -1.20189e-07 1.05969e-21)
(7.19347e-06 1.08648e-08 0)
(0.00726419 0.04348 3.92646e-22)
(0.034148 0.0269505 -1.20957e-23)
(0.00182364 -0.000835224 0)
(0.00360622 0.00588522 0)
(7.3583e-06 -1.35206e-05 -2.75042e-22)
(9.38426e-06 2.3706e-06 1.65292e-24)
(0.00107026 -0.00206175 -5.51977e-22)
(-0.0244143 -0.0292519 0)
(2.10175e-06 -1.96368e-08 -2.10444e-22)
(0.0253162 0.030318 0)
(-7.00799e-05 5.68363e-07 0)
(0.00297949 0.0104836 5.21689e-22)
(0.000270248 0.00100775 3.52297e-21)
(7.52004e-06 9.71616e-08 2.20445e-22)
(-0.00222053 0.000728634 0)
(-0.00332671 -0.0122714 0)
(0.00220851 -0.00127513 0)
(1.73665e-06 3.34682e-06 0)
(0.00153486 -0.00144582 1.13314e-21)
(0.0165445 0.0257565 6.99167e-23)
(0.0162976 0.0571962 0)
(-1.19044e-06 -1.22544e-05 -6.47947e-22)
(0.000367401 -0.000173476 0)
(1.09919e-05 4.0992e-06 1.58847e-22)
(0.000488344 -4.13104e-05 -1.43074e-23)
(7.39562e-06 -3.30878e-06 -4.96023e-22)
(-0.00129773 -0.010812 0)
(0.000279312 0.00277735 7.53966e-22)
(1.05888e-05 1.16358e-07 1.05911e-21)
(-0.00236679 -0.00305891 -5.33042e-22)
(-0.00172467 -0.00171001 0)
(-0.0261651 -0.0266501 8.28872e-23)
(-0.0295245 0.0785765 7.59044e-22)
(-0.000383073 0.000493692 3.0426e-22)
(-0.0111417 0.0352699 2.06396e-21)
(0.000210406 -8.51093e-05 -1.18634e-21)
(-1.18195e-05 -1.29087e-05 3.16079e-22)
(-0.014996 -0.0107706 0)
(-0.0178963 -0.0320013 0)
(-0.00219051 0.0157391 7.83345e-23)
(0.000501663 -0.000134016 7.18673e-22)
(0.000252974 -3.71572e-05 -1.82928e-23)
(-0.00017981 -5.41158e-05 2.1938e-21)
(-1.81451e-06 -3.52872e-06 -4.6235e-24)
(0.00099857 -0.000333876 1.05608e-21)
(0.000919346 -0.000313134 -9.44914e-22)
(8.54035e-06 -8.62456e-08 0)
(0.000811948 0.000139988 -6.8391e-23)
(-0.00274431 0.00234055 1.0922e-21)
(-0.000148076 0.000154975 0)
(-0.000542428 6.90132e-05 -3.52607e-22)
(1.00276e-05 2.52607e-08 0)
(-0.0309684 0.0637387 2.12755e-23)
(6.87362e-06 -1.11646e-05 0)
(0.0173429 -0.0234399 -1.27348e-22)
(-9.34993e-06 8.63026e-06 0)
(2.58644e-06 -7.71965e-07 1.41941e-23)
(0.0020677 0.00113936 -1.20786e-21)
(5.75042e-06 -8.58954e-07 2.00114e-25)
(-5.86373e-06 -2.09772e-06 -2.28192e-22)
(-0.00176174 -0.0378344 2.66977e-21)
(1.87146e-06 -2.13426e-06 -4.13245e-22)
(-0.00163157 -0.00153208 -8.35823e-22)
(0.0185118 -0.00757501 0)
(0.0364676 0.0578756 0)
(0.000489437 0.000177134 6.00858e-22)
(-0.000703392 -0.000300526 -8.88793e-25)
(-0.000854761 0.00174826 2.5477e-22)
(-7.23316e-05 -1.81902e-05 -8.17332e-22)
(4.3965e-05 -8.53003e-05 0)
(-0.000801224 0.00115995 -4.17419e-22)
(0.00246185 0.00249754 3.7685e-24)
(4.47526e-06 -1.34084e-05 4.82106e-23)
(0.000392482 -0.00426967 0)
(-0.0154902 0.00395132 0)
(-5.24596e-06 -1.13985e-06 0)
(3.74121e-06 -1.62103e-07 1.43409e-22)
(-1.21042e-05 -1.11868e-05 2.00545e-22)
(0.00193036 0.00227051 -9.89829e-25)
(-4.89172e-06 1.70094e-06 0)
(-4.00577e-05 0.000890767 0)
(-0.000228899 0.000485961 3.48091e-22)
(-0.00469146 -0.00245774 -1.2905e-21)
(-0.000203701 0.00116335 0)
(-0.00115476 -0.06809 -4.46754e-22)
(-0.000469122 -0.000730465 9.51501e-22)
(-0.00251592 -0.00301311 -1.94254e-22)
(2.43994e-06 2.03951e-07 0)
(0.00167015 -0.000329629 9.10833e-24)
(0.0357414 0.0576705 -1.74344e-21)
(0.000397226 0.00111048 -2.60165e-21)
(0.0108711 0.035447 -3.77048e-22)
(-9.04967e-07 1.42223e-06 -4.01352e-23)
(0.00137622 0.00332783 -2.69734e-21)
(-0.000103615 -0.00169652 -3.26861e-22)
(-1.25607e-05 -1.65192e-05 -4.78448e-22)
(-1.35155e-05 8.87008e-06 -6.74525e-23)
(-0.00841352 -0.02956 -1.81331e-22)
(0.000180725 -0.000172359 0)
(5.31887e-05 -4.98224e-05 -5.41489e-22)
(7.95773e-06 7.61894e-06 2.12097e-23)
(0.000535533 3.38244e-05 1.56397e-23)
(-0.00174026 -0.00153667 3.50178e-22)
(-0.00504553 -0.00109695 -9.0007e-23)
(-2.64408e-05 2.05221e-06 2.95914e-22)
(-0.0016634 -0.0025071 5.92717e-22)
(0.00201666 -0.00233382 1.71938e-21)
(-0.000442502 -0.00103899 9.51559e-22)
(-0.000732499 -0.00341549 0)
(-1.08579e-05 9.98764e-06 -2.46062e-22)
(1.03323e-06 2.65184e-07 0)
(0.000128924 0.00066308 -9.84189e-22)
(-1.44266e-06 1.28954e-06 -4.62047e-24)
(-2.14597e-05 5.28713e-05 9.97724e-22)
(0.000773352 -0.00839941 5.15174e-22)
(-6.58565e-06 -1.58085e-05 -2.764e-22)
(0.000938243 -0.00682212 8.29589e-23)
(-1.28283e-05 2.61031e-05 7.16598e-22)
(6.20077e-05 -0.0193798 1.16551e-22)
(-0.0107536 0.0347525 -4.82156e-21)
(2.81764e-06 -1.26567e-05 -1.52862e-22)
(9.29497e-06 1.92359e-06 -2.59822e-22)
(6.16984e-06 -8.56743e-07 -3.217e-22)
(-0.0381798 -0.0182645 6.46034e-21)
(-0.000408759 -0.00123967 -9.81872e-22)
(-0.00585416 -0.00676326 -2.37579e-21)
(-2.28222e-05 1.64457e-05 -2.31398e-22)
(2.71625e-06 2.70018e-07 -8.14501e-23)
(0.000196078 -0.000221264 2.33981e-22)
(7.03544e-06 -1.11257e-07 -2.71729e-22)
(2.6526e-06 4.68898e-07 0)
(6.91954e-06 -1.32519e-07 -2.90589e-22)
(1.93157e-06 -6.37943e-08 -2.44813e-22)
(0.00880777 0.00153872 3.35524e-23)
(-0.0139998 -0.06992 2.52656e-21)
(3.71376e-06 9.1832e-07 0)
(-0.000608989 -0.00076802 -1.51318e-21)
(-9.42251e-05 0.0110791 0)
(0.000103269 6.4609e-05 -1.82755e-22)
(7.33661e-06 -1.07162e-07 3.48595e-23)
(0.000154284 -0.0198912 0)
(-0.000724519 0.000572101 -1.8795e-22)
(3.58381e-06 -1.00973e-07 -1.54083e-22)
(7.06009e-06 -3.36875e-06 -4.55499e-22)
(8.32835e-06 1.32016e-07 5.46486e-22)
(-0.0213191 0.00790829 -1.26065e-21)
(-2.97088e-06 -9.55236e-06 0)
(0.0204189 0.0729961 -4.00031e-22)
(-0.000449544 0.000535906 -4.98258e-22)
(8.24367e-07 -4.83729e-06 -2.37231e-22)
(0.000148473 1.3825e-05 0)
(0.0186714 -0.00565034 0)
(-2.19705e-06 -3.70648e-06 -1.51664e-23)
(-0.00177775 -0.00160819 0)
(0.0269595 0.0191469 -3.04102e-21)
(-0.0015668 -0.00136157 2.65968e-24)
(0.00157641 0.000159733 5.86695e-22)
(5.35262e-06 -4.05921e-06 2.05497e-22)
(0.000124414 0.00059049 -8.74855e-23)
(-0.000585309 -0.00373588 8.6052e-23)
(6.39657e-06 6.98821e-07 -1.44974e-22)
(0.000214819 0.000777435 1.31498e-22)
(-1.95845e-06 1.30124e-05 0)
(0.000634533 -0.000551208 2.68805e-22)
(0.00438375 0.0140463 6.70533e-22)
(-0.00133407 -0.00345721 -4.62107e-22)
(8.76227e-06 2.50916e-06 2.09652e-22)
(-0.000926058 0.00107546 2.09452e-22)
(1.52301e-05 -9.99936e-06 7.11817e-23)
(0.0213067 0.0308095 0)
(4.67388e-06 -4.43531e-07 -5.97393e-23)
(0.000309655 -0.000175836 6.99584e-22)
(0.000203534 0.000694096 0)
(0.00632348 0.0116758 0)
(-0.00171441 0.000804643 -1.72588e-21)
(0.0205774 0.000816527 4.42772e-21)
(-4.64989e-06 8.83352e-06 2.2104e-23)
(0.00937328 -0.00812923 -1.39313e-21)
(6.87903e-05 -0.000219652 0)
(-0.00116566 -0.000728498 2.32663e-22)
(-7.46244e-07 -1.26909e-05 2.09347e-22)
(-0.00109201 0.00119091 -8.41401e-22)
(-1.16982e-06 5.34036e-07 0)
(-6.84978e-06 -1.9428e-06 5.84268e-23)
(-3.85679e-05 -7.10097e-07 5.2864e-22)
(0.00231994 6.00575e-06 2.37833e-22)
(-2.05005e-05 1.20962e-05 6.68216e-22)
(2.67536e-06 -6.75861e-07 -1.95151e-22)
(2.54355e-06 4.41482e-07 -1.87898e-22)
(0.000266811 6.59393e-05 0)
(2.54666e-06 5.48178e-07 -6.78561e-23)
(-6.10019e-05 -5.34319e-05 0)
(0.000246949 -0.000807291 1.63557e-22)
(-4.25283e-06 7.9808e-06 -6.40288e-23)
(-2.24187e-06 1.16876e-05 0)
(-0.0188594 0.0109078 3.8014e-21)
(2.13238e-06 1.53181e-08 8.38533e-23)
(0.00756017 -0.0364478 -2.70003e-22)
(1.01142e-05 -1.29528e-07 0)
(-4.02415e-05 3.05417e-05 -1.50246e-22)
(1.56117e-06 -1.36865e-05 0)
(0.00370883 -0.00206542 1.039e-21)
(-4.57915e-06 5.80213e-06 -3.78436e-23)
(-0.0242912 0.00140837 0)
(-0.000926955 0.00306673 1.96804e-22)
(-0.0237744 -0.00206724 9.74654e-23)
(-0.0066195 0.00748909 0)
(6.42131e-07 -5.01822e-06 0)
(-9.57672e-06 1.65205e-06 -1.64187e-24)
(8.68442e-06 5.74868e-08 0)
(0.000213464 6.30902e-05 3.18615e-24)
(6.56489e-06 -1.50452e-05 4.78864e-22)
(5.34739e-06 -3.69324e-06 9.90349e-23)
(4.10169e-06 -4.00657e-06 0)
(0.00151552 -0.00637049 8.67406e-22)
(-2.194e-05 2.49106e-05 0)
(-0.00470653 -0.00705284 -1.1124e-22)
(-0.0327838 0.0771852 7.04496e-22)
(0.00107569 0.00347798 0)
(-5.13255e-06 5.55424e-06 3.44061e-23)
(8.77997e-06 1.76048e-07 -8.6094e-22)
(0.00136405 -0.00415477 -9.64353e-23)
(-0.0371069 -0.0567351 -2.43315e-21)
(-0.040644 -0.0373948 0)
(0.0159127 -0.00908934 2.01009e-21)
(-0.0246464 0.102891 -5.13858e-22)
(-0.00497068 -0.00126613 0)
(0.00638817 -0.0326213 1.25288e-21)
(-0.000586584 -0.000146882 0)
(-0.0042727 -0.00745083 0)
(6.37945e-06 -3.51406e-06 -2.57216e-22)
(5.84435e-06 3.37465e-08 0)
(1.06227e-06 2.95736e-06 -3.41174e-23)
(0.0116988 -0.00210212 8.3852e-23)
(0.000109877 8.22219e-05 0)
(-1.78057e-06 -7.02816e-07 -4.32901e-22)
(0.000296967 0.000530985 -7.92106e-24)
(0.000623484 -4.53596e-05 9.59531e-22)
(-0.0403433 -0.0198508 -6.52225e-21)
(5.53313e-05 -6.11867e-05 1.6165e-23)
(-0.00796028 0.0141339 1.32875e-21)
(0.00113536 0.000574968 -2.2004e-22)
(-0.0219663 0.000970984 -6.59767e-23)
(0.00133044 -0.00148553 6.11881e-22)
(8.75057e-05 0.00260606 -6.4432e-22)
(0.0179539 0.0517152 7.08334e-23)
(0.000324158 -0.000751258 1.66632e-22)
(6.57298e-06 -3.50109e-06 9.13099e-22)
(0.000206565 -0.000128454 1.492e-22)
(0.00272541 -0.00130248 0)
(-0.0018237 -0.00218707 -3.32452e-22)
(0.00120491 -0.00457153 0)
(2.51952e-07 -7.9923e-08 7.87591e-23)
(6.9139e-06 -1.60433e-05 -2.92067e-22)
(0.00931032 0.038138 1.5949e-21)
(-0.000512784 0.000488719 -9.68159e-23)
(0.00849111 0.0895974 -1.74584e-22)
(4.78192e-06 -9.60286e-06 -7.31192e-23)
(-0.00650208 0.0090047 0)
(-3.70818e-05 3.68354e-06 6.01225e-22)
(0.0027194 -0.097885 0)
(-1.63934e-06 -2.83336e-06 7.48286e-22)
(6.6533e-06 5.54526e-07 -3.5293e-22)
(2.00359e-05 2.33964e-05 0)
(-1.15667e-05 8.9012e-06 0)
(-0.00012998 4.13675e-05 0)
(5.57659e-06 -3.57101e-06 -4.43057e-22)
(-1.32188e-06 -2.73631e-06 -7.06746e-22)
(-0.00153049 -0.00081954 -5.41657e-22)
(-0.00177888 -0.00197745 0)
(6.86558e-06 4.69539e-07 0)
(-0.00185426 0.000605088 1.21602e-21)
(0.000715305 0.00026843 -1.17704e-22)
(-0.000936544 0.00171708 -2.42749e-22)
(0.00126587 -0.00154382 -3.33111e-22)
(0.00566446 -0.020803 1.01336e-21)
(2.3836e-05 2.22902e-05 0)
(0.000551351 -0.00289013 -5.69432e-22)
(0.00814549 -0.00979387 0)
(9.8529e-06 8.99041e-06 -1.09731e-22)
(-0.0241915 -0.00355085 -3.42313e-23)
(2.52245e-06 -1.05204e-06 -2.52024e-22)
(0.000106622 0.000299523 0)
(-4.98653e-05 -0.000278722 -3.65264e-22)
(-1.50477e-07 -2.4631e-08 2.27058e-22)
(0.0032837 -0.0120891 -2.47738e-21)
(6.74781e-06 -1.39206e-06 0)
(-6.38707e-06 3.92737e-05 4.67123e-24)
(0.0108167 -0.00150456 4.60433e-22)
(2.30319e-06 -9.65701e-07 2.1504e-24)
(0.000130891 5.90164e-05 3.99908e-22)
(5.546e-06 -3.26696e-06 4.41801e-22)
(0.0142574 0.00489742 -3.20838e-21)
(2.38549e-06 6.10459e-08 0)
(-6.8775e-05 -4.4435e-05 7.42715e-22)
(0.00136146 -0.00172233 -8.15313e-22)
(-3.37283e-06 -8.92533e-06 0)
(6.70996e-05 6.00163e-05 4.73036e-22)
(7.1876e-06 2.91591e-05 0)
(-1.51208e-05 1.01864e-05 2.97063e-22)
(-1.67829e-05 -1.81845e-05 1.78287e-22)
(0.0443143 0.0291382 -2.20394e-22)
(-4.72713e-05 7.27795e-05 -4.93938e-22)
(-4.12201e-06 2.4073e-06 0)
(-5.68954e-06 -0.000118965 0)
(9.50384e-06 -1.67233e-05 9.93519e-22)
(7.58544e-06 1.68513e-06 -1.16518e-22)
(-0.00338778 -0.000685159 -2.25149e-22)
(7.20701e-05 0.000498387 0)
(-0.00142425 -0.00112448 3.99186e-22)
(5.33397e-06 2.14599e-06 -1.31868e-22)
(2.53654e-06 -4.54449e-07 -2.35391e-22)
(0.0248071 0.0455186 4.21737e-22)
(7.75096e-06 -2.88477e-06 1.05172e-21)
(-0.000994629 0.000992241 2.09944e-22)
(0.000542628 0.0010469 0)
(-3.4592e-06 2.49633e-06 -7.90594e-24)