/*--------------------------------*- C++ -*----------------------------------*\
| =========                 |                                                 |
| \\      /  F ield         | OpenFOAM: The Open Source CFD Toolbox           |
|  \\    /   O peration     | Version:  v2012                                 |
|   \\  /    A nd           | Website:  www.openfoam.com                      |
|    \\/     M anipulation  |                                                 |
\*---------------------------------------------------------------------------*/
FoamFile
{
    version     2.0;
    format      ascii;
    class       volScalarField;
    location    "300";
    object      k;
}
// * * * * * * * * * * * * * * * * * * * * * * * * * * * * * * * * * * * * * //

dimensions      [0 2 -2 0 0 0 0];


internalField   nonuniform List<scalar> 
18618
(
0.000244295
0.050852
4.57946e-05
0.0204143
6.51831e-05
6.24405e-05
9.43981e-05
0.051963
5.62464e-05
8.90556e-05
9.0144e-05
4.58689e-05
0.0209839
4.83138e-05
6.51029e-05
4.91504e-05
6.19567e-05
0.0522287
6.25204e-05
6.63247e-05
5.93704e-05
4.47494e-05
4.90892e-05
0.000102348
7.55379e-05
9.52764e-05
0.000170587
6.29586e-05
4.93462e-05
5.80438e-05
7.63907e-05
8.5417e-05
8.4649e-05
0.000110865
0.00228062
7.0587e-05
7.77438e-05
7.48656e-05
7.46879e-05
5.79184e-05
0.00253479
0.000107977
4.98535e-05
0.043686
5.62974e-05
9.01277e-05
0.0550493
4.80542e-05
7.86323e-05
0.0601214
6.28363e-05
6.89356e-05
0.0063329
0.00159875
5.7637e-05
0.0392556
4.8315e-05
6.60891e-05
0.000109227
7.41069e-05
5.73752e-05
5.84792e-05
6.63539e-05
8.09875e-05
0.000130555
0.0338264
4.86226e-05
9.23899e-05
5.18313e-05
0.000558703
9.01222e-05
0.000124043
0.000100244
0.0624818
8.40651e-05
9.25516e-05
0.000114238
0.0612583
5.18742e-05
0.0586982
0.0834686
0.0456756
0.0590553
8.95372e-05
8.44432e-05
4.97318e-05
0.000107581
8.93089e-05
8.49307e-05
0.050189
0.000100452
8.36958e-05
0.0440632
0.000115751
0.00203228
9.28132e-05
7.80869e-05
0.0047497
4.84884e-05
4.5892e-05
0.00166613
8.11458e-05
0.0001087
8.57e-05
0.000116944
0.074784
5.69421e-05
4.916e-05
0.000126955
4.7265e-05
0.00723973
6.48948e-05
8.81531e-05
5.98694e-05
6.99771e-05
4.5969e-05
4.95268e-05
0.0491345
7.48601e-05
0.000139187
0.00585964
8.7749e-05
0.0405538
0.0471733
0.000398852
8.63897e-05
0.00205193
0.0588986
9.02543e-05
0.000115225
0.000119118
6.49926e-05
0.0421199
8.8677e-05
6.99127e-05
5.70126e-05
6.74605e-05
8.91293e-05
0.05046
5.39202e-05
8.07524e-05
5.45731e-05
5.897e-05
7.79981e-05
4.95709e-05
9.42261e-05
7.7587e-05
6.26493e-05
0.0742757
9.38154e-05
4.81392e-05
0.0505417
0.0516448
4.92263e-05
5.97207e-05
0.00136589
0.0607725
0.0064344
0.000104994
4.71364e-05
4.51869e-05
0.00519699
8.9195e-05
0.000113603
5.29403e-05
0.00329059
5.98005e-05
5.40425e-05
0.0827933
8.84796e-05
8.45162e-05
4.66222e-05
0.000121259
0.000104411
0.00554323
9.24763e-05
6.64189e-05
0.0563001
4.65963e-05
5.18746e-05
9.90791e-05
0.000105278
7.04137e-05
6.97963e-05
0.00326651
6.24888e-05
6.56546e-05
9.81515e-05
6.71026e-05
6.74668e-05
7.64526e-05
0.000103607
0.0123272
5.30484e-05
0.000129735
5.48224e-05
9.95286e-05
0.0137381
9.01583e-05
0.077705
9.55556e-05
0.0428928
7.4529e-05
8.89461e-05
0.0791007
0.0331622
0.0516571
0.0445859
8.83162e-05
0.0356158
9.17759e-05
6.44488e-05
0.0607736
0.0385458
6.97436e-05
7.02147e-05
6.114e-05
0.0798365
8.81693e-05
0.0675655
7.83482e-05
8.5341e-05
6.17811e-05
0.000250578
8.73061e-05
8.78929e-05
7.83767e-05
5.28171e-05
0.00231057
0.000103807
0.035226
0.000111606
8.22992e-05
9.2554e-05
7.67495e-05
0.000113235
7.4041e-05
5.33903e-05
7.00797e-05
0.000677643
9.86671e-05
8.50293e-05
9.03048e-05
8.43912e-05
0.00142413
6.89729e-05
0.000103811
0.0289038
6.50034e-05
9.0032e-05
0.00597229
6.39805e-05
8.86583e-05
0.0479838
8.79382e-05
4.97384e-05
8.76378e-05
0.000107072
6.14821e-05
0.000102955
0.000248536
8.76333e-05
0.000108716
0.0713794
6.45046e-05
8.30933e-05
9.70404e-05
6.82408e-05
8.72655e-05
8.99216e-05
9.26563e-05
4.69607e-05
5.77905e-05
6.31494e-05
4.78678e-05
0.0118001
5.9856e-05
4.79941e-05
0.075346
5.76506e-05
8.49872e-05
4.69624e-05
0.0500736
0.0295742
8.75472e-05
0.00816586
5.45905e-05
9.25212e-05
4.46042e-05
0.000118109
5.70822e-05
7.49382e-05
7.63485e-05
5.45304e-05
0.0619895
4.91469e-05
6.17715e-05
8.74104e-05
0.0125522
0.0427703
0.00110234
0.0323334
0.0711999
0.000107465
0.000105796
0.0779281
0.00476171
6.83765e-05
8.77246e-05
0.000104667
6.91387e-05
0.000104908
8.47086e-05
5.75434e-05
9.37595e-05
0.00445756
0.0355403
5.75156e-05
8.31042e-05
7.01239e-05
0.000113873
0.000133065
9.78145e-05
0.00395165
8.3498e-05
5.54145e-05
0.0139455
4.7803e-05
0.000106606
5.37227e-05
5.64044e-05
5.9723e-05
0.00010285
6.89246e-05
5.61724e-05
8.38572e-05
0.000109598
5.31455e-05
0.0462478
0.0451117
5.62933e-05
0.0711397
5.60882e-05
4.43255e-05
5.18192e-05
0.000103777
6.02535e-05
9.02693e-05
0.00742458
8.82132e-05
0.00187508
0.000106408
8.50027e-05
8.74781e-05
0.00429633
0.000160837
5.01493e-05
0.000465664
4.71408e-05
9.90037e-05
0.00365481
0.0539959
0.000269864
6.00264e-05
0.0560687
0.0141138
5.37223e-05
8.99305e-05
5.60792e-05
4.94937e-05
6.45526e-05
8.86542e-05
0.00682364
0.00170073
4.4705e-05
6.83783e-05
0.0113754
6.34593e-05
9.2246e-05
9.55746e-05
8.3817e-05
8.53016e-05
0.0847003
0.0046884
6.23115e-05
8.66486e-05
5.30544e-05
0.000391935
4.55142e-05
8.68875e-05
4.7654e-05
8.52827e-05
9.02559e-05
4.77079e-05
0.0761057
0.0146592
0.000135408
0.0560779
5.27143e-05
7.97879e-05
8.65363e-05
0.00399865
9.23222e-05
0.0319082
5.29775e-05
0.0865353
7.79924e-05
9.11606e-05
5.56907e-05
9.37078e-05
6.95262e-05
0.0826643
0.0539558
8.29593e-05
6.46145e-05
0.000294833
6.02585e-05
8.909e-05
8.98192e-05
0.00109598
8.87249e-05
8.65468e-05
6.011e-05
0.00219136
0.014935
4.71405e-05
7.9733e-05
8.63597e-05
5.72467e-05
8.9417e-05
5.70908e-05
6.34925e-05
7.79678e-05
8.48776e-05
9.30119e-05
8.97384e-05
0.00011935
6.95495e-05
0.0720938
7.25002e-05
8.50999e-05
0.0511577
5.03879e-05
5.02951e-05
0.0627747
8.88343e-05
0.0317403
0.0644106
8.26978e-05
9.18002e-05
7.32274e-05
0.0723141
0.0457274
8.57981e-05
0.000158193
0.0470023
7.57633e-05
0.0067199
4.6208e-05
0.0435596
0.0453624
8.89259e-05
0.0610771
5.52582e-05
0.00226624
0.000107579
0.0430205
8.94669e-05
0.00995997
6.80792e-05
4.85937e-05
6.26108e-05
8.2033e-05
0.000103201
7.57647e-05
5.24962e-05
5.25885e-05
0.0584747
0.0684436
6.54348e-05
0.0546694
0.00149728
8.92531e-05
7.44351e-05
5.04359e-05
0.00528441
7.76507e-05
9.43402e-05
0.000149232
0.0424837
0.000259857
4.84929e-05
5.44992e-05
9.15664e-05
0.00734512
5.84096e-05
0.034244
7.40622e-05
4.79935e-05
7.64615e-05
0.0358817
7.33079e-05
0.00322096
8.18073e-05
8.8214e-05
8.67841e-05
5.68407e-05
7.52866e-05
5.52826e-05
0.00498798
0.00624327
0.000249565
6.08268e-05
8.40058e-05
5.23606e-05
6.06528e-05
0.044899
0.000103239
0.00402857
6.11511e-05
0.0255549
7.18428e-05
5.98512e-05
0.000108163
0.0510195
9.15492e-05
5.03082e-05
7.61273e-05
0.00252935
0.0060675
6.01565e-05
0.000114155
8.04321e-05
4.4927e-05
7.44601e-05
0.0608159
0.000139049
6.49686e-05
0.0655329
0.0837449
0.0452473
0.00216089
7.95921e-05
0.0432929
0.000104825
8.69244e-05
0.00437458
0.044116
9.00411e-05
0.000117057
0.000103994
6.80866e-05
8.93512e-05
0.000147216
0.000142544
7.18091e-05
4.8751e-05
0.000126947
9.1508e-05
9.23065e-05
7.32443e-05
0.00164095
8.40155e-05
0.00129873
8.97293e-05
8.77872e-05
0.000170251
8.17147e-05
8.9106e-05
0.0363334
8.8202e-05
0.0837742
0.00032333
0.0126085
0.000108428
9.18113e-05
0.0293118
7.6579e-05
6.5719e-05
0.000105581
5.39079e-05
4.90948e-05
0.0680432
0.000107365
8.93396e-05
8.81132e-05
8.72772e-05
5.36404e-05
4.62114e-05
0.000103618
7.97837e-05
0.0418532
7.13427e-05
0.00214749
7.67359e-05
0.0631289
5.45385e-05
4.55235e-05
0.0201226
7.20238e-05
0.00501705
4.87456e-05
0.000174312
9.2567e-05
8.65822e-05
8.9426e-05
0.00137469
5.36352e-05
6.54276e-05
5.16398e-05
4.48749e-05
0.0509737
5.14607e-05
5.51846e-05
0.0391861
0.03968
7.68244e-05
0.0600077
8.96945e-05
7.7677e-05
0.000102472
9.06375e-05
9.05846e-05
0.0718623
8.62557e-05
0.00011407
9.02107e-05
0.0489305
0.0430063
4.9185e-05
5.22936e-05
7.62839e-05
0.0187931
7.69806e-05
0.0438029
7.76141e-05
4.95436e-05
5.36981e-05
5.5322e-05
5.05356e-05
5.49472e-05
0.000103137
0.000108757
0.013203
5.18117e-05
7.7064e-05
0.0348451
7.14887e-05
5.60618e-05
0.0500168
9.86458e-05
9.04158e-05
7.48209e-05
7.06576e-05
0.000780766
8.70367e-05
0.00764132
7.95506e-05
8.82758e-05
9.83836e-05
0.000266853
8.91889e-05
0.0509402
0.000949964
0.084998
0.000157326
7.61496e-05
0.000101481
0.0650669
5.36291e-05
0.000105385
4.68052e-05
8.63662e-05
8.57312e-05
0.0684827
5.21238e-05
0.0357722
8.27208e-05
0.00622959
8.35472e-05
0.000112612
0.00010412
0.000114721
0.0370322
0.013106
4.64369e-05
0.0615114
4.93702e-05
0.0720973
8.58104e-05
0.00010662
9.06621e-05
8.89669e-05
8.81261e-05
5.95539e-05
7.75573e-05
0.000114235
5.73792e-05
4.46521e-05
4.97496e-05
7.58612e-05
8.77878e-05
4.64199e-05
4.67834e-05
0.00103615
5.52318e-05
0.00172283
6.8894e-05
8.93963e-05
5.99735e-05
9.68386e-05
4.61041e-05
0.000263816
5.82182e-05
0.0551041
8.08177e-05
8.80529e-05
5.02569e-05
6.10809e-05
4.46233e-05
8.41511e-05
7.62684e-05
8.47547e-05
0.0746244
6.16863e-05
0.0505969
0.0239762
0.000169083
4.60653e-05
6.11228e-05
0.0649908
0.0140693
0.0126288
0.00112834
0.00254317
0.0377151
0.00236844
9.14877e-05
0.0524382
7.55638e-05
9.31679e-05
5.02681e-05
0.000120896
7.14393e-05
9.02414e-05
0.000103807
6.52505e-05
0.0217618
6.55229e-05
8.25704e-05
0.000129829
0.0562174
0.00038923
0.000134043
0.0053594
8.74286e-05
7.52915e-05
5.34108e-05
6.03484e-05
0.0766839
0.0700083
6.86894e-05
5.95241e-05
0.0165814
9.66778e-05
0.00428338
8.44684e-05
8.31013e-05
8.83905e-05
0.00673762
8.96454e-05
5.33983e-05
4.76482e-05
6.13331e-05
6.86978e-05
7.62207e-05
8.97694e-05
0.0598463
0.076774
5.38458e-05
0.0382902
4.85754e-05
0.0299042
0.000388277
0.0139403
4.77216e-05
7.81516e-05
0.0589658
4.76722e-05
0.0522229
8.79253e-05
4.77653e-05
8.63172e-05
6.79373e-05
0.063408
8.20526e-05
5.62214e-05
0.000118399
8.81254e-05
9.66729e-05
7.63158e-05
0.0700763
4.96102e-05
7.61281e-05
6.04007e-05
8.73339e-05
9.40735e-05
9.13898e-05
8.92391e-05
8.66671e-05
0.0259964
9.04511e-05
4.48291e-05
7.47327e-05
5.94681e-05
8.04241e-05
0.000111
9.92374e-05
0.086332
7.89993e-05
8.88427e-05
0.000140322
7.41097e-05
0.0365007
0.000114829
4.47809e-05
7.67499e-05
0.027077
6.79317e-05
9.03982e-05
6.88378e-05
7.53756e-05
8.41137e-05
7.87997e-05
0.0658218
8.89521e-05
8.33967e-05
7.72237e-05
0.0319307
0.000186987
5.907e-05
7.72612e-05
0.00569183
5.99392e-05
0.0471997
5.34476e-05
7.92238e-05
0.0209803
8.62018e-05
0.0225968
9.65472e-05
0.0747059
8.39852e-05
5.06589e-05
6.13761e-05
9.04081e-05
6.48255e-05
8.78483e-05
0.0151747
0.069069
8.00177e-05
8.77461e-05
0.0317647
0.060652
0.0217895
0.000114827
3.47923e-05
4.5858e-05
0.0230479
4.78352e-05
0.000151417
9.64772e-05
0.0516172
4.75231e-05
8.02388e-05
5.33526e-05
6.06511e-05
0.00588196
7.98052e-05
0.000175523
6.26762e-05
9.5971e-05
0.0628022
7.92246e-05
6.32613e-05
6.492e-05
0.0176995
0.021857
0.0148921
0.000133075
7.73536e-05
0.0623551
7.71465e-05
5.75263e-05
7.73209e-05
8.70469e-05
0.000127708
0.000103881
0.0017705
0.000818745
5.97826e-05
0.000117457
0.0794301
0.0383943
0.0274886
0.0470897
0.0213452
0.000100818
0.00010313
0.0500796
7.92086e-05
9.08652e-05
7.91016e-05
0.0147165
0.0197761
0.0637681
9.09506e-05
3.45099e-05
5.37549e-05
7.62144e-05
6.08456e-05
8.86251e-05
7.8455e-05
0.000180399
8.0148e-05
0.0628083
8.96701e-05
7.02096e-05
7.57958e-05
0.0742302
0.000560597
9.01959e-05
0.0359186
7.87251e-05
0.000748875
7.23514e-05
6.99147e-05
7.87434e-05
6.20594e-05
5.87078e-05
8.21473e-05
0.03217
4.57895e-05
4.49313e-05
0.0739396
0.0395241
7.01005e-05
8.69206e-05
7.48389e-05
0.0645398
5.08887e-05
9.05131e-05
0.0108385
7.55172e-05
0.025876
5.46629e-05
8.99411e-05
5.93419e-05
0.0607986
8.61062e-05
8.36989e-05
5.53317e-05
0.048026
8.7661e-05
5.47439e-05
8.24266e-05
8.45996e-05
0.0324884
5.85915e-05
0.036189
6.21194e-05
7.6377e-05
0.000153912
7.08279e-05
4.98835e-05
6.11504e-05
6.19435e-05
8.77224e-05
0.0603446
0.0380914
0.000112937
9.32598e-05
7.51631e-05
8.86718e-05
7.93019e-05
7.93642e-05
0.000134881
5.34362e-05
0.0518511
7.70892e-05
5.34902e-05
0.000102472
5.49186e-05
7.69698e-05
0.000148203
7.79572e-05
4.537e-05
6.48601e-05
5.72683e-05
5.28446e-05
4.98736e-05
7.82813e-05
0.000164828
6.88143e-05
0.000264777
0.00507396
0.00351708
6.17993e-05
0.015251
5.73543e-05
8.63646e-05
0.000106422
0.0061092
5.41904e-05
0.000101949
5.39563e-05
4.76185e-05
6.05908e-05
4.43779e-05
8.22226e-05
8.61533e-05
8.45353e-05
0.000150364
0.0229858
5.52363e-05
5.30581e-05
7.16213e-05
0.000278286
8.69123e-05
0.0563846
8.85186e-05
8.5028e-05
7.61459e-05
7.96281e-05
0.000199902
0.000326549
5.52346e-05
5.00211e-05
5.1623e-05
8.07269e-05
0.0314025
6.20478e-05
9.21099e-05
8.81526e-05
4.50421e-05
0.000185988
6.90934e-05
6.25025e-05
9.0866e-05
5.29791e-05
0.0738674
0.000145062
4.93905e-05
0.00192887
6.86532e-05
0.000140178
5.79982e-05
8.98836e-05
8.57392e-05
0.0068827
6.29839e-05
6.29755e-05
8.59241e-05
9.00516e-05
0.000105966
5.21764e-05
0.00018693
7.54676e-05
7.8264e-05
8.47368e-05
0.079221
0.0121241
5.2976e-05
0.0102333
8.83911e-05
0.000112967
0.0298681
9.03026e-05
0.0469168
0.0123487
0.0677985
6.07251e-05
0.00556392
0.00541444
0.0541288
9.18394e-05
0.0143352
0.00185415
5.46028e-05
7.86513e-05
0.0104266
6.35592e-05
0.0569504
7.75374e-05
0.055387
0.0139226
0.0141622
6.92148e-05
6.35701e-05
6.27532e-05
7.911e-05
0.0174228
9.16339e-05
6.50225e-05
9.17489e-05
8.96765e-05
2.42367e-05
0.00599416
9.01896e-05
5.16661e-05
4.86609e-05
0.0425812
0.0419487
0.000114919
5.24505e-05
0.00941573
8.83681e-05
4.49658e-05
4.84905e-05
4.50471e-05
7.5177e-05
6.26789e-05
0.0312448
0.0189406
4.48586e-05
9.97633e-05
0.00473685
0.0040364
6.18892e-05
5.41342e-05
7.15809e-05
0.00631457
7.05481e-05
0.0664773
9.81178e-05
0.00204598
8.61455e-05
5.15768e-05
7.69208e-05
4.51923e-05
0.000108548
4.73246e-05
5.15666e-05
6.03988e-05
0.00204579
0.000364702
4.86922e-05
6.46902e-05
8.23499e-05
7.19826e-05
0.0044921
6.61478e-05
6.72113e-05
0.00808977
6.72951e-05
0.0498148
0.00870366
9.69575e-05
0.0108746
0.0511349
0.00937399
0.000115263
0.00351606
8.46401e-05
7.3921e-05
8.79247e-05
6.05463e-05
0.000100432
8.47982e-05
8.00045e-05
7.85421e-05
7.88034e-05
0.000147984
8.43486e-05
0.041572
9.05433e-05
9.71228e-05
6.60898e-05
5.70039e-05
9.09594e-05
0.000109649
7.40428e-05
6.57826e-05
6.46015e-05
4.82103e-05
8.52567e-05
8.54807e-05
4.95463e-05
8.867e-05
8.1403e-05
4.47708e-05
8.14762e-05
0.0464159
0.000179746
7.38578e-05
6.20365e-05
0.000142408
0.0639959
0.00435409
9.36496e-05
5.97879e-05
0.0584433
9.40654e-05
8.34973e-05
9.05413e-05
0.00266344
6.04327e-05
0.0462559
8.52617e-05
9.01411e-05
9.2721e-05
4.71959e-05
6.05613e-05
4.58611e-05
0.00519666
0.000236731
0.0869064
7.19952e-05
0.0252976
0.000109374
6.02541e-05
5.55235e-05
0.000132525
8.16884e-05
0.0536362
0.000112695
8.81075e-05
9.64796e-05
0.000111363
0.000100301
6.54258e-05
0.0163752
6.00479e-05
0.00018865
0.0295765
6.03569e-05
8.20229e-05
0.00011116
0.0295753
0.00307711
8.46015e-05
0.0360462
5.73046e-05
0.0400836
9.465e-05
0.0394087
0.0230444
6.08577e-05
8.13768e-05
0.000455575
0.000109805
0.048585
0.000366887
4.59199e-05
5.16373e-05
7.42029e-05
9.02538e-05
8.94168e-05
0.022267
8.45678e-05
0.0620457
6.01287e-05
0.000104589
8.42348e-05
0.000152208
4.46516e-05
0.000336917
4.82052e-05
9.52533e-05
4.46084e-05
5.71786e-05
6.00856e-05
9.89521e-05
8.45735e-05
8.77332e-05
0.0159535
6.35829e-05
5.02439e-05
0.0049492
7.62515e-05
0.00010953
0.0416439
0.0060047
8.53717e-05
5.30446e-05
7.55472e-05
0.0116512
9.00028e-05
6.01482e-05
8.28532e-05
0.0076011
4.61483e-05
0.000765064
8.99361e-05
0.00617188
0.000104381
8.1809e-05
7.60417e-05
7.21974e-05
0.0236735
0.0505883
0.00575631
7.1061e-05
0.046846
0.0223621
0.0480169
6.20274e-05
6.76827e-05
0.000103142
6.61526e-05
6.10236e-05
5.20749e-05
7.07548e-05
6.58677e-05
5.16944e-05
5.16255e-05
6.60767e-05
5.11206e-05
4.74056e-05
7.86472e-05
6.3917e-05
0.0653578
8.22187e-05
4.60386e-05
0.0101956
8.51324e-05
0.00965166
0.0118322
0.00013658
0.029139
6.12856e-05
0.00937546
6.74306e-05
0.0106133
5.98201e-05
0.0121487
0.000139176
0.0617316
6.09386e-05
7.68341e-05
0.00283841
0.000131421
0.00012093
4.68939e-05
7.97856e-05
0.0175911
7.77864e-05
8.11332e-05
6.83124e-05
6.48109e-05
0.049836
8.61216e-05
6.80802e-05
9.80053e-05
0.00150373
0.041649
8.69375e-05
5.39889e-05
7.39845e-05
4.87949e-05
4.55026e-05
0.0527151
0.0104807
4.42798e-05
6.00631e-05
0.00575944
9.0384e-05
5.94597e-05
6.03435e-05
8.46312e-05
6.3262e-05
4.46627e-05
6.83536e-05
6.4693e-05
5.06776e-05
9.09466e-05
0.00368583
0.0136277
7.73223e-05
6.02371e-05
4.9118e-05
0.0497908
0.000161531
9.464e-05
5.06016e-05
0.000138115
5.59337e-05
6.12166e-05
4.95143e-05
5.91811e-05
0.000143577
6.00967e-05
0.0375819
0.00569991
0.0179796
5.26412e-05
0.000105555
0.00118305
0.0522818
0.00684936
0.0599492
8.62396e-05
0.0614092
7.78148e-05
0.000134963
5.53018e-05
0.00982314
6.62836e-05
8.63337e-05
9.00931e-05
0.00338514
7.05257e-05
0.05429
0.00805508
6.66814e-05
5.09701e-05
9.16168e-05
8.63276e-05
8.47142e-05
7.5976e-05
0.0254996
6.54919e-05
9.07211e-05
4.98921e-05
0.0643836
9.07425e-05
6.47746e-05
8.41544e-05
5.3488e-05
8.48252e-05
0.0859801
7.22609e-05
8.35942e-05
5.68561e-05
0.0145213
6.36301e-05
0.0048599
5.92105e-05
4.91667e-05
0.00451238
6.07757e-05
8.36206e-05
5.3986e-05
4.98406e-05
9.1867e-05
6.4744e-05
7.43473e-05
0.0588305
8.78564e-05
6.82433e-05
9.57891e-05
0.00598957
5.21359e-05
0.000156095
4.7454e-05
0.00636345
5.39132e-05
6.58617e-05
0.00626575
6.17283e-05
7.74172e-05
5.77044e-05
0.0667504
0.0384812
5.67317e-05
0.0132095
4.51192e-05
5.18094e-05
0.0547727
7.72173e-05
7.19068e-05
9.7499e-05
9.53313e-05
0.000101266
0.000103966
6.71177e-05
9.07862e-05
5.18794e-05
0.000229668
0.00610689
8.7572e-05
7.42115e-05
4.75422e-05
0.0161178
8.88648e-05
0.00574086
0.0657421
9.05398e-05
4.69907e-05
8.36631e-05
0.000150975
0.000305076
4.7117e-05
4.43648e-05
0.000116265
7.90742e-05
5.38985e-05
8.81946e-05
0.0647877
8.75159e-05
0.0641588
5.50917e-05
0.00876452
4.50099e-05
9.17286e-05
0.000285454
0.00389285
0.0048596
6.04555e-05
6.36138e-05
0.000107038
5.34665e-05
6.54147e-05
0.00753857
0.00195648
0.000113434
4.87504e-05
0.0706049
0.017702
0.0406741
8.75568e-05
6.15732e-05
8.14471e-05
9.06007e-05
0.0045269
7.69426e-05
4.93103e-05
0.0570812
0.0109929
0.00503997
9.75452e-05
6.05118e-05
0.000175516
0.0525633
0.0671815
0.00612362
6.72485e-05
0.000114874
5.96628e-05
0.016758
0.00417702
0.0513333
0.00010328
0.0491816
4.99433e-05
5.6553e-05
8.77901e-05
0.0686407
7.288e-05
5.98363e-05
0.00515974
8.51761e-05
9.17568e-05
5.50009e-05
8.40209e-05
7.22835e-05
0.00415133
0.000245661
5.34881e-05
7.97215e-05
9.08603e-05
0.000113558
8.88632e-05
7.43742e-05
0.00638646
7.78788e-05
0.00485004
0.0158476
0.00678445
5.61721e-05
7.1051e-05
0.045263
0.0147162
5.92289e-05
0.0573844
0.0717938
7.13033e-05
0.0372549
8.65534e-05
7.89122e-05
9.87761e-05
8.56975e-05
0.0414778
6.50872e-05
6.12364e-05
8.03092e-05
9.06131e-05
0.0356465
8.61811e-05
8.5922e-05
0.0539691
0.0593822
6.08817e-05
0.00433842
0.0066151
5.12072e-05
5.68181e-05
8.18851e-05
0.000137368
7.73617e-05
0.000110478
0.0734065
5.49894e-05
9.94543e-05
0.0052856
9.79459e-05
0.00367073
6.1405e-05
0.00012015
0.0708091
0.0364752
8.42755e-05
8.95986e-05
0.0610463
0.0409327
6.03724e-05
6.19356e-05
0.000265946
9.23281e-05
9.10946e-05
8.72485e-05
0.00911569
4.92701e-05
5.82031e-05
0.00027009
6.94467e-05
9.14771e-05
0.00447529
0.000119098
7.84951e-05
6.67839e-05
0.000102196
5.97802e-05
0.000135779
0.0123893
0.0109368
5.94624e-05
6.90452e-05
4.42896e-05
8.73829e-05
4.84002e-05
0.000158364
7.27832e-05
9.02817e-05
0.0496723
8.91798e-05
7.38602e-05
0.000132501
9.59179e-05
8.78177e-05
0.0227353
0.0120918
4.83129e-05
8.40773e-05
0.0491474
9.61759e-05
0.00908383
6.49363e-05
9.04594e-05
8.4768e-05
0.000137564
0.069338
8.98722e-05
6.14148e-05
0.000128617
9.45239e-05
5.20708e-05
0.000107365
5.69368e-05
8.7424e-05
8.9106e-05
9.59162e-05
5.15804e-05
7.31201e-05
7.83367e-05
0.000104209
0.0417563
9.14133e-05
9.87747e-05
8.24109e-05
9.95391e-05
5.21035e-05
8.8081e-05
8.57479e-05
6.02497e-05
0.000135539
0.0717656
0.000102943
7.56064e-05
6.92021e-05
0.0668326
6.67399e-05
8.76938e-05
0.020603
7.76631e-05
8.52733e-05
0.0869138
8.58853e-05
5.81015e-05
0.0293153
9.05837e-05
8.72563e-05
0.00887331
0.00286073
5.54522e-05
8.73751e-05
0.0740932
8.21313e-05
8.45077e-05
7.30656e-05
8.30235e-05
0.0107981
9.18807e-05
9.84177e-05
4.43304e-05
9.14506e-05
8.79004e-05
4.82798e-05
0.0281507
7.28417e-05
0.00253387
0.000197419
5.17046e-05
8.31739e-05
0.0073215
0.000156422
8.47809e-05
8.94573e-05
0.0756772
7.48974e-05
0.0350156
0.0778868
7.91909e-05
0.00647535
0.0851295
0.000116997
8.50455e-05
7.03521e-05
0.000321783
8.05523e-05
0.054548
9.15374e-05
5.79546e-05
5.92747e-05
0.000117263
9.84376e-05
8.50113e-05
0.0335182
0.0581159
7.23064e-05
6.89093e-05
5.93024e-05
0.00010981
8.45089e-05
5.64692e-05
0.00236917
0.0474964
0.000158505
0.00677255
0.000115129
7.71958e-05
7.62481e-05
6.02036e-05
4.4059e-05
0.0113181
7.07322e-05
9.04098e-05
9.51624e-05
8.06588e-05
0.02621
8.569e-05
0.0268706
0.0260461
9.75099e-05
9.86869e-05
0.00032808
6.57437e-05
8.23404e-05
0.0551031
4.67074e-05
0.000111381
0.0662975
0.000106254
0.000373857
4.80682e-05
0.00718136
0.0281271
0.00115484
0.00953862
4.62582e-05
0.00264642
0.00061729
0.000142996
0.00984736
8.43883e-05
0.0549427
0.00425932
0.00592819
0.00344135
7.21724e-05
0.0510076
0.0107653
0.0337799
0.0369714
0.00553311
0.0513132
0.032778
8.82083e-05
7.73529e-05
0.0361809
5.78315e-05
8.82819e-05
4.65111e-05
0.0503049
0.000100873
7.69663e-05
0.0503161
7.44078e-05
0.0124327
0.000188758
9.48851e-05
5.76499e-05
4.65828e-05
0.00307944
0.0720739
5.97587e-05
8.37379e-05
8.59407e-05
8.77041e-05
9.21673e-05
5.9184e-05
6.72377e-05
6.54264e-05
5.73947e-05
0.0500035
9.79867e-05
0.00655794
0.000830823
6.14368e-05
0.0645894
7.14189e-05
8.84906e-05
5.96094e-05
5.94788e-05
0.000102739
6.12952e-05
6.31888e-05
0.00718092
6.92101e-05
9.23552e-05
8.28964e-05
7.46777e-05
0.000143061
8.48015e-05
4.62331e-05
6.1124e-05
7.80746e-05
5.9973e-05
5.93221e-05
5.46696e-05
0.000110846
0.0492356
8.82518e-05
8.74691e-05
8.74167e-05
8.18983e-05
0.0385268
7.39976e-05
0.00462959
8.57914e-05
0.000107201
4.95137e-05
6.44664e-05
6.16931e-05
7.83769e-05
0.00386271
0.0862933
0.0700393
5.68079e-05
0.0145369
0.000116331
0.00458012
5.55191e-05
0.0009663
0.0742129
5.46613e-05
0.00197085
0.0453624
0.0421892
8.89865e-05
8.74893e-05
5.98657e-05
0.000133064
7.81641e-05
0.0492397
0.0148114
6.88849e-05
0.00424017
7.14432e-05
4.52471e-05
0.017964
8.34418e-05
7.41047e-05
0.0765306
0.055093
0.000113776
7.4165e-05
6.38885e-05
0.00913934
6.43588e-05
0.00143822
6.79172e-05
5.11498e-05
7.26078e-05
9.01918e-05
0.0153519
0.000380643
7.78106e-05
0.000812624
6.0058e-05
0.0636665
0.0570782
0.00012283
0.00888955
9.05565e-05
0.064703
9.12765e-05
8.50389e-05
8.72493e-05
5.44748e-05
0.00632455
8.6749e-05
5.28111e-05
5.40385e-05
0.00287137
0.000357906
0.0519671
0.000208805
7.38111e-05
8.15569e-05
0.0701664
0.0113969
7.80723e-05
6.58566e-05
0.0400438
0.000218928
0.0236557
0.00174618
0.000116259
6.69353e-05
5.41048e-05
0.0495848
0.0288764
0.000115337
6.51109e-05
6.48711e-05
0.0495335
7.95006e-05
5.62286e-05
0.0699506
0.0285702
9.94194e-05
9.10051e-05
0.000105683
0.000275599
5.47584e-05
7.3945e-05
5.86296e-05
0.000568639
8.45602e-05
0.000117716
8.31807e-05
0.00638451
0.0367085
0.000174033
0.0530017
9.29676e-05
8.43238e-05
0.000102779
0.00277329
0.000107193
5.66255e-05
0.00659059
0.00635393
5.89756e-05
8.25754e-05
8.44534e-05
5.77708e-05
0.00010708
0.0675779
8.06858e-05
9.42273e-05
9.47017e-05
0.0001015
0.000263494
0.000977637
0.000198413
5.58102e-05
0.00658847
8.41266e-05
0.0370396
9.13926e-05
9.08974e-05
0.0868105
7.13945e-05
0.000197375
4.47315e-05
8.46113e-05
8.23645e-05
0.000146253
0.0739602
9.31574e-05
0.0573097
5.08532e-05
0.00950761
4.74444e-05
0.00651842
7.40037e-05
5.91693e-05
5.37742e-05
7.438e-05
0.00462204
9.09375e-05
9.33288e-05
0.0636261
0.0277717
0.0601485
5.79226e-05
8.63523e-05
8.80275e-05
0.00010645
0.000126157
8.47128e-05
8.18786e-05
0.00654213
0.0413475
0.0648704
0.000125682
7.15783e-05
0.0425841
0.00011942
8.33356e-05
7.37365e-05
0.00657115
9.30457e-05
0.000585334
5.75506e-05
0.0439355
7.25254e-05
5.39622e-05
0.000252281
0.0258423
8.44011e-05
0.0695042
0.000115513
8.41489e-05
0.0368876
9.13048e-05
8.51092e-05
7.59628e-05
8.22489e-05
0.000100726
0.00010295
0.0753868
9.30022e-05
7.68809e-05
0.0355425
0.000271987
0.000234146
7.41396e-05
0.00336877
6.07713e-05
0.000101988
0.00609746
0.0450081
9.19028e-05
0.0103702
0.00619449
8.68771e-05
0.0668489
0.000100623
5.75506e-05
0.000101739
0.000157418
0.0633805
0.000111131
6.68177e-05
7.12038e-05
5.36858e-05
6.02069e-05
6.14581e-05
8.55313e-05
0.0706917
0.000102582
0.000124934
8.03137e-05
0.0190711
7.91109e-05
9.48752e-05
0.00904219
7.79512e-05
0.00340935
0.0550717
0.00963176
0.0812
8.88491e-05
8.71765e-05
0.000103276
8.7155e-05
5.61682e-05
5.90936e-05
0.000235917
0.00083084
0.0441358
5.79637e-05
9.26872e-05
0.00231471
8.88289e-05
0.0718241
7.29666e-05
6.10414e-05
8.93711e-05
6.38727e-05
0.0026432
8.38096e-05
8.64176e-05
6.08501e-05
0.000103235
4.96977e-05
0.000202786
8.58554e-05
8.82191e-05
0.0225822
0.000331814
0.000104518
7.95935e-05
9.1536e-05
0.000106119
9.43296e-05
0.000475028
5.68313e-05
0.00610425
8.98725e-05
0.011159
8.40739e-05
6.04475e-05
8.17239e-05
8.33751e-05
9.93655e-05
6.07157e-05
0.000104041
7.44447e-05
7.01577e-05
8.93431e-05
7.17989e-05
7.77127e-05
9.40473e-05
0.0616848
0.0427093
0.0773569
0.0769326
8.99358e-05
9.30198e-05
7.51448e-05
0.0689397
0.0513216
0.000101446
0.00155361
7.01332e-05
0.000191956
0.000534654
5.50008e-05
6.81397e-05
7.54528e-05
8.70951e-05
0.00475819
6.08569e-05
7.75229e-05
0.0479726
0.0752575
9.1e-05
0.000104035
5.9543e-05
6.6921e-05
0.0064609
8.27479e-05
5.40479e-05
0.0375573
0.0591605
0.00963973
0.000143211
0.0546849
8.52471e-05
0.0112661
0.01449
0.00912773
8.57072e-05
0.0723895
8.92048e-05
9.06324e-05
0.00446093
0.00010245
0.0385127
7.84489e-05
0.0249819
0.00439795
8.43451e-05
4.73346e-05
8.20826e-05
0.000102292
0.000102836
0.000247012
0.000559631
0.00901847
0.00588638
0.0692488
5.96282e-05
9.01334e-05
0.000132774
0.00791512
8.61258e-05
7.94391e-05
0.000107979
0.000139773
8.77195e-05
5.72753e-05
0.0126664
0.0665208
0.00234147
5.7828e-05
0.0625256
7.16459e-05
4.78148e-05
9.32658e-05
0.00934113
0.000225681
0.000117175
4.44618e-05
0.0058038
4.79023e-05
5.83238e-05
0.0442278
0.00569963
5.88741e-05
8.39837e-05
7.68858e-05
7.75284e-05
7.17406e-05
6.71597e-05
5.90027e-05
0.00388009
9.02339e-05
7.35432e-05
7.65757e-05
4.89162e-05
5.85196e-05
0.07172
0.00505523
8.74768e-05
0.0561659
0.000610708
0.0544421
0.0373166
6.64839e-05
6.96401e-05
5.10976e-05
9.22232e-05
0.0722996
0.0446664
8.87805e-05
0.0344426
0.0581723
0.000271083
0.0279671
0.0803368
0.0872764
5.96802e-05
0.00521228
6.67218e-05
0.00243454
5.16526e-05
7.78507e-05
0.000101847
0.000108299
5.35546e-05
8.69664e-05
8.57332e-05
8.70658e-05
0.0857975
8.70464e-05
0.047983
8.23762e-05
5.49273e-05
0.0658366
8.62623e-05
0.0274426
6.10336e-05
0.000110424
0.0486261
5.87476e-05
0.0753052
5.98076e-05
0.000793474
0.084739
0.0745702
6.08704e-05
0.0020328
7.26756e-05
7.92562e-05
5.72728e-05
6.41564e-05
0.00563238
0.000283977
0.00512374
9.71081e-05
8.50428e-05
6.60351e-05
0.00498438
0.020907
0.00387226
0.0333566
5.96815e-05
0.0553478
0.0453832
8.84617e-05
0.0258135
0.000103882
0.00605097
7.78596e-05
5.41327e-05
0.0289849
7.37447e-05
9.80293e-05
7.80818e-05
0.0442745
4.41697e-05
8.76417e-05
4.41927e-05
8.77009e-05
6.23888e-05
0.00428709
0.0694571
9.19816e-05
0.000164477
6.98494e-05
0.000132554
8.40865e-05
7.03264e-05
0.0433572
0.00160606
5.76973e-05
6.44798e-05
0.00179033
4.67673e-05
0.0279911
5.52359e-05
4.80609e-05
8.42116e-05
0.0682391
0.00570969
6.14335e-05
0.00231943
0.0765197
9.10225e-05
8.55795e-05
6.12024e-05
0.000103015
0.0693558
0.0708593
0.0266921
0.0674402
8.14846e-05
0.000102624
8.39807e-05
0.0356025
0.0604583
6.84427e-05
5.68163e-05
0.000749939
7.89021e-05
8.89636e-05
9.54351e-05
0.00256738
0.0739345
8.85912e-05
8.57235e-05
9.7954e-05
0.00399068
8.2197e-05
5.14301e-05
0.057095
7.18329e-05
0.000212709
6.42598e-05
6.74924e-05
8.51076e-05
0.00643564
6.73871e-05
7.26707e-05
0.000107779
0.0691627
0.0506145
6.7401e-05
0.0358561
8.54121e-05
5.95121e-05
0.000138803
7.01906e-05
8.10221e-05
0.000647705
7.6571e-05
8.46367e-05
9.72259e-05
0.000103862
8.66738e-05
6.51006e-05
7.38466e-05
0.00337338
8.56708e-05
7.97925e-05
8.7025e-05
0.0322444
8.83493e-05
8.6985e-05
9.05475e-05
8.69707e-05
0.00416984
9.72071e-05
0.0572617
0.000261148
0.000241792
0.0723918
8.80015e-05
0.000104738
6.22821e-05
0.00714617
7.12266e-05
0.0588716
0.0775727
0.0054792
7.30836e-05
5.33683e-05
5.78306e-05
0.0391852
0.0339623
0.0214058
5.83173e-05
0.000101514
6.27011e-05
0.0771327
0.0485633
0.0232766
5.38182e-05
0.0368552
0.0623163
5.95212e-05
0.0774819
0.0380971
0.0270545
8.83671e-05
9.48665e-05
0.000118604
4.96614e-05
0.000104216
0.000859707
0.00416645
9.1561e-05
0.00667142
0.045319
0.000192752
8.57837e-05
0.0506478
9.50263e-05
6.20412e-05
0.073134
6.16561e-05
8.22697e-05
0.0578399
0.00322646
0.00654486
0.0742219
0.0430293
8.91964e-05
0.000185979
5.90985e-05
5.79505e-05
0.0352973
9.39502e-05
5.09681e-05
5.93512e-05
6.7613e-05
8.5544e-05
9.04647e-05
0.00696303
9.06065e-05
0.000111636
0.0495565
7.52686e-05
5.22941e-05
9.12408e-05
4.83561e-05
0.0736182
0.0163387
8.82212e-05
0.000109259
6.09014e-05
6.70284e-05
0.000342202
0.000210476
8.73136e-05
7.76606e-05
0.0531218
4.94525e-05
0.00648707
6.74676e-05
0.00014447
0.000120628
0.000167618
6.52416e-05
0.000201526
0.000201463
8.39805e-05
0.00480642
4.73128e-05
6.5012e-05
7.78368e-05
7.94975e-05
8.6406e-05
8.63712e-05
6.89691e-05
0.00656077
5.92208e-05
8.81938e-05
0.000665664
0.085672
0.0728488
9.59339e-05
6.40283e-05
4.83568e-05
9.09045e-05
0.000327901
6.48794e-05
9.88369e-05
0.0281171
7.17451e-05
5.34549e-05
7.29419e-05
0.045405
8.29466e-05
0.000190205
9.50228e-05
0.000177892
0.0472299
0.0766964
0.0513939
0.0771491