/*--------------------------------*- C++ -*----------------------------------*\
| =========                 |                                                 |
| \\      /  F ield         | OpenFOAM: The Open Source CFD Toolbox           |
|  \\    /   O peration     | Version:  v2012                                 |
|   \\  /    A nd           | Website:  www.openfoam.com                      |
|    \\/     M anipulation  |                                                 |
\*---------------------------------------------------------------------------*/
FoamFile
{
    version     2.0;
    format      ascii;
    class       volScalarField;
    location    "300";
    object      epsilon_0;
}
// * * * * * * * * * * * * * * * * * * * * * * * * * * * * * * * * * * * * * //

dimensions      [0 2 -3 0 0 0 0];


internalField   nonuniform List<scalar> 
33474
(
1.60131e-06
2.66363e-06
2.21896e-06
1.27117e-06
1.59188e-06
1.27502e-06
8.23245e-07
1.51198e-06
9.73242e-07
0.00246695
1.10566e-06
1.32795e-06
8.20031e-07
1.58336e-06
1.64326e-06
7.68033e-07
6.15074e-07
3.62941e-06
1.49944e-06
1.13814e-06
2.18901e-06
5.25735e-06
1.25938e-06
1.6036e-06
1.24601e-06
1.32807e-06
8.35908e-07
1.80622e-06
4.74156e-06
6.36289e-07
4.18127e-07
1.26368e-06
2.4864e-06
3.50734e-06
7.08356e-07
1.09245e-06
0.00281649
1.56553e-06
1.31872e-06
1.5937e-06
1.17327e-06
6.3449e-07
1.2708e-06
1.25841e-06
0.00554368
5.61788e-05
8.10873e-05
1.7084e-06
2.62254e-05
7.03989e-07
1.47027e-06
9.30894e-07
1.59156e-06
8.18125e-07
1.28916e-06
1.79761e-06
1.29303e-06
2.05739e-06
1.58921e-06
1.50273e-06
1.31424e-06
7.65419e-05
0.00277502
1.73331e-06
6.86126e-07
1.45061e-06
5.34817e-07
0.00655085
9.2872e-07
1.52945e-06
9.99286e-05
7.75461e-05
2.17369e-06
6.82931e-07
6.20592e-05
1.16107e-06
7.82616e-06
1.47776e-06
1.58562e-06
1.6015e-06
0.00261764
1.33664e-06
1.26477e-05
7.06868e-07
1.71133e-06
7.17703e-07
2.21136e-06
0.00944547
0.00049548
4.90348e-07
1.26478e-06
7.02643e-07
1.5804e-06
1.16425e-06
8.2261e-07
1.70662e-06
1.70136e-06
1.53176e-06
9.2378e-07
1.46717e-06
2.24396e-06
9.84929e-06
1.5468e-06
2.04738e-05
4.15898e-07
5.2322e-07
1.47489e-06
1.54246e-06
9.22202e-07
6.25125e-07
1.59536e-06
5.33304e-07
2.67835e-06
1.20173e-06
2.11752e-06
1.88089e-06
1.31055e-06
2.43554e-06
1.34067e-06
8.20921e-07
1.46523e-06
2.70638e-06
1.28279e-06
7.16539e-07
1.71365e-06
1.14293e-06
1.00681e-06
2.04345e-06
2.36627e-06
1.64247e-06
8.06454e-07
1.5278e-06
2.91001e-06
0.00260412
1.63932e-06
2.54873e-06
1.06062e-06
0.00218855
7.02914e-06
2.27754e-06
1.46905e-06
1.02661e-06
4.12062e-07
1.19753e-06
1.4397e-06
1.59245e-06
0.000774888
4.83487e-05
6.71612e-06
8.13514e-06
4.45028e-06
1.11013e-06
1.33636e-06
1.17002e-06
1.87756e-06
1.25654e-06
1.67539e-06
1.27888e-06
1.59777e-06
5.77891e-06
2.66102e-06
1.06659e-06
2.23863e-06
5.81653e-05
1.6989e-06
5.35772e-06
8.24759e-07
9.04691e-05
1.46956e-06
1.7125e-06
4.11767e-06
7.59354e-07
0.000241489
6.22887e-07
1.48065e-06
0.00334873
1.56118e-06
2.88455e-06
0.000160528
8.10926e-07
8.14312e-07
1.60055e-06
7.02605e-07
1.02152e-06
1.43045e-06
0.0093043
0.000592466
1.299e-06
1.5342e-06
1.18013e-06
1.50153e-06
1.59582e-06
9.29336e-06
2.36268e-05
0.00083948
1.20505e-06
3.73905e-05
2.02318e-06
1.09579e-05
8.98106e-07
1.11512e-06
1.02135e-06
1.89211e-05
1.69727e-06
2.25356e-06
8.34036e-07
8.21967e-07
2.22521e-06
1.20613e-06
0.00919049
1.8692e-05
4.50263e-07
1.4751e-06
1.87188e-06
4.49551e-07
4.01809e-06
1.15454e-06
0.000425428
0.000899348
1.16933e-06
1.20257e-06
1.11136e-06
1.14715e-06
2.20939e-06
4.12836e-07
1.65464e-06
4.63478e-05
1.60588e-06
9.08403e-07
1.65243e-06
0.000856365
8.76382e-07
8.16847e-07
7.46905e-07
7.57096e-07
0.000388071
1.70244e-06
1.27438e-06
9.79706e-07
1.57768e-06
1.26559e-06
2.28834e-06
3.89795e-06
1.47081e-06
2.16939e-06
7.66565e-07
1.08827e-06
1.21365e-06
1.44698e-06
1.45709e-06
1.70495e-06
1.47868e-06
2.07556e-06
8.32254e-07
1.59007e-06
9.07986e-07
0.00218183
9.16213e-07
2.25837e-06
0.00316326
9.9522e-05
3.80843e-06
1.51262e-06
0.0009661
1.02661e-06
7.60612e-07
0.000612933
7.95929e-05
8.10623e-05
1.14457e-06
1.54942e-06
1.35194e-06
1.64356e-06
1.26675e-06
7.61358e-07
1.21343e-06
1.36432e-06
9.39464e-07
1.60507e-06
1.43166e-06
1.58099e-06
8.00069e-07
1.57496e-06
1.27281e-06
7.01695e-07
1.08311e-06
9.15364e-07
5.88761e-07
2.09971e-06
0.000140936
0.000147527
8.61562e-07
0.000290437
1.53888e-06
1.57077e-06
9.57117e-05
0.00339227
1.87894e-06
1.23141e-06
1.57783e-06
1.36251e-06
5.85938e-07
6.08836e-05
9.37527e-07
4.58862e-07
8.94513e-07
4.58933e-07
1.89025e-06
2.01761e-06
0.00847129
1.3483e-06
1.22656e-06
4.88939e-07
9.20488e-05
4.3094e-05
0.000595846
0.00814692
2.08383e-06
1.5067e-06
0.000533897
4.12569e-07
8.68091e-07
0.00874951
8.09815e-07
1.47622e-06
1.60188e-06
2.86487e-05
1.02667e-06
1.51915e-06
6.70665e-07
1.43088e-06
1.47189e-06
1.70464e-06
9.57204e-05
6.6671e-07
1.19542e-06
7.12312e-06
4.63037e-07
4.63064e-07
6.8218e-07
1.28453e-06
2.03744e-06
2.15473e-05
8.11251e-05
4.8858e-06
6.94199e-07
9.67171e-07
1.42616e-06
1.62165e-06
1.70686e-06
1.10871e-06
6.94348e-07
1.87923e-06
1.89509e-06
1.27875e-06
4.17386e-07
1.15367e-06
8.2809e-07
5.23619e-07
0.00013595
1.31132e-06
0.000125201
1.57559e-06
1.43212e-06
1.1755e-06
1.46404e-06
7.43153e-07
1.3254e-06
1.00758e-06
1.83398e-05
4.67149e-07
4.67259e-07
9.86439e-07
2.39996e-06
1.50097e-06
1.88523e-06
1.17147e-06
1.35393e-06
1.21361e-06
0.00530348
5.52414e-07
2.70169e-05
9.82295e-07
1.28621e-06
1.80935e-06
6.13047e-07
1.49006e-06
1.19218e-06
1.39973e-06
1.50843e-06
1.0255e-06
7.45199e-07
4.51653e-07
4.50254e-07
1.42836e-06
1.72943e-06
1.54448e-06
8.72837e-07
7.56585e-07
1.30776e-06
1.35598e-06
1.45824e-06
8.90582e-07
1.27245e-06
3.74916e-06
4.1341e-07
2.07615e-06
0.00338003
0.00241154
5.34906e-07
1.32874e-06
1.15669e-06
1.44026e-06
1.01603e-06
1.50406e-06
7.71705e-07
0.00977845
4.38656e-07
5.16458e-07
1.70981e-06
7.72716e-07
1.35624e-06
1.03153e-06
4.37588e-07
1.43185e-06
1.47572e-06
2.46619e-05
1.48577e-06
1.26205e-06
1.01094e-06
8.44602e-07
0.0021236
1.03152e-06
2.4438e-05
1.50234e-06
1.26589e-06
1.55337e-06
1.60914e-06
2.1465e-06
5.36467e-07
8.00129e-07
4.29972e-06
8.44897e-07
9.85716e-07
5.37565e-07
1.50828e-06
5.30791e-07
1.32118e-06
1.15044e-06
2.89211e-05
0.0024754
1.27554e-06
6.01523e-07
1.25696e-06
3.31661e-06
2.88308e-05
4.70186e-05
4.2175e-05
1.33712e-06
4.71445e-07
1.43671e-06
1.48821e-06
1.34463e-06
1.06095e-06
7.33449e-05
1.12871e-06
4.71623e-07
1.38272e-06
1.2579e-06
1.1684e-06
0.00884355
6.50986e-07
1.49899e-06
1.29743e-06
6.16724e-07
1.48992e-06
8.03651e-07
7.03978e-07
0.00133962
1.28052e-06
2.10947e-06
0.00011009
0.000109869
1.13582e-06
1.25749e-06
1.00626e-06
0.0118802
1.50057e-06
9.45932e-07
4.13382e-07
0.000110533
0.000110855
1.58758e-06
0.00817827
7.22491e-07
1.29973e-06
7.64649e-07
6.72206e-07
1.09847e-06
6.70133e-07
1.46355e-06
1.97252e-06
1.52477e-06
1.65094e-05
1.01943e-06
1.14629e-06
1.32597e-06
0.0104144
3.76399e-06
1.80074e-06
1.5864e-06
1.06343e-06
1.59071e-06
2.65785e-06
7.28872e-07
1.2831e-06
1.27927e-06
1.46773e-06
1.35427e-06
0.00860166
1.95712e-06
1.23559e-06
7.68878e-07
8.21654e-07
1.27471e-06
1.13462e-06
7.50839e-07
1.85648e-06
0.0102297
1.54188e-06
1.54204e-06
2.99339e-05
1.58192e-06
1.43363e-06
4.70564e-06
5.32072e-06
1.64973e-06
7.09771e-07
1.27406e-06
1.02403e-06
5.21487e-07
5.3135e-06
1.0917e-06
1.2593e-06
5.27468e-07
1.02454e-06
1.23633e-06
0.00855978
1.38035e-06
4.16703e-07
0.000146784
1.02568e-06
4.12844e-07
5.80225e-07
0.00640899
0.00111621
5.78359e-07
1.30186e-06
1.55075e-06
1.43551e-06
3.93003e-06
1.58082e-06
1.09366e-06
3.31179e-05
1.58544e-06
1.43044e-06
1.46984e-06
9.45207e-06
6.13793e-07
6.66248e-07
1.52299e-06
8.66196e-07
1.12366e-06
3.86464e-06
1.58808e-06
1.52422e-06
1.26154e-06
1.21098e-06
1.61288e-06
2.66647e-05
8.624e-07
7.44488e-07
1.22805e-06
1.33822e-06
0.000594037
0.00343134
1.43834e-06
8.12682e-07
1.12862e-06
1.34192e-06
4.00176e-06
6.70043e-05
2.91656e-06
7.71399e-07
1.08814e-06
1.46335e-06
6.72181e-05
2.03232e-06
6.61962e-07
1.44142e-06
9.82361e-07
1.14116e-06
1.2354e-06
9.54026e-07
0.000108989
0.00351251
1.20914e-06
9.13749e-07
1.27281e-06
1.07815e-05
1.51146e-06
6.79795e-07
3.74754e-06
5.13382e-06
0.00122063
6.12775e-06
1.42524e-06
1.24036e-06
7.59167e-07
6.98018e-07
5.22509e-07
1.22122e-06
6.60129e-07
1.07356e-05
1.33027e-06
9.01752e-07
1.4641e-06
1.43359e-06
0.00252408
1.2326e-06
9.79767e-07
1.51662e-06
1.55037e-06
0.00975015
0.00271541
2.02531e-06
4.14284e-05
1.02195e-06
9.66382e-07
0.00236884
6.13204e-07
1.75686e-06
6.14894e-07
6.25997e-07
1.2175e-06
6.57985e-07
8.18754e-07
1.02029e-06
5.89047e-06
1.54769e-06
0.011877
0.000557167
0.0012258
8.67413e-07
1.20195e-06
7.28561e-07
7.48109e-07
9.00925e-07
1.76641e-05
1.55828e-06
0.00528911
0.000167439
1.20057e-06
9.70738e-07
7.03523e-07
2.64806e-06
3.2433e-06
1.60021e-06
9.9552e-07
0.000851285
1.01832e-06
4.12424e-07
1.59402e-06
1.3105e-06
5.70543e-07
5.68739e-07
0.00113219
4.44007e-07
1.44247e-06
1.43553e-06
0.00961471
0.00156969
7.14689e-07
5.12475e-05
9.13032e-07
2.05124e-06
7.26424e-07
7.75038e-07
1.54211e-06
1.60725e-06
4.19531e-05
7.76529e-07
1.47521e-06
1.56538e-06
1.23597e-06
0.00873647
1.44677e-06
0.000497873
4.56806e-06
1.2397e-06
1.08326e-06
8.1359e-06
1.37071e-06
4.23403e-07
8.66723e-07
4.14589e-07
4.89265e-07
1.65843e-06
6.358e-06
1.07963e-06
9.63537e-05
1.94293e-06
0.00593345
1.41547e-06
8.91191e-07
9.49181e-07
8.09352e-06
5.6036e-07
1.24687e-06
8.0671e-07
0.00655973
0.000110006
7.90437e-07
1.1263e-06
1.62268e-06
7.83004e-07
9.72533e-07
9.76784e-07
1.27493e-06
3.64388e-06
8.92893e-07
8.26544e-07
1.01578e-06
8.93891e-07
1.30043e-06
8.95557e-07
1.2465e-05
7.80732e-07
7.81985e-07
0.0122443
9.64368e-07
3.87159e-06
1.24731e-06
9.1945e-06
5.85309e-05
1.14222e-06
7.70354e-07
1.33267e-06
5.82985e-07
0.010847
4.3091e-06
4.18471e-06
0.000111277
6.63515e-07
8.01756e-07
1.07839e-05
8.97827e-07
1.41906e-06
4.79877e-07
9.35445e-07
0.00147344
1.5035e-06
1.62937e-06
8.82308e-07
9.03774e-07
1.27937e-06
0.00866998
1.184e-06
0.00926182
7.43568e-07
1.22306e-06
1.52962e-06
0.00964758
1.05907e-06
8.93607e-07
1.65015e-06
7.56759e-07
1.70253e-06
1.91699e-06
1.54678e-06
4.11762e-07
7.93982e-07
1.52535e-06
0.000373311
1.09325e-06
0.00167858
7.63036e-07
1.35509e-06
7.52026e-07
4.17094e-07
1.38093e-06
2.20302e-06
0.000120765
1.26866e-06
1.07867e-06
3.77109e-05
8.61804e-07
4.46884e-07
1.44918e-06
0.000418875
1.08837e-06
2.60073e-06
2.83799e-05
7.64812e-07
1.31569e-06
7.21306e-07
8.04352e-07
7.63233e-07
1.25105e-06
2.07451e-06
5.15234e-06
1.27746e-06
5.28602e-07
1.04093e-05
0.00664532
1.47325e-06
5.8178e-06
7.96558e-07
7.17989e-07
4.93218e-07
6.63363e-07
7.16687e-07
4.35971e-07
1.69293e-06
7.30779e-07
1.43707e-06
3.06827e-06
1.01287e-06
9.01773e-07
5.46271e-07
2.39543e-06
6.70963e-07
3.10035e-06
1.58876e-06
5.25876e-05
1.54599e-06
5.42944e-07
7.39848e-06
1.63121e-06
0.00944728
1.62463e-06
7.89732e-07
1.06194e-06
1.24027e-06
1.48088e-06
3.85377e-06
0.000160627
1.46353e-06
0.0014782
1.52189e-06
7.60115e-07
6.1264e-07
2.70096e-06
8.87163e-07
1.30346e-06
9.0445e-07
0.00699725
1.3153e-06
2.13449e-06
9.26009e-07
4.65676e-06
1.43954e-06
1.41522e-06
1.15755e-06
1.48763e-06
1.3938e-06
9.77123e-07
6.16087e-07
1.08111e-06
0.000159888
1.47542e-06
3.78783e-06
1.24537e-06
1.02728e-06
0.00930441
5.26922e-07
1.39414e-06
1.25741e-06
1.22078e-06
1.59592e-06
7.17974e-07
1.41037e-06
1.09812e-06
2.90867e-06
1.07639e-05
1.41583e-06
1.02865e-06
1.01267e-06
7.55989e-07
5.26315e-07
1.65423e-06
2.19781e-06
7.18824e-05
1.7274e-06
1.53425e-06
0.00113178
0.000143229
5.90382e-05
1.12003e-06
1.13656e-06
1.94991e-06
1.17048e-06
1.43958e-06
4.22318e-07
4.45996e-07
1.53012e-06
0.00173703
1.11864e-06
1.37772e-06
1.01658e-06
1.56525e-06
5.02497e-07
5.61729e-07
5.24739e-07
5.9946e-07
9.17053e-07
9.24142e-06
1.1426e-06
4.93987e-06
5.24294e-07
9.85404e-05
5.89092e-07
0.0111263
7.00657e-07
6.99732e-07
2.0612e-06
0.000212955
1.47258e-06
1.37856e-06
9.80668e-07
7.29781e-07
1.3868e-06
5.55277e-07
1.40026e-06
1.14277e-06
5.53954e-07
1.50334e-06
6.61819e-07
0.00880489
8.10627e-07
1.23859e-06
1.3219e-06
9.99164e-07
0.00164932
2.86143e-05
0.00595832
4.57498e-06
1.6989e-06
2.58597e-05
1.5758e-06
8.1332e-07
0.00206605
1.57097e-06
9.15807e-07
1.58112e-06
1.31142e-06
9.49831e-07
1.41188e-06
1.1679e-06
9.95022e-07
1.58144e-06
1.76152e-06
2.73571e-06
4.74567e-07
1.2152e-06
1.25864e-06
9.5224e-07
3.76946e-05
1.29577e-06
6.73461e-07
1.09077e-05
8.04146e-07
1.36557e-06
0.000119898
3.67433e-06
6.63644e-07
1.56476e-06
7.67181e-07
1.15107e-06
1.59188e-06
1.52642e-06
2.83261e-06
2.90402e-06
1.37251e-06
1.2189e-06
9.30739e-07
1.3727e-06
1.11137e-06
6.94036e-07
1.29879e-06
1.16505e-06
5.48714e-07
1.15449e-06
1.2513e-06
1.52317e-06
4.9712e-07
1.20885e-06
1.29043e-06
1.48435e-06
1.58608e-06
7.14931e-07
1.42339e-06
2.69716e-06
1.38972e-06
6.19455e-07
8.87546e-07
0.0102432
7.88744e-07
7.86535e-07
1.60758e-06
1.8702e-05
9.34035e-07
1.68319e-06
9.07648e-07
5.24299e-06
9.32039e-07
1.62997e-06
1.23331e-06
7.66838e-05
6.78163e-07
1.22525e-06
1.40239e-06
1.1022e-06
4.4693e-07
1.72283e-05
6.89305e-07
1.37561e-06
4.54081e-07
6.18265e-07
6.86425e-07
1.10973e-06
4.77833e-07
4.30337e-06
1.36032e-06
8.71802e-07
6.10545e-07
1.1487e-06
0.000583491
8.2817e-07
8.09355e-07
7.86033e-07
1.27741e-06
1.25777e-06
1.00638e-06
1.79901e-05
1.21663e-06
1.23405e-06
1.15844e-06
4.73615e-07
4.80173e-07
4.737e-07
1.40148e-06
9.06728e-07
1.59674e-06
1.12854e-06
5.20487e-05
1.81414e-06
8.15094e-07
1.59902e-06
1.13313e-06
4.58833e-06
5.25028e-07
8.86767e-07
2.31677e-06
7.49247e-07
4.77928e-07
1.60885e-06
1.25197e-06
1.32222e-06
1.2855e-06
1.34105e-06
7.7441e-07
2.78071e-06
1.0954e-06
1.6168e-06
1.70522e-06
8.52732e-07
0.00926997
4.91381e-07
1.28096e-06
0.00730837
4.46849e-07
4.91802e-07
1.58202e-06
1.15999e-06
1.12703e-06
1.53248e-06
5.87776e-06
1.73327e-05
1.26898e-06
1.63701e-06
1.03077e-06
1.16127e-06
1.24827e-06
5.94451e-05
8.35388e-07
9.97587e-07
2.28536e-06
9.98793e-07
7.58549e-07
7.72155e-07
9.90883e-07
1.72473e-06
1.30129e-06
7.03265e-05
1.04282e-06
3.39834e-05
6.49402e-07
6.39459e-07
0.0100997
0.000744224
1.76199e-05
1.65921e-06
1.13807e-06
1.27238e-06
1.5189e-06
8.54113e-07
1.21068e-06
6.77118e-07
8.18076e-05
1.57633e-06
1.26375e-06
2.28256e-05
1.89055e-06
1.64352e-06
1.13835e-06
1.59075e-06
0.004862
6.55258e-05
4.82725e-06
5.91379e-07
5.18651e-07
8.65719e-07
7.26116e-07
4.1203e-06
1.07775e-06
1.33991e-06
1.47638e-06
8.58053e-07
2.14896e-05
1.52484e-06
2.2142e-06
9.97455e-07
1.80518e-06
1.57723e-06
8.20341e-05
1.33812e-06
2.88383e-06
1.52863e-06
1.16509e-06
5.26397e-06
5.85295e-07
1.00817e-06
5.92212e-06
1.04257e-06
0.00752654
1.63466e-06
1.43756e-06
9.23222e-07
1.71249e-06
2.43191e-06
9.86463e-07
6.81579e-07
1.20873e-06
2.80874e-06
1.36614e-06
0.00876408
1.21797e-06
1.25141e-06
7.13439e-05
1.24176e-06
9.91642e-07
1.30083e-06
8.9286e-07
7.66045e-07
1.4352e-06
6.31151e-05
1.25249e-06
0.000143769
4.16693e-07
1.33082e-06
6.24504e-05
5.42163e-07
4.474e-07
1.48228e-06
0.0123226
1.58651e-06
1.09624e-06
1.25295e-06
1.57177e-06
6.59754e-06
1.53933e-06
9.92726e-07
7.76801e-07
1.37555e-05
0.00916362
5.25822e-07
1.29587e-06
9.10971e-07
1.71909e-06
4.15844e-07
7.45267e-07
1.70886e-06
6.85614e-05
1.42362e-06
1.32926e-06
1.51463e-06
5.41298e-07
1.98152e-06
9.46824e-07
8.931e-07
0.000141031
8.87465e-07
1.13372e-06
9.81745e-07
9.59218e-06
8.61053e-07
0.0068277
7.57512e-07
1.14998e-06
1.65375e-06
4.4753e-06
2.87853e-06
0.00542237
2.12223e-06
5.09256e-07
5.44207e-06
1.49517e-06
2.93472e-06
6.65703e-07
7.31664e-07
1.68628e-06
1.28636e-06
9.83883e-07
0.00803857
1.17021e-06
6.04262e-06
1.10359e-06
7.1093e-07
1.77413e-05
8.03326e-07
9.88597e-07
1.52305e-06
7.30994e-07
1.24192e-06
1.53073e-06
5.14745e-07
0.000142747
9.68033e-07
7.28752e-07
0.00175961
1.54124e-06
4.47881e-07
0.00973241
1.29117e-06
1.56831e-06
1.46455e-06
6.37694e-07
3.51374e-06
0.0001701
1.54042e-06
1.35275e-06
9.02305e-07
1.28173e-06
3.35957e-05
3.31561e-06
6.04929e-07
1.67015e-06
1.03714e-06
2.88342e-06
1.27898e-05
2.16491e-06
9.7036e-07
0.0011198
5.42394e-07
5.08796e-07
1.34777e-06
1.51448e-06
1.61333e-06
4.56971e-07
1.27154e-06
4.14743e-07
1.26315e-06
7.22592e-07
5.20099e-07
1.57534e-06
1.17567e-06
9.01322e-07
7.55222e-05
1.41708e-05
7.14822e-05
1.48954e-05
6.63352e-07
1.57144e-06
6.47276e-07
2.01359e-05
5.03537e-07
1.28332e-06
7.67161e-07
5.22045e-07
5.52263e-05
2.14728e-06
6.44848e-07
1.08967e-06
8.16286e-07
1.46521e-06
7.77738e-07
7.20545e-07
4.56694e-07
2.73323e-06
8.92373e-05
6.78351e-07
0.00740765
4.16199e-07
8.43886e-07
0.00976
2.73633e-05
1.43662e-06
3.3105e-06
7.18516e-07
1.59513e-06
8.28524e-05
2.09418e-06
1.61908e-06
2.22589e-06
1.68038e-06
9.44808e-07
3.77336e-06
1.15294e-05
8.20947e-07
1.14377e-06
5.91985e-07
1.49722e-06
1.55493e-06
1.57835e-06
9.00014e-07
5.30317e-07
1.20173e-06
1.22808e-06
8.16534e-05
1.06126e-06
1.83094e-06
6.03768e-07
8.4277e-07
1.14544e-06
6.11036e-07
0.00291487
1.124e-06
1.17207e-06
2.55069e-06
7.36322e-07
5.27824e-07
0.00989039
6.08893e-07
8.18818e-07
2.09224e-06
6.07677e-07
1.13884e-06
1.27143e-06
1.45537e-06
5.42998e-07
1.23081e-06
1.08324e-06
0.00117261
1.55965e-06
1.17954e-06
4.61018e-07
1.66067e-05
0.00656619
7.33964e-07
1.35402e-06
2.94271e-05
0.00373714
8.89203e-07
1.44185e-06
1.69697e-06
8.1896e-07
1.42519e-06
4.6088e-07
1.18979e-06
0.00757097
5.52375e-06
1.29903e-06
9.32189e-07
6.59531e-07
1.48436e-06
1.51957e-06
4.1517e-07
1.21893e-06
1.77339e-06
0.00316866
1.48968e-06
7.5186e-07
5.65609e-06
7.87714e-06
1.5473e-06
7.05085e-07
6.63873e-07
2.3696e-06
8.07092e-07
1.51919e-06
0.00141915
7.50846e-07
1.35082e-06
2.15272e-06
5.37891e-07
8.97763e-07
1.18271e-06
0.00969062
0.010008
1.31428e-06
7.5107e-07
0.000135831
1.17323e-06
1.57449e-06
1.42881e-06
0.00897363
7.35396e-07
1.59546e-06
1.09801e-06
1.23831e-06
1.54928e-06
9.78959e-07
1.88568e-06
1.32037e-06
1.62535e-06
4.39906e-06
1.01289e-06
1.52201e-06
1.11651e-06
8.86006e-07
1.09379e-06
7.25797e-07
0.00129744
1.42414e-06
5.36556e-07
1.56172e-06
1.24359e-06
9.30343e-07
1.58976e-06
1.51223e-06
1.11528e-06
1.3972e-06
2.96576e-06
0.0117376
8.08909e-07
6.73815e-07
4.56525e-05
1.44174e-06
1.48483e-06
1.63309e-06
2.46274e-06
7.15419e-07
3.78096e-05
6.19184e-07
5.02868e-07
1.30688e-06
9.99529e-07
0.00164889
6.60997e-07
1.21592e-06
1.02603e-06
1.47394e-06
1.07066e-06
1.477e-06
4.65151e-07
2.59505e-06
1.77593e-06
6.67779e-07
0.010149
3.38874e-06
9.73022e-07
0.00813413
1.24551e-06
1.01082e-06
9.3795e-05
0.00849242
1.27173e-06
4.65002e-07
1.60668e-06
0.00012371
7.22042e-07
1.85607e-06
1.77906e-06
7.41751e-07
1.27306e-06
6.73186e-07
8.67878e-07
1.24109e-06
6.58745e-07
6.27249e-07
8.07769e-07
4.12389e-07
1.90126e-06
1.89712e-06
7.53622e-07
2.553e-06
1.16724e-06
5.09255e-07
0.000124254
1.33968e-06
1.48753e-06
7.13705e-07
4.75848e-07
7.4156e-07
8.88102e-07
8.6637e-07
1.46937e-06
1.0838e-06
7.23294e-07
1.22563e-06
7.91233e-06
1.56979e-06
6.26033e-07
6.78396e-07
1.37008e-06
3.66395e-06
1.58924e-06
0.00924878
1.5594e-06
1.13103e-06
6.92792e-07
1.4911e-06
8.58245e-05
1.3445e-06
1.17831e-06
4.55063e-07
8.87066e-07
1.69904e-06
1.14039e-06
1.34652e-06
1.62905e-06
1.24004e-06
1.48004e-06
6.73375e-07
1.38294e-06
2.63506e-06
7.39026e-07
1.70568e-06
2.31226e-06
1.28374e-06
6.74931e-07
5.20896e-07
2.98912e-06
6.64725e-07
1.70846e-06
8.02212e-07
1.69794e-06
1.58853e-06
8.65123e-07
1.61589e-06
1.46484e-06
0.00948642
1.07572e-06
2.21324e-06
1.14509e-06
6.92216e-05
1.25661e-06
1.49952e-06
1.14742e-06
6.35216e-07
1.21957e-06
1.07425e-06
1.2365e-06
1.35128e-06
9.15031e-07
1.24803e-06
6.76328e-07
1.54474e-06
6.08831e-07
1.50518e-06
0.00351598
1.23723e-06
0.0102873
1.26724e-06
1.33627e-06
4.69338e-07
1.57476e-06
1.60783e-06
2.70028e-06
0.000159454
1.53478e-06
1.57641e-06
1.47973e-06
8.91321e-05
1.58101e-06
7.65177e-07
8.12936e-07
1.10877e-06
4.58046e-07
1.19447e-06
5.19469e-07
4.6915e-07
1.34672e-06
0.00757748
0.000135618
0.000480392
7.73621e-07
2.18834e-05
2.83765e-06
1.47256e-06
1.11268e-06
1.22471e-06
8.14857e-05
8.94857e-07
7.4034e-05
6.55351e-07
6.45809e-07
1.62515e-06
6.7105e-07
1.49079e-06
8.86463e-07
8.64409e-07
1.09176e-06
1.13577e-06
1.52433e-06
9.9879e-07
1.57661e-06
1.95994e-05
7.16743e-07
6.68377e-07
0.00755569
1.11093e-06
6.70396e-07
8.19894e-07
1.60552e-06
1.5545e-06
5.93109e-07
1.07876e-06
8.90338e-07
1.48565e-06
1.25233e-06
1.14939e-06
8.07027e-07
2.64555e-05
1.15653e-06
9.45627e-07
1.15206e-06
0.000374136
6.66786e-07
1.98997e-06
2.81708e-06
0.000176313
1.90619e-06
1.02416e-06
1.45698e-06
7.95855e-07
0.0102216
1.81006e-06
8.96614e-07
0.00144067
1.63228e-06
6.63102e-07
9.52727e-07
1.25035e-06
7.19722e-07
1.59029e-06
8.82233e-07
3.94216e-06
1.99212e-06
1.6742e-06
1.06924e-06
1.51691e-06
6.18513e-07
1.22872e-06
6.76624e-07
2.10936e-06
1.41596e-06
9.54518e-07
3.09428e-06
8.79973e-07
1.50475e-06
7.17032e-07
1.39058e-06
8.25616e-07
1.50761e-06
0.000896828
7.71864e-07
5.39943e-07
1.08702e-06
6.27169e-06
0.00726243
3.34691e-05
1.39025e-06
1.41344e-06
1.58799e-06
1.56732e-06
6.65411e-07
9.88693e-07
1.13267e-06
1.88354e-05
6.68199e-07
0.00186133
1.50847e-06
1.26467e-06
3.63363e-06
1.614e-06
8.83144e-06
1.54749e-06
1.24574e-06
1.54791e-06
9.86183e-07
8.33492e-07
1.60691e-06
1.99396e-05
0.00958043
9.08657e-06
1.49361e-06
1.13842e-06
7.61134e-07
7.04363e-07
1.32599e-06
1.58109e-06
1.44594e-05
6.87804e-07
1.5137e-06
1.22741e-06
1.07127e-06
8.30742e-05
1.03943e-06
1.32523e-06
6.48837e-06
1.55166e-06
6.62726e-07
8.11326e-07
2.48622e-06
8.62569e-07
0.00295979
4.85693e-07
1.41976e-06
1.54643e-06
0.00255885
4.85765e-07
8.49053e-07
1.3928e-06
1.11035e-06
1.41742e-06
1.59129e-06
1.57193e-06
7.77011e-07
1.6953e-06
3.26255e-05
4.17103e-07
1.41123e-06
1.14693e-06
1.67385e-06
8.46782e-07
2.8012e-06
1.61396e-06
1.51444e-06
0.011579
6.66799e-07
1.55714e-06
7.84306e-07
1.06483e-06
4.83456e-07
1.77914e-06
1.49344e-06
1.3792e-06
1.21199e-06
9.98194e-07
1.42894e-06
5.4026e-07
6.53272e-07
1.66441e-05
8.00237e-06
5.73453e-07
1.06976e-06
1.03342e-06
5.86262e-07
1.6217e-06
1.28597e-06
4.75744e-07
7.40507e-05
1.62601e-06
0.00983404
5.90136e-07
5.7531e-07
1.52021e-06
1.23112e-06
0.00963265
1.29456e-06
1.83708e-06
1.63128e-06
1.06702e-06
7.72385e-07
1.39277e-06
0.0108162
8.48207e-07
7.69323e-07
4.15119e-07
6.76518e-07
7.00883e-07
1.03313e-06
0.00907972
6.32286e-07
1.54972e-06
1.12343e-06
1.46858e-06
0.00768128
5.8443e-07
1.4e-06
5.61409e-05
1.82279e-06
1.63163e-06
1.73069e-06
7.78442e-07
7.74452e-05
1.52193e-06
1.69447e-06
1.36138e-06
6.3364e-07
1.33712e-06
0.000385026
1.96498e-05
1.54764e-06
1.38603e-06
1.31232e-06
7.07944e-07
5.80024e-07
5.75519e-07
5.51227e-07
9.50738e-07
1.5139e-06
5.50278e-07
1.23366e-06
4.15773e-07
1.07858e-06
6.79531e-07
1.17445e-06
1.08254e-06
1.6366e-06
1.62804e-06
0.00233625
7.20328e-07
1.43106e-06
6.6863e-07
1.03513e-06
4.90136e-07
1.3896e-06
0.0108024
1.32413e-06
1.42405e-06
1.07605e-06
1.12462e-06
1.14349e-06
1.08751e-06
9.15105e-07
0.000155656
8.86851e-07
7.06232e-07
5.80954e-06
8.53126e-07
4.3673e-07
1.58732e-06
1.2531e-05
1.56843e-06
7.84228e-07
1.5212e-06
0.00870053
0.00373175
7.32008e-07
1.70354e-06
8.6761e-07
1.51544e-06
0.000145395
7.54763e-07
0.00874351
6.70286e-07
1.45261e-06
1.09352e-06
0.00200011
1.21185e-06
3.65795e-06
1.66855e-06
1.31023e-06
4.86052e-06
1.22345e-06
3.3335e-06
1.24726e-06
0.00454562
5.89666e-06
0.00896089
5.87449e-06
1.03155e-06
3.01415e-06
2.59033e-06
4.07955e-05
1.39639e-06
1.49552e-06
1.51625e-06
1.24907e-06
9.87592e-07
0.000186641
1.49779e-06
1.86508e-06
1.59998e-06
1.74222e-06
1.23306e-06
1.66068e-06
7.39607e-07
1.34965e-06
4.61773e-06
5.9351e-07
0.00200685
1.22426e-06
1.26149e-06
1.27072e-06
1.46685e-06
1.25626e-06
1.25687e-06
5.47591e-07
2.00618e-06
1.06962e-06
1.26506e-06
5.63796e-07
4.47905e-06
5.01233e-05
9.43276e-06
0.00709472
9.49735e-07
1.68123e-06
5.48617e-07
1.02063e-06
1.21762e-06
5.95087e-07
9.30819e-07
1.09202e-06
9.43007e-07
1.25822e-06
7.21572e-07
7.48729e-07
1.35155e-06
0.00883183
5.66881e-05
1.56481e-06
1.31077e-06
1.23038e-06
1.17347e-06
8.26936e-07
0.0103077
8.1444e-07
1.12861e-06
1.56945e-06
7.42552e-07
8.34809e-07
1.44716e-06
5.17614e-07
0.00829121
0.00876509
7.48846e-07
9.862e-07
5.3772e-07
6.81008e-07
7.46157e-07
5.52255e-06
1.69606e-06
1.55259e-06
1.67135e-06
8.80629e-07
0.0097473
9.98078e-07
8.58689e-07
1.32715e-06
1.51201e-06
0.00283636
2.34592e-06
1.59336e-06
6.11223e-07
0.00234673
1.69664e-06
8.22929e-05
1.97397e-05
1.09744e-06
1.22437e-06
6.04147e-07
1.62923e-06
9.59415e-07
4.14783e-07
1.56824e-06
6.65586e-07
3.53815e-05
5.97253e-07
1.05451e-06
6.81323e-06
1.32418e-06
2.53453e-06
1.46148e-06
8.56935e-07
1.07425e-06
7.56092e-07
0.00470624
1.5505e-06
9.29105e-07
1.3723e-06
7.60223e-07
5.51411e-07
6.53909e-07
1.53214e-06
1.13861e-06
1.3201e-06
2.25949e-06
0.000838046
8.47449e-07
1.13747e-06
1.25024e-06
1.00425e-06
7.68638e-07
8.00668e-07
1.24742e-06
9.94616e-07
1.52377e-06
1.62704e-06
8.04023e-07
7.16766e-07
1.47175e-06
8.86896e-07
0.000601236
8.91334e-05
7.19749e-07
1.49364e-06
9.41935e-07
1.64617e-06
1.10065e-06
1.15436e-06
8.23357e-07
1.61246e-06
5.97443e-07
1.52141e-06
1.28711e-06
6.35533e-07
1.56409e-06
1.3401e-06
1.28904e-05
1.2206e-06
1.33722e-06
7.23681e-07
2.39358e-05
1.19057e-06
9.11713e-07
7.22263e-07
8.55761e-07
3.87568e-06
8.21424e-07
8.37391e-07
5.86213e-07
1.14e-06
8.08335e-07
1.5008e-06
9.88266e-07
1.63319e-06
6.34545e-07
3.64074e-06
1.33095e-06
1.2704e-06
2.77842e-06
1.63642e-06
1.47905e-06
8.01909e-07
1.34456e-06
1.66434e-05
5.17805e-06
1.02733e-06
1.98064e-06
1.83849e-06
1.64886e-06
5.88279e-07
5.51733e-07
2.1844e-06
5.26316e-06
8.7617e-07
1.32713e-06
9.89082e-07
1.36753e-06
1.65893e-06
0.00749206
5.83309e-07
1.22093e-06
1.51373e-06
1.26403e-06
1.22667e-06
8.33385e-07
1.6105e-06
0.000221811
1.26633e-06
7.22326e-07
1.55597e-06
1.30965e-06
1.17473e-06
1.21376e-06
1.47725e-06
0.00984558
0.00754806
1.31624e-06
1.33886e-06
2.62536e-06
5.85269e-07
1.61006e-06
4.25894e-07
1.22153e-06
1.1102e-06
1.28617e-06
1.35074e-06
4.11465e-07
1.63486e-06
1.48288e-06
1.41291e-06
1.25274e-06
1.46966e-06
1.55644e-06
1.54185e-06
0.00766179
6.21638e-07
5.38822e-07
4.52841e-06
8.44415e-07
1.20825e-06
1.01745e-06
1.49056e-06
1.93593e-06
0.0107828
7.61449e-07
2.14584e-05
1.06729e-06
1.52064e-06
1.51723e-06
1.18334e-06
6.80045e-07
1.44286e-06
1.40938e-06
6.77004e-05
1.54019e-06
7.20497e-07
1.2042e-06
1.22292e-06
1.55513e-06
1.35105e-06
2.20337e-06
1.33544e-06
9.64083e-07
6.16988e-07
1.54719e-06
1.00069e-06
1.67717e-06
3.39787e-06
6.95565e-07
7.87161e-07
1.62825e-06
3.4437e-05
1.02412e-06
7.72335e-07
1.79402e-06
1.24825e-06
3.18439e-06
1.44367e-06
1.03737e-06
7.10485e-07
1.07583e-06
9.65924e-07
1.19329e-06
6.70378e-07
1.97024e-05
1.76641e-06
1.99153e-06
1.7425e-06
1.55475e-06
1.21849e-06
1.62981e-06
1.46938e-06
8.52053e-07
7.65042e-07
1.17835e-06
1.62609e-06
0.00199693
1.48556e-06
1.61093e-06
1.52528e-06
1.05372e-06
0.000348747
1.5816e-06
9.97359e-05
1.27449e-06
8.64191e-07
4.12397e-07
1.59031e-06
1.08207e-06
6.22555e-06
5.40244e-07
2.04153e-06
1.5257e-06
4.15057e-07
1.62379e-05
1.60285e-06
1.43607e-06
5.7027e-06
1.35261e-06
6.07903e-07
1.23739e-06
8.03799e-07
2.18402e-06
1.18253e-06
1.6635e-06
1.22038e-06
1.60493e-06
1.25048e-06
1.22706e-06
9.27103e-07
0.00857055
1.39732e-06
7.46746e-06
6.57588e-06
1.38887e-06
1.33608e-06
1.77235e-06
1.18178e-06
1.68129e-06
9.07954e-07
0.00109066
6.8713e-07
1.67565e-06
9.55956e-07
0.000145668
3.02316e-06
2.29848e-05
8.74931e-07
8.81863e-07
1.2011e-06
0.00282505
4.19777e-06
1.40549e-06
1.36114e-05
5.74288e-06
1.77836e-06
1.42428e-06
3.89434e-05
8.99608e-05
1.35921e-06
7.19519e-07
1.55451e-06
8.30833e-07
7.73404e-07
0.000143285
1.47016e-06
1.0652e-06
1.83974e-06
1.70497e-06
1.09565e-06
1.70177e-06
1.09533e-06
7.62866e-07
1.31973e-06
1.28148e-06
1.22734e-06
0.00740386
2.62154e-06
1.19699e-06
7.33368e-07
1.45237e-06
8.31737e-07
2.36835e-05
7.65465e-07
3.92537e-06
5.939e-07
1.09546e-06
5.72334e-06
1.39846e-06
1.47455e-06
1.1686e-06
8.26993e-07
1.53735e-06
1.27246e-06
1.45452e-06
1.12623e-06
2.58701e-06
1.81954e-06
1.48641e-06
1.48624e-06
3.77361e-06
0.00674208
6.63165e-06
7.21796e-05
1.03687e-06
7.95328e-07
1.35557e-06
1.13214e-06
5.2934e-07
6.35492e-07
0.0120232
2.50848e-05
1.652e-06
2.01229e-05
8.02538e-07
1.54495e-06
1.44444e-06
0.0121892
5.82965e-07
1.55666e-06
7.0756e-07
1.49257e-06
1.04518e-05
2.42525e-06
0.00014492
6.05827e-07
1.15114e-06
7.37756e-07
9.53961e-07
0.00735746
7.34402e-07
5.59845e-07
1.30498e-06
1.71151e-06
6.65906e-07
1.27607e-06
8.42959e-07
7.60862e-06
1.34303e-06
7.56804e-07
1.48968e-06
1.1288e-06
6.19417e-06
6.74992e-07
7.35817e-07
1.30696e-06
4.30176e-06
9.67365e-07
1.37182e-06
6.98355e-07
1.59597e-06
5.60408e-07
1.52342e-06
1.49176e-06
8.83477e-07
1.55949e-05
8.77487e-07
1.61303e-06
6.36307e-07
1.85158e-06
1.48899e-06
1.32326e-06
1.14692e-06
2.84696e-05
9.08121e-07
5.70168e-06
1.57032e-06
1.2172e-06
1.25344e-06
1.63937e-06
1.08646e-06
1.06293e-06
1.40009e-06
9.32608e-07
3.56871e-06
1.59669e-06
2.34659e-06
0.00901065
1.44633e-06
1.54196e-06
1.58349e-06
1.28254e-06
1.64163e-06
9.41932e-07
7.1294e-07
1.33117e-06
1.31965e-06
1.40743e-06
7.56873e-07
1.5981e-06
5.35043e-07
1.3034e-06
7.4065e-05
1.91672e-06
1.34311e-06
7.19635e-07
1.30531e-06
0.000104293
1.24506e-05
1.29277e-06
1.12642e-06
1.48865e-06
0.00820407
7.48078e-07
1.17329e-06
1.51391e-06
8.8405e-07
1.13185e-06
1.12989e-06
9.30348e-07
1.73529e-06
9.74099e-07
1.43819e-06
1.41985e-06
4.92163e-07
7.22674e-07
2.43528e-06
7.94426e-07
4.9353e-07
0.00532962
8.69112e-07
1.38299e-06
3.08552e-05
1.50766e-06
0.000117768
5.39301e-07
1.55025e-06
7.08757e-07
1.60301e-06
1.59147e-06
1.59783e-06
8.57708e-06
1.10471e-06
1.66186e-06
1.16638e-06
1.28843e-06
9.85529e-07
1.03614e-06
5.39214e-07
1.54736e-06
5.3487e-07
5.22652e-07
6.78921e-07
1.35501e-06
3.87242e-05
0.000112167
1.97119e-06
1.06972e-06
1.06741e-06
1.36649e-06
6.48805e-07
3.09267e-06
1.6162e-06
8.94467e-07
9.65751e-07
1.80195e-06
1.32953e-05
1.58452e-06
1.05904e-06
2.37461e-06
1.08416e-06
6.22399e-07
4.32514e-06
9.60304e-07
0.00785207
1.86468e-06
8.78933e-07
0.00289995
1.5078e-06
9.0238e-07
1.2391e-06
1.7175e-06
1.46823e-06
0.00565874
9.15609e-07
0.000106693
5.58115e-07
1.24373e-06
2.67351e-05
6.74826e-07
1.56106e-06
0.000190147
6.48914e-07
1.01539e-06
0.000691827
1.9084e-06