/*--------------------------------*- C++ -*----------------------------------*\
| =========                 |                                                 |
| \\      /  F ield         | OpenFOAM: The Open Source CFD Toolbox           |
|  \\    /   O peration     | Version:  v2012                                 |
|   \\  /    A nd           | Website:  www.openfoam.com                      |
|    \\/     M anipulation  |                                                 |
\*---------------------------------------------------------------------------*/
FoamFile
{
    version     2.0;
    format      ascii;
    class       volScalarField;
    location    "300";
    object      k_0;
}
// * * * * * * * * * * * * * * * * * * * * * * * * * * * * * * * * * * * * * //

dimensions      [0 2 -2 0 0 0 0];


internalField   nonuniform List<scalar> 
33474
(
8.95891e-05
6.93817e-05
0.000114728
7.94037e-05
9.03765e-05
7.95847e-05
6.33209e-05
8.69084e-05
6.97772e-05
0.0138612
7.40557e-05
8.13029e-05
6.31944e-05
8.99025e-05
9.08793e-05
6.11015e-05
5.33742e-05
0.000160922
8.67217e-05
7.49784e-05
0.00011185
0.00185195
7.91931e-05
8.96577e-05
7.88911e-05
8.13135e-05
6.39013e-05
9.79567e-05
0.00208912
5.53771e-05
4.45178e-05
7.91416e-05
0.000124265
0.00015719
5.85879e-05
7.34782e-05
0.0290354
0.000857672
8.10032e-05
8.99523e-05
7.62659e-05
5.52961e-05
0.000714712
7.86375e-05
0.0258419
0.000723468
0.00560307
9.35219e-05
0.000498193
5.84041e-05
8.58256e-05
6.7662e-05
9.30947e-05
6.31164e-05
7.99944e-05
9.76697e-05
8.01075e-05
0.000107868
8.98094e-05
8.67847e-05
8.08036e-05
0.00723514
0.0283547
0.000859993
5.94124e-05
8.50746e-05
5.05884e-05
0.0403647
6.75814e-05
8.79209e-05
0.0074476
0.00728927
0.000979579
5.86828e-05
0.00166858
0.000543598
0.00211446
8.59184e-05
9.00125e-05
9.19204e-05
0.0275869
8.15631e-05
0.0015
5.85289e-05
9.36679e-05
5.89867e-05
0.000112717
0.0433283
0.00379391
4.83467e-05
7.91975e-05
5.83614e-05
9.27107e-05
7.5899e-05
6.32975e-05
9.35139e-05
9.36203e-05
8.79945e-05
6.73853e-05
0.000341991
0.000113891
0.000902715
8.79493e-05
0.00396886
4.42987e-05
5.00099e-05
8.58321e-05
8.83261e-05
6.73264e-05
5.48658e-05
8.9418e-05
5.05127e-05
0.000128036
7.71591e-05
0.000108979
9.99948e-05
8.06869e-05
0.000122754
8.25086e-05
6.32264e-05
8.69471e-05
0.00013014
7.97909e-05
5.89421e-05
9.36934e-05
7.51458e-05
7.09717e-05
0.000107381
0.000120274
9.15126e-05
6.27196e-05
8.78886e-05
0.000133764
0.0284904
9.07661e-05
0.000984762
0.000138786
0.0279749
0.000241171
0.000116895
8.56492e-05
6.4604e-05
4.41538e-05
7.70165e-05
8.47129e-05
8.92952e-05
0.0219291
0.00397662
0.000927956
0.000974765
0.00100076
7.42052e-05
8.23321e-05
7.65476e-05
9.98673e-05
7.90055e-05
9.20923e-05
7.96684e-05
8.94714e-05
0.00110215
0.000129874
7.07797e-05
0.0001174
0.00828572
9.3108e-05
0.000133375
6.34263e-05
0.00100342
8.58112e-05
9.36062e-05
0.000174988
6.07192e-05
0.00239428
5.47621e-05
8.60033e-05
0.0165676
8.83882e-05
7.13841e-05
0.000224814
6.28921e-05
6.30319e-05
8.95701e-05
5.83483e-05
7.15156e-05
8.44338e-05
0.0431178
0.00653683
8.03118e-05
8.81035e-05
7.64381e-05
8.66035e-05
8.94238e-05
0.00100661
0.00297704
0.00520081
7.74375e-05
0.00676386
0.000107255
0.00115559
6.62754e-05
7.4262e-05
7.14567e-05
0.00225354
9.77652e-05
0.000114056
6.38312e-05
6.33136e-05
0.000113151
7.73012e-05
0.0418123
0.00216631
4.62625e-05
8.73875e-05
9.95982e-05
4.62238e-05
0.000172076
7.55713e-05
0.000345953
0.0206386
7.61378e-05
7.71875e-05
7.41335e-05
7.5364e-05
0.000112485
4.41987e-05
9.17897e-05
0.00381765
9.20386e-05
6.67866e-05
9.17299e-05
0.0210308
6.5434e-05
6.30661e-05
6.01982e-05
6.06541e-05
0.0172489
9.32237e-05
8.02558e-05
6.98336e-05
8.92031e-05
7.92896e-05
0.000115603
0.00125909
8.72531e-05
0.000110784
6.10301e-05
7.33244e-05
7.75216e-05
8.69827e-05
8.73439e-05
9.35536e-05
8.59439e-05
0.000107341
6.37273e-05
8.92383e-05
6.67688e-05
0.0267684
6.70885e-05
0.000114547
0.0170599
0.0075464
0.00120435
8.71029e-05
0.011517
7.14659e-05
6.0805e-05
0.000686824
0.00524077
0.00525123
7.52803e-05
9.03172e-05
8.2338e-05
9.16143e-05
7.96589e-05
6.08291e-05
7.75421e-05
8.26587e-05
6.79308e-05
8.96903e-05
8.44692e-05
8.92849e-05
6.27825e-05
8.91248e-05
7.94741e-05
5.83144e-05
7.30801e-05
6.70572e-05
5.32609e-05
0.000108173
0.00765266
0.00292889
6.53754e-05
0.0152837
8.99155e-05
8.8647e-05
0.000128156
0.0167408
9.99779e-05
7.81081e-05
8.91917e-05
8.25983e-05
0.000433084
0.0014753
6.78635e-05
4.67228e-05
6.61366e-05
4.67282e-05
0.000100383
0.000107092
0.0343925
8.22222e-05
7.79483e-05
4.82766e-05
0.00103733
0.00764154
0.0059184
0.0331416
0.000107589
8.67555e-05
0.00421588
3.19698e-05
6.5106e-05
0.0437675
6.28561e-05
8.60014e-05
8.95652e-05
0.00150299
7.1656e-05
8.71222e-05
4.22539e-05
8.44398e-05
8.82528e-05
9.37254e-05
0.000165824
3.88628e-05
7.69526e-05
0.000891119
4.69445e-05
4.69462e-05
9.8955e-05
7.98381e-05
0.000107693
0.00309642
0.0058609
0.000197369
5.79443e-05
6.89736e-05
8.61572e-05
9.447e-05
9.36854e-05
7.4084e-05
5.79521e-05
9.98719e-05
0.000100615
7.96968e-05
4.44618e-05
7.55787e-05
6.35623e-05
5.00342e-05
0.00489913
8.07053e-05
0.00502092
8.88102e-05
8.4804e-05
7.62792e-05
8.77416e-05
6.00373e-05
8.18612e-05
7.0379e-05
0.00270596
4.71543e-05
4.71563e-05
6.95814e-05
0.000122076
8.65794e-05
0.000100266
7.6148e-05
8.23504e-05
7.7547e-05
0.0246693
5.11822e-05
0.00323977
6.94256e-05
7.98918e-05
9.81425e-05
5.4226e-05
8.66499e-05
7.68433e-05
8.50732e-05
8.69479e-05
7.10361e-05
0.000142492
4.52457e-05
4.55088e-05
8.46776e-05
9.67752e-05
8.78924e-05
6.52931e-05
6.06024e-05
8.05953e-05
8.21598e-05
8.75647e-05
6.59855e-05
7.94321e-05
0.000164839
4.4226e-05
0.000109227
0.0157438
0.0305074
0.000330859
8.14512e-05
7.61768e-05
8.47422e-05
7.06867e-05
8.6671e-05
6.12325e-05
0.0282952
4.79087e-05
4.95506e-05
9.36646e-05
6.12732e-05
8.24509e-05
7.1305e-05
4.80028e-05
8.44819e-05
8.59914e-05
0.00406531
8.76642e-05
7.90985e-05
7.04986e-05
6.41811e-05
0.0190769
7.13008e-05
0.0040657
8.69532e-05
8.01881e-05
8.81517e-05
9.4065e-05
0.000114305
5.06715e-05
6.24436e-05
0.000156655
6.41876e-05
6.84646e-05
5.07241e-05
8.69357e-05
5.03782e-05
8.10808e-05
7.54056e-05
0.00443886
0.0304108
8.04489e-05
5.37789e-05
7.89347e-05
0.000152001
0.00443466
0.00553775
0.00511777
8.1668e-05
4.73728e-05
8.58455e-05
8.65794e-05
8.18063e-05
7.22777e-05
0.007137
7.46372e-05
4.73786e-05
8.3083e-05
8.05534e-05
7.60403e-05
0.0448926
5.604e-05
8.66087e-05
8.0256e-05
5.45545e-05
8.627e-05
6.25485e-05
5.84092e-05
0.0241502
8.0634e-05
0.000111659
0.00711462
0.00703664
7.5024e-05
7.98764e-05
7.10677e-05
0.0430435
8.6898e-05
6.80743e-05
4.42362e-05
0.00681493
0.0068776
8.98527e-05
0.0401074
0.000149634
8.03297e-05
0.000131832
5.69966e-05
7.37606e-05
5.6904e-05
8.56394e-05
0.000104043
8.90038e-05
0.00058666
7.08071e-05
7.57241e-05
8.13325e-05
0.0415786
0.000744982
9.78595e-05
8.94214e-05
7.2369e-05
9.03068e-05
0.000129989
9.5458e-05
7.98399e-05
7.96673e-05
8.69167e-05
8.21e-05
0.0358969
0.000103454
7.82964e-05
6.11515e-05
5.28778e-05
8.0503e-05
7.49736e-05
6.04004e-05
0.000734527
0.0413558
8.81426e-05
8.81689e-05
0.00325317
8.92968e-05
8.48105e-05
0.000864076
0.00020683
9.39284e-05
5.72209e-05
8.04899e-05
7.09927e-05
4.99261e-05
0.000487435
7.35807e-05
7.90939e-05
5.02173e-05
7.1004e-05
7.91216e-05
0.0348958
8.30052e-05
4.44648e-05
0.00795444
7.15583e-05
4.42075e-05
5.27984e-05
0.0276192
0.0127131
5.27124e-05
8.25614e-05
8.80733e-05
8.4624e-05
0.000671623
8.92735e-05
7.36016e-05
0.00366433
8.93826e-05
8.55862e-05
8.70885e-05
0.000373473
5.43435e-05
4.32711e-05
8.8976e-05
7.3714e-05
7.44581e-05
0.000167239
9.02739e-05
8.72823e-05
7.91602e-05
7.74247e-05
9.07452e-05
0.00444207
6.57985e-05
0.00020614
7.80013e-05
8.16151e-05
0.0196346
0.0164569
8.4938e-05
6.28988e-05
7.51007e-05
8.18204e-05
0.000171421
0.00562067
0.000140909
6.12209e-05
7.34681e-05
8.55911e-05
0.00549783
0.000107519
3.56254e-05
8.47995e-05
6.98719e-05
7.56591e-05
7.906e-05
6.84896e-05
0.00536703
0.0189229
7.73753e-05
6.73022e-05
7.94715e-05
0.00237082
8.69646e-05
5.73234e-05
0.00143228
0.000970202
0.0120378
0.00130533
8.42867e-05
7.84536e-05
6.07233e-05
5.81761e-05
4.99778e-05
7.77703e-05
4.15306e-05
0.00227845
8.20593e-05
6.65249e-05
8.54899e-05
0.000116949
0.0290183
7.81528e-05
6.97656e-05
8.71178e-05
8.88256e-05
0.0405428
0.0138751
0.000108323
0.00384837
7.09787e-05
6.88417e-05
0.027416
5.43246e-05
9.79173e-05
5.44029e-05
5.49068e-05
7.76437e-05
3.68881e-05
7.74254e-05
7.09169e-05
0.000206514
8.87103e-05
0.042989
0.019587
0.0102927
9.82856e-05
7.71264e-05
5.94264e-05
6.0285e-05
6.64938e-05
0.000393395
8.82989e-05
0.0247805
0.00313427
7.70801e-05
6.89963e-05
5.8409e-05
0.000245744
0.00024791
8.95213e-05
6.8726e-05
0.00595361
0.000451439
4.41805e-05
9.05789e-05
8.08755e-05
5.23548e-05
5.22731e-05
0.0133137
4.7383e-05
8.50629e-05
8.4617e-05
0.0450517
0.00868854
9.52984e-05
0.00362755
6.6994e-05
0.000109365
5.93373e-05
6.13647e-05
0.00014112
8.97451e-05
0.00201794
6.14245e-05
8.58206e-05
8.84874e-05
7.82516e-05
0.0356368
8.49532e-05
0.0186654
0.000195071
7.83668e-05
7.37456e-05
0.00293933
8.25749e-05
4.47953e-05
6.5299e-05
4.53337e-05
0.000217795
9.60427e-05
0.0025639
7.29591e-05
0.00628411
0.00143
0.0378241
8.43231e-05
6.63682e-05
6.81971e-05
0.0023218
5.19205e-05
7.87828e-05
6.26743e-05
0.040965
0.00642737
6.20438e-05
7.50973e-05
0.000982905
6.16903e-05
6.90597e-05
6.92147e-05
7.95219e-05
0.000161659
6.64007e-05
6.34509e-05
7.08373e-05
6.6221e-05
8.05761e-05
6.65391e-05
0.000317243
6.15974e-05
6.16914e-05
0.043833
6.88684e-05
8.0791e-05
7.88059e-05
0.00159079
0.00421215
7.55743e-05
6.11782e-05
8.14377e-05
5.29799e-05
0.0394854
0.00047112
0.000461871
0.0012854
5.65911e-05
6.24878e-05
0.000335097
6.65859e-05
9.96085e-05
0.000200231
6.76815e-05
0.0240857
8.67412e-05
9.31318e-05
6.56453e-05
6.64906e-05
7.9719e-05
0.0361283
7.66106e-05
0.0294098
6.00651e-05
7.81257e-05
8.74475e-05
0.0301243
7.22064e-05
6.62046e-05
9.57421e-05
6.06172e-05
9.36997e-05
2.48187e-05
8.82735e-05
4.41391e-05
6.21929e-05
8.73515e-05
0.0167273
7.35912e-05
0.00251477
6.08666e-05
8.21374e-05
6.04096e-05
4.44401e-05
8.30205e-05
0.000112141
0.00533816
8.11482e-05
7.31106e-05
0.00476849
6.48738e-05
4.54649e-05
8.50328e-05
0.0174066
7.3433e-05
0.000127758
0.000104328
6.09776e-05
8.10312e-05
5.91128e-05
6.2594e-05
6.08759e-05
7.8752e-05
0.00010858
0.00020709
7.96574e-05
5.02785e-05
0.00268701
0.0284167
8.57619e-05
0.000224791
6.22942e-05
5.89619e-05
4.8333e-05
5.65917e-05
5.89105e-05
4.78746e-05
9.32257e-05
5.5776e-05
8.46243e-05
0.00191862
7.06659e-05
6.64166e-05
5.12016e-05
0.00090215
5.61761e-05
0.000146072
8.92907e-05
0.00528749
8.8239e-05
5.09657e-05
0.00178507
9.04389e-05
0.0394606
9.04041e-05
6.20223e-05
7.23059e-05
7.83846e-05
8.78859e-05
0.000166815
0.00916412
8.55896e-05
0.00909712
8.72544e-05
6.08012e-05
5.42925e-05
0.000131398
6.5852e-05
8.11499e-05
6.65147e-05
0.0426299
8.10291e-05
0.000109612
5.66264e-05
0.00161515
8.47409e-05
8.56778e-05
7.57104e-05
8.62075e-05
8.38614e-05
6.92373e-05
5.44495e-05
7.30027e-05
0.00907809
8.58392e-05
0.000164762
7.86561e-05
7.01192e-05
0.0288655
5.01934e-05
8.38561e-05
7.90309e-05
7.77599e-05
8.93893e-05
5.89715e-05
8.55329e-05
7.36745e-05
0.000140144
0.000346946
8.39813e-05
7.11457e-05
7.06563e-05
6.06135e-05
5.01586e-05
9.40336e-05
0.000114921
0.00536363
9.66852e-05
8.75785e-05
0.00209784
0.000258339
0.00665843
7.43587e-05
7.54913e-05
0.000106529
7.6543e-05
8.49409e-05
4.47352e-05
5.06248e-05
8.74488e-05
0.00953756
7.48248e-05
8.29194e-05
7.08611e-05
8.85377e-05
4.88902e-05
5.20015e-05
5.00825e-05
5.36865e-05
6.70675e-05
0.00202605
7.52497e-05
0.000198543
5.00664e-05
0.0071825
5.32128e-05
0.0405184
5.82234e-05
5.81859e-05
0.000108118
0.00123321
8.59195e-05
8.29389e-05
6.9368e-05
5.94748e-05
8.36933e-05
5.16086e-05
8.39691e-05
7.52848e-05
5.15636e-05
8.86717e-05
5.65761e-05
0.0374566
6.30372e-05
7.83918e-05
8.10944e-05
7.01699e-05
0.023297
0.00646758
0.0383836
0.00296918
9.79928e-05
0.00626552
9.14941e-05
6.29592e-05
0.0115239
9.13682e-05
6.70232e-05
8.89744e-05
8.07126e-05
6.8713e-05
8.38615e-05
7.59664e-05
7.00234e-05
8.90911e-05
5.7719e-05
0.000132876
8.98988e-05
7.75985e-05
7.9129e-05
6.84197e-05
0.00483284
8.04469e-05
5.70398e-05
0.000348786
6.30121e-05
8.24798e-05
0.0121292
0.000130046
5.66609e-05
8.85172e-05
6.14592e-05
7.54806e-05
8.99891e-05
8.74012e-05
0.000134219
0.000138333
8.28781e-05
7.79144e-05
6.75084e-05
8.28904e-05
7.40555e-05
5.82795e-05
8.09917e-05
7.58773e-05
5.13424e-05
7.55925e-05
7.96232e-05
8.73077e-05
4.85758e-05
7.73554e-05
8.02927e-05
8.60973e-05
8.92153e-05
5.90785e-05
0.000669002
0.000133352
8.38085e-05
5.46035e-05
6.59676e-05
0.0393955
6.19246e-05
6.1834e-05
9.11139e-05
0.00018492
6.76262e-05
9.23966e-05
6.66265e-05
0.000246969
6.75559e-05
9.04925e-05
7.86574e-05
0.0097558
5.70687e-05
7.79091e-05
8.53304e-05
7.38224e-05
4.61232e-05
0.000394538
5.77954e-05
8.28444e-05
4.64714e-05
5.47198e-05
5.76797e-05
7.43156e-05
4.77048e-05
0.00018845
8.23205e-05
6.52548e-05
5.41955e-05
7.5395e-05
0.000502283
6.35219e-05
6.2801e-05
6.18665e-05
7.96857e-05
7.89683e-05
7.03595e-05
0.000549156
7.77783e-05
7.81909e-05
7.57047e-05
4.74873e-05
0.000116108
4.74916e-05
8.40419e-05
6.66029e-05
8.94621e-05
7.47683e-05
0.0053694
9.83885e-05
6.30589e-05
8.94808e-05
7.48069e-05
0.000188253
5.01013e-05
6.59317e-05
0.000116667
6.02942e-05
4.7711e-05
9.06093e-05
7.89373e-05
8.11045e-05
8.01555e-05
8.16795e-05
6.13834e-05
0.000134327
7.36238e-05
9.0081e-05
9.43547e-05
6.49962e-05
0.0458499
4.8398e-05
8.00227e-05
0.0447325
4.60967e-05
4.84166e-05
8.91046e-05
7.57548e-05
7.47061e-05
8.75649e-05
0.000225689
0.00531503
7.93275e-05
9.20769e-05
7.1228e-05
7.58533e-05
7.95292e-05
0.00746817
6.46496e-05
7.0247e-05
0.000115576
7.02774e-05
6.0722e-05
6.12903e-05
5.93378e-05
9.39647e-05
8.03798e-05
0.00792596
7.16947e-05
0.00477478
5.59698e-05
5.55549e-05
0.0482745
0.00137336
0.000112765
9.65183e-05
7.49978e-05
7.95228e-05
9.03988e-05
6.50655e-05
7.74145e-05
5.71967e-05
0.00761954
8.92035e-05
7.92397e-05
0.00221208
0.000100526
9.23608e-05
7.49947e-05
8.92774e-05
0.0219828
0.00138982
0.00019597
5.33206e-05
4.95862e-05
6.67637e-05
5.932e-05
0.000173972
7.28923e-05
8.19588e-05
8.83703e-05
6.5822e-05
0.000581481
8.72872e-05
0.000112622
7.00365e-05
9.80951e-05
0.000160787
0.00784544
8.16358e-05
0.000135977
8.74469e-05
7.59857e-05
2.35666e-05
5.20622e-05
7.04242e-05
0.000226828
7.16897e-05
0.0456805
9.09359e-05
8.49249e-05
6.74156e-05
9.46646e-05
0.000123191
6.95799e-05
5.74487e-05
7.73479e-05
0.000133321
8.24281e-05
0.0399556
7.76661e-05
8.04527e-05
0.00549155
7.84435e-05
6.99643e-05
8.06051e-05
6.66595e-05
6.14316e-05
8.48121e-05
0.00460927
7.8854e-05
0.00770889
4.44236e-05
8.14859e-05
5.74548e-05
5.09548e-05
4.62345e-05
8.60382e-05
0.0434733
8.9153e-05
7.36177e-05
8.03171e-05
8.90497e-05
0.000245802
8.9789e-05
6.98082e-05
6.10374e-05
0.00449479
0.0313946
5.01369e-05
8.04619e-05
6.67588e-05
9.40317e-05
4.43739e-05
6.02625e-05
9.36911e-05
0.00867795
8.42245e-05
8.1459e-05
8.71268e-05
5.09622e-05
4.61575e-05
6.82133e-05
6.65405e-05
0.00737823
6.63226e-05
7.48548e-05
6.94745e-05
0.000377611
6.48467e-05
0.0438711
6.06846e-05
7.54143e-05
9.35022e-05
0.00113894
7.29724e-05
0.0241212
0.000109107
4.93051e-05
0.00021467
8.67618e-05
0.000139788
5.66522e-05
5.95526e-05
9.29755e-05
8.01947e-05
6.95652e-05
0.0449728
7.60595e-05
0.000232098
7.39159e-05
5.86995e-05
0.000282783
6.25563e-05
6.98481e-05
8.72877e-05
5.95605e-05
7.86369e-05
8.74604e-05
0.000317659
0.0097294
6.91915e-05
5.94619e-05
0.0104912
8.78e-05
4.61434e-05
0.0409629
8.03265e-05
8.89732e-05
8.54886e-05
5.54741e-05
0.000156067
0.00164373
8.98088e-05
8.20613e-05
6.64925e-05
8.00671e-05
0.00472374
0.000154236
5.3972e-05
9.20609e-05
7.14511e-05
0.000139368
0.00210643
0.000110643
6.92797e-05
0.00537893
5.10102e-05
4.9283e-05
8.19009e-05
8.71185e-05
8.99803e-05
4.66306e-05
7.94067e-05
4.43125e-05
7.91571e-05
5.91694e-05
4.98587e-05
8.93381e-05
7.62918e-05
6.64583e-05
0.00452442
0.00440493
0.00683954
0.00220227
5.67367e-05
8.90733e-05
5.58741e-05
0.0028551
0.000314677
8.14611e-05
6.1503e-05
4.99605e-05
0.0013105
0.000109938
5.57648e-05
7.33101e-05
6.30428e-05
8.67666e-05
6.15221e-05
5.91093e-05
4.66145e-05
0.00150559
0.0016905
0.000113847
0.0315739
4.45136e-05
6.41485e-05
0.0381991
0.00233055
8.49411e-05
0.000150333
5.8997e-05
8.93702e-05
0.00713919
0.000108966
9.00765e-05
0.000116366
9.48833e-05
6.81366e-05
0.000165888
0.00216526
6.32487e-05
7.52278e-05
5.33409e-05
8.68252e-05
8.82716e-05
9.18064e-05
6.72322e-05
5.03876e-05
7.71293e-05
7.80196e-05
0.00516834
7.55769e-05
0.000135601
5.39132e-05
6.4105e-05
7.52353e-05
5.42191e-05
0.0161578
7.44941e-05
7.61179e-05
0.000127821
5.97872e-05
5.02636e-05
0.027347
5.41552e-05
6.31652e-05
0.000108902
5.40939e-05
7.55138e-05
7.95709e-05
8.7538e-05
5.09952e-05
7.8078e-05
7.32703e-05
0.00553687
8.84688e-05
7.63794e-05
4.6842e-05
0.000509533
0.0273148
5.96856e-05
8.21e-05
0.000286092
0.0200347
6.59166e-05
8.48961e-05
9.54578e-05
4.40316e-05
8.43014e-05
4.6826e-05
7.67296e-05
0.0462534
0.000218018
8.17057e-05
6.7656e-05
5.64214e-05
8.64051e-05
8.71852e-05
4.43375e-05
7.77153e-05
9.59063e-05
0.0148764
8.64892e-05
6.03985e-05
0.0034695
0.00028953
8.88141e-05
5.82151e-05
5.66184e-05
0.000121727
6.27073e-05
8.71313e-05
0.0259037
6.03703e-05
8.19901e-05
0.00011034
5.07292e-05
6.62395e-05
7.64822e-05
0.0381441
0.0469639
8.10304e-05
6.03653e-05
0.00960265
7.61497e-05
8.91367e-05
8.43817e-05
0.0443238
5.97109e-05
8.93705e-05
7.40799e-05
7.8329e-05
8.88743e-05
5.67304e-05
0.00010201
8.1673e-05
9.30446e-05
0.0030528
7.05897e-05
8.89722e-05
7.48311e-05
6.57962e-05
7.34632e-05
5.93352e-05
0.0251383
8.45469e-05
5.06664e-05
8.85323e-05
7.89813e-05
6.75838e-05
8.9365e-05
8.69228e-05
7.41898e-05
8.39086e-05
0.000142398
0.0426544
6.27529e-05
5.70654e-05
0.00430151
8.68513e-05
8.61136e-05
9.13868e-05
0.000124814
5.92297e-05
7.11989e-05
5.4591e-05
4.89929e-05
8.0557e-05
7.01169e-05
0.0244
5.64912e-05
7.77626e-05
7.11132e-05
8.58137e-05
7.35529e-05
8.73063e-05
4.70453e-05
0.000127671
9.62246e-05
5.68019e-05
0.0374392
0.000155006
5.2788e-05
0.0449071
7.8628e-05
7.05161e-05
0.0106272
0.0414917
7.9583e-05
4.70465e-05
8.97327e-05
0.00459449
5.91437e-05
0.000926335
9.62892e-05
6.00172e-05
8.15324e-05
5.70386e-05
6.51438e-05
7.86269e-05
5.63863e-05
5.49919e-05
6.27094e-05
4.41748e-05
0.000100879
0.000100816
6.04893e-05
0.000127502
7.60035e-05
4.92884e-05
0.00511058
8.17755e-05
8.64168e-05
5.88183e-05
4.76016e-05
5.99817e-05
6.59326e-05
6.509e-05
8.56843e-05
7.38958e-05
5.92266e-05
7.8756e-05
0.000282093
8.86306e-05
5.49374e-05
5.73575e-05
8.39212e-05
0.000160737
8.94816e-05
0.0317289
8.84037e-05
7.52726e-05
5.78786e-05
8.62834e-05
0.00694646
8.21188e-05
7.63215e-05
4.65282e-05
6.59022e-05
9.38545e-05
7.51074e-05
8.18599e-05
9.04272e-05
7.83896e-05
8.76664e-05
7.99129e-05
8.31813e-05
0.000127188
5.99016e-05
9.33578e-05
0.000116634
7.98099e-05
0.000423278
4.99021e-05
0.0001387
9.96396e-05
9.34493e-05
6.24755e-05
9.37072e-05
0.000115775
6.49959e-05
8.99946e-05
8.56713e-05
0.0399584
7.28179e-05
0.000115446
7.52236e-05
0.00700489
7.89189e-05
8.88471e-05
7.52983e-05
5.53577e-05
7.84676e-05
7.2972e-05
7.8271e-05
8.43049e-05
6.69185e-05
7.86388e-05
5.71637e-05
8.87797e-05
5.42258e-05
8.70182e-05
0.0176896
7.83536e-05
0.0374977
7.92813e-05
8.16515e-05
4.72618e-05
8.88157e-05
9.03096e-05
0.00012941
0.00955647
8.95231e-05
8.88224e-05
8.74864e-05
0.00674177
9.31686e-05
6.1221e-05
6.29085e-05
7.4265e-05
4.66323e-05
7.68924e-05
4.98286e-05
4.72617e-05
8.19417e-05
0.030286
0.00066427
0.00395758
6.13314e-05
0.00277639
0.000138296
8.5876e-05
7.44148e-05
7.79042e-05
0.00506698
6.64333e-05
0.000932522
5.62924e-05
5.59717e-05
9.02605e-05
0.000413304
8.62648e-05
6.58064e-05
7.12297e-05
7.35726e-05
7.49468e-05
8.9721e-05
7.0156e-05
9.06224e-05
0.000478866
5.90679e-05
5.68124e-05
0.0324803
7.41791e-05
5.68983e-05
6.31878e-05
9.02361e-05
8.82135e-05
5.33876e-05
7.31245e-05
6.59575e-05
8.80075e-05
7.89556e-05
7.53733e-05
6.28765e-05
0.000144986
7.55733e-05
6.83191e-05
7.55064e-05
0.00324673
5.67571e-05
0.000107946
0.000133609
0.00274022
0.000101112
7.10503e-05
8.52551e-05
6.24187e-05
0.0393104
9.83456e-05
6.65403e-05
0.00827625
9.05241e-05
5.6576e-05
6.85848e-05
7.8717e-05
5.90463e-05
8.95252e-05
6.56747e-05
0.000273227
0.000104968
9.25198e-05
7.6232e-05
8.71208e-05
5.46721e-05
7.80112e-05
5.72252e-05
0.000108573
8.39842e-05
6.83983e-05
0.000142191
6.5571e-05
8.70133e-05
5.89333e-05
8.37892e-05
6.34168e-05
8.80731e-05
0.00352845
6.12572e-05
5.08922e-05
7.34223e-05
0.000237065
0.0309275
0.00096095
8.33243e-05
8.40542e-05
8.93067e-05
9.02684e-05
5.64161e-05
7.01579e-05
7.54644e-05
0.00358625
5.68638e-05
0.0172206
8.68049e-05
8.20625e-05
0.000159861
9.03064e-05
0.000696612
8.79783e-05
7.85725e-05
8.89213e-05
6.7996e-05
6.17139e-05
9.411e-05
0.00464794
0.034779
0.000324385
8.67286e-05
7.5675e-05
6.07943e-05
5.8436e-05
8.91702e-05
9.31396e-05
0.00182903
5.97787e-05
8.72334e-05
7.79697e-05
7.2657e-05
0.00621877
6.99923e-05
8.13186e-05
0.000242875
8.90799e-05
5.65636e-05
6.28495e-05
0.00091684
6.48979e-05
0.0123668
4.81108e-05
8.44319e-05
8.81049e-05
0.0220946
4.81143e-05
6.44408e-05
8.4245e-05
0.000245312
8.40201e-05
8.92771e-05
8.87339e-05
0.000163372
9.3321e-05
0.00466393
4.44314e-05
8.41811e-05
7.52891e-05
9.21809e-05
6.4339e-05
0.000136312
9.03167e-05
8.83576e-05
0.0423641
5.68043e-05
9.0722e-05
6.17864e-05
7.33418e-05
4.79971e-05
9.76825e-05
8.84316e-05
8.28554e-05
7.74577e-05
7.00633e-05
8.44204e-05
5.08921e-05
5.61425e-05
0.00202911
0.000299092
5.24798e-05
7.32515e-05
7.12801e-05
5.30565e-05
9.01611e-05
7.99086e-05
4.75963e-05
0.00147942
9.11083e-05
0.0380112
5.33281e-05
5.25721e-05
8.76572e-05
7.81886e-05
0.0374016
8.23742e-05
0.000100247
0.000139167
0.000214324
6.12731e-05
8.38623e-05
0.040541
6.44039e-05
6.11282e-05
4.43344e-05
5.71797e-05
5.83079e-05
5.98579e-05
0.036584
5.51364e-05
8.8679e-05
7.44555e-05
8.58748e-05
0.0375243
5.29734e-05
8.35365e-05
0.00567999
9.91628e-05
9.08356e-05
9.5816e-05
6.15424e-05
0.00525452
8.77052e-05
9.33098e-05
8.42245e-05
5.52861e-05
8.16413e-05
0.00607394
0.00548421
8.89618e-05
8.30758e-05
8.2012e-05
5.85449e-05
5.23916e-05
5.25497e-05
5.14745e-05
6.82744e-05
8.72475e-05
5.1355e-05
7.81747e-05
4.43651e-05
7.29906e-05
5.736e-05
7.67204e-05
7.31294e-05
9.15638e-05
9.04425e-05
0.0296993
8.20074e-05
8.45899e-05
5.68284e-05
6.69897e-05
4.83378e-05
8.33008e-05
0.040334
8.13103e-05
8.45673e-05
7.3643e-05
7.45202e-05
7.56811e-05
7.32444e-05
6.69212e-05
0.0096642
6.64736e-05
5.84735e-05
0.00332815
6.47982e-05
4.55021e-05
9.0492e-05
0.000348594
8.87197e-05
5.76224e-05
8.73164e-05
0.0359081
0.0217568
5.95731e-05
9.3893e-05
6.5077e-05
8.85441e-05
0.00151246
6.05248e-05
0.035917
5.55878e-05
8.51214e-05
7.3412e-05
0.0184434
7.74698e-05
0.00166856
9.40792e-05
8.08767e-05
0.00223545
7.80569e-05
0.000152126
7.8621e-05
0.030619
0.000229674
0.0377977
0.000226872
7.12209e-05
0.000141728
0.000125577
0.000102224
8.34526e-05
8.67863e-05
8.70329e-05
7.8702e-05
6.96246e-05
0.000438705
8.8527e-05
0.0001038
9.08053e-05
0.00104028
7.81528e-05
9.15425e-05
5.98883e-05
8.1916e-05
0.000188994
5.34943e-05
0.0167484
7.7896e-05
3.47499e-05
7.94076e-05
8.57122e-05
7.89831e-05
7.91634e-05
5.12557e-05
0.000105499
7.28239e-05
5.92514e-05
5.20287e-05
0.00181214
9.74678e-05
0.00230318
0.0387958
6.82395e-05
9.30254e-05
5.12702e-05
7.08549e-05
7.79305e-05
5.34847e-05
4.86158e-05
7.92943e-06
6.79875e-05
7.97252e-05
5.92311e-05
6.0272e-05
8.19706e-05
0.0466963
0.00265558
8.89032e-05
8.15845e-05
7.80626e-05
7.61685e-05
6.34692e-05
0.0259386
6.92355e-05
7.52404e-05
8.86889e-05
6.00138e-05
6.39908e-05
8.68733e-05
4.97339e-05
0.0353885
0.0355093
5.36696e-05
6.95705e-05
5.07524e-05
5.73785e-05
6.02922e-05
0.000218235
9.32986e-05
8.88077e-05
0.000984205
0.000119696
0.0279232
7.00722e-05
6.47421e-05
8.11995e-05
8.7654e-05
0.0137952
0.000117744
8.95884e-05
5.42338e-05
0.0298274
9.69947e-05
0.00289078
0.000481278
7.3552e-05
7.82954e-05
5.39053e-05
9.0368e-05
7.00779e-05
4.43064e-05
8.86567e-05
5.66936e-05
0.000933056
5.35857e-05
7.20986e-05
0.00025407
8.11576e-05
0.000123662
8.54497e-05
6.46596e-05
7.29843e-05
6.06328e-05
0.0311075
8.82275e-05
6.74444e-05
8.26381e-05
6.07993e-05
5.14379e-05
5.62307e-05
8.77558e-05
7.50051e-05
8.11719e-05
0.000117185
0.00463298
6.43139e-05
7.57176e-05
7.87375e-05
7.03495e-05
6.11001e-05
6.2413e-05
7.86828e-05
6.99514e-05
8.73247e-05
9.0315e-05
6.26063e-05
5.90768e-05
8.62037e-05
6.33333e-05
0.00722865
0.00682853
5.90485e-05
8.63685e-05
6.79492e-05
9.396e-05
7.38023e-05
7.5514e-05
6.33367e-05
9.13018e-05
5.35915e-05
8.88446e-05
7.99643e-05
5.53496e-05
9.09306e-05
8.16206e-05
0.000241404
7.77784e-05
8.16131e-05
5.92034e-05
0.00469956
7.67431e-05
6.67931e-05
5.91466e-05
6.46286e-05
0.000168998
6.32576e-05
6.38924e-05
5.30798e-05
0.000102613
6.31568e-05
8.65767e-05
7.03068e-05
9.42e-05
5.53049e-05
0.00249633
8.13458e-05
8.09934e-05
0.000134
9.19437e-05
8.64039e-05
6.25237e-05
8.17892e-05
0.000275275
0.00218772
7.10961e-05
0.000104901
9.97719e-05
9.39947e-05
5.31754e-05
5.13691e-05
0.000111409
0.00194282
6.55278e-05
8.15558e-05
0.00015104
8.27376e-05
9.14842e-05
0.0306185
5.29407e-05
7.77505e-05
8.95155e-05
7.91988e-05
7.80438e-05
6.37271e-05
8.98521e-05
0.000828387
7.94131e-05
5.9277e-05
8.82192e-05
8.13801e-05
7.62056e-05
7.75349e-05
8.58677e-05
0.0359688
0.0408956
8.18553e-05
8.16579e-05
0.000127134
5.30346e-05
9.31499e-05
4.49255e-05
7.80762e-05
7.40987e-05
7.99383e-05
8.19735e-05
4.41239e-05
9.0638e-05
8.65212e-05
8.40125e-05
7.90343e-05
8.56902e-05
8.82703e-05
9.13892e-05
0.033042
5.47046e-05
5.08236e-05
0.00294568
6.41932e-05
7.76498e-05
7.07439e-05
8.63358e-05
0.000102539
0.0391295
6.08158e-05
0.000566774
7.25204e-05
8.7299e-05
8.95923e-05
7.65457e-05
5.73413e-05
8.505e-05
8.3893e-05
0.00680988
9.16292e-05
5.90794e-05
7.72053e-05
7.79161e-05
8.82098e-05
8.20164e-05
0.000112169
8.17652e-05
6.90006e-05
5.44891e-05
9.1764e-05
7.08134e-05
0.00114066
0.00165958
5.80753e-05
6.23226e-05
9.06511e-05
0.000367594
7.09841e-05
5.56844e-05
9.81951e-05
7.92955e-05
0.000146184
8.49473e-05
7.15053e-05
5.8653e-05
7.35282e-05
6.88378e-05
7.81597e-05
5.69023e-05
0.000122886
9.5662e-05
0.000105318
9.62084e-05
8.84678e-05
7.77724e-05
9.24808e-05
8.56336e-05
6.4476e-05
0.000257509
7.63264e-05
9.027e-05
0.019114
8.61521e-05
8.9827e-05
8.73518e-05
7.2078e-05
0.00290386
8.89772e-05
0.0112907
7.95245e-05
6.49427e-05
4.41699e-05
9.22482e-05
7.40104e-05
0.00126889
5.08482e-05
0.000110903
8.73203e-05
4.44595e-05
0.00326783
8.99996e-05
9.55878e-05
0.000222823
8.20012e-05
5.40762e-05
7.82984e-05
6.26088e-05
0.000112723
7.64898e-05
9.19493e-05
7.77739e-05
8.9652e-05
8.0803e-05
7.79595e-05
6.79163e-05
0.0453747
8.34545e-05
0.00137418
0.000245188
7.42153e-05
8.15087e-05
9.76809e-05
7.64423e-05
9.3017e-05
6.66494e-05
0.00689584
0.000116226
9.26186e-05
7.03233e-05
0.0060083
0.000144055
0.000160538
6.54727e-05
6.56458e-05
7.71316e-05
0.0143883
0.000177679
8.37448e-05
0.00220044
0.000223563
9.64672e-05
8.43525e-05
0.000262723
0.00654991
8.32529e-05
5.90342e-05
8.84441e-05
6.36284e-05
6.13264e-05
0.00801947
8.58484e-05
7.26856e-05
9.83763e-05
9.35081e-05
7.35111e-05
9.40893e-05
7.36294e-05
6.09921e-05
8.13835e-05
8.14212e-05
7.79664e-05
0.0296488
0.000128806
7.69708e-05
5.99377e-05
8.51794e-05
6.367e-05
0.0046933
6.10965e-05
0.00113846
5.34313e-05
7.34758e-05
0.000222982
8.39809e-05
8.59701e-05
7.60018e-05
6.36515e-05
8.78375e-05
7.94439e-05
8.52445e-05
7.45517e-05
0.000127682
9.86572e-05
8.93473e-05
8.65552e-05
0.000164275
0.0288751
0.000248254
0.00511768
7.20805e-05
6.21944e-05
8.21011e-05
7.55261e-05
5.03358e-05
5.53369e-05
0.0433506
0.000784296
9.17477e-05
0.00434263
6.25372e-05
8.78979e-05
8.48673e-05
0.0436791
5.23943e-05
8.83901e-05
5.8597e-05
8.63201e-05
0.00187021
0.000119873
0.00821291
5.39809e-05
7.55779e-05
6.01067e-05
0.000468285
0.0319269
5.96755e-05
4.00931e-05
8.0497e-05
9.47249e-05
5.64843e-05
8.03732e-05
0.000384106
0.00211857
8.17321e-05
6.06059e-05
8.66604e-05
7.46644e-05
0.000235273
5.71593e-05
5.98597e-05
8.05547e-05
0.000180789
6.8891e-05
8.35636e-05
5.81789e-05
9.24058e-05
4.92452e-05
8.72421e-05
8.63182e-05
6.57087e-05
8.93909e-05
6.68697e-05
9.00377e-05
5.53748e-05
0.000100674
8.62221e-05
8.11075e-05
7.54287e-05
0.00424318
6.66603e-05
0.00346903
8.87762e-05
7.76597e-05
7.94807e-05
9.43624e-05
0.000104064
7.236e-05
8.35004e-05
6.75756e-05
0.000158756
8.94517e-05
0.000117913
0.0382072
8.54436e-05
8.78054e-05
8.97737e-05
7.9907e-05
9.21713e-05
6.79186e-05
5.8759e-05
8.14538e-05
8.09926e-05
8.41308e-05
6.06077e-05
8.96159e-05
5.06255e-05
8.0443e-05
0.00448104
0.00010682
8.18245e-05
5.9234e-05
8.07337e-05
0.0073299
0.00437279
8.07714e-05
9.29358e-05
8.63025e-05
0.0466057
6.04855e-05
7.62072e-05
9.02582e-05
6.82839e-05
7.4741e-05
7.47312e-05
6.82155e-05
0.00124231
6.94962e-05
8.47113e-05
8.44635e-05
4.95277e-05
5.91771e-05
0.000119929
6.21574e-05
4.87897e-05
0.0356307
6.52453e-05
8.31844e-05
0.00330781
8.75036e-05
0.00139471
5.07999e-05
8.83373e-05
5.86257e-05
9.00173e-05
8.93546e-05
8.97031e-05
0.00368351
7.41539e-05
9.54263e-05
0.000681641
8.00871e-05
6.97063e-05
7.14246e-05
5.07953e-05
8.87525e-05
5.05833e-05
4.99861e-05
5.72912e-05
8.21439e-05
0.000566738
0.0118485
0.000104052
7.28519e-05
7.30396e-05
8.27279e-05
5.59524e-05
0.000146772
9.25279e-05
6.61134e-05
6.9058e-05
0.000101172
0.00293153
8.90561e-05
7.22264e-05
0.000118835
7.31769e-05
5.47471e-05
0.00211256
6.86164e-05
0.0335685
0.000101333
6.58245e-05
0.0145741
8.90354e-05
6.64357e-05
7.89063e-05
9.50023e-05
8.85363e-05
0.031406
6.66529e-05
0.0105504
5.18189e-05
7.90727e-05
0.00298173
4.9663e-05
8.85193e-05
0.0130697
5.59551e-05
7.06502e-05
0.0193608
0.000102888
9.50387e-05
9.49745e-05
5.15358e-05
8.99676e-05
9.03264e-05
0.0169983
0.0114153
0.000121496
5.12222e-05
6.64993e-05
0.000828597
4.79303e-05
8.86585e-05
5.55788e-05
7.43116e-05
0.000100917
8.7247e-05
5.46525e-05
6.95174e-05
0.000110354
6.98137e-05
8.97754e-05
8.18678e-05
5.98484e-05
7.08015e-05
6.33944e-05
0.0266357
0.00695151
5.05046e-05
0.00071963
0.000101163
8.15371e-05
0.034995
0.000100577
0.00012819
4.43655e-05