/*--------------------------------*- C++ -*----------------------------------*\
| =========                 |                                                 |
| \\      /  F ield         | OpenFOAM: The Open Source CFD Toolbox           |
|  \\    /   O peration     | Version:  v2012                                 |
|   \\  /    A nd           | Website:  www.openfoam.com                      |
|    \\/     M anipulation  |                                                 |
\*---------------------------------------------------------------------------*/
FoamFile
{
    version     2.0;
    format      ascii;
    class       surfaceScalarField;
    location    "300";
    object      phi_0;
}
// * * * * * * * * * * * * * * * * * * * * * * * * * * * * * * * * * * * * * //

dimensions      [0 3 -1 0 0 0 0];
oriented        oriented;


internalField   nonuniform List<scalar> 
49868
(
-0.0978427
0.219935
-0.122092
-0.24688
0.333377
-0.0864974
-0.0693922
-0.0607296
0.130122
-0.205143
-0.134071
0.339214
-0.10344
0.157682
-0.0542419
-0.144824
-0.093004
0.237828
0.225167
0.12097
-0.346137
-0.343507
0.172477
0.17103
0.349794
-0.371919
0.0221251
0.0581373
0.0264851
-0.0846224
-0.301672
0.174533
0.127139
-0.12863
0.236668
-0.108038
-0.125754
0.350921
0.0514565
0.0836973
-0.135154
0.224026
0.346483
-0.269665
-0.0768181
-0.324498
0.00412261
0.320376
0.113179
-0.0847664
-0.0284124
-0.049557
0.155163
-0.105606
-0.201943
0.291816
-0.0898729
0.0649684
-0.102145
0.0371761
-0.287932
0.106636
0.181296
0.363787
-0.365162
0.00137423
0.105393
-0.203236
-0.405179
0.280507
0.124672
0.11352
-0.24215
0.334777
-0.32215
-0.0126266
0.140648
-0.0994204
-0.0412272
-0.151276
-0.136656
0.385308
-0.0149419
-0.370366
0.0874035
0.264385
-0.351788
-0.173438
0.320841
-0.147402
-0.116628
-0.0561939
0.172822
0.082552
0.0306268
0.142086
-0.364033
0.221947
0.181235
-0.300475
0.11924
0.0712262
0.0563002
-0.127526
-0.040785
0.314106
-0.273321
-0.149965
-0.0858842
0.235849
0.0768511
0.0463759
-0.123227
0.283991
-0.206446
-0.0775447
0.348001
0.0373071
-0.259214
0.218429
0.36491
-0.36491
-0.0777915
0.0738695
0.00392204
-0.0470717
0.116041
-0.0689695
0.353791
-0.16453
-0.18926
0.0840867
-0.134648
0.0505616
0.0658959
0.0553851
-0.121281
-0.375425
0.179563
0.195862
0.0738571
-0.17757
0.103712
0.385758
-0.107797
-0.277961
0.239902
-0.108221
-0.131681
-0.35283
0.128623
0.224207
-0.204935
0.306665
-0.101731
0.100791
0.0398569
-0.318489
0.113555
0.145322
-0.106332
-0.0389901
-0.0560592
0.13291
-0.178888
0.129331
0.227228
-0.0125042
-0.214724
-0.3651
0.209043
0.156057
0.131204
-0.0599781
0.0505988
0.263508
0.345962
-0.32928
-0.0166816
0.154892
0.0828177
-0.23771
0.403059
-0.334301
-0.0687584
0.0938403
-0.0620726
-0.0317678
0.283071
0.102686
-0.183506
0.123522
0.0599846
-0.383226
0.135025
0.248201
-0.251213
-0.113887
0.306551
-0.255952
0.0317618
0.3142
0.108859
0.0464549
-0.155314
0.290368
0.060676
-0.351044
0.265775
-0.159139
0.082035
-0.213078
0.131043
0.133557
-0.0821009
-0.173035
0.080412
0.0926234
0.174137
-0.0429325
-0.116189
0.27732
-0.161131
0.171443
0.0808922
-0.252335
-0.233339
0.13132
-0.0472332
0.154845
-0.378793
0.223947
0.0644782
-0.0973223
0.0328441
0.0523124
-0.0441664
-0.00814599
-0.00775296
0.0567072
0.250752
0.0658124
-0.316565
-0.305332
0.131894
0.186393
0.0988221
-0.285216
0.12117
0.118733
-0.173659
0.282278
-0.108619
-0.23186
0.0775384
0.0537815
-0.142837
0.103552
0.0392847
-0.112712
-0.070794
0.386111
-0.10304
0.12635
-0.366055
0.239706
-0.033887
0.0983652
-0.0875533
0.258996
-0.122628
0.272988
-0.15036
-0.257989
0.323133
-0.0651446
0.195619
-0.38334
0.187721
0.125783
-0.367265
0.241482
-0.124109
0.206144
0.355086
-0.338895
-0.0161915
0.272456
0.113655
0.385908
-0.254816
-0.131092
-0.112469
0.217863
0.102216
0.300844
-0.175061
0.0584324
0.347105
-0.223004
-0.124101
0.0702787
-0.105591
0.0353124
-0.0557577
0.106412
-0.0506544
-0.051862
0.27909
0.0808786
-0.130146
0.0492671
0.198401
-0.177473
-0.0209284
-0.352541
0.226787
0.0775951
-0.196702
0.119107
-0.000858067
0.144833
-0.143975
0.204616
0.102049
0.370288
-0.215443
-0.0971826
-0.0374657
-0.346449
0.144506
0.387881
-0.0679826
-0.319898
0.0995327
0.0457897
-0.0462055
0.127084
0.0410193
0.0807952
-0.121814
-0.361321
0.23014
0.131181
0.10919
0.0143314
0.10202
-0.102878
0.147428
0.0267084
0.109179
0.114847
0.345727
-0.0391761
-0.152314
-0.0456877
0.198001
-0.156777
0.0561879
0.100589
0.203348
-0.107129
-0.0962196
-0.115598
0.15608
-0.285808
0.129728
-0.23455
-0.0770903
0.31164
-0.246842
-0.105707
0.352549
0.187401
0.159704
0.127511
0.140099
-0.26761
0.108381
-0.249199
0.140817
0.131673
-0.202928
0.0712554
0.308207
-0.327135
0.0189287
0.0562909
-0.271154
0.214863
0.266758
-0.210467
0.0546519
-0.319143
0.264491
-0.125403
-0.176269
-0.0285144
0.226916
-0.147292
-0.107303
0.254595
-0.0946238
0.038866
-0.135726
-0.0996828
0.235409
0.151967
0.335433
-0.130817
0.107751
-0.217351
0.1096
-0.216502
-0.112122
0.119314
-0.00719236
0.122435
-0.356985
0.110133
-0.166327
0.117783
-0.222708
0.104925
-0.0586051
-0.0618485
0.120454
-0.0177431
-0.186917
0.20466
0.363434
-0.249362
-0.114072
-0.0607735
0.126669
0.169579
-0.0957217
0.000466476
-0.0976491
0.0913394
-0.0649973
-0.026342
0.45222
-0.207888
-0.244332
0.0504133
0.153611
0.232297
0.0697494
-0.246959
0.17721
-0.0878653
0.033651
0.0542143
0.101429
0.162646
-0.264075
0.00545699
-0.252337
0.0587318
0.152947
-0.211678
-0.376472
0.174339
0.202133
-0.250882
-0.12559
0.106292
-0.218761
-0.0858301
0.265393
-0.302721
0.134214
0.168506
-0.117068
0.244579
0.0401855
0.0121269
0.231276
-0.128266
-0.10301
-0.142775
-0.175714
0.289592
0.0654942
0.31925
-0.225459
-0.0937908
-0.20319
0.265411
-0.0622207
0.214042
0.0367371
0.23002
-0.170451
-0.193792
0.364242
-0.064537
0.199301
-0.134764
-0.0824388
-0.217152
0.299591
0.232253
-0.11447
0.114099
-0.0226251
-0.0914736
-0.219351
0.256088
0.380365
-0.276415
-0.103949
0.296751
-0.21191
-0.0848407
-0.330551
0.160506
0.170044
0.403964
-0.256414
-0.14755
-0.213823
0.142054
0.071769
-0.0529222
0.100211
-0.0472884
0.291509
0.0432672
0.183379
0.180055
-0.0323539
0.0419945
-0.215252
0.173257
-0.00539191
-0.0387745
0.245912
0.158052
0.409673
-0.155751
-0.253922
0.190985
-0.11339
0.0564271
0.0465436
0.24507
0.164603
0.0565535
0.0347859
-0.31056
0.217997
0.0925633
0.21498
-0.156248
0.107852
-0.191358
0.2049
0.079091
-0.181009
0.105593
0.191158
0.260141
-0.0879098
-0.172232
-0.092768
0.0398458
0.300092
0.0415345
-0.341626
0.15569
-0.0481329
-0.107557
0.355436
-0.0472292
-0.0973685
-0.0756669
0.150271
-0.31346
0.163188
0.0893182
0.0663717
-0.0977915
0.205643
0.350971
-0.234618
-0.116353
0.363288
-0.234666
0.373017
-0.279697
-0.0933204
-0.352042
0.143372
0.20867
0.122229
-0.189119
0.0668892
0.0366402
-0.0952453
0.349833
-0.34863
-0.00120256
0.00225437
-0.2827
0.280445
0.189964
-0.0993526
-0.0906118
0.157201
0.0740223
-0.231224
0.124609
-0.0333432
-0.0912661
0.38981
-0.36344
-0.02637
0.0822734
0.108712
0.106572
-0.0744394
-0.0321326
0.280628
0.0658545
0.294556
-0.113322
0.191623
-0.331306
0.139683
-0.215725
0.123852
0.0918729
-0.155278
-0.0604466
0.079368
-0.131237
0.0518688
-0.138344
0.208093
-0.104656
0.0608993
0.043757
0.399912
-0.291199
-0.108714
0.227372
-0.118991
0.308566
-0.158294
-0.132509
-0.024268
0.382999
-0.110542
0.0866555
0.0379538
0.0881056
-0.0299683
-0.195657
-0.187569
0.0418672
0.347943
0.260615
-0.391405
0.130789
-0.134736
0.116502
0.0182337
-0.125456
-0.204988
0.330444
-0.113211
-0.23883
0.150443
-0.0323358
0.251528
-0.219192
0.230084
-0.26242
0.182576
0.0775653
0.000341027
0.12512
-0.125461
0.215246
-0.0932304
-0.122016
0.123348
-0.0823292
-0.199963
-0.205216
-0.343168
0.229957
0.066969
-0.226265
0.159296
0.253783
-0.169604
-0.0841795
0.340513
-0.301343
-0.0391706
-0.104143
-0.113208
0.178587
0.168778
-0.347365
0.194253
-0.112143
-0.0821099
0.0306596
-0.329295
0.298636
0.0849887
0.104976
0.14226
0.193173
-0.185517
0.371911
0.209297
-0.311315
0.102018
0.0695389
0.311721
-0.381953
0.0702322
0.0707385
0.00798568
-0.0787242
-0.235165
0.33359
-0.0984248
-0.0347449
0.115617
-0.0808725
0.351941
-0.357467
0.00552566
0.186218
-0.0639886
-0.13174
0.132081
-0.0263592
0.282316
-0.255956
0.198158
-0.0510813
-0.147077
-0.051176
-0.0366892
-0.128624
0.0895932
0.039031
0.326576
-0.190485
-0.136091
0.0949002
0.155846
0.097937
0.239576
-0.37748
0.137904
-0.119581
0.0848363
0.297669
0.0428442
-0.0783447
0.324829
-0.246484
0.282324
0.0980409
-0.31696
0.238615
-0.022212
0.109979
0.00411924
-0.000799957
0.0364289
-0.0356289
0.139449
0.0757974
0.216513
0.110063
-0.0772479
0.328
0.0628396
-0.109911
0.14809
-0.236616
0.0885256
0.152476
0.0787999
-0.0465892
0.0457892
-0.0339178
0.0851043
-0.288295
-0.0441289
0.108034
-0.0639054
-0.104272
0.360289
-0.256018
-0.368192
0.255898
0.112294
0.0573416
-0.0513601
-0.00598153
-0.186983
0.0834325
0.092896
-0.176329
0.105278
-0.251202
0.145924
0.231121
-0.150229
-0.179984
-0.150567
-0.13817
-0.205338
0.352508
-0.320709
-0.0317984
-0.159578
0.361372
-0.201795
-0.212156
0.138373
0.0737836
-0.102317
-0.0405198
0.167681
0.0304768
0.297132
0.0553759
0.330252
-0.142851
-0.251822
0.164269
-0.0775329
0.323336
-0.245803
-0.317313
0.23978
-0.207754
0.381475
-0.173721
-0.0241741
-0.212301
0.236475
0.142441
-0.053485
-0.0889561
0.0141655
-0.243473
0.229307
0.159946
0.193845
0.0680248
-0.014851
-0.0531738
-0.142622
0.357759
-0.215138
0.184696
-0.294966
0.11027
0.135731
0.0638184
-0.19955
0.226554
-0.105385
-0.0479387
0.127307
0.306197
-0.225023
-0.0811744
-0.327176
0.184554
-0.0381966
0.127644
-0.0380512
0.0971376
-0.241961
0.356945
-0.0532263
-0.303718
-0.196616
-0.0594943
0.25611
0.150551
0.359207
-0.14708
-0.212127
-0.0867718
-0.181118
0.26789
-0.191176
0.178671
-0.266901
0.180129
-0.0661442
-0.165676
0.231821
0.103799
-0.187904
0.084105
0.14696
0.17229
0.241615
-0.117763
0.130853
0.242164
-0.151764
0.19517
-0.0434059
-0.220257
-0.0951767
0.315434
-0.220957
0.235123
-0.077612
0.323523
-0.245911
-0.317856
0.240244
0.404507
-0.204492
-0.200015
-0.16191
0.0945773
0.0673327
-0.198922
0.284026
0.0864063
0.041238
-0.273553
0.175989
0.0975644
-0.0051584
0.161005
-0.148283
-0.028295
-0.0494965
0.259026
-0.385595
0.126569
0.177195
-0.347646
0.197703
0.206804
-0.228639
0.204464
0.139976
-0.0391854
0.417662
-0.234779
-0.182884
0.0115653
0.115776
-0.127342
0.146012
0.184239
-0.129558
0.206088
-0.0765297
0.0699736
-0.179262
0.109289
-0.222637
0.317226
-0.0945893
-0.170057
0.0150251
0.213252
-0.228277
0.290531
-0.275506
0.193147
-0.0893477
0.0507643
-0.150244
0.0994797
-0.386726
0.208742
0.177984
0.113152
0.237819
0.187138
0.265082
-0.225713
0.326187
-0.100474
-0.0322162
0.186337
-0.154121
0.104448
0.137168
0.377493
-0.0951696
0.126217
-0.331359
0.112036
-0.0294843
0.126705
-0.373547
0.0887752
-0.1114
-0.0624859
0.0499756
0.0125103
-0.14622
0.065325
0.0808949
0.373809
-0.134234
-0.104552
0.229593
-0.125041
0.413241
-0.242843
-0.170398
0.301912
-0.197803
-0.104109
0.314716
-0.224602
-0.0901136
-0.251847
0.0529253
-0.336472
0.0274696
0.309002
0.00705135
0.00941813
0.410637
-0.158496
-0.252142
0.393437
-0.165312
-0.228124
0.120835
-0.0432969
-0.0691417
-0.26733
0.144179
-0.149338
-0.0725834
0.257038
-0.184455
0.242774
0.167864
0.1022
0.199713
-0.094137
0.43211
-0.195281
-0.236829
-0.0897849
0.193172
-0.103387
0.216813
-0.349696
0.132883
0.0944587
-0.134439
0.371176
-0.236737
0.118613
-0.144909
0.0262963
-0.264057
0.191474
0.211286
0.220824
0.205969
-0.137147
-0.0688224
0.0914941
-0.210253
0.118759
-0.205456
-0.18127
0.119816
0.106738
0.177197
-0.0670639
-0.302342
-0.0540412
0.356383
0.351902
-0.251278
-0.100624
0.323768
-0.231111
-0.0926572
-0.367886
0.233448
0.0993097
-0.278562
0.179253
0.0368753
-0.339217
-0.108915
-0.399099
0.296559
0.102539
0.0867035
0.0305036
0.245025
-0.275528
0.427057
-0.215771
-0.0667096
-0.0795102
-0.217052
0.120978
0.0960737
0.224991
0.192671
0.366115
-0.149301
-0.187753
0.122071
0.065682
0.184033
0.243024
-0.146724
-0.144108
0.290832
-0.314517
0.167793
-0.248809
0.0996363
0.149173
-0.0652777
0.323411
-0.258133
0.118076
0.0347399
-0.152816
-0.117552
0.129118
-0.151501
-0.0812675
0.232768
-0.159254
0.303009
-0.143755
-0.236201
-0.0150125
0.320582
-0.282523
-0.0380593
-0.304583
0.239305
0.196246
-0.185642
-0.0106039
0.289844
-0.210651
-0.0791933
0.100674
-0.274333
0.00890799
0.0484336
0.132795
-0.371751
0.238956
-0.204655
0.123242
0.0814125
-0.360868
0.132229
0.353608
-0.0418869
0.102629
0.137559
-0.240188
-0.364477
0.205291
0.159186
0.172809
-0.258639
0.0909391
-0.173256
0.0823171
-0.139835
-0.0772164
0.0556334
0.0870581
-0.142692
0.333493
-0.133353
-0.20014
0.149432
0.184061
0.139328
-0.228702
0.0893745
0.217723
-0.126229
0.0489379
0.338943
0.0200899
-0.0314761
0.0113862
0.127915
0.0780544
-0.224491
0.365779
-0.141288
-0.166522
-0.341432
0.201205
-0.126364
0.166778
-0.040414
-0.036996
-0.0111082
0.0481042
-0.377364
0.16961
-0.246429
-0.114439
0.242
-0.383536
0.141537
0.396541
-0.253629
-0.142912
0.277417
-0.116207
-0.16121
0.17484
0.221701
-0.0390474
-0.130812
0.169859
-0.0594356
0.100586
-0.0411503
0.206244
-0.134623
-0.0716212
0.0377184
-0.138498
0.10078
0.0978187
-0.322421
0.327211
-0.173555
-0.153656
-0.233332
0.101599
0.131733
0.0288816
-0.0291245
0.254679
-0.178104
-0.0765754
0.0933861
0.0465901
0.121733
-0.0348532
-0.0868801
0.11933
-0.278584
0.00507246
-0.108513
-0.130539
0.0821358
0.0484034
0.363521
-0.121522
0.154662
0.0672117
-0.221873
0.35997
-0.236845
-0.123125
-0.121024
-0.0714243
0.192448
0.0828003
0.145899
-0.228699
-0.0339996
-0.0130957
0.0470953
-0.0971155
0.0376799
-0.157118
0.23899
-0.0818715
-0.374429
0.2438
0.130629
-0.226144
-0.0910106
0.317155
0.229522
-0.206591
-0.0229302
0.232416
-0.0930888
0.380354
-0.248548
-0.131806
0.361096
-0.234747
0.0323226
-0.00344107
0.028949
-0.129539
0.10059
-0.0953282
0.124277
0.195455
0.0850822
-0.280537
0.0195479
0.102185
-0.19348
0.0926997
0.10078
0.238769
0.0849983
0.100696
0.102653
0.0927733
-0.162149
0.0693756
-0.360782
0.036284
0.0192684
-0.0764293
0.270734
-0.194304
0.133452
0.225755
0.16953
0.085149
-0.128781
0.293728
-0.164947
0.113693
-0.249419
0.260012
0.0717248
-0.331737
-0.276029
0.1996
0.255928
-0.161183
-0.0947459
-0.0100163
0.0464451
-0.0140777
0.210324
-0.239461
0.326865
-0.114882
-0.142214
0.162959
-0.348748
0.185789
0.271603
-0.392745
0.121142
-0.0651535
0.0573923
0.0077612
-0.0449641
-0.0897716
0.389543
-0.11794
-0.207084
-0.0185405
0.225624
-0.253813
0.131185
-0.0499673
0.188958
-0.138991
0.35249
-0.11372
-0.0925951
0.117991
0.159426
0.360788
-0.165332
-0.123802
0.0889485
-0.0355683
0.153644
-0.107228
-0.0894742
0.127757
-0.0900383
0.173078
-0.420551
0.247473
0.406026
-0.108895
0.13105
0.0751938
0.219142
-0.337945
0.118802
0.0482033
0.272379
-0.0933399
0.0283425
0.0739406
0.0837416
-0.352048
0.213878
0.241296
-0.0840942
0.148621
-0.347835
0.199213
0.0540573
0.0803317
-0.134389
-0.266434
0.00844541
-0.229436
0.339935
-0.1105
-0.268471
-0.108894
-0.342432
0.17813
0.164302
-0.212674
0.0964849
0.194595
-0.062922
0.0149323
0.0333811
-0.0483134
-0.217745
0.108576
0.109169
-0.230961
-0.12138
0.352341
0.300204
0.113037
-0.117527
-0.131282
-0.0815196
-0.0118203
0.362281
-0.222683
-0.139599
-0.0964954
0.155892
-0.0593968
0.365788
-0.338319
-0.373121
0.130278
-0.0783991
-0.113434
0.191833
0.173545
0.188736
0.0496349
0.0928062
0.292579
0.113447
-0.222884
0.172917
0.315951
-0.0421942
-0.273756
0.283455
-0.122082
-0.161374
0.210657
0.0452718
0.18888
0.105637
-0.294517
0.0971822
0.181357
-0.278539
-0.0688471
-0.0314342
0.100281
0.294325
-0.102702
0.298554
0.0512396
0.300891
-0.132158
-0.168733
-0.372228
0.216226
0.156002
-0.228051
0.0933254
0.134725
0.374065
-0.297737
-0.0763285
-0.195366
-0.0814848
0.276851
-0.0579014
-0.242216
0.300118
-0.200885
0.105241
0.095644
0.210695
-0.268597
-0.101662
0.280249
-0.257711
0.165583
0.0921282
0.349421
-0.314236
-0.0351846
-0.25309
0.325692
-0.0726022
-0.233073
0.358856
0.326779
-0.110266
0.371039
-0.0784601
-0.140122
-0.232107
-0.180278
0.366706
-0.0581397
-0.0868875
0.242968
-0.278504
-0.0875512
0.0594859
0.0879425
-0.139014
-0.203419
0.0501529
0.265798
-0.121521
-0.10653
-0.036931
0.127811
-0.0908804
-0.0407767
0.032166
0.00861078
-0.0441925
0.0591249
0.0231495
0.102418
-0.125567
0.146678
0.191513
-0.338191
0.375863
-0.240095
-0.135768
-0.358316
0.137399
0.220917
-0.0730232
-0.417232
0.218018
0.199213
-0.0977905
0.148555
-0.204202
-0.21303
-0.251075
-0.00374103
0.224922
0.101857
0.0904169
0.280622
-0.221321
0.351923
-0.130602
0.233643
0.14222
-0.327693
0.124072
0.203621
-0.13113
0.0941988
0.0326895
-0.0125996
0.120594
0.0740008
-0.0917341
-0.109151
-0.372351
0.151031
0.125429
-0.326476
0.201047
0.350913
-0.236404
-0.114509
0.193004
0.18735
0.302747
0.0639584
0.19598
-0.0952839
-0.152384
0.0122728
0.0615966
-0.0387848
0.147643
0.323138
-0.197709
-0.134355
-0.223961
-0.14307
0.35882
-0.21575
-0.0298061
0.275391
-0.245585
0.258
-0.287806
-0.14392
0.0305608
0.334349
0.0771686
-0.146743
0.0695746
-0.12105
0.411418
-0.199479
0.362438
-0.0950616
0.15293
-0.0578686
-0.216864
0.0924758
0.124388
0.255313
-0.399072
0.14376
0.365043
-0.109731
0.0835962
0.0329058
-0.0854526
-0.224563
0.310016
-0.136426
-0.0813187
-0.156671
0.248051
-0.0913796
-0.01103
0.0512155
-0.0677143
0.144883
0.0692231
-0.202772
0.133549
-0.0345189
0.202426
-0.167907
-0.379255
0.271637
0.107618
0.117107
-0.0939578
0.253036
0.0978772
-0.38021
0.271311
0.108899
0.338742
-0.116658
-0.222085
0.12013
-0.224274
-0.227382
0.192863
-0.282522
-0.0976883
0.0931041
-0.236288
0.143184
0.177881
-0.20424
-0.203584
0.353945
-0.150361
0.0302536
-0.0402699
0.24524
-0.0903486
0.134294
0.0375724
-0.171866
0.132299
-0.0930132
-0.0392859
-0.354381
0.150797
-0.35445
0.228994
0.205117
-0.282453
0.0773357
0.206387
0.0842081
-0.290595
0.42911
-0.246371
-0.182738
-0.291474
0.293728
0.265727
-0.369998
0.449787
-0.203894
-0.245894
0.235594
-0.115778
-0.086829
0.291946
-0.0822816
0.291579
0.0892629
0.191128
-0.280391
-0.153749
-0.14965
0.303398
-0.0587038
0.10239
-0.0436864
0.119567
-0.189984
0.0704172
-0.386438
0.187172
0.199266
-0.338837
0.114346
-0.202037
-0.0804159
-0.235156
0.38379
-0.148634
0.0550185
-0.192377
0.137359
-0.192025
-0.172453
0.0351366
-0.196754
0.286017
-0.386984
0.124752
0.262231
-0.283885
0.12242
0.161465
0.128477
-0.282225
0.398293
-0.326917
-0.0713756
-0.344372
0.210017
-0.202942
-0.141431
0.222247
-0.356318
0.0801472
0.0318892
0.197004
-0.363096
0.166092
0.138034
-0.373287
0.235253
-0.147241
0.271689
-0.124448
0.135211
0.167537
0.0804386
-0.217154
0.136716
-0.189434
0.101253
0.0947266
0.115771
-0.242618
0.35893
-0.116312
0.0256669
0.0050368
0.294319
-0.109623
-0.198478
0.203935
0.180782
-0.125763
-0.332957
0.229929
0.103029
0.145742
-0.324936
0.179193
0.151034
0.176176
0.314043
0.0517454
0.169281
-0.396662
0.287047
0.109615
0.00231958
-0.0368254
0.0345058
0.42794
-0.169939
0.185723
0.0771002
-0.129397
0.052297
0.113812
0.199241
-0.313053
-0.406034
0.198237
0.207796
0.1105
-0.137982
0.0274821
-0.138685
-0.224411
0.0802932
0.1344
-0.214693
0.217805
0.231983
0.266824
-0.365688
0.0988643
-0.0725083
0.163447
-0.0847167
-0.119938
0.166922
-0.0741483
-0.260128
-0.110823
0.370951
-0.0972228
-0.233626
0.330849
0.228595
-0.0739332
-0.0454782
0.0114786
-0.270018
0.187579
0.0246933
-0.00901308
-0.0156802
0.343912
-0.259544
-0.084368
-0.278108
0.0609558
-0.131961
-0.220086
0.0189011
-0.204959
0.324289
0.297043
-0.161832
0.109471
0.126124
0.262671
0.0867496
0.113744
-0.0101919
0.348647
-0.111342
-0.237305
-0.0381042
-0.0914348
-0.0947314
0.394823
-0.240533
-0.14645
0.168618
-0.0193942
-0.149224
-0.0468255
0.181119
0.284505
-0.166514
0.114275
0.0386337
-0.152908
0.181489
-0.327012
0.145523
-0.169474
0.137257
-0.397414
0.285566
0.111848
0.392768
-0.128383
0.191319
-0.205396
-0.0726155
0.105327
-0.0327114
-0.169719
0.156712
-0.260844
0.104132
-0.282305
0.116111
0.166193
-0.374374
0.214907
0.159466
0.11019
0.203507
-0.313697
0.205079
-0.140066
-0.0685248
0.124675
0.15983
-0.0891758
-0.0229458
-0.263736
0.170905
0.0928309
-0.2364
-0.106768
0.0932882
-0.226365
0.133077
0.365579
-0.138531
-0.227047
-0.234807
-0.171227
0.327783
-0.146294
0.310102
-0.209801
-0.100301
0.135254
-0.0357209
0.0673933
0.0374048
-0.104798
-0.261373
0.168369
0.357394
-0.330541
-0.0268536
-0.292833
0.0907963
-0.0415802
-0.0235733
-0.13883
0.231934
-0.1061
0.0686246
0.0374756
0.111369
0.339955
-0.323681
-0.0162741
0.331113
-0.32699
0.106954
-0.339656
0.232703
0.311782
0.0281723
-0.0517928
0.294566
0.0739564
0.0504602
-0.124417
-0.27862
0.391382
-0.112762
-0.300895
0.141317
-0.209938
0.0586628
0.0215623
0.212081
-0.230448
-0.0943706
0.324819
-0.250283
0.366922
-0.116639
0.11302
0.232707
-0.0664298
0.325455
-0.0961419
0.136873
-0.0407314
0.116745
-0.164084
0.0473396
-0.375361
0.227732
0.147629
-0.141344
0.103239
-0.228007
-0.171091
0.162044
0.103731
0.243115
-0.0068548
-0.0339219
0.152407
-0.0553037
-0.0971037
0.345878
-0.221126
-0.318694
0.113735
0.111625
0.194861
-0.306486
-0.186352
0.0761903
0.110162
-0.0454888
-0.0360308
0.353338
-0.208326
-0.186195
0.107795
0.00375127
0.0519834
-0.0557347
-0.0501512
0.21877
0.340097
-0.124203
-0.215894
0.425105
-0.252027
-0.0900373
-0.040502
0.252467
0.125026
0.208751
-0.143797
-0.0649535
-0.327671
0.0110246
-0.0730972
-0.123576
-0.0286775
0.0989562
-0.339496
0.225441
0.114055
-0.282195
0.0885691
0.204119
-0.0683876
0.0700498
-0.266665
-0.144331
-0.0269651
0.142319
-0.115354
-0.39223
0.243076
0.149154
-0.160394
-0.260157
0.218199
-0.30048
0.145196
-0.108599
-0.0794773
0.0339885
0.0825705
0.281217
-0.115812
-0.249098
0.0203492
0.00434408
0.27007
0.0873247
-0.162438
0.135473
-0.26125
0.161567
-0.338578
0.16538
0.173198
-0.114649
0.276019
-0.16137
0.13967
0.225909
0.0745606
-0.299726
0.147938
0.151789
-0.110127
-0.0311193
0.141247
-0.0727178
0.051596
0.0211218
0.166765
-0.266196
0.0994313
0.0666345
-0.289271
-0.2104
0.231962
-0.20357
0.346942
0.282469
0.0753753
-0.357844
-0.068831
-0.0933179
0.146654
-0.091021
-0.418848
0.240799
0.178049
-0.0219223
-0.128322
0.345641
-0.187358
-0.158283
0.165371
-0.0510963
-0.101774
0.271212
-0.169439
0.107332
0.191062
-0.298394
-0.200303
0.297511
-0.0972079
0.161905
0.121551
-0.114007
0.160766
-0.0467591
0.0751942
-0.222486
0.220502
-0.167362
-0.0531394
0.243346
0.185764
0.209126
-0.260919
0.17758
-0.331867
0.154286
0.0613578
0.388061
-0.173398
-0.214663
-0.0202536
0.211572
0.112548
-0.259788
0.103164
-0.180263
0.0770986
0.293775
0.0996618
-0.354015
0.118859
-0.0554899
0.337959
0.260852
-0.373692
0.11284
0.303014
-0.276484
-0.0265301
0.11363
0.198389
-0.31202
-0.113866
-0.114836
0.0619771
0.00604769
-0.380153
-0.0956515
-0.18721
0.282861
-0.359951
0.156429
0.203521
-0.0296157
0.0319353
0.209232
-0.316905
0.107673
0.329882
-0.12065
0.0427294
0.0925242
-0.2549
0.177289
0.077611
0.193316
-0.0848571
-0.108458
0.176335
-0.196588
-0.194527
0.359124
-0.253803
-0.105321
-0.0150324
-0.135375
0.150407
0.24678
-0.387484
0.140704
0.0574844
-0.17289
0.115406
0.1169
-0.230766
0.367562
-0.120783
0.192839
-0.087778
-0.105061
-0.151561
-0.165228
0.316789
-0.0339345
0.0438454
-0.00991089
0.340564
0.00517231
-0.345737
0.0778855
-0.235004
-0.124974
-0.104029
0.229003
0.337686
-0.172914
-0.164771
-0.0735409
0.153016
0.223417
-0.0753265
0.0631648
0.0392254
-0.138851
0.304862
-0.16601
-0.104353
0.132453
0.0909639
0.193923
-0.0949394
-0.0989837
0.390949
-0.287968
-0.102982
-0.0404412
0.0754595
0.118464
0.266622
0.0363924
0.161228
-0.277575
-0.127104
-0.244815
0.272117
-0.105353
0.378052
-0.260566
-0.117487
0.168657
0.169028
-0.0415386
0.15734
-0.115802
0.203273
-0.12298
-0.126845
0.0505939
0.0762511
-0.397491
0.193597
-0.166073
-0.0951688
0.261242
-0.266176
-0.0989853
0.286206
-0.0973252
-0.212654
-0.161719
-0.219174
0.0857631
0.133411
0.373348
-0.259186
-0.114161
-0.052475
-0.0202428
0.342707
-0.352974
0.0102671
0.224697
-0.153792
-0.0709044
0.192126
-0.283326
0.0911992
-0.0334223
-0.153495
-0.301542
0.149981
0.189451
-0.0862869
-0.388805
0.268758
0.120047
-0.184973
-0.0622474
0.24722
-0.126609
0.000244702
0.00569158
0.139339
-0.14503
0.019654
-0.0719799
0.0523259
-0.0962632
0.125049
-0.028786
0.0591392
-0.182833
0.123694
-0.234703
0.113069
0.121634
-0.245346
-0.0929366
0.338283
0.179635
-0.120495
-0.197838
0.295295
-0.0974577
-0.391042
0.264962
0.12608
0.145999
0.0627516
0.268412
0.10964
-0.386662
0.272056
0.114606
-0.244467
0.254312
-0.0365889
0.152583
-0.146891
-0.111382
0.34302
-0.231638
-0.177855
-0.211043
0.0770822
0.13396
0.10449
-0.243147
0.138657
0.157963
-0.041218
-0.253104
0.283763
0.300259
-0.239583
0.0652596
-0.161755
0.128402
-0.143434
-0.281886
0.386886
-0.105
0.345443
-0.0484001
-0.0292641
-0.00607092
0.035335
0.139201
-0.318931
0.17973
-0.187716
-0.0366182
-0.109241
0.145859
-0.18299
0.272322
-0.0893315
0.0928939
-0.33824
0.133547
-0.233813
0.353451
-0.119637
0.100648
-0.331759
0.359718
0.0812161
-0.187308
0.106092
0.0527295
0.297103
-0.200258
0.294888
-0.09463
0.37917
-0.222513
-0.156656
-0.160448
0.145807
-0.220783
0.0749761
-0.196117
-0.103609
-0.0477826
0.28183
-0.234048
-0.0711537
0.126539
0.351527
-0.0794667
-0.27206
-0.0518651
0.2282
-0.0823076
-0.225523
0.30783
0.256825
-0.37074
0.113915
0.27426
0.0772663
-0.158608
-0.214513
-0.0771229
0.324127
-0.247004
0.089074
0.0432251
0.080497
0.1442
-0.255039
0.177896
0.247209
0.268254
-0.188451
-0.0798029
0.177901
-0.157552
-0.0203486
0.105734
0.234851
-0.340585
0.278788
0.112161
0.228443
0.117435
0.258295
-0.169183
-0.0891118
-0.327566
0.111174
0.216392
0.205242
-0.361464
0.156222
0.0672069
0.0101729
-0.0773798
0.0997889
0.126422
-0.22621
-0.209515
0.315073
-0.105558
-0.12897
-0.181591
-0.0705178
-0.234065
-0.269825
-0.127666
-0.318678
0.248161
0.16818
-0.110695
-0.310809
0.0771829
-0.404305
0.272392
0.131913
0.14814
0.0842769
-0.164704
-0.210657
0.134825
-0.0414385
-0.231336
-0.0195462
-0.268759
0.154111
0.196364
0.0954526
-0.0286254
0.0810179
-0.0523925
-0.0971957
0.057359
0.288084
0.118977
-0.032321
0.0768938
-0.356591
0.241663
-0.318785
-0.0593958
0.113453
0.0737685
0.125588
-0.199356
-0.235054
0.14917
0.0731548
-0.205733
0.132578
-0.146893
-0.0919852
0.238878
0.253877
-0.352489
0.098612
-0.0447092
-0.28835
0.119174
0.169176
0.126037
-0.177413
0.0513755
0.062825
-0.115274
0.0524487
0.0356905
0.316251
0.0303264
0.0270446
-0.057371
-0.0816228
0.332284
-0.250661
-0.199517
0.0628138
0.136704
-0.0636005
0.0746252
-0.0481965
0.293267
0.242322
-0.323945
0.123757
-0.165296
0.153309
-0.0821114
0.230251
0.134066
0.0624612
-0.196527
0.0747052
-0.022721
-0.0519842
-0.0885918
0.221044
-0.127449
0.0674693
-0.120802
0.0533326
-0.282961
0.204306
0.0786543
-0.281534
0.0781056
0.203428
0.0931293
0.0883372
0.207193
-0.295531
-0.206095
0.330278
-0.124183
-0.203145
-0.0978419
0.300986
0.0831532
0.0358233
0.0319735
-0.235118
0.156734
-0.360304
-0.120552
0.292433
-0.193123
0.0890824
0.0434098
0.183412
-0.201283
0.28962
0.0833856
-0.267784
0.184398
0.39242
-0.208388
0.332531
-0.199736
0.351657
-0.101064
-0.250593
-0.0327072
0.0418781
0.157028
0.0208721
-0.164525
0.254527
-0.0900016
-0.0514672
0.193522
0.271967
-0.150748
-0.121219
0.10007
0.158225
-0.138515
0.211383
-0.0728679
0.0328326
-0.320834
0.288001
0.317536
-0.0926139
0.10822
-0.350766
0.242546
0.32292
-0.156115
-0.166805
0.33531
0.00505695
-0.340367
-0.187228
-0.0238545
0.269767
-0.12135
0.0848596
0.0364906
-0.0524046
0.119874
-0.283198
0.16195
0.121248
0.219735
-0.141748
-0.0779874
-0.0358404
-0.0264408
0.0622811
-0.0417794
-0.0778019
0.0333517
-0.209843
-0.150108
0.166901
-0.278283
-0.341103
0.149211
0.191892
0.120986
0.238139
0.0282223
0.0591511
-0.077331
0.29553
-0.123981
-0.0709976
0.194979
-0.107708
0.0908985
-0.320334
0.0688875
0.0127673
-0.0816548
-0.138894
0.316475
-0.00705903
-0.085709
-0.0496164
0.254858
0.0863679
0.0484566
-0.0559554
-0.222549
0.134506
0.188414
-0.398549
0.273001
0.125548
0.0720395
-0.0523856
-0.0733988
0.207465
-0.0766339
-0.128554
-0.199139
-0.227894
-0.131975
-0.232647
-0.128817
0.0101862
0.0645191
0.267171
-0.183786
-0.00265193
-0.0609486
0.103992
-0.132101
0.0281092
-0.0849045
-0.217492
-0.161763
0.115116
-0.0522906
-0.0772129
-0.0846971
-0.379918
0.175426
0.361344
-0.0972059
-0.264138
0.0740375
0.243499
-0.0879537
0.0159738
0.296368
-0.0899807
0.0369622
-0.0423541
-0.165926
0.266923
-0.11021
-0.245303
0.316238
-0.209802
-0.106436
0.263747
0.0254315
-0.289178
-0.138736
0.333157
-0.000460608
-0.332696
0.318802
0.00888121
-0.327683
0.123967
0.0965349
-0.164631
0.310374
-0.150619
0.252747
-0.102128
-0.317418
0.0340446
0.3229
-0.130458
-0.102874
0.215118
-0.145895
-0.354018
0.293882
0.0601363
0.204556
-0.252338
-0.131797
0.027233
0.00663931
0.139622
0.0801128
-0.152537
0.119246
0.170598
0.0762009
-0.166869
0.0906685
-0.0844697
0.0546942
0.0297755
-0.207977
0.0762365
-0.250586
-0.129332
0.348954
-0.092129
0.234406
-0.148036
-0.0863703
-0.0279516
0.0189385
0.335388
-0.125279
-0.35177
0.117957
0.12873
-0.0818851
-0.0468449
0.339311
-0.0529764
-0.286334
-0.136051
0.309873
-0.173822
-0.0670536
-0.0641832
-0.166596
-0.0561121
-0.115154
-0.151042
0.115424
-0.219976
0.0735415
-0.183872
0.11033
0.257377
-0.379105
0.121728
0.272862
0.0757853
0.164717
0.121489
0.369186
-0.183902
-0.185284
0.212223
0.149934
0.219252
0.171418
0.100548
-0.0606016
-0.19142
0.252022
-0.111639
0.0698595
-0.194343
0.304534
-0.0289834
-0.193245
0.349979
-0.0325661
0.250563
-0.0905391
0.145638
-0.0550988
0.0897781
-0.267882
0.204823
-0.0630471
0.0272068
-0.0391513
-0.0664399
0.0845772
0.236151
-0.320728
-0.0414811
0.0874627
-0.0459816
0.00124405
0.12667
-0.175208
0.104629
0.0705792
0.3027
0.0764694
-0.356223
0.10242
0.142849
-0.0688922
-0.126363
0.187643
-0.248245
-0.072508
0.0353125
0.0371955
-0.10364
-0.188343
0.291982
-0.0498469
-0.0562532
0.188422
0.117776
-0.24783
-0.116203
0.117275
0.056164
-0.173439
-0.397432
0.102083
0.295349
-0.0314124
0.295159
0.147462
-0.197613
0.395965
-0.282203
-0.113761
0.0114495
0.169332
0.191798
-0.330693
0.416211
-0.198407
0.0197902
-0.22899
0.209199
-0.334223
0.0419841
0.292239
0.276331
0.119634
-0.0571355
0.0836206
-0.160935
-0.104708
0.265643
0.2247
-0.272896
-0.0436053
0.0118331
0.0317722
-0.128651
-0.159525
0.0643647
0.0951605
0.332208
-0.215676
-0.116532
0.234825
0.116831
0.051052
-0.0787462
0.0276942
-0.104902
-0.129041
-0.0789362