/*--------------------------------*- C++ -*----------------------------------*\
| =========                 |                                                 |
| \\      /  F ield         | OpenFOAM: The Open Source CFD Toolbox           |
|  \\    /   O peration     | Version:  v2012                                 |
|   \\  /    A nd           | Website:  www.openfoam.com                      |
|    \\/     M anipulation  |                                                 |
\*---------------------------------------------------------------------------*/
FoamFile
{
    version     2.0;
    format      ascii;
    class       volScalarField;
    location    "100";
    object      nut;
}
// * * * * * * * * * * * * * * * * * * * * * * * * * * * * * * * * * * * * * //

dimensions      [0 2 -1 0 0 0 0];


internalField   nonuniform List<scalar> 
33474
(
0.000465348
0.000457726
0.000327013
0.000457608
0.000459461
0.00743584
0.000460344
0.000460447
0.000460544
0.000454257
0.000532676
0.000456528
0.000459691
0.000458135
0.000986099
0.00072413
0.000459291
0.000711307
0.0073517
0.000459411
0.00045712
0.000458817
0.000458811
0.00302783
0.00272722
0.000458728
0.000460581
0.0034269
0.0154518
0.000459694
0.000456122
0.000456841
0.00369126
0.00047331
0.00107312
0.00119041
0.000458177
0.000461122
0.000473372
0.0011341
0.000467488
0.00301182
0.00567514
0.000468834
0.0157902
0.00376934
0.000468442
0.00108929
0.000458429
0.000541568
0.00045754
0.000458725
0.00304971
0.012175
0.000459496
0.00388691
0.000458899
0.000456407
0.00517838
0.00506319
0.000455844
0.000486272
0.00416171
0.000456247
0.000465274
0.000458883
0.00642434
0.0152477
0.000455831
0.0149154
0.000470814
0.000498945
0.000468483
0.000459473
0.000456842
0.000530717
0.000460036
0.0004554
0.000459474
0.000611957
0.0142571
0.000458796
0.00222106
0.000452563
0.000529923
0.0155034
0.000876057
0.00552594
0.00145443
0.000468419
0.00237168
0.000463043
0.000737358
0.000455602
0.00046075
0.000458769
0.000456921
0.000459583
0.000451559
0.00241009
0.000454427
0.00264248
0.014662
0.000458795
0.000888205
0.0142668
0.00130889
0.000464101
0.000457995
0.000638315
0.000679226
0.000529829
0.0125241
0.000491078
0.000714388
0.00535033
0.000461514
0.000458811
0.000456006
0.000453556
0.000454143
0.000488153
0.000456426
0.000457631
0.00128741
0.00301363
0.000663157
0.000471274
0.00335911
0.0116214
0.00145915
0.012796
0.00382394
0.000541132
0.000459802
0.000452876
0.00046374
0.000458935
0.000461135
0.000463983
0.0117026
0.00862751
0.00056038
0.000456168
0.000557677
0.000643988
0.00959261
0.00045388
0.00050687
0.000564098
0.000465275
0.000458642
0.000460937
0.000457328
0.000485326
0.000454916
0.0154593
0.000461724
0.0006476
0.00295371
0.000464613
0.000575294
0.00430048
0.000454169
0.0150715
0.000491123
0.000452665
0.000493904
0.000465315
0.000460651
0.000639821
0.000464118
0.000460627
0.0122417
0.000457479
0.000455248
0.0112388
0.000459497
0.00275852
0.000484012
0.000461723
0.000471927
0.000458707
0.0113913
0.000457752
0.000543827
0.000505911
0.0154083
0.0049862
0.000460848
0.000480507
0.00652396
0.00045681
0.000541583
0.00297883
0.000611192
0.000451474
0.000511655
0.00429808
0.000496633
0.000452946
0.00195572
0.000489205
0.000457648
0.000463659
0.000460837
0.00317445
0.000514596
0.00112825
0.00112599
0.000468403
0.00342739
0.000700902
0.000478706
0.000458547
0.00669288
0.000461327
0.0142148
0.000495846
0.000482055
0.00104382
0.00046346
0.000457077
0.000702885
0.0056133
0.000474302
0.000937962
0.000464963
0.0137153
0.0139562
0.000467876
0.00456384
0.000460378
0.0155405
0.0155683
0.000463331
0.000456838
0.000926078
0.000457049
0.0104328
0.000959195
0.0031608
0.000455302
0.00045858
0.000458831
0.0047983
0.000643433
0.000459238
0.00719149
0.000457972
0.00334008
0.000463249
0.004145
0.00285927
0.00277665
0.000457839
0.000454912
0.000485954
0.0106008
0.000264805
0.00045617
0.000492434
0.000467866
0.00045273
0.000458929
0.000515411
0.0103339
0.000462662
0.00045919
0.000642436
0.000457158
0.000477563
0.000458853
0.000461249
0.00547873
0.000458918
0.000829191
0.00912699
0.000473343
0.000460609
0.000548475
0.000460925
0.000458772
0.000456442
0.000457009
0.000454954
0.000459012
0.00795946
0.000461206
0.0004564
0.00331202
0.000463212
0.00046656
0.00394713
0.00243351
0.0069333
0.00048017
0.00172742
0.00136357
0.000712083
0.00331748
0.00697135
0.00349791
0.000688499
0.00187231
0.000451666
0.000466344
0.00389066
0.0145731
0.000458722
0.000486412
0.000460821
0.000460922
0.00046074
0.00046153
0.00576115
0.000454144
0.00235246
0.0004579
0.0106578
0.000452708
0.000459729
0.000458962
0.000505595
0.000452696
0.00121389
0.000463154
0.000457855
0.000454782
0.000460495
0.00698007
0.000457835
0.000461634
0.000563897
0.00046459
0.00454204
0.000783916
0.000456209
0.00610363
0.00566015
0.000468511
0.00593883
0.000460147
0.000477905
0.000488419
0.00274978
0.000459555
0.000468983
0.000491369
0.000451743
0.000460294
0.0033627
0.000459241
0.0123459
0.00438054
0.000268327
0.00660089
0.0082903
0.000465237
0.000461833
0.000732254
0.000451634
0.015516
0.000454179
0.000458848
0.00459548
0.000458019
0.000479933
0.000469394
0.0047292
0.000462512
0.000483882
0.0152766
0.000458938
0.000458768
0.0131848
0.00653374
0.000457034
0.00810343
0.000464552
0.000314336
0.00486875
0.000458179
0.000467626
0.00080398
0.00428068
0.000460627
0.000456136
0.000457864
0.00538635
0.0135388
0.000457016
0.000556339
0.00640896
0.00045698
0.00046076
0.000460282
0.000634061
0.000464941
0.000457708
0.00452753
0.00439929
0.000468436
0.00061812
0.000457085
0.000460326
0.00355575
0.000871159
0.000460298
0.000468706
0.000463395
0.00320605
0.000468284
0.0035159
0.000507704
0.000453845
0.000454059
0.0140396
0.000456758
0.00384382
0.000455971
0.011337
0.000622926
0.000455865
0.0141244
0.000531348
0.00691259
0.0041718
0.000831755
0.0148339
0.000457491
0.00473713
0.00385948
0.000462154
0.000457269
0.000461472
0.000458779
0.000459358
0.000463363
0.000460749
0.000501084
0.000468121
0.000455867
0.000458976
0.00530289
0.00473481
0.000455625
0.00046113
0.000454406
0.000458801
0.000457554
0.0134353
0.000477811
0.000458816
0.000245718
0.000463485
0.00045855
0.000457609
0.00332283
0.000658891
0.00532661
0.0145418
0.00764557
0.00398816
0.00537799
0.00732828
0.000463974
0.013635
0.000461909
0.000462201
0.013042
0.000460917
0.00571429
0.00598772
0.00952339
0.000719794
0.000457094
0.000458272
0.000505642
0.000531576
0.00669836
0.000462342
0.0152108
0.00790946
0.000465757
0.0102349
0.00533355
0.000463288
0.000267265
0.000457574
0.000455893
0.000477893
0.00598597
0.000463387
0.000461498
0.000455053
0.000465481
0.00045886
0.00225666
0.000457701
0.0138659
0.000455308
0.000459231
0.0128038
0.000653033
0.000824471
0.0026027
0.000541491
0.00334192
0.0119528
0.00832577
0.00066088
0.000463913
0.000461129
0.000490643
0.00550925
0.000459099
0.0137056
0.0135474
0.000459492
0.00045736
0.000463519
0.0133763
0.000495145
0.00162384
0.000982028
0.00522427
0.00314272
0.00221622
0.000458795
0.000458831
0.00076837
0.000527837
0.00363599
0.000451769
0.00790307
0.000459144
0.0134673
0.00360093
0.000462173
0.00861705
0.00712973
0.000538573
0.000458786
0.000632984
0.000270933
0.00261559
0.000456387
0.00469246
0.00297677
0.000453838
0.00096816
0.000459519
0.00565737
0.000460573
0.000457611
0.000536475
0.00045866
0.000451763
0.00761859
0.000465568
0.000459683
0.000467248
0.000459254
0.00045882
0.000455766
0.00500241
0.000456178
0.00385215
0.00342582
0.000476345
0.000458906
0.00241043
0.000458051
0.00422972
0.000462171
0.00045276
0.00742581
0.000457194
0.000459139
0.000462216
0.00367804
0.0032686
0.00793986
0.000457389
0.000469074
0.00227893
0.0147151
0.000452545
0.000460388
0.000459742
0.000505335
0.00408622
0.000461984
0.00046739
0.000481388
0.000463296
0.000458813
0.0143731
0.000457258
0.00465329
0.000452728
0.000461613
0.000459298
0.0146927
0.00045818
0.000845157
0.000452694
0.000751359
0.0004571
0.000475159
0.0004877
0.000772327
0.000469107
0.000456374
0.00534507
0.00362423
0.000581384
0.000460647
0.000452592
0.000500702
0.00969794
0.000984375
0.00226789
0.0101299
0.000469901
0.000463281
0.00046266
0.000469342
0.000459208
0.000463085
0.00825201
0.000477056
0.000737927
0.00742067
0.00380747
0.000456565
0.00321097
0.00741894
0.00451109
0.0102243
0.000457571
0.000499469
0.00108111
0.0071484
0.00195223
0.00376262
0.000465298
0.00110583
0.000468489
0.00158875
0.000464978
0.00106333
0.000845939
0.000462132
0.000469053
0.000456066
0.000470544
0.00103716
0.000725295
0.000459353
0.000469546
0.0124734
0.000457167
0.0108502
0.000456953
0.0157448
0.000458556
0.0141674
0.000738363
0.0099755
0.00397253
0.000468879
0.000242866
0.000458698
0.000460726
0.0139176
0.000462586
0.000457048
0.000460629
0.000460631
0.000542955
0.000453339
0.000456179
0.00324397
0.000482544
0.00047651
0.0060474
0.00539755
0.0138545
0.0029214
0.0145252
0.0127257
0.00045589
0.00233558
0.000458514
0.00046051
0.000462207
0.0120481
0.000459494
0.00120199
0.000469023
0.0072206
0.00218152
0.000635977
0.000475721
0.000462144
0.000528453
0.0116834
0.00045569
0.000454732
0.000465188
0.000878848
0.0129001
0.000460776
0.0137086
0.000459909
0.00489655
0.000610866
0.000463207
0.000456004
0.00045273
0.000507131
0.000461753
0.000457221
0.000453325
0.000461764
0.000509196
0.00978553
0.000456519
0.00755236
0.010236
0.000457141
0.000804315
0.0010676
0.000466819
0.000459361
0.000464673
0.000467934
0.00662582
0.000502439
0.000541766
0.000469958
0.0131413
0.00577144
0.00492138
0.000648247
0.0154914
0.000459413
0.000458699
0.012381
0.000826521
0.000654612
0.000468427
0.000516301
0.000460619
0.000457484
0.0157791
0.00045812
0.00427088
0.000462291
0.000558004
0.000841189
0.000846108
0.000463466
0.0130133
0.000456734
0.000456775
0.000456735
0.00532141
0.00654008
0.00045818
0.000470423
0.00311846
0.000454881
0.0147813
0.000456367
0.00406558
0.000472184
0.00045908
0.00958991
0.000985375
0.0118657
0.00669233
0.000478595
0.000457897
0.0004597
0.000506743
0.0037574
0.000474792
0.00177429
0.000461238
0.000462033
0.012553
0.000580476
0.00255714
0.00698267
0.0152302
0.0070442
0.00306993
0.000472366
0.000463403
0.000458106
0.00158568
0.00104113
0.000817933
0.000468355
0.000455918
0.0111094
0.0071025
0.00136648
0.000460763
0.000858021
0.000505568
0.000462404
0.000475771
0.000523823
0.00248043
0.000456431
0.00100181
0.000493699
0.000456365
0.00346621
0.000465169
0.000476537
0.0158374
0.00359241
0.000491481
0.00465107
0.000456006
0.000470864
0.000457031
0.000455801
0.000467734
0.000457395
0.000465504
0.00473069
0.0146966
0.000459389
0.000460745
0.00165282
0.00170997
0.000459376
0.000455768
0.00045579
0.00046215
0.000455621
0.000456079
0.000603483
0.000503922
0.0140921
0.0004831
0.00472214
0.000476498
0.000463281
0.000463963
0.0105929
0.000476041
0.000459343
0.0110615
0.00052985
0.000460197
0.00644979
0.00981034
0.00927422
0.0155036
0.000914012
0.000252799
0.000461008
0.00869884
0.00240067
0.000458714
0.0146239
0.0031006
0.000458089
0.00124526
0.000459952
0.000459357
0.0140593
0.0122774
0.00232016
0.00365637
0.00906948
0.000457577
0.000505228
0.000457842
0.00061409
0.000459617
0.000458908
0.00325045
0.00363788
0.000455184
0.000471614
0.00431002
0.000527901
0.000463456
0.0141335
0.000463281
0.00387844
0.000495798
0.0144852
0.00262029
0.00376305
0.000457028
0.000463505
0.000459598
0.000457127
0.00237207
0.000609627
0.00100412
0.000553375
0.000842088
0.000457435
0.000462638
0.00798879
0.00508258
0.000816166
0.00496331
0.000467296
0.000461731
0.000467471
0.000459671
0.000457686
0.00502116
0.00211862
0.00348246
0.000460941
0.0144667
0.000455671
0.0133476
0.00107074
0.0135885
0.000493866
0.00215654
0.010986
0.00291255
0.00045184
0.00620055
0.00324625
0.000469176
0.000464363
0.00377052
0.000454798
0.0151156
0.000460222
0.00046228
0.000458041
0.0121813
0.00169026
0.000462754
0.000469025
0.000457539
0.00702106
0.0046699
0.000458748
0.000584661
0.00856955
0.000461993
0.000455263
0.000468513
0.00520366
0.00374873
0.00640517
0.000457267
0.000459876
0.0124501
0.000579079
0.000461025
0.000461037
0.000558669
0.000457734
0.000459761
0.00696664
0.000457691
0.00799351
0.00933654
0.000457506
0.014652
0.0143938
0.000452054
0.000461515
0.0147922
0.00048175
0.000469024
0.00048278
0.000464557
0.000451901
0.000452744
0.000457867
0.000458764
0.00407164
0.00045555
0.00293044
0.00260789
0.00045827
0.00764432
0.000461714
0.00756343
0.000460202
0.0005654
0.000914708
0.000469766
0.000461937
0.00369689
0.000467868
0.000589094
0.0138444
0.000607683
0.000453455
0.00565747
0.000462672
0.0036969
0.000459318
0.000477123
0.000456972
0.000463996
0.000459319
0.0103762
0.000458051
0.0131494
0.00134874
0.000456458
0.000497496
0.00113551
0.000458598
0.0084963
0.000462062
0.0121409
0.00382065
0.000843
0.0038343
0.000546796
0.00045892
0.000459978
0.00284327
0.000458753
0.0151406
0.000462527
0.000507738
0.000459406
0.000459671
0.000469115
0.000471338
0.000493347
0.000462085
0.000564347
0.000476875
0.000466772
0.000568243
0.00480943
0.01034
0.0157848
0.00366877
0.000462139
0.00537857
0.00159497
0.000949561
0.00045756
0.0099358
0.000460244
0.000461024
0.000457202
0.000559367
0.000458902
0.0132758
0.000456075
0.0110077
0.000455366
0.000659442
0.000475647
0.000466697
0.0027328
0.000467671
0.00045583
0.00083504
0.00100839
0.000984614
0.000458998
0.0110141
0.00357639
0.000462272
0.00386485
0.000473726
0.00517592
0.00373234
0.000461133
0.000461145
0.000477135
0.000462588
0.00734814
0.000461843
0.00045745
0.00805458
0.000451393
0.000931009
0.00423616
0.000454722
0.0141343
0.000464445
0.000473342
0.000496221
0.000473428
0.000458096
0.000457337
0.0129912
0.0004591
0.000461727
0.000459094
0.000460507
0.00269613
0.000453391
0.000459379
0.000460576
0.000818253
0.000458798
0.000505385
0.000463586
0.000560395
0.000458715
0.0094628
0.000519447
0.000598341
0.0140163
0.000467934
0.000460504
0.000456523
0.0111357
0.000462427
0.000972215
0.000454684
0.000462363
0.00045991
0.000458728
0.000456044
0.0102075
0.00361091
0.00392288
0.000534595
0.00069005
0.000458681
0.000461054
0.00220178
0.00046155
0.000457506
0.000637559
0.00730442
0.000460627
0.000465231
0.000464645
0.000460352
0.00453272
0.000985158
0.01194
0.000728617
0.000930182
0.0119364
0.0155598
0.000455537
0.000462414
0.000470124
0.000459358
0.00672767
0.00505152
0.000458166
0.000458696
0.00174594
0.000458911
0.0116228
0.000457877
0.00046237
0.000453382
0.000460465
0.000463323
0.00409138
0.000456872
0.00302642
0.00240035
0.000638037
0.00326817
0.0128883
0.000453532
0.000461417
0.000456421
0.00046412
0.0140866
0.000457813
0.000461803
0.00829355
0.000818064
0.00367358
0.00234115
0.00401279
0.000459603
0.000453092
0.0046888
0.000453428
0.000560666
0.000461673
0.0104065
0.00045308
0.0154861
0.015144
0.000465799
0.000452643
0.000452818
0.0117635
0.000459395
0.00388025
0.00210385
0.000463683
0.00059291
0.000748582
0.00046342
0.000460723
0.000474655
0.00045806
0.0113361
0.000461972
0.000504958
0.000617188
0.0152396
0.000469079
0.00860902
0.00046875
0.000468529
0.000466055
0.000459176
0.000454245
0.000468291
0.000460971
0.00280472
0.000463272
0.000456774
0.0151298
0.000459459
0.000455958
0.000463437
0.000464004
0.000460311
0.0035581
0.000463211
0.0149711
0.00593008
0.00403741
0.0022014
0.000456699
0.000451646
0.000589043
0.000462563
0.000476527
0.00045813
0.0020054
0.000459974
0.00703078
0.0108355
0.000556638
0.000455951
0.00047149
0.0144142
0.000465606
0.00272816
0.000458681
0.000690448
0.000513992
0.000738951
0.00094286
0.000512363
0.000469141
0.000598773
0.0100437
0.0103959
0.0142964
0.000715528
0.00047327
0.00596886
0.000463441
0.000469137
0.00045697
0.000464969
0.00301475
0.000458668
0.0105955
0.00534767
0.000456522
0.00049997
0.000453033
0.000458415
0.000461562
0.0157576
0.000451203
0.00045975
0.00118934
0.00112294
0.0143068
0.0108667
0.0028159
0.000455919
0.00211309
0.000462082
0.00289795
0.000467799
0.015082
0.0104312
0.000463105
0.000461725
0.0127339
0.000456943
0.00126264
0.0143501
0.00256945
0.0126126
0.000456108
0.0156416
0.00501907
0.0010441
0.000458113
0.0027664
0.000465351
0.000640653
0.0103289
0.00153535
0.00198184
0.0145
0.00343954
0.000469064
0.000641563
0.000457916
0.000347543
0.000456794
0.000463269
0.000457243
0.0155158
0.000460935
0.00231471
0.000461077
0.000459566
0.00261227
0.00663206
0.000467272
0.000458323
0.000458764
0.00767257
0.000459011
0.000465707
0.00695999
0.000462887
0.00637724
0.000464868
0.000461908
0.000452578
0.000468335
0.00330669
0.000454421
0.0109197
0.000891805
0.000457787
0.000452886
0.0118639
0.000459293
0.000462016
0.000464435
0.000458599
0.000815491
0.000535081
0.000648813
0.000457592
0.00304219
0.000456054
0.000464939
0.00153324
0.00239663
0.0007039
0.000454799
0.0156583
0.00536614
0.00473435
0.000460315
0.000458779
0.000464331
0.0105978
0.000465471
0.000463462
0.000452579
0.000457896
0.000570877
0.000460057
0.000461298
0.000973357
0.000456299
0.00477341
0.0142621
0.000460438
0.0141078
0.0015582
0.0122518
0.000457053
0.000477761
0.000468528
0.000463483
0.000460205
0.000460175
0.000458885
0.00045868
0.000457843
0.000461402
0.00436291
0.000461934
0.00413603
0.000770764
0.0141366
0.000505616
0.000456052
0.000494381
0.000460033
0.00293803
0.000477183
0.000501469
0.0149433
0.00352023
0.000502884
0.000556708
0.00376728
0.00464265
0.000454832
0.0104169
0.00337963
0.000558825
0.000458833
0.00508985
0.000483093
0.000452904
0.00045785
0.000649099
0.000457138
0.00401142
0.00725956
0.00843815
0.000459185
0.000468822
0.000456046
0.00248291
0.000483527
0.00046106
0.000522042
0.00629932
0.00895234
0.000516298
0.00198293
0.000460262
0.000458972
0.00046171
0.0157543
0.000460625
0.000461344
0.000536949
0.00945743
0.000459307
0.000458714
0.000470986
0.000659444
0.000495794
0.000453007
0.00056553
0.000457895
0.00306206
0.000457193
0.000457096
0.000468085
0.00185628
0.000499429
0.000539326
0.00313181
0.0109675
0.000456266
0.000456906
0.00274022
0.000823075
0.000461455
0.000459493
0.000456219
0.000459822
0.000451539
0.00391408
0.00523312
0.000535426
0.000774614
0.0139537
0.0118908
0.000463355
0.000458773
0.000769835
0.00045999
0.00046213
0.00984349
0.00045281
0.000463268
0.000457676
0.00787295
0.00509015
0.00668168
0.009685
0.000481828
0.0103388
0.00393026
0.0115577
0.00045777
0.000464632
0.000544411
0.000465187
0.00329407
0.000463363
0.000463359
0.000459698
0.00212303
0.000462432
0.000458734
0.00905547
0.000458995
0.013726
0.000606497
0.000454844
0.00109831
0.00770995
0.000457251
0.000458421
0.000459013
0.00546467
0.00045896
0.000461417
0.00255941
0.00250655
0.00186974
0.000482188
0.000465289
0.00135706
0.000466984
0.000463714
0.000465918
0.00572327
0.000452307
0.00215125
0.000514569
0.00390445
0.00547537
0.000459539
0.0150316
0.00046012
0.00330714
0.000455798
0.00978133
0.000463036
0.000625366
0.0132681
0.00271145
0.000474781
0.000459494
0.00327277
0.000457923
0.000893816
0.000461177
0.000469307
0.0133249
0.000469388
0.00499649
0.000474576
0.000467545
0.000465188
0.000461269
0.000458746
0.000877896
0.000464606
0.00087966
0.000458248
0.00541705
0.0101486
0.000458537
0.000477749
0.00156725
0.000462553
0.00053878
0.00684585
0.000472571
0.00507919
0.000459625
0.000459189
0.00046888
0.000462319
0.000461166
0.00400143
0.0021866
0.00479128
0.00315941
0.000465028
0.000596085
0.00169471
0.00247138
0.00358853
0.000458894
0.00664663
0.00119745
0.000464947
0.000693781
0.000459907
0.0122516
0.000460714
0.000457422
0.000475642
0.000458207
0.000460425
0.00169388
0.00046206
0.000452609
0.0111563
0.000477363
0.00769534
0.000456355
0.0123975
0.000477015
0.000461367
0.000462497
0.000468744
0.000540096
0.000453645
0.00909036
0.000468087
0.0149947
0.0134638
0.000456848
0.000458221
0.000522966
0.00259723
0.000470042
0.00504447
0.0123285
0.000459092
0.00991176
0.0122037
0.00045938
0.0141048
0.000456588
0.00045973
0.000464929
0.000589557
0.000464689
0.000459059
0.000452588
0.00318877
0.00130891
0.00412087
0.000459604
0.000481466
0.000456189
0.000464547
0.000460245
0.000455843
0.000456466
0.000459286
0.00501066
0.0148235
0.0135634
0.000460377
0.000458262
0.00045965
0.000462317
0.00119818
0.00720024
0.00045736
0.00108367
0.0100644
0.000459742
0.00578353
0.000457874
0.000451832
0.00121373
0.000466611
0.000458877
0.000452921
0.000461861
0.000463543
0.000452332
0.000481888
0.000458508
0.000466893
0.000458673
0.00471464
0.000453298
0.00232526
0.00485326
0.000940068
0.000452948
0.000458097
0.00045618
0.000507478
0.000455905
0.00895257
0.000459391
0.000457103
0.00190512
0.0107923
0.000460284
0.000227835
0.000455689
0.0102107
0.00739232
0.00047186
0.000457612
0.00052843
0.00294016
0.00868189
0.0138758
0.000503269
0.000460134
0.0150113
0.000459864
0.00527409
0.00266927
0.0128847
0.00046888
0.00246905
0.00529871
0.0148149
0.000461959
0.000458864
0.00045771
0.000469438
0.000507787
0.000569213
0.0106105
0.000455207
0.000459542
0.000452249
0.000500864
0.00139404
0.000461766
0.000468698
0.0123896
0.000459754
0.000503784
0.000457422
0.000543833
0.000461153
0.000467499
0.0022989
0.000457749
0.000462215
0.000464675
0.0145796
0.000593007
0.00369251
0.00942215
0.00603171
0.00512598
0.000460989
0.000457158
0.000956745
0.00373366
0.00512608
0.000574029
0.000459601
0.000468826
0.00329098
0.000458432
0.000458053
0.00374762
0.0125244
0.00046132
0.0150565
0.000458408
0.0103736
0.000458178
0.000471181
0.000462354
0.000463497
0.000458553
0.000458082
0.000461396
0.00047712
0.000469156
0.00307805
0.000453365
0.000505043
0.00235546
0.0103475
0.000458738
0.000469078
0.000464372
0.00046445
0.000469747
0.000713309
0.0027805
0.000460183
0.000462532
0.000460718
0.00341835
0.00239937
0.0128197
0.000468806
0.000855612
0.000471519
0.00237549
0.000610475
0.00046204
0.000472322
0.012846
0.000458952
0.000458457
0.00250829
0.000941603
0.000461525
0.000453432
0.00410492
0.000459793
0.000464116
0.00198382
0.000458646
0.000464492
0.000460325
0.000460771
0.000458273
0.00553007
0.000458895
0.000459902
0.000456309
0.000496233
0.000459621
0.000460513
0.00478666
0.000453963
0.0109653
0.0033224
0.0025359
0.000457759
0.00367077
0.000463377
0.0139904
0.00435815
0.000462276
0.000474203
0.000470597
0.00046036
0.000598015
0.000455587
0.000462696
0.000713439
0.0033206
0.0146821
0.00296401
0.000470676
0.0146626
0.000456772
0.0078734
0.0140344
0.00245739
0.00122875
0.00132963
0.00224605
0.00633504
0.0138767
0.000456548
0.00503402
0.00127096
0.000456361
0.000454166
0.000456772
0.000628583
0.000666256
0.000457198
0.0004594
0.000887413
0.000256711
0.000497044
0.00047245
0.000463423
0.000456934
0.000458776
0.000458162
0.000458847
0.000454099
0.000682877
0.000462598
0.000467576
0.000456819
0.000461158
0.000457124
0.0146392
0.000542909
0.00046508
0.000457248
0.00783352
0.000482026
0.000628681
0.000453468
0.00051002
0.000460466
0.00045639
0.000465013
0.00212848
0.000458721
0.000580301
0.000457101
0.000471965
0.000454422
0.000464919
0.000458132
0.000747433
0.000461719
0.000460626
0.00396889
0.0140019
0.00045778
0.000458571
0.000470102
0.000458317
0.00546053
0.00255051
0.00046433
0.00311766
0.000483677
0.000464785
0.000569558
0.000464907
0.00216895
0.000462189
0.00845348
0.00662535
0.00267858
0.00293973
0.000458158
0.00524563
0.00622664
0.000458758
0.000463286
0.000457001
0.000474075
0.00045861
0.0129925
0.000458274
0.000459472
0.00342818
0.000540488
0.000455033
0.000456942
0.00045789
0.000457297
0.00298147
0.00115025
0.0032282
0.0031445
0.000832074
0.000507246
0.000467587
0.00046257
0.00643482
0.000473898
0.00337245
0.0036464
0.0157901
0.000579435
0.000455667
0.0116168
0.00316728
0.00139937
0.00565714
0.000469154
0.00351771
0.000452618
0.000457923
0.000475438
0.000469384
0.00788386
0.000458574
0.00047304
0.000467635
0.00662182
0.00301012
0.000456575
0.000460176
0.000459205
0.0141405
0.00296742
0.00045579
0.010325
0.000683651
0.000598544
0.00513009
0.00186936
0.000638519
0.0133913
0.000483451
0.0130875
0.00758217
0.000464733
0.00590551
0.000602466
0.0127999
0.000459453
0.014875
0.000460508
0.00101187
0.00440851
0.00046072
0.000464156
0.014712
0.00045767
0.0137493
0.000462835
0.000458693
0.000462987
0.000865426
0.0005857
0.000458164
0.000462301
0.000457702
0.000463424
0.000469025
0.000462714
0.000456383
0.00942766
0.000458481
0.00325243
0.00615492
0.0130312
0.000457062
0.00282253
0.00990013
0.000537313
0.000468043
0.00775187
0.000460698
0.00136288
0.0100346
0.000456626
0.00481863
0.00235137
0.000484763
0.0151894
0.000457936
0.00365253
0.000460288
0.00618605
0.000454717
0.0134677
0.000491543
0.00492071
0.004038
0.000742469
0.000458968
0.00135355
0.00172735
0.000464332
0.00300458
0.0100821
0.000490533
0.0121986
0.000465118
0.000946542
0.000454964
0.000465624
0.000460167
0.00467861
0.000461814
0.0111717
0.000965838
0.000465135
0.000491856
0.000453503
0.000483131
0.000456881
0.0004597
0.00723898
0.00561306
0.00699049
0.000457764
0.00646165
0.0139803
0.00490456
0.00045781
0.00605992
0.000507184
0.000460436
0.00469781
0.003127
0.000457454
0.0115248
0.000557286
0.000463144
0.00709992
0.000457324
0.0115144
0.00329542
0.000464999
0.00468557
0.0119654
0.0119377
0.00045562
0.00315681
0.00122129
0.000456471
0.000460941
0.000456756
0.00543887
0.0143585
0.000454465
0.00047108
0.000454502
0.000462323
0.00132741
0.00053749
0.000465159
0.00046153
0.000458355
0.000463392
0.00112893
0.000479076
0.000456705
0.000463188
0.000949102
0.00045152
0.000457929
0.0156866
0.014953
0.000457953
0.00601089
0.000461152
0.00343556
0.01445
0.009647
0.000462479
0.000460349
0.000458689
0.000554393
0.000456887
0.000495995
0.000468791
0.000459219
0.000460465
0.00045343
0.0051814
0.000461999
0.00234154
0.0145678
0.000650377
0.000469389
0.000484065
0.000465037
0.000477224
0.0156003
0.00837751
0.000458994
0.000623311
0.000460597
0.000468628
0.000458687
0.000459148
0.00461872
0.00915907
0.000461249
0.00046321
0.000727357
0.000458003
0.000349431
0.000553901
0.000647601
0.000456434
0.00046213
0.000504727
0.000456898
0.000614504
0.00644646
0.000465371
0.00453739
0.00215323
0.000463603
0.0077715
0.00207353
0.000462734
0.000455473
0.000458594
0.000458574
0.000766406
0.000543173
0.000451788
0.000545623
0.00632931
0.000457674
0.000467096
0.00171564
0.000619347
0.0129663
0.000455335
0.000463199
0.0011577
0.000462401
0.000460684
0.000505143
0.0148205
0.000457772
0.00494935
0.000866256
0.0095915
0.000464382
0.00480442
0.0009123
0.000453494
0.000458004
0.000483625
0.010626
0.000471102
0.000461038
0.0121442
0.000468985
0.000459314
0.000700695
0.00689076
0.000458412
0.000458351
0.000457708
0.000457436
0.000470173
0.00898838
0.00311234
0.000458965
0.000458556
0.015577
0.000462437
0.00471206
0.00243703
0.0129533
0.000452653
0.00046034
0.0150853
0.0136706
0.00257368
0.000455698
0.00046033
0.00047551
0.0153694
0.000460165
0.000456864
0.000462194
0.000454641
0.000821027
0.000506066
0.000482613
0.000458623
0.000458726
0.000452597
0.000457193
0.0154169
0.000471438
0.00736352
0.0112597
0.00287493
0.00045779
0.000321046
0.00882203
0.000459635
0.000456402
0.00616731
0.000459172
0.0101081
0.000484292
0.000560701
0.000832743
0.00161182
0.000458372
0.00059276
0.000456063
0.000459218
0.00046315
0.00648939
0.00045843
0.0139078
0.0061317
0.000458653
0.000465733
0.0148534
0.00511791
0.00047637
0.000526287
0.000463828
0.000461705
0.000453421
0.000457902
0.000459583
0.000462654
0.0049748
0.000455609
0.00533588
0.00326304
0.000458057
0.0112463
0.0133518
0.000528915
0.000463406
0.000457924
0.000461211
0.000856876
0.0135535
0.000458748
0.00189525
0.0073088
0.000454243
0.000456677
0.00322829
0.000458678
0.00701269
0.00106984
0.0100514
0.00140524
0.00051222
0.00590348
0.0007358
0.0083756
0.00249774
0.000451772
0.000458901
0.00111179
0.000461459
0.000457984
0.000468274
0.000460011
0.000458559
0.000462218
0.000544865
0.000463426
0.000467044
0.000458461
0.00379421
0.000885597
0.000477973
0.000452812
0.00484165
0.000541145
0.000536203
0.000717707
0.000465824
0.000456454
0.000455033
0.000513066
0.000458038
0.00045726
0.0154977
0.000456009
0.000468462
0.00355172
0.000801947
0.000461334
0.000476429
0.000561577
0.000466917
0.00061696
0.000458309
0.0004589
0.0146742
0.00465187
0.000472287
0.000452039
0.00045794
0.00154039
0.000477106
0.000481073
0.000460223
0.000464583
0.000459441
0.000488374
0.000465902
0.000457892
0.0150624
0.000469059
0.0013932
0.00359044
0.000483012
0.00046146
0.000559813
0.000458607
0.000483223
0.000452758
0.000453461
0.00680344
0.000812488
0.00597949
0.000452938
0.00120374
0.000462045
0.0017487
0.00731617
0.000458938
0.000462502
0.000463077
0.000459467
0.000694842
0.000460271
0.000463181
0.00143395
0.000466532
0.000462187
0.000466363
0.000458546
0.00432848
0.0116953
0.000456553
0.000462084
0.000499465
0.0133646
0.000541986
0.00100964
0.00046394
0.000458699
0.000453478
0.000535064
0.00228839
0.0144173
0.00159511
0.000467392
0.000458082
0.000464512
0.000461158
0.0145662
0.000472035
0.000452635
0.000655524
0.00776484
0.00330243
0.00242031
0.00324467
0.000461075
0.000472167
0.0141676
0.013974
0.00238851
0.00468233
0.000467073
0.000458488
0.00296235
0.000458754
0.000474909
0.000464395
0.000452762
0.000459282
0.000466238
0.00551069
0.00831465
0.000461786
0.000462174
0.000458478
0.000453424
0.000497836
0.00798221
0.000464909
0.000464527
0.000458893
0.000466376
0.000456129
0.0004969
0.00051868
0.000496226
0.000461279
0.0154194
0.0106905
0.000786348
0.000458777
0.000456681
0.000461266
0.000476555
0.000933744
0.00182675
0.00508392
0.00549649
0.000560207
0.000460755
0.000459397
0.00494974
0.000459438
0.000469118
0.00220837
0.00341532
0.0107238
0.00592665
0.00992654
0.000465732
0.012744
0.000457165
0.000456539
0.0114021
0.000461751
0.000466059
0.000868987
0.000458166
0.00381869
0.000459306
0.0154948
0.000457542
0.000461332
0.000460696
0.00045176
0.000462975
0.000459599
0.00046472
0.000460409
0.000456683
0.00268249
0.000464052
0.0142982
0.000461618
0.0120368
0.000527928
0.00317455
0.00672047
0.00414809
0.00395353
0.000759007
0.000619607
0.000457195
0.000464821
0.000469927
0.000459268
0.00111437
0.00045311
0.000470779
0.000457429
0.000456923
0.000462454
0.0102478
0.000472411
0.000456115
0.000457744
0.000457909
0.000454149
0.000658403
0.000453341
0.000453579
0.000462249
0.000454848
0.000727589
0.000460813
0.00938759
0.000458446
0.000461837
0.000459478
0.000584145
0.000464632
0.0135797
0.000469209
0.00829363
0.0113794
0.000465231
0.000461682