/*--------------------------------*- C++ -*----------------------------------*\
| =========                 |                                                 |
| \\      /  F ield         | OpenFOAM: The Open Source CFD Toolbox           |
|  \\    /   O peration     | Version:  v2012                                 |
|   \\  /    A nd           | Website:  www.openfoam.com                      |
|    \\/     M anipulation  |                                                 |
\*---------------------------------------------------------------------------*/
FoamFile
{
    version     2.0;
    format      ascii;
    class       volScalarField;
    location    "100";
    object      p;
}
// * * * * * * * * * * * * * * * * * * * * * * * * * * * * * * * * * * * * * //

dimensions      [0 2 -2 0 0 0 0];


internalField   nonuniform List<scalar> 
33474
(
0.0184043
0.00334679
-0.451973
-0.0377826
0.0390739
0.471145
-0.0200909
0.0153004
0.0150846
-0.00477383
0.185623
-0.000767712
0.00624094
0.00450661
0.20361
0.284922
0.0254069
0.281365
-0.522774
0.0256315
0.00017542
0.046307
0.0569818
-0.236819
0.419255
0.0475553
-0.0541966
-0.233746
-0.118064
0.0729715
-0.00475894
0.00546599
-0.231249
-0.0532567
0.319057
0.353428
0.0371333
0.0244837
0.133813
-0.181153
0.00885753
-0.108978
-0.109503
0.0109648
-0.14971
-0.510959
0.00987482
0.346207
-0.0113319
-0.0693502
-0.0363982
0.0323091
0.419061
-0.099007
0.0388048
0.441061
0.0342002
-0.00747253
-0.361549
-0.336374
-0.00635641
-0.0884967
-0.117876
-0.0378023
0.0182686
0.0341654
-0.4177
-0.148445
-0.00700828
-0.105553
-0.0582747
-0.0762524
0.00986552
-0.0460896
0.000379898
0.194421
0.0778275
-0.00241979
0.0390364
0.00651476
-0.114121
0.0404739
-0.0998727
-0.0139646
0.193947
-0.11362
-0.164108
-0.307621
-0.177107
-0.065276
0.423142
0.0100475
0.289353
-0.0023525
0.0504183
0.0329011
-8.85208e-05
0.0386782
-0.0075913
-0.593555
-0.00460225
0.430271
-0.191548
0.0464455
-0.100321
-0.222126
-0.13077
0.00736723
-0.0229394
-0.142626
0.105911
0.197802
-0.0993487
-0.0784609
0.286802
-0.352674
0.023779
0.0397781
-0.0369861
-0.00636634
-0.0296115
-0.0434314
-0.0397049
-0.0231422
-0.16582
-0.116813
0.210695
-0.0545409
-0.100985
-0.201677
-0.117178
-0.100455
-0.514824
0.190915
0.0737038
-0.0178487
0.00744634
0.0625295
0.052186
0.00894849
-0.113933
-0.101085
0.228262
-0.00193224
-0.0683861
0.139313
0.187429
-0.00551067
-0.104877
-0.10291
0.0180774
0.0554339
-0.055292
0.000933982
-0.0415689
-0.00356656
-0.111471
-0.0554229
0.257255
-0.115363
0.0223803
0.234943
-0.458886
-0.0291031
-0.193957
-0.0526274
-0.00755925
0.0392081
0.0179415
0.0112095
0.204154
0.0135165
0.0109688
-0.15868
0.0116855
-0.0276266
-0.114017
0.0657962
-0.161043
-0.0876216
0.0204864
-0.0552165
0.0553136
-0.211823
0.00382248
-0.124248
0.163074
-0.114184
-0.422692
0.00817321
0.145175
-0.453564
8.954e-05
-0.122274
-0.461602
0.00232416
-0.00967118
0.179675
-0.116116
0.164592
-0.0175279
-0.101812
-0.0468243
0.0120015
0.0090296
0.00824614
-0.11316
-0.0963946
0.0811934
-0.143478
-0.0636095
-0.103343
0.266431
0.0540115
0.00282181
-0.433695
0.00838429
-0.232978
-0.0753667
0.146951
-0.141946
0.0111572
0.00285985
0.108539
-0.113102
-0.0166945
0.206054
0.0219138
-0.100028
-0.217548
-0.0579116
0.222969
0.0308625
-0.115872
-0.117649
0.0211163
-0.000314068
-0.101174
0.00548045
-0.355786
-0.183471
-0.393108
-0.0057819
0.00281982
0.06033
-0.134462
0.252162
0.0207221
0.473306
-0.0383897
-0.099637
0.0241529
-0.110037
-0.193148
-0.213426
0.0009956
-0.00889821
-0.0877109
-0.195367
-0.0977755
-0.0124896
0.161454
0.0151593
-0.0119443
0.0047401
0.175618
-0.358249
0.0228778
-0.0446645
-0.147402
0.0107994
-0.0812999
0.0593444
0.0243952
-0.195194
0.0617204
0.00598052
-0.349355
0.133999
-0.0213593
-0.0678131
0.0869878
-0.0114507
-0.000854449
0.00604147
-0.00850653
0.00459363
0.215845
-0.054708
0.0040605
-0.140293
0.0236057
0.00868215
-0.195685
-0.0981718
-0.124864
0.145899
0.24665
-0.11786
-0.111151
-0.112659
-0.0998261
-0.3534
0.277868
-0.101295
-0.0138439
0.111683
-0.174912
-0.228043
0.0566664
-0.0896758
0.0854046
0.00518534
0.0856602
0.0790632
-0.390698
-0.00688667
-0.159191
0.0238424
-0.107535
-0.0116738
-0.0050177
0.0609128
-0.103242
-0.016783
0.0850867
0.00999646
0.0188918
-0.00371002
0.032277
-0.44601
-0.00946317
0.00851285
0.228207
0.0151847
-0.0996141
-0.172581
-0.00129734
-0.550608
-0.190162
0.018337
-0.112652
0.0269402
0.141823
0.132334
-0.193493
-0.0036775
0.0133822
-0.0557329
-0.0135897
0.0271404
-0.0985276
0.00551987
-0.106105
-0.127926
-0.177168
-0.463085
-0.522227
-0.0501492
0.0152622
-0.111689
-0.0101997
-0.113891
-0.0069299
0.0395085
-0.235662
0.00124405
0.0539117
0.00981842
-0.10878
0.011784
-0.0379697
-0.113238
0.0606538
0.0473906
-0.100575
-0.100123
0.00902858
0.199531
0.0224259
-0.406838
-0.27035
0.0380036
0.0088977
0.0155117
-0.395581
0.0841448
-0.00218171
0.0237982
-0.341276
-0.201461
-6.49557e-05
0.224451
-0.109972
0.00525702
0.00807856
0.00471316
0.133802
0.0100547
-0.0100002
-0.141179
-0.256282
0.00967186
-0.107362
8.93756e-05
0.00487908
-0.0981816
-0.0837512
0.0312692
0.0131621
0.0212102
-0.362075
0.0184513
-0.098787
-0.106201
-0.0137437
-0.00536354
-0.111353
-0.040442
-0.150975
-0.0119203
-0.19839
-0.11918
-0.0089191
-0.153345
0.198667
0.458888
-0.351512
-0.0832749
-0.171492
-0.0402404
-0.0998271
-0.211028
0.0200073
0.000437694
0.0236125
0.0387645
0.023049
0.0241004
-0.0521949
-0.0821198
0.0131566
-0.00325249
0.00421362
-0.231757
-0.136669
-0.00619883
-0.0556992
-0.00771228
0.0569584
0.0128096
-0.149136
-0.0803799
0.051616
-0.108883
0.0123539
0.0029918
0.0131116
-0.0995953
-0.0890575
-0.0972191
-0.135597
-0.491535
-0.105066
-0.277289
-0.146974
0.0230754
-0.203711
0.0120003
0.0247435
-0.105323
0.00833225
-0.152014
-0.416234
-0.201461
0.272672
-0.0134593
0.03899
-0.100462
0.0220624
-0.444961
0.0199708
-0.171719
-0.496443
-0.0510002
-0.347207
-0.234387
0.0195142
0.419003
-0.0139949
-0.0030275
0.139638
-0.400683
0.0235752
0.0207423
-0.0362697
0.109936
0.0439588
-0.100173
-0.0409015
-0.147613
-0.00559686
0.0245715
-0.165698
-0.0892386
-0.136378
-0.224517
-0.121222
-0.0972404
-0.107923
-0.369049
0.270164
0.0134677
0.0248098
-0.0786954
-0.324806
0.0440349
-0.14901
-0.145021
0.00574611
0.0134227
0.0099143
-0.243084
-0.0696572
0.376241
-0.208012
-0.218871
-0.424586
-0.100403
0.00606025
0.051761
-0.101496
0.0251705
-0.589739
-0.0135469
-0.519816
0.0310014
-0.152591
-0.162981
0.0254661
-0.518736
-0.110348
-0.113458
0.00434806
-0.137002
-0.119373
-0.100163
-0.00099767
0.424925
-0.215948
-0.0136108
0.0896763
0.00627657
-0.359621
0.00668928
-0.0354406
-0.0700235
0.0142962
-0.0132843
-0.123901
0.00834614
0.0377676
0.0153557
0.0229631
0.0522816
-0.00356151
-0.213112
-0.00201077
-0.239932
0.425529
-0.0553715
0.0441546
0.385101
0.00480936
-0.112297
0.0149096
-0.0126867
-0.122861
0.00718339
0.038451
0.0221404
-0.0963728
-0.565873
-0.101436
0.0144789
0.0108522
-0.220144
-0.101091
-0.0123082
0.030237
0.0376983
-0.0897404
-0.523796
0.025716
0.0153909
0.147789
0.0238227
0.00624045
-0.13246
-0.0357538
-0.238727
-0.0164975
0.0129857
0.0127058
-0.132492
0.0359948
-0.137704
-0.0161683
-0.100647
0.00935461
-0.0194956
0.129186
-0.180394
0.00923182
-0.008162
0.484503
-0.22004
-0.131169
0.00947634
-0.0136576
0.00313385
-0.0994009
0.270593
-0.101006
-0.259487
0.0814641
-0.0560496
0.0227753
-0.0208765
0.0304559
0.0106135
0.447718
0.140037
-0.175954
-0.105521
-0.240494
-0.000376172
-0.585456
-0.100923
-0.168658
-0.205116
-0.0323702
-0.0935098
0.347146
-0.150632
0.242743
0.41633
0.00994581
0.317718
0.0130982
-0.103903
0.0101039
-0.179617
-0.161362
0.0257032
0.00919911
-0.00270471
0.0794379
0.278153
0.289623
0.0645162
0.0756876
-0.201798
0.00548137
-0.442809
0.000472604
-0.149126
0.0110459
-0.236498
0.29325
-0.233498
-0.135117
0.0135333
-0.098871
0.0385125
0.00665306
-0.140098
0.0250087
0.000349369
0.00956668
0.00517162
-0.0878355
-0.0144195
-0.00190237
0.514264
-0.0852358
-0.0735471
-0.392
-0.113722
-0.351633
-0.12707
-0.180677
-0.165263
-0.0360527
-0.099834
0.0133935
0.0326712
0.021989
-0.111503
0.0138791
-0.159553
0.0141889
0.467017
-0.120978
-0.110933
-0.0643019
0.0105116
0.0325474
-0.115221
-0.00387425
-0.0202841
0.107361
-0.106654
-0.162642
-0.0530085
-0.356884
0.0583254
-0.526384
0.135221
0.074829
-0.00247752
-0.0158814
0.173186
0.0808081
0.000354569
-0.0140587
0.00978055
0.172365
-0.236023
-0.000882589
0.46926
-0.0999894
0.00288717
-0.0976713
0.328732
0.00870718
0.0325203
0.0222625
0.119721
0.223091
-0.0869667
-0.123762
-0.0379013
-0.243718
-0.390432
0.199361
-0.454131
-0.114175
0.0133005
0.0377499
-0.273994
-0.00547151
-0.0907233
-0.0186827
-0.0322083
0.0065001
0.0150772
-0.146536
0.00506937
-0.167994
0.0107457
0.223497
0.179879
-0.0133509
0.0112181
-0.115504
-0.000313832
0.000281227
-0.000433962
-0.135213
-0.363401
0.0374782
-0.0605267
-0.527971
-0.0186718
-0.221747
-0.00655554
0.245777
-0.0591995
0.0437247
-0.256775
-0.186602
-0.164739
-0.424891
0.0676494
-0.0356763
0.0144381
-0.103124
-0.142689
-0.0776978
0.385338
0.024246
0.0255191
-0.110877
-0.131985
-0.105586
0.470649
-0.13503
-0.0943361
-0.113483
0.120953
0.0771265
-0.0119565
-0.218187
0.0934796
-0.1002
0.0154371
-0.023903
-0.457196
-0.107787
-0.131981
0.00655566
-0.105748
-0.101866
0.0333969
-0.0715162
0.0361224
0.335718
-0.0387551
-0.211261
-0.0767192
-0.00159176
0.435347
0.0217504
0.139732
-0.151835
-0.115657
0.0429572
-0.480558
-0.00509567
-0.0722768
-0.0357916
-0.0348767
0.0152956
0.00221622
0.0501245
-0.0991217
-0.138319
0.0142574
0.0866604
-0.173909
0.261093
0.0332024
-0.00398588
-0.00364912
-0.0575514
-0.0246129
-0.00165408
-0.120783
-0.0965301
-0.272422
0.109911
-0.288558
-0.0612041
0.0121195
0.0810299
-0.0961572
-0.0576568
-0.000501057
-0.446448
-0.0944322
0.00725633
-0.349721
-0.208406
-0.153618
-0.148616
-0.110178
-0.103582
0.00919769
-0.336523
-0.116403
0.0533171
-0.237612
-0.582676
0.00218409
-0.130445
0.0545024
0.0136849
-0.171072
-0.408584
0.302682
0.363968
-0.0999908
0.00302906
-0.067795
0.00361193
-0.0108926
-0.0016899
0.0113956
-0.0993587
-0.105772
-0.0370853
0.12037
-0.235553
-0.0945143
0.0182055
-0.142433
0.0238327
-0.137404
-0.0669103
-0.275814
-0.141705
-0.163853
0.00801249
0.00988248
0.0503971
0.00547131
0.389706
-0.083562
-0.129859
-0.111104
0.200533
0.00263116
0.0108631
-0.510836
-0.319496
-0.176107
-0.446856
0.117408
0.0154872
-0.0649172
0.0148009
0.0139019
-0.318733
-0.117738
-0.285927
0.0876196
-0.224947
-0.0229399
-0.114376
-0.203121
-0.168659
-0.087941
0.377101
-0.445419
-0.592553
-0.0204125
0.467289
-0.291353
0.0140984
0.105539
-0.592971
-0.0185279
-0.105353
0.0285139
0.00710478
0.0207777
-0.190736
-0.22327
-0.0521885
0.00973541
0.0012065
-0.111517
-0.10884
0.0592488
-0.101975
-0.10457
0.0146326
-0.0270223
0.0153036
-0.156252
-0.541485
-0.0549834
-0.031434
0.0546312
-0.24862
0.238471
0.0103253
0.0873688
0.221552
0.00652539
0.0751046
0.0965832
0.014175
0.442539
0.38187
0.0169886
-0.102738
-0.179976
-0.00752768
0.0128475
-0.102237
-0.0235033
0.00966633
-0.085568
0.0127183
-0.00762808
-0.0129595
0.00413595
0.0568573
-0.190931
-0.0238412
-0.150655
0.374617
0.00535863
-0.111965
0.0103715
0.478418
0.0342057
-0.104561
0.299243
0.074151
0.00612934
-0.161994
0.0191652
-0.103139
-0.195229
0.131102
-0.00651703
-0.179976
-0.0524567
-0.11669
0.0249876
0.142098
0.00771882
0.0822945
0.0130986
-0.233086
0.00418212
-0.377763
0.369146
-0.000840675
-0.0908354
0.327945
0.00295184
-0.107331
0.00621436
-0.408775
0.43132
0.209205
-0.100076
-0.115685
0.0595636
0.0315602
-0.150325
0.0540556
-0.134253
0.0231933
-0.103187
0.0728426
0.0750151
0.015719
-0.0394101
0.0347453
0.0936
-0.102696
-0.0607713
0.0171794
-0.133026
-0.106024
-0.239485
-0.127782
-0.223876
0.0938055
-0.181555
-0.249511
-0.0939335
0.00294213
-0.0947344
0.0340286
0.0104443
-0.0364533
0.222536
0.00280013
-0.215167
-0.00519274
-0.248551
-0.00259353
-0.0903703
-0.0621572
0.0173156
-0.104792
0.0156129
-0.0230129
-0.185459
-0.133692
0.300418
0.0452746
-0.0953488
-0.0979305
0.0262102
-0.5132
0.0295504
-0.309149
0.488302
0.0242736
0.0882435
-0.0575633
0.02241
-0.356414
0.0145779
0.00251493
-0.369699
-0.00975807
0.291559
-0.294015
-0.0211551
-0.225623
0.0150937
0.0327642
-0.0677547
-0.0543588
-0.0127381
0.0111302
-0.113269
0.00298559
0.0143096
0.045185
0.00500284
-0.0983345
-0.0255195
0.0215161
0.00751431
-0.0986291
0.0520883
-0.0686607
0.023454
0.225719
0.0139782
-0.0944965
-0.110392
-0.0735082
-0.101265
-0.0512127
0.0321962
-0.000649893
-0.119509
0.0115551
-0.0917657
-0.0215012
0.0259173
0.0773061
0.0496716
-0.00151173
-0.0999966
-0.309073
0.35317
0.0102469
-0.125186
0.0468749
0.0755133
0.409847
0.0852876
0.016841
-0.142165
-0.357455
0.031779
0.010166
-0.0438872
0.0707365
-0.0963357
-0.199709
-0.213559
0.290829
0.302919
-0.401731
-0.116248
-0.022509
0.0240316
-0.0578807
0.0717168
0.471568
-0.534738
0.0367136
0.0475757
-0.257273
0.011825
-0.167116
0.00755108
0.0956878
-0.0249862
0.0304771
0.0192859
-0.588987
0.00465608
-0.189471
-0.106175
-0.145934
-0.154892
-0.374493
-0.0305198
0.0241425
0.0046558
0.0528125
-0.175258
0.0195454
0.00964568
-0.101176
-0.144429
-0.163071
0.281122
-0.11557
0.0326448
-0.00814655
-0.0425556
-0.0301127
0.226966
0.0854371
-0.211587
-0.0273342
-0.114942
-0.113204
0.0211392
-0.0210115
-0.00902645
-0.115858
0.0627474
-0.113099
-0.103345
0.0232542
-0.126996
-0.0872453
0.0197377
0.00692484
-0.0611844
0.0305349
-0.115323
0.00489942
-0.0992619
-0.00570945
-0.153666
0.0657496
-0.244369
-0.0382337
-0.0591097
0.0333313
0.0435609
-0.0049932
0.00971311
0.00596854
-0.110229
0.0159129
-0.0407216
-0.152511
0.0641374
-0.00597868
0.00840508
-0.0421787
0.030718
-0.0959103
-0.0555459
-0.108276
-0.392783
-0.414241
-0.0976402
-0.000484314
-0.0100939
-0.0731271
0.0957874
0.141617
0.0207628
0.37079
0.0769521
-0.246487
-0.45214
0.218825
-0.0358464
0.116997
-0.174868
0.0213401
0.427741
0.0126755
0.245882
-0.0271552
0.294833
-0.0917115
0.17986
0.0168781
-0.119004
-0.343226
-0.101975
-0.141514
-0.0991451
-0.0758124
0.498453
0.0190889
0.017004
0.00593738
0.0133445
-0.143631
0.0514415
-0.456681
0.231127
-0.00191388
0.00717304
-0.0269897
-0.0387911
0.0814556
-0.125122
-0.00998503
0.0373107
-0.186701
-0.211017
-0.172032
-0.260307
-0.115489
-0.00633243
-0.119705
0.0155522
0.384584
0.015477
-0.10916
-0.119497
0.00785953
0.0832155
-0.110135
0.000667833
-0.163163
-0.229938
-0.104405
-0.378443
-0.00247351
-0.11803
-0.17661
-0.158018
0.0303218
-0.187038
0.00998003
-0.150537
-0.101444
-0.167617
-0.114217
-0.147627
-0.132465
0.00987755
0.197677
0.02758
-0.0975437
0.000190186
0.0108113
0.000746661
-0.113864
0.00601515
-0.116949
-0.0525667
0.0387659
-0.583014
-0.406932
-0.0636368
0.0115985
0.0525105
-0.152769
-0.0117952
0.0212392
0.330749
0.00988303
0.464214
0.0528104
0.00346946
-0.020597
-0.068504
-0.198986
-0.00764177
-0.191781
-0.0847122
0.00442429
-0.00656198
-0.413259
0.0424523
0.00611831
0.00955728
0.0131481
-0.080721
0.0148229
0.266811
-0.0246695
0.434334
-0.0025452
0.0137203
0.261455
0.31328
-0.0983244
-0.00674006
-0.150392
-0.133199
-0.113853
0.0336653
0.0518184
0.00946741
-0.235507
0.0322533
0.0236267
-0.00930927
0.0151966
-0.135266
0.00852134
0.0111012
-0.0937273
-0.0012642
-0.198257
-0.0997427
0.00875814
-0.153749
-0.113767
-0.244804
0.00636489
0.140172
0.0630512
0.0214739
0.0313876
0.0304401
0.0444012
0.0525004
0.0149021
0.0113005
-0.562318
0.0157809
0.514125
-0.0970339
-0.102164
-0.101527
-0.00144819
-0.0764228
0.0074118
-0.102616
0.142559
-0.100354
-0.217413
-0.277814
0.158868
-0.115635
-0.108009
-0.416492
-0.020974
-0.101637
0.215889
-0.116262
0.00380588
-0.302493
-0.0859918
-0.00642644
0.0251006
-0.147748
-0.0426707
-0.144973
-0.286903
-0.493852
0.0413364
0.0158791
-0.0081615
-0.525326
-0.0868581
0.00528887
-0.112125
-0.461642
-0.113179
-0.099835
0.409676
0.0259452
0.0616476
0.00876721
-0.127069
0.021549
0.0266819
-0.00023947
0.28088
0.0437173
0.0532727
-0.0732768
0.240736
-0.0689326
-0.00830826
-0.106372
0.0283416
-0.096476
-0.0144627
0.000335103
0.0152022
-0.219232
-0.0832462
-0.0694667
-0.097916
-0.199347
-0.00111743
-0.0430621
-0.215491
-0.107398
0.0196962
0.0372629
-0.00206411
0.0153224
-0.00757366
-0.588476
-0.100405
-0.111524
-0.0879639
-0.114698
-0.191475
0.0085114
0.0509397
-0.173901
0.0149542
0.0259411
-0.105351
-0.0240343
0.0195055
-0.0150765
-0.0960687
-0.11263
-0.247038
-0.102688
0.116004
-0.11516
-0.1107
-0.334975
0.0115384
0.00982968
-0.0866162
0.0124872
-0.579411
0.0227598
0.0161034
0.035636
0.271252
0.0240768
0.0512536
0.385445
0.010564
-0.135438
-0.0773777
-0.0063686
-0.208841
-0.2098
0.0116578
0.0164703
0.0609394
-0.28805
0.0460675
0.0199809
-0.0988787
-0.0951791
-0.21059
-0.0145208
0.0101296
-0.115003
-0.0554725
0.00868819
0.0102859
-0.0953697
-0.0197061
0.416838
0.1767
0.352709
-0.126109
0.0312446
-0.107296
0.00335618
-0.572357
-0.00374022
0.168891
0.0218901
0.259713
-0.137483
-0.198853
0.136942
0.00135837
-0.236627
0.0290408
-0.198512
-0.0531977
0.00988521
-0.189158
0.00974384
-0.288012
-0.0630376
-0.0571731
0.0978037
0.0292703
0.00269623
-0.165534
-0.0589305
-0.445205
0.0387564
-0.549211
-0.10057
0.0520395
0.143668
-0.103066
0.0114138
0.00375733
-0.283284
-0.0543707
-0.182599
0.0387715
0.00252953
0.00907141
0.0262431
0.0564601
-0.236405
-0.0972324
-0.164255
-0.154336
0.0206395
-0.0954388
-0.102839
-0.509925
-0.181113
0.0437749
-0.546929
-0.237764
0.0103187
0.280744
0.0564918
-0.110939
0.0197898
0.0147178
-0.0554204
0.0338579
0.0825183
-0.115139
0.0295986
-0.0120286
-0.436949
0.0698413
-0.110672
-0.00388614
-0.404703
-0.0644424
0.00935087
0.0225465
0.0123767
-0.0855089
-0.00612933
0.210609
0.0190804
-0.104852
-0.102492
-0.0430104
0.0143574
-0.0964738
-0.0955957
-0.0587762
-0.377848
-0.337286
0.0389385
-0.19902
-0.232214
-0.0498005
-0.0996267
-0.0423137
0.0374484
0.0134187
0.224829
0.0216068
0.021341
-0.00787956
-0.100437
0.106183
-0.109693
0.0368219
-0.0258923
-0.00137299
0.00972804
0.0264262
-0.00210901
-0.000762265
0.04199
-0.321846
-0.135689
-0.123416
0.0255929
0.0149049
0.0060018
0.0119823
0.337394
-0.540562
0.000685465
0.334033
-0.114499
0.038763
-0.096961
0.0264133
-0.0206984
-0.187393
0.057998
0.0105836
-0.00891866
-0.0566208
0.00879468
-0.0201113
-0.0174692
-0.0486551
0.0199185
0.00256182
-0.174163
-0.00579767
0.288002
-0.18591
-0.109665
-0.0246048
0.00203246
-0.00225624
-0.0759357
-0.0019927
-0.12153
0.00365191
0.000915224
-0.112609
-0.164766
0.0291275
-0.0978126
-0.00237781
-0.221197
0.345566
0.113688
0.0153736
0.19119
0.427128
-0.254997
-0.203685
-0.0934874
0.0301593
-0.241357
0.0053645
0.241711
-0.570561
-0.106249
0.00993885
-0.11521
-0.166144
-0.187675
0.0118567
0.0613268
0.0232291
0.00902737
0.175687
-0.132909
-0.100664
-0.00620399
0.0311379
-0.00734952
-0.0822758
0.0201496
0.00890511
0.0183253
-0.109946
0.0511223
0.177866
0.0146273
0.183065
0.0294246
-0.067368
-0.0980286
-0.0404424
0.0231424
0.00718739
-0.306098
-0.0766203
-0.15678
-0.102001
0.458505
-0.342709
0.0246807
0.00696826
0.253444
-0.166767
-0.236942
0.082344
0.0038509
0.0090897
-0.528361
0.00259777
0.000949404
-0.0975243
-0.105976
-0.0559634
-0.113409
0.00443314
-0.103595
0.0335765
0.1235
0.0118336
0.0237847
0.0123967
0.00204504
0.0294545
-0.064369
0.00916621
-0.228158
-0.00744431
-0.0829527
-0.24706
-0.16978
0.0575296
0.00913976
0.0960111
0.0223175
-0.0394673
0.26362
0.327302
0.0311184
0.0232296
0.0741757
-0.102293
0.29209
-0.213604
0.0152001
-0.100868
0.124569
0.276948
-0.0956786
0.0276013
0.119583
-0.109537
0.0599828
-0.00136257
-0.212801
-0.204811
0.0837213
-0.0244666
-0.0956219
0.0114182
0.0229722
-0.10856
0.00553683
0.00721585
0.0808592
0.0243014
0.00862799
-0.111736
0.058228
0.0115235
-0.00258834
-0.0826071
-0.0502296
0.0823238
-0.285485
-0.0323701
-0.341461
-0.123716
0.368049
0.0189677
-0.0974843
0.0215984
-0.0993628
-0.473672
0.0108653
-0.0134525
-0.0331629
0.0156211
-0.0831247
-0.00250701
0.0263864
-0.409798
-0.185832
-0.306686
-0.114391
-0.0344051
-0.219322
-0.0409985
-0.105611
-0.342897
-0.101683
-0.16112
0.358372
-0.100597
-0.424148
-0.133371
-0.000736475
-0.547745
-0.162183
-0.0241057
-0.0325841
-0.03451
-0.103289
0.252797
0.000364156
0.0390755
0.187146
-0.154007
-0.0808344
0.127826
0.0184193
8.32119e-05
-0.0492429
0.00228145
0.044746
-0.00512737
-0.108412
0.0257703
0.0201865
-0.00104922
0.0297192
0.000953448
-0.12965
-0.0896283
0.0130508
0.000495317
-0.356559
0.115235
0.190205
-0.0285166
-0.093425
0.00599535
-0.00342139
0.0131354
-0.111306
-0.0492265
-0.129359
0.00247599
0.116329
-0.00604706
0.013561
0.0021836
0.036058
0.013774
0.0839172
-0.164349
-0.171066
-0.0364801
0.0101327
-0.0299603
0.0120096
0.442753
-0.251659
0.00910282
-0.10095
-0.0686244
0.0125414
-0.132047
0.0124601
-0.095675
0.00722017
-0.122734
-0.49627
0.303196
-0.100529
0.0376115
-0.124433
-0.349968
0.0237372
0.00812647
-0.00123239
-0.0440702
0.00577147
-0.169382
-0.0483417
0.00320288
-0.310037
0.176915
-0.00565767
0.00666037
0.0250881
0.00170528
-0.0958325
0.34893
0.491879
-0.0984473
-0.145444
0.164436
0.0575722
0.00739534
0.443574
-0.00694304
-0.220722
-0.0977061
-0.128864
-0.128503
-0.00582149
-0.234026
-0.574717
-0.112814
-0.547223
0.0196897
-0.554112
-0.00780528
0.00536738
-0.00957362
0.0147715
-0.417086
0.0105234
0.129763
0.0201611
-0.137083
-0.103558
-0.00144925
0.0334852
-0.0500707
-0.138582
0.41966
-0.00281831
-0.135913
0.431263
-0.11244
-0.541859
-0.218674
0.246904
-0.171793
-0.0864185
-0.126526
-0.516546
0.0503191
-0.317253
-0.131518
-0.159302
0.0329876
-0.109263
0.0278565
-0.13953
-0.434134
-0.0543703
0.0133625
-0.241008
-0.0458257
-0.102483
0.00683382
0.0251373
-0.0122345
-0.401143
0.220717
-0.0474794
0.0262142
0.0183692
-0.0125975
0.0184299
-0.006999
-0.00100993
-0.105318
0.0508101
-0.10584
-0.207756
-0.192062
0.00894376
-0.197258
-0.101295
-0.0643759
0.013258
-0.111668
0.0056414
-0.104261
-0.459042
-0.00088767
-0.245688
-0.115197
-0.0775473
-0.187678
0.0284419
0.441095
0.0730942
-0.352394
-0.0177854
-0.10382
-0.0826904
-0.427822
-0.0990053
-0.116521
0.00664734
-0.239774
0.3966
0.00896029
-0.114256
-0.100221
0.15697
-0.402775
0.0185571
-0.177163
-0.0193853
0.0100452
0.0262715
-0.297503
0.09201
-0.100933
-0.547884
0.103438
-0.0853525
-0.0176888
-0.086118
-0.000150269
0.0276528
0.457631
-0.229733
-0.1187
-0.0245175
-0.415622
-0.101284
-0.227579
0.0109632
-0.441464
-0.104303
0.00545066
-0.110944
-0.169246
-0.00161513
-0.409098
-0.112514
0.00823533
-0.427254
0.00144354
-0.410256
-0.0977311
0.0205699
-0.101417
-0.115373
-0.189837
-0.00391437
-0.0978543
-0.1535
0.00351872
0.00710926
-0.000417682
-0.34974
-0.100183
-0.0115579
0.0925198
-0.0113394
0.0112172
-0.105489
-0.0823267
-0.0438885
0.0134792
0.022574
0.00967126
-0.134023
0.146398
0.000149438
0.0783325
-0.138396
-0.00973823
0.00233924
-0.120017
-0.104599
0.0159146
0.49668
0.0269351
-0.098911
-0.133945
-0.100308
0.0107556
0.00733673
0.046926
-0.129619
0.000312582
-0.0966198
0.0184465
0.0438075
0.0330618
-0.0279201
0.331744
0.0260114
0.327455
-0.260834
-0.15185
0.0119084
-0.0680868
0.102334
-0.0789575
-0.120832
-0.105103
0.00551508
-0.127761
0.0721954
0.00970072
0.045571
-0.0130847
-0.158616
0.144282
0.00960662
-0.00840146
0.289288
0.0161757
-0.099462
-0.112811
0.406649
-0.00348266
-0.0575246
-0.0936884
0.000558065
-0.113835
-0.414867
-0.0601039
-0.421404
-0.581604
0.0227422
-0.13827
-0.0949829
0.0110837
-0.0029027
0.013181
0.0106314
-0.557695
-0.0878802
-0.0178558
-0.109666
-0.322263
0.0225786
0.0151886
0.173477
-0.12734
-0.20383
-0.00758668
0.00974529
0.353863
0.00751565
0.00705478
-0.0991939
-0.111523
0.00355014
-0.398476
-0.0851414
-0.100496
0.00895994
-0.242444
0.277176
-0.0245994
0.0298605
-0.0878069
-0.366468
0.126528
0.0575958
-0.188996
-0.0237389
0.00434774
0.256294
0.495682
-0.0148794
0.00243892
0.0234632
-0.0136802
-0.0286224
-0.501599
-0.333396
0.00684458
0.0530079
-0.117329
0.0246407
-0.390038
-0.100644
-0.108615
-0.0124983
0.0341114
-0.198715
-0.100988
-0.0998648
-0.00370761
0.0277202
0.137223
-0.154046
0.0305535
0.00638218
0.0261304
-0.0058283
-0.182747
0.184522
0.0686978
0.0449376
0.0113242
-0.0143675
0.00032697
-0.17126
0.122226
-0.459649
-0.441133
-0.129049
0.00877588
-0.108772
-0.208358
0.0390882
-0.0418045
-0.367027
0.00759067
-0.245734
-0.0882882
0.223437
-0.0818245
0.296459
0.00946633
-0.108911
-0.00290053
0.0411248
0.0209326
-0.441936
0.0152008
-0.346446
0.186614
0.0475718
-0.0556875
-0.261877
-0.103774
0.136977
-0.0863002
0.0230792
0.0841681
-0.00722837
0.00218979
0.0542953
0.0238618
-0.241085
-0.00610641
-0.100714
-0.224017
0.00476773
-0.206225
-0.104669
-0.0978381
-0.0424833
0.0239014
0.00620038
-0.43676
-0.10279
0.0177769
-0.599287
-0.124532
-0.0138083
0.0010685
-0.560459
0.0517823
-0.441643
-0.429689
-0.11554
0.0312743
-0.0741821
0.27024
0.295126
-0.429215
-0.567393
-0.0176371
0.00379741
0.337528
0.00649908
0.03029
0.0128539
-0.0393761
0.0030546
0.0206399
0.213248
0.0124551
0.018413
0.0499264
0.046277
-0.0860682
0.144778
-0.00667649
-0.531592
-0.083456
0.146897
0.273153
0.00841401
-0.00203535
-0.0350858
-0.0976824
0.0105669
0.0123504
-0.118559
-0.00222324
0.0125173
-0.125282
-0.0991296
0.0476628
-0.0766388
-0.104746
0.0185345
-0.113403
0.00534271
0.00387093
-0.137358
-0.169484
0.0345218
-0.00735775
0.0240366
-0.247025
0.0180072
0.111029
0.0339264
0.0214861
0.0320126
-0.0836957
0.0102327
-0.0137709
-0.105552
0.0152266
-0.111345
-0.326312
0.107318
0.0287995
0.223477
0.00352266
-0.0768204
-0.0114818
-0.0134744
0.158387
-0.0822577
-0.113668
-0.00823526
0.357791
0.0103846
0.375331
-0.517318
0.0146384
0.0257485
0.020766
0.0324766
-0.1076
0.0338049
0.00976189
-0.123602
0.0118299
0.026355
0.0117436
0.00336696
-0.100691
-0.275921
-5.38893e-05
0.09219
-0.0993981
-0.152605
-0.107821
-0.0856949
0.0229201
0.0225363
-0.00697938
-0.106226
-0.1052
-0.133197
0.163948
0.00883513
0.0110622
0.0125239
0.026358
-0.277244
-0.0656382
-0.0141621
-0.122883
-0.353087
-0.238245
-0.098951
-0.227826
0.026661
-0.0652512
-0.157081
-0.271584
0.415415
-0.116182
-0.00862738
0.0159376
-0.297931
0.0250375
-0.0767477
0.105028
-0.0112088
0.0437209
0.0118311
-0.379457
0.387619
0.0100201
0.020548
0.0098656
-0.0138275
0.168277
0.323285
0.0173616
0.0217413
0.00372974
0.0526168
-0.0027106
0.0103896
-0.0857088
0.014629
0.00888751
-0.127867
-0.114799
0.0364659
0.0586408
0.00129027
0.0191312
-0.0545779
0.286766
0.359461
0.498751
-0.389818
-0.114544
0.0301033
0.0282746
-0.243515
0.0534936
0.0132624
-0.211687
-0.0983573
-0.101215
-0.458757
-0.401601
0.0212349
-0.114439
0.00610767
-0.0423201
-0.368609
0.00597215
0.0117409
-0.108174
0.0363894
-0.582826
0.0413363
-0.16835
0.00100773
0.0224665
0.00578169
-0.0185028
0.00796474
0.0515501
0.0150809
-0.0261663
-0.0338704
-0.117371
0.019578
-0.0999291
0.0460359
-0.26089
-0.109495
-0.254068
-0.0959431
-0.101139
-0.110431
-0.0960016
-0.106369
0.00611514
0.0217386
-0.025949
0.0418362
-0.131271
-0.0252044
0.0874143
0.0119319
0.000595789
0.0246483
-0.209892
-0.0740863
-0.00194331
0.0241779
0.0290514
-0.0283963
-0.0627074
-0.00890452
-0.0175511
0.0263231
-0.035011
-0.111762
0.00500744
0.29816
0.00496623
0.0129215
0.00585817
-0.0829194
0.021419
-0.102123
0.0110136
-0.111911
-0.280416
0.0147523
0.0101309
0.0888142
-0.455567
0.0101338
0.00772946
-0.414979
-0.0315366
0.0196574
0.0801886
-0.105801
0.0178891
-0.10512
0.0409957
-0.129658
0.28069
-0.0255262
0.0151729
0.0235811
0.0619435
-0.118798
-0.59406
0.174022
-0.365722
-0.0491514
-0.075516
-0.358065
-0.129981
0.0175335
-0.00354306
-0.115161
0.0166109
0.457881
0.00974896
-0.119149
-0.324687
-0.33326
-0.173612
0.0148925
-0.133235
0.0463803
0.0190713
-0.0824054
-0.174006
0.0283671
-0.102529
0.393779
0.021653
0.143392
0.106576
-0.0656805
-0.122047
0.0132861
-0.153006
-0.101089
-0.104138
0.0124863
-0.164034
-0.105051
0.0453248
0.030814
-0.0165562
0.00556206
0.286133
0.0270005
-0.128528
-0.0125633
0.0157217
0.0258795
-0.127847
-0.215259
-0.0951354
-0.0775378
-0.0564577
0.0246512
-0.0849765
-0.0872594
-0.265249
-0.398811
-0.050767
0.0380425
-0.603586
0.0104935
0.0209412
0.00288993
-0.543086
0.00566811
0.0646961
0.0383177
0.000637427
-0.133154
0.026833
-0.182082
-0.0911649
-0.0550197
-0.0952016
0.0128245
0.0263857
-0.00161156
-0.341689
0.0487095
0.0247763
0.318908
0.26246
-0.0654375
-0.0209271
0.015452
-0.0972325
-0.117351
-0.00218456
0.404988
-0.0462583
-0.100204
0.00484575
0.00986367
0.00868837
-0.107027
0.0296332
-0.101275
-0.0317386
-0.0390948
-0.137227
0.0150742
-0.0615769
0.0203927
0.0119351
-0.100487
0.0775917
0.0700716
-0.129294
-0.147612
0.00144481
-0.441958
-0.0981242
-0.160816
0.00638315
-0.176083
-0.120384
-0.529861
0.0713013
0.00831904
-0.595095
-0.00750072
0.00390902
0.0469428
-0.223328
0.0549241
-0.021227
0.0483383
0.372095
-0.0399353
0.404127
0.0170931
0.0169977
0.233845
0.27759
0.00910417
-0.105758
-0.105573
-0.124102
-0.0209173
0.49969
-0.0947482
-0.0949365
0.0199832
-0.0935403
-0.240402
-0.342443
0.0131607
-0.0128524
0.014208
-0.15784
-0.0872091
0.00846014
-0.110682
-0.35158
0.0218306
-0.173678
0.00905834
0.0259086
-0.0644154
0.0171497
-0.176522
0.00905982
0.00775343
0.309449
-0.0997665
-0.0163501
0.00021432
-0.115966
-0.209551
-0.145481
0.00902026
0.168392
0.00314397
0.0297537
-0.00520611
-0.128335
-0.100418
-0.116745
0.0132193
0.378185
-0.110383
0.0337074
0.0703612
-0.00895133
-0.0389093
0.230754
-0.00878187
-0.381659
0.173272
-0.352233
-0.277711
0.00227759
-0.492062
-0.109011
0.0125695
-0.0164942
-0.00802589
-0.0955011
0.00905115
-0.114379
-0.0719079
-0.226251
-0.0239592
0.0588477
-0.112869
-0.15529
-0.177703
-0.20834
-0.387305
0.00622103
-0.171679
-0.0645099
0.0606626
0.0220066
0.469955
-0.10513
0.311819
0.106323
0.00914451
0.0185796
0.0238358
0.023252
-0.0714697
0.368056
0.0137519
0.0026474
-0.0216213
0.0238044
-0.233049
0.432827
0.0477927
-0.109844
0.0856874
-0.129366
-0.00656087
0.0736294
0.0256894
0.273281
0.0111884
0.245804
0.0525816
-0.103981
0.0625268
-0.00581053
-0.12124
-0.0452568
0.00995847
0.00485221
-0.125379
-0.0751949
-0.107448
-0.00119746
0.0508875
-0.0634248
-0.158744
0.0148193
-0.171024
0.0194068
0.0120241
0.450084
0.00977918
0.00891623
-0.44043
-0.0142019
0.0359918
0.0124146
-0.101177
-0.0941934
-0.00599547
-0.00722587
-0.0131877
0.0162817
0.0063158
-0.00961401
0.0377174
0.0168613
-0.588343
0.00569572
-0.233127
-0.026817
-0.216242
-0.00581344
-0.123774
-0.000726279
-0.00840704
0.0101574
-0.248194
0.0690333