/*--------------------------------*- C++ -*----------------------------------*\
| =========                 |                                                 |
| \\      /  F ield         | OpenFOAM: The Open Source CFD Toolbox           |
|  \\    /   O peration     | Version:  v2012                                 |
|   \\  /    A nd           | Website:  www.openfoam.com                      |
|    \\/     M anipulation  |                                                 |
\*---------------------------------------------------------------------------*/
FoamFile
{
    version     2.0;
    format      ascii;
    class       volVectorField;
    location    "100";
    object      U_0;
}
// * * * * * * * * * * * * * * * * * * * * * * * * * * * * * * * * * * * * * //

dimensions      [0 1 -1 0 0 0 0];


internalField   nonuniform List<vector> 
33474
(
(0.99921 -0.00368839 0)
(1.00948 -0.0133148 0)
(-0.227045 0.000921284 0)
(1.05324 -0.0375274 2.98107e-21)
(0.980541 0.00165688 -1.24068e-21)
(0.253376 0.0836859 0)
(1.03546 -0.0687278 -1.94224e-21)
(1.0006 -0.0130035 1.1942e-21)
(1.00073 -0.0127104 0)
(1.01432 -0.00382873 0)
(0.812395 -0.0947065 0)
(1.01346 -0.0140521 8.82601e-23)
(1.00535 -0.00807813 -4.9e-22)
(1.00851 -0.0133668 -1.09852e-22)
(0.741936 -0.285756 1.28546e-20)
(0.681504 0.0677316 -4.86409e-21)
(0.992652 -0.018566 2.13086e-21)
(0.687787 0.0621094 0)
(-0.186092 0.00298902 0)
(0.992496 -0.0182144 0)
(1.01005 -0.00642285 -6.35593e-25)
(0.972907 -0.0131393 9.75669e-21)
(0.961401 -0.0294247 -3.93054e-21)
(1.23714 -0.0644149 -2.4414e-20)
(0.424909 0.129301 8.34895e-20)
(0.971517 -0.0152154 0)
(1.06945 -0.0195222 6.08944e-21)
(1.23633 -0.0591261 0)
(0.521909 0.0399499 0)
(0.945026 -0.0229299 -7.5588e-21)
(1.02005 -0.0288097 0)
(1.01036 -0.0277879 1.1995e-23)
(1.2347 -0.0487574 0)
(1.06906 0.017744 5.75178e-21)
(0.615268 0.151032 0)
(0.571838 0.0698414 1.39544e-20)
(0.980903 -0.0387585 0)
(0.994124 -0.00973039 0)
(0.878674 0.0106826 -1.15804e-20)
(1.18476 -0.0216214 -7.33984e-21)
(1.00019 -0.000153373 0)
(0.259647 -0.00524417 -2.49672e-20)
(-0.0310886 -0.00930154 1.84215e-20)
(1.00001 -0.00032421 -1.10142e-21)
(0.487352 0.0507942 -6.53604e-21)
(0.983362 -0.440223 -1.40657e-20)
(1.00005 -0.000430109 2.05417e-21)
(0.584884 0.076112 0)
(1.02721 -0.0609691 -2.2838e-21)
(1.07132 -0.169705 8.16301e-21)
(1.05187 -0.0375214 0)
(0.986266 -0.0223234 -6.84012e-21)
(0.415957 0.148693 -7.19704e-20)
(0.850786 0.0566122 3.36979e-21)
(0.980887 0.0013646 2.14471e-21)
(0.370116 0.100129 -4.87879e-20)
(0.98457 -0.0192408 0)
(1.02346 -0.0402842 0)
(-0.184499 -0.0105763 -9.24568e-20)
(-0.160299 0.00742631 1.48186e-20)
(1.0216 -0.0289632 1.07684e-21)
(1.10171 -0.0250486 3.83961e-21)
(0.243921 0.00671766 0)
(1.05319 -0.0236869 0)
(0.999295 -0.00358004 -2.48864e-21)
(0.984547 -0.01979 0)
(1.14492 -0.183803 -3.18989e-20)
(0.588353 0.0546243 0)
(1.02226 -0.0290769 -2.39343e-21)
(0.556489 0.0375466 -9.62191e-21)
(1.07363 0.0102055 0)
(1.09054 0.0127148 -1.51925e-21)
(1.00004 -0.000365947 0)
(1.06131 -0.0395708 -3.92886e-21)
(1.01232 -0.0138262 0)
(0.803195 0.0710258 0)
(0.939875 -0.0174382 -1.21499e-20)
(1.01153 -0.00216244 -3.37808e-22)
(0.980595 0.00248052 1.00569e-20)
(0.982425 -0.242843 -1.59539e-21)
(0.43071 0.0309563 -1.65675e-22)
(0.978432 -0.0205028 0)
(0.312831 -0.00335579 4.54747e-21)
(1.02629 -0.00681041 7.62575e-22)
(0.804661 0.0663207 0)
(0.541012 0.0421955 4.94394e-21)
(1.16972 -0.0186323 3.11268e-20)
(-0.128408 -0.0103811 0)
(0.0451622 0.00519699 -2.39874e-20)
(1.07889 -0.0553456 7.32569e-21)
(0.433432 0.051299 0)
(1.00179 -0.00501835 -1.56101e-22)
(0.676129 -0.0461137 4.24301e-21)
(1.0114 -0.00201707 0)
(0.966067 -0.0659168 0)
(0.985633 -0.0224037 3.97222e-21)
(1.01031 -0.00644379 2.14108e-23)
(0.981012 0.00268013 -7.95758e-21)
(1.01717 -0.00017292 0)
(-0.231342 0.0106663 6.32174e-20)
(1.01417 -0.00395876 0)
(0.417726 0.0541246 0)
(0.22883 0.0375221 2.15389e-20)
(0.972754 -0.0141105 -6.20396e-21)
(1.1132 0.0346375 0)
(0.589756 0.0539504 0)
(1.14455 0.0294889 0)
(1.00165 -0.000225241 -1.53457e-21)
(1.03871 -0.0522512 -9.19529e-23)
(1.14087 -0.147583 4.21366e-20)
(0.873696 -0.254663 0)
(0.800578 0.0553279 0)
(0.833279 0.0555147 0)
(1.09272 0.00475862 -2.31511e-20)
(0.681564 -0.0376537 8.99348e-22)
(1.27908 -0.156761 1.51957e-21)
(0.994816 -0.00873589 3.80133e-21)
(0.979149 -0.0204296 0)
(1.05238 -0.0228687 0)
(1.01615 -0.00413176 -2.07411e-22)
(1.04474 -0.0147849 3.62381e-21)
(1.05266 -0.128209 9.46806e-21)
(1.05515 -0.021734 7.80163e-21)
(1.03888 -0.0510293 -6.51273e-21)
(1.17177 0.00209651 3.0105e-20)
(0.237405 0.00531798 0)
(0.766938 -0.17035 0)
(1.07018 0.013963 0)
(0.325099 -0.00603181 -4.67666e-21)
(0.820214 0.0500491 0)
(1.12931 0.0319481 0)
(0.571477 0.034182 4.76096e-21)
(0.883318 -0.400196 0)
(0.805068 -0.0942831 -7.62698e-21)
(0.944191 -0.0243715 0)
(1.03123 -0.00877123 -4.75878e-21)
(1.00157 -0.00027284 1.98618e-21)
(0.956391 0.00179527 0)
(0.964227 -0.0664267 -8.7465e-21)
(1.0015 -0.00305952 5.04753e-22)
(0.884401 0.0527283 1.64467e-20)
(0.997951 0.0523856 0)
(0.763867 0.0176645 4.62366e-21)
(1.01364 -0.0110376 -3.41607e-22)
(1.08258 0.0359573 -1.79142e-21)
(0.842619 -0.225486 -1.25339e-20)
(0.522575 -0.616474 0)
(1.0151 -0.00380292 4.04133e-22)
(1.11597 -0.0494587 0)
(1.11534 0.0060678 0)
(0.999325 -0.00369852 -5.10418e-21)
(0.962907 -0.0313854 1.60281e-20)
(1.07064 -0.0197219 -8.40752e-21)
(1.00981 -0.00783726 2.15904e-22)
(1.05137 -0.123788 -6.03657e-21)
(1.01284 -0.00303091 7.20526e-24)
(0.516972 0.0397105 2.3312e-20)
(1.07075 -0.00842418 2.50893e-21)
(0.720068 -0.0775273 2.57177e-20)
(0.228188 -0.00424465 -5.55356e-21)
(0.997439 0.000684734 4.43483e-22)
(0.75505 0.0198969 -4.57691e-21)
(-0.254077 0.00656048 0)
(1.0441 -0.0145012 2.90989e-21)
(0.258761 0.0404162 -1.90657e-20)
(1.06157 -0.12637 -5.09946e-21)
(1.01699 -0.000149221 2.10314e-21)
(0.967751 -0.152344 8.01129e-21)
(0.999396 -0.00358891 4.82084e-21)
(1.00282 -0.010568 -1.54269e-22)
(0.776869 -0.168123 0)
(1.00059 -0.00520343 -1.30095e-21)
(1.00301 -0.0106875 1.55098e-21)
(0.82184 0.0561074 1.15159e-20)
(1.00481 -0.0290604 2.08368e-21)
(1.04294 -0.026044 3.24795e-21)
(0.902627 0.0533198 0)
(0.951901 -0.0346308 0)
(1.17221 0.0126174 2.70889e-20)
(1.10069 -0.0360528 1.18838e-22)
(0.997178 -0.00961824 0)
(1.07087 0.0145957 0)
(0.962806 -0.0326016 -2.14505e-20)
(0.830355 0.0484679 -2.35346e-20)
(1.00931 -0.0141305 3.13254e-22)
(1.13213 -0.0757182 0)
(0.840193 -0.0835112 -2.19836e-20)
(0.617134 0.046358 0)
(-0.229775 0.00673257 8.0505e-21)
(1.00375 -0.00740177 -1.88898e-22)
(0.864914 -0.0344713 0)
(1.12803 -0.238279 -9.53201e-20)
(1.0125 -0.0135686 0)
(1.13056 -0.0733201 0)
(-0.27378 0.00560852 0)
(0.988574 -0.238399 0)
(1.01989 -0.00251669 -2.1993e-23)
(0.822319 -0.0592039 2.43016e-20)
(0.241102 -0.00687029 -9.06052e-21)
(0.841704 0.0515267 1.45167e-20)
(1.03086 -0.00893468 4.74845e-21)
(1.12066 0.043878 -1.47318e-21)
(1.05589 -0.12854 4.19513e-21)
(1.00448 -0.0285503 0)
(1.00149 -0.00314677 -5.46854e-22)
(1.0038 -0.00764746 2.71314e-21)
(1.12742 0.0421738 0)
(1.10411 -0.108787 4.41975e-21)
(0.862859 -0.363369 -2.58105e-21)
(1.15218 0.0145042 1.46356e-20)
(1.0773 -0.0561822 3.73101e-21)
(0.450469 -0.0125759 0)
(0.704578 0.1047 -5.89723e-20)
(0.956336 -0.125319 2.07825e-20)
(1.00723 -0.00541809 0)
(1.06824 -0.168455 -3.46087e-20)
(1.00317 -0.00621308 0)
(0.158764 0.0351701 1.34176e-20)
(1.08962 0.0122266 -5.31099e-21)
(0.862441 -0.0378506 -8.17727e-21)
(1.15075 0.0132863 -2.84907e-22)
(1.00135 -0.00511369 -1.69425e-21)
(1.01147 -0.0194455 1.47497e-22)
(0.867678 -0.263468 0)
(-0.0257624 -0.0574858 0)
(1.02849 -0.11489 0)
(0.743259 -0.2708 0)
(0.997957 4.41026e-06 -4.73431e-21)
(0.569386 0.0335457 -4.47349e-21)
(0.625769 0.0547185 0)
(1.07339 0.00534921 -4.94694e-21)
(0.600108 -0.478267 -2.21998e-20)
(0.988508 -0.0083212 5.05466e-21)
(0.527729 0.0405955 -2.07091e-20)
(0.511685 0.0412968 -5.23127e-21)
(0.99739 -0.00528095 0)
(1.01 -0.00469775 -5.32895e-23)
(1.11409 0.0351666 0)
(1.01025 -0.0271731 2.01277e-22)
(-0.0921577 0.0177397 3.0323e-20)
(1.18563 -0.0419636 -3.41716e-20)
(-0.229181 0.00523717 1.1797e-19)
(1.01844 -0.0140287 0)
(1.00738 -0.0058485 -3.30173e-22)
(0.958151 -0.0228851 4.9219e-21)
(1.12839 0.0415503 2.05285e-20)
(0.727298 -0.0836117 -3.14156e-20)
(0.995879 -0.0664603 0)
(0.260875 -0.0680238 6.48488e-20)
(1.05385 -0.0385987 -3.14268e-21)
(1.11787 0.0466934 -2.96619e-20)
(0.995621 -0.00106495 0)
(0.266174 -0.00654648 2.48787e-20)
(1.20558 0.00304029 -5.26706e-20)
(1.22173 -0.0179989 -4.97722e-20)
(1.00811 -0.000544273 0)
(1.02217 -0.0161061 1.61299e-21)
(1.101 -0.0264798 -3.72313e-21)
(0.887104 0.0487515 -8.23364e-23)
(0.254501 -0.00257908 -9.56051e-21)
(1.0281 -0.0349661 -2.6497e-21)
(0.845348 0.0471807 -2.89962e-20)
(1 -0.0014426 0)
(1.02375 -0.00667336 7.46546e-22)
(1.00656 -0.00811276 -7.48508e-22)
(0.825935 0.079975 0)
(-0.0961337 0.019342 2.17958e-20)
(0.996069 -0.00538309 0)
(1.05989 -0.0393267 0)
(1.14518 -0.146554 -3.71957e-20)
(1.00611 -0.0418875 -3.64586e-21)
(1.09486 -0.033354 5.06579e-21)
(0.959119 -0.0251799 -1.13569e-20)
(0.99427 -0.00902965 0)
(0.0402119 0.0103833 0)
(0.957316 0.00231928 0)
(0.963978 -0.313121 0)
(-0.116069 0.0153652 4.70765e-20)
(0.878353 0.0137647 -1.15191e-20)
(1.03654 -0.0700459 2.02198e-21)
(1.08204 0.0351656 1.62878e-21)
(0.930448 0.00554545 -3.1479e-20)
(1.02732 -0.0624618 1.63997e-21)
(1.01364 -0.0143671 -1.50347e-23)
(1.01005 -0.0300936 -2.07814e-21)
(1.02177 -0.016164 -3.00196e-22)
(1.00661 -0.00794581 6.76676e-22)
(0.545825 0.551474 -2.84137e-20)
(1.07007 -0.00943173 4.50866e-21)
(1.01193 -0.0314399 6.5092e-22)
(0.156453 0.00625585 3.59869e-21)
(0.995956 -0.00260127 1.16998e-21)
(1.00037 -0.00021934 0)
(0.0274255 0.00793122 7.1847e-21)
(0.340218 -0.00477621 -2.00445e-20)
(1.05314 0.0475253 0)
(0.864381 -0.0263503 0)
(0.651254 -0.34814 2.77622e-21)
(1.12964 0.0310896 1.53843e-21)
(1.12264 0.0198562 -4.01978e-20)
(1.12558 0.0425742 0)
(1.04368 0.0521743 0)
(-0.193478 0.00569505 1.60944e-20)
(0.695356 0.0295306 1.61686e-20)
(1.11962 0.0437611 0)
(1.02586 -0.00401171 0)
(0.903284 0.0140265 0)
(0.0636779 -0.00643732 0)
(0.179976 0.0387067 0)
(0.962489 -0.000258022 0)
(1.10255 -0.0356823 -2.24146e-20)
(0.932083 0.00864368 -5.75331e-21)
(1.00386 -0.00071281 -1.27937e-21)
(0.932012 0.00592311 2.7139e-20)
(0.937767 -0.0435519 -1.88771e-20)
(1.21744 -0.167131 0)
(1.01775 -0.00731347 1.45973e-21)
(1.16928 0.0122011 -2.03869e-20)
(0.993502 -0.0502902 -1.85466e-21)
(0.930446 0.0528643 0)
(1.02341 -0.00670257 1.39813e-21)
(1.02078 -0.0710904 -2.70199e-22)
(0.958094 0.00428268 0)
(1.11368 -0.0671668 0)
(1.02992 -0.00800323 4.72504e-21)
(0.853794 -0.372939 -1.18971e-20)
(1.00174 -0.00484006 0)
(0.998236 -0.0512528 0)
(1.01303 -0.00316597 -3.02945e-22)
(0.987384 -0.00425282 -3.74686e-22)
(0.971298 -0.138994 3.67088e-20)
(1.02554 -0.0563223 -2.46294e-21)
(1.00303 -0.00607557 2.56543e-21)
(0.76263 -0.0172602 -8.20973e-20)
(1.00007 -0.00480171 2.15885e-21)
(1.09961 0.0499369 -1.02206e-23)
(1.17544 -0.053292 6.92363e-21)
(1.01038 -0.00208491 0)
(-0.176038 -0.00906967 8.13093e-20)
(0.0437515 -0.0095027 0)
(0.999941 -0.00070811 -9.92751e-22)
(-0.0286739 -0.053791 1.0882e-20)
(0.991744 -0.0121678 0)
(0.869095 -0.026884 0)
(0.87547 -0.086997 1.92668e-21)
(1.206 0.00134193 4.58596e-20)
(1.01944 -0.0700317 7.31366e-22)
(1.00001 -0.000475888 -6.82502e-22)
(1.06456 -0.125448 5.56756e-21)
(1.02554 -0.00404422 -6.94111e-22)
(0.991614 -0.0117608 5.2332e-22)
(0.372678 0.00647317 -8.71191e-21)
(1.00588 -0.00797554 0)
(0.43286 0.0233974 -5.64107e-21)
(0.202865 0.00703653 0)
(0.0281513 0.00409842 5.13743e-20)
(1.03054 -0.207292 4.71139e-20)
(-0.105854 -0.000234386 7.65039e-20)
(1.06606 0.0111083 -6.85916e-21)
(1.00033 -0.00940197 -2.9369e-21)
(1.12316 0.0211163 9.0117e-21)
(1.02073 -0.00299525 1.7453e-21)
(0.588693 0.0445248 1.00042e-20)
(1.01787 -0.0075538 0)
(0.979359 -0.0214983 0)
(1.22876 -0.00912339 -3.19223e-20)
(1.00787 -0.000534709 1.37376e-22)
(0.956535 -0.128428 -5.4298e-21)
(1 -5.37556e-05 0)
(-0.0255485 -0.00549644 -1.33899e-22)
(1.00161 -0.00692011 0)
(1.04788 -0.123595 -1.35014e-20)
(0.637246 0.0473681 -9.72389e-21)
(0.957829 -0.0242182 0)
(0.971773 -0.0143613 0)
(0.584 0.0350671 0)
(0.384933 0.0103861 -8.10196e-21)
(1.0077 -0.0402273 0)
(0.574155 0.55812 2.02867e-20)
(0.99745 0.00018962 6.05876e-21)
(-0.210828 -0.000546964 0)
(1.20636 -0.400636 0)
(0.980071 -0.0378826 2.85923e-21)
(1.00015 -0.000145517 8.82333e-22)
(0.955545 -0.306213 2.0991e-21)
(-0.220093 0.00572269 -9.32511e-20)
(0.933582 0.00914736 0)
(1.01416 -0.0119139 -5.84533e-22)
(0.993474 -0.0491389 0)
(-0.161198 0.00907632 -4.35749e-20)
(0.683092 0.0538259 4.09983e-21)
(1.00977 -0.00475441 3.06768e-24)
(0.768465 -0.02103 6.85474e-20)
(-0.0358964 -0.00633825 -2.03348e-20)
(1.01067 -0.0298893 1.25537e-21)
(1.00397 -0.00782939 0)
(1.00472 -0.00288378 1.77128e-22)
(0.850007 -0.223357 1.39406e-20)
(1.00089 -0.00274829 0)
(1.02616 -0.0556798 0)
(0.162836 0.00767873 0)
(1.19136 -0.407602 0)
(1.00006 -0.000406378 -1.37376e-21)
(1.10331 -0.189101 -1.73395e-20)
(1.00957 -0.00457313 4.48721e-24)
(1.00456 -0.00283951 -7.65323e-22)
(0.347026 -0.00581795 2.7365e-20)
(1.09672 0.0469119 7.21526e-21)
(0.988075 -0.00825204 0)
(1.00002 -0.000682776 -7.81935e-22)
(0.997372 -0.00507846 0)
(-0.202773 -0.00887928 7.3381e-20)
(0.999916 -0.000796321 0)
(0.412965 0.0058982 -1.67271e-20)
(1.11716 -0.0479594 0)
(1.02702 -0.0132127 -1.58793e-21)
(1.01496 -0.00391588 1.15786e-21)
(0.425075 0.0295293 -1.71713e-20)
(1.05602 -0.022159 -4.54193e-22)
(0.117095 -0.0061097 0)
(1.02751 -0.0343524 2.51668e-21)
(0.843116 0.0506707 0)
(0.197185 -0.00427206 0)
(1.02442 -0.0326115 9.23091e-22)
(0.278906 0.032052 0)
(0.798945 0.0615741 4.56452e-21)
(0.282521 -0.134196 5.5373e-20)
(-0.183539 0.00751925 -3.39735e-20)
(1.09622 0.0459959 0)
(0.275293 0.038125 9.73702e-21)
(1.05625 0.00577419 0)
(1.09481 0.0499615 3.7889e-22)
(-0.00108306 0.0074062 1.41771e-20)
(0.997626 -0.00827889 1.97169e-21)
(1.01006 -0.00714521 0)
(0.994909 -0.00901312 -3.11654e-21)
(0.980085 -0.0215586 0)
(0.994726 -0.018868 0)
(0.995717 -0.000849639 1.2048e-21)
(1.06733 -0.0344231 2.18364e-21)
(1.09604 0.00719565 2.02399e-20)
(1.00005 -0.0010929 0)
(1.0154 -0.0124826 0)
(1.00692 -0.00789301 0)
(-0.0236137 0.00857207 -5.98933e-20)
(1.12887 0.0415103 1.81843e-20)
(1.02044 -0.0212386 0)
(1.07087 -0.0220626 -1.87803e-20)
(1.01968 -0.0107145 8.49973e-22)
(0.961336 -0.0308776 6.58008e-21)
(1.00378 -0.0286226 -5.51332e-22)
(0.264814 0.0290607 0)
(1.09414 -0.0322414 -2.96507e-21)
(0.967647 -0.0065327 0)
(0.184745 0.0036228 -1.1812e-20)
(1.00106 -0.0056389 -8.35438e-22)
(1.0073 -0.0060624 0)
(1.00346 -0.0280484 -1.58607e-21)
(1.11647 0.0472797 2.92057e-20)
(1.10205 0.0329489 2.18618e-20)
(1.07528 0.0528637 -7.24574e-22)
(0.684032 0.0546386 -1.72023e-20)
(-0.196307 0.0076385 0)
(0.297254 -0.00698329 -8.07589e-21)
(-0.0900148 -0.0116859 0)
(1.01409 -0.581966 3.15629e-21)
(0.996787 6.93604e-05 -1.04393e-20)
(0.667553 0.0551288 -3.34072e-20)
(1.00177 -0.007936 0)
(0.994517 -0.0052461 -3.04397e-21)
(0.449703 0.0264517 -1.16374e-20)
(1.00358 -0.00721745 1.66451e-22)
(0.130362 -0.00902558 0)
(-0.217277 -0.0103373 0)
(0.944992 0.0441092 0)
(0.695056 0.103441 8.07932e-20)
(1.02943 -0.0500874 -1.64651e-21)
(0.979 -0.0412772 -1.90744e-22)
(1.11041 -0.0780994 -2.54283e-20)
(0.978528 -0.192993 0)
(-0.213368 0.00690716 -3.60897e-20)
(0.997681 -0.00801936 2.00727e-21)
(0.301668 0.040771 1.68583e-20)
(0.579241 -0.0981739 5.04126e-20)
(1.06689 0.0107509 0)
(-0.0922708 0.0184367 -2.30898e-20)
(-0.0262552 0.0107005 2.79712e-20)
(0.998265 -0.00592731 0)
(0.0148805 0.337738 1.49708e-21)
(1.02991 -0.0542203 1.47224e-21)
(1.01509 -0.0121567 1.32052e-22)
(0.87142 0.0345145 3.96689e-20)
(1.19565 -0.170418 -8.78474e-20)
(0.996031 -0.00239691 -1.18901e-21)
(0.996971 -0.00978481 1.38165e-21)
(1.05161 -0.0111412 -8.98697e-21)
(0.905407 0.0155785 0)
(0.975295 -0.0131683 2.97656e-21)
(0.412471 0.00628235 0)
(1.05693 0.00537443 3.28656e-21)
(0.281071 0.030378 0)
(1.01835 -0.0143527 6.78502e-22)
(0.993449 -0.0184251 0)
(0.786924 0.0548553 3.82658e-21)
(1.1023 0.0320648 -1.47938e-20)
(1.11976 -0.243093 0)
(1.1753 -0.352719 3.55611e-20)
(1.12844 -0.0861561 1.14969e-20)
(0.353863 -0.00690474 -9.03226e-21)
(0.42367 0.0209479 1.90109e-21)
(1.1221 -0.633176 3.45975e-20)
(0.706106 0.0292038 1.34936e-20)
(1.00064 -0.00538484 -4.84543e-22)
(0.99392 -0.00896813 5.8362e-21)
(1.09293 0.00353442 1.10994e-20)
(-0.143111 0.0103345 2.65668e-20)
(0.975526 -0.00126986 5.46757e-21)
(0.270274 0.0302776 0)
(0.274163 0.0287965 2.29053e-21)
(1.00575 -0.00813241 0)
(1.00357 -0.0441124 0)
(1.00164 -0.00446921 1.21316e-23)
(0.652383 0.0508064 2.1531e-20)
(1.08433 0.0179007 0)
(0.51804 -0.129218 0)
(1.20009 -0.124398 2.07451e-20)
(-0.00881436 -0.00972827 -1.23156e-22)
(-0.250451 0.00602288 1.95141e-20)
(1.11863 0.0445777 -1.3478e-20)
(1.00682 -0.0119099 0)
(0.967501 -0.00823346 0)
(1.11403 0.0297236 -5.72097e-21)
(0.975493 -0.189156 -5.72657e-22)
(0.0464325 -0.0766676 -1.83944e-19)
(1.0255 -0.00438791 2.08005e-21)
(-0.156555 0.00259297 0)
(0.987657 -0.0188272 0)
(0.256285 0.0288293 0)
(1.17211 0.0286748 -1.04e-20)
(0.994006 -0.00424696 3.15522e-21)
(-0.0669946 -0.00113785 -7.25308e-20)
(-0.0410082 -0.00993524 1.65771e-20)
(1.12448 -0.0210139 1.08741e-20)
(1.00684 -0.00802063 6.67761e-22)
(1.13483 -0.155932 1.68443e-20)
(0.139972 -0.00242673 0)
(0.355829 0.00527181 -1.14188e-21)
(1.01132 -0.00676184 -9.69391e-23)
(0.0783076 0.422302 6.72119e-20)
(1.22536 -0.0147964 2.20703e-20)
(1.02681 -0.0128303 2.07478e-21)
(0.864505 -0.335749 0)
(1.00541 -0.00824397 -6.88836e-22)
(1.26559 -0.156214 0)
(1.00426 -0.00609333 1.7897e-21)
(1.0509 -0.0408627 3.21747e-21)
(1.07309 -0.164835 0)
(1.00197 -0.0205191 1.95894e-21)
(1.02516 -0.00444029 -1.30872e-21)
(1.03177 0.0483779 8.58264e-21)
(1.0007 -0.000283322 8.97505e-22)
(0.981743 -0.00638827 -2.52745e-21)
(1 -0.00198082 0)
(0.994777 -0.0194275 8.91499e-23)
(0.966881 -0.00863004 5.27567e-21)
(1.0157 -0.0124017 7.39758e-22)
(0.0024806 0.00955232 0)
(1.01573 -0.0182531 5.42534e-22)
(1.24386 -0.0568405 0)
(0.397932 -0.155247 0)
(1.07097 0.0183848 0)
(0.975163 -0.0110955 -3.28154e-21)
(0.471533 0.203844 4.21022e-20)
(1.00832 -0.0135621 0)
(1.10956 0.0444509 -1.52517e-20)
(1.00046 -0.00873505 0)
(1.02475 -0.0071234 7.3582e-22)
(1.03859 0.0482405 0)
(1.0089 -0.0299267 0)
(0.980845 -0.0129216 0)
(0.996273 -0.00736031 -2.52042e-21)
(0.389861 -0.00446675 -1.70579e-20)
(-0.279897 0.0018366 -6.49543e-20)
(0.397612 0.0127091 0)
(1.00256 -0.0442029 9.85782e-22)
(1.00002 -0.000343138 -1.33073e-23)
(1.1727 -0.341608 -1.12496e-21)
(0.640785 0.0422375 -8.93251e-21)
(1.02415 -0.0063206 3.19992e-21)
(0.989017 -0.00909013 0)
(0.981865 -0.00584941 0)
(1.09812 -0.108225 0)
(-0.280671 0.00483012 -4.29704e-20)
(0.993788 -0.00398693 -1.82868e-21)
(1 -0.00183504 -4.11787e-21)
(0.861993 -0.0299464 1.62777e-20)
(0.995861 -0.00199066 -2.1444e-21)
(1.00661 -0.0117467 5.79376e-22)
(0.708738 0.0549818 9.50865e-21)
(1.05124 -0.0364752 0)
(1.21688 -0.0053996 -3.36771e-20)
(1.02957 -0.00815404 -4.73618e-21)
(1.00153 -0.00922987 0)
(1.00283 -0.0165031 -1.64092e-21)
(0.672378 0.0541695 1.34821e-20)
(0.982155 -0.0355625 2.58336e-21)
(1.11949 -0.250265 0)
(1.02913 -0.00780382 0)
(1.11308 0.029462 -4.68707e-21)
(1.0074 -0.0409623 7.25367e-22)
(1.03138 -0.115883 -2.79961e-21)
(0.879265 -0.0894935 3.4258e-20)
(1.17964 -0.0973792 -1.49469e-20)
(1.00001 -9.28718e-05 2.11231e-21)
(1.02416 -0.0399882 -5.89555e-22)
(0.0715405 0.235812 -2.06848e-20)
(-0.0219338 -0.00778881 0)
(1.14003 -0.0342069 -4.17103e-20)
(1.00361 -0.0093998 0)
(1.02592 -0.00692067 -9.41562e-22)
(1.00308 -0.160717 0)
(0.481439 0.0184768 -1.26795e-20)
(0.673365 0.21443 0)
(1.11957 0.0445626 1.90249e-21)
(0.91256 0.0301573 2.20546e-20)
(0.931674 -0.0890836 0)
(1.07084 -0.0453779 0)
(0.9961 -0.00561723 -2.54667e-21)
(1.03412 -0.101756 -1.5409e-21)
(0.988184 -0.0186651 0)
(1.00161 -0.00520562 1.50045e-21)
(0.249161 0.237193 2.71159e-20)
(0.871231 -0.0231318 0)
(1.17511 -0.0982773 1.22828e-20)
(0.968298 -0.589927 1.90155e-20)
(1.24456 -0.0532517 -1.49612e-20)
(1.01226 -0.011275 0)
(-0.244645 -0.00565811 -1.71185e-19)
(1.03331 0.0521894 3.34718e-21)
(1.14894 0.0319024 -1.27339e-20)
(0.905612 0.0458699 0)
(1.04792 -0.0419342 -4.83127e-21)
(1.10347 -0.0862355 -8.52108e-21)
(0.583259 -0.0644197 0)
(1.0285 -0.565426 2.11079e-20)
(0.646256 -0.369071 4.30408e-20)
(0.0629031 0.451934 -6.79076e-20)
(1.00075 -0.00234066 3.67937e-21)
(0.612868 0.163119 0)
(1.00003 -0.000826223 -3.30934e-24)
(0.441974 -0.0115148 6.20716e-21)
(1.00092 -0.00288266 -1.33794e-21)
(1.18295 -0.023796 0)
(1.16705 -0.0179068 -3.38276e-22)
(0.99385 -0.00370898 1.97659e-22)
(1.00002 -0.000106969 -2.10984e-21)
(1.01478 -0.0122144 3.56122e-22)
(0.933386 -0.0919281 -3.37741e-21)
(0.660098 0.215345 -6.33955e-22)
(0.677961 -0.017964 0)
(0.953447 -0.0347801 -9.97148e-21)
(0.937504 -0.0917847 -1.87201e-20)
(0.763825 0.0521088 -1.64668e-20)
(1.01012 -0.0259087 -8.58215e-22)
(0.000453154 0.0116438 -1.35555e-20)
(1.01018 -0.00765483 5.26664e-24)
(0.503002 0.0504864 6.33613e-21)
(1.00435 -0.0183272 3.55689e-22)
(0.144707 0.0372892 -2.64712e-22)
(0.672349 -0.0265435 5.54467e-22)
(0.929962 0.0374208 0)
(1.14371 0.0390298 2.00936e-21)
(1.00002 -0.000427817 -1.19679e-23)
(0.264384 0.00175948 -2.00175e-20)
(0.980286 -0.0225984 4.77571e-21)
(1.00437 -0.00623526 -2.25653e-21)
(0.726122 0.0558604 -5.72208e-21)
(0.994287 -0.00515216 2.13514e-21)
(1.01041 -0.00787833 -3.10419e-23)
(1.00348 -0.00923892 7.96283e-22)
(1.00433 -0.00296409 0)
(1.10136 0.0169112 2.48075e-20)
(1.02738 -0.010271 0)
(1.01554 -0.017944 -2.46267e-22)
(0.0392044 0.0691039 0)
(1.09864 -0.0281385 0)
(1.08598 -0.0693722 2.04272e-20)
(1.17378 -0.160712 -3.18612e-20)
(-0.0219252 -0.0669299 -1.92454e-20)
(0.146709 0.0328737 -4.31702e-21)
(0.194961 0.00566232 7.49464e-24)
(0.631338 0.0559039 -4.91014e-20)
(0.785991 0.0566503 2.34426e-20)
(1.05143 -0.0231791 -2.25763e-21)
(0.430527 -0.00646321 -1.77443e-20)
(1.00269 -0.0202637 -1.83978e-21)
(0.986969 -0.00438154 3.87079e-21)
(0.996339 -0.00763962 -2.92476e-21)
(0.375567 0.0220718 1.83064e-20)
(1.00187 -0.0157563 -3.99423e-21)
(1.16549 0.00473291 -1.65608e-20)
(1 -0.000452996 -5.1597e-23)
(0.265788 -0.1153 0)
(1.13481 0.0327966 1.9537e-20)
(1.10583 -0.194529 1.59993e-20)
(1.07944 0.00860299 0)
(1.00218 -0.00676449 0)
(0.96842 -0.189976 3.60557e-21)
(0.347682 0.0211406 -2.24443e-22)
(1.01629 -0.0132877 -4.49623e-22)
(1.03524 -0.0238981 -2.19122e-21)
(0.90816 0.0139471 0)
(1.11882 0.0306372 1.59569e-20)
(0.776835 0.0565241 -1.45954e-20)
(1.06806 -0.0333343 -1.69254e-20)
(0.112823 0.0302414 0)
(0.958903 -0.0529348 -1.84518e-20)
(0.735446 -0.266108 0)
(0.850694 -0.211531 2.4247e-20)
(0.94099 -0.0628463 -1.02902e-20)
(1.01445 -0.0118493 0)
(1.02878 -0.00793258 6.30405e-22)
(0.83006 0.0646928 0)
(0.935847 -0.0428246 0)
(1.00934 -0.0046398 1.09123e-22)
(1.02694 -0.0102666 0)
(1.00268 -0.00709971 2.34498e-23)
(0.830447 0.0708345 0)
(0.0257315 0.019726 4.02716e-20)
(1.01113 -0.00655544 -1.28132e-23)
(0.253287 0.106311 2.72833e-20)
(0.48549 0.0195483 1.15956e-20)
(1.01134 -0.0190022 1.81908e-22)
(1.11044 0.0340814 -1.68909e-20)
(0.604353 0.126842 0)
(1.00033 -0.000174635 0)
(0.986361 -0.0165586 -6.98167e-21)
(0.99761 0.000175346 -4.46322e-21)
(0.894562 0.00763839 1.35563e-20)
(0.16946 -0.734637 0)
(1.09582 -0.10564 0)
(1.13063 -0.0841861 0)
(1.05102 -0.0939756 0)
(0.671943 0.0500229 -4.02339e-20)
(1.19946 -0.157454 -7.78578e-22)
(0.624097 -0.498061 0)
(-0.302285 0.00477293 -4.64947e-20)
(0.552579 0.0418711 -5.31102e-21)
(1.00234 -0.0161617 -1.63996e-21)
(0.981028 -0.0226379 -4.2799e-21)
(0.717018 0.0399102 4.42382e-20)
(0.97604 -0.308581 4.90789e-22)
(1.1037 0.0310949 0)
(1.03185 -0.100634 0)
(1.03608 -0.168271 6.93809e-21)
(1.00434 -0.00594647 9.87212e-22)
(1.00187 -0.032689 0)
(0.490775 0.0491894 1.21174e-20)
(1.00827 -0.0141627 3.93155e-22)
(1.16504 0.0293634 1.34823e-20)
(1.00207 -0.00679118 0)
(0.76934 0.024805 0)
(0.780501 -0.26578 -2.84349e-20)
(0.983106 -0.314813 -7.38195e-22)
(1.00139 -0.00528867 2.22588e-21)
(0.817713 0.0526224 -8.52833e-21)
(1.0121 -0.0110916 0)
(1.0125 -0.0141727 0)
(1.01018 -0.00488472 3.75615e-23)
(1.11465 0.0440238 -2.36518e-20)
(1.30206 -0.267882 -5.22714e-20)
(0.980558 -0.0397877 5.90605e-21)
(1.07374 -0.0718124 2.33503e-22)
(-0.297624 -0.00136769 7.82024e-22)
(1.03369 -0.0255474 1.90774e-21)
(0.20206 0.0402583 2.87953e-21)
(1.02254 -0.0398775 2.05343e-21)
(0.139155 0.726529 -5.42564e-20)
(1.07466 0.0105734 0)
(0.975818 -0.0017548 3.55644e-21)
(0.952674 0.0274912 0)
(1.1883 -0.0438087 3.67328e-20)
(0.84162 0.0539199 1.19978e-20)
(1.00875 -0.131159 0)
(0.942593 -0.119997 0)
(1.05113 -0.0417453 -8.09515e-21)
(1.00141 -0.0152983 -3.36808e-21)
(1.11277 -0.0770003 2.35388e-20)
(0.138481 -0.00603046 0)
(1.09149 -0.0332065 -1.07404e-20)
(0.503198 -0.117808 -3.19685e-20)
(0.994358 -0.00940719 0)
(0.993907 -0.00443608 -9.49625e-22)
(0.387675 0.0237077 -1.85761e-20)
(1.14052 -0.0358008 4.27544e-20)
(0.272943 -0.00376207 0)
(0.271669 0.0695924 3.03875e-20)
(0.621489 0.0528026 -3.07385e-21)
(1.0272 0.0570195 -1.1423e-20)
(1.13141 0.0415486 9.77764e-21)
(0.89135 -0.0482607 2.3954e-20)
(0.938565 -0.0627784 1.04275e-20)
(1.02785 -0.0581945 -2.25297e-22)
(1.18429 -0.275549 0)
(0.85585 -0.346483 1.61621e-20)
(1.11285 0.0327997 -2.1037e-21)
(1 -0.00101355 -3.52383e-21)
(1.03942 -0.0342514 5.97128e-21)
(0.190176 0.000141137 2.814e-20)
(0.982104 -0.57384 -1.31932e-20)
(1.14666 0.0296905 -6.87672e-21)
(1.00422 -0.00572941 -9.62238e-22)
(1.11789 0.0304308 -2.84843e-20)
(1.1123 -0.0718844 -8.82639e-21)
(0.982081 -0.0832394 4.36951e-21)
(1.08392 -0.069667 -2.06849e-20)
(0.965194 -0.185514 3.77207e-21)
(0.523176 0.301905 -8.88484e-21)
(1.05421 -0.023319 0)
(1.2032 -0.120636 0)
(1.09103 0.00898759 5.90326e-21)
(1.01331 -0.0110653 0)
(0.386442 0.114044 4.2825e-20)
(0.998118 5.91725e-05 -1.6726e-21)
(0.871714 -0.0160658 7.32543e-21)
(0.47617 0.0496703 0)
(0.00523611 -0.0815707 -2.24813e-20)
(0.964564 -0.14855 -3.52722e-21)
(-0.262793 0.00602681 0)
(1.02044 -0.0294497 0)
(1.08644 -0.0351662 -4.70761e-21)
(1.05128 -0.0344172 -2.2842e-24)
(1.05025 -0.0243742 -6.88574e-21)
(0.999998 -0.00155125 -9.33851e-22)
(1.01076 -0.0143896 -6.39959e-24)
(0.964379 -0.0918381 3.73979e-22)
(0.381958 0.00777078 0)
(0.682758 0.0533174 -6.05139e-21)
(1.00158 -0.0157633 1.63559e-21)
(0.930779 0.00169397 2.77498e-20)
(0.0473473 0.00330564 4.95768e-21)
(0.636699 -0.332929 -2.79349e-21)
(0.985711 -0.0164939 7.12657e-21)
(1.01675 -0.014533 4.85969e-22)
(1.016 -0.013013 4.5525e-22)
(1.07273 -0.0161301 1.3762e-21)
(1.03999 -0.0308963 0)
(1.01066 -0.0015639 0)
(1.13121 -0.00489469 0)
(1.10601 -0.0878866 -1.73252e-20)
(0.11358 0.0368327 -8.08144e-21)
(0.898676 -0.101081 0)
(-0.108188 0.00876527 -2.71947e-20)
(1.07355 -0.0882542 2.0959e-20)
(1.00114 -0.00561691 4.18282e-21)
(0.934684 -0.0592353 -2.16219e-20)
(0.921637 0.0526419 0)
(1.07011 -0.0911908 1.0661e-21)
(1.01639 -0.0694215 0)
(0.246357 -0.000522055 -5.45963e-21)
(1.10734 0.00599019 7.96215e-21)
(1.0046 -0.00801777 9.98689e-22)
(1.29936 -0.269897 0)
(0.930108 0.0436154 0)
(0.172031 0.015985 1.08292e-22)
(0.551969 0.0535276 0)
(1.12175 0.0300146 3.52717e-22)
(0.203763 0.00225343 0)
(1.00327 -0.00785298 2.72928e-23)
(1.11797 -0.627576 -3.20514e-20)
(0.217061 -0.00350258 3.11609e-20)
(0.965694 -0.0162861 -2.28271e-21)
(0.175853 0.0398945 2.48121e-20)
(-0.241373 0.0125144 0)
(1.00808 -0.00620134 2.84825e-22)
(1.14299 0.0279863 -2.5632e-20)
(0.962411 -0.0556056 1.00408e-20)
(1.00205 -0.0161928 8.78144e-22)
(0.694142 0.0552455 2.95405e-20)
(0.112639 0.0150303 -4.69309e-20)
(0.567067 -0.33028 4.39755e-20)
(0.461314 0.306984 -4.10937e-20)
(0.427938 0.0153083 7.11815e-21)
(1.00979 -0.0134073 7.16217e-24)
(1.08254 0.0238971 -1.14669e-20)
(1.00932 -0.0135285 1.74074e-22)
(1.00196 -0.238349 1.21659e-21)
(1.01757 -0.0707324 -6.99934e-23)
(1.00392 -0.017186 0)
(0.372602 0.00689169 8.55769e-21)
(0.284065 -0.0052449 0)
(1.05246 -0.0113824 0)
(0.892561 -0.0460276 -2.00969e-20)
(1.24106 -0.0491233 4.32564e-20)
(1.10747 0.00468021 1.1006e-20)
(0.998891 -0.00623246 0)
(0.708064 0.0565258 0)
(0.995819 -0.00222629 0)
(1.14532 0.0384722 -2.33058e-21)
(1.08177 0.0203826 4.87834e-21)
(0.14814 0.0399194 7.33847e-21)
(0.130904 -0.00453565 0)
(1.17876 0.0250503 0)
(1.00867 -0.0401832 0)
(1.00158 -0.0042831 -6.61867e-22)
(0.966855 -0.0543219 -1.12145e-20)
(1.01006 -0.0252869 0)
(0.464557 0.188543 0)
(1.09682 0.0324626 -1.93636e-20)
(1.10025 -0.297311 -1.0982e-20)
(1.12263 -0.00797036 3.04969e-21)
(0.758226 -0.249719 0)
(1.01027 -0.0138891 6.00386e-22)
(1.00183 -0.00619422 -1.63943e-21)
(0.47674 -0.0843359 0)
(-0.142742 0.00772206 2.69854e-20)
(1.17868 -0.0520441 -7.30022e-21)
(-0.242321 0.00390482 0)
(0.897181 0.00684871 1.25393e-20)
(1.0002 -0.00931225 3.42096e-21)
(1.07913 -0.0474544 0)
(1.00114 -0.0152977 4.45603e-21)
(1.00279 -0.0281376 0)
(-0.144258 -0.00751897 2.62523e-20)
(1.13102 0.0331191 0)
(-0.115866 0.00673184 6.47618e-20)
(0.929715 -0.00192342 -1.11439e-20)
(0.17862 0.0380191 0)
(1.03844 -0.0323527 -5.94227e-22)
(0.39018 0.026761 1.37867e-20)
(1.20119 -0.0700221 -5.69757e-20)
(0.729972 0.0582592 1.37474e-20)
(1.0984 -0.0860583 0)
(0.491243 0.207064 -7.36163e-20)
(0.0244055 0.00880818 0)
(-0.217657 0.015036 -9.29146e-20)
(1.03427 -0.00235696 -3.14672e-21)
(0.295242 -0.00564972 6.1503e-20)
(-0.124258 0.00693258 -6.66991e-20)
(1.00001 -0.000337234 0)
(0.910213 0.0155627 -1.09623e-20)
(-0.0859902 -0.0377689 1.9058e-19)
(1.03349 -0.0247954 -1.36596e-21)
(0.611772 0.0424525 -2.49221e-21)
(0.990464 -0.0108214 0)
(1.00274 -0.00309574 0)
(0.996649 -0.0284224 2.12149e-21)
(0.797018 0.052957 0)
(1.18662 -0.285846 0)
(1.06696 -0.0503308 -6.60879e-21)
(1.00001 -0.000180825 5.09701e-22)
(1.00953 -0.00776828 -2.06918e-22)
(-0.0377495 -0.0422806 1.03532e-20)
(-0.0251548 0.00088968 -1.80237e-20)
(0.959747 -0.00177013 5.76296e-21)
(1.11432 0.0126833 1.91389e-20)
(0.517124 0.026489 5.39938e-21)