/*--------------------------------*- C++ -*----------------------------------*\
| =========                 |                                                 |
| \\      /  F ield         | OpenFOAM: The Open Source CFD Toolbox           |
|  \\    /   O peration     | Version:  v2012                                 |
|   \\  /    A nd           | Website:  www.openfoam.com                      |
|    \\/     M anipulation  |                                                 |
\*---------------------------------------------------------------------------*/
FoamFile
{
    version     2.0;
    format      ascii;
    class       volScalarField;
    location    "150";
    object      k;
}
// * * * * * * * * * * * * * * * * * * * * * * * * * * * * * * * * * * * * * //

dimensions      [0 2 -2 0 0 0 0];


internalField   nonuniform List<scalar> 
33474
(
8.96003e-05
0.00285007
0.000115053
7.94033e-05
9.03865e-05
7.95804e-05
6.33164e-05
8.69087e-05
6.96781e-05
0.0129635
7.40343e-05
8.1303e-05
6.31888e-05
8.99015e-05
9.08716e-05
6.1097e-05
5.33243e-05
0.000160499
8.67175e-05
7.49726e-05
0.000111884
0.00594738
7.91879e-05
8.9667e-05
7.88864e-05
8.13198e-05
6.39034e-05
9.80402e-05
0.00360953
5.53681e-05
4.45131e-05
7.9151e-05
0.000130285
0.000156797
5.85906e-05
7.34801e-05
0.025957
1.38532e-05
8.09903e-05
8.99536e-05
7.62528e-05
5.52875e-05
7.95208e-05
7.85087e-05
0.0259498
0.000590116
0.00741454
9.35394e-05
0.000450437
5.84093e-05
8.58188e-05
6.76597e-05
9.25019e-05
6.31143e-05
7.99944e-05
9.77537e-05
8.01167e-05
0.000108009
8.98074e-05
8.67827e-05
8.07996e-05
0.00631505
0.0252871
0.000332127
5.3334e-05
8.50835e-05
5.0582e-05
0.0291582
6.75785e-05
8.79065e-05
0.00629918
0.00649016
0.000728427
5.2967e-05
0.000874178
0.000757144
0.00951103
8.59068e-05
9.00195e-05
9.18263e-05
0.023417
8.15681e-05
0.0138389
5.8533e-05
9.36864e-05
5.89906e-05
0.000112753
0.0402545
0.00440698
4.83444e-05
7.91929e-05
5.83779e-05
9.20919e-05
7.58941e-05
6.32938e-05
9.353e-05
9.36501e-05
8.79808e-05
6.73809e-05
0.00123531
0.000113922
0.0122217
8.7951e-05
0.00319207
4.38511e-05
5.00055e-05
8.58188e-05
8.8311e-05
6.73227e-05
5.48582e-05
8.94226e-05
5.05065e-05
0.000136598
7.71601e-05
0.000109021
0.000100029
8.06874e-05
0.000123018
8.25225e-05
6.32206e-05
8.67853e-05
0.000142196
7.97881e-05
5.8948e-05
9.37141e-05
7.51451e-05
7.09001e-05
0.000107542
0.0001206
9.15215e-05
6.27129e-05
8.78721e-05
0.000146461
0.023108
9.07584e-05
0.00117749
0.00117445
0.0179684
0.000219515
0.000117206
8.56506e-05
0.000927173
4.41522e-05
7.70183e-05
8.47176e-05
8.92959e-05
0.00367358
0.00521575
0.0027128
0.00301443
0.00218413
7.41817e-05
8.23518e-05
7.65138e-05
9.99014e-05
7.90037e-05
9.21039e-05
7.96628e-05
8.94748e-05
0.00252211
0.000129764
0.00099718
0.000117522
0.000140808
9.31107e-05
0.00206579
6.34217e-05
0.000863287
8.58047e-05
9.36252e-05
0.000174674
6.07168e-05
0.00295417
5.4755e-05
8.59919e-05
0.0171567
8.83716e-05
0.00311804
0.0159984
6.28861e-05
6.30249e-05
8.95689e-05
5.83568e-05
7.19567e-05
8.44369e-05
0.0396658
0.0240388
8.03138e-05
8.8087e-05
7.64351e-05
8.66015e-05
8.94226e-05
0.00317324
0.00359484
0.0188474
7.74318e-05
0.000127628
0.000107521
0.00347112
6.62719e-05
7.42563e-05
7.15883e-05
0.00432763
9.6961e-05
0.000114076
6.38313e-05
6.33102e-05
0.000113178
7.73015e-05
0.0394066
0.00434147
4.63235e-05
8.72116e-05
9.96304e-05
4.62441e-05
0.00017175
7.55676e-05
0.0175346
0.0157422
7.61245e-05
7.71871e-05
7.41271e-05
7.53591e-05
0.000112514
4.41949e-05
9.17988e-05
0.00514222
9.19605e-05
6.67831e-05
9.17379e-05
0.0154356
6.54308e-05
6.30634e-05
6.01929e-05
6.06495e-05
0.000869092
9.32288e-05
8.02328e-05
6.9754e-05
8.92013e-05
7.92826e-05
0.000115643
0.00137083
8.70715e-05
0.000110821
6.10244e-05
7.33261e-05
7.7519e-05
8.67188e-05
8.70554e-05
9.35672e-05
8.5929e-05
0.000107389
6.37219e-05
8.92307e-05
6.67648e-05
0.0180622
6.70847e-05
0.000114592
0.015801
0.0064506
0.00132431
8.70993e-05
0.00517654
7.14372e-05
6.07979e-05
0.0175024
0.00611982
0.00620467
7.52734e-05
9.01129e-05
8.2335e-05
9.16226e-05
7.96511e-05
6.08253e-05
7.75426e-05
8.26592e-05
6.79296e-05
8.9697e-05
8.44685e-05
8.92806e-05
6.26715e-05
8.91226e-05
7.94653e-05
5.83305e-05
7.3085e-05
6.70534e-05
5.32253e-05
0.000108218
0.00662464
0.00087271
6.52686e-05
0.000580672
8.97065e-05
8.86439e-05
0.0045257
0.0173849
0.000100013
7.81073e-05
8.9187e-05
8.25987e-05
0.000118307
0.000547881
6.78607e-05
4.67078e-05
6.61327e-05
4.67318e-05
0.000100419
0.00010736
0.0352357
8.2221e-05
7.79484e-05
4.82734e-05
0.000828587
0.000135789
0.024071
0.0339903
0.000107635
8.67514e-05
0.00336748
0.000128745
6.51024e-05
0.0373048
6.28468e-05
8.60011e-05
8.95648e-05
0.0159715
7.19162e-05
8.71275e-05
9.14738e-05
8.44379e-05
8.7885e-05
9.37494e-05
0.00398147
8.47254e-05
7.69507e-05
0.0100673
4.693e-05
4.69232e-05
6.1121e-05
7.98381e-05
0.000107941
0.00466958
0.00741357
0.000197093
5.7939e-05
6.89822e-05
8.59511e-05
9.37564e-05
9.37004e-05
7.40747e-05
5.79462e-05
9.99039e-05
0.000100653
7.96996e-05
4.44591e-05
7.55761e-05
6.35572e-05
5.00286e-05
0.00989419
8.07075e-05
0.00956382
8.88169e-05
8.47947e-05
7.62762e-05
8.74233e-05
6.00337e-05
8.18955e-05
7.03763e-05
0.00432
4.71533e-05
4.71564e-05
6.95764e-05
0.000123315
8.65774e-05
0.000100302
7.61489e-05
8.2354e-05
7.75473e-05
0.0248796
5.11413e-05
0.00381692
6.94225e-05
7.98945e-05
9.82304e-05
5.41336e-05
8.66381e-05
7.68406e-05
8.49483e-05
8.69419e-05
7.10369e-05
0.00158524
4.77069e-05
5.25589e-05
8.46688e-05
9.68694e-05
8.78924e-05
6.529e-05
6.05998e-05
8.059e-05
8.21609e-05
8.72567e-05
6.59819e-05
7.94307e-05
0.000164277
4.42277e-05
0.000109498
0.0160837
0.0198793
9.30173e-05
8.14588e-05
7.61518e-05
8.47396e-05
7.0686e-05
8.66667e-05
6.12237e-05
0.0284106
2.4653e-05
4.95201e-05
9.36811e-05
6.12649e-05
8.24489e-05
7.13142e-05
1.95084e-05
8.44853e-05
8.59877e-05
0.00412388
8.75047e-05
7.9096e-05
7.04966e-05
6.41785e-05
0.0190507
7.13101e-05
0.00404874
8.69486e-05
8.03816e-05
8.81484e-05
9.33092e-05
0.000113887
5.06639e-05
6.24331e-05
0.00275161
6.4183e-05
7.04338e-05
5.07171e-05
8.69301e-05
5.03415e-05
8.10835e-05
7.54074e-05
0.0042445
0.0208025
8.0604e-05
5.36862e-05
7.89304e-05
0.000162686
0.0041728
0.00587653
0.00568304
8.16725e-05
4.73666e-05
8.57126e-05
8.65679e-05
8.18036e-05
7.22794e-05
0.00648863
7.46313e-05
4.73804e-05
8.30766e-05
8.09519e-05
7.6037e-05
0.0377916
5.60319e-05
8.66028e-05
8.02557e-05
5.45023e-05
8.62654e-05
6.25436e-05
5.8416e-05
0.00693033
8.07888e-05
0.000112585
0.00661428
0.00652779
7.5011e-05
8.00491e-05
7.0992e-05
0.0432591
8.68937e-05
6.80775e-05
4.41724e-05
0.00663662
0.00665476
8.98541e-05
0.0351536
6.45612e-05
8.03287e-05
1.22583e-05
5.69901e-05
7.37421e-05
5.68982e-05
8.56333e-05
0.000104099
8.88595e-05
0.000305214
7.08079e-05
7.56665e-05
8.13383e-05
0.0435609
0.00587348
9.79483e-05
8.94106e-05
7.23671e-05
9.03137e-05
0.000129923
1.98572e-05
7.98376e-05
7.9668e-05
8.67785e-05
8.21005e-05
0.0367703
0.00010351
7.82942e-05
6.11417e-05
7.79333e-05
8.06933e-05
7.49577e-05
6.03972e-05
0.0013946
0.0431457
8.81348e-05
8.816e-05
0.00502043
8.9289e-05
8.48007e-05
0.0027582
3.71361e-06
9.38694e-05
5.71581e-05
8.06867e-05
7.09981e-05
4.9923e-05
0.00687569
7.35564e-05
7.90921e-05
5.02108e-05
7.10085e-05
7.92483e-05
0.0357385
8.29977e-05
4.44659e-05
0.0063381
7.2147e-05
4.4204e-05
5.28001e-05
0.0284918
0.00544437
5.27095e-05
8.28763e-05
8.80693e-05
8.46249e-05
0.00247072
8.92671e-05
7.35847e-05
0.00524147
8.93723e-05
8.54642e-05
8.69333e-05
0.000239377
5.43374e-05
7.05948e-05
8.8823e-05
0.000945369
7.44553e-05
0.000166937
9.02772e-05
8.72863e-05
7.91543e-05
7.7424e-05
9.07569e-05
0.00355091
0.000440012
6.44109e-05
7.80005e-05
8.16216e-05
0.00262676
0.0169372
8.49264e-05
6.28938e-05
7.50821e-05
8.18268e-05
0.000171101
0.00526044
0.000142471
6.12114e-05
7.3462e-05
8.55839e-05
0.0053293
0.000107771
6.4974e-05
8.48017e-05
6.99833e-05
7.5583e-05
7.91952e-05
6.84938e-05
0.00882437
0.0171402
7.73752e-05
6.72332e-05
7.94691e-05
0.00294544
8.69686e-05
5.732e-05
0.00152432
0.00216237
0.0237122
0.00235354
8.42862e-05
7.84549e-05
6.07193e-05
5.81908e-05
4.99741e-05
7.77714e-05
6.05763e-05
0.00297083
8.2086e-05
6.65216e-05
8.54981e-05
0.00120481
0.0219081
7.81506e-05
6.98716e-05
8.71199e-05
8.88129e-05
0.0418842
0.0143061
0.000108889
0.00577543
7.09906e-05
6.8838e-05
0.0201842
5.43195e-05
9.8038e-05
5.43978e-05
5.48992e-05
7.76476e-05
5.92186e-05
0.000419541
7.09284e-05
0.00339578
8.86988e-05
0.0432167
0.00194044
0.0239333
0.000530681
7.71278e-05
5.94245e-05
6.0282e-05
6.64906e-05
0.0018429
8.82908e-05
0.0247766
0.00340414
7.70808e-05
6.89952e-05
5.8422e-05
0.00164853
0.00183704
8.95224e-05
6.86414e-05
0.0229163
0.000662215
4.41761e-05
9.05885e-05
8.08841e-05
5.234e-05
5.22495e-05
0.00576883
3.43386e-05
8.50506e-05
8.46137e-05
0.0407803
0.027032
0.00151963
0.00784083
6.69817e-05
0.000109933
5.93331e-05
6.13588e-05
0.00122789
8.97506e-05
0.00732833
6.14189e-05
8.58183e-05
8.84855e-05
7.82483e-05
0.0364675
8.49576e-05
0.0004289
0.000190337
7.83629e-05
7.36988e-05
0.00212999
8.25799e-05
4.47917e-05
6.52706e-05
6.26523e-05
0.000102161
9.51988e-05
0.0018769
7.29634e-05
0.00712672
0.000209648
0.0266182
8.43075e-05
7.02183e-05
6.81975e-05
0.0022511
5.1858e-05
7.87937e-05
6.26694e-05
0.0296255
0.00784888
6.20337e-05
7.50141e-05
0.000143372
6.16839e-05
6.90576e-05
6.92164e-05
7.95225e-05
0.000161138
6.60695e-05
6.3447e-05
7.08707e-05
6.622e-05
8.05881e-05
6.77411e-05
0.00162758
6.1591e-05
6.16867e-05
0.0440008
6.88753e-05
0.00351838
7.88179e-05
0.00379658
0.00658505
7.55117e-05
6.1169e-05
8.14404e-05
5.29612e-05
0.0398279
0.00202433
0.00199809
0.00113778
5.65835e-05
6.24819e-05
0.000287755
6.66572e-05
9.20573e-05
8.71443e-05
6.76795e-05
0.0107952
8.67381e-05
9.30468e-05
6.5642e-05
6.64874e-05
7.97144e-05
0.0370488
7.66089e-05
0.0297103
6.00598e-05
7.81168e-05
8.74508e-05
0.0302332
7.22098e-05
6.62029e-05
9.48626e-05
6.06135e-05
9.37298e-05
0.0014484
8.82704e-05
4.41352e-05
6.21806e-05
8.73539e-05
0.000232604
7.35706e-05
0.0216732
6.08623e-05
8.2137e-05
6.04082e-05
4.44279e-05
8.30083e-05
0.000112171
0.00929856
8.16403e-05
7.31048e-05
0.00415927
6.48694e-05
5.27789e-05
8.5037e-05
0.00125437
7.34152e-05
0.000127702
0.0113719
6.09688e-05
8.10386e-05
5.91091e-05
6.25855e-05
6.08714e-05
7.87533e-05
0.000108734
0.000205426
7.96538e-05
5.02736e-05
0.00252214
0.0292979
8.57626e-05
0.000223266
6.22833e-05
5.89596e-05
4.83074e-05
5.65873e-05
5.89072e-05
0.000122601
9.32433e-05
0.000585394
8.46241e-05
0.000252596
7.06797e-05
6.64123e-05
5.11647e-05
0.00126865
5.61091e-05
0.000148172
8.92793e-05
0.00469426
8.82349e-05
5.09257e-05
0.0106448
9.04522e-05
0.0409659
9.04066e-05
6.20115e-05
7.23063e-05
7.83887e-05
8.76478e-05
0.00016652
0.00861941
8.55821e-05
0.00943279
8.72488e-05
6.07925e-05
5.42857e-05
0.000131271
6.58488e-05
8.12205e-05
6.65123e-05
0.031422
8.10381e-05
0.000109652
0.000413145
0.00175663
8.47371e-05
8.55046e-05
7.57111e-05
8.61926e-05
8.38287e-05
6.92329e-05
5.44436e-05
7.30071e-05
0.00856979
8.58334e-05
0.000164485
7.86539e-05
6.99033e-05
0.029212
5.01883e-05
8.38248e-05
7.90261e-05
7.77575e-05
8.93926e-05
5.89669e-05
8.53763e-05
7.36715e-05
0.000139952
0.000361693
8.39826e-05
7.11471e-05
7.06711e-05
6.06071e-05
5.01534e-05
9.39896e-05
0.000116127
0.00564197
9.6774e-05
8.75748e-05
0.0188802
0.0109921
0.00395122
7.43587e-05
7.54113e-05
0.000106834
7.65125e-05
8.49339e-05
4.47318e-05
0.00026588
8.74441e-05
0.00998779
7.47904e-05
8.29091e-05
7.08937e-05
8.85323e-05
4.88635e-05
5.19317e-05
5.00788e-05
5.36805e-05
6.70607e-05
0.00253411
7.52388e-05
0.000198356
5.00621e-05
0.00550253
5.32062e-05
0.0408559
5.82191e-05
5.81814e-05
0.000108292
0.0092202
8.59146e-05
8.29303e-05
6.93639e-05
5.94684e-05
8.36563e-05
5.1623e-05
8.39396e-05
7.52755e-05
5.15419e-05
8.84384e-05
5.65528e-05
0.0387439
6.30078e-05
7.83925e-05
8.10897e-05
7.01929e-05
0.0160289
0.00012917
0.0270267
0.000900492
9.70214e-05
0.000130019
9.12675e-05
6.29535e-05
0.0118956
9.11179e-05
6.70201e-05
8.89731e-05
8.07059e-05
6.86312e-05
8.38629e-05
7.5966e-05
7.005e-05
8.90887e-05
9.38378e-05
0.000132726
6.9639e-05
7.75917e-05
7.91236e-05
6.84226e-05
0.00421546
8.04632e-05
5.7036e-05
0.000364731
6.29322e-05
8.24762e-05
0.00857965
0.00240626
5.66422e-05
8.85161e-05
6.13834e-05
7.54731e-05
8.99923e-05
8.74033e-05
0.000134137
0.000137995
8.28786e-05
7.79226e-05
6.75027e-05
8.28903e-05
7.40619e-05
5.81814e-05
8.10701e-05
7.58766e-05
5.13056e-05
7.55908e-05
7.97786e-05
8.73115e-05
4.85573e-05
7.73529e-05
8.0311e-05
8.60956e-05
8.92033e-05
5.90272e-05
0.000840799
0.000134707
8.37685e-05
5.4598e-05
6.59684e-05
0.0399077
6.19187e-05
6.18278e-05
9.11304e-05
0.0100588
6.76219e-05
9.24038e-05
6.66261e-05
0.00304553
6.75521e-05
9.04936e-05
7.86423e-05
0.00838697
5.69147e-05
7.79066e-05
8.52028e-05
7.38168e-05
4.60902e-05
0.000361464
5.7817e-05
8.28372e-05
4.65278e-05
5.4658e-05
5.76954e-05
7.4306e-05
4.77018e-05
0.00018399
8.23153e-05
6.52521e-05
5.41887e-05
7.53862e-05
0.0109636
6.35191e-05
6.27956e-05
6.18573e-05
7.96868e-05
7.89709e-05
7.03647e-05
0.000536014
7.77824e-05
7.81912e-05
7.57005e-05
4.74914e-05
8.2042e-05
4.74847e-05
8.40109e-05
6.66012e-05
8.94589e-05
7.47525e-05
0.00469189
9.84798e-05
6.30519e-05
8.9488e-05
7.48008e-05
0.000188087
5.00966e-05
6.59336e-05
0.000116707
6.02899e-05
4.77091e-05
9.06225e-05
7.8949e-05
8.10962e-05
8.01774e-05
8.16734e-05
6.1373e-05
0.000134111
7.36114e-05
9.0068e-05
9.44218e-05
6.48945e-05
0.0394372
4.83951e-05
8.00521e-05
0.0337619
4.61118e-05
4.8416e-05
8.90958e-05
7.57499e-05
7.46941e-05
8.75481e-05
0.000225419
0.000122326
7.93264e-05
9.2104e-05
7.12298e-05
7.58492e-05
7.96879e-05
0.0051769
0.000269009
7.03056e-05
0.000115624
7.03292e-05
6.07134e-05
6.12806e-05
7.09009e-05
9.399e-05
8.03789e-05
0.00535218
7.16996e-05
0.00433728
5.59605e-05
5.55426e-05
0.0429576
0.0115902
0.00772316
9.54997e-05
7.49954e-05
7.9524e-05
8.98131e-05
6.49571e-05
7.74167e-05
5.7192e-05
0.0079384
8.91942e-05
7.92339e-05
0.0048257
0.000100565
9.23916e-05
7.49941e-05
8.92805e-05
0.0228304
0.000550201
0.000195621
5.33211e-05
4.9562e-05
0.000821235
5.93142e-05
0.000173951
7.28943e-05
8.19651e-05
8.80002e-05
0.000678041
0.000615039
8.72828e-05
0.000112649
7.00396e-05
9.81867e-05
0.00128966
0.00784618
8.16334e-05
0.00013588
8.74284e-05
7.59778e-05
0.00338765
5.20152e-05
7.04302e-05
0.000226296
7.16976e-05
0.0350451
9.09317e-05
8.4914e-05
6.74006e-05
9.47309e-05
0.000124382
6.95746e-05
5.74494e-05
7.73525e-05
0.000133242
8.24329e-05
0.0379771
7.76636e-05
8.08345e-05
0.00554399
7.84434e-05
7.00011e-05
8.06204e-05
6.65609e-05
6.14161e-05
8.4804e-05
0.00680207
7.8857e-05
0.00667568
4.44206e-05
8.14935e-05
0.00182254
5.09433e-05
4.58826e-05
8.60371e-05
0.0436897
8.91524e-05
7.36164e-05
8.08462e-05
8.90502e-05
0.000243546
8.96051e-05
6.98023e-05
6.09186e-05
9.64945e-05
0.0316611
5.01315e-05
8.04789e-05
6.67556e-05
9.40525e-05
4.43724e-05
6.18122e-05
9.37063e-05
0.000140217
8.42312e-05
8.14663e-05
8.71174e-05
5.0915e-05
0.00149561
6.82155e-05
0.000148839
0.00699292
0.000158358
7.485e-05
6.9479e-05
0.000275017
6.48423e-05
0.0358917
6.06798e-05
7.54121e-05
9.35367e-05
0.00680673
0.00294968
0.0249989
0.000109149
4.93e-05
0.000213624
8.67567e-05
8.35338e-05
5.64788e-05
5.95484e-05
9.29933e-05
8.02207e-05
6.95725e-05
0.0350046
7.60646e-05
0.000230157
7.3903e-05
5.87045e-05
0.00970528
6.25489e-05
6.98844e-05
8.72825e-05
5.95622e-05
7.86482e-05
8.74576e-05
0.000109232
0.00902235
6.92462e-05
5.94653e-05
0.00977
8.77805e-05
4.61018e-05
0.041828
8.03455e-05
8.89741e-05
8.54798e-05
5.5461e-05
0.000155934
0.0014206
8.96297e-05
8.20574e-05
6.64905e-05
8.00999e-05
0.0042537
0.000153917
5.39717e-05
9.20717e-05
7.14525e-05
0.000140571
0.00340585
0.000110681
6.93356e-05
0.0246319
5.09899e-05
4.92787e-05
8.18998e-05
8.71086e-05
8.99674e-05
4.66053e-05
7.94072e-05
4.43087e-05
7.91561e-05
5.91635e-05
4.98529e-05
8.93215e-05
7.62935e-05
6.6456e-05
0.00649737
0.000739121
0.00399099
0.00383737
5.66559e-05
8.90732e-05
5.58665e-05
0.00325781
9.41333e-05
8.208e-05
6.14608e-05
4.9952e-05
0.00126545
0.000109979
5.57583e-05
7.33112e-05
6.30402e-05
8.66386e-05
6.15102e-05
5.91132e-05
4.6583e-05
0.000773865
0.0108889
6.00476e-05
0.0323728
4.47679e-05
6.41482e-05
0.0388624
0.0052643
8.49309e-05
0.000150098
5.89932e-05
8.93667e-05
0.00414393
0.000109052
9.00774e-05
0.000117143
9.49042e-05
6.81363e-05
0.00016524
0.00304705
6.32438e-05
7.52207e-05
5.33372e-05
8.68181e-05
8.82683e-05
9.1514e-05
0.00128876
5.03821e-05
7.71265e-05
7.80228e-05
0.00632767
0.00101078
0.0014235
5.39259e-05
6.41023e-05
7.52385e-05
5.4215e-05
0.0147045
7.44931e-05
7.61197e-05
0.000129109
5.97873e-05
5.02443e-05
0.0275058
5.41557e-05
6.316e-05
0.000108989
5.41053e-05
7.5442e-05
7.95739e-05
8.7228e-05
5.09822e-05
7.80773e-05
7.32564e-05
0.0244128
8.84643e-05
7.63855e-05
4.68304e-05
0.000491586
0.028084
5.96856e-05
8.21002e-05
0.00672589
0.0365806
6.59162e-05
8.48895e-05
9.55169e-05
9.86152e-05
8.4298e-05
4.68364e-05
7.67299e-05
0.0364588
0.000216069
8.27443e-05
6.76545e-05
5.64157e-05
8.63953e-05
8.71794e-05
4.43393e-05
7.77139e-05
9.59248e-05
0.0152184
8.64827e-05
6.03949e-05
0.000439158
0.000270456
8.87963e-05
5.81195e-05
5.66119e-05
0.000124719
6.27017e-05
8.71303e-05
0.00937624
6.03656e-05
8.19898e-05
0.000110376
5.07237e-05
6.62376e-05
7.64852e-05
0.0388062
0.0422974
8.10442e-05
6.03617e-05
0.0089915
7.61494e-05
8.91361e-05
8.43864e-05
0.0381929
5.97066e-05
8.93672e-05
7.4052e-05
7.83285e-05
8.88579e-05
7.03823e-05
0.000102229
8.16513e-05
9.2948e-05
0.000254292
7.0593e-05
8.8815e-05
7.48045e-05
6.57964e-05
7.3463e-05
5.93394e-05
0.00854282
8.45383e-05
5.06619e-05
8.85282e-05
7.89655e-05
6.75807e-05
8.93655e-05
8.6927e-05
7.41928e-05
8.38786e-05
0.000142638
0.0429063
6.27465e-05
5.70602e-05
0.00601148
8.65946e-05
8.61138e-05
9.13948e-05
0.000127199
5.91496e-05
0.00725183
5.45845e-05
4.89806e-05
8.05487e-05
7.01213e-05
0.0139856
5.6485e-05
7.77654e-05
7.11226e-05
8.58115e-05
5.98265e-05
8.71551e-05
4.70439e-05
0.00012763
9.62556e-05
5.67948e-05
0.0376157
0.000163816
7.02474e-05
0.0353005
7.86319e-05
7.05208e-05
0.00913145
0.0364344
7.95863e-05
4.70221e-05
8.97199e-05
0.00965656
5.91406e-05
0.00139102
9.63174e-05
6.00158e-05
8.17375e-05
5.7034e-05
6.51412e-05
7.86384e-05
5.63807e-05
5.49841e-05
6.2701e-05
4.41705e-05
0.000100919
0.000100858
6.04862e-05
0.000130564
7.60015e-05
4.92663e-05
0.00966535
8.17832e-05
8.64117e-05
5.88229e-05
4.75964e-05
5.99762e-05
6.59314e-05
6.50878e-05
8.56849e-05
7.97827e-05
5.9231e-05
7.88624e-05
0.000259225
8.86285e-05
5.49312e-05
5.7268e-05
8.38866e-05
0.000160535
8.94723e-05
0.0319637
8.84016e-05
7.51914e-05
5.77823e-05
8.62806e-05
0.00476809
8.21223e-05
7.63185e-05
4.65067e-05
6.59008e-05
9.39e-05
7.51032e-05
8.18569e-05
9.04254e-05
7.83809e-05
8.74666e-05
5.96899e-05
8.31772e-05
0.000127161
5.98997e-05
9.33685e-05
0.000116685
7.98096e-05
3.05366e-05
4.98977e-05
0.000138676
6.12729e-05
9.34629e-05
6.24692e-05
9.37473e-05
0.00133247
6.4991e-05
8.99858e-05
8.56619e-05
0.0410863
7.28157e-05
0.00011678
7.5227e-05
0.00399628
7.89236e-05
8.85401e-05
7.52994e-05
5.53448e-05
7.85561e-05
7.29655e-05
7.82713e-05
0.000212202
6.69179e-05
7.86439e-05
5.71591e-05
8.87608e-05
5.41904e-05
8.70152e-05
0.0354242
7.83527e-05
0.0378327
7.92806e-05
8.16568e-05
4.72511e-05
8.88089e-05
9.03188e-05
0.000129368
0.0087124
8.9355e-05
8.88219e-05
8.73201e-05
0.00673541
9.23802e-05
6.11691e-05
6.2904e-05
7.42196e-05
4.66202e-05
7.68879e-05
4.983e-05
4.72508e-05
8.19387e-05
0.0309343
0.01182
0.00306109
6.13233e-05
0.00876604
0.000140459
8.58711e-05
7.4363e-05
7.79124e-05
0.00637133
3.44891e-05
0.000818551
5.62741e-05
5.59004e-05
9.02655e-05
3.88232e-05
8.62634e-05
6.58043e-05
0.000696419
7.35516e-05
7.49417e-05
8.94206e-05
7.01791e-05
9.05709e-05
0.000419348
5.89573e-05
5.6805e-05
0.0332241
7.41678e-05
5.68908e-05
6.31868e-05
9.02459e-05
8.82048e-05
5.33813e-05
7.31136e-05
6.59564e-05
8.77785e-05
7.89667e-05
7.53781e-05
6.28484e-05
0.0114926
7.55726e-05
6.82988e-05
7.54988e-05
0.0039307
5.67496e-05
0.000108488
0.000133536
0.0126507
0.000101153
7.10634e-05
8.52507e-05
6.23944e-05
0.0397985
9.84389e-05
5.57703e-05
0.00872981
9.0525e-05
5.657e-05
6.8565e-05
7.87133e-05
5.90422e-05
8.95147e-05
6.56712e-05
0.00598806
0.000105028
9.25354e-05
0.000618418
8.71247e-05
5.463e-05
7.80102e-05
5.72255e-05
0.000108617
8.39832e-05
6.83994e-05
0.00014216
6.55684e-05
8.70093e-05
5.89285e-05
8.37536e-05
6.34117e-05
8.79759e-05
0.0244695
6.12504e-05
5.08296e-05
7.34033e-05
0.000236012
0.0317602
0.000569296
8.33304e-05
8.40471e-05
8.93078e-05
9.02035e-05
5.63901e-05
7.03268e-05
7.53716e-05
0.00370899
5.68482e-05
0.0175863
8.68032e-05
8.14377e-05
0.000159664
9.03128e-05
0.00380681
8.79693e-05
7.85755e-05
8.89007e-05
6.78905e-05
0.000462832
9.32992e-05
0.00305184
0.0349869
0.000304793
8.67185e-05
7.55873e-05
6.07899e-05
5.84556e-05
8.37803e-05
9.25761e-05
0.00359803
5.31755e-05
8.72305e-05
7.79687e-05
7.26538e-05
0.00591835
6.98816e-05
8.13249e-05
0.000242074
8.90628e-05
5.65593e-05
6.28437e-05
9.45578e-05
6.48908e-05
0.0323902
4.81107e-05
8.44212e-05
8.81022e-05
0.0193607
4.81094e-05
6.44489e-05
8.41742e-05
0.00105553
8.40206e-05
8.92757e-05
8.87252e-05
3.90727e-05
9.33392e-05
0.00495767
4.36379e-05
8.41655e-05
7.52938e-05
9.21899e-05
0.000182993
0.000136213
9.03251e-05
8.82575e-05
0.0426215
5.67891e-05
9.04976e-05
6.17807e-05
7.70543e-05
4.79877e-05
9.78118e-05
8.8172e-05
8.28576e-05
7.74579e-05
7.10949e-05
8.44148e-05
5.08776e-05
5.61351e-05
0.00385437
0.000282854
5.24773e-05
7.31937e-05
7.12821e-05
5.30505e-05
9.01568e-05
7.99084e-05
4.75897e-05
0.00143808
9.11178e-05
0.0386372
5.33054e-05
5.25658e-05
8.76392e-05
7.81947e-05
0.0380525
8.26636e-05
0.000100453
9.18218e-05
0.00110087
6.12679e-05
8.38258e-05
0.0409651
6.441e-05
6.11233e-05
4.43327e-05
5.71755e-05
5.83213e-05
7.17875e-05
0.0373214
5.50617e-05
8.86757e-05
7.44483e-05
8.58669e-05
0.0333708
5.29668e-05
8.35386e-05
0.00797844
9.92846e-05
9.0834e-05
9.59147e-05
6.15329e-05
0.00730125
8.76875e-05
9.33298e-05
0.00116526
5.52779e-05
8.16402e-05
0.00755554
0.0027363
8.89411e-05
8.30754e-05
8.19277e-05
5.85423e-05
5.23476e-05
5.25462e-05
5.14297e-05
6.82718e-05
8.72432e-05
5.13406e-05
7.81738e-05
4.43676e-05
7.29892e-05
5.73639e-05
7.66965e-05
7.31291e-05
9.15712e-05
9.04408e-05
0.0191157
2.55252e-05
8.45858e-05
5.68228e-05
7.19094e-05
4.83338e-05
8.33063e-05
0.0407594
8.13196e-05
8.45569e-05
7.43999e-05
7.45141e-05
7.56128e-05
7.32462e-05
6.69163e-05
0.00877309
6.63741e-05
5.8469e-05
0.000119099
6.47441e-05
4.54921e-05
9.04844e-05
0.000293561
8.87159e-05
0.000672153
8.73069e-05
0.0367355
0.0353331
5.95705e-05
9.39316e-05
6.50728e-05
8.84183e-05
0.00135605
6.05241e-05
0.0367414
5.55261e-05
8.51195e-05
7.34101e-05
0.0167596
7.74749e-05
0.000616142
9.41275e-05
8.08861e-05
0.00208371
7.80672e-05
0.000163278
7.8616e-05
0.0337548
0.000226559
0.0392815
0.000225648
7.1217e-05
0.000112111
0.00012556
0.00996886
8.3451e-05
8.67763e-05
8.70341e-05
7.87012e-05
6.96241e-05
0.00942423
8.82811e-05
0.000103479
9.08207e-05
9.16369e-05
7.81508e-05
9.15397e-05
5.98828e-05
8.19165e-05
0.000188821
5.3467e-05
0.0222476
7.79005e-05
0.00115183
7.94003e-05
8.57056e-05
7.89809e-05
7.91758e-05
5.12403e-05
0.000105559
7.282e-05
0.00114553
5.20121e-05
0.000598832
0.00979371
0.0018448
0.0306553
6.82356e-05
9.30661e-05
5.12599e-05
7.08547e-05
7.79431e-05
5.34811e-05
0.000468468
0.000995096
6.79817e-05
7.98503e-05
6.09061e-05
6.02692e-05
8.19721e-05
0.0380861
0.0103506
8.89025e-05
8.16746e-05
7.806e-05
7.61734e-05
6.34687e-05
0.0260842
0.000607961
7.51486e-05
8.8686e-05
6.00101e-05
6.39699e-05
8.66205e-05
4.97346e-05
0.0362473
0.0363751
0.00066862
6.95681e-05
5.07548e-05
5.73753e-05
5.937e-05
0.000216017
9.33122e-05
8.88002e-05
9.11408e-05
0.000332425
0.0284134
7.00744e-05
6.47363e-05
8.11952e-05
8.76291e-05
0.0141413
0.000117783
8.95811e-05
5.42302e-05
0.0195096
9.65846e-05
0.0114703
0.000420535
7.35532e-05
7.83435e-05
5.39022e-05
9.03604e-05
6.92338e-05
4.42939e-05
8.86538e-05
5.66893e-05
0.000904851
5.35825e-05
7.20995e-05
0.000251189
8.11581e-05
0.00012365
8.54419e-05
6.46553e-05
7.29758e-05
6.06225e-05
0.0354052
8.82238e-05
6.74411e-05
8.26381e-05
6.07957e-05
5.14161e-05
5.62114e-05
8.77496e-05
7.50053e-05
8.11784e-05
0.000118699
0.02461
6.43094e-05
7.56214e-05
7.87368e-05
7.0368e-05
6.10953e-05
6.24067e-05
7.86861e-05
6.99521e-05
8.73284e-05
9.03043e-05
6.25987e-05
5.8965e-05
8.61815e-05
0.000258374
0.0111905
0.00681908
5.90444e-05
8.63695e-05
6.7943e-05
9.38632e-05
7.37877e-05
7.55128e-05
6.33321e-05
9.13195e-05
5.35863e-05
8.87063e-05
7.99622e-05
5.53414e-05
9.07269e-05
8.16179e-05
0.00751702
7.77783e-05
8.16144e-05
5.92023e-05
0.00295496
7.67432e-05
6.67915e-05
5.91449e-05
6.46231e-05
0.000168306
6.32544e-05
6.38902e-05
5.30764e-05
0.000972276
6.30435e-05
8.65771e-05
7.03086e-05
9.38334e-05
5.52967e-05
0.000887359
8.13465e-05
8.13096e-05
0.00013384
9.19661e-05
8.63858e-05
6.25114e-05
8.17852e-05
0.0113653
0.0026827
7.10942e-05
0.000105033
9.99055e-05
9.39073e-05
5.31764e-05
5.13627e-05
0.000111443
0.00274156
6.55325e-05
8.15729e-05
0.00372899
8.27389e-05
9.14809e-05
0.0314373
5.29408e-05
7.77505e-05
8.91664e-05
7.91993e-05
7.80432e-05
6.37244e-05
8.98482e-05
0.0107099
7.94191e-05
6.05044e-05
8.82245e-05
8.14506e-05
7.62034e-05
7.75376e-05
8.58581e-05
0.0361462
0.032443
8.19458e-05
8.16593e-05
0.000127087
5.3038e-05
9.28327e-05
4.4919e-05
7.80941e-05
7.40956e-05
7.9934e-05
8.19788e-05
4.412e-05
9.06317e-05
8.65019e-05
8.40173e-05
7.90479e-05
8.56757e-05
8.82662e-05
9.06889e-05
0.0337509
5.46982e-05
5.08048e-05
9.95384e-05
6.41892e-05
7.76573e-05
7.07435e-05
8.63294e-05
0.000102596
0.0394557
6.08117e-05
0.000586742
7.25183e-05
8.72874e-05
8.92558e-05
7.65425e-05
5.73355e-05
8.50392e-05
8.39031e-05
0.00855935
9.09127e-05
5.90752e-05
7.72032e-05
7.79127e-05
8.81926e-05
8.20213e-05
0.000112198
8.17718e-05
6.90505e-05
5.44837e-05
9.1064e-05
7.13084e-05
9.46719e-05
0.000801943
5.8094e-05
6.2235e-05
9.06526e-05
0.0141647
7.09833e-05
6.20902e-05
9.83275e-05
7.93905e-05
0.00014599
8.49431e-05
7.15148e-05
5.86491e-05
7.33409e-05
6.8836e-05
7.81698e-05
5.68997e-05
0.00878045
9.56812e-05
0.000105445
9.63183e-05
8.84667e-05
7.77648e-05
9.24969e-05
8.56222e-05
6.44719e-05
0.0042123
7.63288e-05
9.02724e-05
0.0148175
8.61399e-05
8.98353e-05
8.73539e-05
7.20788e-05
0.00350591
8.89771e-05
0.00793221
7.95177e-05
6.49398e-05
4.41709e-05
9.1969e-05
7.42049e-05
0.00926978
5.08426e-05
0.000109601
8.73202e-05
4.45779e-05
0.00352996
9.00024e-05
8.90626e-05
0.000221265
8.20038e-05
5.40716e-05
7.82961e-05
6.25994e-05
0.000112865
7.64922e-05
9.1961e-05
7.77726e-05
8.96655e-05
5.92322e-05
7.79571e-05
6.78187e-05
0.0368227
8.34564e-05
0.0034288
0.000243037
8.80014e-05
8.15064e-05
9.78395e-05
7.64412e-05
9.30548e-05
6.6647e-05
0.00738668
5.67359e-05
9.26384e-05
6.90811e-05
0.0116654
0.000144265
0.010047
6.54765e-05
6.56438e-05
7.71306e-05
0.0151171
0.000177312
8.37427e-05
0.00293823
0.000222066
9.65099e-05
8.43492e-05
0.0129881
0.00673033
8.32405e-05
5.90295e-05
8.84409e-05
6.36249e-05
6.13147e-05
0.0115343
8.58429e-05
7.26821e-05
9.8404e-05
9.35222e-05
7.35106e-05
9.41466e-05
7.3615e-05
6.10117e-05
8.14039e-05
8.1867e-05
7.79681e-05
0.0302679
0.00012875
7.69682e-05
5.98261e-05
8.51743e-05
6.36645e-05
0.00353331
6.11223e-05
0.00244656
5.34272e-05
7.34763e-05
0.000221524
8.39496e-05
8.59654e-05
7.60027e-05
6.404e-05
8.78378e-05
7.94445e-05
8.52333e-05
7.45456e-05
0.000127678
9.87512e-05
8.87994e-05
8.65408e-05
0.000164008
0.0297191
0.00024594
0.00714988
7.27282e-05
6.21886e-05
8.21015e-05
7.54277e-05
5.03118e-05
5.53345e-05
0.043549
0.000762535
9.17551e-05
0.00325767
6.25276e-05
8.78904e-05
8.48693e-05
0.0438754
5.23466e-05
8.83868e-05
4.87783e-05
8.63187e-05
0.00263672
0.000119874
0.00611814
5.39759e-05
7.55651e-05
5.99859e-05
7.19327e-05
0.0326064
5.96726e-05
5.27196e-05
8.0492e-05
9.47951e-05
5.63988e-05
8.051e-05
7.35652e-05
0.00142253
8.17292e-05
6.0602e-05
8.66441e-05
7.46561e-05
0.000233967
5.71546e-05
5.9615e-05
8.05585e-05
0.000180417
6.88876e-05
8.352e-05
5.81821e-05
9.21549e-05
5.25672e-05
8.72394e-05
8.63251e-05
6.57058e-05
0.00765883
0.000671348
9.00375e-05
5.53706e-05
0.000100878
8.62175e-05
8.11055e-05
7.54167e-05
0.00474143
6.66577e-05
0.000638848
8.87723e-05
7.76586e-05
7.9585e-05
9.40449e-05
0.00202811
7.23607e-05
8.34951e-05
6.75723e-05
0.000158431
8.94594e-05
0.000117959
0.0395103
8.54072e-05
8.78062e-05
8.97703e-05
7.99106e-05
9.21984e-05
6.79198e-05
5.87548e-05
8.14532e-05
8.09933e-05
8.41062e-05
6.06041e-05
8.9614e-05
5.06088e-05
8.04526e-05
0.00639208
0.000106292
8.18241e-05
5.91385e-05
8.07447e-05
0.00634108
0.00301692
8.08459e-05
0.00186297
8.62918e-05
0.0364092
6.04371e-05
7.62055e-05
8.96329e-05
0.000888374
7.47379e-05
7.47317e-05
6.81066e-05
9.41536e-05
6.9591e-05
8.47044e-05
8.44488e-05
4.3545e-05
5.91741e-05
0.000131875
6.21518e-05
4.31268e-05
0.0243995
6.52489e-05
8.31795e-05
0.00416539
8.74776e-05
0.00196844
5.07946e-05
8.83349e-05
4.98519e-05
9.00216e-05
8.93475e-05
8.96986e-05
0.00305899
7.4107e-05
9.50789e-05
6.71342e-05
8.00912e-05
6.97331e-05
7.14249e-05
5.07902e-05
8.87367e-05
5.05794e-05
4.99796e-05
5.72855e-05
8.21464e-05
0.000489269
0.00361798
0.000104111
7.28445e-05
7.30426e-05
8.27281e-05
5.59438e-05
0.000146271
9.24424e-05
6.61118e-05
6.90966e-05
0.000100784
0.00322319
8.90636e-05
7.22277e-05
0.000118871
7.31785e-05
5.47419e-05
0.00197247
6.86134e-05
0.0343323
0.000101555
6.57806e-05
0.0152918
8.87557e-05
6.64315e-05
7.89835e-05
9.50732e-05
8.82705e-05
0.0250227
0.0012002
0.00169915
5.17408e-05
7.91521e-05
0.00477129
7.4928e-05
8.85162e-05
0.000261488
5.59472e-05
7.06544e-05
0.00862131
0.000103115
9.51098e-05
9.50468e-05
5.15122e-05
8.99593e-05
8.99252e-05
0.0301573
0.000396194
0.000121492
5.12107e-05
6.64952e-05
0.00133658
6.65876e-05
8.83867e-05
5.55731e-05
7.42577e-05
0.000101136
8.72062e-05
5.46474e-05
6.96066e-05
0.000110655
6.98447e-05
8.97714e-05
8.18661e-05
5.97524e-05
7.0806e-05
6.3393e-05
0.023885
0.00684452
5.04702e-05
0.00711247
0.000101209
0.00186309
0.023935
0.000100784
0.000134686
4.43537e-05
7.94331e-05
8.91364e-05
8.97028e-05
0.0240785
7.79934e-05