/*--------------------------------*- C++ -*----------------------------------*\
| =========                 |                                                 |
| \\      /  F ield         | OpenFOAM: The Open Source CFD Toolbox           |
|  \\    /   O peration     | Version:  v2012                                 |
|   \\  /    A nd           | Website:  www.openfoam.com                      |
|    \\/     M anipulation  |                                                 |
\*---------------------------------------------------------------------------*/
FoamFile
{
    version     2.0;
    format      ascii;
    class       volScalarField;
    location    "150";
    object      k_0;
}
// * * * * * * * * * * * * * * * * * * * * * * * * * * * * * * * * * * * * * //

dimensions      [0 2 -2 0 0 0 0];


internalField   nonuniform List<scalar> 
33474
(
8.95998e-05
0.00285016
0.000115054
7.94032e-05
9.03864e-05
7.95804e-05
6.33165e-05
8.69087e-05
6.96781e-05
0.0129562
7.40343e-05
8.13027e-05
6.31889e-05
8.99013e-05
9.08717e-05
6.1097e-05
5.33242e-05
0.000160498
8.67176e-05
7.49726e-05
0.000111884
0.00600578
7.91879e-05
8.96666e-05
7.88864e-05
8.13197e-05
6.39034e-05
9.80406e-05
0.00369962
5.53681e-05
4.4513e-05
7.91513e-05
0.000130303
0.000156795
5.85906e-05
7.348e-05
0.0259147
1.46615e-05
8.09902e-05
8.99535e-05
7.62529e-05
5.52875e-05
8.00803e-05
7.85088e-05
0.0259436
0.000589544
0.00741506
9.35391e-05
0.000449781
5.84094e-05
8.58186e-05
6.76597e-05
9.2501e-05
6.31143e-05
7.99944e-05
9.77541e-05
8.01167e-05
0.00010801
8.98072e-05
8.67828e-05
8.07997e-05
0.0063092
0.0252434
0.000343053
5.33481e-05
8.50833e-05
5.0582e-05
0.0291526
6.75784e-05
8.79064e-05
0.0062938
0.00648454
0.000739765
5.29752e-05
0.000882837
0.000755981
0.00954231
8.59069e-05
9.00194e-05
9.18258e-05
0.0233712
8.15678e-05
0.0138391
5.8533e-05
9.36861e-05
5.89906e-05
0.000112753
0.040232
0.00440666
4.83444e-05
7.91928e-05
5.83779e-05
9.20909e-05
7.58941e-05
6.32938e-05
9.35296e-05
9.36503e-05
8.79807e-05
6.73808e-05
0.00123506
0.000113922
0.0122211
8.79509e-05
0.00318264
4.38526e-05
5.00055e-05
8.5819e-05
8.8311e-05
6.73226e-05
5.48582e-05
8.94223e-05
5.05064e-05
0.000136626
7.71601e-05
0.000109021
0.000100029
8.06875e-05
0.000123019
8.25227e-05
6.32206e-05
8.67852e-05
0.000142132
7.97882e-05
5.8948e-05
9.37139e-05
7.5145e-05
7.09001e-05
0.000107543
0.000120602
9.15214e-05
6.27129e-05
8.7872e-05
0.000146191
0.0230609
9.07586e-05
0.00118594
0.00115992
0.0179189
0.000222217
0.000117207
8.56509e-05
0.000929133
4.41522e-05
7.70183e-05
8.47174e-05
8.9296e-05
0.00363698
0.00522015
0.00271459
0.00301588
0.00218758
7.41817e-05
8.2352e-05
7.65134e-05
9.99014e-05
7.90037e-05
9.21038e-05
7.96628e-05
8.94745e-05
0.00252505
0.000129766
0.000999378
0.000117518
0.000140859
9.31106e-05
0.00205252
6.34217e-05
0.000861945
8.58045e-05
9.36251e-05
0.000174671
6.07167e-05
0.00295276
5.47549e-05
8.59922e-05
0.017154
8.83716e-05
0.00311826
0.0159805
6.28861e-05
6.30248e-05
8.95689e-05
5.83569e-05
7.19498e-05
8.44368e-05
0.0396435
0.0240517
8.03138e-05
8.80869e-05
7.64351e-05
8.66014e-05
8.94225e-05
0.00317388
0.00359877
0.0188241
7.74318e-05
0.000127656
0.000107522
0.00347147
6.62719e-05
7.42564e-05
7.15854e-05
0.00433222
9.69524e-05
0.000114076
6.38313e-05
6.33102e-05
0.000113179
7.73016e-05
0.0393853
0.00434497
4.63218e-05
8.72115e-05
9.96306e-05
4.62419e-05
0.000171748
7.55677e-05
0.0175156
0.0157111
7.61246e-05
7.71871e-05
7.41272e-05
7.53591e-05
0.000112514
4.41949e-05
9.17987e-05
0.0051465
9.196e-05
6.67831e-05
9.17379e-05
0.0154032
6.54308e-05
6.30633e-05
6.01928e-05
6.06495e-05
0.000855044
9.32287e-05
8.02329e-05
6.9754e-05
8.92013e-05
7.92827e-05
0.000115643
0.00137052
8.70713e-05
0.000110821
6.10243e-05
7.3326e-05
7.7519e-05
8.67196e-05
8.70559e-05
9.35669e-05
8.59293e-05
0.000107389
6.3722e-05
8.92309e-05
6.67648e-05
0.0180142
6.70847e-05
0.000114592
0.0157926
0.00644473
0.00132422
8.70993e-05
0.0051762
7.14372e-05
6.07979e-05
0.0174795
0.00612344
0.00620805
7.52734e-05
9.01125e-05
8.2335e-05
9.16225e-05
7.96511e-05
6.08253e-05
7.75425e-05
8.26592e-05
6.79296e-05
8.96969e-05
8.44685e-05
8.92805e-05
6.26714e-05
8.91227e-05
7.94653e-05
5.83302e-05
7.30849e-05
6.70534e-05
5.32252e-05
0.000108218
0.00663686
0.000872863
6.52686e-05
0.000571692
8.97062e-05
8.86437e-05
0.0045017
0.0173823
0.000100013
7.81074e-05
8.91871e-05
8.25987e-05
0.000117028
0.000548213
6.78608e-05
4.67075e-05
6.61327e-05
4.67315e-05
0.000100419
0.00010736
0.0352359
8.22209e-05
7.79484e-05
4.82734e-05
0.000827422
0.000135841
0.0240802
0.0339904
0.000107636
8.67515e-05
0.00336276
0.00012834
6.51024e-05
0.0372849
6.28469e-05
8.60009e-05
8.95648e-05
0.0159668
7.19114e-05
8.71274e-05
9.10595e-05
8.44379e-05
8.78852e-05
9.37495e-05
0.00395933
8.43486e-05
7.69508e-05
0.0100738
4.69302e-05
4.69233e-05
6.11052e-05
7.9838e-05
0.000107941
0.00466819
0.00741347
0.000197091
5.79389e-05
6.89822e-05
8.59517e-05
9.37555e-05
9.37001e-05
7.40746e-05
5.79462e-05
9.99041e-05
0.000100652
7.96994e-05
4.44591e-05
7.55761e-05
6.35572e-05
5.00287e-05
0.00989902
8.07076e-05
0.00957007
8.88168e-05
8.47948e-05
7.62762e-05
8.74238e-05
6.00337e-05
8.18959e-05
7.03763e-05
0.00431889
4.71531e-05
4.71566e-05
6.95765e-05
0.000123316
8.65775e-05
0.000100302
7.61488e-05
8.2354e-05
7.75473e-05
0.0248743
5.11413e-05
0.00382094
6.94225e-05
7.98945e-05
9.82307e-05
5.41344e-05
8.66382e-05
7.68406e-05
8.49488e-05
8.69422e-05
7.10369e-05
0.00157301
4.77718e-05
5.25739e-05
8.46689e-05
9.68685e-05
8.78926e-05
6.52899e-05
6.05997e-05
8.059e-05
8.21608e-05
8.72572e-05
6.59819e-05
7.94306e-05
0.000164275
4.42277e-05
0.000109499
0.0160827
0.0198367
9.23818e-05
8.14588e-05
7.61518e-05
8.47397e-05
7.06859e-05
8.6667e-05
6.12238e-05
0.0284111
2.52075e-05
4.95202e-05
9.36807e-05
6.1265e-05
8.24489e-05
7.13142e-05
2.00411e-05
8.44853e-05
8.59875e-05
0.00412072
8.75047e-05
7.9096e-05
7.04966e-05
6.41785e-05
0.0191117
7.13101e-05
0.00404548
8.69487e-05
8.03818e-05
8.81487e-05
9.33082e-05
0.000113879
5.06639e-05
6.24331e-05
0.00274946
6.41831e-05
7.04337e-05
5.07172e-05
8.69303e-05
5.0342e-05
8.10831e-05
7.54073e-05
0.00424093
0.0207558
8.0604e-05
5.36873e-05
7.89304e-05
0.000162721
0.0041692
0.00587276
0.00567962
8.16724e-05
4.73665e-05
8.57125e-05
8.6568e-05
8.18036e-05
7.22793e-05
0.00648323
7.46313e-05
4.73803e-05
8.30766e-05
8.09517e-05
7.60369e-05
0.0377721
5.60319e-05
8.66028e-05
8.02558e-05
5.45023e-05
8.62654e-05
6.25435e-05
5.8416e-05
0.00699694
8.07888e-05
0.000112584
0.00661077
0.00652533
7.5011e-05
8.00492e-05
7.0992e-05
0.043259
8.68938e-05
6.80773e-05
4.4172e-05
0.00663623
0.00665321
8.98541e-05
0.0351348
6.45577e-05
8.03288e-05
1.20842e-05
5.69901e-05
7.37422e-05
5.68981e-05
8.56331e-05
0.000104099
8.88588e-05
0.000306466
7.08079e-05
7.56664e-05
8.13383e-05
0.0435426
0.00589571
9.79484e-05
8.94104e-05
7.2367e-05
9.03136e-05
0.000129925
1.98756e-05
7.98376e-05
7.96678e-05
8.67784e-05
8.21003e-05
0.0367691
0.00010351
7.82943e-05
6.11417e-05
7.76089e-05
8.06935e-05
7.49578e-05
6.03971e-05
0.00139415
0.0431272
8.81346e-05
8.81599e-05
0.00502017
8.92889e-05
8.48009e-05
0.00275544
3.70828e-06
9.38687e-05
5.71581e-05
8.0687e-05
7.09981e-05
4.99231e-05
0.00688879
7.35566e-05
7.90921e-05
5.02108e-05
7.10085e-05
7.92482e-05
0.0357385
8.29977e-05
4.44659e-05
0.00633737
7.21416e-05
4.4204e-05
5.28001e-05
0.0284908
0.00544517
5.27095e-05
8.28779e-05
8.80693e-05
8.46248e-05
0.00246815
8.9267e-05
7.35848e-05
0.00524078
8.93721e-05
8.54642e-05
8.69331e-05
0.000239556
5.43374e-05
7.04054e-05
8.88224e-05
0.00094394
7.44552e-05
0.000166936
9.0277e-05
8.72862e-05
7.91544e-05
7.7424e-05
9.07569e-05
0.00354059
0.000440749
6.44934e-05
7.80004e-05
8.16213e-05
0.00259316
0.0169347
8.49265e-05
6.28938e-05
7.50821e-05
8.18266e-05
0.0001711
0.00526237
0.00014248
6.12114e-05
7.3462e-05
8.5584e-05
0.00533209
0.000107772
6.48578e-05
8.48016e-05
6.99831e-05
7.55828e-05
7.9195e-05
6.84937e-05
0.00883509
0.0171307
7.73751e-05
6.72332e-05
7.94691e-05
0.00294352
8.69687e-05
5.73199e-05
0.00151719
0.00216153
0.0237023
0.00235251
8.42864e-05
7.84547e-05
6.07193e-05
5.81911e-05
4.99741e-05
7.77713e-05
6.05199e-05
0.00296909
8.20863e-05
6.65216e-05
8.54981e-05
0.0012048
0.0218599
7.81506e-05
6.98715e-05
8.712e-05
8.88129e-05
0.0418665
0.0143032
0.000108888
0.00577558
7.09905e-05
6.8838e-05
0.0201356
5.43195e-05
9.80372e-05
5.43978e-05
5.48992e-05
7.76475e-05
5.91796e-05
0.00042458
7.09284e-05
0.00339343
8.86989e-05
0.0432165
0.00191176
0.0239259
0.000535973
7.71278e-05
5.94245e-05
6.0282e-05
6.64906e-05
0.00187139
8.82909e-05
0.0247704
0.00343144
7.70808e-05
6.89953e-05
5.84223e-05
0.00164881
0.00183716
8.95224e-05
6.86396e-05
0.0229452
0.000661124
4.41761e-05
9.05882e-05
8.08841e-05
5.234e-05
5.22495e-05
0.00577084
3.39268e-05
8.50508e-05
8.46139e-05
0.0407572
0.0270519
0.00150473
0.00783415
6.69817e-05
0.000109932
5.93331e-05
6.13589e-05
0.00123036
8.97502e-05
0.00732288
6.1419e-05
8.58181e-05
8.84855e-05
7.82484e-05
0.0364674
8.49574e-05
0.000416343
0.000190344
7.8363e-05
7.36988e-05
0.00212223
8.25796e-05
4.47917e-05
6.52706e-05
6.25538e-05
0.000101635
9.5197e-05
0.00186928
7.29633e-05
0.00714769
0.000204948
0.0266137
8.43074e-05
7.02783e-05
6.81974e-05
0.00224353
5.18577e-05
7.87936e-05
6.26694e-05
0.0296222
0.00786861
6.20338e-05
7.50139e-05
0.000140783
6.1684e-05
6.90575e-05
6.92163e-05
7.95224e-05
0.000161136
6.60612e-05
6.3447e-05
7.08707e-05
6.622e-05
8.05881e-05
6.77955e-05
0.00165893
6.15911e-05
6.16866e-05
0.0440004
6.88753e-05
0.00351796
7.88178e-05
0.00379323
0.00658663
7.55117e-05
6.1169e-05
8.14401e-05
5.29613e-05
0.0398273
0.00202404
0.00199765
0.00113565
5.65835e-05
6.2482e-05
0.000287804
6.66528e-05
9.20626e-05
8.66788e-05
6.76795e-05
0.0108665
8.67381e-05
9.30462e-05
6.5642e-05
6.64874e-05
7.97143e-05
0.0370475
7.66089e-05
0.0297114
6.00598e-05
7.81168e-05
8.74508e-05
0.0302338
7.22097e-05
6.6203e-05
9.48641e-05
6.06134e-05
9.37299e-05
0.0014488
8.82704e-05
4.41351e-05
6.21806e-05
8.73537e-05
0.000222125
7.35708e-05
0.0216378
6.08623e-05
8.2137e-05
6.04082e-05
4.44278e-05
8.30085e-05
0.000112171
0.00930776
8.1641e-05
7.31048e-05
0.00415688
6.48693e-05
5.27242e-05
8.5037e-05
0.00123368
7.34154e-05
0.000127704
0.0113551
6.09689e-05
8.10387e-05
5.91091e-05
6.25856e-05
6.08713e-05
7.87532e-05
0.000108735
0.000205409
7.96538e-05
5.02736e-05
0.00251418
0.029297
8.57627e-05
0.00022324
6.22833e-05
5.89596e-05
4.83074e-05
5.65873e-05
5.89073e-05
0.000123827
9.32433e-05
0.000588089
8.46241e-05
0.000288605
7.06797e-05
6.64122e-05
5.11649e-05
0.00127587
5.61092e-05
0.000148257
8.92795e-05
0.0046938
8.82348e-05
5.0926e-05
0.0106628
9.04519e-05
0.0409504
9.04065e-05
6.20115e-05
7.23063e-05
7.83887e-05
8.76476e-05
0.000166519
0.00861868
8.55823e-05
0.00942924
8.72489e-05
6.07924e-05
5.42857e-05
0.000131273
6.58488e-05
8.12206e-05
6.65122e-05
0.0314172
8.10382e-05
0.000109652
0.000409048
0.00174953
8.47371e-05
8.55052e-05
7.5711e-05
8.6193e-05
8.38285e-05
6.92329e-05
5.44436e-05
7.3007e-05
0.00856811
8.58338e-05
0.000164484
7.86538e-05
6.99067e-05
0.0292133
5.01883e-05
8.38247e-05
7.90263e-05
7.77574e-05
8.93926e-05
5.89669e-05
8.53767e-05
7.36715e-05
0.000139955
0.000361818
8.39824e-05
7.11471e-05
7.06711e-05
6.06072e-05
5.01534e-05
9.39888e-05
0.000116124
0.00564572
9.67733e-05
8.75748e-05
0.0188426
0.0109723
0.00394312
7.43588e-05
7.54111e-05
0.000106829
7.65122e-05
8.4934e-05
4.47318e-05
0.000267817
8.74441e-05
0.00998684
7.47904e-05
8.29093e-05
7.08936e-05
8.85324e-05
4.88636e-05
5.19316e-05
5.00789e-05
5.36805e-05
6.70608e-05
0.00254322
7.52387e-05
0.000198354
5.00622e-05
0.00552894
5.32061e-05
0.0408555
5.82191e-05
5.81814e-05
0.000108293
0.00920099
8.59145e-05
8.29304e-05
6.93639e-05
5.94684e-05
8.36562e-05
5.16228e-05
8.39396e-05
7.52753e-05
5.15417e-05
8.84382e-05
5.65525e-05
0.0387338
6.30078e-05
7.83925e-05
8.10899e-05
7.01929e-05
0.0160758
0.000129168
0.0270243
0.000885845
9.70163e-05
0.000130009
9.12668e-05
6.29535e-05
0.0118921
9.1117e-05
6.70202e-05
8.89731e-05
8.07059e-05
6.86312e-05
8.38627e-05
7.5966e-05
7.00499e-05
8.9089e-05
9.38426e-05
0.000132727
6.94723e-05
7.75916e-05
7.91237e-05
6.84226e-05
0.00421257
8.04632e-05
5.70361e-05
0.000364896
6.29332e-05
8.24762e-05
0.00856424
0.00239224
5.66421e-05
8.85159e-05
6.13834e-05
7.54733e-05
8.99922e-05
8.74032e-05
0.000134137
0.000137997
8.28787e-05
7.79226e-05
6.75028e-05
8.28905e-05
7.40619e-05
5.81797e-05
8.107e-05
7.58765e-05
5.13053e-05
7.55907e-05
7.97786e-05
8.73115e-05
4.85573e-05
7.7353e-05
8.0311e-05
8.60955e-05
8.92036e-05
5.90272e-05
0.000839589
0.000134705
8.37685e-05
5.4598e-05
6.59685e-05
0.0399085
6.19187e-05
6.18278e-05
9.11303e-05
0.010049
6.7622e-05
9.24039e-05
6.66261e-05
0.00304301
6.75521e-05
9.04937e-05
7.86423e-05
0.00837615
5.6915e-05
7.79064e-05
8.52033e-05
7.38169e-05
4.60864e-05
0.000361084
5.78167e-05
8.28372e-05
4.65293e-05
5.46581e-05
5.76952e-05
7.4306e-05
4.77017e-05
0.000183996
8.23155e-05
6.52521e-05
5.41887e-05
7.53864e-05
0.0109259
6.35192e-05
6.27956e-05
6.18573e-05
7.96866e-05
7.89708e-05
7.03647e-05
0.000536511
7.77823e-05
7.81913e-05
7.57005e-05
4.74914e-05
8.17402e-05
4.74847e-05
8.40109e-05
6.66012e-05
8.9459e-05
7.47526e-05
0.00469078
9.84799e-05
6.30519e-05
8.94879e-05
7.48009e-05
0.000188087
5.00966e-05
6.59336e-05
0.000116707
6.02899e-05
4.77092e-05
9.06225e-05
7.89488e-05
8.10962e-05
8.01775e-05
8.16734e-05
6.13731e-05
0.000134113
7.36115e-05
9.00679e-05
9.44217e-05
6.48944e-05
0.0394158
4.83951e-05
8.00521e-05
0.033761
4.61113e-05
4.84161e-05
8.90962e-05
7.57499e-05
7.46942e-05
8.75484e-05
0.000225394
0.000122352
7.93262e-05
9.21039e-05
7.12298e-05
7.58492e-05
7.96879e-05
0.00516775
0.00026714
7.03056e-05
0.000115623
7.03293e-05
6.07135e-05
6.12806e-05
7.09022e-05
9.39902e-05
8.03789e-05
0.00534179
7.16996e-05
0.00433352
5.59605e-05
5.55426e-05
0.0429346
0.01155
0.00771283
9.54921e-05
7.49955e-05
7.95239e-05
8.98129e-05
6.49571e-05
7.74165e-05
5.7192e-05
0.00793415
8.91942e-05
7.92341e-05
0.00482796
0.000100565
9.23915e-05
7.4994e-05
8.92801e-05
0.0228291
0.000550484
0.000195619
5.3321e-05
4.95619e-05
0.000822813
5.93143e-05
0.000173952
7.28942e-05
8.19652e-05
8.80005e-05
0.000678606
0.000613993
8.72827e-05
0.00011265
7.00396e-05
9.81866e-05
0.00128974
0.00784153
8.16334e-05
0.00013588
8.74287e-05
7.59779e-05
0.0033862
5.20151e-05
7.04302e-05
0.000226274
7.16977e-05
0.0350446
9.09317e-05
8.49141e-05
6.74005e-05
9.47308e-05
0.000124385
6.95747e-05
5.74493e-05
7.73524e-05
0.000133242
8.24327e-05
0.0379577
7.76636e-05
8.08346e-05
0.00554725
7.84434e-05
7.0001e-05
8.06204e-05
6.6561e-05
6.14216e-05
8.48042e-05
0.0068031
7.8857e-05
0.00668592
4.44206e-05
8.14935e-05
0.00180651
5.09433e-05
4.58636e-05
8.60369e-05
0.043689
8.91521e-05
7.36164e-05
8.0846e-05
8.90503e-05
0.000243557
8.96047e-05
6.98024e-05
6.09186e-05
0.00010971
0.0316621
5.01315e-05
8.04789e-05
6.67555e-05
9.40522e-05
4.43725e-05
6.18945e-05
9.3706e-05
0.000140118
8.42311e-05
8.14663e-05
8.71176e-05
5.09147e-05
0.00149576
6.82154e-05
0.000150677
0.00700544
0.000160619
7.48501e-05
6.9479e-05
0.000275147
6.48423e-05
0.0359063
6.06799e-05
7.54121e-05
9.35362e-05
0.00683271
0.00294897
0.0249977
0.000109149
4.93001e-05
0.000213614
8.67568e-05
8.27965e-05
5.6485e-05
5.95484e-05
9.29933e-05
8.02208e-05
6.95725e-05
0.0349914
7.60645e-05
0.000230137
7.39029e-05
5.87045e-05
0.00970517
6.25489e-05
6.98843e-05
8.72826e-05
5.95622e-05
7.86481e-05
8.74575e-05
0.000108564
0.00901859
6.92462e-05
5.94654e-05
0.00976358
8.77807e-05
4.61027e-05
0.041809
8.03456e-05
8.89741e-05
8.548e-05
5.54609e-05
0.000155933
0.00141794
8.96292e-05
8.20574e-05
6.64905e-05
8.01e-05
0.00425006
0.000153922
5.39718e-05
9.20716e-05
7.14526e-05
0.000140613
0.00341212
0.000110681
6.93356e-05
0.0246276
5.09899e-05
4.92787e-05
8.18998e-05
8.71089e-05
8.99676e-05
4.6605e-05
7.9407e-05
4.43087e-05
7.9156e-05
5.91635e-05
4.9853e-05
8.93216e-05
7.62934e-05
6.6456e-05
0.00649987
0.000791953
0.00398926
0.00384308
5.66559e-05
8.90732e-05
5.58665e-05
0.00326125
9.37568e-05
8.20799e-05
6.14632e-05
4.99521e-05
0.00126437
0.000109979
5.57584e-05
7.33112e-05
6.30401e-05
8.66384e-05
6.15102e-05
5.91132e-05
4.65832e-05
0.00076802
0.0108864
5.99327e-05
0.032371
4.47673e-05
6.41483e-05
0.0388632
0.00526619
8.49311e-05
0.000150097
5.89932e-05
8.93669e-05
0.00414856
0.000109052
9.00775e-05
0.000117138
9.49032e-05
6.81363e-05
0.000165239
0.00305513
6.32438e-05
7.52208e-05
5.33372e-05
8.68182e-05
8.82684e-05
9.1514e-05
0.00128859
5.03826e-05
7.71266e-05
7.80227e-05
0.00633074
0.00100291
0.00142345
5.39259e-05
6.41023e-05
7.52384e-05
5.42151e-05
0.0146961
7.44933e-05
7.61196e-05
0.000129112
5.97874e-05
5.02444e-05
0.0275065
5.41557e-05
6.316e-05
0.000108989
5.41052e-05
7.54419e-05
7.9574e-05
8.72282e-05
5.09822e-05
7.80772e-05
7.32566e-05
0.0244057
8.84643e-05
7.63854e-05
4.68307e-05
0.00049231
0.0280838
5.96856e-05
8.21001e-05
0.00672277
0.0365881
6.59162e-05
8.48894e-05
9.55159e-05
9.79078e-05
8.42982e-05
4.68364e-05
7.67299e-05
0.0364615
0.000216055
8.27449e-05
6.76545e-05
5.64157e-05
8.63953e-05
8.71796e-05
4.43393e-05
7.77136e-05
9.59248e-05
0.0152175
8.64828e-05
6.03949e-05
0.000429239
0.000270321
8.87963e-05
5.81195e-05
5.66119e-05
0.000124723
6.27017e-05
8.71303e-05
0.00933194
6.03656e-05
8.19897e-05
0.000110376
5.07238e-05
6.62376e-05
7.64852e-05
0.038807
0.0422737
8.10443e-05
6.03617e-05
0.00898734
7.61494e-05
8.91362e-05
8.43862e-05
0.0381723
5.97066e-05
8.93674e-05
7.4052e-05
7.83283e-05
8.88579e-05
7.03828e-05
0.000102229
8.16512e-05
9.29474e-05
0.000248641
7.0593e-05
8.88144e-05
7.48045e-05
6.57964e-05
7.3463e-05
5.93394e-05
0.00850018
8.45384e-05
5.0662e-05
8.85284e-05
7.89656e-05
6.75807e-05
8.93653e-05
8.69269e-05
7.4193e-05
8.38786e-05
0.000142648
0.0429062
6.27465e-05
5.70601e-05
0.00601116
8.65951e-05
8.61138e-05
9.13946e-05
0.000127193
5.9149e-05
0.00724768
5.45845e-05
4.89804e-05
8.05488e-05
7.01213e-05
0.0140371
5.6485e-05
7.77652e-05
7.11226e-05
8.58115e-05
6.00554e-05
8.71549e-05
4.70437e-05
0.000127632
9.62557e-05
5.67947e-05
0.0376163
0.000163853
7.02462e-05
0.035286
7.86317e-05
7.05208e-05
0.00911993
0.0364146
7.95863e-05
4.7022e-05
8.972e-05
0.00965731
5.91406e-05
0.00139026
9.63175e-05
6.00158e-05
8.1738e-05
5.70339e-05
6.51412e-05
7.86383e-05
5.63807e-05
5.49842e-05
6.27011e-05
4.41705e-05
0.000100919
0.000100858
6.04862e-05
0.000130578
7.60014e-05
4.92663e-05
0.00966513
8.17831e-05
8.64118e-05
5.88229e-05
4.75963e-05
5.99762e-05
6.59314e-05
6.50878e-05
8.56848e-05
7.87308e-05
5.9231e-05
7.88622e-05
0.000259284
8.86284e-05
5.49313e-05
5.72681e-05
8.38871e-05
0.000160534
8.94722e-05
0.0319646
8.84016e-05
7.51911e-05
5.77823e-05
8.62804e-05
0.00479187
8.21223e-05
7.63186e-05
4.65073e-05
6.59008e-05
9.39001e-05
7.51032e-05
8.18569e-05
9.0425e-05
7.83811e-05
8.74665e-05
5.94529e-05
8.31773e-05
0.000127161
5.98997e-05
9.33683e-05
0.000116685
7.98096e-05
2.98607e-05
4.98977e-05
0.000138677
6.11803e-05
9.34628e-05
6.24692e-05
9.37473e-05
0.00133432
6.4991e-05
8.99856e-05
8.56617e-05
0.0410693
7.28156e-05
0.000116783
7.52269e-05
0.00399153
7.89237e-05
8.85398e-05
7.52992e-05
5.53447e-05
7.85558e-05
7.29656e-05
7.82714e-05
0.000225894
6.69179e-05
7.86438e-05
5.71592e-05
8.87608e-05
5.41904e-05
8.70153e-05
0.0354366
7.83526e-05
0.0378319
7.92806e-05
8.16567e-05
4.72511e-05
8.88091e-05
9.03189e-05
0.000129368
0.00871133
8.93544e-05
8.88219e-05
8.73201e-05
0.00673314
9.23813e-05
6.11691e-05
6.29039e-05
7.42197e-05
4.66202e-05
7.6888e-05
4.98301e-05
4.7251e-05
8.19388e-05
0.030934
0.0118152
0.0030566
6.13233e-05
0.00877786
0.000140476
8.5871e-05
7.43632e-05
7.79123e-05
0.00637443
3.40145e-05
0.000817071
5.62741e-05
5.59004e-05
9.0265e-05
3.97862e-05
8.62633e-05
6.58042e-05
0.000695094
7.35517e-05
7.49416e-05
8.942e-05
7.01792e-05
9.05706e-05
0.00041903
5.89573e-05
5.6805e-05
0.0332212
7.41677e-05
5.68908e-05
6.31867e-05
9.02459e-05
8.82047e-05
5.33813e-05
7.31136e-05
6.59563e-05
8.77783e-05
7.89667e-05
7.53781e-05
6.28484e-05
0.0114778
7.55726e-05
6.82988e-05
7.5499e-05
0.00393382
5.67495e-05
0.000108484
0.000133536
0.0126444
0.000101153
7.10633e-05
8.52509e-05
6.23944e-05
0.0397994
9.84386e-05
5.54453e-05
0.00872939
9.05246e-05
5.657e-05
6.85649e-05
7.87133e-05
5.90422e-05
8.95144e-05
6.56712e-05
0.0059998
0.000105028
9.25354e-05
0.000611267
8.71248e-05
5.463e-05
7.80103e-05
5.72253e-05
0.000108617
8.39834e-05
6.83994e-05
0.00014216
6.55683e-05
8.70093e-05
5.89285e-05
8.37535e-05
6.34116e-05
8.79758e-05
0.0244658
6.12505e-05
5.08293e-05
7.34035e-05
0.000236022
0.0317589
0.000573574
8.33303e-05
8.40473e-05
8.93076e-05
9.02033e-05
5.63871e-05
7.0327e-05
7.53713e-05
0.00370555
5.68481e-05
0.0176479
8.68033e-05
8.14374e-05
0.000159662
9.03129e-05
0.0038037
8.79695e-05
7.85755e-05
8.89006e-05
6.78906e-05
0.000459665
9.33012e-05
0.00304229
0.0349877
0.000304895
8.67186e-05
7.5587e-05
6.07899e-05
5.84554e-05
8.37817e-05
9.25782e-05
0.00359813
5.31876e-05
8.72304e-05
7.79687e-05
7.26538e-05
0.00591735
6.98817e-05
8.13249e-05
0.000242076
8.90627e-05
5.65593e-05
6.28437e-05
9.45799e-05
6.48908e-05
0.0323799
4.81107e-05
8.44212e-05
8.81022e-05
0.0194145
4.81094e-05
6.44489e-05
8.41743e-05
0.00105697
8.40208e-05
8.92759e-05
8.87255e-05
3.82695e-05
9.33392e-05
0.00495404
4.36409e-05
8.41653e-05
7.52937e-05
9.21899e-05
0.000182354
0.000136215
9.03252e-05
8.82573e-05
0.0426216
5.6789e-05
9.04971e-05
6.17806e-05
7.70313e-05
4.79878e-05
9.78121e-05
8.81717e-05
8.28575e-05
7.74579e-05
7.10906e-05
8.4415e-05
5.08774e-05
5.61351e-05
0.00385453
0.000282897
5.24773e-05
7.31931e-05
7.1282e-05
5.30505e-05
9.01564e-05
7.99083e-05
4.75898e-05
0.00143733
9.11177e-05
0.0386379
5.33054e-05
5.25658e-05
8.76391e-05
7.81944e-05
0.0380531
8.26649e-05
0.000100453
9.18186e-05
0.00110199
6.1268e-05
8.38256e-05
0.0409655
6.441e-05
6.11233e-05
4.43328e-05
5.71754e-05
5.83218e-05
7.18031e-05
0.0373221
5.50622e-05
8.86757e-05
7.44482e-05
8.58669e-05
0.0333537
5.29668e-05
8.35385e-05
0.00797105
9.92846e-05
9.0834e-05
9.59148e-05
6.15327e-05
0.00730227
8.76873e-05
9.33299e-05
0.00119214
5.52778e-05
8.16402e-05
0.00762352
0.00272643
8.8941e-05
8.30754e-05
8.19276e-05
5.85422e-05
5.23475e-05
5.25462e-05
5.14293e-05
6.82718e-05
8.72432e-05
5.13406e-05
7.81738e-05
4.43676e-05
7.29892e-05
5.73639e-05
7.66962e-05
7.31291e-05
9.1571e-05
9.04409e-05
0.0190661
2.74515e-05
8.45858e-05
5.68229e-05
7.19241e-05
4.83337e-05
8.33061e-05
0.0407597
8.13196e-05
8.45569e-05
7.44099e-05
7.45143e-05
7.56128e-05
7.32461e-05
6.69162e-05
0.00877062
6.63741e-05
5.8469e-05
0.000117485
6.4744e-05
4.54921e-05
9.04842e-05
0.000293585
8.8716e-05
0.000675021
8.73072e-05
0.0367351
0.035362
5.95705e-05
9.39316e-05
6.50728e-05
8.84177e-05
0.00135408
6.05241e-05
0.0367412
5.5526e-05
8.51196e-05
7.34101e-05
0.016814
7.74745e-05
0.000608209
9.41271e-05
8.08861e-05
0.00208116
7.80673e-05
0.000163312
7.86161e-05
0.0337962
0.000226556
0.0392709
0.00022563
7.1217e-05
0.000111554
0.00012556
0.00995365
8.34509e-05
8.67764e-05
8.70339e-05
7.87012e-05
6.96241e-05
0.0094056
8.82809e-05
0.000103475
9.08205e-05
9.16354e-05
7.81507e-05
9.15395e-05
5.98828e-05
8.19166e-05
0.000188819
5.3467e-05
0.0223079
7.79003e-05
0.00115232
7.94003e-05
8.57056e-05
7.8981e-05
7.91758e-05
5.12404e-05
0.000105559
7.28201e-05
0.00114618
5.2012e-05
0.000592201
0.0097772
0.00185649
0.0306408
6.82357e-05
9.30663e-05
5.12599e-05
7.08547e-05
7.79431e-05
5.34811e-05
0.000465477
0.000992341
6.79818e-05
7.98502e-05
6.09448e-05
6.02692e-05
8.19721e-05
0.0380689
0.0103554
8.89025e-05
8.16749e-05
7.80601e-05
7.61733e-05
6.34687e-05
0.0260849
0.00061181
7.51483e-05
8.86859e-05
6.00102e-05
6.39699e-05
8.6621e-05
4.97346e-05
0.036243
0.0363756
0.000670694
6.95681e-05
5.07549e-05
5.73752e-05
5.93678e-05
0.000216002
9.3312e-05
8.88002e-05
9.11397e-05
0.000339062
0.0284155
7.00744e-05
6.47363e-05
8.11951e-05
8.76289e-05
0.0141405
0.000117783
8.9581e-05
5.42302e-05
0.0194711
9.65829e-05
0.0114728
0.000420142
7.35531e-05
7.83434e-05
5.39023e-05
9.03606e-05
6.92332e-05
4.42938e-05
8.86536e-05
5.66893e-05
0.000904507
5.35825e-05
7.20995e-05
0.000251148
8.11581e-05
0.00012365
8.54421e-05
6.46554e-05
7.29759e-05
6.06225e-05
0.0354426
8.82238e-05
6.74412e-05
8.26381e-05
6.07958e-05
5.14161e-05
5.62113e-05
8.77496e-05
7.50052e-05
8.11785e-05
0.000118706
0.0246088
6.43095e-05
7.56211e-05
7.87368e-05
7.03682e-05
6.10953e-05
6.24067e-05
7.8686e-05
6.99521e-05
8.73283e-05
9.03046e-05
6.25986e-05
5.8965e-05
8.61815e-05
0.00025567
0.0112604
0.0068169
5.90444e-05
8.63694e-05
6.79431e-05
9.38625e-05
7.37879e-05
7.55127e-05
6.33321e-05
9.13193e-05
5.35863e-05
8.87058e-05
7.99623e-05
5.53414e-05
9.07265e-05
8.1618e-05
0.00751984
7.77783e-05
8.16146e-05
5.92023e-05
0.00304716
7.67431e-05
6.67915e-05
5.91449e-05
6.46231e-05
0.000168304
6.32544e-05
6.38901e-05
5.30763e-05
0.00097545
6.30434e-05
8.6577e-05
7.03089e-05
9.38321e-05
5.52967e-05
0.000873863
8.13467e-05
8.13095e-05
0.000133842
9.1966e-05
8.63859e-05
6.25114e-05
8.17851e-05
0.0113552
0.00267926
7.10942e-05
0.000105034
9.99056e-05
9.39066e-05
5.31764e-05
5.1362e-05
0.000111443
0.00273834
6.55325e-05
8.15731e-05
0.00374665
8.2739e-05
9.14807e-05
0.0314374
5.29408e-05
7.77506e-05
8.91661e-05
7.91991e-05
7.8043e-05
6.37243e-05
8.98483e-05
0.0106894
7.94192e-05
6.04274e-05
8.82244e-05
8.14509e-05
7.62035e-05
7.75374e-05
8.58583e-05
0.0361468
0.0324278
8.19463e-05
8.16594e-05
0.000127088
5.30379e-05
9.28313e-05
4.4919e-05
7.80941e-05
7.40955e-05
7.99341e-05
8.19784e-05
4.412e-05
9.0632e-05
8.65021e-05
8.40174e-05
7.90479e-05
8.5676e-05
8.8266e-05
9.06884e-05
0.0337472
5.46982e-05
5.08045e-05
9.89141e-05
6.41892e-05
7.76571e-05
7.07435e-05
8.63295e-05
0.000102596
0.039455
6.08117e-05
0.000585698
7.25184e-05
8.72876e-05
8.92555e-05
7.65425e-05
5.73355e-05
8.50393e-05
8.39029e-05
0.00855103
9.09116e-05
5.90751e-05
7.72033e-05
7.79125e-05
8.81928e-05
8.20214e-05
0.000112199
8.17719e-05
6.90503e-05
5.44837e-05
9.10644e-05
7.1303e-05
9.47312e-05
0.00079317
5.80941e-05
6.2235e-05
9.06528e-05
0.0141492
7.09834e-05
6.20757e-05
9.83278e-05
7.93903e-05
0.000145989
8.49429e-05
7.15148e-05
5.86491e-05
7.33388e-05
6.8836e-05
7.81691e-05
5.68998e-05
0.00876886
9.56811e-05
0.000105445
9.63186e-05
8.84668e-05
7.77648e-05
9.24963e-05
8.56225e-05
6.44718e-05
0.00423286
7.63287e-05
9.02724e-05
0.0148629
8.614e-05
8.98354e-05
8.73536e-05
7.20788e-05
0.00350935
8.89771e-05
0.00791777
7.95179e-05
6.49398e-05
4.41708e-05
9.19677e-05
7.42192e-05
0.00928478
5.08426e-05
0.000109588
8.73201e-05
4.45776e-05
0.00352685
9.00024e-05
8.90633e-05
0.000221268
8.20038e-05
5.40716e-05
7.82961e-05
6.25993e-05
0.000112866
7.64923e-05
9.1961e-05
7.77726e-05
8.96655e-05
6.181e-05
7.79572e-05
6.78187e-05
0.0368058
8.34564e-05
0.00342558
0.000243043
8.80024e-05
8.15066e-05
9.78395e-05
7.64411e-05
9.30551e-05
6.66469e-05
0.00738357
5.68252e-05
9.26386e-05
6.90814e-05
0.0116572
0.00014427
0.0100359
6.54765e-05
6.56437e-05
7.71306e-05
0.015115
0.000177307
8.37426e-05
0.00292994
0.000222067
9.65097e-05
8.43493e-05
0.0129733
0.00672849
8.32409e-05
5.90294e-05
8.84409e-05
6.36248e-05
6.13148e-05
0.0115253
8.58427e-05
7.26822e-05
9.84041e-05
9.35218e-05
7.35106e-05
9.41467e-05
7.36151e-05
6.1013e-05
8.14041e-05
8.18669e-05
7.79682e-05
0.0302674
0.000128752
7.69683e-05
5.98262e-05
8.51746e-05
6.36645e-05
0.0035281
6.11236e-05
0.00244385
5.34272e-05
7.34762e-05
0.000221527
8.39495e-05
8.59652e-05
7.60025e-05
6.40383e-05
8.78377e-05
7.94445e-05
8.52337e-05
7.45455e-05
0.000127679
9.87511e-05
8.87995e-05
8.6541e-05
0.000164007
0.0297179
0.000245907
0.00715066
7.27215e-05
6.21886e-05
8.21016e-05
7.54278e-05
5.0312e-05
5.53345e-05
0.0435488
0.000762028
9.1755e-05
0.00325282
6.25276e-05
8.78904e-05
8.48694e-05
0.043875
5.23466e-05
8.8387e-05
4.87049e-05
8.63186e-05
0.00262899
0.000119874
0.00611269
5.39759e-05
7.55651e-05
5.99856e-05
7.15421e-05
0.0326028
5.96726e-05
5.27088e-05
8.04922e-05
9.47949e-05
5.63976e-05
8.051e-05
7.36104e-05
0.00143389
8.17291e-05
6.06019e-05
8.66443e-05
7.46564e-05
0.000233977
5.71546e-05
5.96046e-05
8.05586e-05
0.000180413
6.88877e-05
8.35204e-05
5.81822e-05
9.21539e-05
5.25578e-05
8.72394e-05
8.63249e-05
6.57057e-05
0.00764706
0.000674047
9.00376e-05
5.53706e-05
0.000100878
8.62175e-05
8.11058e-05
7.54166e-05
0.00473819
6.66577e-05
0.000625559
8.87725e-05
7.76584e-05
7.95848e-05
9.40434e-05
0.00205785
7.23608e-05
8.34951e-05
6.75724e-05
0.00015843
8.94589e-05
0.000117958
0.0394978
8.54071e-05
8.78062e-05
8.97702e-05
7.99107e-05
9.21983e-05
6.79197e-05
5.87549e-05
8.14534e-05
8.09935e-05
8.41061e-05
6.06041e-05
8.96137e-05
5.06085e-05
8.04525e-05
0.00639512
0.000106285
8.18241e-05
5.91389e-05
8.07447e-05
0.00633658
0.00301067
8.08458e-05
0.00188538
8.62918e-05
0.0363979
6.0437e-05
7.62055e-05
8.96334e-05
0.00088753
7.47377e-05
7.47316e-05
6.81065e-05
9.42063e-05
6.95909e-05
8.47044e-05
8.44487e-05
4.35684e-05
5.91742e-05
0.00013208
6.21518e-05
4.31508e-05
0.0243982
6.52489e-05
8.31796e-05
0.00416963
8.74773e-05
0.0019736
5.07947e-05
8.83348e-05
4.97888e-05
9.00217e-05
8.93476e-05
8.96986e-05
0.003054
7.41071e-05
9.50774e-05
6.60704e-05
8.00913e-05
6.9733e-05
7.1425e-05
5.07902e-05
8.87368e-05
5.05793e-05
4.99797e-05
5.72855e-05
8.21466e-05
0.000488892
0.00359671
0.00010411
7.28445e-05
7.3042e-05
8.27283e-05
5.59438e-05
0.000146273
9.24418e-05
6.61117e-05
6.90964e-05
0.000100782
0.00322029
8.90634e-05
7.22278e-05
0.000118871
7.31784e-05
5.47419e-05
0.00197056
6.86134e-05
0.0343293
0.000101555
6.57806e-05
0.0152908
8.87553e-05
6.64314e-05
7.89833e-05
9.5073e-05
8.82703e-05
0.02501
0.00120072
0.00166176
5.17407e-05
7.9152e-05
0.00477112
7.4729e-05
8.85163e-05
0.000259061
5.59471e-05
7.06542e-05
0.00857032
0.000103115
9.51096e-05
9.50466e-05
5.15122e-05
8.99593e-05
8.9925e-05
0.0301976
0.000374027
0.000121492
5.12103e-05
6.64952e-05
0.0013393
6.64673e-05
8.83867e-05
5.55731e-05
7.42578e-05
0.000101135
8.7206e-05
5.46474e-05
6.96066e-05
0.000110656
6.98446e-05
8.97714e-05
8.18662e-05
5.97522e-05
7.08059e-05
6.33931e-05
0.0238734
0.00684189
5.04705e-05
0.00711147
0.000101209
0.00186955
0.0239316
0.000100784
0.000134572
4.43537e-05
7.94332e-05
8.91363e-05
8.97027e-05