/*--------------------------------*- C++ -*----------------------------------*\
| =========                 |                                                 |
| \\      /  F ield         | OpenFOAM: The Open Source CFD Toolbox           |
|  \\    /   O peration     | Version:  v2012                                 |
|   \\  /    A nd           | Website:  www.openfoam.com                      |
|    \\/     M anipulation  |                                                 |
\*---------------------------------------------------------------------------*/
FoamFile
{
    version     2.0;
    format      ascii;
    class       volVectorField;
    location    "150";
    object      U;
}
// * * * * * * * * * * * * * * * * * * * * * * * * * * * * * * * * * * * * * //

dimensions      [0 1 -1 0 0 0 0];


internalField   nonuniform List<vector> 
33474
(
(1.03134 0.000557663 -2.86418e-21)
(1.02636 -6.99726e-05 -1.29243e-22)
(1.02966 -0.0391941 0)
(1.01675 -0.0012652 -8.747e-22)
(1.03961 -0.0225086 -2.57016e-21)
(1.0217 -0.00671313 -1.91854e-21)
(1.01102 -0.00067953 -4.04073e-22)
(1.02032 -1.47779e-05 1.7667e-21)
(1.00917 -8.62582e-05 0)
(0.968651 -0.0691928 2.12361e-21)
(1.01883 -0.00572092 4.04187e-22)
(1.02383 -0.00739184 1.20375e-21)
(1.01095 -0.000641904 9.98643e-23)
(1.04096 -0.0204779 -2.13716e-21)
(1.03889 0.00103913 -4.83939e-21)
(1.01282 -0.00099477 -9.6207e-23)
(1.0075 -4.43208e-05 0)
(1.0573 -0.0526756 0)
(1.03399 -0.00794011 0)
(1.0173 -0.00431844 0)
(1.06578 -0.037238 -4.1325e-21)
(1.0045 0.0238917 0)
(1.01656 -0.000322497 0)
(1.03101 0.000717627 0)
(1.01649 -0.000371722 -2.21987e-21)
(1.02403 -0.00755759 -1.24242e-21)
(1.0152 -0.00242022 0)
(1.05436 -0.0295596 -5.0826e-21)
(1.00708 0.0259427 9.17007e-22)
(1.01064 -0.000313265 0)
(1.01282 -0.000339222 0)
(1.01783 -0.00245087 0)
(1.02832 -0.0103385 -1.59354e-23)
(1.05634 -0.0524591 3.07566e-21)
(1.01412 -0.000916047 1.08204e-22)
(1.01802 -0.00546749 0)
(0.768769 -0.0133832 0)
(1.0107 0.00710953 9.53432e-23)
(1.02344 -0.00727965 -1.19227e-21)
(1.04443 -0.0163172 -6.23252e-21)
(1.01921 -0.00682246 -5.20702e-22)
(1.01059 -0.000302763 -2.78013e-23)
(1.01101 0.00602886 0)
(1.00282 7.24489e-06 2.8927e-23)
(0.862257 -0.0707845 2.05464e-22)
(1.03007 -0.0595517 -2.39056e-21)
(0.946915 0.00605314 1.48458e-23)
(1.05859 -0.012309 0)
(1.03598 -0.0611541 0)
(1.01429 -0.00100649 5.00172e-23)
(1.03238 -0.00965877 -3.60631e-21)
(1.01561 -0.00225674 8.14231e-23)
(1.02648 -0.0162531 -2.99842e-23)
(1.01103 -0.000701491 -3.32669e-22)
(1.01929 -0.00326546 -3.73891e-22)
(1.05365 -0.0295262 0)
(1.01947 -0.00334515 0)
(1.04725 -0.0396596 0)
(1.04407 -0.0160298 7.55609e-21)
(1.03381 -0.00763854 0)
(1.02004 -0.00334958 -1.18316e-22)
(0.958251 -0.000772648 0)
(0.797998 -0.0199377 0)
(1.01351 0.0100707 -2.67097e-23)
(1.01544 -0.00422954 0)
(1.02498 -0.00309213 -3.97693e-22)
(1.01084 -6.2658e-05 -8.39003e-23)
(0.724557 -0.0624534 0)
(1.0157 -0.00208611 -8.18267e-23)
(1.03786 -0.0155258 -3.69517e-21)
(0.93514 -0.00849222 6.50021e-23)
(0.957517 0.00151432 0)
(1.01453 0.0124116 0)
(1.01517 -0.00441126 -2.75626e-23)
(1.00291 -0.00920932 0)
(1.01553 -0.00427336 -5.02039e-24)
(0.989949 0.0213499 3.88366e-22)
(1.02614 -0.00263166 0)
(1.04092 -0.0209517 2.0896e-21)
(1.02633 -0.0220368 9.91409e-22)
(0.818859 -0.0232141 -5.59876e-22)
(1.024 -0.00714858 0)
(0.969266 0.0173638 0)
(1.0143 -0.000957813 4.55031e-23)
(1.05881 -0.0129421 -5.16213e-21)
(1.01405 -0.000816681 5.412e-23)
(1.06472 -0.0381929 3.05875e-21)
(0.589139 -0.0608974 -1.05393e-21)
(1.09544 -0.0572547 1.08e-21)
(1.01071 -6.11193e-05 -7.62744e-24)
(1.01797 -0.0025295 1.02552e-21)
(1.01488 -0.00116938 0)
(1.02656 -0.0165652 2.67444e-23)
(1.01861 -0.00554821 -5.52418e-22)
(1.01106 -0.000713089 3.52139e-24)
(1.05826 -0.0133592 1.04334e-20)
(1.05535 -0.019002 -8.8468e-21)
(1.03829 -0.0155377 1.93025e-22)
(1.01578 -0.00208167 4.81422e-23)
(1.02307 -0.00160065 -7.05387e-24)
(1.06452 -0.0389065 -4.54718e-21)
(0.980264 0.0153571 -8.19447e-23)
(1.02356 0.000257898 1.32024e-21)
(1.0089 -0.0373766 3.11559e-22)
(1.01378 -0.00061117 1.204e-24)
(1.01088 -3.43174e-05 0)
(1.02588 -0.00257476 1.0291e-21)
(1.01726 -7.87723e-05 -9.65849e-22)
(1.01589 -0.00195209 0)
(1.01047 -0.000267901 0)
(1.03061 0.000580414 -2.42907e-21)
(1.01088 -5.41645e-05 6.90627e-23)
(1.02791 -0.0093584 2.04195e-22)
(1.01945 -0.00590116 2.98394e-22)
(1.06978 -0.0328366 -3.69013e-21)
(1.07038 -0.0213852 -8.20275e-21)
(1.01987 -0.00332039 0)
(1.02881 -0.0415248 1.41116e-21)
(1.02292 -0.0151436 -2.27461e-22)
(1.01091 -0.000611335 0)
(1.02586 -0.0171538 0)
(1.02588 -0.0085966 -4.84782e-22)
(1.01921 -0.0033176 3.71744e-22)
(1.01424 -0.000822117 5.19041e-23)
(1.05933 -0.0118927 0)
(1.01743 -0.00443485 0)
(1.01081 -0.000132129 4.0697e-22)
(1.04641 -0.0394135 0)
(1.02877 -0.0405567 1.32628e-21)
(1.04974 -0.0166284 0)
(1.01437 -0.00188328 -7.90196e-23)
(1.03771 -0.0158667 3.86364e-21)
(1.0252 -0.00777758 0)
(0.808288 -0.0244296 5.05291e-22)
(1.03883 0.00065944 4.88735e-21)
(1.01613 0.0141081 -1.68707e-24)
(1.02316 -0.0358437 -4.11426e-23)
(0.872078 -0.0340468 -1.07462e-22)
(1.02383 -0.00301464 6.92919e-22)
(1.02974 -0.0400509 -1.66192e-21)
(1.02482 -0.00238143 2.36055e-21)
(1.0234 0.00560677 0)
(1.01004 -9.87593e-05 -1.3081e-24)
(1.01932 -0.00584883 -9.76238e-22)
(1.02039 -0.00115118 0)
(1.02462 0.0012965 -1.40722e-21)
(0.973433 -0.0442978 -9.51529e-23)
(0.968614 -0.00586101 -2.30318e-24)
(1.01536 0.0130978 0)
(1.01382 0.0134121 -3.3011e-23)
(1.01671 0.0141745 0)
(1.0188 -0.00575557 3.19257e-23)
(1.02274 -0.0149681 0)
(1.01779 -0.00634095 6.40886e-23)
(1.07019 -0.0208631 0)
(1.02143 -0.00743419 -8.64758e-22)
(1.05219 -0.00411421 -3.38566e-21)
(1.01902 -0.0032335 1.66077e-21)
(1.02966 0.000832324 -3.65647e-23)
(1.01537 0.0145944 3.73756e-23)
(1.0427 -0.0474162 1.06791e-22)
(1.02317 0.00641528 -2.17235e-23)
(1.02795 -0.0110676 -3.00028e-23)
(0.986373 -0.0172661 -9.19366e-22)
(1.05732 -0.010053 -5.32461e-21)
(1.01959 -0.0378342 0)
(1.01399 -0.00181062 -1.28829e-22)
(1.03403 -0.0621844 -1.73807e-21)
(1.03244 -0.00990088 -4.12882e-21)
(1.05925 -0.0114291 -1.81747e-21)
(1.07462 -0.050266 8.29014e-21)
(1.01147 -0.000762848 1.57965e-22)
(1.10037 -0.0563086 -9.48227e-21)
(1.01046 -0.000262041 0)
(1.02524 -0.00220932 -2.84906e-21)
(0.961538 -0.0705788 3.97464e-21)
(1.02309 0.000616699 -2.42732e-21)
(1.02516 0.00170249 1.3874e-22)
(0.947577 0.00880816 0)
(1.01437 -0.00192575 8.19024e-23)
(1.01445 -0.00199906 -5.15423e-23)
(1.03034 0.000789893 2.44246e-21)
(1.01439 -0.00104439 0)
(1.012 -0.0103247 -1.58014e-23)
(1.02023 -0.00113396 -9.56622e-22)
(0.602059 -0.0621886 9.65978e-22)
(0.851714 0.0230637 0)
(1.01958 -0.00329466 0)
(1.01776 -9.02029e-05 2.96604e-21)
(1.01892 -0.00567279 0)
(1.02143 -0.000368977 -1.02846e-21)
(1.02995 0.000653545 3.16572e-21)
(1.0135 0.0116833 3.18984e-24)
(0.98981 -0.00620729 -2.67744e-23)
(0.913259 0.0087692 0)
(1.01583 -0.00036085 -3.96182e-22)
(0.987494 -0.015441 6.12825e-22)
(1.03427 -0.037946 0)
(1.01171 0.0117843 9.03894e-23)
(1.01345 -0.00198977 -4.45141e-24)
(1.0182 -0.00567808 0)
(1.01364 -0.0103561 0)
(1.00204 0.0184975 6.67195e-26)
(1.02859 -0.0185975 4.38466e-22)
(1.06804 -0.0373392 0)
(1.01508 -0.00237103 0)
(1.01396 -0.00178849 0)
(1.06567 -0.0380079 1.29573e-21)
(1.01948 -0.00573771 0)
(0.61343 -0.0610194 0)
(1.00261 0.0185495 -6.81589e-24)
(1.01346 0.000148424 0)
(1.02568 -0.0171788 7.30675e-22)
(1.07078 -0.0195584 -1.22798e-20)
(1.01346 0.000135223 0)
(1.07379 -0.0503893 -7.38623e-21)
(1.01841 -0.00553641 9.45048e-22)
(0.932648 0.00984137 1.14698e-21)
(0.826917 -0.0172505 0)
(1.01913 -0.00676547 1.45276e-21)
(1.01951 -0.00581654 -6.35733e-22)
(1.01814 -0.00562941 -3.96765e-22)
(1.01871 -0.006205 -1.25746e-23)
(1.06802 -0.0366065 0)
(1.00947 -7.12376e-05 2.47081e-25)
(1.05192 -0.0135092 0)
(0.970999 -0.00521161 -5.98131e-24)
(1.02656 -0.0224174 1.82767e-22)
(1.01619 -0.00186119 0)
(1.05144 -0.0137413 0)
(0.853781 -0.0210484 2.09226e-22)
(1.0131 -0.00176047 -3.60528e-22)
(1.01107 -0.000732234 4.93977e-22)
(1.0113 -0.000687997 2.29274e-22)
(1.01373 -0.000813995 -7.28975e-23)
(0.988759 -0.0373099 0)
(1.05785 -0.0102036 5.24151e-21)
(1.01458 -0.000217183 0)
(1.01009 -0.00018112 -6.87921e-22)
(1.04261 -0.0111059 0)
(1.0216 -0.00714602 1.00761e-21)
(1.06245 -0.0404681 0)
(1.01076 -0.00565171 -1.48098e-24)
(1.02558 -0.0170075 0)
(1.07221 -0.0329107 0)
(1.01285 -0.00096995 1.77366e-24)
(1.01791 -0.00538202 0)
(1.01866 -0.00443077 7.39778e-23)
(1.025 -0.0165927 3.59278e-22)
(1.02511 -0.0164838 -3.77027e-22)
(1.05753 -0.0154348 -1.09559e-20)
(1.02546 -0.00234889 0)
(1.07158 -0.030517 5.09104e-21)
(1.01415 -0.00190885 2.19978e-22)
(1.02487 0.00121278 1.57335e-21)
(1.01619 -0.00191093 0)
(0.880064 -0.0336308 -2.66829e-22)
(1.01596 -0.00197645 0)
(1.0617 -0.0403991 0)
(0.944085 -0.069502 -2.62134e-21)
(0.935918 -0.00555081 0)
(1.01108 -0.00529797 0)
(1.01829 -0.000106008 9.93694e-22)
(0.969937 -0.0425497 1.29438e-21)
(1.01247 -0.000175527 7.27045e-22)
(1.01369 -0.000853767 0)
(0.930923 0.00699065 -6.48011e-22)
(0.937814 -0.0103679 0)
(0.935251 -0.010164 0)
(1.01863 -0.00614735 -4.913e-22)
(1.02507 -0.0185951 -7.19634e-22)
(1.02559 -0.0129113 0)
(1.04989 -0.0171963 0)
(1.01627 -0.000393008 9.89334e-22)
(1.01356 -0.000886256 4.31365e-23)
(1.01957 -0.00564658 -1.38001e-21)
(1.02646 -0.012425 1.73539e-21)
(1.01546 -0.00293481 -7.76297e-23)
(1.02972 0.00112718 0)
(1.0179 -0.00043278 -2.48451e-21)
(1.0427 -0.0103437 4.58111e-21)
(1.00886 -5.77449e-05 0)
(1.0423 -0.0113138 4.04619e-21)
(1.01892 -0.00327138 9.79845e-22)
(1.01504 -0.00123732 0)
(1.01686 -0.0044744 -8.08479e-23)
(1.01606 -0.00187479 -3.52955e-23)
(1.00949 -4.34451e-05 1.31358e-23)
(1.07295 -0.0303781 1.62991e-20)
(0.912105 -0.0285898 1.18559e-23)
(1.00696 -0.0446813 -5.45325e-23)
(1.00824 -5.90017e-05 -9.59351e-23)
(0.991299 -0.0353718 0)
(1.02534 -0.0185876 0)
(1.01933 0.000835616 3.6441e-22)
(1.01038 -0.0371997 0)
(0.960087 -0.0714336 5.49968e-21)
(1.06901 -0.0223852 -4.17957e-21)
(1.01797 -0.00318662 -6.38226e-24)
(1.04237 -0.0105241 0)
(1.02624 -0.0123564 -1.64127e-21)
(1.01313 0.00137242 0)
(1.01137 -0.0437972 -1.09596e-22)
(1.01546 -0.00283425 0)
(1.01287 4.9961e-05 -2.11091e-23)
(1.01344 -0.00196817 1.99484e-22)
(1.01273 2.99047e-05 4.46497e-24)
(1.06985 -0.0222342 1.21137e-20)
(1.03366 -0.0375555 -2.32721e-21)
(0.786258 -0.0699514 -2.88286e-21)
(1.02539 -0.0128799 0)
(1.01788 -0.00320966 -1.27006e-21)
(1.01063 -5.96572e-05 7.57199e-24)
(1.02916 -0.0613399 1.78606e-21)
(0.984684 -0.00843848 -1.06688e-21)
(0.85606 0.0257857 7.52289e-23)
(0.812991 -0.0712944 2.39162e-21)
(1.07222 -0.0301292 -6.18381e-21)
(1.0213 -0.000269062 1.94937e-21)
(1.02049 -0.0647899 -2.31862e-21)
(1.01555 -0.00180782 0)
(1.01316 -0.00175404 -3.12945e-22)
(0.631535 -0.0622115 1.69904e-21)
(1.01442 -0.00196482 0)
(1.03265 -0.00918621 -3.91839e-21)
(1.02431 0.00157138 -7.94834e-22)
(0.953859 0.0175698 0)
(1.01449 -0.0108645 0)
(1.02032 9.50328e-05 0)
(1.01316 -0.00411924 1.57135e-24)
(1.01841 -0.000579367 1.33513e-24)
(1.0252 -0.0174223 2.86506e-22)
(1.05608 -0.0188245 -8.35485e-23)
(1.01165 -0.0380269 -2.64849e-22)
(1.01252 -0.0039371 0)
(1.01935 -0.00597355 1.00488e-21)
(0.993087 0.0164979 -7.14698e-24)
(1.01248 -1.94731e-05 -1.36261e-23)
(1.01235 -2.85179e-05 1.41899e-23)
(1.01368 0.00339824 0)
(1.01831 -0.00240773 -1.04257e-21)
(1.0364 -0.0387598 5.99736e-21)
(1.00345 0.0107647 -1.45781e-22)
(0.94698 0.00731494 1.26472e-24)
(1.08831 -0.0454943 9.85041e-21)
(1.00991 -0.00027461 1.40407e-22)
(1.01565 -0.00381015 -2.24536e-22)
(1.02461 -0.0166904 -8.23235e-22)
(1.02707 -0.0165742 -2.06421e-22)
(1.05768 -0.0160922 9.65916e-21)
(1.01846 -0.00580598 -1.38404e-22)
(1.00986 -0.000262067 3.39958e-25)
(1.07098 -0.0201799 0)
(1.06908 -0.0234542 -8.88381e-21)
(1.02185 -0.006878 3.14364e-21)
(1.00925 -2.16792e-05 2.51748e-24)
(1.01876 -0.00620605 0)
(1.01413 -0.00188297 -1.87606e-22)
(1.01122 -1.79369e-05 -1.88792e-23)
(0.935269 0.0112927 5.37845e-23)
(1.02017 -0.00343264 -9.84633e-22)
(0.941343 0.0105809 0)
(1.02517 0.000883224 0)
(1.03036 -0.0134506 1.68074e-21)
(1.01881 -0.0056373 0)
(1.02518 -0.0167532 0)
(1.0113 -0.000678905 0)
(1.02261 -0.0144725 0)
(1.01526 -0.00340718 -1.06632e-22)
(1.00605 0.0103676 1.81269e-22)
(1.01213 -6.0845e-05 0)
(1.012 -6.23505e-05 -1.04708e-23)
(1.01286 -0.00118539 -6.76545e-23)
(1.01656 -0.028101 0)
(1.02105 -0.000322521 0)
(1.06848 -0.0236197 1.31227e-20)
(1.01886 -0.0058798 -1.43943e-22)
(1.02607 -0.0124875 -2.02836e-22)
(1.01961 -0.00574623 0)
(0.876407 -0.0705424 0)
(1.00827 -4.49436e-05 -2.37227e-23)
(0.986825 -0.0065447 3.01724e-23)
(1.01281 -0.00117455 6.15157e-23)
(1.0182 -0.00233311 3.78815e-22)
(1.05341 -0.0303867 2.37206e-21)
(1.00825 -6.39062e-05 -3.48031e-23)
(1.03465 -0.0147375 5.10585e-23)
(1.01926 -0.0059414 -3.38796e-22)
(1.0239 -0.0166365 1.80597e-22)
(1.03387 -0.00710355 0)
(1.01579 -0.00380479 0)
(1.02303 -0.035976 0)
(1.01519 0.00106486 -1.05858e-24)
(1.01539 0.00121843 -1.63852e-23)
(1.03015 -0.013176 -2.21759e-24)
(1.02513 -0.0253235 1.45811e-21)
(1.01978 0.000501559 0)
(1.01308 -0.00173967 -1.148e-22)
(1.01146 -0.000752293 1.64029e-22)
(1.01958 -0.00310538 -1.79148e-21)
(1.02396 -0.00584453 0)
(1.02508 -0.0169458 0)
(1.01334 -0.00190921 -4.61335e-22)
(1.01685 -0.00132254 -9.97451e-22)
(1.05578 -0.0534634 3.35245e-21)
(1.00997 -9.85156e-05 1.67567e-24)
(1.03415 -0.0387271 0)
(1.03564 -0.0604688 0)
(0.756312 -0.0307695 0)
(1.01328 0.00154096 0)
(1.02477 -0.0109623 0)
(1.01367 -0.00033799 0)
(1.01895 -0.000666405 0)
(1.01544 -0.00353183 -2.21405e-22)
(1.02093 -0.00024333 6.89225e-22)
(1.01164 -0.000854054 -2.39435e-22)
(0.497324 -0.0364077 6.46815e-21)
(1.01659 0.00118001 1.8082e-23)
(1.00913 -3.96255e-05 5.55307e-24)
(1.05846 -0.0139788 -4.2822e-21)
(1.01169 -0.000875191 3.85675e-22)
(1.02608 -0.0126005 1.97159e-21)
(1.01703 -0.00494975 -6.16004e-22)
(1.01672 0.00104684 0)
(1.01894 -0.00074336 0)
(1.0327 -0.00949956 1.92053e-21)
(0.992932 0.000370954 0)
(1.02604 -0.0178145 -8.41394e-22)
(1.01653 -0.00115075 -4.85226e-22)
(1.01538 -0.00349542 4.376e-22)
(1.01112 -0.000670633 0)
(0.835472 -0.0303365 -9.13977e-22)
(1.01697 -0.00487753 -6.86465e-24)
(0.99278 -0.000608865 0)
(1.03578 -0.0132077 0)
(1.01551 -0.0115211 1.17972e-22)
(1.01978 0.000605165 2.81944e-21)
(1.02714 -0.0169975 4.4159e-22)
(1.02828 -0.0118339 3.11455e-23)
(1.0111 -5.04284e-05 0)
(1.01395 -0.00156007 -1.39614e-22)
(1.02384 -0.0116431 -4.64644e-23)
(1.01109 -0.00063141 -2.0095e-22)
(1.00912 -0.000541671 -1.23269e-23)
(1.01103 -6.67868e-05 -6.11792e-24)
(1.03407 -0.00736986 0)
(1.00936 -3.516e-05 3.93765e-23)
(1.02365 -0.00742623 1.27203e-21)
(1.01767 -0.00455061 2.3321e-22)
(0.988806 -0.0016132 0)
(0.757649 -0.0277141 0)
(1.01688 -0.0129964 -2.99745e-22)
(1.0084 -5.98364e-05 0)
(1.01642 -0.00109152 0)
(1.01449 -0.0111479 -7.32006e-22)
(0.988511 -0.00268715 4.34671e-23)
(0.981067 0.00729206 -2.283e-22)
(0.984698 0.0077618 0)
(1.02509 -0.00995227 -1.29936e-21)
(1.0118 -7.99497e-05 1.95381e-23)
(1.02588 -0.0165239 1.64422e-21)
(1.03453 -0.0145546 -2.40369e-21)
(1.02341 -0.00578143 1.25786e-21)
(1.01504 -0.00282042 -1.61587e-22)
(0.961011 0.00308831 -5.84053e-23)
(1.01585 -0.00278097 -7.41897e-22)
(1.01168 -7.69001e-05 0)
(1.02705 -0.00906634 -5.86122e-22)
(1.01272 -0.00213278 4.94667e-22)
(1.01872 -0.0056651 5.58489e-22)
(0.616133 -0.0618692 -1.69785e-21)
(1.01083 -0.000377515 -6.0166e-23)
(1.03121 -0.00525594 0)
(1.0182 -0.00222494 -1.77757e-24)
(1.00904 -1.8136e-05 0)
(1.0251 -0.00184001 -1.29265e-21)
(1.01289 -0.00131944 0)
(1.0146 -0.00106126 -7.51879e-23)
(0.810782 -0.0416108 0)
(1.01718 -0.0133362 1.91063e-22)
(1.01794 -0.021234 7.15669e-23)
(0.921603 -0.00947239 -6.341e-23)
(0.921237 -0.0120722 0)
(1.01867 -0.00630098 6.29492e-22)
(1.01574 -0.0112429 0)
(1.01006 -0.000131675 -4.36052e-22)
(0.692186 -0.0551281 2.02454e-20)
(1.03542 -0.0132058 -2.46029e-21)
(1.01286 -0.00162867 0)
(1.01362 -0.000486944 -1.17783e-24)
(0.918698 -0.0147575 -9.79808e-23)
(0.918758 -0.0128323 -1.95858e-23)
(1.0432 -0.0177587 -5.29833e-21)
(0.690555 -0.0651961 1.68478e-21)
(1.01317 0.00371924 0)
(1.01831 -0.00221438 0)
(1.0149 0.00486598 -1.57638e-24)
(1.01246 -0.000695721 6.19653e-23)
(1.01859 -0.00570225 0)
(1.01244 -0.000680475 0)
(1.03229 -0.0103905 2.81811e-21)
(1.06015 -0.0339625 -1.06755e-20)
(1.02668 -0.0196717 4.30123e-24)
(1.01522 -0.00703717 5.75365e-22)
(1.01555 -0.00362456 0)
(1.01856 -0.00530756 3.73767e-22)
(1.02463 -0.0103509 1.02776e-21)
(0.465184 -0.0622149 3.5534e-21)
(1.01253 0.0201724 -4.74211e-22)
(1.05269 -0.0303608 -4.56033e-21)
(1.04292 -0.00915552 -4.9649e-21)
(1.01502 -0.00277139 8.88575e-22)
(1.03997 -0.0221576 4.02616e-21)
(1.04022 -0.047228 3.07085e-21)
(1.0152 0.00426002 0)
(1.02178 -0.00636851 -5.91891e-22)
(1.01663 -0.000999226 0)
(1.02632 -0.0174804 -1.34999e-23)
(1.02343 -0.00534394 -6.74373e-22)
(0.683645 -0.0674811 0)
(1.06038 -0.0333248 7.35601e-21)
(1.02051 -0.00653749 0)
(1.0138 -0.000941708 -7.33513e-23)
(1.01218 -0.00785317 0)
(1.01606 -0.012468 -2.93133e-22)
(1.01863 -0.00621878 -6.80005e-22)
(1.01406 -0.000678818 -1.94006e-22)
(1.02252 -0.00222449 1.21537e-22)
(0.482657 -0.06219 -5.63166e-21)
(1.0392 -0.0118041 0)
(1.03936 -0.0121596 7.31743e-21)
(0.989487 0.00807477 -1.19243e-23)
(1.0426 -0.00961449 -1.03144e-21)
(1.03053 -0.0126036 1.903e-24)
(1.02237 -0.014194 -6.3443e-23)
(1.02695 -0.00219651 -1.57224e-21)
(1.02488 -0.0222373 -1.10329e-21)
(1.00656 -6.57546e-05 -7.39202e-24)
(1.01564 -0.01229 1.61651e-22)
(1.01613 -0.00412151 0)
(1.01125 -1.52563e-05 3.71409e-23)
(1.00996 0.0170389 -5.8382e-22)
(1.01906 -0.00563195 -2.73271e-22)
(1.02158 -0.00760951 9.52784e-22)
(1.00999 -5.46989e-05 -3.66254e-23)
(1.01607 -0.00406359 0)
(1.01562 -0.00959837 9.18452e-23)
(0.765886 -0.0702914 0)
(1.0268 -0.00897609 -9.41898e-22)
(1.01296 -0.000368375 4.54863e-24)
(0.90585 -0.0270447 -7.55437e-23)
(1.01287 -0.0110543 8.65748e-24)
(1.01092 -0.000144309 -1.36835e-24)
(1.01314 -0.000470399 -4.44084e-23)
(0.868511 -0.0715811 -1.88465e-21)
(0.963545 -0.0443567 -9.27449e-22)
(1.01299 -0.000447095 6.1345e-23)
(1.01027 -0.00181651 5.97431e-22)
(1.02333 0.000328153 0)
(1.02526 -0.00356501 -1.05837e-21)
(1.0233 -0.0146022 9.41109e-23)
(1.04283 -0.00988874 -8.65272e-21)
(1.01859 -0.00567315 -2.50869e-22)
(0.986884 0.00815539 1.59813e-23)
(1.04268 -0.00887627 -7.1252e-21)
(1.02583 -0.0163673 -1.74583e-21)
(1.02599 -0.0173312 8.22427e-22)
(1.01686 -0.00754307 -1.14195e-22)
(1.01031 -0.000230327 0)
(1.01237 -0.0031212 0)
(1.02652 -0.0194451 1.02095e-21)
(1.02579 -0.0113709 0)
(1.0158 -0.00279709 2.13937e-22)
(1.07487 -0.0492113 0)
(1.03904 -0.0224845 4.7712e-22)
(1.02012 0.000183547 7.71275e-22)
(1.02143 -0.00700755 -9.78478e-22)
(1.01647 -0.00198293 -9.01184e-22)
(1.0452 -0.0195594 -3.01532e-21)
(1.00766 -0.0375224 -6.51762e-22)
(1.02638 -0.00718682 1.08734e-23)
(1.01263 0.00341733 0)
(1.01876 -0.00418145 -3.22585e-22)
(1.02398 -0.00694809 1.17324e-21)
(0.984385 -0.0439007 9.36635e-23)
(1.00848 -0.0680697 1.56266e-20)
(1.03081 -0.0122868 2.26635e-21)
(1.0111 -0.000754371 1.96675e-22)
(1.01398 -0.00033832 4.7165e-22)
(1.02531 -0.00995316 -3.40514e-21)
(1.0758 -0.0491679 0)
(0.952069 -0.011783 0)
(1.01335 -0.0281115 0)
(1.01154 -0.000828396 3.40928e-23)
(1.01444 -0.000334124 8.56673e-22)
(1.03163 -0.00900183 0)
(0.951695 -0.0118181 0)
(1.03553 -0.0386163 -2.29774e-21)
(1.01196 -0.00271303 0)
(1.02507 -0.00344095 -7.91641e-22)
(1.01224 -0.0045416 -4.50151e-23)
(1.01908 -0.00435152 -9.0211e-23)
(1.01541 -0.00921749 -1.0414e-22)
(1.01551 -0.00337396 9.96786e-23)
(0.948558 0.00623441 0)
(0.925452 -0.0688293 -2.80806e-21)
(1.01851 -0.00430857 0)
(1.01016 -0.000120756 0)
(1.01926 -0.00360105 -7.52223e-22)
(1.00634 0.000870988 0)
(1.03114 -0.00427168 0)
(1.01196 -0.00062971 -1.97472e-22)
(1.01091 -0.0300313 3.16153e-22)
(1.01322 0.00221688 6.2013e-23)
(0.79469 0.0348099 0)
(1.01186 0.00234944 0)
(1.01797 -0.00049192 8.10901e-22)
(1.02081 -0.00694344 0)
(1.01284 -0.000914786 1.55722e-22)
(1.01525 -0.00144569 2.09241e-23)
(1.011 -2.81848e-05 4.79882e-23)
(1.01772 -0.00311847 2.44374e-21)
(1.01219 -0.00206412 8.47186e-24)
(1.00666 0.00181801 0)
(1.02279 -0.0146707 0)
(1.01624 -0.00194301 1.82717e-22)
(1.02454 -0.00236972 -3.09021e-21)
(1.0234 -0.000444291 -1.00191e-23)
(0.830182 -0.0249907 0)
(1.01888 -0.00418889 -1.13368e-21)
(1.01235 -0.00400684 4.52817e-23)
(1.03129 -0.00407265 0)
(1.03791 -0.0194999 4.1288e-21)
(0.528 -0.0622653 -5.30672e-21)
(1.02652 -0.0686932 -6.75082e-21)
(1.01981 -0.0249976 -1.77495e-22)
(0.98044 0.00777011 1.79e-23)
(1.01697 -0.00506291 -3.25186e-22)
(1.01284 -0.00145062 0)
(0.86485 -0.0304133 5.05623e-22)
(1.01177 -0.000283458 0)
(1.02459 -0.025595 0)
(1.01177 -0.000287813 0)
(1.01042 -0.000265636 3.04177e-23)
(1.01765 -0.00314368 -1.26647e-21)
(1.01199 -0.00163049 -1.00108e-23)
(1.02038 0.00667791 -1.56535e-23)
(1.01688 -0.00501168 -3.09732e-22)
(1.02189 -0.00738648 2.03639e-22)
(1.03799 -0.0191151 0)
(0.707049 -0.0578418 -1.31143e-20)
(0.983268 -0.0418379 0)
(0.794566 0.0357355 2.08716e-22)
(1.02043 0.00774485 0)
(1.01642 -0.00209829 0)
(1.01225 -0.000750133 0)
(1.01411 -0.000657036 1.44596e-22)
(1.01635 -0.00189056 -1.85277e-22)
(1.01446 -0.00335599 -1.87598e-22)
(1.02334 0.000523854 0)
(0.876356 -0.0705504 2.85279e-21)
(0.982443 -0.00887364 0)
(1.01648 -0.00218958 -1.48998e-21)
(1.01289 -0.00146107 0)
(1.01554 -0.00133097 -4.4006e-23)
(1.01613 0.00408103 2.60476e-23)
(1.01516 0.00418526 4.06314e-23)
(1.0246 0.00152413 1.70576e-21)
(1.00476 -5.37002e-06 2.93865e-24)
(0.882642 -0.0100939 6.96303e-23)
(1.01555 -0.00387767 0)
(1.0108 -0.000136564 -2.23611e-24)
(1.03798 -0.0235214 -2.09281e-21)
(1.02392 -0.0108452 1.29893e-21)
(1.01321 -0.000530126 2.58307e-24)
(1.01307 -0.000481511 -2.09409e-23)
(0.958103 -0.0424329 -5.21875e-22)
(1.01562 0.00127307 1.02151e-24)
(1.03111 -0.0122771 9.31095e-22)
(1.02433 -0.003191 4.30916e-21)
(0.569301 -0.060643 0)
(0.851359 -0.00863966 6.85475e-22)
(1.01586 -0.0400723 0)
(0.990441 0.00272536 0)
(1.01221 -0.000271749 2.84782e-22)
(1.01912 -0.0250199 -9.74213e-23)
(1.01227 -0.00074348 1.45077e-22)
(1.01056 -0.000489133 5.50681e-25)
(1.0223 0.00853484 0)
(1.02941 0.0012955 6.43418e-22)
(0.995177 0.00268166 0)
(1.01056 -0.000491034 1.77879e-22)
(1.02426 -0.00188913 2.37667e-21)
(1.0195 0.00084799 -5.08052e-22)
(1.0162 -0.00116725 -2.69785e-24)
(0.740724 -0.0682863 0)
(1.02471 -0.00306683 0)
(0.957908 -0.023732 0)
(1.02577 -0.0508466 -1.35223e-21)
(1.01631 -0.001234 1.17448e-21)
(1.01167 -0.000103533 -3.64405e-22)
(1.01026 -0.0351274 2.74102e-23)
(1.0179 -0.000957377 0)
(1.00926 -3.3481e-05 3.94764e-24)
(1.01112 -0.000135163 0)
(1.01495 -0.00150083 0)
(1.01341 -0.000464679 -7.27004e-24)
(1.02776 -0.017069 -4.74218e-22)
(1.0102 -0.0334849 -3.31792e-23)
(1.01674 -0.0043728 -3.25831e-22)
(0.951995 -0.00791551 0)
(0.997949 -0.00990856 0)
(0.758644 -0.0608786 0)
(1.02914 -0.0137319 3.7224e-21)
(1.02265 -0.000973752 0)
(1.01295 -0.00169264 0)
(1.01233 -0.0349609 -1.52313e-24)
(1.01328 -0.000481421 -1.67631e-23)
(1.02129 -0.00944366 8.74061e-22)
(1.01291 -0.00134774 -2.19616e-22)
(0.713681 -0.0613695 -1.66414e-22)
(0.946052 -0.00636914 0)
(1.01384 -0.00135625 -3.68591e-23)
(1.0198 -0.00441864 -3.16368e-22)
(0.999022 -0.00999041 0)
(1.01064 -0.000524808 2.42921e-22)
(1.01286 -0.00140499 4.84606e-22)
(1.01291 -0.00141486 5.26659e-22)
(1.01671 -0.00117778 8.95058e-22)
(1.05479 -0.0532221 -3.37867e-21)
(1.0213 -0.000507008 0)
(1.01091 -0.000581232 0)
(1.01716 -0.00617344 -6.18124e-23)
(1.01641 -0.00195057 0)
(1.02341 -0.0111197 1.17378e-21)
(1.02237 -0.00032253 4.61003e-23)
(1.01457 -0.00299522 1.00411e-22)
(1.01063 -0.000523946 -3.37945e-22)
(1.01369 -0.00118126 0)
(0.683806 -0.0540388 1.9702e-21)
(1.01561 -0.00369545 2.30605e-22)
(1.02293 0.00123627 1.27835e-23)
(1.02125 -0.00957296 9.42034e-22)
(1.01762 -0.0118451 -2.9829e-22)
(0.966895 0.00509444 0)
(1.01873 -0.00517193 1.00566e-22)
(1.01149 -0.000808223 0)
(1.0238 -0.00717788 0)
(1.00979 -4.41245e-05 -5.01401e-23)
(0.808999 -0.0627029 9.97743e-21)
(1.01418 0.00364479 2.30383e-23)
(1.0144 0.00293225 2.77373e-23)
(1.0379 -0.0645438 2.4512e-21)
(1.00989 -0.000256773 8.7973e-23)
(1.01335 -0.00141481 0)
(1.0201 -0.0519137 3.54254e-22)
(1.02102 7.93624e-05 0)
(1.00276 -0.0125635 2.51872e-23)
(1.01329 -6.26624e-05 -6.2027e-24)
(1.01281 -0.00164819 -8.11908e-23)
(0.770851 -0.0449254 -5.57183e-22)
(1.03138 -0.00505968 0)
(1.02511 -0.021752 -5.61947e-22)
(1.01174 -0.00100336 0)
(1.01338 -0.00198355 6.56242e-22)
(1.02159 -0.00625413 0)
(0.662301 -0.066939 -4.74288e-21)
(1.01577 -0.000393621 -4.74736e-22)
(0.503948 -0.0484731 0)
(1.01231 -0.000806577 0)
(1.01582 -0.000295494 -7.65394e-24)
(1.0201 0.000278584 2.09733e-21)
(0.508399 -0.0380632 0)
(1.01489 -0.00267147 -8.89421e-22)
(1.01632 -0.00199708 -9.95612e-23)
(1.02783 -0.0176305 4.54379e-22)
(1.01289 -0.000891588 -9.6316e-23)
(1.05522 -0.0196532 -4.75276e-21)
(1.02308 0.00290005 0)
(1.03959 -0.0114676 -5.58373e-21)
(1.00942 -6.72703e-05 0)
(1.01385 -0.00142354 -1.29763e-22)
(1.02977 -0.00263455 -8.72131e-22)
(0.970916 -0.0205154 -7.08915e-22)
(1.01869 -0.00566471 -2.28028e-22)
(0.916515 -0.0142794 0)
(1.01045 -0.0004462 3.27905e-22)
(1.02407 -0.00593325 -1.92071e-21)
(1.01155 -0.000753438 0)
(1.01268 -0.000314358 0)
(1.02673 -0.00867063 4.92076e-22)
(1.07031 -0.0351568 1.17588e-20)
(0.942595 0.00720355 0)
(1.0133 0.000930688 1.65554e-22)
(1.01897 -0.00570898 0)
(0.978881 -0.00887243 5.51663e-23)
(1.01374 -0.00189832 0)
(1.01563 0.00118936 -2.36704e-23)
(1.02516 -0.00323812 0)
(0.989869 -0.0402187 -2.10206e-22)
(1.01869 -0.00565432 0)
(1.04353 -0.0469671 -5.70362e-21)
(0.980814 -0.00216821 -5.88241e-22)
(1.01352 -0.000928112 4.43024e-23)
(1.02416 -0.0106911 -6.50297e-22)
(1.01123 -0.000613003 9.73724e-23)
(1.01337 -0.00144749 -1.15636e-22)
(1.01039 -0.000419593 0)
(1.01847 -0.00330333 1.16502e-23)
(1.04585 -0.0402326 0)
(1.04781 -0.0576851 1.56016e-22)
(1.02167 -0.00657369 4.56311e-22)
(1.01089 -4.35049e-05 2.98225e-23)
(1.01177 -0.0359425 0)
(0.861143 -0.0716156 -4.33634e-21)
(1.02444 -0.00203692 -1.6283e-21)
(1.0495 -0.0590497 0)
(1.01394 -0.00149386 4.69582e-23)
(1.01021 -0.00037076 -7.07906e-23)
(1.00884 -4.37104e-06 0)
(1.0107 -0.000399304 0)
(1.01021 -0.000369418 0)
(1.01791 0.00133617 0)
(1.05571 -0.0168642 2.54271e-21)
(1.02261 0.00461961 0)
(1.0183 -0.000525298 9.34219e-24)
(1.01207 0.0266513 1.57815e-22)
(1.01682 -0.00504146 0)
(1.01321 -0.00189638 0)
(1.01312 3.36206e-05 -1.46992e-23)
(1.01731 0.013891 0)
(1.00699 5.0789e-05 3.0263e-23)
(1.01383 -0.0321325 3.3485e-22)
(1.03638 -0.0022297 0)
(0.965413 -0.0109998 2.09305e-23)
(1.03943 -0.011153 4.81218e-21)
(1.00922 -3.93892e-05 -5.80319e-23)
(0.986793 0.0198714 8.81611e-23)
(1.02805 0.00237898 0)
(0.547063 -0.0634742 0)
(1.04218 -0.00262771 6.81428e-21)
(1.01392 -0.00135322 1.72426e-22)
(1.01487 -0.00261928 3.1085e-22)
(1.01692 -0.00195191 5.73213e-22)
(1.02525 -0.01665 0)
(1.07663 -0.0483888 -8.13109e-21)
(0.907443 0.0143515 9.70692e-23)
(1.03155 -0.00869295 0)
(1.05526 -0.0671663 0)
(1.02948 -0.00268097 1.33431e-21)
(1.01423 -0.000645112 9.37534e-23)
(1.01041 -0.000236459 -2.1067e-23)
(1.0411 -0.0476098 -1.76617e-21)
(1.01333 -0.00188925 2.76103e-24)
(1.0212 -0.0141064 -1.6213e-22)
(1.01331 -0.00195249 -1.33877e-22)
(0.689984 -0.0617295 -1.03509e-22)
(1.02414 -0.0108908 4.42513e-24)
(1.06971 -0.0336212 0)
(1.01541 -0.012594 5.46008e-23)
(1.01196 -0.0320291 -3.21319e-22)
(1.02459 -0.00322701 -2.8912e-21)
(1.02436 -0.0166144 6.06693e-22)
(1.01885 -0.0063298 -2.46402e-22)
(1.02532 -0.00197982 3.44269e-21)
(1.02688 -0.0149204 2.78804e-21)
(1.01278 -0.00122835 -4.72078e-22)
(1.01031 -0.000233729 -4.61875e-23)
(1.01668 -0.00430223 9.52091e-22)
(0.907801 0.011756 1.19659e-22)
(1.02492 -0.00222208 1.63992e-21)
(1.07674 -0.0477665 0)
(1.01653 -0.000362451 4.0231e-22)
(1.00439 -2.89135e-06 -1.10104e-24)
(0.496141 -0.0499227 2.19177e-21)
(1.01094 -3.72718e-05 2.06126e-23)
(1.02698 -0.0148096 -1.44311e-21)
(1.02144 -0.00731362 -4.01856e-22)
(1.01872 -0.00431227 -1.31727e-21)
(1.01928 0.00116453 -9.42348e-22)
(1.01123 -0.000606075 0)
(1.02416 -0.0167789 9.28468e-23)
(1.018 -0.00547954 0)
(1.02311 -0.0418904 0)
(1.08229 -0.0583046 6.11963e-21)
(1.01965 -0.0012519 0)
(1.01591 -0.00389266 0)
(1.01691 -0.0051315 0)
(1.01385 -0.000771282 7.30443e-23)
(1.00985 -5.30156e-05 4.49588e-23)
(1.02515 -0.0227086 0)
(1.01719 -0.0208896 -6.6226e-23)
(0.946899 -0.0113257 1.23403e-23)
(1.02562 -0.025756 -2.0196e-21)
(1.02056 0.00029497 -3.74266e-21)
(0.937725 -0.0171179 7.43937e-23)
(0.978962 -0.00910475 3.63553e-22)
(0.969508 -0.0296715 0)
(1.01687 -0.00409129 0)
(1.01937 -0.00424187 -8.47991e-23)
(1.02274 -0.0139143 -2.12479e-23)
(1.0179 -0.00654845 0)
(1.03082 -0.0116163 1.45671e-21)
(1.00925 -3.30496e-05 -4.27208e-24)
(1.01886 0.00160852 0)
(1.01871 0.000295785 -2.63985e-21)
(1.07196 -0.0590031 -9.98644e-21)
(1.01286 -0.000314995 6.64475e-22)
(1.02651 -0.00856106 -4.73112e-22)
(1.0172 -0.006021 -6.82401e-23)
(1.02957 -0.000552492 0)
(1.00928 -3.95687e-05 -1.39877e-23)
(1.01339 -0.000567947 0)
(1.00979 -5.20706e-05 -2.32274e-23)
(1.01127 -0.000260498 3.6038e-23)
(1.01547 -0.0024792 -8.31976e-23)
(1.00807 0.0155738 -7.95459e-24)
(1.01872 -0.0064046 -2.04499e-22)
(1.08782 -0.0459602 0)
(1.0111 -2.53381e-05 -5.46996e-23)
(0.948687 -0.0229709 1.18896e-22)
(1.01265 -0.000343321 -4.10394e-23)
(0.78449 -0.062144 1.05632e-20)
(1.01004 -0.000314134 0)
(1.00998 -0.000296961 1.08485e-22)
(1.04506 -0.0399587 0)
(0.985609 -0.018786 -8.32205e-22)
(1.03289 -0.0103968 3.85297e-21)
(1.02644 -0.00830381 1.53203e-21)
(1.01283 -0.0012341 5.34622e-22)
(1.01105 -0.000599464 0)
(1.0263 -0.0149913 0)
(1.01328 -0.000328027 0)
(1.02768 -0.0145252 0)
(1.01875 -0.00648627 2.03934e-22)
(1.01321 -0.000252134 0)
(1.02521 -0.0171105 6.09029e-22)
(1.01364 -0.000962215 4.06526e-23)
(0.607198 -0.0647189 5.91319e-21)
(1.01071 -0.00013495 2.90285e-22)
(1.02066 -0.00666803 -1.16545e-21)
(1.02308 -0.00645684 -1.27142e-21)
(1.01643 -0.00500432 -6.02081e-22)
(0.713243 -0.0483391 -9.45871e-22)