/*--------------------------------*- C++ -*----------------------------------*\
| =========                 |                                                 |
| \\      /  F ield         | OpenFOAM: The Open Source CFD Toolbox           |
|  \\    /   O peration     | Version:  v2012                                 |
|   \\  /    A nd           | Website:  www.openfoam.com                      |
|    \\/     M anipulation  |                                                 |
\*---------------------------------------------------------------------------*/
FoamFile
{
    version     2.0;
    format      ascii;
    class       volVectorField;
    location    "150";
    object      U_0;
}
// * * * * * * * * * * * * * * * * * * * * * * * * * * * * * * * * * * * * * //

dimensions      [0 1 -1 0 0 0 0];


internalField   nonuniform List<vector> 
33474
(
(1.03134 0.000557701 -2.86413e-21)
(1.02635 -0.000173401 -1.30461e-22)
(1.02965 -0.0391795 0)
(1.01675 -0.00126519 -8.74627e-22)
(1.03961 -0.0225061 -2.56986e-21)
(1.0217 -0.00671306 -1.91832e-21)
(1.01102 -0.000679494 -4.04008e-22)
(1.02032 -1.47917e-05 1.76661e-21)
(1.00917 -8.62556e-05 0)
(0.968651 -0.0692317 2.1232e-21)
(1.01883 -0.00572418 4.04363e-22)
(1.02383 -0.00739197 1.20363e-21)
(1.01095 -0.000641868 9.98477e-23)
(1.04096 -0.0204762 -2.13697e-21)
(1.03889 0.00103915 -4.83938e-21)
(1.01282 -0.000994451 -9.61843e-23)
(1.0075 -4.43256e-05 0)
(1.05729 -0.0526887 0)
(1.03399 -0.00793994 0)
(1.0173 -0.00431852 0)
(1.06578 -0.0372424 -4.13264e-21)
(1.00448 0.0238143 0)
(1.01656 -0.000322495 0)
(1.03101 0.000717663 0)
(1.01649 -0.000371722 -2.21968e-21)
(1.02403 -0.00755774 -1.24229e-21)
(1.0152 -0.00242115 0)
(1.05436 -0.029561 -5.0825e-21)
(1.00706 0.0258852 9.15262e-22)
(1.01064 -0.000313179 0)
(1.01282 -0.000339028 0)
(1.01783 -0.00245086 0)
(1.02838 -0.0103991 -1.58536e-23)
(1.05634 -0.052472 3.07586e-21)
(1.01412 -0.000917962 1.08159e-22)
(1.01802 -0.00546897 0)
(0.768845 -0.0135467 0)
(1.01078 0.00717052 9.41418e-23)
(1.02344 -0.00727974 -1.19215e-21)
(1.04443 -0.0163166 -6.23224e-21)
(1.01921 -0.00682172 -5.20623e-22)
(1.01059 -0.000302687 -2.77871e-23)
(1.01106 0.00606434 0)
(1.00282 7.24502e-06 2.89123e-23)
(0.86229 -0.0708347 2.05564e-22)
(1.03002 -0.0595478 -2.38687e-21)
(0.946925 0.00610225 1.4792e-23)
(1.05858 -0.0123096 0)
(1.03593 -0.0611617 0)
(1.01428 -0.00100859 4.99927e-23)
(1.03238 -0.00965863 -3.60607e-21)
(1.01561 -0.00225309 8.14772e-23)
(1.02649 -0.01629 -3.00396e-23)
(1.01103 -0.000701449 -3.32614e-22)
(1.01929 -0.00326544 -3.73859e-22)
(1.05364 -0.0295275 0)
(1.01947 -0.00334513 0)
(1.04724 -0.0396614 0)
(1.04407 -0.0160291 7.55576e-21)
(1.03381 -0.00763839 0)
(1.02004 -0.00334957 -1.18306e-22)
(0.958242 -0.000867432 0)
(0.798082 -0.0201008 0)
(1.0136 0.0101292 -2.6309e-23)
(1.01542 -0.00422818 0)
(1.02498 -0.00309218 -3.97671e-22)
(1.01084 -6.25218e-05 -8.38481e-23)
(0.72449 -0.0624689 0)
(1.01571 -0.00208286 -8.18811e-23)
(1.03786 -0.0155248 -3.69487e-21)
(0.935124 -0.00859529 6.48745e-23)
(0.957511 0.00142256 0)
(1.0146 0.0124616 0)
(1.01514 -0.00440744 -2.73633e-23)
(1.0029 -0.00916056 0)
(1.01552 -0.00426692 -4.93331e-24)
(0.989945 0.0212908 3.80953e-22)
(1.02614 -0.0026317 0)
(1.04091 -0.0209499 2.0894e-21)
(1.02634 -0.0220296 9.90953e-22)
(0.818947 -0.0233679 -5.60531e-22)
(1.024 -0.0071487 0)
(0.96932 0.01727 0)
(1.0143 -0.000960025 4.54872e-23)
(1.05881 -0.0129428 -5.16218e-21)
(1.01405 -0.000818482 5.41033e-23)
(1.06472 -0.0381976 3.05888e-21)
(0.589202 -0.0609628 -1.05426e-21)
(1.09544 -0.0572511 1.07996e-21)
(1.01071 -6.12213e-05 -7.62285e-24)
(1.01797 -0.00252948 1.02543e-21)
(1.01488 -0.00117241 0)
(1.02657 -0.0166034 2.67939e-23)
(1.01861 -0.00554812 -5.52358e-22)
(1.01106 -0.000713049 3.52101e-24)
(1.05826 -0.0133598 1.04335e-20)
(1.05535 -0.0190026 -8.84675e-21)
(1.03829 -0.0155366 1.9301e-22)
(1.01578 -0.00207952 4.81615e-23)
(1.02306 -0.0016413 -7.07127e-24)
(1.06452 -0.0389115 -4.54734e-21)
(0.980312 0.0152433 -8.75091e-23)
(1.02356 0.000257898 1.32019e-21)
(1.00886 -0.0374245 3.08394e-22)
(1.01378 -0.000609152 1.20875e-24)
(1.01088 -3.43387e-05 0)
(1.02588 -0.0025748 1.02905e-21)
(1.01726 -7.87728e-05 -9.65781e-22)
(1.0159 -0.00195048 0)
(1.01047 -0.000267861 0)
(1.03061 0.000580449 -2.42902e-21)
(1.01088 -5.40437e-05 6.902e-23)
(1.02797 -0.00941777 2.03632e-22)
(1.01945 -0.00590095 2.98357e-22)
(1.06978 -0.0328398 -3.69025e-21)
(1.07038 -0.0213869 -8.20295e-21)
(1.01987 -0.00332037 0)
(1.0288 -0.0415092 1.40977e-21)
(1.02291 -0.0151511 -2.27453e-22)
(1.01091 -0.000611302 0)
(1.02587 -0.0171592 0)
(1.02595 -0.00864378 -4.83535e-22)
(1.01921 -0.00331758 3.71712e-22)
(1.01424 -0.000824219 5.18904e-23)
(1.05933 -0.0118933 0)
(1.01743 -0.00443492 0)
(1.01081 -0.000132126 4.06905e-22)
(1.0464 -0.0394149 0)
(1.02875 -0.0405407 1.3252e-21)
(1.04974 -0.0166284 0)
(1.01437 -0.00188083 -7.89786e-23)
(1.03771 -0.0158655 3.86333e-21)
(1.02528 -0.00782732 0)
(0.808361 -0.0245915 5.06552e-22)
(1.03883 0.000659467 4.88732e-21)
(1.01618 0.0141229 -1.72927e-24)
(1.02309 -0.0358907 -4.09568e-23)
(0.872144 -0.0341757 -1.08024e-22)
(1.02392 -0.00302759 6.9192e-22)
(1.02972 -0.0400362 -1.66054e-21)
(1.02482 -0.00238147 2.36042e-21)
(1.02342 0.00557281 0)
(1.01004 -9.87591e-05 -1.30782e-24)
(1.01932 -0.00584863 -9.76118e-22)
(1.02039 -0.00115121 0)
(1.02462 0.00129651 -1.40718e-21)
(0.973464 -0.0442266 -9.84129e-23)
(0.968621 -0.0058167 -2.28103e-24)
(1.01538 0.0130499 0)
(1.01384 0.0133626 -3.30874e-23)
(1.01673 0.014139 0)
(1.01881 -0.00575835 3.19388e-23)
(1.02273 -0.0149747 0)
(1.0178 -0.00633479 6.39638e-23)
(1.07018 -0.0208647 0)
(1.02143 -0.00743398 -8.64642e-22)
(1.05219 -0.00411441 -3.38568e-21)
(1.01902 -0.00323348 1.66062e-21)
(1.02966 0.000832355 -3.65657e-23)
(1.0154 0.0145558 3.76812e-23)
(1.04268 -0.0474198 1.06851e-22)
(1.02318 0.00638029 -2.17784e-23)
(1.028 -0.0111213 -2.98453e-23)
(0.986344 -0.0171203 -9.23828e-22)
(1.05732 -0.0100535 -5.32465e-21)
(1.01954 -0.0378956 0)
(1.01399 -0.00181038 -1.28813e-22)
(1.03399 -0.0621927 -1.73619e-21)
(1.03244 -0.00990072 -4.12854e-21)
(1.05925 -0.0114297 -1.81748e-21)
(1.07462 -0.0502723 8.29093e-21)
(1.01147 -0.000762837 1.57929e-22)
(1.10036 -0.0563042 -9.48224e-21)
(1.01046 -0.000262009 0)
(1.02524 -0.00220935 -2.84892e-21)
(0.961564 -0.0706207 3.97653e-21)
(1.02309 0.000616701 -2.42722e-21)
(1.02516 0.00159579 1.40025e-22)
(0.947679 0.00865523 0)
(1.01437 -0.00192405 8.18734e-23)
(1.01444 -0.00199766 -5.15228e-23)
(1.03034 0.000789927 2.44241e-21)
(1.01439 -0.00104665 0)
(1.01197 -0.0102904 -1.42553e-23)
(1.02023 -0.00113399 -9.5656e-22)
(0.602118 -0.0622545 9.6628e-22)
(0.851801 0.0231619 0)
(1.01958 -0.00329464 0)
(1.01776 -9.02028e-05 2.96583e-21)
(1.01892 -0.00567263 0)
(1.02143 -0.000368997 -1.02841e-21)
(1.02995 0.000653577 3.16565e-21)
(1.01352 0.0116269 3.30639e-24)
(0.989814 -0.00617072 -2.6774e-23)
(0.913389 0.00860244 0)
(1.01583 -0.000360851 -3.96144e-22)
(0.987472 -0.0153051 6.15872e-22)
(1.03426 -0.0379371 0)
(1.01173 0.0117266 9.08189e-23)
(1.01345 -0.00198981 -4.45087e-24)
(1.01821 -0.00567874 0)
(1.01361 -0.010332 0)
(1.00205 0.0185116 2.80799e-25)
(1.02858 -0.0186575 4.40164e-22)
(1.06804 -0.0373435 0)
(1.01508 -0.00237155 0)
(1.01396 -0.00178814 0)
(1.06567 -0.0380126 1.29578e-21)
(1.01948 -0.00573753 0)
(0.613493 -0.0610827 0)
(1.00262 0.0185475 -6.77885e-24)
(1.01346 0.000148064 0)
(1.02569 -0.0171847 7.30613e-22)
(1.07078 -0.01956 -1.22801e-20)
(1.01346 0.000134683 0)
(1.07379 -0.0503959 -7.38693e-21)
(1.01841 -0.00553637 9.44953e-22)
(0.932764 0.00968817 1.15364e-21)
(0.826947 -0.0174668 0)
(1.01913 -0.00676476 1.45254e-21)
(1.01951 -0.00581635 -6.35657e-22)
(1.01814 -0.00563017 -3.96767e-22)
(1.01871 -0.0062048 -1.25703e-23)
(1.06802 -0.0366106 0)
(1.00947 -7.12464e-05 2.47e-25)
(1.05192 -0.0135094 0)
(0.971007 -0.00516706 -5.9818e-24)
(1.02657 -0.0224096 1.82689e-22)
(1.0162 -0.00186214 0)
(1.05144 -0.0137415 0)
(0.853838 -0.0212577 2.09047e-22)
(1.0131 -0.00176053 -3.60502e-22)
(1.01107 -0.000732189 4.93898e-22)
(1.0113 -0.000688039 2.29217e-22)
(1.01373 -0.00081364 -7.28779e-23)
(0.988739 -0.0371555 0)
(1.05785 -0.0102041 5.24156e-21)
(1.01458 -0.000217182 0)
(1.01009 -0.000181117 -6.87805e-22)
(1.04261 -0.0111055 0)
(1.0216 -0.00714589 1.00749e-21)
(1.06244 -0.0404737 0)
(1.01075 -0.00563836 -1.39469e-24)
(1.02559 -0.0170146 0)
(1.07221 -0.0329138 0)
(1.01285 -0.000969663 1.77431e-24)
(1.01791 -0.00538343 0)
(1.01866 -0.00443072 7.39703e-23)
(1.025 -0.0166148 3.59506e-22)
(1.02511 -0.016506 -3.77297e-22)
(1.05753 -0.0154355 -1.09559e-20)
(1.02546 -0.00234892 0)
(1.07158 -0.0305199 5.0912e-21)
(1.01415 -0.00190891 2.1995e-22)
(1.02487 0.0012128 1.5733e-21)
(1.0162 -0.00191205 0)
(0.880145 -0.0337634 -2.7053e-22)
(1.01596 -0.00197575 0)
(1.0617 -0.0404046 0)
(0.944087 -0.0695417 -2.6206e-21)
(0.935902 -0.00565641 0)
(1.01108 -0.00528187 0)
(1.01829 -0.00010601 9.93629e-22)
(0.96989 -0.0424685 1.30143e-21)
(1.01247 -0.000175524 7.26955e-22)
(1.01369 -0.000853219 0)
(0.931043 0.00682582 -6.516e-22)
(0.93782 -0.0103419 0)
(0.935257 -0.0101381 0)
(1.01863 -0.00614725 -4.91251e-22)
(1.02509 -0.0185961 -7.19424e-22)
(1.02559 -0.0129135 0)
(1.04989 -0.0171963 0)
(1.01627 -0.000393007 9.89246e-22)
(1.01356 -0.000885762 4.31245e-23)
(1.01957 -0.00564642 -1.37985e-21)
(1.02646 -0.0124264 1.73518e-21)
(1.01546 -0.00293243 -7.76313e-23)
(1.02972 0.00112721 0)
(1.0179 -0.000432792 -2.48434e-21)
(1.0427 -0.0103433 4.58098e-21)
(1.00886 -5.77424e-05 0)
(1.0423 -0.0113134 4.04605e-21)
(1.01892 -0.00327136 9.79758e-22)
(1.01504 -0.00124061 0)
(1.01686 -0.00447476 -8.08442e-23)
(1.01607 -0.00187469 -3.53343e-23)
(1.00949 -4.34382e-05 1.31264e-23)
(1.07295 -0.0303808 1.62996e-20)
(0.912127 -0.0285446 1.18765e-23)
(1.00694 -0.0446142 -5.46059e-23)
(1.00824 -5.90031e-05 -9.59025e-23)
(0.991253 -0.0352161 0)
(1.02535 -0.0185887 0)
(1.01933 0.00083562 3.64393e-22)
(1.01039 -0.0372952 0)
(0.960114 -0.0714744 5.50254e-21)
(1.06901 -0.022387 -4.17967e-21)
(1.01797 -0.0031866 -6.38143e-24)
(1.04237 -0.0105237 0)
(1.02624 -0.0123579 -1.64106e-21)
(1.01313 0.00139254 0)
(1.01134 -0.0437327 -1.09657e-22)
(1.01547 -0.0028319 0)
(1.01287 5.04436e-05 -2.11193e-23)
(1.01344 -0.00196823 1.99473e-22)
(1.01273 3.03203e-05 4.46699e-24)
(1.06984 -0.022236 1.2114e-20)
(1.03364 -0.037546 -2.32604e-21)
(0.786298 -0.0699501 -2.8839e-21)
(1.02539 -0.0128822 0)
(1.01788 -0.00320964 -1.26994e-21)
(1.01063 -5.97435e-05 7.56736e-24)
(1.02911 -0.0613382 1.78333e-21)
(0.984703 -0.00828193 -1.07085e-21)
(0.856153 0.0258524 7.25804e-23)
(0.813029 -0.0712941 2.39249e-21)
(1.07222 -0.0301319 -6.18402e-21)
(1.0213 -0.000269081 1.94927e-21)
(1.02045 -0.0648025 -2.31631e-21)
(1.01553 -0.00180443 0)
(1.01316 -0.00175413 -3.12922e-22)
(0.631566 -0.0622746 1.69762e-21)
(1.01442 -0.00196274 0)
(1.03265 -0.00918606 -3.91814e-21)
(1.02431 0.0015714 -7.94811e-22)
(0.953934 0.0174786 0)
(1.01446 -0.0108448 0)
(1.02032 9.50214e-05 0)
(1.01314 -0.00410081 1.50329e-24)
(1.01841 -0.000579382 1.33449e-24)
(1.02519 -0.0174508 2.86894e-22)
(1.05608 -0.0188252 -8.35567e-23)
(1.01165 -0.0381127 -2.64272e-22)
(1.01249 -0.00391345 0)
(1.01935 -0.00597332 1.00476e-21)
(0.993113 0.0163821 -2.57186e-25)
(1.01248 -1.89911e-05 -1.36273e-23)
(1.01235 -2.81101e-05 1.41907e-23)
(1.0137 0.0034091 0)
(1.01831 -0.00240772 -1.04248e-21)
(1.03639 -0.0387534 5.99513e-21)
(1.00346 0.0106976 -1.46465e-22)
(0.94699 0.00735648 1.16807e-24)
(1.08832 -0.0454965 9.85082e-21)
(1.00991 -0.000274617 1.40357e-22)
(1.01565 -0.00380683 -2.24514e-22)
(1.02461 -0.0167109 -8.2372e-22)
(1.02708 -0.0166178 -2.06994e-22)
(1.05768 -0.0160929 9.65919e-21)
(1.01846 -0.00580753 -1.38424e-22)
(1.00986 -0.000262074 3.39778e-25)
(1.07098 -0.0201815 0)
(1.06908 -0.0234561 -8.88402e-21)
(1.02185 -0.00687794 3.14327e-21)
(1.00925 -2.16858e-05 2.51688e-24)
(1.01876 -0.0062058 0)
(1.01413 -0.00188286 -1.87581e-22)
(1.01122 -1.79556e-05 -1.88688e-23)
(0.935271 0.0114097 5.32804e-23)
(1.02017 -0.00343263 -9.84553e-22)
(0.941346 0.0106993 0)
(1.02517 0.000883239 0)
(1.03036 -0.0134506 1.68056e-21)
(1.01881 -0.00563716 0)
(1.02518 -0.0167779 0)
(1.0113 -0.000678962 0)
(1.0226 -0.0144775 0)
(1.01526 -0.00340705 -1.06628e-22)
(1.00607 0.0103008 1.82008e-22)
(1.01213 -6.04843e-05 0)
(1.012 -6.20526e-05 -1.04681e-23)
(1.01286 -0.00118536 -6.76469e-23)
(1.01657 -0.0280649 0)
(1.02105 -0.000322541 0)
(1.06848 -0.0236216 1.3123e-20)
(1.01886 -0.00587961 -1.43926e-22)
(1.02607 -0.0124891 -2.02811e-22)
(1.01961 -0.00574606 0)
(0.87644 -0.0705912 0)
(1.00827 -4.49498e-05 -2.3708e-23)
(0.986829 -0.00650849 3.01718e-23)
(1.01281 -0.00117453 6.15087e-23)
(1.0182 -0.0023331 3.78784e-22)
(1.05341 -0.0303881 2.372e-21)
(1.00825 -6.39104e-05 -3.47737e-23)
(1.03465 -0.0147366 5.10602e-23)
(1.01926 -0.00594118 -3.38754e-22)
(1.02389 -0.0166532 1.80676e-22)
(1.03387 -0.00710341 0)
(1.01579 -0.00380483 0)
(1.02297 -0.036036 0)
(1.01519 0.00106442 -1.06726e-24)
(1.0154 0.00121742 -1.64734e-23)
(1.03015 -0.0131761 -2.21377e-24)
(1.02514 -0.0253094 1.45706e-21)
(1.01978 0.000501556 0)
(1.01308 -0.00173974 -1.14792e-22)
(1.01146 -0.000752298 1.6399e-22)
(1.01958 -0.00310537 -1.79133e-21)
(1.02396 -0.0058446 0)
(1.02507 -0.0169708 0)
(1.01334 -0.00190926 -4.61304e-22)
(1.01685 -0.00132253 -9.97367e-22)
(1.05577 -0.0534773 3.35268e-21)
(1.00997 -9.85201e-05 1.67537e-24)
(1.03414 -0.038718 0)
(1.03565 -0.060462 0)
(0.756302 -0.030923 0)
(1.01328 0.00155534 0)
(1.02477 -0.0109633 0)
(1.01367 -0.000337989 0)
(1.01895 -0.000666425 0)
(1.01544 -0.00353177 -2.21394e-22)
(1.02093 -0.000243348 6.89187e-22)
(1.01164 -0.000853984 -2.39386e-22)
(0.497313 -0.0363905 6.46726e-21)
(1.01661 0.00117665 1.81707e-23)
(1.00913 -3.96339e-05 5.54994e-24)
(1.05846 -0.0139795 -4.28223e-21)
(1.01169 -0.000875105 3.85596e-22)
(1.02609 -0.0126022 1.97135e-21)
(1.01703 -0.00495066 -6.16162e-22)
(1.01673 0.00104262 0)
(1.01894 -0.000743379 0)
(1.0327 -0.0094994 1.92041e-21)
(0.992928 0.000323946 0)
(1.02605 -0.0178175 -8.41262e-22)
(1.01653 -0.00115074 -4.85185e-22)
(1.01538 -0.00349532 4.37579e-22)
(1.01112 -0.00067061 0)
(0.835313 -0.0302683 -9.13731e-22)
(1.01697 -0.00487835 -6.86256e-24)
(0.992774 -0.000656891 0)
(1.03578 -0.0132071 0)
(1.0155 -0.0115007 1.17116e-22)
(1.01978 0.000605165 2.8193e-21)
(1.02714 -0.0170422 4.42846e-22)
(1.02833 -0.0118889 3.05275e-23)
(1.0111 -5.02307e-05 0)
(1.01395 -0.00155849 -1.3957e-22)
(1.02382 -0.0117303 -4.64918e-23)
(1.01109 -0.000631389 -2.00919e-22)
(1.00914 -0.00050126 -1.23034e-23)
(1.01103 -6.65897e-05 -6.11422e-24)
(1.03407 -0.00736971 0)
(1.00936 -3.51632e-05 3.93514e-23)
(1.02365 -0.00742634 1.2719e-21)
(1.01767 -0.00455066 2.33188e-22)
(0.988798 -0.00166403 0)
(0.757656 -0.0278747 0)
(1.01687 -0.0129817 -2.98936e-22)
(1.0084 -5.98393e-05 0)
(1.01642 -0.00109152 0)
(1.01456 -0.0111257 -7.31619e-22)
(0.988502 -0.00273805 4.32984e-23)
(0.981073 0.0072254 -2.28857e-22)
(0.984706 0.00769894 0)
(1.02509 -0.00995286 -1.2992e-21)
(1.0118 -7.97415e-05 1.9531e-23)
(1.02588 -0.0165304 1.64412e-21)
(1.03453 -0.0145537 -2.40347e-21)
(1.02341 -0.00578148 1.25775e-21)
(1.01504 -0.00282045 -1.61572e-22)
(0.961008 0.00300121 -5.85866e-23)
(1.01585 -0.00278101 -7.41824e-22)
(1.01168 -7.67331e-05 0)
(1.02705 -0.00906663 -5.86068e-22)
(1.01276 -0.00210367 4.96427e-22)
(1.01872 -0.00566497 5.58426e-22)
(0.61616 -0.0619353 -1.69642e-21)
(1.01083 -0.000377396 -6.0137e-23)
(1.03121 -0.0052559 0)
(1.0182 -0.00222493 -1.77732e-24)
(1.00904 -1.81304e-05 0)
(1.0251 -0.00184004 -1.29258e-21)
(1.01289 -0.00131907 0)
(1.0146 -0.00106384 -7.51561e-23)
(0.810402 -0.0415869 0)
(1.01717 -0.0133227 1.90565e-22)
(1.01797 -0.0212106 7.08308e-23)
(0.921593 -0.00957073 -6.33122e-23)
(0.921231 -0.0121608 0)
(1.01867 -0.00630094 6.2945e-22)
(1.01574 -0.0112234 0)
(1.01006 -0.000131673 -4.35983e-22)
(0.692186 -0.0551124 2.02442e-20)
(1.03542 -0.0132052 -2.4601e-21)
(1.01286 -0.00162863 0)
(1.01362 -0.000484903 -1.18248e-24)
(0.918699 -0.0148238 -9.7814e-23)
(0.918756 -0.0129137 -1.95355e-23)
(1.0432 -0.0177578 -5.29804e-21)
(0.690588 -0.0652559 1.68434e-21)
(1.01319 0.00373075 0)
(1.01831 -0.00221437 0)
(1.01495 0.00489204 -1.46965e-24)
(1.01246 -0.000695514 6.19297e-23)
(1.01859 -0.00570506 0)
(1.01244 -0.000680201 0)
(1.03229 -0.0103903 2.81791e-21)
(1.06015 -0.0339658 -1.06757e-20)
(1.02669 -0.0196695 4.27323e-24)
(1.01529 -0.00699562 5.75414e-22)
(1.01555 -0.00362453 0)
(1.01857 -0.00530694 3.73741e-22)
(1.02463 -0.0103516 1.02763e-21)
(0.465272 -0.062241 3.55577e-21)
(1.01255 0.0200488 -4.72027e-22)
(1.05269 -0.030362 -4.56019e-21)
(1.04291 -0.00915528 -4.96478e-21)
(1.01502 -0.00277141 8.88491e-22)
(1.03996 -0.0221552 4.02569e-21)
(1.0402 -0.0472294 3.06998e-21)
(1.01524 0.0042772 0)
(1.02178 -0.00636847 -5.91828e-22)
(1.01663 -0.000999221 0)
(1.02633 -0.0174836 -1.3498e-23)
(1.02343 -0.00534399 -6.74316e-22)
(0.6837 -0.0674881 0)
(1.06038 -0.0333279 7.3561e-21)
(1.02051 -0.00653727 0)
(1.0138 -0.000940545 -7.33276e-23)
(1.01214 -0.00782562 0)
(1.01605 -0.0124499 -2.91734e-22)
(1.01863 -0.00621886 -6.79953e-22)
(1.01406 -0.000678755 -1.93959e-22)
(1.02251 -0.00226674 1.21474e-22)
(0.482744 -0.0622199 -5.63548e-21)
(1.0392 -0.0118036 0)
(1.03936 -0.012159 7.31707e-21)
(0.989496 0.00808372 -1.11046e-23)
(1.0426 -0.00961422 -1.03141e-21)
(1.03053 -0.0126036 1.89927e-24)
(1.02234 -0.014276 -6.33003e-23)
(1.02703 -0.00221687 -1.56977e-21)
(1.02489 -0.0222282 -1.10269e-21)
(1.00656 -6.57581e-05 -7.38983e-24)
(1.01563 -0.0122703 1.60816e-22)
(1.01613 -0.00412162 0)
(1.01125 -1.5319e-05 3.71201e-23)
(1.00997 0.0169042 -5.7813e-22)
(1.01906 -0.00563735 -2.73515e-22)
(1.02158 -0.00760932 9.52657e-22)
(1.00999 -5.46859e-05 -3.66001e-23)
(1.01607 -0.00406369 0)
(1.01562 -0.00957939 9.11638e-23)
(0.765929 -0.0702917 0)
(1.0268 -0.00897638 -9.41809e-22)
(1.01296 -0.000368101 4.54848e-24)
(0.905862 -0.0271189 -7.51775e-23)
(1.01283 -0.0110243 8.33262e-24)
(1.01092 -0.000144277 -1.36846e-24)
(1.01314 -0.000470913 -4.43779e-23)
(0.868552 -0.0716046 -1.88566e-21)
(0.963491 -0.0442797 -9.33934e-22)
(1.01299 -0.000447422 6.13033e-23)
(1.01031 -0.00177555 5.99401e-22)
(1.02333 0.000328153 0)
(1.02526 -0.00356506 -1.05831e-21)
(1.02327 -0.0146779 9.40107e-23)
(1.04283 -0.00988846 -8.65248e-21)
(1.01859 -0.00567629 -2.50956e-22)
(0.986892 0.00816013 1.53696e-23)
(1.04268 -0.00887603 -7.12502e-21)
(1.02584 -0.0163739 -1.74572e-21)
(1.026 -0.0173357 8.22322e-22)
(1.01696 -0.00750135 -1.14046e-22)
(1.01031 -0.000230322 0)
(1.01236 -0.00310028 0)
(1.02653 -0.0194436 1.02067e-21)
(1.02575 -0.0114159 0)
(1.0158 -0.00279713 2.13916e-22)
(1.07488 -0.0492173 0)
(1.03904 -0.0224818 4.77062e-22)
(1.02012 0.000183538 7.71233e-22)
(1.02143 -0.00700741 -9.78358e-22)
(1.01647 -0.00198293 -9.011e-22)
(1.0452 -0.0195586 -3.01516e-21)
(1.00762 -0.0375832 -6.4561e-22)
(1.02635 -0.00723551 1.08797e-23)
(1.01266 0.00343412 0)
(1.01876 -0.00418141 -3.22553e-22)
(1.02398 -0.0069482 1.17313e-21)
(0.984394 -0.0438031 9.78888e-23)
(1.0085 -0.0680658 1.56292e-20)
(1.03081 -0.0122868 2.26613e-21)
(1.0111 -0.000754321 1.96642e-22)
(1.01398 -0.000338319 4.71598e-22)
(1.02531 -0.00995375 -3.40475e-21)
(1.07581 -0.0491737 0)
(0.952064 -0.0117947 0)
(1.01337 -0.0280659 0)
(1.01154 -0.000828333 3.4086e-23)
(1.01444 -0.000334123 8.5658e-22)
(1.03163 -0.00900175 0)
(0.951692 -0.0118181 0)
(1.03551 -0.0386091 -2.29684e-21)
(1.01195 -0.00268995 0)
(1.02507 -0.003441 -7.91593e-22)
(1.01224 -0.00451399 -4.55976e-23)
(1.0191 -0.00435454 -9.03299e-23)
(1.01542 -0.00919779 -1.03367e-22)
(1.01551 -0.00337036 9.96709e-23)
(0.948564 0.0063725 0)
(0.925452 -0.0688661 -2.8067e-21)
(1.01851 -0.00430852 0)
(1.01016 -0.000120753 0)
(1.01926 -0.00360103 -7.52155e-22)
(1.00634 0.000832214 0)
(1.03114 -0.00427165 0)
(1.01196 -0.000629703 -1.97381e-22)
(1.01081 -0.0299824 3.21587e-22)
(1.01323 0.00218495 6.20396e-23)
(0.794799 0.0347251 0)
(1.01187 0.00231678 0)
(1.01797 -0.000491933 8.10845e-22)
(1.02081 -0.00694317 0)
(1.01284 -0.000914643 1.55685e-22)
(1.01524 -0.00144905 2.09077e-23)
(1.011 -2.82144e-05 4.79601e-23)
(1.01772 -0.00311846 2.44351e-21)
(1.01219 -0.00204413 8.61291e-24)
(1.00666 0.00178055 0)
(1.02278 -0.0146764 0)
(1.01624 -0.00194473 1.82934e-22)
(1.02454 -0.00236976 -3.09004e-21)
(1.02339 -0.000485896 -9.90711e-24)
(0.830253 -0.02514 0)
(1.01888 -0.00418885 -1.13357e-21)
(1.01235 -0.00398063 4.58677e-23)
(1.03129 -0.00407261 0)
(1.03791 -0.0194978 4.12835e-21)
(0.528084 -0.0623019 -5.31075e-21)
(1.02655 -0.0686897 -6.75206e-21)
(1.01982 -0.0249733 -1.77213e-22)
(0.980449 0.00779227 1.82518e-23)
(1.01697 -0.00506355 -3.25283e-22)
(1.01284 -0.00145059 0)
(0.864936 -0.0305566 5.03575e-22)
(1.01177 -0.000283553 0)
(1.02459 -0.0255799 0)
(1.01177 -0.000287877 0)
(1.01042 -0.000265593 3.0402e-23)
(1.01765 -0.00314367 -1.26635e-21)
(1.01199 -0.00160952 -1.01774e-23)
(1.02043 0.0066794 -1.58068e-23)
(1.01687 -0.00501203 -3.09801e-22)
(1.02188 -0.00748904 2.04547e-22)
(1.03799 -0.0191132 0)
(0.707051 -0.0578264 -1.31135e-20)
(0.983281 -0.0417061 0)
(0.794668 0.0356733 2.10161e-22)
(1.02048 0.00774598 0)
(1.01642 -0.00209829 0)
(1.01225 -0.000750437 0)
(1.01411 -0.00065729 1.44571e-22)
(1.01635 -0.00189293 -1.85497e-22)
(1.01444 -0.00341691 -1.8614e-22)
(1.02334 0.000523855 0)
(0.876386 -0.0706004 2.85411e-21)
(0.98237 -0.00884831 0)
(1.01648 -0.00218958 -1.48983e-21)
(1.01289 -0.00146104 0)
(1.01554 -0.00133543 -4.39834e-23)
(1.01614 0.00405744 2.60796e-23)
(1.01516 0.00416102 4.06942e-23)
(1.0246 0.00152414 1.70571e-21)
(1.00476 -5.37093e-06 2.94092e-24)
(0.882717 -0.0100696 6.96886e-23)
(1.01554 -0.00386883 0)
(1.0108 -0.000136532 -2.23603e-24)
(1.03798 -0.023518 -2.09251e-21)
(1.02392 -0.010846 1.29874e-21)
(1.01321 -0.000529645 2.58088e-24)
(1.01307 -0.000480905 -2.0924e-23)
(0.958039 -0.0423512 -5.25456e-22)
(1.01563 0.00126963 1.04223e-24)
(1.03111 -0.012277 9.31006e-22)
(1.02433 -0.00319105 4.30891e-21)
(0.569359 -0.0607126 0)
(0.851459 -0.0086071 6.75947e-22)
(1.01579 -0.0400902 0)
(0.990468 0.00259326 0)
(1.01221 -0.000271747 2.84741e-22)
(1.01914 -0.0249943 -9.71829e-23)
(1.01227 -0.000743812 1.45031e-22)
(1.01056 -0.000489115 5.51007e-25)
(1.02232 0.00849783 0)
(1.02941 0.00129553 6.43406e-22)
(0.995201 0.00255165 0)
(1.01056 -0.000491014 1.77842e-22)
(1.02426 -0.00188917 2.37654e-21)
(1.0195 0.000847993 -5.08028e-22)
(1.0162 -0.00116724 -2.69766e-24)
(0.740769 -0.0682852 0)
(1.02471 -0.00306688 0)
(0.957787 -0.0235657 0)
(1.02573 -0.0508304 -1.34997e-21)
(1.01631 -0.00123399 1.17437e-21)
(1.01167 -0.000103531 -3.6436e-22)
(1.0102 -0.0351144 3.09189e-23)
(1.0179 -0.000957383 0)
(1.00926 -3.34935e-05 3.94596e-24)
(1.01112 -0.000135159 0)
(1.01494 -0.0014978 0)
(1.0134 -0.000447392 -7.23686e-24)
(1.02776 -0.0171195 -4.75585e-22)
(1.01013 -0.033452 -3.40703e-23)
(1.01674 -0.00437312 -3.25815e-22)
(0.952011 -0.00772496 0)
(0.997896 -0.00975433 0)
(0.758569 -0.0608812 0)
(1.02914 -0.0137323 3.72197e-21)
(1.02266 -0.00100634 0)
(1.01295 -0.0016926 0)
(1.01227 -0.0349673 1.02561e-24)
(1.01328 -0.000478985 -1.67464e-23)
(1.02129 -0.00944275 8.73873e-22)
(1.01291 -0.0013474 -2.19583e-22)
(0.713604 -0.0613829 -1.70458e-22)
(0.946063 -0.00618501 0)
(1.01384 -0.00135456 -3.68444e-23)
(1.01981 -0.00442624 -3.17249e-22)
(0.998996 -0.00987254 0)
(1.01064 -0.000524781 2.42871e-22)
(1.01286 -0.00140495 4.84552e-22)
(1.01291 -0.00141483 5.26601e-22)
(1.01671 -0.00117777 8.94984e-22)
(1.05478 -0.0532357 -3.3789e-21)
(1.02131 -0.000530679 0)
(1.01091 -0.000581204 0)
(1.01715 -0.00617281 -6.18603e-23)
(1.01641 -0.00195363 0)
(1.02341 -0.0111206 1.17359e-21)
(1.02238 -0.000352606 4.67702e-23)
(1.01452 -0.00306967 1.00166e-22)
(1.01063 -0.000523921 -3.37878e-22)
(1.01369 -0.00117988 0)
(0.683805 -0.0540258 1.97006e-21)
(1.01561 -0.0036924 2.30582e-22)
(1.02293 0.00112659 1.29202e-23)
(1.02125 -0.00957199 9.41824e-22)
(1.0176 -0.0119464 -2.98676e-22)
(0.966907 0.00514181 0)
(1.01874 -0.00517256 1.00608e-22)
(1.01149 -0.000808172 0)
(1.0238 -0.007178 0)
(1.00979 -4.411e-05 -5.01065e-23)
(0.809005 -0.0626888 9.97736e-21)
(1.01419 0.00361728 2.309e-23)
(1.01441 0.00290301 2.77279e-23)
(1.03787 -0.0645625 2.44995e-21)
(1.00989 -0.000256744 8.7935e-23)
(1.01335 -0.00141414 0)
(1.02006 -0.0518823 3.52513e-22)
(1.02103 5.72262e-05 0)
(1.00275 -0.0124889 2.54329e-23)
(1.01328 -4.62655e-05 -6.17297e-24)
(1.01281 -0.00164816 -8.11825e-23)
(0.770607 -0.0448625 -5.58095e-22)
(1.03138 -0.00505964 0)
(1.02513 -0.0217441 -5.61717e-22)
(1.01174 -0.00100335 0)
(1.01338 -0.00198356 6.562e-22)
(1.02159 -0.00625408 0)
(0.662357 -0.0669424 -4.74528e-21)
(1.01577 -0.000393622 -4.74691e-22)
(0.503944 -0.0484383 0)
(1.01231 -0.000806704 0)
(1.01582 -0.000295493 -7.65322e-24)
(1.0201 0.000278575 2.09723e-21)
(0.50839 -0.0380459 0)
(1.01489 -0.00267149 -8.89336e-22)
(1.01633 -0.00200008 -9.96505e-23)
(1.02782 -0.0176823 4.56002e-22)
(1.01289 -0.000891504 -9.6293e-23)
(1.05522 -0.0196538 -4.75272e-21)
(1.02308 0.00285254 0)
(1.03959 -0.0114672 -5.58348e-21)
(1.00942 -6.72771e-05 0)
(1.01385 -0.00142194 -1.29722e-22)
(1.02977 -0.00263454 -8.72098e-22)
(0.970862 -0.0203305 -7.12258e-22)
(1.01869 -0.00566832 -2.28129e-22)
(0.91667 -0.0144046 0)
(1.01045 -0.000446194 3.27832e-22)
(1.02407 -0.00593333 -1.92055e-21)
(1.01155 -0.000753466 0)
(1.01268 -0.000314102 0)
(1.02673 -0.00867088 4.92032e-22)
(1.07031 -0.0351604 1.17593e-20)
(0.942598 0.00733762 0)
(1.01334 0.000956814 1.6598e-22)
(1.01897 -0.00571485 0)
(0.978865 -0.00890972 5.43669e-23)
(1.01374 -0.00189859 0)
(1.01563 0.00118634 -2.37809e-23)
(1.02516 -0.00323816 0)
(0.989846 -0.0400705 -2.13951e-22)
(1.01869 -0.00565827 0)
(1.04351 -0.0469709 -5.70255e-21)
(0.980878 -0.0023343 -5.92165e-22)
(1.01352 -0.000927488 4.42893e-23)
(1.02416 -0.0106919 -6.50206e-22)
(1.01123 -0.000613129 9.73426e-23)
(1.01337 -0.00144688 -1.15616e-22)
(1.01039 -0.00041959 0)
(1.01847 -0.0033033 1.16493e-23)
(1.04584 -0.040234 0)
(1.04779 -0.0577037 1.56016e-22)
(1.02167 -0.00657362 4.56261e-22)
(1.01089 -4.34479e-05 2.98046e-23)
(1.01171 -0.0359633 0)
(0.861184 -0.071637 -4.33866e-21)
(1.02444 -0.00203696 -1.62822e-21)
(1.04948 -0.0590712 0)
(1.01394 -0.00149213 4.69427e-23)
(1.01021 -0.00037079 -7.07693e-23)
(1.00884 -4.37861e-06 0)
(1.0107 -0.000399228 0)
(1.01021 -0.00036945 0)
(1.01793 0.00132949 0)
(1.05571 -0.0168647 2.54271e-21)
(1.02264 0.00459783 0)
(1.0183 -0.000525314 9.3419e-24)
(1.01221 0.0266779 1.58266e-22)
(1.01682 -0.00504148 0)
(1.01321 -0.00189638 0)
(1.01313 3.63145e-05 -1.4695e-23)
(1.01735 0.013892 0)
(1.00699 5.07855e-05 3.025e-23)
(1.01384 -0.0320861 3.3029e-22)
(1.03638 -0.00222962 0)
(0.965401 -0.0110222 2.06682e-23)
(1.03943 -0.0111526 4.81197e-21)
(1.00922 -3.93935e-05 -5.79937e-23)
(0.986806 0.0197938 8.29285e-23)
(1.02805 0.002379 0)
(0.547144 -0.0635077 0)
(1.04218 -0.00262766 6.81422e-21)
(1.01392 -0.00135123 1.7236e-22)
(1.01487 -0.0026193 3.10819e-22)
(1.01692 -0.0019519 5.73162e-22)
(1.02526 -0.0166613 0)
(1.07664 -0.0483944 -8.13178e-21)
(0.907437 0.01424 9.74157e-23)
(1.03155 -0.00869289 0)
(1.05529 -0.0671623 0)
(1.02948 -0.00268096 1.33426e-21)
(1.01423 -0.000644104 9.37265e-23)
(1.01041 -0.000236459 -2.10552e-23)
(1.04108 -0.0476123 -1.76573e-21)
(1.01333 -0.00188932 2.76078e-24)
(1.02119 -0.0141073 -1.62066e-22)
(1.01331 -0.00195249 -1.33868e-22)
(0.689916 -0.0617536 -1.02331e-22)
(1.02414 -0.0108917 4.42486e-24)
(1.06971 -0.0336246 0)
(1.01532 -0.0125656 5.51651e-23)
(1.01188 -0.0320001 -3.26845e-22)
(1.02459 -0.00322706 -2.89103e-21)
(1.02435 -0.0166331 6.0703e-22)
(1.01885 -0.00632946 -2.46371e-22)
(1.02532 -0.00197985 3.44252e-21)
(1.02689 -0.0149231 2.78768e-21)
(1.01278 -0.00122832 -4.72024e-22)
(1.01031 -0.000233719 -4.61621e-23)
(1.01668 -0.00430252 9.52042e-22)
(0.907792 0.0116382 1.19864e-22)
(1.02492 -0.00222212 1.63984e-21)
(1.07674 -0.047772 0)
(1.01653 -0.000362449 4.02275e-22)
(1.00439 -2.89234e-06 -1.09099e-24)
(0.496137 -0.0498855 2.19153e-21)
(1.01094 -3.72391e-05 2.06007e-23)
(1.02698 -0.0148121 -1.44293e-21)
(1.02144 -0.00731343 -4.01804e-22)
(1.01872 -0.00431222 -1.31713e-21)
(1.01928 0.00116454 -9.42305e-22)
(1.01123 -0.000606204 0)
(1.02415 -0.0167976 9.28943e-23)
(1.018 -0.00548072 0)
(1.02309 -0.041865 0)
(1.0823 -0.0583037 6.12029e-21)
(1.01965 -0.00125192 0)
(1.01591 -0.00389275 0)
(1.01691 -0.00513157 0)
(1.01385 -0.000770921 7.30246e-23)
(1.00985 -5.30097e-05 4.49271e-23)
(1.02516 -0.0226988 0)
(1.01723 -0.0208645 -6.55449e-23)
(0.946902 -0.0113093 1.20936e-23)
(1.02562 -0.0257422 -2.01817e-21)
(1.02056 0.000294963 -3.74247e-21)
(0.937875 -0.0172457 7.49409e-23)
(0.979025 -0.00927345 3.65335e-22)
(0.969457 -0.029652 0)
(1.01687 -0.00409141 0)
(1.01939 -0.00424671 -8.5004e-23)
(1.02278 -0.0139281 -2.1216e-23)
(1.01791 -0.00654266 0)
(1.03082 -0.0116163 1.45658e-21)
(1.00925 -3.30608e-05 -4.27054e-24)
(1.01887 0.00160056 0)
(1.01871 0.000295779 -2.6397e-21)
(1.07196 -0.058999 -9.9861e-21)
(1.01286 -0.000314992 6.644e-22)
(1.02651 -0.00856132 -4.73067e-22)
(1.01719 -0.0060207 -6.82882e-23)
(1.02957 -0.000552466 0)
(1.00928 -3.95782e-05 -1.39789e-23)
(1.01339 -0.000565427 0)
(1.00979 -5.2072e-05 -2.32111e-23)
(1.01127 -0.000260609 3.60174e-23)
(1.01548 -0.00247871 -8.32159e-23)
(1.00809 0.0156545 -7.79233e-24)
(1.01872 -0.00640432 -2.04472e-22)
(1.08782 -0.0459627 0)
(1.0111 -2.53424e-05 -5.46676e-23)
(0.948701 -0.0227761 1.18775e-22)
(1.01265 -0.000343927 -4.10157e-23)
(0.784496 -0.0621292 1.0563e-20)
(1.01004 -0.000314152 0)
(1.00998 -0.000296975 1.08448e-22)
(1.04505 -0.0399595 0)
(0.985652 -0.0189449 -8.34516e-22)
(1.03289 -0.0103966 3.85271e-21)
(1.02644 -0.00830405 1.5319e-21)
(1.01283 -0.00123407 5.34562e-22)
(1.01105 -0.000599549 0)
(1.0263 -0.014995 0)
(1.01328 -0.000324517 0)
(1.02769 -0.0145268 0)
(1.01875 -0.00648587 2.03914e-22)
(1.01321 -0.000248909 0)
(1.02523 -0.0171186 6.0902e-22)
(1.01364 -0.000959321 4.06041e-23)
(0.607269 -0.0647501 5.91769e-21)
(1.01071 -0.000134947 2.9022e-22)
(1.02066 -0.0066678 -1.1653e-21)
(1.02308 -0.00645689 -1.2713e-21)
(1.01642 -0.00500238 -6.02186e-22)