/*--------------------------------*- C++ -*----------------------------------*\
| =========                 |                                                 |
| \\      /  F ield         | OpenFOAM: The Open Source CFD Toolbox           |
|  \\    /   O peration     | Version:  v2012                                 |
|   \\  /    A nd           | Website:  www.openfoam.com                      |
|    \\/     M anipulation  |                                                 |
\*---------------------------------------------------------------------------*/
FoamFile
{
    version     2.0;
    format      ascii;
    class       volVectorField;
    location    "350";
    object      ddtCorrDdt0(U);
}
// * * * * * * * * * * * * * * * * * * * * * * * * * * * * * * * * * * * * * //

dimensions      [0 1 -2 0 0 0 0];


internalField   nonuniform List<vector> 
33474
(
(-3.12964e-06 4.02718e-06 -3.5217e-22)
(0.00984359 -0.0158173 -2.41815e-23)
(-0.00192862 0.00167713 0)
(3.01295e-06 2.5128e-06 -2.02259e-22)
(-0.000237646 0.000297013 -6.61775e-23)
(-2.45661e-05 6.6233e-07 -3.67124e-22)
(1.63498e-05 3.53506e-06 -1.73044e-22)
(1.89512e-06 1.33585e-06 3.61568e-22)
(1.79214e-05 2.59663e-07 0)
(0.000257823 -0.00545819 -2.59478e-22)
(0.000432572 -5.23475e-05 3.69162e-22)
(-7.66488e-06 -2.19375e-05 1.85818e-22)
(1.65436e-05 3.41256e-06 4.29775e-23)
(-0.000195161 0.000205045 -6.99799e-23)
(-1.3151e-05 -4.03809e-06 -4.66772e-22)
(4.48582e-05 3.11027e-05 -6.3217e-23)
(9.9439e-06 2.57974e-06 0)
(-0.000462212 -0.00154218 0)
(3.62218e-06 3.19582e-05 0)
(1.47013e-05 1.11304e-05 0)
(-0.00013559 -0.000577111 -1.15998e-22)
(0.00323671 0.0062974 0)
(4.5224e-06 4.61435e-07 0)
(-2.61392e-06 3.49021e-06 0)
(5.39422e-06 3.22265e-07 -5.41006e-22)
(-6.10222e-06 -2.42028e-05 -1.91786e-22)
(-0.00016125 -0.000109147 0)
(-0.000406442 -0.000238725 -1.29895e-22)
(0.0032316 0.00761736 -3.32506e-22)
(1.48533e-05 -1.57504e-05 0)
(-0.000111823 0.00013095 0)
(1.85957e-06 5.03285e-06 0)
(0.00553224 -0.00523331 2.26413e-23)
(-0.000542172 -0.00154081 2.05503e-24)
(1.16347e-05 -0.000122514 6.89159e-23)
(0.00013911 -4.66766e-05 0)
(0.00718651 -0.0153471 0)
(0.00351997 0.00288086 2.32307e-23)
(-1.20619e-05 -1.93427e-05 -1.88404e-22)
(-0.000145805 6.62426e-05 -2.9084e-22)
(8.10316e-06 0.000116691 -1.83004e-22)
(1.42721e-05 -1.62231e-05 -1.44635e-23)
(0.00319993 0.00242515 0)
(-1.20849e-05 3.70664e-07 1.70915e-23)
(0.00388764 -0.00573649 -1.06698e-24)
(-0.00575888 -0.000223262 9.56623e-22)
(0.00450092 0.00904133 -9.11034e-23)
(-8.73192e-05 -0.000106835 0)
(-0.00519297 -0.00210664 0)
(-2.19544e-05 -0.000136031 3.14986e-23)
(2.70303e-05 3.21224e-05 -3.16896e-22)
(0.00027497 0.000446976 1.83011e-22)
(0.00145216 -0.0031933 -8.8442e-24)
(1.67091e-05 3.94144e-06 -1.44648e-22)
(-5.5912e-07 4.62456e-06 -7.79485e-23)
(-0.000421935 -0.000219935 0)
(-7.39697e-07 4.43068e-06 0)
(-0.00107789 -0.000377798 0)
(-0.000138764 7.15969e-05 3.54939e-22)
(3.59587e-06 2.96966e-05 0)
(-1.1067e-06 2.26646e-06 -2.32609e-23)
(-0.000970781 -0.0104718 0)
(0.00956994 -0.0150128 0)
(0.00407307 0.00234849 -1.15006e-23)
(-0.0011393 0.000169797 0)
(3.50362e-06 -2.77972e-06 -5.86447e-23)
(-3.96551e-05 -3.54587e-05 -5.68123e-23)
(-0.00780622 -0.0033649 0)
(0.000338093 0.000444283 -1.83918e-22)
(-4.30562e-05 0.000145063 -1.83946e-22)
(-0.00134296 -0.00711886 -3.12207e-23)
(-0.000877459 -0.012185 0)
(0.00411433 0.00255404 0)
(-0.00118525 0.000314649 1.12643e-23)
(-0.00228755 0.00559731 0)
(-0.000795903 0.00253512 9.88341e-24)
(0.00167666 0.00607602 -6.40257e-22)
(3.29349e-06 1.01441e-06 0)
(-0.000208541 0.000214835 6.84206e-23)
(0.000983293 0.00101281 -7.87996e-23)
(0.0101099 -0.0141698 -2.19849e-22)
(-4.18055e-06 -1.95101e-05 0)
(-0.000310036 0.00303215 0)
(-1.52354e-06 -0.000141732 3.02582e-23)
(-9.18493e-05 -0.000111524 -2.61228e-22)
(6.33847e-05 -0.000110469 3.62975e-23)
(-0.000168021 -0.000616841 7.68893e-23)
(0.00765205 -0.00720333 9.64964e-23)
(0.00427348 0.00052839 4.41351e-23)
(-7.05066e-05 2.50566e-05 -6.4247e-24)
(1.69445e-06 5.10228e-06 2.28287e-22)
(-6.94602e-05 -0.000193369 0)
(0.00118897 -0.00333286 7.88821e-24)
(1.2362e-05 3.6826e-05 -1.59387e-22)
(1.64074e-05 3.78708e-06 1.07948e-24)
(-9.8453e-05 -0.000108661 5.251e-22)
(-0.000181951 -0.000110246 -3.89081e-22)
(-5.12104e-05 0.000141922 9.81292e-24)
(0.000340317 0.000349343 8.93659e-23)
(-0.00193546 -0.00227262 4.07488e-24)
(-0.000173395 -0.000646013 -1.18979e-22)
(0.0015089 0.00137553 -5.30797e-22)
(1.80819e-06 1.99569e-06 2.29039e-22)
(-0.00894637 -0.00889295 -9.10187e-23)
(-0.000350895 0.000383009 6.46806e-25)
(-5.50383e-05 -3.51107e-05 0)
(3.19885e-06 8.25031e-07 1.48081e-22)
(2.60876e-06 9.49905e-08 -2.25954e-22)
(0.00040119 0.000326735 0)
(1.17386e-05 -1.93424e-05 0)
(-2.21124e-06 4.49127e-06 -3.11473e-22)
(-4.15278e-05 -3.65694e-05 4.728e-23)
(0.00614206 -0.00511421 -2.02569e-22)
(-1.02517e-05 3.34743e-05 7.64581e-23)
(-5.17864e-05 -0.000436224 -1.24453e-22)
(-4.35471e-05 -0.000259336 -3.44062e-22)
(-9.32788e-07 2.93973e-06 0)
(-0.00240782 0.00178654 -3.18766e-22)
(-0.000528334 -0.00103807 -2.96567e-23)
(1.64523e-05 3.15002e-06 0)
(0.00109598 -0.000350832 0)
(0.00682526 -0.00422824 4.94019e-22)
(-5.88815e-07 5.09625e-06 7.75008e-23)
(6.21199e-05 -0.000130253 3.62789e-23)
(-8.01602e-05 -0.000109964 0)
(1.4917e-05 1.2765e-05 0)
(1.5902e-05 4.24227e-07 1.62553e-22)
(-0.00111471 -0.000317403 0)
(-0.00222112 0.00182305 -2.48903e-22)
(-0.000168934 -1.67414e-05 0)
(-0.000150364 0.000146095 -8.28237e-23)
(-4.03261e-05 0.000155373 1.92106e-22)
(0.007393 -0.00450249 0)
(0.00655421 -0.0168066 3.28848e-22)
(-1.33824e-05 -3.01412e-06 4.63171e-22)
(0.00428335 0.00193557 -8.08589e-24)
(-0.00698497 -0.00685666 5.6427e-23)
(0.00404376 -0.016412 3.08677e-23)
(0.0101498 -0.000231471 -2.17974e-22)
(-0.00209441 0.00165393 3.17407e-22)
(3.15552e-06 -7.48818e-07 3.58536e-22)
(0.000813514 -0.0022682 0)
(2.50334e-05 3.88658e-05 -6.49763e-25)
(-8.25204e-06 3.39509e-05 -2.5247e-22)
(2.04406e-06 -1.7147e-06 0)
(5.61364e-07 2.27596e-06 -2.44662e-22)
(-0.00389495 -0.00502409 -1.39876e-22)
(0.000348236 0.00678289 -1.79496e-23)
(0.00423343 -0.00163343 0)
(0.00413327 -0.00168336 -1.13262e-24)
(0.00445916 -0.000308334 0)
(0.000434132 -4.86716e-06 2.93497e-23)
(-0.000574825 -0.000961981 0)
(0.000499096 0.00101288 9.02523e-23)
(-4.59488e-05 -0.000251581 0)
(-4.7194e-05 8.16898e-06 -1.77553e-22)
(-4.3582e-05 -4.52986e-05 -2.18494e-22)
(-2.26972e-07 5.42112e-06 3.51847e-22)
(-1.27639e-06 3.45767e-06 -2.17271e-25)
(0.00438019 -0.000307334 1.11233e-22)
(-0.00202269 -0.000781716 1.14235e-23)
(0.00150378 -0.00248242 -3.22633e-23)
(0.00521741 -0.00465836 4.1003e-23)
(0.00191517 0.0142255 -9.91437e-22)
(-7.42545e-05 -8.83888e-05 -2.90851e-22)
(-0.00750854 -0.00857636 0)
(-4.59989e-05 6.49687e-06 -9.90072e-23)
(-0.0048508 -0.00213676 5.2268e-22)
(3.0243e-05 3.42192e-05 -3.473e-22)
(-7.60579e-05 -0.000106045 -9.56519e-23)
(0.000560039 -0.000852237 2.19914e-22)
(2.80829e-05 4.4976e-06 7.9332e-23)
(0.00282405 0.000392297 -3.97926e-22)
(1.09948e-05 -2.04047e-05 0)
(2.91006e-06 5.32166e-07 -4.25433e-22)
(0.00266288 -0.00485598 8.11916e-23)
(1.6497e-06 2.47973e-06 -4.45256e-22)
(0.0115629 -0.0149106 3.15107e-23)
(-0.00328942 -0.0070273 0)
(-0.000138027 9.26229e-05 8.10133e-23)
(-0.000147604 6.77872e-05 -5.1429e-23)
(-6.69174e-07 3.0059e-06 3.1319e-22)
(-3.83794e-05 -0.000145783 0)
(-0.00307504 0.000456871 -2.41685e-22)
(1.85353e-06 -1.73301e-06 -1.86958e-22)
(0.00722812 -0.00742165 -8.90017e-23)
(-0.00604396 0.0135722 0)
(-7.49434e-07 3.77597e-06 0)
(2.69645e-06 -5.92544e-08 7.02548e-22)
(2.13057e-06 3.63255e-05 0)
(2.08182e-06 1.16935e-06 -1.97327e-22)
(-1.58961e-06 3.04731e-06 4.17609e-22)
(0.00380866 -0.00308255 2.1364e-23)
(4.44015e-05 0.00527513 3.61634e-23)
(0.00527319 -0.0103532 0)
(6.4867e-06 -2.81352e-07 -1.00623e-22)
(0.00380569 0.0156085 6.58026e-22)
(-0.00158212 0.000951378 0)
(0.00363304 -0.00333106 1.48041e-22)
(2.02247e-05 5.14614e-06 -1.76348e-24)
(0.000115695 2.85685e-05 0)
(-0.00268658 7.92211e-06 0)
(0.00440712 0.00323418 4.91796e-23)
(0.000175769 -0.00509393 1.14239e-22)
(-6.25623e-05 -0.000561896 0)
(-0.00017014 -7.94402e-05 0)
(-4.75122e-05 1.43498e-05 0)
(-0.000134648 -0.000603623 3.509e-23)
(-9.62367e-06 2.88172e-05 0)
(0.00796456 -0.00682397 0)
(0.00445189 0.00236891 -4.86208e-23)
(0.000208179 -2.09895e-05 0)
(0.00121299 -0.000384934 2.86745e-23)
(-3.16729e-05 -0.000238396 -5.37829e-22)
(0.000192968 -4.50702e-05 0)
(0.000524656 -0.000906251 -1.95936e-22)
(2.27812e-05 3.85876e-05 2.97042e-22)
(-0.00206408 -0.00719782 2.00829e-23)
(-0.00601147 -0.0337053 0)
(1.78594e-05 0.000121507 5.19052e-22)
(-1.0613e-05 3.01871e-05 -1.5629e-22)
(0.00011693 1.8333e-05 -1.89958e-22)
(6.03082e-05 8.86381e-05 1.42535e-24)
(-6.90483e-05 -0.000542055 0)
(2.39518e-05 2.53267e-05 2.23611e-25)
(-0.000123252 -4.54058e-05 0)
(0.000507812 0.00679043 -3.88026e-24)
(0.000895361 0.00106661 -1.27947e-23)
(0.000434185 0.000113891 0)
(-0.000126837 -4.00804e-05 0)
(-0.00583882 -0.0334507 -1.76882e-22)
(1.70415e-05 1.11446e-06 -1.81419e-22)
(1.67971e-05 4.23433e-06 2.14947e-22)
(2.81264e-05 6.34075e-07 1.14476e-22)
(0.000119311 4.9027e-05 -6.46049e-23)
(-0.00445777 0.00228201 0)
(-7.2754e-05 -9.24038e-05 2.82662e-22)
(5.90709e-06 1.53239e-07 0)
(1.74218e-05 1.8761e-07 -2.67139e-22)
(-7.04466e-05 4.10265e-05 0)
(-3.55977e-05 3.41407e-06 2.02186e-22)
(-0.000251392 -0.000720535 0)
(-0.000435592 0.00358902 1.26119e-23)
(0.00120633 -0.00050564 0)
(-3.81692e-06 -0.000419808 0)
(4.94387e-05 2.99646e-05 1.47001e-24)
(0.00012296 -5.03793e-05 0)
(-3.90996e-07 1.38655e-05 1.73889e-23)
(0.000393473 -0.00211728 5.29959e-23)
(0.000568935 -0.00207288 -5.22139e-23)
(-0.000123373 -0.000112898 -5.24933e-22)
(3.01375e-06 2.78977e-07 0)
(-2.61054e-05 -0.000388508 1.8309e-22)
(-4.52192e-05 -1.41354e-05 1.7432e-22)
(4.57122e-07 2.44088e-06 2.68012e-22)
(0.000401427 8.40839e-05 0)
(0.0112059 -0.0139382 -5.77953e-22)
(0.000393913 0.000238923 0)
(-0.0002841 -0.00071465 0)
(0.000625632 -0.00558645 3.79628e-22)
(-0.00113214 -0.00894506 0)
(-0.000326672 0.00358545 0)
(2.82143e-06 8.27702e-08 2.41432e-22)
(-0.0100565 0.00823169 1.55196e-21)
(1.25323e-05 6.15821e-07 2.45024e-22)
(0.00010955 6.1058e-05 0)
(-0.00151997 -0.0108279 4.10444e-23)
(0.000713041 0.00569967 0)
(0.000930943 0.00590012 0)
(7.06289e-05 8.62258e-05 -1.93967e-22)
(0.00164283 0.000207091 1.84113e-23)
(9.60379e-05 -0.00023721 0)
(-0.000178214 -1.922e-05 0)
(4.80761e-06 3.02881e-07 2.41584e-22)
(9.58042e-05 5.52268e-05 3.63108e-23)
(-1.02774e-05 2.49096e-05 -3.33097e-22)
(0.000106433 -0.000140859 1.78926e-22)
(4.83996e-05 0.000220983 -8.40363e-23)
(-1.58077e-06 3.38115e-06 0)
(2.52753e-06 -7.28905e-07 -5.62066e-22)
(-6.6268e-05 3.39537e-05 2.88302e-22)
(1.04973e-05 -1.08395e-06 0)
(-7.02889e-05 4.57612e-05 2.47651e-22)
(-1.06524e-07 5.92462e-06 2.10076e-22)
(-9.71238e-05 -0.000209736 0)
(3.06428e-05 -9.0678e-06 -3.18579e-23)
(0.000433531 0.000207491 -7.57957e-23)
(-2.7733e-05 -2.68399e-06 8.7367e-24)
(-9.92614e-07 -0.000371975 5.95137e-22)
(-0.00138978 0.00943247 -4.36017e-23)
(-0.00496228 0.00762479 -9.32531e-24)
(1.66053e-05 -3.76359e-07 -4.73129e-23)
(0.000668663 0.00537612 0)
(0.00154217 0.000178615 0)
(1.80937e-06 1.28399e-06 8.40969e-23)
(-0.00959396 -0.0135829 0)
(0.00280856 -0.00465778 1.43482e-22)
(-5.72228e-05 -0.000262746 -1.73764e-22)
(1.83853e-06 7.67448e-06 -4.29658e-25)
(-6.53388e-05 3.76897e-05 0)
(9.75779e-05 -0.000147346 -1.69222e-22)
(0.00164394 0.00255899 0)
(-0.00476183 0.00722347 -1.71176e-23)
(7.47927e-05 0.000232189 0)
(0.000128691 0.000132277 4.49525e-24)
(2.04241e-05 3.80116e-06 1.03773e-22)
(0.00011028 0.000128014 -8.79436e-25)
(-4.85645e-05 -0.000267471 5.06574e-22)
(-0.00153036 0.0010245 2.49439e-22)
(0.00432159 -0.000307271 -1.13028e-22)
(7.97049e-05 -0.000253101 0)
(2.16918e-06 7.86695e-06 -2.95051e-22)
(-6.68683e-05 2.71412e-05 6.06075e-24)
(-0.00518803 -0.000620628 -7.24829e-22)
(-0.00281637 0.0155582 3.38734e-23)
(-0.0052615 0.0123259 -8.6594e-23)
(0.00409936 -0.000410018 9.29008e-23)
(-1.26489e-05 -0.000379329 -2.22997e-22)
(2.07476e-06 1.34929e-06 3.69802e-22)
(-0.00361836 -0.00268842 6.94483e-22)
(-0.00169489 0.000164823 0)
(1.59176e-05 -8.83287e-07 -1.64215e-22)
(0.00351755 -0.00839144 -5.32875e-22)
(-0.00016197 0.000115771 0)
(2.09206e-05 3.20762e-05 -3.38392e-22)
(1.03971e-06 1.86678e-06 -1.37604e-22)
(-0.00297741 0.00270449 0)
(-0.00262032 -0.000311696 0)
(2.01832e-06 1.54612e-06 0)
(-0.0010044 0.00108693 -2.98259e-24)
(2.34386e-06 -1.08095e-06 -1.25295e-24)
(-4.90965e-05 -0.0027813 5.46853e-23)
(-0.000174577 -0.000118217 -2.91257e-24)
(-0.0105901 -0.0130712 1.4291e-23)
(-0.000930522 0.00128456 0)
(-8.62821e-06 3.80319e-05 2.62305e-22)
(0.00292119 0.00159077 9.01931e-22)
(5.7169e-05 0.000151375 -1.35657e-24)
(4.28258e-05 0.00014072 1.57167e-24)
(0.00179631 0.000613611 0)
(1.08883e-06 3.90442e-06 -2.26622e-22)
(-0.00160939 0.000619011 -4.68762e-22)
(0.00209363 -0.00587612 -2.82827e-22)
(0.00433452 0.00638503 -9.76519e-23)
(0.000257284 -1.14557e-05 2.93534e-22)
(1.66115e-05 -4.55655e-06 6.9178e-23)
(-0.000146579 0.000189757 -2.19995e-22)
(1.45651e-05 -0.00207264 -1.26912e-22)
(0.00124375 -0.00375058 -7.64467e-23)
(-0.000129543 -0.000118173 4.61597e-22)
(0.000232886 9.46877e-06 -9.29829e-23)
(1.6589e-05 -4.21532e-06 1.66026e-25)
(-3.30045e-05 -0.000242721 0)
(-6.33986e-05 -0.000274614 -3.60303e-22)
(-2.56134e-05 -1.90613e-06 6.0076e-22)
(2.35217e-05 1.10996e-05 9.96842e-25)
(4.42469e-05 8.32851e-05 0)
(-5.17386e-05 -4.00492e-06 -1.51781e-22)
(-5.79929e-05 -4.49642e-05 -1.35764e-23)
(7.3777e-05 0.0167219 -6.4083e-23)
(-1.413e-06 2.07129e-06 -1.91593e-22)
(0.000151366 0.0159559 0)
(6.48002e-07 2.46471e-06 0)
(0.000136898 3.63995e-05 1.24718e-22)
(5.21576e-06 3.68229e-05 0)
(0.000398949 -0.00235224 0)
(2.84591e-05 -4.87261e-07 0)
(-0.000549782 -0.000793893 0)
(-6.24189e-06 -3.0976e-07 -4.79251e-23)
(0.00232823 -0.00567809 2.76294e-22)
(9.8965e-07 0.000141701 0)
(-6.07575e-06 0.000130394 -4.6457e-24)
(9.81829e-06 3.3444e-06 -2.24115e-23)
(0.00113341 0.00432819 0)
(2.12743e-06 8.40636e-07 0)
(-7.40644e-05 -0.000274396 5.32184e-22)
(9.82946e-06 4.78427e-05 -4.20722e-23)
(9.21655e-05 -0.000173291 -2.10059e-23)
(-1.15871e-05 2.63994e-05 0)
(0.00374987 -0.00558017 0)
(-4.15709e-06 2.836e-06 -1.81964e-23)
(-3.3692e-05 0.00531585 -4.07722e-23)
(9.93824e-06 3.4179e-06 2.0378e-23)
(1.25276e-06 3.95073e-06 8.12263e-23)
(-0.000449236 -0.000232874 5.40743e-23)
(-3.40274e-05 1.05803e-06 -3.13168e-23)
(4.19151e-05 0.000135294 2.23868e-24)
(-6.54498e-06 3.89731e-05 -8.92644e-23)
(-0.000406436 -0.00187381 2.88078e-23)
(1.03479e-06 2.71552e-05 0)
(-4.48962e-06 -1.38473e-05 0)
(-0.00661537 -0.00773563 0)
(0.000693895 -0.000336009 1.33127e-24)
(0.00110874 -0.000437946 1.64227e-23)
(0.000131765 2.59166e-05 3.55551e-24)
(0.000756165 0.00177137 -1.87812e-22)
(3.82639e-06 1.756e-06 0)
(1.65018e-05 6.25487e-07 -6.02139e-23)
(2.86421e-05 3.59458e-06 8.13696e-23)
(-3.98915e-07 3.10499e-06 -3.61208e-22)
(6.89771e-07 -1.00149e-05 0)
(0.000205592 -0.00242302 0)
(1.94859e-05 3.14707e-06 -2.34228e-22)
(2.94512e-06 2.54208e-06 -2.30031e-22)
(-0.000573871 -0.00164534 -1.54547e-23)
(2.36827e-05 3.69611e-05 9.65999e-25)
(-0.00171575 0.000952665 0)
(0.00246016 0.000644923 0)
(-0.00333048 -0.0212732 0)
(0.00170594 0.00223524 0)
(-5.85767e-06 -0.000133401 0)
(8.14359e-06 1.23623e-07 0)
(2.31346e-06 -1.0493e-06 0)
(-4.75401e-06 -4.60393e-06 -9.58981e-23)
(1.86546e-06 1.19004e-06 1.3493e-22)
(2.64007e-05 8.55819e-06 -1.20094e-22)
(-0.00117476 0.00160856 -1.70392e-22)
(0.00104343 -0.00129537 -1.42688e-23)
(-1.01501e-05 4.53213e-06 3.78058e-24)
(-0.00010299 -0.000113411 -2.14988e-22)
(2.59791e-05 9.69877e-06 1.93889e-22)
(0.000104893 -0.000180904 2.00172e-22)
(-5.78007e-05 -0.000131985 -4.4572e-22)
(0.000710268 -0.00128231 0)
(2.22084e-06 -1.25972e-06 0)
(2.26878e-05 3.46133e-05 1.64536e-22)
(-0.00266504 -0.00781659 0)
(0.00115475 -8.50448e-05 -1.54646e-23)
(3.32017e-06 2.36402e-06 -1.12945e-22)
(-6.71924e-06 -2.49818e-06 1.91402e-22)
(1.52047e-05 2.59138e-06 0)
(-0.0129664 0.0102616 -3.64338e-22)
(-4.71034e-05 -0.000116772 -6.45601e-25)
(-0.0025326 -0.00720207 0)
(6.15353e-06 0.000101773 0)
(-0.00168044 0.00148016 7.42683e-23)
(2.41265e-06 1.58035e-06 6.2974e-22)
(0.000949474 -0.0038748 1.43719e-22)
(0.00464433 -0.00468245 -1.42506e-22)
(-3.79797e-05 -4.04763e-05 0)
(-4.82912e-05 0.000103939 -1.28784e-22)
(-0.00517176 -0.00849749 -1.06288e-23)
(1.51518e-05 2.40468e-06 -8.33469e-23)
(-0.00116307 0.00399065 8.65299e-24)
(-3.67564e-05 -3.86727e-05 -3.97551e-24)
(9.0509e-07 2.91353e-05 0)
(-2.90685e-05 3.09213e-06 2.78272e-23)
(-1.06511e-05 -2.16179e-05 2.04466e-22)
(1.31445e-05 1.49865e-05 6.75324e-23)
(-0.00241308 -0.00663004 0)
(-0.00217748 -0.0210272 0)
(-0.00178056 0.000734454 -1.18656e-22)
(-3.41611e-05 1.03234e-06 0)
(3.47736e-06 2.31323e-06 0)
(0.00799579 0.00235376 5.03221e-23)
(-0.00229129 -0.00588008 -4.83933e-23)
(-0.00216763 -0.0176722 2.39612e-22)
(-0.00251715 -0.018436 0)
(7.06059e-06 -7.75019e-05 -1.7139e-22)
(-3.72864e-05 0.000118255 1.15793e-23)
(0.000863691 -0.000503306 9.17161e-23)
(4.34512e-05 0.000129655 -1.43199e-22)
(-2.20878e-06 -9.10348e-06 2.01674e-22)
(8.81639e-06 2.39585e-06 -5.29744e-23)
(-0.000961011 -0.0131499 5.38335e-23)
(7.89953e-06 3.55491e-06 -2.04523e-22)
(-3.95699e-05 0.000108426 0)
(3.22594e-05 -2.8861e-05 -6.86484e-23)
(0.0017429 0.00453223 -3.3331e-22)
(1.02969e-05 3.98752e-05 1.63666e-22)
(0.00270566 -0.00893972 5.3585e-22)
(1.62315e-05 -1.1785e-05 -3.11432e-23)
(4.73941e-06 1.28875e-05 0)
(1.62286e-06 3.62473e-06 5.1255e-25)
(-2.79571e-05 -2.23682e-06 0)
(2.71287e-06 1.32989e-06 -1.92518e-22)
(7.64308e-06 2.64798e-05 0)
(-3.88012e-05 -0.000165645 -4.88136e-23)
(-0.0134254 0.0078952 0)
(-0.00181346 0.000568947 6.59239e-23)
(0.00312457 0.00291092 -2.11359e-22)
(-0.00119145 -0.00773694 2.5944e-23)
(-0.0014349 -0.0054685 0)
(0.000151099 0.000132825 3.22568e-22)
(-0.00146445 0.00144901 0)
(1.56027e-05 3.11852e-07 -1.74169e-22)
(0.000125203 0.00161344 -9.72089e-23)
(1.24917e-05 0.000100745 -1.59064e-22)
(1.12577e-05 5.97748e-06 0)
(-0.000246954 0.000399132 -6.32756e-25)
(-0.00162108 -0.00227884 9.50207e-23)
(-0.00156662 -0.00489317 9.17512e-24)
(-0.000161865 0.000103303 -2.29852e-22)
(0.00462868 -0.00755204 -2.25193e-22)
(0.00202649 0.000818388 0)
(1.30566e-06 2.94808e-06 0)
(0.00236781 -0.000112648 1.54454e-23)
(-1.92424e-06 -4.59613e-06 3.45393e-23)
(0.000307864 -7.7308e-05 0)
(-1.19104e-07 -1.7901e-06 0)
(3.69043e-05 3.70257e-05 2.36174e-22)
(-0.000313368 -0.000457842 -2.823e-22)
(0.00104246 0.000458851 -9.06007e-24)
(0.003714 0.00438378 6.21481e-24)
(-4.89278e-06 -7.31999e-06 0)
(0.000957977 0.000613142 6.74339e-22)
(-1.14311e-05 -0.000101836 1.40671e-22)
(0.0106674 -0.00255715 1.01535e-22)
(0.00550613 0.00234741 6.2418e-22)
(-0.000466916 -0.000212629 -9.5635e-23)
(-5.95682e-05 2.50526e-05 -3.20869e-22)
(8.76281e-06 2.55822e-06 2.85163e-22)
(-0.000230116 0.000277241 9.55011e-23)
(-0.00232325 -0.000508362 -2.26107e-22)
(0.001975 -0.000293578 0)
(-1.81036e-05 -5.12805e-07 -1.10074e-22)
(2.97816e-06 1.88234e-06 0)
(0.000991666 -0.000128259 -3.05957e-25)
(-8.37739e-07 -7.96156e-06 -1.10043e-22)
(0.00609108 -0.00115872 0)
(-0.000300014 -0.00043817 1.9488e-22)
(-2.82259e-05 2.32787e-05 0)
(9.68657e-05 0.000103228 -7.13572e-23)
(-0.00274007 0.000864848 0)
(-0.00185234 0.00109011 -1.38253e-22)
(0.000149233 0.000116694 -3.46392e-22)
(0.000169833 3.59162e-05 -1.7908e-22)
(-0.00250464 -0.00239806 2.43088e-23)
(0.0105881 -0.00294183 -1.81345e-22)
(-4.39037e-05 7.14492e-05 0)
(-4.73461e-05 7.48887e-05 4.42154e-22)
(0.0028325 -0.000767843 1.22074e-22)
(-6.04401e-05 2.98754e-05 -6.59642e-23)
(0.000104538 2.94843e-05 -3.49239e-24)
(-0.00652476 -0.00729921 9.14434e-24)
(0.0108169 -0.00112978 6.098e-22)
(0.00129255 0.00126255 1.05854e-22)
(7.15922e-06 1.81011e-06 -2.75907e-24)
(-0.00187725 0.00126846 7.9082e-23)
(-1.81111e-05 -3.05256e-05 0)
(-6.27488e-05 -4.44092e-05 2.71907e-23)
(0.00557835 0.000592491 1.52919e-21)
(0.000456622 -0.000252051 -3.11245e-22)
(-4.98884e-05 4.31836e-06 1.95625e-22)
(-4.02378e-05 -1.88429e-05 -2.5824e-23)
(-1.37074e-05 -2.63771e-05 0)
(-0.000952104 0.00173165 1.12833e-22)
(0.00466291 -0.000477788 0)
(2.95519e-05 -2.96779e-05 -1.1384e-22)
(-0.000130496 0.000146138 4.12316e-26)
(-0.00313341 0.00128854 1.88644e-22)
(-0.00306159 8.5305e-05 5.2607e-23)
(1.51749e-05 6.23563e-05 -6.27288e-25)
(-5.71788e-05 -6.78441e-05 -3.18178e-23)
(0.00416121 -0.00271174 -8.36239e-23)
(-0.0105267 0.00775414 -1.39148e-21)
(-5.21007e-05 -6.0291e-05 4.39753e-23)
(0.00136195 0.00604754 -3.46495e-22)
(1.5656e-06 2.88991e-06 0)
(3.90305e-06 -3.84584e-06 -1.53524e-22)
(-0.00610549 -0.00638182 1.97106e-23)
(-6.31443e-05 3.06393e-05 -5.43982e-22)
(0.000300664 -0.000114895 -1.96218e-22)
(0.00254233 -0.00192683 -8.89869e-23)
(-5.63274e-05 2.46693e-05 -4.72639e-22)
(0.000805429 -0.000531303 -9.70589e-23)
(0.00108605 -0.000249936 2.45201e-23)
(0.00735157 0.00394434 2.74178e-24)
(6.72349e-06 -2.25653e-05 0)
(-0.00067965 0.00124047 0)
(0.00108182 0.000390021 -2.38966e-23)
(-0.00322887 -0.00292663 0)
(8.17405e-06 3.37058e-06 6.0054e-23)
(0.000516581 -0.000776216 0)
(-0.00022146 0.000318158 1.07334e-23)
(2.25831e-06 1.48437e-06 1.6195e-22)
(-3.41315e-05 6.37282e-06 -1.9634e-22)
(4.40448e-06 4.17893e-06 -2.17832e-22)
(-0.000216744 8.01086e-05 -1.20745e-22)
(-0.00903104 -0.0107151 2.09044e-22)
(-0.00172087 -0.00325894 8.98697e-24)
(0.00191786 0.0011272 0)
(-8.21726e-07 1.14121e-05 -7.34233e-23)
(-3.54951e-06 -1.76363e-05 1.81985e-22)
(0.00279138 -0.00124189 3.91651e-22)
(0.00303205 0.000117667 4.09279e-22)
(9.09186e-05 3.35075e-05 1.83911e-22)
(1.72008e-05 4.70765e-06 8.65864e-23)
(8.54488e-06 2.2081e-07 1.36394e-22)
(1.37357e-05 -7.47038e-05 -4.40178e-22)
(0.000550841 -0.000726905 0)
(-0.00152546 0.00102285 0)
(0.00139429 0.00547882 0)
(2.52775e-05 7.59341e-06 1.62603e-23)
(8.26634e-06 4.32009e-07 2.46516e-22)
(2.6564e-05 2.3191e-05 0)
(-0.00130859 0.00210449 0)
(-0.00163147 0.000733374 1.88561e-22)
(-0.000560394 0.00137025 0)
(3.7567e-06 -3.65013e-06 -1.18508e-22)
(-0.00136834 0.0017018 2.00628e-22)
(0.00146458 0.000442208 -2.82653e-22)
(-0.000850307 0.00188046 -1.27935e-22)
(-6.70451e-05 0.000265238 1.0328e-22)
(-0.000687437 0.0155283 0)
(0.00061463 -0.00535625 5.38195e-22)
(4.59567e-07 1.32561e-05 0)
(1.90048e-05 2.6467e-07 0)
(-1.13796e-06 6.1172e-06 -1.59539e-22)
(-0.00274354 -0.00822565 0)
(1.97561e-06 1.1689e-05 0)
(9.72073e-06 -1.29186e-05 -1.0782e-22)
(-0.00949002 -0.00187159 3.10302e-22)
(-0.000667509 -0.00600742 1.66072e-23)
(0.0176343 0.0107161 0)
(-0.00112893 -0.00635254 0)
(2.39175e-06 -7.97671e-07 1.83779e-22)
(-3.78433e-05 2.21606e-05 0)
(5.8037e-05 2.17073e-05 1.04825e-22)
(-0.000177814 -0.000211107 1.27077e-23)
(-5.73232e-05 -3.81921e-05 3.47486e-23)
(2.56452e-06 7.54284e-06 5.7027e-22)
(-0.000333527 0.00128399 5.31206e-24)
(-0.00260119 -0.00811952 0)
(-0.000513222 -0.000869084 0)
(0.000397087 2.30071e-05 2.83906e-22)
(2.99518e-06 -1.32861e-06 -4.68874e-22)
(-0.00159055 -0.00247629 1.13518e-23)
(0.00564593 -0.0160656 0)
(-1.40787e-06 1.09707e-05 -2.53723e-22)
(-0.00116148 0.00176502 -2.01816e-22)
(1.2115e-06 1.17559e-05 0)
(-9.9139e-05 0.000260111 1.37781e-22)
(0.00990196 -0.0036233 -1.7715e-22)
(0.00304573 1.63642e-05 -1.87693e-22)
(0.00163823 0.00300936 5.95724e-23)
(0.00368851 0.00113815 9.96975e-23)
(-0.000124228 -0.000149882 -2.72552e-22)
(1.03961e-05 4.75788e-06 0)
(0.0108693 -0.0145321 -3.27332e-22)
(2.49599e-05 -4.35081e-05 0)
(0.00079681 0.0019139 0)
(2.72601e-05 -4.118e-05 0)
(1.14984e-05 -1.83744e-05 1.5755e-23)
(2.85658e-06 7.67744e-06 -2.96884e-22)
(-0.000206632 0.00136639 -6.27592e-24)
(0.00176752 -0.00129039 -4.40513e-23)
(-0.000138898 -0.000131951 -2.49226e-22)
(0.00380516 -0.0185327 7.08168e-23)
(-9.12683e-05 0.000245871 0)
(0.000228069 0.00158507 5.37806e-23)
(-0.00462719 -0.00197924 0)
(0.0152192 0.0118005 2.93672e-22)
(0.00241405 -0.00131461 0)
(4.67334e-06 4.32816e-06 0)
(4.26715e-05 -1.46907e-05 0)
(0.000175249 1.41243e-05 1.32115e-22)
(0.000420676 -2.3431e-05 -2.87884e-22)
(0.0071676 -0.00161325 7.81306e-23)
(1.5417e-06 3.11359e-06 0)
(0.00355402 -0.00580618 -3.51006e-23)
(-0.00420318 0.00561492 0)
(4.68844e-06 4.51328e-06 -3.62395e-22)
(1.01889e-05 4.66228e-06 0)
(-0.000129545 -0.000285071 -2.67019e-23)
(0.00124809 -0.00294178 4.96805e-24)
(0.00113021 -0.00301249 1.80389e-23)
(8.39475e-07 1.97754e-06 2.9945e-22)
(-1.72901e-05 8.71384e-07 -2.40431e-24)
(-0.00323271 0.00105686 -5.18999e-23)
(-0.000698427 0.00252627 0)
(1.87874e-05 5.9817e-05 -9.24083e-25)
(-0.000234114 0.00039811 -3.14686e-23)
(-6.09796e-05 -0.000141375 1.93818e-22)
(-6.84954e-05 -1.90433e-05 1.83324e-24)
(-5.80544e-05 -1.815e-05 -1.50406e-23)
(-0.0116473 0.00814352 -7.54921e-22)
(0.00154208 -0.000809862 1.4131e-24)
(8.61256e-05 3.933e-05 7.34473e-23)
(3.12612e-06 -4.04347e-06 6.54388e-22)
(0.00670376 -0.0080552 0)
(-0.000788055 0.00148691 -1.63784e-22)
(-0.0104884 -0.00756696 0)
(0.00470163 -0.00998432 0)
(1.46318e-05 5.87231e-07 1.08115e-22)
(0.00173064 0.00316684 5.64904e-23)
(4.1478e-05 -1.7507e-05 7.8722e-23)
(1.9614e-05 2.0545e-06 2.44717e-25)
(0.00400029 -0.00303574 0)
(-1.2804e-06 2.44481e-06 8.85558e-23)
(0.00458367 -0.00967757 0)
(1.93806e-05 2.19342e-06 8.00676e-23)
(2.70667e-06 -1.47445e-07 3.73128e-22)
(1.7761e-06 1.54819e-06 -1.17246e-22)
(4.01229e-06 2.53592e-06 -2.54333e-25)
(0.00494702 -0.00037037 0)
(3.36436e-06 -3.11465e-06 0)
(-0.015436 0.00914826 0)
(-0.00494624 0.00193875 5.4874e-22)
(3.84668e-06 2.67292e-06 2.78756e-22)
(1.21829e-05 3.85676e-07 -1.22474e-22)
(-0.00927964 -0.00210555 2.31811e-22)
(1.9143e-06 -3.25575e-07 0)
(1.7904e-05 1.12623e-05 2.75402e-24)
(1.76924e-05 5.76654e-07 0)
(-0.000587585 0.000564963 0)
(-3.72043e-06 0.00247907 -5.4492e-24)
(0.000962966 -0.00431528 -1.54284e-22)
(-0.00872755 -0.00105434 -3.7686e-23)
(2.74604e-05 -9.454e-06 -1.27808e-22)
(-0.00274012 0.0151646 0)
(-0.00669717 0.00376611 0)
(-0.00895335 -0.00175549 0)
(0.000178919 -7.62381e-06 2.81132e-22)
(0.00131253 -0.0024349 0)
(1.09986e-05 6.26587e-06 0)
(-0.00854222 -0.00408996 1.27903e-22)
(-2.33642e-05 5.48984e-05 -1.22231e-23)
(-0.000188687 2.16524e-05 2.0525e-22)
(6.01988e-06 2.43765e-05 -1.30741e-22)
(-0.00861355 -0.002885 -6.16974e-22)
(-0.00295495 0.015735 0)
(-5.30945e-06 0.000121368 -3.59797e-23)
(0.00144251 -3.75503e-05 -9.5385e-22)
(-0.00658956 0.00313755 0)
(1.91259e-05 2.72876e-06 1.09445e-22)
(1.01747e-05 4.42247e-06 1.67939e-22)
(9.99369e-06 4.33721e-06 1.81368e-22)
(3.07088e-06 2.26572e-06 2.06966e-22)
(-0.000659901 -0.00164331 1.55893e-23)
(0.00145894 -0.00174271 0)
(1.60841e-05 2.76305e-06 0)
(-0.00052124 -0.000289021 -8.0713e-23)
(0.000379088 -9.48247e-05 0)
(-0.000115507 -0.000166212 1.85252e-22)
(0.00162603 -0.00226319 1.59244e-22)
(0.00742736 -0.00260704 -4.47303e-23)
(1.93903e-05 2.59997e-06 -1.51996e-22)
(3.46202e-05 0.000106586 0)
(-5.89642e-05 0.00132145 -1.12899e-23)
(-0.000119091 0.00018347 2.2594e-22)
(0.0102575 -0.0148101 1.85806e-24)
(-0.000204295 2.1699e-05 2.15726e-22)
(-0.000152218 -0.0185756 -3.34107e-23)
(0.00402196 0.00695863 0)
(0.00102519 0.000512374 2.26497e-22)
(2.56863e-05 6.92798e-06 0)
(-6.36078e-06 -1.95778e-05 0)
(-1.98639e-05 -4.35324e-06 -3.09642e-23)
(0.000833729 0.0014195 4.72116e-23)
(0.000609023 -0.00389377 1.23917e-23)
(0.000287036 -0.00458414 -1.80953e-24)
(-0.00375262 -0.00363719 -4.62544e-22)
(1.36004e-05 -6.66319e-06 4.43749e-23)
(-4.47138e-06 4.62605e-05 0)
(-0.0058538 0.00438854 -4.18866e-22)
(0.0017754 -0.00155109 0)
(-0.00615311 0.00618684 7.10991e-23)
(0.000378031 0.00244881 -2.14524e-24)
(1.19713e-05 6.02093e-06 -3.12695e-23)
(-0.0117752 0.00863686 2.20904e-23)
(3.6273e-06 1.3265e-05 0)
(0.0013051 0.00112235 3.76436e-23)
(1.39857e-05 2.55463e-06 0)
(1.83991e-05 6.34372e-06 3.16971e-22)
(-1.77673e-05 1.48982e-06 0)
(0.00630141 -0.000836449 -2.38447e-22)
(6.2598e-06 9.06978e-07 -1.20903e-22)
(-0.000713474 0.00356578 0)
(4.64917e-05 -1.11377e-07 0)
(5.85498e-06 -1.98246e-08 -1.93598e-24)
(2.07844e-06 1.94625e-06 4.44385e-22)
(-0.00105546 0.0016295 0)
(8.54887e-06 2.68869e-06 -2.86603e-22)
(0.00032998 -0.000103445 -1.32688e-22)
(0.000618844 -0.00445389 1.43842e-22)
(6.18702e-05 1.84689e-05 -6.53345e-23)
(-0.000193193 -0.000112504 -2.01437e-22)
(9.48235e-05 -0.00402905 0)
(-4.72289e-05 6.48759e-05 -3.47862e-22)
(2.52218e-05 2.40932e-05 0)
(-1.97302e-05 0.000111507 -1.16186e-22)
(7.55673e-07 7.88795e-06 -1.04795e-22)
(-0.0145397 0.0104502 2.52482e-22)
(0.000335113 -0.000141563 -1.95732e-22)
(0.0135887 -0.0115475 0)
(1.98981e-05 1.31495e-06 1.50383e-22)
(4.65976e-07 -1.08655e-05 -2.92556e-22)
(3.0751e-05 2.61282e-06 0)
(-9.0223e-05 0.000136652 0)
(2.64801e-05 -2.71479e-05 5.94115e-23)
(-2.23269e-05 -0.000483395 3.88771e-22)
(-0.000790667 0.0162117 0)
(0.00353631 0.00491312 -1.50084e-22)
(0.00033306 -0.000363167 0)
(-0.00180481 -0.00129132 -1.36998e-22)
(1.48648e-05 -1.31883e-05 0)
(0.00102504 -0.000651688 1.43497e-23)
(3.78318e-06 -3.06787e-06 0)
(0.00264807 0.00172793 -4.67193e-22)
(0.000320703 -0.000184355 0)
(-0.00189223 -0.000789794 3.10298e-22)
(0.00142779 -0.0146422 -7.87883e-23)
(8.61197e-05 6.23088e-05 3.84271e-23)
(-4.07696e-05 -0.000128287 -9.38418e-23)
(2.68431e-05 -8.7176e-06 4.87462e-23)
(-7.57747e-06 4.18824e-05 -8.50685e-23)
(1.97748e-05 1.07375e-06 0)
(5.88131e-07 7.28583e-06 7.28479e-25)
(-0.00119865 -0.000328733 0)
(-0.00134749 -0.0028739 -7.07369e-24)
(-2.1749e-05 9.74409e-07 8.66215e-23)
(-4.76087e-05 -3.6744e-05 2.12281e-23)
(-0.00881915 -0.00518714 0)
(0.00420404 -0.00247064 -1.8982e-22)
(2.77946e-06 -3.45154e-07 -2.49974e-22)
(-0.000643523 -0.00299173 0)
(-3.71831e-05 0.000118279 4.32492e-23)
(1.97951e-05 -3.72258e-06 -3.41676e-23)
(1.24188e-05 4.05113e-06 0)
(1.57083e-05 -9.91078e-06 0)
(1.97123e-05 -4.21316e-06 0)
(0.000635342 -0.00161163 0)
(-0.000149515 -0.000100705 1.19318e-22)
(0.000645452 -0.00165614 0)
(2.32532e-06 -8.87868e-07 -8.01274e-26)
(0.00422548 0.00799394 -2.68263e-23)
(-0.000166194 -0.000125201 0)
(1.71e-05 5.61891e-06 0)