/*--------------------------------*- C++ -*----------------------------------*\
| =========                 |                                                 |
| \\      /  F ield         | OpenFOAM: The Open Source CFD Toolbox           |
|  \\    /   O peration     | Version:  v2012                                 |
|   \\  /    A nd           | Website:  www.openfoam.com                      |
|    \\/     M anipulation  |                                                 |
\*---------------------------------------------------------------------------*/
FoamFile
{
    version     2.0;
    format      ascii;
    class       surfaceScalarField;
    location    "350";
    object      phi;
}
// * * * * * * * * * * * * * * * * * * * * * * * * * * * * * * * * * * * * * //

dimensions      [0 3 -1 0 0 0 0];
oriented        oriented;


internalField   nonuniform List<scalar> 
49868
(
-0.0978102
0.219934
-0.122124
-0.241894
0.333534
-0.0916405
-0.0694754
-0.0603862
0.129862
-0.205204
-0.13408
0.339285
-0.10334
0.157652
-0.054312
-0.144902
-0.0929723
0.237874
0.22521
0.12103
-0.346239
-0.343546
0.172478
0.171068
0.349875
-0.372002
0.0221273
0.0585302
0.0261649
-0.0846951
-0.301934
0.17469
0.127244
-0.128707
0.23672
-0.108013
-0.125811
0.351021
0.0513515
0.0837437
-0.135095
0.224022
0.346655
-0.269711
-0.076944
-0.3245
0.0041233
0.320377
0.113063
-0.0847632
-0.0282998
-0.049501
0.155153
-0.105652
-0.202048
0.291911
-0.0898634
0.0649662
-0.102109
0.0371429
-0.291112
0.105969
0.185143
0.363869
-0.365247
0.00137766
0.105432
-0.203242
-0.405278
0.280578
0.124699
0.113501
-0.242208
0.334784
-0.32222
-0.0125641
0.140578
-0.0993631
-0.0412154
-0.150575
-0.140537
0.385185
-0.0148546
-0.37033
0.0873727
0.26451
-0.351883
-0.173503
0.32091
-0.147407
-0.116837
-0.0573664
0.174204
0.0825623
0.0305007
0.142369
-0.364116
0.221747
0.18135
-0.30063
0.119281
0.067119
0.0600552
-0.127174
-0.0393885
0.315243
-0.275855
-0.150042
-0.0858536
0.235896
0.0768923
0.0463245
-0.123217
0.28406
-0.206562
-0.0774988
0.34795
0.0372349
-0.259175
0.219786
0.364893
-0.364893
-0.0782097
0.0740323
0.00417743
-0.046638
0.115276
-0.0686383
0.355508
-0.166334
-0.189174
0.0840554
-0.134624
0.0505688
0.0657897
0.0549014
-0.120691
-0.375433
0.179821
0.195612
0.0738089
-0.177586
0.103777
0.386265
-0.107869
-0.278396
0.240438
-0.108045
-0.132392
-0.352936
0.128691
0.224245
-0.205006
0.306725
-0.101719
0.100726
0.0398522
-0.318551
0.113545
0.145156
-0.106211
-0.0389447
-0.056001
0.132893
-0.178883
0.129382
0.2273
-0.0125466
-0.214753
-0.36462
0.20923
0.15539
0.130754
-0.0636345
0.0495786
0.265665
0.345093
-0.328393
-0.0166999
0.154945
0.0827915
-0.237736
0.402878
-0.334216
-0.0686622
0.0929311
-0.0610404
-0.0318907
0.283492
0.102773
-0.183508
0.123468
0.060039
-0.382631
0.134143
0.248487
-0.252081
-0.112539
0.308126
-0.258548
0.0316063
0.313486
0.107097
0.0482987
-0.155396
0.291576
0.0585495
-0.350126
0.26883
-0.162861
0.0820829
-0.213118
0.131035
0.133504
-0.0821529
-0.173205
0.0802405
0.0929643
0.177402
-0.0466488
-0.116167
0.277368
-0.1612
0.173507
0.0820398
-0.255547
-0.233064
0.131294
-0.0472389
0.155175
-0.37896
0.223785
0.0644822
-0.0972874
0.0328052
0.0526948
-0.0448372
-0.00785759
-0.00774355
0.0567426
0.250806
0.0657153
-0.316521
-0.305402
0.131899
0.186699
0.0984876
-0.285186
0.122003
0.118435
-0.173761
0.282369
-0.108607
-0.231906
0.0775076
0.0537868
-0.142805
0.103509
0.0392959
-0.112652
-0.0708551
0.386654
-0.103162
0.128845
-0.36567
0.236824
-0.03385
0.0983323
-0.0902191
0.263726
-0.122609
0.273004
-0.150396
-0.252104
0.318065
-0.0659611
0.195949
-0.383634
0.187685
0.125654
-0.367133
0.24148
-0.124097
0.20618
0.355135
-0.338943
-0.0161926
0.272823
0.113831
0.385828
-0.254812
-0.131016
-0.112436
0.217868
0.102108
0.30077
-0.17665
0.0598123
0.347212
-0.22303
-0.124182
0.0702731
-0.105563
0.0352899
-0.0557474
0.106391
-0.0506437
-0.0518361
0.279136
0.0809231
-0.129825
0.0489018
0.19823
-0.177473
-0.0207575
-0.352642
0.226831
0.0776863
-0.196987
0.119301
-0.000279631
0.145667
-0.145387
0.204688
0.102037
0.370428
-0.215253
-0.0971494
-0.0374748
-0.346561
0.144513
0.387991
-0.0679988
-0.319993
0.0994048
0.045751
-0.045865
0.126788
0.0409717
0.0808054
-0.121777
-0.361436
0.230269
0.131167
0.10922
0.0142489
0.103369
-0.103649
0.146065
0.0313376
0.109205
0.114818
0.348347
-0.0402213
-0.149759
-0.0471443
0.196903
-0.159251
0.0612382
0.0980126
0.206032
-0.108224
-0.0978088
-0.11534
0.15613
-0.285839
0.12971
-0.233351
-0.078657
0.312008
-0.246894
-0.105682
0.352576
0.187421
0.159791
0.12756
0.140096
-0.267656
0.108355
-0.249207
0.140852
0.13027
-0.201618
0.0713486
0.312452
-0.327044
0.0145918
0.0591703
-0.274077
0.214906
0.270397
-0.211227
0.0560221
-0.321764
0.265742
-0.12554
-0.176394
-0.0286407
0.226871
-0.147089
-0.107772
0.254861
-0.0946058
0.0388585
-0.135806
-0.0996455
0.235451
0.151955
0.3355
-0.130812
0.107722
-0.217358
0.109636
-0.218055
-0.111929
0.119067
-0.00713774
0.124895
-0.358246
0.110259
-0.167625
0.123359
-0.224806
0.101447
-0.0586136
-0.0618235
0.120437
-0.0196696
-0.183805
0.203475
0.363563
-0.249416
-0.114146
-0.0602162
0.126006
0.169585
-0.0957764
0.000481047
-0.0976305
0.0913191
-0.0650143
-0.0263048
0.452337
-0.208005
-0.244333
0.0504369
0.153638
0.23219
0.0697181
-0.246981
0.177263
-0.0879328
0.0334421
0.0544907
0.101408
0.162686
-0.264094
0.0133498
-0.255243
0.0674851
0.148704
-0.216189
-0.376585
0.174362
0.202223
-0.250946
-0.125639
0.106329
-0.218765
-0.0855272
0.265349
-0.301581
0.132912
0.168668
-0.117062
0.244621
0.040903
0.0117918
0.227077
-0.122108
-0.104969
-0.142772
-0.175779
0.289634
0.0655011
0.31934
-0.225569
-0.0937707
-0.203187
0.265441
-0.0622541
0.214051
0.0417212
0.228676
-0.174531
-0.190582
0.365114
-0.0725095
0.209118
-0.136608
-0.0824646
-0.217206
0.29967
0.234302
-0.110944
0.113997
-0.0227434
-0.0912537
-0.218737
0.260458
0.380534
-0.27652
-0.104014
0.296909
-0.211983
-0.0849254
-0.329472
0.159444
0.170028
0.409496
-0.259004
-0.150492
-0.214237
0.141306
0.0729309
-0.0529279
0.100181
-0.0472533
0.291549
0.0432353
0.183425
0.180138
-0.0323212
0.0419368
-0.215285
0.173348
-0.00575973
-0.0390775
0.249015
0.160481
0.40977
-0.155751
-0.254019
0.191297
-0.11361
0.0564166
0.0465359
0.245164
0.164607
0.0565783
0.0347408
-0.310658
0.218112
0.0925457
0.220707
-0.153221
0.0932829
-0.183117
0.205023
0.0790373
-0.181094
0.105683
0.191226
0.26023
-0.087876
-0.172354
-0.0927476
0.0398196
0.30008
0.0415626
-0.341642
0.155671
-0.048149
-0.107522
0.355954
-0.0435018
-0.0972529
-0.0759519
0.150305
-0.313833
0.163528
0.0892834
0.0663872
-0.106533
0.199816
0.351117
-0.23469
-0.116427
0.363399
-0.234708
0.373112
-0.279698
-0.0934142
-0.352277
0.143602
0.208675
0.1235
-0.188447
0.0649477
0.0366194
-0.095233
0.349926
-0.348724
-0.00120171
0.00225997
-0.282775
0.280515
0.189954
-0.0993159
-0.0906385
0.157279
0.073987
-0.231266
0.124533
-0.0332968
-0.0912365
0.39129
-0.362447
-0.0288424
0.0824108
0.108886
0.106547
-0.0744349
-0.0321118
0.280696
0.0659592
0.294701
-0.113352
0.191709
-0.331392
0.139683
-0.215934
0.124308
0.0916253
-0.155715
-0.0602189
0.0793298
-0.131207
0.0518769
-0.138386
0.208104
-0.104633
0.0608966
0.0437368
0.400061
-0.291265
-0.108796
0.22738
-0.119026
0.308869
-0.158565
-0.131594
-0.0276572
0.38355
-0.110727
0.0866278
0.0379056
0.0881849
-0.0296547
-0.195627
-0.187004
0.044042
0.347248
0.260651
-0.391455
0.130804
-0.133384
0.114392
0.018992
-0.125498
-0.205055
0.330553
-0.113392
-0.238885
0.148197
-0.0380142
0.253631
-0.215616
0.226012
-0.264026
0.182698
0.0775328
0.000555589
0.125273
-0.125829
0.215322
-0.0932483
-0.122073
0.123313
-0.0823415
-0.20001
-0.205267
-0.343381
0.229989
0.0669247
-0.226307
0.159382
0.253881
-0.169641
-0.0842403
0.340754
-0.301608
-0.039146
-0.104117
-0.113241
0.178599
0.168814
-0.347413
0.194248
-0.11211
-0.0821384
0.0306655
-0.329265
0.298599
0.0849465
0.105008
0.142258
0.193243
-0.185147
0.371846
0.209408
-0.311434
0.102026
0.0697173
0.311652
-0.381863
0.0702113
0.070715
0.00799479
-0.0787098
-0.236628
0.331207
-0.0945792
-0.0333073
0.114335
-0.0810272
0.351956
-0.357479
0.0055226
0.185906
-0.0624068
-0.131876
0.132432
-0.0263847
0.282355
-0.255971
0.194126
-0.0472385
-0.146887
-0.0513359
-0.0365969
-0.128597
0.0895745
0.0390223
0.326646
-0.190555
-0.136091
0.0949325
0.15588
0.0980011
0.240384
-0.378386
0.138001
-0.11875
0.0854424
0.297941
0.0428123
-0.0783448
0.324935
-0.24659
0.282423
0.0981113
-0.317051
0.238706
-0.0222057
0.109734
0.00426287
-0.000806297
0.0365152
-0.0357089
0.139506
0.0758157
0.216586
0.110059
-0.0771584
0.327964
0.0625672
-0.109205
0.153698
-0.237401
0.0837026
0.147096
0.0799806
-0.0466681
0.0458618
-0.0339183
0.0851382
-0.288325
-0.0441741
0.107644
-0.0634696
-0.103648
0.360203
-0.256555
-0.368344
0.255972
0.112372
0.0580373
-0.0514291
-0.00660813
-0.187074
0.0833876
0.092953
-0.176341
0.105258
-0.251215
0.145957
0.233662
-0.151622
-0.179673
-0.149799
-0.138162
-0.205384
0.351524
-0.320182
-0.0313423
-0.159582
0.361418
-0.201836
-0.21238
0.138003
0.0743774
-0.102276
-0.0405286
0.16673
0.0273956
0.296989
0.0545355
0.330358
-0.142936
-0.25596
0.165741
-0.077497
0.323417
-0.24592
-0.317378
0.239881
-0.208595
0.382678
-0.174083
-0.0241446
-0.212367
0.236512
0.142165
-0.0532745
-0.0888905
0.00670641
-0.241833
0.235127
0.163284
0.192224
0.0680404
-0.0148673
-0.0531731
-0.142667
0.357772
-0.215104
0.184898
-0.295116
0.110218
0.13546
0.0642883
-0.199749
0.227081
-0.105078
-0.0479434
0.127273
0.306387
-0.225201
-0.0811859
-0.32719
0.184523
-0.0381893
0.127615
-0.0380406
0.0971143
-0.242016
0.356935
-0.0532124
-0.303722
-0.196745
-0.05945
0.256195
0.150645
0.359077
-0.146931
-0.212146
-0.080518
-0.187457
0.267975
-0.19123
0.178683
-0.266615
0.186097
-0.0661134
-0.16571
0.231823
0.103882
-0.187952
0.0840697
0.146953
0.172387
0.241869
-0.117561
0.130961
0.24215
-0.151627
0.195128
-0.0435005
-0.220368
-0.0951898
0.315558
-0.226249
0.232955
-0.0775509
0.323578
-0.246027
-0.317896
0.240345
0.404639
-0.204555
-0.200084
-0.161877
0.0937879
0.0680887
-0.19892
0.284058
0.0863874
0.0412277
-0.273638
0.176094
0.0975436
-0.00519734
0.161077
-0.14836
-0.028657
-0.0495527
0.259028
-0.385598
0.126569
0.174336
-0.348867
0.197765
0.206874
-0.228668
0.204524
0.139901
-0.0391744
0.417614
-0.234746
-0.182868
0.0116664
0.115739
-0.127405
0.146097
0.184261
-0.129271
0.206108
-0.0768377
0.0699238
-0.179259
0.109335
-0.222749
0.317349
-0.0946
-0.169428
0.0154041
0.213105
-0.228509
0.290795
-0.275391
0.193197
-0.0893149
0.0503946
-0.150162
0.0997672
-0.386768
0.208745
0.178023
0.113228
0.237889
0.187251
0.265086
-0.225788
0.326249
-0.100462
-0.0322704
0.186402
-0.154131
0.104989
0.13688
0.377655
-0.0952326
0.126226
-0.33143
0.111919
-0.0293563
0.126684
-0.373578
0.0884721
-0.111215
-0.0625206
0.0500164
0.0125042
-0.14557
0.0699224
0.0756473
0.374852
-0.134468
-0.104543
0.229639
-0.125096
0.413369
-0.242918
-0.17045
0.30195
-0.197844
-0.104106
0.314838
-0.224715
-0.0901227
-0.251875
0.0529544
-0.336523
0.0274105
0.309112
0.00702042
0.00941313
0.410309
-0.157982
-0.252327
0.393439
-0.165309
-0.22813
0.12081
-0.0433028
-0.0690959
-0.267427
0.144213
-0.14941
-0.0725879
0.257115
-0.184527
0.242881
0.167428
0.102196
0.199755
-0.094198
0.431673
-0.19659
-0.235083
-0.08983
0.193454
-0.103624
0.216872
-0.349768
0.132896
0.0944704
-0.134496
0.37129
-0.236794
0.117547
-0.141567
0.0240208
-0.264147
0.191559
0.212074
0.219599
0.206008
-0.137121
-0.0688877
0.0919447
-0.210063
0.118119
-0.205461
-0.181308
0.120733
0.106348
0.178444
-0.0681857
-0.302158
-0.0540916
0.35625
0.352065
-0.251387
-0.100678
0.319318
-0.224341
-0.0949771
-0.367998
0.233502
0.0975079
-0.278602
0.181094
0.0369266
-0.339085
-0.108959
-0.399073
0.296549
0.102525
0.0866778
0.0304699
0.24514
-0.275609
0.426647
-0.214574
-0.0712307
-0.074339
-0.216731
0.121042
0.0956889
0.224968
0.192646
0.366193
-0.14932
-0.189395
0.123891
0.0655032
0.18438
0.242267
-0.149109
-0.141967
0.291076
-0.314737
0.165628
-0.248866
0.0996222
0.149244
-0.065189
0.323442
-0.258253
0.118212
0.0347954
-0.153008
-0.11752
0.129186
-0.151571
-0.0812358
0.232807
-0.159285
0.303109
-0.143824
-0.235598
-0.0164833
0.320666
-0.282616
-0.0380503
-0.30459
0.239401
0.196323
-0.185673
-0.0106508
0.290793
-0.21254
-0.078253
0.100656
-0.274418
0.00963847
0.0483988
0.132863
-0.371725
0.238862
-0.204671
0.123288
0.0813829
-0.36095
0.132281
0.353526
-0.0418741
0.102607
0.137603
-0.24021
-0.364611
0.205322
0.159289
0.17294
-0.258468
0.0843774
-0.167238
0.0828604
-0.139496
-0.0772347
0.0550054
0.0878814
-0.142887
0.332873
-0.132596
-0.200276
0.147513
0.18536
0.139489
-0.228844
0.0893552
0.217662
-0.125718
0.0489491
0.339042
0.020073
-0.0314361
0.0113631
0.127886
0.0781221
-0.22457
0.36591
-0.141339
-0.166494
-0.340684
0.203583
-0.126388
0.166745
-0.040357
-0.036754
-0.0117113
0.0484653
-0.378319
0.169724
-0.246462
-0.114488
0.242636
-0.384962
0.142326
0.396473
-0.253686
-0.142786
0.277611
-0.116272
-0.161339
0.174904
0.221569
-0.0389895
-0.130867
0.169856
-0.0594172
0.100537
-0.0411199
0.206577
-0.134685
-0.0718921
0.0395919
-0.1398
0.100208
0.0978314
-0.322547
0.327758
-0.173669
-0.154089
-0.233381
0.101588
0.131793
0.029255
-0.0294409
0.259324
-0.180666
-0.078658
0.0933202
0.0465805
0.121706
-0.0348019
-0.0869041
0.11939
-0.278675
0.00515957
-0.1085
-0.130251
0.0819566
0.048294
0.364952
-0.122316
0.154733
0.0671789
-0.221911
0.360042
-0.236905
-0.123137
-0.121114
-0.0715944
0.192708
0.0827714
0.145963
-0.228734
-0.0341775
-0.0131386
0.0473161
-0.0970708
0.0376537
-0.157201
0.239042
-0.0818412
-0.374688
0.243889
0.1308
-0.226491
-0.0895219
0.316012
0.228865
-0.206289
-0.0225768
0.232554
-0.0930652
0.380633
-0.248576
-0.132057
0.359193
-0.230348
0.0327045
-0.00344944
0.028877
-0.129509
0.100632
-0.0953663
0.124243
0.198795
0.0825077
-0.281303
0.0194923
0.102214
-0.193522
0.0926689
0.100854
0.232172
0.0871468
0.101891
0.104142
0.0931542
-0.162316
0.0691618
-0.360784
0.0362842
0.0188021
-0.0764295
0.270833
-0.194403
0.133303
0.225774
0.170309
0.089015
-0.128928
0.293984
-0.165056
0.113672
-0.249478
0.259982
0.0716569
-0.331639
-0.276131
0.199702
0.255501
-0.1614
-0.0941005
-0.0100581
0.0465734
-0.014033
0.210356
-0.239583
0.326956
-0.11216
-0.142137
0.162949
-0.348794
0.185845
0.271288
-0.392422
0.121134
-0.0652981
0.0576009
0.0076972
-0.045328
-0.0880563
0.389215
-0.117927
-0.206893
-0.0207791
0.227672
-0.253829
0.13122
-0.0499332
0.18896
-0.139027
0.347006
-0.114835
-0.0926177
0.118078
0.159534
0.36141
-0.162615
-0.123779
0.0889767
-0.0356181
0.15383
-0.107437
-0.0895502
0.129734
-0.0901417
0.17309
-0.42046
0.24737
0.405226
-0.108237
0.131133
0.075444
0.217165
-0.335705
0.11854
0.0481936
0.272473
-0.0933141
0.0282998
0.0738345
0.0838176
-0.35208
0.213917
0.241342
-0.0840631
0.148633
-0.347912
0.199279
0.0541001
0.0802706
-0.134371
-0.261954
0.00984982
-0.227133
0.338254
-0.111121
-0.268637
-0.109681
-0.342523
0.178145
0.164378
-0.212711
0.0965436
0.193504
-0.0632342
0.0149174
0.0333904
-0.0483077
-0.217801
0.108551
0.10925
-0.231005
-0.121444
0.352449
0.300298
0.113071
-0.117587
-0.131279
-0.0815292
-0.0117849
0.361108
-0.22373
-0.137378
-0.0957158
0.156074
-0.0603579
0.365833
-0.338423
-0.373234
0.130316
-0.0783516
-0.113503
0.191855
0.170707
0.190401
0.049427
0.0927381
0.2927
0.112525
-0.222903
0.172969
0.316683
-0.0432515
-0.273431
0.284097
-0.122236
-0.161861
0.210831
0.0446694
0.189119
0.1056
-0.294719
0.0907681
0.188161
-0.278929
-0.0693154
-0.0311534
0.100469
0.294401
-0.102692
0.298617
0.0512574
0.300949
-0.132151
-0.168798
-0.371764
0.214154
0.15761
-0.228071
0.0932992
0.134771
0.374061
-0.297626
-0.0764355
-0.193296
-0.0797792
0.273075
-0.0544566
-0.243286
0.297743
-0.203339
0.108798
0.0945406
0.212002
-0.266459
-0.10169
0.280289
-0.257767
0.165668
0.0920988
0.349603
-0.314323
-0.0352796
-0.252728
0.325669
-0.0729408
-0.23308
0.358733
0.326849
-0.110263
0.370506
-0.0778052
-0.14197
-0.229794
-0.180268
0.367208
-0.0583388
-0.0868641
0.242994
-0.27655
-0.0891193
0.0545661
0.0914985
-0.139079
-0.203444
0.0510595
0.265623
-0.121501
-0.10657
-0.0368324
0.12777
-0.0909375
-0.0412213
0.0325062
0.00871506
-0.0442241
0.0591414
0.0224103
0.103063
-0.125473
0.150255
0.189851
-0.340106
0.375972
-0.240152
-0.135821
-0.358438
0.137444
0.220994
-0.0770274
-0.417087
0.218028
0.19906
-0.098195
0.14859
-0.204058
-0.213029
-0.251001
-0.00381144
0.224996
0.101853
0.0896253
0.28088
-0.221224
0.353176
-0.131951
0.233683
0.142289
-0.325635
0.128408
0.197226
-0.131099
0.094267
0.0326501
-0.0125771
0.120524
0.0729798
-0.0901082
-0.113231
-0.373999
0.152774
0.125437
-0.32655
0.201113
0.351029
-0.236378
-0.114651
0.192968
0.187665
0.302987
0.0642213
0.198353
-0.0964626
-0.152421
0.0120196
0.0620127
-0.0401978
0.147295
0.323213
-0.197776
-0.134398
-0.22404
-0.143421
0.358762
-0.21534
-0.0268556
0.273915
-0.247059
0.259224
-0.28608
-0.143949
0.030557
0.334336
0.0759357
-0.145669
0.0697331
-0.119441
0.411018
-0.199543
0.362492
-0.0951327
0.152894
-0.0577609
-0.216902
0.092466
0.124436
0.255034
-0.398662
0.143628
0.364676
-0.109643
0.0831309
0.0312614
-0.0859905
-0.224336
0.310326
-0.136416
-0.0813846
-0.156727
0.248085
-0.0913577
-0.0106755
0.0515785
-0.0677883
0.143724
0.0703469
-0.200993
0.130646
-0.0536427
0.211225
-0.157582
-0.379373
0.271719
0.107655
0.116969
-0.094559
0.253001
0.0980279
-0.38031
0.271352
0.108958
0.34061
-0.118922
-0.221688
0.120163
-0.22428
-0.234685
0.181042
-0.282572
-0.0977386
0.0930816
-0.236309
0.143228
0.177885
-0.20427
-0.203642
0.354024
-0.150382
0.030337
-0.0403952
0.245271
-0.0903261
0.135135
0.0326184
-0.167754
0.131695
-0.0924757
-0.0392198
-0.354458
0.150816
-0.354564
0.229066
0.203755
-0.278235
0.0744802
0.206436
0.0842042
-0.290641
0.429113
-0.246367
-0.182745
-0.291546
0.293806
0.26619
-0.369838
0.450827
-0.20391
-0.246917
0.23608
-0.115348
-0.0846386
0.288393
-0.0822797
0.291687
0.0831293
0.196736
-0.279865
-0.149726
-0.151422
0.301148
-0.057737
0.101267
-0.0435295
0.119662
-0.190044
0.0703826
-0.386664
0.188433
0.198231
-0.338958
0.114388
-0.198611
-0.0796239
-0.234936
0.383317
-0.148381
0.0549495
-0.192372
0.137423
-0.192122
-0.17249
0.0351941
-0.202503
0.285633
-0.387184
0.124832
0.262352
-0.284495
0.122743
0.161752
0.129848
-0.279574
0.398402
-0.326982
-0.0714205
-0.344488
0.21009
-0.203013
-0.141475
0.222307
-0.356387
0.0801553
0.0317632
0.198227
-0.363373
0.165147
0.138093
-0.373396
0.235303
-0.147166
0.271612
-0.124446
0.135094
0.167892
0.0804285
-0.217184
0.136755
-0.188437
0.102509
0.0958441
0.115831
-0.242723
0.359145
-0.116422
0.0256336
0.00502773
0.294495
-0.109597
-0.195772
0.209122
0.180768
-0.125818
-0.328632
0.221538
0.107093
0.147255
-0.327326
0.180071
0.151171
0.176587
0.314134
0.0516988
0.169354
-0.396564
0.286977
0.109587
0.00230675
-0.0367815
0.0344748
0.426284
-0.16706
0.182998
0.0764713
-0.128828
0.0523566
0.113851
0.199188
-0.313038
-0.406198
0.198284
0.207914
0.109998
-0.13702
0.0270223
-0.137705
-0.225669
0.0775494
0.135039
-0.212589
0.217953
0.232874
0.266915
-0.36582
0.0989048
-0.0726613
0.157039
-0.0846879
-0.119983
0.167126
-0.0739718
-0.260202
-0.110874
0.371076
-0.0972819
-0.233707
0.330989
0.228635
-0.0739021
-0.0456736
0.0114961
-0.270089
0.187624
0.0245993
-0.00896565
-0.0156336
0.344053
-0.25954
-0.0845131
-0.27818
0.060974
-0.131959
-0.22012
0.01886
-0.205005
0.324395
0.29722
-0.162126
0.110487
0.125593
0.262697
0.0869061
0.113721
-0.0102118
0.349455
-0.11367
-0.235786
-0.0380368
-0.0914725
-0.0947566
0.394836
-0.240644
-0.14654
0.168661
-0.0194348
-0.149226
-0.0423256
0.177461
0.284712
-0.166634
0.114199
0.0414441
-0.155643
0.181485
-0.327065
0.14558
-0.16953
0.13726
-0.397519
0.285562
0.111957
0.392908
-0.128399
0.191397
-0.20543
-0.0726117
0.105297
-0.0326857
-0.175847
0.158753
-0.262055
0.103303
-0.282514
0.116272
0.166243
-0.374066
0.215941
0.158125
0.110285
0.203555
-0.31384
0.204805
-0.140111
-0.0679232
0.12479
0.159921
-0.0889988
-0.0229303
-0.268288
0.165589
0.102699
-0.236458
-0.106924
0.093278
-0.226408
0.13313
0.365646
-0.138644
-0.227002
-0.234868
-0.17133
0.327843
-0.146358
0.310167
-0.209874
-0.100293
0.135085
-0.0356807
0.0674531
0.0371683
-0.104621
-0.261421
0.168448
0.357244
-0.330459
-0.0267854
-0.287988
0.0893769
-0.0417188
-0.0235793
-0.138875
0.231957
-0.105954
0.0687048
0.0372496
0.111421
0.340024
-0.3237
-0.0163239
0.331117
-0.326993
0.107028
-0.339651
0.232622
0.311796
0.0282282
-0.0511655
0.294046
0.073962
0.0504308
-0.124393
-0.277886
0.391958
-0.114073
-0.300936
0.141354
-0.212298
0.0617229
0.0215246
0.212159
-0.230525
-0.0944279
0.324953
-0.250235
0.366581
-0.116346
0.114078
0.234269
-0.0664282
0.325457
-0.095341
0.136897
-0.0415564
0.116776
-0.164081
0.047305
-0.374483
0.228857
0.145625
-0.141323
0.103286
-0.228001
-0.171073
0.165134
0.103696
0.243126
-0.00693
-0.0342913
0.152397
-0.0552724
-0.0971244
0.34608
-0.221248
-0.318796
0.113791
0.111627
0.194924
-0.306551
-0.186723
0.076417
0.110306
-0.0455275
-0.0360017
0.347923
-0.210832
-0.186206
0.107855
0.00376127
0.0520474
-0.0558087
-0.0501195
0.218781
0.340427
-0.124442
-0.215986
0.425005
-0.251915
-0.0898639
-0.0403867
0.25255
0.125105
0.208598
-0.143628
-0.0649702
-0.327807
0.0114848
-0.0725252
-0.123624
-0.028655
0.0989282
-0.337047
0.225179
0.111869
-0.277934
0.0885438
0.204206
-0.0687458
0.0700091
-0.266754
-0.144374
-0.0269415
0.142393
-0.115451
-0.392359
0.243158
0.1492
-0.160409
-0.260051
0.21831
-0.30059
0.138084
-0.108576
-0.0794775
0.03395
0.0825846
0.281285
-0.115808
-0.249085
0.0203005
0.00429877
0.270041
0.0872037
-0.162521
0.135579
-0.261297
0.161651
-0.338665
0.16539
0.173275
-0.11464
0.276037
-0.161397
0.139787
0.225859
0.0749354
-0.299883
0.147987
0.151896
-0.10951
-0.0313982
0.140908
-0.0727552
0.0515823
0.0211729
0.166813
-0.266238
0.0994251
0.0666316
-0.289381
-0.210468
0.231993
-0.203584
0.347187
0.282436
0.0753114
-0.357747
-0.0686187
-0.0936973
0.147067
-0.092062
-0.417204
0.242902
0.174303
-0.0216248
-0.128537
0.345677
-0.187358
-0.158319
0.168396
-0.0541969
-0.111475
0.274382
-0.162908
0.102161
0.196346
-0.298507
-0.200402
0.297609
-0.0972074
0.162297
0.121801
-0.114762
0.161725
-0.0469622
0.075567
-0.222656
0.220535
-0.16744
-0.0530955
0.243341
0.185772
0.209358
-0.260524
0.177617
-0.331905
0.154288
0.0614211
0.388187
-0.173454
-0.214733
-0.0202121
0.211609
0.11258
-0.259746
0.103208
-0.180282
0.0770743
0.293781
0.0996586
-0.353543
0.118606
-0.0554346
0.33787
0.260692
-0.373564
0.112872
0.303293
-0.276716
-0.0265768
0.112665
0.201883
-0.314548
-0.114025
-0.114819
0.061979
0.00606138
-0.380011
-0.089268
-0.192403
0.281671
-0.359747
0.156435
0.203312
-0.0295877
0.0318945
0.2092
-0.316925
0.107725
0.329898
-0.120697
0.042696
0.0923895
-0.256752
0.170319
0.086433
0.193327
-0.0848109
-0.108516
0.176408
-0.19662
-0.194594
0.359195
-0.253782
-0.105413
-0.0150544
-0.135454
0.150508
0.246648
-0.386998
0.14035
0.0574635
-0.172966
0.115503
0.116885
-0.23091
0.367138
-0.12049
0.193239
-0.0879369
-0.105302
-0.151452
-0.165246
0.316699
-0.0342252
0.0442361
-0.0100109
0.340634
0.00516684
-0.345801
0.0778541
-0.235055
-0.124952
-0.104093
0.229045
0.337756
-0.172894
-0.164862
-0.0686621
0.148144
0.224866
-0.0711679
0.062215
0.0390516
-0.133437
0.304524
-0.171087
-0.10375
0.13797
0.0868961
0.194407
-0.0950619
-0.0993454
0.391112
-0.288055
-0.103057
-0.0404628
0.0755723
0.118835
0.266834
0.036459
0.161267
-0.277624
-0.127129
-0.244873
0.272161
-0.105348
0.378143
-0.26064
-0.117503
0.168773
0.168983
-0.0415012
0.157334
-0.115833
0.201006
-0.123456
-0.126538
0.0504805
0.0760578
-0.398218
0.194308
-0.166157
-0.0951477
0.261304
-0.266235
-0.0990123
0.286429
-0.0973103
-0.212051
-0.162016
-0.219197
0.0857505
0.133447
0.373342
-0.259083
-0.114259
-0.0524703
-0.020285
0.342651
-0.352914
0.0102629
0.224729
-0.15385
-0.0708788
0.192957
-0.285558
0.092601
-0.0307054
-0.1531
-0.301411
0.149958
0.189468
-0.0862604
-0.388788
0.268739
0.120049
-0.185098
-0.0622077
0.247306
-0.126577
0.000189302
0.0056406
0.139377
-0.145018
0.0196991
-0.0719757
0.0522765
-0.0961051
0.12477
-0.0286653
0.0591125
-0.18288
0.123768
-0.234706
0.112972
0.121734
-0.245428
-0.0929743
0.338403
0.179679
-0.120567
-0.197935
0.295392
-0.0974572
-0.390955
0.264898
0.126056
0.145846
0.0627517
0.268489
0.109654
-0.386218
0.271998
0.11422
-0.244548
0.253794
-0.0361317
0.152569
-0.146928
-0.111381
0.343026
-0.231645
-0.177917
-0.211055
0.0770666
0.133989
0.104469
-0.24317
0.138701
0.157961
-0.0411851
-0.253072
0.283737
0.29884
-0.24029
0.0662461
-0.161962
0.12849
-0.143544
-0.28178
0.386809
-0.105029
0.345844
-0.0486239
-0.0292976
-0.00602353
0.0353211
0.139195
-0.318996
0.179801
-0.187787
-0.0365093
-0.109284
0.145793
-0.181659
0.278576
-0.0969177
0.0929319
-0.33836
0.133532
-0.233886
0.353573
-0.119688
0.103654
-0.327996
0.359847
0.0811871
-0.187305
0.106118
0.052741
0.297185
-0.194557
0.299134
-0.104578
0.3791
-0.222477
-0.156623
-0.16052
0.145384
-0.220728
0.0753435
-0.196191
-0.103692
-0.0476398
0.281811
-0.234171
-0.0709737
0.125875
0.351414
-0.0796379
-0.271776
-0.0518319
0.22824
-0.0823543
-0.225595
0.30795
0.256776
-0.370664
0.113888
0.273975
0.0774383
-0.158655
-0.214579
-0.0770366
0.324126
-0.24709
0.0884769
0.0432186
0.0804715
0.144257
-0.255116
0.177905
0.2471
0.268349
-0.188573
-0.0797762
0.182375
-0.158349
-0.0240261
0.105791
0.234898
-0.34069
0.278881
0.112232
0.228565
0.117515
0.258364
-0.169192
-0.0891718
-0.32763
0.111164
0.216466
0.2053
-0.361619
0.156319
0.0671663
0.010241
-0.0774073
0.0997042
0.126519
-0.226223
-0.209588
0.315144
-0.105557
-0.12896
-0.181698
-0.0704314
-0.234158
-0.269887
-0.128331
-0.318686
0.248255
0.168258
-0.110794
-0.310943
0.0772365
-0.404344
0.272422
0.131922
0.148287
0.0842668
-0.163262
-0.211221
0.134746
-0.0414258
-0.231398
-0.0195479
-0.268778
0.154138
0.196463
0.0954478
-0.0286084
0.0810213
-0.0524129
-0.0970925
0.0576305
0.288213
0.118898
-0.0322707
0.0769941
-0.356692
0.241742
-0.318778
-0.059335
0.113435
0.0737118
0.125653
-0.199365
-0.235091
0.149237
0.0731374
-0.205737
0.1326
-0.146958
-0.0919597
0.238917
0.253994
-0.352725
0.0987302
-0.0445817
-0.288523
0.11923
0.169293
0.126066
-0.177414
0.0513486
0.0627521
-0.115215
0.0524626
0.0357013
0.316255
0.0298178
0.0278181
-0.0576359
-0.0815393
0.332246
-0.250707
-0.19951
0.0627914
0.136719
-0.0625027
0.0739875
-0.0481301
0.293294
0.24236
-0.3239
0.123792
-0.165293
0.153409
-0.0820922
0.230379
0.134108
0.0624335
-0.196542
0.0747307
-0.0227545
-0.0519763
-0.0844716
0.222441
-0.127461
0.0673598
-0.12075
0.0533901
-0.283065
0.20441
0.0786549
-0.281614
0.0780534
0.203561
0.0923939
0.0852473
0.211452
-0.296699
-0.205333
0.32848
-0.123147
-0.202785
-0.0980045
0.300789
0.083126
0.0357725
0.0322088
-0.234994
0.156998
-0.360582
-0.120694
0.292908
-0.195401
0.0890786
0.0433929
0.183477
-0.204665
0.289912
0.0833992
-0.267885
0.184486
0.39199
-0.20761
0.332496
-0.199634
0.351669
-0.101157
-0.250512
-0.0333951
0.042138
0.158379
0.0239956
-0.161
0.258585
-0.0975849
-0.0524611
0.193767
0.27205
-0.15083
-0.12122
0.100132
0.158232
-0.137919
0.211454
-0.0735349
0.0328411
-0.320841
0.288
0.317603
-0.0926067
0.108312
-0.350783
0.242471
0.325322
-0.164147
-0.161174
0.335349
0.00505866
-0.340408
-0.18731
-0.0241056
0.273121
-0.12132
0.0848401
0.03648
-0.0524595
0.119819
-0.283304
0.162046
0.121259
0.219736
-0.141775
-0.0779604
-0.0357806
-0.0265848
0.0623653
-0.0405623
-0.0781874
0.0333706
-0.20962
-0.150127
0.166905
-0.278286
-0.340004
0.150374
0.18963
0.12109
0.238105
0.0282119
0.0591638
-0.0773275
0.295638
-0.124024
-0.0710132
0.195038
-0.107392
0.0918682
-0.319001
0.0688795
0.0128332
-0.0817128
-0.138892
0.31651
-0.00707101
-0.0856765
-0.0496888
0.254989
0.0862998
0.0484461
-0.0527327
-0.223818
0.141671
0.183651
-0.398623
0.273057
0.125567
0.0720395
-0.0523404
-0.0733743
0.207483
-0.076591
-0.133764
-0.191871
-0.227891
-0.131969
-0.23272
-0.1289
0.0102173
0.0645134
0.267268
-0.183869
-0.00194903
-0.0605536
0.104009
-0.132085
0.0280762
-0.0849717
-0.217563
-0.161811
0.115051
-0.0522989
-0.0765952
-0.0852814
-0.380042
0.175487
0.361193
-0.0973202
-0.263873
0.0740308
0.243572
-0.0879069
0.0159312
0.296415
-0.0899788
0.0370304
-0.0427901
-0.166001
0.268474
-0.109721
-0.246498
0.316305
-0.209873
-0.106432
0.263908
0.0252009
-0.289109
-0.138769
0.333197
-0.000463384
-0.332734
0.318737
0.00887759
-0.327615
0.12404
0.0964956
-0.165283
0.312538
-0.150699
0.252803
-0.102104
-0.314522
0.034035
0.3229
-0.130519
-0.102862
0.211607
-0.14126
-0.353886
0.293707
0.0601796
0.2047
-0.25234
-0.13184
0.0271993
0.00662895
0.13965
0.0800857
-0.152643
0.118395
0.172398
0.0761559
-0.166856
0.0907001
-0.0844669
0.0547305
0.0297364
-0.208381
0.0765047
-0.250664
-0.129377
0.348884
-0.0921082
0.23373
-0.151342
-0.0823883
-0.0278786
0.018913
0.335294
-0.125305
-0.351894
0.118008
0.128704
-0.081855
-0.0468489
0.339357
-0.0529638
-0.286393
-0.137522
0.310788
-0.173265
-0.0670233
-0.0641834
-0.16553
-0.0592759
-0.115196
-0.151042
0.115481
-0.220023
0.0734951
-0.183872
0.110377
0.257415
-0.37878
0.121365
0.271129
0.0783263
0.16494
0.121489
0.368547
-0.185131
-0.183417
0.214508
0.151293
0.217254
0.171508
0.100542
-0.0607125
-0.191459
0.252171
-0.110727
0.0701644
-0.194387
0.304672
-0.0290339
-0.193274
0.350272
-0.0325323
0.250644
-0.0907492
0.145627
-0.0548778
0.0908263
-0.271493
0.19977
-0.0631397
0.0273592
-0.0391287
-0.0664344
0.0844946
0.236156
-0.320651
-0.0413646
0.0874275
-0.0460628
0.00115686
0.126729
-0.176861
0.104759
0.0721012
0.30265
0.0764506
-0.356301
0.102519
0.142817
-0.068855
-0.126373
0.187671
-0.248383
-0.0722648
0.0359128
0.036352
-0.103636
-0.188425
0.292062
-0.0496363
-0.0563181
0.188564
0.117822
-0.247656
-0.11646
0.11714
0.0584504
-0.17559
-0.397605
0.102155
0.29545
-0.0312278
0.295136
0.147506
-0.197626
0.396226
-0.282188
-0.114039
0.0113714
0.169396
0.191833
-0.330726
0.417259
-0.199306
0.00947424
-0.222377
0.212903
-0.334862
0.042549
0.292313
0.276277
0.11995
-0.0573847
0.0835497
-0.160976
-0.10469
0.265667
0.224795
-0.272926
-0.0441037
0.0120194
0.0320843
-0.128671
-0.15951
0.0643159
0.0951937
0.332246
-0.215718
-0.116528
0.234757
0.116912
0.051076
-0.0787419
0.027666
-0.10439
-0.12914
-0.0792408
0.228382
-0.145611
0.30512