/*--------------------------------*- C++ -*----------------------------------*\
| =========                 |                                                 |
| \\      /  F ield         | OpenFOAM: The Open Source CFD Toolbox           |
|  \\    /   O peration     | Version:  v2012                                 |
|   \\  /    A nd           | Website:  www.openfoam.com                      |
|    \\/     M anipulation  |                                                 |
\*---------------------------------------------------------------------------*/
FoamFile
{
    version     2.0;
    format      ascii;
    class       volScalarField;
    location    "50";
    object      ddt0(k);
}
// * * * * * * * * * * * * * * * * * * * * * * * * * * * * * * * * * * * * * //

dimensions      [0 2 -3 0 0 0 0];


internalField   nonuniform List<scalar> 
18618
(
0.000438551
-0.0692343
-2.82896e-07
0.0038713
-3.67355e-07
3.04215e-06
-9.42985e-07
-0.0595396
1.99916e-06
1.40212e-09
-4.55815e-08
-2.35822e-07
0.00494071
9.02187e-07
-6.13863e-07
-2.65767e-07
-1.1339e-07
0.0127206
2.68668e-07
-1.95953e-06
3.86574e-06
-2.50103e-07
-3.3529e-07
7.32355e-06
-9.81692e-08
-1.22388e-05
0.000245348
1.08587e-07
-1.45019e-08
8.20763e-07
3.80244e-08
2.01968e-07
1.13916e-08
1.5605e-05
4.36967e-06
-1.01182e-07
-1.36995e-07
-0.0012205
3.32127e-06
6.95036e-07
0.000296927
6.29114e-05
1.8073e-07
0.00818911
2.2146e-06
-1.25228e-07
-0.0619173
-1.62556e-07
0.000122574
0.0451833
5.36172e-08
-1.1974e-07
-0.0011022
-8.63651e-05
-2.3564e-07
-0.0304725
9.97704e-07
6.04852e-07
2.09563e-05
2.18601e-06
7.96545e-07
4.23183e-07
-4.05156e-06
-1.0984e-07
2.205e-05
0.00871381
4.38057e-07
3.11314e-06
-3.72097e-07
0.00039656
-1.11009e-06
9.89331e-07
4.48576e-06
-0.0145537
2.11987e-07
-2.23194e-06
-2.04472e-05
0.0245619
-4.11399e-07
0.0334093
0.00842981
0.00984311
-0.0133539
4.74437e-08
-2.45303e-09
1.9201e-07
9.05769e-06
1.98293e-09
-1.56692e-06
0.0115919
7.53403e-06
-0.000184104
0.0271538
-2.86389e-05
0.00105581
-2.83691e-07
-1.18637e-07
-0.00575809
1.07102e-06
-1.98544e-07
0.00140481
-1.04932e-07
-4.20632e-05
7.5322e-08
-2.59908e-08
0.00957708
-2.9333e-07
-1.59176e-07
-2.70648e-05
-6.42483e-08
-0.00547998
-1.0094e-07
-1.2097e-08
-6.46084e-07
-1.02221e-07
-1.96253e-07
5.98212e-07
0.00466801
-5.56451e-08
-5.39545e-06
-0.00450688
6.94324e-08
-0.0317689
0.00947248
0.000751792
0.000134299
0.000180739
-0.00417807
3.23111e-07
2.2656e-06
-2.9592e-06
-1.01885e-07
0.0168456
0.00198423
-7.85566e-08
3.83156e-07
2.83312e-07
4.60494e-09
-0.0794397
4.34816e-07
-1.76404e-07
1.19019e-07
4.64008e-07
-1.25023e-07
2.87588e-07
-9.13333e-06
-1.16847e-07
6.58275e-08
0.00940713
3.2433e-07
9.50171e-07
0.00801286
-0.0823529
-8.25391e-08
1.55765e-07
1.45668e-06
-0.000287297
-0.000254766
1.1606e-05
4.76934e-07
1.77104e-07
0.00223292
1.36067e-08
-1.16427e-05
1.15194e-07
-0.00409502
-2.532e-07
2.76547e-07
0.00831114
-1.11958e-07
2.44936e-08
3.66005e-08
-1.10393e-06
-7.582e-06
-0.00485353
-1.61125e-06
-3.26158e-06
-0.004631
2.6793e-08
-5.8084e-07
8.7047e-07
-7.2317e-06
-8.59966e-08
-9.12472e-08
-0.000242427
5.31607e-07
-1.54193e-06
-5.56233e-07
-6.5706e-07
1.48223e-05
2.06223e-07
-2.82569e-06
0.00358873
3.44174e-07
0.00012398
-1.38974e-06
2.92234e-06
-0.00536383
-7.79657e-09
0.0432907
0.000398068
-9.325e-05
3.89302e-06
-8.26762e-07
0.0042858
0.000789467
0.0344916
0.00729379
2.28488e-07
0.0507699
0.00244454
7.79043e-07
0.00712141
-7.52484e-06
-9.59293e-08
-8.26158e-08
4.54171e-07
0.003159
-1.09572e-07
0.0179804
1.73705e-07
-1.03965e-07
5.88952e-07
2.37154e-05
-5.25133e-06
-2.03056e-06
1.23244e-07
1.35627e-09
3.00029e-06
3.16364e-06
0.0495117
-0.000257581
1.1797e-08
1.03064e-06
1.43066e-08
5.37146e-06
1.96946e-06
-3.60224e-06
-7.78145e-08
-5.60355e-05
-2.01709e-06
-1.25259e-07
-1.00769e-07
-2.50747e-06
0.00198389
-3.73943e-08
7.6165e-06
-0.0552311
6.48527e-07
2.0892e-07
0.000187054
-2.93292e-07
-2.86071e-08
0.0335616
1.89808e-08
4.60991e-07
-8.14365e-08
1.72344e-05
-5.7231e-07
-1.80425e-06
4.12063e-05
-1.19771e-07
-4.43209e-05
-0.0582778
-4.5179e-06
-8.14975e-08
9.97648e-07
4.16234e-05
-7.76573e-08
-1.23647e-06
-3.15646e-06
3.76008e-07
7.93432e-07
5.25558e-08
3.91251e-08
-0.00937327
4.89833e-06
-9.47879e-08
0.000364889
6.9771e-07
-2.74187e-07
3.71518e-07
0.0355959
-0.0480852
-2.64617e-06
0.00320163
1.66969e-06
-7.42445e-06
-2.11526e-07
0.000104749
4.9952e-07
2.75968e-06
-1.97358e-08
1.45851e-06
-0.000273832
-2.27488e-07
-1.91384e-07
9.76356e-08
-0.0067861
0.00331596
0.0010355
0.00648263
-0.0240358
-7.33857e-06
4.45001e-06
0.0406286
0.000449019
-7.47597e-09
1.21447e-07
-8.44668e-06
-2.31522e-07
-6.97905e-09
-7.31371e-07
8.70641e-07
2.9904e-06
0.000454594
0.0453635
2.24889e-06
-9.57223e-08
3.51499e-07
-6.11563e-08
0.000153731
1.10011e-06
2.65462e-05
-3.07015e-07
7.81535e-08
-0.0028389
1.25127e-07
-8.24082e-06
2.35392e-08
4.62906e-07
-4.45197e-07
6.8189e-06
-2.17119e-07
4.21447e-06
-2.316e-07
-0.000217073
-3.08697e-06
0.0303394
0.0222473
-6.00277e-08
-0.00258237
3.07351e-06
-2.53238e-07
-5.21421e-07
-6.16501e-08
7.80539e-07
1.28845e-06
0.00332773
1.78361e-07
0.000231995
1.3588e-05
-6.02859e-07
2.18519e-08
-0.00707063
-4.14379e-06
4.61605e-07
3.93011e-05
4.8654e-07
4.83216e-06
-0.00660426
-0.0846703
-8.4728e-05
1.88598e-06
-0.0891157
0.00117723
-1.97385e-07
-1.30324e-06
-3.00085e-06
2.33659e-07
-8.4541e-08
1.37118e-08
0.00203711
0.00107242
-2.32832e-07
1.86069e-08
0.000457174
-5.41705e-08
0.00108304
0.000526907
-2.18304e-06
-4.17423e-07
0.0196891
0.00135945
2.34543e-07
6.1454e-08
3.13665e-09
4.2644e-05
2.90772e-07
1.08494e-08
2.89965e-07
7.60555e-05
2.10095e-08
2.20445e-07
-0.000750201
0.00188735
1.08521e-06
0.0363408
-2.1955e-07
3.84809e-07
6.73706e-08
0.000918441
0.000202816
0.00234561
8.49054e-08
0.018612
1.38824e-07
-5.33043e-07
-2.07339e-07
6.71538e-07
-1.4818e-07
0.0214369
-0.000575156
-0.00102479
-2.63502e-06
-6.15822e-05
-1.05749e-06
7.46378e-07
-6.19772e-08
-0.00108053
5.17995e-09
-1.36398e-07
5.66373e-06
2.82492e-06
-0.0012246
1.30175e-08
2.81366e-07
0.000385057
-3.40535e-07
1.62275e-06
6.63645e-07
-6.49355e-08
1.35994e-07
1.01089e-05
-1.99143e-06
-7.31267e-08
-3.77526e-06
-1.58281e-07
0.00026526
1.81836e-07
-0.000458509
-0.000421628
1.8167e-06
9.16243e-07
-0.00424401
1.72316e-06
0.0116126
0.00274631
-1.37818e-07
3.16729e-06
3.77071e-07
0.0147669
-0.0350585
-1.99357e-07
-8.02757e-06
0.0293597
-1.02509e-07
-0.00276104
3.40059e-07
0.0125884
-0.029273
-1.31965e-06
0.0717369
3.4384e-08
-0.00147451
1.43094e-06
-7.60974e-05
-1.93058e-07
0.00029792
-2.10996e-08
-2.91528e-07
2.03116e-07
-0.000311425
-1.38391e-07
7.175e-09
-5.54359e-07
-3.143e-07
0.0722005
0.00204372
-8.34195e-07
0.0156928
-0.000731948
-1.03079e-06
-7.32875e-08
2.97815e-07
-0.00543489
-1.37693e-07
3.53631e-07
1.0408e-06
-0.0315877
-8.10637e-05
-2.81664e-07
-1.76878e-06
2.31219e-06
0.00293896
1.26626e-07
0.00529857
-7.56447e-08
3.64338e-07
2.63647e-05
0.0494505
1.01145e-07
-0.00200299
-1.04185e-07
5.86511e-09
-5.32393e-06
-3.12803e-07
6.04027e-07
-8.32201e-08
0.00167692
-0.00159786
-8.98815e-05
1.89622e-06
-9.47258e-08
-6.25795e-07
6.44424e-06
-0.0273613
-4.27181e-08
0.00011309
-1.74347e-06
0.0120334
-2.7458e-07
-4.3353e-07
1.28042e-05
0.0382358
-6.66237e-06
5.43992e-09
2.5741e-05
0.00215333
0.000463206
-1.01343e-06
-2.64113e-06
-1.81089e-07
-4.52473e-07
-7.41657e-08
0.0361257
7.30146e-06
4.25774e-08
0.0190039
0.0214654
-0.0313615
-0.00320269
4.3495e-07
0.00123982
-3.0657e-06
1.08236e-07
-0.0221259
-0.0336362
0.000224157
-3.50393e-06
4.35664e-06
1.68576e-08
8.53252e-08
1.98574e-05
9.7974e-06
-3.89982e-08
1.2165e-06
2.45179e-05
-4.60966e-07
4.03775e-06
6.42003e-07
-0.00125605
-1.28184e-07
1.49333e-06
1.26026e-06
1.01997e-08
-5.63927e-06
-1.05245e-07
4.14431e-08
0.0539422
3.54679e-09
0.0195695
0.00022998
0.000322249
-2.18692e-06
2.81084e-06
-0.0114642
2.82544e-07
-5.2355e-07
5.48027e-06
-3.5208e-06
-8.36998e-08
0.000656749
5.18536e-06
-5.71423e-08
5.77017e-07
6.53938e-08
-3.98196e-06
2.91439e-07
1.08735e-08
9.24611e-07
0.0185969
-5.0928e-07
3.79378e-06
3.20461e-06
0.0171043
1.51585e-07
-3.24135e-09
-0.00091017
-1.96099e-07
0.00233449
4.0001e-07
-1.06054e-05
-2.63079e-06
-1.96165e-07
5.5025e-07
-0.000127019
-6.87244e-08
-6.37779e-07
-3.7878e-07
-4.62447e-07
0.0108068
1.09072e-06
2.83216e-07
0.00435402
5.27463e-06
5.12986e-06
0.0042889
1.09117e-06
-1.08035e-07
3.79127e-06
2.05116e-07
1.51484e-06
0.022625
-1.82825e-07
0.000151134
-6.87409e-07
0.0036459
0.000418596
-1.51726e-08
-7.31105e-07
4.67752e-08
-0.0127013
6.74517e-06
0.020762
1.1488e-07
1.57127e-07
-4.29744e-08
1.57911e-07
2.33062e-07
1.74619e-07
-1.08182e-07
-3.76606e-05
0.00240365
-2.42812e-07
2.29477e-06
0.0044895
-2.9242e-07
-4.31428e-07
0.00391176
5.62718e-06
1.11346e-06
-6.04957e-08
-9.61574e-08
0.00027787
8.69002e-08
0.000800941
3.13921e-06
-1.57671e-08
1.22901e-07
1.22954e-05
3.67518e-08
0.0128617
0.0037617
0.0186263
-1.3335e-05
-2.96959e-08
4.07041e-06
0.00711739
1.70045e-07
2.39883e-06
2.2296e-07
-4.79147e-06
-0.000158143
0.0250516
-7.21336e-07
0.0129011
-7.76035e-08
0.000207911
-3.68599e-08
1.06617e-05
3.63955e-06
0.000265673
0.0119261
-0.000310562
-1.13326e-07
-0.0845483
4.78113e-07
-0.00414499
-1.63547e-07
9.02299e-06
1.25958e-07
2.11184e-07
-3.00687e-07
2.21826e-06
7.59197e-08
-6.4939e-08
-2.59828e-07
-2.79722e-07
3.59993e-07
1.46536e-07
-3.5282e-06
-1.05429e-07
2.02488e-07
-0.00022849
1.76648e-08
0.00252352
3.29588e-07
1.1747e-06
-7.00376e-07
-1.21281e-05
-2.19925e-07
0.000150707
6.48823e-07
-0.0229713
0.000213565
-2.61996e-08
5.62133e-07
-1.4816e-06
-2.43826e-07
-3.77146e-08
-2.92826e-08
1.26398e-08
0.00185304
-3.46694e-07
0.0257171
0.00830715
-7.91567e-06
-2.86907e-07
-1.38208e-06
-0.000302322
0.00296923
-0.00698117
0.00241467
-0.00543431
0.0359017
-7.65233e-05
1.86325e-06
0.0288016
-1.38156e-08
9.62938e-07
3.20958e-08
-4.25221e-05
-2.34397e-07
1.27191e-07
-1.14513e-06
-9.57372e-07
-0.0159167
-6.45076e-07
-0.000198576
4.83209e-07
-0.0160972
8.23441e-05
9.72185e-06
0.00168935
-4.3721e-06
-2.29286e-08
-8.41064e-08
3.07879e-06
0.0196634
0.000508552
5.39533e-08
-6.39586e-08
0.00571729
3.20411e-06
2.23528e-05
-1.00868e-07
0.000346844
9.05183e-07
0.00141714
8.81784e-08
1.18274e-07
2.44571e-07
-5.07393e-07
2.47665e-08
-2.04954e-08
5.16169e-08
-0.00597364
0.0181116
9.2573e-09
0.0136678
1.17415e-06
-0.0114725
6.07474e-06
-0.000302942
1.36221e-07
3.46719e-06
-0.0790138
2.88474e-07
-0.0309486
1.4353e-08
1.40604e-07
-8.42303e-07
9.32242e-08
-0.000469448
-1.22413e-07
-3.11481e-08
-3.59701e-05
1.05173e-08
2.68384e-07
-2.32305e-08
0.0245159
4.18906e-07
1.89045e-07
6.16888e-06
7.82669e-08
-2.32055e-07
1.04792e-06
-1.31243e-07
-3.7584e-07
-0.00742872
-1.47913e-06
-7.77303e-08
-1.09613e-07
3.34008e-08
-1.64071e-07
2.1288e-05
3.56838e-06
0.0175967
-1.89812e-07
-2.95154e-08
0.00143205
-8.02834e-08
0.0126204
7.63638e-06
-5.08542e-09
2.85352e-08
-3.01056e-05
-6.43245e-07
1.02206e-06
-2.98753e-07
-5.12567e-08
-1.286e-07
3.04922e-07
-0.00074199
1.86524e-06
-2.17676e-06
9.51698e-08
0.0488818
-1.76009e-05
-7.90186e-06
-1.05764e-07
0.000422987
4.39219e-06
-0.0172067
-3.03138e-07
-2.07901e-07
-0.00564104
-9.92017e-09
0.0399454
-4.36561e-07
0.0102309
-1.94858e-07
3.81881e-07
-6.18013e-07
1.00222e-06
5.99393e-07
-1.72026e-08
0.000520446
0.0074922
2.06988e-09
9.18712e-07
0.0208239
-0.0811476
-0.00103136
5.12806e-06
-1.10595e-06
-6.60994e-07
-0.0125641
2.71385e-07
-2.77416e-06
3.28317e-06
-0.0273735
3.49658e-07
-1.0466e-07
2.63459e-08
-7.47565e-07
0.000267642
-1.02594e-06
0.029927
2.13917e-07
2.9201e-06
0.00061385
3.6815e-07
-1.88026e-08
-5.75039e-06
-0.00443055
-0.00518497
0.00473457
1.06214e-05
-1.18814e-07
-8.26067e-05
8.43836e-08
-1.70923e-06
0.000146671
4.35611e-05
9.64221e-06
-4.02634e-05
2.21731e-06
1.18203e-06
1.84518e-07
7.18939e-06
0.018269
0.0464331
-0.0538101
-0.0164875
0.00103003
-2.002e-05
-0.00516389
-0.0126852
5.62464e-07
2.12383e-06
1.31039e-07
0.00130053
-0.00231276
0.0305194
4.12319e-07
-4.01624e-06
-8.41159e-08
1.48078e-07
-1.13114e-06
-6.85477e-07
-1.64914e-07
-9.41973e-06
1.22649e-07
0.0207942
-1.63911e-08
-1.14026e-07
1.96791e-07
0.00746587
7.23232e-05
2.53305e-07
0.0548023
1.77512e-07
0.00386855
1.41953e-07
1.47716e-05
1.70353e-07
-7.38382e-07
9.18913e-07
-7.44093e-07
0.0204442
-5.96377e-07
-4.55237e-07
0.0421624
0.031712
1.29644e-05
8.3519e-08
-2.95341e-08
0.0639327
1.74008e-07
1.96612e-07
0.000220536
1.30029e-07
-0.0247442
7.10392e-07
1.01423e-07
-8.11373e-06
-0.0735202
-7.25215e-08
-4.43555e-08
-2.01193e-07
-0.0152398
-3.15216e-08
6.55976e-07
-7.68899e-07
2.5275e-08
0.0163393
9.1135e-07
0.0219058
-6.46326e-07
6.02246e-05
-0.00292897
6.73707e-08
8.13107e-07
-7.07247e-07
1.33068e-07
-4.94729e-06
0.0245828
0.0368755
4.34289e-06
-3.85432e-06
-3.99343e-08
1.36131e-06
-2.29516e-07
-9.54237e-09
4.36342e-07
-5.87996e-08
0.000982897
-7.61718e-08
9.77409e-09
-0.00475031
7.04206e-07
-6.53475e-08
-0.00237043
-1.21989e-07
-1.22443e-07
-1.69862e-06
8.2943e-07
-3.31681e-06
1.76061e-07
3.35676e-07
-1.96456e-05
-3.03608e-07
4.12781e-05
0.00101876
-0.00135839
2.262e-07
0.00131934
1.69151e-06
3.66706e-09
-6.10876e-05
0.000672222
-2.65974e-06
1.68896e-06
4.20232e-07
2.25958e-07
6.80103e-06
-1.5756e-07
-1.03324e-07
-2.48253e-07
3.89536e-07
-1.99986e-06
-0.00310951
2.53085e-06
5.90662e-08
-2.96506e-07
-2.84011e-05
1.19789e-08
0.0290952
-1.95262e-07
0.000105685
-3.75916e-08
-2.16144e-07
1.95586e-05
-3.36466e-05
2.36002e-06
4.48097e-07
3.23735e-07
-1.15864e-07
0.0159555
1.78465e-08
1.03576e-06
-7.04998e-07
-4.60101e-07
-2.15162e-05
9.01987e-08
1.43552e-07
1.16106e-06
2.563e-08
0.0392955
8.81834e-06
5.04636e-07
2.56784e-06
-3.40751e-08
-8.48689e-06
1.64445e-06
-2.54483e-07
-2.27476e-07
0.000480222
3.04327e-08
1.28629e-07
-4.35217e-06
-1.63036e-07
0.000207702
-2.99637e-07
-1.54937e-05
1.51402e-07
5.06997e-07
2.459e-08
0.0197876
-0.00684891
1.08911e-07
0.0278071
1.66023e-06
6.70031e-05
0.0531452
0.000125918
0.0224236
0.00262114
-0.00574755
-1.17456e-06
0.00257973
0.00467061
0.0330915
-6.79829e-07
0.0015665
2.4663e-06
2.11167e-08
1.63686e-06
-0.000497469
-8.80051e-08
0.0329015
9.40642e-07
2.54801e-06
0.0021813
-0.000782549
7.76517e-07
3.73767e-06
3.53691e-06
1.9951e-08
-0.0045041
-4.14773e-07
-1.2594e-06
2.01738e-06
1.16858e-06
1.26358e-06
0.00309571
2.16298e-08
2.97829e-07
1.1847e-06
9.43236e-05
3.22864e-05
6.2623e-06
7.32303e-07
-2.234e-05
2.61297e-07
-2.0246e-08
1.08143e-06
-3.79078e-07
7.71296e-08
1.88838e-07
0.00524988
0.0454437
3.22779e-08
4.34631e-07
1.70538e-06
0.00173944
1.60781e-07
8.42118e-08
-1.18967e-07
0.000597873
2.48266e-07
0.029178
-2.1179e-06
1.89038e-06
-2.78392e-07
-3.3919e-07
-3.0606e-09
-3.18939e-07
-2.77608e-06
3.66199e-07
-2.6303e-07
1.79545e-06
2.44821e-06
-5.28843e-05
-2.53379e-07
-1.74523e-06
-7.77644e-07
-1.23172e-07
0.00108659
-9.15557e-08
-1.21766e-06
0.000373487
1.22135e-06
0.0311544
0.00397021
1.01174e-06
0.000179309
0.0170809
0.0038338
-4.14474e-05
0.000756098
-1.02689e-07
-4.39062e-07
-1.81483e-08
-6.73933e-07
0.000281076
-9.778e-07
-5.84611e-08
-1.52926e-07
-1.37369e-07
8.41648e-06
3.83504e-10
0.0113245
1.83082e-07
-7.42725e-07
-6.32462e-08
5.11986e-07
5.52951e-07
-5.92242e-07
-3.768e-07
-5.60808e-07
-3.86525e-06
5.26811e-07
0.000156508
-1.9595e-06
1.75766e-07
1.41336e-06
-1.88827e-07
-2.58644e-07
-0.00351286
0.0285079
-8.57221e-06
-4.03769e-07
9.80218e-08
-2.01421e-05
-0.0160675
-0.00010514
5.72723e-06
2.71085e-06
-0.000540007
1.44624e-06
-2.16009e-07
1.13902e-07
0.00086531
-1.23317e-06
-0.0328857
3.19047e-08
6.75941e-08
4.33037e-06
4.96419e-07
-1.21995e-06
-3.40603e-07
0.000167441
0.00465216
0.016909
9.28391e-08
-0.00589936
-5.50421e-07
-4.26972e-07
4.48429e-08
1.18669e-06
-1.02662e-07
0.0303403
1.96174e-06
0.000233457
1.0227e-05
5.74328e-06
4.68143e-06
-7.09828e-07
0.000411272
5.20832e-06
0.00162264
0.000252423
-4.01551e-07
-0.00056094
-3.93945e-05
0.00726356
-0.0207396
-1.50696e-08
0.0195451
5.52624e-07
0.0276723
5.39602e-06
-0.0388341
0.00219783
-1.03951e-06
-3.5948e-08
-0.000154966
-1.16984e-06
0.025265
9.855e-07
-3.00897e-07
3.33187e-07
-1.0107e-05
-8.6455e-07
-4.5517e-08
0.00509747
5.30462e-08
-0.0105012
2.19836e-06
6.85401e-06
-7.66669e-08
-2.1885e-05
-1.62522e-07
9.80414e-07
-2.69119e-07
7.7103e-06
9.78384e-08
2.51755e-06
2.17637e-06
8.73521e-07
-7.93234e-08
1.85192e-08
-0.00485702
-1.08142e-07
3.27751e-07
0.000165154
-3.45648e-08
8.74586e-06
0.0120352
0.000109422
-6.63982e-09
-2.77016e-08
-1.91849e-05
0.000141175
1.14612e-06
1.83256e-06
-0.000264066
-0.0060897
-6.14711e-07
0.00159917
1.36304e-06
0.0316455
4.04109e-06
-1.04026e-07
-3.86438e-06
-9.92861e-08
0.0103179
-5.76206e-05
0.000124266
-1.78981e-07
8.88336e-05
-0.00881232
0.0319649
1.43683e-07
-6.27639e-08
-6.06619e-08
1.18724e-08
-8.78928e-07
-6.15227e-07
-6.77715e-08
-1.92462e-06
2.17862e-07
-2.88811e-07
-5.65917e-08
2.34328e-07
3.2593e-07
5.09889e-07
-7.59257e-07
-0.0100955
1.7466e-07
-6.4252e-07
0.000375354
-6.29559e-07
0.000290181
0.000357598
-1.35172e-05
-0.0569778
-2.28384e-06
-4.83204e-05
-1.49536e-07
0.000302135
2.18021e-06
-3.93193e-05
-2.61312e-05
0.0370917
-1.40631e-06
5.25795e-08
-0.000967387
-8.01852e-06
-6.45936e-06
3.6898e-07
-1.24263e-07
0.00588243
2.08486e-05
-2.08398e-06
-6.44081e-08
3.14161e-07
0.00357576
2.67515e-08
-4.93407e-07
-0.00196635
0.000396264
0.0331212
-3.23332e-07
6.6927e-07
-3.6671e-07
-2.41944e-07
9.35208e-08
-0.0187191
0.000541838
-2.97674e-07
-2.19095e-07
0.00184538
-6.98099e-08
3.4847e-06
3.1136e-07
-1.24947e-06
6.02817e-08
4.30866e-08
-1.21648e-07
1.69353e-06
-2.85811e-07
5.05296e-07
0.000232579
0.00219674
1.4118e-05
4.38437e-06
6.70333e-07
-0.0706504
3.51588e-06
1.30022e-06
3.44372e-07
9.09062e-06
1.49785e-06
-2.09493e-06
2.15833e-07
3.72595e-07
1.07411e-05
2.58778e-06
0.053513
0.00165729
-0.0103418
3.45647e-07
6.49e-06
0.000235369
0.0274829
0.000719202
0.000881887
2.19583e-08
0.00039608
9.76412e-07
-8.06741e-06
2.86518e-08
0.00218843
3.0687e-07
-1.00807e-07
2.79493e-08
0.00125424
-6.30071e-08
-0.023002
-0.000209854
-2.2689e-07
3.4301e-07
1.28495e-06
-1.89745e-07
4.94655e-08
-8.64249e-07
-0.0112703
-3.56247e-07
1.37848e-06
7.32667e-07
-0.0564455
2.10585e-07
-5.17246e-06
-6.61558e-08
-2.88146e-07
-7.77846e-08
0.0194695
-3.31147e-06
3.74133e-09
1.29089e-06
0.00135225
-2.87004e-07
6.04927e-05
4.94864e-07
3.88584e-07
0.00129876
4.8951e-07
-1.74565e-08
4.94707e-07
7.70577e-07
-1.46487e-06
-5.3024e-06
9.89827e-06
0.0176733
-1.393e-06
-1.21626e-07
1.022e-05
0.000119474
8.40237e-08
-3.10453e-05
6.26071e-08
0.00169498
1.74823e-07
1.2257e-07
0.000232421
-4.66795e-07
4.96806e-07
-3.5058e-07
-0.0632216
-0.0291495
3.4484e-07
0.00213221
-2.78258e-07
-4.61839e-07
0.0295333
-4.39772e-08
-8.92678e-07
4.32806e-07
6.80167e-06
8.02449e-06
2.14357e-05
-4.77797e-08
-8.46229e-07
-5.29611e-07
-3.20078e-05
-4.66495e-05
-3.3144e-07
1.34814e-05
1.77984e-07
0.00891755
6.79571e-09
0.000111776
0.0331436
3.79094e-08
5.6823e-07
-0.000636121
-1.33377e-05
5.82733e-05
5.23199e-07
9.063e-08
-1.07833e-05
-1.08555e-07
4.30357e-07
1.8834e-06
0.0304048
1.28711e-06
0.0538321
5.02711e-07
0.00328396
-1.83701e-07
-7.93634e-07
1.54874e-06
0.00664234
0.000715513
1.51837e-06
-2.64267e-07
3.24748e-05
-2.25645e-07
-4.06361e-07
-5.45485e-05
1.86506e-06
-1.33975e-05
1.13767e-06
-0.0134877
-0.0099503
-0.0215214
-1.04881e-06
2.43306e-07
1.66233e-08
-8.13419e-07
0.00156381
2.3297e-05
2.31552e-07
0.0165626
0.000394345
0.00214403
5.00016e-07
1.69248e-06
2.92949e-06
0.0436798
0.0184292
-8.60252e-05
-6.65852e-08
3.99876e-07
2.20391e-06
0.0106155
0.00137885
0.00133569
6.40801e-06
0.0239052
8.05658e-08
2.3828e-07
1.53066e-08
-0.0704237
-1.14921e-07
4.80727e-06
0.000154964
-2.32115e-06
2.22494e-06
7.76402e-07
2.9022e-08
2.24266e-07
0.00348145
-8.983e-05
6.1817e-08
-1.14226e-07
9.02716e-07
-7.39294e-06
3.09835e-09
-1.38851e-05
0.000140513
-1.06582e-07
0.000119471
0.00172911
0.000126692
-8.3133e-08
-4.74725e-08
0.0246005
-0.0033764
1.00857e-06
-0.0117333
0.0258615
-2.39742e-07
0.0525479
-3.11559e-07
1.75899e-06
7.41178e-07
-1.62428e-07
0.00838807
-1.94906e-06
-1.97036e-06
-9.88591e-08
1.12541e-07
0.0310174
-2.38058e-07
-5.7495e-07
-0.00142537
0.0338156
6.08531e-07
-8.55566e-06
-9.54039e-06
1.74319e-07
3.87352e-07
-7.76769e-07
-0.00100531
5.36735e-07
-6.10147e-06
0.0029478
5.01903e-07
1.06696e-05
0.00145289
-4.64953e-05
-0.0126095
-9.84058e-07
-2.5397e-06
-0.0712925
0.0313291
-1.98813e-06
9.71892e-07
0.000256341
-0.0125211
6.58048e-06
4.9432e-08
-0.00654054
-1.24546e-05
2.90946e-06
-3.73027e-07
-0.000278687
2.8309e-07
-5.10905e-07
3.42376e-05
1.50216e-06
-1.3818e-05
8.19903e-06
-5.72103e-05
2.38122e-07
-3.28352e-08
0.00106714
1.89703e-06
-0.000210655
0.00287589
9.0237e-05
3.65122e-06
-7.99761e-08
0.000118973
1.17718e-08
-3.06073e-07
-0.00855587
-9.84719e-08
-7.99502e-08
0.00324136
7.33456e-07
-2.91038e-07
-5.65872e-06
7.71073e-06
1.54243e-06
-8.14437e-05
0.000224784
2.3365e-05
0.000100893
-0.00553811
0.000802302
0.00104074
-7.58708e-06
1.42928e-06
-0.000833804
0.019446
0.000499523
9.26045e-07
-8.4395e-07
0.00310335
-7.14309e-07
2.46095e-05
1.41683e-05
2.49158e-06
-3.22643e-07
-4.41717e-07
-4.27176e-05
-3.28662e-07
-1.34246e-06
1.71226e-07
1.54672e-08
0.00835326
-1.51076e-06
1.20743e-06
-8.6542e-08
-0.00199009
4.89143e-05
4.55812e-07
-0.00116891
6.37395e-06
1.2635e-05
0.0282263
1.56118e-06
-7.46977e-09
-1.0853e-09
0.0120422
-4.9399e-08
-1.33209e-06
0.00363226
7.53148e-07
-1.24609e-06
0.0165923
-2.6916e-09
6.06388e-07
0.00289328
-2.71182e-05
-9.57486e-07
3.44106e-06
0.000458346
2.77498e-08
1.1021e-06
0.0246699
-9.73033e-07
-2.12374e-06
-3.65841e-07
-4.35614e-07
-0.000105221
3.89986e-06
4.89618e-06
1.00686e-08
-5.97601e-07
1.7417e-06
-2.61127e-07
-0.00186846
-1.33052e-06
0.00106388
-1.91356e-05
2.23416e-07
-1.84199e-07
-0.00220923
-0.00743682
-7.65285e-09
3.52635e-08
0.0397424
-7.98555e-06
-0.0710285
0.0438802
-1.45842e-07
-5.10523e-05
0.0166465
-2.05192e-05
2.67821e-08
3.1081e-07
-5.67412e-05
-3.43638e-07
0.0243105
4.26893e-06
3.92012e-07
-0.00384135
-0.000457906
4.1109e-06
-1.26189e-06
0.0445481
-0.0071447
-3.10578e-07
9.53332e-08
4.30382e-07
3.49925e-06
4.95338e-07
7.63621e-08
0.000177007
0.00234648
0.0307699
0.000120035
2.05517e-06
8.91872e-07
-3.16309e-06
-7.18164e-07
-3.03359e-07
0.000280114
-1.07402e-07
1.56245e-06
-1.91373e-07
-1.76749e-07
-0.0332393
-1.91943e-07
-0.0483803
-0.0241587
1.17112e-06
0.00073209
0.00096148
-6.6652e-07
-1.03558e-06
-0.000980768
1.42225e-07
-2.64341e-06
0.00796953
-1.38185e-05
0.00249392
5.7939e-07
0.00477651
-0.00168672
0.000121435
0.00400135
-2.082e-07
9.87154e-05
-0.00435133
1.70556e-05
0.00833551
2.1388e-08
0.0687775
9.36946e-06
9.58499e-05
2.58529e-05
-3.01305e-07
0.00306397
-0.00126423
-0.0681946
-0.000215156
7.27131e-05
-0.00423057
-0.00340067
4.02348e-09
7.42505e-07
-0.0667426
2.1264e-07
2.82946e-08
-3.85892e-07
0.0226461
-8.71718e-07
2.92568e-06
0.0230774
-8.37523e-08
0.000481142
-0.00215373
-9.67803e-08
-6.36584e-08
3.77461e-08
0.000130209
0.0216766
1.35076e-06
-2.90688e-08
0.000408222
-0.0021975
-1.3474e-06
7.99673e-07
-4.28264e-07
-6.80711e-07
-1.46805e-07
0.0206435
1.79253e-06
-3.0447e-05
0.00010781
-2.5913e-06
0.0230671
4.21388e-08
4.30563e-09
5.56786e-07
1.27438e-06
1.67003e-05
-1.30883e-06
3.65881e-07
0.00352895
-1.1361e-07
4.34217e-06
-1.64022e-07
-7.30187e-08
-2.54681e-06
2.21019e-08
-1.98905e-07
-1.46281e-06
2.08861e-08
2.63933e-06
2.70196e-06
5.49941e-07
6.09555e-06
-0.051624
-7.7176e-06
1.18042e-07
2.9144e-09
-9.99763e-08
0.0533848
-4.6887e-07
-5.50198e-05
-5.10813e-09
-0.00012281
1.60529e-07
3.25247e-06
-6.01229e-07
3.68994e-08
5.26297e-05
0.015362
0.00380315
3.32445e-06
-0.00281404
5.05871e-06
6.42029e-05
4.51053e-07
0.000293184
0.00457978
2.24525e-07
0.0133778
0.00459971
0.0243675
-8.63937e-06
1.5643e-08
1.03741e-06
-6.17662e-05
-1.55735e-07
-0.0700361
0.0439583
-5.99024e-07
0.00215924
-3.02375e-07
-1.81684e-07
-4.72981e-06
-1.3004e-09
-3.87151e-07
0.0235605
-0.0144706
8.83654e-05
1.00431e-07
-7.77688e-07
0.00825249
2.77033e-08
0.000419577
-6.01472e-06
2.47885e-07
-6.88307e-06
-6.28155e-08
-0.00011614
6.97861e-05
1.22774e-06
-5.07298e-05
5.95967e-06
-0.00149329
-0.000455554
-3.66776e-06
0.00173451
6.52845e-08
0.0318289
-1.03334e-06
-1.67592e-06
8.79224e-07
-1.83779e-06
-4.35439e-05
2.01027e-08
-1.33057e-06
5.59861e-07
0.0165855
-3.80284e-05
-0.0374841
1.2893e-06
-3.73782e-07
-1.19369e-07
0.0298091
0.00316101
-1.48997e-07
-3.86905e-06
0.0148533
-2.8461e-05
-4.44389e-05
0.000919722
1.38744e-06
1.92095e-05
-3.16442e-06
-0.0782699
-0.0513053
-0.000184746
-1.47058e-06
6.72554e-07
0.0129193
-2.99194e-08
4.5412e-07
5.65727e-05
0.0185022
5.33267e-07
2.04099e-06
-0.00187473
3.57206e-05
3.6321e-07
-3.44372e-07
8.11875e-07
-0.0336732
-2.79549e-06
-4.68061e-06
-9.55634e-08
8.12064e-05
0.0198013
-4.07394e-05
-0.0326103
-2.27526e-06
-8.41174e-08
1.01983e-05
0.000434808
-3.95532e-06
3.01569e-06
1.25211e-06
7.05787e-05
6.80722e-07
-2.97802e-07
-8.43825e-09
2.06613e-06
2.15068e-05
0.0100429
6.64325e-08
-6.88292e-07
7.26963e-06
-0.00155872
-1.84679e-05
-0.0174643
2.95873e-05
2.22326e-07
2.04724e-05
-2.22643e-08
0.00638448
2.70991e-06
2.15193e-06
0.0183612
4.06808e-06
-0.000102402
-2.49258e-07
3.95942e-09
-1.50382e-07
1.40427e-05
0.0267732
-1.61973e-05
0.000645339
6.99306e-07
-0.00431808
5.98545e-07
8.7064e-05
-3.54593e-07
7.70951e-07
1.73276e-08
1.03499e-07
0.000110996
3.23704e-06
-3.90258e-07
-0.00605896
-0.0484175
0.00195423
2.01751e-07
1.60276e-09
-8.45388e-08
9.0074e-06
1.43933e-05
-1.16603e-08
-1.62789e-07
6.47954e-05
0.0288646
0.026066
0.00212488
1.84245e-07
5.5878e-05
-1.27329e-05
-7.3724e-09
-3.31957e-07
-2.11191e-05
-1.10622e-06
0.0037318
-1.03861e-07
0.0422548
-7.96189e-07
3.36855e-07
-6.78039e-05
-0.0118115
-1.95277e-07
0.0339663
-9.12127e-06
-1.8315e-08
0.0131598
-5.43222e-08
-2.90199e-06
-7.47554e-09
-8.65869e-08
7.65943e-06
0.000759028
0.0447984
1.2413e-07
9.63952e-07
0.0138805
-0.0199194
-0.0113088
1.22378e-06
0.000136409
9.81298e-07
1.88119e-06
0.000889872
0.00298444
2.82557e-06
0.000559784
0.000189249
1.67992e-08
-0.00380335
1.75998e-08
-1.5606e-07
-2.53374e-05
-1.84207e-06
-0.000269526
-5.83379e-06
-7.12657e-08
-5.13903e-06
-1.6413e-07
-5.49875e-07
-3.89396e-07
-3.44995e-06
-0.0638025
-2.91225e-06
-9.89682e-06
-5.11148e-07
-0.0120223
-1.12256e-07
-7.78013e-06
0.000117459
-7.3201e-08
7.43781e-05
0.0180063
0.00301422
0.00959461
4.33744e-08
1.89226e-08
-2.13057e-05
-1.76067e-05
9.69542e-07
2.41832e-06
-0.000787239
2.86141e-05
0.0256016
-4.20111e-07
-1.28842e-06
0.0154712
-4.30665e-09
8.56429e-05
-3.65195e-07
-8.25222e-07
-4.49629e-07
-6.17652e-07
7.86264e-06
-8.46713e-08
2.40034e-08
-1.35258e-06
3.46779e-06
3.2043e-07
-2.07368e-05
-1.49302e-07
3.52631e-08
-0.00187558
-5.86693e-05
-5.88595e-06
-1.04216e-08
-1.38192e-06
3.18498e-06
3.2869e-06
0.0273519
-1.06119e-08
8.46462e-05
-1.60439e-07
-0.00254344
2.18867e-07
2.00666e-06
2.26825e-08
-3.31049e-06
5.14724e-06
7.98489e-07
1.71849e-06
-2.11013e-07
1.35451e-05
-2.93106e-08
-2.42783e-07
-1.36851e-07
-5.48926e-07
-0.0925388
-0.0147362
0.044268
0.0467593
-4.54815e-07
-8.52332e-07
9.22501e-08
-0.0175599
-0.00138133
-1.60627e-07
7.62895e-06
2.11297e-05
0.00722102
7.97925e-05
3.29891e-07
1.93994e-06
-6.40256e-07
9.2754e-07
0.00140891
-1.43781e-06
-5.78937e-08
-0.00923315
0.0409759
-9.20631e-07
9.78101e-07
6.69093e-07
1.17759e-07
7.24698e-05
0.00022481
1.1913e-06
0.0299918
0.000555023
-0.00177963
0.0202886
-0.00391942
-3.99936e-06
0.000239914
-0.0106442
-0.0257015
-7.03546e-08
0.00411657
-2.95731e-08
2.03651e-07
-0.00187114
-1.46374e-05
0.000119468
-1.2272e-07
0.00165117
0.000101675
-1.29367e-08
4.58156e-07
-4.63434e-07
1.39533e-05
-3.22095e-07
-4.56337e-05
-0.0018327
0.000200593
6.08721e-05
0.0359379
4.40018e-06
4.80775e-08
0.0254033
0.00401597
-1.97061e-07
2.78505e-07
9.02313e-07
-4.97406e-05
-7.65054e-07
-1.58417e-07
1.0642e-05
0.0160327
-0.0152743
7.96354e-08
-0.0015341
-1.01134e-08
1.39785e-07
3.4288e-06
0.000205724
-3.5609e-05
-2.50973e-05
1.1607e-07
-4.26504e-05
6.16479e-08
3.62976e-08
0.00701413
8.19738e-05
1.78342e-06
-1.43224e-06
1.08361e-06
7.1384e-07
1.90839e-06
-5.88032e-07
6.58566e-07
-8.09179e-06
1.03642e-07
-4.24954e-07
1.00185e-06
3.64736e-06
1.2747e-06
-0.000162996
0.00585161
1.54623e-07
0.00038969
-0.000280123
5.67948e-05
0.0314001
-1.42464e-06
-1.57023e-06
3.18912e-07
-2.01197e-06
0.0445565
0.0281947
-3.5371e-09
0.00421068
0.00261307
4.37141e-05
-0.0180277
0.0103041
0.0155855
3.83953e-06
-9.02415e-05
-2.91145e-07
0.000248502
-3.41848e-07
4.0172e-07
1.55938e-05
-2.21683e-05
-2.36671e-07
3.12681e-07
-9.62329e-06
7.10456e-08
0.0187095
-8.86819e-07
0.000120296
-3.53891e-07
4.50982e-07
0.0161819
2.93266e-08
-0.035383
-3.36106e-07
-0.000110165
-0.000253758
1.56818e-06
0.0457209
1.67427e-06
7.30826e-06
0.0179269
0.0326163
-1.06236e-06
-6.4191e-05
-1.00877e-06
2.10688e-06
-4.9592e-08
5.42596e-07
0.000698646
-2.90221e-05
-5.34088e-05
1.61363e-05
-3.55783e-06
-4.53686e-07
9.17091e-06
-0.0048403
-1.96426e-05
-0.0144225
3.59461e-06
0.000261162
6.59042e-05
1.72492e-06
0.0159761
-1.20715e-06
1.86105e-05
6.91169e-07
7.81004e-07
0.0109132
-3.70794e-07
4.39533e-06
1.13059e-07
0.0363276
-1.43896e-07
1.01883e-09
-2.13342e-07
-1.1601e-06
-1.06756e-06
0.00102735
0.0272293
-3.95529e-06
-0.00796014
-4.32634e-05
-3.63959e-05
-1.39359e-06
-4.84892e-05
0.00810493
0.000374905
3.43909e-07
-1.71096e-07
0.0392789
2.88503e-07
0.0018038
-2.1546e-07
6.84777e-07
-1.6208e-08
0.0028647
4.42779e-05
-2.90927e-06
0.00178077
0.00688674
3.32593e-07
3.10606e-07
-1.5888e-06
-2.50834e-07
0.011778
0.017774
-0.0323723
-0.0165475
-1.95302e-05
-9.99625e-08
2.51738e-07
-0.0687544
0.00274031
5.24919e-07
-4.71012e-08
8.46375e-05
7.62403e-07
1.3402e-06
1.3269e-06
2.79564e-05
0.0464995
-0.00151694
-1.31619e-07
8.24462e-06
0.000729691
-3.26329e-07
-3.2641e-07
0.00325568
8.68083e-07
-0.00461989
2.83995e-06
-1.6018e-07
-4.7984e-09
-4.54457e-05
7.4085e-06
-1.04738e-06
-2.41147e-05
0.00109421
0.0244287
-2.21579e-06
-0.0485398
-5.68621e-08
1.22142e-06
4.50095e-07
2.56478e-07
-9.90473e-08
-9.34416e-05
-6.6657e-08
-3.00395e-06
4.8828e-06
1.47896e-05
-2.96556e-06
-6.85325e-07
-3.5516e-07
4.62178e-05
-4.57897e-06
-1.04942e-07
8.90937e-08
-0.0588927
-1.35127e-05
8.46861e-08
1.0543e-06
8.20651e-07
5.53188e-05
1.39474e-06
0.021693
-4.31924e-05
2.3753e-05
0.0200822
-1.02614e-06