/*--------------------------------*- C++ -*----------------------------------*\
| =========                 |                                                 |
| \\      /  F ield         | OpenFOAM: The Open Source CFD Toolbox           |
|  \\    /   O peration     | Version:  v2012                                 |
|   \\  /    A nd           | Website:  www.openfoam.com                      |
|    \\/     M anipulation  |                                                 |
\*---------------------------------------------------------------------------*/
FoamFile
{
    version     2.0;
    format      ascii;
    class       surfaceScalarField;
    location    "50";
    object      phi_0;
}
// * * * * * * * * * * * * * * * * * * * * * * * * * * * * * * * * * * * * * //

dimensions      [0 3 -1 0 0 0 0];
oriented        oriented;


internalField   nonuniform List<scalar> 
27663
(
0.47767
-0.193385
-0.284285
0.173101
-0.107747
-0.0653532
-0.467818
0.511982
-0.0441635
-0.154428
-0.137211
0.291639
0.380825
-0.422463
0.0416383
-0.290355
-0.145076
0.435431
0.221871
0.0604812
0.0777817
0.095319
0.258182
0.16393
-0.422112
-0.356716
0.492677
-0.135962
-0.167076
-0.0653788
0.232455
8.23378e-05
-0.4679
0.0857456
-0.240173
0.3042
-0.505635
0.201435
0.429041
-0.0482164
0.544975
-0.383706
-0.161268
0.55291
-0.369888
-0.183023
0.0082406
0.0149096
-0.0231502
0.506591
-0.243045
-0.263546
0.450916
-0.400542
-0.0503746
0.143416
-0.433771
0.120301
0.338093
-0.458393
0.389768
0.155206
0.155479
0.0446505
-0.200129
-0.475695
0.479298
-0.00360274
-0.258068
-0.0209381
0.279007
0.154233
0.323437
0.312878
-0.553432
0.240554
0.392207
-0.570551
0.178343
0.580194
-0.157365
-0.422829
-0.471252
0.49642
-0.0251684
-0.17992
-0.159134
0.339054
0.453096
-0.215465
-0.237631
0.297645
-0.0937402
-0.203905
0.550441
-0.299207
0.478477
-0.259311
-0.219167
0.255607
0.134224
-0.389832
-0.367864
0.130665
0.237199
0.445237
-0.294944
-0.150292
0.393294
0.186901
0.336135
-0.32217
-0.0139652
0.454294
-0.30006
0.600341
-0.316085
-0.284256
-0.158721
-0.0108305
0.169552
0.444498
-0.186315
-0.221482
0.31652
-0.0950387
-0.0987036
0.315381
-0.474111
0.158731
0.150253
-0.458953
0.308699
-0.0803436
0.0647952
0.0155484
0.513157
-0.200279
0.243319
-0.446922
0.203603
0.283263
-0.41299
0.129727
0.296759
0.039376
-0.440076
0.458734
-0.0186581
-0.162873
-0.0656666
0.22854
0.4919
-0.187699
0.143793
0.307123
0.171867
0.125779
-0.260109
0.462734
-0.202625
-0.552166
0.36205
0.190116
-0.542098
0.287698
0.254399
-0.0995207
-0.301021
0.0820383
0.273416
-0.355455
0.221351
-0.185425
-0.035926
-0.0576749
0.139383
-0.0817082
-0.363952
0.531308
-0.167356
-0.290131
0.235358
0.0547736
-0.284874
-0.199908
0.484781
0.29256
-0.465594
0.173034
0.0988246
-0.265901
-0.613551
0.34271
0.270842
-0.245175
0.194661
0.0505136
-0.0137007
-0.00156638
0.0152671
-0.542812
0.271595
0.271217
-0.272659
0.213673
0.0589851
-0.313736
0.233581
0.0801551
-0.0863316
0.00598795
-0.485758
0.200885
0.06431
-0.138932
0.0746223
0.0446199
-0.0195569
-0.005613
-0.0102191
0.015832
-0.00552835
-0.00817232
-0.499765
0.0586874
0.441077
0.257311
0.195786
0.312817
0.287524
-0.155096
0.223574
-0.0684783
0.00358541
-0.360301
0.340815
-0.269912
-0.0709026
0.0189395
-0.0106989
-0.188235
-0.0569396
-0.453942
0.345597
0.108345
-0.212147
0.0534262
-0.288791
-0.0249451
0.474849
-0.0516479
-0.423202
-0.203483
-0.0691753
0.121909
-0.381965
0.260056
0.395854
-0.172734
-0.22312
-0.182633
-0.323002
-0.434625
0.434707
0.42846
0.0463898
-0.281114
0.363152
0.280165
-0.30181
0.0216456
-0.276469
0.0965486
0.431457
-0.431457
-0.143384
0.151444
-0.00806055
-0.377502
-0.0625744
0.056945
0.358017
-0.414962
0.148532
0.0728194
0.184675
-0.469056
0.284381
0.237531
-0.0455072
-0.192024
0.132596
0.282227
-0.414823
0.358365
-0.321557
-0.0368078
0.520988
-0.317093
-0.203895
0.0929276
0.27839
-0.371318
-0.473742
0.0391174
-0.456563
0.0926114
-0.150194
0.0141511
0.136043
0.17211
-0.455404
0.283294
-0.173866
-0.00729045
0.181156
0.159271
0.236584
0.287475
0.0708901
0.0550972
-0.21797
0.00346049
-0.00907348
0.226316
-0.419702
0.394157
-0.146813
-0.247344
-0.277799
0.269204
0.00859493
-0.0102609
-0.0108285
0.0210894
0.12629
-0.274226
0.147937
0.0744102
0.129002
0.125944
-0.192956
0.0670129
-0.293077
0.425673
0.0118939
-0.00608627
-0.00580766
0.213671
0.187019
-0.400691
0.342228
-0.249301
-0.198304
0.470413
-0.272109
0.286831
-0.532964
0.246133
0.130207
-0.412103
0.281896
-0.0176677
0.100243
-0.082575
0.592265
-0.25301
-0.339255
-0.469486
0.0558832
0.413603
-0.519991
0.230698
0.289292
-0.340257
-0.201841
0.384967
-0.263058
0.497755
-0.239157
-0.258598
0.0647125
-0.322781
-0.133553
0.389161
0.242134
0.271023
-0.0178488
-0.125535
-0.170644
-0.0386765
0.20932
0.166796
0.325103
-0.137662
-0.0125318
-0.122865
0.105197
-0.326761
-0.452559
0.503264
-0.0507049
0.361807
0.0892917
-0.451099
-0.155527
0.157822
-0.00229555
0.100849
0.0395499
-0.140399
0.131764
-0.22295
0.0911859
0.169709
-0.460555
0.290846
-0.456503
0.0612811
0.395222
-0.127545
0.430934
-0.303389
0.417143
-0.286935
0.293161
-0.0280551
-0.265106
0.601692
-0.307211
-0.294481
0.364504
-0.205233
-0.428877
-0.0236819
-0.295674
0.517837
-0.222164
0.0147668
0.0298532
0.174043
0.170424
-0.344467
-0.37989
-0.162923
0.122072
-0.427192
0.30512
0.180331
-0.0543878
0.135069
-0.201378
0.0663091
0.1837
-0.126409
-0.0572907
0.213971
-0.294729
0.0807583
-0.486975
0.175794
0.31118
0.00192568
-0.0121865
0.401013
-0.278941
0.303323
-0.503231
0.0706588
0.152492
-0.223151
-0.0603195
0.195388
0.231318
0.24716
0.510908
-0.282693
-0.228215
0.0189603
0.535781
-0.311614
-0.224166
0.482924
-0.216095
-0.266829
-0.150073
0.220732
-0.332039
-0.154936
-0.440259
0.295183
-0.234499
0.458976
-0.224478
0.13018
-0.200426
0.0702457
-0.0600544
0.160904
0.295496
0.296769
-0.212645
0.132763
0.0798816
-0.148709
-0.296086
0.444794
0.217565
-0.0650728
-0.291526
0.365569
-0.0740438
-0.0188034
-0.480961
-0.111639
0.0060093
0.10563
0.374705
-0.291522
-0.0831826
-0.0126598
0.192904
0.185127
0.32508
-0.237975
-0.0871051
-0.0374035
0.0119069
0.0254966
0.0156036
-0.0403954
0.0247918
-0.0651366
-0.0395485
0.104685
0.160408
-0.161162
0.000754096
0.202943
-0.314437
0.111494
0.231365
-0.00280305
-0.228562
0.357995
-0.144324
-0.487112
0.464206
0.0229062
-0.00685411
0.14851
-0.141656
-0.135144
0.00487153
0.130272
0.229304
0.281604
0.53469
-0.303372
0.490112
-0.217614
-0.272497
-0.0226367
-0.147515
-0.143462
0.136608
0.115521
0.246403
-0.361924
0.331757
-0.302981
-0.0287759
0.31724
0.218541
0.173733
-0.107466
-0.0662665
0.122295
-0.327632
0.205338
0.324259
-0.0808985
-0.243361
0.363708
-0.248188
0.327402
0.27429
0.10839
0.135295
-0.222344
0.0870496
-0.0363388
0.267704
0.074886
0.218275
-0.494058
0.024572
-0.0761607
-0.393311
-0.0779405
0.190409
-0.115999
0.216386
0.246349
0.148392
-0.425661
0.277269
0.251997
-0.238773
0.518066
-0.279292
0.223558
-0.156328
-0.0672299
-0.122728
-0.175275
0.298003
0.325851
0.105547
0.235268
0.156191
0.272269
0.419422
-0.176103
-0.0481295
0.203609
0.0253918
-0.0365463
0.0111546
-0.496873
0.00976104
-0.0970058
0.223296
-0.132802
0.416065
-0.498983
0.253103
0.24588
0.215912
0.109167
0.163723
-0.113875
-0.0498472
0.17252
-0.304285
0.131766
0.236281
0.250555
-0.486836
-0.312713
0.353406
-0.0406933
0.22107
-0.0893057
-0.488145
0.220784
0.267362
0.116502
-0.215926
0.0994244
0.0838354
0.0898972
-0.140193
0.00377328
0.276391
0.131823
-0.0808006
-0.0510228
-0.312295
-0.186689
0.115871
-0.352879
0.237008
0.146807
0.0767419
-0.290006
0.269954
0.0834527
0.204934
-0.280726
0.0757919
-0.0810555
0.135323
-0.413804
0.278481
0.563851
-0.170557
-0.199055
-0.354377
-0.498061
0.311681
0.18638
0.368074
-0.299808
-0.0682663
-0.457024
0.312848
0.144176
-0.18268
-0.0302527
0.00579994
0.0244528
0.39615
0.167701
0.245185
0.086572
0.423375
-0.288052
0.0645231
0.0991995
-0.01036
0.0357518
0.257725
0.0665342
0.323973
-0.413862
0.0898889
0.510196
-0.0912346
-0.418962
-0.221446
0.286158
-0.306577
0.426877
-0.255333
-0.0312893
0.286622
0.238746
-0.437051
-0.313239
0.0182948
-0.0237752
0.420408
-0.396633
0.121464
0.388732
-0.0108366
-0.14469
-0.0758331
0.46804
0.311773
0.241137
-0.399239
0.294505
0.104734
0.0765488
0.0227461
0.477539
-0.184979
0.227751
-0.0155796
-0.212171
0.0814296
0.0503938
0.235807
-0.0524252
-0.183382
-0.0876555
-0.112349
0.000709688
-0.100686
0.406197
-0.305511
0.282818
-0.445826
0.163008
-0.111765
-0.071198
0.0714889
-0.347149
0.27566
0.430348
0.00110958
-0.329551
0.0897333
0.239817
-0.156016
0.0803001
-0.250944
-0.421364
0.320678
0.194911
-0.197714
0.444659
-0.301243
0.35609
-0.240218
-0.32617
0.529939
-0.203769
0.488365
-0.488365
-0.0641129
0.0669092
-0.216983
0.109829
0.296368
-0.355264
0.261998
0.0932663
0.291261
-0.43997
0.112548
0.253021
0.464746
-0.153066
0.169612
0.0661948
0.106272
-0.383074
0.276802
-0.415106
0.119432
0.262569
0.258419
0.130533
-0.204024
0.0734905
-0.26157
0.333059
-0.273213
-0.167908
0.441121
-0.287445
-0.0678194
-0.0542195
-0.209054
0.263274
-0.265772
0.414164
-0.0243814
0.0793164
-0.054935
-0.0121141
-0.0244845
0.0365986
0.181057
-0.466243
0.285186
-0.0259881
0.00251418
0.0234739
0.171285
-0.168301
0.489927
-0.321626
0.466979
-0.163656
-0.482133
0.050676
0.499265
-0.214102
-0.285163
0.45787
-0.0307351
-0.427135
-0.284509
-0.131644
0.416153
-0.101342
0.244814
-0.360406
0.115592
0.131951
0.0891193
-0.084366
0.163387
-0.416716
0.253328
0.0997424
0.0839576
0.161723
-0.123872
-0.0378515
-0.249517
0.485797
-0.0730591
0.13472
-0.0616613
-0.244096
-0.221513
0.239301
-0.0177879
0.292959
-0.37406
0.0811002
-0.0437905
-0.0790744
-0.0382497
-0.110573
0.148823
0.225302
0.273963
-0.122754
0.0789637
-0.369062
0.237814
0.131249
0.43656
-0.330287
0.303759
-0.141692
-0.29503
0.436722
0.283455
0.2143
-0.4275
0.426262
0.00123872
0.139061
0.278082
-0.433664
0.149155
-0.112209
0.357023
-0.184981
0.523074
0.426943
-0.144125
-0.397091
0.141053
0.256037
0.498071
-0.335207
-0.162863
0.362085
-0.00409012
0.262951
0.111754
0.334652
-0.229105
-0.281862
0.0531684
-0.064463
0.0112945
0.41289
-0.145661
-0.267229
0.16004
0.346551
0.136906
-0.379576
0.242671
0.262587
0.178572
-0.441158
-0.138754
0.0656945
0.0122399
-0.468743
0.409792
-0.246404
-0.455876
0.0832579
0.372618
0.322646
-0.45181
0.129165
-0.315765
0.0942836
-0.457391
0.0015151
-0.0183459
-0.440002
0.269001
0.171001
-0.0135063
-0.16036
0.105678
-0.0413683
0.593807
-0.266404
0.443492
-0.195453
-0.24804
0.360224
-0.223319
-0.155099
-0.217482
0.372581
0.0229949
0.33909
0.110959
-0.144501
0.0335417
-0.181726
0.444313
-0.0280326
0.0627129
-0.0346803
0.129507
0.234202
-0.0718407
-0.161532
0.233372
-0.448133
0.468511
-0.0203782
-0.149596
0.278646
-0.129049
0.0631281
0.2791
-0.0651633
0.0708242
-0.00566094
-0.0591884
-0.0953679
0.154556
-0.427968
0.191836
0.236133
-0.476157
0.325867
0.150291
0.104795
-0.143045
0.303565
-0.495257
0.191692
0.325444
-0.0770242
-0.24842
-0.113662
0.40572
-0.292059
-0.135694
-0.253771
0.389465
0.424443
-0.285382
-0.107772
0.328466
-0.220694
-0.176788
-0.280236
-0.359268
0.467658
0.260021
-0.278297
0.0182756
-0.258613
0.443288
0.260376
0.183116
0.277419
0.116738
0.515511
-0.329223
-0.186289
0.238242
-0.327726
0.0894846
-0.513
0.230159
0.28284
-0.0896028
-0.400356
0.489958
0.368161
-0.238654
-0.18354
-0.270402
-0.291743
0.142147
-0.387866
0.274205
-0.126282
-0.0666747
-0.284021
-0.159594
0.141745
-0.522582
0.306864
0.215718
-0.104913
0.0730309
-0.132219
0.343477
0.0291967
-0.372674
0.394327
-0.05085
-0.00365509
-0.0168177
0.0204728
0.230749
0.094695
0.215945
0.0118056
0.137614
-0.147635
0.0100211
-0.119883
0.357335
-0.237452
-0.0960434
-0.148039
0.244082
-0.229967
-0.292615
-0.0992022
-0.0433575
0.14256
0.232245
-0.0231995
-0.209046
-0.329425
0.111135
0.21829
0.0468273
0.114896
-0.0962948
0.0719133
-0.403713
-0.0719819
0.30849
-0.38841
0.0799193
-0.443725
0.446175
-0.00245023
0.00167488
-0.0128453
0.245091
-0.321927
0.0839522
0.139435
-0.0812362
-0.0581987
0.301092
0.126563
-0.427654
0.0379019
-0.120782
0.0828804
-0.224365
0.162979
0.0613858
0.13781
-0.0199678
-0.117842
0.206298
0.11063
-0.316928
-0.126769
-0.270322
0.26599
0.160953
0.482189
-0.214537
-0.267652
0.244494
-0.487539
-0.252057
0.382722
-0.215593
0.073111
0.142482
-0.35895
0.335175
-0.303397
0.586503
-0.283106
0.29041
0.0703118
0.0691231
0.148858
-0.0112444
0.213751
0.269174
-0.0239955
0.0389051
-0.0847421
0.122644
-0.281765
-0.0401618
-0.149879
0.401677
-0.251798
0.52093
-0.337685
-0.183245
-0.0671345
0.375625
0.395271
-0.261047
0.0209353
0.200935
-0.298136
-0.315415
-0.179085
0.234182
0.183256
-0.0357404
-0.147516
0.217063
0.265126
0.143015
-0.4391
0.110573
-0.225089
0.114515
-0.35091
0.195811
-0.422833
0.469736
-0.0469031
-0.00717805
0.0227817
-0.148792
-0.261043
0.409835
0.513223
-0.193827
-0.319396
0.393235
-0.147491
-0.245744
0.21089
-0.247229
-0.44372
0.453095
-0.00937546
0.176547
0.187957
0.278314
0.144925
-0.423239
-0.145644
0.427731
-0.282087
0.302578
-0.180284
0.318535
0.196976
0.432602
-0.145772
-0.390069
-0.058064
-0.290971
0.400666
0.0569974
0.180534
0.145295
0.0379617
0.27601
-0.20121
-0.208196
0.409406
0.305979
0.280523
0.530802
-0.384845
-0.145956
-0.250685
0.23784
0.469561
0.447436
-0.148922
-0.298514
0.518535
-0.257573
-0.260961
-0.117729
-0.222214
0.450296
-0.228082
0.0180052
-0.386129
0.368124
-0.0855232
0.217474
0.0325358
-0.0976724
-0.27942
0.0579742
0.263093
0.169814
-0.432907
0.156273
0.236962
-0.224006
0.173576
0.0504307
-0.121797
0.434179
-0.312382
0.490471
-0.186907
-0.191536
0.132967
0.0585688
-0.395562
0.271463
0.124099
0.472659
-0.488098
0.0154393
-0.390011
0.240132
-0.0501585
-0.0887738
0.0251217
-0.146232
0.121111
-0.487224
0.0597234
0.0111321
-0.041556
0.0304239
-0.0437706
-0.0213926
-0.0193493
-0.231336
0.279711
-0.366671
0.0869605
0.121234
-0.292956
0.171722
0.203651
-0.216311
0.201776
-0.347513
0.117639
0.229874
0.242547
-0.154515
-0.0880322
-0.202284
-0.39887
0.0608814
-0.187163
-0.0698926
-0.153025
0.419015
0.206136
-0.325726
0.11959
-0.109485
0.156545
-0.0470598
-0.154854
0.0453693
0.437598
-0.0188737
-0.418724
0.530984
-0.400715
-0.130268
-0.136504
-0.0489214
-0.225818
0.153978
0.13796
-0.234003
0.106433
-0.0806949
-0.137407
-0.216624
0.35403
-0.141874
0.503681
0.181761
0.0904909
-0.272251
-0.170267
-0.204294
0.37456
0.121231
0.0342219
-0.155453
-0.0607944
0.339109
-0.319108
0.201684
0.117424
-0.269298
0.0319491
0.237349
0.278798
0.00939784
0.178594
0.0704454
-0.24904
0.134394
0.234772
-0.369166
-0.0547526
0.221906
-0.111333
-0.0284246
0.0282037
0.00022089
-0.326733
0.0922348
0.0853656
0.317678
-0.403044
-0.203225
0.145827
-0.436724
0.290897
-0.505902
0.179276
0.326625
0.138021
-0.344368
-0.0815381
0.425906
-0.112809
-0.233391
0.42685
-0.19346
-0.0775594
-0.279834
-0.0575348
-0.38619
0.183515
-0.0670131
0.196373
-0.32198
0.125608
-0.0122818
0.00619551
-0.429833
0.159325
0.270508
0.150601
-0.147344
0.338758
-0.191414
0.0362378
-0.0251057
-0.376996
-0.0458374
0.111424
0.344788
-0.456213
0.0899779
-0.221651
0.131673
-0.292813
0.0705982
-0.418516
0.388351
-0.523519
0.135169
0.145885
-0.115943
-0.0299424
0.181693
-0.278533
0.0968397
0.225411
-0.333183
-0.273441
0.14946
0.123981
-0.446721
0.207947
-0.18612
0.463779
-0.277659
-0.159017
0.419286
-0.26027
0.291069
0.186323
-0.477392
0.0373091
0.43535
0.120315
-0.336982
0.423852
-0.0868706
0.458958
-0.157867
-0.0502029
0.00580824
-0.140952
0.214377
0.11868
-0.333057
0.136372
0.0121386
-0.0916806
0.251414
-0.150136
-0.0652422
0.215379
0.229677
0.0795817
-0.309259
0.023069
-0.200634
0.177565
0.0435475
-0.14275
0.219736
0.0993745
-0.319111
0.0546432
-0.309976
-0.184794
-0.0959322
0.121937
-0.0528382
-0.0690984
0.19282
-0.371102
-0.1348
0.541177
-0.235197
0.13747
0.0952207
-0.332421
0.2372
-0.118403
0.33278
0.00760833
-0.0197224
0.125937
0.242224
-0.293539
-0.277012
-0.466208
0.280088
0.508144
-0.194946
-0.313198
-0.354094
0.562296
-0.208202
0.318813
0.189331
-0.0197825
-0.175775
-0.126035
0.376821
-0.246661
-0.13016
-0.51506
0.248887
0.266173
-0.36285
0.215506
0.115392
0.0239914
0.221993
0.128402
-0.350395
-0.325707
0.343712
0.0912998
0.0306368
-0.195668
-0.025845
-0.378014
0.144623
-0.217901
0.53473
-0.358558
-0.176172
-0.430807
0.219683
0.211124
-0.400648
0.280711
0.119937
-0.0644362
0.262637
-0.141402
-0.0282321
0.311856
-0.283624
0.145779
0.0777795
-0.136684
0.315278
-0.117891
0.324028
0.053596
0.0667194
0.0892919
0.312084
-0.401376
-0.0363065
-0.0281565
-0.0346151
-0.113146
0.147761
-0.375389
-0.0624766
0.437865
-0.223545
0.0734085
-0.0112631
-0.267076
-0.207254
0.474331
-0.145577
0.201006
-0.0554285
0.137373
0.286002
0.104188
0.19839
-0.0428771
0.388474
-0.0135401
-0.129922
0.209567
0.33161
-0.0175596
0.0228392
-0.00527958
0.236207
0.306751
0.140686
-0.295693
-0.16503
0.460723
0.125084
0.0653247
-0.21082
-0.266739
0.21252
-0.00665257
0.025406
-0.0187534
0.00693429
0.253087
0.101788
0.299225
0.0408937
-0.122286
0.0813919
-0.380831
0.458291
-0.0774598
-0.0201881
-0.364281
0.24728
0.117001
0.0824747
0.141099
0.229684
0.12638
-0.108471
0.310155
-0.299186
0.104601
0.194585
-0.486838
0.315907
0.170931
0.367302
-0.241365
-0.482133
0.0869793
-0.443505
0.356526
0.0209705
0.327554
-0.348525
0.26792
-0.434236
0.302914
0.131322
0.344103
-0.0863774
0.412878
-0.311089
-0.289819
-0.228687
-0.202121
-0.176328
-0.343662
0.374326
-0.218135
-0.172904
-0.360059
-0.0387696
0.277012
0.173379
0.252537
-0.273476
0.534987
-0.357278
-0.177709
-0.424253
0.258298
0.165956
0.466202
-0.265554
-0.200648
-0.245541
0.069779
0.175762
-0.183216
-0.192861
0.376077
-0.265151
0.236919
-0.299603
-0.171937
-0.456207
0.113728
0.342478
0.334759
-0.313789
-0.340367
0.139157
0.0392983
-0.414687
0.215747
-0.412086
0.196339
0.0477068
0.103737
-0.176372
0.00569409
0.0309743
-0.0366684
0.271964
-0.198715
0.128263
0.017622
0.343562
0.191424
-0.0562354
-0.399971
0.0216226
0.1362
0.216999
-0.341076
0.124077
0.153637
-0.352418
0.198782
-0.251724
-0.073712
0.0277469
-0.00459435
-0.0231525
-0.353176
0.151291
0.0776073
-0.228898
-0.0404686
0.0461627
0.453686
-0.317422
-0.136264
0.45787
0.444026
-0.180932
-0.0332533
-0.165642
0.198895
-0.111467
0.33346
-0.33505
0.226727
0.108324
-0.0522545
-0.163338
0.491211
-0.27746
0.330583
-0.235363
-0.413232
0.254215
-0.150549
-0.180758
0.167251
-0.0929944
-0.152546
-0.135536
-0.00321717
-0.135041
0.160163
0.335904
0.0950302
0.253234
0.0908683
0.295147
0.158539
0.182898
0.280881
-0.334079
0.468502
-0.134423
-0.0633194
0.0147566
0.0485628
-0.137971
0.577038
-0.210996
-0.366042
0.524788
-0.262219
0.341731
-0.190699
-0.151032
0.0797151
0.102483
-0.182198
-0.283404
0.393233
-0.131312
0.368302
-0.236989
0.183367
-0.366582
-0.217
-0.082186
0.422921
-0.322381
-0.22075
-0.104976
-0.516724
0.257958
0.258766
-0.358814
0.442072
0.482556
-0.223867
-0.258689
-0.25017
-0.195656
-0.340073
0.379371
-0.332692
0.111942
-0.0144836
-0.0374092
-0.0259102
-0.342313
-0.17441
-0.0296111
0.0229585
0.34835
-0.0328748
0.00445026
-0.138686
0.00314962
-0.256514
0.0245546
-0.383369
0.407596
-0.242833
-0.164763
-0.0818605
0.293653
0.171093
-0.146923
0.216702
-0.426168
0.00945219
-0.2191
0.49168
-0.27258
0.182844
0.103
-0.285844
0.358799
0.218239
-0.024812
0.111586
-0.0867743
-0.311505
0.387867
-0.0763622
0.44967
-0.268613
0.206348
-0.239601
-0.0982262
-0.327942
-0.224814
0.148805
0.0760094
-0.400307
0.0602336
0.00725086
0.0741787
0.454807
-0.204252
-0.300753
-0.133483
0.354014
-0.106143
-0.154729
0.116052
-0.242766
0.0788831
0.163883
-0.132305
-0.314099
0.0998363
0.214263
0.0256671
-0.179141
0.153474
0.0758129
0.168491
-0.244304
0.300815
0.161197
-0.462013
-0.139171
0.388026
-0.248855
0.346896
0.177892
0.248284
0.127043
-0.375327
-0.263162
0.161266
0.101895
-0.210853
0.144603
0.0662496
-0.0539014
0.0258689
-0.419774
0.149112
0.270662
-0.486237
0.315971
-0.328695
-0.0818921
0.410587
0.252885
-0.0243046
0.00674502
0.120698
-0.175621
0.0549234
0.448986
-0.14817
-0.139292
0.378989
-0.239697
-0.134966
0.139838
-0.188118
0.406425
-0.218306
0.210907
-0.187838
-0.0353002
-0.313495
0.348795
0.346684
0.132614
-0.345603
-0.260801
0.420947
-0.160146
0.0903812
-0.115193
0.308749
-0.0779998
0.121874
0.212778
0.129778
0.237524
0.0209804
-0.27472
0.253739
0.164636
-0.0963143
-0.0683219
-0.470443
0.251006
0.219437
-0.134328
-0.257447
0.391775
0.144909
-0.428313
-0.148413
0.461262
-0.035084
-0.153442
0.188526
-0.148909
-0.294268
0.443178
-0.282909
-0.136865
-0.146281
0.171948
0.238151
0.122073
0.0198583
-0.283234
0.263375
0.238819
-0.171807
-0.0670125
0.138979
-0.0912723
-0.405224
0.109531
-0.482823
0.233307
-0.264728
0.485512
-0.192321
-0.0819057
0.4836
-0.019394
-0.10705
-0.234277
0.341327
0.438364
-0.165411
-0.272953
0.0887267
-0.0814758
-0.32542
0.016364
0.309056
0.451766
-0.109056
-0.241303
0.285705
-0.0444026
0.0895177
-0.0876525
-0.0018652
0.0909333
-0.2473
0.156366
-0.0664515
-0.35519
-0.0551242
0.410314
0.29974
0.178161
-0.477901
0.0767948
0.173759
-0.250554
0.294123
-0.142411
-0.0274114
0.169822
0.073609
0.16521
0.0507423
-0.197665
-0.157052
0.450706
0.349771
-0.101486
-0.264859
0.447757
-0.522578
0.240253
0.282325
-0.277008
0.421917
-0.0965836
0.153361
0.106669
-0.26003
-0.175435
-0.238931
0.414366
-0.110366
0.190081
-0.0598703
-0.0609575
0.120828
-0.0183886
0.278765
0.299015
0.462767
-0.337468
-0.1253
0.112202
0.154735
-0.266937
0.174111
-0.156384
-0.017727
-0.106945
0.323943
-0.174589
0.129758
0.0448307
0.260943
0.0625906
-0.122461
0.366594
-0.236816
0.302966
0.183137
-0.375998
0.345641
-0.0621122
-0.118645
0.0789877
0.210599
-0.289587
-0.414611
0.50413
-0.0895188
-0.375014
0.464306
0.370494
-0.139796
-0.0509252
0.171623
0.0546853
-0.0363637
-0.0183216
0.231961
-0.0080815
-0.22388
0.0170559
-0.043402
0.026346
-0.0876271
0.149741
-0.062114
0.25998
-0.169046
-0.199269
0.278256
0.250155
-0.0269237
-0.223232
0.140806
-0.17589
-0.279189
-0.161172
-0.101355
0.262527
0.364964
-0.315133
-0.0498309
0.236841
0.201523
0.20218
-0.139024
0.0888658
-0.0764836
0.280202
-0.203718
-0.427105
0.071915
0.364062
-0.277083
0.158223
-0.238522
-0.284057
0.293936
-0.143656
-0.150281
-0.0041343
-0.440049
0.444184
0.100399
-0.157877
0.0574775
-0.316082
-0.00933798
-0.129498
0.0338629
0.0956347
0.280435
0.146091
0.273473
0.261257
0.436416
-0.133502
0.101246
0.0377335
0.373312
0.144754
-0.287001
0.102207
-0.248318
0.100983
0.263981
0.409657
-0.320365
0.479215
-0.041617
0.354247
-0.353416
-0.000831173
0.261715
0.159232
-0.17591
0.400353
-0.224443
0.294365
-0.483006
0.188641
-0.133463
-0.184615
0.318078
-0.25809
0.0167874
-0.164367
0.464107
-0.353352
0.390661
-0.0902938
-0.00351302
0.0938069
-0.0174919
0.0183378
-0.000845942
0.354345
-9.79283e-05
-0.0988649
-0.38781
0.248639
-0.127532
0.046296
0.045726
-0.39982
-0.086088
0.0344943
0.29464
0.141776
0.0392691
-0.0381608
-0.00110832
-0.148433
-0.258017
0.40645
-0.0973355
-0.181818
0.279153
-0.315813
-0.154631
0.0749845
0.0145332
-0.12613
0.135513
-0.373367
0.237855
-0.441036
0.146006
0.0374427
-0.12507
0.52782
-0.407697
-0.120124
-0.41098
0.262547
-0.315684
0.182221
-0.415107
0.0668495
0.348257
-0.0421451
-0.0636579
0.358023
0.0108381
0.0197365
-0.0305746
0.213209
-0.389119
0.398201
-0.215064
0.202383
-0.118798
-0.083585
0.405235
-0.16114
-0.244094
0.281443
0.108114
-0.389557
0.242749
0.239807
-0.0947768
-0.360387
0.455164
-0.0743982
-0.0564014
-0.0730963
0.010255
-0.091295
-0.11005
-0.160257
0.103468
0.205281
-0.380801
0.0978914
0.148192
0.17972
-0.327913
-0.040501
-0.134088
-0.459481
0.13987
0.319611
-0.00992177
-0.00498211
0.0149039
0.244584
0.146281
-0.390866
-0.133106
-0.326375
0.0271874
0.222968
-0.1534
-0.302809
0.45621
-0.124454
0.369039
0.111052
0.0913305
0.196403
-0.397485
0.201082
0.396765
-0.28534
-0.198202
-0.277955
-0.15095
0.05883
-0.395812
-0.0804712
0.361915
0.018066
0.243649
-0.157099
0.122484
-0.299775
0.264475
-0.161419
0.125978
0.0354413
-0.0854599
-0.167009
0.231862
0.248155
-0.480017
-0.20316
0.492438
-0.291349
-0.201089
-0.487434
0.327786
0.159648
-0.285485
0.0764307
-0.398805
-0.293709
-0.150434
0.082482
-0.465556
0.202079
0.289601
0.0151736
-0.400019
0.294338
-0.462639
0.0571069
-0.368612
-0.221693
-0.107732
-0.326368
0.224594
0.101774
-0.131409
-0.0339277
0.165336
0.127108
0.0470039
-0.12492
-0.248608
0.373528
0.275372
-0.457098
-0.288056
-0.141776
-0.0161246
-0.0776426
-0.157786
0.101385
0.0861864
-0.27141
0.185224
0.123495
0.183462
-0.306957
-0.314199
0.425851
-0.111652
-0.0366691
-0.344132
0.16628
-0.0676033
-0.0986769
0.0940228
-0.141251
0.0472286
0.260753
-0.385673
-0.0682123
0.122177
-0.459862
-0.287172
-0.10839
0.246704
0.0390014
0.04179
-0.411678
0.261625
-0.0352407
-0.185622
0.271808
0.148944
-0.502296
0.0970551
0.0675812
-0.287468
0.448505
-0.161036
0.486627
0.100966
-0.262137
-0.328956
0.507527
-0.00168527
-0.0886086
-0.149701
-0.0319481
-0.348883
-0.0515354
0.450847
-0.399312
0.169251
-0.17729
0.136789
0.200352
0.26585
0.096788
0.219732
0.331764
-0.220629
0.419908
-0.224486
-0.195422
0.131138
0.275615
-0.406753
0.397463
-0.266325
0.296313
-0.192125
0.18297
-0.280306
0.462421
-0.307023
-0.155398
-0.349187
-0.165874
0.154276
-0.053877
0.415966
-0.121325
-0.287978
0.306044
-0.0816919
-0.333415
0.017276
-0.191788
-0.14817
0.423542
0.018697
-0.296123
0.277426
-0.309305
0.0923054
-0.264197
0.155663
0.108534
-0.254862
0.314072
0.148349
0.00641489
-0.0308994
0.139669
0.237152
-0.0191063
0.0216205
0.526702
-0.254881
-0.27182
0.436516
-0.161224
-0.275292
-0.309354
-0.0191677
0.328522
0.0661298
0.0826423
0.178983
-0.100734
0.338548
-0.466146
-0.39122
0.124144
0.24498
-0.387189
0.142209
-0.37578
0.186016
0.189764
-0.42481
-0.00725209
-0.0555715
0.0628236
-0.132788
-0.223929
0.356716
0.0752118
-0.17058
-0.123078
0.392079
0.17922
-0.35444
0.17522
0.429528
-0.460263
-0.159517
-0.19979
0.359308
-0.328016
0.168499
-0.166941
-0.0565791
0.211314
-0.165655
-0.077111
0.293009
-0.0737978
-0.123663
-0.204063
-0.399492
0.173709
0.262806
0.217841
-0.331504
0.113662
-0.348485
0.46261
-0.114125
0.508038
-0.247261
-0.260777
0.193715
0.138983
-0.00117336
-0.102931
0.12497
-0.424573
0.139629
-0.022022
-0.117607
0.106005
0.187932
-0.00949387
-0.409023
0.418517
0.185036
-0.329539
0.478483
0.256395
0.15957
0.222028
-0.113445
-0.0310558
-0.264537
0.348646
-0.287365
-0.0760973
-0.134755
-0.0360833
0.136157
-0.100074
0.270593
0.142297
0.442996
-0.453527
0.0105314
-0.491274
0.33489
0.156384
0.16224
0.203489
0.216419
0.150126
0.255109
-0.0388054
0.0805573
0.336609
-0.478483
-0.106773
0.326509
-0.164108
0.455177
-0.390028
-0.00328323
0.0903227
-0.419862
-0.212785
0.146989
0.0657965
0.522974
-0.221464
-0.301511
-0.297151
0.483475
0.441767
-0.168148
-0.273619
-0.0028859
0.453733
-0.0446632
-0.493262
0.278726
0.298009
0.164759
0.207373
0.116977
-0.32435
-0.4239
0.282123
-0.25418
0.240346
0.0138339
0.450611
-0.357133
-0.0934784
-0.429327
0.274195
0.155132
-0.0301122
0.203688
-0.14188
-0.287447
0.0368329
0.0678522
0.27731
0.00611812
-0.283429
-0.0898151
-0.134999
-0.441949
0.144724
0.297225
-0.0420573
-0.0735414
0.115599
0.340213
-0.421751
0.0815372
-0.0184704
0.224818
0.445278
-0.241789
-0.133629
-0.166226
-0.208157
0.374383
0.204806
0.516623
-0.27637
0.458988
-0.144916
-0.127274
0.317624
-0.190349
-0.370792
0.10774
0.263052
-0.385198
0.252267
0.132931
-0.2782
-0.106998
0.082433
0.0741119
-0.161145
0.376892
-0.0183175
0.0213125
-0.00299492
0.309266
0.215714
0.117976
0.332635
0.468906
0.198177
-0.191101
0.0557514
0.135349
0.218671
-0.384897
-0.327866
-0.0907112
0.416578
0.281891
0.249416
0.321633
0.137355
0.0979261
0.204675
-0.302601
0.415473
0.0199585
-0.435431
-0.093393
0.326391
-0.215504
-0.110887
0.289217
-0.474197
-0.150411
0.371697
-0.221286
0.0766603
0.00265611
-0.0366453
-0.168294
-0.231477
0.399771
0.391765
-0.486542
-0.138695
-0.0385947
0.00929853
0.0111267
0.258077
0.11228
0.167197
-0.279477
-0.168615
-0.318223
-0.0419059
0.117118
0.270908
0.00773753
-0.0908814
-0.20867
0.211867
0.233411
-0.235219
-0.260038
0.197762
-0.14702
0.269321
0.133601
-0.402921
-0.0836182
0.310345
-0.164928
0.277208
0.212928
0.310046
0.291483
0.0426852
0.300877
-0.433182
0.157352
0.27583
0.238199
-0.257911
0.0197125
-0.0249758
-0.0289256
-0.353602
-0.0901175
-0.24887
0.314041
-0.0651706
-0.049806
-0.242869
0.4964
-0.253531
0.173782
0.272496
-0.446278
-0.196223
0.476113
-0.27989
-0.299149
0.444074
-0.0932632
-0.184562
0.128561
0.0560013
-0.13732
-0.162528
0.269452
-0.106924
-0.157019
0.20514
-0.0481214
0.218012
-0.463334
0.188172
0.275162
0.346188
-0.166968
0.482259
-0.250764
-0.231495
0.0984999
-0.427195
-0.300612
0.0517418
0.273754
0.375202
-0.194245
-0.053908
0.168803
0.073744
0.216438
0.126282
-0.34272
0.0474204
-0.268521
0.221101
-0.246935
0.00605602
-0.255681
0.180685
0.0749958
0.222884
-0.025122
-0.136019
0.0225739
-0.503928
0.249046
0.164804
-0.456953
0.292149
-0.20457
-0.21623
0.270873
0.0373892
0.437576
-0.355256
-0.0823197
-0.340847
0.383532
-0.330927
-0.0781998
0.409127
-0.431073
0.218376
0.212698
0.223749
0.12567
0.280051
0.199108
-0.0823513
-0.116756
-0.300485
0.367335
0.00515439
-0.0158544
0.0107
0.16857
0.273198
-0.139869
-0.322597
0.103734
0.218863
-0.156412
0.0325399
-0.398797
0.389303
-0.017065
0.454641
-0.192032
-0.282079
-0.267736
0.105207
-0.269354
-0.181051
0.450405
0.228043
0.264395
0.441563
-0.272994
0.235313
-0.0895341
-0.361852
0.23054
-0.141358
-0.288955
0.430313
-0.200803
-0.0762182
-0.324137
0.286943
0.275352
0.165287
-0.414802
0.249515
-0.376676
0.0233611
-0.18038
-0.0245097
0.0061922
0.268596
-0.432748
0.164153
-0.469603
0.155
0.314603
0.0327761
-0.361732
-0.13154
-0.249972
0.381512
-0.147906
0.425837
-0.277932
0.319699
-0.108792
-0.309636
0.446069
-0.136432
-0.148392
0.333345
-0.184953
-0.256634
0.0838995
0.46876
-0.167018
-0.301742
0.498585
0.222693
-0.0148016
-0.281322
0.0663061
0.13547
-0.339957
0.0408078
-0.234718
0.331722
-0.0970043
-0.286249
0.392452
-0.106202
0.118937
0.0801704
0.0845175
-0.104485
0.436679
-0.168083
-0.25461
0.413934
-0.0108691
-0.116627
0.127496
-0.170505
-0.0594619
-0.36994
0.00955247
0.409137
-0.150138
-0.258999
-0.0125723
-0.469561
0.452652
-0.285255
-0.167397
-0.261178
-0.276191
0.0529796
-0.315209
0.26223
0.323949
-0.540044
-0.444068
0.113141
0.169828
0.345312
0.10734
0.48772
-0.176844
-0.310876
-0.505618
0.284154
0.357304
-0.112324
0.156778
0.24906
-0.405839
-0.0139519
-0.370242
-0.123816
0.171811
0.296949
-0.265892