/*--------------------------------*- C++ -*----------------------------------*\
| =========                 |                                                 |
| \\      /  F ield         | OpenFOAM: The Open Source CFD Toolbox           |
|  \\    /   O peration     | Version:  v2012                                 |
|   \\  /    A nd           | Website:  www.openfoam.com                      |
|    \\/     M anipulation  |                                                 |
\*---------------------------------------------------------------------------*/
FoamFile
{
    version     2.0;
    format      ascii;
    class       volScalarField;
    location    "50";
    object      ddt0(epsilon);
}
// * * * * * * * * * * * * * * * * * * * * * * * * * * * * * * * * * * * * * //

dimensions      [0 2 -4 0 0 0 0];


internalField   nonuniform List<scalar> 
33474
(
-3.59239e-10
2.44113e-08
1.4866e-08
1.63723e-10
1.66184e-10
1.62208e-10
-1.16628e-08
3.95256e-10
-2.37947e-08
-0.000167894
7.11155e-11
6.00791e-10
-1.22516e-08
1.25366e-10
-1.94148e-10
-2.57074e-08
-2.36237e-08
-1.33801e-08
-4.23272e-11
3.62509e-11
1.35668e-09
7.3842e-05
2.13581e-10
-3.44531e-10
1.83791e-10
-2.2869e-10
-9.99276e-09
2.34517e-09
0.000104103
-2.5255e-08
-2.02626e-08
-1.49752e-09
-1.19607e-08
-1.32403e-08
-2.73225e-08
-3.52215e-10
-0.00124953
-2.44328e-08
-2.82759e-10
2.88173e-10
6.52209e-11
-2.62801e-08
-1.86503e-08
-1.46019e-08
6.04131e-05
-9.42495e-06
3.35464e-08
5.0838e-10
-2.79045e-06
-2.66184e-08
-7.62449e-11
1.03285e-09
-1.14774e-08
-1.34999e-08
4.62862e-10
2.36969e-09
5.02447e-10
5.69273e-09
2.33936e-10
-7.15303e-11
1.45015e-10
1.93988e-07
-0.00100717
-2.59666e-08
-2.55158e-08
-1.20717e-10
-2.58075e-08
-0.00180594
-1.04444e-09
-2.72043e-10
1.45969e-07
2.33242e-07
-3.13331e-08
-2.80058e-08
0.000636011
-1.84227e-08
0.000161979
-3.28616e-10
3.09179e-10
-3.5976e-09
-0.000829814
-7.63066e-11
0.000146979
-2.79064e-08
7.29481e-10
-2.41801e-08
1.5401e-09
-0.000761086
4.83004e-05
-1.4269e-08
2.97184e-10
-2.19941e-08
-1.09027e-08
6.49303e-11
-1.24552e-08
6.57777e-10
8.70268e-10
-2.94135e-10
-5.66201e-09
-2.46203e-08
1.42355e-09
8.59556e-05
1.99335e-11
1.21744e-06
-1.61901e-08
-2.53837e-08
4.81486e-11
1.46971e-10
-7.11732e-09
-2.99961e-08
-4.50056e-10
-2.67705e-08
5.9776e-09
-1.61735e-10
8.72714e-10
5.80195e-10
5.17799e-11
1.5157e-08
1.85147e-09
-1.15845e-08
-3.56786e-09
2.9423e-08
-2.33542e-10
-2.83176e-08
5.73724e-10
-1.48295e-10
-3.50867e-09
5.99228e-09
1.64518e-08
2.96656e-10
-2.42567e-08
-2.48526e-10
-1.61209e-08
-0.00135727
-1.15432e-10
-2.87945e-08
-1.61385e-06
-0.00248197
4.8981e-05
1.50336e-08
-1.15043e-10
-2.76268e-08
-2.08252e-08
3.7081e-11
-6.45817e-12
-8.2689e-11
-0.00215139
-1.44851e-08
-4.06705e-08
1.83923e-08
-3.22269e-08
1.68938e-10
1.83666e-09
-1.08869e-09
5.5446e-10
1.8081e-10
8.87161e-11
7.22268e-10
2.93144e-10
-3.16536e-08
1.03465e-09
-2.7726e-08
8.48462e-09
-0.000694786
3.63289e-10
-9.90621e-07
-1.43465e-08
-1.39837e-05
-2.03752e-10
4.09306e-10
4.93328e-09
-2.09143e-08
2.47772e-05
-2.98073e-08
6.94414e-10
0.000210098
-1.15333e-10
5.23224e-08
7.31911e-05
-2.45594e-08
-2.43783e-08
-1.98357e-10
-2.5352e-08
1.88637e-09
-8.60774e-11
-0.000809829
0.000711871
4.20063e-10
2.06457e-10
3.51343e-10
1.07675e-10
-1.33376e-10
1.85203e-08
-1.84637e-08
7.47229e-05
1.62882e-11
-0.000292474
1.08013e-08
8.35005e-08
-2.37161e-08
2.74246e-10
3.78332e-10
1.24299e-06
-1.6857e-08
7.53484e-10
-1.13369e-08
-1.55126e-08
1.24343e-09
-5.30461e-11
-0.00063622
1.24457e-06
-2.28854e-08
-4.38919e-09
4.61901e-10
-2.3205e-08
3.77118e-09
-1.01184e-10
8.74627e-05
-0.000710365
7.42382e-11
2.73012e-10
5.90387e-10
-1.14723e-10
9.41412e-10
-2.24694e-08
5.24497e-10
-1.54277e-08
-3.03009e-09
-1.46634e-08
5.31878e-10
-0.000953316
-7.39248e-09
-1.32643e-08
-1.08607e-08
-1.90572e-08
-0.00139609
3.92399e-10
6.5533e-10
-1.32928e-08
1.5346e-10
1.86221e-10
1.54728e-09
-1.90412e-08
-4.34891e-09
5.99045e-10
-2.49435e-08
1.06856e-10
2.80203e-10
-2.28874e-09
-3.23432e-09
5.21299e-10
3.98715e-10
8.81593e-10
-1.18807e-08
1.10457e-10
-1.78269e-08
-0.000745693
-1.12914e-08
1.72636e-09
-0.000259643
1.46992e-07
-1.97396e-08
6.93256e-11
-0.000842759
2.95893e-09
-1.91928e-08
6.69578e-05
-2.50858e-08
-2.58921e-08
-2.55843e-10
-6.54211e-09
2.1074e-10
4.05244e-10
2.5837e-10
-1.95462e-08
-1.46444e-10
1.18696e-10
2.8067e-09
5.35825e-10
1.30176e-10
6.766e-11
-2.50064e-08
1.34466e-10
2.07155e-10
-2.05986e-08
-3.23274e-10
-1.27705e-08
-1.21247e-08
7.75498e-10
3.6233e-06
-0.000316262
-2.81904e-08
-0.00147598
-6.1012e-09
-5.27155e-11
1.11935e-06
0.000215621
7.72434e-10
-3.90843e-10
1.3084e-10
1.16188e-10
-2.76135e-08
-0.000141749
3.2568e-09
-2.75976e-08
-2.43457e-08
-2.66335e-08
7.38671e-10
1.12313e-08
0.000334168
2.67557e-10
-4.47808e-10
-1.33601e-08
-1.44938e-05
4.19706e-05
0.000677205
0.000342722
7.88078e-10
2.08477e-10
-9.42589e-05
-1.65064e-08
-5.50688e-09
-0.00131125
-2.42753e-08
-1.23194e-10
-1.63763e-10
0.000188374
-1.84879e-10
1.29332e-10
-3.16791e-08
2.38791e-10
-3.05178e-09
7.9462e-10
3.98703e-07
-3.15654e-08
5.2263e-11
5.09061e-05
-2.47257e-08
-2.41652e-08
-2.079e-08
-8.90788e-12
1.03322e-08
6.27377e-07
2.22295e-08
5.14515e-09
-2.60417e-08
-3.67855e-10
-4.77772e-10
-1.3732e-08
6.6513e-10
-1.21529e-11
-2.47221e-08
3.66045e-10
9.37754e-10
-5.3367e-12
-2.3599e-08
-1.17083e-10
-1.34504e-08
-2.3954e-08
-8.40894e-06
3.44706e-10
-4.36568e-06
1.3153e-10
-2.98e-10
2.54949e-11
-3.25651e-09
-1.14314e-08
1.6226e-09
3.6063e-10
2.93477e-07
-2.47003e-08
-2.52644e-08
1.1783e-09
4.27179e-08
3.5376e-10
1.00259e-09
-3.0354e-10
1.25291e-10
-1.57894e-10
0.000102445
-2.69225e-08
-1.78533e-08
3.23264e-10
-5.31595e-11
2.65556e-09
-2.01716e-08
-6.02868e-10
3.60791e-11
9.57117e-10
-9.23784e-11
5.04893e-10
-1.67319e-06
-2.71192e-08
-2.70454e-08
-2.01497e-10
4.32276e-10
-2.89549e-10
-3.03973e-09
-1.47534e-08
-6.02899e-10
1.43818e-10
-2.53946e-09
-2.42114e-08
6.19073e-11
-1.69601e-08
-2.01977e-08
1.1408e-08
0.000174046
-0.00104023
-2.76921e-08
8.90009e-11
6.95101e-10
-1.08283e-10
-4.76709e-10
1.38907e-10
-2.65566e-08
-0.00016992
-3.01767e-08
-2.57029e-08
8.77863e-10
-2.72437e-08
1.05276e-10
2.01453e-11
-3.12985e-08
2.51986e-10
-9.92988e-11
-2.13667e-08
-4.18725e-09
2.22319e-10
-1.80369e-09
-3.25681e-09
0.00114012
7.79004e-10
-2.10027e-08
-3.11565e-10
2.62926e-09
1.80219e-10
-1.35182e-08
-1.35136e-08
-2.38764e-08
-2.48612e-08
-1.41221e-07
-1.02934e-09
2.3956e-09
-2.37734e-08
-1.6844e-10
-1.89134e-08
4.48081e-10
-3.23192e-10
-2.14534e-08
-0.00133197
2.33014e-09
-2.00149e-08
2.31315e-10
7.21397e-07
-2.12915e-08
1.32189e-07
9.16005e-08
1.24797e-10
-2.62883e-08
-2.53362e-09
-6.69968e-10
4.33675e-11
6.05149e-10
2.4282e-07
4.17596e-10
-2.62126e-08
5.25386e-11
2.00384e-09
1.0577e-10
-0.00143877
-1.98033e-08
1.07295e-10
8.37069e-11
-1.12852e-08
5.49609e-10
-1.5157e-08
-2.45942e-08
0.000191335
2.55569e-09
2.51577e-08
2.84561e-07
2.58212e-07
-4.4437e-11
1.67108e-09
-4.02753e-09
5.01382e-05
-3.51799e-10
5.48282e-09
-1.84514e-08
2.24285e-07
2.53754e-07
2.34356e-10
-0.00101254
-2.19325e-08
1.13347e-10
-2.71e-08
-2.3496e-08
2.62512e-10
-2.21829e-08
-3.81298e-10
2.30059e-09
-3.97409e-09
0.00024153
-1.67717e-09
-1.06228e-09
2.20606e-10
0.000301722
1.23779e-05
2.68998e-09
-9.03297e-11
-3.58743e-10
1.70773e-10
2.96269e-09
-2.96135e-08
4.79857e-10
-4.27901e-10
-3.22921e-09
5.1324e-11
0.000281965
2.42346e-09
2.84343e-10
-1.45786e-08
-1.84132e-08
2.64808e-09
-5.53557e-11
-1.79012e-08
-2.22373e-08
0.000192601
-2.68677e-10
-2.76119e-10
-1.56699e-08
2.39366e-11
-3.00984e-10
-5.85048e-08
2.55165e-05
-4.02768e-09
-1.85633e-08
2.39612e-09
-2.13658e-10
-2.32465e-08
7.83514e-06
2.2346e-10
-2.30023e-10
-2.73995e-08
1.8666e-11
1.29742e-10
0.000327906
-2.94924e-11
-2.12072e-08
6.00281e-06
1.05329e-09
-2.35232e-08
-2.3859e-08
0.000344245
-0.000919448
-2.431e-08
2.45785e-09
7.07846e-11
-1.3196e-10
-9.66021e-08
4.64078e-11
1.52969e-11
-1.60553e-08
-3.507e-11
-2.32121e-09
-3.73446e-09
0.0001197
-2.89915e-08
-3.16974e-08
-4.2316e-09
-3.6642e-09
-4.74929e-10
3.46582e-09
1.19054e-10
-2.73643e-10
3.79366e-10
-4.17882e-10
4.03098e-10
1.05247e-06
-3.22174e-09
-2.01006e-08
5.84949e-11
-5.07026e-11
-0.00211698
0.000230738
-3.0057e-10
-1.38895e-08
8.26618e-10
1.22471e-10
4.25146e-09
-2.51248e-08
-1.71453e-08
-2.62816e-08
3.93522e-10
-1.24075e-10
-2.52703e-08
1.03822e-08
-3.10693e-08
-1.38955e-10
1.92091e-10
-1.22386e-09
2.77414e-10
4.13919e-10
2.30888e-06
-0.000419691
3.62403e-10
-2.50228e-08
-3.88524e-10
-2.42755e-08
-2.95706e-10
-2.6063e-08
3.09376e-07
-2.67774e-08
0.00033435
-2.56415e-08
5.07734e-10
2.03795e-10
-2.26596e-08
-1.83569e-08
-2.41988e-08
-7.62326e-11
-2.98562e-08
-2.47689e-08
1.68153e-09
-1.86025e-08
-3.29226e-11
-2.44968e-08
-0.00204122
-1.61656e-10
-2.94913e-10
-8.18836e-11
-2.37721e-10
5.35874e-06
0.000204374
1.45766e-08
-1.59523e-08
2.80835e-10
-1.74042e-09
-0.00130447
-2.13685e-08
1.56065e-09
-2.13232e-08
-2.94207e-08
4.597e-10
-2.93915e-08
-3.08844e-08
2.60826e-10
-2.07804e-07
-3.09551e-10
6.11916e-05
-0.00157018
0.000381511
-3.02767e-08
9.60291e-10
-1.67643e-08
-1.87638e-08
-1.87435e-08
0.000135705
7.17337e-13
4.14167e-05
0.000956863
1.01498e-09
-3.80425e-09
-2.17952e-08
-2.0144e-08
-2.05122e-08
3.73899e-11
-1.84208e-08
0.00151119
-2.00236e-08
-2.35519e-08
2.62601e-10
4.04196e-10
-3.07358e-08
-3.22627e-08
-0.000722755
-3.21692e-08
-3.34806e-10
7.1208e-12
-0.000926432
0.00154951
5.65994e-07
8.71987e-06
-2.70208e-08
1.59685e-08
-1.81145e-08
-3.22766e-08
-2.59889e-08
-1.12227e-10
7.50865e-06
-2.98882e-08
-5.39979e-11
1.20459e-10
4.5367e-10
0.000316523
-3.44128e-10
0.000101018
-1.39205e-07
3.71735e-10
3.10287e-09
2.04004e-06
3.39603e-11
-2.28122e-08
-1.27399e-08
-1.44225e-08
-2.07804e-08
-1.59885e-08
1.0896e-06
6.46144e-10
6.9799e-06
7.06039e-08
-0.00181139
-2.50256e-10
3.37652e-09
4.0472e-09
2.68428e-06
-2.64198e-08
-7.54727e-11
-1.20488e-08
-0.00167525
6.50148e-06
-2.15389e-08
-6.2511e-10
-3.41755e-08
-2.31579e-08
-3.81567e-09
-4.65623e-09
5.88149e-10
-1.65644e-08
-1.88497e-09
-1.02365e-08
3.52879e-10
-1.84168e-08
3.16949e-10
2.09809e-09
9.16416e-05
-2.55495e-08
-2.1803e-08
2.45548e-05
-4.13672e-10
4.30518e-08
1.85218e-11
6.68812e-08
-8.25273e-09
-8.23198e-10
-2.57027e-08
4.40657e-11
-4.11815e-08
0.000153573
-2.31922e-08
-2.45039e-08
-9.05815e-06
-2.00721e-08
-1.96227e-08
-1.61862e-06
-1.4801e-08
4.3932e-09
-2.13703e-08
1.39936e-09
0.000167961
-1.86916e-11
-4.37753e-09
-2.01265e-08
-2.25635e-08
4.41025e-10
0.00029871
1.93677e-11
-0.000107813
-8.40182e-09
4.02949e-11
-4.79645e-10
-0.000134235
6.44471e-10
-1.88066e-08
-1.73012e-08
-2.2575e-08
7.72411e-10
-2.37549e-08
-2.29567e-10
-2.25964e-08
-2.26882e-08
3.26649e-10
0.000182215
1.03111e-10
0.000179862
-2.45541e-08
2.3572e-10
-1.01133e-08
-2.0357e-08
5.83316e-11
6.25487e-10
7.43757e-07
1.18655e-09
1.1858e-10
-2.17717e-08
-1.10008e-08
-2.9499e-08
-6.6591e-11
-0.00187725
3.93966e-10
2.48059e-09
1.83702e-05
-1.98584e-08
4.01034e-10
-2.73332e-08
-1.80073e-08
-2.29158e-08
1.5266e-10
6.35274e-09
-6.9262e-08
-1.06056e-12
-2.77344e-08
3.13773e-06
0.000345943
-5.78266e-10
-8.37291e-08
-2.40611e-08
-1.94929e-08
-2.24727e-08
-1.96131e-08
-2.00978e-08
-2.95985e-08
3.00271e-10
-2.93486e-08
1.62362e-10
3.85175e-05
4.95108e-10
-2.36037e-08
-1.88952e-08
-2.68259e-08
-2.13302e-08
3.88238e-08
3.09982e-10
-2.37853e-08
-2.55525e-10
-1.82227e-08
0.000123275
-3.98922e-10
7.61058e-05
-3.44798e-10
-2.14575e-08
1.42704e-10
-3.3731e-10
-4.86113e-09
3.59825e-09
1.79774e-05
-1.06183e-10
0.000137181
3.18681e-10
-1.70628e-08
-2.84336e-08
1.21099e-09
-2.39613e-08
2.07942e-09
-2.10814e-08
-0.00169698
3.7063e-10
7.48791e-10
-1.56599e-08
1.93436e-07
2.34464e-10
-1.6511e-11
-1.29623e-10
2.11546e-10
-4.5995e-10
-9.9883e-10
-2.96672e-08
4.78928e-10
1.68875e-05
4.68313e-10
3.26311e-09
1.44186e-10
-1.75574e-08
-9.29436e-05
-2.68191e-08
-4.68173e-10
2.41731e-10
1.58921e-10
1.12152e-10
-2.77876e-08
5.59003e-10
-3.13966e-10
7.17208e-09
1.20435e-07
3.03813e-10
6.38963e-10
3.29053e-10
-1.86336e-08
-2.62617e-08
-3.14278e-09
2.52849e-08
-2.50135e-08
9.34823e-10
-5.45733e-11
0.000112644
1.72202e-05
1.50602e-05
-4.08683e-10
-1.07925e-09
-6.5374e-09
-1.29036e-09
-2.21223e-10
-2.28882e-08
-2.83965e-08
1.50772e-10
0.000125648
-4.58723e-10
4.9759e-11
1.83887e-10
3.34999e-10
-2.57663e-08
-2.66786e-08
-2.51508e-08
-2.58109e-08
-1.18861e-08
5.30367e-07
1.57699e-11
4.44878e-09
-2.44205e-08
1.21004e-05
-2.10813e-08
0.000141456
-2.40779e-08
-2.46854e-08
6.82755e-09
-2.73996e-07
-2.39356e-10
4.26756e-11
-2.08268e-10
-1.79563e-08
-3.63335e-10
-2.25028e-08
-5.29962e-10
-3.17401e-10
-2.23698e-08
-5.99716e-09
-3.035e-08
7.91426e-05
-2.67428e-08
1.68883e-10
5.27354e-10
9.33522e-10
0.000102699
0.000127889
-0.00168981
-4.40598e-06
-1.92469e-08
0.000192098
-7.71595e-09
-1.75662e-08
0.000170045
-8.09404e-09
-1.45675e-08
1.37722e-10
5.63978e-11
-2.16102e-08
2.37332e-10
4.11686e-12
1.43732e-10
9.03753e-11
2.36035e-07
1.84722e-09
-1.99799e-08
-2.76272e-10
1.54293e-10
3.12577e-09
-2.19235e-08
4.76678e-10
-1.94469e-08
1.2499e-07
-3.10902e-08
8.39966e-11
-0.000330516
-1.24406e-06
-3.05666e-08
5.70828e-10
-1.4636e-08
2.10853e-11
2.61805e-10
6.87805e-12
-3.03224e-10
-4.95957e-09
2.92421e-11
-3.63873e-10
-4.6774e-09
8.20551e-11
-1.07586e-10
-1.55431e-08
2.11436e-09
-9.555e-11
-2.03615e-08
2.79927e-10
1.17652e-09
-1.29155e-10
-2.63657e-08
4.15014e-10
4.93087e-10
-8.50604e-11
2.54885e-10
-2.78812e-08
-1.86333e-08
1.00393e-07
-4.09277e-10
-2.98345e-08
-1.21737e-08
0.000192565
-1.96527e-08
-2.12601e-08
6.10062e-10
1.73466e-05
-1.19573e-09
3.84559e-11
-2.34822e-08
-1.46699e-07
-1.49414e-09
2.55006e-10
4.30866e-10
5.83216e-07
-2.25066e-08
4.7685e-11
1.3724e-09
-9.71223e-11
-2.29327e-08
-1.70925e-06
-1.89708e-08
5.91466e-11
-2.33951e-08
-2.16499e-08
-2.05721e-08
1.4962e-10
-2.39122e-08
-1.76216e-07
-1.03844e-10
-1.01669e-08
-2.80481e-08
-1.05089e-10
7.67392e-06
-1.0716e-08
-1.85268e-08
-2.0835e-08
1.92379e-11
1.66116e-10
-3.37402e-10
2.68851e-07
3.75528e-11
-3.74432e-10
-1.89433e-10
-2.60787e-08
-1.95412e-08
-2.55246e-08
-5.77966e-10
-2.04733e-08
1.73017e-11
-2.1044e-10
-2.5519e-08
2.93849e-09
-2.37205e-08
-2.34639e-11
2.44812e-10
3.6615e-09
-2.56072e-08
-8.11814e-09
1.59651e-09
-1.1471e-08
-2.30658e-08
3.74198e-10
1.06229e-10
-2.566e-10
4.62513e-10
1.31395e-10
-2.06662e-08
-7.08589e-10
1.02326e-10
-8.38578e-11
1.97429e-09
-2.68245e-08
-0.00133671
-1.18381e-08
5.10083e-10
-0.00137216
-2.35483e-08
-1.54991e-08
2.29163e-10
-2.67622e-10
-1.62575e-10
4.7307e-10
1.80973e-08
0.000151545
4.94979e-10
1.31718e-09
2.31547e-10
-1.81903e-10
8.9612e-10
2.72967e-05
-1.86988e-08
-6.27514e-10
1.74715e-09
-1.06866e-09
-1.7725e-08
-1.9336e-08
4.46069e-09
2.25595e-10
4.66497e-10
2.94929e-05
-7.31617e-10
-2.11686e-08
-1.95922e-08
-2.22102e-08
-0.00121268
6.86182e-06
1.86722e-06
-1.81708e-08
-3.23125e-10
1.6326e-10
-6.49858e-09
-2.401e-08
3.02629e-10
-1.88155e-08
9.84785e-06
1.60691e-10
-6.34574e-11
1.39148e-06
1.24147e-09
1.51807e-09
2.40176e-10
-2.92411e-10
0.000321267
-0.000118734
6.03817e-09
-2.35598e-08
-2.69539e-08
-6.04631e-09
-2.0121e-08
1.88603e-10
3.9337e-10
3.63998e-10
-3.71898e-09
-5.33291e-09
4.43505e-07
2.65221e-10
8.08578e-10
-8.3062e-10
3.05888e-09
-2.40565e-08
1.15129e-05
-5.8557e-12
-3.55409e-10
2.99753e-10
-1.17658e-10
-1.03527e-07
-2.28937e-08
-2.38916e-10
1.94594e-08
-8.38154e-10
-0.00123786
1.5074e-10
-3.60953e-10
-2.59854e-08
2.24124e-09
3.73441e-08
-3.4528e-10
-1.88147e-08
2.47729e-10
-1.37395e-10
2.6124e-10
-0.000534875
1.82967e-10
-3.9654e-10
-2.51813e-08
4.90079e-10
8.71275e-10
4.09391e-10
-1.62092e-08
-1.45721e-08
-2.81335e-10
-7.04384e-10
4.32969e-10
4.41983e-06
-2.39343e-08
8.07267e-12
1.36401e-06
-2.3173e-08
-2.32057e-08
-2.77378e-10
7.28302e-05
-1.27855e-10
-5.99531e-10
2.24475e-09
8.47418e-11
3.19708e-08
-5.61465e-09
1.34845e-10
-2.11127e-08
0.000568192
-4.91875e-05
-2.59074e-08
5.39898e-10
-2.21064e-08
8.26475e-10
-2.30828e-08
-1.19639e-08
7.90109e-10
-0.000797494
-8.45955e-11
-2.8301e-11
-5.1728e-11
-2.04762e-08
-2.24937e-08
4.03631e-09
-5.01639e-09
3.78793e-06
2.55761e-10
-4.38184e-10
-4.20378e-10
-4.8159e-06
-1.10291e-08
-0.000182436
-1.72987e-08
3.92896e-11
1.44566e-10
2.56428e-05
4.23156e-08
0.000335024
7.38081e-10
-3.60267e-08
-1.31578e-08
-4.98043e-10
-1.5377e-07
-2.32341e-08
-1.69839e-08
2.94097e-10
5.11102e-10
2.95775e-10
-0.00182649
4.09558e-10
-8.58599e-08
1.03693e-10
-2.7257e-08
2.10188e-05
-2.00605e-08
1.60963e-09
-1.82104e-10
-2.16116e-08
2.2506e-10
-4.97839e-11
-2.23105e-08
2.47341e-05
-1.44613e-09
-2.21957e-08
-0.000133844
4.76223e-10
-2.24112e-08
-0.000124367
4.88167e-10
-2.24606e-12
2.51746e-10
-2.22002e-08
1.9719e-09
-2.27423e-05
-5.41332e-09
5.46652e-10
-1.79425e-08
5.43322e-10
-2.08729e-08
-2.39828e-08
-1.96995e-08
-2.63471e-11
1.36557e-10
7.04494e-08
8.34548e-07
6.03081e-10
-2.6749e-09
0.000458574
-2.23323e-08
-3.62269e-08
7.72193e-11
-1.58904e-10
3.19844e-12
-2.70307e-08
-1.38115e-10
-2.32747e-08
1.69961e-11
-1.90857e-08
-2.18906e-08
1.78367e-10
-3.33894e-10
-1.967e-08
-1.92884e-08
0.000578187
1.36758e-05
1.0286e-06
-1.31419e-08
5.43476e-11
-2.22926e-08
-1.88418e-08
-2.30286e-08
4.7206e-09
-1.5104e-08
-2.33802e-08
3.86638e-06
6.52225e-10
-2.32864e-08
8.58158e-11
-1.3524e-08
-2.94324e-09
-2.16783e-08
-2.34605e-08
-2.6267e-08
-4.47936e-08
2.76139e-05
-1.83943e-08
0.000293491
-2.03285e-08
-7.22789e-09
0.000271873
1.64851e-06
-3.56571e-10
-2.90183e-09
-3.02107e-08
8.21972e-11
1.40197e-05
3.7449e-09
-2.83386e-10
1.56329e-08
-9.73865e-10
5.46822e-09
-2.05709e-08
7.23526e-07
-9.40848e-09
-2.62667e-10
-2.34528e-08
-4.50172e-10
1.11544e-10
8.85468e-10
-4.41837e-09
-2.07235e-08
-2.04173e-10
2.5845e-10
-2.26661e-08
8.84871e-09
-2.0533e-08
-1.94494e-08
-7.43019e-09
1.55156e-11
-2.8989e-08
-0.000285578
3.50965e-10
6.302e-10
7.45771e-08
-2.04011e-08
-1.92409e-08
-0.000239332
-1.91988e-08
-9.47189e-09
3.78724e-09
-1.95569e-08
-8.4064e-10
5.66321e-11
-1.92903e-09
-2.28584e-08
1.06612e-11
3.32866e-10
0.000401088
1.52698e-10
1.74127e-10
-2.5094e-08
2.46917e-07
0.000334413
-2.14237e-08
8.89212e-11
4.85687e-06
0.00117891
-2.802e-08
4.89843e-11
8.43429e-11
-1.85403e-08
-2.32569e-10
-2.63442e-08
-3.5844e-11
-0.000917719
-9.92592e-08
6.671e-09
-6.68666e-10
-1.9955e-08
1.61923e-10
-1.7782e-10
-2.35321e-08
4.82131e-10
6.55873e-10
0.000165541
-3.47493e-10
-1.51023e-08
-1.09248e-05
-4.2024e-07
-4.75395e-10
-2.21579e-08
-1.65835e-08
2.54188e-08
-1.90841e-08
-5.70474e-11
-0.0030458
-1.88665e-08
-4.32825e-10
8.26433e-10
-2.96433e-08
-2.43169e-08
5.99437e-10
0.000271223
-0.00107044
2.51585e-10
-1.46576e-08
2.43042e-05
3.61071e-10
1.1956e-10
-1.3616e-11
-0.00126972
-1.4803e-08
2.89689e-10
-8.06517e-10
-1.908e-11
-4.45753e-10
6.80828e-09
8.14715e-09
4.7051e-10
-5.14763e-09
-1.80056e-05
-1.28518e-10
-4.41148e-09
6.43262e-11
-2.22859e-08
-2.44436e-10
-2.23764e-08
-0.0033951
-1.19852e-10
-3.05492e-08
1.16406e-10
3.06514e-10
-1.58404e-09
-1.47364e-10
-1.66034e-10
8.09831e-10
-5.78542e-10
9.64819e-09
7.50067e-05
-1.99214e-08
-2.19828e-08
-1.48082e-08
-1.45709e-09
9.60613e-11
5.79862e-10
1.90078e-07
-1.56012e-08
6.67325e-06
-2.92852e-08
-2.16067e-08
3.24281e-10
-7.32121e-10
0.000153982
-1.62165e-08
3.05582e-11
-2.62977e-10
9.32727e-11
4.53739e-09
-3.76223e-09
-2.45018e-08
3.74721e-09
8.66384e-10
-2.23144e-08
-1.5718e-05
1.664e-06
6.65895e-09
-0.00179075
-3.39806e-11
1.92266e-11
6.97211e-06
-0.00103863
1.51527e-10
-2.4196e-08
2.57517e-11
-1.95936e-05
-2.5298e-08
-2.3583e-08
6.88701e-10
-1.85318e-08
-6.93446e-10
-2.33127e-08
-5.81296e-09
7.8095e-11
-1.95932e-08
-2.27928e-08
-1.81953e-08
-2.24225e-08
1.07951e-09
1.3833e-09
-1.98271e-08
1.97185e-07
-2.24894e-10
-2.19227e-08
-2.38408e-05
1.08663e-10
-3.02907e-10
-2.87219e-08
-2.45521e-08
-8.87641e-09
-9.51033e-09
-6.11008e-09
1.87639e-10
-5.15829e-09
-2.32787e-08
-8.22955e-10
-2.10875e-07
2.38019e-10
-2.28988e-08
-1.60888e-08
2.17978e-09
2.59744e-09
-5.33456e-11
-6.40547e-05
2.54313e-10
-7.43884e-10
-1.55534e-08
5.94453e-10
1.21227e-05
3.03712e-10
3.36308e-10
-2.5271e-08
-6.93854e-09
1.24781e-09
-3.62341e-10
4.20129e-10
-1.21286e-10
4.43713e-11
-4.86597e-09
-2.27435e-08
-3.59424e-11
6.23118e-11
-2.00906e-08
3.40094e-10
1.72177e-09
-1.29381e-10
-3.20857e-08
-2.27982e-08
-8.54525e-10
-1.84955e-08
3.96784e-10
-1.47558e-08
9.14232e-10
-2.57335e-08
-4.77831e-09
2.03634e-10
-2.69221e-10
-3.29576e-05
3.23028e-10
8.74659e-09
1.18831e-10
1.57271e-05
1.57532e-09
-5.79073e-09
-4.22519e-10
-2.1084e-08
-9.25264e-10
2.43039e-10
2.30342e-10
3.3708e-08
-1.62285e-08
-8.62994e-11
-1.90567e-08
-5.38712e-10
-3.92416e-08
-2.77487e-10
0.00141568
1.41579e-10
0.000165187
-1.10125e-11
-2.59159e-11
-2.60429e-08
5.98236e-11
1.58063e-10
1.69962e-10
2.09719e-05
-5.02674e-09
-2.57739e-10
-4.09372e-09
-1.61873e-08
-1.09813e-08
-3.26018e-08
-1.33632e-08
-2.93298e-11
-2.05417e-08
-3.75672e-10
-2.25875e-08
-2.57171e-08
-4.70665e-11
0.000301247
2.17906e-05
-8.72518e-05
-2.75916e-08
6.95884e-05
-1.95292e-07
-6.53711e-12
-2.15312e-10
-1.70177e-10
-2.19958e-08
-7.89645e-09
-7.73426e-06
-2.99454e-08
-1.24305e-08
-1.19676e-10
-3.25071e-08
-3.50864e-10
-2.60124e-08
-7.44404e-09
2.5148e-10
2.69682e-10
-7.12949e-09
5.17748e-10
-2.25009e-09
-1.04427e-06
-1.50143e-08
-2.148e-08
0.000233704
2.28167e-10
-2.2171e-08
-1.2859e-08
1.92147e-10
1.58234e-10
-2.34542e-08
7.66169e-11
-2.62881e-08
-5.21085e-09
1.54025e-11
1.8264e-10
-2.64148e-08
2.28065e-05
4.82622e-11
-2.48705e-08
2.071e-10
4.32762e-05
-2.06432e-08
-2.4226e-09
7.41793e-11
2.14296e-05
1.24705e-09
1.75193e-10
5.64445e-10
-2.58062e-08
0.000184593
3.38054e-09
-1.16065e-09
0.00011012
4.2463e-11
-1.79722e-08
-2.33195e-08
-1.28327e-10
-2.58629e-08
-7.90985e-11
-1.35959e-08
3.57614e-06
2.96293e-09
5.01946e-10
5.84738e-09
-4.16306e-10
-3.50651e-08
2.4691e-10
-2.30446e-08
7.60177e-10
-5.24104e-11
6.92777e-09
-7.8886e-10
-1.66533e-08
-1.95347e-10
-2.86058e-08
-4.24783e-10
-1.06981e-08
-2.89837e-09
0.000489911
-2.46334e-08
-2.16202e-08
2.8262e-11
-5.34554e-08
0.000316432
0.000396313
-9.55277e-11
1.45973e-11
-7.46997e-11
-2.3181e-09
-2.02667e-08
-9.32661e-10
-7.37077e-10
-1.28757e-08
-2.96698e-08
0.0011756
2.24882e-10
-1.9545e-09
2.59563e-09
9.90272e-11
-6.6083e-08
2.1013e-10
-3.52925e-10
-4.58585e-10
-1.60644e-08
-1.67712e-08
-1.30983e-08
-2.27938e-06
-2.74039e-05
-1.51717e-07
-5.44259e-10
-1.1512e-09
-2.19556e-08
-2.2218e-08
-6.56193e-09
-1.65383e-08
-1.56835e-08
-2.36497e-08
-1.85224e-10
3.74288e-11
1.36151e-10
-2.47433e-08
-1.5391e-08
2.98704e-10
-5.70233e-08
-4.15175e-10
-1.96721e-08
-1.44012e-08
-3.74346e-08
-3.82575e-09
0.00113029
-1.92244e-08
-1.68233e-10
-7.68284e-12
0.000885372
-1.84857e-08
-7.30358e-09
-4.57049e-10
-1.61883e-08
6.80563e-11
2.20512e-10
2.43555e-10
-2.60451e-08
4.63221e-10
2.32484e-08
-1.52484e-08
-2.68287e-10
3.43271e-10
-5.63467e-11
-1.28176e-08
1.22136e-08
8.66401e-11
-2.99231e-09
7.26951e-05
-2.95437e-08
-7.25186e-09
-2.08438e-08
3.76435e-10
-2.08417e-08
4.65309e-09
-5.53586e-09
2.85672e-10
1.72114e-10
-4.48552e-09
2.33945e-10
-2.134e-08
-1.95214e-08
-1.43036e-08
-2.07374e-07
-2.46497e-08
1.00425e-09
1.08333e-09
-1.71166e-08
7.23109e-11
1.33376e-10
-2.51984e-08
6.36268e-06
4.65649e-10
0.000264849
-3.73581e-08
-2.49324e-08
-2.06817e-10
-1.05226e-10
0.000275171
-3.66713e-10
7.19088e-09
2.42367e-07
-1.75007e-08
-2.72999e-08
-4.68896e-10
0.000163893
-7.6837e-09
-2.77851e-08
-2.31741e-08
-2.42517e-08
-1.96418e-08
1.19116e-09
0.000333955
-2.32854e-08
-2.07519e-10
8.64965e-10
1.43415e-10
-0.000851843
-1.73563e-08
4.65893e-10
9.35748e-06
4.93182e-09
2.35061e-10
3.53006e-09
-2.14533e-08
3.08086e-08
-2.12875e-10
4.62976e-10
3.34281e-08
-2.0043e-08
2.65975e-10
0.00142901
-8.2625e-05
-4.7534e-10
1.0326e-10
9.4436e-10
-2.28996e-08
-2.63799e-08
-2.03455e-08
-2.08386e-08
1.67296e-09
-1.24241e-10
-2.17206e-08
4.72428e-10
-2.19148e-08
2.53295e-10
-2.0841e-08
-1.18728e-09
2.82004e-10
6.27121e-10
3.77748e-10
-0.00249508
-3.08362e-08
2.20277e-12
-1.73391e-08
1.89997e-11
-1.55715e-08
-1.13029e-10
0.000170039
2.33895e-10
-1.63745e-10
2.70978e-10
4.47176e-10
-1.06164e-09
1.71737e-10
-2.01326e-08
2.18699e-05
-1.68775e-08
-2.20639e-08
-1.60942e-05
-2.81751e-08
-2.56998e-08
-8.49511e-11
-2.57234e-06
9.3914e-11
-2.96658e-08
8.72613e-11
0.000300016
0.00119274
-1.35553e-08
9.54673e-10
-2.03407e-10
-3.36313e-09
-1.0825e-05
-1.05198e-08
0.000307586
-2.17257e-08
2.23876e-10
2.34527e-10
0.00105298
-1.40891e-10
-7.60923e-08
7.13691e-10
3.72096e-10
2.51122e-07
-5.41124e-13
7.08735e-07
8.22278e-11
0.000541817
-9.40262e-08
0.000139304
-8.60747e-09
1.71959e-09
-2.28932e-08
-6.78621e-12
1.02084e-05
-9.02109e-13
-5.27123e-10
1.41099e-10
-2.31325e-11
-1.9661e-10
4.69324e-06
-5.80306e-09
-1.89192e-08
4.08145e-10
1.69158e-09
-2.81616e-10
3.03025e-11
-1.14575e-08
6.07865e-10
1.88767e-09
-3.05049e-08
0.00146308
4.03517e-10
-2.58028e-08
-1.34958e-10
-7.60218e-11
4.30057e-11
2.3756e-10
-1.91766e-08
2.99267e-09
8.64616e-10
-2.60839e-08
-3.32235e-08
-6.95385e-08
6.96644e-06
6.063e-07
-0.00163062
2.40198e-09
7.97344e-10
-2.19268e-08
6.98648e-10
-1.8651e-11
-2.30283e-08
-1.664e-08
-1.02146e-08
6.80114e-09
1.31796e-09
-2.16488e-08
-9.77317e-09
2.56682e-10
-0.00166975
6.13103e-05
-4.22694e-11
2.90008e-09
1.73695e-10
3.5522e-10
-1.03447e-08
-0.000318104
-3.10404e-08
-6.36771e-10
-2.10431e-11
-1.15837e-08
-1.68869e-08
-2.63535e-09
-2.27196e-08
0.000175402
0.000419607
-2.90368e-08
9.2728e-10
-2.16063e-08
-2.66754e-08
-1.25823e-08
-9.32999e-08
3.84736e-10
-2.13788e-10
-1.76102e-08
-2.93766e-08
-4.72396e-05
-4.8569e-11
-5.27289e-09
-6.63984e-11
-7.02913e-10
0.000160648
1.40088e-09
-7.51551e-11
-2.18308e-08
-0.00062775
-1.33025e-08
6.4958e-05
-1.18141e-06
2.12666e-10
-1.48864e-11
-2.33937e-08
-3.30561e-10
4.5704e-09
-2.13688e-08
-6.10631e-11
-1.6543e-08
1.91137e-06
-2.30205e-08
-1.47452e-10
-9.20346e-08
-4.30203e-11
4.31313e-11
3.53615e-11
2.41518e-09
1.8732e-10
-1.72944e-08
0.000471358
1.05936e-10
-4.68799e-09
4.03726e-10
-1.6835e-08
-2.08161e-08
-2.96905e-08
1.2335e-10
2.32708e-10
3.54064e-10
3.51533e-08
0.000540023
-6.18059e-09
-1.0396e-09
7.64407e-11
3.93173e-10
-2.58441e-08
-1.50115e-08
2.08276e-10
1.18539e-09
-2.43051e-11
-4.70537e-10
-2.43479e-08
-1.36407e-08
-5.67202e-10
-1.67495e-08
0.00151489
-1.36711e-08
-2.98535e-08
-1.13509e-10
7.11554e-09
-5.82557e-09
-2.83702e-10
8.1358e-11
-2.2662e-08
7.50233e-10
-2.50319e-08
-3.76114e-09
-1.39199e-10
-2.23241e-08
-6.97236e-09
-4.34694e-10
1.1844e-05
6.83141e-10
-1.28797e-10
-1.80623e-08
0.000254412
3.3736e-10
-1.88263e-08
-1.83616e-08
-6.77993e-09
-2.0569e-08
-2.4295e-08
-7.10243e-09
-1.83626e-08
-2.77001e-08
-2.32937e-08
1.19954e-10
-1.76723e-09
-1.15043e-08
-2.24756e-08
4.1236e-07
1.53258e-10
-2.21198e-11
-1.4706e-09
1.13253e-09
-6.10712e-10
-2.36898e-08
4.92529e-11
2.99609e-05
-9.28097e-08
-2.72011e-10
4.99018e-09
5.30013e-09
-4.89333e-09
-1.70836e-08
-1.97675e-08
5.76273e-10
-1.03799e-08
-8.54806e-09
4.26779e-10
-4.5793e-07
1.25089e-10
-1.33278e-10
0.000344251
-2.07555e-08
-3.08471e-10
-6.56255e-09
2.07886e-10
4.11793e-11
-8.50017e-09
1.273e-10
1.17433e-05
2.3402e-10
-2.23843e-08
3.91964e-10
1.99395e-09
9.07488e-11
-1.44446e-10
5.40986e-11
-2.70806e-05
-0.00166893
3.38391e-09
-4.88315e-11
-3.9624e-11
-1.94334e-08
-9.78475e-09
-2.54709e-08
-7.87304e-11
5.44132e-11
3.36869e-10
2.00974e-10
-2.25249e-08
-7.09702e-12
-6.58572e-10
-1.23189e-10
1.96131e-10
2.15527e-10
1.95817e-10
-8.69155e-09
0.000194426
-2.99854e-08
-2.12e-08
6.2148e-06
-5.99948e-09
-3.01062e-10
-9.31826e-10
-2.59728e-10
1.92043e-09
0.000152681
-2.34824e-08
4.15503e-07
-4.48013e-10
-1.70377e-10
-6.73071e-09
1.43096e-10
-2.61772e-08
-1.26759e-10
-1.93885e-10
9.94078e-06
-7.30409e-09
-2.27469e-08
1.19038e-10
1.11638e-10
-5.6586e-13
-5.75772e-11
6.57745e-10
2.98316e-10
-2.23591e-09
-2.99214e-08
-8.2323e-09
-4.37072e-09
-2.48305e-08
-8.51179e-08
-1.6732e-08
-1.52247e-08
1.28381e-10
6.37922e-05
-2.41251e-10
-3.2146e-08
4.96514e-09
7.42935e-10
-2.67448e-09
1.03833e-10
-8.04494e-11
-2.83724e-08
1.06857e-09
4.1926e-09
-3.32473e-09
-1.74165e-08
4.53708e-06
5.99935e-10
4.81016e-09
4.16447e-09
-3.97382e-11
3.64211e-10
-1.27589e-10
4.39052e-10
-8.54218e-09
-7.1184e-07
6.04024e-10
9.9957e-11
0.000791417
-1.34923e-10
-3.89892e-12
4.98562e-10
3.35359e-10
3.67445e-05
-4.05418e-10
-0.000316618
-2.42224e-10
3.49504e-11
-2.10549e-08
-8.85348e-09
5.97843e-10
6.6923e-05
-2.67773e-08
-2.71026e-08
-7.17605e-11
-2.08332e-08
-1.20803e-08
-9.54783e-12
1.72734e-07
-3.59971e-08
-6.149e-11
-2.98085e-08
1.6998e-10
-2.34083e-08
7.12244e-09
6.55446e-10
3.3928e-10
6.55734e-10
1.75302e-10
-5.04578e-09
-1.02664e-09
-2.80485e-08
-0.00166141
1.82294e-10
4.25825e-08
3.24831e-08
2.96168e-08
2.70927e-10
5.20459e-09
1.05909e-10
7.01269e-10
-1.6756e-08
9.06393e-05
-1.82524e-08
4.23791e-10
1.07989e-09
1.27755e-05
-8.66252e-10
1.31106e-05
-7.85251e-09
-2.25008e-08
2.42565e-10
0.000212706
3.69924e-09
-5.16006e-11
1.28277e-06
-2.23911e-08
1.32387e-09
-4.30104e-11
4.49112e-05
-1.76266e-08
1.57431e-09
-2.06123e-08
-3.22176e-15
-9.53247e-09
-2.71022e-08
1.14351e-05
-3.71134e-10
9.73619e-10
5.00073e-10
6.87304e-10
5.41453e-10
1.54377e-09
2.60204e-10
-2.83653e-08
5.84655e-10
2.13549e-09
-6.27348e-10
0.000292281
4.20884e-09
-1.84206e-10
-1.51448e-08
3.52191e-10
-1.49424e-08
5.10275e-07
-3.15496e-08
-3.37109e-08
-2.35302e-08
-9.95769e-10
-3.10617e-08
-5.29048e-10
-1.56978e-10
1.13896e-10
-1.87946e-08
-2.07354e-10
-4.65828e-11
1.4701e-10
5.02567e-10
6.66905e-09
3.24923e-09
-3.39115e-09
-5.91754e-10
3.2606e-09
0.000333555
-9.98918e-08
1.66283e-08
1.69069e-10
-1.65492e-08
4.52471e-10
-6.56328e-10
-1.98544e-08
-2.80975e-08
4.07113e-05
8.23916e-07
5.64572e-10
2.9564e-07
-2.53132e-08
2.75888e-10
-2.45877e-10
4.3156e-05
-1.52184e-08
1.88486e-10
-2.32312e-08
1.62548e-10
6.27843e-07
7.0536e-11
5.49636e-06
-2.86387e-08
-1.38883e-10
-1.03569e-08
-2.52708e-08
0.000205015
-1.2317e-08
-2.31554e-08
2.73748e-10
2.47112e-09
-1.95802e-08
2.11964e-09
-2.16691e-08
3.83791e-07
-3.16756e-10
-1.62341e-08
-5.39908e-10
-2.29409e-10
-4.03706e-08
-2.57635e-08
-1.67735e-08
-1.02052e-10
5.53667e-09
3.70031e-09
2.10546e-10
-1.73891e-08
-8.47785e-09
-2.20223e-08
-1.24169e-10
-3.99834e-10
-1.87687e-08
5.39542e-07
3.30956e-10
-1.54214e-11
-2.7937e-08
7.28503e-09
-1.88417e-10
2.50229e-12
-1.64393e-11
2.22563e-09
-2.23429e-08
-1.22863e-05