/*--------------------------------*- C++ -*----------------------------------*\
| =========                 |                                                 |
| \\      /  F ield         | OpenFOAM: The Open Source CFD Toolbox           |
|  \\    /   O peration     | Version:  v2012                                 |
|   \\  /    A nd           | Website:  www.openfoam.com                      |
|    \\/     M anipulation  |                                                 |
\*---------------------------------------------------------------------------*/
FoamFile
{
    version     2.0;
    format      ascii;
    class       volScalarField;
    location    "50";
    object      p;
}
// * * * * * * * * * * * * * * * * * * * * * * * * * * * * * * * * * * * * * //

dimensions      [0 2 -2 0 0 0 0];


internalField   nonuniform List<scalar> 
33474
(
-0.0178628
0.000760097
-0.0100484
-0.0072994
-0.0220275
-0.00774272
-0.00157119
-0.0101052
-0.00138284
-0.0124298
-0.00164713
-0.00953682
-0.00155256
-0.0236061
-0.0241089
-0.000752647
-3.36522e-05
-0.038914
-0.0187151
-0.00479613
-0.0489292
-0.00692593
-0.00672652
-0.0176239
-0.0064021
-0.00961645
-0.000483296
-0.0364879
-0.0077994
-0.000412284
-1.50682e-06
-0.00743752
-0.00477549
-0.037822
-0.00042968
-0.00242787
0.00391645
-0.000279507
-0.00922442
-0.0274223
-0.00403474
-0.000403533
-0.000338879
-4.94327e-05
-0.0323588
0.00059877
6.1291e-05
-0.0418687
-0.00515897
-0.000405216
-0.0168359
-0.00044015
-0.00267438
-0.00151206
-0.00808917
-0.0357844
-0.00818546
-0.0279305
-0.027149
-0.0186117
-0.00864838
-3.91512e-05
0.00465111
-0.000271486
-0.000207509
-0.0124739
-0.000114497
0.0156761
-0.000421038
-0.0210633
0.000144266
0.000146946
-0.000282147
-0.000191975
-0.00791835
1.7387e-06
-0.00930486
-0.0134391
-0.0235261
-0.009601
0.015511
-0.00981364
-0.0089987
-0.000414479
-0.042076
-0.000464052
-0.0477829
-0.0225068
-0.085929
-6.61866e-05
-0.0074895
-0.000386334
-0.00237255
-0.00486431
-0.00155067
-0.0415146
-0.0382437
-0.0214927
-0.000439151
4.66188e-05
-0.0475679
-0.00674351
-0.0121841
0.0056469
-4.38506e-06
-0.000107876
-0.0132852
-0.00824923
-0.000425486
-0.000388742
-0.0173145
-0.000121159
-0.00525718
-0.00572463
-0.0532753
-0.0540186
-0.00852091
-0.00856723
-0.00323848
-0.00157585
-0.00764662
-0.00617686
-0.00798144
-0.00044394
-0.0427274
-0.00480649
-0.00193257
-0.0270969
-0.00886863
-0.032752
-0.000467596
-0.0209627
-0.00669725
0.0155357
-0.0240714
-0.000196378
0.00799723
0.0181671
-0.0103273
-0.00984102
-0.0125574
-7.50315e-05
-9.1322e-07
-0.00561821
-0.00987817
-0.0129809
0.0160277
1.51825e-06
-0.000172039
-0.000153177
-0.00016907
-0.00170674
-0.0031836
-0.00119013
-0.0537189
-0.00686847
-0.0360225
-0.00787718
-0.0165867
-0.000153335
-0.0214893
-6.11318e-05
-0.00476935
0.00537764
-0.0407431
0.00891388
-0.000762428
-0.00347429
-0.016822
-0.0426912
-0.0600462
-0.000911363
-0.0853777
-0.00038274
-0.0129127
-0.0408286
-0.011906
0.000372898
-0.00447938
-0.000509701
-0.000517894
-0.0171098
-0.000402813
0.00126143
-0.00980243
-0.0213302
-0.017963
-0.00830928
-0.00829127
-0.00522216
-0.0107434
-0.0167934
-6.58326e-05
-4.56427e-08
-0.00502624
-0.00591622
0.00401361
-0.0147561
-8.12462e-05
-0.00161448
-0.00296989
0.00115223
0.00111294
-0.000108847
-0.0515166
-0.000493098
-0.000746109
-0.0488512
-0.00596723
-0.0232702
0.00102371
-2.75989e-06
-0.00741009
-0.0543503
-3.84322e-06
-0.0592037
-0.00449003
-0.00614179
0.00272727
-0.00391685
-0.00592665
-0.0029127
-0.0036623
-0.0515584
-2.60005e-06
-0.0351066
-3.40677e-07
-0.00982849
-0.000431421
-0.0345982
0.00457281
-0.00151532
-0.00148861
-0.000872972
-0.000565426
0.0130399
-0.0412678
-0.00580244
-0.0017295
-0.0262737
-0.0072988
-0.0450534
-2.91308e-06
-0.00714585
-0.0559058
-0.00074613
-0.00246904
-0.00646315
-0.00316091
-0.00337895
-0.0406992
-0.0130445
-0.0552452
-0.000763667
-0.0131481
-0.000479742
0.0165266
-0.000463972
-0.0443255
-0.0111161
0.000383499
-4.23586e-06
-0.00836296
0.0110414
-0.00294938
-0.00057235
-0.00454248
1.45747e-05
1.34848e-05
-0.00354361
-0.00780571
-0.00845397
-0.0328497
-0.00652205
-0.000594604
-0.00620033
-0.00970045
-0.000796924
-0.0166482
-0.00860225
-0.0263745
-0.000629765
-0.0259673
-0.0077609
-0.000356634
-0.00336867
-0.0004401
-0.000193097
-0.0566647
-0.000305542
0.0107863
-0.000866407
0.0118378
-0.00797076
-0.00952492
0.00862003
-0.0431274
-0.0523809
-0.00696477
-0.026046
-0.00947611
2.28974e-05
0.00923426
-0.000746271
-1.2103e-05
-0.00157302
-1.31385e-05
-0.0531581
-0.0142944
-0.0764017
-0.00821423
-0.00685349
-6.49082e-05
0.00173053
0.00151543
-0.0197723
-0.0752516
-0.0558421
-0.010677
-0.00245385
3.1481e-06
-0.00139283
-0.00161159
-0.00047688
-0.0172068
-0.0127629
-0.0098142
0.0011418
-0.0101124
-0.00026322
-0.00886931
-0.00180114
-0.0390313
0.00940567
-0.000249065
-0.0055299
-0.00613992
-1.81631e-05
-1.77026e-05
-0.000219774
-0.00787452
-0.0166078
0.000162874
5.37592e-05
-0.0742638
-0.000749476
-0.000829905
-0.00286418
-0.00215975
-0.0408415
-0.00227082
-0.00075308
-0.0545885
-0.0524002
-0.00777357
-5.09728e-06
-0.00388922
-0.000741423
-0.000104791
-0.00297511
-0.00869399
-0.00347069
-0.0133181
-0.0138505
-0.00509581
-0.00278016
-0.00087187
-0.00347147
-0.00250183
0.000204071
-2.56999e-05
-2.30468e-05
-0.0033392
-0.0035781
-0.0105266
-0.0518609
-0.00478667
-0.00929607
-0.0061404
-0.0322829
-2.26362e-05
-4.3999e-06
-0.00329369
-0.00786787
-0.0355203
-0.00010102
-0.0180487
-0.00543223
-0.00237152
-0.0187707
-0.00256173
0.00785392
6.58284e-06
3.9721e-06
-0.0136775
-0.00886944
-0.00981139
-0.00147625
-0.000909737
-0.00842548
-0.0105338
-0.00247918
-0.0015838
-0.00735255
-0.0371217
2.94494e-06
-0.0143209
-0.0875156
0.0120616
1.87e-05
-0.00845628
-0.00449637
-0.0091622
-0.00258519
-0.0104629
-0.000971387
-0.0948493
1.79444e-06
-4.72983e-05
-0.0417156
-0.000979485
-0.00922646
-0.0015718
1.95127e-06
-0.0091331
-0.0171825
1.81108e-05
-0.00822216
-0.00716982
-0.00250066
-0.00178589
-0.0034074
-0.00166414
1.77088e-05
-0.0193544
0.000322651
-0.00981597
-0.00177536
-0.00419676
-0.000123631
-0.000597681
0.00126546
-0.00180728
0.000439313
-0.000120359
-0.0188954
-8.07122e-05
-0.00933272
-0.00497193
1.84944e-05
0.0116409
-5.89035e-05
-8.25553e-05
-0.00710091
-0.00754881
1.65956e-05
-4.5104e-05
-3.50392e-05
-0.00937321
-3.18173e-05
-0.00740949
-0.018004
-0.0100653
-0.00392412
0.000162616
-0.00511602
-3.03582e-05
-0.011855
-0.000111135
-0.00488613
-0.00103168
-0.000465943
-0.0168572
-0.00787976
-0.000207337
-0.0128954
-0.000915288
-0.000389884
0.00515263
-0.000109494
-0.00560377
0.000165553
8.0419e-05
-0.00286826
9.17887e-05
-0.00187327
-0.0965262
-0.0189984
-0.00260403
1.48996e-06
3.24274e-05
8.89498e-05
-0.0260908
-0.0103032
-0.000192893
-0.0079798
-0.000162229
-0.000419418
-0.00187162
-0.00039273
-0.0165591
-0.0427144
-0.00942597
-0.00906085
-0.00257993
-0.00108759
-0.00865444
-0.0593301
-0.00476796
-0.0347682
-0.0267882
-0.00399389
-0.0224425
-0.0188095
-0.000167796
-0.00810013
-0.00734493
-0.00840913
-0.0103025
-0.0699587
-0.0430084
-0.00650568
-0.000559303
0.000317973
0.000288638
-0.00289348
-0.00049615
3.61626e-05
-0.0562694
-0.0229352
-0.0230431
5.13074e-05
-0.0264441
-0.0142224
0.00160644
-0.00958897
-0.00859692
-3.1428e-05
0.00048332
-0.00224294
-9.4621e-05
-0.00460514
-0.00131081
-0.00690288
-0.000138007
-0.00231938
-0.000137112
-0.0771635
-0.011643
-1.90381e-07
-0.000615362
0.00128856
-5.19112e-06
-0.00014126
-0.0613702
0.0117039
-0.000144737
0.000101951
-0.0120477
-0.0125417
0.00139334
-0.0266645
-0.00179183
4.36148e-05
-0.0265997
-0.00728819
-0.00789715
-0.00915578
-0.000356158
-0.000236194
-0.00924405
0.000818381
-0.00503211
-0.060171
-0.0214843
-0.0100071
-0.00720709
-0.00654834
-0.0279038
0.00597461
0.000550017
-0.000182004
-0.00681365
-0.00991892
0.0149116
-0.0797005
-0.0145676
-0.00143188
-0.00428963
-0.00960392
-0.0611445
1.31978e-05
-0.00199592
-0.000987909
-0.00436401
-0.0162901
1.08038e-05
-0.015723
-0.000234464
-0.0124228
0.000475026
-0.000806646
-0.000116067
-0.000729315
-0.00330953
-0.00573151
-0.00642131
-0.00144226
-0.00781268
1.91921e-05
-0.0170024
-0.000478211
0.00360252
2.08956e-05
-0.0160274
1.87918e-05
-0.00862074
-0.00651201
-0.000647839
-0.00033131
-0.000103357
-0.0067694
-0.000234099
2.0039e-05
-0.00350718
-0.000490561
-0.0123699
1.23503e-05
0.00724631
-0.00692977
0.000379504
-0.0171679
-0.0206863
-0.0515052
-0.0796258
-0.00574955
4.84909e-05
-0.00129011
-0.00296368
0.00724682
-0.000239327
-0.00851436
-0.000253711
-0.000402422
-0.00667522
-0.000234846
-0.000126781
-0.00125986
0.00102468
-0.0208103
-0.0960982
0.0154118
-0.0178932
-0.000115472
-0.00641827
-0.000672289
-0.000481309
-0.000466289
-0.011688
-0.0120557
-0.0318149
-0.00948277
-0.00639164
-0.00302409
-0.000332589
2.09587e-05
1.72097e-05
-0.0129559
-8.69348e-05
-0.015442
3.25181e-07
-1.48983e-06
-0.0203547
-0.00751924
-0.000108873
-0.000117149
0.0122547
7.18444e-06
-0.0148764
-0.0119595
-0.0203679
-0.0165282
0.0103009
0.000988395
-0.00225422
-0.00535686
-0.000645695
-0.00121723
-8.11444e-05
-0.0164238
0.00101474
-0.00123851
-0.0122897
-0.00963241
-0.00685079
-0.0760802
-0.0122782
0.0054654
-0.00198754
-0.00691239
-0.00291764
0.00480188
-0.00839016
-9.81518e-07
-0.0016399
6.25228e-07
1.65559e-05
-0.00138425
0.00415405
-0.00337473
-0.00343228
0.001849
0.0169623
-0.0124364
0.000228039
-0.00261575
0.00468921
-7.50076e-05
-0.00517486
-0.000927004
0.0176876
-0.00341158
-0.000586709
-0.000758872
0.00192646
-0.00127739
-0.00306906
-0.00312719
-0.00731965
-0.0358362
0.000116954
-0.0016372
-0.000369462
-0.000460708
-0.00672599
0.000182099
-0.0106729
-0.00125063
-0.000606516
-0.0933186
-0.000876259
0.000191081
-0.00506263
0.00167547
6.03683e-05
-0.00106539
-0.000987119
-0.00959388
-0.000246411
-0.0912495
1.27983e-05
1.11687e-05
-0.0089795
-0.000591983
-0.000781972
0.0057804
0.000127505
0.00379445
2.00883e-05
-0.00244024
0.0038608
-0.0170446
-0.00869919
-0.00206785
-0.00172231
-0.00799075
-0.0721369
-0.00594097
-0.0927223
-0.000748116
-0.00593436
-0.00999096
-0.0950454
-0.00396322
-0.000500703
-0.000952746
-0.000672148
-0.0381473
7.35568e-06
-0.0233413
2.07601e-06
-0.000603753
-0.0162086
0.00457118
-0.00167026
-0.00327172
-0.00116058
-0.0105598
-0.000874467
-9.27221e-07
-0.0117242
-0.0539368
-0.00346996
-0.000563729
-0.00120066
8.69737e-06
-0.00113947
7.74712e-06
-0.0125557
0.0144941
-0.00158566
-0.0225452
-0.000661446
-0.000608004
-0.0079009
-0.000760764
-0.000794282
-0.00115514
-0.00733613
-0.0263728
-0.0258612
-0.00783028
-0.000108143
0.00529436
-0.064218
-0.0123824
-0.0279665
-0.000584922
-0.000857785
-2.44332e-05
-0.000524405
-0.000836406
1.24685e-05
-0.0386895
-7.81261e-05
-0.00882164
-0.00633849
-0.00117366
-0.00177699
-6.04627e-05
-0.00015654
-5.17855e-05
-0.000692717
-0.0216942
1.18736e-05
-0.0232342
-8.86682e-05
-0.00812448
-0.015465
-0.0542417
-0.0267619
-0.00055776
-0.00402546
-0.00699389
-0.0061771
-0.0622486
-0.000897841
-0.0162839
-0.0774617
-0.0159581
-0.00047466
-0.000353687
-0.0197246
-0.001544
-0.00242422
-0.00177647
0.0129386
-0.0077619
-0.0532445
0.000576663
0.00404214
-0.0121416
-0.00273532
-0.00390223
-0.0130157
-0.00934305
-0.00319356
-0.000369736
-0.00346758
-0.000902571
-0.0126672
-0.0621366
-0.00665969
-1.38301e-05
-0.0935841
-0.000114651
-0.00948021
-0.00697732
-0.00665677
-0.00947835
-0.000731777
-0.00234488
-0.00260872
-0.0032706
-0.0695742
-0.00941518
-0.00256298
-0.00109667
-0.000542848
-0.000138943
-0.00882643
-0.00536227
1.06915e-05
-0.00924689
-0.0102894
-0.00221576
0.000846278
-0.00209364
-0.00449879
-0.000785925
-0.00599009
-0.00130684
-0.0147851
-3.49047e-06
8.70872e-06
-0.00916202
-0.0886356
-0.00381416
-0.0115545
-0.000460711
-0.0163772
-4.38587e-05
-7.5328e-05
-0.000140458
-0.000269874
-0.000798224
-0.00022468
-0.0029629
-0.0737666
-0.000103194
-0.00320543
-0.000187548
-0.0900081
-0.000772145
-0.000772982
-0.0255704
0.00346659
-0.0171382
-0.0116129
-0.00324782
-0.000823927
-0.00851204
-5.95393e-05
-0.0104884
-0.00291174
-6.64617e-05
-0.00675357
-0.000315056
-0.0557705
-0.00124358
-0.00656916
-0.00934429
-0.000823474
0.00248646
0.00026675
0.0169488
0.00248779
-0.000586118
0.000321744
-0.00707234
-0.000745192
-0.0783626
-0.00691599
-0.000759382
-0.0131314
-0.00853151
-0.0013565
-0.00932685
-0.00595002
-0.000792282
-0.0219927
0.00389802
-0.016693
3.62668e-06
-0.00636319
-0.00681388
-0.000769663
1.25358e-05
-0.00633347
-0.000486897
-0.0701012
-0.000490073
-0.0109413
0.00531748
0.00834997
-0.000301262
-0.0161657
-0.000615488
-0.00398049
-0.0265479
-0.0171324
-0.0536408
-0.0205803
-0.0105478
-0.00369008
-0.00245997
-0.0104165
-0.00436515
-0.000333896
-0.00216036
-0.00587702
-4.73035e-05
-0.00400319
-8.20039e-05
-0.0173002
-3.72949e-05
-0.00652959
-0.00591589
-0.0122976
-0.0213684
-0.000610058
2.28992e-06
-0.00244892
-0.00840869
-0.000387235
-0.00048843
-0.0898555
-0.00130623
-0.0013086
-0.0202
-0.0030172
-0.00247833
-0.0378765
-0.00224889
0.00142282
-0.00242974
-0.0234748
-0.00570743
0.00426064
-0.000155278
-0.00676107
-0.00135167
-0.00267171
-2.95603e-07
-0.00552155
-0.000325965
-0.0114434
-7.71662e-06
-0.000121611
-0.000316877
-0.00445527
-4.04859e-05
-0.00146098
-0.0107829
-0.00143247
-0.000343263
-0.0040736
0.00505258
-0.00155194
-0.000723915
-0.000547503
-0.00758776
-0.00749343
-0.00178447
-0.0563293
-0.00430571
-0.00695311
-0.00461369
-3.048e-05
7.11873e-06
-3.78524e-05
-0.0103132
-0.00172816
-0.00813463
-0.00278023
1.37557e-05
-0.0343582
-0.000547634
-0.00937242
-0.00466779
-0.0720752
-0.000112777
-0.000462103
-0.0440605
-0.000900153
-4.47469e-05
-0.0276662
-0.00549955
-0.00929705
-0.00550519
-0.00983639
-0.000554179
-0.0176552
-0.00213495
-0.0210919
-0.0298854
-0.000866604
-0.0128413
-7.12836e-05
-0.00508803
0.0117844
-7.50757e-06
-7.14912e-05
-0.0217737
-0.00473024
-0.00280463
-0.0139987
-0.06817
-0.00108777
-0.00725372
-0.0229247
-0.00248376
-0.00379657
6.77906e-05
-0.000905585
0.000524659
0.000158562
-0.0431834
9.76615e-05
-0.000527316
-0.000567987
0.000436257
-0.0441377
-0.00832316
-0.00146754
-0.00201068
1.72572e-05
-0.000458456
-0.000269815
-0.01949
0.00557942
0.000240756
-5.4768e-05
-0.0043493
-0.0074428
-0.000571497
-0.000769428
-0.00658429
-0.000578036
0.00120923
-0.00823213
-0.00718143
1.6481e-05
-0.0510479
-0.0225856
-0.00471918
-0.0174718
-0.0598254
0.00880947
-0.0728764
-0.000193863
-3.26124e-05
0.000635533
-0.000790393
-0.073846
-0.00344699
-0.00766975
-0.00217589
0.000621589
-0.0609791
-0.00909222
-0.0520206
-0.0017017
-0.0336028
-1.27872e-05
0.000808894
-0.00762744
-0.053726
-0.0138119
-0.00391128
0.000719884
-1.63089e-05
-0.00182323
-0.0676197
-0.00192032
0.0104836
-0.0323111
-0.0144852
-0.00231025
-0.029583
-0.00357441
-0.00338682
-0.000331521
-0.00650283
-0.0542356
-0.00831777
-0.0283265
-0.00658363
-0.000486963
1.20308e-05
-0.00715603
-0.000216041
-0.00656804
-0.000977122
-0.000392037
-0.0145175
5.59987e-05
-0.00695748
-0.000513755
-4.25241e-06
-0.00889729
0.0112449
-0.000114489
-6.06262e-06
-0.0123921
-0.0927216
-0.0174759
-0.00249678
-0.000405823
-0.0256726
-0.0642684
-0.00818098
-0.00343658
-0.000170922
-0.00876114
-0.0931204
-0.000138469
-0.00617096
-0.00226093
-0.0425639
-4.57057e-06
-0.000270446
-0.0412751
0.00620678
-0.00948246
-0.00861318
-0.018931
-4.4438e-05
3.07977e-05
-0.000743091
0.000408668
-0.000217436
0.000467531
-0.00425768
-0.00126244
0.00806983
-0.00110144
0.0149254
-0.000508261
-0.00447652
-0.0126428
-0.00582965
0.000925473
-0.059828
-0.0541883
-0.000100069
-0.0453866
-0.0188919
-0.00580808
-0.000124163
-0.000821134
-0.0381509
-0.00534667
-0.00120325
0.00569222
-0.00574118
-0.0292234
-0.00218425
-0.000436584
-0.00641987
-0.000726383
-0.000273263
-0.0158288
-0.000482596
-0.00485028
-0.00902276
1.87027e-05
-7.8595e-05
8.16146e-05
-0.000469391
-0.0128903
-0.0115764
-1.18391e-05
-0.0475766
-0.00575711
-0.0254063
-0.00940561
-0.000265779
-0.0642251
-0.00367869
-0.00837586
-0.0102773
-0.000790683
-0.00491875
1.77481e-05
-0.00134681
-0.000165722
-0.0368186
-0.00265262
-0.00113081
-2.10987e-05
-0.0550545
0.000154922
-0.017875
-0.000127485
-0.000101277
-0.0101997
-0.0190462
-0.020788
-1.09906e-05
-0.00726803
-8.88256e-06
-0.00759401
-0.000810525
-8.39571e-05
-0.00852259
-0.004896
-0.00075598
2.02432e-06
-0.00974546
-0.00251051
0.000205332
-0.000202884
-0.0257688
-0.000418
1.34886e-06
1.56657e-05
0.000358427
-0.000448276
-9.04659e-05
-0.049764
-0.0559419
-0.000418144
-0.00353919
-0.00144405
-0.00870967
-0.000566892
-0.000461821
-8.50796e-06
-0.000384265
-0.00436326
-0.000267852
-0.0588808
1.40544e-06
-0.00155132
-0.0859321
-0.000270341
-0.0141595
-0.0488317
-0.000702604
-0.0084901
-0.00288708
-0.0342965
-0.0116243
-0.00629151
-0.00981077
-0.00078482
-0.033635
3.07009e-05
-0.000993072
-0.00394836
-0.000211381
-0.0189446
-0.0193172
-0.00191308
0.00082945
-4.46613e-05
-0.00622434
-0.0066449
4.30164e-06
0.00290965
-1.27406e-05
-0.000156555
-0.00154511
-0.00489945
-0.000322527
-0.00755674
-0.00452061
-0.0058059
-0.00309339
-0.000486515
-5.29917e-05
-0.0939853
-0.00018169
-0.000972926
-0.0335564
-0.000179147
-0.000928269
-0.0064443
-0.00177831
-0.000115689
-0.00681481
-0.00127445
-0.0175681
-0.0218016
-0.00590881
-1.57839e-05
-0.0552087
-0.0757071
-0.000469013
-0.0103843
0.000580542
-0.0158373
-0.00218194
-0.0147911
-0.00971092
0.000424397
-0.0116633
-1.41024e-05
-0.00590077
0.0167763
-0.0232315
0.000336229
-0.000735514
-0.000505158
-0.00826643
-0.0156078
2.94489e-07
-0.00641807
-0.0479821
-0.0875669
-0.0184166
-0.00108434
0.00175136
-0.00721675
-0.0192396
-0.000129002
-0.000468105
-0.00641831
-0.0007457
-0.0118526
0.0158493
-0.000687822
-0.010145
-0.0523347
-0.000173352
-0.00210751
-0.00595787
-0.0864885
-0.0212583
-0.00727565
-0.00106928
0.000676931
-0.00597018
-0.0259879
-0.0095627
-0.0138319
-0.000840426
-0.00842271
-0.00361455
-0.00697424
-0.0196588
0.000290504
-0.0160091
-0.0065651
-0.0084703
0.00135067
-0.00199792
-0.00897681
-0.00368403
-0.00215934
-0.00360878
-0.000475038
0.0164968
-0.0133667
-0.00017114
-0.0220396
-0.00578693
-0.000778281
-0.0238165
-0.0117124
-0.00438788
-0.0099937
-0.0017805
-0.0894577
-0.00112884
-0.000488306
4.81246e-05
-0.0025222
-0.0126899
-0.0302842
-0.00571051
-0.000387633
0.00113357
-0.000365633
-7.04649e-05
-0.00804235
-0.00163861
0.00356726
-0.000463388
-0.00417129
-0.00148619
-0.0149037
0.00192814
-0.00849157
-1.99034e-05
-0.020804
-0.0457493
-0.000418481
-0.0935244
-0.00709401
0.000177454
0.00882365
-0.00667639
-0.00192955
0.00367562
-0.0128018
-0.00630331
-2.156e-05
-0.0159102
-0.00130771
-0.000759239
4.28136e-05
-0.0464145
-0.000475797
-0.000425951
-0.000468276
-0.000761034
-0.00475641
-0.000501318
-0.000227961
-0.00113296
-3.08701e-06
-0.0517548
-0.0501619
-0.000684653
-0.00575932
-0.00477405
-7.76294e-05
-0.000458971
-0.00923925
-0.0182756
-0.000431646
-4.10513e-05
-0.00074341
-0.000778237
-0.000731176
-0.0149941
0.00209031
-0.000470542
-0.000164076
0.00532499
-0.00899969
-0.000228363
-0.000183948
-0.0017659
-0.0641368
-0.0267353
-0.0928459
-0.0194763
-0.000807974
-0.000157254
-0.00939877
-0.00312086
-0.00771596
-0.00609285
-8.24181e-06
-0.000745097
-0.0337714
-0.00394089
-0.010098
-0.0209273
-0.0070659
-0.00693064
-0.000196438
-0.011371
-0.0584089
-0.000451744
-0.0413055
-0.0416523
-0.00741583
1.75613e-05
-9.29472e-05
-0.0682031
-0.000259922
-0.0419101
-0.00139233
-0.0354316
-4.20308e-05
-0.00139852
-0.0157281
-0.0165032
-0.0501278
-0.00351757
-0.00555975
-0.00478811
-0.00241043
-0.00734436
-0.00520393
-0.00492817
-0.00027213
-0.000343913
-0.000994731
-0.007057
-0.000738864
-0.00177854
-0.00720479
-0.000577539
-0.0189396
-0.000246365
-0.0196793
-0.0158624
-0.00646496
-0.0901004
-0.0076894
-0.00926601
-2.85535e-05
-0.0165182
-0.0297039
-0.0582708
-0.000540684
-0.008783
-0.00897505
-0.0079493
3.44532e-05
-0.000271892
-0.000758814
-0.00144881
-0.00115741
-2.08293e-05
-0.00602367
-8.10673e-05
-2.66841e-05
-0.00767175
-0.0807931
-0.00442004
-0.000122608
-0.000705463
-0.00501071
-0.00240753
-0.0168893
-0.00121185
-0.00664823
1.19152e-06
0.000332207
-0.00937515
-0.000281275
-0.000164855
-0.0154723
1.99301e-05
-0.00966165
-0.00208628
0.000677459
-0.00143578
-0.00382318
-0.00583584
-0.000931834
-0.012093
-0.0132092
-0.000195291
-0.000606977
-0.0548173
-0.00227639
-0.000608886
-0.00147878
-0.0292442
-0.0158444
-0.000261113
-0.00107521
-0.00213648
-0.00643109
-0.00536735
-0.00479056
-0.00123264
-0.00150413
-0.00579296
-0.00243633
-0.00409304
-0.0809229
-0.000404369
-0.0062196
-0.0551308
-0.00501046
-0.0508949
-0.00140414
-0.0093924
-0.00115293
-0.090723
-0.0324124
0.000258033
-0.086507
-0.0212696
-0.00058613
-0.00246311
-0.00701757
-0.000769292
-0.0269165
-0.00120519
-0.00362658
-0.0393472
-0.0368911
0.00263991
-0.0169816
-0.000279911
-0.00676219
-0.000337432
-0.0552072
-0.00871345
-0.00275768
-0.0690148
-0.00150709
-0.019735
-0.000717531
-0.00870658
-0.00161915
-0.0112927
-0.0168383
-0.000711084
-5.23576e-05
-0.00123789
-0.0368775
-0.0610333
-0.00866997
-0.0122625
-0.0135002
-0.0237486
-0.0120601
-0.00010233
0.000559211
-0.000507384
5.91165e-05
-0.000303635
-0.005843
-0.0101905
-0.000936783
-0.0631686
-0.0299855
0.00112414
-0.0117384
-0.00723663
-0.0188989
2.7468e-05
0.000672465
-0.000471584
0.00646236
-0.094636
-0.0181698
-0.0181435
-0.00053675
-0.00095251
-0.000347025
0.000121326
0.00171449
2.72057e-05
-0.000203822
-0.0203627
-0.00676884
-0.00342183
2.0401e-05
-1.50414e-05
-0.00851352
-0.0364217
-0.0183923
-0.000516332
-0.00150958
0.00231699
-0.00143622
-0.0108105
-5.59041e-05
-0.0129156
-0.0215436
0.00431955
-5.63346e-05
-0.000432186
-0.00598036
1.74313e-05
-0.00868482
-0.0135186
-0.0167232
-0.000179654
-0.0388513
1.61011e-05
-5.58081e-06
-0.0122723
-0.0047298
-0.037373
0.000508052
-0.00414103
-0.0301288
-0.0110379
-0.0901419
-0.000300636
-0.0072448
-0.000592492
0.001627
-5.04021e-05
-0.0224076
-0.00596161
-0.00982654
-0.00653056
0.000639935
-0.0118321
-5.63414e-05
-0.000467199
1.99746e-05
-0.018781
-0.000120504
0.000903942
-0.00369661
-0.000289249
-0.0157259
-0.00822583
-3.74847e-05
-0.0513059
-0.0302955
-0.0859644
-0.000251229
-0.000130115
-0.0201674
-0.00571119
-0.0848782
-0.000156077
-0.0148408
0.00240835
1.86514e-05
-0.000748602
-0.00893925
-0.0901037
-0.00045881
-0.00120213
-4.04815e-06
-0.000515206
-0.000313603
0.00126027
-0.0865208
-0.000160945
-0.02199
-0.00508813
-0.00822969
-0.00961164
-0.000293979
-0.0118762
0.000864705
-0.0248949
-0.0318258
-0.0220375
-0.000593665
6.54457e-05
-0.0204997
-0.0385831
-0.00061976
-0.000262884
-0.00964948
-0.00777635
0.00565945
-0.0179323
-0.00991503
-0.00375593
-0.000620438
-3.39995e-05
-0.000246801
-5.2679e-05
-0.00198153
-0.0203732
-0.000131606
-0.00686581
-2.47028e-06
-0.00216469
-0.000318465
-0.00111741
-0.00225266
-0.0302557
-0.023751
0.0167304
-0.000147818
-0.0081415
-0.000483025
0.00107123
-6.46984e-05
-0.0121506
-0.0896921
-0.00821219
-0.0132261
0.00128654
-0.00445289
-0.000953962
-0.00345019
-0.00231449
0.000363528
-0.00100309
-0.000566088
-0.00014809
-0.0011773
-1.01818e-05
-0.0180882
0.0050432
-0.0217289
-6.49935e-05
-0.0190628
-0.073707
-0.00980857
-0.000660032
-0.0362119
-0.00194213
-0.0100722
-0.0110349
-0.000882302
-0.0736528
-1.17019e-05
-0.00928511
-0.00482206
0.000734977
-0.0063697
-0.000480411
-0.0126227
-0.00735715
0.000163499
-0.00382523
-0.00723415
-0.00699471
0.00284602
-0.0223748
-0.0580998
-0.046338
-0.00364574
-0.00613024
-0.0595138
-0.000561942
-0.00804595
-0.0185315
-0.00925703
-0.00740236
-0.0027484
0.00235566
-0.00650575
-0.00426663
-0.0205906
-0.00078608
-0.00684516
-0.0319101
-0.000875757
-0.00831809
-0.0739364
-0.000257542
-0.00623729
-0.00656739
-6.55441e-06
-0.00774249
-0.0165506
-0.00702896
-0.00484514
-5.95905e-05
-0.0392612
-0.000795439
-2.44164e-06
-9.64573e-05
-0.00056197
0.000585953
-0.000416215
0.00329678
-0.00193478
-0.0351796
-0.000132053
-0.00247774
-0.00297531
-0.0002202
0.000570243
0.000888292
-0.00191687
-0.000638016
-0.000237258
-0.000862827
-0.00829819
-0.00214213
-0.00568129
-0.0250943
-0.00124474
-0.00679725
-0.00579315
-0.00152581
-0.0942845
-0.000103282
-0.00065473
-0.0192165
-0.000827168
-0.00145285
-0.00367625
-7.70262e-05
-0.0583704
-0.0859917
-4.22972e-05
-0.00279141
-6.30584e-05
-0.000470907
-0.000287939
-0.0248713
-0.0392288
-0.021889
-0.00117251
-0.000152213
-0.0932753
-0.00152935
-0.00139886
-0.00830398
-0.0168756
-0.087545
-0.0425725
-0.0268017
-0.000271816
0.0104895
-0.0051184
-0.00637928
-0.0119385
-0.004461
-0.00207148
-0.000247863
-0.0118929
8.96867e-05
-1.62075e-07
-0.0194485
-0.000486251
-0.0488381
-0.000218593
-0.00236409
-0.0310537
-0.00940127
-0.0587644
-0.0144686
-0.00190443
-0.000875917
-0.000474294
0.00334977
-0.0217967
-0.00248525
-0.00975353
-0.000499568
-6.02348e-05
-0.000280825
-0.00840068
-0.00471078
-0.00811944
-0.0054717
-0.01722
-0.00106346
-0.000399562
-0.00737376
-0.000949042
-0.00117969
-0.00136568
-0.00678971
-0.00147857
-0.0172029
-0.0115748
-0.000525139
-0.000245535
-0.0156157
0.000451923
-0.00773318
3.81803e-05
-0.000719485
-0.0122806
-0.00193785
-0.00796137
-0.00222594
-0.00572939
-0.00130279
-0.0205146
-0.000272207
-0.00986103
-0.0082675
-0.000335865
-0.00744524
-0.00826757
-0.00545692
-0.00641837
-0.00983031
-0.000879812
-0.00583069
-0.00621259
-0.00178042
-0.000875677
-0.00139606
-0.0349575
-0.00130019
-0.00172087
-0.00017115
-7.8783e-05
-0.000582036
-0.00941602
0.000636985
-0.00577307
-0.000334978
0.00268176
-0.00936353
0.000480484
-0.0214421
-0.024837
-0.0163262
-0.000544886
-0.00997336
-0.00384221
0.00192638
-0.00265363
-0.0299977
-0.0243789
-0.00816448
-0.000178293
-9.10214e-05
-0.054093
0.00173911
-0.000397807
-0.00689486
-0.00222683
-0.0101141
-0.0318475
-0.0759157
-0.000155611
-0.00670795
-0.00469613
-0.00764022
-0.00554158
-0.00168915
-0.00805527
0.0017989
-0.00609587
-0.00023271
-0.0113088
-0.00236636
-0.00601432
-0.00644745
-0.00953666
-0.0936339
0.00189016
-0.000949922
-0.00993062
-0.0522299
-0.000161
-0.00611412
9.6059e-07
-0.00290347
-0.00490753
-0.00820963
-0.010025
-3.07803e-06
-0.0235921
-0.0166947
-0.0133186
-0.00469302
-0.0146361
-0.0160593
-0.000705171
-0.0529193
-0.000382376
-5.78657e-05
-0.000310864
-0.00103865
-0.00251741
-0.00249001
-0.0158597
-0.0453204
-0.0909519
-0.000681101
-0.0597556
-0.00341349
-0.0191846
-0.00498377
-0.00529622
-0.000437117
-0.0150347
-0.0131023
0.000539641
0.000781644
-0.000769746
-0.00629441
-0.00550593
-0.0117454
-0.0103308
-0.0530221
-0.00781661
9.89661e-06
-0.000376242
0.000343372
0.000833799
-0.00235964
-0.000374239
-0.000312867
-0.000672311
-0.030574
-0.00499666
-0.00266211
-0.000335276
-0.0223154
-0.00106073
-0.0482002
-0.0148638
-0.00183739
-0.000694168
0.000981885
-0.00234915
-0.000509384
-0.000494853
-0.000751978
-0.0472786
-0.0305564
-0.021843
-0.0238232
-0.00534549
-0.013962
-0.00950895
-0.00136562
-0.00337636
-0.00605261
-0.0092189
0.00356951
-0.0135846
-0.0121924
-0.0164276
-0.00227315
-0.0812683
-0.0120684
0.00480494
-0.00784154
-0.00190293
1.13349e-06
-0.00648812
0.00146473
-0.0070619
-0.000170552
-0.0032597
-0.010247
7.15652e-07
6.3794e-05
-0.028991
0.0010822
-0.0394565
-0.00818246
-0.000303532
-0.00702962
-0.000494536
-0.0241227
-0.0057039
-0.0362577
-0.00635904
-0.0120244
0.000145225
-0.00680039
-0.00103236
-0.00108052
-0.0117751
0.00156268
-0.0650776
0.00112485
-0.009502
-0.0168322
-0.00613042
-0.0355048
-0.00191192
-0.0414127
-0.000195893
-0.0368801
1.12794e-05
-0.0028879
-0.00213972
-0.00155989
-0.000429675
-0.00145332
-0.00593126
-0.0451781
-0.0578143
-0.00807617
0.00541631
-0.0416713
-0.0436597
-0.00813047
-0.00391141
3.58605e-05
-0.00328313
-0.00078583
-0.0237203
-0.00166944
-0.000680982
-0.00215848
-0.0168445
-0.000593201
-0.0525862
-0.0411003
-0.00404926
-0.0318955
-0.00201462
-0.000311468
-0.00596633
0.000522659
-0.00685153
-0.0818593
-0.0168738
-0.00609753
-0.000388172
-0.0141288
-0.00142875
9.34648e-05
-0.000309256
0.0016979
-0.000210021
-0.00486789
-0.040663
-0.00983773
-0.017147
-0.00574953
2.70166e-05
-0.0210614
-0.00759046
-0.0143117
-0.00514098
-0.0158596
-0.0331876
0.0011427
-0.0172653
-0.0632252
-0.0599268
-0.0296546
6.02589e-05
0.00131996
-0.00135498
-0.0081774
-0.000342773
-5.33705e-05
-0.000402088
-0.0906783
-0.047241
-0.0347263
7.71328e-05
-0.000577356
-0.0114451
-0.00926555
-0.0917207
-2.4807e-05
-0.021716
-0.000222924
-0.00958121
0.00492392
-0.0580152
-0.000745407
-0.000299068
-0.00283678
-0.000303326
-0.000257083
-0.0511603
-0.000664193
-5.4011e-06
-0.00807037
-0.0277803
-0.000129858
-0.000560724
-0.000267298
-0.000897217
-0.00985928
-0.00111888
-0.0176573
-0.00463928
-0.0387547
-0.000329055
-0.00027153
-0.0078572
-0.0588779
-0.00240488
-0.00472686
-0.000335836
-0.00664629
-6.81086e-06
-0.00895779
-0.0123861
-0.00154345
0.00104528
0.000532957
-0.0244834
-0.000415025
-0.0168369
-0.00947854
-0.0091925
-0.00274078
4.464e-05
-0.00164614
0.00221278
-0.0219965
-0.00643649
-0.000910487
-0.0059239
-0.00218495
-0.00332211
-0.00917337
-0.00250289
-0.0435874
-0.0177877
-0.0400816
-0.0548751
-0.0132778
-0.0121485
-0.0252846
-0.00713412
-0.0245121
-0.00254816
-0.000685398
-0.00940554
-0.00908115
-0.0114725
-0.0011236
-0.0243418
-5.4423e-05
-0.00842226
2.1205e-06
-0.00339593
-0.00996975
-0.000278374
-0.00696095
0.000164377
0.00178973
-0.00222713
-0.00145348
-0.016475
0.00688875
-0.000700845
-0.00500132
-9.39386e-05
0.000747375
-0.00518629
-0.00391318
-0.00105201
-0.00215395
0.000319851
-0.0127486
-0.0127597
8.46573e-06
-0.000650402
-0.00303077
-0.00132724
1.33838e-05
0.0179289
-0.000413123
-0.0112533
-2.58044e-07
-0.0167324
-0.0803005
-0.000180322
-0.0234804
-0.000211835
-0.0291437
-0.0207265
-0.0268582
0.00210977
-0.000974732
-0.00543639
-0.000215845
-0.00747421
-0.00043459
-0.00257153
-0.000179157
-0.0201864
-0.000162701
-8.90302e-05
-0.000443581
-0.0104942
0.00191653
0.00288362
-0.0417321
-0.000674426
0.000466215
-0.0100382
-0.000366765
-0.00235395
-0.00928277
-0.00209666
-6.07593e-05
-0.00439622
7.58549e-05
-0.0118966
-0.00331474
-0.0410354
-0.00236886
-0.000293454
9.18178e-05
-0.00285999
-0.0564494
-0.0141303
-0.00149082
-0.0639017
-0.00605587
-0.00182099
-0.00142502
-0.0275121
-0.00187643
0.00538509
0.000725298
-0.00197243
-7.01247e-05
-0.00132055
3.45935e-05
-0.000215017
-0.0219868
0.00971221
-0.000375767
-0.00272472
0.000854084
-0.0161866
-0.0267426
-0.0262064
-0.000139421
-0.025335
-0.00450324
-0.00854471