/*--------------------------------*- C++ -*----------------------------------*\
| =========                 |                                                 |
| \\      /  F ield         | OpenFOAM: The Open Source CFD Toolbox           |
|  \\    /   O peration     | Version:  v2012                                 |
|   \\  /    A nd           | Website:  www.openfoam.com                      |
|    \\/     M anipulation  |                                                 |
\*---------------------------------------------------------------------------*/
FoamFile
{
    version     2.0;
    format      ascii;
    class       volScalarField;
    location    "150";
    object      k_0;
}
// * * * * * * * * * * * * * * * * * * * * * * * * * * * * * * * * * * * * * //

dimensions      [0 2 -2 0 0 0 0];


internalField   nonuniform List<scalar> 
18618
(
0.0013015
0.0312038
0.00013199
0.0246156
0.000143974
0.000277987
0.00016299
0.0362483
0.000156992
0.00014418
0.000158106
0.000132097
0.0237518
0.000143061
0.000143811
0.000134545
0.000143662
0.0582796
0.000141194
0.000158171
7.01464e-05
0.000135846
0.000134367
0.00019163
0.000146415
0.000202718
0.000974713
0.000142002
0.000137098
0.000141875
0.000142986
0.000160995
0.000145765
0.000220819
0.00759575
0.000149933
0.00014702
0.000729959
0.000157701
0.000141728
0.000335142
0.000689673
0.000137414
0.000491809
0.000165838
0.000151691
0.0349939
0.000134292
5.47965e-05
0.0469508
0.00014234
0.000149516
0.00844597
0.000349748
0.00014442
0.0367803
0.000143427
0.000157649
0.000216903
0.000157386
0.00014213
0.000144036
0.000156608
0.000144174
0.000254396
0.023253
0.000139331
0.000163076
0.000135115
0.00835505
0.000157613
0.000182762
0.000179894
0.0713117
0.000144347
0.00016161
0.000253146
0.0486295
0.000134946
0.0159369
0.10332
0.0513116
0.0660893
0.000148325
0.000145719
0.000137329
0.000202123
0.000144145
0.000178611
0.0560403
0.000180248
0.000334876
0.000777928
0.000251479
0.00376917
0.000161901
0.000148186
0.00712279
0.000143207
0.000132622
0.0031553
0.000144055
0.0002748
0.000161399
0.000165148
0.00285761
0.000143799
0.000133584
0.00025664
0.000135652
0.00899675
0.000139906
0.000150237
0.000141349
0.000146333
0.000132889
0.000140466
0.00156967
0.000142808
0.000221741
0.0074722
0.000150156
0.0346375
0.0526764
0.00177128
0.000328203
0.000398346
0.0705294
0.000159536
0.000187328
0.000195982
0.000139762
0.0520498
0.000304704
0.000146015
0.000141215
0.000152389
0.000144884
0.0236745
0.000142438
0.000151414
0.000143243
0.000143952
0.000147793
0.000136225
0.000197572
0.000147288
0.000142264
0.00219335
0.000164003
0.000143082
0.00317463
0.0270832
0.000133878
0.000137441
0.00462203
0.000351284
0.0412813
0.00019959
0.000134563
0.000135885
0.00914161
0.000144775
0.000313389
0.000136226
0.00664222
0.000137422
0.000142607
0.102026
0.000150022
0.000144821
0.000133538
0.000197418
0.000180607
0.0390709
0.000162252
0.000388547
0.0667057
0.000133314
0.000135371
0.000174305
0.000181939
0.000149855
0.000148854
0.000374598
0.000148113
0.000153326
0.000173322
0.000421784
0.000166913
0.000152077
0.000179095
0.0388489
0.00014249
0.000250488
0.000239866
0.000175318
0.00627297
0.000150918
0.0463885
0.000286034
0.000420219
0.000157883
0.000155299
0.0980739
0.0606953
0.018417
0.00316238
0.000151545
0.0173299
0.000289839
0.000148873
0.00268504
0.00043634
0.000148811
0.000149358
0.000277329
0.0993923
0.000150124
0.00744958
0.000152535
0.000153909
0.000148259
0.000223308
0.000169703
0.000166744
0.000152089
0.000136184
0.00741278
0.000195505
0.00953664
0.000323051
0.000154961
0.000163056
0.000142397
0.000186128
0.000157565
0.000196204
0.000149311
0.00299525
0.000171543
0.000159959
0.000147419
0.000178204
0.00262511
0.000149897
0.000194433
0.0512672
0.00014978
0.000159131
0.00695658
0.000375182
0.00015523
0.0126302
0.000151835
0.000137249
0.000152218
0.000204281
0.000143792
0.000189482
0.000223002
0.000151999
0.000284544
0.0416884
0.000374186
0.00015136
0.000168137
0.000182615
0.000152174
0.000156554
0.000162456
0.00013421
0.00014209
0.00014209
0.000134387
0.00598147
0.000161361
0.000134476
0.0930789
0.000141928
0.000153765
0.000133992
0.0093527
0.0558699
0.000166713
0.011375
0.000149409
0.000192902
0.000135414
0.000193656
0.000141598
0.000158345
0.000145075
0.000149568
0.000344293
0.000136138
0.000143565
0.000150264
0.00552377
0.00151496
0.0105358
0.0130421
0.0488638
0.000186861
0.000199896
0.0519598
0.00776607
0.00014984
0.000150329
0.000180156
0.000145204
0.000163404
0.000154087
0.000142272
0.000163215
0.00784499
0.0202283
0.000183878
0.000151081
0.000152287
0.000162952
0.000282592
0.000171837
0.00778739
0.000151172
0.000270507
0.00892901
0.00013456
0.000187533
0.000146568
0.00014382
0.000141268
0.000178828
0.000144931
0.0001733
0.000151296
0.000336852
0.000179163
0.018648
0.0411029
0.000141558
0.0872887
0.000165253
0.00013134
0.000135497
0.000162749
0.000256729
0.000154681
0.0133533
0.000151742
0.00865984
0.000202572
0.000154134
0.000143819
0.0400604
0.000231161
0.000138672
0.000293314
0.000134332
0.000184927
0.00749892
0.0183708
0.00023978
0.00025918
0.0207994
0.0135028
0.000145698
0.000157172
0.000146614
0.000136162
0.000145674
0.000144686
0.013578
0.00864806
0.000136124
0.000150141
0.0137426
0.000142651
0.00029499
0.000146649
0.00017616
0.000160421
0.0919776
0.00365732
0.00014114
0.000150638
0.000137283
0.000279505
0.000136554
0.00014374
0.000135578
0.000289987
0.000151495
0.000135523
0.094347
0.0163844
0.000220521
0.01836
0.000135948
0.000158948
0.000150418
0.016034
0.000308795
0.00107246
0.00013705
0.0946688
0.000151918
0.000165577
0.000143737
0.000180914
0.000145769
0.087936
0.000732053
0.000789832
0.000151574
0.00024481
0.000140922
0.00016315
0.000145572
0.0136282
0.000144589
0.000152325
0.000163718
0.00749581
0.000419585
0.0001345
0.000158915
0.000145547
0.00014357
0.000157366
0.000142387
0.000141965
0.000151572
0.000291157
0.000178848
0.000145717
0.000194957
0.000145452
0.000408222
0.000152657
0.000464829
0.000628517
0.00015854
0.000156766
0.0757583
0.00016276
0.0106912
0.00120377
0.000150786
0.000170632
0.000153143
0.00417139
0.0376872
0.000152504
0.000230367
0.0163638
0.000144983
0.00965019
0.000137108
0.0517732
0.0413475
0.000154797
0.0443452
0.000140166
5.64999e-05
0.000189532
0.000453038
0.000151461
0.01362
0.000149903
0.000135085
0.000141539
0.000452302
0.000187519
0.000143187
0.000135655
0.000135915
0.0359695
0.00184708
0.000153323
0.0596464
0.000132974
0.000154762
0.000142427
0.000140558
0.00924127
0.00014664
0.000163432
0.000261096
0.0383403
0.000259806
0.000134996
0.000213128
0.000171296
0.0173667
0.000144312
0.0602271
0.000142211
0.000141884
0.000169313
0.00647039
0.000155761
0.00691295
0.000144903
0.000144416
0.000169114
0.000143425
0.000153926
0.000143082
0.00872608
0.0106536
0.000260093
0.000287736
0.000150767
0.000135625
0.000172116
0.0429709
0.000161366
0.0115428
0.000145087
0.033508
0.000163124
0.00014591
0.000208125
0.0235824
0.000188664
0.000134215
0.00016952
0.0101594
0.00931426
0.000141218
0.000188966
0.000149169
0.000140462
0.000142565
0.0187102
0.000250158
0.000147387
0.0717201
0.0883005
0.0410977
0.00764119
0.000165558
0.000413948
0.000178761
0.000152355
0.0420304
0.0361684
0.000207392
0.000192523
0.000179752
0.000150232
0.000149997
0.00021252
0.000211273
0.000145261
0.00014445
0.000255413
0.000166569
0.000171913
0.000154765
0.00764364
0.000150131
0.00658185
0.000154048
0.000146429
0.000256411
0.00014479
0.000151642
0.00715511
0.000144495
0.0918346
0.000318515
0.015212
0.000189608
0.000172024
0.0574631
0.000152443
0.000147354
0.000198077
0.000204985
0.00013577
0.000955686
0.00483261
0.000151662
0.000153131
0.000152433
0.000185498
0.000136615
0.000190895
0.000164462
0.0516764
0.00016609
0.00746156
0.000161134
0.0701216
0.000143695
0.000151623
0.0150678
0.000164236
0.00922765
0.000139714
0.000280943
0.000176103
0.00015258
0.000154243
0.00401196
0.000143669
0.000146498
0.000135754
0.000140377
0.0395626
0.000236097
0.000140437
0.00205014
0.000436571
0.000163045
0.00130821
0.000154214
0.000147651
0.000186283
0.000151289
0.000159664
0.00736118
0.000151788
0.000207145
0.000156458
0.00108143
0.000450371
0.000135797
0.000135386
0.000142562
0.00388416
0.000164618
0.0420865
0.000151389
0.000137031
0.000144144
0.000142878
0.000138928
0.000142659
0.000160707
0.000268268
0.0184006
0.000141427
0.00016301
0.0200605
0.000151133
0.00014458
0.00050532
0.000183881
0.000156215
0.000142662
0.000145775
0.00559578
0.000150444
0.0106707
0.000166321
0.000147044
0.000171751
0.000313334
0.000150158
0.0383712
0.0112312
0.0943723
0.000232013
0.000143857
0.000184241
0.00229901
0.00014228
0.000191812
0.00013388
0.000169534
0.000374633
0.0114981
0.000135324
0.0524715
0.000151074
0.0124712
0.000145428
0.000187153
0.000188807
0.000360019
0.0582663
0.000623613
0.000133169
0.0119953
0.000141355
0.0885061
0.000150562
0.000201014
0.000150851
0.000151836
0.000155623
0.000164385
0.00015106
0.000164017
0.000144503
0.000138827
0.000140537
0.000151998
0.000167893
0.000132962
0.000133662
0.00568569
0.00014304
0.00266758
0.000151879
0.000157523
0.000141064
0.000207653
0.00013238
0.00516778
0.000207721
0.0076073
0.000160776
0.000147291
0.000140912
0.000142574
0.000138473
0.000150968
0.000143769
0.000145191
0.00189303
0.000143887
0.0450616
0.0185565
0.000281637
0.000132342
0.00014242
0.000356168
0.0182751
0.00862556
0.000323972
0.00733058
0.0638547
0.0155813
0.0001707
0.0446018
0.000142913
0.000153394
0.000134371
0.000278662
0.000151458
0.000150657
0.000188
0.00015249
0.00548192
0.000146849
0.000479209
0.000214408
0.00504811
0.000273747
0.000242407
0.00850072
0.000168133
0.000142829
0.00014353
0.000178478
0.0839368
0.000517662
0.000146605
0.000140836
0.0103585
0.000180037
0.0079477
0.000149359
5.30816e-05
0.000155625
0.00728659
0.000149965
0.000142301
0.000135983
0.000142544
0.00015007
0.000143501
0.000149801
0.0714364
0.0860214
0.000142139
0.0580018
0.000144008
0.0582291
0.000273086
0.0102363
0.000136142
0.000187731
0.00998369
0.000134478
0.0124645
0.000144056
0.000141348
0.000161868
0.000146365
0.000473784
0.000146107
0.000141151
0.000272689
0.00014397
0.000169562
0.000143428
0.0514413
0.000136136
0.000152196
0.000169947
0.000150484
0.000164981
0.000157519
0.000154408
0.00015328
0.0121262
0.000160934
0.000131798
0.000151951
0.000140795
0.000147139
0.000234342
0.000181096
0.0979118
0.000147094
0.000149953
0.0114733
0.000142332
0.0531381
0.000205762
0.000131933
0.000150096
0.000401722
0.000154194
0.000159196
0.000143721
0.000145474
0.000150399
0.000156912
0.000481248
0.000163253
0.000175829
0.000150895
0.00552989
0.000220868
0.000223564
0.000146141
0.00821139
0.000165208
0.00378794
0.000144836
0.000147214
0.0119016
0.000150403
0.00321593
0.000177062
0.00460752
0.000146835
0.000140257
0.000143337
0.000159718
0.000149559
0.000146723
0.0148013
0.0510285
0.000152603
0.000248512
0.00281964
0.0153078
0.0204229
0.000188926
0.00276846
0.000133655
0.0167413
0.000141864
0.000230672
0.000177253
0.0107793
0.000134595
0.000147331
0.000143116
0.000144444
0.00849909
0.000165452
0.0183057
0.000139067
0.00017849
0.000845113
0.000158296
0.000142551
0.000156833
0.0117479
0.00892485
0.0194787
0.00022817
0.000146504
0.00100426
0.000150569
4.45654e-05
0.000215277
0.000287044
0.000212933
0.000287231
0.00822782
0.0032897
0.00014434
0.000209888
0.0891513
0.0261007
0.0399222
0.029414
0.0219021
0.000276264
0.0018572
0.0028284
0.000157573
0.000156533
0.000152539
0.0161094
0.0143883
0.0140294
0.000152645
0.00207189
0.000142951
0.000151915
0.00014453
0.000161381
0.000146635
0.000263506
0.000152709
0.00497151
0.000144918
0.000145486
0.000152268
0.00378038
0.00249629
0.000155964
0.0116958
0.000152381
0.0106661
0.000147674
0.000105927
0.000156869
0.000145852
0.00014073
0.000161688
0.00505303
0.000133842
0.000140857
0.048353
0.0563654
0.000131456
0.000150662
0.000152349
0.0455092
0.000140256
0.0001515
0.0377382
0.000152088
0.0206878
0.000138779
0.000153489
0.000237927
0.027181
0.00015063
0.000149471
0.000167896
0.0298624
0.000150642
0.000139129
0.000162407
0.000146948
0.00721371
0.000140502
0.06774
0.000146235
0.00024365
0.000163221
0.000159901
0.000147975
0.000142472
0.000142176
0.000169355
0.00697645
0.0618067
0.000225903
0.000178289
0.00014291
0.000162962
0.00014691
0.000152164
0.000228042
0.000138321
0.0621363
0.000144502
0.00013834
0.00198589
0.000140548
0.000144677
0.000992861
0.000144281
0.000147809
0.00015167
0.000142478
0.000143274
0.000148751
0.000156293
0.000234962
0.000144004
0.000264844
0.00812349
0.00916101
0.000148489
0.0162038
0.000166182
0.000143639
0.00031074
0.00895245
0.000188877
0.000185049
0.000147068
0.000141312
0.000165277
0.000131122
0.000145932
0.000152559
0.000155255
0.000242885
0.00727888
0.000155253
0.000136826
0.000165975
0.000265201
0.000143754
0.00702808
0.000163461
0.000248589
0.000144297
0.000147078
0.000217302
0.000258022
0.000152631
0.000140168
0.000141912
0.000149251
0.00171371
0.00014337
0.000156271
0.000162675
0.000141302
0.000220795
0.000150821
0.00014186
0.000156224
0.000137565
0.0534621
0.000227401
0.000141194
0.00781948
0.000149676
0.000232707
0.000212419
0.000151682
0.0001522
0.00631643
0.000139438
0.000139284
0.000168612
0.000153786
0.000760892
0.000141293
0.000269359
0.000152349
0.000155644
0.000146909
0.0872036
0.010205
0.000136645
0.00152804
0.000155345
0.000233187
0.00886485
0.000688191
0.042949
0.0179906
0.0823656
0.000141551
0.0127739
0.00207848
0.0156539
0.000156281
0.0152822
0.00820284
0.000143645
0.000161115
0.0147382
0.00014238
0.0460925
0.000161085
0.00062216
0.0171379
0.0119479
0.000153072
0.000323131
0.000250013
0.000152369
0.011961
0.000157552
0.000152404
0.000171445
0.000157572
0.00414313
0.0129443
0.000149615
0.000141474
0.000142882
0.000410627
0.000450396
0.000223047
0.000142357
0.000359889
0.000161288
0.000135853
0.000142745
0.000141761
0.000152204
0.000139211
0.00188638
0.00571404
0.000134725
0.000181777
0.00014214
0.00352538
0.000147033
0.00014355
0.000162957
0.0063542
0.000159595
0.0508843
0.000170179
0.00800386
0.000152046
0.000135897
0.000143192
0.000141705
0.000190984
0.000140252
0.000135537
0.000146246
0.00773087
0.000266481
0.000135414
0.000156531
0.000155751
0.000168415
0.000513328
0.00014509
0.000160278
0.00999585
0.000160797
0.0158744
0.00411211
0.000169475
0.0118818
0.0347698
0.0119104
0.000275295
0.00612662
0.000146542
0.000151085
0.000146955
0.00014397
0.000635579
0.000160497
0.000149997
0.000148036
0.000148121
0.000214942
0.000145296
0.0569449
0.000151082
0.000170806
0.000145073
0.000141986
0.000152933
0.000193806
0.000151403
0.000146969
0.000152256
0.000139391
0.00034873
0.000162407
0.000140383
0.000155529
0.000168134
0.000136618
0.00467696
0.017593
0.000261874
0.000150475
0.000142673
0.000228883
0.0732756
0.000373612
0.000176167
0.000167111
0.000675682
0.000182587
0.000151369
0.000150646
0.00614632
0.000141052
0.0153268
0.000145133
0.000150871
0.000174089
0.000140198
0.000141453
0.000132161
0.00366306
0.000336726
0.0993917
0.000154162
0.00132468
0.000190991
0.000143445
0.000141394
0.000265399
0.000145167
0.00969876
0.000189183
0.000293636
0.000181918
0.000203866
0.000182555
0.000147525
0.0138999
0.000153494
0.00954479
0.00127739
0.00014389
0.000581888
0.000271241
0.000969609
0.0432687
0.000151184
0.00202507
0.000141689
0.0550411
0.000178142
0.0222673
0.000407331
0.000141968
0.000142784
0.00513105
0.000225491
0.04264
0.000877323
0.000132022
0.000140763
0.000165006
0.000160298
0.000145487
0.00580339
0.000147394
0.0729879
0.000146109
0.000196772
0.000155607
0.000225038
0.000134546
0.00164676
0.000134404
0.000179608
0.000131978
0.00016534
0.000145698
0.000172941
0.000149702
0.000144245
0.0105211
0.000141782
0.00013889
0.00483404
0.000144164
0.000200492
0.0573581
0.00390683
0.000143529
0.00013778
0.000224847
0.0121895
0.000158572
0.00018874
0.000216252
0.00794508
0.000134213
0.00197988
0.000158556
0.00305153
0.000179865
0.000145333
0.000163306
0.000151695
0.00442862
0.000474039
0.0033579
0.000163832
0.000502422
0.018205
0.018386
0.00014201
0.000149505
0.000161688
0.000140224
0.000142039
0.000135033
0.000145135
0.000154377
0.000140519
0.000135403
0.000140181
0.000135284
0.000140752
0.000162026
0.000147221
0.0779502
0.000151842
0.000134082
0.0133783
0.000161064
0.0127409
0.013153
0.000221692
0.0484266
0.00014617
0.000355589
0.00014934
0.0110088
0.000145576
0.000360834
0.00020819
0.0464436
0.000144991
0.000150425
0.000223754
0.000195331
0.000194112
0.000138305
0.000144029
0.00937954
0.000184308
0.000167893
0.000146841
0.000145867
0.059671
0.000145186
0.000155287
0.00332373
0.00560375
0.0485531
0.000153274
0.000138835
0.000150807
0.000135477
0.000162614
0.00487276
0.0144901
0.000131342
0.000143343
0.0133249
0.000158611
0.0001516
0.000145551
0.00017681
0.000141781
0.000131854
0.000140751
0.000157899
0.000148549
0.000159753
0.00258544
0.01762
0.000177063
0.00017195
0.000144136
0.0306121
0.000250964
0.000171405
0.000146919
0.000232686
0.000253132
0.000145878
0.000140361
0.000140525
0.000238793
0.000174725
0.0132097
0.00488313
0.0104057
0.00014234
0.000201934
0.00526889
0.0217034
0.00933833
0.000535636
0.000145381
0.000599938
0.000162646
0.000206467
0.000143825
0.0078344
0.000146159
0.000162372
0.000149778
0.00847687
0.000145394
0.00377979
0.00021246
0.000151702
0.00013521
0.00016492
0.000150215
0.000147516
0.000161632
0.00232708
0.000144964
0.000155839
0.000143711
0.00299482
0.000155461
0.000153224
0.000149314
0.000145413
0.000155253
0.0928374
0.000184336
0.000149139
0.00032484
0.0154191
0.000139659
0.00444582
0.000140175
0.000144425
0.00883307
0.000147317
0.000148494
0.00014481
0.000143063
0.000164478
0.000154085
0.000171461
0.0458841
0.000156341
0.00014081
0.000180719
0.00483268
0.000141873
0.000222682
0.000136015
0.00690502
0.000144287
0.000155861
0.0093575
0.00013922
0.000154168
0.000145072
0.00431541
0.0336554
0.000141457
0.00931496
0.000132269
0.000135841
0.0470479
0.000142596
0.000177646
0.000170502
0.000179201
0.000189158
0.000208677
0.000140462
0.000158853
0.000135713
0.000224904
0.0097398
0.000154611
0.000172059
0.00014078
0.00401043
0.000145473
0.00357409
0.0159483
0.000149618
0.00013962
0.000206565
0.000217959
0.000272728
0.000139709
0.000132467
0.000190739
0.000147111
0.000138522
0.000161557
0.0381029
0.000159996
0.0359442
0.000142706
0.0112477
0.000132161
0.000164595
0.00027538
0.000557231
0.00481414
0.000146677
0.000139524
0.000221866
0.00014443
0.000144749
0.000362504
0.00946652
0.000188887
0.000144149
0.00145816
0.0101541
0.00498027
0.000155071
0.000146142
0.000143977
0.00015861
0.0130031
0.00017417
0.000138984
0.0624595
0.0140713
0.00450697
0.000169268
0.000147497
0.000215142
0.0275592
0.0745219
0.00979327
0.000140534
0.00019095
0.000169267
0.00247996
0.0134297
0.0617601
0.000179067
0.0237379
0.000137774
0.000141347
0.000144331
0.0336705
0.00014209
0.000153405
0.00445616
0.000161807
0.000165656
0.00014099
0.000149529
0.000168291
0.00242859
0.000233145
0.000142511
0.000143882
0.000159743
0.000201539
0.000144026
0.000164743
0.000566004
0.000144086
0.00622984
0.0173829
0.0123455
0.000144395
0.000161363
0.0385785
0.00992021
0.000144524
0.0644109
0.0714265
0.000150042
0.0201133
0.000152918
0.000161566
0.000172875
0.000151307
0.0531395
0.000429102
0.000145492
0.000150117
0.00059884
0.0023625
0.000152314
0.000161259
0.000613611
0.0482213
0.000145652
0.00905966
0.00850973
0.00013872
0.000141111
0.000160041
0.000291821
0.000154083
0.000193611
0.0900574
0.000140275
0.000195719
0.00656641
0.000259186
0.0392784
0.000138826
0.000194132
0.0346051
0.00387973
0.000161354
0.000158116
0.0740542
0.00172544
0.000160129
0.000142836
0.0133331
0.000188432
0.000171238
0.000155358
0.00781243
0.000139187
0.000145221
0.000419313
0.000507039
0.000183635
0.0060584
0.000300001
0.000153293
0.000146622
0.000283048
0.000145171
0.000259885
0.0167722
0.0142567
0.000152959
0.000149619
0.00952922
0.0001447
0.000134741
0.00359709
0.000141962
0.000147772
0.0599117
0.000153341
0.000145115
0.000194942
0.000180679
0.000160566
0.00036374
0.0126961
0.00244566
0.000232645
0.0211164
0.000330314
0.000563142
0.000155343
0.000156036
0.000156266
0.0170838
0.0116785
0.000157976
0.000138971
4.99566e-05
0.000166596
0.00236804
0.000196782
0.000159992
0.000154314
0.000158103
0.000249899
0.000136315
0.000156168
0.000152836
0.000167275
0.0538701
0.000155681
0.00019486
0.000144161
0.00330362
0.00801179
0.000160744
0.000111215
0.00015915
0.000252417
0.0684167
0.000189193
0.00014283
0.000150445
0.00362617
0.000143333
0.000155903
0.0234075
0.000156871
0.000158672
0.0910299
0.000143572
0.000140964
0.00713915
0.000377281
0.000155058
0.00762716
0.00601276
0.000141001
0.000162456
0.0754352
0.000160749
0.000160553
0.000144753
0.000152445
0.000367464
0.000172872
0.000184414
0.000131611
0.00015522
0.000160891
0.000134635
0.019888
0.000156257
0.00639417
0.00022043
0.000141228
0.000152539
0.0107452
0.00308208
0.00014367
0.000151457
0.0423011
0.000166913
0.0552294
0.0406661
0.000160906
0.00942768
0.0860841
0.000306477
0.000145244
0.000158098
0.000291964
0.000152201
0.010777
0.000171946
0.000140858
0.00522835
0.000187917
0.000177587
0.000159395
0.000368679
0.0472861
0.000145112
0.000150618
0.000174845
0.000183758
0.000155687
0.00014167
0.00511452
0.0031078
0.0102157
0.00890974
0.000217567
0.000155686
0.000228849
0.000138149
0.000131141
0.0119377
0.000150311
0.000159426
0.000170571
0.000154801
0.0255647
0.000150793
0.0358406
0.0207002
0.000172863
0.000347271
0.000473695
0.000147607
0.0001562
0.00094294
0.000137771
0.000199612
0.00269157
0.000232777
0.000321842
0.00014245
0.00255404
0.00810934
0.00422304
0.00294207
0.000132781
0.0059512
0.0142629
0.000264128
0.00330133
0.000151465
0.0353771
0.00644972
0.00328053
0.00749593
0.00014531
0.00289581
0.00687941
0.0597472
0.000459269
0.00337839
0.059074
0.0614712
0.000153491
0.000156464
0.060267
0.000140515
0.000145541
0.000135147
0.0273192
0.000183544
0.000160257
0.0112333
0.000142822
0.0148143
0.0050877
0.000169567
0.000139188
0.000137646
0.00593188
0.0766273
0.000144477
0.000148869
0.000298443
0.000402186
0.000164189
0.000144117
0.000150444
0.000147158
0.000139978
0.0118648
0.000171726
0.00907123
0.00347666
0.000152637
0.0661474
0.000142531
0.000144408
0.000145954
0.000144644
0.000195755
0.000147465
0.000153413
0.00332641
0.000149641
0.000163362
0.00014861
0.000142918
0.000250993
0.000146019
0.000132584
0.000144335
0.00015279
0.000178088
0.000150375
0.000138251
0.000196
0.03994
0.00018726
0.0001539
0.000146422
0.0001442
0.022046
0.000151692
0.00843605
0.000143615
0.000311568
0.000137503
0.000157397
0.000139079
0.00016134
0.00818232
0.101731
0.0122163
0.000159646
0.00781354
0.000217624
0.00665118
0.000142118
0.00576743
0.00185684
0.000137761
0.00112814
0.056324
0.0416105
0.000187557
0.000146035
0.00018656
0.000262025
0.000147529
0.0324087
0.000126425
0.000149078
0.0105623
0.000150442
0.000146356
0.000378566
0.000152621
0.000152023
0.0791199
0.00395845
0.000208793
0.000155097
0.000148077
0.00186497
0.000146927
0.00584377
0.000221583
0.000138986
0.000186362
0.000145795
0.00583598
0.00264083
0.000159672
0.000310274
0.000158827
0.000510715
0.00051353
0.000230059
0.0116097
0.000152345
0.0344954
0.000154891
0.0001581
0.000159651
0.000236584
0.00977484
0.000144882
0.000196292
0.000148382
0.00226802
0.000287518
0.0174162
0.000189184
0.000149868
0.000151099
0.0475928
0.0153364
0.000147139
0.000396291
0.0580544
0.00021595
0.00131728
0.00627728
0.000194863
0.000212204
0.000212095
0.0263325
0.0419137
0.000211772
0.000151012
0.000149144
0.0544907
0.000150453
0.000143558
0.000667701
0.00843077
0.000176035
0.000156952
0.000239645
0.00206837
0.000138054
0.000150203
0.000140071
0.00889263
0.000161287
0.000192183
0.000148701
0.00541263
0.0704584
0.000217785
0.0123086
0.000159804
0.000153992
0.000208631
0.00326941
0.000232506
0.000180629
0.00755289
0.00970393
0.000139707
0.000173662
0.000150915
0.000328451
0.000209639
0.00365565
0.000154428
0.00016598
0.000177955
0.000346119
0.000222586
0.032719
0.000328641
0.000276657
0.00703707
0.000149833
0.0372194
0.000169552
0.000168585
0.0924243
0.000175261
0.000316007
0.00013691
0.000144993
0.000150758
0.00142367
0.0725187
0.000240283
0.0691587
0.000141316
0.015726
0.000141621
0.00620324
0.000154177
0.00014341
0.000145197
0.00015557
0.00730035
0.000170364
0.000160745
0.0765566
0.0369997
0.00110841
0.000139051
0.000143671
0.000161977
0.000194963
0.000240698
0.000145856
0.000151149
0.00666765
0.0461257
0.0634275
0.0121218
0.000174493
0.000410398
0.00113466
0.000148387
0.000145325
0.00892305
0.000181837
0.0122418
0.000140063
0.00182669
0.000154437
0.00014538
0.000231136
0.0233674
0.000154368
0.0403287
0.000190638
0.000144701
0.0380417
0.000154544
0.00016766
0.000142952
0.000144004
0.000190163
7.62981e-05
0.0426002
0.000160213
0.000155373
0.0683304
0.000827383
0.00155682
0.000156339
0.0111042
0.000147687
0.000177028
0.00708195
0.0538802
0.000162192
0.00439866
0.00967177
0.000145045
0.0813587
0.000180919
0.000139445
0.000231782
0.000249069
0.000393395
0.000183718
0.000143673
0.000795828
0.000144593
0.000137977
0.000142991
0.000168734
0.00456732
0.000177658
0.000238392
0.000159018
0.0025981
0.000157782
0.000250529
0.0114665
0.000143473
0.00677343
0.0579111
0.00327393
0.0988433
0.000153328
0.000145952
0.000242682
0.000300758
0.00014363
0.000150059
0.000383461
0.000216728
0.0372935
0.00014529
0.000159297
0.000532417
0.000145509
0.000825443
0.000144981
0.000147236
0.000158693
0.000146855
0.0061296
0.000152362
0.000144797
0.000138455
0.000196997
0.000136568
0.000213376
0.000151037
0.000145361
0.0196399
0.000256339
0.000183374
0.000150813
0.000156032
0.000187909
0.000173368
0.0237311
0.000138585
0.00322025
0.0001529
0.0087644
0.000157418
0.000147007
0.0001452
0.000178138
0.000279769
0.000146838
0.00019375
0.000151847
9.32151e-05
0.000145334
0.000145325
0.000146007
0.000171738
0.0245333
0.00275949
0.0349645
0.0336031
0.000153148
0.000175784
0.000152486
0.00109805
0.00104639
0.000169317
0.00609504
0.000461166
0.0290401
0.00624962
0.000139614
0.000495701
0.000148575
0.000162196
0.00710825
0.00013826
0.000143226
0.0267332
0.0374898
0.00015544
0.000163688
0.00017681
0.000155202
0.00594761
0.000259733
0.000142555
0.0688611
0.0188108
0.0154506
0.0094287
0.00189498
0.000166465
0.0117578
0.00719139
0.0433778
0.000150293
0.0885279
0.000145588
0.000152593
0.00414133
0.000220721
0.000383232
0.000144953
0.000636736
0.0101438
0.00014492
0.000138439
0.000154464
0.000194107
0.000167483
0.000218442
0.0130668
0.0100428
0.00922654
0.0360993
0.000155012
0.000149044
0.00501916
0.0124502
0.000151552
0.000162041
0.000191618
0.000295555
0.000159568
0.000139624
0.015288
0.075621
0.0403921
0.00013928
0.000668207
0.0001464
0.000135055
0.000161817
0.00997768
0.00025293
0.000207882
0.000132526
0.00955251
0.000134857
0.000144851
0.0757734
0.00396958
0.000150711
0.000160674
0.000155845
0.000160142
0.000177829
0.00015586
0.00014
0.0113024
0.000151082
0.000149786
0.000155489
0.000125431
0.000149513
0.000659184
0.00353771
0.000153608
0.00071904
0.000233586
0.000573125
0.0641797
0.000153553
0.000589519
0.000140225
0.000160978
0.0428325
0.034589
0.000153048
0.0622016
0.00044627
0.0100091
0.0174936
0.0972882
0.0925047
0.000151839
0.0100417
0.000153818
0.00309668
0.000136136
0.000157677
0.00019497
0.000870332
0.000142798
0.000155203
0.000199487
0.000150031
0.0877568
0.000159972
0.0571353
0.000156326
0.00013927
0.00502127
0.000144645
0.0303642
0.00014753
0.000231105
0.000472877
0.000149676
0.0366125
0.000144885
0.00886309
0.0844523
0.05099
0.000142729
0.000325334
0.000155722
0.0001644
0.000138565
0.000150019
0.00993192
0.000284846
0.00991309
0.000268631
0.000165284
0.000147537
0.00540097
0.0187901
0.00594135
0.000889206
0.000162566
0.000665629
0.000386188
0.000161852
0.0382832
0.000164693
0.00749361
0.000158282
0.000148868
0.0117865
0.000147292
0.000177198
0.000159314
0.0424881
0.000131343
0.000146245
0.000131084
0.00015538
0.000146318
0.0071203
0.06714
0.000179567
0.0112532
0.000190321
0.00119167
0.000156695
0.000188545
0.0563596
0.00521656
0.000143632
0.000140544
0.0200799
0.000138197
0.00049448
0.000143313
0.000142721
0.000143639
0.0832763
0.00873909
0.000153585
0.0105316
0.0933344
0.000152405
0.000157524
0.000144748
0.000167891
0.0153219
0.0796278
0.0237258
0.0787977
0.000191851
0.00019081
0.000154351
0.0442296
0.0732973
0.000151403
0.000144141
0.00878978
0.000160478
0.000159774
0.00017427
0.00663552
0.0371105
0.000810503
0.000149869
0.00018551
0.00584754
0.000154883
0.000136229
0.0686419
0.000153262
0.000113524
0.000156124
0.000148177
0.000143743
0.0097485
0.000282176
0.000155002
0.00022162
0.084642
0.0245876
0.000155002
0.0675203
0.000150797
0.000144355
0.000259681
0.000155802
0.000143764
0.000348754
0.000146111
0.000164526
0.000182077
0.000198249
0.000165024
0.000146696
0.000147701
0.00477216
0.000167306
0.000143617
0.00014982
0.0614668
0.000192125
0.000150231
0.000170886
0.000155468
0.00353976
0.000172863
0.00845399
0.000240416
0.000259957
0.0789126
0.000160115
0.000201019
0.000153214
0.00960061
0.000183818
0.000520477
0.0377474
0.00368076
0.000166591
0.000142802
0.000139883
0.0282703
0.0663815
0.0239341
0.000147453
0.000186874
0.000146572
0.0417691
0.0145508
0.0191495
0.000142427
0.072993
0.00723397
0.00014505
0.0948914
0.0356606
0.0194449
0.000144319
0.000178674
0.000224378
0.000137652
0.00024005
0.00515276
0.00939967
0.000174524
0.0086794
0.0568191
0.000338497
0.000157959
0.059195
0.000176847
0.000153604
0.0416097
0.000311974
0.000164252
0.0588809
0.00843944
0.00821912
0.000239515
0.0437741
0.000153074
0.000275885
0.000151019
0.000140255
0.0718289
0.00017065
0.000139604
0.000192724
0.000148543
0.000153467
0.000169682
0.0147637
0.000156409
0.000196334
0.0333316
0.0001455
0.000182709
0.000157063
0.000162996
0.0516908
0.0114132
0.000154127
0.000184523
0.00014419
0.000222239
0.0111269
0.000317464
0.000159999
0.000143395
0.0554819
0.000137111
0.00833359
0.000143999
0.000198346
0.000230557
0.000214349
0.000151572
0.000880388
0.000213982
0.000153949
0.00708913
0.000134671
0.000149044
0.000146371
0.00985635
0.000154088
0.000199538
0.000171476
0.00787733
0.00014382
0.000240522
0.000326542
0.0885566
0.0373365
0.000173612
0.000156015
0.000153978
0.000167898
0.000943355
0.000146596
0.000178166
0.0333265
0.000149523
0.000154251