/*--------------------------------*- C++ -*----------------------------------*\
| =========                 |                                                 |
| \\      /  F ield         | OpenFOAM: The Open Source CFD Toolbox           |
|  \\    /   O peration     | Version:  v2012                                 |
|   \\  /    A nd           | Website:  www.openfoam.com                      |
|    \\/     M anipulation  |                                                 |
\*---------------------------------------------------------------------------*/
FoamFile
{
    version     2.0;
    format      ascii;
    class       volScalarField;
    location    "150";
    object      omega_0;
}
// * * * * * * * * * * * * * * * * * * * * * * * * * * * * * * * * * * * * * //

dimensions      [0 0 -1 0 0 0 0];


internalField   nonuniform List<scalar> 
18618
(
0.238802
2.30318
0.0196664
0.944767
0.0210356
0.0839222
0.0292962
2.35805
0.0241337
0.0214189
0.0251162
0.0196807
0.950399
0.0211229
0.0210213
0.0200389
0.0209578
3.07499
0.0207871
0.0245497
0.0205326
0.0199161
0.0200116
0.0580583
0.0218269
0.0546198
0.196582
0.0208505
0.0204642
0.0207366
0.0212087
0.0263321
0.0214853
0.0830022
0.297044
0.0218416
0.0214664
0.225381
0.0250905
0.0207202
0.138656
0.147278
0.0201914
0.378964
0.0248128
0.0223791
2.32939
0.0199283
0.0974785
2.48515
0.0208709
0.0218157
0.497914
0.134262
0.0216336
1.52665
0.0212885
0.0244021
0.0793937
0.0247748
0.0207457
0.0215494
0.0242449
0.02133
0.122665
1.86676
0.0208668
0.0287593
0.0201003
0.516505
0.0248547
0.108501
0.0475221
3.11033
0.021359
0.0277854
0.088453
2.50786
0.0200841
2.46725
4.21069
2.94367
2.88088
0.0219795
0.0214787
0.0201807
0.0702878
0.0214255
0.0356177
3.03169
0.0483628
0.072961
0.705215
0.0892458
0.367777
0.0281046
0.0215648
0.682859
0.0211866
0.01976
0.353746
0.0213224
0.0878649
0.026643
0.0260748
1.53201
0.0215254
0.0198888
0.123037
0.0202453
0.946135
0.020765
0.0219671
0.0207362
0.0213024
0.0198004
0.0210524
1.20772
0.021141
0.11624
0.704827
0.0219433
1.50102
2.97346
0.284384
0.0628201
0.144241
3.29711
0.0259346
0.0665876
0.0795049
0.020756
2.87642
0.0667041
0.0212738
0.0206604
0.0229337
0.0214876
2.2051
0.021352
0.0228409
0.0214866
0.0215359
0.0215302
0.0201022
0.0518746
0.0214843
0.0208611
1.46014
0.0299775
0.0212047
1.58034
2.27347
0.0199304
0.0204325
0.305268
0.42907
2.06013
0.0651156
0.0199098
0.0203284
0.403707
0.0214796
0.100373
0.0202154
0.66954
0.0204282
0.021371
4.1713
0.0219278
0.021472
0.0198293
0.0818323
0.0517643
1.96221
0.0281502
0.0626315
3.15725
0.0198123
0.0201279
0.0417441
0.0537964
0.0218279
0.0216424
0.146759
0.0222719
0.0231985
0.0402643
0.0741932
0.114004
0.0222951
0.0494896
2.02441
0.0213695
0.129059
0.0331409
0.0431459
0.610633
0.0225754
3.12823
0.0585166
0.272934
0.0251238
0.0236153
4.10857
2.88017
2.50195
1.56941
0.0222909
1.45587
0.063538
0.0223988
1.48814
0.37257
0.0216356
0.0217307
0.039902
4.15795
0.0219464
2.26463
0.022314
0.022867
0.0223089
0.161914
0.0327155
0.0315265
0.0222108
0.0202086
0.29427
0.0614616
1.22117
0.098473
0.0236035
0.0288318
0.0211132
0.0638186
0.0247695
0.0280268
0.0217232
0.353037
0.0388818
0.0255764
0.0216675
0.0351917
0.338688
0.0219124
0.061109
4.35847
0.0225494
0.0256635
0.474348
0.0489777
0.0235641
2.20131
0.0223529
0.02048
0.0224496
0.0702631
0.0209633
0.0579625
0.163567
0.0223926
0.0903064
2.50192
0.0520141
0.0220597
0.0344355
0.0646602
0.0224204
0.0242843
0.0284187
0.0198819
0.0207506
0.0208611
0.0199264
0.630932
0.0244835
0.0199368
3.9853
0.0207321
0.0228022
0.0198685
2.16613
4.06831
0.0312877
0.517768
0.0222283
0.0483627
0.0198782
0.0813647
0.0206926
0.0254111
0.0215643
0.0222499
0.429696
0.0203058
0.0209447
0.0219583
0.599797
1.19344
0.544881
1.18287
2.59339
0.06057
0.0660787
3.1754
0.389427
0.021941
0.0219775
0.0511023
0.021197
0.0256361
0.0228691
0.0207634
0.0293006
0.382745
1.46865
0.0241822
0.0220013
0.022932
0.0255336
0.130665
0.038332
0.394891
0.0220327
0.0346938
0.649921
0.0199343
0.0614018
0.0216562
0.0215463
0.0207265
0.0495229
0.0211756
0.0250723
0.0220605
0.105149
0.0264566
2.56951
2.8522
0.0206748
3.81379
0.0247696
0.0195757
0.0201341
0.0254735
0.0379089
0.0234089
0.548866
0.0223437
0.486865
0.0680896
0.0229067
0.0213716
1.93208
0.140724
0.0207244
0.259489
0.0198948
0.0495631
0.462577
2.09318
0.187381
0.0381819
2.16062
0.70631
0.0214675
0.0245957
0.0305514
0.0200948
0.02177
0.0214686
0.561285
0.492698
0.019941
0.0220307
0.691337
0.0209055
0.0694916
0.0431324
0.0337946
0.0258991
3.76456
0.408298
0.0207802
0.0220114
0.0202828
0.24701
0.0204364
0.0213721
0.0199912
0.059133
0.0223221
0.0199909
4.03216
0.667634
0.113711
2.51065
0.0201913
0.0243768
0.0219631
0.896856
0.0729051
1.05097
0.0202654
3.83436
0.0221752
0.030159
0.0215507
0.0440885
0.0212475
3.66774
0.414768
0.227718
0.0225934
0.201148
0.0207158
0.0279017
0.0215397
0.896735
0.0214606
0.022427
0.0247577
0.298363
0.172549
0.0200533
0.0243484
0.0574581
0.021482
0.0245706
0.0207668
0.0208603
0.0220989
0.0633952
0.042401
0.0215504
0.0784579
0.0212224
0.677218
0.0230011
0.143527
0.385667
0.0231224
0.0229482
3.45087
0.0276097
1.12287
1.0429
0.0219347
0.0339276
0.0230894
1.81556
1.51639
0.0224456
0.139145
2.49644
0.0215434
0.483108
0.0205192
2.90945
1.54762
0.0234151
2.70646
0.0205393
0.214761
0.0638983
0.366057
0.0222926
0.691837
0.0219892
0.019995
0.0208122
0.15482
0.0572432
0.0212259
0.0201645
0.0201861
2.66708
1.2799
0.0231789
3.08963
0.198793
0.0234192
0.0211082
0.0210618
0.468996
0.0214384
0.0296533
0.0825066
1.5255
0.202719
0.0199849
0.032429
0.0347374
0.888298
0.021641
2.7836
0.0210888
0.0208384
0.0298124
1.1015
0.0235168
0.690337
0.0213885
0.0214431
0.0319693
0.021456
0.0232292
0.0214363
0.383165
1.00942
0.201702
0.0415666
0.0219549
0.0201604
0.0258892
1.56407
0.0251419
0.67018
0.0211267
2.02199
0.0258147
0.0219269
0.0730755
2.60456
0.0457814
0.0199791
0.0295943
0.992247
0.406945
0.0207338
0.0678812
0.0216857
0.0206436
0.0211181
2.52979
0.131537
0.0220663
3.30352
3.68144
1.55361
0.468758
0.0271284
0.288107
0.0504021
0.0224556
1.75707
1.50553
0.057325
0.0737898
0.0507791
0.0220893
0.0219421
0.113436
0.110152
0.0216698
0.0214581
0.118475
0.0310055
0.0350902
0.0233822
0.474655
0.0218549
0.327571
0.0231924
0.0217226
0.160567
0.0213786
0.0223416
1.20305
0.0214483
3.76039
0.13123
0.696607
0.0644757
0.0354397
3.10599
0.0223878
0.021455
0.0658746
0.029958
0.0200559
0.952411
0.34643
0.0223534
0.0231607
0.0224892
0.0276365
0.0204376
0.0597095
0.0266923
2.8933
0.0262669
0.294747
0.0261281
3.27841
0.0215682
0.0231366
0.884701
0.0262187
0.399902
0.020937
0.16826
0.0405239
0.0225102
0.0232332
0.381021
0.0210029
0.0213098
0.0201448
0.0206537
3.74806
0.0646199
0.020559
1.31085
0.376882
0.0270476
1.11305
0.023239
0.0215137
0.0548881
0.0222805
0.0260953
2.25746
0.0222659
0.0736676
0.0242747
1.11536
0.297126
0.0200608
0.0201361
0.0211433
0.671027
0.0276794
2.87223
0.0220642
0.0204518
0.0211012
0.0213916
0.0207587
0.0213571
0.0249815
0.0854411
0.689498
0.0211756
0.0267456
1.8032
0.0221091
0.0217047
1.06685
0.0485435
0.0238556
0.0211299
0.0217519
0.648808
0.021984
0.49776
0.0274287
0.0216167
0.0388982
0.124351
0.0219707
3.7401
0.476307
3.82564
0.137914
0.0212311
0.0521842
1.39252
0.0213132
0.0625153
0.0198565
0.031951
0.0771725
2.59197
0.020129
2.33881
0.0219871
0.683748
0.0215973
0.0648756
0.0585799
0.115437
2.62627
0.213791
0.0197973
1.88313
0.0206522
3.85243
0.0219708
0.068447
0.0221683
0.0224013
0.0236873
0.025165
0.0219951
0.0257862
0.0216953
0.0203272
0.0210687
0.0223061
0.0321142
0.0197788
0.0198422
0.643229
0.0214469
0.338878
0.0228501
0.0246639
0.0207183
0.0585546
0.0197146
0.629987
0.0292767
1.10868
0.0509945
0.0216326
0.0211019
0.0212471
0.0202616
0.0219966
0.0212278
0.0214487
1.45076
0.0209764
2.87109
1.10798
0.16531
0.01971
0.0212178
0.417856
0.887201
0.818338
0.164146
0.461
3.03952
0.889931
0.0340011
2.86605
0.0211595
0.0231016
0.0199957
0.0980999
0.0221933
0.0221077
0.0584529
0.0229079
0.727732
0.0213629
0.155691
0.103696
0.985477
0.239896
0.122177
0.394457
0.0319516
0.0211502
0.0209755
0.0269627
3.57217
0.821579
0.0219178
0.0206936
0.807737
0.0443183
0.398891
0.0217586
0.0476594
0.0236998
0.493081
0.0219445
0.0213185
0.0200189
0.0208541
0.0219793
0.0212087
0.0219172
3.29943
3.62949
0.0212882
2.62113
0.021349
3.11007
0.241559
0.675043
0.0200327
0.0347274
1.80863
0.0199242
1.26983
0.0214013
0.0207119
0.0270568
0.0218979
0.826107
0.02147
0.0206388
0.0940586
0.0213937
0.0355524
0.0212064
2.68829
0.0202977
0.0223534
0.0256155
0.0219997
0.0308431
0.0249641
0.0232812
0.0227283
1.1066
0.0268384
0.0196336
0.0223639
0.020688
0.0215138
0.0899872
0.0478309
3.91618
0.0214903
0.0223467
0.4688
0.0210968
2.36733
0.0833217
0.0196448
0.0218164
0.342841
0.0233922
0.0257433
0.0210875
0.0216409
0.0218984
0.0236421
0.558241
0.027998
0.033486
0.0219655
1.06341
0.142643
0.0239358
0.0213984
0.401127
0.0251123
0.908721
0.0212861
0.0215024
1.09518
0.0219494
0.834321
0.0421306
1.94042
0.0218179
0.0209942
0.0209204
0.0260736
0.0225197
0.0215907
0.68555
2.68939
0.0223052
0.0988027
0.547734
1.92664
0.921959
0.0681491
0.29391
0.0198039
0.912308
0.0208125
0.130473
0.0422132
1.23782
0.0199272
0.0215272
0.0208961
0.0210353
0.401759
0.02712
1.53605
0.0206578
0.0424291
0.40937
0.0240967
0.0208936
0.0240541
0.831254
1.02668
0.891409
0.117617
0.0214242
0.481995
0.0219011
0.0285568
0.0364377
0.0602506
0.101486
0.0875471
0.313832
0.269913
0.0216278
0.0887678
3.70859
1.53143
4.92701
2.33007
0.932859
0.0818015
0.446721
0.799594
0.0238629
0.0243774
0.0223117
0.68146
0.87454
2.45213
0.022731
0.265846
0.0214385
0.0222593
0.021049
0.0267557
0.0218488
0.167294
0.0223251
1.83371
0.0214979
0.0217041
0.0224033
1.97494
0.329726
0.0240225
1.33114
0.0222714
0.471376
0.0221112
0.0264701
0.0236325
0.0212322
0.0206645
0.0258461
0.776211
0.0198128
0.0207973
3.04959
2.91674
0.0287357
0.0220259
0.0224924
2.72722
0.0209828
0.0223359
1.96794
0.0223589
6.34463
0.0204274
0.0230004
0.030726
2.23465
0.0219901
0.021763
0.0176103
2.34136
0.0225662
0.0204528
0.0262508
0.0215622
0.946893
0.0206465
3.135
0.0212948
0.043832
0.259525
0.0245711
0.0218702
0.020844
0.02084
0.0327673
2.0182
2.97899
0.0888801
0.0423714
0.0211525
0.0278005
0.0214825
0.0222166
0.118232
0.0203608
3.09137
0.0212891
0.0203649
0.45744
0.0205627
0.021298
0.251285
0.0212886
0.0224868
0.0226337
0.0207803
0.039757
0.0219898
0.0234621
0.145437
0.0211057
0.207117
0.381994
0.955705
0.0223498
0.673284
0.0257175
0.0213601
0.0940964
0.407345
0.0291108
0.0536227
0.0217376
0.0206926
0.0251499
0.0195449
0.021461
0.0224785
0.0232734
0.137156
0.940163
0.0233424
0.0202534
0.0264001
0.211038
0.0213737
2.03049
0.0281662
0.0536753
0.0212594
0.0214985
0.141312
0.219932
0.0229039
0.0210027
0.0212871
0.0216998
0.435352
0.0209314
0.0243712
0.0275863
0.0208889
0.142137
0.0221384
0.0208308
0.024224
0.0202972
3.09705
0.125329
0.0206179
0.307068
0.0218757
0.126171
0.0295245
0.0223671
0.0223559
0.666243
0.0206893
0.0206793
0.0311285
0.0231099
0.134931
0.0211506
0.17374
0.0224574
0.023256
0.0215627
3.65434
0.996571
0.0202399
0.571739
0.0235745
0.0944479
1.20713
0.103174
2.86168
0.679106
3.64855
0.0207699
0.496753
0.408257
2.44804
0.0243662
0.708961
0.313187
0.0215487
0.0252518
0.550915
0.0208889
2.88845
0.0254428
0.399367
0.671122
0.850502
0.0230828
0.0719636
0.0486696
0.0222688
0.833996
0.0250158
0.0228697
0.0347808
0.0247307
0.337566
0.493507
0.0218943
0.0206342
0.0210995
0.263645
0.362573
0.0877976
0.021297
0.301215
0.0266331
0.0203257
0.02107
0.0212102
0.0224192
0.0206699
1.27839
1.02088
0.0201326
0.0491001
0.260103
0.409302
0.0220319
0.0215499
0.0256877
0.650662
0.0244577
2.70195
0.0369757
0.344078
0.0223285
0.0201502
0.0212304
0.0214065
0.0656342
0.0204909
0.0201291
0.0213763
0.306474
0.230781
0.0200183
0.0239721
0.023304
0.0272493
0.184805
0.0211458
0.0253861
1.00457
0.0254247
2.45164
0.471187
0.0356536
0.656289
3.59799
0.60926
0.0924115
0.648463
0.0217883
0.0221125
0.0216065
0.0209783
0.0809645
0.025869
0.0217879
0.0215564
0.0215682
0.116807
0.0214529
2.64717
0.0222214
0.0369734
0.0211427
0.0207274
0.0228373
0.0692805
0.0222023
0.0213862
0.0227818
0.0208844
0.0411448
0.0271873
0.0204835
0.0236745
0.0288104
0.0199899
0.573926
2.54289
0.168406
0.0219483
0.0208769
0.123892
3.19302
0.139307
0.0409375
0.0254294
0.443646
0.0451095
0.0220763
0.0221149
0.641989
0.0207292
1.36147
0.0214519
0.0221537
0.039128
0.0204758
0.0207586
0.0196881
0.308197
0.175283
3.95676
0.0232319
0.474709
0.0660676
0.0209177
0.0206479
0.0515882
0.0214036
2.14357
0.0670675
0.0659676
0.0461131
0.0766348
0.0496249
0.0214922
0.86365
0.0231778
0.452871
0.42766
0.0209658
0.176957
0.0888516
0.375183
1.75093
0.022055
0.605659
0.0207055
2.88838
0.0419294
1.46913
0.808773
0.020801
0.0211938
0.61942
0.078043
2.85019
0.17251
0.0196703
0.0205356
0.0270985
0.026416
0.0215294
0.856067
0.0215909
3.26848
0.0213487
0.0631683
0.0233519
0.131464
0.0201041
0.208003
0.0199405
0.0438225
0.0196442
0.0257047
0.0212631
0.0405701
0.0218006
0.021428
0.839308
0.0208509
0.0207533
0.328468
0.021253
0.0724944
2.6913
0.310243
0.0213469
0.0203122
0.0403382
0.513847
0.0253307
0.0289398
0.0445818
0.720632
0.0198497
0.303432
0.0252911
0.741084
0.05174
0.0214163
0.0271365
0.0228571
0.73014
0.38554
0.315281
0.0256186
0.36751
0.924107
2.51574
0.0208306
0.0219219
0.025222
0.0208114
0.0208106
0.0200945
0.0212193
0.023543
0.0205054
0.0201234
0.0208062
0.0200983
0.02058
0.0256799
0.0214351
3.46887
0.0229413
0.0198366
0.691628
0.0262833
0.682553
0.520604
0.11462
4.57593
0.0213129
0.316925
0.0218911
0.497556
0.0212384
0.320214
0.10553
2.91005
0.0211113
0.0218759
0.126433
0.0843089
0.0783861
0.0202009
0.0213012
0.778835
0.0339462
0.0285797
0.0219441
0.0217959
3.04134
0.0214671
0.0236822
0.552835
0.650168
2.88802
0.022741
0.0204115
0.02203
0.0200265
0.0238897
0.974416
0.553138
0.0195762
0.0209036
0.562426
0.0254401
0.0227019
0.0218181
0.0345949
0.020843
0.0196355
0.0208905
0.0243747
0.0220259
0.0261892
0.387444
0.680297
0.0319373
0.0260774
0.0213288
2.30311
0.151772
0.0360508
0.0217188
0.123719
0.0279686
0.021262
0.0204813
0.0206642
0.132789
0.0264979
1.3593
0.440558
0.787516
0.021341
0.0663833
0.462946
2.67957
0.528706
0.432794
0.0214819
0.424122
0.025987
0.100954
0.0215788
0.738145
0.0218287
0.0274993
0.0219213
0.575465
0.0212358
1.66674
0.392341
0.0228482
0.0200901
0.0298599
0.0224042
0.0216013
0.0265786
0.55462
0.021124
0.0240236
0.0210906
1.33231
0.0238467
0.023083
0.0217478
0.0214195
0.023293
3.78868
0.0307145
0.0217241
0.0440314
0.872943
0.0207177
0.358042
0.0206408
0.0213545
0.576623
0.0216202
0.0216623
0.0212463
0.0209631
0.0295843
0.0233092
0.0289416
3.70329
0.0239848
0.0208909
0.0453526
0.314076
0.0212617
0.130698
0.0203076
0.705206
0.0211309
0.0239213
0.400902
0.020644
0.0228475
0.0217674
1.3938
1.51257
0.0206748
0.779506
0.0196839
0.020155
2.89344
0.0211362
0.0292399
0.0369638
0.0427933
0.0548804
0.0666409
0.020846
0.0256465
0.0201507
0.161097
0.394245
0.0232395
0.0290827
0.0205935
0.690616
0.0215418
0.332411
2.48553
0.0219018
0.0203785
0.0424717
0.122814
0.217089
0.020396
0.0196703
0.0713091
0.0219426
0.0203881
0.0267856
3.42845
0.0257604
2.49318
0.0213763
0.61333
0.0196726
0.0296241
0.217141
0.123173
0.429667
0.0214732
0.0207089
0.0758697
0.0211775
0.0211027
0.300368
0.35039
0.066964
0.0213765
0.770979
0.777522
0.956153
0.0234243
0.0218742
0.0213644
0.0254714
0.566102
0.0312783
0.0203113
3.13542
0.694573
0.493529
0.035807
0.0216843
0.131305
2.52181
3.36505
0.389458
0.0208536
0.0703724
0.0260638
0.543466
0.573298
3.04958
0.0502584
2.37982
0.0202193
0.0206609
0.0214326
2.36806
0.0210591
0.0231098
0.311963
0.0267191
0.0304173
0.0206022
0.0217753
0.0274292
0.409796
0.17523
0.0213644
0.0212899
0.0261702
0.0785107
0.0214025
0.0270505
0.197357
0.0212739
0.351466
0.882944
0.679873
0.0216602
0.0250361
2.82055
1.01926
0.0210519
2.81938
3.30108
0.0218543
1.52616
0.0226086
0.0254116
0.0401444
0.0221191
2.37107
0.0935544
0.0211874
0.0218071
0.125392
0.72633
0.0224086
0.0265682
1.01078
2.91944
0.0218179
0.412093
0.344886
0.0203259
0.020647
0.025042
0.130729
0.0228333
0.0696356
3.86557
0.0205414
0.0562638
0.573361
0.0748831
1.86921
0.0206131
0.0778177
2.3963
0.810974
0.0261939
0.0250009
3.42437
0.676168
0.0243938
0.0208876
0.902141
0.04622
0.0361954
0.0235102
0.53896
0.0203334
0.0217721
0.239837
0.0967856
0.0434695
0.289536
0.10084
0.0225202
0.0219192
0.0931776
0.0211627
0.133474
0.662167
0.538202
0.0229841
0.0224262
0.442008
0.0214202
0.0199674
0.727262
0.0210504
0.0216912
3.02136
0.0229005
0.0212733
0.0842793
0.0446625
0.0261105
0.540836
0.518538
0.377189
0.0504271
2.2932
0.0893948
0.122483
0.0236833
0.0240845
0.0524443
1.46183
2.41336
0.0249779
0.0206224
0.105851
0.0322363
0.373305
0.0671753
0.0246823
0.0231218
0.0249919
0.0700908
0.0201747
0.0238742
0.0223993
0.0263172
2.41368
0.0240101
0.0550904
0.0213478
0.581105
0.418149
0.0262534
0.0482965
0.0241576
0.128138
3.25118
0.0581319
0.0211565
0.0220317
1.61935
0.0210207
0.0237783
0.929663
0.0237522
0.0248246
3.79715
0.0213522
0.0206663
0.96108
0.0674792
0.0234021
0.542545
0.669801
0.0206116
0.0273518
3.3829
0.0254071
0.0258081
0.0212354
0.0230322
0.140026
0.0376672
0.0487561
0.0196034
0.0237825
0.0263551
0.0199559
1.21775
0.023839
0.622747
0.146537
0.0205955
0.0223378
0.532913
0.813057
0.0213523
0.0226874
3.28403
0.0278735
4.27108
3.15958
0.0251497
0.366888
3.75012
0.102239
0.021457
0.0240451
0.232902
0.022973
2.26397
0.0354676
0.0206537
0.608058
0.0542271
0.044526
0.0251892
0.190624
2.46082
0.0212452
0.0221027
0.0266529
0.0590917
0.023414
0.0206892
0.458068
1.09451
1.22446
0.4935
0.0888007
0.0234063
0.0419456
0.0205369
0.0195461
0.506668
0.0219209
0.0259196
0.035822
0.0229443
5.82503
0.022011
5.09993
6.51709
0.0391315
0.0948856
0.26831
0.0215115
0.0234708
1.06129
0.0201394
0.0747901
1.41186
0.0763702
0.14973
0.0209557
0.427594
1.01962
0.446181
0.438362
0.0197594
0.476131
0.901608
0.144665
0.602226
0.0221117
2.6247
0.291593
0.32822
0.494596
0.0212567
0.898496
0.554718
4.17354
0.344835
0.337826
2.64649
2.99459
0.0231619
0.0236585
4.10773
0.0206284
0.0215191
0.019923
3.386
0.0517903
0.0254286
2.30591
0.0211342
0.695772
0.604125
0.0347486
0.0205362
0.0201231
0.471833
3.40451
0.021046
0.0216964
0.0615805
0.138671
0.0295554
0.0209933
0.0226423
0.0214217
0.0205802
2.42678
0.038453
0.357581
0.418737
0.0229166
3.1867
0.0211451
0.0214472
0.0218899
0.021073
0.0595819
0.0216213
0.0230305
0.447393
0.0218344
0.0289785
0.0216617
0.021145
0.134704
0.0215039
0.0197394
0.0210231
0.0231193
0.0273017
0.0224253
0.0203931
0.0718527
2.43001
0.0423458
0.0229776
0.0215656
0.0213432
1.53489
0.0222997
0.381637
0.0213565
0.0936474
0.0201872
0.0242509
0.0206344
0.0254809
0.395268
4.05069
2.45643
0.0246492
0.946362
0.0897822
0.383428
0.0207231
0.628756
1.49673
0.0203614
0.253418
2.59442
2.83537
0.0429034
0.0215414
0.028501
0.127764
0.0215105
2.33443
0.578887
0.0224151
0.441208
0.0219424
0.0222421
0.323035
0.022363
0.0224067
3.46356
0.904808
0.0681602
0.0237232
0.0222001
0.505545
0.0219818
0.636596
0.0354843
0.0203468
0.0310009
0.0215597
0.833715
0.374755
0.0248418
0.278808
0.0240435
0.416514
0.3948
0.104047
0.629528
0.022611
3.38373
0.0236188
0.0245245
0.0255478
0.0279402
0.376954
0.0214552
0.0250634
0.022015
0.460159
0.232653
1.31668
0.0595613
0.0218092
0.021979
3.49016
0.644047
0.0214801
0.0568735
2.68221
0.144646
1.11803
0.614162
0.0766567
0.0331551
0.028023
2.25373
4.93405
0.078378
0.022447
0.0224481
3.0193
0.0218539
0.0214913
0.494379
0.987703
0.044017
0.0246091
0.0809055
0.332537
0.0203828
0.0218798
0.0206191
1.45847
0.0262337
0.0735749
0.021675
0.33352
3.24672
0.131813
1.23137
0.0265911
0.0228255
0.0652071
0.412943
0.0770797
0.0249543
0.331763
0.39228
0.0206044
0.0319935
0.0219944
0.0374346
0.0725311
1.63471
0.0228222
0.0316132
0.0429476
0.180548
0.167112
2.04588
0.202031
0.0394685
0.327896
0.0218161
1.58012
0.0330182
0.0321812
3.79492
0.0292093
0.197847
0.0200232
0.0214335
0.0219224
0.258151
3.33063
0.0649247
3.31175
0.0211658
0.583017
0.0207514
0.328619
0.0232738
0.020903
0.0213413
0.0239782
0.383305
0.0340733
0.0272897
3.45765
5.08646
0.529067
0.0205349
0.0213639
0.0271108
0.0650322
0.112483
0.0215507
0.0219947
0.326097
2.85853
3.14074
0.473857
0.028739
0.25955
0.212486
0.0216486
0.021285
0.35286
0.0440316
0.480265
0.0205908
1.13326
0.0231464
0.021378
0.175187
1.71493
0.0229634
3.38803
0.0706024
0.021408
1.57786
0.0234583
0.0301888
0.0211687
0.0213353
0.0543308
0.0416252
3.0274
0.0268588
0.0233273
3.18525
0.74966
0.456292
0.024275
0.653537
0.021724
0.0466668
0.638769
2.39339
0.0280061
0.49529
0.398656
0.0214676
3.62769
0.0488909
0.0205504
0.0712879
0.148168
0.422347
0.0594451
0.0210453
0.176344
0.0212073
0.0205143
0.0208906
0.0310192
1.41435
0.0471681
0.11132
0.0244523
0.607369
0.0240464
0.0700483
0.64788
0.0212354
0.483654
3.0451
0.456629
4.05795
0.0228778
0.0215317
0.0756415
0.0673997
0.0214982
0.0223646
0.219651
0.193709
2.81596
0.021781
0.0262115
0.340668
0.0215238
0.606619
0.0212483
0.021577
0.0253307
0.0213699
0.297743
0.0223133
0.0214451
0.020576
0.0613205
0.0201279
0.136316
0.0220667
0.0215057
1.126
0.216588
0.054712
0.0219131
0.0242023
0.060991
0.0372109
1.60453
0.0204756
0.312961
0.0227875
0.588453
0.0241352
0.0215632
0.021536
0.0345971
0.081548
0.0215052
0.0620083
0.0223347
0.0619468
0.0215181
0.0212512
0.0213968
0.0359009
2.2498
0.800087
3.09299
3.00461
0.0228775
0.0406643
0.0225302
0.745373
1.00511
0.026088
0.301964
0.158339
1.69719
0.622565
0.020493
0.100069
0.0222598
0.0271961
0.63046
0.0205522
0.0212124
2.29877
3.22892
0.0238553
0.0259133
0.0271728
0.0239354
0.33042
0.046488
0.021346
3.17482
2.2768
0.571977
1.25293
1.52969
0.0295473
0.507911
0.792894
1.70188
0.02192
3.81297
0.0215333
0.0227016
0.375764
0.0677482
0.597332
0.0215217
0.19176
0.444798
0.0214245
0.0207429
0.0228638
0.0586521
0.0262317
0.155455
0.888864
0.497282
0.400823
3.34162
0.0233736
0.0218056
0.951355
0.535545
0.0221988
0.0256325
0.0654582
0.110426
0.0255623
0.0205546
0.687668
3.40004
1.84511
0.0205472
0.395691
0.0218743
0.0199646
0.0281252
0.492275
0.187778
0.076812
0.0196778
0.39964
0.0199551
0.021727
3.41707
0.348639
0.0225651
0.0257701
0.0235109
0.0250515
0.0297656
0.0240362
0.0206246
0.463897
0.0222097
0.0217906
0.0234327
0.0176776
0.0222752
0.498411
0.635418
0.0233242
0.40886
0.196348
0.769481
3.01653
0.0235003
0.124373
0.0209864
0.0272995
2.97047
2.7945
0.0227768
2.89226
0.522176
0.859569
5.70588
4.00488
3.83047
0.0227653
0.396544
0.0235504
0.411166
0.0201664
0.0240115
0.0581911
0.130298
0.0214051
0.0234124
0.0446608
0.0219031
3.73408
0.0257397
2.59408
0.0238654
0.0204673
1.8646
0.0214334
5.5153
0.021662
0.0887117
0.371586
0.0223122
2.96359
0.0211082
0.385084
3.71721
3.43977
0.0208595
0.280707
0.0236064
0.0265778
0.0204867
0.0226241
0.416522
0.219386
0.390106
0.0762633
0.0288237
0.0214919
0.280161
1.1247
0.414668
0.40708
0.0247536
0.34662
0.590687
0.0269824
1.64295
0.0259782
0.335653
0.0242766
0.0221073
1.13675
0.0214376
0.0436963
0.0246389
2.85641
0.0195723
0.0215568
0.0195405
0.0235601
0.0218856
0.608216
3.2182
0.0416886
1.3969
0.0355824
0.204552
0.0238001
0.0399346
2.61867
0.460244
0.0215183
0.0207912
1.4987
0.0201847
0.118745
0.0214812
0.021068
0.0213419
3.6721
0.499355
0.0231922
0.585397
3.92775
0.0226535
0.0243165
0.0210735
0.0265121
2.45867
3.48413
6.17401
3.44279
0.0382706
0.0581295
0.0229173
4.49701
3.41597
0.0227897
0.0215881
0.621302
0.0249838
0.0258323
0.0388463
0.485715
2.94335
0.276784
0.0218462
0.0490191
0.417636
0.0230048
0.0201645
3.30334
0.0231309
0.153014
0.0238561
0.0215927
0.0213611
0.380732
0.039508
0.0233708
0.0798248
3.71733
3.33935
0.0237622
3.87163
0.0219983
0.0210256
0.137238
0.0234159
0.0213011
0.254304
0.021385
0.0281807
0.0459867
0.0624305
0.0296903
0.0213404
0.0214788
0.358014
0.0302792
0.0212737
0.0218648
4.11329
0.0444738
0.021938
0.035799
0.0234967
0.339073
0.038875
2.17082
0.186522
0.195525
3.45919
0.0259003
0.065024
0.0229864
0.617749
0.0312508
0.414396
3.08811
0.305913
0.0271671
0.0208334
0.0205865
1.49379
3.90428
0.957865
0.0217337
0.0543987
0.0213387
3.2232
1.27099
1.11484
0.0207648
3.52577
2.1533
0.0211396
3.9825
1.54431
1.20089
0.021442
0.0427165
0.0962376
0.020203
0.0755305
0.348001
0.407549
0.0387205
0.622389
2.65216
0.197347
0.0245448
2.67737
0.0403299
0.0231139
3.33876
0.0438009
0.0271782
3.05627
0.356367
0.340629
0.956104
1.57609
0.0228222
0.176212
0.0226113
0.0206133
3.52975
0.0350583
0.0208694
0.030205
0.0216677
0.0227205
0.0336383
0.885448
0.024282
0.0730389
2.43174
0.0213231
0.0226983
0.0246963
0.0236317
3.49331
0.665158
0.023108
0.0595169
0.0210029
0.0358067
0.469038
0.207985
0.0257811
0.0212255
3.01058
0.0201574
0.343392
0.0210808
0.0906097
0.10172
0.126373
0.0226346
0.694966
0.136326
0.0227989
0.357695
0.0199218
0.0224194
0.0214227
0.453193
0.0229817
0.0450957
0.0134675
0.337793
0.0209514
0.0588364
0.253043
3.71766
3.28842
0.03871
0.0237885
0.0235634
0.0316732
0.409423
0.0213218
0.0449869
5.33482
0.0217416
0.0231752
0.194205
2.34211
0.0322597
0.13163
0.0363421
0.122355
2.21313
3.16353
2.36869
3.00808
0.331997
2.88557
2.72455
2.40482
0.616268
0.0216182
0.0219542
5.54692
0.0217074
3.20874
0.190567
0.0213535
0.113048
0.0232825
1.55997
0.0217002
0.623187
0.230953
0.0206168
0.0272108
0.0252373
0.673501
2.40305
0.021635
2.41963
0.264529
0.0680153
3.90515
0.0207966
1.3317
0.204364
0.0264714
2.81902
0.070916
0.352031
0.0234861
0.0230999
0.0219029
1.14376
0.775074
0.0215693
0.020741
0.0579866
3.22941
0.0533623
0.0447389
0.0263283
0.0269982
1.57123
0.40475
0.287732
2.20428
2.46942
0.0312145
0.0706355
0.0229317
0.0283225
0.0318449
2.25233
3.38167
0.0370195
0.0219002
0.0207782
3.26125
0.0214738
2.90913
0.0210178
1.38146
0.0208751
3.69578
0.0203518
0.0214616
0.0599054
0.165981
0.0603049
0.0213514
0.0230735
0.0213868
0.0222596
0.512728
0.0224062
0.727042
0.394806
0.0265102
0.0206193
2.2911
0.0391347
0.0228876
0.0272378
2.82824
3.18811
1.59153
3.51799
2.64381
6.58806
1.30404
0.0208852
0.733034
2.7627
0.023934
0.0206601
0.0250113
0.263195
0.0220405
0.622106
0.0215668
1.71777
0.02371
0.0213276
0.407765
0.0343489
0.119963
0.0392386
0.542613
0.023687
2.67045
0.205129
0.62475
0.0226255
0.0279072
0.579385
0.0286218
1.35121
0.766986
3.04885
0.0222853
0.368223
3.42974
0.0231808
0.0600671
0.0227069
0.0209812
0.300639
1.61306
0.0222804
0.0219015
0.51238
0.266528
0.0403458
0.0492059
0.295364
0.0208528
0.0215021
3.28773
0.0217555
0.417788
0.0213333
0.0222089
0.0228626
0.0228835
0.0200946
0.18566
0.027039
3.74288
0.326947
2.91124
0.0240289
0.122153
0.076888
0.0929601
0.02298
0.0208081
0.0210869
0.0219728
0.0245047
0.0216716
0.217555
0.0231214
0.0458622
0.0236097
0.392849
1.39869
1.09898
0.241423
0.257217
2.76365
0.247205
2.45118
0.0218622
2.32084
0.0332071
0.109448
3.53728
0.0294548
0.0214032
0.0252926
0.60699
0.0221916
0.113734
0.0208154
0.383114
0.0203553
2.81819
0.221826
0.0231899
0.0507243
0.0767664
0.711003
0.0215056
0.0213847
0.0450662
0.0217251
3.73318
0.437212
3.75476
0.131653
0.0321288
0.0227695
0.0205051
0.0627754
0.0254489
2.98278
2.93324
0.0252936
0.0211253
0.0267198
2.92966
0.0214236
0.021674
0.0212084
0.0368848
2.89918
0.0239345
0.0218808
0.0218413
0.0531793
0.0212542
0.0271806
0.0217343
0.0256808
0.0685567
0.336317
0.0220031
0.271644
0.0218323
0.131626
3.06139
0.18629
0.0252092
3.4261
1.26116
0.021864
0.0927755
2.77881
0.0375406
1.78736
0.31337
2.79177
0.0219001
3.10173
0.202614
0.0304256
0.125285
0.26896
0.020488
0.468125
0.040889
0.224604
0.0212141
0.645393
3.48298
3.98171
0.12111
2.21216
0.0486308
0.0211281
0.0261883
0.0263947
3.12404
0.0227568
0.026854
0.0218354
0.0420019
0.285648
0.0218881
0.0214975
0.0212655
0.354401
0.0214881
0.0219146
0.0550253
0.0713633
0.0267158
0.224478
0.544761
0.0255036
0.205172
0.0214909
0.021633
0.0214139
0.0251949
0.0375009
0.0478537
0.198623
0.080969
0.139961
0.0214243
0.115015
2.41568
0.0201255
0.0339845
0.0215585
0.0204169
0.469781
5.24992
0.0264677
0.021557
0.0272528
3.16141
0.504476
0.0362882
0.0215411
0.185089
0.0325416
0.313237
0.129472
0.0335021
0.120198
0.411158
3.4236
0.028102
1.20701
0.16397
2.81179
1.62017
3.46611
1.91268
3.36379
0.0369976
1.29368
0.0700961
0.0333253
0.216066
0.211363
3.6906
0.0326478
0.0637248
0.026124
0.0239896
0.0373003
0.0499882
0.0250594
0.0694882
0.022366
0.0266697
3.57471
0.0212183
0.0621576
1.52169
0.0785416
0.118013
0.0201985
0.0354463
0.0371732
3.67039
0.0840533
0.120159
3.22937
0.0265507
0.0383253
0.123274
0.121043
0.0372917
0.0279226
2.93171
0.0205095
0.141211
0.0217213
0.227867
0.0625616
0.0215039
0.0217735
0.0471324
0.0342631
3.17886
0.0265245
3.82987
0.0233288
1.39783
0.121699
0.0405546
0.100429
0.0562526
0.0207787
0.0243107
0.673102
0.038276
0.0222262
0.626456
0.0515
3.41417
1.03914
2.44576
0.0722119
3.15707
0.049878
0.196689
0.246569
0.128581
0.0278959
0.0289478
0.392969
0.0231954
0.0428348
0.0241894
0.733822
0.197152
0.0205687
0.0345785
0.0230325
0.030759
0.690469
0.0226226
0.0439274
0.0455476
0.382074
0.0231672
0.0214095
0.228257
0.0215738
0.03358
0.508127
1.23033
0.0271257
0.145127
0.0314796
2.31307
0.0253633
0.0569604
0.0533914
0.0227786
0.0364979
0.322678
2.04594
0.131898
1.1088
1.76299
0.65196
1.94526
0.0458407
0.0214234
0.938129
0.0293025
0.0287163
0.0202499
0.0216869
0.0234621
0.0382908
0.345142
0.400435
0.526911
3.37768
0.0359555
1.89296
0.0222086
0.0256858
0.865476
0.0211432
0.564369
0.0219626
0.143506
0.623202
0.0512517
0.0261441
0.0329326
3.05042
0.0445892
0.0432568
0.979356
0.0260627
0.117842
0.115287
0.0258096
0.0338995
1.2015
0.0216421
0.569617
0.0523549
0.329028
0.0672162
0.0529919
1.99476
0.0473707
0.0347948
3.54938
0.0438102
0.0274826
0.0381087
5.78151
0.434925
0.0260504
0.0473787
0.0213089
1.56234
0.174782
0.671315
0.573961
1.09707
1.60842
0.062494
0.0368257
0.29492
0.236323
0.0208092
0.567646
0.67068
0.0214906
0.0229895
0.106305
0.0257974
2.28391
0.24502
0.0282694
0.0266226
0.0556397
0.157921
0.0536106
0.0229961
0.0515883
0.0347488
0.0256296
1.83917
0.0221977
0.0226261
0.034423
0.022776
2.46045
0.0229432
0.0231163
2.35071
1.58257
0.0221696
0.0204859
0.1187
0.0361505
0.0217975
0.663822
0.276313
0.0234166
0.0259251
0.542883
0.0231179
2.78719
0.329113
3.80379
0.0633109
0.229732
0.701866
0.023003
1.34131
2.72242
1.07002
0.0247438
0.0235325
0.023382
2.32328
0.0384379
2.2764
0.510969
0.0213487
0.0225095