/*--------------------------------*- C++ -*----------------------------------*\
| =========                 |                                                 |
| \\      /  F ield         | OpenFOAM: The Open Source CFD Toolbox           |
|  \\    /   O peration     | Version:  v2012                                 |
|   \\  /    A nd           | Website:  www.openfoam.com                      |
|    \\/     M anipulation  |                                                 |
\*---------------------------------------------------------------------------*/
FoamFile
{
    version     2.0;
    format      ascii;
    class       volVectorField;
    location    "150";
    object      U_0;
}
// * * * * * * * * * * * * * * * * * * * * * * * * * * * * * * * * * * * * * //

dimensions      [0 1 -1 0 0 0 0];


internalField   nonuniform List<vector> 
18618
(
(1.02128 0.0492419 4.66241e-22)
(0.626915 0.638832 5.15523e-21)
(1.00574 -0.000230984 0)
(0.849455 -0.065696 -1.52965e-20)
(1.0076 0.00229222 -2.27761e-21)
(0.985397 -0.00834252 -1.30255e-21)
(1.08855 0.0388327 1.85737e-20)
(0.648942 0.64568 -2.0514e-20)
(1.01668 -0.00515693 8.36222e-22)
(1.02316 0.000720813 1.11976e-21)
(1.0574 0.0325884 -4.33595e-22)
(1.00567 -0.000230344 7.17807e-23)
(0.816501 -0.0972286 0)
(1.01338 -0.00195819 -1.62477e-22)
(1.00751 0.00214276 1.85848e-21)
(1.00441 -0.000203358 1.12628e-21)
(1.00747 0.000577697 0)
(0.202548 -0.00830672 2.96385e-20)
(1.00599 0.000720484 0)
(1.01762 0.00539145 -4.87619e-22)
(0.99052 0.00345315 1.04481e-22)
(1.01029 -0.000751136 1.00132e-22)
(1.00441 -0.000190824 -1.10604e-21)
(1.00033 0.0658358 4.49227e-23)
(1.01076 0.00136276 7.14025e-22)
(1.04752 0.0635046 4.43357e-22)
(1.01536 0.0459163 -1.311e-21)
(1.00646 0.000967551 2.09567e-22)
(1.00359 -0.000154268 2.90819e-22)
(1.0076 -0.000225004 -8.57864e-22)
(1.01279 0.0019021 0)
(1.03127 0.0300702 0)
(1.02577 0.00775381 0)
(0.991958 -0.00563794 0)
(0.82233 0.0541677 0)
(1.01097 0.0063383 -3.45163e-22)
(1.01699 0.00988637 -7.06091e-22)
(0.922568 0.0438534 0)
(1.019 0.0103307 2.1941e-21)
(1.00755 -0.000241518 8.83094e-22)
(1.0581 0.245924 -7.79746e-22)
(1.01355 0.0373832 7.32302e-22)
(1.00824 -0.00057441 7.13829e-22)
(0.727856 -0.560295 3.96125e-20)
(1.01836 -0.00597017 -7.11728e-22)
(1.04954 0.0119643 -7.10902e-21)
(0.665866 0.630783 1.20479e-20)
(1.00648 -0.000591763 0)
(0.973918 0.0111455 0)
(0.46483 0.100438 -6.9529e-21)
(1.00664 0.000871049 2.25639e-21)
(1.01018 0.0049173 1.35981e-21)
(0.85756 0.154522 -6.28604e-21)
(1.04016 0.238764 2.05759e-21)
(1.00128 -9.40706e-05 -1.10434e-21)
(0.836917 -0.126923 0)
(1.01393 -0.00244353 1.63683e-22)
(1.01686 0.00607547 8.46869e-22)
(0.999594 -0.000638669 0)
(1.01813 0.0107744 0)
(1.00793 -0.000483256 7.19494e-22)
(1.00148 -8.22171e-05 -7.06354e-22)
(1.01738 0.00449853 0)
(1.01976 0.00646208 0)
(0.937193 0.00571891 8.76728e-21)
(0.644947 -0.172455 1.26356e-20)
(1.00312 -0.000104745 -3.15918e-22)
(1.06572 0.0479335 -3.75936e-21)
(1.00487 -0.000434959 -3.41963e-23)
(0.827822 0.174862 -2.59789e-21)
(1.05769 0.0320756 5.66542e-21)
(0.999044 -0.0158875 -2.98707e-22)
(1.06148 0.0894824 4.75734e-21)
(0.0814791 -0.179291 5.78623e-20)
(1.0199 0.00127959 1.6182e-21)
(1.07237 0.0410473 8.44446e-21)
(1.07052 0.1139 1.89205e-22)
(0.469485 0.146222 2.20504e-21)
(1.00471 -0.000404957 0)
(0.60621 0.630416 -1.91155e-20)
(0.403224 -0.0370386 -9.71958e-23)
(0.083774 -0.0840493 5.18356e-20)
(0.0412783 -0.195149 0)
(1.022 0.00044046 -1.73482e-21)
(1.0254 0.00792025 0)
(1.00824 -0.000563675 -3.52546e-22)
(0.985092 0.058677 -6.36753e-23)
(1.02341 0.000724497 1.4893e-21)
(1.01576 0.039945 1.68135e-21)
(0.163504 -0.0279251 0)
(1.06595 0.0931799 -1.9415e-20)
(0.974575 0.0669557 0)
(0.743717 -0.571446 2.58532e-21)
(1.07925 0.109493 -3.76513e-22)
(1.03218 0.0711063 9.46704e-22)
(1.07525 0.0402415 -1.0833e-20)
(1.01758 0.0111512 0)
(0.798318 0.0588848 2.97548e-22)
(1.0134 -0.00186026 1.68607e-22)
(1.00532 -0.000190293 -2.95008e-22)
(1.02678 0.0802656 -9.31998e-22)
(1.01955 0.00603211 -1.47729e-21)
(1.01203 0.114036 0)
(1.03135 0.0305979 -2.74123e-22)
(1.01701 2.65609e-05 -2.00099e-23)
(0.963697 0.629037 3.08442e-20)
(1.00133 -9.52583e-05 1.69022e-21)
(1.00471 -0.000219827 -1.78444e-22)
(0.94787 0.00589676 0)
(1.00426 -0.000196903 -2.37033e-22)
(0.780337 0.14239 -9.86895e-22)
(1.00514 0.00128791 0)
(1.03925 0.0113632 -5.17517e-21)
(1.00669 0.000323684 0)
(1.00963 0.00498445 -4.5595e-22)
(1.00527 -0.000189968 2.80846e-22)
(1.00278 -7.66761e-05 3.47992e-22)
(1.21137 0.460277 0)
(1.01231 0.00526613 -2.12846e-22)
(1.04208 0.186911 -1.96978e-20)
(0.792745 0.0423332 9.73253e-22)
(1.0382 0.0118144 0)
(0.846336 -0.164085 1.83387e-22)
(0.10374 -0.0697039 -7.38551e-20)
(1.02629 0.054901 1.06539e-22)
(0.953371 0.0189625 6.07703e-21)
(1.00236 0.242736 1.57441e-21)
(0.166375 -0.117009 6.00763e-21)
(1.0549 0.0386569 -1.02438e-20)
(1.15088 0.0991271 1.17015e-20)
(1.12265 0.136049 2.69499e-20)
(1.00504 0.00115874 0)
(-0.0148514 -0.176211 1.12569e-19)
(1.02191 0.0843174 2.46099e-21)
(1.00958 0.00487991 1.48358e-21)
(1.00742 -0.000588816 -3.89688e-22)
(1.00168 0.000194161 -1.28253e-21)
(1.02599 0.00172521 -3.21126e-21)
(0.58493 0.629543 -5.30638e-20)
(1.00202 -7.09075e-05 0)
(1.01345 0.000977538 0)
(1.00169 -5.69038e-05 0)
(1.00148 -8.45669e-05 -6.87908e-22)
(1.01743 0.0106844 -7.03275e-22)
(1.00736 -0.000492082 4.67304e-22)
(1.04841 0.0594272 0)
(1.01679 0.0100847 0)
(1.00661 0.000858293 -2.47182e-22)
(0.970483 0.631779 -2.51945e-20)
(1.08219 0.0453608 0)
(1.01402 -0.00254591 -1.63528e-22)
(1.22307 0.446507 -4.18678e-20)
(0.581816 0.633424 5.34558e-20)
(1.00457 -0.000209323 -5.86051e-22)
(1.00363 0.00015729 7.53932e-22)
(0.951677 -0.00776544 5.25853e-22)
(1.01341 0.510164 1.76156e-20)
(0.723908 -0.12068 4.67774e-21)
(0.990059 0.0365732 -1.76969e-22)
(1.00732 -0.000740754 0)
(1.00425 -0.000143552 0)
(0.766021 0.0259764 -1.04576e-20)
(1.02562 0.00176621 0)
(0.968912 0.113754 -3.41227e-21)
(1.00524 -0.000410027 5.20515e-22)
(0.820785 0.00934123 1.59626e-21)
(1.00363 0.000169679 -3.62678e-22)
(1.00202 -6.82838e-05 4.916e-22)
(0.414796 -0.0344108 4.87663e-20)
(1.03913 0.01027 0)
(1.02009 0.00126605 0)
(1.00672 -0.000530514 0)
(1.1206 0.142248 -2.7858e-20)
(1.11029 0.0927181 1.74899e-20)
(0.770246 -0.157711 0)
(1.06933 0.0447188 -7.81953e-21)
(1.00506 0.0325729 0)
(0.121578 -0.135254 -6.53049e-20)
(1.00656 -0.000481916 0)
(1.00499 -0.00046789 -1.67597e-23)
(1.10031 0.0747939 6.69434e-23)
(1.10999 0.0964578 0)
(1.01083 0.00628532 1.98336e-21)
(1.01032 0.00540465 -4.49685e-23)
(1.0164 0.256895 -2.37205e-21)
(1.00023 -5.10842e-05 -1.07434e-22)
(1.01434 0.00429089 1.61854e-21)
(1.09537 0.0699566 4.04495e-21)
(1.01011 0.0364587 0)
(0.981059 0.000727685 0)
(1.01531 0.0128691 3.78915e-22)
(1.11433 0.085055 1.50172e-20)
(0.71186 -0.142719 -4.16235e-21)
(1.00201 -6.59242e-05 4.61533e-22)
(0.951979 -0.0191807 2.12279e-21)
(1.00528 -0.00178005 5.06066e-22)
(1.09986 0.0762419 -4.65454e-21)
(0.777419 -0.369333 1.59707e-20)
(1.02164 0.000284671 0)
(0.903934 0.421841 8.14549e-20)
(0.949223 0.0668287 0)
(0.839033 -0.512981 -2.51705e-20)
(1.01899 0.0103599 1.34391e-22)
(1.05008 0.0262503 0)
(0.367806 -0.0521478 5.07322e-20)
(-0.305625 -0.315446 5.11999e-20)
(0.49328 0.557694 -1.97348e-20)
(1.24986 0.397558 4.28439e-20)
(1.04347 0.0157532 0)
(0.891233 0.415442 -2.95487e-20)
(1.0165 0.0946376 0)
(0.99999 -3.69799e-05 -7.40139e-22)
(1.16491 0.506025 3.40453e-20)
(0.955606 0.433989 7.38904e-21)
(1.01022 0.00540992 0)
(1.01057 0.00589783 1.35348e-21)
(0.997904 0.00816441 -1.4866e-21)
(0.355258 -0.0581529 0)
(1.03942 0.0107821 -1.13017e-22)
(1.15554 0.515577 3.18393e-20)
(1.01798 0.0155067 0)
(1.03511 0.023452 1.71247e-21)
(1.00016 -6.27628e-05 1.11694e-22)
(1.23346 0.1796 1.81899e-20)
(1.03399 0.0336679 8.20874e-22)
(1.03333 0.0309484 -8.71258e-22)
(1.01789 0.014991 0)
(1.00526 -0.000413185 -7.38064e-25)
(0.795852 -0.00949382 -1.60168e-21)
(0.99281 0.0473079 2.47683e-21)
(0.884064 0.460148 0)
(0.963536 0.108123 -1.18815e-22)
(1.01319 0.000926852 0)
(1.06885 0.0459589 4.13497e-21)
(1.01326 0.00194857 0)
(1.14677 0.094274 2.25887e-20)
(1.0178 0.0109487 1.35994e-21)
(1.01143 -0.00525566 -3.63448e-22)
(1.0105 0.00584464 1.20035e-21)
(1.05256 0.0484247 -1.02322e-21)
(1.10948 0.0586778 -2.36436e-20)
(1.0311 0.029485 1.04759e-21)
(1.03411 0.003202 0)
(1.01403 0.037746 0)
(1.01305 0.0767006 8.12554e-23)
(1.01027 0.00467058 -1.39132e-21)
(0.995864 0.0573343 -4.00184e-22)
(-0.28714 -0.427827 3.46705e-20)
(0.999832 -3.72238e-05 0)
(1.05379 0.0383531 1.64787e-20)
(0.86081 0.168714 5.2699e-21)
(0.989042 0.0241065 -4.34847e-22)
(1.04905 0.0263884 0)
(0.572595 -0.587317 0)
(1.04272 0.0170315 9.13888e-21)
(1.0035 -0.000149994 0)
(1.04223 0.0181923 3.50136e-21)
(0.986093 0.0326541 0)
(1.00771 0.000487996 1.19374e-23)
(1.02336 0.0891233 1.50951e-22)
(1.22923 0.191457 -3.20618e-20)
(1.04282 0.0179301 -1.04017e-20)
(0.997694 0.115101 0)
(0.486132 0.390847 0)
(0.991248 0.025675 -2.6087e-22)
(1.0282 0.017427 0)
(1.10458 0.0515132 -1.03338e-20)
(0.980012 0.00200026 0)
(1.04106 0.0186988 -4.43469e-21)
(1.05647 0.0291624 0)
(1.07193 0.0435094 0)
(1.00712 -0.000679068 -2.69524e-24)
(1.00782 -0.000353995 0)
(1.00647 0.000993729 -2.42091e-22)
(1.00671 -0.000642812 0)
(0.767276 -0.383261 1.83887e-20)
(1.01772 0.00508984 -1.05517e-21)
(1.00671 -0.000637831 3.04748e-22)
(0.331473 -0.063448 -2.62567e-20)
(1.00776 -0.000362934 -8.70339e-22)
(1.03418 0.0234049 1.43082e-21)
(1.00693 -0.000611397 2.43352e-22)
(0.576593 -0.579822 4.6182e-22)
(-0.296066 -0.416237 0)
(1.03322 0.0310655 1.27572e-21)
(0.748871 0.0147664 6.96419e-21)
(1.01622 0.000406752 -7.05197e-22)
(1.04253 0.0554002 0)
(1.00993 -0.000783353 4.74803e-23)
(1.11717 0.0380568 0)
(1.00766 -0.000558698 8.65997e-22)
(1.01943 0.00989677 -3.05531e-21)
(1.0119 0.00132583 0)
(1.0161 0.00091302 1.51648e-21)
(1.04081 0.519299 -2.26834e-21)
(1.00381 -0.000170201 3.16029e-22)
(1.00748 0.000576988 -9.60162e-22)
(1.03762 0.0127424 -3.6808e-21)
(0.771848 -0.377559 4.55226e-22)
(1.23064 0.430695 -2.21232e-22)
(0.813875 0.176425 4.3012e-21)
(0.596778 -0.211586 1.66398e-20)
(0.460968 0.39322 0)
(1.09501 0.112137 -5.57932e-22)
(0.987368 0.0437878 -2.28166e-21)
(0.877495 0.383896 -6.52005e-20)
(0.740094 -0.0891659 1.51431e-20)
(1.01036 0.00432474 3.25461e-23)
(1.03831 0.0126419 3.84324e-21)
(1.1155 0.087004 -7.97656e-21)
(1.00902 0.00428804 0)
(1.01833 0.000238073 -2.08846e-21)
(1.0332 0.0237796 1.44888e-21)
(1.00801 -0.000461139 9.05959e-22)
(1.08179 0.0420942 -1.24909e-20)
(0.74384 -0.0813136 -1.28397e-20)
(0.852653 0.397182 4.97401e-20)
(0.99338 -0.00475562 1.21051e-21)
(1.02778 0.0167323 -3.04274e-21)
(1.00106 0.000131407 0)
(1.01815 3.61725e-05 0)
(0.941087 -0.0096243 -2.25192e-21)
(1.09621 0.0659225 8.94936e-21)
(0.739084 -0.120335 -3.46139e-22)
(1.02902 0.0173213 -1.84908e-21)
(1.00298 0.00179962 -9.71799e-22)
(0.780191 -0.360265 0)
(1.00691 -0.000686042 0)
(1.08931 0.109762 -1.02945e-20)
(1.01354 0.00058884 0)
(1.0017 -3.6834e-05 -4.45256e-22)
(1.00668 0.000332812 0)
(1.1184 0.0791722 0)
(1.00892 0.00411972 0)
(1.02048 -0.00435949 -7.49391e-22)
(1.02973 0.0173468 -1.42216e-21)
(0.943099 0.0898567 0)
(1.01254 -0.0057326 7.67782e-22)
(0.394504 0.432486 -5.11327e-21)
(0.203627 0.106011 3.96061e-20)
(1.00794 -0.000737895 1.28771e-21)
(0.291507 -0.0760637 2.69065e-20)
(1.01891 -0.00495944 0)
(1.00593 -0.000288532 0)
(1.00516 -0.00049809 0)
(1.01896 0.000248181 1.35438e-21)
(1.00023 0.001474 3.4301e-22)
(0.99897 -8.94711e-06 0)
(0.78616 0.149805 -9.10714e-21)
(1.04365 0.0165022 0)
(0.753071 -0.221701 6.47178e-21)
(0.987551 0.0246485 -3.19037e-21)
(1.03388 0.0238201 0)
(1.0226 0.00119861 2.04103e-21)
(0.785753 -0.170072 7.3482e-21)
(1.0947 0.212432 3.35901e-20)
(1.00303 -0.000125712 -3.90662e-22)
(1.19439 0.300754 1.33511e-20)
(1.00714 -0.000678295 0)
(1.00811 0.0517859 -1.57643e-22)
(0.733136 -0.178569 -3.17429e-21)
(0.573695 0.614512 -8.60357e-21)
(1.21646 0.220715 -2.75971e-20)
(1.00042 0.00131312 -2.10119e-21)
(0.567145 0.611892 0)
(0.792315 -0.291499 2.09948e-20)
(1.01303 0.000297832 0)
(1.05624 0.0308102 -4.69455e-21)
(0.998108 -0.0164039 -5.38205e-22)
(1.00738 -0.000474905 5.15508e-22)
(1.00236 0.000159674 -2.27452e-21)
(1.02538 0.00191075 2.63645e-21)
(0.784433 0.152221 -3.10894e-21)
(0.761382 -0.228709 -1.34058e-20)
(1.01057 -0.000836127 -7.41428e-23)
(1.01046 0.00403556 -1.06342e-21)
(0.770386 0.0369844 -2.54083e-21)
(1.00677 0.00115995 -2.6125e-22)
(1.00498 0.0930449 -3.83083e-22)
(0.94689 0.0589451 0)
(1.01332 0.0352113 0)
(1.03124 0.0300301 0)
(0.657673 0.0800465 1.07324e-19)
(0.863198 0.233211 5.19483e-21)
(1.00599 0.000712651 -1.03729e-21)
(1.03644 0.014764 -6.94225e-23)
(1.00626 -0.000466469 -3.58417e-22)
(1.19228 0.290728 1.37992e-20)
(1.00407 -0.000134942 0)
(1.02265 0.00131124 2.11588e-21)
(1.00797 -0.000835364 -1.62178e-22)
(1.00854 0.0698722 2.20377e-21)
(1.04911 0.0108537 7.07409e-21)
(1.00791 -0.000848197 1.61986e-22)
(0.318127 -0.0717261 -8.51971e-20)
(0.905816 -0.124092 2.35813e-20)
(1.0514 0.174698 2.38032e-20)
(0.557709 0.598516 -1.14106e-20)
(1.00508 -0.000418648 -5.73937e-25)
(1.0173 0.0210544 0)
(1.03567 0.0140767 0)
(1.09313 0.142826 7.15159e-21)
(0.994089 0.0995984 -6.29491e-22)
(1.26606 0.384575 0)
(1.00611 -0.000498561 -9.1332e-26)
(0.666672 0.0611624 -4.88192e-20)
(1.01746 0.0146739 0)
(1.0446 0.0502897 0)
(1.0013 -9.99503e-05 0)
(1.04847 0.0287387 -1.37159e-21)
(1.00933 0.00461593 -1.85983e-21)
(0.673353 0.107036 4.18384e-20)
(0.688069 -0.43996 1.47281e-20)
(0.944563 0.00218468 -6.6721e-21)
(1.01172 0.00303512 7.39288e-22)
(1.22727 0.22717 1.19059e-21)
(1.00627 0.000420633 0)
(1.0378 0.0406114 -6.86928e-21)
(1.02834 0.00219439 -3.34293e-21)
(1.11034 0.115901 -2.69652e-21)
(1.02505 0.0018958 -1.24812e-21)
(1.0386 0.0197349 -1.97706e-21)
(1.01908 0.00466477 9.09576e-22)
(0.779003 -0.0195527 0)
(0.958763 0.294363 5.93518e-21)
(1.00459 -0.00022005 1.10848e-22)
(1.01667 0.0208909 0)
(0.953663 0.0167039 -2.14759e-21)
(1.00152 -9.67143e-05 0)
(1.05223 0.0324749 3.76205e-21)
(1.00818 -0.000621132 0)
(1.0064 0.00113167 -1.0176e-21)
(1.01739 0.0141389 0)
(0.982382 0.0610175 3.37212e-22)
(1.04652 0.02948 2.16882e-21)
(1.02888 0.00199032 3.87865e-21)
(1.12928 0.129254 5.12579e-21)
(1.00925 0.00454567 8.68712e-22)
(0.974016 0.585511 -1.98765e-20)
(1.00564 0.000531462 2.45398e-22)
(0.92465 0.0476819 0)
(0.703502 -0.449759 -2.24343e-20)
(1.01765 0.00227383 0)
(1.01721 0.00252052 0)
(0.212102 -0.102083 0)
(1.03715 0.0397277 2.39342e-21)
(0.638179 -0.253887 1.47769e-20)
(1.10072 0.534831 2.20874e-20)
(1.02668 0.015965 -1.51301e-21)
(1.02725 0.0418737 2.54973e-21)
(1.00555 0.000534725 2.60568e-22)
(0.819079 0.681187 -1.5152e-20)
(0.924764 -0.135811 4.55493e-20)
(1.03655 0.0203179 -3.49314e-21)
(1.08734 0.206632 -1.00055e-20)
(0.436466 0.497276 1.28793e-22)
(1.01132 0.0014002 -5.68576e-22)
(0.739114 -0.0530467 1.70755e-20)
(1.00386 -0.000122039 0)
(0.0149266 -0.152655 -2.86988e-20)
(0.952258 -0.0921043 -3.98879e-20)
(1.05042 0.024919 0)
(0.418892 0.569788 6.7288e-20)
(1.00749 -0.000559048 3.91164e-22)
(1.32653 0.19487 -7.11244e-20)
(1.0809 0.115957 -9.81164e-21)
(0.877329 0.410323 -1.05556e-20)
(1.04655 0.0127058 1.61916e-21)
(0.775118 0.0774266 1.42233e-21)
(1.01051 0.00389457 -1.31129e-21)
(1.00694 -0.000564558 -8.42795e-22)
(1.00622 0.000799287 0)
(0.930478 0.0214152 -4.54332e-21)
(1.0441 0.101146 -1.27417e-20)
(1.01219 0.00172748 -5.54235e-22)
(1.00493 -0.000420544 0)
(1.0051 -0.000422871 5.61773e-22)
(0.413732 0.578225 -7.35101e-20)
(1.08266 0.561223 -5.74455e-20)
(1.01391 0.00458498 -1.59809e-21)
(0.27288 0.0521139 4.59897e-20)
(1.31193 0.20045 0)
(1.05194 0.0243518 2.06665e-21)
(1.01178 0.00439177 -2.4023e-22)
(1.00253 -0.000111472 2.89641e-22)
(0.739348 -0.0708475 -1.51725e-20)
(1.01674 0.00952052 -3.78348e-22)
(1.0887 0.0395012 -1.21289e-20)
(0.997161 -0.00782786 6.29259e-23)
(0.891531 -0.116718 -5.46925e-21)
(1.13869 0.273738 0)
(1.00693 -0.00057286 0)
(1.00782 0.00160749 8.30158e-22)
(1.02562 0.0344086 -4.32382e-23)
(1.08544 0.121919 0)
(1.00137 -6.71271e-05 -2.1105e-22)
(-0.284149 -0.308714 -6.34621e-20)
(1.01128 0.00405346 1.82821e-22)
(1.01306 -0.00194603 -1.57132e-22)
(1.0277 0.0107588 2.8727e-21)
(0.916617 0.45737 4.42391e-20)
(1.00261 0.000331892 -2.99309e-23)
(0.819717 -0.00154411 -5.63864e-21)
(1.02124 0.00763528 0)
(1.02445 0.00199085 1.3808e-21)
(1.03312 0.0337869 -8.57016e-22)
(1.00155 -9.22464e-05 7.82819e-22)
(1.00058 8.83464e-05 1.13847e-21)
(1.00146 -9.94874e-05 0)
(0.798362 0.0285571 -7.30736e-21)
(0.771503 0.127778 1.13089e-21)
(1.12356 0.270338 0)
(0.997315 0.00699243 0)
(1.02968 0.016199 -4.39831e-21)
(1.00495 -0.000426042 -1.02289e-24)
(1.02225 0.00356181 -9.85936e-22)
(0.988938 -0.0764175 0)
(1.01968 0.000225867 -1.81276e-21)
(0.817075 0.00822975 0)
(1.00879 0.000211897 0)
(0.661288 -0.148214 -4.41148e-21)
(1.01061 0.0103818 4.42489e-21)
(1.00054 -6.54251e-05 5.58043e-22)
(0.987438 0.0189518 0)
(0.46112 0.502195 0)
(1.04278 0.0522265 0)
(1.00505 -0.000319809 0)
(1.02717 0.0111495 1.46396e-21)
(0.780503 0.0775215 -1.19093e-21)
(0.782672 -0.118684 0)
(1.00651 0.000377375 -9.82485e-22)
(1.13839 0.107691 0)
(1.02158 0.0129534 -2.57048e-21)
(1.01397 -0.00144586 -6.55088e-23)
(1.01192 0.00469339 2.54216e-22)
(0.610138 0.625123 0)
(0.935452 0.123467 -1.76791e-21)
(1.00236 0.000180009 1.23542e-21)
(0.444289 0.108839 -5.92738e-20)
(0.691847 0.107065 0)
(0.984756 -0.107701 1.89086e-20)
(0.741337 -0.215363 5.60782e-21)
(1.01064 0.0190072 1.16337e-21)
(0.792916 -0.562856 9.05907e-21)
(1.13019 0.07362 -3.61757e-20)
(1.04021 0.0197562 4.13226e-21)
(0.974479 -0.180765 0)
(0.896402 -0.15083 0)
(0.948549 0.035661 4.29969e-21)
(1.129 0.125563 1.93062e-20)
(1.11947 0.0823563 -4.94243e-22)
(1.01069 0.00365395 2.56496e-21)
(1.04089 0.0085082 -1.01743e-22)
(1.12863 0.181376 2.74086e-20)
(1.12721 0.177199 -2.43662e-20)
(1.00743 0.000891089 0)
(1.01351 -0.00142837 -7.11526e-22)
(0.941322 0.0187575 -1.04386e-20)
(1.04463 0.0516662 0)
(1.02596 0.04475 -8.78182e-22)
(1.00015 8.08935e-05 0)
(0.746032 -0.232087 1.8928e-22)
(1.02927 0.0148706 0)
(0.94309 -0.0190063 4.94747e-22)
(1.05384 0.0214646 0)
(1.02161 0.000788027 1.43998e-22)
(0.99895 0.218528 -7.08094e-21)
(1.02095 0.0074655 -1.96873e-23)
(1.04608 0.0142148 -3.13454e-21)
(1.01098 0.414872 3.17785e-20)
(1.02477 0.00202972 -4.16816e-21)
(0.635304 0.0774982 -1.14627e-19)
(1.08305 0.206506 0)
(0.757577 0.106726 0)
(1.08543 0.12001 1.0667e-20)
(1.02504 0.0324278 -2.17305e-22)
(-0.348847 -0.263831 2.24572e-20)
(1.01529 0.0132037 -9.62846e-22)
(1.00964 0.00281489 0)
(0.990914 0.0671722 4.8886e-22)
(1.00938 -0.00234956 4.40106e-23)
(1.00728 -0.000487408 2.26587e-22)
(1.04834 0.568683 0)
(1.05428 -0.0186409 0)
(1.04686 0.0137878 0)
(1.01925 0.000637383 2.12844e-21)
(1.04099 0.0196956 2.62609e-21)
(1.01054 -0.0040139 3.33184e-22)
(1.00395 -0.000113906 0)
(1.01972 0.0916854 0)
(1.01202 0.0206652 1.34794e-21)
(-0.00689985 -0.163344 -5.5935e-20)
(1.00847 0.00912947 0)
(0.809246 0.0315384 -1.35577e-21)
(1.01621 0.00749357 1.76482e-21)
(0.401473 0.0893226 -2.07117e-20)
(1.00143 -5.31792e-05 0)
(1.01552 -0.00260424 2.87048e-23)
(0.714639 0.180392 4.59491e-21)
(1.01086 0.0114565 -3.2547e-21)
(0.785096 0.0449323 7.02567e-21)
(1.00294 -9.65488e-05 -1.86115e-22)
(0.908516 0.159053 5.9422e-21)
(1.04199 0.025283 1.38316e-21)
(1.0393 0.0206131 -6.16038e-21)
(1.05254 0.0227664 -9.94008e-22)
(1.05423 0.0488765 7.03274e-22)
(1.01167 -0.000318039 0)
(1.00904 0.00255447 -6.45458e-22)
(1.0055 -0.000568938 6.85744e-23)
(1.01421 -0.00161468 7.23783e-23)
(1.18744 0.156097 4.3702e-20)
(1.03393 -0.00598726 -1.65464e-22)
(1.00776 -0.000555279 7.36156e-22)
(1.26128 0.393757 4.53564e-20)
(0.984765 0.437685 2.49711e-20)
(1.01761 0.00633776 1.67113e-21)
(1.14094 0.523519 0)
(1.05386 0.0218159 -3.7142e-21)
(1.01698 0.0105464 0)
(1.03542 0.0973398 -7.79693e-21)
(1.04946 0.00924123 -9.42494e-23)
(1.05842 0.0384353 1.42427e-20)
(0.81916 0.68834 2.22079e-20)
(1.03709 0.0183316 -3.61613e-21)
(1.1085 0.0303488 -5.80332e-22)
(1.05816 0.0280397 1.0857e-20)
(0.573978 0.581733 -1.75486e-21)
(0.778068 -0.523248 -3.41741e-20)
(1.00725 -0.000493296 -7.15225e-22)
(1.00482 -0.000412766 -7.71669e-22)
(1.01261 0.00189964 6.06503e-22)
(0.930042 -0.269993 -7.74426e-21)
(1.01901 0.00482631 -1.72498e-21)
(0.157896 0.0440401 -6.89695e-20)
(1.01694 0.0138288 -4.58084e-23)
(1.00354 -0.000155313 -3.08624e-22)
(1.01218 -0.000188846 9.60726e-22)
(1.00159 -8.48134e-05 -6.42714e-22)
(1.00297 -0.00011874 0)
(1.00166 -8.74074e-05 -7.07597e-22)
(1.0199 0.000195518 -1.9021e-21)
(1.01552 0.112193 -1.84913e-22)
(0.83764 -0.103527 -1.6739e-20)
(1.00215 -0.000106447 0)
(1.01571 0.00719835 -2.88435e-21)
(0.661033 -0.192118 0)
(1.01199 0.00758078 -2.11616e-22)
(1.00098 -7.65359e-05 8.91847e-23)
(0.583124 0.574306 0)
(1.01026 0.0579625 -1.68703e-22)
(1.01897 0.000515545 -2.28556e-21)
(1.01227 0.00479675 3.33409e-22)
(1.00622 0.000771087 2.76591e-22)
(0.886392 -0.0830045 -2.05818e-21)
(1.03704 0.0138438 0)
(0.744737 -0.00391944 -2.09487e-21)
(1.01011 0.017805 -1.93204e-21)
(1.03174 0.00583561 -2.65627e-21)
(1.10564 0.0620413 0)
(1.06616 0.201133 0)
(1.04122 0.0093274 -2.39928e-22)
(1.19622 0.170016 0)
(0.830149 0.0739864 7.6422e-22)
(0.632912 0.0621625 3.61788e-22)
(1.06529 0.217419 9.6844e-21)
(1.01404 0.00651334 -2.43188e-22)
(1.03962 0.092755 -1.07224e-21)
(1.12893 0.53628 3.59987e-21)
(1.0018 -0.000121628 -4.23569e-22)
(1.03053 0.103121 8.51377e-22)
(1.00692 -0.000608023 0)
(1.03216 0.0340565 -9.72317e-22)
(0.962425 0.0595758 1.75637e-21)
(1.16001 0.502674 -3.7114e-20)
(1.00483 -0.000423387 6.27088e-22)
(-0.209457 -0.258786 1.8594e-20)
(1.02707 0.0166016 1.5938e-21)
(0.818827 -0.00773731 0)
(1.01904 0.00131786 -1.71622e-21)
(1.14203 0.100772 2.22444e-20)
(1.03571 0.0998826 0)
(0.941273 0.111514 0)
(-0.232748 -0.291683 -1.36574e-19)
(0.942038 0.28122 6.77566e-21)
(1.00653 -0.000470512 1.04815e-22)
(0.572587 0.57667 -1.57406e-20)
(1.01213 -0.000453369 0)
(0.281782 -0.0836457 2.80269e-20)
(1.03412 0.0152638 2.8326e-21)
(0.98514 0.0570539 2.75818e-21)
(1.04756 0.00794812 0)
(1.0463 0.015338 8.06796e-22)
(1.04614 0.0283589 6.45836e-21)
(1.01533 0.00493171 1.06052e-21)
(1.01684 0.0133788 5.47725e-23)
(1.01764 5.90607e-05 -1.83361e-21)
(1.00123 -4.49384e-05 -6.61354e-22)
(1.01298 -0.00132706 0)
(1.00254 -0.00011482 -2.86106e-22)
(1.01477 0.0121487 0)
(1.03403 0.0316612 -2.40457e-22)
(1.00639 -0.000419882 -3.05664e-22)
(1.00674 -0.000546078 0)
(0.874312 -0.0631021 -2.40528e-21)
(1.00177 -6.14557e-05 3.3372e-22)
(0.999352 0.0895803 -6.61899e-22)
(1.00167 0.000166704 0)
(1.05128 0.0338687 -1.96094e-21)
(1.00646 0.00037454 0)
(1.05302 0.0682449 -4.0463e-21)
(1.00615 -0.000349199 -1.86488e-22)
(0.927824 -0.0924258 0)
(1.0099 -0.00883549 1.22235e-21)
(0.789607 -0.383072 -2.06637e-20)
(0.968213 -0.0064731 0)
(1.0323 0.00631585 0)
(1.00283 -4.64313e-05 -5.34188e-24)
(1.00248 0.000100917 0)
(1.01271 -0.00130303 1.18015e-23)
(1.03023 0.0167396 7.4264e-21)
(1.01416 0.0064295 -1.48237e-22)
(1.025 0.00663037 0)
(0.936578 0.644211 2.85836e-20)
(1.0077 0.000489925 0)
(0.308094 0.192143 -5.45042e-21)
(0.797896 0.131887 -3.15473e-20)
(0.904516 0.147885 0)
(1.0062 -0.000312033 1.65791e-22)
(1.00253 0.000106748 -1.18327e-21)
(0.98551 0.524573 -2.068e-21)
(1.06277 0.0257937 1.13977e-20)
(1.02448 -0.190217 0)
(1.08379 0.227387 6.40076e-21)
(0.734413 -0.201768 -4.11847e-21)
(-0.0691852 -0.281393 0)
(1.10866 0.102956 -6.44019e-21)
(1.02633 0.0372944 0)
(0.352799 0.242238 0)
(1.01295 0.00524747 2.63927e-22)
(0.999046 1.63106e-05 0)
(1.00518 -0.000334715 -1.27313e-22)
(1.04959 0.143394 -1.26381e-23)
(1.01198 0.00755373 0)
(1.04572 0.00848696 -5.78336e-21)
(1.04841 0.105658 -3.3892e-22)
(1.0131 0.00409529 1.16109e-21)
(0.929106 -0.298715 7.80918e-21)
(1.00925 0.00263842 2.05783e-23)
(0.94216 0.00496949 2.18177e-21)
(1.04762 0.169611 -2.46558e-21)
(0.776595 -0.386095 2.0319e-20)
(1.20426 0.270665 3.03353e-20)
(0.942378 0.106112 1.9839e-21)
(0.751163 -0.022681 9.05267e-22)
(1.03375 0.0321283 -5.4265e-22)
(1.01268 0.00519787 -7.8191e-22)
(1.01152 -0.000335086 6.13159e-22)
(1.01894 0.00868953 0)
(0.576093 0.105309 -4.46602e-20)
(1.00182 0.568452 0)
(1.00085 -2.0622e-05 3.07847e-22)
(1.00644 0.000280288 -4.65626e-22)
(0.759058 -0.064969 9.96571e-22)
(1.02016 0.0585737 -2.99546e-22)
(0.740464 -0.131069 -7.73951e-21)
(1.02948 0.0132983 -1.14015e-21)
(0.962852 0.0055049 0)
(1.04726 0.0285068 7.68214e-21)
(0.860351 0.162348 0)
(1.04144 0.00798384 9.42592e-21)
(1.00177 -0.00012444 -1.00776e-21)
(1.00835 -0.000927819 0)
(1.00701 0.000496726 0)
(1.01035 0.00441574 0)
(1.01395 0.00605056 6.56115e-22)
(1.04106 0.00726032 -8.89225e-21)
(0.165179 -0.121829 -6.19184e-20)
(0.556066 0.0841313 0)
(1.00182 -0.000124614 0)
(-0.212101 -0.28872 9.52606e-20)
(1.01353 -0.00159976 -9.85762e-22)
(-0.346952 -0.280312 -2.11153e-20)
(1.21607 0.268921 -1.31102e-20)
(0.785996 -0.342469 -7.31126e-21)
(1.00838 -0.000915634 0)
(1.03238 0.00492492 -7.59645e-22)
(0.573853 0.592 0)
(1.00694 -0.000699462 -5.23032e-22)
(0.821036 -0.339315 1.09086e-21)
(1.02268 0.000983188 -2.54219e-21)
(1.01282 -0.00184886 0)
(1.03189 0.0315578 -1.11682e-21)
(1.00089 7.06353e-07 8.90232e-22)
(0.653698 0.640059 -3.27586e-20)
(1.02276 0.00935759 0)
(1.0077 -0.000692096 -1.16508e-24)
(1.04405 0.133775 -1.68622e-22)
(1.02291 0.00101847 -4.56963e-24)
(1.09323 0.0598044 8.72614e-21)
(1.01409 0.00587543 -6.54921e-22)
(0.411122 0.430261 -2.99274e-20)
(1.00384 -0.000152779 0)
(1.01492 0.0125169 9.12153e-22)
(1.02099 0.00542122 -1.60481e-21)
(1.03771 0.0135689 0)
(1.08336 0.048843 9.55338e-21)
(1.06689 0.0286794 0)
(1.05275 0.023586 4.36522e-21)
(1.03971 0.0222501 2.25106e-21)
(0.724598 0.20949 -8.40988e-22)
(1.05432 0.0414285 -6.36604e-21)
(1.00655 -0.000354671 0)
(1.01434 0.0106832 0)
(1.00643 0.000291801 1.59252e-21)
(1.02084 0.0107389 1.81133e-21)
(1.00682 -0.0141959 2.06662e-21)
(1.0438 0.0858585 0)
(0.603489 0.0379719 5.25821e-20)
(1.01856 0.0105619 6.0168e-22)
(1.02109 0.000461472 -2.41947e-21)
(0.875753 -0.0116112 -7.99765e-22)
(1.01142 0.00434595 -3.5868e-22)
(-0.207164 -0.261933 1.85694e-20)
(1.01859 0.125886 0)
(1.0067 -0.00038895 -3.75726e-23)
(1.01584 0.0120461 -2.10616e-22)
(0.960881 0.404265 -1.82994e-20)
(1.01315 0.00136632 0)
(1.05764 0.0355741 -1.35984e-20)
(1.0083 0.00370042 -4.79149e-22)
(1.01067 0.00129851 -6.44504e-22)
(1.02981 0.0152561 0)
(1.01634 0.0182565 -5.68529e-22)
(0.673324 0.608214 3.62132e-20)
(1.03624 0.0395465 4.33501e-21)
(1.01201 0.0344535 0)
(1.01642 0.0130959 2.2516e-22)
(1.04611 0.382241 1.79468e-20)
(1.19001 0.187116 -2.62363e-20)
(1.00356 -0.0112116 3.78498e-22)
(1.01607 0.00900203 9.74671e-22)
(0.744585 -0.111156 3.13982e-21)
(1.01774 0.00598192 1.05912e-21)
(0.762231 -0.430256 1.45213e-20)
(1.0123 -8.73116e-05 0)
(1.01892 0.0106759 0)
(0.722014 0.184679 4.50472e-22)
(1.03493 0.0145404 0)
(1.08265 0.337515 -2.3293e-20)
(1.03876 0.0732868 0)
(0.911964 0.655177 0)
(1.01907 0.00122836 -2.99927e-23)
(1.00251 -9.20965e-05 3.81018e-22)
(1.00748 0.000461302 1.24874e-23)
(1.05633 0.0385536 2.59863e-23)
(0.999793 -5.48437e-05 8.04704e-22)
(1.03076 0.00597698 0)
(0.843787 -0.247051 0)
(0.422533 0.468482 3.18294e-20)
(1.02096 0.0170844 -6.11749e-23)
(1.0031 -0.0167572 7.68213e-22)
(0.724268 -0.258729 0)
(0.589429 0.273286 -7.55521e-22)
(0.878134 -0.214255 1.87299e-20)
(1.14227 0.105561 0)
(1.05284 -0.0175051 4.32098e-22)
(1.00747 -0.000462154 0)
(0.872692 -0.286221 2.07793e-21)
(1.0131 -0.00197721 -4.34314e-22)
(1.03494 0.202751 0)
(1.03573 0.0699478 2.90547e-21)
(0.809805 -0.328683 6.13755e-21)
(1.00707 -0.000708657 8.13588e-22)
(1.02074 0.0108871 -2.08062e-21)
(1.01109 -0.000455048 -6.30579e-22)
(1.00859 0.000260559 -1.07677e-21)
(0.752715 -0.125448 0)
(1.01106 0.0205286 4.55344e-22)
(1.17538 0.0125572 7.26931e-22)
(1.00446 0.000535826 1.00026e-21)
(1.02074 0.0562453 -2.38789e-21)
(0.674509 -0.357469 -2.74192e-21)
(1.01641 0.0197097 7.10163e-23)
(1.00674 0.00109972 2.69624e-22)
(1.0123 0.00434129 -8.3458e-22)
(0.740907 0.166853 -5.55568e-21)
(0.680768 0.0726564 1.15951e-21)
(1.05107 0.0674773 -2.92606e-20)
(1.01076 0.164272 4.65183e-21)
(1.01629 0.00937214 2.62817e-22)
(0.667034 -0.375378 1.59041e-21)
(1.01632 0.0126816 8.09596e-23)
(0.995046 -0.00904685 0)
(0.975147 0.00669298 0)
(1.00317 0.0774375 -3.48584e-21)
(1.05594 0.164304 6.06193e-21)
(0.975901 0.0928931 4.17582e-21)
(0.775112 -0.0479582 1.78862e-22)
(0.968411 -0.00796882 -8.01859e-22)
(1.00142 -4.43361e-05 -1.02387e-22)
(1.00963 0.132519 0)
(0.578662 0.0750684 6.40314e-20)
(0.960521 0.363648 1.06098e-20)
(-0.26804 -0.451161 0)
(0.719028 -0.0980356 0)
(0.864511 -0.155756 -1.70534e-20)
(0.976318 0.0820241 3.468e-21)
(0.938323 -0.033393 -4.87185e-21)
(0.759999 -0.427129 -8.27341e-21)
(1.01657 0.0186875 -7.10407e-23)
(1.06249 0.0263239 -3.43248e-21)
(1.0192 0.0160767 -2.95325e-22)
(0.848984 -0.222597 1.5725e-20)
(0.713512 0.141756 -7.4306e-21)
(0.680029 0.666707 5.22479e-20)
(1.05551 0.0128484 -4.66927e-21)
(1.04866 -0.0242664 -4.65512e-22)
(1.00174 -6.54716e-05 2.61194e-22)
(1.01502 0.0126869 -5.11556e-22)
(1.00856 0.000251891 0)
(1.04024 0.0386977 0)
(1.01353 0.00147673 7.98551e-22)
(0.97399 0.218814 -1.21981e-21)
(1.02129 0.0170813 -3.02305e-22)
(0.45234 -0.43802 -3.54238e-20)
(1.02592 0.00119935 4.91211e-23)
(1.00623 0.000728304 0)
(1.01477 0.0120094 5.61617e-22)
(0.881576 0.668358 0)
(1.04691 0.0502322 0)
(1.05803 0.0275034 -6.81208e-21)
(1.03617 0.38945 -2.70959e-20)
(1.01875 0.0157625 5.12215e-23)
(0.841467 0.0524801 8.4632e-22)
(1.00674 0.000856521 0)
(0.984789 -0.0100399 6.38206e-22)
(1.01581 0.0177908 -3.08497e-23)
(1.00876 0.000387417 3.68973e-22)
(1.00661 8.16425e-05 -1.19581e-21)
(1.02265 0.0271012 -3.87463e-22)
(0.697718 -0.268301 1.07387e-21)
(1.00771 -0.000470482 0)
(1.01468 -0.00190544 0)
(0.777859 0.424393 6.01116e-20)
(-0.0519942 -0.226257 -4.49183e-20)
(0.984878 -0.019941 1.01777e-21)
(1.03713 0.0145547 1.74434e-21)
(1.01446 0.0108938 0)
(0.400293 0.518224 -5.97191e-21)
(1.00256 -0.000104926 0)
(1.04991 0.0104555 0)
(0.729095 -0.162473 0)
(1.01464 0.0117736 1.18011e-21)