/*--------------------------------*- C++ -*----------------------------------*\
| =========                 |                                                 |
| \\      /  F ield         | OpenFOAM: The Open Source CFD Toolbox           |
|  \\    /   O peration     | Version:  v2012                                 |
|   \\  /    A nd           | Website:  www.openfoam.com                      |
|    \\/     M anipulation  |                                                 |
\*---------------------------------------------------------------------------*/
FoamFile
{
    version     2.0;
    format      ascii;
    class       volScalarField;
    location    "150";
    object      ReThetat_0;
}
// * * * * * * * * * * * * * * * * * * * * * * * * * * * * * * * * * * * * * //

dimensions      [0 0 0 0 0 0 0];


internalField   nonuniform List<scalar> 
18758
(
624.065
300.628
605.083
35.4165
32.4202
32.8765
37.3818
602.748
529.518
604.655
630.678
41.7381
590.875
416.313
538.002
311.444
515.062
594.031
609.986
605.875
34.5757
583.813
37.5483
227.237
513.839
602.817
363.912
32.3544
54.9701
385.763
457.251
35.4333
586.92
617.845
468.697
577.528
585.901
618.266
622.109
531.408
618.607
512.379
608.926
581.137
618.952
603.863
37.1814
628.884
603.713
608.059
658.127
33.2785
605.373
629.804
32.4216
164.657
586.212
275.652
582.84
417.256
636.42
37.9134
582.341
532.652
605.226
558.748
511.095
587.259
617.411
33.364
33.3361
511.744
608.261
212.913
606.957
582.974
608.752
32.5488
510.186
39.2629
35.34
474.893
421.343
32.6065
582.406
631.768
75.9518
592.164
42.05
588.399
32.5911
579.252
58.9703
515.721
34.9445
59.7042
539.067
607.772
594.362
34.5265
611.539
32.5745
509.326
644.12
35.5609
438.758
51.6119
32.4906
624.719
480.033
64.9163
215.045
601.492
606.893
42.5526
32.9646
32.8846
541.131
40.6671
34.786
643.375
541.414
41.6616
317.856
614.618
581.797
397.202
596.224
54.6233
590.918
514.239
395.481
34.8068
536.166
211.025
572.094
592.633
537.003
594.974
410.307
498.877
527.473
601.707
89.4598
620.138
600.689
33.725
36.2339
451.04
37.5523
621.806
81.5922
634.286
584.469
35.091
636.784
40.4441
628.766
586.843
584.431
603.205
427.801
76.3808
588.85
637.596
48.9215
610.883
40.7213
663.03
32.7498
33.2904
594.488
73.8573
32.3628
431.729
347.327
43.3364
539.032
425.986
621.029
599.996
32.9791
102.673
609.406
562.192
260.013
589.287
32.9781
608.144
582.711
540.932
568.321
609.983
459.381
573.694
586.433
607.342
667.755
587.783
608.501
349.069
627.92
626.828
547.705
590.883
575.314
519.11
583.96
34.7921
600.949
594.404
645.091
592.61
631.015
482.65
36.1586
478.842
288.137
605.455
32.9831
594.453
625.012
579.344
33.6689
652.583
513.265
635.374
572.474
608.007
588.531
556.92
558.601
36.7622
513.872
590.377
588.993
608.056
603.283
44.8036
638.387
600.801
625.62
49.4524
626.007
39.648
212.956
520.987
579.385
35.1365
402.891
581.242
39.3397
637.39
413.173
566.547
644.801
593.28
276.365
629.316
533.18
589.245
513.436
587.507
546.694
600.659
553.253
33.8936
604.923
624.296
570.267
623.852
572.257
566.055
42.952
32.9307
598.731
663.944
31.7956
563.905
608.065
611.182
636.237
639.685
601.625
31.8534
597.915
67.7567
34.911
37.112
608.513
605.518
575.43
36.3935
419.855
522.206
553.497
632.947
35.1524
609.445
208.767
32.6655
603.544
34.6948
563.045
617.608
627.508
614.297
565.189
580.038
35.8575
79.1033
593.099
36.0251
34.9699
653.732
580.54
588.73
87.056
626.144
609.035
610.812
439.153
658.209
614.826
634.933
637.344
603.533
549.69
590.455
584.398
607.445
620.655
661.359
35.3031
415.238
610.04
590.209
207.076
34.6545
608.752
595.304
608.323
568.632
571.665
497.99
541.88
486.491
608.219
316.432
532.378
503.523
642.086
597.78
495.51
618.923
643.926
408.125
41.8982
33.9403
130.238
590.637
608.259
220.38
40.3296
611.493
608.946
633.99
614.222
615.062
116.334
33.2096
445.581
601.956
33.9591
576.178
627.272
597.557
622.556
478.298
632.428
36.3504
494.363
566.89
592.731
32.8613
450.573
518.451
567.638
469.106
611.275
472.085
546.577
604.984
33.01
34.7995
399.156
68.4003
595.196
564.54
34.3621
646.238
602.042
36.1426
613.003
595.933
600.135
478.345
556.563
577.761
642.104
41.5045
610.741
32.4984
570.829
579.945
607.62
579.999
595.33
632.672
522.705
553.182
209.632
644.814
570.591
565.209
36.6684
43.3124
33.2376
453.444
606.406
604.662
601.219
591.574
440.488
541.52
520.351
563.438
635.045
134.47
511.723
575.717
637.514
44.6155
590.371
34.0293
586.776
567.798
35.8118
554.194
624.331
663.292
475.515
578.7
52.3368
582.315
588.059
294.05
40.7516
420.317
654.721
417.539
233.523
33.0031
416.949
508.763
605.667
604.838
440.087
626.217
53.4541
462.488
345.303
520.272
455.86
603.492
282.444
608.185
34.08
597.447
635.461
586.267
87.7911
616.851
587.349
594.008
600.488
42.4931
33.5809
44.1875
507.972
571.351
624.078
584.642
583.284
33.1562
594.249
565.743
581.342
591.044
652.985
632.476
564.906
558.854
529.797
591.231
638.418
39.9529
474.871
418.747
621.478
569.62
232.671
487.711
625.016
334.779
32.9243
450.83
70.9192
611.031
624.494
32.91
610.046
32.9759
628.423
586.58
38.0331
539.656
641.171
596.801
621.435
33.7664
618.732
615.01
541.257
569.423
594.103
601.68
584.522
45.936
633.357
48.0327
542.824
625.374
166.652
586.742
608.395
634.096
588.453
608.406
467.059
619.804
513.933
335.984
605.958
33.5935
32.5901
384.024
554.486
359.91
482.929
477.822
631.995
33.2365
630.917
474.503
603.09
28.9007
620.942
544.008
520.228
37.7418
631.326
595.515
640.478
523.894
607.039
635.417
532.565
44.477
611.507
613.365
600.709
590.995
32.6272
42.9405
553.096
418.594
560.729
40.8646
33.4906
111.489
478.26
582.655
32.2609
452.264
610.434
514.618
33.2648
35.629
617.299
460.869
608.676
604.939
36.2466
525.402
32.4128
34.5103
535.48
588.155
568.781
584.671
602.771
462.775
554.7
533.546
627.587
671.68
32.5288
655.195
584.036
551.582
664.735
32.84
476.565
317.248
647.011
554.36
425.776
43.8408
610.991
607.763
324.945
32.5588
670.133
590.774
33.9869
35.0854
536.055
608.126
39.8891
36.0454
79.2007
631.882
578.923
45.0702
584.401
466.818
32.9021
488.581
38.3063
509.999
34.1495
532.525
586.045
455.118
33.2332
40.6635
35.7907
33.549
610.245
481.881
584.627
628.005
477.096
663.261
586.004
574.701
565.326
33.5675
33.2885
35.0811
644.598
613.712
533.006
485.899
610.818
581.509
522.733
454.555
567.712
472.097
599.397
590.696
596.062
32.3941
481.822
584.832
590.48
601.285
606.132
33.0918
614.299
591.076
651.636
472.504
566.345
619.617
446.752
391.868
624.725
45.3312
626.218
37.5393
397.064
504.401
114.204
36.284
607.501
33.2966
591.001
602.931
33.546
578.73
596.672
636.053
594.341
649.414
32.9316
608.214
102.879
582.132
641.954
42.1127
605.959
32.4784
610.351
615.583
589.421
579.993
485.114
327.642
32.9208
658.031
32.7961
577.269
569.372
581.258
35.2524
415.833
361.917
488.982
446.015
634.716
474.613
618.349
520.945
591
40.9549
616.065
387.623
515.534
622.918
67.9286
459.153
602.112
431.274
609.085
596.046
546.121
640.05
487.462
514.22
58.8445
32.7992
588.284
578.944
33.869
572.132
574.545
502.832
632.151
565.767
625.434
547.241
615.491
574.682
584.7
669.817
328.367
646.755
587.989
491.971
44.6032
598.919
479.393
628.867
33.0572
471.216
35.4916
591.169
579.041
584.616
531.52
611.353
521.174
484.214
605.87
590.353
606.011
40.6235
33.513
539.803
32.4544
558.219
543.109
636.951
546.093
39.9047
542.405
606.707
555.631
599.333
549.381
636.745
32.8938
42.134
475.596
91.0877
320.054
447.748
601.877
535.904
596.542
487.916
630.503
578.376
32.4303
33.5699
568.538
32.8968
621.292
414.731
534.168
71.8788
33.263
626.375
592.437
604.259
32.5738
598.422
617.341
630.693
597.204
43.499
436.023
573.588
32.977
577.236
469.246
627.441
592.437
605.118
601.213
32.9101
36.2744
419.221
565.926
606.606
484.297
608.707
636.222
577.242
516.852
32.9751
481.954
596.151
421.017
616.405
469.613
602.429
39.4191
631.855
39.0778
58.2073
556.917
560.236
401.64
33.0384
39.8009
337.459
666.39
32.9083
590.691
555.673
297.304
434.258
590.833
617.989
628.454
34.3269
229.456
586.125
543.371
529.357
388.167
219.472
621.587
638.065
596.315
588.64
584.397
598.545
581.951
626.03
598.406
592.756
618.351
608.215
64.5616
385.801
36.1803
608.418
495.136
555.12
593.137
535.615
605.084
595.938
607.509
608.389
522.987
631.965
33.0636
432.295
574.859
538.751
38.337
42.6075
640.578
605.649
130.632
588.338
641.989
608.893
593.713
35.2527
598.126
605.34
455.389
594.405
39.8951
33.3243
486.216
481.271
578.783
609.037
590.973
32.9626
185.62
640.021
623.131
33.4163
593.412
580.41
40.1065
612.132
32.3094
605.931
500.267
463.065
582.6
608.583
588.436
33.2902
624.11
578.686
351.116
628.482
593.164
652.579
628.492
588.309
507.293
592.591
602.63
35.6297
422.486
565.292
412.636
449.06
656.769
598.333
494.705
76.6009
631.723
592.352
585.146
602.421
589.545
459.264
632.151
473.057
610.2
636.478
446.632
35.215
577.827
585.78
605.324
618.575
651.853
602.428
33.2241
587.175
600.725
606.488
337.024
32.8366
587.617
627.695
597.058
506.128
600.46
549.447
154.257
584.793
600.243
581.045
639.963
601.047
615.154
38.4808
140.411
343.48
339.986
32.6227
523.824
587.63
593.455
33.3861
551.996
514.727
509.451
637.039
549.852
569.66
599.647
609.223
605.876
588.872
32.7507
610.824
601.515
43.5656
506.989
36.5138
28.2884
416.595
586.947
593.704
597.795
490.879
587.412
607.834
33.3807
339.785
461.146
592.718
647.626
417.183
587.527
582.394
624.487
300.926
519.177
609.107
629.316
635.88
599.893
618.354
609.155
319.243
636.545
531.132
613.937
644.177
32.9126
36.2648
564.678
639.079
33.2201
587.049
585.331
625.491
649.165
578.201
429.436
563.37
485.492
592.308
594.004
612.235
584.606
393.086
32.6733
481.582
568.317
33.4446
386.751
587.597
510.758
595.778
621.5
625.676
542.034
34.1842
33.0605
33.1024
591.467
32.9651
544.199
34.748
34.2024
602.846
496.861
436.766
605.857
593.394
29.0727
573.803
588.836
548.196
558.01
591.042
623.078
587.818
629.161
523.138
587.306
33.9026
513.94
593.717
489.12
630.193
524.197
583.05
409.534
608.457
32.5851
545.564
607.814
56.4897
602.437
32.8695
593.388
648.193
50.0383
33.8265
602.693
505.118
582.262
463.509
634.311
398.222
605.461
35.9353
597.255
615.008
665.757
572.304
613.768
591.275
30.6417
586.46
623.737
372.112
589.094
612.386
47.3695
605.953
607.981
612.66
32.8384
607.275
605.627
32.4718
629.104
33.0417
520.715
605.053
597.13
364.323
516.671
554.864
43.684
32.8083
601.845
34.8312
546.29
593.429
532.437
621.316
585.559
112.063
610.798
590.811
474.907
50.2838
584.696
614.079
36.2133
598.38
279.117
115.941
591.734
36.2689
589.382
417.518
511.018
33.712
602.86
571.76
102.509
584.625
373.591
602.413
592.706
32.8254
650.789
571.586
643.192
471.819
484.285
629.076
635.681
507.029
603.019
552.318
590.669
586.907
624.848
598.447
588.572
626.105
604.663
592.019
249.85
608.461
519.955
592.567
600.42
591.152
581.078
34.3597
33.0098
629.731
583.933
85.4493
624.884
60.1019
441.366
322.156
33.6624
36.3233
35.8336
566.74
591.447
600.926
35.5287
612.323
588.509
520.679
608.633
580.677
578.906
33.3834
462.965
586.387
41.9596
33.0452
625.149
593.571
537.2
36.0455
588.959
420.205
584.549
592.719
602.5
605.418
523.464
615.081
610.045
613.206
603.048
410.535
605.374
614.76
589.103
550.458
533.719
140.275
627.392
602.759
533.289
580.671
584.901
34.6787
567.989
609.882
575.707
33.5163
594.014
593.578
35.1238
588.362
654.098
629.622
623.886
33.8055
35.3883
407.668
35.0253
638.27
430.239
600.242
28.391
590.43
382.384
570.918
604.167
217.307
328.867
643.373
304.933
594.368
39.349
585.749
32.2253
579.548
594.52
600.81
578.638
647.428
603.716
32.4277
511.269
595.381
593.503
592.219
32.988
588.381
590.69
587.41
594.534
639.031
343.991
577.383
606.263
430.181
565.922
624.277
432.884
609.402
531.989
630.339
395.375
605.95
586.748
32.8794
644.297
574.103
309.397
606.78
32.9227
165.14
483.992
32.411
581.882
44.5093
37.3104
453.951
598.967
40.138
565.347
591.889
585.813
37.9996
610.038
592.885
640.981
584.763
33.1952
568.221
589.521
584.757
597.516
322.037
484.528
33.0047
451.457
35.6291
658.906
583.161
579.911
598.831
122.593
531.384
600.469
632.459
591.766
552.419
43.4664
35.5032
551.874
573.372
32.1939
607.837
32.9433
642.023
610.898
38.0039
629.509
498.202
560.094
200.056
590.969
218.232
605.478
579.554
581.888
606.805
41.6223
597.451
572.034
629.439
33.8484
587.08
605.751
35.1355
592.097
604.892
588.176
526.357
567.514
577.695
590.585
578.966
405.304
599.061
614.524
36.0889
517.848
34.4664
530.758
533.134
596.299
599.398
618.277
35.4655
34.7274
616.407
584.632
591.164
168.281
605.932
539.691
266.468
35.802
32.987
33.6171
34.1336
590.719
45.8018
32.9428
33.0539
595.173
495.758
487.737
602.02
65.0715
521.008
598.44
635.609
32.9839
549.071
605.227
41.4664
571.995
610.87
605.328
487.426
588.222
93.8491
28.5503
33.2862
35.8312
500.24
485.634
608.645
572.74
583.482
547.786
603.853
35.6341
620.837
613.319
642.458
37.9412
536.654
512.091
624.46
643.995
33.1135
33.3146
43.4105
37.989
527.641
32.93
567.7
622.343
596.284
474.836
595.653
597.197
480.182
573.757
45.865
597.662
611.628
566.984
32.2622
574.875
600.301
607.579
547.444
637.559
582.529
496.579
592.34
34.002
606.093
587.498
573.865
574.641
605.369
35.5346
510.088
32.5361
592.321
50.008
599.505
586.499
566.655
548.735
33.2316
32.4046
34.6368
592.89
595.319
606.182
32.554
588.683
581.786
497.867
568.673
625.703
34.6261
599.83
562.924
585.137
590.407
602.447
568.617
605.173
528.991
500.737
645.572
599.26
33.5115
628.884
32.6192
33.454
618.035
35.3406
32.5355
612.641
509.577
591.681
605.203
395.938
592.602
39.5888
530.064
427.606
585.242
573.603
595.431
36.334
535.321
38.408
598.229
558.597
561.601
599.751
596.235
541.212
606.809
42.7916
570.341
498.881
591.442
566.755
641.671
548.437
595.646
499.369
321.936
635.085
474.088
599.835
32.5547
650.38
583.409
657.338
418.721
35.0061
544.841
626.976
587.146
607.016
590.19
33.4764
592.818
587.463
33.0431
585.537
606.24
592.556
32.8409
492.484
33.696
45.3633
524.604
33.1176
616.488
32.5722
397.628
603.898
567.525
543.006
590.229
551.186
35.6426
507.141
472.155
644.114
599.797
37.8051
595.898
37.1981
584.841
135.837
36.2794
585.827
612.375
584.371
548.189
536.76
593.369
34.8913
573.256
469.087
656.131
626.118
594.825
34.988
607.811
460.994
595.076
33.0692
588.596
598.349
37.2529
605.158
602.068
624.139
656.569
590.916
580.119
565.894
605.322
628.819
623.804
601.796
33.1531
594.49
642.714
34.3505
523.119
562.065
581.682
596.841
578.973
315.068
546.062
611.089
585.585
563.544
412.681
495.874
614.031
485.688
598.888
623.218
598.914
598.677
36.055
605.27
47.905
42.7738
624.946
608.295
42.3014
36.7208
598.739
558.352
47.1206
608.004
321.549
608.834
487.295
594.171
551.621
647.887
555.676
32.2631
497.594
613.564
622.268
640.701
585.357
570.103
586.523
528.429
625.081
632.834
605.223
599.727
561.919
607.643
33.8899
444.601
537.711
540.45
592.566
598.701
33.6839
584.67
588.896
596.439
596.857
645.718
34.0811
601.549
607.017
590.196
618.115
639.792
637.056
35.0349
494.083
598.342
546.85
32.6071
607.292
614.261
34.8525
641.025
622.848
369.42
602.26
33.5249
466.089
580.567
451.749
614.521
586.471
612.992
35.7807
526.457
138.09
32.5751
471.774
487.873
593.197
44.8124
584.36
33.0967
609.483
403.81
504.196
431.685
545.211
30.9445
633.299
585.821
32.8222
33.139
606.099
115.098
592.472
620.924
611.781
33.0908
483.407
601.983
603.273
34.6844
575.376
598.095
578.865
587.6
599.615
606.487
571.446
34.9376
103.752
602.038
493.864
537.261
444.974
591.707
33.1558
33.1438
33.3688
456.23
33.221
33.1109
575.937
636.525
597.481
437.035
32.9847
617.322
605.979
604.925
635.785
605.647
557.989
467.848
572.651
584.293
548.049
592.456
585.798
590.773
514.784
43.7403
599.257
508.432
606.761
32.4432
612.841
571.63
33.6561
441.253
400.192
30.118
359.215
566.771
635.7
587.71
552.733
585.635
594.735
539.473
578.227
34.6551
455.919
367.744
276.511
545.006
637.797
618.332
33.6119
35.4876
30.8111
561.929
605.289
33.723
33.1517
579.973
43.2638
581.216
634.927
605.51
614.692
612.588
613.63
586.322
531.661
638.503
535.365
556.74
603.239
599.771
599.279
584.993
593.243
33.6849
33.8615
33.2006
624.121
57.068
600.552
32.4714
61.2174
637.723
588.415
505.827
610.96
601.847
59.7033
33.9365
623.557
602.235
492.154
32.7851
584.386
34.6439
609.605
588.135
32.8076
585.097
513.193
587.332
35.8197
600.888
566.693
477.015
608.745
566.438
606.258
602.879
475.46
593.688
33.1687
591.003
578.711
603.859
33.0928
636.04
596.266
33.5389
586.912
600.84
411.354
48.1215
571.827
33.4309
32.4668
635.951
33.938
588.362
616.853
422.999
609.808
36.401
32.8227
605.939
523.22
600.263
34.7629
115.876
539.9
581.954
555.251
501.365
590.645
634.817
591.132
616.038
593.949
602.383
38.536
605.663
602.005
636.418
179.126
489.197
34.1552
590.967
566.504
617.22
615.327
499.179
604.906
582.506
591.815
587.362
587.179
612.989
612.384
618.886
602.636
34.157
33.328
618.406
620.193
34.8738
586.218
431.619
35.9179
380.301
32.5612
636.332
32.4752
361.802
36.1571
608.767
637.909
600.194
650.367
632.415
585.713
613.63
36.1653
608.94
395.934
43.9285
607.519
611.506
658.445
602.982
602.677
596.609
603.226
32.7537
34.0587
588.546
564.353
565.437
610.845
529.712
622.075
295.283
670.244
580.815
34.1007
547.247
570.952
39.1442
606.909
435.416
601.734
621.082
613.405
33.2493
579.452
593.675
618.483
621.464
640.626
603.765
32.3551
646.901
567.033
193.962
32.2205
461.983
541.514
46.2779
598.851
590.429
627.815
32.9453
432.606
649.509
34.1012
592.857
604.848
563.701
457.383
549.218
552.062
598.155
619.176
371.734
600.971
32.4558
591.174
643.344
585.038
617.314
621.123
542.333
494.223
582.407
641.018
558.596
584.427
585.613
646.155
593.776
604.638
548.599
589.561
609.513
566.293
604.852
531.249
34.223
604.831
608.461
603.793
616.73
553.858
580.56
32.9257
474.612
605.548
598.332
34.2283
34.4353
594.413
467.275
468.807
576.67
34.7664
582.698
659.131
585.693
87.5814
32.239
585.122
608.827
33.1288
638.21
70.3713
585.613
587.424
33.329
39.2768
629.433
499.823
615.605
415.746
574.798
34.6365
34.3372
39.7517
534.923
613.623
511.263
602.498
495.049
625.561
33.785
600.043
586.728
611.035
612.04
598.767
506.936
42.2414
596.136
607.174
587.911
34.0896
612.694
625.329
587.544
632.283
38.5279
602.812
615.694
545.172
551.969
572.041
592.716
489.561
612.381
428.49
568.478
37.8855
451.679
563.107
56.3292
598.273
605.696
624.773
33.1039
577.53
247.319
601.82
33.0564
637.377
599.614
639.303
600.845
33.09
638.496
634.382
666.342
459.494
587.292
581.081
585.469
629.222
33.347
458.42
583.127
576.253
609.362
33.0293
568.709
33.2817
630.234
33.1446
671.645
595.224
546.803
552.675
597.819
32.261
589.639
485.629
116.208
605.081
34.5082
573.064
549.979
433.663
595.987
608.998
33.182
38.6345
34.1209
594.642
604.562
608.254
618.525
627.106
616.024
79.1725
430.046
155.141
622.794
622.256
642.058
438.753
574.483
608.345
34.7166
620.821
33.3083
598.181
590.731
549.24
609.674
605.045
575.061
600.854
486.002
44.7075
617.828
33.7191
586.796
581.769
585.954
634.882
557.719
620.101
588.565
35.162
42.2875
601.001
538.837
599.92
544.84
583.641
579.837
593.813
626.949
579.998
613.729
600.915
603.556
55.1877
465.038
423.515
547.849
614.039
570.065
35.1644
618.632
426.487
489.352
608.344
650.516
590.059
33.4398
608.452
612.138
32.4144
639.183
33.1372
601.961
534.848
613.019
581.933
37.6423
596.952
608.753
608.672
627.744
452.717
506.41
575.447
504.718
38.5454
571.879
561.005
590.122
413.184
35.3112
576.287
577.789
619.287
49.2475
548.528
622.136
34.2219
602.401
549.73
608.276
468.653
33.1469
51.1408
614.281
543.911
569.219
403.549
555.151
622.157
419.552
33.1306
614.554
590.075
590.414
39.5294
651.769
504.433
32.4737
585.859
125.935
580.99
589.66
608.138
636.66
34.4897
433.575
595.137
653.433
35.2452
32.9008
606.635
35.6157
456.655
599.316
529.435
33.6479
583.91
561.252
62.2985
606.059
615
598.811
501.043
553.68
534.781
471.026
33.7439
584.143
316.343
394.378
593.257
468.071
472.217
612.046
585.773
43.4989
36.5762
34.2512
609.735
633.51
587.681
34.267
589.46
645.282
46.6541
36.405
421.537
616.716
394.183
35.9091
495.767
582.706
579.283
601.419
32.4795
636.344
542.182
33.9991
617.739
586.265
32.8965
446.252
625.207
586.449
597.615
533.19
479.184
522.393
456.862
599.743
584.928
600.392
36.6617
33.116
596.999
623.985
621.567
575.656
592.307
595.324
489.239
522.324
588.428
417.428
646.139
590.585
611.057
601.858
514.311
32.5228
561.66
593.096
536.483
32.5542
639.546
506.957
500.349
610.841
606.712
552.014
560.207
354.395
39.0075
627.944
32.7135
30.0385
32.8001
520.38
580.259
591.883
502.414
34.1086
597.983
614.695
36.1308
571.259
523.396
649.766
487.187
587.751
422.475
499.762
570.935
596.709
270.308
619.781
435.325
458.918
592.598
579.921
38.3292
613.237
607.07
534.075
243.91
508.163
585.861
623.706
69.7101
36.5771
584.173
50.7492
446.803
660.558
640.196
616.283
398.659
369.342
609.236
611.166
602.279
597.604
511.677
32.7991
586.004
105.005
655.004
627.611
47.3753
561.974
34.0621
503.834
34.4715
618.056
32.7782
475.254
540.275
611.719
33.2157
41.4927
514.868
46.563
607.791
45.5989
33.2528
590.354
603.485
637.838
542.864
33.6185
32.9164
665.485
596.333
614.729
585.817
41.957
424.777
51.7443
574.229
89.6338
510.032
34.0439
587.168
35.4509
603.907
603.915
590.504
586.723
35.5489
528.015
34.4912
502.683
33.0023
45.6375
604.867
614.186
32.8706
473.797
596.511
533.178
592.049
32.6734
605.713
600.035
34.756
622.136
559.927
582.367
598.534
506.737
631.969
616.208
608.936
598.695
613.976
33.3444
356.263
574.212
559.5
32.8399
584.391
76.8402
32.8365
592.1
43.4581
576.218
553.726
43.9356
555.84
578.287
616.92
427.557
634.67
597.473
33.0815
602.152
34.6836
590.788
37.0715
35.8374
414.064
611.842
521.591
632.843
372.807
35.1764
508.482
616.013
35.9036
624.572
470.992
506.679
636.583
647.688
598.369
635.012
49.0305
34.5733
665
596.865
539.718
33.6532
584.793
656.805
484.119
459.203
597.261
439.397
606.504
548.6
32.6443
416.3
32.5779
646.694
554.1
32.7751
35.4706
35.3152
336.366
35.3116
541.835
55.4683
480.335
32.6197
34.2297
628.261
499.049
635.232
630.79
592.156
600.247
582.675
617.538
561.243
600.731
34.2422
44.2018
586.378
649.425
570.965
600.927
543.054
594.506
608.245
655.338
598.112
638.453
348.879
663.91
533.103
592.969
662.671
586.01
594.995
397.204
584.803
32.9234
521.769
591.196
573.845
50.532
580.262
659.235
651.345
319.995
602.776
642.525
564.774
587.342
32.8217
39.8787
630.256
579.718
505.344
33.9671
413.278
33.81
636.48
587.25
605.304
32.3807
661.872
33.1786
393.553
33.296
556.384
33.1141
50.5207
551.342
634.219
597.748
62.9086
605.381
47.376
495.058
36.051
33.9997
32.727
32.7841
559.606
53.1112
441.33
645.548
34.3795
40.1134
33.2061
601.772
468.89
471.419
38.4702
600.931
608.506
561.651
651.236
59.6019
646.647
643.083
590.97
623.553
603.691
558.809
42.3269
455.343
599.523
50.2711
399.206
585.052
32.9736
312.256
525.334
33.1264
32.902
47.9982
638.883
600.595
596.359
32.7019
643.783
573.672
59.6737
601.717
33.137
627.001
615.927
34.5978
32.709
602.278
645.592
586.932
37.446
606.538
35.8148
383.911
339.152
595.316
559.113
586.997
543.335
456.056
617.895
639.102
36.11
473.026
622.136
32.3432
60.8438
603.312
362.04
607.38
33.7999
592.533
388.615
33.0225
629.367
593.717
32.7774
584.299
582.846
647.533
584.635
595.706
32.2227
447.748
34.1086
584.303
577.634
447.574
607.807
588.334
625.731
615.244
33.53
297.777
65.3235
35.6223
47.1575
33.6595
595.47
528.118
589.552
597.721
652.362
35.7979
626.931
588.719
35.2351
564.848
611.17
534.968
534.017
603.997
548.941
604.078
524.348
601.405
595.081
595.408
641.813
481.904
627.007
32.8096
32.2295
605.573
611.388
36.7137
627.99
620.545
33.9667
639.114
659.999
390.426
572.242
414.916
33.4107
604.468
599.446
35.4198
524.138
566.372
461.302
644.183
458.063
533.619
290.677
539.651
33.3722
524.12
545.621
637.363
610.274
35.1197
641.988
610.752
99.4979
33.2041
597.828
652.256
583.273
593.282
605.839
37.5612
602.845
40.3001
606.602
33.0032
33.1613
641.775
47.3946
635.359
34.9294
338.821
521.163
440.853
648.26
610.812
37.2217
628.115
551.345
568.773
59.9156
643.559
622.533
569.939
32.3119
48.3003
569.465
49.5183
35.431
438.634
665.562
643.258
537.708
481.681
619.722
33.0032
631.152
415.578
399.926
604.153
454.847
568.727
32.884
542.601
588.3
599.468
610.368
617.234
413.976
619.972
32.8716
671
76.6645
32.3794
586.895
590.383
597.638
80.0582
32.9348
627.92
438.228
602.267
611.125
589.581
426.943
38.7393
644.075
34.3769
622.222
309.049
459.632
602.065
594.314
42.3387
50.6137
32.1983
35.1645
35.2907
590.452
33.075
33.7164
32.8125
65.4561
573.119
32.6691
623.683
32.7305
635.999
65.0806
54.0096
33.0478
578.542
543.11
580.685
443.975
529.358
583.672
621
648.554
600.316
551.796
639.767
594.798
34.6685
596.83
580.205
33.2861
441.945
33.7101
523.994
50.8642
616.383
547.842
606.092
32.8742
54.1431
591.137
586.778
33.974
60.8557
597.079
34.3769
33.0055
585.766
32.8453
596.51
582.925
591.628
635.848
569.439
579.051
35.7377
614.702
587.513
33.8418
641.345
606.893
615.925
41.1106
597.357
602.882
33.4572
33.1749
33.7833
505.768
584.17
33.0781
32.9598
442.295
587.36
416.335
460.285
613.365
598.268
585.909
598.386
608.014
530.305
33.6429
34.5949
348.689
439.855
608.621
34.9964
608.221
434.268
525.421
628.952
619.237
642.281
597.407
666.14
33.5324
317.731
62.4486
64.0522
633.584
592.653
603.604
461.712
574.476
586.53
507.061
33.2325
603.137
33.2121
540.718
604.042
467.494
32.5884
39.7591
546.847
634.767
579.125
630.726
644.63
612.422
610.968
614.571
629.134
33.6009
636.406
476.941
608.517
435.885
591.291
42.6593
584.055
621.581
35.1325
617.083
32.3541
577.735
33.0362
35.0463
44.9417
591.954
564.402
529.244
30.4368
597.998
33.0123
598.498
603.191
50.8213
586.911
571.49
403.479
489.353
625.018
639.551
655.064
498.144
524.288
33.4508
553.96
35.9578
577.264
639.207
319.66
47.8938
468.662
627.859
574.426
32.6208
581.802
470.95
659.032
476.132
603.034
240.737
578.957
436.245
581.192
434.264
33.0242
437.208
68.5896
34.4111
33.8425
35.1809
33.1805
345.005
589.179
606.383
618.61
604.697
616.633
600.798
611.763
626.325
641.453
210.762
34.1924
555.623
632.325
561.308
607.154
464.629
668.987
661.623
40.7777
613.887
642.316
497.96
640.567
445.582
519.167
594.866
592.802
607.029
33.2176
606.031
33.4304
29.4351
608.934
586.97
592.829
628.498
603.83
614.808
626.916
37.5702
327.555
598.651
435.152
35.1716
570.172
367.692
607.72
584.411
572.389
446.813
33.2655
76.719
631.493
404.207
32.7019
583.438
384.727
318.207
33.2931
588.16
170.28
600.154
590.781
101.275
542.557
615.717
622.935
540.713
503.82
551.386
37.7173
621.138
186.418
32.8182
617.605
475.625
465.609
346.571
427.612
510.338
593.902
635.139
588.562
33.0978
109.32
557.077
585.736
649.468
595.781
471.714
623.935
514.039
588.524
304.368
35.0199
570.948
41.1351
589.669
294.982
607.215
580.836
446.954
602.422
468.095
57.8402
536.926
630.907
553.138
616.651
35.3647
601.807
607.478
33.0258
406.058
597.867
586.963
33.9896
410.615
533.057
442.085
544.876
618.843
656.259
602.716
581.183
42.6099
36.0526
604.184
657.63
36.0036
541.44
546.912
608.426
181.937
174.088
481.885
424.28
617.753
588.228
598.521
35.2454
531.017
588.462
37.1359
576.894
33.0458
33.692
574.416
600.02
408.22
582.861
33.9752
619.764
36.0134
616.416
444.127
613.871
607.399
35.3127
33.0683
584.155
600.428
598.133
610.363
601.065
602.877
629.162
576.945
32.8332
536.532
572.965
661.62
465.272
32.9591
57.314
574.458
603.174
585.553
102.509
642.575
597.606
572.487
461.641
172.298
44.6794
626.42
33.0179
521.997
615.421
556.44
596.262
517.037
560.02
585.589
535.016
634.443
589.756
599.134
533.732
32.876
36.2231
51.6763
336.473
639.505
602.479
32.3722
581.209
569.615
589.753
661.978
532.315
629.249
633.36
42.9503
487.437
611.277
624.219
568.693
583.63
33.4856
581.092
33.3558
550.615
606.58
555.538
79.2681
581.625
599.125
595.557
584.377
34.6955
602.176
357.761
95.7569
604.492
594.595
538.8
625.394
629.82
33.4135
608.283
451.823
33.6153
429.954
597.216
657.432
401.458
370.889
575.415
52.6058
596.882
606.165
191.571
594.038
534.468
527.054
589.501
613.455
33.4199
653.365
635.315
605.531
519.383
622.556
128.496
605.648
595.989
663.352
609.071
480.416
35.9185
34.2645
56.32
604.14
32.9899
623.98
354.296
591.605
584.455
622.186
462.126
603.38
627.299
627.654
32.679
576.293
51.8033
476.555
605.42
596.62
605.301
615.969
389.8
648.248
590.249
521.731
33.1574
34.4423
650.57
601.985
508.242
597.581
65.8659
568.878
672.632
613.103
50.8899
430.132
221.51
445.066
610.02
579.281
383.926
56.0315
511.859
569.642
39.8525
561.919
587.022
456.704
663.463
534.334
604.008
33.2986
602.229
639.396
562.723
579.961
577.956
605.389
492.781
596.282
579.86
446.253
632.211
539.511
605.479
578.062
607.366
34.5552
314.518
594.519
331.005
541.253
451.705
33.6568
611.611
569.391
35.0119
605.728
32.7583
34.7891
34.0877
92.0974
34.5438
517.958
598.939
611.664
619.879
580.846
568.43
471.088
571.444
588.6
30.1395
465.85
460.775
43.0457
654.711
36.1443
463.335
628.471
414.472
596.412
557.443
33.1309
489.606
599.374
515.949
620.438
43.5323
289.003
604.748
620.002
33.7631
588.092
618.659
181.584
566.363
510.143
589.732
613.158
316.609
565.838
587.119
33.1875
648.602
503.069
426.836
34.2474
442.859
658.14
598.065
548.188
414.318
618.541
32.9595
583.904
423.544
33.2251
31.347
494.941
652.785
33.7932
426.375
34.9934
605.229
485.033
35.8254
53.6614
604.231
578.172
598.924
585.059
460.826
613.341
586.878
571.922
587.091
623.793
418.212
538.259
527.514
584.89
610.488
616.185
647.865
542.11
516.442
621.597
634.376
40.9757
639.472
32.3291
527.615
601.321
381.286
604.979
526.522
425.074
528.065
120.58
34.4171
549.882
444.567
633.252
542.645
584.984
518.197
472.147
598.417
591.453
59.0101
575.201
613.865
632.361
44.2658
591.314
596.247
576.4
504.826
561.501
604.626
32.9182
596.366
609.982
582.175
580.007
606.706
599.843
644.399
603.884
632.04
527.289
639.85
40.0311
66.7766
40.0947
582.07
609.896
488.754
460.974
618.55
597.098
501.674
574.906
592.467
603.495
605.497
43.3196
606.143
641.729
408.406
611.062
582.922
448.27
38.206
34.7486
34.9098
626.083
488.74
595.821
605.625
637.337
493.883
32.2396
590.273
659.836
568.251
561.651
465.685
594.044
607.057
606.356
605.742
28.6886
600.276
532.879
322.589
535.695
587.2
555.245
634.506
32.2326
644.769
34.5913
602.276
615.276
598.084
608.223
259.966
631.304
578.941
377.089
585.11
33.0933
546.484
588.037
574.701
40.8959
578.033
597.613
603.907
490.968