/*--------------------------------*- C++ -*----------------------------------*\
| =========                 |                                                 |
| \\      /  F ield         | OpenFOAM: The Open Source CFD Toolbox           |
|  \\    /   O peration     | Version:  v2012                                 |
|   \\  /    A nd           | Website:  www.openfoam.com                      |
|    \\/     M anipulation  |                                                 |
\*---------------------------------------------------------------------------*/
FoamFile
{
    version     2.0;
    format      ascii;
    class       volScalarField;
    location    "400";
    object      nut;
}
// * * * * * * * * * * * * * * * * * * * * * * * * * * * * * * * * * * * * * //

dimensions      [0 2 -1 0 0 0 0];


internalField   nonuniform List<scalar> 
18758
(
8.91338e-05
0.00122819
0.00671588
0.0102862
0.0108379
0.0101598
0.00107194
0.00671964
0.000342951
0.000661061
0.00120722
0.00396901
0.00672069
0.00118507
0.00251088
2.34618e-05
0.00112659
0.00671934
0.00416197
0.000509647
0.00349493
0.00672571
0.00713575
0.000335467
0.00014424
0.00671928
2.91382e-05
0.0098866
0.00658603
9.42068e-05
0.00204977
0.00532328
0.0067235
0.00225127
0.00150888
0.00672349
0.00672453
0.00321216
0.00336639
0.000815357
0.00292929
0.000444966
0.00673743
0.000647338
0.000183414
0.00671434
0.00735743
0.00132264
0.000586608
0.00673442
0.000205399
0.0110882
0.00671634
0.00153773
0.0109989
0.00130464
0.00672426
2.55607e-05
0.00420832
0.00113533
0.000132389
0.00159684
0.000511967
0.00113769
0.00671645
0.00672348
0.000832058
0.00672325
0.00361743
0.011279
0.0114837
0.00201698
0.0067358
2.10743e-05
0.00672792
0.00362903
0.000370482
0.0107921
6.58004e-05
0.00545274
0.00886329
0.000119402
0.00112919
0.0106963
0.000362532
0.000831631
0.00162829
0.000467911
0.000340606
0.0037366
0.0101232
0.00396562
0.00186953
0.000463106
0.00931867
0.00208345
0.000555516
0.00672917
0.00673036
0.00480897
0.000320808
0.0108617
0.000694887
0.000393653
0.00342711
9.47898e-05
0.00173413
0.010016
0.00170662
0.00198975
0.00165931
1.01622e-05
0.00671924
0.00252416
0.00676967
0.0022898
0.00471688
0.00271878
0.00462651
0.0102218
0.000446554
0.00450174
0.00629458
2.12498e-05
0.000143458
0.000190363
0.000535101
0.000440856
0.00231122
0.00674114
0.00122809
3.48798e-05
0.00111444
0.000175936
3.55105e-05
0.00103572
0.000692393
0.00101273
0.00673016
7.68664e-05
6.02514e-05
6.56854e-05
0.00422279
0.00189612
0.00261974
0.00481702
0.00308553
0.00367233
0.00212563
0.0068261
9.57437e-05
0.000297996
0.000814654
0.00672572
0.009459
0.00101405
0.00518918
0.00114444
0.00229269
0.00672618
0.0067267
0.00109498
0.00145826
0.0020148
0.000192607
0.00743044
0.00319596
0.00620837
0.000146477
0.00961362
0.00880994
0.00671928
0.00181262
0.01045
0.00107692
0.000384422
0.00809402
0.00135119
7.04178e-05
0.00258105
0.00671852
0.000177785
0.000239148
0.00675688
0.0014322
0.000537914
0.00645564
0.00348462
0.00673305
0.00591021
0.000131938
0.000526549
0.0016885
0.00198232
0.000322313
0.000442579
0.000442826
0.000137475
0.00672286
0.00673599
7.07415e-05
0.00134235
0.000316594
0.000486239
0.00672016
0.000296428
0.000656671
0.00672591
0.00311773
0.000567308
0.00671924
0.000377718
0.00207946
0.000258009
8.63823e-05
0.00788027
0.000108758
2.31235e-05
0.00672187
0.00997898
0.00671923
0.00211063
0.000508214
0.00433049
0.000209711
0.000673171
0.000362304
0.000168124
0.00675421
0.000294854
0.00672369
0.000433707
0.00767929
0.000478439
0.00672193
0.00632676
0.00675381
0.00671544
0.00628658
0.000417291
0.00672455
0.000244997
0.00206627
0.00233185
0.00555039
0.000263858
0.0005421
0.00672359
0.00921129
0.000364295
0.00672332
0.00668356
0.00104476
0.000322211
0.0031604
0.000647684
0.000557958
2.365e-05
0.000353015
0.000112718
0.00679283
0.000707526
0.00672174
0.000366386
0.000701691
0.000544848
0.00168493
0.00672135
0.00212793
4.88979e-05
0.00209382
0.00169626
0.000301084
0.008314
0.00295612
0.00301631
0.000167907
0.000410896
0.000101975
0.00178666
0.0061326
0.000712319
0.000515635
0.00412454
0.000733585
0.000187797
0.00796163
0.000259949
0.00756632
0.00674819
0.0067148
0.000162933
0.00797564
0.000547764
0.000134445
0.000413482
0.000586393
0.00982443
0.0043805
0.00245365
0.00982965
0.00671483
0.0120347
0.000250618
0.0031536
0.000458219
0.000238592
0.00321193
0.00672339
0.00230258
0.00757583
0.00672202
0.00107603
0.0100263
0.000209756
0.00672185
0.00674639
0.00104988
0.00179683
0.0067535
0.00530923
0.000806922
0.000126245
0.000301002
0.000688646
0.00033788
0.000491413
0.000126812
0.00678958
0.00672591
0.000422665
0.000182948
0.00013997
0.00986907
0.000616865
0.00220729
0.00678955
0.0025524
0.0118875
0.00675476
0.00671922
0.00675369
0.000994334
0.000204699
0.000221433
0.00503092
0.00194864
0.00673694
2.18417e-05
0.000109266
0.000332362
0.000115952
0.00242477
0.00055561
8.11103e-05
0.000532387
0.000318024
0.00479191
0.0047554
0.000286071
0.0067205
0.00039129
0.001457
0.00734936
0.00120848
0.00674792
0.000527833
0.00334805
0.00107471
0.00288619
0.00589458
0.00172069
0.000575086
0.00266763
0.00329088
0.0011575
0.00474484
0.00188126
0.00114662
0.001426
0.0016
5.71326e-05
0.00314209
0.00672166
0.00518887
0.00177315
0.000312238
0.00283748
0.00156809
0.00585798
0.000520362
0.00639695
0.00672119
0.00399765
0.00372281
8.23719e-05
0.00177777
0.00672957
0.000605438
0.00930063
0.000430914
0.00671958
0.00908164
0.0049728
0.00358102
0.00671881
0.000855713
0.00588107
0.000492406
0.000103032
0.0064856
0.00502001
0.0110102
0.000704097
0.00672159
0.00140088
0.00317084
0.00671925
0.000716672
0.00078065
0.000191885
5.27788e-05
0.000467336
0.00672264
4.36161e-05
0.00604785
0.0124762
0.00830443
0.00188284
0.00183379
0.00672061
0.00672432
0.00191504
0.00175597
0.000989217
0.00160659
0.000249494
0.00108579
0.000350885
0.000797113
0.00413029
0.000677652
0.000430699
0.00136622
0.00561163
0.00546136
0.00672247
0.00567177
0.000613698
0.00213936
0.000557674
0.000846143
0.00014061
0.00251112
0.00348603
0.0014252
2.34656e-05
0.00518949
0.000160508
0.000153028
0.00112248
0.000473864
0.000626446
0.00118684
0.00128
0.00029637
0.00290567
0.00173796
0.00132724
0.00201374
0.00174879
0.00104829
0.00140256
0.0025619
0.0067153
0.000333891
0.00673527
0.00313864
0.00493909
7.6973e-05
0.00672215
0.00277842
0.000948425
0.00672258
0.00672922
0.00671892
0.00508762
0.00267803
0.00641396
0.000949058
0.00168524
0.00032677
0.00672573
0.0067261
0.0104695
0.00672899
0.00672263
0.000252573
0.00672043
0.000257502
0.000355573
0.00672263
0.00529929
0.000421697
0.00133142
0.000948019
0.00577553
0.0016281
0.000165898
0.00082111
0.00672262
1.70619e-05
0.00166644
0.00189266
3.5406e-05
0.00239816
0.00215865
0.00170888
0.000792295
0.00172239
0.00495969
0.0042864
0.00352418
4.87624e-05
0.00672241
0.0058487
0.000497466
0.000516691
0.00674781
0.00025209
0.0108194
0.00295389
0.0044002
0.0022325
0.00244468
0.00416116
0.00672884
0.00672631
0.00661829
0.000940917
0.00758985
0.00601197
0.000236511
0.00203103
0.00672192
0.00673429
0.000923085
0.00672235
0.00197293
0.00140689
0.00254818
0.000361664
4.0117e-05
0.00672026
0.0108329
0.0112579
0.000277456
0.000266824
0.000120092
0.000581662
0.00128132
0.000914048
0.0113916
0.00129195
0.00146656
0.00398586
0.00348247
0.000557724
9.03282e-05
0.000508649
0.00106984
0.00107619
0.00382535
0.000382357
0.000165636
0.00179756
0.000148261
0.00173553
0.00359251
0.00116965
0.00461343
0.00671922
0.00672049
0.0112559
0.00410994
0.00258672
0.000731878
0.000369928
0.012687
0.00425185
0.000658988
9.18072e-05
0.00419161
0.0107388
0.0017658
0.00338932
0.000829447
0.0112633
0.00397324
0.00239225
0.00193949
0.00261345
0.00671686
0.00363479
0.000377227
0.0111078
0.0079898
0.0026881
0.00672265
0.000610693
0.00672595
0.00672643
0.000911528
0.00254959
0.000337961
0.000594419
0.000119751
0.00973621
0.000199094
0.00672224
0.000389733
0.000226327
0.0105744
0.00114822
0.000394236
0.000450867
0.00283823
0.000762996
0.00757367
0.00168193
0.00675793
6.00064e-05
0.0114403
0.000163979
0.00672035
0.00348978
0.000271035
0.00018534
0.00673459
0.000751734
0.00201281
0.00146976
0.00117101
0.00672387
0.00700801
0.00672631
0.000942258
0.00546382
0.000284873
0.00147288
0.000799137
0.00730378
0.000744365
0.00249571
0.00166481
0.00555236
0.0123187
0.00142754
0.00552068
0.00393502
0.000751087
0.00672587
0.000459542
0.00142512
0.000159568
0.00672254
0.000606225
0.000559904
0.0114364
0.00638928
0.00103393
0.00056391
0.000460625
0.000709697
0.00194273
0.00636291
0.00672363
0.0019056
0.00232548
0.00672252
0.00153806
0.00672308
0.00673961
0.00671927
0.0102633
0.00158656
0.00672566
0.000635089
0.000415059
0.0067211
0.00233572
0.00384944
0.00679452
0.000336442
0.0002347
0.00184614
0.00156686
0.000102386
0.000217963
0.000368682
0.00734145
0.000322939
0.0105905
0.000803423
0.000433789
0.000979286
0.00220029
0.00675556
0.0114571
0.000423943
0.00671868
0.00728323
0.00672238
0.0067193
0.000706325
0.00671951
0.000130561
0.011028
0.00673344
0.0011225
0.00398562
0.000631655
0.012267
0.0067196
0.0111088
0.0009731
0.00350835
0.00673065
0.0067244
0.000271912
5.56732e-05
0.00184095
0.000167365
0.00912114
0.000598181
0.00672242
0.000569961
0.00160559
0.00049937
8.81772e-05
0.00045491
0.00181511
0.00102546
0.000302398
0.00147117
0.000172096
0.00672021
0.00105028
0.00179517
9.76663e-05
0.000350994
0.00222664
0.00514445
0.00105144
0.00672487
0.000655441
0.00111395
0.00671933
0.000916506
0.000253004
0.000345509
0.000213084
0.00222452
0.00847245
0.00672251
0.00672405
0.00469885
0.00672289
0.000194052
0.000884235
0.0011385
0.00672265
0.000353971
0.00672817
0.00381896
0.00128588
0.000190977
0.000228576
4.8545e-05
0.000256487
0.00672282
0.00132962
0.00792589
0.00672172
0.00150741
0.00134542
0.0111374
0.000896988
0.00941053
0.00672007
0.000380395
0.00672585
0.000640462
0.00329636
0.00153859
0.00160355
0.00672047
0.00678641
0.006721
0.00559286
0.000318087
0.00130423
0.0113059
0.0029125
0.000944028
0.000930181
0.000327539
0.00523453
0.00139495
0.00672647
4.38378e-05
0.00672241
0.00325668
0.000867515
0.00323148
0.00661752
0.00011462
0.000891413
7.2112e-05
0.000849912
0.00583187
0.000209571
0.00671943
0.000255953
0.00111538
0.00672358
0.00858609
0.00883661
0.0067224
0.00295404
0.000603845
0.00194326
0.000127237
0.00147265
0.00923623
0.000283401
0.00671947
0.00672813
0.00991008
0.00333893
0.00365682
0.0010773
0.00342507
0.00586565
0.000871566
0.000542124
0.011593
0.000616246
0.00130503
0.0017933
0.00671978
0.00671552
0.00672011
0.00278835
0.00259427
0.000746947
0.00672268
0.00672565
0.00141732
0.00509727
0.000637228
0.000621281
0.000146546
0.0104763
0.00107283
0.000714999
0.000665329
0.00428896
0.000227905
0.00447439
0.00560648
0.00050741
0.00609421
0.00517221
0.0023546
0.00130054
0.000101252
0.0115827
0.00522768
0.000140559
0.000208404
0.00681954
0.00672054
0.000539813
2.74431e-05
0.0017155
0.00672044
0.00322442
0.000742873
0.0077871
2.3183e-05
8.24608e-05
0.00581453
0.00202736
0.00033229
0.000288341
0.00244012
0.000252237
0.00672452
0.00139044
0.000227232
0.00672134
0.00672154
0.00107242
0.000628005
0.00671951
0.00162738
0.00673672
0.00191439
0.000609173
0.00542927
0.0067513
0.000112912
0.00672431
0.000372532
0.00045244
0.000258073
0.00672446
0.00262331
0.000143883
0.000549018
0.000973729
0.00418783
0.00176647
0.00378417
0.00286385
0.0117091
0.000470232
0.000268224
0.00672267
0.00108806
0.00672262
0.000665849
0.00673514
0.000169768
0.00942392
0.00671967
0.00368951
0.00046347
0.00322458
0.00534889
0.00311254
0.00127686
0.00192573
0.00672331
0.00673502
0.00672009
0.000497468
0.000935674
0.00025245
0.00154511
0.00878223
0.00673922
0.00673093
0.00704541
0.00563241
0.00994056
0.00671888
0.000336581
0.000792866
0.00672861
0.00465083
0.0067225
0.00806713
0.00213124
0.00672379
3.98359e-05
0.00105032
0.0067198
0.000355146
0.000508036
0.0067223
3.63478e-05
0.00671961
0.000418879
0.00926081
0.00171788
0.00672872
0.000735032
0.00221163
0.000281998
0.000661923
0.00105156
0.00456487
0.00105897
0.000509925
0.0067237
0.00676085
0.00672099
0.00160609
0.000723361
0.00183866
0.00430757
0.000895055
0.00223401
0.00308965
0.000621081
0.00658726
0.00672909
0.00147746
0.000162911
0.00672538
0.00318652
0.00672249
0.0026546
0.00672985
3.1041e-05
0.0115786
0.00672294
0.00202457
0.00671945
0.000879068
0.00671998
0.00514629
0.000425322
0.00672569
0.00676572
0.00672322
0.000350013
0.00671996
0.00387948
0.0125808
0.00119538
1.63368e-05
0.000143527
0.0115428
0.000144907
0.00672254
0.0067276
0.000848297
0.00495007
0.000798992
0.000784073
0.000647881
0.000608978
0.00377338
0.000428629
0.00136261
0.00672223
0.000241611
0.0104124
0.0002311
0.00671988
0.00416653
0.0012262
0.00176934
0.00137426
0.00154357
0.0067232
0.00676893
0.00676742
0.00127374
0.00672304
0.00532017
0.0109162
4.4002e-05
0.00146702
0.00672706
0.000199522
0.000750101
0.00672278
0.000620004
0.000295609
6.21235e-05
0.000751828
0.00300601
0.0015314
0.000690999
0.00671996
0.000199101
0.00207998
0.000119659
0.000422895
0.000479082
0.00513349
0.000530068
0.0114306
0.0101607
0.00033993
0.000224812
0.00229476
0.0067231
0.00672331
0.00190245
0.00029445
0.00672342
0.00125149
0.000421671
0.00141647
0.00672004
0.00671945
0.00341517
0.00672586
7.95947e-05
0.00541994
6.15598e-05
0.00672323
0.0025537
0.000325385
0.00672293
0.0010874
0.00676273
0.000333861
0.00144814
0.00565097
0.0101052
0.000158886
0.0115095
0.00300743
0.000612478
0.00558497
0.00742204
0.0103898
0.00673714
0.00105464
0.000802158
0.00672267
0.00671926
0.00271637
0.0033481
0.00672121
0.000185639
0.000184215
0.00671995
0.000850705
0.00672282
0.00130091
0.000503814
0.00672319
0.0109187
0.00120903
0.00671954
0.000227726
0.000168792
0.000778613
0.00672613
0.000729683
0.0021099
0.0109402
0.00577486
0.00673729
0.00325367
0.00671823
0.0115921
0.00671961
0.000443471
0.00649644
0.0108522
0.0031087
0.00201782
0.00672154
0.00118982
0.000827936
0.000311704
0.00671498
0.00121922
0.00672444
0.00354089
0.000288573
8.63128e-05
0.000221188
0.00672007
0.00385398
0.000390319
0.00209354
0.00023553
0.00673152
0.00537583
0.0076696
0.00672228
0.00673865
0.00530062
0.0113075
0.00521545
0.00674189
0.0110347
0.00131204
0.00732809
0.000991764
0.00671463
0.00671928
0.00103516
0.00172459
0.00672481
0.00745334
0.00836463
0.00672039
0.00830465
0.000271811
0.00522669
0.00291273
6.66651e-05
0.00672463
0.00309769
0.000362059
0.00672017
0.000438535
0.00226458
0.000378996
0.00406132
0.00343597
0.000421264
3.25468e-05
0.000437393
0.00522753
0.00230951
0.00672109
0.000287387
0.00177219
0.0114808
0.00671838
0.00308922
0.00236323
0.00672578
0.000226911
0.00671805
0.00188598
0.00697174
0.000316193
0.000666617
0.000537721
0.000213308
0.001504
0.00156153
0.0004473
0.00062925
0.00133241
0.00532073
0.00672479
0.00672332
0.0019375
0.00671927
0.00038146
0.00100786
0.000196931
0.00672014
0.000906036
0.00276402
0.00158475
0.00672011
0.000304588
0.00251734
0.00661223
0.00688978
0.011168
0.00103401
0.00672278
0.00179075
0.000723067
0.00318529
0.000242452
0.000111391
0.00782705
0.000991664
0.0108754
0.00238638
0.00425257
0.00672029
0.0110995
0.00459067
0.00672126
4.65883e-05
0.00483195
0.00672373
0.00672246
0.00138976
0.000206703
0.0067239
0.000256583
0.00914144
0.00147411
0.00671825
0.00217121
0.0123354
0.00679467
0.00213383
0.0067262
0.00671975
0.00418818
0.00672966
0.000721381
0.0040353
0.004557
0.00543506
0.00672586
0.000685609
0.00672213
0.00430097
0.0027134
0.00574784
0.000544778
0.000974347
0.000164742
0.00150256
0.00326315
0.00672389
0.00672468
0.00955191
0.00505632
0.000508788
0.000144764
0.00921544
0.00671955
0.00672226
0.00964797
0.00672242
0.000148749
0.000345841
0.00205676
0.0108645
0.0120335
0.000266756
0.00190231
0.00081199
0.00171997
0.00673335
0.00123176
0.00672097
0.000207048
0.00672276
0.00674138
0.000164981
2.50235e-05
0.000107572
4.36509e-05
0.0067231
0.00624293
0.00672383
0.00960902
0.000652706
0.0067189
0.00673534
0.00460218
0.00048492
0.000108539
0.0110877
0.00106535
0.00539234
0.00671423
0.00433136
0.00210436
7.40457e-05
0.000365959
0.00672319
0.00672281
0.000827692
3.89723e-05
0.00461327
0.000382805
9.32941e-05
0.00531127
0.00150989
0.000880132
0.000491956
6.71298e-05
0.00110521
9.52521e-05
0.00675169
0.00672147
0.0041686
0.000472437
0.000401516
0.000285942
0.00672596
0.0030903
7.3996e-05
0.000144008
0.00890875
0.00672755
0.00687837
0.00611406
0.00194144
0.00671736
0.00798148
0.000606797
0.00672037
0.000693995
0.00695224
0.00171101
0.00671989
0.000363168
0.00672571
0.00314348
0.000307171
0.00347058
0.006726
0.00672545
6.25871e-05
0.00137603
0.00327561
0.00212143
0.00620941
0.000311487
0.00672541
0.00672779
0.000264953
0.00142079
0.00522255
0.00381281
0.000243939
0.00404057
0.000688918
0.0089531
0.00216419
0.00456614
0.00321195
0.00924303
0.00673757
0.0101014
0.000309491
0.00619848
0.00567941
0.000514077
7.31681e-05
0.00672585
0.000125716
0.0067206
1.95804e-05
0.00671598
0.00101456
0.00251976
0.00672765
0.00800891
0.00273092
0.00329718
0.00145988
0.00710978
0.00672249
0.00672217
0.00583939
0.00588303
0.00678087
0.00672257
0.00176493
0.00672259
0.00672361
0.000555417
0.00672351
0.000363929
0.00675645
8.29851e-05
0.00351164
6.80794e-05
0.00678571
0.00147108
0.000421581
0.00673114
0.00671993
0.00302728
0.00330754
0.00818525
0.00370771
0.00672588
0.00672547
0.000617464
0.00672153
0.000392422
0.000608662
0.0122797
0.0115711
0.00419135
0.00797819
0.00678647
0.0123463
0.00740402
0.0112862
0.000779626
0.00218048
0.00122364
0.00673389
0.00938037
0.000797378
0.000487433
0.000881382
0.00390534
0.00672678
0.00671469
0.00933333
0.000880985
0.00300823
0.00671529
0.00130598
0.00672233
0.00133773
0.00371078
0.00534015
0.0101076
0.00108226
0.000244374
0.00486996
0.000441202
0.00672294
0.00610616
0.00662712
0.00539822
0.00209088
0.00603886
0.000232792
0.00660164
0.000245682
0.000436037
0.00139034
0.000488285
0.00271638
0.00184677
0.00666637
0.0067877
7.55837e-05
0.0115886
4.62195e-05
0.000428696
0.000604613
0.0014155
0.00673159
0.00027196
0.00125114
0.00672232
0.00538421
0.00674549
0.00341724
0.00672266
0.00937272
0.000609275
0.00672022
0.00408349
0.00637639
0.000152139
7.34314e-05
7.86135e-05
0.00258174
0.00512928
0.00671965
0.00629397
0.000448896
9.99589e-05
0.00671551
0.0120418
0.00106751
0.0112517
0.00672023
0.00276937
0.000227369
0.0064327
0.00672261
0.00525759
0.00647928
0.0111307
0.00147975
0.00671917
0.00163132
0.00672106
0.0112401
0.000444664
0.00672249
0.000484199
0.00528216
0.00162647
0.00806851
0.00676928
0.00665895
0.00672242
0.00678698
0.00673005
0.00343911
0.0067135
0.00172367
0.000985614
0.000539802
0.00672006
0.00254651
0.00146631
0.0109121
0.00167134
0.000180324
0.00960731
0.0112549
0.00460997
0.00108236
0.00672046
0.00552561
0.000856229
0.000668683
0.00534722
0.000420122
0.00165076
0.00256485
0.000974041
0.00672053
0.0123917
0.000192513
0.00639271
0.00336855
0.000340838
0.00147463
0.0067185
0.000797295
0.000984782
0.00672875
0.00814683
0.00672251
0.0010218
0.00672057
0.000617099
0.000333498
0.000671097
0.000708081
0.00115094
0.00058808
0.000743339
0.00133816
0.00676481
0.00773274
0.000353784
0.0067257
0.000277546
0.000440411
0.000870174
0.00649796
0.00184467
0.00672332
0.00674849
0.00358746
0.00979854
0.00122437
0.00672254
0.00276887
0.00672309
0.00672151
0.000628786
0.0109993
0.00209896
0.00278879
0.0126584
6.82072e-05
0.00443735
0.00246914
0.011226
0.000572903
0.00671478
0.00112824
0.00295214
0.0030493
0.000920018
0.00174162
0.000962104
0.000209797
9.56258e-05
0.00505924
0.00630746
0.00672066
0.0125515
0.00672577
0.000721347
0.0114591
0.00672359
0.00533382
0.00672593
0.00130966
0.000418592
0.00671964
0.00109423
0.00260179
0.00139329
0.00025046
0.00136119
0.00672123
0.00529305
0.00673802
0.000900981
0.00050303
0.000871194
0.00672231
0.00541413
0.0125282
0.0067187
0.00672076
0.00194635
0.000352946
0.000679188
0.000315353
0.000804736
0.00672977
0.00122151
0.00247976
0.00153423
0.0115281
0.00672613
0.000387154
0.0107576
0.000645808
0.00598622
0.000427801
0.00675611
0.00672409
3.59019e-05
0.000282134
0.000424988
0.0067249
0.00650367
0.000811534
0.000921369
0.00373437
0.00161738
0.00546629
0.00237907
0.00671987
0.00380551
0.0123258
0.00671671
0.00675637
0.000261738
0.00078396
0.00672977
0.00717027
0.00816148
0.00675025
0.00672653
0.005071
0.00225928
8.49106e-05
7.96935e-05
0.000229721
0.00672232
0.000943321
0.000481811
0.00672643
0.00839516
0.000340968
0.00504842
0.000412546
0.000604485
0.00672271
5.84967e-05
0.00672347
0.000172675
0.00160066
0.0010969
0.00671492
0.00476908
0.000423341
0.00374488
0.0111489
0.00240107
0.00319123
0.00348933
0.00671992
0.0067336
0.0111927
0.00672578
0.000206448
0.00672042
0.00673863
0.000420352
0.010495
0.00672068
0.00672106
0.00556575
0.00136144
0.0010107
0.00108202
0.0060291
0.00162974
0.00671871
0.000320194
0.0115374
0.00206266
0.000953832
0.00751624
0.000707272
0.00212926
0.000158306
0.00673178
0.00419541
0.00145302
0.00672232
0.00250155
0.00433263
0.00673099
0.00315073
0.0112041
0.0030684
0.000248379
0.0115127
0.000532912
0.00152215
0.00671933
0.00902801
0.00672588
0.000565829
0.00674072
0.00071457
0.000493971
0.00238452
0.00135046
0.00485576
0.000843118
0.00672452
0.00712566
0.00560469
0.00672101
0.00015812
0.00671998
0.000414738
0.00612945
0.000119067
0.000453465
0.0019809
0.00294911
0.0120203
4.25191e-05
0.00671919
0.000960784
0.00672156
0.00671863
0.00672807
0.0007874
0.00456611
0.0010819
0.00178896
5.35139e-05
0.00286746
0.00200559
0.00672048
0.00012758
0.00650916
0.0026519
0.00143765
0.0115318
0.00389622
0.000702047
0.000867491
0.00673223
0.00157024
0.0062639
0.00299067
0.00672715
0.0067278
0.00103097
0.00672019
0.0067257
0.00022568
0.00121582
5.91959e-05
0.00296774
0.00672021
0.00679947
0.00672081
0.000277779
0.00551357
0.00671738
0.00106538
0.0067278
0.0110507
0.00456104
0.000661035
0.00618334
5.59931e-05
0.000505051
0.0041613
3.13251e-05
0.00672255
0.00024141
0.00211387
0.00116681
0.0067247
0.00672049
0.000544959
0.000415161
0.0101004
0.00181906
0.000232957
0.0004861
0.00215687
0.000640832
0.00185965
0.0112572
0.0118696
0.00488669
0.00584968
0.00671413
0.00454359
0.00758958
0.00672326
0.00748118
0.00672325
0.000959669
0.00671548
0.00394434
0.00422845
0.00508812
0.000557407
0.000236715
0.00041517
0.00625945
0.00672395
0.00671634
0.00672016
0.00671855
0.00672548
0.00672139
0.0107709
0.00823673
0.00884928
0.00140567
0.00475279
0.000412225
0.00936522
0.00459103
0.000583932
0.0067222
0.00158088
8.81795e-05
0.00179934
0.0107531
0.00318591
0.00154251
0.0067179
0.00153598
0.00935351
0.00672133
0.00971105
0.00467661
0.00672268
0.00915825
0.00673006
0.000349478
0.00672323
0.00771146
0.00675823
0.00545703
0.0003471
0.00674309
0.0067226
0.0035301
0.00671892
9.41623e-05
0.00593675
0.000548036
0.00672083
0.00672427
0.00672873
0.00345566
0.000434634
0.00220207
0.0113899
0.00672262
0.00675309
0.000878187
0.000364126
0.00220606
0.00925139
0.00997568
0.000903119
0.0083048
0.0067221
0.00328322
0.00222154
0.00675243
0.00822898
0.00863543
0.00671912
0.00183182
0.00494244
0.00233852
0.000422148
0.000870212
0.00672326
0.000555684
0.000222154
0.000698539
0.000931467
0.00672049
0.00247806
0.00575841
0.00672483
0.00544534
0.0067154
0.0067241
0.000788493
0.00204966
0.00107701
0.00982033
0.00671991
0.000166451
0.00403523
0.00361548
0.00269223
0.00672717
0.00672335
0.00672557
0.00672285
0.00672328
0.00186744
0.00279263
0.00286931
0.00672398
0.00228478
0.00945149
0.00282246
0.00209166
0.0117744
0.00672414
0.00169325
0.00613389
0.00115143
0.00921492
0.000320951
0.00890771
0.000447762
0.00338358
0.00538646
0.000894485
0.00547453
0.000339723
0.000851795
0.00672456
0.00566385
0.00231943
0.00674551
0.000306157
0.00547162
0.00674474
0.00614055
0.00023566
0.00672013
0.00420754
0.00674332
0.00334118
0.00925871
0.00262111
0.00672161
0.00448229
0.00672263
0.00139761
0.000190251
0.00158048
0.000133825
0.000199225
0.00672382
0.0105782
0.00111721
0.00592004
0.00548928
0.00674796
0.00166495
0.00672109
0.00245392
0.00151441
0.0092258
0.00333552
0.00671953
0.00189515
0.00314365
0.000792705
0.00673171
0.00547412
0.000495835
0.000205075
0.000583441
0.00821158
0.00123641
0.00144075
0.00910547
0.00303291
0.00672175
0.00136191
0.0097882
0.00184461
0.000364367
0.00345901
0.00671979
0.00013217
0.000244288
0.000272912
0.00672632
0.000254878
0.00671485
0.000198027
0.000241698
0.000559031
0.00760402
0.00672071
0.000603502
0.000451348
0.00363848
0.000284442
0.00513251
0.00166457
6.46249e-05
0.000332153
0.00673665
0.00672632
0.00672469
0.000422139
0.0067188
0.00347985
0.00532528
0.00672174
0.00675524
0.0001969
0.00671446
0.000262651
0.00986899
0.00176831
0.00673787
0.00674904
0.000347426
0.000283351
0.00672323
0.00606551
0.000120654
0.0067294
0.00671738
0.0108269
0.00998205
0.00671895
0.00085662
0.000249982
0.00672172
0.00378769
0.00316726
0.000293214
0.00672478
0.00205003
0.00875111
0.00672531
0.000848531
0.00807777
0.000480669
0.00320787
0.00672495
0.000840662
0.0106022
0.00620975
0.00118984
0.000586485
0.00133947
0.000525773
0.0025746
0.0046697
0.00989313
0.0125896
0.00196395
0.00291247
0.000866283
0.00431114
0.000290882
0.00113634
0.00326383
0.00675892
0.00672367
0.00566291
0.00450668
0.00671951
0.000941344
0.00744424
0.00046256
0.00672685
0.00672274
0.00149389
0.00100001
0.00110357
0.00672301
0.000688596
0.00607215
0.0067191
0.00397206
0.000970177
0.000541238
0.00672268
0.000631337
0.00195444
0.000888047
0.00163851
0.000389405
0.00660704
0.000280845
0.00016235
0.00540429
0.00671955
0.00364714
0.00117183
0.0103075
0.00100526
0.000373919
0.00672244
0.00866454
0.000684547
0.00673373
0.000959764
0.00202923
0.0111725
0.000477688
0.000918658
0.000178327
0.00186615
0.00672326
0.00672402
0.00672481
0.00139984
0.00881584
0.00179163
0.00672278
0.000430323
0.00464654
0.0101249
0.00558381
0.0114872
0.00074808
0.00950565
0.000504778
0.000134093
0.00446076
0.00672526
0.00671954
0.00807188
0.00430253
0.00133227
0.00155637
0.00671435
0.00338382
0.000274981
0.00445766
0.00247234
0.00672031
0.00497622
0.00696133
0.00117891
0.00512287
0.00574094
0.00672621
0.00146219
0.00159595
0.00181438
0.00373277
0.00372616
0.00252761
0.00259435
0.00204858
0.000283859
0.000212396
3.89893e-05
0.000415902
0.00673851
0.0041225
0.00139895
0.00945579
0.00484536
0.00672096
0.00672791
0.00674145
0.00671365
0.00369348
0.00671943
0.000211121
0.00608384
0.000969144
0.00947685
0.000905997
0.0067242
0.00672321
0.000147487
0.00672389
0.00246121
0.00672178
0.00648648
0.00190674
0.00671977
0.00247582
0.00673544
0.00610147
0.00672587
0.00672228
0.00606929
0.000263036
0.00196848
0.00486599
0.000542012
0.00673204
0.00169481
0.00133594
0.0022268
0.000393464
0.00181756
0.00672263
0.0118466
0.00259741
0.00255555
0.00145047
0.00673994
0.000337925
0.00672136
0.0112479
0.00673887
0.00592823
0.00999162
0.000573727
0.00220119
0.00671921
0.000567716
0.00018964
0.000381647
0.0126164
0.00671891
0.00673799
0.00674111
0.000156465
0.00128511
0.000406526
0.00672215
0.001178
0.00652253
0.000411493
0.00672346
0.0001071
0.000520151
0.00371829
0.00105792
0.00220481
0.00174616
0.0028809
0.00559297
0.00204203
0.0107457
0.00675227
0.000619187
0.00580501
0.000124006
0.0111444
0.00519994
0.00459385
6.70318e-05
0.0067232
0.000769228
0.00672434
0.00162411
0.00201423
0.000443031
0.000224385
0.0067209
0.000595319
0.00192319
0.000289713
0.000871639
0.0105113
0.00672149
0.00167739
0.00677896
0.000195336
0.00511788
0.000906972
0.0100337
0.000493978
0.00672062
0.000305525
0.00344971
0.00709793
0.00672779
0.0118623
0.000590286
0.0067724
0.000282057
0.00274274
0.0067259
0.00247543
0.00220941
0.00671998
0.00155021
0.00671864
0.00251612
0.000506598
0.000566717
0.00124402
0.00783803
0.0067257
8.6608e-05
0.000353423
0.00204341
0.000935904
0.00127852
0.00313737
0.00672468
0.00807492
0.0078954
0.003376
0.00675571
0.00071779
0.00672297
0.0108158
0.00672196
0.000491048
0.00585372
0.00313522
7.74627e-05
0.00375052
0.00171109
0.00773325
0.000416272
0.00672126
0.00672323
0.00672443
0.0104459
0.000704934
0.000312089
0.0103849
0.00283043
0.00672407
0.00779898
0.000359671
0.000329045
0.00672372
0.00569808
0.00553563
0.000245901
0.00302772
0.00166206
0.00675873
0.00672297
0.00671923
0.00803825
0.00810682
0.000834054
0.000221973
0.0016636
0.000521673
0.00672646
0.00672373
0.0013221
0.00275812
0.0067302
0.000607614
0.000168564
0.00119429
0.000224257
0.0029434
0.0008357
0.0109526
0.00241585
0.00677524
0.00290504
0.011503
0.000299054
0.000155451
0.000981335
0.00587409
0.00496345
6.60847e-05
0.00135535
0.000254932
0.00674656
0.000283171
0.00995132
0.00448116
0.00785657
0.000895583
0.00173328
0.00671952
0.000598282
0.0108968
0.00672394
0.000270085
0.00612084
0.00672262
0.000700632
0.000185803
0.000901858
0.0058271
0.00154954
0.00217084
0.00672255
0.00677628
2.26986e-05
0.00291884
0.00144731
0.00145214
0.00671929
0.00672368
0.0029298
0.0050699
0.00672675
0.00138776
0.000360132
0.00117182
0.0067216
0.000415072
0.00182465
0.0124382
0.00126508
0.0023824
0.00239467
0.00013853
0.000203433
0.00320238
3.62839e-05
0.000245304
0.00673726
0.00615902
0.00180748
0.00158941
0.000644857
0.00897119
0.00672436
0.000571888
0.000237629
0.000163095
0.00353793
0.000602596
0.0107223
0.000699432
0.00937481
0.000624819
0.00926375
0.0010624
0.00602884
0.00225204
0.00954025
0.0128203
0.000814482
0.00370478
0.00605921
0.00370408
0.009401
0.00672108
0.00671741
0.000409185
0.000679383
0.00744406
0.00280064
0.000173405
0.00671727
0.00462496
0.00672443
0.00721806
0.000557537
0.012871
0.00184964
0.00150595
0.000340642
0.00762759
0.00123669
0.0120827
0.00672772
0.00672289
0.000559497
0.00672366
0.0084211
0.000271957
0.0109063
0.00297718
0.00659619
0.00595574
0.00671388
0.000264028
0.00810973
0.000137942
0.00671742
0.00163641
0.00672026
0.0105159
0.00671598
0.00201237
0.00911999
0.00107081
0.000118512
0.000534057
0.00671742
0.00208758
0.000360039
0.00324686
0.00675744
0.00671878
0.00116782
0.00613877
7.14393e-05
0.00672335
6.73421e-05
0.0065198
0.00672307
0.00262115
0.0062163
0.00676535
0.00429146
0.00672259
0.000790725
0.0100886
0.0067292
0.00672344
0.00212775
0.00234196
0.000901141
0.00671839
0.00945899
0.00356764
0.00849598
0.0067204
0.00735479
0.00437626
0.000677875
0.00575573
0.000460438
0.000355334
3.94337e-05
0.00802648
0.000176871
0.0018842
0.00842956
0.00134578
0.0013763
0.000823381
0.00052765
0.000224079
0.00556121