/*--------------------------------*- C++ -*----------------------------------*\
| =========                 |                                                 |
| \\      /  F ield         | OpenFOAM: The Open Source CFD Toolbox           |
|  \\    /   O peration     | Version:  v2012                                 |
|   \\  /    A nd           | Website:  www.openfoam.com                      |
|    \\/     M anipulation  |                                                 |
\*---------------------------------------------------------------------------*/
FoamFile
{
    version     2.0;
    format      ascii;
    class       surfaceScalarField;
    location    "400";
    object      phi;
}
// * * * * * * * * * * * * * * * * * * * * * * * * * * * * * * * * * * * * * //

dimensions      [0 3 -1 0 0 0 0];
oriented        oriented;


internalField   nonuniform List<scalar> 
27907
(
-0.0820583
0.063579
0.0184793
-0.0632824
-0.00995167
0.0732341
0.415375
-0.465769
0.0503949
0.016658
-0.00536445
-0.0112935
0.0137604
-0.00617338
-0.00758703
-0.0115028
0.0046658
0.00683704
0.00892436
-0.000284753
-0.00863961
-0.333272
0.422424
-0.0891521
0.0901454
-0.0790198
-0.0111256
-0.16836
0.022906
0.145454
-0.022728
0.18329
-0.160562
-0.00785445
0.00532372
0.00253073
0.0805735
-0.436445
0.355872
0.0892041
-0.107892
0.0186881
0.260207
-0.177231
-0.0829766
0.0500526
-0.0295486
-0.0205041
0.0335869
0.0935945
-0.127181
-0.0876962
0.36881
-0.281113
-0.120871
-0.136496
0.257367
0.145124
-0.121169
-0.0239556
0.00321309
0.000526487
-0.00373957
-0.430145
0.449033
-0.018888
-0.00335048
0.00191047
0.00144001
0.0616016
-0.0803068
0.0187052
0.0255883
-0.0889847
0.0633963
-0.420063
0.0867912
0.0364361
0.00673281
-0.0431689
-0.00186025
-0.00594135
0.00780159
0.0337545
0.0143603
-0.0481148
0.0744919
-0.0594673
-0.0150246
0.0933775
0.00968773
-0.103065
0.000890007
-0.00723325
0.00634325
0.47419
-0.46173
-0.0124602
-0.244051
0.125118
0.118933
-0.0995633
0.0300779
0.0694854
-0.484247
0.294185
0.190061
0.556986
-0.334946
-0.22204
0.280728
-0.135585
-0.145143
-0.153126
0.243138
-0.0900118
0.025808
-0.124654
0.0988461
0.273881
-0.189646
-0.0842344
0.159647
-0.138889
-0.0207583
0.174267
-0.340007
0.16574
-0.118259
0.159159
-0.0409003
0.0960516
-0.0738323
-0.0222193
-0.4958
0.260685
0.235115
-0.00185892
-0.00149156
-0.152568
0.192388
-0.0398197
-0.147796
-0.0205646
-0.203969
0.399156
-0.195187
-0.0891384
0.114032
-0.0248937
0.0227493
-0.0173388
-0.0054105
-0.475212
0.0935253
0.381686
-0.194034
0.171306
0.0044958
-0.00635604
-0.0254724
0.0805944
-0.055122
0.299261
0.257725
0.0435018
-0.0237878
-0.216492
-0.0168539
0.233346
-0.102184
0.0360861
0.0660975
0.0553276
-0.0853173
0.0299897
0.00757324
0.00135112
-0.114486
0.108283
0.00620327
0.188575
-0.0334984
-0.155077
-0.385456
-0.089756
0.345034
-0.190117
-0.154916
-0.074899
0.133821
-0.0589222
0.364321
0.109869
0.146613
-0.277741
0.131129
0.0039022
0.0188471
-0.0169276
0.0141029
0.00282463
-0.121866
0.224368
-0.102502
-0.3796
0.175632
-0.0217284
0.0129801
0.00874829
0.149916
-0.376889
0.226973
0.208965
-0.00920527
-0.19976
0.0873224
-0.0657726
-0.0215498
0.00716114
0.00391969
-0.0110808
-0.0806255
0.0229826
0.0576429
0.00297607
-0.00118123
-0.00179484
-0.000126105
-0.00106066
0.00118676
0.0755272
-0.0558208
-0.0197063
-0.0582314
-0.0439523
0.00368405
-0.00792878
0.00424473
0.086704
0.000618405
0.168282
-0.150148
-0.0181341
0.0217192
-0.0334057
0.0116865
-0.0956059
-0.0188799
0.00370179
-0.0033973
-0.000304492
-0.0472852
0.25625
0.00408118
-0.000397131
0.00202256
-0.218515
-0.00641983
0.00287705
0.00354279
0.140132
0.0195151
-0.000583985
-0.000901434
0.00148542
-0.0046564
-0.00176343
0.0768985
0.00980545
0.348952
-0.199036
0.121789
-0.260616
0.138828
-0.0008325
0.00404559
0.147429
-0.0210951
-0.126334
-0.00309349
0.00164868
0.00144482
-0.0800343
-0.0242729
0.104307
0.0184902
-0.110627
0.0921372
-0.00498166
0.00587167
0.048793
0.0256989
0.0687253
-0.0458977
-0.0228276
0.0125917
-0.00543051
-0.162853
-0.0336614
0.196514
0.14237
-0.24201
0.0996392
0.00345845
-0.00811485
-0.0217284
0.197048
0.216319
-0.413367
-0.152555
0.260519
-0.107964
-0.0508489
0.0420864
0.00876251
0.0138998
0.00028982
-0.0141896
-0.0106164
0.011196
-0.000579618
0.127865
0.132343
-0.00207158
0.00197882
9.27582e-05
0.000120233
-0.000704217
0.0198559
0.111537
-0.131393
-0.270277
0.239162
0.0311146
-0.0207078
0.0278999
-0.00719206
-0.039457
-0.000542051
0.0399991
0.0194721
-0.0756179
0.0561457
0.0625499
0.0335017
-0.0749094
0.0116269
-0.0628224
0.0767298
-0.0139074
0.0045277
-0.00165066
0.440045
-0.624155
0.18411
-0.0779111
0.111498
0.0606839
-0.0242478
-0.00138889
0.00191538
0.129872
-0.0530451
-0.0768269
-0.00962811
0.0298483
-0.199395
0.119505
0.0798893
-0.0821623
0.0163898
0.125393
-0.0995849
0.275914
-0.154125
0.00261342
-0.0469794
0.044366
-0.0750457
-0.00557979
-0.00782925
-0.044501
0.0523303
-0.262167
0.237406
0.0247609
-0.0612972
0.0358247
0.224953
0.0489273
-0.186303
0.277164
-0.0908614
-0.00223084
0.00196794
0.000262892
-0.00801432
-0.000683348
0.00869767
-0.0137902
0.107168
0.0243169
-0.0409215
0.0166046
0.0550423
0.0204848
-0.0506519
-0.00872032
0.0593722
0.185942
-0.0483253
-0.137617
-0.45935
0.457336
0.00201365
0.00382299
-0.00230498
-0.00151801
-0.000881521
0.154607
-0.153725
-0.00190413
-0.000167453
-0.198262
0.0456944
0.00348911
0.166161
-0.16965
0.486231
-0.299262
-0.186969
-0.193098
0.355484
-0.162386
-0.0954143
0.0730455
0.0223688
0.0136685
-0.00828498
-0.00538356
-0.183924
0.187413
0.0841835
-0.0288559
0.0486138
-0.0148593
0.16197
0.0903443
-0.252315
0.0231064
-0.00428284
-0.0188235
0.0681706
-0.0881806
0.0200099
0.00404801
0.0084661
-0.0125141
-0.0123845
0.0112105
0.00117393
-0.322004
0.234308
0.00792269
0.00574585
-0.00472828
0.00929424
-0.00456596
-0.0336817
-0.0617326
-0.00449885
0.0661004
0.0425291
-0.0095643
-0.0329648
0.170075
0.0185
-0.0606398
0.0632532
-0.265701
0.145657
0.120044
0.263242
-0.459976
0.196734
0.0146849
-0.0146849
0.0150773
-0.0657292
-0.182204
0.346962
-0.164757
-0.0759289
0.157722
-0.0817932
-0.0114332
-0.0536871
0.0651203
-0.316963
0.235244
0.0817182
0.012236
0.00166379
-0.217372
0.386988
-0.169617
-0.313105
0.182608
0.130497
0.065939
0.063933
-0.0746419
0.0118196
-0.0308914
0.209244
-0.178352
0.0983185
-0.112109
-0.0478358
-0.0533249
0.101161
-0.115593
0.0199869
0.126524
0.0186005
0.105313
-0.0371421
0.534888
-0.301383
-0.233505
-0.185366
0.359633
-0.0273192
0.074829
-0.0475099
-0.177438
-0.0208249
0.136167
-0.150197
0.0140303
0.0837497
-0.103098
0.0193484
-0.300923
0.381496
-0.120793
0.0729577
0.0776528
-0.105831
0.0281778
-0.529678
0.0703288
0.00460411
-0.000209006
-0.0043951
-0.17092
0.0231241
-0.162205
0.380977
-0.218772
-0.0885275
0.107018
0.0618799
0.148201
-0.210081
-0.118845
0.135792
-0.0169473
0.0527223
-0.0734314
0.0207091
0.00202196
-0.00189846
-0.000123495
-0.0241731
0.0768954
-0.0219285
0.0419406
-0.0200121
-0.0905844
0.326242
-0.235658
-0.00414425
-0.00735859
0.206604
-0.200506
0.0376534
0.0940716
-0.0383813
-0.0556903
-0.00117966
-0.00105117
0.0191851
0.058169
-0.0773541
0.10435
-0.0266968
-0.0794561
0.121659
-0.0422024
-0.0836109
0.11002
-0.0264088
-0.357746
0.293713
0.0640338
0.0709428
-0.10791
0.0369672
0.245262
0.0997716
-0.0217987
-0.0937941
0.00363956
-0.00279879
-0.000840773
0.0897379
-0.0128394
-0.0053986
-0.431047
-0.187996
-0.128967
-0.263079
-0.0946675
0.475095
-0.281588
-0.193507
0.0116523
-0.0323602
0.165472
-0.104232
-0.0612399
-0.210085
-0.074133
0.284218
0.0253078
-0.0847209
0.0594131
0.0116978
0.0570274
-0.220378
0.0437412
0.176636
0.0447276
-0.0204107
-0.00508755
-0.00269663
0.00778418
0.0784949
0.011243
-0.278315
-0.205931
-0.000816241
-0.000263344
0.00107959
0.126523
-0.00417621
-0.122346
-0.364447
0.041697
0.32275
0.0244134
-0.00130705
0.0236104
0.144671
0.0908661
0.0356564
-0.0777372
0.20172
-0.123983
-0.055166
-0.0628866
0.118053
0.0789577
-0.0214313
-0.0575263
0.0149906
-0.0369191
-0.114051
-0.0047938
-0.0884413
0.0603059
0.0281354
-0.118887
-0.163583
-0.133436
0.0488164
0.0846193
-0.307183
0.335358
-0.0281753
0.103112
-0.0193626
-0.141508
-0.0294116
0.0459382
0.0481334
0.013635
-0.000646984
-0.0129881
-0.33978
0.249196
-0.0387263
0.202727
-0.164001
-0.0700922
0.0718022
-0.00171009
0.162426
-0.201152
0.108146
-0.184074
-0.0321553
0.0258258
0.00971221
-0.035538
-0.0118331
0.00121671
0.139985
0.0976127
-0.237598
0.0272124
0.0786723
-0.105885
0.00841282
0.000822999
-0.00923582
-0.077415
0.0215942
0.211275
-0.179625
-0.0316491
-0.189885
-0.107619
0.297504
-0.176666
0.102704
0.0739619
0.0952318
0.0702402
-0.221679
-0.0404881
0.00874438
-0.000331558
0.0838414
-0.0585336
0.0253207
0.0157649
-0.0410856
-0.00138889
0.00178064
-0.373113
0.193138
0.179975
0.0147324
0.400642
0.0318101
-0.0963214
0.0645113
0.00553664
-0.00351469
0.152266
-0.112273
-0.0399933
-0.0654587
-0.0841938
0.105968
-0.0217738
-0.0552228
0.153362
-0.0981388
-0.000942346
-0.268436
0.147565
0.0813902
-0.034768
-0.0466221
-0.00388078
-0.325132
-0.170668
-0.00524808
-0.0129265
0.0181746
-0.0898436
0.119468
-0.0296243
-0.122063
0.268676
-0.178145
0.0711769
0.106968
-0.0800997
0.10691
-0.0268099
-0.22031
0.202947
0.0173626
-0.367928
0.00348089
0.0090606
-0.0106938
0.00163325
0.0555745
-0.0302538
-0.367191
0.216623
0.150567
0.00771425
-0.00952187
0.00180762
-0.00116478
-0.0608822
0.0800672
-0.291745
0.305267
-0.0135214
0.440045
0.058543
-0.0719081
0.0133651
-0.0526237
-0.167754
0.135663
-0.317868
0.109225
-0.237566
0.128341
-0.120676
0.213124
-0.0924482
-0.0672421
-0.0209384
-0.111956
0.0318564
-0.0900744
-0.086592
-0.00231377
-0.101918
-0.140055
0.0188866
0.00480206
0.0611369
0.174317
-0.293205
0.324132
0.162099
0.0282567
0.0484731
0.00625643
-0.0906817
0.0844253
-0.0561729
0.0833853
0.0152327
0.00142534
0.0602247
0.0920413
-0.218305
0.187414
0.427791
-0.588927
0.161136
0.053722
0.0276681
0.0186683
-0.0239164
-0.384864
0.121785
-0.190768
0.398471
-0.207704
-0.283369
-0.101495
-0.117525
-0.0818695
-0.0985519
0.014941
0.0833986
-0.0578102
-0.0979237
-0.172353
0.256481
-0.138139
-0.118342
-0.382876
0.210138
0.172738
0.045828
0.00422468
0.0501125
-0.0579417
0.0920827
-0.0274613
-0.0646214
0.0313029
-0.0874808
0.0561779
-0.252324
0.197018
0.0553065
0.0645225
0.0094958
-0.0740183
0.00380158
-0.0858599
0.0407679
0.099516
-0.140284
0.0165334
-0.109828
0.0932942
-0.00587563
0.000710193
6.65919e-05
-0.000776785
-0.0625641
0.0511309
0.353032
0.0871478
-0.44018
0.131018
-0.143027
0.0120085
0.00340384
-0.0634736
0.0600698
0.0310052
-0.00517939
0.00610653
0.140033
-0.146139
-0.215814
-0.1573
0.109643
-0.00779935
-0.101843
0.269225
-0.192553
-0.0766717
0.0338883
0.109143
-0.143032
-0.0600653
-0.00305325
0.0631186
0.00679214
-0.00806281
0.00127067
-0.075436
0.0929863
-0.0175502
-0.117118
-0.0229372
0.0118914
0.00174362
-0.263699
0.0300326
0.233667
0.0302072
-0.207645
0.125539
0.135918
-0.261457
-0.239781
0.086655
0.0204034
-0.0919515
0.0715482
0.171514
0.00185725
-0.173371
0.00848094
-0.000766685
0.0709352
-0.041021
-0.0299141
-0.189735
0.111998
-0.202273
-0.164918
-0.00155583
-0.00951845
0.0110743
-0.0912714
0.0158353
0.0357414
0.054404
-0.0159108
-0.247788
0.0899602
0.021635
-0.111595
0.117848
-0.307732
0.160271
-0.0276127
-0.132658
0.163866
0.0752961
-0.166781
-0.172999
-0.00643172
0.0085709
-0.00213919
0.00188476
0.00271935
-0.0619684
0.0259004
0.036068
0.0251777
-0.26003
-0.232314
0.492344
0.00865404
0.0671694
-0.0758234
0.00128493
-0.00822088
0.00693595
0.0577523
-0.112918
0.397897
-0.200849
0.00539816
0.00983449
-0.140852
-0.132248
0.273099
-0.278942
0.181503
0.0974386
0.429928
-0.166686
0.0733659
-0.0529626
0.153049
0.113388
-0.266437
-0.154636
0.0363779
-0.0543052
0.0856081
0.00666953
-0.0243291
0.0176596
0.251409
-0.142183
0.00406473
0.00969568
-0.0961582
0.130815
-0.034657
0.0960642
-0.387809
-0.0298727
0.165011
-0.135138
-0.267673
0.140058
0.127615
0.190209
-0.139057
0.0838345
-0.084358
0.117792
-0.0334341
0.0819724
-0.0771704
0.00162598
-0.00671354
-0.0752079
0.0950638
-0.365558
0.200056
0.165503
-0.0050327
-0.0650595
-0.0360141
0.0300982
0.00591591
0.00396124
0.0241446
-0.0281058
-0.00867128
-0.00371319
0.0266459
-0.0979972
0.0713513
0.217053
-0.176811
-0.0402415
0.191499
-0.358281
-0.360605
0.15052
-0.120966
0.182846
0.0641549
0.0288313
0.0239772
0.101478
-0.125455
-0.143175
0.145536
-0.0023603
-0.117112
0.0272688
0.0357942
0.0115707
-0.0665454
0.0549747
0.0243154
-0.172935
-0.0947381
-0.136251
0.133937
0.00246034
0.00124144
-0.215746
0.0298184
0.185928
0.00240491
0.00438723
0.427791
-0.414503
0.229797
-0.000887355
-0.0092888
0.0101762
-0.120023
-0.0144466
0.13447
-0.163949
-0.046112
0.210061
0.068092
0.0108657
-0.0886131
-0.0109502
-0.052447
0.0842571
0.00631024
-0.00178254
-0.161307
0.152102
0.192945
-0.0314992
-0.161446
0.012392
-0.00171507
0.00703879
-0.0207649
-0.0639721
0.084737
-0.104054
0.099921
0.00413294
0.0842678
0.00493629
0.0668466
-0.0552759
-0.000319296
-0.0119235
0.0122428
-0.0718061
0.090225
-0.212091
0.11558
-0.0314314
-0.0841489
-0.229885
0.0773303
0.0982833
-0.0341284
0.0761627
0.137049
-0.213211
0.00390234
0.0024079
0.109328
-0.0193677
-0.0721821
0.0755859
-0.142047
-0.00112893
0.00557961
0.0887566
-0.0943362
0.149963
-0.0398242
-0.0404826
-0.177141
-0.202459
0.00034833
0.000361863
0.255785
-0.130246
-0.0395723
0.074397
-0.0348247
-0.446389
0.142946
0.303443
0.064807
-0.0691956
0.00438859
-0.111032
0.14492
-0.444994
0.281136
0.163858
-0.0728502
-0.187766
0.223053
0.206875
-0.0434427
0.00078596
0.0426568
-0.00301379
-0.000709043
0.00372284
-0.0249594
-0.0258895
-0.104632
-0.0163152
0.120947
0.0423507
-0.163408
0.121057
0.0906604
0.0162492
-0.281014
0.515521
-0.234508
-0.417293
0.0303329
0.386961
0.0183485
-0.0148504
-0.00349807
-0.255396
0.182546
0.228075
0.116903
-0.344978
0.00834066
-0.0925344
-0.114022
0.467054
-0.0149401
-0.0891138
0.103363
-0.0127024
-0.0783525
0.306427
-0.120067
0.273116
-0.00295333
-0.107945
0.110899
-0.169472
-0.0462743
0.125492
-0.126373
0.0440678
0.000659776
-0.00392669
-0.116905
0.120831
0.0779834
-0.0987483
0.00896442
-0.138677
0.129712
-0.26048
-0.105078
-0.0395677
0.014005
0.0255627
-0.173649
-0.022716
0.196365
0.140147
-0.190189
0.0500422
-0.048336
0.0608925
-0.0125565
-0.0127976
-0.0019803
0.0147779
-0.0926867
0.0982663
0.0695653
-0.0358015
-0.0337637
0.123225
-0.117119
-0.0603591
0.00186054
-0.0146582
0.276656
-0.114686
0.000520136
-0.00813281
0.00761268
-0.0802765
0.0407042
-0.330314
-0.032892
0.363206
0.0442478
-0.000179975
-0.0101195
0.016047
0.0935956
-0.251184
-0.228357
0.479542
-0.0890494
0.0953058
-0.00338341
-0.0167608
0.0201442
0.0910819
0.137448
-0.286745
0.149297
-0.207505
0.030274
-0.168451
-0.0518586
0.0355425
-0.221845
0.465165
-0.445482
-0.0196832
0.058897
0.0360255
-0.029356
-0.170722
0.178283
-0.00756121
0.0349283
0.0136856
-0.277809
0.162332
0.115477
-0.0927105
0.104826
-0.0121156
-0.070017
-0.00863488
-0.298548
-0.402738
0.109168
-0.170031
0.0608633
-0.519782
0.245595
0.274186
0.177382
0.0338925
-0.186568
0.0498034
0.136765
-0.102512
-0.163189
-0.0741686
0.0999762
-0.0258075
0.00710637
0.0387216
-0.171763
0.373071
-0.201307
-0.015485
0.0203179
-0.00483288
-0.00477952
0.00197093
0.00280859
0.132283
-0.0435984
-0.0886846
0.0532606
0.0623197
-0.0145412
-0.0474272
0.0213822
-0.133116
0.129189
0.120085
0.0306118
-0.150697
-0.0085559
-0.00837166
-0.176785
0.00606333
-0.008234
0.105855
-0.0976209
-0.267865
0.109075
0.15879
-0.000107932
-0.00435992
0.00446786
0.0684011
-0.127109
0.0587075
0.0786797
-0.0285672
0.0690631
0.0182441
-0.0873072
0.00763351
-6.0266e-05
-0.0676171
0.155678
-0.267078
0.1114
-0.100426
-0.0121982
0.112625
-0.088655
0.0758675
0.0127876
0.0374272
0.0818333
-0.0623611
-0.220422
0.0526267
0.167795
0.0509262
-0.0392283
-0.190788
-0.0059624
0.19675
0.15703
0.120345
-0.277375
-0.185439
0.408492
0.381206
0.105565
-0.486771
-0.00595214
0.00287501
0.00307713
0.0438227
0.00710348
0.233441
-0.249352
-0.0576369
0.0737729
-0.016136
0.141222
-0.108133
-0.0330893
0.0265757
-0.0226145
-0.00296323
-5.05588e-05
-4.81812e-05
0.0585912
0.0596982
0.0165772
-0.0762754
0.0246774
-0.192524
0.167846
0.00685258
-0.0127939
0.11471
-0.0163918
-0.0878534
0.238145
-0.150292
-0.122739
0.04784
0.00100965
0.00808173
-0.00896909
-0.150438
-0.0936132
-0.159515
0.00513268
0.154382
0.235467
-0.0898362
-0.145631
-0.443034
0.0146394
0.428395
-0.00682014
0.00874418
-0.00192404
-0.0802716
0.0996519
-0.0193802
0.00307332
-0.0048158
0.00610073
0.146406
-0.24281
0.0964037
0.250577
0.284311
-0.0186833
-0.102593
0.121276
-0.0701647
-0.359981
-0.325801
0.132703
-0.027468
-0.1591
-0.148551
0.203548
-0.0549974
0.0341139
0.127438
-0.0590365
-0.0438862
0.103345
-0.0594588
-0.00809231
0.0136083
-0.00551598
0.096108
0.00381293
-0.326923
-0.119465
-0.0128873
-0.107136
-0.000743753
-0.0851701
0.0859139
0.0187889
-0.0143351
-0.00445379
-0.123478
0.115244
0.073388
-0.0681205
-0.00526749
0.0283151
-0.126178
0.0978634
-0.0018583
0.235299
-0.0727097
0.0150728
-0.0360736
0.0391882
-0.00311464
0.0321759
0.177068
0.0651568
-0.264396
0.199239
0.0650164
-0.0288782
-0.0361382
0.000987689
0.0614265
0.424254
-0.0430472
-0.000339739
0.000406331
0.00226886
-0.00226886
-0.0847541
-0.00390094
0.20312
0.196036
0.00578262
-0.00580569
2.30791e-05
-0.00968383
0.00749214
0.00219169
-0.025483
0.14113
0.030384
-0.447383
0.271038
-0.0459476
0.0444064
0.00154121
0.317599
0.158591
-0.0924791
0.0663237
0.0261554
0.00766885
-0.00714871
0.0654966
0.0169412
-0.0824378
0.00172095
0.00591256
0.0216872
0.0857238
-0.107411
0.00438885
-0.00416398
-0.00022487
-0.115117
0.0307593
-0.233133
0.198417
0.0347165
0.0492195
-0.208735
0.0114583
-0.0115154
5.71746e-05
0.0254592
-0.00809944
-0.0173598
-0.000623231
-0.00631511
-0.0017477
0.14016
-0.0368661
-0.055613
0.152453
-0.433466
-0.118359
0.0389028
-0.0189684
0.101911
-0.0829429
-0.0912446
0.0021062
0.0890168
-0.419331
-0.118426
0.149798
-0.0313715
-0.0660682
0.0747222
0.00359593
-0.0190809
0.0110091
0.000449198
0.00735726
-0.00959905
0.00224179
-0.0766377
0.117406
0.0594657
0.0879637
0.0895462
-0.0110513
0.1247
0.131781
0.161771
0.134524
-0.296295
0.231152
0.0882354
-0.319387
-0.00607207
-0.134405
0.140478
-0.082999
-0.343175
0.0664905
0.276684
-0.108984
0.0900158
-0.168421
-0.157967
0.326388
-0.448172
-0.175983
-0.19498
0.401545
-0.206565
0.0106169
-0.00605681
-0.00456011
-0.0675536
0.209924
-0.412062
-0.0687256
0.480787
0.100195
-0.118878
0.00550961
0.114905
-0.120415
-0.308055
0.136292
-0.00857588
0.00214416
0.224068
0.045157
0.159183
0.116757
-0.27594
0.00649293
-0.104903
0.0984102
-0.00080358
-0.0858698
0.0866733
0.150496
-0.227981
0.147859
0.0801218
0.00971036
0.0636776
0.068311
0.16939
-0.10605
-0.0633403
-0.0384858
0.00241222
0.105639
0.063751
-0.015906
0.0213041
0.0194911
0.0197045
-0.0097733
-0.0181299
0.0279032
-0.00852637
0.00170623
-0.218212
-0.00110806
0.015211
-0.0841423
0.0144732
0.0696691
-0.204692
-0.173577
0.378268
-0.00140555
0.000865772
0.000539776
-0.151225
-0.181702
0.332927
-0.197053
0.402955
-0.205902
-0.101798
-0.0308289
0.132627
-0.465321
0.184208
-0.084295
0.107372
-0.0230774
0.0149886
0.00380028
0.209847
-0.0148149
0.00504157
-0.177767
0.202445
-0.0287857
0.140323
0.00820443
0.0172548
-0.224212
0.39725
-0.173038
-0.00355531
0.00104469
0.00251062
-0.132029
0.160559
-0.0285306
-0.113854
0.265922
-0.152067
0.328312
-0.188371
-0.139941
-0.00438403
0.235536
-0.0789624
0.0470782
0.0318842
0.0251973
-0.0525165
0.00866137
-0.0115949
0.00293357
0.108728
-0.0126202
0.00539267
-0.000726869
0.120796
-0.100043
-0.0207525
-0.143119
0.067902
-0.0799378
0.0120358
0.00850861
-0.00115136
-0.0102909
0.0699891
0.0295916
0.0452374
0.0247769
0.0673058
-0.0921433
0.114754
-0.0226107
-0.108256
0.160515
-0.0522587
-0.0641957
-0.0147668
0.0615176
0.112275
-0.173793
0.0767692
-0.0217269
0.346512
0.122528
-0.46904
0.00465323
0.00112939
-0.0456829
0.170801
0.0799113
-0.0503197
0.114296
-0.11725
-0.0518256
0.204054
-0.152229
0.0627028
-0.0483424
0.180805
0.14623
-0.327035
0.0162735
-0.0884555
-0.167275
0.0352463
0.203492
0.123682
-0.0997046
0.107325
-0.102867
-0.004458
-0.0295168
0.076595
-0.0131172
0.048871
-0.0584416
0.00957064
-0.000269985
0.00858156
-0.00831157
-0.269205
-0.233214
0.000577827
-0.000917566
-0.0857262
-0.202564
0.28829
0.0807145
-0.0727189
-0.00799563
-0.0795569
0.101244
0.0121243
0.171166
0.249436
-0.327788
-0.069436
-0.108709
0.163217
-0.237034
-0.266517
0.152662
0.143943
-0.0304829
-0.11346
0.066595
0.0141195
0.0678172
0.0355278
0.0400719
0.0249444
0.00433433
0.0919659
-0.0963002
0.432104
-0.236373
-0.195731
0.111967
-0.0194111
-0.0925555
0.00300851
0.0395206
0.306451
-0.142583
-0.163868
0.0826991
0.0192123
0.0858249
0.0769384
-0.162763
-0.015753
0.016869
-0.001116
0.0892323
-0.189112
0.0998798
-0.00164959
0.000655816
0.000993775
-0.118059
0.464571
0.0666963
-0.0384396
0.0955997
-0.507661
-0.0518287
-0.0546728
0.106502
-0.218016
0.130163
-0.151285
0.145213
0.0180191
-0.139098
0.121079
0.148858
0.279779
-0.120596
0.429241
-0.270744
-0.158497
0.00675256
-0.0501953
0.00833673
-0.00833673
0.15097
-0.10983
-0.0411397
-0.00534185
0.00178654
-0.215815
0.213957
-0.0268272
0.128305
0.182022
-0.0274152
-0.0833151
0.0369707
0.0463445
0.00125363
0.00172244
0.124753
0.0262166
0.235188
0.131773
-0.36696
0.0553942
0.0232855
0.13803
0.0505817
-0.266397
-0.0301121
-0.127996
0.158108
0.00955192
-0.0111077
-0.0270685
0.000760636
0.0263079
-0.0705649
0.0724283
-0.00186337
-0.0288433
-0.0430648
-0.0272681
0.0524655
-0.176527
0.0558511
0.295492
-0.212128
-0.0833634
0.0518401
0.0249291
0.204492
0.0137413
0.0662292
-0.0799705
0.0328265
0.126345
-0.159172
-0.423989
0.294095
0.129894
0.00606771
0.0165506
-0.0226183
0.0177445
-0.0126394
-0.00510502
-0.222352
0.0114586
-0.00279728
0.13097
-0.122005
-0.0940651
0.113335
-0.0192698
-0.0200795
0.0803854
0.040722
0.0136002
0.050536
0.0260336
-0.0765696
0.529869
-0.325977
-0.203892
-0.453212
0.0533363
0.399876
-0.00926543
-0.00487941
0.0141448
-0.125945
0.26593
-0.13967
-0.138072
0.152911
0.22889
-0.0937617
-0.135128
0.0403635
-0.0470665
0.00670301
-0.0133965
-0.0663759
0.0797725
0.0182033
0.00233208
-0.000985071
-0.00134701
0.0315445
-0.127703
0.0763905
-0.0463125
0.164918
-0.0790926
0.377641
-0.0877703
-0.289871
0.171251
0.270729
-0.44198
-0.299433
-0.091391
0.390824
0.0108269
-0.0111462
0.000729858
-0.0835111
0.0622481
0.021263
0.345178
-0.0957416
0.361501
-0.126314
-0.115097
-0.12968
-0.148099
0.277779
0.0258659
-0.127664
-0.128221
-0.0264154
-0.0148651
0.00764541
0.0162894
-0.0239348
-0.0302622
-0.0787221
-0.0423952
0.0701568
-0.0277616
-0.0688682
-0.0146429
-0.139464
0.276913
-0.0800127
0.015817
0.231106
0.0643859
-0.00308536
-0.0306887
-0.0534536
1.39433e-05
-0.00176217
0.00174823
-0.00990516
0.0588998
-0.0489947
0.0437566
-0.192308
0.120711
0.0232313
-0.0678361
0.0252254
0.0426108
-0.00148054
0.00255723
-0.00107669
-0.00170113
-0.0990113
0.0629976
0.0360137
0.0824057
-0.0831494
-0.00992181
0.0117823
0.343346
-0.457369
0.0835271
0.00601914
-0.0370449
-0.00241213
0.101796
-0.00351239
0.448911
-0.257648
0.124633
0.00280497
-0.00451475
0.00598144
-0.00146669
-0.0160793
-0.0234884
-0.0600215
0.0921211
-0.0320996
0.311993
-0.141513
-0.17048
0.0217315
0.137984
-0.159715
0.122364
-0.105243
-0.0171205
-0.0148543
0.0121576
0.147735
-0.199561
-0.0519608
-0.0281727
0.0801336
-0.139114
0.305137
-0.166022
0.0234736
0.0547458
-0.0850881
0.0303423
0.161248
-0.303832
-0.345516
0.20589
0.139626
-0.0754308
0.151594
-0.165214
0.0237056
-0.166935
0.398409
-0.231474
-0.123625
0.185143
-0.179756
0.0521372
-0.00326621
-0.0743869
0.0908286
-0.0164417
-0.00911811
0.00843476
0.328802
-0.0101312
-0.0696759
0.0798071
0.316996
-0.162751
-0.154245
-0.0142604
-0.00235962
-0.0766602
-0.102014
-0.00261831
0.104632
-0.304166
0.165051
-0.168307
-0.0840173
-0.0210867
-0.0545312
0.101863
-0.0284576
-0.0734057
-0.109488
0.1401
0.00781186
-0.00096209
-0.00684977
0.0804896
0.0213061
-0.170912
-0.085562
0.231968
-0.0240054
-0.000499497
-0.0028978
-0.0926239
0.0029764
0.0896475
-0.436705
0.247119
0.189586
-0.0758833
0.0195812
0.0563021
0.242874
0.194257
-0.437131
0.107899
-0.136685
0.341704
-0.264796
-0.0769084
0.054023
-0.0808818
0.0268588
0.0021734
0.19685
-0.397084
0.200234
0.123591
0.153573
0.0674895
-0.0802303
0.0127409
0.220979
-0.0653011
-0.0107057
-0.0334689
0.0441745
0.0117605
0.000739982
-0.0125005
-0.0917336
0.104396
-0.0126628
-0.11731
-0.356664
0.0562843
0.300379
0.0939298
0.247774
0.248582
-0.366641
0.0127046
0.059702
0.0208925
0.0578592
0.209262
-0.171122
-0.0381406
-0.00216609
0.000760543
-0.396119
0.136088
-0.177879
-0.135226
0.0158084
-0.0253727
0.135634
0.160107
-0.29574
-0.0158651
0.00969177
-0.223896
0.402529
-0.178633
-0.000312298
-0.106966
0.107279
0.139036
-0.142313
0.293773
-0.15146
-0.289303
0.254637
0.0346661
-0.182844
0.425717
0.000579753
0.0106308
-0.203864
0.0399152
-0.196628
-0.227361
-0.00776965
0.0479584
-0.0401887
0.125338
-0.00070527
0.471118
-0.252854
-0.218264
0.110299
-0.103806
0.00841206
0.127755
-0.100238
0.345833
0.0264341
0.210706
-0.109798
0.00778409
0.000706747
-5.09304e-05
0.0712672
0.0170059
-0.0882731
0.14857
0.13572
-0.28429
0.0487629
0.02501
-0.0284537
-0.0734599
0.101914
0.115097
-0.0222202
-0.0928771
-0.135791
-0.0294229
-0.0205
0.109596
-0.0890962
0.0596495
-0.200693
0.104441
0.0962521
-0.120885
0.0208414
-0.203664
0.291899
0.14158
0.179812
-0.321392
-0.158532
0.336423
-0.177891
-0.00941241
-0.102234
0.111646
0.0781735
0.0576188
0.119175
-0.0133197
0.121479
0.149376
-0.270855
0.128991
-0.159103
0.022567
-0.00233937
-0.00698455
0.00932393
0.0411319
-0.0886984
0.271307
0.360209
-0.0904024
-0.269806
-0.115706
0.109712
-0.0459948
-0.0637173
-0.144996
0.0138016
3.3252e-05
-0.0138349
0.317119
-0.180102
-0.137017
-0.124066
0.274008
0.0862009
0.0317005
0.0219072
-0.0536076
0.0017324
-0.00230542
0.000573019
0.175927
-0.477311
0.0225578
0.149727
-0.172285
0.190114
0.212841
0.0205535
-0.10011
0.462336
-0.251438
-0.210898
-0.186412
-0.0781332
0.264546
-0.0612672
0.0596596
0.00160767
-0.365444
0.461043
0.16127
-0.308475
0.147205
-0.409116
0.22176
0.187356
-0.105698
0.0520795
0.0536186
0.43579
-0.280202
-0.155589
0.285044
-0.137249
-0.147795
0.00141593
0.0224343
-0.0238502
0.0180881
-0.0665063
0.0484182
0.0388068
-0.0227907
-0.0762206
0.000483364
-0.00275537
0.002272
0.112169
-0.0816189
-0.0305502
0.180407
0.136712
-0.355717
0.100321
0.000294503
0.00804223
0.0370456
-0.223458
0.0335514
0.0842407
-0.0156681
0.101392
0.125893
-0.100028
-0.122689
-0.0305485
0.153238
-0.0848329
-0.127231
0.212064
-0.136136
0.0190174
0.177039
-0.205487
0.0284474
0.239911
-0.439284
0.199373
0.0825006
-0.0277548
0.0182829
-0.00582195
-0.012461
0.126768
-0.0222788
-0.104489
0.155358
-0.454791
-0.0512298
0.0405241
0.029189
0.00532483
0.0031561
-0.00430228
0.00258948
-0.00769356
-0.0863716
0.262041
-0.460467
0.198426
-0.386316
0.135132
-0.00527232
0.418843
-0.413571
0.020233
-0.455102
0.341677
0.113425
-0.2428
-0.046503
0.00308573
0.00111989
-0.00420562
0.0323023
-0.105147
0.0957349
-0.196547
-0.15917
0.0954116
-0.0910773
-0.0779182
0.00904999
-0.228046
-0.216948
0.0878145
0.0713443
-0.101142
-0.0490547
0.0582665
-0.039426
-0.0188405
-0.0998844
0.0842057
0.151261
-0.156747
-0.0372871
0.104773
-0.135602
0.424965
-0.210526
-0.214439
-0.00210433
0.0903965
-0.0882922
-0.171579
-0.0467264
-0.0291436
0.055044
0.0212322
-0.0801941
-0.0192346
0.0994287
-0.288086
0.147234
-0.026034
0.12555
-0.000212476
0.00195968
-0.0017472
-0.0164107
0.0110463
0.0645173
0.0185605
-0.0830779
-0.0971619
0.00453801
0.00114415
0.0126575
-0.193061
0.118948
-0.322611
-0.0346838
-0.164619
0.199303
-0.00463126
-0.0509674
-0.305696
-0.126429
0.116341
0.0547906
0.0864317
0.107745
-0.00334861
-0.452094
0.175165
0.27693
-0.475618
0.204678
0.27094
-0.144201
0.234545
0.110607
-0.476051
0.00185065
-0.0762375
-0.0086732
0.00235809
-0.0809133
0.0719402
0.00897309
-0.284945
0.199219
-0.0101752
0.0115161
-0.0013409
0.0955999
0.0267641
0.274001
-0.459462
0.185461
-0.077211
-0.0648356
0.448083
0.0178242
-0.465907
-0.0175222
-0.0870254
0.104548
0.0469611
-0.201792
0.154831
0.159273
0.15272
-0.00342301
-0.00143294
0.00485595
-0.0119235
-0.000493938
0.00317967
-0.00268573
0.158728
-0.219855
0.0611271
-0.00540173
-0.00928316
-0.118537
0.00566735
-0.00636801
0.000700661
0.00132233
-0.00474535
-0.458485
-0.112589
0.0920894
0.0590599
-0.0724564
-0.196794
-0.190605
-0.219075
0.40968
-0.00236646
-0.0028116
0.00517806
0.133963
-0.218796
0.323497
-0.126331
-0.197165
0.0281205
0.056778
-0.0848985
-0.0307311
0.345118
-0.0965362
0.129868
0.0278651
-0.157733
0.449929
-0.138714
0.16393
-0.0252155
0.0455521
0.0563113
-0.271019
-0.188443
-0.00426801
0.0011063
0.00316171
-0.136833
-0.261305
-0.214314
-0.0861654
0.0189437
0.0672217
-0.0852106
0.09884
-0.0136295
0.0546462
-0.106475
0.376496
0.0764502
-0.0276873
0.161449
0.0990697
0.00449934
-0.288696
0.147183
-0.11963
0.312934
-0.193303
0.0496538
-0.00298969
-0.0466641
0.188979
0.216691
-0.40567
0.00151992
0.209813
-0.0766691
0.104984
0.032594
-0.0424992
0.0193599
-0.0227433
-0.136436
-0.131429
0.141507
0.0828612
-0.197899
-0.147617
0.173627
0.00259201
-0.176219
-0.157845
0.0495884
-0.0801663
-0.0342623
0.114429
-0.234848
-0.186689
0.421537
-0.00202973
0.16381
-0.310051
0.146242
0.29672
-0.171375
-0.125345
-0.0795191
-0.0261791
-0.025564
0.0727613
-0.0471973
0.0394375
0.0873301
-0.348707
0.471236
0.00528944
-0.0076559
-0.0976231
0.107644
-0.0100207
0.157942
0.122871
-0.100379
-0.0224923
0.140316
-0.289051
0.156803
-0.00158161
0.0394079
-0.0378263
-0.113042
-0.259624
0.139993
-0.129668
0.266794
-0.137125
-0.00221505
-9.03666e-05
-0.15441
-0.119155
0.273565
0.319081
-0.200151
-0.11893
0.00302988
-0.171332
0.0326181
0.00120844
0.00345602
-0.00466446
-0.139457
0.0622461
-0.342222
-0.100812
-0.218234
0.408348
-0.00741988
0.172183
-0.145779
-0.0264041
0.15561
0.161386
-0.0379048
-0.00804278
0.00566889
-0.00644901
0.000780121
0.323498
0.112292
-0.00169458
-0.00614637
0.00784094
-0.0854312
0.00523716
0.209255
0.0556617
-0.264917
-0.253537
0.142936
0.110601
-0.0477677
-0.0325088
-0.0391699
0.328079
-0.288909
0.0581939
0.00999565
-0.0681896
0.109923
0.0196393
-0.368346
0.0822763
-0.0660029
-0.00567958
0.00322943
0.00245015
-0.0127685
0.263728
-0.10245
-0.161278
0.00758325
-0.00727241