/*--------------------------------*- C++ -*----------------------------------*\
| =========                 |                                                 |
| \\      /  F ield         | OpenFOAM: The Open Source CFD Toolbox           |
|  \\    /   O peration     | Version:  v2012                                 |
|   \\  /    A nd           | Website:  www.openfoam.com                      |
|    \\/     M anipulation  |                                                 |
\*---------------------------------------------------------------------------*/
FoamFile
{
    version     2.0;
    format      ascii;
    class       surfaceScalarField;
    location    "400";
    object      phi_0;
}
// * * * * * * * * * * * * * * * * * * * * * * * * * * * * * * * * * * * * * //

dimensions      [0 3 -1 0 0 0 0];
oriented        oriented;


internalField   nonuniform List<scalar> 
27907
(
-0.0820626
0.0636075
0.018455
-0.0633038
-0.00992948
0.0732333
0.415374
-0.465769
0.0503947
0.0166031
-0.0052901
-0.011313
0.0137718
-0.00616674
-0.00760503
-0.0115342
0.00468431
0.00684987
0.00892831
-0.000285004
-0.00864331
-0.333273
0.422425
-0.089152
0.0901528
-0.0790113
-0.0111415
-0.16838
0.0229339
0.145446
-0.0227319
0.183294
-0.160562
-0.00786019
0.00531828
0.00254191
0.0805735
-0.436446
0.355872
0.0892456
-0.107941
0.0186958
0.260205
-0.177226
-0.0829792
0.0501631
-0.0295416
-0.0206215
0.0335874
0.0936001
-0.127188
-0.0876959
0.36881
-0.281114
-0.120875
-0.136492
0.257367
0.145123
-0.121166
-0.0239574
0.00321947
0.00052473
-0.0037442
-0.430145
0.449033
-0.018888
-0.00336247
0.00191566
0.00144681
0.0616122
-0.0802884
0.0186762
0.0255927
-0.088972
0.0633793
-0.420064
0.0867911
0.0364536
0.00672358
-0.0431772
-0.00187704
-0.00594098
0.00781802
0.0337988
0.014358
-0.0481568
0.0745316
-0.0594991
-0.0150325
0.0933911
0.00968845
-0.10308
0.00088537
-0.00721771
0.00633234
0.47419
-0.46173
-0.0124601
-0.244053
0.125121
0.118932
-0.099587
0.0300998
0.0694872
-0.484247
0.294183
0.190064
0.556986
-0.334946
-0.22204
0.28073
-0.135588
-0.145142
-0.153126
0.24314
-0.0900143
0.0258099
-0.124659
0.0988487
0.273885
-0.189648
-0.0842367
0.159651
-0.138893
-0.0207585
0.174266
-0.340007
0.165742
-0.118253
0.159158
-0.0409054
0.0961705
-0.0739095
-0.022261
-0.4958
0.260684
0.235116
-0.00186814
-0.00149433
-0.152568
0.192391
-0.0398224
-0.147813
-0.0205666
-0.203967
0.399156
-0.195189
-0.0891667
0.114038
-0.0248708
0.0227257
-0.017337
-0.00538877
-0.475212
0.0935257
0.381686
-0.194039
0.171307
0.00450191
-0.00637895
-0.0254785
0.080604
-0.0551255
0.299261
0.257725
0.0435303
-0.0237772
-0.216495
-0.0168519
0.233347
-0.102232
0.0361038
0.0661285
0.0553297
-0.0853772
0.0300475
0.00757627
0.00135205
-0.11448
0.108275
0.00620438
0.188575
-0.0334951
-0.15508
-0.385455
-0.0897563
0.345034
-0.190118
-0.154916
-0.0749041
0.133828
-0.0589235
0.364321
0.109869
0.146617
-0.277744
0.131127
0.00388624
0.0188395
-0.0169247
0.0141117
0.00281302
-0.121871
0.22437
-0.102499
-0.379601
0.175633
-0.0217111
0.012977
0.00873413
0.149918
-0.37689
0.226972
0.208969
-0.00920732
-0.199761
0.0873088
-0.0657345
-0.0215743
0.00718153
0.00391333
-0.0110949
-0.0806006
0.0229756
0.057625
0.00297969
-0.00118055
-0.00179914
-0.000126779
-0.00106018
0.00118696
0.0755051
-0.0558274
-0.0196777
-0.0582578
-0.0439744
0.00369373
-0.007952
0.00425826
0.0867168
0.000592069
0.168286
-0.150151
-0.018135
0.0217189
-0.033383
0.011664
-0.0956034
-0.0188762
0.00369847
-0.00339505
-0.000303422
-0.047284
0.256253
0.00410056
-0.000406828
0.0020212
-0.218516
-0.00641509
0.00287377
0.00354132
0.140134
0.0195171
-0.000585634
-0.000901031
0.00148667
-0.00465239
-0.0017627
0.076889
0.00982772
0.348953
-0.199036
0.12179
-0.260618
0.138827
-0.000828028
0.0040475
0.147435
-0.0210994
-0.126336
-0.00309884
0.00163359
0.00146525
-0.0800455
-0.0242656
0.104311
0.0184949
-0.11063
0.0921349
-0.00496981
0.00585518
0.0487837
0.0257479
0.0686861
-0.0458962
-0.0227899
0.0126009
-0.00541933
-0.162852
-0.0336644
0.196517
0.142374
-0.242012
0.099638
0.00345254
-0.00810493
-0.0217111
0.197049
0.216319
-0.413368
-0.152559
0.260522
-0.107963
-0.0508784
0.0421177
0.00876073
0.0138923
0.000290988
-0.0141833
-0.010593
0.0111752
-0.000582173
0.127868
0.132337
-0.0020748
0.00198729
8.75047e-05
0.000118528
-0.000704162
0.0198577
0.111536
-0.131393
-0.270278
0.239164
0.0311139
-0.0207387
0.0279337
-0.00719504
-0.0394487
-0.000491525
0.0399402
0.0193651
-0.0755766
0.0562115
0.0625542
0.0336162
-0.0749049
0.0116011
-0.0627651
0.0767
-0.0139348
0.00452432
-0.00165055
0.440046
-0.624156
0.18411
-0.0779164
0.111504
0.0606965
-0.0242429
-0.00139314
0.00191787
0.129902
-0.053022
-0.0768797
-0.00963976
0.0298111
-0.199398
0.119509
0.079889
-0.0821597
0.0164252
0.1254
-0.0995898
0.275915
-0.154125
0.00259785
-0.0469581
0.0443603
-0.0750634
-0.00553722
-0.00796961
-0.0443776
0.0523472
-0.262168
0.237409
0.0247592
-0.0612989
0.0358205
0.224954
0.0489309
-0.186302
0.277164
-0.0908625
-0.00220901
0.00194554
0.000263466
-0.00798076
-0.000671341
0.0086521
-0.013794
0.107185
0.0243349
-0.0409314
0.0165965
0.0550593
0.0204458
-0.0506289
-0.00875463
0.0593835
0.185945
-0.0483259
-0.137619
-0.45935
0.457336
0.00201348
0.00382749
-0.00230913
-0.00151836
-0.000888898
0.154614
-0.153725
-0.00191013
-0.000164668
-0.198266
0.0456973
0.00349366
0.16616
-0.169654
0.486231
-0.299262
-0.186969
-0.193098
0.355485
-0.162387
-0.0954519
0.0730776
0.0223743
0.0136501
-0.00826433
-0.00538582
-0.183921
0.187415
0.0842168
-0.0288871
0.0486638
-0.014865
0.161968
0.0903469
-0.252315
0.0231285
-0.00430822
-0.0188202
0.0682435
-0.0882024
0.0199589
0.00405866
0.00848232
-0.012541
-0.0123866
0.0112168
0.00116978
-0.322005
0.234309
0.00791541
0.00573474
-0.00474762
0.00931073
-0.00456311
-0.0336889
-0.0617629
-0.0044688
0.066081
0.0425578
-0.00955408
-0.0330037
0.170079
0.0184958
-0.0606547
0.0632525
-0.265704
0.14566
0.120044
0.263242
-0.459977
0.196734
0.0146738
-0.0146738
0.0151053
-0.0657341
-0.182206
0.346962
-0.164756
-0.0759351
0.157727
-0.0817914
-0.0114795
-0.0536587
0.0651381
-0.316964
0.235245
0.0817192
0.0122325
0.00165978
-0.21737
0.386989
-0.169618
-0.313107
0.18261
0.130497
0.065978
0.0639237
-0.0746302
0.011865
-0.0308903
0.209245
-0.178354
0.0983301
-0.112124
-0.0478122
-0.053355
0.101167
-0.115579
0.019976
0.126527
0.0185967
0.105316
-0.0370727
0.534889
-0.301382
-0.233506
-0.185368
0.359633
-0.0273428
0.0748319
-0.0474891
-0.177439
-0.0208271
0.136157
-0.150205
0.0140485
0.0837512
-0.103096
0.0193453
-0.300923
0.381497
-0.12079
0.0729776
0.0776657
-0.105833
0.0281676
-0.529678
0.0703287
0.00460499
-0.000210807
-0.00439419
-0.17092
0.0231061
-0.162205
0.380978
-0.218773
-0.0885255
0.10702
0.0618769
0.148205
-0.210082
-0.118842
0.135801
-0.0169593
0.0527372
-0.0734106
0.0206733
0.00201624
-0.0018936
-0.000122641
-0.0242382
0.0769754
-0.0219363
0.0418895
-0.0199532
-0.0905862
0.326243
-0.235657
-0.0041607
-0.00737348
0.206605
-0.200508
0.0376559
0.0940786
-0.0383988
-0.0556798
-0.00116077
-0.00104823
0.0192132
0.0581457
-0.0773589
0.104356
-0.0266904
-0.0794623
0.121656
-0.0421939
-0.083598
0.110026
-0.026428
-0.357747
0.293712
0.0640349
0.0709375
-0.107904
0.0369661
0.245263
0.0997712
-0.0217827
-0.0937968
0.00364949
-0.002809
-0.000840488
0.0897451
-0.012856
-0.00539856
-0.431047
-0.187995
-0.128969
-0.263078
-0.0946688
0.475096
-0.281588
-0.193508
0.0116504
-0.0323891
0.165474
-0.10424
-0.0612335
-0.210085
-0.0741336
0.284219
0.0253418
-0.0847544
0.0594126
0.0116667
0.0570194
-0.220382
0.0437445
0.176637
0.0447327
-0.0203979
-0.00510266
-0.00265537
0.00775802
0.0784961
0.011249
-0.278314
-0.205933
-0.000815789
-0.000264503
0.00108029
0.126518
-0.00417389
-0.122345
-0.364449
0.0416999
0.322749
0.0244218
-0.00129336
0.0236117
0.144674
0.0908634
0.0356551
-0.0777403
0.20172
-0.12398
-0.0551647
-0.0628876
0.118052
0.0789609
-0.0214518
-0.0575092
0.0149933
-0.0369296
-0.11405
-0.00479149
-0.0883946
0.0603864
0.0280082
-0.118888
-0.163581
-0.133437
0.0488148
0.0846224
-0.307185
0.335359
-0.0281738
0.103109
-0.0193579
-0.141519
-0.029401
0.0459598
0.0481188
0.0136432
-0.000647158
-0.0129961
-0.339781
0.249195
-0.0387292
0.202731
-0.164001
-0.0700225
0.071694
-0.00167149
0.162426
-0.201155
0.108144
-0.184079
-0.032159
0.0258655
0.00970375
-0.0355692
-0.0118089
0.00121587
0.139984
0.097615
-0.237599
0.0272699
0.07864
-0.10591
0.00832828
0.000834172
-0.00916245
-0.0774131
0.0215858
0.211277
-0.17963
-0.031647
-0.189887
-0.107617
0.297505
-0.176669
0.102712
0.0739566
0.095238
0.0702356
-0.221681
-0.0404872
0.00864821
-0.000319928
0.083891
-0.0585492
0.0253356
0.0157401
-0.0410757
-0.00139314
0.00178135
-0.373113
0.19314
0.179974
0.0147324
0.400642
0.0318369
-0.0963164
0.0644794
0.00553735
-0.00352111
0.152268
-0.112284
-0.0399846
-0.065419
-0.0842096
0.105979
-0.0217696
-0.0552259
0.153369
-0.0981435
-0.000942568
-0.268437
0.147562
0.0813846
-0.0347668
-0.0466178
-0.00389334
-0.325132
-0.170668
-0.00522776
-0.0129216
0.0181494
-0.089837
0.119501
-0.0296641
-0.122062
0.268679
-0.178152
0.0711836
0.106968
-0.0800847
0.106895
-0.0268099
-0.22031
0.202948
0.0173623
-0.367928
0.00347832
0.00906706
-0.0107026
0.00163554
0.0555673
-0.0302317
-0.367192
0.216624
0.150567
0.0077198
-0.00952806
0.00180825
-0.00116553
-0.0608624
0.0800756
-0.291744
0.305267
-0.0135226
0.440046
0.0585671
-0.0719093
0.0133422
-0.0526281
-0.167754
0.135662
-0.317868
0.109223
-0.237566
0.128343
-0.120673
0.213125
-0.0924515
-0.0672635
-0.0209388
-0.111956
0.0318715
-0.0900773
-0.0865916
-0.00232139
-0.101919
-0.14006
0.0188941
0.00488164
0.0610964
0.174315
-0.293203
0.324132
0.162099
0.0282289
0.0484711
0.00626335
-0.0907042
0.0844409
-0.0561422
0.0834121
0.0152431
0.00136
0.0602258
0.0920424
-0.218308
0.187417
0.427792
-0.588928
0.161136
0.0537274
0.0276571
0.0186567
-0.0238845
-0.384864
0.121786
-0.190768
0.398472
-0.207704
-0.283368
-0.101496
-0.11752
-0.0818779
-0.0985341
0.014936
0.0833926
-0.0577999
-0.0979232
-0.172354
0.256482
-0.138136
-0.118346
-0.382876
0.210139
0.172737
0.0458478
0.00431532
0.0499914
-0.057961
0.092095
-0.0275254
-0.0645696
0.0313014
-0.0875149
0.0562135
-0.252327
0.197016
0.0553109
0.0644913
0.00951303
-0.0740043
0.00380795
-0.0858705
0.0407715
0.0995174
-0.140289
0.0165378
-0.109835
0.0932973
-0.00587289
0.000724598
4.61838e-05
-0.000770782
-0.0625862
0.0511068
0.353033
0.0871474
-0.440181
0.131025
-0.143038
0.0120131
0.00338428
-0.063492
0.0601077
0.0310397
-0.00517419
0.00611781
0.14003
-0.146148
-0.215815
-0.157298
0.109639
-0.0077913
-0.101847
0.269227
-0.192551
-0.0766753
0.0338911
0.109143
-0.143035
-0.0601104
-0.003037
0.0631474
0.0068091
-0.00798927
0.00118017
-0.0754467
0.09301
-0.0175633
-0.117117
-0.0229433
0.011899
0.00174423
-0.263702
0.0300351
0.233667
0.0302074
-0.207646
0.125539
0.13592
-0.261459
-0.239784
0.0866576
0.0203941
-0.0919596
0.0715655
0.171515
0.00185933
-0.173374
0.00848608
-0.000766279
0.0708285
-0.0411222
-0.0297064
-0.189737
0.111996
-0.202273
-0.164918
-0.00155025
-0.00950721
0.0110575
-0.0912926
0.0158459
0.0357627
0.0543901
-0.0159133
-0.247789
0.089971
0.0216356
-0.111607
0.117846
-0.307733
0.160268
-0.0276077
-0.132661
0.163866
0.0752975
-0.166783
-0.172999
-0.00641097
0.00854673
-0.00213576
0.00188776
0.00271723
-0.0620238
0.0259082
0.0361155
0.0251715
-0.260031
-0.232314
0.492345
0.00867449
0.0671565
-0.0758309
0.00127635
-0.00821697
0.00694061
0.0577564
-0.112921
0.397898
-0.20085
0.00548678
0.00975628
-0.14085
-0.13225
0.2731
-0.278942
0.181501
0.0974411
0.429929
-0.166686
0.0733718
-0.0529777
0.153051
0.113387
-0.266437
-0.154639
0.0363862
-0.0542821
0.0855835
0.006683
-0.0243584
0.0176754
0.251409
-0.142186
0.00405982
0.00971195
-0.0961625
0.13082
-0.0346573
0.0960664
-0.387811
-0.0298761
0.165016
-0.135139
-0.267675
0.140058
0.127617
0.19021
-0.139062
0.0838359
-0.0843703
0.117796
-0.0334253
0.0820415
-0.0771599
0.00160589
-0.00670855
-0.0752089
0.0950667
-0.365559
0.200055
0.165504
-0.00498752
-0.065035
-0.0359726
0.0300816
0.005891
0.00391855
0.0241583
-0.0280769
-0.00867628
-0.00371029
0.0266625
-0.0980232
0.0713607
0.217057
-0.176814
-0.0402428
0.191499
-0.358281
-0.360606
0.150521
-0.120973
0.18285
0.0641651
0.0288449
0.0239731
0.101484
-0.125457
-0.143185
0.145541
-0.00235654
-0.117103
0.0272659
0.0357943
0.0116067
-0.0665759
0.0549692
0.0243105
-0.172935
-0.0947403
-0.136253
0.133932
0.00246135
0.00123713
-0.215748
0.0298175
0.185931
0.00249599
0.00431311
0.427792
-0.414503
0.229801
-0.000900784
-0.00923875
0.0101395
-0.12002
-0.014453
0.134473
-0.163951
-0.0461135
0.210064
0.0680537
0.0109072
-0.0886206
-0.0109664
-0.0524313
0.0842682
0.00630822
-0.0017839
-0.161308
0.152101
0.192948
-0.031498
-0.16145
0.0123479
-0.00172496
0.00704324
-0.0207492
-0.0639968
0.084746
-0.104071
0.0999193
0.00415158
0.0843065
0.00493913
0.0668753
-0.0552685
-0.000320303
-0.0119042
0.0122245
-0.0718376
0.0902215
-0.212092
0.115575
-0.0314385
-0.0841361
-0.229888
0.0773292
0.0983104
-0.0341453
0.0761644
0.137051
-0.213215
0.00389838
0.00240984
0.109342
-0.0193707
-0.0722048
0.0755891
-0.142052
-0.0011329
0.00558116
0.0887732
-0.0943544
0.149964
-0.0397983
-0.0404901
-0.177143
-0.202458
0.000366552
0.000358047
0.255787
-0.130248
-0.0394588
0.0743904
-0.0349316
-0.446391
0.142948
0.303443
0.0647929
-0.0691657
0.00437285
-0.111031
0.144922
-0.444995
0.281135
0.163859
-0.0728517
-0.187766
0.223053
0.206875
-0.0434251
0.000814349
0.0426108
-0.00299594
-0.000703374
0.00369932
-0.0249676
-0.0259108
-0.104637
-0.0163167
0.120954
0.0423546
-0.163411
0.121056
0.0906667
0.0162279
-0.281014
0.515521
-0.234507
-0.417293
0.0303328
0.386961
0.0183331
-0.0148539
-0.00347913
-0.255398
0.182546
0.228073
0.116905
-0.344978
0.00831536
-0.092525
-0.114022
0.467055
-0.014935
-0.089136
0.103361
-0.0126939
-0.0783549
0.306428
-0.120066
0.273116
-0.00295604
-0.107942
0.110898
-0.169474
-0.0462738
0.125485
-0.126374
0.0440579
0.000674875
-0.00394029
-0.116899
0.120839
0.0779789
-0.0987281
0.00896661
-0.138681
0.129714
-0.26048
-0.10508
-0.0394439
0.0141209
0.025323
-0.173655
-0.0227153
0.19637
0.140147
-0.190192
0.0500446
-0.0482226
0.0609039
-0.0126813
-0.0127898
-0.00197718
0.014767
-0.0927015
0.0982826
0.0695501
-0.0358057
-0.0337444
0.123225
-0.117107
-0.0603612
0.00185491
-0.0146448
0.276657
-0.114688
0.000515994
-0.0081108
0.0075948
-0.0803528
0.040894
-0.330313
-0.0328944
0.363207
0.0442483
-0.000190459
-0.0101389
0.0160457
0.0935929
-0.251185
-0.228358
0.479542
-0.0890524
0.0953158
-0.00336206
-0.016761
0.0201231
0.0910819
0.137452
-0.286747
0.149295
-0.207504
0.0302783
-0.16845
-0.0518603
0.0355428
-0.221845
0.465166
-0.445483
-0.0196834
0.0588971
0.0360635
-0.0293805
-0.170726
0.178285
-0.00755845
0.0349551
0.0137087
-0.27781
0.162333
0.115477
-0.0927371
0.104827
-0.0120896
-0.0700398
-0.00863652
-0.298548
-0.402738
0.109165
-0.170033
0.0608679
-0.519782
0.245595
0.274187
0.177384
0.0338924
-0.186575
0.0498108
0.136765
-0.102514
-0.16319
-0.0741678
0.099967
-0.0257992
0.00711094
0.0387369
-0.171763
0.37307
-0.201308
-0.0154896
0.0203015
-0.00481194
-0.00480451
0.00199549
0.00280902
0.132287
-0.0435854
-0.0887013
0.0532724
0.0623022
-0.0145328
-0.0474909
0.0213753
-0.133125
0.129184
0.120086
0.0306131
-0.150699
-0.00854618
-0.00837855
-0.176788
0.00606113
-0.00823823
0.105865
-0.0976269
-0.267868
0.109078
0.15879
-0.000112706
-0.00429299
0.0044057
0.068398
-0.127107
0.0587091
0.0785794
-0.028588
0.0690739
0.0182268
-0.0873007
0.00763667
-6.03994e-05
-0.067622
0.155677
-0.26708
0.111403
-0.100417
-0.0122098
0.112627
-0.088658
0.0758694
0.0127886
0.037427
0.0817829
-0.0624179
-0.220422
0.0526238
0.167798
0.0508861
-0.0392194
-0.190792
-0.00596125
0.196753
0.157028
0.120348
-0.277376
-0.185439
0.408493
0.381207
0.105564
-0.486772
-0.00597248
0.0028969
0.00307559
0.0438093
0.00707682
0.23344
-0.249354
-0.0576561
0.0738092
-0.0161531
0.141218
-0.108138
-0.0330808
0.0265336
-0.022615
-0.00293925
-5.66869e-05
-2.11526e-05
0.0585882
0.0597067
0.0165578
-0.0762646
0.0246751
-0.192522
0.167847
0.00686503
-0.012806
0.114728
-0.0163979
-0.0878502
0.238146
-0.150296
-0.122746
0.0478419
0.000996112
0.00802606
-0.00892684
-0.150437
-0.093616
-0.159514
0.00513314
0.154381
0.23547
-0.0898368
-0.145633
-0.443034
0.0146393
0.428395
-0.00679271
0.0087034
-0.00191069
-0.0802738
0.0996498
-0.019376
0.0030704
-0.00481959
0.00609594
0.146409
-0.242811
0.0964019
0.250578
0.284311
-0.0186777
-0.102595
0.121273
-0.0701645
-0.359981
-0.325802
0.132704
-0.0274767
-0.159099
-0.148547
0.203548
-0.0550012
0.0341075
0.127439
-0.0590407
-0.0438379
0.103342
-0.0595043
-0.00810911
0.0136144
-0.00550527
0.0961304
0.00378893
-0.326923
-0.119468
-0.0128826
-0.107137
-0.000789466
-0.0851418
0.0859313
0.0187773
-0.01434
-0.00443732
-0.123488
0.11525
0.073407
-0.0681289
-0.00527812
0.0283117
-0.126179
0.0978668
-0.00186108
0.235301
-0.0727467
0.0150906
-0.0360205
0.0391453
-0.0031247
0.032174
0.177071
0.0651552
-0.264395
0.19924
0.0650041
-0.0288451
-0.036159
0.00100172
0.0614783
0.424254
-0.0430469
-0.000358869
0.000405053
0.00226907
-0.00226907
-0.084752
-0.00390597
0.203122
0.196034
0.0057847
-0.00580743
2.27277e-05
-0.00969109
0.00749671
0.00219438
-0.0254676
0.141133
0.0303815
-0.447383
0.271039
-0.0459825
0.0444454
0.00153714
0.317599
0.158591
-0.0924966
0.0663501
0.0261465
0.0076461
-0.0071301
0.0654502
0.0169758
-0.082426
0.00172185
0.00591481
0.0216791
0.085734
-0.107413
0.00440082
-0.00416929
-0.000231528
-0.115118
0.0307477
-0.233135
0.19842
0.0347153
0.0492209
-0.208735
0.0114609
-0.0115201
5.91093e-05
0.0254784
-0.00816362
-0.0173147
-0.000624031
-0.0063241
-0.00166518
0.140164
-0.0368587
-0.0556379
0.152452
-0.433466
-0.118369
0.0389064
-0.0189638
0.101926
-0.0829621
-0.0912532
0.00208655
0.0890189
-0.419332
-0.118425
0.149798
-0.0313725
-0.0660561
0.0747306
0.00357975
-0.0190693
0.0110145
0.000446479
0.00736333
-0.00960672
0.00224339
-0.076638
0.117409
0.0594667
0.0879686
0.0895619
-0.0110659
0.124698
0.131784
0.161773
0.134522
-0.296295
0.231152
0.0882359
-0.319388
-0.00607963
-0.134403
0.140482
-0.083013
-0.343176
0.0664926
0.276684
-0.108998
0.0900341
-0.168421
-0.157968
0.32639
-0.448173
-0.175983
-0.19498
0.401546
-0.206566
0.0106293
-0.00607437
-0.00455488
-0.0675475
0.209922
-0.412062
-0.0687256
0.480787
0.100201
-0.118879
0.0055017
0.114913
-0.120414
-0.308055
0.136292
-0.00855027
0.00213929
0.224068
0.0451585
0.159181
0.116758
-0.275939
0.00649886
-0.104908
0.0984095
-0.000783218
-0.0858812
0.0866644
0.150499
-0.227984
0.147862
0.0801219
0.00973117
0.0636758
0.0682899
0.169398
-0.106051
-0.0633471
-0.038448
0.00242743
0.105647
0.0637516
-0.0158381
0.0213249
0.0195104
0.0196933
-0.00978107
-0.018133
0.0279141
-0.00848831
0.0016956
-0.218213
-0.00109146
0.0152032
-0.0841176
0.0144506
0.069667
-0.204693
-0.173576
0.378269
-0.00140039
0.000879683
0.000520708
-0.151228
-0.1817
0.332927
-0.197053
0.402956
-0.205903
-0.1018
-0.0308299
0.13263
-0.465322
0.184208
-0.0842405
0.107317
-0.0230765
0.014991
0.00378627
0.209846
-0.0148173
0.00503626
-0.177768
0.202443
-0.0287895
0.140325
0.00826832
0.01721
-0.224211
0.39725
-0.173038
-0.00356242
0.00103163
0.00253079
-0.132032
0.160563
-0.0285308
-0.113857
0.265923
-0.152066
0.328313
-0.188372
-0.139941
-0.00438441
0.235536
-0.0789616
0.0470977
0.0318638
0.0251907
-0.0525335
0.00864919
-0.0115806
0.00293145
0.108728
-0.0125978
0.00541406
-0.000729753
0.120792
-0.100035
-0.0207563
-0.143121
0.0678777
-0.0799334
0.0120557
0.00851566
-0.00115233
-0.0102734
0.0699801
0.0295848
0.0452471
0.0247922
0.0673027
-0.0921516
0.114773
-0.0226212
-0.108261
0.160521
-0.0522596
-0.064214
-0.0147476
0.0615175
0.112278
-0.173795
0.0767606
-0.0217014
0.346513
0.122529
-0.469041
0.00465398
0.00113072
-0.0456805
0.170802
0.0799007
-0.0503159
0.114296
-0.117252
-0.0518279
0.204057
-0.152229
0.0627511
-0.0483931
0.180805
0.146231
-0.327037
0.0162716
-0.0884764
-0.167278
0.0352462
0.203492
0.123685
-0.0997119
0.107331
-0.102865
-0.00446615
-0.029496
0.0765937
-0.0131026
0.0488708
-0.0584145
0.00954376
-0.000264289
0.0085639
-0.00829961
-0.269204
-0.233213
0.000558352
-0.000917221
-0.0857273
-0.202564
0.288291
0.0807043
-0.0727281
-0.00797624
-0.0795704
0.10125
0.0121264
0.171168
0.249434
-0.327789
-0.0694438
-0.108708
0.163217
-0.237034
-0.266519
0.152662
0.143948
-0.0304869
-0.113461
0.0666188
0.0140856
0.0678284
0.0355138
0.0400771
0.024927
0.00435052
0.0919672
-0.0963178
0.432105
-0.236375
-0.19573
0.111976
-0.0194108
-0.0925654
0.00299239
0.0395654
0.306452
-0.142584
-0.163868
0.082713
0.0192129
0.0858237
0.0769409
-0.162765
-0.0157397
0.0168668
-0.00112716
0.0892293
-0.189112
0.0998826
-0.00164985
0.000657742
0.00099211
-0.118059
0.464572
0.0666698
-0.0384409
0.0955996
-0.507661
-0.0518231
-0.0546822
0.106505
-0.218016
0.130165
-0.15129
0.14521
0.0180361
-0.139106
0.12107
0.148859
0.279778
-0.120597
0.429241
-0.270743
-0.158498
0.00672469
-0.0501498
0.00830706
-0.00830706
0.150975
-0.109833
-0.0411415
-0.00536163
0.00179921
-0.215819
0.213958
-0.0268252
0.128309
0.18203
-0.0274165
-0.0832927
0.0369597
0.046333
0.00125333
0.00172636
0.124758
0.0262166
0.235187
0.131773
-0.36696
0.0554166
0.0231628
0.138031
0.0505795
-0.266398
-0.0301155
-0.127996
0.158111
0.00954134
-0.0110916
-0.0270905
0.000762134
0.0263283
-0.0705529
0.0724209
-0.00186805
-0.0288607
-0.0430486
-0.0272703
0.0524611
-0.17653
0.0558566
0.295493
-0.21213
-0.0833629
0.0518562
0.0249044
0.204492
0.0137352
0.0662369
-0.0799722
0.0328294
0.126345
-0.159175
-0.423989
0.294097
0.129892
0.00605325
0.0165514
-0.0226047
0.0177806
-0.0126571
-0.00512352
-0.222349
0.0114461
-0.00279696
0.130973
-0.122007
-0.0941075
0.113368
-0.0192609
-0.0199979
0.0803843
0.0406894
0.0136199
0.0505353
0.0260355
-0.0765709
0.52987
-0.325977
-0.203893
-0.453212
0.0533363
0.399876
-0.00928058
-0.0048663
0.0141469
-0.125947
0.265932
-0.139673
-0.138071
0.152916
0.228892
-0.0937609
-0.135131
0.0403421
-0.0470191
0.00667707
-0.0134136
-0.0664001
0.0798137
0.0181969
0.00232733
-0.000966631
-0.0013607
0.031539
-0.127702
0.0764089
-0.0463091
0.16492
-0.0790963
0.377642
-0.0877707
-0.289871
0.171251
0.270728
-0.44198
-0.299433
-0.0913915
0.390825
0.0108071
-0.0111274
0.000722635
-0.0835626
0.0622783
0.0212842
0.345178
-0.095744
0.361501
-0.126314
-0.115089
-0.129681
-0.1481
0.277781
0.0258661
-0.127666
-0.128226
-0.0264127
-0.0148589
0.00762474
0.0162882
-0.0239129
-0.0302597
-0.0787383
-0.0423674
0.0701576
-0.0277903
-0.0688995
-0.0146631
-0.139463
0.276915
-0.0799986
0.0157845
0.231108
0.0643847
-0.00309068
-0.0306656
-0.053452
2.26106e-05
-0.00177032
0.00174771
-0.00989632
0.0589401
-0.0490438
0.0437594
-0.192306
0.120715
0.0232328
-0.0678261
0.0251745
0.0426517
-0.00146574
0.00255493
-0.0010892
-0.00170235
-0.0990147
0.0629973
0.0360174
0.0823772
-0.0831666
-0.00991642
0.0117713
0.343347
-0.457369
0.0835215
0.0060404
-0.0370836
-0.0023651
0.101831
-0.00352066
0.448912
-0.25765
0.124635
0.00280381
-0.00452249
0.00598259
-0.0014601
-0.016074
-0.02337
-0.0599838
0.0920567
-0.0320729
0.311993
-0.141512
-0.170481
0.0217391
0.137979
-0.159718
0.122362
-0.105246
-0.0171168
-0.0148247
0.0121693
0.147735
-0.199563
-0.0519607
-0.0281696
0.0801303
-0.139115
0.305138
-0.166023
0.0234739
0.0547546
-0.0850873
0.0303326
0.161249
-0.303832
-0.345516
0.205889
0.139628
-0.0754321
0.151596
-0.165222
0.0237034
-0.166935
0.39841
-0.231475
-0.123628
0.185145
-0.179755
0.0521099
-0.00323917
-0.0744401
0.0908915
-0.0164514
-0.00908032
0.00840898
0.328802
-0.0101571
-0.0696724
0.0798295
0.316997
-0.162752
-0.154245
-0.0142821
-0.00235184
-0.0766595
-0.10202
-0.00260435
0.104624
-0.304167
0.165052
-0.168306
-0.0840209
-0.0210346
-0.0545421
0.101867
-0.0284699
-0.0733968
-0.10949
0.140103
0.00778699
-0.000962323
-0.00682467
0.0805168
0.0213143
-0.170914
-0.0855605
0.231969
-0.0240018
-0.000498255
-0.0028968
-0.092652
0.00299857
0.0896535
-0.436705
0.247118
0.189587
-0.0758949
0.0195664
0.0563284
0.242875
0.194256
-0.437131
0.107899
-0.136688
0.341704
-0.264797
-0.0769072
0.0540248
-0.0808903
0.0268655
0.00217764
0.196851
-0.397085
0.200234
0.123594
0.153571
0.0675035
-0.0802246
0.0127211
0.220981
-0.0653033
-0.0106889
-0.0334757
0.0441645
0.0117659
0.000739011
-0.0125049
-0.0917424
0.104406
-0.0126633
-0.117314
-0.356666
0.0562871
0.300379
0.0939284
0.247775
0.248582
-0.366641
0.0126966
0.0597175
0.0208865
0.0578953
0.209266
-0.171124
-0.0381423
-0.00218623
0.000785843
-0.396119
0.136089
-0.177879
-0.135228
0.0158379
-0.025392
0.135636
0.160105
-0.295741
-0.015869
0.00970224
-0.223896
0.402529
-0.178633
-0.000308035
-0.10697
0.107278
0.13904
-0.142314
0.293775
-0.15146
-0.289305
0.254638
0.0346663
-0.182843
0.425718
0.000583287
0.0106335
-0.203868
0.0399175
-0.196626
-0.227363
-0.00775365
0.0479758
-0.0402222
0.12534
-0.000705412
0.471119
-0.252855
-0.218264
0.110303
-0.103804
0.00840359
0.127753
-0.100239
0.345833
0.0264509
0.210707
-0.109804
0.00778457
0.000706185
-4.84429e-05
0.0713019
0.0169959
-0.0882977
0.14857
0.135721
-0.284291
0.0487693
0.0250399
-0.0284632
-0.0734715
0.101935
0.115109
-0.0222356
-0.0928735
-0.135793
-0.0294286
-0.0204943
0.109601
-0.0891064
0.0597141
-0.200696
0.104438
0.0962585
-0.120883
0.0208478
-0.203665
0.291901
0.141581
0.17981
-0.321391
-0.158534
0.336424
-0.17789
-0.00942226
-0.102238
0.11166
0.0781798
0.0576214
0.119182
-0.0133173
0.121481
0.149375
-0.270856
0.128992
-0.159108
0.0225765
-0.00234129
-0.00699155
0.00933284
0.0411542
-0.0886983
0.271308
0.36021
-0.0904026
-0.269808
-0.115706
0.109722
-0.0459877
-0.0637345
-0.144997
0.0138065
3.13827e-05
-0.0138378
0.317121
-0.180103
-0.137018
-0.124066
0.274009
0.0862013
0.0317251
0.0218344
-0.0535595
0.00171993
-0.00230625
0.000586321
0.175928
-0.477311
0.022561
0.149727
-0.172288
0.190114
0.212842
0.0205422
-0.100113
0.462337
-0.251439
-0.210898
-0.186414
-0.0781323
0.264547
-0.0612975
0.059662
0.00163546
-0.365444
0.461043
0.161271
-0.308475
0.147204
-0.409116
0.221757
0.187359
-0.105702
0.0520919
0.0536099
0.435791
-0.280202
-0.155589
0.285047
-0.137251
-0.147796
0.00138222
0.0224295
-0.0238117
0.0180753
-0.0665237
0.0484484
0.038836
-0.022786
-0.0762287
0.000505631
-0.00276633
0.0022607
0.112139
-0.0816038
-0.030535
0.180408
0.136713
-0.355718
0.10032
0.00029148
0.00801557
0.0370444
-0.223459
0.0335451
0.0842504
-0.0156606
0.101395
0.125897
-0.100031
-0.122696
-0.0305412
0.153237
-0.0848341
-0.127229
0.212063
-0.136138
0.0190218
0.177042
-0.20549
0.0284478
0.239912
-0.439284
0.199372
0.0824994
-0.0277448
0.0182751
-0.0058051
-0.01247
0.126767
-0.0222646
-0.104503
0.155359
-0.454792
-0.0512188
0.0405299
0.0291905
0.00532723
0.00315885
-0.00424241
0.0025552
-0.00771208
-0.0863954
0.262043
-0.460467
0.198424
-0.386317
0.135132
-0.00527224
0.418843
-0.41357
0.0202338
-0.455102
0.341679
0.113423
-0.242801
-0.0465033
0.0030847
0.00113387
-0.00421858
0.0323234
-0.105161
0.0957387
-0.196548
-0.159171
0.0954192
-0.0910687
-0.0779706
0.00907114
-0.228044
-0.216951
0.0877961
0.0713623
-0.101147
-0.0490578
0.058206
-0.0394245
-0.0187815
-0.0998921
0.0842075
0.151263
-0.156749
-0.0372897
0.104775
-0.135605
0.424966
-0.210526
-0.214439
-0.00212745
0.0904047
-0.0882772
-0.171581
-0.0467271
-0.0291505
0.0550587
0.0212391
-0.0801899
-0.0192299
0.0994199
-0.288086
0.147236
-0.0260359
0.125553
-0.000191081
0.00195314
-0.00176206
-0.0163789
0.0110888
0.0645516
0.0185409
-0.0830925
-0.0971624
0.00451037
0.00114527
0.0126612
-0.193059
0.118948
-0.322612
-0.0346872
-0.164619
0.199306
-0.00462509
-0.0509699
-0.305696
-0.126427
0.116346
0.05479
0.0864284
0.107753
-0.00334774
-0.452095
0.175165
0.276931
-0.475619
0.204679
0.270941
-0.144199
0.234546
0.110607
-0.476051
0.00184858
-0.0762887
-0.00860232
0.00227822
-0.0808893
0.0719301
0.00895916
-0.284946
0.199219
-0.0101795
0.0115219
-0.00134248
0.0956065
0.0267559
0.274001
-0.459462
0.185462
-0.0772116
-0.0648404
0.448084
0.0178242
-0.465908
-0.0175253
-0.0870226
0.104548
0.0469626
-0.201796
0.154833
0.159274
0.15272
-0.00342886
-0.00143277
0.00486163
-0.0119042
-0.000481954
0.00316788
-0.00268593
0.158726
-0.219855
0.0611283
-0.00539826
-0.00927557
-0.118536
0.0056674
-0.00636275
0.000695354
0.00132187
-0.00475074
-0.458484
-0.112594
0.0921
0.0590811
-0.0724948
-0.196794
-0.190605
-0.219075
0.40968
-0.00232765
-0.00277948
0.00510713
0.13396
-0.218794
0.323498
-0.126333
-0.197165
0.0280682
0.0568164
-0.0848847
-0.0307272
0.345118
-0.0965363
0.129869
0.0278684
-0.157738
0.449929
-0.138715
0.163934
-0.0252188
0.0455641
0.0563026
-0.271018
-0.188444
-0.00427006
0.00110225
0.00316782
-0.13684
-0.261305
-0.214314
-0.0861542
0.0189201
0.067234
-0.085235
0.0988375
-0.0136025
0.054652
-0.106475
0.376496
0.0764844
-0.0277151
0.161452
0.0990702
0.00449175
-0.288697
0.147184
-0.119631
0.312935
-0.193305
0.0496607
-0.00300611
-0.0466546
0.188979
0.216692
-0.405671
0.00152885
0.209814
-0.0766748
0.104987
0.0326314
-0.0425277
0.0193527
-0.0227147
-0.136436
-0.131432
0.141507
0.082863
-0.197898
-0.147618
0.173633
0.00258964
-0.176222
-0.157849
0.0495873
-0.0801643
-0.034261
0.114425
-0.234847
-0.186689
0.421536
-0.00203134
0.16381
-0.310052
0.146243
0.296722
-0.171373
-0.12535
-0.0795104
-0.0261914
-0.025617
0.0728802
-0.0472632
0.0394458
0.0873216
-0.348708
0.471236
0.00525744
-0.00758509
-0.0976168
0.107644
-0.0100272
0.157943
0.122859
-0.100365
-0.0224945
0.140318
-0.289052
0.156802
-0.00156695
0.0394369
-0.0378699
-0.113041
-0.259625
0.139994
-0.129668
0.266796
-0.137128
-0.00223028
-7.59701e-05
-0.154408
-0.119156
0.273565
0.319083
-0.200153
-0.11893
0.00302422
-0.171336
0.0326206
0.00120814
0.00343058
-0.00463872
-0.139462
0.0622505
-0.342222
-0.100812
-0.218235
0.408349
-0.00740147
0.172187
-0.145778
-0.0264097
0.15561
0.161387
-0.037941
-0.00804149
0.0056455
-0.00642833
0.00078283
0.323499
0.112292
-0.00168628
-0.00614434
0.00783062
-0.0854232
0.00523328
0.209253
0.0556636
-0.264917
-0.253538
0.142939
0.110599
-0.0477333
-0.0326195
-0.0391692
0.328079
-0.288909
0.0581864
0.00998219
-0.0681686
0.109925
0.0196391
-0.368347
0.0822944
-0.0660228
-0.00567647
0.00322986
0.00244661
-0.0127769
0.26373
-0.102452
-0.161278
0.00754849
-0.00724335
-0.000305143