/*--------------------------------*- C++ -*----------------------------------*\
| =========                 |                                                 |
| \\      /  F ield         | OpenFOAM: The Open Source CFD Toolbox           |
|  \\    /   O peration     | Version:  v2012                                 |
|   \\  /    A nd           | Website:  www.openfoam.com                      |
|    \\/     M anipulation  |                                                 |
\*---------------------------------------------------------------------------*/
FoamFile
{
    version     2.0;
    format      ascii;
    class       volScalarField;
    location    "400";
    object      ReThetat;
}
// * * * * * * * * * * * * * * * * * * * * * * * * * * * * * * * * * * * * * //

dimensions      [0 0 0 0 0 0 0];


internalField   nonuniform List<scalar> 
18758
(
614.186
152.894
605.366
30.092
34.6939
33.7408
37.1582
602.977
425.986
601.648
630.067
40.4768
590.713
578.68
553.845
299.217
528.462
593.984
611.285
601.998
33.1379
584.152
36.8669
455.1
535.113
602.805
361.818
34.4323
46.4486
383.118
504.041
32.6422
586.63
620.164
448.483
576.912
585.723
618.686
622.781
518.039
619.324
492.19
609.393
577.779
516.602
604.02
36.5573
627.674
600.405
608.496
666.757
34.3576
605.589
629.335
34.2914
122.697
586.001
272.512
580.13
576.893
625.655
37.5995
450.869
521.971
605.521
559.068
516.241
586.947
617.352
34.0066
33.9527
502.48
608.714
215.177
607.071
585.301
402.22
34.6676
499.186
38.5711
34.6401
457.618
575.217
33.8467
409.228
629.486
77.6542
453.605
41.6313
588.083
33.8118
576.893
57.3592
501.871
34.3029
58.0652
420.469
607.723
593.604
33.1484
607.446
33.7727
456.833
640.726
32.7007
436.872
119.335
34.8589
624.107
478.756
63.8247
216.353
601.384
605.056
47.531
33.2185
33.3461
555.484
39.6417
34.2154
639.415
540.031
37.8766
303.969
599.292
549.858
215.486
394.846
52.7339
590.739
525.182
378.409
33.0738
529.165
214.056
566.512
407.543
521.263
594.185
400.127
488.126
514.332
599.4
70.3902
621.171
605.845
33.3961
32.3473
508.931
47.3588
504.217
407.783
632.488
584.395
34.5899
635.772
39.503
627.472
584.918
584.065
602.708
564.771
75.6086
585.884
628.516
42.6357
613.05
38.1096
644.837
33.9226
33.3726
594.252
73.1871
34.504
558.4
432.124
40.9975
525.836
415.661
620.496
599.77
33.4679
459.861
610.072
606.198
380.959
587.844
33.1727
608.606
578.302
533.412
390.703
607.815
508.146
568.153
451.965
603.395
647.743
587.548
608.957
346.629
626.775
623.065
485.026
590.753
569.684
461.119
583.713
33.0485
597.677
594.278
641.618
588.839
627.628
471.685
35.4135
467.88
281.967
605.661
33.7464
594.167
624.347
412.846
33.4388
666.179
459.902
637.379
565.727
608.552
491.06
556.295
457.211
36.1912
423.192
590.174
586.693
608.527
603.573
39.7877
635.984
600.404
616.108
99.8745
626.176
51.7288
217.255
417.271
578.6
34.467
398.697
577.39
37.2284
633.095
406.294
580.304
641.057
351.858
271.122
625.943
521.482
590.722
465.686
587.03
486.886
597.805
415.234
34.4273
605.408
624.374
551.241
623.784
604.829
487.251
37.891
33.3125
596.666
660.885
32.7073
566.826
605.755
612.21
633.595
637.244
599.719
32.6236
631.462
43.1848
33.0483
36.4764
609.165
605.807
568.417
35.5656
417.078
511.861
503.806
630.564
34.5108
611.434
107.722
33.8436
603.753
32.4311
557.307
617.6
624.592
592.579
582.803
577.325
35.7701
46.8117
592.593
36.0186
34.3596
664.24
579.412
588.603
191.157
626.283
609.684
612.032
440.479
644.588
612.751
632.388
635.034
599.773
541.678
591.952
583.978
386.469
613.891
662.12
29.8276
412.833
607.853
589.775
95.582
32.8566
609.27
595.014
609.007
562.07
565.548
610.921
541.845
486.904
608.738
301.741
521.844
465.124
630.379
615.616
392.65
609.153
640.793
403.085
40.6697
33.3779
451.515
590.52
604.037
109.126
36.3097
609.046
609.54
589.085
615.408
614.903
76.1335
28.3489
505.111
598.683
34.2809
569.373
626.177
595.896
623.445
457.831
631.288
36.2209
481.438
587.406
592.048
33.2911
499.075
427.591
564.218
511.301
612.036
461.948
543.597
605.318
33.442
33.0333
343.827
69.6289
594.912
422.935
33.1319
642.844
601.874
29.6521
613.935
604.124
599.924
459.552
553.588
574.357
630.078
37.4057
611.88
34.5704
524.497
580.43
618.167
576.304
594.907
630.36
479.93
544.761
213.158
641.61
568.083
540.309
45.5726
33.5069
33.3435
478.784
603.716
604.998
600.72
588.857
527.281
532.432
556.498
558.504
632.086
444.943
456.873
576.006
635.276
44.0323
587.936
28.1698
586.302
567.237
31.9509
544.354
624.515
355.585
443.629
571.405
50.4921
576.16
584.151
284.501
39.5655
404.165
650.486
577.149
393.565
33.25
578.291
502.089
589.303
603.39
537.778
625.078
51.7435
516.452
203.463
554.682
511.92
603.738
455.996
608.648
33.3102
595.808
615.599
584.551
95.2315
615.448
586.724
593.153
600.298
58.1735
33.4
49.1609
515.826
604.832
564.041
584.605
583.953
34.5411
593.141
565.727
508.287
590.891
648.62
571.819
565.519
555.51
519.922
587.59
637.558
53.3815
527.683
391.239
618.315
567.622
229.578
482.73
624.435
331.53
33.2558
511.207
140.084
608.367
624.151
33.2223
611.91
33.4062
610.892
585.824
49.8302
398.073
560.933
596.648
614.468
33.8462
619.096
615.607
560.381
586.95
602.703
601.934
584.36
40.0425
632.264
42.2509
539.515
607.144
94.0835
586.758
608.949
632.986
588.205
605.961
469.009
619.464
445.208
320.088
606.234
33.9884
34.1176
373.302
563.204
336.378
457.902
527.443
630.556
34.0958
630.533
516.459
600.351
29.6226
584.893
532.376
430.554
37.489
630.898
593.187
611.529
571.185
604.545
613.619
524.867
73.8266
609.191
614.092
600.523
590.803
34.1961
66.5848
546.772
510.167
557.091
32.5396
33.4582
230.052
416.165
588.567
34.618
512.056
609.325
514.528
34.192
32.1539
619.24
456.011
606.924
605.176
32.3949
446.589
34.3793
33.0841
530.575
587.888
512.858
584.614
602.236
456.384
565.779
446.391
598.424
653.472
34.9099
651.213
583.125
546.068
663.922
34.875
517.612
259.278
644.6
546.777
521.178
43.1345
608.81
608.823
317.021
33.8134
653.24
590.698
33.343
33.0076
519.304
608.583
39.5476
35.9561
79.8576
630.427
578.333
46.6553
584.351
441.384
33.4599
462.498
37.976
454.924
33.3189
477.211
583.072
455.004
33.3461
30.5784
35.7997
28.9
611.967
441.984
584.55
632.977
473.216
666.277
584.553
570.475
424.02
33.7196
33.368
35.326
641.356
609.625
402.308
485.009
611.398
578.363
557.028
505.971
568.11
475.457
598.888
590.48
595.756
34.6399
476.225
584.781
517.563
593.815
606.435
33.3966
615.897
594.76
647.692
438.438
608.409
617.834
329.013
374.712
620.999
45.6461
622.576
29.8054
401.048
444.664
116.255
32.5644
608.435
34.0377
403.883
603.228
33.5572
577.87
596.414
628.996
594.217
642.491
34.6063
608.616
104.53
587.266
637.418
30.5411
606.182
33.899
607.739
617.246
588.059
577.348
451.002
324.331
33.2603
653.376
33.7105
523.948
568.023
414.828
35.3381
318.643
358.253
476.855
521.792
632.994
451.595
616.772
378.57
590.887
40.5762
619.361
381.133
504.353
623.061
54.2329
455.213
601.462
299.301
606.423
595.652
529.746
644.931
448.523
471.74
96.1517
33.4249
587.998
579.3
33.3978
569.228
673.856
454.144
631.794
566.174
622.678
547.873
616.939
595.443
637.739
657.321
321.048
641.535
587.638
492.456
42.4556
598.389
474.135
629.51
34.4367
465.9
34.8501
591.071
397.381
584.587
460.85
609.044
550.792
532.082
606.129
593.471
606.29
54.6438
33.2808
557.917
33.9477
549.674
534.539
635.369
415.367
39.1405
558.964
607.099
538.846
598.761
542.063
634.237
33.2539
37.352
486.164
226.514
315.389
451.351
599.971
397.96
596.33
311.057
629.449
577.897
36.4863
34.048
568.698
33.2367
616.607
596.959
520.753
129.538
33.9148
595.587
592.306
604.452
34.9398
596.385
617.209
630.303
595.267
53.2072
539.495
514.024
33.5464
527.98
456.999
627.837
592.339
605.279
601
33.2859
32.4927
545.708
565.716
606.957
529.771
608.005
630.691
573.622
494.978
35.2346
473.765
388.501
564.121
616.011
451.832
600.925
38.6635
387.559
38.2011
56.1347
569.19
599.896
366.651
33.521
38.8024
335.462
665.043
33.2674
590.56
392.894
285.383
551.717
590.731
618.155
608.414
33.2158
228.394
578.191
541.529
561.365
387.814
222.118
621.776
603.713
595.765
584.361
616.118
598.18
582.588
624.776
595.614
592.664
616.992
608.725
121.979
483.247
32.1367
609.178
484.641
555.775
407.648
427.196
600.421
595.256
615.267
596.177
435.252
631.28
33.4673
565.005
575.291
533.832
30.1974
42.2212
634.079
606.005
176.699
587.965
638.652
609.291
704.76
34.7106
597.797
608.688
253.407
592.394
55.8731
33.5902
493.206
481.289
576.232
609.413
590.899
33.5159
133.145
662.906
622.036
33.6529
593.155
576.806
38.321
613.043
35.0285
606.201
458.772
469.772
580.388
607.466
588.101
33.3642
624.466
578.816
344.193
601.65
592.912
649.737
624.932
588.06
494.467
592.58
597.915
34.9708
594.663
562.425
510.246
505.708
657.732
595.503
480.647
58.8385
630.106
522.745
581.241
604.997
589.305
529.054
628.97
514.969
612.236
634.779
518.093
35.1965
391.323
583.551
604.66
616.689
642.624
601.754
33.4449
585.552
598.891
605.627
335.729
33.5979
587.285
627.648
596.836
450.468
600.138
546.225
420.088
584.727
603.392
579.205
657.883
600.66
616.321
32.3314
94.3716
336.41
338.838
33.7317
516.553
586.179
592.082
33.3379
548.375
477.827
457.244
632.283
542.646
582.803
596.348
606.7
606.375
609.76
34.9149
605.228
601.149
64.9814
512.547
36.3639
29.4971
597.145
586.267
593.512
597.969
492.022
586.872
606.682
33.4679
332.526
529.874
591.725
642.728
523.725
586.704
578.303
620.691
297.027
468.406
607.767
629.003
631.034
599.569
612.091
606.899
293.951
620.471
464.671
614.713
640.859
33.5781
30.2699
664.81
632.706
33.5877
586.464
582.36
625.175
646.917
576.54
431.84
559.169
494.442
592.02
593.645
614.02
584.593
671.321
28.9631
482.479
568.942
33.7785
384.446
587.24
544.397
596.019
589.081
624.613
539.567
33.8762
33.2073
33.4778
599.869
33.4922
540.438
32.9384
33.8649
603.137
484.448
527.539
606.291
593.241
30.857
583.017
588.635
583.068
609.768
591.006
621.955
587.469
629.432
434.112
586.965
33.6495
516.612
593.388
610.739
623.978
460.06
583.972
509.904
606.786
34.7067
543.62
607.533
50.4788
602.46
33.5783
593.095
646.643
48.854
34.6183
600.26
499.12
582.298
456.789
632.914
397.791
605.655
35.9484
596.394
616.145
663.728
556.884
607.962
591.122
31.1363
500.309
623.764
368.401
587.574
613.462
42.784
606.351
607.644
613.301
33.6218
609.397
604.322
34.5322
629.686
33.5978
550.657
605.236
596.906
180.858
553.546
554.594
44.5936
33.575
601.397
32.8206
480.915
600.723
529.102
607.194
585.016
82.3509
606.494
590.752
507.694
48.6878
417.439
613.26
32.4458
595.009
276.186
427.864
590.373
32.5747
589.111
420.454
548.22
33.6145
603.013
583.497
104.448
584.303
368.482
602.51
589.611
33.3725
657.384
567.102
640.068
431.257
478.788
628.149
610.109
439.592
617.32
550.129
590.258
586.67
624.957
598.144
584.18
623.612
690.789
591.77
191.214
606.925
558.421
592.424
595.757
587.972
576.379
33.2098
33.4511
628.526
583.092
69.379
621.734
52.3273
408.615
315.943
33.5415
36.2753
31.2883
596.783
599.116
600.568
30.534
612.937
588.022
503.415
607.925
579.473
577.532
33.9913
432.683
586.025
42.1995
34.6737
625.906
593.515
530.397
32.0098
591.295
595.946
584.488
592.484
609.135
605.294
466.696
616.144
612.207
614.035
603.226
533.462
605.695
614.945
600.31
547.482
414.068
208.645
621.048
600.148
529.852
579.221
585.194
32.8268
567.847
605.771
567.815
33.6485
593.829
593.051
34.5714
587.977
644.164
592.701
623.813
33.6077
31.7547
404.016
35.1703
636.362
578.87
603.934
30.5211
590.216
353.817
570.683
603.06
484.032
339.366
624.687
302.46
594.15
48.4674
584.452
34.8151
519.573
594.41
603.337
582.307
645.005
595.009
34.4331
526.689
594.047
593.479
596.701
33.2881
573.44
586.052
586.95
594.134
634.758
324.364
581.452
602.253
418.795
566.949
625.675
430.431
526.363
517.838
629.091
387.13
607.123
586.093
33.3019
641.379
504.335
472.902
607.196
33.1737
147.848
474.601
35.6733
576.405
46.4597
47.7289
494.32
598.796
36.2921
437.593
591.851
571.753
37.2058
607.572
592.604
638.036
584.732
33.4541
563.652
598.338
584.613
596.739
315.545
542.959
33.2273
493.692
32.4536
656.188
582.744
574.736
615.404
95.031
530.642
598.859
616.704
600.093
407.664
40.1917
32.7979
548.416
566.569
35.1737
607.546
34.7544
581.804
611.614
48.2097
631.826
486.518
558.562
197.029
590.901
218.576
605.777
540.088
603.028
606.679
38.0121
608.424
567.23
628.754
33.4536
586.466
606.108
34.9558
590.687
606.656
587.772
555.226
567.408
576.739
586.941
577.576
402.582
600.767
605.825
32.4851
501.146
33.1498
559.269
522.18
595.445
599.045
619.488
32.7503
32.9076
616.559
584.61
590.654
181.005
606.163
418.367
380.028
31.7761
33.524
33.4404
33.3261
591.676
34.1545
33.5895
33.4535
592.17
493.728
521.023
602.161
39.9544
446.2
527.822
634.334
33.4303
548.314
605.413
38.785
440.135
609.083
605.373
523.059
587.897
85.5027
29.5357
33.3899
31.38
466.629
451.927
610.074
412.772
582.294
547.134
604.924
32.5259
620.422
613.175
557.236
37.2803
537.043
430.709
623.1
640.908
33.422
33.7998
46.7828
37.2589
512.449
33.5507
549.986
380.708
578.142
525.612
594.858
592.401
535.103
573.871
56.4513
597.541
609.236
567.633
35.1739
570.514
599.971
605.953
545.902
626.525
572.879
462.117
596.65
33.3629
606.353
586.684
477.93
565.411
605.621
31.6678
532.119
34.1512
592.192
48.3344
590.548
583.79
566.6
546.366
33.3294
34.2799
34.9588
592.741
594.357
606.415
34.2554
584.86
582.322
407.418
564.837
624.856
32.9917
601.14
560.158
584.585
589.931
605.325
586.537
605.431
521.809
465.894
643.301
598.892
33.8471
628.205
34.7437
33.9859
611.355
34.6813
34.2141
613.308
527.25
591.455
603.97
219.268
589.557
54.0653
524.215
583.66
582.943
568.037
595.018
31.9843
528.49
37.6818
609.077
523.595
583.075
599.522
591.934
538.332
607.264
39.4315
570.235
523.832
591.194
562.414
638.073
421.411
592.697
469.428
262.753
634.613
529.626
604.198
37.1909
649.47
583.231
655.363
372.027
33.01
543.437
627.221
586.841
607.871
589.061
33.6973
607.386
586.002
33.4043
583.139
606.438
589.572
34.667
491.841
33.3867
31.185
510.442
33.4881
619.594
34.3012
339.052
604.099
581.528
537.638
602.618
542.782
35.6263
488.354
617.107
630.196
598.017
49.6739
595.376
31.7524
584.686
137.624
30.5067
585.332
613.431
583.774
559.762
483.533
593.131
33.0446
593.986
525.871
654.769
624.891
594.523
28.5033
607.554
453.02
591.389
33.2784
588.282
596.669
31.3724
605.255
601.888
623.972
653.057
531.987
415.571
559.268
605.181
629.329
623.542
599.22
33.4761
594.274
639.299
33.8298
420.515
558.471
502.115
597.005
579.479
308.912
548.194
500.655
585.41
560.401
409.232
464.077
613.83
540.155
597.1
622.82
598.551
609.901
31.8025
605.615
40.6454
42.3133
623.332
608.504
44.315
36.0297
598.992
556.696
42.5297
605.74
318.433
593.135
564.362
593.553
538.983
644.372
556.217
34.7982
475.386
613.608
619.472
638.006
584.084
545.685
586.111
521.167
623.693
631.907
605.387
598.341
415.077
605.548
33.543
532.64
533.777
535.452
592.413
597.756
33.5391
584.666
584.799
596.164
596.591
644.567
35.0443
601.411
607.225
587.867
616.59
637.641
636.349
31.6985
538.208
598.071
442.944
33.7309
605.012
613.867
32.8592
637.613
621.928
290.119
603.995
33.4586
530.534
579.645
510.008
615.862
584.85
614.222
31.2338
523.781
431.111
33.7642
351.633
535.389
593.118
40.1446
583.62
33.3029
609.643
567.897
490.767
572.253
538.826
29.0185
631.41
585.683
33.4531
33.5308
606.417
340.027
592.315
617.903
612.622
34.1421
411.175
599.425
601.858
32.3114
552.038
597.792
575.492
587.125
599.368
606.571
561.22
34.8769
89.8742
599.779
483.481
546.672
530.946
591.61
34.2772
33.2818
33.6959
457.185
33.487
33.3114
573.398
633.646
596.623
538.801
33.5457
619.045
606.253
604.581
633.953
605.891
558.661
516.942
566.38
567.486
540.566
592.207
586.07
590.593
435.63
40.4022
599.099
521.662
607.162
34.4922
613.676
556.787
33.4921
401.005
399.349
30.3354
348.563
564.201
629.555
585.42
555.612
585.493
594.429
429.285
449.5
32.7752
494.2
365.84
206.971
559.292
632.074
620.494
33.511
31.6492
29.6328
558.234
605.497
33.4325
33.2946
578.446
43.9942
579.592
632.833
605.712
616.442
613.609
613.445
400.935
526.247
635.666
533.396
556.786
603.446
599.429
599.02
584.889
592.688
33.6166
33.4703
33.3388
622.847
58.8067
551.968
34.0988
60.3692
581.838
588.209
500.655
596.772
599.106
38.9349
33.3517
623.381
602.332
536.3
33.6623
583.387
33.9055
611.569
587.714
34.0786
582.352
506.118
587.031
32.1335
605.272
562.606
451.187
609.26
566.55
605.107
602.733
464.047
592.379
34.2141
590.664
578.753
604.832
33.3064
633.48
593.703
33.4892
585.786
601.978
566.904
48.9131
564.957
33.4586
35.3959
633.957
33.4329
588.139
617.944
587.706
610.495
35.7986
33.6179
606.212
561.507
598.716
34.9286
422.65
522.806
579.991
364.845
483.02
531.187
632.893
591.103
619.111
592.603
601.804
53.0626
605.898
601.458
615.064
84.4469
471.246
33.5366
590.98
559.38
616.674
616.716
498.871
604.6
580.566
591.302
587.138
586.891
618.415
611.132
620.051
602.845
34.479
33.8077
619.632
621.644
33.1711
586.028
574.015
32.2786
184.174
34.2822
587.491
34.6278
277.31
32.4645
610.324
637.178
598.652
647.715
631.504
585.47
613.307
32.5719
609.481
390.958
40.0423
608.143
612.222
655.989
603.279
601.571
596.285
610.52
33.5176
34.3676
588.221
562.285
565.461
608.397
523.527
621.026
271.434
655.479
579.503
33.7864
564.513
566.479
38.178
607.898
541.276
601.56
619.979
611.251
33.3632
574.764
593.453
621.847
621.845
637.343
602.822
29.5245
644.024
560.288
146.032
35.5932
470.785
559.787
40.0697
596.178
590.12
627.699
33.766
536.225
646.912
33.3054
592.751
510.347
591.139
399.148
549.754
546.73
597.156
523.055
369.776
378.974
37.1807
590.979
639.936
581.862
617.294
623.834
540.177
541.1
568.791
608.587
554.828
584.367
585.436
628.934
593.681
611.823
547.345
589.162
610.11
560.017
605.035
685.352
33.2135
602.187
608.33
604.78
611.315
548.518
578.808
33.5016
461.56
605.148
598.138
33.8025
33.0033
594.259
461.315
436.825
577.225
34.8002
583.035
657.252
585.512
69.4626
35.7436
585.037
588.755
33.6405
636.047
73.0167
585.284
583.185
33.8255
49.6244
629.283
483.05
614.251
413.635
594.145
33.097
33.107
32.6437
549.911
612.5
492.942
601.617
506.386
623.884
33.3879
603.876
586.464
612.236
613.369
598.43
463.542
44.0813
592.579
607.448
587.553
34.5864
610.762
623.663
587.299
628.865
37.6395
602.674
615.659
537.673
477.379
571.922
577.342
489.257
610.252
581.267
563.212
46.4127
598.707
555.525
45.6546
597.947
604.288
623.582
33.5864
573.462
479.304
602.044
33.675
630.943
598.689
637.823
598.216
34.3938
626.945
634.571
664.522
492.1
586.921
579.977
585.393
628.696
33.6683
520.58
582.415
426.245
611.158
33.6341
561.418
33.4811
630.091
33.6305
376.513
586.424
543.12
553.009
597.473
36.0535
596.614
509.518
116.186
605.223
33.1652
568.18
549.015
568.26
595.774
610.662
33.3028
38.2938
33.318
593.341
604.295
605.758
621.768
627.544
617.077
56.1748
566.966
99.9197
623.554
617.478
568.452
422.429
570.508
608.172
34.7414
619.667
33.7187
596.586
590.443
548.846
609.826
605.254
585.043
600.607
464.149
51.2195
591.845
33.5682
582.841
580.279
583.175
615.403
557.513
621.635
588.262
34.9327
41.7972
600.76
558.098
598.736
543.522
583.519
578.679
592.624
573.439
575.939
613.647
498.092
602.594
128.484
475.655
585.442
424.98
618.535
569.196
33.1069
618.289
575.075
531.986
607.744
647.92
589.773
33.4611
608.916
613.18
35.3397
624.753
33.4985
601.853
461.632
647.989
577.981
31.6398
596.725
608.664
609.18
617.632
451.303
419.324
575.485
523.321
37.6766
425.062
560.217
567.637
412.02
32.8036
572.111
605.072
621.568
82.4441
546.501
622.82
33.8306
603.67
540.247
607.052
446.499
34.3949
56.3037
614.133
530.689
567.585
547.858
555.797
621.122
591.502
34.1834
609.423
589.816
586.603
39.085
649.354
460.312
33.9361
585.779
87.1939
581.111
621.175
609.627
635.044
33.8942
430.411
594.672
600.684
32.8332
38.8851
606.753
31.571
455.208
602.453
546.644
33.3964
583.452
582.111
98.547
606.335
612.872
598.545
501.205
447.536
479.554
531.102
33.5104
583.672
315.188
389.846
589.894
459.388
526.082
610.209
585.604
39.5128
36.0168
33.2551
610.523
628.377
587.13
33.0524
589.183
643.639
46.1469
36.1875
408.129
617.234
166.336
32.0598
419.974
582.335
578.355
600.598
33.9958
633.115
447.305
33.5626
617.319
586.064
33.3111
426.735
580.695
586.206
596.191
532.771
530.364
520.102
522.215
599.913
583.349
600.137
36.0541
33.2919
594.695
624.432
620.327
378.802
591.479
594.838
468.486
518.321
587.498
416.148
639.742
601.069
658.052
600.167
475.431
33.8358
551.798
593.126
532.239
33.7892
635.727
498.236
458.985
610.933
609.429
537.509
590.201
290.583
35.4696
624.493
33.6409
29.6755
33.4624
496.965
577.084
591.786
415.375
33.7457
597.257
609.675
32.1232
571.171
416.032
656.644
445.762
584.265
592.607
497.749
570.993
599.184
260.315
619.487
546.183
525.445
592.505
578.514
37.918
613.502
607.41
523.288
444.071
532.976
585.29
619.392
111.655
31.9201
608.519
91.7923
510.266
653.422
634.447
617.945
386.458
367.99
609.575
611.775
599.888
616.438
413.74
33.4334
585.821
323.852
654.616
561.585
46.0511
408.843
33.2886
439.001
33.0301
604.649
33.4644
492.093
540.13
609.784
33.5726
32.1717
447.666
68.8642
606.774
71.0514
33.7228
590.021
603.707
635.245
493.985
33.5418
33.3019
659.219
596.147
614.205
585.589
37.4376
423.284
32.9196
606.663
89.0227
434.684
33.3724
612.792
32.6786
603.507
604.084
587.276
586.335
34.8367
553.73
32.7909
502.415
33.5625
52.5417
605.008
608.858
33.3432
456.877
596.325
568.446
591.969
33.7145
605.974
596.414
34.1335
619.641
551.472
579.569
598.347
503.227
627.99
617.524
609.862
598.425
619.917
33.4123
343.452
572.855
546.434
33.3391
583.114
81.8742
33.3598
592.265
42.2024
576.439
452.348
38.7822
553.023
577.878
615.563
577.512
633.143
597.227
35.6784
599.385
33.8464
590.605
36.3175
35.6244
414.96
612.691
443.258
607.253
365.162
31.4132
500.925
614.502
31.9463
623.534
477.097
467.899
633.798
642.905
597.012
667.117
88.3808
36.3796
658.65
595.958
423.903
33.6398
584.733
648.272
453.586
479.55
595.372
431.677
606.732
418.421
34.5672
592.866
35.0305
638.828
546.047
33.588
35.2736
32.6518
482.669
32.8621
475.742
46.0298
511.466
33.7653
33.6968
627.263
495.698
633.706
612
592.02
597.285
582.326
620.747
560.156
599.166
33.501
55.7655
586.178
645.428
570.918
600.637
567.249
543.513
605.373
649.495
595.624
634.603
499.796
661.36
526.425
592.792
658.409
585.646
594.688
377.291
605.274
33.2768
438.915
590.413
600.865
36.4069
579.439
654.805
649.269
318.492
600.004
639.776
563.45
587.063
33.4017
38.7566
627.198
480.811
504.96
33.4082
412.757
33.4738
628.909
586.679
605.516
36.5096
650.576
33.3102
391.82
33.5245
546.984
33.271
42.5797
548.324
624.958
597.489
74.3882
603.091
40.7442
465.49
31.9294
33.7134
33.5571
33.5311
554.945
50.1319
514.867
643.476
34.31
32.0206
33.7205
601.839
458.112
461.321
37.5074
599.42
610.221
558.334
647.45
47.0788
641.256
639.99
590.329
664.418
604.299
430.367
46.9751
489.097
599.42
69.6551
389.93
585.385
33.6292
436.313
566.632
33.7034
33.826
47.5651
633.693
599.965
592.604
38.2322
641.022
572.818
67.4742
605.242
34.4498
626.259
617.864
33.2306
33.6695
607.285
629.888
584.797
36.5943
606.881
32.0237
373.506
338.485
595.122
560.311
586.692
550.754
522.032
582.08
636.732
32.0538
523.887
620.18
36.5488
37.9164
603.528
353.421
605.452
33.8236
592.678
365.459
33.5602
628.806
593.25
33.6124
597.96
582.382
644.439
584.606
595.589
35.1448
526.87
33.6593
583.644
605.994
506.287
608.51
586.803
624.4
615.388
33.5349
356.223
38.4563
33.9767
31.9049
33.6575
595.289
524.398
589.14
595.466
643.98
34.9639
625.08
586.794
31.8444
569.879
610.961
530.574
434.571
605.342
545.288
602.822
421.308
601.302
595.219
597.989
639.153
450.458
628.33
33.5209
34.6763
605.815
611.956
36.4409
624.616
618.343
34.0523
631.889
654.655
373.866
599.577
373.218
33.4362
606.04
596.389
32.5792
494.476
566.325
441.58
628.799
520.702
527.954
287.856
564.123
33.7085
519.389
544.803
635.015
603.004
34.3431
639.673
609.578
97.5709
33.6614
594.432
643.6
582.319
592.196
605.653
36.9016
601.652
39.9761
659.237
33.6421
33.2954
639.329
45.5028
632.473
34.1793
384.834
464.228
425.095
620.572
601.802
36.9281
544.259
551.512
568.427
55.0114
640.342
621.019
573.833
36.1394
41.1589
569.535
35.6204
32.8169
538.609
367.398
639.966
531.642
523.541
610.953
33.2811
629.717
573.115
565.938
603.946
493.595
563.853
33.3015
485.272
586.157
649.901
602.75
596.974
395.224
622.293
33.3902
662.201
54.5444
35.3016
586.603
590.199
596.103
98.6663
33.3325
617.655
555.049
601.24
611.853
586.681
572.827
29.6508
618.82
33.6875
555.04
303.539
453.746
601.855
526.481
41.2082
59.951
34.9916
31.8773
32.1852
600.991
34.0642
36.7304
33.4479
153.812
568.504
35.4683
624.189
33.5808
634.606
51.058
44.9998
29.4571
577.546
539.483
500.132
440.262
438.2
583.349
614.949
646.626
600.05
551.896
638.016
594.315
33.0975
596.618
580.236
36.8527
536.081
33.4938
439.33
47.5957
616.932
547.377
603.633
33.7051
54.4383
590.95
549.328
33.4454
48.3756
596.363
33.4328
33.8036
591.209
33.6608
596.03
567.85
591.492
613.563
568.849
649.04
35.6306
613.61
587.271
33.4122
639.235
606.843
617.778
36.6976
597.078
600.916
33.7729
33.5628
33.4713
455.125
581.043
33.8303
36.9189
494.74
587.044
592.527
497.112
611.988
406.571
589.939
598.452
607.029
494.872
33.4395
34.227
346.779
510.841
610.644
32.8578
607.089
428.964
518.864
627.942
528.807
640.194
606.494
662.254
33.5529
316.708
62.4321
58.847
627.354
592.884
617.983
505.106
570.175
586.306
447.521
33.4825
603.39
34.0536
574.779
602.408
621.551
37.9053
39.2717
545.979
633.633
576.433
624.636
636.153
613.644
613.442
603.954
631.92
33.5118
635.132
477.95
608.288
543.733
591.178
38.8051
584.101
616.993
32.8945
604.727
35.8529
577.802
35.2428
34.8018
57.8923
591.797
569.644
498.99
28.4597
597.815
35.9462
597.648
604.835
81.501
586.615
517.369
399.418
485.467
622.606
637.187
651.384
486.786
530.947
33.3289
540.349
31.8474
570.065
631.668
318.092
68.0807
463.116
625.502
573.075
35.8201
582.155
461.141
655.79
405.505
603.164
181.659
578.49
420.009
576.987
407.307
33.6632
412.319
53.3111
32.5975
33.3939
32.6095
33.5439
339.396
589.014
605.647
622.491
603.914
615.765
607.194
606.585
625.062
639.54
150.973
31.5817
442.305
630.247
555.028
607.719
462.381
650.8
673.315
40.191
614.77
639.039
463.003
638.409
521.71
496.343
588.439
592.724
606.072
33.8444
607.471
34.9307
32.2966
608.827
586.596
592.732
557.693
602.64
620.3
624.638
47.0291
324.722
598.302
490.111
32.0505
569.783
362.096
604.973
582.45
572.138
439.465
35.0552
43.6522
630.128
400.281
36.8244
576.752
374.248
317.148
33.6697
587.871
160.73
599.575
595.344
99.5725
448.83
616.705
620.931
540.507
502.397
502.851
37.3292
631.725
468.592
33.3929
617.617
509.985
448.456
337.874
569.841
432.86
593.953
633.653
588.278
33.4729
68.0274
544.667
585.419
648.765
595.635
497.313
621.65
479.29
588.076
302.119
32.9431
602.02
40.1362
589.504
290.508
600.831
576.041
649.095
599.661
525.397
139.887
625.907
629.644
553.167
615.977
35.4267
601.323
609.971
34.1472
400.871
597.596
591.018
34.4863
407.868
521.241
530.661
532.241
614.818
653.166
600.866
577.248
42.1739
31.8966
602.556
654.776
32.3266
572.464
523.338
606.682
94.7805
389.993
464.747
572.567
615.907
587.943
579.869
35.1556
424.877
586.456
36.7643
633.113
33.5012
33.4808
573.351
599.118
401.964
585.815
33.9803
622.456
35.7993
613.616
428.347
611.689
605.635
31.2905
33.612
584.069
599.106
603.308
610.971
600.939
601.122
627.169
571.215
33.6392
527.445
572.375
360.865
453.948
33.2046
50.1804
573.238
605.723
529.548
407.635
624.003
597.343
572.37
458.581
172.424
33.084
625.689
33.5817
538.395
616.753
491.096
570.096
516.215
557.947
582.173
529.673
633.147
589.439
580.447
428.303
33.523
32.5629
50.9213
335.72
636.917
584.2
35.2608
579.55
569.049
589.644
664.027
421.309
627.334
631.671
54.7343
520.871
611.369
623.278
556.836
587.896
33.5664
579.098
33.9874
537.423
606.838
550.337
280.129
517.855
598.86
595.382
582.618
32.3115
601.665
355.466
113.117
604.299
594.356
538.037
623.174
624.179
33.8251
608.801
490.168
33.496
578.49
581.686
649.83
575.604
369.988
574.601
86.8845
596.144
606.037
416.963
593.946
533.437
427.534
586.898
662.759
35.4723
649.615
629.759
605.742
518.482
621.647
70.9092
605.616
595.812
659.478
606.15
532.33
31.2832
32.7493
68.138
602.954
33.1944
622.161
347.232
590.414
582.695
615.077
501.062
586.215
626.307
597.4
33.6835
575.033
52.3308
429.961
605.262
596.235
605.506
618.918
382.34
646.936
589.907
444.147
33.3366
33.0058
588.56
602.048
506.883
585.281
50.5044
520.911
660.491
612.089
42.5239
572.267
422.987
498.994
610.635
579.247
381.895
47.5824
528.15
569.241
36.0751
551.57
583.768
453.122
660.778
456.995
603.588
33.4218
602.323
628.182
560.676
579.497
589.72
605.609
530.586
594.966
579.067
539.12
620.912
485.628
605.66
589.998
607.923
32.4317
325.273
594.506
441.453
572.071
438.381
33.5366
609.473
568.784
32.8889
605.996
33.5083
31.3376
33.9946
64.2506
34.7356
433.518
596.447
620.182
619.543
579.799
568.164
503.907
566.786
588.21
29.0543
462.892
525.818
42.484
590.959
32.2504
671.406
579.447
415.284
595.843
423.628
34.0484
477.083
599.162
496.722
618.434
42.4452
376.615
604.845
621.471
34.9745
587.611
617.033
231.936
426.885
509.48
589.225
612.486
160.397
561.679
586.836
33.4848
646.03
533.326
417.146
36.4954
532.072
651.907
654.218
492.257
564.887
620.085
33.5341
583.828
576.305
33.9037
28.4272
533.234
385.884
33.5909
585.33
34.8109
605.383
647.716
32.9962
53.1117
604.456
578.329
595.449
563.872
526.663
613.398
586.601
566.964
558.984
614.606
590.905
506.141
446.585
584.784
591.366
614.08
645.783
542.016
509.189
621.421
629.757
30.0241
639.161
35.1694
524.949
601.268
458.073
606.314
520.908
468.572
524.36
118.12
33.1994
547.331
429.065
616.839
535.404
584.922
431.543
407.39
596.736
591.016
59.5044
568.21
613.843
630.245
39.8393
590.065
594.878
573.695
471.401
558.837
603.6
33.7463
494.055
610.713
577.98
578.053
605.078
598.912
367.85
601.661
626.972
521.906
619.355
56.5481
50.3686
37.5314
580.413
585.816
450.674
488.505
619.435
594.167
500.297
574.658
590.323
602.422
606.457
42.834
614.288
638.216
398.076
610.55
575.646
441.797
31.0665
33.0957
32.8033
626.128
488.214
594.847
605.825
633.788
480.411
34.9559
590.049
378.135
565.072
554.981
462.127
593.827
606.669
606.663
605.979
28.9626
605.079
570.45
321.058
529.452
586.921
549.533
598.092
34.6979
641.315
34.535
602.4
618.229
597.827
607.689
257.713
621.465
576.429
361.952
580.94
33.629
533.262
586.02
563.597
36.7688
574.079
597.118
605.508