/*--------------------------------*- C++ -*----------------------------------*\
| =========                 |                                                 |
| \\      /  F ield         | OpenFOAM: The Open Source CFD Toolbox           |
|  \\    /   O peration     | Version:  v2012                                 |
|   \\  /    A nd           | Website:  www.openfoam.com                      |
|    \\/     M anipulation  |                                                 |
\*---------------------------------------------------------------------------*/
FoamFile
{
    version     2.0;
    format      ascii;
    class       volVectorField;
    location    "400";
    object      U_0;
}
// * * * * * * * * * * * * * * * * * * * * * * * * * * * * * * * * * * * * * //

dimensions      [0 1 -1 0 0 0 0];


internalField   nonuniform List<vector> 
18758
(
(1.0844 -0.299201 0)
(1.28393 0.00404319 -1.56455e-19)
(1.01531 -0.000261294 -1.83118e-22)
(0.277731 0.0337604 1.00975e-20)
(0.217553 0.083902 0)
(0.181892 0.0554449 0)
(-0.194067 -0.010191 -1.49221e-19)
(1.0121 -0.00541676 7.77297e-23)
(1.18787 0.0640748 -1.26627e-20)
(1.01402 -0.103384 2.98963e-21)
(1.05359 -0.0434372 0)
(0.15715 -0.0528784 -1.1767e-20)
(1.0019 -0.000353714 -2.55446e-21)
(1.10847 0.0313181 -9.13084e-21)
(1.04943 0.0093585 0)
(0.582071 -0.484181 0)
(1.10633 0.00669801 -2.73001e-20)
(1.00392 -0.0073811 -1.8702e-21)
(1.03811 -0.00558702 0)
(1.02139 -0.12575 6.09615e-22)
(0.0806709 0.0123708 0)
(1.00001 -0.000474807 -4.77922e-22)
(-0.0381377 -0.0303051 2.274e-20)
(1.15302 0.108363 0)
(1.31499 -0.150689 6.39421e-20)
(1.01179 -0.00510035 -8.55464e-23)
(0.785293 -0.633771 3.13889e-21)
(0.16129 0.0807887 -2.6064e-20)
(0.887053 0.0141804 0)
(1.03636 -0.666507 -1.13137e-19)
(1.10805 0.0312985 -2.19135e-21)
(0.184498 0.0115155 9.60501e-21)
(1.00032 -0.000152579 1.71272e-22)
(1.05183 -0.0132415 -1.22046e-20)
(1.11305 0.043654 -1.58875e-20)
(0.999152 -0.00123193 -3.08907e-23)
(1.00013 -0.000190499 3.4372e-22)
(1.03401 -0.0233848 -1.65505e-21)
(1.04039 -0.0259238 -5.92952e-21)
(1.11173 0.00483343 -1.49121e-20)
(1.03473 -0.0217016 0)
(0.935532 -0.077512 0)
(1.02193 -0.00739902 0)
(0.973459 -0.0917702 0)
(1.16604 -0.489517 -6.11484e-21)
(1.01334 -0.00145177 7.53345e-22)
(-0.0573162 -0.0286741 -1.35847e-20)
(1.04775 -0.0561959 0)
(1.01116 -0.107549 -2.55783e-21)
(1.02161 -0.00553009 0)
(1.2174 -0.139852 8.09667e-20)
(0.384538 0.064038 5.7969e-21)
(1.01586 -0.00175132 -4.23104e-22)
(1.05275 -0.0395242 0)
(0.118906 0.0746325 -1.1399e-21)
(1.19888 -0.242925 3.14752e-20)
(1.00018 -0.000139217 -3.50446e-22)
(0.528074 -0.310041 -2.39794e-20)
(0.992727 -0.0228214 0)
(1.10673 0.0301822 1.74543e-20)
(1.10393 -0.253634 -7.40192e-20)
(-0.180388 -0.0120581 1.48922e-19)
(1.17223 0.0205522 -4.83892e-20)
(0.967853 -0.0443117 -1.64152e-20)
(1.01575 -0.00199975 3.42386e-22)
(0.994003 -0.00507983 6.62658e-21)
(1.10981 0.0102358 -1.2751e-20)
(1.00037 -0.000116756 1.75791e-21)
(1.03209 -0.0208448 2.51568e-21)
(0.370275 0.0624928 3.22443e-21)
(0.289721 0.0583104 1.39261e-20)
(0.970488 -0.027449 0)
(1.02191 -0.00586549 -4.8061e-23)
(0.0453459 -0.190459 -4.86905e-20)
(1.01714 -0.00870522 0)
(0.994422 -0.0231418 -2.8042e-21)
(1.13617 0.0694057 0)
(0.22773 0.077384 -4.67669e-20)
(0.905099 -0.302772 -3.41355e-20)
(-0.0691459 -0.0303893 1.5362e-19)
(0.0247783 -0.025097 1.12049e-20)
(1.19603 -0.459994 -7.08128e-20)
(1.10606 0.0312842 1.21276e-20)
(0.133053 0.0621757 0)
(1.13113 0.0695362 0)
(1.0938 -0.031326 2.63873e-20)
(0.558849 -0.202486 0)
(1.17221 0.021243 5.96934e-20)
(-0.0842236 -0.0195628 -8.9971e-21)
(0.99496 -0.0244205 4.61388e-21)
(0.0764294 0.0568354 0)
(0.992443 -0.0219796 -2.57734e-21)
(0.128537 -0.0632662 0)
(0.934104 -0.0814747 0)
(0.0253414 -0.0252364 4.16853e-20)
(0.102503 -0.0550614 0)
(1.12811 0.0697304 0)
(1.01764 -0.00889312 0)
(1.00154 -0.0176173 -5.95653e-21)
(0.0984197 0.0155195 4.27527e-23)
(1.03451 -0.124219 0)
(0.00107015 0.0505685 0)
(1.1292 0.0299091 0)
(1.11089 -0.127565 -3.49948e-20)
(0.164539 0.00770971 -1.05093e-20)
(1.05458 -0.65797 1.24934e-19)
(1.02039 0.0892487 0)
(0.258301 0.0830934 4.92678e-20)
(1.0418 -0.0371178 -1.84045e-21)
(0.964332 -0.0121846 0)
(0.16487 -0.068107 0)
(0.551384 -0.712742 0)
(1.0103 -0.00563271 1.71943e-21)
(1.0081 -0.0374766 2.95248e-21)
(0.828548 0.10826 0)
(-0.339293 0.00234294 1.32017e-19)
(-0.271669 0.0116966 9.08818e-20)
(1.04905 0.00993575 0)
(0.0336463 -0.0384616 0)
(-0.00198889 -0.0224655 6.08022e-21)
(1.11269 -0.0541022 1.31664e-20)
(0.987251 -0.0105537 -1.4998e-20)
(0.554373 -0.0584279 2.12154e-20)
(0.622463 -0.626866 0)
(1.15628 -0.395849 0)
(1.17183 -0.489099 1.76215e-20)
(1.30139 -0.00181044 1.22389e-19)
(1.20252 0.0917324 -1.785e-20)
(0.0809576 -0.0473107 2.52287e-20)
(1.00317 -0.000104381 2.72369e-21)
(1.10723 0.00881921 3.22822e-20)
(0.795512 -0.641711 0)
(0.053719 0.00620044 -1.24456e-20)
(0.923738 -0.21756 -1.76233e-20)
(0.146941 -0.701221 -1.23227e-20)
(0.967448 -0.0631979 5.46235e-21)
(1.13765 0.0692698 0)
(1.11333 0.00704826 0)
(1.00191 -0.0174449 0)
(0.776925 -0.266763 0)
(0.879191 -0.31759 4.3118e-20)
(0.946119 -0.426104 6.49575e-21)
(1.00364 -0.0313529 0)
(1.08486 -0.219148 1.9141e-19)
(1.03575 -0.0211121 -3.78994e-21)
(1.04001 -0.00338897 2.72153e-21)
(-0.0565162 0.0156218 -3.38205e-20)
(0.237817 0.021104 0)
(1.10703 0.0316821 0)
(0.780158 0.120286 1.69569e-20)
(1.20981 -0.439967 5.75243e-20)
(1.0931 0.078064 7.6912e-21)
(1.09335 -0.034646 -1.41416e-20)
(0.999967 -0.000474414 0)
(-0.0772751 -0.0226121 2.38992e-20)
(1.0837 -0.047373 1.23631e-20)
(0.00229808 -0.0377566 0)
(1.0472 -0.0562133 0)
(0.990168 -0.0372621 7.49776e-21)
(1 -0.000149086 -4.40664e-21)
(1.01054 -0.013549 -4.9581e-21)
(1.10465 0.0318172 7.30816e-21)
(0.221045 -0.11968 1.05942e-19)
(0.991055 -0.0372857 3.66802e-22)
(1.10449 -0.257816 4.70826e-20)
(0.810787 0.0208822 -2.00401e-20)
(1.03925 -0.00785122 4.94628e-21)
(0.46252 -0.0740694 -8.24386e-20)
(1.19918 -0.263519 6.52036e-20)
(0.231318 0.0674396 -6.59164e-20)
(-0.234069 -0.00330615 -7.91099e-20)
(1.00386 -0.007635 4.71394e-21)
(0.203176 -0.0921651 -2.94029e-21)
(0.174288 0.0813452 -1.77733e-20)
(1.10479 0.0326113 2.93246e-22)
(1.14886 0.107253 -2.53861e-20)
(0.740159 0.055787 6.39234e-20)
(0.967489 -0.0466989 0)
(0.7954 -0.242488 0)
(1.03067 -0.0319342 0)
(1.00874 -0.00520434 1.96396e-21)
(-0.365589 0.0010807 6.59895e-20)
(1.09741 0.0805936 0)
(1.02672 -0.00526206 -2.28846e-21)
(1.07039 -0.00102678 0)
(1.10099 0.0802355 2.7174e-20)
(0.996726 -0.0182848 0)
(-0.326938 0.00294021 -1.13748e-19)
(1.02082 -0.00650183 6.26111e-22)
(0.994828 -0.0160052 8.00422e-21)
(0.933705 -0.208758 -1.80342e-20)
(1.20365 0.0920605 0)
(1.01025 -0.0486582 -4.17819e-21)
(1.10691 0.0305016 0)
(0.971131 -0.151395 -2.49235e-21)
(1.17629 0.016852 -6.12165e-20)
(1.02519 -0.124101 1.74415e-21)
(1.21178 -0.252247 -8.76496e-20)
(1.00052 -0.00214121 0)
(1.02167 -0.00699063 0)
(0.749443 -0.217447 -6.26703e-20)
(1.04488 -0.058377 5.506e-21)
(1.06956 -0.125854 0)
(1.16443 0.00104936 6.41964e-21)
(1.00197 -0.000506716 0)
(0.9723 -0.147964 0)
(1.13518 0.029343 -1.71164e-20)
(0.999964 -0.000330641 0)
(0.100202 0.0118464 0)
(1.00638 -0.100876 0)
(1.00426 -0.00736221 -7.75381e-21)
(1.11367 -0.132497 0)
(0.992038 -0.0391513 2.48327e-22)
(1.0771 -0.118916 0)
(0.850715 -0.294084 2.34847e-20)
(0.037505 -0.0316549 3.0427e-21)
(0.853843 -0.287281 0)
(0.529616 -0.428523 -5.18621e-20)
(1.01569 -0.00485068 2.84508e-22)
(0.207835 0.0542514 -7.21631e-20)
(1.00415 -0.00760672 6.1096e-21)
(1.04155 -0.0377 -1.20276e-21)
(1.12013 0.0606576 -3.37681e-20)
(-0.0398549 0.0186252 4.14259e-20)
(1.25463 -0.179028 1.07353e-20)
(1.13274 0.0290813 4.10017e-21)
(1.15292 -0.0582034 0)
(0.977921 -0.207756 0)
(1.02606 -0.00284915 1.98862e-21)
(1.16959 -0.0067162 2.29138e-20)
(0.993561 -0.00549578 0)
(1.17725 0.0174678 5.36091e-20)
(-0.0615273 -0.0283676 1.01389e-19)
(1.12537 0.0703415 -1.58655e-20)
(1.0017 -0.000291497 1.35009e-21)
(0.99659 -0.0177082 6.75666e-21)
(1.0259 -0.00313979 -1.15059e-21)
(1.01282 -0.00183541 -5.55621e-23)
(0.622772 -0.0722076 0)
(1.09334 -0.0987095 3.86185e-20)
(1.00856 -0.0129706 0)
(1.26563 -0.284801 1.50876e-19)
(1.00337 0.0879439 1.50166e-20)
(1.05437 -0.0237994 -8.27351e-21)
(0.825104 0.124722 -3.84139e-21)
(0.163697 -0.271133 9.07942e-20)
(1.12307 0.0710705 0)
(0.999292 -0.00111574 0)
(0.0236509 -0.0240867 -1.03947e-20)
(0.894966 -0.0788275 -3.59973e-20)
(0.998912 -0.0017877 8.2565e-21)
(0.40851 -0.0632297 0)
(1.09445 -0.0279617 -2.8355e-20)
(0.895909 -0.0773505 -6.58039e-22)
(1.04626 0.00439035 2.56115e-21)
(1.11978 -0.0567231 0)
(1.13134 0.0943149 0)
(0.482702 -0.432013 -2.00501e-21)
(1.07268 -0.116003 0)
(0.925589 -0.311053 9.6413e-21)
(1.02968 0.002006 6.59473e-23)
(1.1301 0.0190915 2.46067e-20)
(0.999168 -0.00804693 0)
(1.16181 0.00124841 -1.03481e-20)
(1.00455 -0.103707 -2.10013e-21)
(1.11702 0.0601603 8.18984e-21)
(-0.312991 -0.00589079 -1.7627e-20)
(1.01548 -0.00469269 -3.67057e-22)
(1.04122 -0.0346921 1.94645e-21)
(1.02823 -0.472703 0)
(1.0402 -0.032874 0)
(1.06915 -0.00264864 0)
(1.16498 -0.00372674 -4.91855e-20)
(0.657446 -0.0111108 1.472e-19)
(-0.28397 0.00971452 -1.12802e-19)
(1.00144 -0.0309382 -3.81264e-21)
(1.20667 -0.12935 1.29312e-21)
(0.204458 0.0877502 1.85154e-20)
(1.19339 -0.465621 7.33302e-21)
(1.0075 -0.0541136 -7.74655e-21)
(1.03028 -0.00881383 1.0415e-21)
(1.07534 -0.0755504 -9.40941e-22)
(1.09553 -0.0978065 1.30444e-20)
(1.00339 -0.0315501 0)
(0.168852 0.0907324 -2.79086e-20)
(1.25663 -0.267855 -8.85299e-21)
(0.749526 0.0281431 2.04981e-20)
(0.024853 0.00496724 0)
(-0.0389304 -0.0316971 -9.08921e-20)
(1.02504 -0.00525186 -8.70326e-22)
(1.01541 -0.000117876 -3.84342e-23)
(0.984099 -0.227121 -2.91072e-21)
(0.0929659 -0.0342982 -2.67535e-21)
(0.921219 -0.0408514 -3.15675e-20)
(0.90742 -0.329166 1.18771e-20)
(1.19279 -0.0115387 7.56476e-20)
(1.06778 -0.0835407 -5.4008e-21)
(-0.00466659 -0.0234563 0)
(1.03733 -0.00622873 4.95683e-21)
(1.04639 0.0208402 -1.73604e-22)
(0.159432 0.0615121 0)
(1.0131 -0.00160053 7.74229e-22)
(0.396618 0.0392979 -5.94412e-21)
(0.957149 -0.165847 0)
(1.03287 -0.0216904 -3.47102e-21)
(1.06517 -0.112673 -1.2721e-20)
(1.1855 -0.054896 0)
(1.05147 0.000787158 8.77973e-22)
(0.998974 -0.00181687 -9.47832e-21)
(-0.227643 -0.00919857 0)
(0.796476 0.0275453 -1.13573e-20)
(1.0014 -0.0128796 -4.41455e-21)
(-0.234464 -0.00653261 -1.542e-19)
(-0.00281525 -0.0231983 -6.7154e-20)
(1.24939 -0.169007 -1.03092e-20)
(0.997797 -0.00854141 -2.93934e-22)
(1.00283 -0.000207145 -4.75435e-21)
(1.06775 0.0353472 0)
(1.05349 -0.0256544 1.32552e-22)
(1.02606 -0.0055403 2.4493e-21)
(1.0308 -0.0105883 -1.46883e-21)
(0.946439 -0.012784 0)
(1.19611 -0.265021 -6.20583e-20)
(1.1896 -0.0618741 0)
(1.07341 -0.0777468 8.65335e-22)
(1.08766 -0.0957498 5.55558e-21)
(1.0178 -0.123853 -1.49191e-21)
(0.945297 -0.220016 1.95959e-20)
(1.02925 0.00153821 -2.00594e-21)
(0.999987 -0.000306247 0)
(1.1952 0.0955625 -4.90526e-20)
(1.06315 -0.207574 -1.61826e-20)
(1.21483 -0.13081 -8.86455e-20)
(0.259838 0.031258 -8.41451e-21)
(0.91782 -0.0464985 -1.29829e-20)
(1.01064 -0.0472622 0)
(1.00542 -0.000157343 -8.94834e-22)
(1.04069 0.0201998 -8.14019e-21)
(0.432182 0.042409 0)
(1.02625 -0.0035922 0)
(1.00465 -0.0073721 0)
(1.02604 -0.0038425 -1.74392e-21)
(0.967346 -0.063714 -5.53981e-21)
(0.975972 -0.198991 9.54521e-21)
(1.31226 -0.147552 6.80551e-20)
(0.987928 -0.00990138 -5.51959e-21)
(0.968414 -0.0106841 -1.12378e-20)
(1.02252 -0.00492521 5.12078e-22)
(0.636168 -0.512486 0)
(0.951682 -0.423303 -5.15141e-21)
(1.22416 -0.010084 2.68054e-20)
(1.11813 -0.319 0)
(1.05404 -0.00747387 3.4043e-21)
(1.21108 0.0886814 0)
(1.06758 -0.307889 1.65083e-20)
(1.10417 -0.0783312 -1.2631e-20)
(0.889762 -0.0882413 0)
(0.117357 -0.0477297 0)
(0.0142692 0.0167976 0)
(1.10175 0.0835511 0)
(1.00183 -0.00246757 0)
(1.02852 -0.131778 0)
(1.26765 -0.0634288 4.02357e-21)
(0.60123 -0.00586122 -1.61269e-19)
(1.01795 -0.0820825 0)
(1.02491 -0.00545411 -9.01294e-22)
(1.14949 -0.0316343 -2.72736e-20)
(1.03823 -0.0114785 2.47005e-21)
(1.09328 -0.019417 0)
(1.171 0.0142913 0)
(0.0968877 0.0387624 0)
(1.10793 0.0366327 2.61778e-20)
(1.0144 -0.125192 -2.5887e-22)
(-0.298248 -0.00658922 1.52758e-20)
(0.987999 -0.0234159 1.14151e-20)
(1.04392 -0.0576566 -5.90022e-21)
(1.00197 -0.0235354 -3.6468e-21)
(1.0401 -0.0270743 4.86978e-21)
(1.11408 0.0384923 0)
(1.05892 -0.0425837 -5.99936e-21)
(-0.219989 -0.00899845 1.44416e-19)
(0.898826 -0.451328 -1.91287e-21)
(1.04557 0.00334136 -1.6341e-22)
(1.00128 -0.0128152 -4.11827e-21)
(-0.287029 0.00981987 -4.98409e-20)
(1.1085 0.0370749 -1.70464e-20)
(1.1831 0.0648343 -6.21744e-20)
(0.987753 -0.0227044 -1.26416e-20)
(1.10462 0.0263829 -1.72734e-20)
(1.02958 -0.0089452 0)
(0.936251 -0.0705338 -2.66286e-20)
(0.987252 -0.0105422 2.35166e-20)
(1.01509 -0.00496239 4.56782e-22)
(-0.223152 0.0140531 2.11775e-20)
(0.108668 0.0118696 0)
(0.984669 -0.705127 -6.83678e-20)
(0.446945 -0.165573 0)
(1.00523 -0.000529722 -1.029e-21)
(1.14945 0.0675728 -2.74197e-20)
(0.182758 0.028879 0)
(1.12142 -0.0622817 0)
(1.01055 -0.0059326 -1.01003e-21)
(0.267705 0.0240073 -5.73434e-21)
(1.02906 -0.013 -1.76315e-21)
(1.04122 -0.00217627 1.92094e-22)
(1.00892 -0.0055874 0)
(1.1138 0.0400514 1.84813e-20)
(0.990177 -0.0119514 -4.84293e-21)
(0.969034 -0.0900574 -1.16302e-20)
(1.1194 -0.297781 0)
(0.562315 -0.0510121 1.85254e-19)
(1.03037 -0.00999934 -5.91955e-22)
(0.201301 0.0814768 6.95067e-21)
(1.12336 -0.00758117 0)
(0.998029 -0.00793632 -4.99473e-22)
(1.07516 -0.0105503 0)
(0.99127 -0.0229525 -2.71948e-21)
(1.00452 -0.00756088 -1.99837e-21)
(1.06625 -0.0777698 0)
(1.13116 0.0154993 -4.09378e-23)
(0.945909 -0.212339 -2.59063e-20)
(0.216173 -0.119072 1.03111e-19)
(1.11647 -0.056933 -2.01396e-20)
(0.996151 -0.00495007 -5.52037e-23)
(0.999909 -0.475292 0)
(0.715585 0.0767969 0)
(0.519449 0.0353105 0)
(-0.246907 -0.00237794 9.31176e-20)
(1.11127 0.0377054 2.64135e-20)
(1.00497 -0.0524533 0)
(1.01484 -0.00461213 0)
(1.00839 -0.0126054 0)
(0.991503 -0.0414131 -1.02707e-20)
(1.1079 0.0361373 0)
(1.11241 -0.00157608 0)
(1.09005 0.00881789 -1.54063e-21)
(0.957497 -0.163384 9.81926e-21)
(1.09407 -0.0322684 0)
(1.08885 0.0655791 0)
(1.13126 0.0303255 -4.89095e-21)
(0.991211 -0.0225835 1.02104e-20)
(1.08644 -0.0938338 -4.74867e-21)
(-0.0714637 -0.020479 7.80663e-21)
(0.987247 -0.0547416 5.75547e-21)
(0.099473 0.0318193 0)
(1.00493 -0.000295534 0)
(0.996727 -0.000635436 0)
(0.251944 0.0529386 0)
(0.946049 -0.0987991 -1.12395e-20)
(1.0424 -0.030878 -4.10304e-21)
(1.12645 0.093864 -1.75208e-20)
(1.11428 0.0436089 1.6169e-20)
(0.988974 -0.219661 2.33077e-21)
(0.0683239 -0.0574503 -2.61376e-20)
(0.993617 -0.0233187 0)
(0.985442 -0.0510413 0)
(0.542867 -0.475199 1.10915e-19)
(0.109239 -0.0459504 -2.43061e-20)
(0.863499 -0.123779 0)
(1.14778 -0.162865 -2.47263e-20)
(1.10914 0.0297057 1.01843e-20)
(1.08958 0.061536 0)
(-0.326234 0.00390422 -8.0382e-22)
(1.10784 0.0307149 9.36398e-21)
(0.970347 -0.0243988 7.56949e-22)
(1.22531 -0.0584668 0)
(1.00711 -0.0365255 -2.8748e-21)
(1.10772 0.0359091 2.2132e-20)
(1.03861 -0.0512609 1.69603e-21)
(0.120591 -0.0619821 0)
(1.10353 0.0268334 2.05036e-20)
(1.30406 -0.0733746 5.33412e-20)
(1.0898 0.0077818 1.49077e-23)
(1.10827 0.0334096 0)
(1.01307 -0.00169458 5.5877e-23)
(1.15755 0.108682 -3.22924e-20)
(1.02167 -0.00624078 -2.59117e-22)
(0.00435855 0.012526 -4.94966e-21)
(1.00169 -0.0244026 0)
(1.12751 -0.406971 1.70752e-20)
(0.999043 -0.00644396 0)
(1.01739 0.0287393 8.10258e-21)
(1.09506 -0.0191307 0)
(0.999735 -0.0053181 5.70458e-21)
(1.00122 -0.016846 0)
(1.00927 -0.00555737 0)
(0.854253 0.0711877 0)
(-0.0970882 0.0146725 7.23686e-21)
(0.857516 0.108616 6.31411e-20)
(1.10774 0.012503 0)
(1.067 -0.00213296 0)
(1.18589 -0.0504321 5.95061e-20)
(1.00001 -0.000414337 0)
(0.999999 -9.92851e-05 -1.02461e-20)
(0.378876 0.0667789 -1.38022e-20)
(1.00084 -0.0173033 0)
(0.995986 -0.00213298 0)
(1.19704 -0.0176106 -6.59068e-20)
(1.00196 -0.00247222 3.61353e-22)
(1.14045 -0.163761 0)
(1.18307 -0.0478197 -6.31838e-20)
(0.995792 -0.0020086 0)
(0.99035 -0.0123456 0)
(0.934018 -0.0910598 -3.41962e-21)
(0.986866 -0.0541412 -9.52388e-21)
(1.08538 -0.0481543 -1.55888e-20)
(0.839691 0.12169 3.94976e-21)
(1.07745 0.0272599 -1.02041e-20)
(0.874342 -0.117656 0)
(1.04279 -0.0862312 3.60504e-21)
(0.996318 -0.00482845 0)
(0.410846 -0.696444 3.73415e-21)
(0.965035 -0.0159084 -7.02082e-21)
(1.03985 -0.03928 -6.48438e-21)
(0.866138 -0.713807 -1.74685e-20)
(-0.327791 0.00256551 2.74642e-20)
(1.10798 0.0325236 0)
(1.03949 0.041777 0)
(1.01709 -0.0841094 0)
(1.04009 -0.0382824 3.65475e-21)
(-0.309971 0.00660481 -2.32041e-20)
(1.0386 -0.00685114 -4.94538e-21)
(-0.249569 0.0117444 -6.93628e-20)
(1.11497 -0.381367 0)
(0.99945 -0.00581253 0)
(0.809991 0.121124 0)
(1.21084 0.0897985 0)
(1.14995 -0.0305328 -1.01767e-20)
(1.008 -0.000622273 8.01004e-22)
(1.06375 -0.199343 1.65744e-20)
(0.420426 0.0544668 5.55429e-21)
(1.03467 -0.0223429 2.16228e-21)
(1.02955 -0.0198175 0)
(1.05072 0.00900345 0)
(1.0515 0.00049074 0)
(1.04058 -0.0039494 -1.46418e-21)
(1.01163 -0.00103395 0)
(1 -5.37225e-05 8.31481e-21)
(0.683386 -0.0606437 0)
(1.07086 -0.0351738 -1.34651e-22)
(0.801008 0.0229917 -1.09231e-19)
(0.987165 -0.00852799 6.10167e-21)
(1.23256 -0.0655017 -4.74199e-20)
(1.23269 0.00820051 9.76531e-20)
(0.999094 -0.00771151 2.20947e-21)
(1.02107 -0.00688199 -4.01511e-22)
(1.06933 -0.0393972 8.42529e-21)
(1.00075 -0.0022451 -6.71059e-21)
(1.00811 -0.0545672 6.31739e-21)
(0.950085 -0.036483 -7.59689e-21)
(1.02926 -0.0331748 0)
(1.16459 0.0241018 -5.18437e-20)
(0.62151 -0.57099 3.86624e-20)
(1.01755 -0.00228226 -4.41843e-23)
(0.409857 0.0576616 -2.87512e-21)
(0.0650252 0.0638683 -1.85539e-20)
(0.860874 -0.108901 2.76352e-20)
(1.22315 -0.0605772 -1.05842e-19)
(0.9421 -0.717549 -2.74249e-20)
(0.933689 -0.0727974 2.0245e-20)
(1.07629 0.0257342 -1.87914e-20)
(1.08694 -0.0313911 -1.47937e-20)
(0.297573 0.0628076 -1.06338e-20)
(1.06936 -0.0351184 2.81531e-23)
(1.10194 0.0217139 0)
(1.00481 -0.0346148 0)
(0.0651571 0.0833686 1.88024e-20)
(1.11968 -0.0274932 -3.34888e-20)
(0.957219 -0.412804 0)
(1.1442 0.0474759 0)
(-0.1876 -0.0100486 0)
(1.0687 -0.0374188 0)
(0.9987 -0.0267946 0)
(1.15175 -0.0507442 -3.03525e-20)
(1.31396 -0.163282 0)
(1.0057 -0.0530946 5.18472e-21)
(1.15874 -0.372875 0)
(0.976993 -0.0298841 -5.40877e-21)
(0.927586 0.089854 0)
(1.01114 -0.0561334 0)
(1.02884 -0.0149544 -1.62706e-21)
(1.00948 -0.00590559 -1.43973e-21)
(1.0019 -0.00170994 0)
(0.0950805 0.0670642 4.45427e-21)
(0.901904 0.0888086 -1.73239e-20)
(0.986177 -0.0220101 0)
(1.09652 0.0326723 0)
(0.951086 -0.119656 -5.7433e-21)
(0.478657 0.0360565 -1.38804e-20)
(-0.0813785 0.0190982 -1.25196e-20)
(1.07564 0.0331472 -9.37872e-21)
(1.3003 0.016338 5.18719e-20)
(1.03605 0.00271804 -2.47946e-21)
(0.213591 0.0859149 8.51728e-21)
(1.1058 0.0311884 0)
(1.0144 -0.0335398 0)
(1.1121 0.00880365 8.8126e-21)
(0.356441 0.0628871 8.09292e-21)
(0.239923 0.055665 1.3651e-20)
(1.05125 -0.0143783 -1.12954e-20)
(0.954639 -0.00686489 -6.91765e-22)
(1.01087 -0.0350183 -6.04095e-21)
(1.01503 -0.000474447 0)
(0.227705 0.0139044 -2.67458e-21)
(1.15923 0.0274764 -1.18874e-20)
(0.142665 0.0774297 5.99455e-20)
(0.161409 0.0240521 0)
(0.981256 -0.019796 9.04763e-21)
(1.00062 -0.0021505 4.17338e-21)
(1.13831 -0.0080552 -7.35494e-21)
(1.00002 -0.000338228 0)
(1.01033 -0.0129908 2.11275e-21)
(0.9504 -0.0381044 0)
(1.05008 0.00614852 -2.39831e-21)
(1.1683 0.0244505 7.94205e-20)
(1.11788 -0.0228959 3.11744e-20)
(1.21229 -0.236368 8.73441e-20)
(0.27657 0.0825759 0)
(1.14989 -0.15078 6.09913e-20)
(0.999063 -0.00644363 -3.4528e-21)
(0.945754 -0.0959777 -9.72074e-21)
(1.19621 -0.154126 3.14867e-20)
(0.346008 0.0738119 1.04244e-21)
(1.10087 0.0203442 0)
(1.22862 -0.370188 3.69154e-20)
(1.14265 -0.056626 0)
(0.985565 -0.0236428 -3.29255e-21)
(1.09719 0.0329356 0)
(0.73125 0.0441844 -1.83175e-20)
(1.01105 -0.0502257 -1.96534e-21)
(1.02674 -0.00436045 -6.87634e-22)
(0.640993 -0.301662 0)
(0.0513129 0.0566228 5.8347e-20)
(1.21374 -0.253972 0)
(1.00202 -0.00187274 -8.0058e-22)
(-0.00395856 0.0138887 0)
(0.0426345 0.00519385 1.26029e-20)
(1.31287 -0.168023 0)
(1.02181 -0.00521813 0)
(-0.147011 -0.0135441 0)
(-0.225897 -0.0083972 1.63754e-19)
(0.561893 -0.213886 9.04527e-20)
(1.0589 -0.0427388 6.03228e-21)
(0.999385 0.00062255 0)
(0.829049 0.0927634 0)
(1 -4.12836e-05 -4.45353e-21)
(1.10498 0.0459039 -2.78187e-20)
(-0.228868 0.0171368 -3.62542e-20)
(1.23834 0.000504455 1.07609e-19)
(-0.174273 -0.0116679 -3.43126e-20)
(1.12469 0.0316531 -1.53297e-20)
(0.102982 0.0239836 0)
(1.13359 0.0144377 -1.67614e-20)
(0.989058 -0.0330106 1.59075e-20)
(0.955626 -0.00879803 0)
(-0.295293 -0.00273456 0)
(0.384507 0.0208996 0)
(-0.239308 -0.00804562 -8.8263e-21)
(0.134541 0.0390374 9.71488e-22)
(1.03879 -0.00659623 -2.22078e-21)
(1.10615 0.0479692 2.12292e-20)
(1.00001 -0.000270312 -3.50617e-21)
(1.15525 -0.0618337 -1.67965e-20)
(1.1167 0.0333218 -7.21164e-21)
(1.20887 -0.156707 -7.58829e-20)
(0.99951 -0.00534861 4.37467e-21)
(0.966766 -0.0810104 5.77453e-21)
(1.14798 0.0674473 -2.67262e-20)
(0.382849 0.054299 7.8942e-22)
(-0.280566 -0.00371504 6.36312e-20)
(-0.267909 -0.00478849 -5.3247e-20)
(1.10667 -0.0829339 1.62522e-20)
(1.03777 -0.132124 4.06292e-21)
(1.12084 0.0708952 0)
(0.967099 -0.0128581 1.23229e-20)
(1.02846 -0.00839723 1.8556e-21)
(0.996462 -0.0119552 1.58648e-21)
(1.06549 0.0131842 -1.37899e-20)
(1.1082 0.0320503 2.46567e-21)
(0.995716 -0.0050122 -3.65153e-21)
(1.11685 0.0320605 1.96812e-20)
(1.00707 -0.0121596 4.94224e-21)
(1.00287 -0.000309813 -5.80517e-22)
(1.00509 -0.00735409 3.50868e-23)
(0.205281 0.0824918 -3.14624e-20)
(0.963972 -0.0121009 7.00524e-21)
(1.00002 -0.000293382 0)
(1.13564 -0.0120555 -4.48027e-20)
(1.13902 -0.0311439 1.70344e-20)
(1.01779 -0.00250455 -3.27148e-23)
(-0.235158 0.0110721 0)
(1.03859 -0.0104776 3.07309e-21)
(1.03096 0.00131746 4.49865e-21)
(1.14606 -0.0757181 3.53847e-20)
(0.883272 -0.126558 2.67166e-20)
(1.06818 -0.000906627 0)
(1.02548 -0.0541053 -1.18484e-22)
(1.24214 -0.358585 0)
(0.861575 -0.102722 3.01219e-20)
(1.0604 -0.12073 6.8754e-21)
(0.758816 0.0433119 2.0259e-20)
(1.06495 -0.120324 0)
(0.307721 0.0203507 4.72011e-21)
(0.90773 -0.0180992 2.74768e-20)
(1.1621 0.0277342 0)
(0.589982 -0.274117 -5.71837e-20)
(0.210082 0.00939517 -6.27748e-21)
(1.02623 -0.00414178 5.42769e-22)
(0.312239 0.0593401 -1.3998e-20)
(1.18014 0.101836 0)
(1.01248 -0.00417588 -1.31591e-21)
(0.00887286 0.0283981 -1.88049e-20)
(0.997888 -0.00560398 -5.39937e-22)
(1.00556 -0.00730312 -3.64007e-21)
(1.11614 -0.0331991 1.66698e-20)
(1.00381 -0.00707967 -3.43248e-21)
(1.13467 -0.245217 0)
(0.327143 0.0701345 0)
(1.0211 -0.00617643 7.74943e-22)
(0.25541 -0.128535 -6.06021e-20)
(1.03541 0.00251554 -2.20785e-21)
(1.11121 -0.0523025 1.36302e-20)
(0.391231 0.0156408 0)
(1.01752 -0.00190132 1.7678e-23)
(0.0399802 0.0617424 0)
(1.012 -0.0690803 -1.16419e-21)
(1.03805 -0.014522 -2.54817e-21)
(0.997087 -0.0168906 0)
(0.996171 -0.0127252 1.9774e-21)
(1.23291 0.0165184 0)
(0.736907 -0.189746 2.75819e-20)
(-0.329198 0.00484525 8.69947e-20)
(1.15678 -0.151411 -3.51896e-20)
(0.115023 0.0515454 -3.75949e-20)
(1.14083 -0.0123131 -1.34455e-20)
(0.995837 -0.00503611 6.05987e-21)
(1.14374 0.0690623 4.94887e-20)
(-0.253079 -0.0069367 4.26278e-20)
(1.29394 0.0250817 -8.39388e-20)
(0.752975 -0.217094 0)
(1.22175 -0.00699372 -7.98255e-20)
(1.10482 0.0323213 -4.11696e-21)
(1.06736 -0.0637941 -9.03387e-21)
(1.2367 0.0128343 -7.13453e-20)
(1.02349 -0.0527661 1.48079e-21)
(1.2058 -0.435203 0)
(1.00207 -0.00109992 -1.83703e-21)
(-0.132974 -0.017695 -8.9686e-21)
(1.05306 -0.0127322 0)
(0.762163 -0.248861 0)
(0.929067 -0.0872969 3.2076e-21)
(1.0399 -0.0302705 1.85224e-21)
(1.00461 0.0129375 0)
(0.954347 -0.00547776 0)
(1.00968 -0.0124509 4.92339e-22)
(1.3134 -0.0775844 0)
(1.01009 -0.0698619 0)
(1.00494 -0.00758894 -7.59967e-21)
(1.11411 0.000304795 2.82029e-22)
(1.18809 -0.0706747 5.24631e-20)
(1.23392 0.0237114 -3.80272e-20)
(1.31432 -0.156656 0)
(1.0071 0.0474478 1.46676e-21)
(-0.232398 0.0180428 0)
(1.00067 -0.0023191 1.97681e-21)
(0.999475 0.000634076 -3.92133e-21)
(0.00193257 0.0172323 -4.23293e-21)
(0.995184 -0.00865029 0)
(1.25428 -0.297657 -1.31312e-19)
(1.12487 0.0337223 1.6829e-20)
(1.05626 -0.0397976 -1.40436e-21)
(0.99589 -0.00162329 1.2836e-20)
(1.06026 -0.113273 1.75558e-21)
(0.990434 -0.000758451 8.92703e-21)
(1.03698 -0.0142277 2.32927e-21)
(1.08673 -0.00743236 -1.62523e-20)
(1.25251 -0.293822 1.20479e-19)
(1.21512 -0.232854 1.0777e-21)
(0.655005 -0.278369 0)
(1.1212 -0.172298 9.21633e-21)
(1.00046 -0.00318988 4.26846e-23)
(1.11465 0.0217297 -2.52502e-20)
(0.7704 0.0623393 -1.34705e-19)
(1.00664 -0.0115142 0)
(1.11602 0.0339503 0)
(1.06186 -0.027616 1.2749e-20)
(0.328563 0.0676495 2.22149e-20)
(0.953787 -0.0403989 -1.12636e-20)
(-0.0125731 -0.0267713 0)
(1.00218 -0.00102545 0)
(1.19522 0.101043 3.78943e-20)
(1.00001 -0.00022069 -1.41617e-21)
(1.13401 0.0252845 -3.04946e-20)
(1.01385 -0.0342235 -1.23386e-22)
(1.0642 0.0116782 -1.19807e-20)
(1.07558 0.0232346 0)
(1.01768 -0.00202515 0)
(1.03042 0.00138957 -2.87271e-21)
(1.01704 -0.00350959 -2.14011e-22)
(0.826544 0.0740171 0)
(-0.203989 0.00209358 7.01728e-20)
(1.09412 0.00133891 8.80235e-21)
(0.0902659 0.0669618 0)
(0.984694 -0.0219079 -2.50988e-22)
(1.11046 0.000819785 7.33749e-21)
(1.08321 -0.0466387 -2.37089e-20)
(1.17156 0.072184 0)
(-0.0543463 -0.0311569 -6.73304e-20)
(1.09411 0.00133508 0)
(1.01986 -0.00242066 0)
(0.970058 -0.402882 0)
(1.00702 -0.0117665 -2.77575e-21)
(0.98438 -0.0217986 1.78354e-21)
(1.08457 -0.0419514 0)
(-0.309271 0.00767956 -5.62357e-20)
(0.610768 -0.0410356 0)
(1.2863 0.0404835 -9.82934e-20)
(1.06888 0.0367156 1.04633e-20)
(0.714965 -0.20143 9.53243e-21)
(0.948601 -0.0162153 -1.29328e-20)
(1.00545 -0.0265054 0)
(1.21757 -0.416722 6.57032e-20)
(1.00542 -0.00755484 7.35394e-21)
(1.3141 -0.0283146 0)
(1.08419 -0.0291975 0)
(0.999214 0.000261344 0)
(0.428486 0.0946619 2.18771e-20)
(0.339014 0.0594293 8.50876e-20)
(0.99702 -0.00047097 8.47586e-21)
(-0.318267 0.00543609 -1.19605e-19)
(1.04367 -0.0881191 0)
(1.11246 0.0382117 0)
(0.922647 -0.330111 -1.31292e-20)
(1.04384 0.0395966 -1.2433e-20)
(0.300648 0.0602694 7.28805e-21)
(1.24297 -0.351891 -6.052e-20)
(1.00274 -0.000750587 5.06864e-21)
(1.0152 -3.83323e-05 2.89696e-23)
(0.292573 0.0808432 1.35599e-21)
(1.00101 -0.030778 0)
(1.03124 -0.0217663 0)
(1.08611 -0.0291286 2.17242e-20)
(0.999539 -0.0317175 0)
(0.829023 0.0574032 1.66833e-20)
(1.09805 0.0354747 0)
(1.14085 -0.0116802 4.34823e-20)
(-0.0280865 0.0262905 7.74173e-20)
(1.12583 -0.0117455 0)
(1.11306 0.0424806 0)
(1.06142 -0.0278532 -1.51205e-20)
(1.00291 -0.00445048 0)
(1.01552 -0.00145417 2.58369e-22)
(1.00992 -0.00713341 0)
(-0.296689 0.00887081 0)
(0.222795 0.0145755 -8.45028e-22)
(1.10089 0.0247295 -1.78595e-20)
(0.995711 -0.00151125 -1.15827e-20)
(1.01964 -0.00222303 0)
(1.07642 0.0242133 2.14719e-20)
(1.01561 -0.0233032 0)
(1.11748 -0.0368065 -8.7022e-21)
(0.969332 -0.0857631 0)
(1.18336 -0.477525 -3.12088e-20)
(0.414984 0.07291 7.32951e-21)
(1.11766 0.0319267 1.35692e-20)
(1.11409 0.0698989 0)
(1.09944 0.026158 0)
(1.03029 -0.0202456 1.33583e-21)
(1.23537 0.00649799 8.23321e-20)
(1.00577 -0.0263102 -2.97625e-21)
(-0.0487574 -0.0320607 -1.13761e-19)
(1.18339 0.101607 7.88229e-20)
(0.00138459 -0.0344727 7.24615e-20)
(0.989863 0.0793293 5.51974e-20)
(1.05109 0.005736 0)
(1.08704 -0.00669682 1.69404e-20)
(1.10123 -0.623031 -1.47124e-20)
(-0.0344254 0.0223855 8.27335e-20)
(0.0292967 -0.0371011 -6.72823e-20)
(0.789288 -0.0896219 2.75552e-20)
(1.20262 -0.164491 -3.48756e-20)
(-0.282349 0.00773386 1.72368e-19)
(1.00185 -0.00211998 0)
(1.11893 0.0712716 0)
(0.597523 -0.619138 -4.90177e-20)
(1.10746 0.0354798 -1.21739e-20)
(1.00199 -0.00214685 2.26624e-23)
(1.03309 -0.022575 0)
(1.11826 -0.0212582 0)
(0.136906 0.0247463 9.57856e-21)
(0.327795 -0.648376 0)
(1.01584 -0.317364 -1.80473e-20)
(0.98831 -0.00666748 1.91451e-20)
(1.06334 0.00970001 -6.3145e-21)
(0.889341 -0.0519769 4.13264e-20)
(0.265155 -0.235007 -1.04717e-19)
(1.03883 -0.0287678 -1.81815e-21)
(1.2305 -0.318999 -9.36928e-20)
(1.00375 -0.0143395 -4.70062e-21)
(0.985207 -0.0514549 0)
(1.2502 -0.0707483 6.22217e-20)
(1.00658 -0.0112214 0)
(0.99837 -0.00809467 4.07807e-21)
(1.03964 -0.0530592 -3.06458e-21)
(1.00102 -0.0983022 0)
(1.00319 -0.00444358 -5.29618e-21)
(1.02406 -0.0515768 -6.74174e-22)
(1.02236 -0.0052281 -1.06441e-21)
(1.02277 0.0458652 -3.03693e-21)
(1.10977 0.0156088 0)
(0.253625 0.0241861 2.06739e-20)
(1.02564 -0.00479398 0)
(0.868128 -0.199003 0)
(0.9931 -0.00243271 1.51211e-20)
(1.14202 0.0705527 -5.54513e-20)
(1.19014 0.0614586 -2.50577e-20)
(1.02469 -0.161801 7.30229e-22)
(1.00341 -0.014564 4.3467e-21)
(1.05366 -0.00838997 1.43808e-20)
(1.1569 -0.398209 0)
(1.13776 0.0429917 0)
(1.0892 -0.0321015 0)
(-0.194474 0.016372 0)
(1.10756 0.0355352 8.7763e-21)
(0.991726 -0.0217187 -8.19635e-21)
(0.981637 -0.0204921 -9.26598e-21)
(0.343114 0.0232453 -8.15933e-21)
(-0.0844397 -0.0196565 -9.05112e-20)
(1.10274 -0.197761 -2.99766e-20)
(1.01692 -0.00472615 0)
(1.07567 0.0268247 8.61028e-21)
(1.00059 -0.00314407 0)
(1.10811 -0.0523781 -1.41354e-20)
(1.02066 -0.00862821 -8.64552e-23)
(1.31431 -0.181343 -2.61076e-20)
(-0.061939 -0.0234291 -5.43843e-20)
(1.00677 -0.00774144 3.22055e-21)
(1.04023 -0.00321393 3.23737e-21)
(1.30741 -0.0165161 0)
(0.998241 -0.0272413 -3.15243e-21)
(0.858939 0.121576 -3.86338e-21)
(-0.321457 -0.00362525 2.08488e-19)
(1.11285 0.0229457 -1.5234e-20)
(0.965763 -0.0105072 -1.30771e-20)
(0.998908 -0.000545831 2.0633e-21)
(1.02084 -0.00851791 -8.84199e-23)
(1.00207 -0.000770982 3.7831e-21)
(-0.364639 0.00210189 3.78575e-22)
(1.22923 -0.239537 -4.9731e-20)
(1.21709 -0.14634 5.07185e-20)
(1.03326 -0.0506344 0)
(0.0304032 0.0351039 0)
(1.00496 -0.000354886 0)
(0.994906 -0.0156701 0)
(0.65634 0.0530806 -3.22918e-22)
(1.0269 -0.0131709 -1.13852e-21)
(0.277089 0.0892053 2.78294e-20)
(1.01746 -0.00158032 5.06885e-23)
(0.9205 -0.0915061 -2.42094e-20)
(0.951274 -0.0401246 8.25768e-21)
(0.995429 -0.0150542 -7.07428e-21)