/*--------------------------------*- C++ -*----------------------------------*\
| =========                 |                                                 |
| \\      /  F ield         | OpenFOAM: The Open Source CFD Toolbox           |
|  \\    /   O peration     | Version:  v2012                                 |
|   \\  /    A nd           | Website:  www.openfoam.com                      |
|    \\/     M anipulation  |                                                 |
\*---------------------------------------------------------------------------*/
FoamFile
{
    version     2.0;
    format      ascii;
    class       surfaceScalarField;
    location    "300";
    object      phi;
}
// * * * * * * * * * * * * * * * * * * * * * * * * * * * * * * * * * * * * * //

dimensions      [0 3 -1 0 0 0 0];
oriented        oriented;


internalField   nonuniform List<scalar> 
27642
(
-0.176825
0.0393318
0.137493
-0.110956
0.0480924
0.0628637
0.351111
-0.37225
0.0211399
-0.119066
-0.150197
0.269263
0.387968
-0.0368576
0.467672
-0.0316844
-0.435988
-0.0230222
0.0823168
-0.0592946
-0.557476
0.557476
0.494919
-0.397923
-0.0969956
0.430344
-0.381234
-0.0491108
0.338721
-0.575175
0.236453
0.0556192
0.303382
-0.359002
-0.35339
0.494768
-0.141378
0.0957466
-0.0212174
-0.0745292
0.0286824
-0.174925
0.146242
0.361778
-0.306158
-0.241145
0.320313
-0.0791683
0.400679
-0.352206
-0.0484735
-0.242554
-0.0930531
0.335607
-0.506632
0.313393
0.193239
0.349658
0.0510214
0.528563
-0.245982
-0.282581
0.19414
-0.0665132
-0.127627
0.187688
0.27213
-0.459818
0.150456
0.249307
-0.399763
0.0939917
-0.336546
0.554238
-0.313448
-0.24079
-0.0280703
0.00519781
0.0228725
-0.197554
0.41692
-0.219366
-0.223282
0.528045
-0.304763
-0.148143
0.358565
0.136354
-0.0193666
-0.0915894
0.514479
-0.175758
-0.397904
0.119672
0.278232
0.291225
0.168295
-0.459519
0.341128
-0.21515
-0.125978
-0.259754
0.410211
-0.0141557
0.214618
-0.200463
0.441166
-0.0820353
-0.359131
-0.0119033
-0.016167
0.3686
0.13202
-0.50062
0.139069
-0.41773
0.278661
-0.213581
0.199425
-0.235658
0.539849
-0.30419
0.0981136
-0.002367
-0.480616
-0.0268477
0.507464
0.0753426
0.365823
0.265185
-0.0736657
-0.191519
0.265029
0.0865242
-0.351553
-0.0355346
0.179291
-0.143756
0.293965
-0.405751
0.111786
0.148513
-0.472309
0.323796
0.340536
-0.148666
-0.19187
-0.0578355
0.277836
-0.22
-0.230112
0.521337
0.139958
-0.391738
0.25178
-0.00152766
0.00404211
-0.00251445
-0.00602596
0.00742011
-0.00139414
-0.46373
0.307612
0.156118
0.142494
0.187758
-0.330253
0.535759
-0.348896
-0.186863
0.468405
-0.319892
0.124318
-0.122956
-0.00136171
0.250757
0.0144278
-0.287737
-0.0913485
0.379085
-0.0754905
-0.181643
0.257133
0.0676852
-0.355422
-0.538867
0.267727
0.27114
-0.15238
0.150978
0.00140278
0.0863436
-0.316858
0.230514
-0.498509
0.172003
0.326507
0.317381
-0.05261
0.154907
-0.352461
0.248516
-0.532035
0.283519
-0.558032
0.265921
0.292112
-0.208455
0.350949
-0.434662
0.342798
0.091864
-0.418646
-0.0160167
0.071102
-0.252163
0.181061
-0.119589
0.384618
0.380489
-0.538747
0.280863
0.257884
-0.377614
-0.161252
-0.10735
-0.272948
0.380298
0.0537585
0.263622
-0.455526
-0.0250899
0.465653
-0.115995
-0.103498
-0.137583
0.241081
0.0570232
-0.0107915
-0.0462317
0.184988
0.156141
-0.165419
-0.218947
0.384366
0.235388
0.189885
-0.425273
0.326141
-0.165455
-0.160687
0.220525
-0.340114
-0.255054
0.197218
0.239303
-0.256088
0.0167853
-0.159897
0.00751662
0.10581
0.324534
-0.101832
0.266045
-0.164213
0.38284
-0.242883
-0.233665
-0.158073
0.0377094
-0.304451
0.266742
0.339767
0.125886
-0.00636591
0.0558193
-0.0494534
0.25194
-0.0379162
-0.214024
0.148666
-0.156474
0.00780799
-0.102993
0.145571
-0.0425788
0.407494
0.0552625
-0.462757
0.0458141
-0.0536196
0.00780554
0.0435819
0.318196
-0.201025
0.42155
0.181851
0.012289
0.305021
-0.267312
0.497639
-0.139074
0.269353
0.0773782
-0.346731
-0.075051
0.24721
-0.172159
-0.481022
0.0764644
0.404557
-0.298975
0.342557
0.272542
-0.417963
0.145421
-0.130379
0.399732
-0.33359
0.438595
-0.105005
-0.169044
0.433471
-0.264427
0.422965
-0.283895
-0.349428
-0.149081
0.00661684
-0.0754341
0.0688172
0.242693
-0.346421
0.103728
0.397747
-0.125206
0.501653
-0.133053
-0.0160451
-0.0285913
0.0446364
0.208799
-0.542389
-0.087374
0.0829084
0.00446565
0.418975
-0.216671
-0.202304
-0.178169
0.202921
-0.0247515
-0.216821
0.00324062
-0.291246
0.285971
0.00527502
0.22559
0.328649
0.391661
-0.447944
0.0562833
-0.0778709
0.469532
0.0171612
-0.0107671
-0.00639409
-0.227834
0.302801
-0.0749671
0.237486
0.22258
-0.460066
-0.130294
0.340927
-0.210633
-0.0944622
0.0193571
0.0751051
0.156921
0.00591529
-0.162836
-0.266217
-0.1904
0.456617
0.0420531
-0.048419
-0.454965
0.475357
-0.020392
-0.291883
-0.106021
-0.250007
0.487493
0.315103
0.182536
0.230029
-0.165175
-0.0648533
0.596829
-0.359038
-0.237791
0.0107838
-0.0902135
0.0794297
-0.450363
0.308801
0.141562
0.13143
0.194712
0.246681
0.350148
-0.525465
0.20266
0.322806
0.152129
-0.399914
0.247785
0.409901
-0.166283
-0.243618
-0.254369
-0.0368769
-0.0285103
-0.146414
0.165684
-0.0170186
-0.454385
0.100995
0.00268691
0.00264588
-0.00533278
0.388281
-0.33301
-0.0552706
0.170662
-0.0206639
-0.149998
0.217963
-0.323292
0.105329
-0.356873
-0.181873
0.133916
0.283004
0.467672
0.215561
0.203414
-0.448794
0.391074
0.0577199
-0.028132
0.235882
-0.20775
-0.389761
-0.0590327
0.0718611
-0.329278
0.257416
-0.119824
-0.218999
0.338823
0.365232
-0.293371
0.229728
0.168019
-0.13987
0.369598
0.0522359
-7.09569e-05
0.534546
-0.236048
-0.298498
-0.280872
0.227087
0.0537848
-0.0783632
0.0788267
-0.000463461
0.131794
0.272221
-0.404015
0.232178
-0.397597
0.00995544
0.00720574
-0.345038
0.509634
-0.164596
0.177163
-0.177033
-0.000130262
0.345266
0.043015
-0.102732
0.16665
-0.0639183
0.16381
-0.238861
-0.255318
-0.162645
0.236461
0.14638
0.199871
-0.319695
0.0200003
0.150662
-0.233216
0.532998
-0.299782
0.139939
-0.428571
0.288632
0.115274
0.259893
-0.375167
0.179796
0.0248072
-0.204603
0.190419
-0.1877
-0.00271874
-0.245261
0.2169
0.0283615
0.464455
-0.207895
-0.25656
0.457361
-0.21349
-0.243871
0.104811
-0.140346
0.21891
-0.322434
0.103524
0.295347
0.371345
-0.186357
0.260628
0.203827
0.307163
-0.06447
-0.0956156
0.314525
0.185967
0.328512
0.0390494
-0.285935
0.246886
0.00654537
-0.127069
0.120524
0.141183
-0.244681
-0.210062
0.0318927
0.174468
0.0555608
0.120138
-0.367821
0.247682
-0.219774
0.117042
0.457433
-0.419535
-0.0378982
0.112317
0.252915
-0.144978
0.155516
-0.0105376
0.0578307
-0.000807453
0.259497
0.273501
0.340358
-0.301308
0.444504
-0.304565
0.221949
0.0173537
-0.047524
0.0209442
0.0265799
0.155868
-0.2577
-0.299837
0.41511
0.159729
-0.0245195
-0.135209
0.121276
-0.136393
0.0151171
0.236586
-0.462372
0.225786
-0.215032
-0.166201
-0.473289
-0.222756
0.313438
-0.0906821
-0.455966
0.189749
0.102123
-0.221189
0.503813
-0.216445
-0.287369
0.226959
0.230403
0.446831
-0.165122
-0.281709
-0.262961
0.394755
0.00188614
0.175277
-0.257959
-0.0229132
0.169239
0.240662
-0.0835296
-0.22487
0.308399
-0.520134
0.238645
0.281489
-0.308502
0.0845734
0.223928
-0.396874
0.131626
0.265247
0.438132
-0.423374
-0.0147582
0.00159263
-0.00312029
0.166352
-0.468576
0.302224
-0.0449472
0.224743
0.242082
0.0191578
-0.26124
-0.26292
0.498308
-0.241064
-0.100484
0.341547
0.461956
-0.419106
-0.0428507
-0.25235
0.364667
0.468672
-0.153569
0.0356166
-0.0814509
0.0458343
0.411438
0.107448
-0.518886
-0.137942
-0.419534
-0.0551941
0.297277
0.491913
-0.32556
0.106856
0.355101
0.389112
-0.137148
-0.251964
-0.382997
-0.0888058
0.471803
0.149838
0.271457
-0.421295
0.552343
-0.38428
-0.168063
0.159981
0.229131
-0.42355
-0.0147881
0.438338
-0.222158
0.0861748
0.00939235
-0.0955671
-0.00571705
-0.417833
0.222746
-0.233885
0.0111386
0.00232483
-0.000457033
-0.00186779
-0.365988
-0.130481
0.496469
0.393255
-0.053488
0.471126
-0.0800526
0.319071
-0.0819947
-0.237077
0.0132154
-0.116208
0.0772107
-0.0980607
0.02085
0.306052
0.162353
0.45076
-0.235199
0.22792
0.0792439
0.0265124
0.0978058
0.119287
0.351839
-0.333969
0.245095
0.088874
0.328176
-0.204178
-0.123998
-0.170659
0.104742
0.065917
-0.556224
0.169136
0.387088
0.561289
-0.326339
-0.23495
-0.210409
-0.364766
0.152765
-0.342302
0.189537
0.0166774
-0.0327225
0.0915158
0.155694
-0.262613
-0.0541785
0.316791
0.347893
-0.195128
-0.0659298
0.504062
0.336403
0.0568524
-0.509585
0.289046
0.220539
-0.438055
0.0930164
0.142247
-0.0209717
-0.249244
0.173753
0.577089
-0.398941
-0.178147
0.0287733
-0.291386
-0.228832
-0.154019
0.382851
0.13647
-0.407838
0.271368
-0.150358
-0.300005
0.401551
0.175538
-0.233808
0.318381
0.205167
0.191297
-0.396464
0.0682062
0.250865
0.0233546
0.388083
0.0934037
0.246954
0.163553
0.164624
0.164844
0.206501
-0.309856
0.49334
-0.183484
0.190977
-0.48122
0.290243
-0.213939
-0.443194
0.318213
0.124981
-0.438173
0.0721859
-0.222055
-0.224424
0.446479
0.275162
0.138497
-0.413658
-0.22417
-0.282462
0.374316
-0.321309
-0.0530068
0.0014804
0.175567
-0.177048
0.23727
-0.253685
0.347089
-0.39341
0.224366
-0.0932304
0.500725
-0.0457126
-0.00181144
-0.369951
-0.0850141
-0.00741399
-0.00311543
0.0105294
0.467428
-0.279739
0.102655
-0.0670388
0.52956
-0.353863
-0.175697
-0.348923
0.107778
-0.0496342
0.209181
-0.159547
-0.154674
0.198329
0.0162892
-0.34375
0.480211
-0.136461
-0.206859
0.0177602
0.189099
-0.312961
0.450557
-0.137595
0.018005
-0.377043
-0.441602
0.131746
0.335145
-0.12208
-0.213066
-0.272753
-0.0506382
-0.156221
-0.0750633
0.0761552
-0.0010919
0.0980181
-0.295255
0.197237
0.122943
-0.116398
0.0978206
-0.338884
-0.0102065
0.0963813
-0.0409282
-0.053534
0.189652
-0.267497
0.0778454
0.000133653
-0.00615962
0.254557
0.119759
0.0681422
0.0812619
-0.149404
0.34045
-0.105935
-0.234515
-0.138591
0.348746
-0.210155
0.168197
0.177069
-0.299097
0.317102
0.17405
-0.250053
0.0760032
-0.0332207
0.0272858
0.00593492
-0.246659
0.380574
-0.0821537
0.0591316
0.43951
-0.320391
-0.119119
-0.0109273
0.00351328
-0.405116
0.149799
0.0883717
-0.283194
0.194822
-0.116272
-0.214345
0.330617
-0.183035
0.474291
-0.291255
0.358812
0.202075
-0.00670226
-0.0806718
-0.430833
0.331923
0.0989098
0.597768
-0.178715
-0.419052
0.504498
-0.141672
-0.362826
-0.144244
-0.243692
0.387936
0.246814
-0.155299
0.259972
0.182958
-0.44293
-0.265581
0.108187
0.157394
0.172953
0.268483
-0.375832
-0.169766
-0.0300413
0.199808
0.020706
-0.300317
-0.171992
0.364529
0.233239
-0.271919
0.394286
-0.122367
0.20021
-0.296031
0.0958211
0.281857
0.157653
-0.00757132
0.0533854
0.297339
-0.0971295
0.201945
-0.240043
0.211911
0.203724
-0.30819
0.104466
-0.397785
-0.190008
-0.291212
0.17729
-0.166326
-0.010964
0.153401
-0.104471
0.473101
-0.178517
-0.294583
0.558483
-0.430349
-0.128133
0.209447
0.131002
0.2862
0.158304
-0.153113
0.18906
0.28404
-0.00565693
0.106302
-0.100645
0.122112
0.213033
0.00514778
-0.00246088
-0.138395
-0.290175
-0.147636
0.461582
-0.313946
-0.00683368
0.0466106
-0.0397769
-0.0598356
0.0664524
-0.0652387
-0.10542
-0.211024
0.44761
0.424141
0.245632
-0.0363592
-0.209273
-0.270585
0.377814
-0.346311
0.0743927
0.585832
-0.317067
-0.268765
-0.211027
-0.107842
0.318869
-0.129955
-0.465771
0.0985674
-0.148202
0.0850212
-0.0369288
0.380192
-0.136463
-0.243729
0.148368
-0.456229
0.307862
-0.313132
0.102104
0.282192
-0.193821
0.484462
-0.1744
-0.310062
-0.314193
0.244845
0.0693484
-0.467534
0.181829
0.285705
-0.284908
-0.154294
0.439201
0.151214
0.197532
0.254802
-0.0651501
0.263796
0.155568
0.262134
0.15646
-0.418594
-0.481022
-0.134379
0.382895
-0.186849
0.491877
-0.305029
-0.202698
0.161297
0.041401
0.424668
-0.197709
0.0992135
-0.331142
0.231928
-0.292029
0.341182
-0.0491524
0.191884
0.292578
0.286899
-0.453182
-0.222871
-0.0942514
0.317122
-0.000332732
0.000686163
-0.000353431
0.297017
0.232543
0.520706
-0.23304
-0.287666
-0.252144
-0.0818252
-0.00126855
0.000935823
0.391351
-0.359453
-0.0318971
0.455966
-0.307598
-0.292485
0.228813
0.0636718
0.174283
0.294388
-0.0934468
-0.186224
-0.371808
0.0765622
0.00575459
-0.0132728
0.470706
0.437965
0.029205
-0.46717
0.422757
-0.160623
-0.219313
0.499834
-0.280521
0.46132
0.0792758
-0.256558
0.177282
-0.0233088
-0.00991197
0.278024
0.120413
-0.398438
0.225489
0.309057
-0.353866
0.488195
-0.134329
0.167015
-0.480359
0.313343
0.204534
-0.548284
-0.170955
-0.177968
0.0879945
0.0251338
0.366217
0.289869
-0.191851
0.128941
0.428535
-0.256872
-0.0356128
0.253983
-0.39444
0.140457
0.146356
0.0133725
0.432409
-0.0364864
-0.395923
0.234912
0.184107
0.019282
-0.338435
0.319153
-0.141522
-0.191488
-0.062853
-0.311513
0.330795
0.187382
0.237286
-0.0336146
-0.0644461
0.406069
-0.213157
-0.192913
-0.0171766
-0.0367905
0.0539671
0.0133857
-0.456631
0.450914
0.0392252
-0.0564018
-0.0650995
0.0314849
-0.534502
0.0922109
-0.477001
0.38479
-0.444713
0.138431
0.306282
-0.102435
0.219476
0.00128807
-0.036279
-0.0866774
0.466157
-0.123358
0.0110796
-0.0229828
-0.154489
0.379563
-0.225074
0.308712
0.227047
0.482474
-0.190407
0.462536
-0.035993
-0.1004
-0.381838
0.0969305
-0.0595248
0.372918
-0.301249
0.258382
0.13078
-0.389162
-0.0281663
-0.0254533
0.102971
-0.373555
-0.297621
0.156099
0.00524033
-0.00395227
-0.117006
0.292087
-0.175081
0.0203791
-0.341017
0.320638
-0.291134
-0.180602
0.190727
0.168387
-0.166907
-0.00159805
-0.179004
-0.172515
-0.352951
-0.0971318
-0.148129
-0.0985376
-0.261354
0.359892
-0.421718
0.337885
0.0838332
-0.211242
0.471246
-0.260004
-0.154397
0.0519621
0.167988
-0.322477
0.217562
-0.339641
-0.527556
0.265631
0.261925
0.270849
-0.435972
0.335671
0.156241
-0.293531
-0.125115
0.498658
-0.223273
-0.275385
0.141588
-0.373077
-0.181405
-0.261595
0.443
0.474539
-0.2441
0.107142
-0.133545
0.0264033
-0.0775518
0.0984018
-0.114498
0.318222
0.182927
-0.177011
0.174564
-0.252995
0.0784311
0.224101
0.0962124
0.405946
-0.43763
0.0201243
-0.324575
0.00379827
-0.000300826
-0.00349745
0.0492685
0.00296737
-0.399359
-0.02236
-0.278333
-0.193413
0.471747
-0.0853802
0.393853
-0.289985
-0.103868
-0.0162327
0.177501
-0.161268
-0.493999
0.181588
0.312411
0.220865
-0.324274
0.103409
-0.301436
-0.117033
0.418469
-0.208067
-0.319489
0.223622
0.280191
0.551734
-0.328112
0.00489493
-0.00085282
-0.196023
0.194424
-0.180977
0.208113
-0.0271367
-0.182869
0.179566
-0.270399
0.0908331
0.392189
-0.119968
0.148779
0.119241
-0.521846
0.384754
0.137092
-0.00242936
0.0291179
-0.0279745
-0.00114345
0.265769
-0.409818
0.144048
-0.214428
-0.000722369
-0.185726
0.484577
-0.298851
-0.523357
0.206687
0.31667
-0.13671
0.40248
-0.0191825
0.0230969
-0.00391443
-0.265493
-0.184941
0.450434
0.111977
-0.460873
0.194518
-0.472851
-0.0503572
0.0475054
0.00285183
0.370475
-0.250337
-0.0265406
0.0474848
0.405566
-0.312449
-0.0931172
-0.124044
0.382426
-0.160739
-0.37793
0.28404
0.0938897
0.45951
-0.155243
-0.304267
0.288808
0.105045
0.31005
-0.407124
0.0970741
-0.334213
0.112158
0.273749
-0.435443
0.161694
0.088383
-0.270026
-0.44151
-0.00801325
0.449523
-0.314213
0.136244
0.135121
-0.0279791
-0.235634
-0.189389
0.425023
0.150322
-0.410223
0.259902
0.486083
-0.256787
-0.229296
0.411179
-0.0632858
0.405042
-0.151059
-0.1771
0.48715
-0.167042
-0.263604
0.430646
-0.412624
0.17699
0.426807
-0.276969
0.152874
-0.47846
0.325585
-0.300968
0.078097
-0.103367
-0.162214
0.489095
-0.153424
0.19315
-0.231066
0.355236
0.133859
-0.307307
0.460182
-0.0904263
0.207823
0.209415
0.289243
0.260555
-0.431489
0.170934
0.294078
0.192005
0.000434282
-0.000313079
-0.000121203
-0.125704
0.384178
-0.258473
0.0797866
0.167028
-0.152069
-0.341
0.111162
0.229838
-0.178262
0.263596
-0.445001
-0.0590061
-0.295396
-0.193582
0.488978
-0.10413
0.00105627
-0.192224
0.0224577
0.465026
-0.182434
-0.282592
0.189905
0.107435
-0.223609
0.392847
0.282058
0.129121
0.385689
-0.0985914
-0.287098
0.198663
0.172405
0.264229
0.141337
-0.00167781
-0.226156
0.469901
-0.173229
-0.296672
0.231435
0.109492
0.0433873
-0.425009
0.341493
0.0835155
0.152779
-0.472001
0.319221
-0.166197
0.149964
-0.214949
0.308941
0.382862
-0.246392
0.278212
-0.0883077
0.255326
-0.0194447
-0.353624
0.199606
0.494759
-0.177411
-0.317348
0.0967095
0.19316
0.106502
-0.356546
0.250044
-0.279532
-0.0983973
-0.337384
0.00198169
-0.0921952
-0.340548
0.28637
-0.32083
0.112529
0.208301
-0.15774
-0.168706
0.477055
-0.308349
-0.143387
0.414844
-0.460295
0.332895
0.1274
0.348726
0.17932
-0.230479
0.307857
0.396947
-0.414311
0.0173645
-0.149363
0.374038
-0.224675
-0.263685
0.355896
-0.341014
-0.168571
-0.144256
0.439596
-0.29534
0.119654
0.183146
0.220574
-0.022245
0.271612
-0.465797
0.152348
0.521564
-0.368261
-0.153303
0.0166582
-0.345936
0.425282
-0.274961
-0.126528
0.398261
-0.271732
0.494019
-0.347902
-0.146117
0.32341
-0.0560187
-0.267391
-0.476014
0.31912
-0.230896
-0.339213
0.222941
0.0307598
-0.0016419
0.320551
-0.136182
-0.184369
0.152309
0.272973
0.0376387
-0.0875746
-0.149128
0.343667
0.00242198
0.00499812
0.32223
-0.437756
0.115526
0.393106
-0.486336
-0.035425
-0.00409732
-0.0416153
0.486992
-0.345539
-0.141453
0.150347
0.114559
-0.264906
0.253594
-0.173807
-0.367843
0.21848
-0.103542
0.0370285
0.130085
0.250107
-0.11825
0.157582
-0.319109
0.220571
-0.286035
0.11315
0.172885
-0.0789067
-0.261642
0.291496
0.176947
-0.468444
-0.136593
-0.0336283
0.170221
-0.29939
-0.169186
0.32047
-0.488217
0.167747
0.0507259
-0.0235548
-0.380953
-0.044056
0.0478078
0.00146065
0.33669
-0.230188
0.328448
-0.476084
0.395872
0.0010753
-0.383327
0.117834
-0.00884369
0.0978004
-0.0889567
0.133771
0.00847651
0.216355
0.0993228
-0.00186681
0.00345944
0.488845
-0.314562
-0.423082
-0.330019
0.230191
0.0998282
-0.124355
-0.16168
-0.391693
0.128732
0.309107
-0.00937572
-0.299731
0.00193147
0.507884
-0.185281
-0.322603
0.276952
0.135337
-0.41229
-0.324332
-0.0725417
-0.00492491
0.0656699
-0.060745
0.213171
0.00740263
-0.0898552
0.397467
-0.170417
-0.222993
0.215961
0.0933442
-0.309305
0.171752
0.08305
-0.00479797
0.00721995
0.000770397
-0.0480723
0.0473019
0.482416
-0.279057
-0.203359
0.0321949
0.503816
-0.20853
-0.295286
0.357548
-0.192704
-0.0908077
0.262559
-0.427997
-0.0258887
0.453886
0.1455
0.0126484
-0.158149
-0.313353
0.0884833
0.302924
0.200892
-0.170328
-0.267131
0.357172
-0.0900415
0.427081
-0.137404
-0.289677
-0.268978
0.224031
0.0190779
-0.155671
-0.156632
-0.0955314
0.0532865
0.181171
0.266624
-0.447795
0.222345
-0.0477808
-0.314392
0.379187
-0.144407
-0.0724145
-0.0170843
-0.377152
0.394236
-0.292355
0.466065
-0.17371
-0.220337
0.208599
0.0117385
-0.404247
-0.285151
-0.0838369
0.368988
0.160408
0.197139
-0.210898
-0.0630965
0.273995
0.399998
-0.250542
-0.149456
-0.0321093
-0.0818773
0.113987
-0.491795
0.191236
0.300559
-0.0779231
0.305843
-0.0986232
0.21581
-0.117187
0.314072
-0.503531
0.189459
0.46295
-0.156899
0.0472334
-0.339263
-0.39596
0.132754
0.263206
0.455828
-0.112006
-0.343822
0.135569
0.259773
-0.395341
0.278259
0.151553
-0.429812
0.273279
0.147526
-0.420805
0.134193
-0.410556
0.276363
0.280899
-0.467748
0.1039
-0.457766
0.411825
-0.230654
0.249962
-0.461204
-0.0264163
0.0170837
0.00933258
-0.412509
0.178686
0.233822
0.521707
-0.349023
-0.172685
0.212266
0.0953398
-0.307606
-0.469233
0.176878
0.00546836
-0.00408718
-0.00138118
0.37256
-0.221347
0.100278
-0.198901
0.375424
-0.0851739
0.438747
-0.286438
0.184714
-0.474714
0.29
0.256149
-0.13155
-0.124598
0.418525
-0.422873
0.302905
0.289208
-0.192499
-0.260161
-0.170011
0.430172
0.149174
-0.257445
0.108271
0.0491183
-0.260017
-0.362466
0.122737
0.239729
-0.173837
0.47554
-0.301703
0.30547
0.160595
-0.230684
0.352796
0.0956869
0.193521
-0.224561
-0.263599
0.488159
0.100463
-0.347261
0.246798
0.157393
0.298435
0.396417
-0.118157
0.292737
0.156453
-0.44919
0.294974
-0.0790135
0.384353
-0.281287
-0.103066
0.0839867
-0.306742
-0.0831626
-0.141776
-0.111219
-0.317103
0.489069
-0.171966
0.0841406
0.229297
0.0738025
-0.105912
-0.012819
-0.0135973
-0.00370967
0.0498771
-0.0461675
-0.054603
-0.214375
-0.015872
0.0299758
-0.0141038
-0.113668
-0.0266238
-0.193713
-0.173121
0.185072
0.250254
-0.435326
-0.204417
0.40001
-0.126731
0.152493
0.0898411
0.443013
-0.0860561
-0.356957
0.265395
0.013062
-0.278457
-0.140637
-0.379497
0.308189
0.135222
-0.443411
-0.344449
0.424986
-0.0805373
0.167836
-0.36886
-0.16326
-0.0168165
0.180077
0.110516
0.167697
-0.0654545
0.0167306
0.0487239
-0.147854
0.107055
0.0407991
0.361727
-0.124513
-0.237215
0.438757
-0.162418
-0.276339
-0.498068
0.351198
0.14687
0.00112817
-0.375126
-0.0557072
-0.0016563
-0.073407
-0.305693
-0.186102
0.158627
0.296199
-0.52076
-0.0720362
0.380225
-0.16786
-0.0241727
0.192032
-0.0611861
0.326581
0.150297
0.072048
0.0845105
0.255206
-0.339716
-0.407865
0.263609
0.147614
0.214113
0.000958889
-0.00575686
0.00564219
0.00157776
0.10957
-0.422532
-0.181904
0.166608
0.0152954
0.112961
-0.337098
0.224137
0.181929
0.306917
-0.113539
-0.235708
0.349248
-0.461525
0.158469
0.303057
0.132582
-0.434018
0.010241
0.432773
-0.104777
0.0959332
0.537328
-0.33499
-0.202338
-0.0681678
-0.103712
-0.269367
0.373079
0.161404
0.308497
-0.336843
-0.0860301
0.0721244
0.219715
-0.0693683
0.150437
-0.441562
0.291125
0.343771
-0.23081
0.165839
0.483916
-0.302192
-0.181724
0.51088
-0.117774
0.373954
-0.206118
-0.0628403
0.365764
0.0301159
0.19263
0.286393
-0.390105
0.218572
-0.305442
0.08687
-0.1397
0.120407
0.0192924
0.48022
-0.137638
-0.342583
0.0829241
-0.334716
0.251792
0.111205
0.144943
0.231775
-0.456199
-0.460327
0.122418
0.337909
0.211019
0.140583
-0.351602
0.279578
-0.370631
-0.268956
0.142833
0.00352323
-0.0407817
0.037072
0.192989
0.282873
-0.475862
0.386781
-0.199399
-0.305696
-0.136794
0.44249
-0.370093
0.295192
0.0749018
-0.334039
0.233555
0.277596
0.135254
-0.41285
-0.231475
0.319423
-0.0879487
0.157831
0.242167
-0.0823961
0.220465
0.0879343
0.176474
0.307442
0.160509
0.212052
-0.305142
0.185425
0.119717
-0.147998
0.413919
-0.439089
0.159568
0.279521
-0.0534481
0.0542185
0.150674
0.316753
0.448199
-0.297762
0.130232
-0.369494
0.239262
-0.00104568
0.146546
0.357665
-0.281201
-0.376179
0.116018
-0.0410594
-0.161691
0.202751
-0.244928
0.437917
-0.23117
0.314095
-0.144215
0.355234
-0.0154702
0.041487
-0.0260168
-0.307228
0.474244
-0.400881
0.141127
0.231083
0.263734
-0.486123
0.296781
0.189342
-0.210627
0.169568
-0.120961
0.128263
-0.00730196
-0.043459
-0.138445
0.508713
-0.172934
-0.335779
0.154825
-0.481164
-0.307548
0.244826
0.249932
-0.118802
-0.135611
-0.366038
0.510063
-0.144025
0.0812521
0.278141
0.106212
0.323398
-0.0688411
0.37565
-0.264488
0.208954
0.273462
-0.263946
0.283104
0.192911
-0.306971
0.11406
-0.137288
0.374535
-0.237247
-0.511494
0.281235
0.230259
-0.00391464
0.00626862
-0.00235398
0.180023
0.0816133
-0.261636
-0.0897214
-0.0438239
-0.0291234
-0.287648
0.316771
0.360829
-0.276318
0.445693
-0.323275
0.305395
-0.368235
0.461925
-0.267407
-0.198149
0.266355
-0.0784725
-0.319451
0.216828
-0.245952
0.163707
-0.280713
-0.123334
0.215013
-0.247328
0.347792
0.279864
0.241699
-0.106827
-0.00266954
-0.0294773
0.0321469
0.0502264
0.273172
-0.266929
0.34424
-0.0773105
0.161312
0.286886
0.0208746
-0.0156768
-0.0324476
-0.0330069
-0.0623563
0.0545828
0.0077735
0.135827
0.159147
0.10196
-0.107617
-0.00292121
0.0085634
-0.298643
0.205541
0.0931025
-0.00255458
0.00520046
0.452964
-0.291652
0.149145
-0.00631177
-0.452784
0.149511
0.303273
-0.488457
0.280562
0.460583
-0.155112
-0.0770856
0.121306
-0.0442207
-0.481127
0.236606
0.244522
0.070456
-0.00615817
-0.0642978
0.14575
-0.294417
0.404031
-0.0285406
-0.37549
0.278152
-0.497465
0.487688
-0.173616
0.269995
0.237889
-0.256434
0.171955
0.0844791
0.0813476
-0.348478
0.125044
-0.374234
-0.0889454
-0.144939
0.220162
-0.0698655
-0.316707
0.0497776
0.33354
-0.173132
-0.32518
0.106181
0.338918
-0.131986
-0.206932
0.0431314
-0.38758
0.100211
-0.417314
0.143542
-0.426731
0.283189
-0.375286
-0.0527113
-0.162287
-0.250221
-0.0329211
0.46533
0.0782615
0.048166
-0.126428
0.309194
0.138731
-0.447925
0.245478
-0.166202
-0.37016
0.233697
-0.00434656
0.00448021
0.156382
-0.437999
0.281617
-0.452778
0.302341
0.150437
0.0680434
-0.0756147
-0.0176186
0.166026
-0.148408
0.0101893
0.121943
-0.234825
-0.265133
0.367863
-0.331691
0.114584
0.217107
0.0551306
-0.211762
-0.133392
0.0436702
-0.322963
-0.137409
0.460372
0.438528
-0.282146
-0.0493775
-0.0984765
-0.021852
0.440952
-0.18098
0.000489918
0.0675535
-0.147705
0.397012
0.122276
-0.00739379
-0.114882
0.0427546
0.10639
0.174102
-0.464465
0.290363
-0.55326
0.257864
0.284059
-0.517099
-0.0251877
0.429219
0.00320706
-0.00277278
-0.44351
0.16127
0.28224
-0.252752
0.446735
-0.311276
-0.135459
-0.179939
-0.352095
-0.0594844
-0.310609
0.279065
-0.450782
0.171718
-0.358071
0.23971
0.118361
0.148456
-0.465524
0.452621
-0.0781779
0.280541
-0.192026
0.507427
-0.315402
-0.371273
0.310087
0.25968
-0.403499
0.143819
0.309367
-0.11195
-0.197416
-0.459415
0.343122
0.116293
-0.152889
-0.466391
0.283957
-0.1337
0.148283
-0.448646
-0.140129
0.458341
-0.390289
0.0111767
0.379112
0.276329
0.162418
0.169247
-0.0148789
-0.154369
-0.383946
0.0317661
-0.108852
0.00179719
0.00367117
0.241982
-0.256517
0.0145351
0.0721884
-0.222385
-0.00138021
0.170879
-0.169498
0.285859
0.175723
-0.0203937
-0.145932
-0.311461
0.402378
-0.0909174
-0.186048
0.0227878
0.017166
0.199734
-0.114441
0.311381
-0.196939
-0.000136698
0.0308965
0.169183
-0.148564
-0.0206191
-0.00847785
-0.0418794
0.412555
-0.41405
0.00149472
-0.370854
-0.140639
0.114138
-0.00783565
0.31561
0.00451629
-0.320126
0.303556
-0.110645
-0.0808644
0.00784503
0.0730194
-0.0452048
-0.218741
-0.224742
-0.100438
0.181634
0.257123
0.0814396
-0.459054
-0.0766971
0.0851653
-0.00846818
-0.268183
-0.194442
0.462625
-0.394396
0.267868
0.204495
0.0462627
-0.165129
0.395462
-0.230333
0.433524
-0.0209687
-0.335849
0.0458635
0.190324
0.130227
0.300285
0.160297
-0.111658
0.420765
0.238691
-0.240369
-0.151158
-0.256707
0.223294
-0.388423
-0.0768681
0.205306
0.0725297
-0.25197
-0.110496
0.515859
-0.243137
-0.272722
-0.38531
0.25781
0.1275
0.013492
-0.00310583
-0.0103862
-0.281295
0.472636
-0.191341
-0.0573067
0.250456
-0.374415
0.100402
0.274013
0.228254
-0.341794
0.356613
-0.231569
-0.176555
-0.292025
0.46858
-0.10611
-0.353305
-0.0375623
0.353173
-0.327292
0.10255
-0.205805
-0.0114681
0.217273
0.260186
-0.149671
-0.433434
0.266391
0.0376014
-0.00267223
-0.0349292
0.283716
0.147423
-0.431139
0.124675
-0.021458
-0.103217
-0.0778385
0.249793
-0.134291
0.393971
0.408897
-0.251067
0.103934
0.259958
-0.363892
-0.278059
-0.104934
0.382993
-0.10234
0.42457
-0.100768
0.0450094
0.002496
0.145901
-0.163519
0.273756
0.113025
-0.295388
0.446063
-0.0456257
0.0944774
-0.337367
0.24289
0.289906
-0.154079
-0.273983
-0.0682607
-0.303012
0.232983
0.407488
-0.219733
-0.187755
-0.324117
-0.169882
0.133717
0.214298
-0.348014
0.385972
-0.147327
-0.316924
0.22845
0.0884743
-0.225319
0.0211415
-0.140514
0.35687
-0.216356
-0.111106
-0.316166
0.00470526
0.0072851
0.0688701
-0.301662
0.292287
0.0709737
-0.361927
0.290953
0.374336
-0.238768
-0.25422
0.221736
0.0324835
-0.293431
0.475019
-0.270277
0.371625
-0.101348
0.503742
0.16356
-0.16167
0.243057
-0.380504
0.137447
-0.138603
0.385621
-0.363966
-0.0216555
-0.0928764
0.341459
0.292316
0.141684
-0.434
0.27201
-0.447443
0.175433
0.025154
0.360467
0.167761
-0.162005
-0.190201
-0.456757
0.232587
0.211461
-0.334426
0.122965
0.328115
0.156462
0.206945
0.0956167
-0.302562
0.379006
-0.232627
-0.0957382
-0.158482
0.487586
-0.314191
-0.0216573
0.0192495
-0.0111154
-0.379094
0.101035
0.51116
-0.324098
-0.187062
0.206377
0.0795942
0.203144
-0.225725
0.0225806
-0.227227
0.257322
-0.0300955
-0.475957
0.399714
0.0762423
0.135277
-0.267396
0.45211
0.110604
0.234175
-0.344779
-0.467268
-0.122536
0.351153
-0.228617
0.264374
-0.162251
0.188293
-0.411901
0.0995085
0.209858
0.309911
-0.10562
-0.204291
0.386057
-0.143
-0.145626
-0.277395
0.42302
0.0865119
-0.293384
0.206872
0.276562
0.0807261
-0.0769875
-0.00373857
0.368105
-0.264171
-0.386349
-0.0551605
-0.265808
0.180995
0.0848128
-0.436507
0.302562
0.133945
0.444321
-0.172312
0.00402898
-0.343206
-0.145251
-0.198975
0.294662
0.204816
0.306344
0.279676
0.15756
-0.437236
0.0410257
0.0849691
-0.125995
-0.123929
-0.292252
-0.14931
0.314478
0.114147
0.184956
-0.299103
-0.221689
-0.117395
-0.145245
0.26264
-0.227377
0.307814
-0.0804362
0.0890535
0.0356215
0.363664
-0.380749
0.141042
0.249717
-0.390759
-0.367118
0.145452
0.221666
0.179314
0.0742805
0.0348166
0.00278481
-0.0300068
0.0269199
0.00308693
0.0733091
0.146853
0.1289
0.245635
-0.00688888
0.147444
-0.140555
-0.287656
0.407808
-0.120152
0.483764
-0.32236
-0.393094
0.128542
0.264552
-0.125689
-0.263163
0.388852
-0.106428
-0.388582
0.103431
-0.189428
0.0215683
0.452678
-0.206609
0.238697
-0.344219
0.105522
0.233187
0.0961497
-0.329337
0.198261
-0.309515
0.111254
0.466198
-0.174702
0.418482
-0.140885
0.00276467
0.0676913
-0.388493
0.102558
0.252241
-0.377945
-0.148135
0.429157
-0.281022
0.300372
0.193647
0.0361585
0.220048
-0.337453
0.0671761
0.157273
-0.441168
-0.122292
0.294043
-0.171751
-0.132671
0.318097
0.383822
-0.0558816
-0.32794
-0.173257
0.192983
-0.0197259
0.0537333
-0.246747
-0.443618
0.154074
0.289544
0.0473499
0.217024
-0.19302
0.149561
0.294532
0.161434
0.0161614
-0.0443277
0.168424
-0.259173
0.0907484
0.00805193
-0.0384352
0.0303833
-0.165653
0.212432
-0.352946
0.136716
0.272181
-0.0368046
-0.0841561
0.0558636
-0.239094
0.18323
0.284471
-0.313735
0.0292645
-0.289926
-0.162852
-0.248568
0.042763
-0.159398
0.0921713
0.0672269
-0.279741
-0.0431978
0.322939
0.331855
-0.120394
-0.157917
0.35833
-0.200413
0.0335463
0.310526
-0.344073
-0.190615
-0.353384
-0.00701043
0.360395
-0.0346524
0.0238608
0.443693
-0.306753
-0.136941
0.0759835
-0.41408
0.126661
0.287419
0.457234
-0.164497
-0.172268
0.457367
-0.285099
-0.497693
0.199638
0.298055
0.300199
-0.0131382
-0.266603
-0.176747
0.23261
-0.218232
0.445641
-0.227409
-0.264023
0.449519
-0.278313
-0.171206
-0.238338
0.315975
0.164246
-0.000546408
-0.00182539
0.00237179
-0.308819
-0.250476
0.238207
-0.408624
0.151929
0.0561838
0.439747
-0.271816
-0.167931
-0.172682
0.19176
0.456992
-0.442374
-0.0146187
-0.163047
0.283769
-0.120721
0.154669
-0.107604
-0.0470652
-0.0888248
0.278361
-0.189536
-0.00556671
0.294565
-0.467794
-0.390987
0.265298
-0.270676
-0.210451
-0.168057
-0.365599
0.533656
0.238189
0.00744224
0.199598
0.0112361
-0.210834
-0.225193
0.274312
0.129117