/*--------------------------------*- C++ -*----------------------------------*\
| =========                 |                                                 |
| \\      /  F ield         | OpenFOAM: The Open Source CFD Toolbox           |
|  \\    /   O peration     | Version:  v2012                                 |
|   \\  /    A nd           | Website:  www.openfoam.com                      |
|    \\/     M anipulation  |                                                 |
\*---------------------------------------------------------------------------*/
FoamFile
{
    version     2.0;
    format      ascii;
    class       volVectorField;
    location    "300";
    object      U;
}
// * * * * * * * * * * * * * * * * * * * * * * * * * * * * * * * * * * * * * //

dimensions      [0 1 -1 0 0 0 0];


internalField   nonuniform List<vector> 
18598
(
(1.04281 0.0723539 0)
(1.10488 0.0851366 3.40183e-20)
(1.01913 0.00639091 4.00631e-22)
(1.02365 0.0301934 1.84067e-21)
(1.01918 0.00649818 -1.51539e-22)
(1.01751 0.000143246 0)
(0.425767 -0.0157744 0)
(1.00094 -2.17798e-06 -1.54016e-23)
(1.01128 0.00258693 1.11477e-21)
(1.01787 0.00559811 -4.26161e-22)
(1.00564 0.000177776 -8.70669e-24)
(1.0161 0.000813005 -3.79647e-23)
(1.02015 0.000567334 -1.56598e-21)
(0.755349 0.0822576 0)
(1.04932 0.0699102 0)
(1.01593 0.000832039 1.15008e-22)
(1.02366 0.0172419 7.35048e-22)
(0.826335 -0.00532579 0)
(0.852495 -0.0111317 2.5317e-22)
(0.946195 -0.00917997 7.54202e-24)
(0.831947 -0.00612095 -2.13648e-23)
(1.0109 0.0016354 1.65137e-22)
(1.05483 0.0540022 1.31722e-20)
(1.00811 0.000968593 5.99836e-22)
(1.01617 0.00494776 -1.20267e-21)
(0.842004 -0.012822 -2.60585e-22)
(1.00692 0.000524442 -1.89727e-22)
(0.336369 0.0620046 -1.5393e-20)
(1.02615 0.00728406 9.49367e-21)
(1.00861 0.000335079 -6.16063e-23)
(1.04724 0.0718889 0)
(1.01114 0.0025086 -1.41417e-23)
(1.10605 0.0854012 -9.47845e-21)
(1.0058 0.000189375 -9.32003e-24)
(0.834399 0.00268027 -1.47969e-22)
(1.00975 0.000668671 0)
(1.02907 0.0222986 -2.19829e-22)
(1.01596 0.00473555 1.11723e-21)
(1.04736 0.0361319 2.04635e-22)
(1.02701 -0.00161678 0)
(0.348204 0.0608813 1.74259e-20)
(1.00784 0.000694906 9.65468e-23)
(1.01422 0.00446963 -7.21842e-22)
(1.04727 0.0350112 0)
(1.00903 0.000605991 1.13621e-22)
(0.72487 0.0811428 4.70775e-21)
(1.00616 0.000102642 0)
(1.02859 -0.000685373 0)
(1.03635 0.0294906 -3.33852e-21)
(1.0207 0.00868018 2.41241e-21)
(1.04522 0.0591699 0)
(1.02087 0.00912835 6.37023e-22)
(1.01545 0.00371225 -4.89266e-22)
(1.02036 0.0190523 0)
(1.04463 0.00688281 4.29398e-21)
(1.00952 0.000644417 1.08733e-22)
(0.789267 -0.00988791 -2.78258e-24)
(-0.0238706 0.0427548 -1.53987e-20)
(0.065203 0.0258674 1.46081e-20)
(0.837663 0.00428634 0)
(1.0248 0.0124815 -5.59674e-22)
(1.0081 0.000260866 1.37851e-21)
(1.01518 0.00365081 -2.61829e-22)
(1.08443 0.0789059 -1.44965e-20)
(1.03552 0.0295064 1.7736e-22)
(1.01732 0.00645729 5.21984e-22)
(1.03941 0.026739 -5.08368e-21)
(1.01728 0.00651307 -1.01392e-21)
(1.01 0.000379275 0)
(1.0544 0.0714288 -7.1062e-21)
(1.02201 0.0128907 0)
(1.01652 0.00221525 2.25204e-21)
(1.04366 0.00225968 8.72769e-21)
(1.02659 0.00754482 -4.86694e-21)
(1.00807 0.000273497 -2.28979e-23)
(1.00727 0.000207721 3.21559e-22)
(1.02452 0.0121352 0)
(1.0153 0.00395217 -1.04098e-23)
(1.01543 0.00406163 1.23543e-21)
(1.05467 0.0242199 -7.15729e-21)
(1.0205 0.00847125 -3.73693e-21)
(1.02068 0.00889487 0)
(1.00599 0.000184436 4.4793e-22)
(1.00994 0.000383289 -1.72388e-21)
(1.02469 0.000687274 5.35023e-21)
(1.04319 0.00255755 -8.60191e-21)
(1.0066 0.000155079 0)
(0.825557 -0.00908174 1.35696e-22)
(0.729018 -0.000537196 1.35655e-22)
(0.468296 0.0748216 7.2334e-21)
(1.02852 0.0220553 -2.71214e-21)
(1.0189 0.00908459 0)
(1.01818 0.00166885 5.30251e-21)
(1.0355 0.0142396 -1.23767e-20)
(1.02053 0.00827976 0)
(1.04537 0.00727635 0)
(1.03797 0.0294398 -8.40164e-21)
(1.05492 0.0711126 7.60928e-21)
(1.01774 0.00536551 3.05649e-22)
(1.03218 0.0226356 0)
(0.798353 -0.00809815 -3.8882e-24)
(0.788814 -0.0104319 5.04731e-23)
(1.01886 0.0118244 -4.11393e-24)
(0.828582 -0.0103473 -7.75411e-23)
(0.359486 -0.0177317 0)
(1.02763 0.0298438 -1.35439e-21)
(1.0603 0.0647375 1.85116e-20)
(1.08611 0.0657461 1.61893e-20)
(1.00652 0.000237117 1.71681e-23)
(0.357613 0.0480288 0)
(1.01591 0.000728004 -6.07944e-23)
(1.0203 0.00806042 -1.44299e-21)
(1.05333 0.0542737 0)
(1.01824 0.0114581 -3.59126e-23)
(1.01123 0.00254083 -7.31307e-22)
(0.900141 -0.0088048 -2.96614e-23)
(1.0534 0.0213509 7.18669e-21)
(1.00131 -1.07955e-05 -5.00102e-23)
(1.01574 0.00074285 -2.21483e-23)
(1.01477 0.00438355 0)
(0.915977 -0.00685369 0)
(1.01493 -0.00153078 1.95785e-25)
(0.837661 -0.0061293 2.92705e-23)
(1.01404 0.00432112 7.22251e-22)
(1.01671 0.0022473 0)
(0.429341 -0.0115551 -1.1452e-21)
(0.758499 0.0167025 0)
(1.01478 0.00446892 -9.24701e-22)
(1.00768 0.000656073 9.24398e-23)
(0.466285 0.0751108 -2.69309e-20)
(1.01484 -0.00169663 -1.33731e-23)
(0.838646 0.0910634 -8.5764e-22)
(1.02003 0.0120545 7.92578e-24)
(1.06569 0.0214048 0)
(1.0481 0.0345643 3.60561e-21)
(1.02615 0.0286196 0)
(1.00689 0.000510857 0)
(1.00959 0.000318846 -9.93236e-23)
(1.00978 0.000324078 9.56509e-23)
(0.111704 0.0139846 6.16912e-23)
(1.05289 0.00965794 0)
(1.0093 0.000345713 -5.56431e-23)
(1.02461 0.0171481 -1.76583e-21)
(0.818822 0.0899453 -1.42807e-20)
(1.04653 0.0522471 -5.09583e-22)
(1.01195 0.000864237 -2.77431e-22)
(0.331585 -0.0111731 2.19777e-22)
(1.00576 0.000115234 0)
(0.833343 -0.000796235 1.58916e-23)
(1.00908 0.000336514 0)
(1.01112 0.00247472 7.34479e-22)
(0.991055 0.0612982 1.39431e-21)
(1.01482 0.000808557 -2.00946e-22)
(1.00344 0.0910536 -1.91722e-20)
(1.01519 0.00305613 1.96994e-22)
(1.03493 0.0142824 5.39779e-21)
(1.01487 0.000776375 -9.88742e-23)
(1.01474 0.00269469 -5.51526e-24)
(1.02194 0.00801389 0)
(1.01633 0.0058678 0)
(1.02674 0.0287787 -3.09397e-22)
(1.05067 0.0695724 -1.53672e-21)
(1.05935 0.0634168 -1.57172e-20)
(1.01962 0.000510756 0)
(-0.0747622 0.0227548 0)
(0.993836 0.0124961 0)
(1.04479 0.0564187 -2.16086e-21)
(1.03461 0.00539324 0)
(1.00593 0.000171297 1.5205e-22)
(1.02575 0.00732296 0)
(1.01132 4.98292e-05 0)
(1.01997 0.0119843 -7.48134e-24)
(1.02956 0.00412413 0)
(1.02131 0.0334725 1.68111e-22)
(1.02732 0.00316472 0)
(1.02323 0.00269189 2.51815e-22)
(1.02037 0.0132851 0)
(1.02116 0.00377748 -2.45696e-22)
(1.01459 0.00437336 -6.17264e-24)
(1.01458 0.00441226 -9.5969e-22)
(0.652606 0.0818504 3.28546e-21)
(1.00492 0.000132969 7.91137e-24)
(1.03698 0.0206669 6.06709e-21)
(0.735079 0.0889838 1.80058e-20)
(1.02431 1.20196e-05 -7.04151e-21)
(1.01887 0.00903908 0)
(0.117975 0.0131966 0)
(1.0089 0.000206363 -6.26316e-22)
(1.04839 0.0478255 0)
(0.999892 0.0118217 9.04007e-24)
(1.04353 0.0514108 1.17932e-20)
(1.05425 0.0221608 7.46498e-21)
(1.01496 0.00448906 9.98115e-22)
(0.800371 -0.00702181 -6.61842e-23)
(1.0203 0.0134499 0)
(1.04385 0.0554818 8.93348e-21)
(1.01058 0.00155279 1.63126e-22)
(1.01753 0.00459353 0)
(1.00977 0.000347268 0)
(0.820107 0.0258819 -1.02739e-22)
(1.05067 0.0484333 0)
(1.0596 0.0127447 0)
(1.01511 0.00175503 0)
(1.01971 0.0114641 -1.70911e-22)
(1.04483 0.0603275 0)
(1.03445 0.00609547 5.91858e-21)
(1.01085 0.00160179 1.68459e-22)
(1.02848 0.0213613 2.82775e-21)
(1.01504 0.00169944 0)
(0.749533 0.0148746 -1.04635e-22)
(1.03468 0.00656869 -2.73012e-21)
(1.00576 0.000188072 6.67981e-24)
(1.01862 0.00862221 -9.76075e-22)
(1.08877 0.0523299 -1.68533e-22)
(0.724663 -0.00326611 -1.33855e-22)
(1.06681 0.0215725 3.77473e-21)
(1.00047 0.0594366 2.45237e-22)
(1.02376 0.00294282 2.03971e-23)
(1.0443 0.0506754 -7.81221e-21)
(1.00365 -5.26251e-06 1.06958e-22)
(1.02164 0.00353791 -1.30724e-23)
(1.05693 0.0624689 -8.43313e-21)
(0.487115 0.0749368 -2.93147e-21)
(1.01053 0.00152588 -1.72663e-22)
(1.01851 0.00852873 -8.31869e-22)
(1.01749 0.00449256 4.62477e-22)
(1.03746 0.0289461 8.43996e-21)
(0.374913 0.0644325 -5.44232e-21)
(1.03235 0.0232599 -3.68139e-21)
(1.00999 0.000346772 0)
(1.06215 0.0515499 0)
(0.940437 0.0758782 2.87281e-22)
(1.01791 0.000633394 2.22577e-21)
(1.01793 0.00565205 4.71106e-22)
(1.00884 0.000345222 -3.20756e-23)
(1.03863 0.00352772 0)
(1.01173 0.000865565 1.54789e-22)
(1.02352 0.0307673 -1.50172e-21)
(1.00509 0.000113726 2.0186e-25)
(1.01961 0.0113358 -2.14482e-22)
(1.0126 0.00248927 7.60355e-22)
(1.02393 8.67871e-05 7.3075e-21)
(1.04735 0.0478812 0)
(1.03767 0.0209287 -4.737e-21)
(1.01614 0.0057558 0)
(1.0414 0.00810933 0)
(1.01955 0.000485828 0)
(1.0217 0.0123801 3.0479e-21)
(1.01672 0.00633749 -8.88109e-22)
(1.00541 0.000182856 3.00934e-24)
(-0.0128165 0.0446363 0)
(1.01531 0.0033823 2.3217e-22)
(0.854906 0.0301883 -1.67011e-23)
(1.01997 0.0229561 0)
(1.01788 0.00151584 -2.51631e-21)
(1.02166 0.011162 2.23009e-21)
(1.0137 0.00315608 -1.70265e-21)
(1.0203 0.00392655 3.5167e-23)
(1.01122 0.00250421 0)
(0.613615 0.0703756 0)
(1.01078 0.000208605 4.33551e-24)
(1.00162 -3.44759e-08 -1.88769e-22)
(1.01948 0.0227148 0)
(1.01503 0.00332838 -4.69451e-22)
(1.01355 0.00308824 -9.63213e-22)
(1.01237 0.00356969 5.18956e-22)
(1.01138 0.000330865 -1.84764e-23)
(1.01369 0.00401977 2.1829e-21)
(1.00917 0.000598688 1.07922e-22)
(1.01213 0.00510467 -2.7811e-23)
(1.01085 0.000328898 -9.11681e-23)
(1.02197 0.0126439 -1.44892e-21)
(0.575669 0.052312 5.13013e-22)
(1.01069 0.000319977 9.68924e-23)
(1.0524 0.0266595 0)
(0.00342909 0.0256803 -1.65446e-20)
(1.01178 0.000528155 0)
(0.823504 -0.0127913 -5.15281e-23)
(1.0251 0.00607163 0)
(1.02042 0.0247614 3.05502e-22)
(1.0868 0.0644361 -2.35463e-20)
(1.06981 0.0891884 0)
(1.01509 0.00357151 7.56092e-22)
(1.01989 0.0118066 0)
(0.75271 0.0130838 0)
(1.08289 0.0786392 -1.15309e-20)
(1.02608 0.00701874 -2.22634e-22)
(1.03302 0.00201439 -2.43805e-21)
(0.744309 0.0167548 1.42851e-24)
(0.600544 0.0059432 0)
(1.00934 0.000564393 -1.91971e-22)
(1.02255 0.000587782 0)
(1.00567 0.000176911 9.39265e-24)
(1.01893 0.00907786 0)
(0.434236 0.0712699 3.30674e-20)
(1.05235 0.021585 6.7168e-21)
(1.01836 0.0191792 0)
(1.01887 0.00903662 2.8028e-22)
(1.00551 0.000187163 3.56828e-25)
(0.826976 -0.0129523 -4.98849e-24)
(1.01223 0.000628502 6.35076e-22)
(1.00758 7.56075e-05 0)
(0.968741 0.0742517 0)
(1.03963 0.0275416 5.91335e-23)
(1.00929 0.000588487 0)
(1.01828 0.0194775 3.39989e-23)
(1.02003 0.00676486 -3.09493e-21)
(1.01388 0.00386415 0)
(1.01529 0.00311677 0)
(1.0092 0.000573963 9.79963e-23)
(1.02163 0.0121078 -1.43078e-21)
(1.01382 0.00304732 9.07787e-22)
(1.01936 0.0255574 -2.97481e-22)
(1.01095 0.000174905 2.92059e-25)
(1.01832 0.00830299 1.70862e-21)
(0.742965 0.0165268 -1.34605e-24)
(1.02806 0.0210632 2.82147e-21)
(1.00544 9.60539e-05 -3.23925e-22)
(0.836045 0.00908239 0)
(1.01383 0.00310963 -3.19712e-23)
(1.0175 0.00498043 3.72475e-22)
(1.01176 0.00045386 -5.9178e-22)
(1.00545 8.36796e-05 6.15802e-24)
(1.01514 0.00439101 -6.3931e-23)
(0.946952 -0.00832473 3.47577e-23)
(0.953503 0.0104769 0)
(1.05494 0.0314383 -6.60493e-22)
(1.0198 0.0117009 1.70397e-22)
(1.01822 0.00814137 8.76223e-22)
(0.828852 -0.007671 8.0128e-23)
(1.00664 0.000241984 -1.49401e-23)
(0.364813 0.063883 0)
(1.00669 0.000153986 0)
(0.11112 0.0565773 -1.61202e-20)
(1.00793 0.000926271 -3.17104e-22)
(0.669903 0.0732369 -9.29736e-21)
(1.02002 0.000517259 -3.0233e-21)
(1.02396 0.0172502 -3.95872e-22)
(0.99509 0.0418517 1.70968e-22)
(1.00942 0.000577848 -2.0344e-22)
(1.04646 0.0365362 6.80592e-21)
(1.00845 0.000273827 -2.76975e-24)
(0.64876 0.00413993 4.82084e-22)
(1.01567 0.00322907 4.23754e-22)
(1.01502 0.000798667 2.24757e-22)
(1.00427 6.56139e-05 0)
(1.02999 0.00742157 -1.92077e-21)
(0.837277 0.00834674 -1.72239e-22)
(0.654873 0.00609023 -5.1564e-22)
(0.714935 0.0875391 -1.22838e-20)
(1.03594 0.0209069 0)
(1.08943 0.0538768 1.74513e-22)
(1.02179 0.0111076 0)
(0.611541 0.0535997 -5.02406e-22)
(0.833948 0.0910693 0)
(1.04984 0.0117107 -1.13885e-20)
(0.0552815 0.0252248 0)
(0.966005 0.00886421 -1.99022e-22)
(1.04298 0.0620431 0)
(1.02648 0.0177648 1.00505e-21)
(1.02052 0.0182228 -5.07168e-22)
(0.996702 0.00789581 0)
(1.01523 0.000772088 1.02264e-22)
(1.05038 0.0104978 1.22661e-20)
(0.222934 0.0254201 2.63779e-22)
(1.02533 0.00703362 5.12166e-21)
(0.470541 -0.0212339 1.24198e-21)
(1.01453 0.00463645 8.92352e-22)
(0.140723 0.058086 0)
(1.01494 0.00438817 -9.33959e-22)
(1.04359 0.00841006 0)
(1.02368 0.0160344 0)
(1.01232 0.00228548 7.40067e-22)
(1.02011 -0.000177665 2.61238e-21)
(0.81784 0.0910583 1.44345e-20)
(1.01302 0.00289166 2.37244e-21)
(1.00491 -1.37563e-05 7.58566e-22)
(1.01466 0.0046592 7.75564e-22)
(1.0198 0.0063521 3.28821e-21)
(1.05157 0.0208293 0)
(1.01484 0.00185474 1.07739e-22)
(1.01994 0.0258359 -1.97368e-22)
(1.04299 0.0608172 0)
(1.0251 0.000695863 -2.74379e-21)
(1.06397 0.0246139 3.43376e-21)
(1.05784 0.0637495 9.0191e-21)
(1.01553 0.0037983 1.06378e-21)
(1.00473 5.91497e-05 1.62457e-21)
(1.01866 0.0108727 -2.38901e-22)
(1.02747 0.0162519 0)
(1.01438 0.00453591 0)
(0.38914 0.051285 2.81283e-21)
(1.02722 0.0164395 -1.48444e-21)
(1.02022 0.0185646 9.57455e-22)
(1.02196 0.0325268 2.6083e-22)
(1.03695 0.00420501 -9.64648e-21)
(1.01118 0.000320194 0)
(0.837328 0.0124874 0)
(1.05131 0.0677312 0)
(1.00907 0.000584721 -2.29133e-22)
(1.03488 0.00583998 -3.57582e-22)
(1.01223 0.000670994 -8.06452e-23)
(1.00337 3.10989e-05 0)
(1.02616 0.0174487 3.54252e-22)
(1.01749 0.00426653 6.45423e-24)
(0.972761 0.0112131 0)
(1.01217 0.000622741 7.65876e-23)
(0.517685 0.00748943 -1.13736e-21)
(1.02956 0.00755757 5.41315e-21)
(-0.0778629 0.024185 0)
(1.01755 0.00487761 1.35918e-22)
(1.01745 0.00111934 1.33753e-21)
(0.537031 0.0786443 4.23075e-20)
(0.405373 -0.00441776 4.0125e-21)
(0.598797 0.00597578 -1.31961e-21)
(1.0163 0.000631342 0)
(1.02179 0.00221079 0)
(1.02975 0.0279045 -5.60047e-21)
(0.836777 0.00531622 -2.92011e-23)
(1.01894 0.0108166 2.31073e-22)
(1.00593 0.000193226 6.53789e-23)
(1.02974 0.00907193 -8.3521e-21)
(1.01514 0.00449381 0)
(1.00926 0.00062926 -1.80786e-22)
(0.960439 0.0422158 -1.90487e-22)
(1.10251 0.0832544 -3.86205e-20)
(0.808503 -0.003697 -1.03553e-22)
(1.0215 0.000247933 -1.93945e-21)
(1.02971 0.00871455 4.07787e-21)
(1.04282 0.00806079 7.82759e-21)
(1.01301 0.000883609 0)
(1.04179 0.00527677 0)
(1.01285 0.00290113 -7.42218e-22)
(1.02107 0.000190023 3.46827e-21)
(1.02044 0.0177889 0)
(1.05006 0.0125135 1.29811e-20)
(1.01243 0.00243133 -7.62087e-22)
(1.00895 0.000590028 1.21809e-22)
(1.00884 0.00127196 1.19488e-21)
(1.00069 -7.88259e-06 -9.20713e-23)
(1.00644 7.73213e-05 4.738e-22)
(1.00815 0.000303292 5.63513e-23)
(0.904249 0.0417403 0)
(1.01954 0.0110872 2.1323e-22)
(1.02225 0.0119989 1.75522e-21)
(1.02212 0.0143094 1.2971e-21)
(1.01291 0.000836116 0)
(1.01653 0.00609721 0)
(1.02012 0.0125155 0)
(0.0103702 0.00529744 -3.12472e-20)
(1.0199 0.00055938 1.1118e-23)
(1.0057 0.000301412 -2.80396e-22)
(1.03336 0.00168598 0)
(0.00737822 0.010778 4.26424e-21)
(1.01534 0.00535085 -1.31493e-21)
(1.02125 0.000254807 0)
(1.04195 0.00420519 1.16428e-20)
(1.01111 0.00244205 7.42923e-22)
(1.05066 0.0112417 -1.30364e-20)
(1.00727 0.000210915 0)
(0.41673 -0.0120722 1.34124e-21)
(1.00299 7.62263e-06 -1.16444e-22)
(1.01144 0.000147044 0)
(1.00887 0.0013129 -4.00819e-22)
(1.00649 0.000433537 0)
(1.01131 0.00014493 -2.51821e-25)
(1.04454 0.0139569 0)
(0.22637 0.0306125 -8.77482e-21)
(1.0235 -0.000485274 0)
(1.00488 0.000133494 6.8141e-24)
(1.00751 0.000277927 1.83227e-22)
(1.02005 -0.000105258 0)
(1.00866 0.000278366 3.95425e-24)
(1.02431 0.0176368 -2.85649e-21)
(1.04276 0.0910641 0)
(1.01521 0.0052575 1.36412e-21)
(1.03565 0.0201749 0)
(1.00154 1.52947e-05 1.50052e-22)
(1.04256 0.00383556 -4.94407e-21)
(1.0192 0.0085474 -2.39319e-21)
(1.06084 0.0521037 4.91421e-21)
(1.01319 0.000421036 -2.3935e-23)
(1.05395 0.0231993 1.51391e-23)
(1.01451 0.00456648 8.89917e-22)
(1.00381 8.1273e-05 -1.15288e-23)
(1.00512 0.0151041 -2.25887e-22)
(1.0456 0.0509513 -1.6313e-22)
(1.00448 4.96537e-05 -1.35684e-23)
(1.01942 0.0109183 2.64423e-22)
(1.06529 0.0889482 2.36748e-20)
(0.7905 -0.0074424 -2.24271e-22)
(0.506226 0.0716683 -4.87571e-21)
(1.04952 0.0488282 0)
(1.01033 0.000333175 -9.36303e-23)
(0.551598 0.07328 -5.03671e-22)
(1.03982 0.0882903 -5.23086e-20)
(1.01014 0.000319564 6.09543e-23)
(1.01609 0.000276536 0)
(1.02053 0.00901066 0)
(1.04389 0.0488526 -1.17178e-22)
(0.171772 -0.0264826 2.20417e-20)
(1.08561 0.0781078 1.50565e-20)
(1.01544 0.00391948 -5.64159e-22)
(0.375796 0.060952 2.10171e-20)
(1.03109 0.00501837 -1.77486e-21)
(1.00812 0.000251568 6.44503e-22)
(1.00957 0.000339836 6.23385e-23)
(1.00822 0.000972928 -9.52206e-22)
(0.963792 0.0771524 1.35798e-21)
(1.02029 0.000145871 -3.56608e-21)
(0.95794 -0.00879633 0)
(1.02464 0.0175359 3.76793e-21)
(1.02288 0.00201016 0)
(0.367583 0.0509314 0)
(0.831182 0.00354755 7.82942e-23)
(1.0167 0.0135132 4.71545e-22)
(0.0964015 -0.0153255 -2.70004e-21)
(1.00124 0.0118476 3.42713e-22)
(1.00524 6.14534e-05 0)
(1.00479 6.42926e-05 9.38021e-24)
(0.651114 -0.00640482 2.38251e-22)
(1.05527 0.0324725 6.3621e-21)
(0.639026 -0.00519421 2.06095e-22)
(1.0152 0.00314128 -2.8736e-23)
(1.06004 0.0119074 -2.21394e-20)
(1.01792 0.0074409 -1.03028e-21)
(1.02199 0.00887287 -1.65041e-22)
(1.01474 0.00179414 -2.18201e-23)
(1.04466 0.0479678 0)
(1.03171 0.00515873 -1.04172e-21)
(1.03052 0.00766405 0)
(1.00551 9.0962e-05 -1.06963e-23)
(1.01273 0.00264036 0)
(1.01493 0.00326415 -4.40886e-22)
(1.01537 0.00410358 -3.74512e-22)
(1.00627 0.000392359 0)
(0.839235 -0.00305193 8.26604e-23)
(1.02008 0.00657687 2.49433e-21)
(1.01011 0.00177603 -3.97413e-22)
(0.845824 0.0156036 -3.74577e-23)
(1.08066 0.0556643 -1.6586e-20)
(1.09163 0.0884517 -1.96657e-20)
(1.03729 0.00471641 6.56961e-21)
(1.04591 0.0535086 5.7311e-23)
(0.726886 0.0105672 0)
(1.0234 0.0168159 8.09347e-22)
(1.0206 0.000305205 2.646e-21)
(1.01996 0.0124798 0)
(0.0146406 0.047838 -8.84588e-21)
(0.627269 0.0799368 -1.28628e-20)
(1.02317 0.00928379 7.06462e-23)
(1.00709 0.000633122 2.34135e-22)
(1.0423 0.0049523 0)
(1.02257 0.00798412 2.64346e-21)
(1.03341 0.045325 0)
(1.00825 0.00030092 7.78837e-23)
(1.02086 0.0144034 9.82984e-22)
(1.00996 0.00141442 0)
(1.00549 9.37704e-05 2.30335e-23)
(1.00509 0.000110575 -1.41738e-23)
(1.00531 0.000108417 0)
(-0.0405722 0.0386551 -3.85219e-20)
(0.631474 -0.000721697 1.47939e-21)
(1.04298 0.0356145 0)
(0.756622 0.0174251 -1.96159e-22)
(0.751466 0.0114345 9.53124e-23)
(1.02458 0.000227976 4.36647e-21)
(1.05016 0.0679722 1.48307e-21)
(1.02445 0.000455053 0)
(1.0087 0.00032074 -5.95947e-23)
(1.02695 0.0296894 -1.69699e-22)
(0.217237 0.0154017 3.44435e-21)
(1.02044 0.00202679 0)
(1.02934 0.0228621 -2.09494e-21)
(1.01782 0.00116466 2.6368e-21)
(1.00885 0.000315954 0)
(1.0205 0.00219541 -2.07699e-21)
(0.185173 0.0365742 0)
(1.01413 0.000449306 0)
(1.00698 0.000235166 -9.55656e-22)
(1.00704 0.000597462 7.32782e-22)
(0.53493 0.0792396 -9.2977e-21)
(1.02215 0.00376074 -1.84256e-23)
(0.415986 0.0691761 4.98155e-21)
(1.01922 0.00980666 8.22294e-22)
(1.02303 0.00221674 1.27593e-21)
(1.00441 -2.07517e-05 -6.84526e-22)
(0.842817 0.00555164 3.65711e-23)
(1.02597 0.00301032 2.06708e-22)
(1.0223 0.00789607 2.22899e-21)
(1.01154 0.00175136 0)
(1.0055 6.90377e-05 -9.71522e-24)
(1.00925 0.00136954 9.62423e-23)
(1.03993 0.0261892 0)
(1.0065 0.000127362 6.4503e-22)
(1.02437 0.0180915 1.83733e-21)
(1.07974 0.0563017 1.70782e-20)
(1.00914 0.00142584 -6.24131e-22)
(0.927915 0.00450324 4.98392e-22)
(1.01302 0.0013116 1.90239e-22)
(1.01882 0.00884335 -1.41586e-22)
(1.01918 0.00863882 2.40461e-21)
(1.01136 0.00170719 4.30931e-23)
(1.01417 0.00174818 1.09643e-22)
(1.0091 0.00137031 8.22312e-22)
(1.01352 0.00387107 -1.42698e-21)
(1.02401 0.00279524 1.10002e-22)
(1.02012 0.0126265 -1.17679e-22)
(1.02 0.0264427 1.50503e-22)
(1.01513 0.00325271 4.40103e-22)
(1.0281 0.0293615 1.59629e-21)
(1.01502 0.00318656 4.038e-22)
(1.02195 0.00286597 -1.65685e-22)
(0.635111 0.000262059 -1.29288e-21)
(1.00624 0.000382636 0)
(1.00916 0.00136642 7.49188e-22)
(1.01302 0.00128351 0)
(0.00609097 -0.00121385 -2.25083e-20)
(1.01815 0.00751539 2.23376e-21)
(1.05055 0.021024 -6.67567e-21)
(1.00919 0.0014154 -1.69872e-21)
(1.01825 0.0101785 0)
(0.630162 0.000869823 -1.51234e-21)
(1.01031 0.0018451 5.3616e-22)
(0.761865 0.0897979 -1.65866e-20)
(1.01287 -0.000137698 -1.04593e-24)
(0.917343 0.0432045 0)
(-0.0018477 0.0188265 9.45791e-21)
(1.06522 0.0248436 0)
(1.00735 0.000717588 -2.56797e-22)
(1.02677 0.0161565 0)
(1.01595 0.0055742 0)
(1.01879 0.00859755 0)
(1.01909 0.00956141 3.54165e-22)
(1.04218 0.00843936 0)
(0.790678 -0.0083693 4.89805e-23)
(1.01915 0.0095933 0)
(1.05272 0.00886683 0)
(1.02456 -0.00121236 5.8453e-23)
(1.02426 0.0167624 -1.70261e-21)
(1.01903 0.00938037 0)
(1.02128 -0.000224893 0)
(1.01878 0.00356613 3.82335e-23)
(1.034 0.0444695 -2.35452e-21)
(0.831681 -0.0136085 -8.55246e-23)
(1.0137 0.00377507 -1.33283e-21)
(1.02657 0.0163087 0)
(1.0202 0.0336707 -7.7696e-23)
(1.02027 0.00699942 1.71831e-21)
(1.01613 0.00133245 0)
(1.03493 0.0199957 -5.32526e-21)
(1.02137 0.00762734 -5.55416e-21)
(0.837837 0.00466895 -9.883e-23)
(1.0176 0.00519311 -3.49263e-22)
(0.985934 0.0914472 3.60621e-20)
(1.01865 0.0191818 9.04345e-23)
(1.0204 0.0174737 -4.3786e-22)
(1.00927 0.00141438 0)
(1.01939 0.00224904 8.93896e-23)
(1.0137 0.00406573 1.45983e-21)
(1.0214 5.63841e-06 0)
(1.00856 0.000326449 0)
(0.882414 -0.00972342 0)
(1.01916 0.00199882 0)
(1.01395 0.00281445 1.18684e-21)
(1.01922 0.000140754 0)
(1.01224 0.000657838 1.88405e-21)
(0.905094 0.00578008 2.49046e-22)
(1.05211 0.0101412 1.16152e-20)
(1.04547 0.0356763 -7.28902e-22)
(1.00726 0.000697424 -2.4614e-22)
(1.00705 0.000553985 4.04819e-22)
(1.00512 4.54702e-05 0)
(1.01889 0.00299917 -3.52503e-22)
(0.961315 0.00301397 0)
(1.02278 -0.000156083 -2.23905e-21)
(1.00454 9.72628e-05 1.76747e-23)
(1.01966 0.0188792 0)
(1.02054 0.00214541 8.53404e-24)
(0.757824 0.00840172 0)
(1.02369 0.0164294 8.62429e-22)
(0.21849 0.00905343 -6.23334e-21)
(1.0335 0.0119246 0)
(0.966711 0.000837712 -1.79563e-22)
(0.540455 -0.0146836 0)
(1.01196 0.000447561 -2.6905e-21)
(1.00534 0.000101995 0)
(0.0674734 0.0187165 -1.38197e-20)
(1.01517 0.0018126 -2.25674e-23)
(1.00688 0.000245302 0)
(0.500124 0.0758391 1.18176e-22)
(0.395712 0.0681783 0)
(1.01625 0.00425462 0)
(1.04714 0.0140778 -1.47696e-20)
(1.04982 0.0203041 6.45749e-21)
(1.0139 0.00272909 0)
(1.05528 0.0531435 -1.28914e-20)
(0.81126 -0.00182405 4.55773e-23)
(1.0246 0.0738017 0)
(1.01784 0.00733577 2.44912e-21)
(1.03185 0.0334215 -2.5758e-21)
(1.01891 0.0195265 8.22459e-23)
(1.00595 0.00016042 0)
(0.639992 0.0216552 2.75728e-21)
(1.01538 0.00345176 -1.16634e-21)
(1.00783 0.000878672 -1.05748e-21)
(0.36999 -0.039261 2.08031e-21)
(1.02137 -0.000340922 -2.44417e-21)
(0.64876 0.0814649 1.35623e-20)
(1.02114 0.00740563 0)
(1.01727 0.0012937 3.93155e-21)
(1.01896 0.00196068 -1.88173e-21)
(1.01279 0.000288447 -2.67471e-22)
(0.539507 0.0200681 1.6244e-21)
(0.941803 0.0733619 0)
(1.0371 0.000584793 -6.38459e-21)
(-0.017839 0.0438576 0)
(1.01091 0.00234704 0)
(1.01113 0.00168245 -3.00412e-22)
(1.0415 0.00633626 -7.14351e-21)
(1.03255 0.0336905 0)
(1.02367 -8.46598e-05 -4.84725e-21)
(0.854828 -0.0121162 0)
(-0.00397829 0.0450097 1.1226e-20)
(1.02122 0.000242104 0)
(1.01619 0.00459741 3.03177e-22)
(1.01692 0.006465 1.2649e-21)
(0.386927 0.00656127 1.74952e-21)
(1.04455 0.0359448 -3.03019e-21)
(0.836441 0.0011563 -5.50048e-24)
(0.828452 -0.0109498 -6.5301e-23)
(1.02368 0.0119205 -1.1878e-21)
(1.04916 0.0129277 1.11518e-20)
(0.0665379 0.0101706 2.13743e-20)
(0.641994 0.082019 0)
(1.01425 0.00155452 0)
(0.844718 0.0132795 0)
(1.04366 0.0352743 3.12063e-21)
(1.01247 0.0011114 0)
(1.02801 0.0203989 -5.91335e-21)
(1.04932 0.0137536 -1.09994e-20)
(1.00333 1.65839e-05 -1.24617e-22)
(1.06329 0.0482286 7.82329e-21)
(1.04122 0.00737229 0)
(1.01245 0.00108316 -1.84797e-22)
(1.00798 6.13617e-05 -9.94271e-22)
(0.811819 0.00563759 8.40795e-24)
(0.96501 0.0107176 9.48164e-23)
(0.927873 0.0296357 6.4349e-22)
(0.668905 0.0233753 -1.99659e-21)
(1.05576 0.0240316 8.67022e-21)
(1.01836 0.01065 0)
(1.00571 8.504e-05 -7.33679e-23)
(0.697809 0.0077026 4.08253e-22)
(0.845434 0.000486646 -6.17032e-24)
(1.04903 0.0350878 -6.05715e-21)
(1.01043 0.00029857 -2.4987e-23)
(1.01061 0.0021703 -8.81146e-22)
(1.02691 0.0346413 4.75619e-23)
(0.839257 0.00269803 -1.44847e-22)
(1.0178 0.00656659 -2.06593e-22)
(1.02761 0.0201092 0)
(1.01957 0.0227773 0)
(1.02029 0.00962377 0)
(0.95594 0.0786036 8.64366e-21)
(1.00572 0.000303101 0)
(0.748426 0.0109596 2.7438e-23)
(0.750607 0.0138602 -7.37523e-22)
(1.00553 0.000267003 4.66337e-23)
(1.01527 0.0035474 -7.64486e-22)
(1.02231 0.0143644 -1.43283e-21)
(1.02641 0.00276039 0)
(1.01798 0.00278419 0)
(1.01359 0.0034277 0)
(1.00963 0.00131561 0)
(1.00892 0.00133681 0)
(0.893926 0.0126665 8.95927e-23)
(1.00838 0.000312137 -5.95072e-23)
(1.00757 0.000245609 -1.90326e-22)
(1.00516 4.96246e-05 8.29368e-23)
(1.01494 0.00213135 1.12267e-23)
(0.185632 -0.0161674 7.69199e-21)
(1.01856 0.00808584 1.12984e-21)
(1.00581 9.66479e-05 0)
(1.03334 0.0100577 -1.21834e-21)
(1.01051 0.00214001 0)
(0.0614002 0.0503179 0)
(1.02069 0.0174526 0)
(0.711802 0.0128978 -2.65123e-22)
(1.00591 0.000192547 -4.23605e-23)
(1.04208 0.00598025 7.72389e-21)
(0.9911 -0.0003222 -1.05948e-22)
(1.0118 0.00228007 6.5377e-22)
(1.04959 0.0279612 1.06476e-21)
(1.01652 0.00613976 1.58171e-21)
(1.02499 0.000213628 -4.45464e-21)
(1.0346 0.0193743 -2.61265e-21)
(1.00729 0.000194348 4.9138e-22)
(1.04802 0.01554 4.00315e-21)
(1.01869 0.0232567 0)
(1.01874 0.00768264 2.2583e-22)
(1.00761 0.000282254 -5.96676e-23)
(1.01051 0.00211427 8.402e-22)
(1.02905 0.00731686 -1.74817e-21)
(1.03395 0.0191838 2.62965e-21)
(1.01911 -0.00623532 0)
(1.01893 0.00698687 2.45841e-22)
(1.01777 0.00275409 3.31529e-21)
(1.00976 0.0013274 0)
(1.00603 0.000144073 -3.0323e-22)
(1.02358 0.0120241 0)
(1.02105 0.0115414 0)
(1.03826 0.00299052 3.39342e-21)
(1.04179 0.00705243 3.90333e-21)
(0.71919 0.0116506 0)
(1.01432 0.000727502 -1.7049e-21)
(1.03817 0.00393417 0)
(0.992922 0.0776753 -2.06443e-21)
(0.182266 -0.019252 -4.72201e-21)
(0.510698 0.078273 -5.2409e-21)
(0.946931 0.0271738 0)
(0.195084 0.00143015 -2.26292e-21)
(1.02377 -0.000318575 0)
(1.02754 0.0350396 0)
(1.00878 0.000325334 0)
(1.00691 0.000233611 2.91241e-22)
(1.02171 0.00770869 1.91742e-21)
(1.00901 0.00135886 -3.08766e-22)
(1.05982 0.00953944 0)
(1.00946 0.000272595 -1.89322e-24)
(1.01161 0.0115717 8.08701e-24)
(1.01947 0.000523762 1.30409e-21)
(1.01654 0.00218584 -2.19403e-22)
(1.00736 0.000268771 5.9042e-23)
(1.02032 0.00786988 -8.9999e-22)
(1.07176 0.0278541 0)
(1.02615 0.0160956 5.34308e-21)
(0.345628 0.000504518 1.25066e-21)
(0.565751 0.0150279 1.14218e-21)
(1.01871 0.0077723 1.63364e-22)
(1.01557 0.00504449 0)
(1.01224 0.000523498 3.05113e-23)
(0.441468 -0.0163149 -1.8429e-21)
(1.01319 0.00297668 1.06422e-21)
(0.7472 0.0884069 -4.24722e-22)
(1.00577 0.000311167 0)
(1.04403 0.0580871 1.84928e-21)
(1.01702 -0.00494256 5.89432e-24)
(1.01632 0.00212537 2.1567e-22)
(1.06194 0.0274596 1.64568e-21)
(1.01659 0.0119257 0)
(0.709677 0.00763202 -9.76075e-23)
(1.01774 0.00680998 4.8172e-22)
(0.881029 0.00488958 -2.00436e-22)
(1.01872 0.00755635 -8.22663e-22)
(0.0616994 0.00507488 -2.17214e-20)
(0.0767818 0.00743203 0)
(1.0155 0.00323249 -3.38376e-22)
(1.03887 0.0643088 -3.0149e-21)
(1.01407 0.00435157 -5.9811e-22)
(1.01081 0.00228829 0)
(1.02713 0.000121825 1.69318e-21)
(1.01677 0.00124098 3.87035e-21)
(1.01012 0.00146441 -5.34512e-23)
(1.00958 0.000266084 -9.78734e-26)
(0.576924 0.024505 -1.4939e-21)
(1.01336 0.00139678 0)
(1.03658 0.0211375 0)
(1.01131 0.000425281 0)
(1.02493 -0.000282356 -5.54773e-23)
(1.02517 -2.89599e-06 -1.51846e-21)
(0.758352 0.0885179 0)
(1.04647 0.0138256 1.46885e-20)
(1.01576 0.00306793 5.55727e-22)
(1.01418 0.00435792 -5.82121e-22)
(1.01535 0.0038267 -5.27687e-22)
(1.01238 0.00257263 0)
(1.00702 0.00025221 0)
(1.02009 0.00763003 8.66096e-22)
(1.01223 0.00103595 0)
(1.0514 0.0264674 -7.02382e-21)
(1.01107 0.000438915 0)
(1.02018 0.0130039 0)
(0.705802 0.0390945 -1.09786e-21)
(1.02213 0.00303849 0)
(1.01528 0.00597526 -1.89627e-22)
(1.04876 0.0279962 7.66236e-21)
(1.00538 9.68196e-05 -5.43185e-24)
(1.01726 0.00328683 -3.12333e-23)
(1.01992 0.0109168 -2.46546e-21)
(1.01387 0.00422143 7.12572e-22)
(0.790727 -0.0113755 -1.06521e-22)
(0.793207 -0.0109351 -3.00851e-24)
(1.05944 0.0511795 -4.3297e-21)
(0.462723 0.0765073 0)
(1.00843 0.000387994 0)
(1.01934 0.0106117 -6.82607e-22)
(1.01438 0.00270711 3.06418e-21)
(1.02644 0.00228603 -2.96692e-21)
(1.02182 0.0114785 -1.55961e-21)
(1.0207 0.00157283 9.6652e-22)
(1.03138 0.0143729 0)
(1.02008 0.00945934 0)
(1.02014 0.0128721 -2.54993e-22)
(1.04078 0.00841216 -3.63727e-21)
(1.01236 0.00254076 -6.01317e-22)
(1.02061 0.0170375 -5.27714e-22)
(1.03285 0.0105938 4.34463e-21)
(1.00665 0.00010063 2.14452e-22)
(1.01764 0.0038376 0)
(0.68829 0.0846213 1.32178e-20)
(1.00785 0.000898116 6.27481e-22)
(1.01547 0.00300026 -1.86638e-22)
(1.01886 0.00717598 0)
(1.06191 0.0475547 -2.64667e-22)
(1.00311 -5.72901e-05 -2.00081e-22)
(1.00679 0.000171888 2.61638e-22)
(1.0253 0.0236898 1.30644e-21)
(1.00842 0.000335321 0)
(1.01658 0.00525807 -1.40981e-22)
(1.01985 0.0107302 8.19988e-22)
(0.290587 0.0429856 0)
(1.02056 -4.47816e-05 0)
(1.01596 0.00462291 0)
(1.02027 0.000540154 2.09831e-22)
(1.04721 0.0151791 0)
(1.00782 0.00088451 -5.0161e-22)
(1.02563 0.0235697 1.40661e-21)
(0.977328 0.085328 -6.05277e-21)
(1.0398 0.0645528 0)
(1.00791 0.00089078 -2.98511e-22)
(1.02655 -0.000523071 0)
(1.01789 0.00324475 3.18532e-23)
(1.01592 0.00131521 0)
(1.02146 -0.000111505 -2.03959e-21)
(1.013 0.0029715 -2.60219e-21)
(1.01284 0.000451881 6.14117e-23)
(0.805946 0.089312 -1.32527e-20)
(1.02086 0.011449 -6.96003e-22)
(0.929756 0.00767008 1.37409e-22)
(1.0184 0.00998759 9.38858e-23)
(1.01419 0.00150887 0)
(1.02035 0.0225629 -7.79734e-22)
(0.757742 -0.00108982 -7.44828e-23)
(1.02492 0.00645204 0)
(1.01515 0.000484842 3.64814e-21)
(0.0585674 0.0545573 6.61662e-21)
(0.760884 0.00168924 -3.25823e-22)
(1.08238 0.055526 2.68664e-22)
(0.817025 0.000724838 0)
(1.0176 0.00671183 4.85561e-22)
(1.01672 0.00293269 0)
(1.01199 0.00103789 0)
(1.00714 0.000541194 -4.93503e-22)
(1.00786 0.02442 1.55995e-22)