/*--------------------------------*- C++ -*----------------------------------*\
| =========                 |                                                 |
| \\      /  F ield         | OpenFOAM: The Open Source CFD Toolbox           |
|  \\    /   O peration     | Version:  v2012                                 |
|   \\  /    A nd           | Website:  www.openfoam.com                      |
|    \\/     M anipulation  |                                                 |
\*---------------------------------------------------------------------------*/
FoamFile
{
    version     2.0;
    format      ascii;
    class       volVectorField;
    location    "300";
    object      U_0;
}
// * * * * * * * * * * * * * * * * * * * * * * * * * * * * * * * * * * * * * //

dimensions      [0 1 -1 0 0 0 0];


internalField   nonuniform List<vector> 
18598
(
(1.04279 0.0724261 0)
(1.10487 0.0850405 3.40598e-20)
(1.01913 0.00639609 4.00581e-22)
(1.02364 0.030196 1.84064e-21)
(1.01917 0.00650307 -1.51536e-22)
(1.01751 0.000143245 0)
(0.425776 -0.0157422 0)
(1.00094 -2.17748e-06 -1.54019e-23)
(1.01128 0.00258694 1.11472e-21)
(1.01786 0.00559387 -4.26039e-22)
(1.00564 0.000177845 -8.70293e-24)
(1.0161 0.000809127 -3.7962e-23)
(1.02015 0.000567334 -1.56582e-21)
(0.755352 0.0822413 0)
(1.04933 0.0699896 0)
(1.01593 0.000828602 1.15008e-22)
(1.02366 0.0172412 7.34964e-22)
(0.826349 -0.00541511 0)
(0.852525 -0.0111166 2.53931e-22)
(0.946196 -0.00919108 7.37635e-24)
(0.831967 -0.00620545 -2.12142e-23)
(1.0109 0.00163541 1.65139e-22)
(1.05483 0.054003 1.31721e-20)
(1.00811 0.000968584 5.99826e-22)
(1.01617 0.00494776 -1.20257e-21)
(0.842031 -0.0128194 -2.61369e-22)
(1.00692 0.000524395 -1.89723e-22)
(0.336365 0.0620013 -1.53907e-20)
(1.02615 0.00728407 9.49287e-21)
(1.00861 0.000335059 -6.15968e-23)
(1.04721 0.0719754 0)
(1.01114 0.00250861 -1.414e-23)
(1.10608 0.0853293 -9.48785e-21)
(1.0058 0.000189447 -9.31536e-24)
(0.834378 0.00281724 -1.47823e-22)
(1.00975 0.000668681 0)
(1.02907 0.0222989 -2.19812e-22)
(1.01596 0.00473555 1.11713e-21)
(1.04736 0.0361323 2.04632e-22)
(1.02702 -0.00155487 0)
(0.3482 0.0608793 1.74235e-20)
(1.00784 0.000694829 9.65452e-23)
(1.01422 0.00446966 -7.21789e-22)
(1.04727 0.0350116 0)
(1.00903 0.000605962 1.13616e-22)
(0.724871 0.0811282 4.70964e-21)
(1.00616 0.000102635 0)
(1.02859 -0.000619605 0)
(1.03635 0.0294913 -3.33834e-21)
(1.0207 0.00868014 2.4122e-21)
(1.04521 0.0591797 0)
(1.02087 0.00912831 6.36969e-22)
(1.01545 0.00371219 -4.89287e-22)
(1.02036 0.0190489 0)
(1.04463 0.00688281 4.29369e-21)
(1.00952 0.000644409 1.08729e-22)
(0.789284 -0.00986765 -3.12539e-24)
(-0.0238916 0.0427566 -1.5398e-20)
(0.0651826 0.0258385 1.46104e-20)
(0.837661 0.00413084 0)
(1.0248 0.0124814 -5.59627e-22)
(1.0081 0.000260866 1.37843e-21)
(1.01518 0.00365079 -2.61836e-22)
(1.0845 0.0789378 -1.44957e-20)
(1.03552 0.0295072 1.7735e-22)
(1.01733 0.00645773 5.21966e-22)
(1.03941 0.0267394 -5.08341e-21)
(1.01728 0.00651341 -1.01389e-21)
(1.01 0.000379275 0)
(1.05445 0.0714553 -7.10738e-21)
(1.02201 0.0128905 0)
(1.01652 0.00221524 2.25183e-21)
(1.04366 0.00225964 8.72704e-21)
(1.02659 0.00754482 -4.86653e-21)
(1.00807 0.000273496 -2.28964e-23)
(1.00727 0.000207717 3.21549e-22)
(1.02452 0.0121352 0)
(1.0153 0.00395193 -1.04074e-23)
(1.01543 0.00406133 1.23544e-21)
(1.05467 0.02422 -7.15695e-21)
(1.0205 0.00847122 -3.73661e-21)
(1.02068 0.00889483 0)
(1.00599 0.000184433 4.47916e-22)
(1.00994 0.000383289 -1.72376e-21)
(1.02469 0.000687263 5.34966e-21)
(1.04319 0.00255752 -8.60127e-21)
(1.0066 0.00015507 0)
(0.82557 -0.00915979 1.36665e-22)
(0.729032 -0.000422479 1.35553e-22)
(0.468288 0.0748032 7.23486e-21)
(1.02852 0.0220555 -2.71192e-21)
(1.0189 0.00908446 0)
(1.01818 0.00166885 5.30199e-21)
(1.0355 0.0142397 -1.23759e-20)
(1.02053 0.00827972 0)
(1.04537 0.00727634 0)
(1.03797 0.0294404 -8.4012e-21)
(1.05498 0.0711144 7.61073e-21)
(1.01774 0.00536085 3.05555e-22)
(1.03217 0.0226359 0)
(0.798372 -0.0080703 -2.68255e-24)
(0.788826 -0.0104375 5.11856e-23)
(1.01883 0.0118197 -4.36536e-24)
(0.828601 -0.0104133 -7.80698e-23)
(0.359458 -0.0177239 0)
(1.02763 0.0298469 -1.35431e-21)
(1.06032 0.0647194 1.85115e-20)
(1.08612 0.0657451 1.61884e-20)
(1.00652 0.000237235 1.71573e-23)
(0.357622 0.048027 0)
(1.01591 0.000725122 -6.07944e-23)
(1.0203 0.00806039 -1.44287e-21)
(1.05333 0.0542754 0)
(1.01822 0.0114534 -3.42089e-23)
(1.01123 0.00254084 -7.31272e-22)
(0.900184 -0.00879124 -3.00571e-23)
(1.0534 0.0213509 7.18633e-21)
(1.00131 -1.07968e-05 -5.00058e-23)
(1.01575 0.000740333 -2.21515e-23)
(1.01477 0.00438357 0)
(0.916023 -0.00683 0)
(1.01494 -0.00153488 1.96811e-25)
(0.837661 -0.00601969 2.95422e-23)
(1.01404 0.00432115 7.22198e-22)
(1.01671 0.0022473 0)
(0.429361 -0.0115242 -1.14357e-21)
(0.758479 0.0166518 0)
(1.01478 0.00446894 -9.24627e-22)
(1.00768 0.000656001 9.2438e-23)
(0.466272 0.0750971 -2.69276e-20)
(1.01485 -0.00170248 -1.34509e-23)
(0.838646 0.0910405 -8.58051e-22)
(1.02003 0.0120621 7.92675e-24)
(1.06569 0.0214048 0)
(1.0481 0.0345647 3.60547e-21)
(1.02615 0.0286222 0)
(1.00689 0.000510813 0)
(1.00959 0.000319288 -9.92922e-23)
(1.00979 0.000324598 9.56207e-23)
(0.111689 0.0139633 6.17498e-23)
(1.05289 0.00965791 0)
(1.0093 0.000345657 -5.56339e-23)
(1.02461 0.0171476 -1.76565e-21)
(0.818828 0.0899158 -1.42802e-20)
(1.04653 0.0522497 -5.09583e-22)
(1.01195 0.000864294 -2.7745e-22)
(0.331586 -0.0111585 2.21324e-22)
(1.00576 0.000115234 0)
(0.833332 -0.000661658 1.61187e-23)
(1.00908 0.000336493 0)
(1.01112 0.00247473 7.34445e-22)
(0.991022 0.0613156 1.39334e-21)
(1.01482 0.000807861 -2.01024e-22)
(1.00338 0.0910511 -1.91701e-20)
(1.01519 0.00305643 1.97e-22)
(1.03493 0.0142825 5.39742e-21)
(1.01487 0.000775959 -9.89272e-23)
(1.01472 0.00268038 -5.87491e-24)
(1.02194 0.00801387 0)
(1.01633 0.00586781 0)
(1.02674 0.0287813 -3.09373e-22)
(1.0507 0.0696432 -1.5368e-21)
(1.05936 0.0634039 -1.57172e-20)
(1.01962 0.000510756 0)
(-0.0747398 0.022779 0)
(0.993848 0.012429 0)
(1.04479 0.0564235 -2.16089e-21)
(1.03461 0.00539323 0)
(1.00593 0.000171293 1.52046e-22)
(1.02575 0.00732296 0)
(1.01132 4.98288e-05 0)
(1.01996 0.0119918 -7.48225e-24)
(1.02953 0.004195 0)
(1.02124 0.0335122 1.6869e-22)
(1.02731 0.00324027 0)
(1.02327 0.00266548 2.50649e-22)
(1.02037 0.0132865 0)
(1.0212 0.00375559 -2.44305e-22)
(1.01459 0.00437338 -6.17152e-24)
(1.01458 0.00441229 -9.59613e-22)
(0.65262 0.0818392 3.28502e-21)
(1.00492 0.000133031 7.90859e-24)
(1.03698 0.0206672 6.06672e-21)
(0.73506 0.0889645 1.80046e-20)
(1.02431 1.20139e-05 -7.04074e-21)
(1.01887 0.00903897 0)
(0.11796 0.0131776 0)
(1.0089 0.000206364 -6.26277e-22)
(1.04839 0.0478268 0)
(0.999902 0.0117478 9.59863e-24)
(1.04353 0.0514127 1.17931e-20)
(1.05425 0.0221608 7.46463e-21)
(1.01496 0.00448908 9.98033e-22)
(0.800389 -0.00697568 -6.69639e-23)
(1.0203 0.0134513 0)
(1.04385 0.0554851 8.93364e-21)
(1.01058 0.00155281 1.63127e-22)
(1.01753 0.00458558 0)
(1.00977 0.000347182 0)
(0.820109 0.025902 -1.02835e-22)
(1.05068 0.0484345 0)
(1.0596 0.0127446 0)
(1.0151 0.00175375 0)
(1.0197 0.011468 -1.70811e-22)
(1.04482 0.0603411 0)
(1.03445 0.00609547 5.91811e-21)
(1.01085 0.00160181 1.6846e-22)
(1.02847 0.0213614 2.82752e-21)
(1.01504 0.00169801 0)
(0.749517 0.0148059 -1.04243e-22)
(1.03468 0.0065687 -2.7299e-21)
(1.00576 0.000188149 6.67641e-24)
(1.01862 0.00862215 -9.75996e-22)
(1.08877 0.0523287 -1.68526e-22)
(0.724684 -0.00315427 -1.33753e-22)
(1.06681 0.0215724 3.77456e-21)
(1.00043 0.0594576 2.44992e-22)
(1.02381 0.00295195 2.03111e-23)
(1.0443 0.0506772 -7.81215e-21)
(1.00365 -5.26038e-06 1.0694e-22)
(1.02168 0.00352267 -1.28525e-23)
(1.05695 0.0624641 -8.43314e-21)
(0.487108 0.0749199 -2.93223e-21)
(1.01053 0.0015259 -1.72662e-22)
(1.01851 0.00852869 -8.31802e-22)
(1.01749 0.00448622 4.62474e-22)
(1.03746 0.0289467 8.43951e-21)
(0.374909 0.0644176 -5.44364e-21)
(1.03235 0.0232603 -3.68114e-21)
(1.00999 0.000346666 0)
(1.06215 0.0515483 0)
(0.940469 0.075892 2.87327e-22)
(1.01791 0.000633393 2.22555e-21)
(1.01793 0.00564909 4.70955e-22)
(1.00884 0.000345176 -3.20707e-23)
(1.03863 0.00352771 0)
(1.01173 0.000865585 1.54799e-22)
(1.0235 0.0307724 -1.5018e-21)
(1.00509 0.000113777 2.01706e-25)
(1.01961 0.0113388 -2.14324e-22)
(1.0126 0.00248928 7.60294e-22)
(1.02393 8.67808e-05 7.30669e-21)
(1.04735 0.0478826 0)
(1.03767 0.0209289 -4.73671e-21)
(1.01614 0.00575582 0)
(1.0414 0.00810933 0)
(1.01955 0.000485828 0)
(1.0217 0.01238 3.04763e-21)
(1.01672 0.0063375 -8.88038e-22)
(1.00541 0.000182961 3.00797e-24)
(-0.0128354 0.0446386 0)
(1.01531 0.00338262 2.32182e-22)
(0.854907 0.0302094 -1.6725e-23)
(1.01996 0.0229527 0)
(1.01788 0.00151584 -2.51606e-21)
(1.02166 0.0111619 2.2299e-21)
(1.0137 0.00315609 -1.70251e-21)
(1.02033 0.00391629 3.4323e-23)
(1.01122 0.00250422 0)
(0.613614 0.0703804 0)
(1.01078 0.000208309 4.31411e-24)
(1.00162 -3.32747e-08 -1.88745e-22)
(1.01947 0.0227107 0)
(1.01503 0.00332864 -4.69466e-22)
(1.01355 0.00308825 -9.63134e-22)
(1.01236 0.00363863 5.1963e-22)
(1.01138 0.000332116 -1.84693e-23)
(1.01369 0.00401979 2.18274e-21)
(1.00917 0.000598652 1.07916e-22)
(1.01212 0.00517418 -2.78388e-23)
(1.01085 0.000329837 -9.11434e-23)
(1.02197 0.0126438 -1.44879e-21)
(0.575687 0.0523298 5.11373e-22)
(1.01069 0.000320796 9.68662e-23)
(1.0524 0.0266596 0)
(0.00340053 0.0256581 -1.65467e-20)
(1.01178 0.000528158 0)
(0.823518 -0.012844 -5.17795e-23)
(1.02507 0.00614167 0)
(1.02043 0.0247692 3.04581e-22)
(1.08681 0.0644337 -2.35449e-20)
(1.06977 0.0891807 0)
(1.01509 0.00357155 7.56115e-22)
(1.01988 0.0118126 0)
(0.752694 0.012989 0)
(1.08297 0.0786995 -1.15306e-20)
(1.02605 0.00708182 -2.22494e-22)
(1.03302 0.00201438 -2.43784e-21)
(0.744296 0.0167736 1.43651e-24)
(0.600538 0.00590251 0)
(1.00934 0.000564281 -1.91954e-22)
(1.02254 0.000649072 0)
(1.00567 0.000176976 9.3886e-24)
(1.01893 0.00907563 0)
(0.434225 0.0712573 3.30634e-20)
(1.05235 0.021585 6.71647e-21)
(1.01836 0.0191738 0)
(1.01887 0.00903401 2.80198e-22)
(1.00551 0.000187277 3.56438e-25)
(0.826998 -0.0129848 -5.42915e-24)
(1.01223 0.000628504 6.35029e-22)
(1.00758 7.56089e-05 0)
(0.968787 0.0742621 0)
(1.03963 0.0275421 5.91291e-23)
(1.00929 0.000588431 0)
(1.01828 0.0194734 3.41176e-23)
(1.02003 0.00676483 -3.09466e-21)
(1.01388 0.00386414 0)
(1.01529 0.00311718 0)
(1.0092 0.000573893 9.79889e-23)
(1.02164 0.0121077 -1.43066e-21)
(1.01382 0.00304733 9.07711e-22)
(1.01936 0.0255919 -2.96585e-22)
(1.01095 0.000174708 2.88636e-25)
(1.01832 0.00830294 1.70848e-21)
(0.74295 0.0165174 -1.35359e-24)
(1.02806 0.0210632 2.82124e-21)
(1.00544 9.60501e-05 -3.23916e-22)
(0.836033 0.00894509 0)
(1.01383 0.00310964 -3.19682e-23)
(1.0175 0.00497639 3.72406e-22)
(1.01176 0.000453862 -5.91735e-22)
(1.00545 8.37268e-05 6.15651e-24)
(1.01514 0.00439102 -6.39257e-23)
(0.946946 -0.00835183 3.3734e-23)
(0.953464 0.0104334 0)
(1.05494 0.0314384 -6.60466e-22)
(1.0198 0.0117064 1.70298e-22)
(1.01822 0.00814134 8.76153e-22)
(0.828861 -0.0075574 8.06422e-23)
(1.00664 0.00024211 -1.49308e-23)
(0.364807 0.0638664 0)
(1.00669 0.000153985 0)
(0.111111 0.056577 -1.61181e-20)
(1.00793 0.000926261 -3.17098e-22)
(0.669901 0.0732441 -9.30167e-21)
(1.02002 0.000517257 -3.02296e-21)
(1.02396 0.0172496 -3.95829e-22)
(0.995067 0.0418141 1.71511e-22)
(1.00942 0.000577756 -2.03424e-22)
(1.04646 0.0365367 6.80566e-21)
(1.00845 0.000274013 -2.75883e-24)
(0.64877 0.00409714 4.81961e-22)
(1.01567 0.00322973 4.23778e-22)
(1.01502 0.000797575 2.24853e-22)
(1.00427 6.5612e-05 0)
(1.02999 0.00742158 -1.92061e-21)
(0.837275 0.00819935 -1.71791e-22)
(0.654884 0.00604243 -5.154e-22)
(0.714909 0.0875257 -1.22827e-20)
(1.03594 0.0209072 0)
(1.08943 0.0538751 1.74506e-22)
(1.02179 0.0111075 0)
(0.611559 0.0536165 -5.0079e-22)
(0.833964 0.0910356 0)
(1.04984 0.0117107 -1.13878e-20)
(0.055259 0.0251955 0)
(0.965966 0.00882594 -1.99079e-22)
(1.04296 0.0620577 0)
(1.02648 0.0177646 1.00496e-21)
(1.02053 0.0182197 -5.06907e-22)
(0.996713 0.00782692 0)
(1.01523 0.000770892 1.02289e-22)
(1.05038 0.0104978 1.22654e-20)
(0.222924 0.0254088 2.63953e-22)
(1.02533 0.00703362 5.12122e-21)
(0.470522 -0.0212096 1.24239e-21)
(1.01453 0.00463648 8.92284e-22)
(0.140715 0.058085 0)
(1.01494 0.00438819 -9.33883e-22)
(1.04359 0.00841007 0)
(1.02368 0.0160339 0)
(1.01232 0.00228548 7.40008e-22)
(1.02011 -0.000177667 2.61204e-21)
(0.817837 0.0910346 1.44338e-20)
(1.01302 0.00289168 2.37225e-21)
(1.00491 -1.37556e-05 7.58517e-22)
(1.01466 0.00465923 7.75504e-22)
(1.0198 0.00635208 3.28792e-21)
(1.05157 0.0208294 0)
(1.01484 0.00185556 1.0775e-22)
(1.01994 0.0258344 -1.97279e-22)
(1.04298 0.0608276 0)
(1.0251 0.000695854 -2.7435e-21)
(1.06397 0.0246138 3.4336e-21)
(1.05785 0.0637405 9.01912e-21)
(1.01553 0.00379814 1.06381e-21)
(1.00473 5.91497e-05 1.62446e-21)
(1.01864 0.0108708 -2.37868e-22)
(1.02747 0.0162519 0)
(1.01438 0.00453594 0)
(0.389153 0.0512862 2.8131e-21)
(1.02722 0.0164394 -1.48432e-21)
(1.02022 0.0185611 9.56877e-22)
(1.02191 0.032546 2.61099e-22)
(1.03695 0.00420501 -9.64573e-21)
(1.01118 0.000321274 0)
(0.837323 0.0123679 0)
(1.05136 0.0677707 0)
(1.00907 0.000584674 -2.29119e-22)
(1.03488 0.00583998 -3.57553e-22)
(1.01223 0.000669752 -8.06061e-23)
(1.00337 3.11141e-05 0)
(1.02616 0.0174484 3.54221e-22)
(1.0175 0.0042609 6.46618e-24)
(0.97274 0.011158 0)
(1.01216 0.000621381 7.65512e-23)
(0.517697 0.00749233 -1.13777e-21)
(1.02956 0.00755758 5.41271e-21)
(-0.0778498 0.0242113 0)
(1.01755 0.00486927 1.35858e-22)
(1.01745 0.00111934 1.33739e-21)
(0.537015 0.0786298 4.23025e-20)
(0.405388 -0.00438993 4.00786e-21)
(0.598793 0.00594345 -1.31964e-21)
(1.0163 0.000631341 0)
(1.02178 0.00227582 0)
(1.02975 0.0279059 -5.60009e-21)
(0.83679 0.00546105 -2.94862e-23)
(1.01893 0.010815 2.30391e-22)
(1.00593 0.000193289 6.53491e-23)
(1.02974 0.00907194 -8.35144e-21)
(1.01514 0.00449382 0)
(1.00926 0.000629242 -1.80779e-22)
(0.960439 0.0421845 -1.90355e-22)
(1.10242 0.0831123 -3.86606e-20)
(0.808514 -0.00362712 -1.03907e-22)
(1.0215 0.000247926 -1.93923e-21)
(1.02971 0.00871456 4.07755e-21)
(1.04282 0.00806079 7.82705e-21)
(1.01301 0.000882791 0)
(1.04179 0.00527677 0)
(1.01285 0.00290114 -7.4216e-22)
(1.02107 0.000190023 3.46785e-21)
(1.02044 0.0177858 0)
(1.05006 0.0125135 1.29803e-20)
(1.01243 0.00243134 -7.62027e-22)
(1.00895 0.000589993 1.21803e-22)
(1.00884 0.00127195 1.19482e-21)
(1.00069 -7.88336e-06 -9.20632e-23)
(1.00644 7.73216e-05 4.73772e-22)
(1.00815 0.000303411 5.634e-23)
(0.904272 0.0417096 0)
(1.01953 0.0110889 2.13073e-22)
(1.02225 0.0119987 1.75506e-21)
(1.02212 0.0143091 1.29697e-21)
(1.01291 0.000834983 0)
(1.01653 0.00609722 0)
(1.02012 0.0125196 0)
(0.010357 0.00527889 -3.12536e-20)
(1.0199 0.000559378 1.11206e-23)
(1.0057 0.00030139 -2.80387e-22)
(1.03336 0.00168598 0)
(0.0073552 0.0107548 4.26552e-21)
(1.01534 0.00535095 -1.31485e-21)
(1.02125 0.0002548 0)
(1.04195 0.00420518 1.16419e-20)
(1.01111 0.00244205 7.42893e-22)
(1.05066 0.0112417 -1.30356e-20)
(1.00727 0.000210911 0)
(0.416749 -0.0120378 1.33973e-21)
(1.00299 7.6249e-06 -1.16426e-22)
(1.01145 0.00014655 0)
(1.00887 0.0013129 -4.008e-22)
(1.00649 0.000433502 0)
(1.01131 0.000144652 -2.4887e-25)
(1.04454 0.013957 0)
(0.226361 0.0306015 -8.77528e-21)
(1.0235 -0.00048528 0)
(1.00488 0.000133558 6.81161e-24)
(1.00751 0.000277923 1.83221e-22)
(1.02005 -0.00010526 0)
(1.00866 0.000278522 3.94221e-24)
(1.02431 0.0176361 -2.85619e-21)
(1.04269 0.0910492 0)
(1.01521 0.0052576 1.36404e-21)
(1.03565 0.0201751 0)
(1.00154 1.52957e-05 1.50036e-22)
(1.04256 0.00383555 -4.94371e-21)
(1.0192 0.00854735 -2.39299e-21)
(1.06084 0.0521021 4.91414e-21)
(1.01319 0.000421038 -2.39319e-23)
(1.05395 0.0231993 1.51442e-23)
(1.01451 0.00456651 8.89849e-22)
(1.00381 8.12911e-05 -1.1528e-23)
(1.00513 0.0150532 -2.27688e-22)
(1.0456 0.0509534 -1.63128e-22)
(1.00448 4.9679e-05 -1.35663e-23)
(1.01941 0.010919 2.64244e-22)
(1.06525 0.0889499 2.36764e-20)
(0.790513 -0.00748878 -2.23978e-22)
(0.506221 0.0716582 -4.87751e-21)
(1.04952 0.0488296 0)
(1.01033 0.000333888 -9.36006e-23)
(0.551592 0.0732706 -5.03666e-22)
(1.03975 0.0883063 -5.23064e-20)
(1.01014 0.000320173 6.09345e-23)
(1.01609 0.000276535 0)
(1.02048 0.0089865 0)
(1.04389 0.0488541 -1.17188e-22)
(0.171648 -0.0265749 2.20365e-20)
(1.08568 0.078126 1.50562e-20)
(1.01544 0.00391923 -5.64163e-22)
(0.375791 0.0609498 2.10142e-20)
(1.03109 0.00501837 -1.77471e-21)
(1.00812 0.000251567 6.44469e-22)
(1.00957 0.000339803 6.23282e-23)
(1.00822 0.000972918 -9.52191e-22)
(0.963827 0.077168 1.35869e-21)
(1.02029 0.000145872 -3.56565e-21)
(0.957942 -0.00879344 0)
(1.02464 0.0175354 3.76755e-21)
(1.02288 0.00201016 0)
(0.367591 0.0509286 0)
(0.831185 0.00369321 7.85492e-23)
(1.01669 0.0134748 4.76045e-22)
(0.0964219 -0.0153961 -2.69951e-21)
(1.00124 0.0118871 3.41152e-22)
(1.00524 6.14849e-05 0)
(1.00479 6.43193e-05 9.37867e-24)
(0.651105 -0.00645028 2.38572e-22)
(1.05528 0.0324726 6.36185e-21)
(0.63902 -0.00524357 2.06352e-22)
(1.01518 0.00313032 -2.80021e-23)
(1.06004 0.0119073 -2.21383e-20)
(1.01792 0.00744089 -1.03019e-21)
(1.02193 0.00887142 -1.64064e-22)
(1.01473 0.00178513 -2.16355e-23)
(1.04466 0.0479692 0)
(1.03171 0.00515873 -1.04163e-21)
(1.03052 0.00766407 0)
(1.00551 9.10055e-05 -1.06939e-23)
(1.01273 0.00264037 0)
(1.01493 0.00326442 -4.40903e-22)
(1.01537 0.0041033 -3.74515e-22)
(1.00627 0.000392329 0)
(0.839224 -0.0029311 8.29051e-23)
(1.02008 0.00657685 2.49411e-21)
(1.01011 0.00177602 -3.97403e-22)
(0.84583 0.0155238 -3.80683e-23)
(1.08066 0.0556647 -1.65854e-20)
(1.09171 0.088432 -1.96736e-20)
(1.03729 0.0047164 6.5691e-21)
(1.04591 0.0535119 5.72869e-23)
(0.726914 0.0105347 0)
(1.0234 0.0168152 8.09258e-22)
(1.0206 0.000305203 2.64571e-21)
(1.01992 0.0124857 0)
(0.0146268 0.0478419 -8.84445e-21)
(0.627277 0.0799237 -1.2861e-20)
(1.02312 0.00929346 6.99663e-23)
(1.00709 0.000633117 2.34127e-22)
(1.0423 0.0049523 0)
(1.02257 0.0079841 2.64323e-21)
(1.03341 0.0453255 0)
(1.00825 0.000301116 7.78635e-23)
(1.02087 0.0144033 9.82902e-22)
(1.00996 0.00141443 0)
(1.00549 9.3813e-05 2.30273e-23)
(1.00509 0.000110628 -1.41691e-23)
(1.00531 0.000108464 0)
(-0.0405937 0.038659 -3.85195e-20)
(0.631476 -0.000765005 1.48023e-21)
(1.04298 0.0356151 0)
(0.756599 0.0174027 -1.97526e-22)
(0.75146 0.0113531 9.52515e-23)
(1.02458 0.000227969 4.366e-21)
(1.05019 0.0680217 1.48318e-21)
(1.02445 0.000455044 0)
(1.0087 0.000320827 -5.95838e-23)
(1.02695 0.0296927 -1.69687e-22)
(0.217222 0.0153892 3.44352e-21)
(1.02044 0.00202678 0)
(1.02933 0.0228624 -2.09478e-21)
(1.01782 0.00116466 2.63654e-21)
(1.00885 0.000316123 0)
(1.0205 0.00219541 -2.07678e-21)
(0.185161 0.0365568 0)
(1.01413 0.000449307 0)
(1.00698 0.000235166 -9.55604e-22)
(1.00704 0.000597458 7.32754e-22)
(0.534912 0.0792237 -9.29669e-21)
(1.02218 0.00377133 -1.92109e-23)
(0.415982 0.0691629 4.98313e-21)
(1.01922 0.00980612 8.22189e-22)
(1.02303 0.00221674 1.2758e-21)
(1.00441 -2.07543e-05 -6.84505e-22)
(0.842801 0.00558164 3.64909e-23)
(1.02596 0.00306924 2.07229e-22)
(1.0223 0.00789605 2.2288e-21)
(1.01154 0.00175139 0)
(1.0055 6.90795e-05 -9.71284e-24)
(1.00925 0.00136954 9.62369e-23)
(1.03993 0.0261897 0)
(1.0065 0.000127362 6.44997e-22)
(1.02437 0.0180908 1.83713e-21)
(1.07974 0.0563026 1.70777e-20)
(1.00914 0.00142583 -6.241e-22)
(0.927887 0.0044288 4.97502e-22)
(1.01302 0.00131092 1.90234e-22)
(1.01882 0.00884006 -1.4155e-22)
(1.01918 0.00863877 2.40441e-21)
(1.01136 0.00170722 4.30938e-23)
(1.01417 0.00174849 1.09646e-22)
(1.0091 0.00137031 8.2227e-22)
(1.01352 0.0038711 -1.42688e-21)
(1.024 0.00283412 1.10066e-22)
(1.02012 0.0126298 -1.17686e-22)
(1.02001 0.0264415 1.50593e-22)
(1.01513 0.00325307 4.4012e-22)
(1.0281 0.029364 1.59618e-21)
(1.01502 0.0031869 4.03816e-22)
(1.02193 0.00289634 -1.65854e-22)
(0.635125 0.000229372 -1.29258e-21)
(1.00624 0.000382608 0)
(1.00916 0.00136642 7.49149e-22)
(1.01302 0.0012828 0)
(0.00623626 -0.00122901 -2.25051e-20)
(1.01815 0.00751537 2.23358e-21)
(1.05055 0.0210241 -6.67533e-21)
(1.00919 0.0014154 -1.69863e-21)
(1.01824 0.0101699 0)
(0.630164 0.00082232 -1.5132e-21)
(1.01031 0.00184509 5.36147e-22)
(0.761853 0.0897744 -1.65856e-20)
(1.01288 -0.000137793 -9.8969e-25)
(0.917363 0.0431722 0)
(-0.00187432 0.0188051 9.4594e-21)
(1.06522 0.0248435 0)
(1.00735 0.000717584 -2.56788e-22)
(1.02677 0.0161564 0)
(1.01595 0.00557422 0)
(1.01879 0.00859443 0)
(1.01909 0.00955986 3.54082e-22)
(1.04218 0.00843937 0)
(0.790694 -0.00838938 4.88163e-23)
(1.01915 0.00959259 0)
(1.05272 0.0088668 0)
(1.02458 -0.00118433 5.8741e-23)
(1.02426 0.0167619 -1.70244e-21)
(1.01903 0.00937864 0)
(1.02127 -0.000224896 0)
(1.01876 0.00358127 3.81405e-23)
(1.034 0.0444698 -2.35433e-21)
(0.831704 -0.0135965 -8.6244e-23)
(1.0137 0.00377507 -1.33277e-21)
(1.02657 0.0163086 0)
(1.02014 0.0336679 -7.80063e-23)
(1.02027 0.0069994 1.71816e-21)
(1.01613 0.00133245 0)
(1.03493 0.0199959 -5.32492e-21)
(1.02137 0.00762731 -5.55368e-21)
(0.837822 0.00469449 -9.88885e-23)
(1.0176 0.00518925 -3.49188e-22)
(0.985894 0.0914494 3.60577e-20)
(1.01865 0.0191765 8.94815e-23)
(1.0204 0.0174592 -4.38513e-22)
(1.00927 0.00141438 0)
(1.01938 0.00226822 8.94452e-23)
(1.0137 0.00406575 1.45972e-21)
(1.0214 5.63332e-06 0)
(1.00856 0.000326467 0)
(0.882451 -0.00970119 0)
(1.01916 0.00199881 0)
(1.01395 0.00281446 1.18674e-21)
(1.01922 0.000140752 0)
(1.01224 0.000657841 1.8839e-21)
(0.905086 0.00588378 2.48415e-22)
(1.05211 0.0101412 1.16146e-20)
(1.04547 0.0356768 -7.28872e-22)
(1.00726 0.000697418 -2.46131e-22)
(1.00705 0.000553933 4.04808e-22)
(1.00512 4.54813e-05 0)
(1.01892 0.00296782 -3.51262e-22)
(0.961294 0.00294018 0)
(1.02278 -0.000156088 -2.2388e-21)
(1.00454 9.72601e-05 1.76737e-23)
(1.01966 0.0188772 0)
(1.02054 0.00216926 8.54992e-24)
(0.757807 0.00829406 0)
(1.02369 0.0164289 8.6234e-22)
(0.218472 0.00903918 -6.23156e-21)
(1.0335 0.0119246 0)
(0.966687 0.000770747 -1.78832e-22)
(0.540477 -0.0146773 0)
(1.01196 0.000447563 -2.69029e-21)
(1.00534 0.000102044 0)
(0.0674544 0.018687 -1.38219e-20)
(1.01516 0.00180979 -2.24829e-23)
(1.00688 0.000245421 0)
(0.500109 0.0758257 1.18115e-22)
(0.395706 0.0681612 0)
(1.01622 0.00424869 0)
(1.04714 0.0140778 -1.47687e-20)
(1.04982 0.0203042 6.45716e-21)
(1.0139 0.0027291 0)
(1.05528 0.0531442 -1.28914e-20)
(0.811268 -0.00175096 4.56797e-23)
(1.02462 0.0738522 0)
(1.01784 0.00733576 2.44892e-21)
(1.03185 0.0334227 -2.57566e-21)
(1.01891 0.0195216 8.22629e-23)
(1.00595 0.000160408 0)
(0.639987 0.0216843 2.75775e-21)
(1.01538 0.00345204 -1.16641e-21)
(1.00783 0.000878668 -1.05744e-21)
(0.370023 -0.0392557 2.07982e-21)
(1.02137 -0.000340926 -2.44387e-21)
(0.648768 0.0814485 1.35605e-20)
(1.02114 0.00740561 0)
(1.01727 0.0012937 3.93117e-21)
(1.01896 0.00196068 -1.88155e-21)
(1.01279 0.000288449 -2.67447e-22)
(0.539514 0.0200602 1.62464e-21)
(0.941835 0.0733734 0)
(1.0371 0.000584771 -6.38406e-21)
(-0.0178568 0.0438625 0)
(1.01091 0.00234704 0)
(1.01113 0.00168246 -3.00415e-22)
(1.0415 0.00633625 -7.143e-21)
(1.03255 0.0336916 0)
(1.02367 -8.46661e-05 -4.84671e-21)
(0.854836 -0.0121471 0)
(-0.00399359 0.0450153 1.12245e-20)
(1.02122 0.000242102 0)
(1.01619 0.00459741 3.0315e-22)
(1.01692 0.00646501 1.2648e-21)
(0.386933 0.00658616 1.74824e-21)
(1.04455 0.0359453 -3.03006e-21)
(0.836424 0.00100144 -5.54982e-24)
(0.82847 -0.0108587 -6.57384e-23)
(1.02368 0.0119204 -1.1877e-21)
(1.04916 0.0129277 1.11511e-20)
(0.0665197 0.0101396 2.13781e-20)
(0.641994 0.0819999 0)
(1.01425 0.00155354 0)
(0.844715 0.0131777 0)
(1.04366 0.0352748 3.1205e-21)
(1.01247 0.00111084 0)
(1.02801 0.0203989 -5.91287e-21)
(1.04932 0.0137537 -1.09988e-20)
(1.00333 1.65815e-05 -1.24609e-22)
(1.0633 0.0482276 7.8231e-21)
(1.04122 0.00737229 0)
(1.01245 0.00108262 -1.84798e-22)
(1.00798 6.13626e-05 -9.94209e-22)
(0.811815 0.00566103 8.34026e-24)
(0.965004 0.0106664 9.73833e-23)
(0.92786 0.0296683 6.43657e-22)
(0.668903 0.023401 -1.99692e-21)
(1.05577 0.0240316 8.66982e-21)
(1.01834 0.0106433 0)
(1.00571 8.50466e-05 -7.33585e-23)
(0.697833 0.0076756 4.078e-22)
(0.845395 0.000342906 -6.10196e-24)
(1.04903 0.0350881 -6.05692e-21)
(1.01043 0.000298572 -2.49845e-23)
(1.01061 0.00217029 -8.81111e-22)
(1.02692 0.0346447 4.75629e-23)
(0.839227 0.00255113 -1.44698e-22)
(1.0178 0.00656738 -2.06599e-22)
(1.02761 0.0201092 0)
(1.01956 0.0227592 0)
(1.02029 0.00962373 0)
(0.955961 0.0786186 8.64769e-21)
(1.00572 0.000303076 0)
(0.748407 0.0108516 2.7133e-23)
(0.750624 0.0138158 -7.3639e-22)
(1.00553 0.000266979 4.6632e-23)
(1.01527 0.00354751 -7.64513e-22)
(1.02231 0.0143641 -1.43269e-21)
(1.02641 0.00276038 0)
(1.01798 0.00278419 0)
(1.01359 0.00342768 0)
(1.00963 0.00131562 0)
(1.00892 0.0013368 0)
(0.893886 0.0127582 8.86777e-23)
(1.00838 0.000312256 -5.94953e-23)
(1.00757 0.000245605 -1.9032e-22)
(1.00516 4.963e-05 8.29262e-23)
(1.01493 0.00212209 1.10987e-23)
(0.185635 -0.0161744 7.69191e-21)
(1.01856 0.0080858 1.12975e-21)
(1.00581 9.664e-05 0)
(1.03334 0.0100577 -1.21824e-21)
(1.01051 0.00214 0)
(0.061392 0.0503218 0)
(1.02069 0.01745 0)
(0.711818 0.012848 -2.64989e-22)
(1.00591 0.000192613 -4.23412e-23)
(1.04208 0.00598025 7.72335e-21)
(0.991096 -0.000387459 -1.0565e-22)
(1.0118 0.00228008 6.5372e-22)
(1.04959 0.0279614 1.06471e-21)
(1.01652 0.00613977 1.58158e-21)
(1.02499 0.00021362 -4.45417e-21)
(1.0346 0.0193745 -2.61248e-21)
(1.00729 0.000194345 4.91362e-22)
(1.04802 0.01554 4.00292e-21)
(1.01867 0.0232457 0)
(1.01875 0.00767925 2.25833e-22)
(1.00761 0.000282394 -5.96541e-23)
(1.01051 0.00211426 8.40167e-22)
(1.02905 0.00731686 -1.74802e-21)
(1.03395 0.019184 2.62947e-21)
(1.01916 -0.00623653 0)
(1.01893 0.00698614 2.45952e-22)
(1.01777 0.00275408 3.31498e-21)
(1.00976 0.00132741 0)
(1.00603 0.000144066 -3.03212e-22)
(1.02358 0.012024 0)
(1.02105 0.0115414 0)
(1.03826 0.00299051 3.39316e-21)
(1.04179 0.00705243 3.90306e-21)
(0.719214 0.0116093 0)
(1.01432 0.000727504 -1.70476e-21)
(1.03817 0.00393417 0)
(0.992903 0.0776996 -2.06526e-21)
(0.182272 -0.0192618 -4.72201e-21)
(0.510691 0.0782516 -5.24151e-21)
(0.946909 0.0272094 0)
(0.195056 0.00141702 -2.26249e-21)
(1.02377 -0.000318581 0)
(1.02754 0.0350416 0)
(1.00878 0.000325385 0)
(1.00691 0.000233599 2.91232e-22)
(1.02171 0.00770867 1.91726e-21)
(1.00901 0.00135885 -3.08758e-22)
(1.05982 0.00953934 0)
(1.00947 0.000272745 -1.8879e-24)
(1.01161 0.0115871 7.98807e-24)
(1.01947 0.000523762 1.30396e-21)
(1.01654 0.00218751 -2.19431e-22)
(1.00736 0.000268872 5.90094e-23)
(1.02032 0.00786985 -8.99913e-22)
(1.07176 0.027854 0)
(1.02615 0.0160954 5.34262e-21)
(0.345656 0.000537682 1.25101e-21)
(0.565761 0.0150461 1.14222e-21)
(1.01871 0.00777048 1.63372e-22)
(1.01557 0.00504451 0)
(1.01224 0.000525163 3.04708e-23)
(0.441486 -0.0162813 -1.84085e-21)
(1.01319 0.00297669 1.06414e-21)
(0.747175 0.0883921 -4.2462e-22)
(1.00577 0.000311143 0)
(1.04402 0.0580936 1.84936e-21)
(1.01706 -0.00494768 5.81012e-24)
(1.01631 0.00212669 2.15699e-22)
(1.06194 0.0274596 1.64561e-21)
(1.01658 0.0119357 0)
(0.709703 0.00761759 -9.77455e-23)
(1.01774 0.00681036 4.81721e-22)
(0.881008 0.00500245 -1.9976e-22)
(1.01872 0.00755496 -8.22748e-22)
(0.0616799 0.00504142 -2.17255e-20)
(0.0767663 0.00740198 0)
(1.0155 0.00323304 -3.38398e-22)
(1.03885 0.0642903 -3.01506e-21)
(1.01407 0.00435164 -5.98076e-22)
(1.01081 0.00228829 0)
(1.02713 0.000121818 1.69301e-21)
(1.01677 0.00124098 3.86998e-21)
(1.01012 0.00146442 -5.34511e-23)
(1.00958 0.00026631 -9.76615e-26)
(0.576935 0.0245012 -1.49404e-21)
(1.01336 0.00139606 0)
(1.03658 0.0211378 0)
(1.01131 0.000424358 0)
(1.02495 -0.0002496 -5.57506e-23)
(1.02517 -2.90318e-06 -1.5183e-21)
(0.758333 0.0884988 0)
(1.04647 0.0138257 1.46876e-20)
(1.01575 0.00306812 5.55731e-22)
(1.01418 0.00435799 -5.82089e-22)
(1.01535 0.00382653 -5.277e-22)
(1.01238 0.00257263 0)
(1.00703 0.000252343 0)
(1.02009 0.00763 8.66022e-22)
(1.01223 0.0010355 0)
(1.0514 0.0264675 -7.02349e-21)
(1.01107 0.000438085 0)
(1.02018 0.0130063 0)
(0.705783 0.0390823 -1.09593e-21)
(1.02213 0.00303848 0)
(1.01529 0.00589348 -1.90225e-22)
(1.04876 0.0279964 7.66201e-21)
(1.00538 9.68713e-05 -5.43021e-24)
(1.01724 0.00329301 -3.11124e-23)
(1.01992 0.010917 -2.46523e-21)
(1.01387 0.00422146 7.12521e-22)
(0.790728 -0.011394 -1.06133e-22)
(0.7932 -0.01098 -4.22126e-24)
(1.05945 0.0511786 -4.32963e-21)
(0.462715 0.0764856 0)
(1.00843 0.000387993 0)
(1.01934 0.0106115 -6.82221e-22)
(1.01438 0.00270712 3.06391e-21)
(1.02644 0.00228602 -2.96664e-21)
(1.02182 0.0114784 -1.55948e-21)
(1.0207 0.00157282 9.6642e-22)
(1.03138 0.0143729 0)
(1.02008 0.00945929 0)
(1.02015 0.0128752 -2.55062e-22)
(1.04078 0.00841217 -3.63701e-21)
(1.01236 0.00254076 -6.01311e-22)
(1.02061 0.0170351 -5.27551e-22)
(1.03285 0.0105938 4.34431e-21)
(1.00665 0.000100627 2.14445e-22)
(1.01765 0.00383238 0)
(0.6883 0.0845982 1.32163e-20)
(1.00785 0.000898104 6.27469e-22)
(1.01547 0.00300031 -1.8664e-22)
(1.01887 0.00717342 0)
(1.06191 0.0475539 -2.64656e-22)
(1.00311 -5.7293e-05 -2.00064e-22)
(1.00679 0.000171886 2.61629e-22)
(1.0253 0.0236895 1.30628e-21)
(1.00842 0.00033532 0)
(1.01658 0.00518487 -1.41928e-22)
(1.01985 0.0107303 8.19913e-22)
(0.290589 0.0429784 0)
(1.02056 -4.47833e-05 0)
(1.01596 0.00462291 0)
(1.02027 0.000540153 2.09809e-22)
(1.04721 0.0151791 0)
(1.00782 0.000884504 -5.01591e-22)
(1.02562 0.0235694 1.40645e-21)
(0.977321 0.085324 -6.05218e-21)
(1.03977 0.0645517 0)
(1.00791 0.000890778 -2.98499e-22)
(1.02655 -0.000471991 0)
(1.01787 0.0032552 3.17299e-23)
(1.01592 0.00131521 0)
(1.02146 -0.000111509 -2.03934e-21)
(1.013 0.00297151 -2.60198e-21)
(1.01284 0.000454454 6.13793e-23)
(0.80593 0.089294 -1.32517e-20)
(1.02086 0.011449 -6.95942e-22)
(0.92971 0.00763448 1.37739e-22)
(1.01839 0.00997975 9.36691e-23)
(1.01419 0.00150781 0)
(1.02035 0.0225595 -7.79123e-22)
(0.75774 -0.00121763 -7.42783e-23)
(1.02492 0.00645204 0)
(1.01515 0.000484841 3.64781e-21)
(0.0585465 0.0545433 6.61656e-21)
(0.760911 0.00161519 -3.2435e-22)
(1.08238 0.055526 2.68654e-22)
(0.817023 0.000656494 0)
(1.0176 0.00671221 4.85553e-22)
(1.0167 0.00293604 0)
(1.01199 0.00103748 0)
(1.00714 0.000541189 -4.93484e-22)
(1.00784 0.0244657 1.57602e-22)