/*--------------------------------*- C++ -*----------------------------------*\
| =========                 |                                                 |
| \\      /  F ield         | OpenFOAM: The Open Source CFD Toolbox           |
|  \\    /   O peration     | Version:  v2012                                 |
|   \\  /    A nd           | Website:  www.openfoam.com                      |
|    \\/     M anipulation  |                                                 |
\*---------------------------------------------------------------------------*/
FoamFile
{
    version     2.0;
    format      ascii;
    class       volScalarField;
    location    "50";
    object      ddt0(epsilon);
}
// * * * * * * * * * * * * * * * * * * * * * * * * * * * * * * * * * * * * * //

dimensions      [0 2 -4 0 0 0 0];


internalField   nonuniform List<scalar> 
18166
(
-1.00863e-09
-8.47425e-11
-1.21829e-11
-4.33265e-09
-4.47651e-05
-3.62361e-10
-7.52658e-11
5.93574e-05
-2.07001e-05
-2.46582e-05
2.37075e-11
-4.23324e-11
-6.44738e-05
-1.27482e-08
-9.88346e-05
-9.98149e-09
2.33124e-11
-8.9902e-05
-5.4709e-10
-4.51725e-05
-5.66157e-09
4.04442e-11
-4.3067e-09
6.57292e-09
1.88624e-11
-6.89544e-12
-4.7139e-10
-4.84177e-10
8.80353e-10
-4.37234e-09
8.41268e-06
-7.48107e-11
-4.37004e-11
-3.06941e-11
2.19634e-11
2.72188e-11
-2.0047e-05
-1.80112e-11
-8.46498e-11
-2.19844e-05
4.82965e-13
-7.28664e-05
-5.17014e-11
-6.61542e-10
-9.73082e-10
4.17766e-10
-6.53352e-09
2.49715e-05
-6.52791e-09
-8.41637e-12
-1.48916e-09
-1.56301e-09
-2.13616e-09
-5.5138e-11
2.71199e-11
-6.17371e-05
-7.76893e-05
-4.87911e-05
2.29886e-10
-2.11262e-10
-1.31285e-09
-3.24154e-10
-5.74865e-05
-5.25419e-10
-3.55893e-08
-1.2557e-09
-4.37631e-05
-8.54114e-05
-0.000276208
-5.76125e-10
3.04483e-11
-2.33731e-10
-1.0733e-09
-1.64511e-10
-0.000167148
-5.2098e-06
-3.36545e-09
-0.000231729
-3.16792e-10
-5.02304e-11
-3.11569e-12
-2.60857e-05
-3.31089e-09
9.55324e-11
9.59387e-11
-1.05311e-10
-2.79425e-10
-3.38799e-10
-1.68056e-09
-4.78366e-11
-2.47914e-05
-1.59859e-09
-3.41102e-05
6.1568e-13
-1.32257e-11
-1.27058e-10
1.28868e-10
-2.04876e-09
-7.90131e-10
-3.43008e-10
1.58864e-10
2.9117e-11
-0.000102505
-3.66637e-10
-5.88229e-10
1.18859e-10
-0.000231511
-3.92862e-05
-8.01932e-10
-2.65999e-11
-3.43177e-05
-1.94499e-05
-7.13558e-05
-4.44023e-06
-1.52594e-11
1.00751e-10
-2.24441e-09
-7.25093e-05
2.38522e-10
-1.01598e-05
-0.000137203
1.02788e-09
-4.93476e-06
-2.45724e-05
-4.43166e-09
2.28049e-10
-1.00669e-09
-4.93449e-05
-3.64551e-10
-1.48221e-09
-5.60127e-09
-0.000533659
-2.5471e-10
2.19736e-05
-3.74559e-10
-6.40101e-09
-5.20869e-11
5.41671e-11
-2.27583e-10
-3.09556e-05
-1.99315e-05
-2.12775e-08
1.38882e-05
4.21045e-05
-6.83615e-10
5.2634e-05
-0.000131772
-0.000102573
-1.28789e-11
-3.0286e-10
1.84324e-10
-9.92679e-05
-0.000317846
-4.22874e-09
1.73031e-10
-4.90487e-11
-6.39418e-11
-6.0769e-05
-9.83803e-11
-5.07816e-05
-2.78005e-10
-8.01832e-05
-2.37202e-10
5.91054e-11
-1.59833e-09
7.07004e-06
-1.42618e-10
4.981e-05
-4.05502e-05
-3.53248e-05
-6.53789e-10
6.24321e-06
-1.40643e-09
-8.40513e-05
-7.66602e-08
3.99914e-10
2.45632e-07
-7.72404e-05
-2.50453e-14
8.31082e-11
-1.47586e-11
-1.11803e-09
-6.61715e-06
5.18278e-06
-5.24584e-05
-3.44705e-12
-1.46576e-09
-4.29013e-09
-5.45415e-11
-3.6723e-11
-1.56832e-09
-8.10711e-10
-1.46151e-09
1.64661e-10
-3.3432e-10
-1.44076e-06
-6.62652e-10
-1.56763e-10
-9.23417e-05
-3.46295e-05
-6.86953e-09
-6.49948e-05
-1.66165e-10
-0.000102288
-3.34289e-11
-1.43578e-09
-2.69106e-05
-6.58448e-05
-4.2961e-05
-6.63136e-05
-4.40534e-05
-1.99592e-05
-4.62323e-11
-5.89736e-10
-1.64297e-09
-1.34158e-09
-2.54023e-07
-2.08017e-09
-4.11836e-05
-2.53953e-05
-9.08771e-11
6.54916e-11
-4.70258e-11
9.05303e-10
-3.06361e-05
-6.97658e-11
-1.72606e-09
-1.28361e-10
-9.65156e-11
-7.51247e-11
-3.85363e-05
-7.18953e-05
-1.78188e-10
2.2963e-05
-2.91194e-11
-1.22579e-10
-1.59908e-09
-1.11459e-09
-6.41643e-05
5.31414e-05
-1.4516e-09
-3.56202e-05
-5.07397e-05
-2.38071e-10
-4.54122e-05
-2.97147e-09
-4.45911e-09
-3.68743e-05
-4.04617e-06
-1.99388e-10
-1.01027e-09
1.2014e-10
3.7886e-11
-3.57275e-10
-0.000102623
-8.65723e-05
1.16834e-10
-4.86132e-05
-3.5629e-05
-3.95058e-11
3.06396e-09
2.19583e-05
-2.03228e-09
-1.21911e-08
-3.73957e-05
-8.04644e-05
-8.37979e-05
-1.11894e-10
-2.93132e-12
-3.40858e-10
-1.15898e-11
-2.24297e-10
-1.97208e-11
-7.99992e-05
-1.70712e-09
-6.06171e-05
-6.80534e-05
1.56845e-10
-5.67463e-06
-4.09789e-10
-5.61368e-09
-4.47791e-05
-1.49815e-10
-1.00928e-10
-8.69833e-11
-5.86402e-09
-2.91189e-10
-1.02964e-10
-1.97364e-05
1.54127e-11
-4.67337e-10
-5.56774e-09
-2.31101e-10
9.55056e-11
-2.13463e-10
-3.57513e-06
-6.17187e-11
-1.14056e-10
-1.26451e-10
-3.82594e-05
-4.80745e-05
1.48674e-11
9.5628e-12
-7.00748e-12
-1.4488e-05
2.55594e-11
-6.14192e-05
-6.53636e-09
-3.02761e-10
-9.32054e-11
-2.35101e-10
-4.33114e-06
-4.34011e-05
-9.89921e-10
1.17749e-12
-0.00010495
-1.32002e-07
-2.38567e-10
-1.13533e-11
-3.59379e-08
3.19133e-11
-9.90871e-10
-6.89619e-05
-1.9115e-09
-8.95544e-10
2.26485e-10
-1.03746e-10
-5.59222e-12
9.60151e-12
-0.000100795
2.39759e-11
3.09388e-05
-7.08993e-11
9.82321e-11
-0.000517724
-3.62103e-05
2.27688e-10
-5.02448e-05
-2.33874e-05
-9.82944e-05
-6.76374e-12
-8.42124e-05
-1.18666e-08
-5.21566e-05
2.83113e-12
5.51588e-11
-5.55935e-11
6.10201e-10
-3.47442e-11
-9.62864e-10
-6.84707e-11
-5.42259e-09
-7.60966e-10
3.05698e-10
5.13076e-09
-2.54905e-10
-1.69515e-07
-1.43457e-09
1.86522e-11
2.86495e-11
2.98941e-10
-7.79801e-05
-6.10319e-05
-4.73964e-11
-1.62701e-11
1.4645e-10
-9.29317e-11
-1.29041e-08
1.30184e-11
-0.000166467
-7.3358e-05
-1.3843e-10
7.55013e-12
-3.03867e-06
-2.9498e-05
-0.000378415
-5.17004e-05
4.0978e-11
-1.4715e-09
3.22133e-09
1.37649e-10
-2.62878e-05
1.55004e-05
-3.14523e-10
-4.31451e-10
-4.31862e-10
5.10707e-10
-9.79016e-12
-6.5531e-05
6.67411e-10
2.33594e-10
-2.59272e-10
7.18207e-12
-8.39622e-05
-2.93044e-09
-1.27908e-11
7.48019e-11
-3.3771e-05
-1.50201e-11
-1.83452e-10
-1.52418e-10
-1.36e-08
-4.08332e-05
1.02515e-12
-6.66416e-05
-2.47871e-10
-1.8531e-10
-6.12153e-05
-5.84541e-05
2.28889e-10
-4.74673e-06
-0.000169791
-1.37618e-09
-7.57585e-05
-2.08897e-10
-3.38302e-10
-5.96855e-09
-3.05894e-08
-9.20512e-12
-1.53711e-10
-1.92101e-10
2.41873e-10
5.03184e-06
-2.90965e-10
-1.94951e-05
7.30143e-11
-1.15706e-06
-9.23005e-14
-5.95676e-05
1.40235e-05
1.15006e-09
-6.17559e-07
-1.13973e-09
-2.02729e-10
-1.33043e-09
-8.47135e-05
-8.49815e-05
-2.89624e-11
-0.000162553
-7.87085e-10
1.87074e-11
-1.71362e-05
-4.50756e-05
-1.25616e-11
-7.31803e-05
-9.03329e-05
-9.43743e-11
0.000142625
-1.91283e-08
-1.99795e-10
1.17336e-09
-7.67276e-05
-1.85276e-06
-1.61208e-09
7.73228e-06
-8.19624e-05
-3.73598e-09
-3.07449e-09
-1.96827e-12
-4.0045e-05
2.82222e-11
9.45888e-13
3.49324e-06
-6.87943e-05
-2.76994e-11
3.63115e-10
-7.70607e-10
-1.26722e-10
-3.41333e-09
-1.3687e-10
4.12113e-11
-1.66066e-09
-3.92398e-05
1.2725e-10
-5.54576e-09
1.05349e-11
-5.37248e-05
-2.00065e-10
5.85556e-11
4.16306e-06
-9.22521e-05
-1.7033e-09
-7.97318e-05
3.16886e-11
-1.55323e-10
-2.46644e-05
-0.000251988
-1.327e-09
-1.89221e-11
1.68972e-09
-3.05852e-06
1.55948e-11
-3.0568e-10
2.84326e-11
-1.5819e-10
-0.000103115
-2.21994e-05
2.71639e-11
-1.45506e-10
1.68174e-06
-4.49939e-05
-1.30385e-05
1.99453e-10
2.50993e-10
-0.00017158
-6.44666e-12
2.43967e-09
4.1177e-11
-1.9491e-10
-2.18412e-09
-7.73419e-06
-5.5854e-05
-3.05782e-07
-6.8272e-11
-7.3757e-09
-4.26793e-11
2.08162e-11
-0.000116674
-8.08251e-05
-1.30561e-09
-7.43819e-05
-7.29529e-05
-9.53683e-05
-2.2826e-05
-3.24218e-09
-2.29985e-05
-5.45506e-05
-6.97381e-09
-3.68992e-05
1.31453e-10
8.97229e-08
-1.44106e-10
-1.23158e-10
4.8109e-09
2.6018e-05
-2.96772e-10
-2.40331e-06
-9.52734e-05
-1.07742e-09
-2.71889e-12
3.15187e-10
-6.93155e-05
-3.73622e-05
-8.1946e-05
-1.69702e-10
-1.92548e-06
-6.63253e-05
-9.1314e-11
-1.99158e-10
2.22872e-09
-5.79754e-10
-0.000470373
-3.55767e-05
1.53338e-11
-2.88916e-05
-1.0335e-11
-2.04152e-05
-3.02941e-10
8.94618e-11
-1.19963e-10
-3.64756e-05
3.17676e-11
3.35414e-11
-4.67443e-05
-2.29114e-05
-7.80466e-09
-0.000103304
3.54074e-11
2.1849e-10
-1.03464e-09
4.24753e-05
-1.82061e-08
-2.57998e-05
-7.47022e-10
-7.42828e-05
-6.11808e-05
-1.61757e-09
-6.8024e-05
-1.38338e-10
-2.75035e-05
-1.25116e-10
7.81273e-06
-3.38964e-05
-5.62864e-09
-2.12732e-10
-9.7948e-05
-3.10682e-05
2.02972e-10
-0.000344911
-4.47051e-10
2.84486e-11
-5.60635e-05
-3.13681e-05
8.50328e-11
-2.36551e-11
-6.24638e-10
-5.25224e-05
-5.55478e-05
1.24857e-10
1.17552e-08
-3.83407e-10
-1.84425e-10
-7.66291e-11
-2.17889e-09
-6.92405e-09
-2.5257e-10
-0.000276085
3.70729e-11
7.12253e-11
-6.27577e-05
2.52892e-05
-2.2345e-08
-5.7948e-05
-2.40919e-05
-1.53994e-09
-7.04171e-05
-0.00025633
-2.89429e-10
-6.02353e-05
-2.96029e-09
-3.27048e-10
-1.48813e-09
-8.9785e-05
1.07913e-09
-2.87429e-09
-7.87544e-11
-8.71171e-10
-5.9948e-05
2.2758e-10
-8.81842e-05
-2.2513e-09
-1.55362e-09
-1.45391e-09
2.05557e-12
-1.71541e-10
-5.90175e-05
-2.27331e-11
6.47291e-12
-4.20031e-09
-1.29596e-10
-1.61199e-09
-1.44677e-10
-5.94524e-09
-1.93193e-10
-7.85134e-10
-3.10908e-11
-0.000606391
-5.34999e-05
-0.000137332
-1.10226e-10
-2.84464e-05
-2.34433e-05
3.9051e-06
8.29437e-11
-4.30643e-05
8.0502e-10
-0.000418596
1.54196e-10
-2.0449e-07
-1.28645e-05
-5.62209e-05
3.58069e-05
2.17506e-06
-6.89583e-05
1.85705e-10
-6.61819e-05
5.22022e-11
-4.641e-10
-7.24698e-10
1.85902e-09
-5.63539e-10
-5.58746e-05
-4.74217e-09
-9.90191e-11
-3.11516e-05
-0.000200415
8.52438e-10
-2.54672e-10
7.28595e-11
2.02905e-12
3.96182e-11
-1.0147e-11
2.65183e-10
-2.38968e-06
-1.77151e-10
-5.30103e-05
-1.90134e-05
-5.84525e-05
-1.86277e-05
-1.60582e-07
6.51708e-10
2.58765e-10
-1.65288e-05
7.11498e-11
-5.66688e-05
-6.46078e-05
-4.05279e-11
-1.10829e-09
-0.000101812
-7.80568e-05
-7.18499e-05
-6.98546e-10
6.53816e-10
-6.32108e-11
-8.91424e-05
-6.03914e-05
-8.59372e-05
-2.97325e-09
-1.44181e-06
1.80969e-06
-2.43994e-09
0.000225196
-0.000401412
-1.18964e-07
-8.33809e-12
-3.85626e-05
-6.02743e-09
-3.95817e-09
-7.07149e-05
2.31168e-11
-9.17527e-09
-8.0513e-09
-2.76203e-11
-2.11459e-09
-9.0463e-05
8.02947e-05
-9.37475e-05
-7.19118e-10
-6.00243e-10
-9.80785e-11
2.02117e-07
-4.13828e-05
-3.05659e-10
-8.23074e-05
-4.01501e-11
-6.22297e-05
-2.02274e-05
-2.49826e-10
-8.90609e-10
-1.31973e-10
-8.32709e-10
-9.23216e-13
-0.000253974
-7.46738e-09
-4.37348e-05
-1.22443e-10
-5.56875e-11
-8.5943e-11
-0.000423077
-4.42256e-05
-1.03353e-09
-0.000258537
-4.7731e-09
1.58915e-06
-3.05789e-10
-2.55505e-11
-2.09514e-08
2.62381e-11
5.3764e-07
-9.94597e-05
-4.674e-09
-2.97631e-07
-8.56539e-11
-5.05699e-05
-8.20423e-05
4.44632e-06
-1.85202e-10
-2.51419e-11
2.77115e-11
7.8437e-10
1.19454e-08
-6.96073e-10
-4.47257e-11
1.10025e-08
-9.76242e-10
3.48244e-05
-4.43649e-08
-1.35435e-09
-1.26119e-10
-9.45584e-05
-1.46377e-10
-2.96037e-10
-0.000929334
-1.89739e-07
-1.07344e-10
-2.95007e-08
-7.6358e-05
-1.75744e-11
6.57782e-11
-2.14973e-11
7.12731e-10
-5.74087e-05
2.908e-11
-6.0432e-05
1.49847e-11
-4.2438e-05
-0.000209051
-3.46415e-05
-8.43789e-05
-1.88803e-09
-6.06093e-10
-5.95013e-06
3.23086e-11
-9.67673e-05
-1.98577e-11
-4.30245e-10
-4.60395e-11
-7.00095e-11
-3.98236e-05
-7.16758e-11
-2.52355e-11
3.43585e-11
-1.85854e-10
-1.71816e-05
3.57945e-10
-3.45797e-05
5.11227e-11
-1.07635e-09
-8.38789e-11
-8.3194e-05
-7.30571e-05
-5.8097e-05
-4.72286e-06
-9.20846e-11
-7.06447e-05
-3.2655e-05
-3.14342e-10
5.88621e-11
-6.41239e-05
-5.40089e-05
-2.42582e-10
-7.8483e-09
-7.00404e-05
-1.61556e-09
6.48222e-11
-2.71021e-09
-7.08846e-10
-2.79148e-09
-8.00685e-05
-0.000182394
1.96384e-11
-6.18627e-05
-8.96115e-11
6.75043e-07
-4.08781e-09
-1.08045e-09
1.22973e-09
-5.14017e-05
-5.81562e-05
-7.61811e-05
-1.37734e-09
-4.64548e-09
3.39261e-11
-6.18762e-05
1.43187e-11
-1.1691e-09
4.10427e-11
-3.54814e-11
-5.39952e-09
-2.36275e-10
-7.02242e-10
-5.7972e-06
-1.04805e-09
-3.22199e-05
-4.14988e-10
-1.59735e-07
3.85416e-11
-4.79554e-09
-4.76788e-09
-2.61509e-11
-4.0903e-05
-1.48517e-06
-7.39838e-05
-4.90192e-10
-6.19956e-10
-2.83354e-09
-8.17864e-05
1.47678e-10
5.23366e-11
-1.42211e-10
-9.10163e-05
1.41359e-10
-3.80981e-09
1.06538e-08
5.75903e-10
3.73942e-10
-1.00875e-11
1.2769e-10
-1.41742e-09
-9.95414e-11
-2.63587e-06
-5.32298e-10
2.5538e-11
-2.13763e-10
-2.74599e-05
6.71007e-11
-2.20908e-10
-1.117e-10
4.18942e-11
-2.06451e-09
-5.35707e-09
-0.000123629
1.03004e-06
-7.65445e-11
-6.55193e-11
-3.35882e-05
-3.10478e-05
-5.02232e-05
-3.46648e-05
-2.68617e-08
-2.92481e-08
2.67541e-10
-1.10481e-09
-3.33557e-05
-4.81464e-05
-4.63108e-05
-1.82365e-10
-4.47115e-09
-1.55135e-09
5.05515e-05
-1.91804e-05
-1.6106e-10
-2.86488e-07
-1.08275e-09
-5.96849e-05
-2.63568e-05
-0.000130917
-2.42021e-10
1.83834e-06
1.28101e-10
-8.58013e-11
-8.74191e-05
-1.56593e-12
-2.23065e-10
-4.1982e-05
-4.48129e-05
1.18682e-10
-5.57636e-05
-2.46301e-09
-1.02578e-10
1.21122e-05
-2.02071e-10
-8.01302e-05
-5.84458e-05
-4.27125e-09
-5.5383e-05
-7.49578e-06
-5.71475e-05
-3.04384e-10
-4.67726e-11
-2.13204e-10
3.63967e-11
-4.77902e-11
-1.33346e-10
-1.92474e-05
-8.13775e-05
-7.96923e-11
4.42132e-05
-2.08578e-10
-5.68442e-10
-4.89727e-11
-8.6016e-11
-5.12595e-05
-5.77247e-05
-1.93982e-05
-1.63624e-05
-4.55675e-10
-1.74044e-09
0.000346241
-3.04577e-10
-7.85859e-09
5.28853e-07
-3.71189e-05
-5.60751e-05
-8.33315e-11
3.9533e-11
-1.30898e-10
-5.02107e-11
-1.99466e-09
-1.08232e-05
-9.95108e-11
2.28111e-06
5.39331e-10
8.11314e-11
-1.68912e-12
-3.67497e-05
4.05172e-06
5.54384e-11
-1.14419e-10
-3.0975e-05
-6.689e-11
-2.72744e-05
-4.06723e-05
1.4998e-11
-2.85992e-07
-4.95872e-12
-6.30919e-05
-7.84699e-05
-2.91863e-05
-2.52742e-07
-5.75723e-11
-5.57803e-09
2.92891e-06
6.55404e-10
-7.32888e-05
-2.40505e-05
-2.40376e-05
-9.4775e-11
-1.45566e-09
-2.14113e-10
3.41481e-11
-9.18943e-05
-3.33042e-05
-2.17411e-08
-4.44571e-09
-2.23578e-11
-4.54149e-09
-1.35898e-09
-6.26222e-11
-3.07242e-09
-3.46471e-05
-6.41449e-05
-1.88608e-05
-7.94587e-10
1.22644e-05
-3.32825e-05
3.78228e-11
-2.96518e-11
3.19312e-10
-2.09494e-08
-1.02459e-09
-2.84466e-10
-4.71203e-10
1.41993e-09
-3.22041e-10
-4.07122e-09
-1.00686e-10
-1.02337e-08
-2.38105e-05
-3.08343e-05
-1.8404e-05
-2.19684e-05
1.63321e-10
-7.88535e-11
-0.000207331
4.21287e-07
-7.44442e-11
-6.58511e-11
-3.39837e-05
-6.64948e-10
-4.66799e-09
1.53135e-09
-2.15674e-10
-4.93082e-05
-6.32134e-05
-0.000447774
-1.84479e-10
-6.87285e-05
3.0432e-10
1.37027e-07
-8.31374e-05
-5.55638e-11
-2.0927e-09
-1.68901e-09
1.98408e-05
-5.96607e-05
-1.33447e-10
-6.14419e-05
-2.60082e-05
-2.24588e-06
-1.14856e-09
-4.67011e-05
-6.92618e-10
-0.000132515
-9.02813e-11
-3.11808e-11
3.46618e-12
-1.08813e-10
-1.68263e-10
-1.59036e-09
-3.12209e-10
5.10329e-06
-2.91312e-10
-2.11708e-10
-5.83517e-05
1.08834e-10
-7.33325e-09
-6.8001e-05
-0.00010882
-0.000195022
-6.6402e-11
9.16904e-10
-1.44349e-10
1.61771e-11
-1.10594e-05
1.42213e-08
-6.41292e-09
-2.14264e-05
-4.67964e-05
-1.31172e-10
-8.28013e-10
-1.82048e-10
5.56491e-12
-7.15291e-10
4.34376e-11
-9.63686e-10
2.30692e-10
1.29851e-10
-1.55083e-10
-8.70996e-11
-7.29545e-09
-2.60077e-09
-3.63423e-10
-4.71488e-05
-2.41665e-11
4.71042e-11
-8.22996e-05
-5.28492e-10
-5.65709e-05
-2.13766e-07
-7.33868e-09
-2.6687e-09
-5.80182e-05
-2.1797e-05
-8.76845e-11
-0.000127481
8.30091e-11
-6.93074e-05
-7.55136e-10
-5.11023e-05
-5.20615e-05
7.57621e-05
-1.24202e-09
-8.69123e-06
-6.92496e-10
8.43509e-12
-8.11937e-12
-0.000102019
-1.67269e-09
-2.10647e-05
-7.50159e-05
1.87275e-05
4.31946e-12
-5.12695e-05
-6.1158e-05
6.14098e-11
-2.6455e-10
-1.50847e-09
3.94307e-11
-7.63544e-05
-3.28716e-10
-2.35994e-10
-3.50413e-05
2.98029e-12
-2.18213e-05
-9.21886e-10
1.4122e-10
-3.3731e-05
-2.73124e-10
-3.47272e-05
-6.48258e-11
-7.85239e-05
1.01639e-10
-4.24767e-05
2.38586e-10
-1.73064e-10
-9.01921e-05
-2.62447e-09
-2.90224e-10
1.15094e-10
-2.13533e-05
1.54e-11
5.32242e-11
-5.1098e-05
6.24286e-10
-3.30921e-05
2.23335e-07
6.9324e-12
-3.40771e-05
-7.09843e-05
-1.48555e-08
-5.50054e-09
-3.86588e-11
-0.000912853
1.34722e-12
-8.89167e-09
2.05555e-10
2.57665e-09
-1.86537e-10
-7.00347e-11
7.37421e-09
1.0406e-09
-3.99629e-05
0.000168051
-4.94124e-05
-1.40519e-10
-8.36845e-11
-3.0698e-12
-3.54977e-14
-7.82052e-09
7.61926e-11
0.000386561
-0.000498605
8.76984e-05
-8.28017e-05
-1.8343e-06
-3.90711e-05
-1.7377e-08
1.87787e-11
-1.37544e-09
-3.2778e-10
-8.3615e-09
-2.60419e-09
-1.52695e-10
3.88752e-07
3.56849e-11
-1.58273e-08
-1.02015e-10
-0.000346338
-6.26765e-05
1.1555e-10
-3.26154e-05
-5.44485e-05
-2.97307e-09
-1.34435e-09
-1.12224e-09
1.01247e-05
1.42985e-07
-8.5863e-05
7.5178e-11
-1.68698e-05
2.01475e-09
-3.13923e-05
-2.53355e-05
-4.58074e-05
-5.78263e-09
-3.02815e-05
-1.89311e-09
-3.82661e-05
9.34718e-11
-9.3023e-05
-2.02835e-11
6.70355e-11
7.28095e-11
2.67169e-10
1.16321e-10
3.56217e-11
-1.66193e-11
-9.71579e-12
-5.86506e-05
-1.9347e-05
-5.5939e-07
-2.4789e-06
-3.23625e-11
-1.01112e-10
-1.61988e-10
1.71922e-05
-2.42249e-07
-1.12812e-11
-0.000150317
-5.97868e-11
-1.48515e-10
-3.31583e-09
-0.000105545
-3.58343e-10
-4.41948e-05
-2.74039e-10
-5.98832e-05
1.86071e-11
-5.79425e-08
-1.39131e-10
-1.2943e-06
-2.66863e-10
-2.31313e-10
1.46824e-09
-7.27762e-05
-3.82547e-11
-6.76585e-11
-3.49014e-10
-4.13044e-05
-1.26332e-09
-4.28224e-11
-1.56729e-09
-0.000140875
-4.08933e-10
-1.52211e-08
-3.99718e-10
-1.65839e-09
-7.6138e-05
4.03765e-11
2.87143e-05
-5.40357e-11
-6.04938e-05
-1.03739e-11
-2.36574e-06
-5.27868e-11
-5.02542e-05
-1.94176e-10
-1.06254e-10
-4.76199e-10
-3.41355e-12
-1.4848e-09
3.01859e-10
4.94922e-11
-1.46013e-05
1.09859e-09
-2.74317e-11
-4.81086e-05
-3.58907e-10
-3.40699e-05
-2.69341e-09
-3.46586e-05
8.52974e-05
-3.92733e-05
-6.82668e-11
1.11778e-06
-4.32531e-05
3.54084e-13
-0.000118086
-4.37104e-10
-5.48783e-10
-1.47041e-08
-7.63613e-11
-0.000247785
5.90695e-11
-8.33164e-09
-6.41982e-05
1.02916e-08
-8.462e-11
-3.33783e-05
-1.74192e-10
-5.75452e-09
-1.35044e-09
-1.61837e-11
-2.39148e-05
-2.3282e-05
-1.83356e-06
-3.34478e-05
-6.66058e-05
-9.76824e-10
-5.36917e-05
-4.21716e-06
1.72497e-06
-3.25154e-10
-5.53104e-05
-4.21496e-10
-6.52845e-05
-6.60876e-05
-6.81008e-09
-1.0355e-08
6.40868e-10
-5.15611e-11
-1.92829e-05
1.49333e-10
-3.26218e-05
8.16882e-05
-0.00010008
-1.05481e-10
-7.57897e-10
-8.01359e-05
7.67015e-11
-5.3953e-09
-6.18806e-05
-4.98802e-12
-2.99954e-05
-8.16341e-11
-2.56086e-07
-4.9188e-11
-3.84743e-05
8.46084e-06
-7.58339e-05
-5.28671e-05
-2.30254e-05
-3.94457e-05
4.55522e-07
4.0805e-10
-6.19304e-05
-2.22782e-06
6.11295e-09
1.48746e-11
-3.30403e-11
-7.56345e-08
-2.87682e-05
-4.68691e-05
-2.71052e-09
0.00010569
-1.18686e-09
-5.47188e-11
-6.40276e-10
-3.36164e-10
-3.39716e-05
-0.000318917
-7.3631e-05
4.38385e-06
-8.91681e-10
-1.48452e-10
-5.85825e-05
-1.01606e-10
-1.06085e-10
-2.83609e-10
-4.30332e-05
5.30404e-10
-4.58755e-12
7.72989e-05
-0.000184137
-6.30027e-05
-8.09173e-11
-5.51718e-05
1.99163e-11
-4.38197e-10
-1.97636e-05
-3.34195e-05
-4.43572e-11
-6.55608e-05
-2.99647e-05
1.19781e-08
1.25657e-10
5.69206e-05
8.64453e-12
-5.78724e-05
-8.27354e-10
-9.4292e-05
-7.15053e-05
-3.20262e-09
-2.66677e-05
-9.90226e-05
-3.98893e-10
-6.38999e-05
-2.56987e-10
5.95953e-05
-7.52551e-11
-5.69415e-05
-5.65639e-05
-5.22539e-05
-1.84881e-09
-2.53884e-05
-6.42412e-05
-3.28239e-05
-3.73166e-10
4.902e-11
-3.14887e-07
-2.47468e-05
-3.10151e-10
-7.68559e-10
-1.02824e-08
-2.66567e-09
-6.05538e-05
-1.16411e-10
-1.45472e-09
-7.92151e-05
-2.79002e-09
-1.31954e-11
-0.000103294
-5.78158e-11
-3.09409e-11
-6.39778e-05
1.13172e-10
-4.86094e-08
-1.45259e-09
2.2844e-10
-9.15853e-05
9.0317e-09
-6.74763e-11
-8.55746e-05
-5.14951e-11
-2.53965e-05
-0.000101202
9.69307e-11
7.31138e-12
6.37351e-11
-3.12055e-05
-7.49618e-05
-4.22479e-09
-6.09719e-05
-3.36465e-05
-3.22724e-05
-4.13653e-05
-0.000157712
1.6649e-10
2.43112e-08
-7.70719e-10
-5.23621e-05
-1.14749e-11
-0.000285928
6.1429e-10
-5.90957e-09
-8.40441e-05
4.43491e-11
3.02217e-11
4.65365e-11
-2.2517e-11
1.16919e-10
-4.88922e-05
-0.000100494
-3.09429e-09
-5.95855e-05
-3.20163e-10
-6.89064e-05
-5.18809e-05
1.92304e-06
-3.06249e-08
-8.14636e-05
2.1724e-10
2.02403e-10
-6.03832e-05
-5.48489e-05
-4.17069e-08
3.19269e-11
1.02095e-10
-9.09902e-10
-7.9092e-05
-8.18656e-05
8.93252e-11
-2.29044e-09
-8.21371e-09
-1.4497e-10
-0.000192506
4.81031e-06
-8.36506e-10
-5.39185e-10
-3.38841e-10
5.51758e-13
6.94873e-05
-5.06427e-11
-3.72e-10
-4.08627e-10
-7.67523e-11
2.2038e-10
-3.64861e-11
-1.15771e-09
-7.31935e-05
-6.71004e-05
-6.1067e-05
9.23203e-11
3.54568e-10
-5.37748e-11
-8.43998e-05
-1.60293e-10
-0.000130314
3.10821e-10
-2.9159e-09
-2.84848e-05
-1.01175e-10
1.0899e-10
2.36723e-11
3.96907e-11
-1.08913e-11
-1.44119e-06
-0.000108758
-1.41398e-09
-6.16287e-05
-3.40532e-09
-3.81983e-09
-2.15473e-11
-3.27956e-10
-2.33601e-10
-3.47821e-05
-1.55152e-10
-7.1062e-05
-3.57896e-10
-7.56918e-05
-4.60848e-10
-1.76363e-10
-5.81869e-05
-5.95759e-05
-9.48459e-11
-1.56018e-09
-6.38361e-07
-5.80302e-11
4.71182e-10
3.03933e-11
-3.1485e-11
-5.54423e-05
1.26807e-10
-6.8726e-06
-5.00774e-11
-8.19032e-05
-6.18564e-07
-1.89802e-09
-5.77648e-06
-3.6326e-05
-8.57589e-10
3.80451e-11
-9.21674e-05
-2.80191e-07
-3.93571e-10
3.40881e-11
3.45317e-06
-1.85458e-10
-8.15589e-11
-2.69794e-10
4.84336e-11
-6.71074e-08
-1.06248e-09
2.99824e-05
-6.21764e-11
-1.73392e-09
-1.79055e-09
-3.94558e-07
-6.20611e-05
-4.06765e-10
-7.6565e-06
-6.63497e-10
-4.04754e-11
-7.40424e-10
-4.25673e-09
1.1438e-08
3.32064e-11
-6.18331e-05
-1.11383e-09
-7.64443e-11
-5.54573e-06
-7.38688e-05
-4.14093e-10
-5.21249e-05
-6.62501e-11
-0.000160572
-4.43929e-09
-2.50807e-10
-1.79399e-05
1.8039e-07
-3.30444e-09
-3.22918e-09
-5.92625e-05
-7.94551e-11
-1.56149e-10
-0.000283623
-0.00023525
1.88251e-11
-1.61306e-05
-4.64018e-10
-4.3919e-05
-1.30136e-11
-1.74709e-10
-1.59306e-10
-3.41564e-05
4.91166e-10
-1.81348e-09
-5.98405e-05
-1.37764e-09
-1.48335e-09
-4.45532e-09
-7.86072e-11
-8.199e-10
-1.19191e-05
-3.45463e-05
-1.45563e-11
5.76527e-11
2.12527e-12
-3.74118e-05
-8.22432e-11
-4.39233e-05
-2.29372e-10
-3.15575e-05
-1.57154e-11
-1.02899e-07
-2.45564e-05
-7.14782e-09
-0.000101155
-8.59681e-11
-2.33968e-11
-4.99836e-10
-0.000104012
6.13714e-11
-5.29317e-10
1.90433e-13
-6.44051e-05
0.0001942
0.000100329
-0.000100797
-6.85985e-05
4.54938e-10
-6.54076e-05
-8.91079e-11
-4.73971e-10
-3.93272e-10
-1.16797e-09
-2.26148e-10
1.39868e-05
1.86607e-05
3.60389e-11
-0.000160253
-4.1451e-05
8.94261e-07
-2.7328e-05
9.34464e-11
4.08391e-05
-2.33814e-05
-2.55682e-10
-1.27596e-11
-6.18847e-11
-9.67511e-05
-2.03092e-09
-1.20692e-11
-4.73677e-09
-2.78731e-05
2.74288e-05
-6.73775e-05
-2.70076e-05
-2.73478e-10
-1.68177e-10
-6.00248e-05
5.19256e-11
-6.65733e-12
-6.87527e-05
-3.3204e-10
-1.46999e-10
-6.81987e-08
-1.71455e-09
-1.25561e-10
1.81084e-06
-5.44278e-05
-0.000238093
-1.21516e-09
-2.90514e-05
-3.41707e-06
-5.68018e-05
-5.52595e-05
-2.32551e-09
4.27622e-11
-4.14667e-05
-3.10094e-05
-1.5472e-09
-9.14133e-05
-5.47968e-07
-1.35483e-10
2.89481e-11
-3.76706e-05
-2.43845e-08
-4.21694e-09
8.99828e-11
-4.88284e-05
1.19833e-07
-7.27954e-10
9.66986e-09
1.79086e-05
-4.05507e-11
-1.6885e-09
-4.5256e-11
-3.05797e-05
-5.72856e-09
-1.09515e-09
-6.72115e-11
-4.80377e-10
6.92897e-11
1.58993e-10
-8.32399e-05
-2.42772e-05
-7.29677e-12
-5.15164e-05
3.05697e-10
-8.83242e-05
-8.95408e-09
-3.13709e-05
-4.1066e-09
-1.67105e-10
-0.000164566
1.24768e-10
-3.81678e-05
-8.76695e-05
-6.07768e-05
-3.26551e-05
1.88725e-10
-1.12963e-10
-2.33879e-11
-5.14011e-11
-4.53135e-08
-2.37393e-11
-1.96418e-11
6.30247e-12
-1.48031e-06
6.38675e-10
5.1078e-11
-8.72805e-05
-4.83548e-11
-3.62486e-09
-1.02376e-10
1.19059e-11
-3.53686e-05
3.47571e-10
-5.97201e-10
2.55135e-11
-3.69511e-05
-3.6986e-05
-2.54146e-10
-1.55616e-10
6.06727e-10
-1.4608e-05
-6.87187e-10
-2.05512e-05
-5.52184e-05
-5.17922e-05
-5.38458e-10
2.21491e-05
-8.83345e-12
6.77081e-09
3.21977e-11
-3.07113e-05
-5.36545e-09
-5.71071e-08
-1.62142e-09
1.41307e-10
-4.45397e-11
-1.34085e-10
-4.06735e-05
2.3547e-07
-9.98032e-05
-1.44183e-05
-1.0234e-10
1.98277e-07
-4.82061e-11
-3.71587e-10
-8.05747e-12
-6.90972e-05
-1.75551e-10
-4.40319e-10
1.10867e-06
-4.49585e-11
-3.00749e-05
-8.46373e-11
-9.74097e-11
4.3546e-11
-2.32354e-10
-3.3721e-11
-1.05662e-12
-4.73478e-05
-1.02251e-09
-4.36042e-05
-7.9024e-10
-1.23155e-10
-7.90665e-05
4.00544e-06
-2.04504e-10
-8.83636e-05
3.32477e-10
2.64071e-10
8.14771e-10
-8.25691e-10
-3.83268e-11
-8.68227e-05
-1.1482e-05
-5.69571e-05
2.55714e-10
-6.71636e-09
2.49138e-10
-1.20197e-10
-8.78307e-05
-3.90518e-11
-9.71728e-11
4.40308e-05
-6.56434e-11
4.28629e-10
2.22346e-12
9.68027e-07
-5.93491e-05
-6.93436e-05
-5.71885e-05
1.42108e-10
-1.23264e-10
-7.7306e-11
-3.69884e-05
-1.20925e-10
-4.36935e-11
-3.36271e-11
-7.1321e-10
-4.82734e-05
-7.81891e-11
-1.88174e-11
-1.19195e-09
1.39926e-10
2.17278e-07
9.30308e-05
-3.13406e-10
-6.2586e-05
-9.85151e-06
-7.94882e-09
3.38981e-11
-5.77649e-09
-1.39768e-09
-3.05894e-06
-1.76235e-06
2.42402e-10
-4.93535e-11
-2.11704e-10
-1.74624e-10
3.1838e-11
3.67574e-11
-1.41173e-10
-7.74166e-05
-1.1093e-09
1.51274e-10
4.29237e-10
-4.81281e-05
0.00018997
1.29191e-09
-5.07469e-09
-2.71224e-10
-9.93626e-11
-4.36616e-06
-3.30745e-10
-1.59175e-09
-6.30292e-05
-8.49217e-05
-2.35537e-11
3.18852e-12
-6.39622e-05
-2.87545e-09
-1.19332e-10
5.96389e-10
-4.94222e-10
-5.03605e-08
-2.02021e-05
-1.34364e-09
5.07207e-05
1.92498e-05
-1.03247e-10
-3.47529e-10
-1.22963e-09
4.78655e-05
-6.00883e-05
-3.20444e-11
-4.59773e-06
-7.22342e-08
-5.66662e-05
-8.15006e-09
6.46589e-12
6.56635e-10
-3.64388e-05
2.42526e-10
-5.56269e-09
-2.29975e-05
-6.03801e-05
-4.21814e-09
3.70953e-10
-3.09062e-05
-1.79661e-09
2.73366e-12
-6.44934e-05
-1.87662e-05
-1.21921e-08
-4.71813e-05
3.80844e-05
-4.64792e-09
2.5287e-10
-1.79275e-10
-1.10797e-10
-9.84777e-11
-6.03992e-05
-1.96267e-05
-1.15548e-10
2.92142e-10
-1.34582e-11
-1.64507e-10
-5.82995e-05
1.59896e-09
-1.6499e-10
-5.13063e-07
-2.64922e-05
-8.30098e-09
-2.45112e-05
1.76856e-10
6.1948e-10
-4.24084e-10
3.37514e-11
1.91221e-10
-5.3397e-10
-1.53684e-09
-4.19229e-09
-3.18243e-05
-7.82305e-09
-4.08608e-05
-1.43647e-07
-0.000221728
-3.11404e-09
-2.80826e-09
-1.53533e-05
4.60491e-11
3.23652e-11
-7.58422e-05
-1.77505e-05
3.20874e-06
-2.71537e-05
-2.07969e-05
-6.15623e-05
-4.78934e-05
-4.72971e-05
6.20897e-11
2.79564e-11
-8.50406e-10
-2.75018e-10
-1.03399e-10
8.88363e-07
-1.15584e-09
6.09231e-05
-9.07608e-09
-8.3977e-05
-6.2521e-05
-7.16215e-11
-7.32801e-09
-6.77016e-10
-2.77454e-11
-1.55622e-10
-3.31985e-09
2.21077e-05
2.18292e-05
-2.11329e-05
-1.5212e-10
-3.01959e-10
3.80696e-10
3.04302e-10
-4.62185e-05
-2.61134e-08
3.9361e-06
-6.33962e-09
-1.19626e-11
-1.48819e-10
-1.2009e-09
-7.32625e-05
-9.41583e-11
-0.000339629
-3.17992e-10
2.63232e-10
-2.89874e-09
-9.07036e-06
-1.01819e-08
-2.19478e-09
-2.97102e-05
-5.62292e-09
4.8863e-11
-1.12617e-05
1.79223e-10
-1.99802e-05
1.94031e-11
-1.51391e-09
-1.57616e-08
-5.69751e-09
-8.19725e-10
-1.86643e-11
-0.00026116
-7.23774e-10
-5.11476e-05
-5.13412e-06
-9.56012e-05
6.93761e-11
-1.94186e-09
4.04431e-06
-3.10096e-11
-7.04437e-11
-2.88041e-05
-8.37826e-05
-7.46519e-10
-1.64027e-10
2.42269e-12
-0.000155906
1.10651e-10
-5.39763e-05
-1.77334e-07
5.06271e-05
-1.51643e-09
-5.91823e-09
2.22676e-11
-9.32507e-10
-8.42174e-11
6.13252e-05
3.35297e-09
1.75459e-10
-3.13272e-10
9.91561e-05
1.90422e-05
1.05202e-11
-2.02541e-05
1.19873e-10
-5.18696e-11
-6.13857e-10
-2.0398e-05
-2.14664e-10
-1.24646e-09
-3.26049e-10
-8.80016e-11
-2.28954e-08
-6.37169e-05
-3.54111e-05
-2.76588e-09
1.31908e-10
1.54034e-05
2.62308e-05
-3.62385e-05
-7.81987e-05
-1.54663e-07
-1.50756e-09
4.79405e-11
-5.80895e-09
-5.27398e-05
-4.44503e-10
-1.30522e-07
-7.36964e-09
-1.74507e-11
-4.87567e-11
-4.71493e-09
-1.61949e-09
3.13872e-10
-1.29328e-10
-4.26717e-11
1.0044e-05
5.83764e-11
-5.42965e-11
-3.71488e-10
-3.78167e-06
-7.90587e-06
-2.69989e-10
-4.10109e-05
-1.1194e-09
-4.71572e-11
-7.66975e-05
-6.20973e-05
-2.7814e-05
-3.85994e-09
2.30476e-06
-4.75816e-06
-6.08025e-10
1.37066e-11
-1.60985e-10
-3.3458e-09
1.00087e-11
-7.50316e-11
-2.56228e-10
-1.84362e-10
-1.42115e-11
-9.07686e-05
-4.71794e-05
-2.25066e-08
-3.18789e-05
-8.1534e-12
-1.163e-09
-3.17516e-05
-3.10795e-11
-3.08421e-05
-1.0757e-10
-6.4072e-12
-2.0769e-09
-1.30088e-10
2.10908e-12
-1.07264e-10
-9.91398e-10
-5.21271e-11
3.65192e-07
8.18785e-11
-2.06377e-07
-5.5315e-05
4.13559e-06
-0.000598294
-2.15521e-09
-1.71343e-10
-2.02329e-05
-1.9726e-05
-5.34918e-09
-3.7873e-08
-0.000100437
-7.88737e-09
-8.34266e-05
-6.2068e-11
1.02886e-10
-5.01375e-05
2.2856e-12
-6.70723e-08
-3.32742e-09
-5.68137e-09
8.8963e-08
4.22609e-11
1.44106e-10
1.40093e-10
-5.03651e-11
6.05567e-06
-2.97748e-05
1.21334e-09
-7.31253e-05
-4.42714e-05
-6.2602e-11
-2.45472e-10
-4.67614e-05
-0.000208892
7.12064e-11
-0.00010149
-1.20772e-09
-0.00017821
-1.05607e-10
-5.43931e-05
2.14063e-05
-5.57602e-10
-5.57343e-05
-5.28339e-06
-3.39852e-09
-1.04871e-08
-8.14945e-05
-1.39951e-08
-1.38991e-10
-7.13197e-05
-7.72666e-05
-1.81375e-10
-1.40699e-09
-8.25445e-11
-6.68431e-07
-1.42522e-10
-1.59162e-10
-1.55332e-11
-5.43085e-10
9.85879e-10
-0.000149338
-1.49369e-09
-9.38478e-05
-0.000105046
-2.44185e-05
-0.000165134
1.47746e-10
-3.99874e-10
-5.25122e-10
-8.62917e-10
1.15791e-10
4.40484e-11
-3.17955e-05
-0.000213823
7.27613e-11
4.23062e-11
-4.00258e-09
-1.89375e-05
2.49887e-11
3.06413e-06
-3.00217e-10
-1.78768e-10
-4.11847e-09
-6.09409e-05
8.55734e-11
3.86504e-12
3.37334e-11
-7.18115e-05
0.000277727
-3.19311e-09
-1.19211e-09
-4.43061e-11
-4.7961e-05
-1.05815e-10
-8.01863e-05
-6.30312e-05
-0.00022013
-1.59555e-09
6.60242e-11
-8.62218e-06
-2.37717e-10
-1.9646e-11
2.22228e-11
-7.73952e-11
-5.45519e-05
7.2813e-11
1.15102e-09
-1.78687e-12
-1.5141e-09
3.87919e-11
-2.76157e-05
-1.07621e-09
-6.03056e-05
-1.99319e-09
-4.2383e-05
-1.8947e-05
-8.42812e-05
7.13376e-11
4.31848e-11
-2.15534e-05
-8.62292e-05
9.60206e-06
-2.30954e-05
-2.12512e-09
-4.45902e-11
-2.76231e-10
-0.000361665
6.90497e-11
-1.906e-07
-0.00047795
6.43482e-10
-8.38395e-05
-6.05808e-05
-2.0981e-05
-6.37969e-11
5.97441e-11
-1.4822e-09
6.99922e-11
1.13662e-09
1.67826e-10
4.21565e-11
-6.31704e-05
-6.14893e-05
-7.20058e-05
-6.99327e-10
1.63285e-10
1.54573e-11
-7.62451e-05
-3.06041e-10
-5.91321e-05
-4.24864e-05
-7.391e-06
6.16873e-12