/*--------------------------------*- C++ -*----------------------------------*\
| =========                 |                                                 |
| \\      /  F ield         | OpenFOAM: The Open Source CFD Toolbox           |
|  \\    /   O peration     | Version:  v2012                                 |
|   \\  /    A nd           | Website:  www.openfoam.com                      |
|    \\/     M anipulation  |                                                 |
\*---------------------------------------------------------------------------*/
FoamFile
{
    version     2.0;
    format      ascii;
    class       surfaceScalarField;
    location    "50";
    object      ddtCorrDdt0(phi);
}
// * * * * * * * * * * * * * * * * * * * * * * * * * * * * * * * * * * * * * //

dimensions      [0 3 -2 0 0 0 0];
oriented        oriented;


internalField   nonuniform List<scalar> 
26940
(
-3.84986e-06
3.65439e-05
-3.26939e-05
-1.60892e-06
6.81751e-07
9.27284e-07
-2.28152e-06
6.507e-07
1.63061e-06
-2.19071e-05
-5.01012e-05
7.20084e-05
2.86697e-05
-6.95906e-06
-2.17103e-05
6.39422e-06
-3.99506e-05
3.35561e-05
1.07673e-05
-4.31286e-06
-6.45439e-06
-9.58323e-06
9.58317e-06
1.20636e-05
1.751e-05
-2.95739e-05
-3.29542e-05
2.56513e-05
7.30325e-06
-2.89377e-06
7.31809e-06
-4.42456e-06
6.31332e-06
-1.91637e-05
1.28501e-05
9.78187e-06
-1.81722e-05
8.3899e-06
-3.00495e-05
8.17143e-06
2.18795e-05
-8.80487e-06
2.44041e-05
-1.56006e-05
-2.77232e-05
-2.32635e-06
8.09965e-06
-6.75907e-06
-1.34057e-06
1.21962e-05
1.94322e-05
-3.16287e-05
-6.12161e-06
-1.74982e-05
2.36197e-05
-4.83069e-06
-4.86238e-06
9.69298e-06
-2.1611e-05
4.17446e-05
-2.01338e-05
1.93748e-06
6.16215e-06
-4.66405e-05
2.50294e-05
2.69602e-06
8.03319e-06
-1.07295e-05
4.25076e-06
3.82743e-06
-8.07829e-06
4.1337e-06
6.63364e-06
4.46212e-05
-1.5007e-05
-2.96149e-05
3.77895e-05
1.72191e-06
-3.95113e-05
2.9231e-05
-8.10852e-06
-2.11227e-05
4.7519e-05
-6.94264e-05
-0.00014025
2.31406e-05
0.00011711
-2.92933e-06
8.85994e-06
-5.93037e-06
-3.95678e-06
2.22964e-05
-1.834e-05
-1.01001e-05
-1.02818e-05
2.03814e-05
4.57082e-06
1.43811e-05
-1.89534e-05
5.66092e-06
-4.30003e-06
-1.36081e-06
-1.54259e-05
2.74892e-05
4.77928e-06
8.81713e-07
1.5911e-05
-3.67712e-06
-1.22341e-05
-1.0805e-05
-2.2149e-05
-7.22222e-07
4.25317e-08
6.798e-07
5.82236e-05
-1.86327e-05
-3.95913e-05
-2.47118e-05
2.07548e-05
-2.09733e-05
-9.20139e-06
3.01746e-05
-3.9426e-05
4.30342e-05
-3.60856e-06
4.37483e-06
1.12195e-05
-1.55941e-05
8.63094e-05
-0.00016012
7.38102e-05
-0.000140249
-4.21769e-05
0.000161872
-0.000119696
-1.18483e-05
4.47774e-05
-3.29293e-05
9.19708e-05
-6.26462e-05
-2.93255e-05
-5.67124e-05
-6.53754e-06
6.3249e-05
3.49515e-05
4.63512e-06
-3.95872e-05
-8.08517e-07
4.6209e-07
3.4647e-07
4.35494e-06
-7.24881e-06
-2.17063e-05
3.94395e-06
1.77618e-05
4.27089e-05
1.55146e-05
2.14455e-06
-1.48988e-05
1.27539e-05
-1.38202e-05
3.54864e-05
-2.16665e-05
2.72972e-05
9.2643e-06
-3.65615e-05
-4.34823e-05
5.12487e-05
-7.76711e-06
-4.43772e-05
6.13923e-05
-1.70155e-05
-1.06467e-05
1.38475e-05
-3.2007e-06
5.30132e-05
-2.86582e-05
-2.43557e-05
2.30482e-05
5.77875e-06
-2.88271e-05
1.27346e-05
-3.45709e-06
-9.27769e-06
-1.75887e-05
1.42227e-05
3.36592e-06
1.53064e-05
0.00016601
-0.000181317
1.57013e-06
-2.20151e-06
6.3104e-07
-2.1505e-05
5.36435e-05
-3.21383e-05
-1.53178e-05
1.98881e-05
7.02049e-06
1.8998e-05
-2.60185e-05
4.59678e-06
-4.4023e-05
3.60056e-05
-3.74073e-05
1.40126e-06
2.35383e-05
-2.35379e-05
3.18333e-06
1.02294e-06
-4.20811e-06
8.23733e-06
-3.88062e-05
3.05691e-05
-2.10265e-06
3.67256e-06
-1.92895e-05
4.26598e-05
-2.33709e-05
5.89534e-06
-5.62667e-06
-2.6869e-07
-1.05835e-06
2.05623e-06
-9.98052e-07
-2.51336e-06
2.7739e-05
-2.5226e-05
-1.02318e-05
5.44572e-06
-1.13579e-05
5.91173e-06
-3.50667e-06
8.5791e-06
-5.072e-06
-4.58772e-05
2.43786e-06
4.34385e-05
-1.46911e-05
4.20385e-05
-2.73477e-05
2.04803e-06
-4.23524e-06
2.18741e-06
-8.89958e-06
-5.65407e-05
6.54404e-05
1.25671e-05
3.3434e-06
3.32143e-05
-3.3486e-05
2.71471e-07
1.2839e-05
2.70175e-05
-3.9857e-05
1.78635e-05
-2.85073e-06
-1.50131e-05
-7.61817e-07
7.26702e-07
3.50294e-08
-6.39437e-07
-8.27529e-08
-3.98643e-05
-6.01365e-06
3.06877e-06
-7.43786e-06
4.36924e-06
-4.64843e-05
3.19041e-05
1.45799e-05
-1.8692e-06
-2.7545e-05
2.94144e-05
-3.69121e-05
4.71316e-05
-1.02185e-05
-1.3595e-06
1.27657e-06
8.30683e-08
3.97335e-06
-1.16932e-05
7.72042e-06
-2.73551e-05
1.85494e-05
1.97224e-05
3.32905e-05
-4.21614e-05
2.06567e-05
-7.74448e-06
1.17181e-05
3.06834e-06
-7.34266e-06
4.27375e-06
4.31229e-06
1.2169e-05
-1.64813e-05
-3.14328e-05
1.39252e-05
1.75075e-05
-4.38116e-06
7.60775e-06
-3.22673e-06
-1.31013e-05
1.52456e-05
8.45129e-06
-3.27517e-05
2.43e-05
-6.72113e-06
6.7957e-06
-7.48017e-08
9.167e-05
-0.000132042
4.03721e-05
8.41725e-06
-5.60299e-06
-2.81439e-06
3.05426e-05
-2.21508e-05
-8.39184e-06
2.90919e-05
-4.90557e-05
1.99633e-05
-4.74935e-05
5.80172e-05
-1.08089e-05
3.10391e-05
-2.02298e-05
0.000387598
8.59818e-05
-3.21906e-05
-4.8773e-06
2.4149e-05
5.08189e-06
2.9737e-05
2.21796e-05
-5.1917e-05
4.7272e-05
-3.09289e-05
-1.63435e-05
7.04677e-05
-7.40186e-05
3.55059e-06
8.54468e-06
-1.90872e-05
1.05423e-05
1.3265e-05
1.08964e-06
-1.43547e-05
-1.69726e-05
7.24239e-06
9.72967e-06
3.30653e-05
-1.80227e-06
-3.12634e-05
-4.98136e-06
3.50147e-05
-3.0034e-05
-5.19801e-05
8.24705e-05
-3.04903e-05
8.30241e-06
-1.03187e-05
2.01616e-06
-5.97207e-05
2.051e-05
3.92123e-05
0.000384713
7.77748e-05
-0.000462488
2.05759e-05
1.62319e-05
-3.6808e-05
0.000158011
-7.17016e-05
5.42784e-06
-6.48491e-07
3.14723e-07
-4.10587e-06
3.79164e-06
-3.24725e-05
-2.72477e-05
2.66814e-06
-0.000125414
0.000122745
-2.01643e-05
-6.93919e-06
2.71032e-05
2.7597e-05
-4.5488e-06
5.91072e-06
0.000153066
-0.000158977
0.000543412
-2.7362e-05
-3.68658e-05
5.43292e-06
2.32921e-05
2.4961e-05
-4.82532e-05
2.15128e-06
-2.15142e-06
2.3451e-05
5.9349e-06
-2.9387e-05
-3.02641e-05
2.75518e-06
2.75096e-05
-2.23482e-05
-2.69658e-05
4.93123e-05
8.33756e-06
-5.26863e-06
0.000162877
4.43071e-05
-0.000207185
3.06834e-06
1.78856e-05
5.25819e-05
4.56863e-06
-3.52892e-06
-1.03986e-06
3.99781e-06
-8.37909e-06
2.88333e-05
-5.61201e-06
-2.32214e-05
-1.45019e-05
3.85525e-06
6.62225e-07
4.76564e-06
-7.1908e-06
3.40336e-06
1.0604e-06
-4.46315e-06
-0.000151896
-7.29285e-05
0.000224822
-4.19879e-05
3.50784e-05
6.90882e-06
5.41894e-07
5.99784e-07
-1.14131e-06
-6.56118e-05
-3.27387e-05
-1.54941e-05
4.82321e-05
1.62628e-05
-7.63551e-06
-8.62747e-06
0.000233653
0.000309755
-1.07633e-05
2.7492e-05
-1.6729e-05
-1.37403e-05
1.3895e-05
-1.54811e-07
4.79116e-05
-5.32407e-05
5.32897e-06
0.000151226
-5.95559e-05
-3.83658e-05
3.33841e-05
-0.000106434
0.000121739
-2.50402e-05
7.13031e-06
1.79095e-05
1.67979e-05
-2.62896e-05
9.49169e-06
-2.17911e-05
7.72308e-06
1.40707e-05
-9.70825e-05
0.000177935
-8.08518e-05
8.18749e-07
8.2943e-07
-1.64797e-06
3.30359e-06
-1.25555e-06
4.9576e-06
3.4596e-06
1.23229e-05
2.93319e-05
-4.16553e-05
4.30406e-05
-9.7121e-05
5.40793e-05
2.9917e-05
-5.17062e-05
2.23001e-05
-3.72519e-05
1.49517e-05
1.31442e-06
-2.72861e-06
1.41444e-06
4.64471e-05
-4.58894e-06
-4.18585e-05
-1.8162e-05
7.18991e-05
-5.37372e-05
1.75509e-06
1.2147e-06
-2.96964e-06
2.05587e-05
9.9838e-06
-1.47761e-06
-4.20052e-05
-2.45758e-05
1.84541e-05
-7.08384e-05
-1.0148e-05
8.09883e-05
-5.71264e-06
1.11582e-05
5.95028e-05
-3.52222e-05
-2.42807e-05
0.000187346
9.81959e-06
-0.000197164
4.23588e-05
-3.59645e-05
3.26158e-05
2.68869e-05
6.22227e-05
2.23821e-05
-1.80705e-05
1.20096e-07
4.77917e-05
-2.80042e-06
1.2382e-05
-9.58176e-06
3.88776e-05
-9.47095e-06
-2.94081e-05
-4.54702e-06
2.79979e-05
-1.67413e-05
2.5016e-05
-8.27491e-06
5.36487e-05
-6.01872e-05
-3.08629e-05
2.83493e-05
-2.2501e-05
7.9464e-07
2.72199e-05
-2.49961e-05
-2.22401e-06
2.2117e-05
-2.21173e-05
1.38555e-05
1.48145e-05
-2.88559e-05
8.69153e-06
-7.90104e-07
1.75801e-05
-5.30899e-06
-1.22712e-05
7.1092e-05
-1.78554e-05
-5.32367e-05
4.2619e-05
-2.978e-05
2.92286e-05
-1.28449e-06
-2.79443e-05
-1.73925e-05
-3.01405e-05
1.9377e-05
3.42491e-05
-6.51025e-06
3.98957e-05
-1.91879e-05
-2.07085e-05
1.28239e-05
-1.44285e-05
1.60445e-06
2.49178e-06
-1.17724e-06
7.24075e-06
2.78668e-05
-3.51076e-05
-4.02287e-06
5.28956e-06
-1.26699e-06
1.22715e-05
-9.10539e-06
-3.16568e-06
4.65631e-05
-1.46591e-05
-1.85607e-06
1.38926e-06
4.67026e-07
3.464e-05
-1.35701e-05
-2.10703e-05
6.47606e-06
3.24008e-05
1.60703e-05
-1.79912e-05
1.92071e-06
7.83654e-06
-1.10507e-06
-6.73165e-06
3.81917e-06
-4.11774e-05
3.73581e-05
-0.000205269
0.000395162
-0.00018989
1.35636e-06
-1.66942e-06
3.13165e-07
4.81102e-05
-1.02518e-05
-3.7859e-05
1.53259e-05
5.57663e-05
3.68754e-05
9.49853e-06
-4.63744e-05
1.21366e-05
-1.02308e-05
-1.90662e-06
-2.17491e-05
4.5041e-05
-3.0988e-06
-6.77394e-05
-1.6577e-05
2.79376e-05
-1.13609e-05
4.37875e-06
-3.28696e-06
-1.09196e-06
3.58208e-05
-8.52386e-06
3.46809e-05
-8.44978e-05
4.98162e-05
-2.13183e-05
-1.04601e-05
-6.82633e-05
8.4316e-06
-2.50088e-05
0.000306209
0.000115028
-0.000421238
-2.77433e-05
3.26966e-05
-4.95374e-06
-3.34097e-05
2.956e-05
1.67969e-06
1.15854e-05
8.10125e-06
-2.48428e-05
4.04887e-05
-7.42351e-06
-4.77966e-05
0.000210672
3.16579e-05
-5.50018e-06
-2.61577e-05
-1.05339e-05
5.55861e-06
4.97537e-06
-2.62129e-05
1.15005e-05
1.47121e-05
-2.96347e-06
-1.0777e-05
1.28225e-06
-7.40184e-07
1.46049e-05
-4.38755e-06
-1.02175e-05
-0.000362398
0.000157127
4.03287e-05
-4.05475e-05
2.18426e-07
7.57019e-05
-0.000117879
9.18118e-06
-9.98989e-06
8.08556e-07
-8.18168e-07
-2.9052e-06
3.72312e-06
2.44816e-05
-4.54365e-06
-1.99381e-05
3.47879e-05
1.21756e-06
-1.34627e-06
2.87853e-07
-3.59839e-05
-9.27784e-07
3.27728e-05
6.41249e-06
1.11676e-05
-4.896e-06
4.76011e-06
1.3615e-07
7.02408e-06
3.16557e-05
-3.868e-05
1.18223e-05
-6.83621e-05
-1.67065e-06
2.21699e-05
-2.04998e-05
0.000112762
-0.000209845
-5.74317e-07
-1.28158e-06
-2.20009e-05
2.51867e-05
5.4082e-06
4.04616e-05
-0.000103069
6.26059e-05
-7.8016e-06
-9.78721e-06
3.67943e-05
-2.00677e-06
-4.2802e-05
1.53732e-06
4.12648e-05
1.43457e-05
2.55494e-05
5.69147e-05
-2.1487e-05
-3.54277e-05
-4.75165e-05
3.13901e-06
-2.52603e-05
8.90402e-07
2.43696e-05
-2.67722e-05
1.1346e-05
8.61851e-06
-3.66104e-06
-1.25415e-05
5.03317e-05
9.2767e-05
6.52437e-05
-4.05886e-05
2.50837e-05
1.55047e-05
-4.35674e-06
-6.17725e-06
3.77032e-05
-9.09185e-07
2.79875e-05
0.000159358
9.88222e-06
-6.3441e-06
-3.53819e-06
1.88537e-05
-1.24412e-05
4.16425e-06
8.1073e-06
9.79005e-05
-6.32199e-05
3.01556e-05
-0.000191177
0.000161021
5.33612e-06
5.59237e-07
2.92676e-05
-5.514e-06
-2.3754e-05
-6.07161e-07
-4.28865e-06
-1.8205e-07
2.17856e-05
-2.1604e-05
2.71899e-05
-5.07387e-06
-2.21166e-05
-1.91242e-05
-3.37721e-06
9.6126e-05
-4.17216e-05
-5.44044e-05
1.18834e-05
-3.28567e-05
-1.98297e-05
-9.45422e-06
2.92835e-05
-4.66361e-05
1.83144e-05
2.83244e-05
1.78564e-05
2.10467e-05
-3.89013e-05
-7.95349e-06
3.12291e-06
3.7425e-05
-4.48896e-05
7.46366e-06
3.98599e-06
4.63243e-06
-1.73417e-05
2.20536e-05
-4.71232e-06
1.56884e-05
9.09934e-06
-2.47902e-05
-2.08294e-05
-1.97594e-05
9.29582e-06
0.000124263
-9.06831e-05
-3.35808e-05
1.59413e-05
-1.34109e-05
-2.53039e-06
3.06236e-05
-3.24927e-05
4.49843e-06
-7.29908e-06
4.28026e-05
-2.4741e-06
-2.84429e-05
4.75433e-05
-1.91009e-05
2.21554e-05
2.26225e-05
-5.26396e-06
-1.99967e-05
2.14651e-05
5.72452e-06
1.42174e-05
2.04614e-06
-1.62629e-05
-8.94033e-05
8.51379e-05
4.26782e-06
4.84712e-06
-4.53267e-06
0.000357352
-3.70016e-05
-2.42053e-05
3.21448e-05
-7.94029e-06
3.3156e-05
-1.6684e-05
-1.64722e-05
3.27602e-05
-2.17759e-05
-1.09846e-05
-6.24034e-05
1.35672e-05
4.88359e-05
-1.57079e-05
-1.05048e-05
2.99302e-05
3.28394e-06
1.58809e-05
-4.87383e-05
3.28589e-05
-7.53485e-06
-2.27285e-05
6.83624e-06
-1.67918e-05
9.95536e-06
7.14819e-05
5.27812e-05
-0.000182785
-0.000170902
0.000353687
3.58912e-05
1.22188e-05
3.59346e-06
2.82975e-06
-6.42329e-06
-1.05794e-05
5.77966e-06
4.79995e-06
3.28976e-07
3.70951e-05
-2.13691e-05
2.83895e-05
-1.05287e-05
4.74037e-05
1.82335e-05
-3.2054e-05
0.000153234
-6.04666e-05
7.46105e-06
1.13928e-05
-1.39768e-06
2.49547e-06
-1.09763e-06
-3.92018e-05
4.15756e-05
-2.37381e-06
-3.88997e-05
2.42085e-05
4.46457e-05
-2.89574e-05
-5.65811e-05
-1.29421e-05
6.95257e-05
7.94835e-06
-2.40845e-06
1.66261e-05
1.86036e-06
1.4433e-06
1.72506e-08
-8.3552e-07
4.54116e-07
3.9753e-05
-4.02062e-05
-9.5994e-06
5.2428e-06
-8.35152e-06
4.71194e-06
3.63954e-06
1.13761e-05
-1.34691e-05
2.09318e-06
-1.54141e-06
2.38947e-06
-8.48325e-07
1.78833e-05
-5.43131e-05
3.64297e-05
-8.38389e-08
3.28434e-07
-2.44484e-07
-5.13885e-07
-1.80178e-05
1.85318e-05
3.02042e-05
-1.80082e-05
3.9275e-06
-2.14558e-06
-1.78177e-06
1.09325e-05
5.00875e-06
6.9299e-05
-6.57713e-05
-3.5277e-06
3.12362e-05
-2.49568e-05
-6.27965e-06
8.85114e-06
2.43048e-05
1.75321e-05
-0.00020032
2.39178e-06
7.62124e-07
-3.1539e-06
-6.67287e-05
4.01773e-07
-6.28054e-05
-3.36764e-05
-0.000161076
0.000163742
0.000124352
-0.000204163
7.98095e-05
1.60149e-05
-3.83634e-05
-1.08109e-05
3.88403e-05
-2.80299e-05
1.13756e-06
-1.82888e-05
1.71515e-05
8.34699e-06
8.3337e-08
-8.89301e-08
5.718e-09
-9.18045e-07
1.30545e-05
2.21912e-05
-2.10535e-05
1.5204e-07
1.56171e-05
-1.57697e-05
-5.14859e-05
2.44125e-05
2.70731e-05
1.25123e-05
-4.48694e-06
-8.02487e-06
5.82028e-05
7.09105e-07
-5.89149e-05
-8.13076e-05
-4.71921e-05
0.000128499
-4.91783e-06
1.66745e-06
3.25038e-06
1.18359e-05
2.03589e-05
-2.49546e-06
-6.67212e-06
7.06027e-06
-3.88035e-07
-6.04363e-06
6.96173e-06
-9.17954e-07
-2.40876e-05
2.6192e-05
-2.10453e-06
-3.17095e-05
-1.12896e-06
3.28383e-05
1.4695e-05
1.80651e-05
-4.97131e-07
-2.64674e-07
-7.94605e-06
3.02461e-05
-7.8352e-06
-3.28479e-05
4.06822e-05
3.51178e-05
-2.86429e-05
-6.03846e-06
-1.65842e-05
2.26224e-05
-1.64522e-05
1.04138e-05
2.42639e-05
-2.45526e-05
2.88487e-07
-2.48682e-05
2.46858e-05
2.19134e-05
2.76869e-05
-5.00351e-05
2.23474e-05
2.94089e-05
-3.75891e-05
8.18024e-06
2.44044e-05
-4.36106e-05
1.92054e-05
2.76743e-05
1.94573e-05
3.20169e-05
2.4898e-05
-2.14925e-05
-2.25893e-05
4.40819e-05
-1.28967e-05
-1.77368e-05
1.5656e-06
-8.53263e-06
6.967e-06
-2.72068e-05
3.54181e-06
2.36647e-05
-8.08153e-06
1.66261e-05
-1.90241e-06
-3.08363e-05
2.79198e-05
5.66391e-06
-3.35842e-05
-1.48353e-05
4.11486e-05
-2.63136e-05
-1.39915e-06
-8.82428e-07
5.85812e-05
-2.88445e-05
-1.89201e-05
8.81993e-06
4.87064e-05
-4.82517e-05
5.52843e-06
-5.52846e-06
-9.98251e-08
-2.98773e-05
2.99777e-05
5.15876e-08
-3.22882e-05
3.22357e-05
1.99228e-05
-4.83661e-05
-2.63164e-05
4.16717e-05
5.02989e-05
1.55115e-05
4.26879e-05
3.52352e-05
1.03177e-05
-4.55535e-05
-3.05055e-07
4.24286e-07
-1.19125e-07
9.27969e-06
-9.79358e-06
3.05484e-05
-5.8783e-05
2.82333e-05
8.9835e-06
-8.53086e-06
-4.52683e-07
2.43731e-05
2.28988e-05
-1.96298e-05
1.1828e-05
-2.33048e-06
1.51542e-05
0.000107525
-0.000259421
-1.26203e-05
1.94564e-05
-4.96535e-06
8.9631e-06
-2.45766e-05
2.45766e-05
-2.76536e-05
4.55367e-05
4.57553e-06
3.05413e-05
-3.19071e-05
3.91479e-05
4.32398e-05
-3.62158e-05
-8.05544e-06
-1.69849e-05
3.69387e-06
-6.63406e-05
0.000383984
-2.03959e-05
3.0539e-06
2.7525e-05
-0.000108833
4.76969e-05
2.31729e-06
-5.00148e-05
4.43958e-06
8.07281e-06
1.70852e-05
-9.84298e-06
-2.67405e-05
9.24208e-06
-2.26987e-05
2.28273e-05
-1.28793e-07
3.56717e-05
-3.56201e-05
-9.70653e-06
3.91155e-05
-9.60338e-06
-2.09486e-05
3.05519e-05
2.39103e-05
3.53472e-07
-2.99254e-05
6.04733e-05
4.25949e-05
-1.81903e-05
5.73224e-06
-2.70505e-05
-2.21141e-06
-8.36795e-06
-7.10625e-06
3.59969e-06
-5.53304e-05
3.31639e-05
2.21663e-05
1.47067e-05
-9.99381e-07
-1.37076e-05
2.97847e-06
-1.11813e-06
-7.82055e-05
0.000118667
3.55671e-08
-1.57711e-06
-4.14767e-06
7.45196e-06
-3.30444e-06
9.26223e-06
-7.6967e-06
1.45623e-06
-9.97796e-08
0.000130304
3.38168e-05
-0.000164122
-2.69403e-05
8.85229e-06
1.80879e-05
-2.94664e-05
4.74778e-05
-1.80116e-05
-4.85502e-08
-4.23986e-08
9.12345e-08
1.83803e-06
3.73012e-06
-5.56819e-06
-5.3145e-06
3.39603e-06
1.91847e-06
1.5469e-05
1.87798e-05
-4.89276e-06
1.69546e-05
-1.20621e-05
-3.61771e-05
4.56754e-05
3.16107e-05
-3.69335e-05
5.32218e-06
6.16392e-06
-3.48112e-05
2.86463e-05
0.000184315
-0.000141275
-4.74461e-06
5.78302e-06
-1.03863e-06
3.5106e-06
1.27521e-05
3.99529e-06
-1.60356e-06
2.90431e-06
2.45169e-05
-2.74224e-05
-8.8559e-05
-8.42685e-07
-1.93228e-05
-1.05256e-05
2.9848e-05
-2.47833e-05
7.11136e-07
2.40721e-05
2.51014e-05
1.79138e-06
-2.68928e-05
-1.48782e-05
-2.62413e-05
4.11252e-05
1.14962e-06
1.54086e-05
-1.65586e-05
-2.59472e-05
1.93014e-06
2.40168e-05
-1.5166e-05
3.28326e-05
-2.06316e-05
-1.22013e-05
-2.33394e-05
2.31724e-06
8.52963e-07
-1.33051e-05
1.24523e-05
5.67698e-06
-6.79985e-06
1.12298e-06
9.43439e-06
-6.6738e-06
-2.76022e-06
7.29054e-06
-4.85785e-05
4.129e-05
-4.06386e-05
-7.85633e-05
0.000119201
2.18109e-05
9.39234e-06
-3.12035e-05
2.57653e-05
-4.72579e-05
-4.96446e-06
-4.63375e-05
4.03102e-05
6.02672e-06
7.5782e-06
-3.3275e-06
-1.89035e-07
1.80914e-07
8.23211e-09
1.98078e-05
-1.84102e-05
-1.39788e-06
9.79768e-07
-2.30308e-05
2.20508e-05
5.29434e-05
-6.49653e-06
-8.81848e-05
7.9676e-05
8.50897e-06
-6.60843e-06
-1.12787e-07
-1.41933e-06
-2.55214e-05
-3.41253e-05
1.48023e-05
3.15311e-05
-2.32938e-05
-2.21911e-05
-8.00216e-06
3.0193e-05
-6.73449e-07
-3.16535e-06
3.83864e-06
-0.000111872
-4.82487e-05
1.72853e-05
-1.21518e-06
-1.34075e-05
1.97207e-05
5.44478e-06
2.53597e-07
-2.79971e-05
3.64644e-05
4.36233e-06
-4.08272e-05
3.98903e-05
-5.47679e-05
0.000131783
-0.000125873
6.36085e-06
2.91254e-05
-7.09675e-06
3.31215e-05
-2.60253e-05
-1.27864e-05
-1.60192e-05
2.88056e-05
-4.96479e-05
6.89354e-05
-1.92888e-05
2.9708e-06
1.59775e-06
-3.44664e-05
2.93333e-05
5.13284e-06
-3.62386e-05
3.72182e-05
2.25337e-05
4.26387e-06
-2.67978e-05
-3.56799e-06
3.51942e-06
-2.1017e-05
1.66891e-05
4.32832e-06
-3.74333e-05
3.03362e-05
1.6127e-05
-6.5918e-06
-9.53543e-06
3.26735e-05
-1.82311e-05
-1.44423e-05
-3.94562e-05
3.16204e-05
1.47775e-05
-3.40159e-06
2.46086e-05
8.25424e-06
-3.28629e-05
5.45199e-06
2.8503e-06
3.33393e-06
-1.64354e-05
-3.66904e-07
-4.41565e-07
-8.94772e-06
-2.19154e-05
2.88152e-06
-9.90519e-06
7.02365e-06
0.000349025
-0.000233999
1.11716e-05
-3.04618e-05
1.00583e-06
2.10461e-05
-2.20524e-05
3.5285e-05
-6.92274e-06
-2.8363e-05
-1.52034e-05
1.63528e-05
1.10021e-05
-3.08321e-05
-1.76699e-06
2.8953e-06
-1.12826e-06
6.68651e-07
1.40378e-05
2.51382e-05
-3.56641e-05
5.22209e-05
-2.03311e-05
-3.18902e-05
-2.14207e-05
3.59035e-05
-4.29284e-06
6.76374e-06
-1.4276e-06
9.14373e-06
3.88548e-06
-1.30292e-05
0.000144554
-0.0003728
0.000228251
3.23003e-05
-4.55944e-05
1.32938e-05
0.000170164
-0.000120161
-5.00035e-05
-4.65711e-05
1.52717e-05
3.12966e-05
3.46745e-05
-1.28637e-05
-1.24951e-05
1.91932e-05
-6.69833e-06
5.24269e-05
-3.71009e-05
-1.4899e-05
1.64302e-05
1.64022e-05
-6.84285e-06
2.81981e-06
-8.55545e-06
5.9339e-06
2.62208e-06
-1.094e-05
0.000195251
1.17787e-05
-3.07625e-05
1.89835e-05
-3.77666e-05
4.8734e-06
3.2893e-05
-2.61259e-05
4.7774e-05
-3.1891e-05
-1.18118e-05
-3.7836e-06
1.55951e-05
-1.09024e-06
2.84781e-06
-1.7576e-06
3.83641e-06
6.99048e-07
-4.53569e-06
-2.34124e-05
-1.16365e-06
-8.39881e-08
5.46107e-07
-2.59473e-05
-2.37714e-05
3.03722e-05
-6.6012e-06
-1.51133e-06
-3.40646e-06
3.62425e-06
-8.58964e-06
5.68724e-06
-2.28353e-06
3.17359e-06
2.40466e-05
2.05764e-05
-2.65917e-05
6.01509e-06
1.20325e-06
-2.97015e-06
-5.90993e-05
3.34998e-05
2.55994e-05
2.57573e-05
-3.65685e-05
-3.88498e-05
3.05318e-07
3.85448e-05
-3.12795e-06
4.96604e-06
2.79224e-05
1.79934e-05
-4.59162e-05
-4.60435e-05
-2.93414e-07
-3.31342e-05
-8.85364e-06
1.78851e-06
-3.99022e-06
-4.21995e-06
-5.37939e-06
1.09414e-06
0.000142918
-7.62804e-06
-1.95524e-06
-0.000112103
6.14013e-05
5.07016e-05
-1.91718e-06
1.24366e-06
3.73465e-06
-2.65262e-05
2.27906e-05
3.34319e-05
-1.9235e-05
-1.4197e-05
-1.15587e-05
-6.61366e-06
3.58312e-06
-8.47602e-06
-2.04008e-05
-1.09989e-05
3.13999e-05
-2.33859e-06
2.6193e-05
-2.38547e-05
5.42669e-05
-3.55351e-05
-1.87321e-05
3.04169e-05
1.22428e-05
3.32935e-05
-4.67418e-05
1.34475e-05
-5.98751e-05
7.53827e-05
2.97115e-05
-2.98109e-05
6.00059e-07
4.70963e-05
-2.62681e-05
2.98374e-05
-3.56944e-06
3.96063e-05
4.67108e-06
-4.42787e-05
4.56821e-06
-2.85314e-06
1.76293e-06
7.70074e-05
-7.84542e-05
1.44655e-06
3.87299e-05
-3.14386e-05
-2.4038e-05
-2.40022e-05
4.80398e-05
-2.6043e-05
-5.0749e-06
9.51468e-06
-3.87269e-05
3.49017e-05
3.8247e-06
3.64775e-05
-2.42103e-05
-1.22676e-05
1.26254e-06
1.63282e-06
1.1048e-05
-8.16631e-06
-7.26376e-05
4.88993e-05
2.37382e-05
-8.47482e-06
5.17876e-07
7.95721e-06
1.50715e-05
-3.73124e-05
2.29792e-05
-7.49593e-05
1.68464e-05
-2.76554e-05
-4.70088e-05
3.49716e-05
1.20367e-05
1.05429e-05
-1.2951e-05
-1.39519e-05
6.60904e-06
2.95225e-06
1.42641e-06
2.06127e-05
-2.14576e-05
8.44607e-07
-2.61616e-05
-1.06984e-07
2.97238e-05
1.30646e-07
-2.98548e-05
-9.43975e-06
-2.46857e-05
4.72087e-05
-5.81531e-05
-2.13895e-05
-1.58834e-05
3.7273e-05
-8.7475e-06
3.1281e-05
-2.9781e-05
4.69179e-06
5.20288e-05
-2.18597e-05
5.08284e-06
-1.07956e-05
3.31721e-05
-4.41989e-05
1.10276e-05
1.92742e-05
-3.25657e-05
1.32911e-05
-3.61645e-05
7.59186e-05
1.1766e-05
1.04697e-05
-1.90116e-05
8.54175e-06
7.17613e-06
-8.09416e-06
-2.84484e-05
1.44685e-05
-1.14758e-05
1.40839e-05
-2.60818e-06
-4.40785e-07
-9.18625e-07
2.71937e-05
1.21041e-05
-3.92974e-05
-3.26409e-05
1.22403e-05
-4.48901e-06
2.07595e-05
-1.62705e-05
1.80623e-06
-1.00457e-06
-8.01512e-07
-4.89178e-06
-6.39258e-06
1.12844e-05
0.000110266
-6.97576e-05
-4.05077e-05
-2.14145e-05
2.71379e-05
-5.723e-06
-2.95339e-05
2.05863e-05
1.48615e-06
-7.19407e-06
5.70758e-06
3.43819e-05
-4.38346e-05
9.45232e-06
-1.40675e-05
-2.21559e-05
3.86727e-05
-1.65169e-05
-1.24908e-06
-9.72812e-08
-2.45501e-07
-6.42649e-06
3.33883e-06
6.09584e-06
-2.76431e-06
1.95622e-05
-5.47033e-06
-3.51686e-05
5.3514e-06
2.99331e-05
2.03668e-07
1.53472e-05
-1.55506e-05
-4.56959e-06
-1.7362e-05
2.19313e-05
9.65401e-06
4.19343e-06
-2.26175e-05
1.80477e-05
-4.84159e-05
3.10493e-05
1.73666e-05
2.1383e-05
-3.2882e-05
1.14992e-05
-9.98909e-06
1.10787e-05
2.49193e-05
-5.64534e-06
-5.89226e-06
1.7867e-06
-1.36126e-05
6.35051e-06
7.26206e-06
1.86166e-05
-3.0168e-05
1.15507e-05
5.07415e-07
8.47609e-06
3.09049e-05
-5.08674e-05
1.99623e-05
0.00012135
-0.00010068
-2.06697e-05
1.44257e-05
-7.34214e-06
-7.08386e-06
-3.56159e-05
-5.25688e-05
-3.57275e-05
-1.12806e-05
-1.06528e-05
8.01772e-06
5.25434e-06
-1.32737e-05
0.000250183
-0.000205877
-1.23801e-05
9.04257e-07
-2.60168e-05
-3.26266e-06
2.92795e-05
4.71313e-05
7.1354e-06
-2.84603e-05
2.04047e-05
6.34222e-06
5.24548e-05
-5.32376e-06
-0.00035125
0.00027477
7.64789e-05
2.97632e-06
9.96997e-06
-1.29466e-05
-2.44843e-05
-2.39316e-05
-1.58439e-06
-9.76086e-06
-8.23055e-06
-0.00011886
1.57894e-05
3.93932e-05
7.08733e-05
-8.2657e-07
8.00252e-06
-1.16689e-05
-4.85719e-07
1.21544e-05
4.556e-05
8.72167e-05
-0.000132777
2.18037e-07
-3.79848e-05
-5.99942e-08
-1.1609e-05
-0.000147251
5.45482e-05
9.27023e-05
-2.73013e-06
3.79647e-05
-0.000228476
-0.000122776
2.6517e-05
-2.03564e-06
-3.39714e-05
6.29855e-06
2.76725e-05
-4.91484e-05
1.74412e-05
3.17076e-05
1.23891e-06
5.67402e-07
-2.80302e-05
3.41935e-05
6.33014e-05
-3.79756e-05
-2.53254e-05
-1.60646e-05
3.66404e-05
6.0981e-06
-1.87187e-05
-7.03386e-07
1.70929e-05
-1.63895e-05
-2.25836e-05
1.00884e-05
3.08114e-05
-2.23604e-05
-8.96818e-06
5.21012e-05
-4.31328e-05
-1.2127e-05
2.60522e-05
-1.08426e-06
1.81127e-06
-7.27093e-07
-1.58589e-05
-2.80575e-05
4.39166e-05
-8.55385e-08
-1.16357e-06
5.21631e-06
-3.73034e-06
-0.000132957
5.91978e-05
7.37572e-05
2.37672e-05
-1.15983e-05
5.56928e-06
-1.21179e-05
1.20575e-05
-4.2616e-06
1.22779e-05
-3.06388e-06
6.04004e-06
1.34037e-05
1.03634e-05
3.87245e-05
-2.18078e-06
1.02329e-05
-6.39668e-06
-0.000131766
7.6069e-05
5.56974e-05
-1.85452e-05
2.56752e-05
-6.75327e-06
1.18361e-05
1.11311e-06
-3.53755e-07
-7.59176e-07
5.54537e-06
-4.52782e-05
3.97324e-05
-3.27389e-05
2.31353e-05
3.30482e-05
7.74135e-05
-0.000110462
1.65794e-05
-1.02681e-05
-3.30807e-05
4.33485e-05
3.62064e-06
2.56079e-05
-2.3835e-05
9.34492e-07
2.29008e-05
-3.13899e-06
4.63532e-06
-1.49646e-06
-5.79701e-05
1.35623e-05
4.44068e-05
4.03627e-05
-1.04449e-05
3.96736e-05
-3.58548e-05
1.32483e-06
5.68416e-07
-1.89308e-06
3.09327e-06
-2.45081e-05
4.52949e-06
7.21435e-06
-1.17435e-05
8.30375e-05
-2.04132e-05
-6.26247e-05
-2.3455e-05
-1.3411e-05
-4.41557e-06
-6.00656e-06
1.04218e-05
-7.50286e-05
-7.22228e-05
-1.39214e-05
3.24544e-05
-1.85332e-05
-0.000111315
0.000255868
3.0787e-05
2.30994e-05
-5.38865e-05
4.76095e-05
2.43892e-06
1.48865e-06
3.12864e-05
-9.11627e-05
-3.24022e-05
1.02512e-05
3.18458e-05
-4.08144e-05
0.000418588
-0.000508988
5.09902e-05
-1.78188e-05
4.57728e-06
-1.18128e-06
4.2755e-05
-1.19679e-05
9.36763e-06
5.0579e-06
1.35886e-05
-9.25859e-07
-1.26627e-05
-1.96546e-06
7.64252e-06
-1.7259e-05
-1.90483e-06
-5.65587e-06
4.00374e-05
3.86973e-07
-3.65522e-05
2.95835e-06
1.97864e-05
-2.66437e-05
6.85663e-06
5.52802e-07
-6.36521e-07
-1.83664e-05
1.11754e-05
-1.26515e-06
-1.62001e-06
2.88507e-06
4.47502e-05
5.59344e-05
6.28997e-06
1.70965e-05
-3.03467e-05
-1.88013e-05
6.92381e-06
1.09321e-05
6.5697e-08
1.21096e-06
2.11614e-05
-2.57084e-05
8.32538e-07
1.27561e-05
9.48785e-07
-2.05979e-06
1.11134e-06
1.99318e-05
-3.88136e-06
-1.60501e-05
-2.27362e-05
1.31605e-05
9.57504e-06
-5.94163e-05
-0.000237578
0.00029699
-5.51684e-06
1.53987e-05
-9.88133e-06
-1.71023e-06
2.97278e-06
4.12803e-06
2.51394e-05
4.94146e-06
-9.35696e-06
1.6544e-05
3.127e-05
-4.78143e-05
-3.23684e-05
1.84869e-05
1.38812e-05
2.23915e-06
-1.74427e-05
2.17225e-06
-5.30022e-06
-7.04584e-06
1.15753e-05
-1.63844e-06
-5.00988e-05
-7.87138e-06
3.09136e-06
-9.40154e-07
3.45164e-05
1.83865e-05
-3.3222e-05
2.03359e-06
-1.08465e-06
1.228e-06
-2.87139e-05
4.94236e-06
-1.92966e-05
2.22006e-05
-1.49908e-07
-8.90875e-06
9.05885e-06
2.28999e-05
-1.32287e-05
-9.67139e-06
2.19557e-06
-6.34338e-06
-3.75784e-05
2.9581e-05
7.99722e-06
8.70127e-05
-0.000109517
2.25051e-05
-1.09565e-05
-4.67684e-05
5.77249e-05
-3.16632e-05
-2.36674e-05
6.98841e-06
-2.83783e-05
-5.22153e-05
7.58475e-05
-2.36326e-05
3.95275e-05
7.82508e-08
-7.71195e-05
2.49043e-05
1.30517e-05
-5.84388e-06
-7.20815e-06
9.08422e-07
-2.17362e-06
1.98508e-05
-1.39914e-05
-5.85917e-06
1.88108e-05
-1.69648e-05
-1.8461e-06
-1.05391e-05
-1.57918e-06
2.80698e-05
-4.73632e-05
1.92931e-05
0.000115835
-7.64414e-05
-4.64613e-05
3.59324e-05
1.77021e-05
2.82003e-06
-4.60688e-06
1.78668e-06
2.95097e-05
-9.72369e-06
-3.33758e-05
-8.27167e-06
4.16467e-05
-1.73362e-06
6.34844e-05
8.97494e-05
4.49755e-06
-9.57219e-06
-2.72608e-06
3.37531e-06
-5.27641e-07
-8.67109e-05
4.51209e-05
4.159e-05
1.21722e-05
1.36854e-05
-2.5858e-05
4.95448e-06
-7.36696e-06
2.41233e-06
2.48807e-05
-3.5149e-05
3.46751e-05
-6.75556e-06
1.20981e-05
-1.11643e-05
-9.33937e-07
-2.30722e-05
2.25016e-05
5.70043e-07
4.12728e-06
3.8626e-07
-4.5137e-06
-1.96094e-05
3.13879e-05
3.33823e-05
-3.16604e-05
-5.04983e-05
-3.81761e-06
5.43156e-05
-2.32416e-05
8.78474e-08
2.31534e-05
-0.000115604
6.84113e-05
-4.53934e-05
3.67531e-05
8.64002e-06
-1.95607e-06
-1.50326e-05
1.33644e-05
-3.63814e-05
2.30165e-05
3.22835e-05
-1.24659e-05
2.47675e-06
-3.23038e-05
4.75876e-06
-3.46785e-05
-4.12774e-06
1.73382e-05
-2.396e-05
6.62121e-06
-1.02097e-05
1.00599e-05
2.83705e-06
2.59962e-05
4.05572e-05
-4.56374e-05
5.08092e-06
1.65549e-05
6.04524e-05
-6.6388e-06
-4.91754e-06
1.15565e-05
-6.97892e-05
3.89425e-05
3.08462e-05
3.55995e-05
4.74378e-05
-1.84209e-05
-1.39477e-05
8.23495e-07
-1.58969e-05
1.50731e-05
6.1148e-07
5.0171e-07
-3.0736e-06
-1.06582e-06
4.13972e-06
-1.42345e-05
-2.34308e-05
3.7665e-05
-7.96748e-06
4.75122e-05
-3.09684e-05
4.12014e-05
3.67573e-06
-4.48765e-05
1.3522e-05
6.32885e-06
-2.72621e-05
3.28215e-05
-5.55992e-06
2.22497e-06
2.74987e-05
-3.08989e-07
1.37344e-05
-1.34254e-05
1.77991e-05
-3.84705e-05
2.0671e-05
1.01672e-06
2.87631e-06
4.98984e-07
-4.74454e-05
6.13232e-06
4.13107e-05
-0.000124294
4.15665e-05
8.27276e-05
-2.03643e-05
0.000145043
-1.47398e-05
-4.7283e-05
1.41282e-05
3.31558e-05
-9.43248e-07
-2.28915e-05
1.91061e-05
-2.75346e-06
-1.50785e-05
1.88129e-05
-1.80792e-05
1.82828e-05
-1.72738e-05
2.0092e-05
-2.81846e-06
4.64253e-05
-1.4125e-05
-4.06215e-05
-2.54793e-06
4.72026e-06
-1.33333e-05
4.42378e-05
1.61372e-05
-1.38981e-05
6.63785e-06
-3.81792e-06
-1.18747e-05
-7.75527e-06
-1.40078e-06
5.52811e-06
-3.66427e-05
-8.75097e-06
-3.62522e-05
2.95416e-05
2.06262e-07
-1.20576e-05
3.24847e-05
-2.04274e-05
1.09219e-05
-2.94667e-06
-7.97592e-06
-2.29527e-06
4.21855e-05
3.09506e-05
-6.34205e-06
-8.20087e-08
1.81773e-05
-1.80959e-05
-1.7814e-06
2.7999e-05
-2.62178e-05
2.1197e-05
-5.84368e-07
-4.21781e-06
2.34168e-05
-2.21116e-05
-1.30522e-06
2.85316e-08
5.48762e-08
-1.65546e-05
-1.78754e-05
3.44302e-05
-1.31764e-05
1.92743e-05
-7.96844e-09
8.06444e-09
-3.23605e-05
-6.3668e-06
1.76263e-06
7.41844e-06
2.84768e-05
9.62852e-05
-0.000124765
-3.6807e-06
-1.16214e-05
6.72965e-06
-4.28657e-05
1.83435e-05
2.45218e-05
-1.10537e-05
3.16127e-05
3.50772e-05
-1.66911e-05
-1.40342e-05
1.48576e-05
8.34261e-06
1.06995e-05
-1.90424e-05
-7.72003e-06
1.17875e-05
-4.06775e-06
-2.51188e-05
-8.93039e-06
-2.69102e-06
4.5561e-05
-2.33816e-05
-2.48782e-05
-1.18125e-07
-1.64361e-05
-4.58067e-06
2.48889e-05
-1.27173e-05
-2.11853e-05
1.60394e-05
5.14587e-06
3.94255e-06
-1.58449e-05
1.19025e-05
1.12491e-05
2.32409e-06
-1.3573e-05
-2.21079e-05
3.64531e-05
-2.86325e-05
2.83347e-05
2.9726e-07
1.62744e-06
3.18383e-06
-4.8116e-06
-8.1316e-06
-1.11607e-05
1.92923e-05
-9.20063e-05
0.000151423
-5.94177e-05
-5.49384e-05
3.12219e-05
2.37164e-05
9.64625e-06
3.27126e-05
-3.40126e-07
-8.19192e-06
8.53218e-06
-3.12178e-05
-1.60646e-05
-6.20378e-06
3.06467e-06
-6.87761e-06
1.66071e-05
-2.9917e-05
1.78592e-05
7.27955e-06
0.000121882
-0.000129162
2.93065e-06
9.16737e-06
6.84308e-05
-5.66072e-05
0.000157321
0.000136068
-0.000293391
-2.60623e-05
-1.75484e-05
-3.5644e-05
3.93427e-06
-7.14314e-05
0.000104479
-1.12969e-05
1.07266e-05
5.70027e-07
0.000177124
0.000129499
-0.000306624
-1.36488e-05
-1.20955e-05
1.17865e-05
1.54618e-05
2.71326e-05
-1.15017e-06