/*--------------------------------*- C++ -*----------------------------------*\
| =========                 |                                                 |
| \\      /  F ield         | OpenFOAM: The Open Source CFD Toolbox           |
|  \\    /   O peration     | Version:  v2012                                 |
|   \\  /    A nd           | Website:  www.openfoam.com                      |
|    \\/     M anipulation  |                                                 |
\*---------------------------------------------------------------------------*/
FoamFile
{
    version     2.0;
    format      ascii;
    class       volVectorField;
    location    "200";
    object      ddt0(U);
}
// * * * * * * * * * * * * * * * * * * * * * * * * * * * * * * * * * * * * * //

dimensions      [0 1 -2 0 0 0 0];


internalField   nonuniform List<vector> 
18166
(
(0.0116411 0.0499071 -3.13104e-20)
(9.77858e-05 6.59705e-06 8.65083e-21)
(-8.57141e-06 0.000118064 -1.93085e-20)
(0.00837335 -0.00562102 -2.59613e-20)
(0.0893332 0.0170395 4.14454e-20)
(0.0076502 0.0128963 7.76512e-20)
(0.000223807 -3.23283e-05 1.67535e-20)
(0.0174071 0.000253558 3.90192e-21)
(0.0169193 0.0158103 1.31018e-20)
(0.00777409 -0.0115859 3.30314e-20)
(0.000207764 -0.000298864 0)
(0.000356478 0.000154166 0)
(-0.0104039 -0.0051074 -5.74773e-20)
(-0.0237975 -0.0114776 0)
(-0.00318269 -0.0136453 1.18181e-22)
(-0.026259 0.00741087 1.16982e-21)
(0.000165221 -2.06432e-05 -5.85148e-21)
(0.0830262 0.355946 -3.92626e-20)
(0.000204853 -0.000251348 -5.06586e-21)
(0.0531569 0.00271185 4.88169e-21)
(0.00318329 0.00653547 3.98188e-20)
(8.1508e-05 -0.000489751 1.87497e-20)
(0.00402648 0.00343376 -3.38752e-20)
(-2.99552e-05 -0.000642965 -2.3613e-21)
(0.000187665 9.65861e-06 -1.21368e-20)
(0.000202997 -4.11389e-05 -2.61895e-20)
(6.47316e-05 0.00652504 2.62342e-20)
(0.00069007 0.00269779 2.32812e-20)
(0.000810579 -0.000153324 -2.1545e-20)
(0.000203312 -0.00430171 -1.64767e-20)
(0.00135201 -0.0859022 0)
(-4.88417e-05 3.79022e-05 7.42513e-21)
(0.00058123 -0.000942178 -1.17365e-20)
(0.000248707 -0.000101071 0)
(-0.000106396 0.000129714 0)
(0.000195426 -0.000536584 -7.79438e-22)
(0.0145563 0.0174558 0)
(0.00020398 -0.000227225 6.49258e-22)
(5.67019e-05 0.000400854 0)
(0.0232865 0.0151969 -6.3538e-20)
(3.3453e-05 6.17771e-05 1.70167e-20)
(0.0565956 0.00331659 4.88494e-22)
(0.00048306 -0.000631772 -2.95444e-21)
(0.000360997 0.000183612 0)
(-0.00467061 -0.00889326 7.33293e-21)
(-6.99204e-06 -0.000815429 1.38012e-20)
(0.0212798 0.00348107 -9.66066e-21)
(0.00207256 -0.083633 0)
(0.0207163 0.032172 9.31877e-21)
(0.00406529 -0.00652496 -2.09711e-20)
(0.00705295 0.00552313 8.56927e-21)
(0.00416051 0.00963495 1.96634e-21)
(-0.00807076 0.00965265 -1.18711e-20)
(2.21102e-06 -9.50504e-06 -8.65846e-21)
(0.000245087 -0.000329622 0)
(0.0183232 -0.00508553 6.59326e-22)
(0.0555188 0.0267757 -8.40101e-21)
(-0.00821692 -0.00161843 -3.07829e-20)
(0.00117948 0.00327111 3.41364e-20)
(0.000735087 0.000346303 9.6846e-21)
(0.00949591 0.0247257 0)
(0.000700418 0.00143587 -6.8936e-21)
(0.0436116 -0.00260295 -5.1662e-21)
(-0.0028069 0.00854833 0)
(0.0236899 0.0311282 1.02858e-21)
(2.67537e-05 -0.000712239 0)
(0.0549096 0.00421779 -6.81569e-22)
(-0.0492685 -0.0658611 0)
(0.0134604 -0.00244668 -1.51382e-21)
(0.00159561 0.00156847 0)
(-0.000110177 0.000128384 0)
(0.000739698 0.000364302 0)
(-0.000585294 0.00879202 0)
(0.00149356 -0.00490199 7.49256e-22)
(0.0404544 -0.0182867 4.6701e-20)
(0.0295668 -0.0234974 -1.85676e-19)
(0.00757076 0.0132856 2.45986e-20)
(0.00833428 -0.00800909 0)
(0.0010841 -0.000204197 0)
(0.000110933 -0.000443007 5.19778e-21)
(2.12202e-06 2.59679e-06 -7.25927e-21)
(0.0290762 0.0196285 9.51083e-22)
(-2.34356e-05 -0.000695676 1.75161e-20)
(5.44799e-05 -0.000421694 -1.06601e-20)
(-3.16275e-05 0.000102511 0)
(-0.000735611 0.00111891 0)
(0.0014865 0.00148478 4.02672e-21)
(0.000135922 4.97524e-05 2.23296e-21)
(0.00245486 -0.00700878 8.35093e-20)
(5.96718e-05 0.000397232 6.97207e-21)
(0.0196119 0.00370798 2.5336e-20)
(0.0012364 0.0122832 2.69615e-20)
(-0.0123801 -0.00206398 0)
(-2.43773e-05 0.000149813 0)
(1.23321e-06 -2.10868e-05 -1.768e-20)
(-0.00086578 0.000778158 0)
(-4.5258e-05 8.32774e-05 7.74748e-21)
(0.00552798 -0.0171426 -1.61901e-20)
(-0.000778945 -0.00140609 9.99393e-21)
(0.00194891 0.00243476 1.72414e-20)
(0.0001044 2.11294e-06 1.52613e-20)
(-1.49993e-05 -0.000709814 4.75153e-21)
(-0.00422408 -0.014338 -2.6065e-22)
(-0.00344312 0.0135096 0)
(0.00195266 0.00322114 0)
(7.69275e-06 -0.000589837 9.499e-21)
(0.00842909 -0.0579824 1.43619e-20)
(-0.000614375 -0.00564535 1.19708e-19)
(0.00268663 0.000191639 -1.88544e-20)
(0.000231087 -0.000436603 -5.59762e-21)
(-0.00912289 -0.00205893 -6.45497e-20)
(0.00760067 0.0187472 0)
(0.00862741 -0.0227751 0)
(-0.0503863 -0.0624083 1.05654e-20)
(4.89715e-05 -0.000340016 -1.03304e-20)
(-0.000168381 0.000239088 -1.01242e-20)
(0.00772357 0.0489997 0)
(-0.00397455 -0.0318023 -8.34438e-21)
(-0.000322108 -0.00184551 -4.86267e-21)
(-0.0144783 -0.0257481 0)
(0.396984 -0.0831147 8.44387e-20)
(0.000138406 -0.000366746 9.77511e-21)
(0.0412681 0.0187134 3.11413e-20)
(0.0578375 0.00936869 0)
(-0.00965363 -0.0216199 6.77296e-21)
(-5.58413e-07 7.37722e-05 8.78737e-21)
(-1.13176e-06 -0.000635643 4.41543e-21)
(-0.0111879 -0.00408358 3.56412e-20)
(-0.00353798 0.0116765 -1.74296e-20)
(0.00170184 -0.00634753 -4.79426e-20)
(-0.00771742 -0.0232577 7.47509e-21)
(-0.00331585 0.0490938 1.31553e-20)
(0.000585007 0.000678103 3.40448e-22)
(-0.0204677 -0.099662 -2.01457e-21)
(-0.00182093 -0.00628117 -3.49714e-20)
(0.0184166 0.00910756 7.91984e-21)
(0.000189788 -0.000297163 0)
(0.000162199 -1.43606e-05 0)
(0.00107629 0.00160282 0)
(-0.00848437 -0.0716609 3.55114e-21)
(-0.00101175 0.0114636 0)
(0.00257082 0.0185161 2.7549e-19)
(0.0611935 -0.0293164 0)
(-0.0135876 -0.106186 0)
(-0.000813037 0.00340299 2.43735e-20)
(0.0699049 0.0280434 3.05404e-20)
(0.0509393 0.00131035 0)
(-0.00698952 -0.0185336 0)
(-2.64088e-05 0.000134757 5.33688e-21)
(0.000945716 0.000415856 -1.14055e-19)
(-3.85261e-05 8.14113e-05 1.34073e-20)
(-0.0595489 -0.0974551 -1.44475e-20)
(0.0330125 -0.223329 3.35426e-21)
(-0.0102676 -0.0138806 0)
(-3.37458e-05 -7.11986e-05 3.34905e-21)
(0.000109278 -0.000379608 -6.04467e-22)
(0.0010464 -0.00176504 0)
(0.0443931 -0.00196132 3.2972e-21)
(0.000193485 -0.000397565 6.1928e-21)
(-0.0103481 -0.00456733 3.24935e-20)
(5.56918e-05 4.15852e-05 0)
(-0.0493708 -0.076852 0)
(0.00138429 0.00287198 1.23452e-20)
(0.000103289 -1.54823e-05 -1.38113e-20)
(-0.00019468 -0.00187919 -2.29754e-21)
(-0.0125208 -0.0161021 2.89791e-20)
(6.68123e-06 -0.000618756 1.2152e-20)
(-0.0130562 -0.109255 1.02939e-21)
(0.0418149 0.0108416 3.48621e-21)
(0.00333499 -0.00188826 8.48045e-20)
(-0.0193878 -0.0113897 0)
(-0.0480865 -0.0621319 -3.3027e-21)
(0.0119499 0.010811 3.22353e-20)
(-0.0506965 -0.0661971 0)
(0.0197485 0.0132152 0)
(0.000855818 0.000462988 0)
(0.132242 -0.202918 -1.32173e-18)
(-0.0477671 -0.0612178 1.7691e-20)
(8.84368e-05 8.05519e-06 0)
(0.000137911 6.39221e-05 0)
(0.000112472 -0.000387509 1.15577e-20)
(0.00529082 0.0159886 -3.39169e-20)
(0.00687701 0.0879276 5.24469e-19)
(0.00255033 -0.218045 6.85194e-19)
(0.0397285 -0.00660987 4.6125e-21)
(0.000111036 -7.55238e-06 -1.19339e-20)
(-0.0015623 0.0114151 2.36584e-20)
(-0.00417283 -0.0276742 5.1364e-19)
(0.000167615 -0.000113178 0)
(-0.000180294 0.000173409 5.78942e-21)
(0.00793835 -0.00508584 8.70873e-21)
(0.000231194 -0.000414687 5.54029e-21)
(-0.000524806 0.00246162 0)
(6.10039e-05 -0.000514979 0)
(-0.00464571 0.00427066 0)
(0.000140255 -0.0853827 0)
(0.00425926 -0.00124139 5.73017e-20)
(0.00295939 -0.0145003 -1.34715e-20)
(-0.0143129 -0.053479 -2.26717e-21)
(0.00224263 0.00324675 2.09294e-19)
(-0.0190849 -0.0203442 -1.28172e-20)
(-0.0353774 -0.021861 0)
(-0.000215129 0.000577593 -7.95554e-21)
(-0.00591373 -0.0162208 -3.69791e-22)
(0.000491857 -3.89393e-05 -1.03527e-20)
(0.00914075 -0.0158028 -2.33981e-20)
(0.0269335 0.0210606 7.23832e-21)
(0.0199052 -0.00353394 -7.97176e-22)
(0.0367669 -0.00416414 1.38669e-19)
(-0.00773949 0.000765565 9.50365e-22)
(0.237347 0.0265224 3.14961e-20)
(-0.000364039 0.0126714 8.60787e-21)
(9.2911e-05 8.60434e-06 0)
(1.56125e-05 -0.000702468 3.84595e-21)
(0.00810289 -0.0017465 1.90224e-22)
(-0.00108424 -0.0016924 0)
(-0.0150812 0.025021 -3.54379e-20)
(-0.00933542 -0.0188048 -1.39835e-20)
(0.0395555 0.0127826 -2.67876e-21)
(0.0299174 0.0191703 5.62149e-21)
(0.000493911 0.00191641 2.01175e-20)
(0.00030106 0.000120852 1.17234e-20)
(0.000108774 -1.19247e-05 1.03375e-20)
(0.000530437 -0.0484039 -2.4442e-22)
(-0.0152245 -0.00155727 0)
(0.000264624 3.28297e-05 9.12089e-21)
(0.0148988 -0.0153381 3.01534e-20)
(9.58183e-05 -9.70037e-05 -3.88017e-21)
(0.000522977 -0.00416104 0)
(-0.000259453 0.000538202 1.62444e-20)
(0.047588 0.00346048 -5.60861e-22)
(0.0151643 -0.0221687 3.27687e-21)
(0.000179092 0.0019292 4.56413e-21)
(-0.0115221 -0.107649 -3.34168e-21)
(0.000109287 1.23593e-05 -1.5771e-20)
(-0.00027313 0.00119591 -1.34431e-20)
(0.00608196 -0.00112609 0)
(-0.00404803 0.0151675 -1.48072e-20)
(0.0256084 -0.0139864 -2.43339e-21)
(0.0693166 0.0281715 -5.12339e-21)
(-0.000707059 -0.00432652 0)
(0.0430105 0.0119888 0)
(0.0548931 0.00227373 0)
(0.000679623 0.000261391 -2.10578e-20)
(-0.0376501 -0.0595308 2.16727e-21)
(0.000149997 -0.00114734 1.4981e-20)
(-0.00960928 -0.0173779 6.52198e-21)
(0.0447838 0.0110195 0)
(-0.027564 -0.0934544 6.78715e-21)
(0.00137454 9.47229e-05 0)
(0.000466821 -0.0236785 5.61586e-20)
(-1.62762e-05 -0.000629137 -1.24304e-20)
(0.000702578 0.000991999 7.60188e-21)
(0.00636064 0.0240462 -2.46749e-20)
(-0.057465 -0.0976791 7.65881e-21)
(0.00769707 0.00282029 -2.6626e-19)
(0.000123467 -0.000538093 0)
(0.0490653 0.00563915 1.6084e-22)
(0.00387122 -0.000677424 -9.63158e-20)
(9.19362e-05 -1.97039e-05 1.61477e-20)
(2.13933e-05 -0.000677631 0)
(-0.00999019 -0.105221 1.63533e-20)
(0.0118612 0.0138038 5.90386e-20)
(0.0313264 0.0189286 1.29111e-20)
(0.0126236 0.0124716 0)
(-0.00657681 -0.032824 0)
(-0.0156149 0.00201085 -6.3927e-20)
(0.00218841 -0.00271869 -5.2712e-21)
(-5.34512e-06 0.00010429 0)
(-0.000161872 0.00393865 -1.98547e-20)
(-0.00543506 -0.00771791 -2.87797e-20)
(-9.41846e-06 -0.000731052 -1.43268e-22)
(0.000139386 2.98844e-05 4.77435e-21)
(-0.0181147 -0.0472155 -7.16887e-22)
(0.0069978 0.0109459 5.94651e-20)
(-0.0485995 -0.00779468 0)
(-0.0444144 -0.0591012 0)
(6.35728e-05 -1.49542e-05 4.17536e-21)
(-0.0534627 -0.000574006 0)
(-6.71812e-05 6.87066e-05 2.49691e-22)
(0.018661 0.00849067 -4.84582e-21)
(0.0551397 0.00428348 0)
(0.00288183 -0.00285804 0)
(-0.000595568 0.000396514 2.42299e-21)
(0.000338695 0.000851896 -1.44358e-20)
(0.0119147 0.0108572 0)
(0.000781994 0.00142922 0)
(0.000502847 0.000663016 0)
(0.0149409 0.0186723 0)
(6.71984e-05 -8.022e-05 -1.06734e-20)
(-0.00106041 -0.000275681 2.30675e-20)
(0.0152889 0.013829 1.18337e-20)
(0.00128898 0.00250907 1.62487e-20)
(0.000128835 -0.000521263 0)
(0.00111719 0.00106855 0)
(9.23054e-05 -0.086846 0)
(0.00023906 1.1394e-06 -3.53509e-21)
(3.00796e-05 -0.000694413 -1.12956e-20)
(0.000260332 2.52485e-05 -8.90808e-21)
(-0.0408931 -0.0615999 1.77397e-21)
(-0.0453731 -0.0583515 -2.15467e-20)
(0.000132556 -0.000484246 -1.07485e-20)
(-0.000103799 0.00286377 0)
(0.000140436 2.78164e-05 0)
(0.0618699 0.0282306 0)
(0.000463919 -0.000366823 0)
(0.0226347 -0.00464686 -6.84565e-22)
(-0.00203878 -0.00830036 3.01768e-19)
(0.000233076 -0.000303464 0)
(-0.000257897 0.000226373 8.25515e-21)
(0.00143873 -4.16387e-06 -6.30407e-21)
(-0.0230345 0.0741662 7.26822e-20)
(0.0537847 0.00304854 -1.60886e-21)
(-0.0014115 -0.00908639 1.40318e-20)
(5.68406e-05 -0.000340022 0)
(0.114712 0.026738 -1.5561e-21)
(0.0024141 -0.0028166 -6.48517e-22)
(0.00208166 -0.000482867 6.77699e-21)
(3.31164e-06 -0.000746282 4.89942e-21)
(0.0136572 -0.0548163 -1.38575e-22)
(0.000292838 -0.000421932 -1.55126e-20)
(-0.00153161 0.00146476 -4.91351e-20)
(-0.0338133 -0.0249679 0)
(0.0160637 -0.00867261 -4.98432e-20)
(-0.00310385 -0.00607183 0)
(0.00352196 0.00934246 5.29865e-20)
(0.000401372 0.000534087 1.16132e-20)
(0.000612053 0.000504424 0)
(-3.02032e-05 0.000200474 5.88824e-21)
(-0.0746766 -0.0541594 -3.92154e-22)
(0.00016838 -3.00808e-05 -6.56504e-21)
(-0.0185355 -0.103867 1.38605e-22)
(-0.000586639 0.000288631 0)
(-0.000211292 0.000375445 0)
(-0.256665 -0.315944 2.7481e-19)
(-0.0101781 0.0111343 0)
(-0.026068 0.0108479 -2.01105e-19)
(0.048293 0.00504935 4.26006e-21)
(0.0184983 0.00440272 -1.91118e-20)
(-0.0603546 -0.0515687 0)
(-8.02817e-05 0.000490992 -4.92218e-21)
(-0.0159173 -0.00729269 0)
(0.0122404 -0.045991 0)
(-0.0389498 -0.0893219 6.64091e-21)
(-0.000264439 0.00114949 1.27962e-20)
(0.000122965 -0.000547719 -1.37975e-20)
(0.000224777 -2.35736e-05 -1.43525e-20)
(0.00476558 -0.00281232 -1.53289e-20)
(0.000424174 0.00201173 -2.07171e-20)
(-0.00390175 -0.0137082 1.02366e-20)
(0.00121295 -0.00428224 -2.97864e-20)
(0.0181948 0.0179103 -5.53174e-21)
(2.19768e-05 -0.000677173 8.32229e-21)
(0.000106872 6.64494e-06 -1.40601e-20)
(0.00573236 -0.00473533 -1.11282e-20)
(0.000960682 0.000913032 7.71279e-21)
(0.00706682 -0.0179659 0)
(0.00335217 0.00168246 -2.12628e-19)
(0.000243951 -0.000300559 0)
(-2.4809e-05 0.000233965 -1.14849e-20)
(0.000137499 3.90928e-05 0)
(-0.00479926 -0.0306457 -1.30404e-21)
(-0.0205134 -0.0301488 4.08634e-22)
(7.09898e-05 -0.000321628 -5.16229e-21)
(0.000194483 -3.78277e-05 0)
(3.21839e-05 -0.000242546 -6.59171e-21)
(2.56382e-05 6.35453e-06 0)
(-0.0074744 -0.041602 -3.26814e-20)
(-2.66009e-05 2.60404e-06 0)
(0.0230631 -0.00362885 0)
(-0.0868529 0.325776 -7.01792e-21)
(0.000122445 4.92006e-05 0)
(0.000183816 -7.04277e-06 9.49232e-21)
(-0.0286211 -0.0533232 -5.05464e-19)
(0.0375712 0.0138398 0)
(0.482102 -0.5655 1.40809e-19)
(-0.0380886 -0.0833493 -1.50378e-20)
(-6.3169e-05 0.000307992 -8.60301e-21)
(-0.000354996 0.00952532 2.36725e-19)
(-0.0288205 0.0159737 -6.27485e-19)
(-0.000187604 0.000533187 1.06787e-21)
(-0.0104256 -0.0762137 -5.6603e-21)
(0.0400616 -0.0373263 -3.57218e-20)
(0.000968032 -0.00316733 1.24664e-19)
(0.00123781 -0.000245066 1.55334e-20)
(5.57512e-05 -2.42211e-06 -6.18752e-21)
(5.19561e-05 -0.000697335 0)
(-2.66357e-07 2.64099e-06 -7.43835e-21)
(0.0242713 -0.0154242 0)
(0.0001 -9.83205e-05 4.61706e-21)
(-4.0601e-05 -2.72775e-05 0)
(0.000767439 0.00294246 3.38699e-20)
(0.000106685 0.000354355 -3.74045e-21)
(-0.0801262 -0.0383862 0)
(0.00627271 -0.042595 -4.59434e-19)
(-3.75165e-05 0.000168141 8.64723e-21)
(2.35088e-05 -0.000485905 4.26599e-22)
(-0.0124261 -0.00138311 -1.35783e-20)
(0.000210963 -9.57047e-05 0)
(0.000185475 -8.83908e-05 0)
(0.000707847 -0.00173279 9.44736e-21)
(-0.021027 0.00847756 3.79035e-20)
(-0.00986939 0.0118172 -4.47478e-21)
(-9.27978e-05 2.92989e-05 0)
(0.039566 -0.00491466 0)
(-0.000375083 0.00101547 -7.09761e-21)
(-0.000244856 0.000439824 -2.36843e-20)
(-0.0429432 -0.00829335 1.03395e-20)
(-0.0403845 -0.010849 0)
(0.00101889 0.000419928 -8.12181e-21)
(0.0737175 0.0238801 2.10054e-20)
(0.0100813 0.010185 3.73727e-19)
(-0.00463033 0.0485538 0)
(-0.00584642 -0.0181817 3.79807e-21)
(0.000566111 -3.34343e-05 5.25647e-20)
(0.00283121 0.00272356 2.92501e-21)
(0.0084094 0.0280737 0)
(-0.0068248 0.0420529 -1.72806e-20)
(-0.000113001 1.95836e-05 6.21953e-21)
(0.000112975 -0.000673875 1.50996e-20)
(0.000725883 0.00179608 9.08635e-23)
(5.42403e-05 -0.000388374 0)
(-0.00235901 0.00063992 0)
(0.000971429 -0.00124175 -1.40008e-20)
(0.109757 0.147786 -5.41095e-20)
(-2.07614e-05 -7.26174e-05 6.28999e-21)
(0.0196408 0.0334752 0)
(0.000242801 3.81614e-06 0)
(-0.0188306 -0.0370736 -5.99584e-22)
(0.0195094 0.000856794 3.49863e-21)
(0.00135603 -0.00077965 -1.36386e-20)
(0.00540014 -0.01638 -5.1075e-20)
(0.00366391 -0.00209507 0)
(0.000683023 0.00129262 0)
(0.00177123 0.00790049 -1.12483e-20)
(-0.0845349 -0.038795 0)
(-0.0193803 -0.0390241 1.49051e-21)
(6.12517e-06 -4.48363e-06 8.09828e-21)
(0.013803 -0.000778775 2.47837e-20)
(-0.000543686 -0.00288091 0)
(5.75946e-05 0.000327349 0)
(0.0627735 0.00922678 0)
(0.0542154 0.00493036 -1.90003e-21)
(0.00024938 -7.9235e-06 1.56904e-20)
(-0.0448503 -0.0768481 0)
(-0.0153371 -0.00646176 1.32766e-20)
(0.000124693 -0.000582392 6.18185e-22)
(0.0110946 9.98811e-05 3.7212e-21)
(-0.0146446 0.041127 -1.5102e-20)
(6.14023e-05 0.000940481 -1.45665e-20)
(-9.8893e-05 0.0852971 -2.37305e-21)
(-0.0241746 -0.0493337 -7.60553e-22)
(-0.00199784 0.0263677 -6.28209e-21)
(0.00837654 0.000831586 -5.63617e-21)
(-0.0250284 -0.0984507 5.37974e-21)
(0.0336476 -0.0234135 -3.99994e-20)
(0.0129709 -0.044654 5.82018e-22)
(-0.00390944 -0.00902635 2.07582e-20)
(8.23164e-05 0.000332197 1.03633e-20)
(-0.0113347 -0.00325272 -2.94841e-20)
(0.000350637 -5.904e-05 9.18999e-21)
(0.000648828 -0.00209298 0)
(0.00822934 -0.0322813 1.03759e-19)
(-0.00548372 -0.0165352 -1.39386e-21)
(0.00156843 -0.000266683 -2.48585e-20)
(0.000164809 -3.59407e-05 7.43985e-21)
(0.00191198 0.00343414 1.22612e-21)
(0.000425643 0.00154299 -3.03909e-21)
(-5.63504e-05 -0.00121291 -1.16488e-20)
(0.000261302 -1.47425e-05 1.45982e-20)
(-7.26048e-06 2.59352e-05 0)
(-0.00862252 -0.0750519 2.544e-20)
(-0.0211452 0.00102922 0)
(0.000136742 5.59762e-05 5.04397e-21)
(0.0162769 -0.000236965 9.15794e-21)
(-2.81824e-05 6.44942e-06 2.9069e-21)
(0.0517175 -0.00182714 -1.41056e-21)
(0.000113913 -0.000385039 -4.81869e-21)
(0.000109965 -2.13605e-05 1.95499e-20)
(0.0543118 -0.0158382 -7.90784e-21)
(0.0195401 0.00506966 -2.26829e-21)
(-0.00433435 0.0082135 0)
(0.0145119 -0.0284286 0)
(0.000184593 -2.69123e-05 0)
(0.000196342 -5.09043e-05 -5.98886e-21)
(0.0288818 0.0196677 2.26506e-21)
(0.00294209 -0.044416 -3.32052e-20)
(0.000624175 -0.000264466 1.61858e-20)
(0.000164585 0.000994647 -1.40874e-20)
(-0.0195281 -0.0671924 0)
(0.00506117 -0.010381 -1.31268e-19)
(-1.56611e-05 -9.40752e-05 -5.0109e-21)
(-5.33665e-06 -0.00061014 4.82621e-23)
(1.17375e-05 2.19296e-05 1.78332e-20)
(7.52661e-05 -0.000308089 3.72964e-21)
(-0.0731213 -0.0577848 -6.52399e-21)
(0.0231662 0.0206036 -2.05409e-21)
(0.000758863 -0.000745513 -7.80284e-21)
(0.00177174 -0.0006912 0)
(0.00979672 0.00620607 5.61178e-22)
(-0.0146153 -0.000684911 0)
(0.0025023 0.00123744 -1.29023e-20)
(-9.98273e-05 -4.90351e-05 4.8939e-21)
(0.000764097 -0.00103265 6.15873e-21)
(-0.03126 0.332922 -1.2505e-19)
(0.000411586 0.00137366 9.78959e-21)
(9.74564e-06 -0.000660913 0)
(0.00014976 -0.000278893 0)
(0.000138747 0.000236425 -1.13259e-20)
(0.000199713 0.00515077 0)
(0.0964492 0.123195 -8.87252e-21)
(0.275469 0.369092 0)
(0.0537181 -0.0896508 9.87615e-20)
(0.000200016 -0.0003407 -1.67267e-20)
(-0.0218334 0.00709951 7.31281e-21)
(0.000190901 2.88995e-05 -8.22234e-21)
(-5.6202e-06 3.57198e-06 1.07069e-21)
(-0.0062239 -0.017283 2.37636e-20)
(0.0371105 -0.128566 3.4083e-20)
(0.0118135 -0.036153 2.33452e-20)
(-0.0432175 -0.0594873 5.03561e-22)
(0.0109619 -0.0237058 -1.18903e-21)
(0.0196327 0.0020411 3.61489e-21)
(0.025053 0.0195352 5.14404e-22)
(0.0141849 0.00129146 -1.51441e-20)
(0.0053132 0.0218496 -2.18232e-20)
(0.0533478 0.00110107 -1.3233e-21)
(0.0160174 0.0172362 6.95399e-21)
(0.0472604 0.00384192 4.38495e-21)
(0.000155681 -0.000163597 -4.49307e-21)
(0.00454514 -0.00925794 0)
(0.00180274 -0.000108416 1.19523e-20)
(-0.000280758 0.0011281 -1.94327e-20)
(0.00454732 -0.0072307 -6.17513e-23)
(0.0515861 -0.033953 0)
(0.000761815 -0.00119547 -2.38033e-20)
(-0.0102182 0.0183497 0)
(0.0016717 -0.0103418 1.03422e-21)
(0.00289343 -0.00153879 -4.01456e-21)
(-3.30432e-05 -0.000101797 -1.66958e-20)
(2.05155e-05 -0.000782926 -2.17523e-22)
(0.0191041 -0.119887 -1.10758e-20)
(-0.00678901 0.0131843 0)
(0.0140966 -0.0302414 -3.63338e-21)
(-7.42648e-05 0.000129371 2.18179e-21)
(0.00222352 0.0378576 0)
(-0.00789692 -0.00808651 -2.50247e-22)
(0.000641332 0.000591605 0)
(-0.00047508 0.00124295 1.50668e-20)
(8.7282e-06 -0.000281429 3.53016e-21)
(0.00345925 -0.00518182 1.77317e-20)
(0.00918024 0.0716999 -2.43249e-20)
(-0.00820628 -0.00259236 6.39541e-20)
(2.43284e-06 -1.67201e-05 8.71594e-21)
(0.0272725 0.0213529 0)
(-9.75241e-05 -8.04661e-05 0)
(-0.0323589 -0.0931105 -8.13214e-21)
(0.00233532 -0.000591733 -1.00673e-20)
(0.00272664 2.08956e-05 -8.99946e-21)
(0.00535938 0.00417014 -1.71304e-20)
(-0.0144939 -0.000787645 -4.31282e-20)
(-0.000241721 0.000261158 -4.18688e-21)
(0.000140769 -0.000142159 0)
(-0.0212057 0.00121969 2.37446e-20)
(0.0220253 0.0223413 1.87302e-21)
(0.0178143 0.000313052 -6.54064e-20)
(-0.00639818 -0.0178914 3.50254e-22)
(5.63422e-05 0.000700547 1.49078e-20)
(0.000127112 -0.000257031 0)
(9.38482e-06 -0.000403803 1.5743e-21)
(-0.0104305 -0.11017 9.09928e-22)
(-0.00418791 -0.0683502 -6.47275e-21)
(-0.00376903 -0.0737493 0)
(0.00279343 0.00186056 -2.06605e-20)
(0.217235 0.389977 0)
(0.0465653 -0.00277759 1.57745e-21)
(0.00959144 -0.00816114 1.19725e-19)
(-0.00711531 -0.00131844 -3.69896e-22)
(0.000700915 -0.00179135 -6.30333e-21)
(-0.0149811 -0.00202691 5.19601e-21)
(0.000117444 0.000190323 0)
(0.00832932 0.01869 0)
(0.00272567 0.0178578 7.04467e-21)
(-0.00518363 -0.0878702 -1.03475e-18)
(0.000940764 0.000650759 1.37885e-20)
(-0.0649766 -0.0511732 0)
(-0.0125148 0.000396695 5.55379e-20)
(0.000151925 -0.000157622 0)
(-0.0388391 0.0130058 -3.31048e-20)
(0.000275115 -0.000487777 -7.57195e-22)
(4.08432e-07 -9.05371e-06 1.01232e-20)
(0.00241958 0.00117613 5.5543e-22)
(0.0395929 0.0138507 0)
(-1.06972e-05 -0.0006069 -2.62862e-20)
(0.000197485 -0.000471081 0)
(3.28319e-05 0.000107978 -8.06176e-21)
(0.0796197 0.0371877 -1.65632e-20)
(-0.0102532 0.011332 1.87664e-20)
(0.000147449 -0.000117582 0)
(-0.0182911 0.0395455 6.19344e-19)
(-0.000381607 0.00193657 -2.12114e-20)
(-0.000567553 0.000961714 0)
(0.000190895 -1.2456e-05 5.76404e-21)
(-0.00447949 0.0157894 1.98266e-20)
(-0.0261676 -0.00202103 1.3318e-21)
(0.00219365 0.00212619 -2.21787e-20)
(0.0119686 -0.0188518 -1.32236e-20)
(0.000151498 -0.000322509 1.03094e-20)
(0.000104052 9.261e-06 1.32014e-20)
(-0.0459357 -0.0593825 0)
(0.0180122 0.000211357 0)
(0.00424896 -0.0309809 -5.7092e-22)
(0.0526769 0.0012687 -3.51015e-22)
(0.0177526 0.00285892 5.16032e-20)
(0.000267469 -0.00155366 2.19881e-20)
(-0.00959637 -0.00617658 1.90097e-20)
(0.00115289 -0.0314752 -1.39253e-20)
(-0.000970353 -0.00404648 1.89066e-20)
(0.37263 0.114737 5.24055e-20)
(-0.00509815 0.00458476 0)
(-4.57802e-05 1.31501e-05 0)
(0.0158837 -0.00445926 -2.71892e-20)
(-0.0885748 -0.043971 0)
(0.00659779 -0.00185748 0)
(-0.00479649 -0.011682 -2.02636e-20)
(0.00194992 0.00360167 3.79021e-21)
(0.00661497 -0.00234085 -1.00044e-21)
(-0.0086325 -0.00602901 -2.02877e-20)
(0.000153374 -0.000170244 1.11575e-20)
(-0.0446397 -0.0592737 1.09203e-20)
(-0.000607049 0.00772728 -2.49445e-20)
(0.0253012 -0.000546062 5.43873e-20)
(0.00207804 -0.00310788 4.19858e-20)
(7.50024e-05 0.000367621 0)
(-1.84741e-05 0.000715578 -3.53372e-21)
(-0.0664622 -0.0059641 7.79768e-21)
(0.00013007 -0.000164848 1.06579e-20)
(5.58554e-05 -0.000500392 4.49721e-21)
(-0.00308879 -0.0133027 -1.67905e-20)
(7.73013e-05 0.000256613 -6.17467e-21)
(0.00526614 0.00635413 -1.85617e-20)
(-0.000593132 0.000800963 -2.74339e-21)
(-0.0140809 -0.0145272 4.42111e-21)
(0.000805017 -0.000597808 -8.83841e-21)
(-0.00152967 0.00247977 -2.78164e-20)
(-1.93162e-05 0.000233944 0)
(-0.014297 -0.0148955 -1.19283e-19)
(0.0539059 0.0023767 0)
(-0.11985 0.0694182 4.58468e-19)
(0.00114217 0.000929847 0)
(0.0322354 0.00371998 0)
(0.0259919 0.0198499 4.06212e-21)
(-0.0176039 -0.0431614 0)
(-0.000269369 0.000352768 0)
(-0.00494365 0.0138102 -1.70331e-20)
(-0.000159541 -0.00211467 -1.80545e-20)
(-0.0237529 0.00796617 -1.5513e-20)
(6.51371e-05 -0.000435411 0)
(0.0158515 0.0262751 5.1157e-20)
(0.0831458 0.0284353 0)
(-0.0302992 -0.0297616 -3.89308e-22)
(0.0171678 7.26894e-05 5.8209e-20)
(-0.00175455 0.0514424 1.18226e-18)
(0.0253384 -0.0178952 2.10527e-21)
(-0.000106051 3.1977e-05 -1.30026e-20)
(0.0373292 -0.000590116 0)
(9.95345e-05 3.91965e-07 0)
(0.00037056 0.000297336 9.09862e-21)
(0.00108051 -0.00279633 0)
(6.95748e-05 -8.7056e-05 -9.74091e-21)
(9.69465e-05 -2.45732e-05 0)
(0.0480236 -0.00370194 -8.86966e-22)
(0.0117376 0.0070766 7.95935e-21)
(0.000230472 0.00103869 1.24013e-20)
(0.0257537 0.0227521 5.81737e-21)
(-0.011029 0.00615917 0)
(0.00823698 0.0175508 1.82522e-20)
(-7.99382e-05 0.000142972 7.9586e-21)
(5.18616e-05 -0.00183568 -4.27125e-20)
(6.32694e-05 -2.94616e-05 0)
(0.000233726 -7.47889e-05 8.01746e-21)
(0.000132066 0.000240817 0)
(0.000465096 5.20565e-05 -7.03978e-21)
(0.00583267 0.0619213 9.34919e-21)
(0.00621467 -0.000352485 1.21317e-20)
(0.0469215 0.0280887 -1.46965e-20)
(-0.0128345 0.00478993 1.06363e-20)
(0.0422224 -0.00292389 -6.56744e-22)
(-0.0121009 0.00358311 -2.5136e-20)
(-0.0910475 -0.0196286 -6.33773e-22)
(-0.00071937 0.0228496 8.57526e-21)
(-2.99402e-06 -0.000549806 -5.33327e-21)
(0.0648299 0.0300542 -1.0476e-20)
(0.000155324 -2.05269e-05 -7.40387e-21)
(0.0442012 -0.00462097 -3.46299e-21)
(-0.0714764 -0.0176585 4.85707e-21)
(6.82747e-05 0.000326581 0)
(0.00273781 -0.00418746 -1.19376e-21)
(-0.0826603 -0.0598447 0)
(0.0348936 -0.0198244 1.40437e-22)
(-0.0436896 -0.0603107 -5.27268e-21)
(-0.00272011 0.00626466 7.55e-21)
(-0.0040456 0.011615 0)
(0.000373667 0.000152909 -1.19031e-20)
(-0.0511427 -0.101366 1.27062e-20)
(0.039173 -0.00145761 0)
(0.0313332 -0.00330287 1.91366e-21)
(-0.0201598 -0.0850068 1.6722e-20)
(-0.0142495 0.022506 1.78433e-19)
(0.0197021 0.000481536 0)
(0.00791151 -0.0568563 -3.21538e-20)
(-0.0336416 -0.10665 -1.20304e-20)
(-0.0470965 -0.0242694 -8.25433e-22)
(-0.1284 0.0247465 1.61888e-20)
(0.00021771 -1.39223e-05 -6.26626e-21)
(0.0486015 0.00370543 -4.97345e-21)
(0.0175118 0.00812049 2.42849e-21)
(0.0119404 0.0023693 -2.51446e-20)
(0.0237448 -0.0195246 0)
(0.00032067 -0.000123449 -1.28217e-20)
(0.0239661 -0.00817805 0)
(-0.0152523 0.0458089 0)
(0.000337072 -0.000149391 1.40943e-20)
(0.0249999 -0.0206736 -4.05113e-21)
(-0.0161794 -0.0355547 -1.08662e-21)
(-0.0410071 -0.111057 6.48308e-21)
(-0.0115107 0.00151715 3.32421e-20)
(-0.000603827 0.00589064 1.88552e-20)
(0.00275326 0.00184455 0)
(9.26533e-05 -2.84325e-05 0)
(0.0374171 0.014622 0)
(0.00324978 0.0824819 4.40397e-20)
(0.000284669 0.00121748 1.1858e-20)
(-0.0177022 -0.0037015 -2.95943e-20)
(0.000400807 -0.00027874 -1.08095e-20)
(0.0432718 -0.00272856 9.45758e-23)
(0.00690475 0.0201419 0)
(0.00131983 0.00176179 1.61245e-21)
(0.00296172 0.00137885 0)
(3.91973e-05 0.000135563 0)
(0.00144618 -0.045935 -8.43722e-20)
(8.16515e-06 -7.47333e-05 2.78412e-21)
(0.00337653 0.00480792 3.08027e-20)
(0.0191721 -0.00469783 0)
(-0.00232712 -0.00894475 -1.47135e-19)
(0.00022419 -1.7367e-05 6.62812e-21)
(0.000332185 -9.43178e-05 0)
(0.000333911 0.000161489 -1.27376e-20)
(-0.0452051 -0.023055 -2.09791e-20)
(-0.00165655 -0.0014571 -1.0663e-19)
(-0.00183919 -0.0142011 7.91592e-21)
(-0.0219047 -0.000451795 3.80656e-20)
(0.0134912 0.0068727 0)
(0.0815396 0.0189243 2.31332e-20)
(3.75765e-05 -0.000717484 0)
(3.43391e-05 -2.41333e-05 -2.74448e-22)
(0.0621803 -0.120603 8.45383e-20)
(0.00083575 -0.00118306 1.27259e-20)
(0.0401736 -0.0544989 0)
(0.0391586 -0.00626279 0)
(0.00371203 0.00456388 -6.89746e-21)
(0.0034045 0.0465257 0)
(0.000730665 0.000868107 -3.89014e-21)
(0.0556237 7.59502e-05 -3.12783e-22)
(-0.0328708 -0.055574 5.12272e-22)
(-0.0599174 0.0471712 6.82478e-20)
(-0.000303395 0.0024915 -1.39064e-20)
(0.000102159 1.04024e-05 2.87973e-23)
(-1.8508e-05 0.00116855 -1.19022e-20)
(-2.11785e-05 -0.000407643 0)
(-0.0198376 -0.0273466 6.54563e-22)
(-0.000625535 0.000241354 0)
(0.000158424 0.000372328 2.44803e-20)
(0.0207056 0.0137695 0)
(0.00183088 -0.00185286 -1.50191e-20)
(-0.0096686 -0.108021 2.06173e-21)
(0.0173753 0.0284939 -5.82303e-20)
(-0.00389719 -0.0443207 5.32251e-20)
(0.00012579 5.05864e-05 -1.22342e-20)
(-0.0866458 -0.0501545 -4.12938e-22)
(-0.000248574 0.000309821 1.61714e-20)
(0.00136957 0.000695356 -1.81529e-21)
(-0.0337278 -0.133095 1.5268e-21)
(-0.031912 -0.123076 0)
(0.000184346 -0.000152841 0)
(0.00875978 0.0446921 -6.48895e-21)
(0.0378194 -0.0180579 4.99085e-22)
(0.000226835 0.000530998 -1.20799e-20)
(0.000129616 -0.000352297 0)
(0.000276959 -0.000565579 0)
(0.00399742 0.0207146 2.4619e-20)
(-0.0303016 -0.0207127 8.02903e-22)
(0.000151291 -0.000153064 -2.55262e-21)
(-0.0586964 -0.00461767 -1.6765e-20)
(-2.76675e-05 1.15255e-05 0)
(-0.00933016 -0.00400608 0)
(-0.0136474 -0.0080749 -4.5012e-20)
(-0.00412136 -0.0709748 0)
(-0.0565718 -0.0454378 -9.00901e-22)
(-0.00217156 0.00689659 0)
(0.000661363 0.00196682 1.3669e-20)
(-0.00328157 -0.0561709 3.87547e-20)
(0.000104191 3.85712e-06 -2.4476e-20)
(-0.00683021 -0.0172565 1.714e-21)
(0.000257143 0.000536185 0)
(0.000112479 -2.45231e-05 -1.96438e-21)
(-8.90811e-05 0.000108431 0)
(0.000321953 0.000757741 -2.58081e-20)
(-0.0391577 -0.0967867 -1.30734e-21)
(0.000521535 0.00045438 -7.41355e-21)
(0.000115328 -0.000170214 -1.01465e-20)
(0.000546281 -0.000854166 -9.57288e-21)
(0.000146372 0.000379351 -8.935e-21)
(0.190791 0.197779 1.43423e-19)
(0.000731344 -0.00204355 -1.48296e-21)
(-0.0141241 -0.000944723 2.47578e-20)
(0.000183978 -1.69156e-05 -5.68586e-21)
(7.46508e-05 -0.000585482 -8.63968e-21)
(0.000151794 -0.000129403 0)
(-0.0326272 -0.0552447 0)
(0.0509884 0.00127239 4.531e-21)
(0.020726 0.121076 -2.50008e-19)
(0.0621427 0.16828 6.19544e-20)
(0.000109275 -2.71116e-05 -2.68487e-21)
(0.0125156 -0.0216388 -4.96037e-21)
(0.041531 0.0126123 -1.59373e-21)
(0.0015686 0.00129812 4.24545e-21)
(0.000256347 -4.9964e-05 1.35193e-20)
(-0.018072 -0.0079156 0)
(0.0526789 -0.00260597 8.76807e-22)
(0.0029742 0.00327688 1.02454e-20)
(0.00714174 -0.0166828 -1.31739e-19)
(-0.0311711 -0.0518145 6.23675e-22)
(-0.00175211 0.0322295 0)
(-0.000246106 0.000314201 -1.42069e-21)
(0.00938452 0.000870258 2.22189e-21)
(0.0028838 -0.00111219 2.36582e-21)
(0.0053996 -0.00389667 -1.8014e-21)
(0.0316606 -0.0219985 -6.30163e-23)
(-0.0169639 -0.00584429 -1.57835e-20)
(-4.86712e-05 0.000138597 -8.11593e-23)
(0.0260372 -0.00409469 1.17973e-23)
(0.000331115 -0.000107398 -1.06507e-20)
(0.020749 -0.0416904 0)
(0.0104941 0.0096806 -1.32642e-21)
(0.00624448 -0.0065705 0)
(0.000239303 -0.00044693 -5.24712e-21)
(0.053621 0.00197743 0)
(-0.0610042 -0.00633475 7.92712e-21)