/*--------------------------------*- C++ -*----------------------------------*\
| =========                 |                                                 |
| \\      /  F ield         | OpenFOAM: The Open Source CFD Toolbox           |
|  \\    /   O peration     | Version:  v2012                                 |
|   \\  /    A nd           | Website:  www.openfoam.com                      |
|    \\/     M anipulation  |                                                 |
\*---------------------------------------------------------------------------*/
FoamFile
{
    version     2.0;
    format      ascii;
    class       volScalarField;
    location    "200";
    object      nut;
}
// * * * * * * * * * * * * * * * * * * * * * * * * * * * * * * * * * * * * * //

dimensions      [0 2 -1 0 0 0 0];


internalField   nonuniform List<scalar> 
18166
(
0.000196159
0.00671888
0.00672594
0.000319511
4.40968e-05
0.000189338
0.00672675
0.000111345
0.0124931
5.55309e-05
0.00672318
0.00594817
0.00351788
0.00046018
0.0117161
0.000709054
0.00672284
1.86468e-05
0.0047069
0.00279385
0.000256817
0.00672274
0.000284858
0.00672237
0.00672373
0.0067262
0.00022087
0.000936272
0.00295604
0.000307335
0.000577989
0.00672416
0.00384167
0.00673469
0.00672109
0.00672208
0.0131973
0.00672204
0.00676072
3.88141e-05
0.00672551
0.00121663
0.00399054
0.0030676
0.00026584
0.00672276
0.000386511
0.000241689
0.000355766
0.000187891
0.00059886
0.000612603
0.000463646
0.00672482
0.00672322
0.00462588
0.00140554
0.000238129
0.00112346
0.000871273
0.000419519
0.00104456
0.00486929
0.000767995
0.00059878
0.00672237
0.0097935
0.0125015
0.00327066
0.000950412
0.00672082
0.00225789
0.000147093
0.000851569
9.87947e-06
2.97252e-05
0.000297699
0.00332489
0.000982009
0.0067221
0.00672574
0.0150288
0.00672231
0.00672321
0.00671985
0.00286085
0.00173015
0.00672064
0.000585949
0.00675781
0.00193002
0.000203944
0.00151428
0.00672605
0.00672534
0.00260891
0.00671936
0.000105075
0.000749562
0.000632846
0.00672963
0.00672285
0.0128504
0.000416038
0.00101104
0.00672304
1.96535e-05
6.71996e-05
0.000786986
0.00672244
0.000902201
0.0140799
0.014197
0.00975523
0.00672336
0.00678749
9.42102e-05
0.00177655
0.00167581
0.00866602
3.31524e-05
0.00269432
0.000293784
0.00943347
0.000338377
0.00673259
0.00672304
0.00329045
0.000393554
0.000230295
0.000330635
0.00084121
0.00127305
0.0140514
0.000419329
0.000362268
0.00672211
0.00672239
0.00183434
0.00493497
0.0112072
0.000622066
0.000494321
0.0144585
0.000704495
0.00551531
0.000227154
0.0125242
0.00418221
0.00139553
0.00671904
0.0111651
7.08987e-06
0.000408283
0.00672542
0.00672246
0.00164106
0.00233612
0.00672203
0.00319609
0.00671829
0.0130606
0.000833805
0.00672187
0.000570633
3.61797e-05
0.00672295
0.0145788
0.0164898
0.000488171
0.000371612
0.0104128
0.000258846
0.0102132
0.000992858
0.00396893
2.38105e-05
0.00971867
0.00671877
0.00672043
0.00672341
0.000232069
4.44932e-05
2.91773e-05
0.00683125
0.00672008
0.000200608
0.000356259
0.0067213
0.00678344
0.000324836
0.00596395
0.000611945
0.00672288
0.000263367
0.00196501
0.000149765
0.000281364
0.00226794
5.33882e-05
0.00034515
0.0124837
0.00575241
0.0125494
0.00253089
0.00051136
0.0163163
0.00256954
6.65249e-05
0.000121213
4.16959e-05
0.0118018
0.00671875
0.00672232
0.000899908
0.000169846
0.000540607
0.000152254
0.0169239
0.0154891
0.000861395
0.00672871
0.00671993
0.000167368
0.00154382
0.00673335
0.000207422
0.00671939
0.00105903
0.00589594
0.00206969
0.0143543
0.0019648
0.0132897
0.00672147
0.00269383
0.000650178
0.000289567
0.0119743
0.00391118
0.00104665
0.0150701
0.00304941
0.00117179
0.0119444
0.00312225
0.000358482
0.0147197
0.0137656
0.00111532
0.000190762
0.006723
0.00215156
0.000352035
0.00942279
0.000658226
0.00672257
0.0159149
0.000713204
0.00671892
0.00672228
0.0124761
0.00024531
0.000242247
0.000141285
0.0153813
0.0106496
0.000958438
0.00672584
0.000662082
0.000457728
0.00672235
0.00672113
0.0139835
0.000728131
0.00468012
0.00965403
0.00671864
2.48976e-05
0.0067201
0.000397758
0.0110002
0.00104088
0.00367917
0.00134354
0.000199067
0.00206956
0.00196885
0.0138172
0.00672371
0.00080687
0.00044074
0.000745079
0.00672263
0.00079348
0.00289133
0.00672762
0.00672243
0.00673132
0.0105604
0.00920021
0.00672211
0.00214254
0.00672128
0.00802825
0.0030521
0.00414677
0.000340902
0.00287466
0.00678831
0.00141883
4.0075e-05
0.00432471
0.000440319
0.0067237
3.99956e-05
4.11271e-05
0.000765428
0.00672232
0.000577689
0.00672877
0.000527029
0.0134949
0.000234032
0.000200218
0.000619881
0.00261169
0.00368666
0.00674536
0.0131604
0.00672256
0.0141706
0.00421275
0.00679705
3.0428e-05
0.0125261
0.000427608
0.0162967
0.00302811
0.0119629
0.0043784
0.0100076
0.000525596
0.0118326
0.00269911
0.0067226
0.00672833
0.000349746
0.00192784
0.000297142
0.000966702
0.000454244
0.00672257
0.00671987
8.22051e-05
0.000896945
7.83473e-05
0.000704704
0.00672274
0.00674361
0.00672048
0.0151554
0.00259808
0.00672268
0.00672485
0.00672576
0.00672575
0.00013829
0.00672583
0.00512646
1.35009e-05
0.0067205
0.00672864
0.000772275
0.0142191
2.51668e-05
0.0110042
0.00672551
0.000733898
0.000568836
0.00553238
0.00641434
0.000727255
0.00148606
0.00111192
0.00427871
0.00672235
0.00672582
0.0125405
0.0045466
0.00672071
0.00128778
0.00674508
0.0126721
0.000354088
0.00672537
0.00672271
0.000937056
0.00672509
0.00672427
0.00173213
0.000611822
0.0125629
0.00672595
0.00846771
0.00287453
0.0058595
0.00424089
0.00651305
0.00162899
0.00647853
0.000802092
0.000190235
0.00891539
0.00134577
0.000896947
0.000188402
5.58234e-05
0.00672577
0.00672238
0.00242852
0.00673144
3.24696e-05
0.000942439
3.05585e-05
0.00672587
0.000271155
0.00609298
0.00296159
0.000142847
0.000489401
3.17797e-05
0.00025198
0.00225219
0.000878249
0.0121779
0.0118322
0.00672396
0.00573155
0.000844961
0.00673974
0.00825257
0.0124777
0.0067285
0.0130704
0.00998955
0.00672236
0.000176339
7.2228e-05
0.00583513
0.000108549
0.0135473
0.000261488
0.000583287
0.0138671
6.12169e-05
0.000463479
0.000300601
0.00674247
0.00269628
0.00434976
0.0037278
3.9578e-05
0.00820467
0.00110911
0.00176275
0.000757322
0.00147631
0.00244534
0.00672922
0.00671928
0.00010059
0.00977118
0.00672036
0.00038064
0.00672596
0.00652223
0.00672256
0.00671939
0.000382159
0.010291
0.000186076
0.0144137
0.00672251
0.00672251
0.0153928
0.00281829
0.000322612
0.00334889
4.13472e-05
3.67614e-05
0.00672438
0.0067231
0.00672535
0.00160782
0.0119512
0.0151118
0.00310912
0.00145786
6.92382e-05
0.00398582
0.000460441
0.00672114
0.000994617
2.23719e-05
0.00271441
0.00672295
0.00672236
0.00672899
0.000467302
3.35029e-05
3.7529e-05
4.20243e-05
0.00672196
0.000343893
0.00672423
0.00672588
0.0085528
2.79855e-05
0.000173387
0.0136518
0.0145657
0.0113393
0.0150813
0.000218322
0.0147612
0.0028993
0.000470248
0.00320195
0.00673396
6.83426e-05
0.00191997
0.00253891
5.45455e-05
0.000140333
0.000963111
0.00046338
0.0108686
0.000687292
0.00672544
0.00477895
4.04252e-05
0.0129448
0.0160597
0.00672719
0.000491827
0.00297556
0.00116851
0.00278104
0.00672625
0.000579631
0.00111181
0.00131242
0.00672477
0.0163995
0.00672256
0.0136612
0.000970448
0.00323617
0.000814759
0.00307003
0.00679272
0.00672105
0.0103652
0.0158421
0.000209656
0.0120359
0.00337051
0.00672231
0.00672367
0.012841
7.32709e-05
0.00358584
0.000728444
2.27171e-05
0.0168355
0.000534597
7.00788e-05
0.00130061
0.00248696
0.00672745
4.13266e-05
0.0132152
6.14891e-05
0.0014063
0.0141621
0.00199155
0.00672138
0.00260612
0.00530938
0.00672508
0.000114142
0.0145267
0.00672524
0.00672253
0.00672037
4.86321e-05
0.0120677
0.006721
0.000487465
0.00101621
0.00429315
0.00672198
0.000242154
0.000437283
0.000860659
0.00336721
0.00672259
0.00672011
0.00952605
0.000455468
0.000497695
0.00187496
5.37233e-05
0.00173416
0.00339464
0.00362723
0.000725351
1.55985e-05
0.000155679
0.000832349
0.000320678
0.0109705
0.000433582
0.000323996
0.00137773
0.000483805
0.00306491
0.00672138
0.0119358
0.000323056
0.000112296
0.000181687
0.00674199
0.00287878
0.0047249
0.0067212
0.00672272
0.000312269
0.00673576
0.000364468
0.00434855
0.000314467
0.00172953
0.000619627
0.00674333
0.000125936
0.00188827
3.03609e-05
0.00170078
0.00193754
0.0151804
5.4598e-05
0.00497782
0.0129211
0.00263586
0.00022109
0.00672292
5.49346e-05
0.00397117
0.00363967
0.000471944
0.000540261
0.013776
0.00672086
0.00165414
0.0067207
0.000395123
0.000689982
0.0056244
0.00672076
0.00759207
0.000447378
0.0017586
0.0165399
0.00258979
0.000115838
0.00672122
0.00056676
0.00672578
0.00672467
0.00672798
0.0043817
2.92626e-05
0.000811438
0.00890571
0.00647051
0.00388739
0.00469716
2.97774e-05
0.000270316
0.00672321
0.00564472
0.00672271
0.00728243
0.0103353
0.00673761
0.000465699
0.0125372
0.0162062
0.0110629
0.000556526
0.000353595
0.00674753
0.011492
0.00285603
0.0107511
0.000173268
0.000252608
0.000492553
0.000182025
0.00771986
0.00132824
3.0495e-05
0.00672276
0.00285814
0.000482238
0.000475674
0.0142248
0.00673377
0.00036144
5.65487e-05
0.00673459
0.000442953
0.0125203
0.00838761
0.0100977
0.000367654
0.000806421
0.00672092
3.94504e-05
0.000108978
0.000475587
0.010324
0.00627343
0.017231
0.0145637
0.00110601
0.000823489
0.00672595
0.000274197
0.00672566
0.00293884
0.000344943
6.16079e-05
0.00672689
0.00673403
0.00674646
0.00207115
5.77615e-05
0.000171903
0.00263151
0.00050498
0.00285327
0.0067227
0.0067226
0.000153447
0.00146677
0.000194398
6.37347e-05
6.64217e-05
0.000507556
0.00313107
0.00740316
0.0131346
4.07759e-05
0.00268177
0.0067207
0.0014588
0.00672326
0.000367261
0.000944826
0.0067454
0.000450404
0.00120393
0.0122586
7.49871e-05
0.000248713
0.00672057
0.0116219
0.0067915
0.00132155
0.00773204
8.93402e-05
0.00672261
3.75276e-05
0.0163723
0.00565708
0.00672245
0.00636059
8.29674e-05
0.00312166
0.00672111
0.00300285
0.0067256
0.00248115
0.00412337
0.00332635
0.00364585
0.000111739
0.000731575
3.41177e-05
0.00671937
0.0108901
0.00600366
0.00672006
0.00672997
0.0028962
0.013504
0.00543117
0.00672134
0.00194493
0.00674602
3.50145e-05
0.00141105
0.00250024
0.0067219
0.00672344
0.00672141
0.0132078
0.00070788
0.00022305
2.10447e-05
0.00672003
0.0140325
0.0141857
0.00118761
0.00672629
0.00460179
0.00856169
0.000953282
0.000429652
0.0138235
0.000162633
0.00568784
0.000603425
0.000829337
0.000428285
0.0165113
0.00352573
0.00674457
0.0040368
0.00673488
0.000370402
0.000552542
0.000417773
0.0044442
0.00152805
0.0046189
0.00975059
0.00672355
0.000483351
0.00674208
0.0025342
0.00672127
0.000714881
0.00209972
0.00672375
6.1763e-05
0.00102211
0.00672244
3.2274e-05
0.00672213
0.0137868
0.000763237
0.000110548
0.0042559
0.000356759
8.96904e-05
0.00288758
0.00230069
0.000499431
0.0138218
0.00672332
0.000680919
0.000412313
0.0141562
0.00672702
0.00140786
0.00160735
0.0116857
0.006726
0.000360773
0.000447264
0.00113474
0.00672244
0.00672284
0.00672087
0.00040706
0.00673744
2.47083e-05
0.0005333
0.00674238
0.00142416
0.00298749
0.00672914
0.000880002
0.00672463
0.00672136
0.000382156
0.000294617
4.6011e-05
0.000112837
0.00208988
0.0021697
0.00262332
4.628e-05
0.00990058
0.00135273
6.03699e-05
0.000667229
0.00672174
0.000404815
0.0015831
0.00257943
0.0132478
0.00672228
0.000107047
0.000219685
0.00132463
0.00666126
0.00672421
4.73555e-05
0.000633592
3.33568e-05
0.00441618
2.0227e-05
0.0067257
0.00111919
0.0067257
0.00585662
0.0102716
0.00672629
0.00276965
0.000110724
0.00800209
0.00672135
0.00516103
5.98532e-05
0.00677904
3.41051e-05
0.00672191
0.000663851
0.00793744
0.000373123
0.00526492
0.000385349
5.5522e-05
0.00672845
0.00265301
0.00584861
0.00672659
0.0067278
0.00153455
0.0143407
0.0153439
0.0058934
0.00170062
0.000490312
0.000182969
0.0067255
0.00245024
0.0085322
0.00377862
0.0051499
0.0103201
0.00672244
0.000560015
0.00370159
0.00142923
0.000491287
9.53721e-05
0.00550985
0.0133255
0.0045599
0.00672826
0.00151708
0.00672133
0.00015104
5.31403e-05
0.00297886
0.000687487
0.00672245
0.00672616
0.00673396
0.00103298
0.000392775
0.00672162
0.00266143
0.00154446
0.00519077
0.00266623
4.49114e-05
0.00445558
0.000166819
0.00328178
0.00449865
3.64813e-05
0.0134999
0.000137821
0.0067227
0.000381249
2.99925e-05
0.000988657
0.000460985
0.00545279
0.0136161
0.00169475
0.000527158
0.00132283
0.00151052
0.012449
6.13815e-05
6.03953e-05
0.000342968
0.00672698
0.000427229
0.000510833
0.00307054
8.76916e-05
0.00295997
0.00420099
5.69802e-05
0.000250833
2.68177e-05
0.0024143
0.00672692
0.00219033
0.00672597
5.51099e-05
0.000658414
0.000944098
0.000501076
0.000125955
0.00109505
0.000387727
0.00672123
7.05654e-05
0.0148967
0.0138549
0.0126968
0.000366483
0.00672474
0.00194875
0.00311655
8.29119e-05
0.00672813
0.00505026
0.00303264
0.000292978
0.000304105
0.00672284
0.002579
0.00280279
0.00358244
8.68225e-05
0.00672466
0.0165449
0.000907242
0.000413527
0.0161374
0.00213311
0.000368137
0.000311135
0.00903017
0.0046991
0.00145776
0.000115714
0.0118072
0.000424088
0.000625917
0.0143929
0.000224858
7.38165e-05
0.00672589
0.00672559
0.00672241
0.00672517
0.00174141
0.00115037
0.00672038
0.000149526
0.00672064
0.00158338
0.00702817
0.00672306
0.000405042
0.00250369
0.004467
0.000425357
0.00300344
0.00368237
0.00672396
0.00672604
0.011905
0.000512269
0.000360712
0.00244693
0.00729667
0.00226978
0.000262343
0.00138946
0.00672574
0.000570919
0.00329706
0.000339149
0.00672553
0.00672249
0.00117997
0.00672274
0.000290277
0.000259409
0.00102784
3.63535e-05
0.00672478
0.00274128
0.0105369
0.000456067
0.00947962
0.000183031
0.000296366
0.000638216
0.000444619
0.00659444
0.00333769
0.00832667
0.000628327
7.79683e-05
0.000762518
0.0168758
0.0102118
0.0161439
0.000299137
0.00868886
0.00335412
0.00672461
0.00673814
0.0104306
0.000855967
0.0145732
0.0149861
0.0114858
0.00673278
7.09036e-05
0.00843107
0.00672357
0.00270196
0.000338317
0.00133728
0.0142617
0.000569674
0.00101571
5.21448e-05
0.00672224
0.00200033
0.00107949
0.00211825
7.59653e-05
0.00108892
0.0045884
0.00188694
0.0170729
0.00672149
0.00892734
0.00672577
0.00409266
4.22761e-05
0.000277472
0.00672811
0.00674002
2.31734e-05
0.00672671
0.00672266
0.00554348
0.00138197
0.0072384
0.000370327
0.00672479
0.00289996
0.0166071
0.000281468
0.000395133
0.00184996
0.00537183
0.00272405
0.000338499
0.00671881
0.000131225
0.00134372
0.0037927
0.00036659
0.00672278
0.00467845
0.01099
0.012574
0.00152398
0.0059182
0.00672497
0.00672525
0.000211118
0.00582614
0.000215745
0.000112186
0.0103779
0.0158729
0.00046192
0.00983508
0.000731126
0.00673654
0.000171616
0.001212
0.000364053
0.00011223
0.00274706
0.0135925
0.00672229
0.000475435
0.000421761
0.000584245
0.0118421
0.00671979
0.00915684
0.00526291
0.000545528
0.000662452
0.000378734
0.0017829
0.000370369
0.00275992
0.00672274
0.00790888
7.29894e-05
0.00815945
0.00154113
9.19664e-05
0.000333209
0.000115189
0.000390184
0.00254195
0.00673893
0.013369
0.00672593
0.00305269
0.0032306
0.00672325
0.00673171
0.00673085
0.00671965
0.00672278
0.00545036
0.0140843
0.000137998
0.000325853
0.00673519
0.00174672
0.00118372
0.000946362
0.00044749
0.00672372
2e-05
0.00672049
0.00672258
0.000466567
0.00885587
0.000480504
0.0129483
0.00106578
0.00323849
0.00595596
9.75146e-05
0.000536146
0.000197206
0.00672282
0.00672268
0.000114176
0.000187851
0.0067217
0.0067266
0.00115609
0.00872843
0.000574964
0.00140161
0.000360976
0.00698042
0.000195584
0.00025247
0.000412223
0.000207166
0.0093545
0.006721
0.00115039
0.00562197
0.00291246
0.00357013
0.00125727
0.00235904
3.21084e-05
0.00672235
0.00672034
0.000495591
0.00672272
0.000334946
0.00672078
0.00672607
2.70504e-05
0.00672854
0.00672366
0.00787159
0.000854407
0.000892032
0.000300778
0.0145039
0.000597256
0.0160603
0.00581638
0.000366035
0.000309482
0.00672105
0.00692744
0.000831831
0.00375003
0.000384978
0.00673827
0.00232204
0.0067249
0.000457484
0.0111074
0.000472823
0.00211852
0.0148411
0.00420379
0.000439752
0.000341888
0.0067241
0.00231464
0.0040343
2.69749e-05
0.00830387
0.00837526
0.000650759
0.000262406
9.07589e-05
3.56758e-05
0.00672464
0.0028118
0.000494759
0.0101437
0.00294421
0.000306797
7.55024e-05
0.000254875
0.00674152
0.0139087
0.00673397
8.50727e-05
0.00294263
0.00892364
0.00672006
0.000823489
0.00920721
0.00672268
0.000412444
0.0037881
0.00268703
0.00941471
0.00672273
0.000505329
0.00265517
0.00105816
2.01755e-05
0.0109172
0.0170491
0.000213482
0.00565363
3.01157e-05
0.00479531
0.00387328
3.14533e-05
0.00289842
0.0012869
0.00674171
3.92314e-05
0.00264218
0.0135096
0.000310938
0.000389721
0.000878001
0.00247166
0.000530354
0.0007751
0.00170222
0.000483647
0.0144775
2.28892e-05
0.000643922
0.00126701
0.011893
0.00578123
0.00103746
0.00278034
0.00999558
0.00318641
0.00672252
0.0157737
0.00497682
0.0046019
0.00143849
0.0116222
0.00672559
0.00672549
0.0120713
0.000281514
0.00297619
0.00258075
0.00190693
0.000293914
0.00545188
0.0126113
0.00672614
0.00633492
0.000707807
0.0109698
0.0138868
0.000285297
0.0147277
0.0123305
0.00140206
0.00309803
0.000678884
0.00775176
0.0067746
0.0114371
0.00810564
2.80186e-05
0.000297669
0.00182727
2.61221e-05
0.0106106
0.000723494
0.00672564
0.000219248
0.00153828
0.000496516
0.00084532
0.000379118
0.00672473
0.00313099
0.00672783
0.000653656
0.0107088
6.37565e-05
0.00672362
0.0117259
0.00267594
0.00160899
0.00295222
0.00672646
9.11356e-05
0.000512304
0.0067317
0.0115047
3.42902e-05
0.00676131
0.0163915
0.00674469
4.49039e-05
0.011599
0.00672241
0.00624498
0.00176327
0.00466561
0.0106677
0.000291391
0.00661373
0.00368373
0.00177277
0.00571146
0.00653082
0.0067461
7.07193e-05
0.000445051
7.97681e-05
0.00672256
0.00200032
0.000855469
0.000356973
0.00851805
0.00675608
0.00672238
0.000550653
0.00672236
0.00672268
0.001673
0.0112018
0.000500527
0.00479795
0.00262169
0.0163107
0.00476612
0.0128803
0.000113168
0.0100695
0.00252531
0.00511191
0.0127351
0.00526732
0.00010312
0.00515723
0.000627025
0.00526379
0.0151846
0.0165139
0.00191703
0.000313555
0.000304243
0.00672578
0.00483171
0.00900671
0.000781404
0.00039714
0.00671952
0.0067263
0.0131354
0.00671946
0.00131288
0.00117031
0.00672046
0.00675959
0.00672575
0.000689912
0.0137897
0.000203768
0.00564919
0.00672248
0.00672284
0.00672638
0.0103861
0.00672244
0.00631041
0.00529566
0.000450105
0.00545268
0.00246773
0.00672576
0.00672156
0.00673214
0.00329619
8.07913e-05
0.000150337
0.000172009
0.00328716
0.000420716
0.000470997
0.00672845
0.00131565
0.00132425
0.00113003
0.00115234
0.0163787
0.000318098
0.0104359
0.000390458
0.000623492
0.0083625
0.00883238
0.00164053
0.000399629
6.17021e-05
0.00674134
0.00672873
0.00194686
0.0048353
0.00558066
0.00673474
0.00911377
0.00566572
0.0170582
0.000494072
0.00672306
2.77119e-05
0.000185954
0.000545999
0.00677879
0.0143365
0.000502553
0.00672313
0.00672256
3.99507e-05
0.00246769
0.00672237
0.0067676
0.00672751
8.04683e-05
0.000257371
0.00853637
0.00672956
0.000364271
0.00479639
0.000147104
0.0102217
0.000343762
2.9873e-05
0.000316358
0.00304505
0.000940096
0.000312676
0.00672249
0.00383723
0.00235884
0.000884331
0.0067602
3.83504e-05
0.00962984
0.00671898
0.00162904
0.00409999
0.00655835
0.000347348
0.00115536
4.71887e-05
8.44771e-05
0.000321102
0.000493775
0.0164905
0.00158166
0.00423714
0.00256545
9.07196e-05
0.0067224
4.5642e-05
0.00164023
0.000171791
0.00672252
0.00671956
0.00672039
0.0157943
0.00672388
0.000118157
0.00913137
0.000196289
0.000188532
0.000298801
0.00115497
0.000723687
2.32876e-05
0.00136226
0.00676084
0.00672161
0.00671847
7.84719e-05
0.0027671
0.00489336
0.000299928
0.00350166
0.00672553
0.000158754
0.00280473
0.000309001
0.00056566
0.0013254
0.000757752
0.000486753
0.0118766
0.00328893
0.00672232
0.00672593
1.96048e-05
0.0100869
0.0118573
0.00918232
0.0123941
0.0007453
0.00937584
0.00672039
0.00132034
0.00672744
0.000219021
0.00177196
0.00851084
0.00945529
0.00273294
0.00556586
0.00721094
0.000149781
0.0128184
0.00673468
0.00367721
0.00367926
0.00126066
0.00673199
0.00672262
0.0123927
0.000151229
0.00672628
0.000423719
0.0140028
0.00968753
0.0112922
0.00657789
0.00289355
0.00278345
0.00749676
0.00361443
0.00672883
0.00830546
0.000930024
0.00155431
5.94786e-05
0.000156198
0.00410406
4.63071e-05
0.00348545
0.0041926
0.000472296
0.0135344
0.000197939
0.0129714
0.0110492
0.00220824
0.00672581
0.000163828
0.00318476
0.00032151
0.0116492
0.0010643
0.00160456
0.00672041
0.00179608
0.000564849
0.000339132
0.00672064
2.60658e-05
3.28921e-05
0.00404435
0.000433198
0.000468139
0.00412821
0.00672248
0.00674535
0.00642619
0.000361102
0.000251599
0.000905715
0.000787445
0.00431414
0.00672369
0.0124045
0.0145816
0.00672536
0.00456867
0.00672661
0.0137716
0.000333534
0.00386253
0.000368722
0.0067222
0.000385627
0.00671952
0.0130539
0.0159069
0.00833994
0.00216668
0.00672276
0.00268568
0.00672391
0.00673175
4.23226e-05
0.00672646
0.00153081
0.00301711
0.000279313
0.00440138
0.00672361
0.0160519
0.00672273
8.04306e-05
0.00672079
0.00672253
5.88682e-05
0.00672839
0.000455486
0.00672291
0.000250885
0.000486874
0.00672043
0.00672782
0.00064064
4.54059e-05
0.000745176
0.010318
0.00962621
0.0107922
0.00142388
0.00555135
0.00672105
0.000358042
0.00673267
0.00805445
0.000313414
0.000113246
0.000427091
0.00574166
0.00673419
0.00672066
0.0122524
3.2471e-05
0.0126863
5.80805e-05
0.00672581
0.00611239
0.00672531
0.00108803
0.00672518
0.00253528
0.00674815
0.000916393
2.17449e-05
0.00672577
0.00270663
0.00672562
0.000623169
0.00672325
0.00673549
0.00672201
0.00672534
0.00180071
0.000815893
0.0167151
0.00672641
0.00323357
0.0128244
0.000546671
0.00102455
0.0148379
0.000117428
0.00672186
0.0038731
0.000329197
0.00672603
0.0159819
3.20182e-05
0.00512062
0.00672732
0.000713052
0.00672307
0.00672396
0.0112294
0.00674361
0.00672143
0.00182467
0.0028196
0.00114272
0.0019517
5.05531e-05
0.00221585
2.62786e-05
0.00552001
0.000123925
0.00672163
0.00117532
0.000617555
0.00245782
0.00672579
0.00672259
0.000534544
0.000358619
0.00672324
0.00672252
0.000505189
0.00672215
0.000438046
0.00677488
0.000876263
0.0113278
3.50838e-05
0.000142154
0.00672648
0.000272518
0.000226308
0.00033102
3.89442e-05
0.00673234
0.00672159
0.0067228
0.00290843
0.0067226
0.00672054
0.00416764
0.0024529
0.000374079
0.00672086
0.0067232
0.0149798
0.00274667
0.000498163
0.000266046
0.00594466
0.00271294
4.10413e-05
0.000279403
0.000716545
0.000734614
0.0158642
0.00180422
0.00217778
0.000946155
0.00672671
0.00672423
0.00221051
0.00118593
5.07799e-05
0.00780123
0.000233075
0.00582815
0.00101627
0.00672029
0.00151791
0.000179947
0.0042414
0.0108472
0.0067212
4.64291e-05
0.00018929
0.0102116
0.000213408
0.00672249
0.00147395
0.00103751
0.000896299
8.17135e-05
0.0158669
0.00767835
0.000441411
0.0067228
0.0140014
0.00673008
0.00672542
0.0168267
0.0119296
0.00058441
0.00254789
0.0120469
0.000476281
0.00674565
0.00296931
0.00672276
0.00354708
0.00967303
0.00747407
0.00672194
0.00672232
0.00321063
0.00294168
0.00912822
8.99627e-05
0.006722
0.000210684
0.0098628
9.21735e-05
0.00176648
0.0067217
0.000732599
0.000793798
0.0067222
0.00676257
0.000551641
0.000603185
0.000406324
0.0135248
0.000330174
0.00593872
8.10704e-05
0.00421265
0.000592192
0.000379544
3.30935e-05
0.00672259
0.00672777
0.0116948
0.0117018
0.00032422
0.014705
0.0093797
0.00184162
0.00545937
0.00444765
0.00423158
0.00672101
0.000588663
0.00159481
0.00624103
3.50563e-05
0.000879522
0.0148364
0.000372779
0.0120946
0.012238
0.00201186
0.00047688
0.000191124
0.00672501
0.0067691
0.000409547
0.00249183
0.00102217
0.00420153
0.0067372
0.00154983
9.41445e-05
0.00387121
0.0118265
0.00052949
0.000541292
0.000409733
0.00673188
0.00149544
0.000406278
0.00394671
0.0010801
0.000166257
0.00137696
0.000525828
0.000308325
0.00550522
8.9431e-05
0.000318919
0.00924739
0.000252642
0.00674004
0.00791832
0.00350873
0.0084354
0.00639342
0.000206016
7.64092e-05
0.000399607
0.000933468
0.00414691
0.00361869
0.000469876
0.00842556
0.00362267
3.36917e-05
0.00672207
0.000244787
0.000430667
0.00126203
0.00135391
0.0150933
0.00213089
0.00319878
0.00437598
0.0067247
0.000472582
0.00672225
0.00940866
0.000300702
0.00623667
0.000682098
0.000425366
0.00672595
0.000935296
0.00673389
0.00520989
7.84673e-05
0.00150625
0.00672248
0.0125809
0.00648271
0.00192688
0.0029358
0.00672213
0.0067223
0.000459958
0.00896521
0.0015637
0.000233248
0.000788652
0.000993002
0.000581374
0.00392581
0.0079322
0.000552347
0.000995606
3.58795e-05
0.000267651
0.00646187
0.01324
2.95798e-05
0.000406693
0.00290828
0.000257556
0.00428518
0.00672219
0.000416057
0.000281148
0.00672299
0.00568997
0.000366185
0.000192103
0.00672266
0.000993546
0.000545171
0.00188389
0.00673278
0.00673122
0.001083
2.70167e-05
9.72893e-05
0.00136069
0.00172874
0.00672866
0.00404141
0.00911085
0.00486006
0.00234438
0.000458268
3.54488e-05
0.0016312
0.000430566
0.00280333
0.0067223
0.00037849
0.000697766
0.00263813
0.00126465
0.00589355
0.000570044
0.0109639
0.0165929
0.000561381
0.0135725
0.00421823
0.000500848
0.00294559
0.00673204
5.30879e-05
0.00416975
0.0067508
9.17467e-05
0.00673537
0.00672476
0.00224515
0.00235689
0.000525941
2.13555e-05
0.0058361
9.90613e-05
0.000690447
0.00945035
0.000584859
0.00455495
0.00269235
0.0129043
0.00813091
0.000388806
7.09986e-05
0.00745951
0.00030304
0.0164863
0.00369143
0.000303381
0.00727534
0.00301643
2.7584e-05
0.000337666
0.000531787
7.77563e-05
0.00672814
0.00672248
0.00672249
0.000856307
0.0142056
0.00701835
0.00142797
0.0145705
0.00216095
0.00598417
0.000704007
0.00625385
0.00474877
0.00672184
0.0124192
0.000432668
0.00468886
0.00149614
9.95294e-05
0.0146602
0.000471469
0.00336521
2.36437e-05
0.000334152
0.000334543
0.0144311
0.000370403
0.00305498
0.0174403
0.0153768
0.00207779
0.000207157
0.00229469
0.000301121
0.00672585
0.0067195
0.00672276
0.000752436
0.000394534
4.08335e-05
0.000139328
0.00240792
0.000733024
0.0160839
0.00586319
0.00672033
0.0013815
0.00672848
0.000522236
0.00678753
0.00672325
0.0135403
0.0011571
0.00672128
0.00672262
0.000296584
0.00720528
0.00363385
4.44617e-05
0.00336339
0.00136035
0.0067308
0.0101814
0.00332368
0.00671862
0.00570286
0.00938801
0.00500323
0.000420875
0.000335968
0.00174594
0.0071029
0.00203392
0.0167888
0.0117799
0.0006169
0.000301279
0.00672824
0.0103427
0.00143333
0.00256868
0.00676576
0.00672335
0.0019968
0.00675405
0.00672807
0.00672584
0.000181555
0.00672878
0.00601934
0.000273712
0.00910518
0.000268486
0.00847117
0.00676962
0.0127778
0.00347832
0.00317852
0.00468431
0.0126074
0.00116603
0.000582523
0.000368568
0.00071187
0.00119036
0.000843267
0.00674391
0.000157818
0.000674328
0.00620266
0.0156986
7.47813e-05
0.00171173
0.00672615
0.000405429
0.000652524
0.00580081
0.000146098
0.00672475
0.00672034
0.0111957
0.00374386
0.00549617
0.00148862
0.00672141
0.00672635
0.0144733
0.00672159
0.0072569
0.00705854
0.0102257
0.00672921
0.000894986
0.00672318
0.00339171
0.00672429
0.00989597
0.00672745
0.0106485
3.83296e-05
0.00783939
0.00676718
8.77533e-05
0.000245412
0.00196286
0.0132863
0.000466102
0.012217
0.00662538
0.00966058
0.0120229
0.00672266
0.0110767
0.00145277
0.00672025
0.00522623
0.0082267
0.0156016
0.000315683
0.00466509
0.000334046
0.000434039
3.35203e-05
0.00672746
0.00252489
0.000301382
9.54609e-05
0.00958935
3.3426e-05
0.00863339
0.00672605
0.000883024
0.000340829
0.00180128
0.00988241
0.00857551
0.000221519
0.00798142
0.000440904
0.000247252
0.000616787
0.00672326
0.00104031
0.00698591
0.000293002
0.00130364
0.00264646
0.000743828
0.000227609
0.0116943
0.000459765
0.00673217
0.000552077
0.00672613
0.000126197
0.00672034
0.000196149
0.000121097
0.00123569
1.96497e-05
0.000435057
0.00266071
0.000791558
0.000366533
0.00297179
0.00632227
0.0171
0.00420685
0.000263616
0.00551541
0.000151087
0.00672553
0.00389407
0.00674945
0.00350263
0.00022482
0.0067236
0.00672609
0.00316543
0.00672354
0.00672247
0.00261686
0.00151476
0.00145341
0.00669226
0.000677184
0.00672075
0.00284194
0.00672517
0.0144763
0.0167664
0.00031748
0.00672222
0.0015123
0.00107776
0.00036054
0.000180631
0.00672265
0.00672362
0.00673455
0.0150307
0.00697093
0.000177187
0.0075751
0.00765299
0.000424561
0.00567586
0.00850114
0.00673828
0.00416881
0.0141495
0.000308579
0.00672045
0.00605332
0.00428745
0.0025866
0.000239234
0.000532863
0.000450379
0.00220013
0.010845
0.000676501
0.0082897
0.000259347
0.00672417
0.00047168
0.000322952
0.000368873
0.00430177
0.00011784
0.000676222
0.00463394
3.33981e-05
0.00672261
0.00672187
0.000357765
0.00672971
0.000695555
5.33935e-05
0.000274227
0.0171537
0.00954496
0.00672618
0.0115948
0.00682787
0.00718779
0.000865806
0.000110068
0.000644625
0.00672518
0.00672272
0.000393123
1.85119e-05
0.00672306
0.000306631
0.00200061
0.0103316
0.00819653
0.000426009
0.00862962
0.00488443
0.0157352
0.00462283
0.000109027
0.000748933
0.000727933
0.00672253
0.00672962
0.0116052
0.0164857
0.0067221
0.00673321
0.00674883
0.00672148
3.8752e-05
0.00225072
0.0022223
8.97092e-05
0.000436448
0.000284655
0.00773176
0.00804901
1.9947e-05
0.000564502
0.00136005
0.00672581
0.0067304
0.00675739
8.64914e-05
0.00499103
0.000624756
0.00147153
0.000677733
0.0067222
0.0067237
0.00117141
0.00674721
0.00672713
0.00049238
0.000797066
0.000220654
0.0110363
0.00674466
3.34108e-05
0.000384399
0.00675204
0.000259121
0.017004
0.00672379
0.0022606
0.0116288
0.00673164
0.000364983
0.000372613
0.00024209
0.00672276
0.000390761
0.00678732
0.0164275
0.000384599
0.013494
0.0037759
0.000364954
0.000906098
0.00673382
0.00937731
0.000353914
0.011828
0.010763
0.0116451
0.00759072
0.0129484
0.00196462
5.36151e-05
0.00414145
0.0159438
0.000858008
0.00021509
0.00750695
0.00672149
0.0118482
0.0049181
0.000150568
0.00356596
4.9421e-05
0.000344128
0.0104255
0.00672074
0.00281463
0.000814312
0.00674762
0.013066
0.0121081
0.00061002
0.0067262
0.00136075
4.42865e-05
0.00144137
0.000700597
0.0161527
0.00222648
0.00672268
0.00672243
0.00165286
0.00738047
6.57088e-05
0.000768944
0.000797381
0.0134688
4.37361e-05
0.00651794
0.0100159
0.00246618
0.000160244
0.00356727
0.0036084
0.00029471
0.000897004
0.00607406
0.00772667
0.00163134
0.0107065
0.00883597
0.00979158
0.0067408
0.000104914
0.000632472
0.000328785
0.000145856
0.000613514
0.00500474
0.00672699
0.000136747
0.000326824
0.00621319
0.00132803
2.81024e-05
0.0174239
0.00766227
0.0139087
0.00228783
0.00290264
1.94868e-05
0.00169642
0.00818502
0.00673234
0.0119888
0.0168532
0.000726596
0.00124785
0.000814372