/*--------------------------------*- C++ -*----------------------------------*\
| =========                 |                                                 |
| \\      /  F ield         | OpenFOAM: The Open Source CFD Toolbox           |
|  \\    /   O peration     | Version:  v2012                                 |
|   \\  /    A nd           | Website:  www.openfoam.com                      |
|    \\/     M anipulation  |                                                 |
\*---------------------------------------------------------------------------*/
FoamFile
{
    version     2.0;
    format      ascii;
    class       volScalarField;
    location    "200";
    object      omega_0;
}
// * * * * * * * * * * * * * * * * * * * * * * * * * * * * * * * * * * * * * //

dimensions      [0 0 -1 0 0 0 0];


internalField   nonuniform List<scalar> 
18166
(
0.0345014
0.021922
0.0222719
0.0956057
3.67002
0.0413383
0.0217933
28.965
3.51497
2.63473
0.0220415
0.0219804
3.64863
0.303362
5.57105
0.312052
0.0221225
3.92861
0.0219778
7.56357
0.137653
0.0221233
0.133154
0.0220723
0.0218941
0.0217989
0.031425
0.0288898
0.0220214
0.102543
12.6827
0.0215132
0.0219443
0.0219569
0.0214642
0.0220409
3.51054
0.0220466
0.0217034
2.64911
0.02226
12.5601
0.0219524
0.0220341
0.0349005
0.0221366
0.0908144
22.2127
0.192228
0.0303951
0.0448966
0.0444227
0.155555
0.0222355
0.0220476
6.22329
11.9667
11.2783
0.0232515
0.0254883
0.059954
0.0262194
5.90974
0.032223
0.311693
0.0220825
4.06615
4.86444
16.9305
0.0304014
0.0214678
0.0223923
0.0345221
0.0241498
7.91924
0.913265
0.150897
13.7372
0.0252064
0.022073
0.0222556
3.74497
0.0220786
0.0220436
0.0216037
0.0229109
0.0255747
0.0219348
0.0443064
0.0216949
8.2012
0.0381565
4.82346
0.0222768
0.022253
0.0230231
0.0215832
0.0581865
0.0245727
0.0282802
0.0219706
0.0221401
5.66345
0.0315419
0.0303747
0.0221487
14.172
3.07045
0.0242732
0.0220727
5.96466
3.5584
3.95875
4.89445
0.0221504
0.021673
0.0624817
6.07618
0.0222027
4.40462
4.42588
0.0220369
0.510371
7.57529
0.129816
0.021985
0.0221555
3.52757
0.0287857
0.03955
0.143806
28.8997
0.024717
2.97166
0.0271493
0.0876243
0.0220512
0.021878
0.0248353
2.93682
3.45988
0.354455
1.02681
2.68629
0.0241758
9.72634
27.8383
5.76696
0.0218975
0.0263678
0.0215803
3.8651
10.3108
0.13039
0.0222511
0.0220785
0.0224628
10.0366
0.0220579
3.53501
0.0216555
4.47108
0.0253117
0.021803
0.0452476
0.564912
0.0221522
2.55183
3.80656
6.33528
0.207486
4.86323
0.0385954
4.82325
5.39202
0.0219695
0.369042
4.93294
0.0219038
0.0219403
0.0221513
0.0370638
0.171091
0.33604
6.94046
0.0218645
0.0499998
0.0912975
0.0220383
0.0216583
0.065446
0.0219753
0.0426336
0.0220481
0.03452
5.99805
0.0391195
0.0335455
5.46237
2.8521
0.200689
4.02904
0.0217901
5.83407
0.0220509
0.0458357
3.86313
9.41676
3.64905
24.4431
3.84086
3.45052
0.0219138
0.0221055
0.0459444
0.0366797
0.474603
0.0595846
3.90222
3.66358
0.0249257
0.0219532
0.0218695
0.0482234
7.28268
0.0217747
0.0557035
0.0218481
0.0231946
0.0217826
8.64619
3.95103
0.023304
1.84439
0.0220112
0.0227897
0.0450227
0.0540632
3.98211
9.80488
0.0432019
3.66019
7.7627
0.0251921
5.22186
0.0221289
0.0954642
3.65867
3.31279
0.0229273
0.0356866
0.0221516
0.0220511
0.0281768
4.06499
9.08431
0.0221092
3.76834
5.018
0.021806
0.0220932
1.88682
0.0590202
0.187923
10.7849
4.24396
4.56383
0.0240338
0.0222638
0.0289842
0.0305841
0.0221077
0.0219099
5.15616
0.0452426
6.67188
4.86586
0.0218374
0.756727
0.0215497
0.0822908
3.90192
0.0239253
0.0221605
0.0244983
0.0820429
0.0263939
0.0224922
3.52659
0.0221623
0.0287743
0.0811526
0.0247643
0.0221067
0.023896
4.5896
0.021781
0.0221191
0.0217735
5.2318
4.75939
0.0220745
0.0222289
0.0219044
7.91685
0.0219699
6.79347
0.142989
0.0220511
0.0216549
0.0244652
0.746087
6.01298
0.0270785
0.0221618
4.45081
0.0774664
0.0248852
0.0220955
0.374397
0.0219363
0.0243906
4.00805
0.0583334
0.0358465
0.0294191
0.0224922
0.021963
0.0216253
4.33916
0.0218745
2.78163
0.0221836
0.021798
15.4448
3.64287
0.232502
3.81656
6.18824
4.62527
0.021924
4.18792
0.390742
1.81417
0.0227038
0.022059
0.0217943
0.0276389
0.0224843
0.0513982
0.0234219
0.0778908
0.0221202
0.0218836
0.0668414
0.0256822
0.0684463
0.04219
0.0220552
0.0216261
0.0219502
4.15261
3.65414
0.0221139
0.0217971
0.0220175
0.0222699
0.101993
0.022272
8.27664
6.09927
0.0219174
0.0219386
2.44294
3.59697
17.4837
1.85407
0.0222467
0.0429466
0.237886
0.0218029
2.52365
1.77632
0.0264164
0.0238841
0.0219863
0.0220848
0.0222755
3.94549
0.0219849
0.0214814
0.0261709
0.0216908
4.09774
0.251663
0.0222411
0.0221319
6.47409
0.0218192
0.0218308
0.0221673
0.26778
3.76398
0.0222712
6.8351
0.0227273
0.0217843
7.05737
5.47336
0.0223943
8.18403
7.7326
0.038836
6.05723
0.0244519
0.0277111
0.0796385
0.234487
0.0214047
0.0220987
0.0225001
0.021987
1.01461
0.023996
0.839991
0.0222689
0.425332
0.0219539
3.47221
29.9846
0.0258015
0.525443
0.0365668
0.0225085
0.0425107
4.14247
5.58321
0.0222002
7.31406
0.0355712
0.0216694
7.89616
3.76908
0.0219522
4.37414
4.4652
0.0220882
25.6843
0.111869
0.0217746
0.0464703
5.19558
3.76413
0.0462685
3.07865
3.51365
0.340375
0.077511
0.0216842
3.72118
0.0219788
0.0220186
0.605168
6.118
0.022795
0.0223501
0.0351272
0.0242538
0.0221043
0.0217902
0.0216095
0.0542744
3.44121
0.021956
0.0802572
0.0222788
5.0989
0.0221036
0.0220186
0.430297
6.00834
0.0527167
4.16658
0.021987
0.0219988
3.6532
19.0354
0.0550685
0.0223513
0.231146
0.198732
0.0221956
0.0221564
0.022238
0.0229711
4.4422
3.67615
0.0220206
0.0226102
0.103289
3.6295
16.424
0.0214789
0.0229265
4.69866
0.0220231
0.0221521
0.0220827
0.0217034
0.0603123
0.416493
2.42587
0.303056
0.0220642
0.185628
0.0218936
0.0222763
5.33755
2.6811
0.0482101
5.09301
3.97637
6.13506
3.61849
0.164229
3.87843
7.72752
0.0943153
6.58975
0.0219774
0.0712368
0.0228524
0.0230499
0.0928184
1.9007
0.0230524
0.556535
6.14202
0.0427793
0.0222542
0.0219958
2.46002
3.79995
4.26693
0.021526
0.499168
3.75997
0.0224418
0.022741
0.0220148
0.0251467
28.2396
4.9282
0.0222335
3.97295
0.0221191
3.43001
0.0255561
0.0220974
0.0273212
3.98953
0.0216664
0.0220483
3.50992
3.79283
0.0933415
5.69464
0.0223182
0.0220845
0.0221876
1.93347
0.0957993
3.65701
0.0302872
3.03002
3.96346
0.0454827
15.5634
0.0228718
5.33158
0.0216883
0.186346
4.3316
0.0920573
0.0247061
4.52261
5.27232
0.0220484
19.7251
0.0219723
0.0222458
24.8375
3.61512
0.0222367
0.0220936
0.0216033
3.56877
4.08635
0.0220417
0.234861
0.0243661
0.0220961
0.0219932
0.0747383
0.189214
0.0255788
17.7355
0.0221111
0.0218798
4.84299
20.6069
0.370845
10.2007
2.1474
0.0222175
3.7946
16.6972
0.0240297
5.36812
0.0674867
0.0251315
0.0415722
4.1664
0.0263943
0.0745083
0.022883
0.0318915
3.62291
0.0220511
5.08628
0.062653
0.0516184
0.0388821
0.0216778
0.0224906
6.68533
0.0220585
0.0221244
0.10112
0.0216791
0.059432
0.0221398
0.140704
0.0221835
0.0306543
0.0216334
31.1266
10.1475
4.06355
0.022938
8.46142
3.6303
0.160592
0.0217849
4.05399
0.0222927
23.9614
0.0220533
0.0912987
7.87396
2.99786
19.7664
1.42548
3.90833
0.0214499
11.508
0.0219295
0.027659
0.0240243
0.0219826
0.0220605
4.72271
0.072855
0.0225895
4.15813
12.3346
0.0526414
0.0214571
0.0258593
0.0222637
0.0218153
0.0217002
0.0219719
0.496924
0.0269995
6.6265
3.97977
6.82586
4.64423
0.229597
0.0260104
0.0221657
7.87163
0.0218763
4.8654
4.29261
0.021671
0.0338598
4.1529
4.30585
5.09396
0.0312602
0.0256587
0.0217956
3.67167
8.35227
6.52673
0.0666767
1.27084
21.3159
0.0646946
3.32679
22.6503
0.225518
0.0219897
7.16815
0.0862475
0.068794
3.92185
0.0218158
0.130133
0.090714
0.021812
0.298093
5.5992
3.44364
5.21746
0.0312704
0.0290251
0.0220686
0.194889
1.53314
0.0266476
4.24684
0.0219225
4.07218
3.65738
0.0260477
0.0240819
0.0222698
0.0356706
0.0222576
15.1667
0.115305
3.3678
0.0217853
0.0218057
0.0217988
24.4835
3.62455
0.0332724
15.3905
0.0756143
7.52249
0.022059
0.0221495
0.430636
0.022913
0.315052
8.8978
0.0718739
0.536608
0.0222375
4.7062
5.12375
0.236734
0.0232482
0.0217456
0.0227941
0.0221576
0.244634
0.0243781
0.0217154
0.308264
0.0231114
1.94852
0.180412
0.0371553
0.0219244
4.13058
0.021684
0.0262266
3.37361
0.097008
0.0219998
0.211301
4.20193
0.0217787
0.022092
0.0219759
0.0537913
3.1842
0.0220459
8.9211
0.0222626
3.82266
10.9757
3.81997
3.68042
0.0563481
0.0292842
0.707731
0.0219413
5.91967
0.0217786
0.0218241
0.0215461
0.0219761
3.40151
0.0218544
0.0220657
0.0221606
0.021711
0.826291
0.0229991
4.26406
0.0219905
0.022167
0.0220403
5.11072
16.2593
40.6319
0.857751
0.02183
3.94316
3.62002
0.0230135
0.0219929
6.56164
4.44786
0.0249523
0.136842
5.21712
0.0550186
0.0217952
0.0616065
0.0320023
0.0613722
4.369
8.88334
0.0216094
6.86284
0.0218041
0.76319
0.0661772
0.0510194
0.0219841
10.8222
6.73803
5.80932
0.0221818
0.0732705
0.0216741
8.75706
0.0220586
0.0401359
0.0225491
0.0218841
0.0779211
0.023822
0.0220844
1.2824
0.0221006
4.0804
0.0286903
0.517023
0.021946
0.238413
0.0730963
0.0220273
3.84679
0.47118
5.2008
0.0221703
0.0249969
0.149317
5.26302
0.0219889
0.0224479
0.0237553
5.08855
0.0215827
0.0857743
0.254136
0.0229461
0.021508
0.0221592
0.0219137
0.0478087
0.0216782
0.526879
0.0339284
0.0216057
0.023535
6.46919
0.0219272
0.0244582
0.0218274
0.0220637
0.060979
0.229169
4.73724
0.166699
0.0229613
0.0222771
4.33075
2.55699
6.83438
10.8491
0.104561
0.403303
0.0219971
0.033008
5.22843
8.03069
3.73305
0.02211
0.0723196
0.053127
11.137
4.04672
0.022033
0.0827959
0.0253113
3.55716
5.30395
4.51454
0.0217939
2.36174
0.0222705
0.02179
4.52521
0.0222939
0.0225822
9.37403
2.12369
0.0219092
6.01783
0.107976
0.0216494
0.499144
0.0215113
10.1699
3.47259
0.10431
5.861
0.604621
3.37628
0.0215311
0.0225378
0.0219366
0.0215677
0.0215568
0.0242041
3.57623
4.29262
0.0218628
6.26984
0.0347662
0.0378242
0.0219946
0.0230597
4.40758
3.51649
4.54678
4.80558
0.0220896
0.0445893
4.32318
0.0247754
0.255433
0.217217
3.57709
4.03814
0.0218607
0.0219308
0.0240318
0.0220695
0.0516906
1.34875
0.0224269
2.37407
0.0221171
0.0222817
0.0218344
4.92355
0.5733
0.0219944
0.0221976
6.4968
0.0219572
6.85946
3.60919
0.0219419
0.391631
0.0219657
6.72188
3.86859
3.59367
0.323237
0.0221088
0.080198
0.867344
0.0232286
21.8132
3.78859
3.28682
0.0225211
0.0484895
0.0234165
0.0224826
5.51868
2.29948
0.102082
0.115639
0.0215588
0.208845
0.0432723
0.0221642
0.0752404
4.16102
6.85935
2.20779
0.0354982
0.471235
7.54164
0.0215733
0.0228601
0.0222676
0.09608
0.0405239
0.023728
0.0329211
0.0497109
0.0261255
0.132491
0.0220624
0.0814296
4.00505
3.60497
4.12241
18.0338
0.0218051
0.0224359
12.8766
0.0800977
0.0217838
0.0218716
3.87573
0.0319766
0.132392
0.0221441
0.0229328
7.82968
7.60506
23.5126
0.0220351
3.97919
0.0232364
0.317283
4.32884
0.0222097
0.0618859
0.0499196
2.23474
6.5849
0.0239577
3.71015
5.02924
0.671693
0.043223
3.70718
0.0312392
14.5123
0.0222708
0.0222586
0.0219948
0.0219875
0.023432
0.0457157
0.0219653
0.269575
0.0219277
0.0228383
5.22017
0.0220527
0.0985907
9.4689
3.3501
9.00238
0.0220042
0.0220502
0.0218386
0.0222783
4.2184
0.332314
0.140783
6.36879
3.4304
0.0221527
0.0354759
0.0235164
0.0222707
0.0309135
0.0221313
0.0316481
0.0215117
0.0221035
0.0227441
0.022111
0.140996
0.142256
0.0253221
3.4544
0.0219943
0.0221196
5.75462
0.0322099
4.25414
0.314014
0.0974759
0.302974
15.5624
2.50015
0.0219755
6.13829
0.024968
3.53455
0.0353126
3.91359
4.08816
2.02641
0.035986
4.40751
0.0220077
0.022203
0.0218734
4.11868
0.0454954
3.7064
4.0113
2.95412
0.0217669
4.18733
4.74374
0.0219009
0.022683
0.0428507
0.0229613
5.07211
0.0311763
0.026347
2.94839
0.0220803
7.83678
0.0231756
0.0223791
3.96686
0.0234876
3.01895
0.0223801
4.27453
0.0220795
2.02402
0.0222583
0.0220407
2.64687
0.226627
0.0216906
0.0217895
2.62606
0.0215161
0.0219023
5.45776
0.0224866
4.39301
0.351839
0.0222145
6.89279
4.01955
0.11433
0.10046
0.0223012
3.86147
0.0220651
0.130626
0.0216491
0.0471808
0.0226134
0.021942
0.219356
0.0221414
3.64132
2.61162
4.68369
0.0233296
0.021922
0.0222211
0.0215954
0.089882
0.0218027
36.1217
19.6036
3.00716
4.33808
0.542326
5.26426
0.300751
0.0216191
0.0466739
0.0251945
0.119905
0.0659304
0.0228062
1.77627
0.0220876
0.401179
0.0264318
17.5772
4.46961
0.0215989
4.66206
5.71012
0.0591842
0.0419979
0.0473002
10.4508
0.306719
4.78613
0.0221271
2.25946
0.0666943
4.55431
9.20547
1.73194
0.106481
13.1126
0.182365
3.8764
0.021792
4.58549
0.0215919
0.0226164
0.0225274
0.0220459
0.0219701
0.0215344
0.0218539
0.0221205
5.77601
3.54208
0.276607
1.71078
0.0216207
0.0224328
0.0244782
1.93074
0.540963
0.0218856
9.43747
0.0219773
0.0219318
0.0636733
6.46296
0.0268806
4.26778
0.0236045
8.63614
0.0217673
0.197844
0.0260191
0.770013
0.0221341
0.0221183
0.0490527
2.58217
0.0219857
0.021896
0.0304557
4.63822
0.0422072
0.0223074
0.0709393
7.77709
0.0413832
0.118264
0.0281666
0.0495529
6.68235
0.0217503
9.1945
0.0217801
9.00128
0.0222522
1.39564
0.0222241
4.71748
0.0220086
0.0217934
0.0274367
0.022118
0.0428378
0.0219119
0.0222783
1.61236
0.0220039
0.0221924
3.41342
0.0263591
8.8023
0.068443
3.63838
15.6945
3.74441
0.0219353
0.702422
10.6344
0.0217572
2.51829
0.0276273
0.0219879
0.19491
0.0218759
19.6392
0.0216916
0.107051
4.16571
0.238008
0.0229607
3.63756
0.0220577
0.195456
0.0451468
0.0222104
7.13942
4.42309
1.13862
4.14648
3.55435
0.0418097
13.9684
0.587262
0.370256
0.0216069
8.0015
0.0274621
1.91107
8.64376
0.140255
0.084246
0.0440747
0.0215973
3.53157
0.0218255
2.78227
4.58046
3.8343
0.021797
0.0357566
6.25669
0.0219132
0.140212
7.12247
0.0223981
4.86564
0.0221261
0.464895
0.022018
7.87528
0.455485
5.36498
3.96794
35.5524
3.52495
0.408983
0.0219846
7.37394
0.960124
0.0219953
0.0228055
0.0216334
0.191917
4.8195
3.78308
0.0721751
20.2528
0.0436804
0.0221914
0.0264688
0.0247573
9.47264
15.9477
5.22727
1.91343
0.036001
0.0237489
3.92121
0.0217498
0.0241755
0.0228767
4.02108
0.0221666
0.0220991
2.03128
10.2226
6.40699
0.0241723
3.92801
0.0219121
0.0220244
3.45889
0.981675
0.0221717
9.25314
5.30359
0.218937
0.0218886
1.98993
0.0222877
5.27782
0.0352555
6.26397
4.03343
0.0928847
4.28033
4.79879
0.0237156
8.75634
0.0265268
3.79993
0.0216487
3.97101
4.58642
7.23738
0.0693826
8.40618
4.45546
5.15641
0.0304734
0.0222559
0.320281
8.41571
0.0287241
0.0352303
0.171244
0.0220264
8.77593
0.0219273
0.0427704
4.2801
0.0674387
0.0221805
4.19736
0.0221375
0.0225261
14.1351
0.0215792
0.117406
0.0488472
0.0217507
6.38234
0.357881
0.0216862
4.47685
0.0217031
2.23463
6.04972
0.0220787
0.021969
0.022236
5.33293
1.89489
0.0973591
5.26447
4.00309
6.12031
6.83314
2.78405
0.021727
0.0648909
0.31255
1.9126
0.02201
20.6813
0.0250932
0.128521
3.84329
0.0221632
0.0220988
0.0258146
0.0220975
0.0220738
10.1929
3.89981
0.057687
6.64764
0.0228517
3.95075
5.95921
1.80905
0.139169
6.64428
0.0220211
0.0219829
3.86112
5.75217
0.157412
0.0218923
0.0255606
0.0219748
4.19984
4.26769
0.0221263
0.0771476
0.202395
0.0220225
11.2777
8.37663
0.0332388
0.0408586
0.021929
0.0219911
1.99519
0.0219939
0.0225631
0.0258594
0.0219682
0.0225847
0.021688
0.0400477
5.24248
23.5792
5.7676
0.0221013
0.0221371
0.0219022
3.60934
0.0221096
8.42964
0.0219641
0.067857
4.8638
0.0221273
0.0218055
0.0220865
0.0217616
0.0222326
0.57086
3.66593
0.0491531
7.78072
0.0789601
0.0682119
0.0220038
0.0260669
0.0233789
6.03
0.0236336
3.9896
0.0338509
5.63474
0.0401097
0.0347805
4.56695
4.56872
0.0238694
0.0451521
0.0744572
0.0215933
0.022001
0.0222352
0.0219687
3.50317
0.021821
2.11592
0.0218242
4.3822
0.40246
0.0221568
1.27915
9.43711
0.0272791
0.0216563
4.50987
0.427394
0.0215635
0.0220811
0.663164
0.0238759
0.0220019
0.0220342
0.0219201
0.208282
0.0351064
4.72029
0.0219303
0.05634
0.0219889
0.376199
4.2389
0.0277589
2.32751
0.0344064
0.0226112
0.0358409
0.229532
0.0220676
0.0219485
13.8269
0.0390858
0.0217095
0.433152
5.77943
0.0217333
10.9755
0.0219318
7.53816
0.107905
0.0256247
1.9339
0.0692364
0.0904528
0.0831882
3.89264
0.0223514
0.0220957
20.0229
12.1657
0.0220919
1.10578
0.0226759
11.7893
0.0219205
0.0215958
0.0219134
4.2942
0.0221783
0.0531912
4.39112
0.050005
0.0481483
0.243051
0.0227633
0.0327135
1.939
7.44295
0.0216912
0.021983
0.0219078
1.09153
0.022474
3.56341
0.217308
4.16559
0.0222638
0.265483
6.51852
0.131296
12.5201
0.0224695
0.0236516
0.0413249
4.44075
0.0226068
0.0221029
0.0222698
3.10967
2.74193
2.63374
5.60374
4.04274
0.0246026
5.61485
0.0217668
0.0224586
0.0220118
0.0357757
0.0226881
8.67265
4.7886
0.0220841
8.27614
3.43236
0.223239
5.0166
0.0218298
9.35058
4.60816
0.0261414
0.0216004
0.0219239
3.87931
0.0480731
0.0222895
0.0726675
4.47373
2.16864
5.09804
3.56056
0.0226602
0.0223596
4.92809
0.0219187
0.0215408
6.35069
0.0240507
0.0233217
0.157701
0.0414585
0.0220026
0.144077
2.97544
14.3027
0.0338331
3.7486
1.08833
3.82432
4.00017
0.0221363
0.0219144
6.21519
4.31021
0.0687596
5.07705
0.622845
0.023724
0.0219836
9.46343
0.362361
0.117578
0.0217795
1.83015
0.329177
0.0220187
0.216845
0.732018
0.0219529
0.0220749
0.0217007
4.5816
0.223742
0.048881
0.0246172
0.0280742
0.0219422
0.0221739
3.60488
3.58382
0.0222573
3.53841
0.0220164
5.49584
0.167039
5.85115
0.085997
0.0216964
18.7542
0.0219194
1.76823
4.65233
4.64526
8.01134
0.0220685
0.022183
0.0218822
0.0219503
0.155415
0.0216931
0.024035
0.0226969
0.384033
0.0219763
0.0219926
4.60788
0.0221295
0.0672293
0.0217635
0.0221065
3.3219
0.0220065
0.0270233
0.0221282
1.15493
13.0425
0.0219056
0.0219133
0.025312
1.84227
0.0239953
3.61694
4.23521
3.99678
0.0225597
3.04722
0.0217232
0.287899
0.021755
5.25327
0.102105
0.174028
0.042952
0.0217584
0.0219101
0.0218179
1.795
0.388595
4.87322
1.90974
0.0219838
2.76084
0.0216039
0.0280286
0.0222322
9.28564
0.021555
0.023773
0.627472
0.0222716
4.77539
0.0222675
0.0260788
0.0218976
0.0216258
0.0219609
0.0222379
3.5689
0.0373173
4.00403
0.0220172
0.0229113
5.08205
0.360328
0.0255461
4.74964
0.0435567
0.0215261
0.021998
0.0466184
0.0222732
4.57324
0.574943
3.5266
0.0220058
0.274914
0.0221356
0.0220018
5.06393
0.0215132
0.0220689
9.02199
0.022232
0.0239341
0.0222847
0.126093
9.66318
2.23542
5.63849
0.0462944
0.0220757
0.0228712
6.78288
0.0222129
0.0219244
0.0218693
0.0268856
18.1465
0.0221672
0.022108
0.0472546
0.0220268
0.336718
2.83306
0.024514
4.10467
1.60438
0.0872682
0.0219588
0.124885
0.0428123
0.590675
0.385065
0.0216241
0.0220912
0.0221462
0.022367
0.0221039
0.021785
0.0220722
4.55595
0.0420263
0.021754
0.0221544
3.71869
4.94056
0.0279851
0.1199
0.0219714
0.0225007
0.281691
0.223475
0.0477884
3.36148
4.44422
0.0228772
0.0224853
4.20684
0.0220055
0.0219988
0.0222552
0.0241161
0.229892
3.8562
0.0484776
3.02323
6.62307
0.0219876
0.0285482
0.0371532
9.62449
4.07564
0.0220816
0.576157
0.439719
4.12094
0.107641
0.0218262
0.0223472
8.51676
0.0234836
0.0766849
3.87007
5.98838
0.21189
0.0220652
4.18451
0.0219938
0.0222572
4.16976
4.40773
0.234175
3.687
2.7936
0.0718506
0.0215462
0.0220991
0.0219351
0.0219756
4.36833
3.7468
0.021969
0.0215217
0.0221516
0.0230332
4.3723
0.0460072
0.0217043
0.268791
5.15759
0.0911093
7.10302
0.0215397
0.0248012
0.0241459
0.0216793
0.0216764
0.0338733
0.0430335
0.162785
4.38908
0.101323
6.99598
0.222535
11.927
0.0840791
0.0668504
1.76099
0.0219099
0.0219231
1.84539
4.96949
0.311914
3.59649
3.71773
4.1573
5.48791
3.586
0.0219021
0.0220157
0.273914
0.0231045
0.0219104
0.59741
0.0391174
2.4702
0.267869
5.23366
1.80781
0.0223984
0.188532
0.0366166
0.0219137
0.0218754
0.082051
11.4833
9.02286
4.5468
0.0217583
0.022418
0.0538501
0.0220049
6.22701
0.295543
1.99511
0.185694
0.0219486
0.0237325
0.0407071
3.79463
0.0228702
9.97488
0.022634
0.0309542
0.196098
8.09832
0.0898868
0.0632045
3.44281
0.0785266
0.0216408
2.2788
0.0220058
3.73691
0.0217816
0.0457646
0.0636581
0.0993919
0.0366148
0.0219157
15.7
0.0413099
3.42844
7.9016
6.99029
0.0221137
0.0569819
1.21316
0.0232823
0.0228005
3.62394
5.31458
0.0220741
0.021975
0.0222121
24.1308
0.0221212
4.25583
0.399883
4.53081
0.0429486
0.178581
0.0222773
0.0367474
0.0216864
10.3221
0.060012
0.0223052
0.0220871
2.51792
8.60417
0.0220751
6.1148
0.0221225
0.0221305
0.0375507
7.61744
0.0252498
0.0446394
0.0242131
0.0249887
0.385364
7.29271
3.40283
0.05609
0.022904
0.402188
1.13422
4.69255
5.17158
0.205679
0.0519499
0.0220814
0.0967604
2.69788
0.0220916
0.451689
0.108862
0.0221436
0.0218084
0.181575
0.0447194
0.0220634
0.025141
0.0246906
6.08074
0.0218357
0.0215431
0.0287037
1.17551
0.711489
0.0232543
3.94979
0.0220047
0.0219309
6.00487
6.2885
5.62371
0.0878421
0.816923
7.49774
0.0383652
0.0221087
0.0220949
0.0790822
0.0365602
0.0221987
0.0261344
0.0217989
0.0254486
5.84894
4.06099
0.484973
3.8954
0.0220983
0.0505528
4.36132
0.021772
2.54549
0.0219282
0.0215575
0.0607817
0.0216858
0.0222302
0.0238573
0.0221207
0.0364636
1.2766
0.021771
0.237229
4.1968
4.66095
35.0546
0.0219854
0.0220868
3.47426
3.66216
0.0944357
0.124139
7.00954
0.139746
4.48777
0.0219541
0.0321485
5.78576
0.0219984
0.190421
0.120811
0.0817924
0.0627704
0.0219206
0.0216821
0.0220898
0.0249852
1.76931
4.38337
0.0228844
3.99445
3.71998
0.0218171
0.0269671
6.40529
11.9244
0.0221036
4.82726
0.0493364
8.63669
0.0235564
1.84005
1.79281
0.0320701
7.35343
0.626054
0.127226
0.219462
5.13229
0.195507
0.0219724
4.24614
4.07504
0.0225623
0.0390759
0.0227455
0.406937
0.0222632
0.0219239
0.0221234
0.0297654
0.0295277
6.41381
0.0400478
5.64547
7.66079
3.88343
9.7295
0.021981
0.0280305
0.0220004
0.0365289
0.0216388
0.0221558
3.67895
15.3448
0.0219221
0.0220678
0.222971
3.89421
0.0221081
0.313462
0.0220023
0.0241241
0.0219909
4.19356
0.0225219
0.0218968
0.0217617
6.80977
3.60815
0.0610299
0.0363265
0.0222944
4.67042
0.0242338
4.24947
4.07835
11.0781
0.0708836
0.0219188
5.0071
0.0284092
0.0223703
0.021687
0.0221609
10.2732
0.0216914
0.0220011
0.0222696
0.0503456
0.0219475
4.60969
0.0353515
4.47207
0.0635249
4.3087
3.97571
5.6205
0.0219347
0.0225215
4.27676
5.45517
2.29636
18.753
0.0586044
0.0265024
0.0237137
20.1032
0.0217251
0.333796
32.6149
0.0219831
4.38717
4.79781
8.48038
0.0222785
0.0323843
0.0434483
0.0218657
0.0439109
0.0216995
0.0220039
4.09986
7.60312
3.65411
0.0225006
0.0217275
0.0219959
4.13504
0.0215537
5.15247
4.68425
1.98354
0.0218414
0.0295137
0.0221448
0.0219449
0.021715
4.78949
0.02191
3.76875
0.281928
3.40781
0.0216507
0.0538958
1.01513
0.0242654
4.76132
2.53309
3.85051
0.0219887
3.58021
1.86308
0.0219524
4.0305
5.91823
0.0220013
5.17217
4.70075
4.44088
0.0828637
0.0219866
0.0456148
25.5368
0.489498
0.0220088
9.36248
0.102288
0.0639773
3.43673
0.775645
4.08984
0.0222779
0.0250362
0.159766
26.2665
4.74742
4.033
0.0584663
4.37437
0.255414
0.344118
0.0242558
0.0218416
0.0232711
3.86796
0.555761
22.0763
3.62085
0.0342445
0.0352303
4.10833
0.223753
0.0218412
5.16494
0.0217377
0.0522145
0.0219971
0.0465861
2.555
0.0227328
7.92902
0.0687851
0.0222313
0.0234873
0.0899133
0.0221795
0.0218133
4.10772
0.0218921
0.181656
4.67253
0.0664044
0.0219213
14.9942
0.0217384
6.53932
0.305969
0.022042
0.0222796
0.0220864
0.0221686
0.0220661
0.0223064
0.0226623
0.0222229
4.33763
0.0239825
0.0218567
0.0220571
0.0217118
3.77957
4.29454
0.120352
0.0220759
0.0230763
12.1004
0.112338
0.0378595
0.0220432
0.0221711
0.0216728
4.70805
4.92018
0.0453804
4.44966
4.15777
0.637218
8.36994
4.56595
0.0218593
3.7317
1.78748
0.0456792
0.0219931
3.84238
0.0218994
3.67305
0.0464583
0.058605
0.0294188
10.7493
4.15451
0.0428079
4.21233
0.107941
0.0219965
0.0983105
0.132526
0.121528
0.0221831
0.0661833
0.0246416
3.58713
1.80674
0.0219424
0.0216675
0.234049
0.0214615
0.0301332
2.94588
0.122402
4.11962
4.35772
0.0219968
4.90921
0.022379
6.91905
0.0240854
0.140231
0.0240895
0.0219162
0.0220774
0.0651355
1.74727
0.0218511
1.02298
0.0227241
6.55894
5.85189
0.183646
6.24396
3.54784
4.34103
3.29545
0.0751709
0.0316121
0.0300073
0.0220946
0.0215285
4.99606
4.43545
0.0220945
0.021659
0.021787
0.0220838
0.315607
10.6591
0.022099
0.101336
0.526087
0.0331976
4.6254
2.57467
2.38024
0.0258315
0.0286912
0.022268
0.0215546
0.0219243
0.0771904
0.0218589
0.0261706
0.0237253
0.318137
0.0220971
0.0221713
0.0235961
0.0217482
0.021955
0.0744263
0.039418
0.0650297
4.14857
0.0217458
0.416362
0.176973
0.0216825
0.19346
3.93959
0.0221873
5.95238
5.02142
0.0217414
0.101843
0.0950748
0.0423189
0.022064
0.339805
0.0216342
3.93605
0.140206
5.59479
4.26179
0.227834
0.0370372
0.0219082
3.50978
0.171336
4.63121
3.58009
4.87031
2.40005
3.53698
0.0223522
0.14283
3.56275
4.04904
0.0373227
0.0323613
5.64035
0.0217241
5.07639
2.59307
0.214574
0.0219845
0.124921
4.76671
5.48172
0.0217287
6.84563
0.0235669
0.0215399
5.43951
4.5397
0.0368507
0.022007
0.0242412
2.24222
0.0255832
5.42244
4.0863
21.029
0.0221161
0.0221035
3.95524
2.54096
0.0950271
0.0295538
0.0326258
1.81376
1.07583
4.1501
4.18104
12.9899
0.239715
0.0219977
6.70719
0.116414
0.0239891
3.5386
2.24214
0.0255215
3.36414
4.24809
4.73588
0.0216787
0.05201
0.393436
0.15
0.0509937
0.0269438
4.28909
0.0217365
0.0440489
0.131866
2.81854
8.30757
0.407285
4.24842
4.31035
4.42005
10.2622
0.0221597
1.66667
0.0279883
3.69478
0.021912
3.90636
4.21614
4.73687
8.02387
0.0239934
3.58391
4.63582
3.59247
4.07862
0.0255108
0.433528
0.0222742
0.0217112
0.13876
0.033955
2.57024
4.16576
0.0220008
0.0220232
15.9255
0.0218595
3.89374
0.0218821
5.86098
0.0222506
0.0278888
5.11007
0.0218722
3.59211
3.67215
5.51487
0.0220157
0.0603332
4.42667
0.20936
0.318381
11.1926
5.11325
0.0253471
0.0217458
0.0362816
0.223589
0.0228609
3.98886
3.82581
0.950076
0.024592
0.851175
0.0255054
4.71313
1.01285
0.0220188
0.0221151
3.9445
0.419866
1.17283
1.2951
0.0218611
2.16549
14.0573
35.78
36.2667
0.183718
5.64661
0.0219155
0.221177
0.0219525
0.0230708
0.0226277
0.139233
0.0432738
0.0219105
3.39463
0.0219176
0.970756
0.0336212
0.103217
0.277915
6.50853
0.342757
0.067002
0.0220073
3.61666
0.0746331
0.0245825
0.0245649
6.78201
4.09635
0.0219747
6.70017
3.68977
0.0708793
4.2265
0.0265404
0.0219971
3.70445
3.57762
3.91041
0.517747
4.131
0.218726
0.0350526
0.0237452
0.0221341
0.251118
0.299627
0.0221568
0.0222892
12.3372
3.49546
5.08208
1.96865
3.79714
0.0481304
2.46623
0.0221034
0.0301469
4.48717
4.08912
4.04938
5.19881
0.0320268
0.286386
0.767711
3.75822
0.164069
4.8719
1.64693
0.0222144
4.19598
0.0630259
0.0215146
0.0221466
5.93572
0.0221634
0.0220859
0.0345912
0.435956
0.0453402
0.0287808
0.0240769
1.218
0.0402748
0.0743068
0.0257881
0.414493
0.125825
0.0255169
0.0219177
0.0220084
5.32571
4.10853
0.0220565
0.0223854
0.844525
0.0216422
0.217655
0.0476777
1.25878
0.0219588
0.169768
0.0217618
0.0558352
0.0218706
0.342539
4.03407
0.527246
0.555629
0.0222234
0.372158
0.0624309
2.91086
0.0217434
0.0221516
0.0235319
4.66904
5.22024
0.0246819
0.0221883
0.167306
0.379631
7.99693
0.0216561
4.74217
0.0220125
0.022173
0.022655
1.87076
0.0216502
0.0252119
0.0221708
3.61288
0.0244626
0.021791
6.28098
9.19836
0.0220092
21.2776
0.0387736
0.0676088
3.04983
2.03853
0.0218797
3.78538
4.325
3.89574
0.0220666
2.33625
0.0224552
0.0414921
0.162645
0.0223224
3.29071
0.172984
0.0477768
3.90428
0.0234268
0.22782
0.501883
5.15509
0.0219522
4.0276
4.03886
0.037566
3.43427
0.109065
6.83917
0.0538189
2.50804
0.0496873
0.0217227
0.0220609
0.127355
2.52139
0.0362598
0.0216234
0.0315923
0.0220245
4.1643
0.0249403
4.20015
0.0219362
0.116305
0.190291
0.0381086
0.0221012
0.0541714
0.0417421
0.0217721
5.09828
0.0309792
3.3795
0.0579482
0.0383409
4.88445
21.4681
4.65617
0.51631
0.079813
0.0384263
0.0293095
0.236267
0.0221002
0.130201
0.0704117
0.0365035
4.98536
0.0219489
0.0580113
0.0220701
21.2802
0.0236223
0.192139
0.0762614
0.0222031
0.0216028
0.340252
0.0403263
7.15022
0.304456
0.213022
0.0294968
0.103037
0.0219388
0.0456369
0.0219848
0.0220974
3.50885
0.0931244
3.77781
1.07684
0.0221752
0.0230969
0.153237
0.0222899
0.0241114
0.0219797
0.0381438
10.7042
0.0289596
33.6069
0.274053
0.0221893
0.0930173
2.23155
0.022336
0.0216757
0.0221684
0.735324
1.88729
0.0222449
0.372111
4.0918
0.308408
0.0218288
0.163025
0.0281071
0.0219843
7.85532
0.0236508
4.96266
0.0222931
2.98658
5.02649
3.77574
24.5628
0.121565
4.80414
3.73741
19.0134
0.0222901
3.64245
0.0576056
0.0216648
0.0824379
1.74261
0.0221228
3.61107
0.0219106
0.0260455
3.18025
0.0229643
0.0467192
0.022988
0.0219203
4.0269
0.0342136
0.042331
0.0220862
0.0219361
0.0220112
0.0846989
0.0215494
2.35038
0.0753629
0.0239244
0.0219139
10.7353
0.0977163
0.0825268
9.68372
0.0239198
2.24567
3.36441
0.0246274
5.03026
0.0467141
0.0481113
0.0392508
0.022147
0.0219776
4.99981
0.0542705
0.021929
3.79772
0.0590291
0.0760941
0.0219962
0.063231
0.0323534
0.0402092
0.021921
0.0221638
0.320311
0.0431484
7.04623
0.0626157
0.0378154
0.061462
16.0805
0.0502338
0.0671862
0.0219276
5.76542
4.60176
19.8361
3.4785
4.34032
0.41957
1.02122
0.0219801
4.42739
0.0972439
0.165208
7.96522
0.0217445
0.036065
3.96658
0.0219218
0.0216768
30.5944
3.53978
0.0222947
4.22789
5.48118
0.0215359
5.76335
0.270806
5.40858
0.0219831
3.25528
0.0220094
0.0222634
34.4891
0.307767
0.114757
0.0454556
4.56373
0.0991674
2.24184
2.1587
0.0351676
0.215878
2.45911
0.036023
4.01573
0.0219166
2.2701
0.0219186
0.0219863
1.85842
0.022289
0.0216637
2.97665
0.0237071
0.0220713
0.0316067
1.38077
4.02049
0.0226732
9.1228
0.156648
0.028531
0.0217726
0.0311259
0.0218626
3.56692
0.0221441
0.137607
1.84327
0.194483
3.82835
0.0245956
15.6023
0.021795
0.0239955
1.01482
0.0217273
0.0911615
1.88533
0.0219586
0.059542
4.85514
0.326398
1.66937
0.0613668
2.80929
0.022128
4.28562
4.04788
0.0218577
0.0220718
0.158705
0.0366307
4.01368
3.58445
2.23766
0.430206
0.0429673
4.6632
0.0215532
0.177915
0.0839889
5.48939
1.88222
0.0489724
0.0217239
0.0291782
3.43633
0.0219221
0.0222229
2.84636
0.0217228
0.0221353
3.86448
4.08517
2.02211
0.0219679
1.82951
0.0220889
0.226075
0.0217776
0.740581
0.202372
3.79754
2.367
5.81914
0.021808
3.66667
4.99935
3.4389
0.332102
0.565921
2.6672
0.36612
0.239842
0.0218764
4.01439
11.1317
0.600724
0.0219683
3.52442
0.0869805
0.20828
0.0383626
0.0305953
0.0690856
0.0259253
4.31259
1.78672
0.0218528
0.0598872
0.0708752
4.59191
0.0274003
0.0350804
0.0288698
2.38114
0.0216678
0.0215456
4.18249
0.350657
5.13248
4.92617
1.02301
1.75761
0.173626
0.0219943
0.022147
0.041767
0.0494716
0.0690759
0.163569
2.63819
0.022174
0.0363862
0.10867
20.4123
0.023251
0.127206
0.0286566
1.52749
0.0220964
0.843749
0.366204
4.83798
0.0221415
0.613999
0.0220189
0.0219553
0.0219901
1.33149
3.66133
6.41807
0.0655723
0.0219872
0.0820897
0.211637
4.71408
2.85693
0.0221175
4.3512
0.0538075
0.051585
2.13115
0.144126
3.62665
26.3586
0.0221312