/*--------------------------------*- C++ -*----------------------------------*\
| =========                 |                                                 |
| \\      /  F ield         | OpenFOAM: The Open Source CFD Toolbox           |
|  \\    /   O peration     | Version:  v2012                                 |
|   \\  /    A nd           | Website:  www.openfoam.com                      |
|    \\/     M anipulation  |                                                 |
\*---------------------------------------------------------------------------*/
FoamFile
{
    version     2.0;
    format      ascii;
    class       surfaceScalarField;
    location    "200";
    object      phi;
}
// * * * * * * * * * * * * * * * * * * * * * * * * * * * * * * * * * * * * * //

dimensions      [0 3 -1 0 0 0 0];
oriented        oriented;


internalField   nonuniform List<scalar> 
26940
(
0.131911
-0.0831318
-0.0487796
0.502341
-0.189654
-0.312688
0.128739
-0.470766
0.342028
-0.0350044
0.13135
-0.0963456
-0.0198776
0.00675905
0.0131185
-0.101982
0.100602
0.00138048
-0.373641
0.393982
-0.0203409
-0.0119864
0.0119864
0.00167961
0.00235722
-0.00403683
0.00737794
-0.0111357
0.00375777
-0.283649
-0.0986846
0.382334
0.275477
0.0602501
-0.335727
-0.00401542
0.0067264
-0.00271098
0.097035
-0.0076998
-0.0893352
-0.0154357
-0.0176682
0.0331039
0.102322
-0.00528684
-0.0157644
0.313776
-0.298012
-0.0194549
-0.019245
0.0387
0.330871
-0.148251
-0.18262
-0.00107317
-0.0088416
0.00991477
0.113125
-0.124973
0.011848
0.352322
-0.368086
0.138422
-0.0252973
-0.424146
0.25127
0.172875
-0.00561919
-0.365586
0.371205
0.102009
-0.47565
-0.0883665
0.140934
-0.0525676
-0.212914
0.107698
0.105215
-0.0695546
-0.192853
0.262408
-0.134578
0.0995737
0.00728675
-0.0017285
-0.00555825
0.00523324
0.371966
-0.377199
0.251825
-0.328291
0.0764668
0.365521
-0.19208
-0.173441
-0.231543
0.410273
-0.17873
-0.517274
0.230978
0.286296
-0.00124893
0.00292854
-0.207222
-0.310052
0.0723498
-0.308203
0.235854
-0.00566363
0.0130416
0.372816
-0.481388
0.108573
-0.0919124
0.0529468
0.0389656
0.369482
-0.117657
0.308295
-0.247829
-0.0604658
-0.072797
-0.0338914
0.106688
0.489672
-0.277094
-0.212578
0.130794
-0.00343515
-0.127359
0.00728675
0.11222
-0.113808
0.00158808
0.128768
-0.0680046
-0.0607635
-0.0510224
-0.113733
0.164755
0.161486
-0.134434
-0.0270525
-0.0774535
-0.0524464
0.1299
0.122557
-0.461368
0.33881
-0.405976
0.122327
0.0112664
-0.00281411
-0.00845232
-0.0461649
-0.0457475
-0.000945658
0.0079495
-0.00700384
0.192562
-0.252161
0.0595993
-0.0160106
-0.157093
0.173104
0.0992193
-0.155515
0.0562955
0.202355
-0.0399129
-0.162442
0.010328
-0.0106634
0.000335402
-0.214007
0.100902
0.113105
-0.0850632
-0.016385
0.101448
-0.179523
0.367552
-0.188028
-0.00617439
0.00865213
-0.00247774
0.0205625
-0.0236857
0.0031232
-0.00386427
0.0219058
-0.0180415
0.208833
-0.155375
-0.0534578
-0.4016
0.170056
-0.0770938
-0.169418
0.246511
-0.123828
0.0510306
-0.184072
0.215483
-0.0314108
-0.0195437
0.0195437
-0.0203818
0.0266212
-0.00623942
-0.0771619
0.127676
-0.0505138
-0.0126642
0.00879988
0.0573094
-0.221279
0.16397
-0.170428
0.467777
-0.297349
-0.479367
0.0142168
0.46515
-0.000189394
-0.00035875
0.000548144
-0.237547
-0.433241
0.15011
0.283131
-0.422094
0.533006
-0.110912
0.182507
-0.280412
0.0979047
0.22372
-0.24103
0.0173095
-0.389175
0.548487
-0.159311
-0.142827
0.162276
-0.0194487
-0.262081
0.33443
0.0101442
-0.0101259
-1.8291e-05
-0.126562
0.017243
0.109319
-0.00785867
0.00129998
0.00655869
0.290213
0.188927
-0.479141
-0.0793657
0.452181
-0.0669717
0.249479
-0.0664344
-0.29864
0.365074
0.105552
-0.110435
0.00488291
-0.181422
0.145448
0.0359732
0.0333158
-0.187326
0.154011
0.489575
-0.475801
-0.0137739
-0.433832
0.138318
0.295514
0.0293278
-0.0447635
-0.0880362
-0.125971
0.111055
0.0977781
-0.324861
-0.108971
-0.0206955
0.0159957
0.00469982
-0.00512388
0.00257574
0.00254814
0.117843
0.022364
-0.140207
-0.294502
-0.103003
0.397505
0.00575427
-0.00669993
6.69208e-05
-0.00205162
0.0019847
0.00365666
-0.00450939
0.000852729
-0.0307447
0.0556611
-0.0249164
-0.091855
0.400095
-0.30824
0.110041
0.215362
-0.325403
-0.103949
0.115326
-0.0113776
0.000227731
0.00215558
-0.188683
-0.0362827
0.224966
-0.067297
0.0158304
-0.0246392
-0.0291261
-0.226024
0.156469
-0.0190747
-0.0717636
0.0908382
-0.0287384
0.0266738
0.00206463
-0.138806
0.100201
0.0386048
-0.389274
0.243726
0.145548
0.233293
-0.382548
0.149255
0.0068132
-0.00311155
-0.00370165
-0.179061
0.105366
0.0736945
-0.0743654
-0.0337104
0.108076
0.117
-0.125116
0.00811574
0.0297927
0.0157197
-0.0455124
0.156477
-0.218561
0.0620839
0.00392513
-0.0114319
0.00750678
-0.173619
0.0715631
0.102055
-0.0210297
0.151823
-0.446647
0.239426
0.141369
0.200796
-0.342165
-0.0487902
0.205267
0.000500817
0.00286744
-0.00336826
-0.00408662
-0.000403769
0.00449039
-0.102375
0.0173122
-0.0568014
-0.0393508
0.0961522
0.00244092
-0.00941838
0.220954
-0.103111
-0.0036167
-0.0424032
0.0460199
-0.01379
0.01379
-0.0520009
0.0131699
0.038831
0.218471
-0.297168
0.078698
0.242581
-0.0986781
-0.143903
0.35819
-0.424624
-0.00306373
0.00302257
4.11634e-05
-0.0206955
-0.0624007
-0.076405
-0.0778033
-0.303864
0.381667
-0.432973
0.138471
-0.21389
-0.0098991
0.223789
0.0126847
-0.00235669
-0.29787
-0.148777
0.00279778
0.109861
0.318318
-0.428179
0.0248489
-0.0151586
-0.0096903
0.144705
-0.221606
0.0769007
-0.417295
-0.0380392
0.455334
0.0186594
0.0162031
-0.0226043
0.00640117
-0.102596
0.375167
-0.272571
0.00649691
-0.00405599
0.000200114
-0.000324789
0.000124675
0.0059865
-0.00598618
-3.19059e-07
-0.098653
0.112439
-0.0137863
-0.0676147
0.03687
0.0594862
-0.133852
0.0186166
0.00194595
0.0716749
0.0124356
-0.0841105
0.128932
0.181681
-0.310613
-0.0445125
0.0220312
0.0224813
-0.00834208
-0.0238203
0.0321624
-0.237249
-0.28551
0.522758
-0.46369
0.0745144
-0.348743
0.256888
0.0480671
-0.136968
0.0889013
0.024951
-0.0463888
0.0214378
-0.0389457
-0.00556681
0.0135216
0.0564217
-0.0699433
-0.256537
0.42467
-0.168133
-0.136661
0.0440262
0.0926352
-0.0466529
-0.0879162
0.134569
-0.339355
-0.0446303
0.383985
-0.228629
0.338669
-0.0314354
0.130655
0.271493
0.0593777
0.17932
-0.163989
-0.015331
-0.263717
-0.169524
-0.186015
0.140111
0.0459043
-0.00548874
0.000136417
0.00535232
-0.0897325
-0.0122496
-0.131654
-0.0543612
0.00243717
-0.00353745
-0.00158643
0.00919896
-0.107852
-0.00245646
-0.00192815
0.00438461
-0.187063
0.31355
-0.126486
-0.0132944
-0.0387065
0.0250601
-0.200799
0.175739
-0.169754
0.0353198
0.00308922
-0.00327861
0.0114494
-0.000182937
-0.0198997
0.0226529
-0.00275317
0.0110369
-0.0110369
-0.012284
-0.00759357
-0.00446381
0.000377186
0.265093
-0.173999
0.365849
-0.19185
-0.140369
0.183368
-0.0429996
-0.102019
-0.0245431
-0.0813503
-0.0132481
0.0945985
0.0016038
0.00298055
-0.00278044
0.000447488
-0.000806238
-0.173008
-0.0288793
0.201887
0.0162789
0.316346
-0.332624
-0.409786
0.153248
-0.094421
0.0502859
0.0441351
0.0105901
-0.0105492
-4.08808e-05
-0.106527
0.287178
-0.180651
-0.106328
-0.00410702
0.546726
-0.395785
-0.150941
-0.149683
-0.0451096
0.194793
-0.297612
0.110549
0.010237
-0.0104903
0.000253318
-0.00408072
-0.000618354
0.00469907
0.256376
-0.100001
-0.156375
0.00289811
-0.00364667
0.000748557
-0.41012
0.544409
-0.134289
0.100939
-0.261239
0.1603
-0.178087
0.0377187
-0.0858719
-0.0602446
0.146117
-0.00775419
0.00546436
0.00228983
0.0594309
-0.0630476
0.162541
0.0167788
-0.00267852
0.00219381
0.000484712
0.0103028
0.0014013
-0.0117041
-0.153346
0.137335
-0.00779684
0.0527169
-0.0449201
-0.200196
0.219987
0.0846971
-0.000743535
-0.00193499
0.00496856
-0.0138837
0.00891515
0.225457
-0.247463
0.0220058
0.0631149
0.0687965
0.412174
-0.178882
-0.232575
0.257635
-0.101671
-0.0773895
-0.00130862
-0.00175511
0.00710022
-0.00147876
-0.00562145
0.110631
0.295779
-0.40641
-0.000907498
-0.000610033
0.00151753
0.0014253
0.0045612
-0.431429
0.014134
-0.189779
0.370174
-0.180394
0.00414246
-0.00124435
-0.0952867
0.116726
-0.0214391
0.028239
0.0839807
0.000448978
-0.00166838
0.0012194
0.00230822
0.00062821
-0.00293643
-0.000391902
0.000386052
5.85078e-06
-0.205794
0.0217221
-0.036579
-0.442788
0.114619
-0.0813032
0.0404016
-0.345403
0.171404
0.316443
-0.470098
0.153655
-0.002511
-0.0172889
0.0197999
0.146785
0.015491
-0.00131895
-0.00551496
0.00683391
-0.0381333
0.0297912
0.2209
0.325826
-0.0248689
0.00448714
0.363423
0.122099
-0.0205583
-0.101541
0.00139286
-0.00756724
-0.184103
-0.0216918
0.17139
-0.278679
0.107289
0.0647914
-0.237799
-0.139771
0.0412614
0.0985095
-0.0185546
0.22091
0.295913
-0.149413
-0.1465
-0.0021548
0.000905861
-0.0286908
-0.320053
-0.0358767
-0.177037
0.114602
-0.135632
0.220679
-0.121798
-0.098881
-0.292452
0.403083
-0.222683
0.0385799
-0.00138192
-0.00410682
-0.310594
-0.0539278
0.364522
-0.136734
-0.208668
0.179165
-0.285691
-0.0690382
0.0612413
0.0131075
0.0341697
-0.0472773
-0.443183
0.272755
-0.315208
0.0783172
0.236891
-0.0987021
0.415145
-0.0223761
-0.0282775
0.0506536
-0.402503
0.192434
0.210069
0.0104074
0.00104198
-0.138278
0.104939
0.0333387
0.187238
0.121056
0.212468
-0.330301
0.117834
0.145997
-0.218507
0.0725103
-0.0216945
0.00642397
0.0152705
-0.00627524
0.00520207
0.0534452
0.106112
-0.159557
0.316773
-0.345464
-0.014038
0.0146722
-0.00063412
-0.0575524
0.0102463
0.0473061
0.106557
0.114122
0.17607
-0.103817
0.101901
0.00191545
-0.155228
0.362814
-0.207586
-0.13227
-0.0491516
-0.00339521
0.000938745
-0.122951
0.027664
0.133385
-0.11062
-0.0227655
-0.123203
0.0551986
0.18925
0.106663
-0.175811
-0.226691
-0.296268
0.400571
-0.104303
0.0032065
0.00312144
-0.00632794
-0.209305
0.350674
-0.00549325
-0.0935111
-0.338073
0.0589696
0.279104
0.0389393
0.00816727
-0.0471066
0.00169535
-0.00224472
0.000549371
0.105365
-0.0133177
-0.0920476
0.000470354
-0.00137785
0.00900979
0.00113443
0.00975902
-0.0039541
-0.00580492
0.323589
-0.105119
-0.000945279
-0.00063407
0.00157935
-0.0932238
-0.0105929
0.00139495
0.00264407
-0.00403902
-0.169507
0.270446
0.263293
-0.378402
0.115109
0.346686
0.0327528
-0.379439
0.155979
-0.102534
0.186277
-0.26337
0.0598995
-0.145771
-0.00467881
0.197241
-0.0187589
0.133361
-0.322577
0.185842
0.307505
-0.430224
0.122719
0.0470224
0.0180822
-0.0651046
0.178531
0.0451891
0.00734684
-0.0648992
0.166117
-0.153433
-0.012684
-0.142683
-0.385916
0.0896488
-0.342927
-0.120762
0.00103143
0.0012768
0.00190636
-0.00177617
-0.000130192
0.116516
-0.408968
0.29852
-0.402861
0.104341
0.211051
0.131866
-0.342917
-0.394783
0.00434296
0.39044
-0.0121498
0.0986098
-0.0864599
0.567358
-0.330608
-0.23675
-0.00663524
0.00839925
-0.00176401
-0.0358362
0.0163813
-0.526533
0.400746
0.125786
-0.299939
0.144711
-0.0947468
0.0801933
0.0145535
0.00287581
-0.00361113
0.000735317
-0.0166706
0.0556099
-0.00140701
0.00280196
0.379864
-0.516012
0.136148
0.00212875
-0.00421555
0.109581
-0.0245238
0.00369814
-0.00319733
-0.0257732
0.104109
-0.0783354
0.107227
0.135354
0.0754884
-0.240533
0.165045
-0.328745
0.263044
0.0657007
0.19065
0.220251
0.299466
-0.519717
-0.000998935
-0.00675526
-0.218401
-0.110343
0.285298
0.116747
-0.402045
0.153613
-0.221481
0.0678683
-0.0503902
-0.239119
0.28951
0.000946991
0.00137373
-0.00232072
0.0357225
0.0920651
-0.127788
0.171919
-0.471959
0.30004
0.167095
-0.00899892
0.00114025
0.217353
-0.396208
0.178855
0.245437
-0.404062
0.158625
0.26816
-0.27703
0.00886943
0.0945254
0.0083593
-0.102885
-0.000351639
0.00204699
-0.226311
0.516524
0.0531718
-0.0396503
-0.285633
0.202241
0.0833915
-0.21257
-0.0850419
0.000776715
0.00617643
-0.00695314
0.00533477
-0.00455806
-0.257309
0.104274
0.153035
0.0430838
-0.0654599
0.00452988
-0.132141
0.119518
0.0126225
-0.0630253
0.0607884
0.00223695
0.0752384
0.14305
-0.218288
-0.0113956
-0.175931
-0.0724811
-0.0672898
0.0694145
0.00511078
-0.0745253
-0.145546
-0.41416
-0.51624
0.301928
0.214313
0.313566
-0.155132
-0.158434
-0.195927
-0.193347
0.0142612
0.00194187
-0.208027
0.0415769
0.16645
-0.0150547
-0.0129989
0.0280536
-0.325043
0.453782
-0.105034
0.085959
0.236949
0.128572
3.50818e-05
0.00187128
0.0132603
-0.0132603
0.174327
-0.0617334
-0.112594
0.0227753
-0.0123472
-0.0104281
0.027758
0.105627
0.164153
-0.187371
0.136349
-0.000401893
0.00134888
-0.0465432
-0.00821511
0.0547583
0.462891
-0.456824
-0.00606642
-0.00635304
-0.000282192
0.16065
0.0183731
-0.179023
-0.282394
-0.117759
0.400153
-0.00624411
-0.0224943
-0.00484087
0.00623373
0.324324
-0.308045
0.0107788
0.0140702
-0.00105155
0.000106273
-0.318129
-0.114845
-0.0135488
0.0135488
0.0673083
-0.0794582
-0.293856
0.0812856
-0.0384719
-0.0559491
-0.0236172
0.0211062
-0.0116275
0.0833023
-0.169948
0.0562158
-0.00646335
-0.0123145
-0.0017235
-0.0682223
0.103945
-0.0682762
-0.063531
0.131807
0.258188
-0.308578
-0.00720192
0.00409037
0.181169
-0.32942
0.308763
-0.12598
-0.182783
0.0151439
0.00763134
-0.00301976
-0.0600056
0.150409
0.0798405
-0.23025
-0.079843
-0.177466
0.174796
-0.0141463
-0.149795
0.225034
-0.252946
0.0527493
0.314068
0.0326177
-0.460983
0.0388889
0.13285
-0.109533
-0.0233171
0.000152912
0.00487154
-0.00502445
-0.46474
0.121812
0.135423
-0.0133237
-0.506167
0.111384
-0.000878596
-0.00741623
0.00829483
-0.282783
-0.233458
-0.446594
0.0364738
-0.0300481
-0.0723441
0.102392
0.00570388
0.0207059
-0.0264098
0.107477
-0.101212
-0.00626582
-0.00190725
0.000442714
0.00146454
-0.277366
-0.110106
0.387472
0.366019
-0.0882284
-0.277791
0.000204433
0.000243055
0.000297584
-0.0428896
0.042592
0.082812
-0.143057
-0.246428
-0.0168759
0.263304
-0.0421919
0.0464617
-0.00426977
-0.00604557
0.0309966
-0.301016
-0.154512
0.455528
-0.39939
0.296793
-0.0392865
0.41915
-0.0114164
-0.187855
0.199271
-0.00469616
0.00790266
-0.000485774
0.000223965
0.000261809
0.311044
-0.195922
-0.115123
-0.246479
0.0588994
0.187579
-0.0548768
0.0142818
0.040595
-0.00124488
-0.00604125
0.00728613
-0.0105835
0.000363957
0.0102195
-0.116302
-0.183196
0.00848835
0.174708
-0.0413098
0.107964
0.452409
-0.246484
-0.205925
-0.436843
0.146554
0.290289
0.0554451
0.289912
-0.345357
-0.0813891
0.159064
-0.0776745
0.0404156
-0.0316728
-0.00874279
-0.016837
-0.0354535
0.0522905
-0.00991527
0.0793298
0.169907
0.105421
-0.105307
-0.000113246
-0.277302
0.271683
0.271976
0.202101
-0.474077
0.000640099
0.000106094
-0.000746193
-0.0205737
0.0388874
-0.0183137
-0.118598
-0.0180631
0.0294823
-0.0314478
0.00196555
0.00437675
-0.000720087
-0.034119
0.0398229
-0.000900981
0.000415207
-0.115619
0.0384574
0.00151779
0.000422435
-0.00194022
0.00889116
0.000268735
-0.0091599
0.105262
-0.108698
0.00893148
0.00130549
0.360528
-0.0850514
0.0543693
0.0249866
0.200471
-0.20281
0.274941
-0.0721313
-0.0239725
-0.0309043
-0.0956048
0.0388035
-0.140606
-0.111555
0.0750188
-0.0977206
0.0227018
-0.00868445
0.0544383
-0.0457538
0.189813
-0.105575
-0.0842375
0.317614
-0.395418
0.157928
0.110537
-0.268465
0.0327185
-0.0532922
-0.0004323
0.0015832
-0.0011509
-0.000367117
-0.00154013
-0.120596
0.393598
-0.273002
0.100616
-0.0255973
-0.00605779
0.00268453
0.00337326
-0.0657778
0.227818
-0.16204
-0.070583
-0.21505
-0.0768792
0.287931
0.0697419
-0.160798
0.0910561
-0.00452936
0.0343221
-0.00135318
0.00710745
-0.314825
0.437382
-0.000380784
0.00347
-0.48829
0.268457
0.219833
-0.00655747
-0.00732623
-0.0975852
0.154895
-0.0138482
-0.225392
0.23924
-0.155638
0.0102695
0.145369
0.00651876
-0.00776363
0.323104
-0.110636
0.348243
-0.420963
0.0727206
-0.00423346
0.00438637
-0.00213418
0.00235815
-0.122144
0.0321132
0.0900311
0.0424977
0.0140161
-0.260444
-0.159412
-0.283771
0.342647
-0.389993
0.0473462
-0.000580499
0.00305803
-0.00247753
-0.00493743
0.0618941
-0.0569567
-0.00435431
0.00304528
0.00130902
0.169416
-0.00922168
-0.160194
-0.0476049
0.0307679
0.000174716
-7.4541e-05
-0.000100175
-0.0813992
-0.0966883
0.0079495
0.0255509
-0.208747
0.00943478
0.00115534
-0.0608633
-0.318155
0.379018
-0.0379071
0.0318615
-0.0014777
0.00337127
-0.00189357
0.0136196
0.0339552
-0.0475747
-0.0725636
0.00263501
0.00712402
0.00575326
0.0029087
-0.00866196
-0.0344662
-0.268834
0.3033
-0.0034716
0.0245034
-0.0210318
0.0161555
0.255338
-0.415088
-0.04628
-0.0105835
-0.00344146
0.00271123
0.000730229
0.43033
-0.258411
-0.412842
0.0947135
0.436553
-0.326692
7.9467e-05
-0.0199792
-0.000469497
-0.000560647
0.00103014
-0.0740898
0.422333
0.108525
-0.0591368
-0.0493881
-0.137094
0.212582
0.197505
-0.277322
0.0798171
0.120332
-0.397698
-0.111236
-0.00962973
0.120866
0.109733
-0.00431215
0.195135
-0.0504299
0.00216657
0.0197392
-0.292435
0.408951
-0.102281
-0.0250258
-0.0118176
-0.000168872
0.107446
-0.0858452
-0.0216004
0.00954833
-0.000657165
0.00637683
0.00190799
-0.00828482
-0.0385204
-0.181635
0.220156
0.0040644
0.002662
-0.0219306
0.0222282
-0.0705287
0.174294
-0.103766
-0.00667288
-0.0224788
0.0291517
-0.106028
0.0904925
0.0155353
-0.198096
-0.0231834
-0.0875541
0.141688
-0.0541337
-0.00117356
0.00077167
0.0930787
0.0812487
0.0659246
-0.134201
0.201626
-0.231097
0.0294703
-0.177173
0.00793101
0.169242
-0.00199339
0.320722
-0.355188
-0.0146134
0.0261892
-0.0115757
-0.131307
0.0499174
-0.0183488
0.0844025
-0.0660537
0.107553
0.455647
-0.197459
-0.047269
-0.234038
0.281307
-0.00430792
0.00510659
-0.00079867
-0.3445
-0.076463
-0.168115
-0.320174
0.128292
-0.0391428
-0.0891488
0.293081
-0.396824
0.103743
-0.0727028
-0.0811741
0.0111858
0.105814
-0.27352
0.0848366
0.160258
-0.172499
0.0122401
-0.272727
-0.11319
0.00284967
0.013146
0.0108712
-0.000568336
0.0143604
-0.0180538
0.0036934
0.196734
0.00489248
0.0106717
-0.000310706
-0.010361
-0.000814606
-8.63748e-05
-0.0439554
0.00604835
-0.312618
0.242239
0.070379
0.000489583
-0.000921883
-0.0331613
0.207029
0.0122314
-0.0113542
-0.437749
0.174033
0.061235
-0.010952
-0.0502831
0.00139826
0.0656619
-0.0670602
-0.00118565
-0.00059052
0.0121231
-0.0677532
0.0921896
-0.0244363
-0.00558824
0.00458931
-0.425016
0.0632361
0.00718164
-0.00958385
0.00240221
0.153971
0.335605
0.0551797
-0.156507
0.101328
0.099903
-0.170432
0.322611
-0.18123
-0.141381
-0.531616
0.311297
0.220319
0.00691176
0.00233012
-0.00924188
-0.0167332
0.132787
-0.116054
0.0932766
-0.227565
0.134288
0.00592418
-0.00630497
0.00907316
-0.00797683
-0.00109633
0.0295992
0.0566684
-0.0862675
-0.0147427
0.184441
-0.133669
-0.0507719
0.378057
-0.414636
-0.135318
0.352671
0.33202
-0.276575
0.253979
-0.125047
0.0220881
0.0183275
-0.00521832
-0.15042
-0.0224618
-0.0083999
0.0308617
0.000166595
-0.00796251
0.00779591
-0.00606954
-0.00459384
-0.00820098
0.00836758
0.0468705
-0.0518138
0.00494329
-0.174223
0.0390533
0.13517
-0.247988
-0.134559
-0.04601
0.0474083
0.422471
-0.221675
0.0100276
-0.00252231
-0.00750527
0.00145501
0.00177623
-0.00323124
-0.383
0.100606
-0.101382
0.186776
-0.0853944
0.00171349
0.00251617
-0.00422966
-0.000999491
0.00244815
-0.00144866
0.0166023
0.01288
0.167211
-0.00695268
-0.149622
-0.31613
0.107759
0.208371
-0.0011277
0.00415027
0.00921255
-0.00203091
-0.00328665
0.0443878
-0.0411012
-0.114157
0.00812907
0.0827075
-0.094335
0.0122682
-0.0955619
-0.018595
0.00356769
-0.000494348
-0.00307335
-0.00370559
-0.0493737
0.0530793
-0.000172645
0.0470432
0.255913
-0.0039151
-0.00657519
0.0847636
-0.105322
0.119873
-0.136606
-0.00121475
-0.00437349
0.405734
-0.132455
-0.27328
-0.133986
0.038489
0.0954968
-0.0394059
0.0530255
0.178556
0.227179
0.112704
-0.092802
-0.0199022
0.00591803
-0.0524612
0.000145257
0.00342244
-0.00318591
0.00279401
-0.0406268
0.115664
-0.0750377
0.183549
-0.00187872
-0.18167
-0.418354
-0.113262
0.00180884
-0.0440007
-0.0757141
0.0151289
0.0605852
-0.0562304
-0.117388
-0.000651223
-0.000400328
0.24799
-0.309613
0.0616237
0.0026812
-0.00250648
0.000200224
-0.000133303
-0.18114
-0.0155898
0.19673
0.151182
-0.128818
-0.381219
-0.0445198
0.425739
0.120599
-0.019536
-0.101063
0.444259
-0.0662018
0.0109513
-0.00187815
0.0784212
0.0539641
-0.132385
0.000173346
0.00240239
0.0833879
0.415829
-0.237273
-0.108077
-0.208053
-0.0268213
0.0231157
-0.00189233
0.00206568
0.0390834
-0.122215
0.00573301
-0.00920461
0.0263518
-0.140966
0.114614
0.0737437
-0.0613081
-0.255804
-0.181945
-0.426022
-0.00655153
0.432574
0.0223295
0.0488331
-0.0711627
0.250836
-0.100427
0.0353029
-0.0857172
0.0504143
-0.0127846
0.0677548
-0.0029399
-0.0648149
0.0138647
-0.095215
0.176372
0.107519
-0.283891
-0.00726768
-0.0011497
0.00841738
0.0231756
-0.00814272
-0.0150328
0.0016912
-0.0406369
0.066223
0.190153
0.479935
-0.361576
-0.118359
-0.124019
0.217296
-0.447076
0.37219
0.0748856
-0.122407
0.0209558
0.101451
0.0587048
0.162249
0.39553
-0.120965
-0.274565
0.10448
0.00822431
0.217177
-0.130445
-0.0867315
0.00170529
-0.00228579
-0.0219017
-0.0614331
0.0833349
-0.104383
-0.226201
-0.300332
0.00121488
-0.00238845
-0.105706
0.321067
-0.224679
0.0435381
-0.00480886
0.00374346
0.0107353
0.0504997
-0.291889
0.20366
-0.0643672
0.0424654
-0.00142886
0.000429367
-0.367947
0.225245
0.142702
-0.297621
-0.139222
0.28331
-0.223059
0.0661468
-0.0365476
-0.00156586
0.000380215
-0.413445
-0.00548711
0.00611156
-0.000624445
0.374098
0.19326
0.00757818
-0.00478041
-0.00169218
0.0106343
-0.00894214
-0.00148687
-0.000445005
0.00288218
0.00114913
0.172002
0.0115468
-0.00256952
-0.0191249
-0.0530421
-0.422759
-0.0479149
0.0346204
-0.212882
-0.155065
-0.380983
0.392649
-0.0116666
0.098249
0.291037
-0.389286
0.177345
-0.293994
0.116649
0.0104871
-0.00432882
-0.00615833
-0.0664506
-0.197544
0.263995
0.0980368
-0.442537
-0.0583051
-0.256903
0.17299
0.22254
-0.0450773
-0.0243743
0.0694516
0.138325
-0.185203
0.046878
-0.00140811
0.00792687
-0.288724
0.409056
-0.322482
-0.124594
0.276091
0.0158496
0.00732593
-0.00919926
-0.00459078
0.0067691
-0.0300985
0.0150438
-0.384636
0.00365295
0.000296029
-0.00241289
-0.00102857
0.158171
-0.169588
0.305233
0.0425776
-0.34781
-0.00958576
0.00539432
0.00419144
-0.00908856
0.00820996
0.194964
-0.18362
-0.0113437
-0.0419191
0.127094
-0.0851746
0.00402524
0.030106
-0.0341313
0.0592859
0.0735642
-0.278565
-0.0340531
0.163264
-0.104373
-0.0588908
-0.155612
-0.0215613
0.0623169
0.100947
-0.00186216
-0.00123422
0.00309638
0.00214997
-0.00384214
-0.0758146
-0.224542
0.300357
-0.00989211
0.00970742
0.000184688
0.192569
0.22326
-0.000457751
0.0820194
-0.0815616
-0.0211425
0.141015
0.149002
-0.0891024
0.104209
0.00882064
-0.0108088
0.00198814
-0.00486234
-0.000624777
0.0521023
0.00958544
-0.0616878
0.466283
-0.134535
0.115776
0.267096
0.188551
0.00314301
-0.49056
0.221726
0.0113707
0.149459
-0.16083
-0.225747
0.0702524
0.155495
-0.0991161
0.377649
-0.278533
0.00843974
0.0593151
-0.182735
-0.0252925
-0.231895
-0.0661966
0.298092
0.00546736
0.00918843
-0.0146558
-0.466024
0.389859
0.076165
0.000718477
-0.00219618
-0.0680992
0.175797
0.0693215
0.00685434
-0.0761758
0.370674
-0.247635
-0.12304
0.113083
-0.0210182
0.0520685
-0.0742732
0.0222048
0.185064
0.006225
-0.0838129
0.0952196
-0.0114067
-0.019592
0.0952261
-0.343215
0.0247615
0.120687
0.0748343
0.0528413
0.0026788
0.0192328
-0.0219116
0.346247
-0.0410145
0.0326916
-0.246582
0.0993131
0.100807
-0.20012
0.00766163
-0.0222751
-0.397303
0.278886
0.118417
0.1302
-0.0182076
-0.111992
-0.0456633
-0.0767433
-0.0236462
0.161971
-0.275944
-0.129576
0.40552
-0.44112
0.0150976
0.457954
-0.0110189
-0.446935
0.0335308
0.077671
-0.111202
-0.0899191
-0.0678944
0.0228172
-0.0327897
-0.103351
0.136141
0.242568
-0.318382
0.199763
-0.195865
-0.00389806
0.00148768
0.00918401
-0.264311
-0.0800358
0.344346
-0.0237911
0.203677
-0.179886
-0.15077
-0.198539
-0.292021
0.155924
-0.0658296
-0.0900948
0.117498
-0.0887449
-0.0287529
0.0196231
-0.101787
0.0717388
0.165574
-0.244176
0.078602
-0.0741924
0.250564
-0.00860869
0.000845058
0.00710386
-0.000727033
0.0132217
-0.0356835
-0.00697763
0.00898271
-0.00200508
-0.0569192
0.0519817
0.0142218
0.1225
-0.411224
0.0687785
-0.17016
-0.00772586
0.00631775
0.00891429
-9.36556e-05
0.000246999
-0.00508787
-0.341424
-0.124599
0.0775957
-0.0255272
0.103312
0.00970058
-0.000981983
-0.00248263
0.00864069
-0.00615806
-0.086585
-0.245362
0.331947
-0.0586869
0.0347144
-0.0799129
0.149655
0.00477287
0.00482262
-0.00959549
-0.00108351
0.00832562
-0.00724211
0.023218
-0.00885763
0.400529
-0.0751253
0.0970301
-0.0219048
0.447067
-0.226817
-0.31215
0.233481
0.078669
-0.000555446
-9.57771e-05
0.299709
0.176481
0.20344
-0.250709
0.00211274
-0.00166376
0.000607057
-0.00269703
0.00208997
0.359252
0.0119892
-0.00507745
0.0178816
0.0224359
-0.0403175
-0.33039
0.101761
-0.0183001
-0.0117984
-0.410504
0.134561
-0.00441092
-0.000145017
0.00455594
-0.00111531
-0.00508206
0.00619737
-0.00628655
0.00779127
0.00419794
-0.0912167
0.0194532
0.0196526
0.00300034
-0.386454
0.265858
-0.166794
-0.0589528
0.0967946
-0.294266
0.197471
0.365648
-0.402687
0.0370384
-0.144021
0.327972
-0.183951
0.217365
-0.152574
-0.00168484
0.00176404
-7.91977e-05
0.00139231
-0.0030845
0.00169219
0.229424
0.0271726
-0.256597
0.00148697
-0.00512104
0.00363407
0.192885
-0.162854
-0.0300309
-0.106335
0.0166025
0.29416
0.0587712
-0.352931
-0.0803166
0.245891
0.00105527
-0.00832295
0.00298251
-0.00668416
-0.00860553
0.0061229
4.89242e-05
-0.0446126
0.0445637
-0.399127
0.167232
-0.0147274
0.161512
-0.00354523
-0.00152466
0.00506988
-0.0710254
0.214075
0.103489
-0.00896392
0.0884174
-0.0531145
0.00820128
-0.00509203
-0.00310924
0.00859824
-0.0171469
0.00854865
0.162974
0.0967169
-0.361027
-0.218699
0.0689038
0.347062
-0.44022
0.0931581
0.0782077
-0.0965565
-0.00608396
0.0115513
-0.250914
-0.0897296
0.0219763
-0.442645
0.101221
-0.0823659
-0.388401
0.374271
-0.256485
-0.117786
-0.00600359
0.00101623
0.00498736
-0.0981172
0.40868
-0.286179
-0.19898
0.306498
-0.00681012
-0.00160485
0.00841497
0.144471
-0.336551
-0.00930178
0.00821826
-0.00236425
-0.00174769
0.00411194
-0.122035
-0.206257
-0.0725596
0.0948891
0.193671
-0.00545048
-0.00413528
-0.00330621
-0.00900833
0.00410055
-0.00122473
-0.00782768
0.0902045
-0.0823769
-0.143726
0.442659
-0.298933
-0.104652
0.131004
0.0145903
-0.000557797
-0.0140325
-0.231552
0.0818687
0.00285426
0.0109358
0.00613708
0.00361728
-0.00975436
0.00392967
0.0426616
-0.201073
0.158411
0.169761
-0.10849
-0.0612716
-0.203081
0.0297256
0.173355
-0.173677
0.216338
0.0465413
-0.00412136
-0.0424199
-0.00705456
0.00351711
0.0518367
0.0311076
-0.121421
0.0903129
0.221627
-0.120762
0.0302963
0.0904655
-0.126318
0.0224617
0.103856
-0.169881
0.227057
-0.0571759
-0.0642881
0.070145
-0.00585684
-0.00269176
-0.00591694
0.000212108
-0.00905302
0.00884091
-0.00922771
0.016156
-0.126776
0.0124241
-0.0307242
-0.00906818
0.00209055
-0.366049
-0.036638
0.162839
-0.238786
0.0759469
0.45458
-0.417279
-0.037301
0.0179986
0.0438956
0.0358461
-0.175624
0.139778
-0.0229193
0.10766
-0.140449
0.0865967
-0.069012
-0.0175847
0.131879
0.075628
-0.207507
0.0879086
0.445099
-0.0730804
0.0241994
0.048881
-0.000992412
0.0025102
-0.000899902
0.0154296
-0.024302
0.00887243
0.00148877
0.00954815
-0.138478
-0.264383
0.275328
-0.171053
-0.00171284
-0.0683178
0.0364936
0.0318242
-0.357728
0.3038
-0.196205
0.223377
0.000252561
0.0024498
-0.00270236
0.0716559
0.0692782
0.110991
-0.0107898
0.175314
0.0589976
-0.261807
0.00853723
0.00233392
0.00969924
-0.00960125
-9.79871e-05
0.0420275
-0.0391778
-0.294694
0.208109
-0.00123824
-2.2407e-05
0.00126065
-0.178681
0.133571
-0.111231
0.0826144
0.0286167
-0.00226295
0.00189584
0.163309
-0.199592
0.113904
0.0420206
0.116466
-0.0829353
0.00224008
0.00196749
-0.00420757
-0.00460123
0.00594432
-0.0013431
-0.0651645
-0.152868
0.218033
0.000171273
-0.00146658
0.00129531
0.0544611
-0.0200606
-0.0344005
0.0921144
-0.00940685
0.143779
0.0460339
-0.00361576
0.00386276
0.0831386
-0.123765
0.00267675
-0.0045438
0.00186706
-0.411692
0.0618504
0.349841
-0.364106
0.0602421
-0.449591
0.177136
0.272455
-0.357317
0.280894
0.076423
-0.170379
0.0703788
-0.126742
-0.0432058
-0.144074
-0.320666
0.0630413
0.322286
-0.0892915
-0.00487669
0.00355773
0.386464
-0.110725
-0.275739
0.150853
-0.0455903
-0.000894643
0.0105939
0.00268285
-0.00312785
-0.0242552
-0.0552247
0.07948
0.276457
-0.0991119
0.294886
-0.107648
-0.26652
-0.137542
0.0690458
-0.480737
-0.0106156
-0.110553
0.0177513
-0.0549644
-0.0833131
-0.00839304
-0.000263808
0.00865685
-0.0065049
0.00538959
0.0311488
0.237011
-0.0305999
-0.106368
-0.0441562
-0.16222
0.206376
0.515451
-0.243475
-0.00308265
0.0670528
-0.236934
0.0765354
0.0391291
-0.127398
0.413467
-0.286069
-0.117063
-0.0598764
0.184908
-0.125032
-0.437345
0.29362
0.107889
-0.133474
0.0255854
0.0180735
-0.095527
-0.156108
0.127229
0.0246101
-0.00495749
-0.287957
-0.0693593
-0.253739
0.23989
-0.00402996
0.0561323
-0.193881
0.105845
0.00991376
-0.00758364
-0.00331941
-0.0917344
0.0950538
0.073645
0.0772078
-0.0978159
0.0845678
-0.00392591
-0.007111
0.000889723
0.00280842
-0.237499
-0.0326932
0.270192
-0.00406994
0.00471004
-0.201421
0.1013
0.10012
0.00925569
-0.00448281
-0.151388
0.176627
-0.025239
0.00201144
-0.00154109
0.00745621
-0.00640094
-0.00221682
0.00105972
0.0185807
-0.0294517
-0.0378453
-0.135317
0.293245
-0.460288
0.159271
-0.037941
0.256277
-0.218336
-0.000506937
0.00222043
0.114587
0.068781
0.000622659
-0.00246378
0.00184542
-0.00443812
0.00395546
0.000482662
0.106831
-0.364907
0.258076
0.00285592
-0.00268465
0.00423234
-0.00277733
0.0702788
-0.435864
0.267706
-0.0642664
-0.127093
0.0395386
-0.245852
0.0887114
0.157141
0.0164095
-0.0137307
-0.072936
-0.120945
0.176772
-0.0231586
0.00473961
-0.276128
0.422682
0.00951859
-0.00915463
0.110287
0.106889
-0.225029
0.21513
-0.0178442
0.0877619
-0.0699177
-0.211743
0.0158775
-0.0031157
0.2589
-0.241336
-0.0175638
0.000585984
-0.345765
-0.0944548
0.00288624
-0.00227918
0.330019
0.124561
0.084698
0.199257
-0.283955
-0.0079179
0.00461168
-0.0421116
-0.0680314
0.110143
0.271157
-0.347886
0.14451
0.203376
-0.0172842
-0.0233296
0.0406139
0.2662
0.315019
-0.430345
0.115326
-0.008689
0.0075393
-0.172607
-0.0633475
0.235955
-0.0077316
0.00772223
9.36388e-06
0.0284656
0.0736738
-0.102139
-0.361323
-0.0989651
0.00776094
0.00187473
-0.00963567
0.00111116
-0.000899811
-0.000211354
-0.126312
0.0633143
0.0629979
-0.030688
0.138967
-0.108279
-0.175686
0.254003
0.00068902
0.168899
0.125987
-0.0741255
-0.0598603
-0.13108
0.449398
0.0519986
-0.0777078
0.0257092
-0.200266
0.14039
0.0880627
-0.325562
-0.119127
0.0926959
0.0264309
0.199597
-0.00117231
0.00772911
-0.0065568
-0.00204855
0.00384605
-0.0017975