/*--------------------------------*- C++ -*----------------------------------*\
| =========                 |                                                 |
| \\      /  F ield         | OpenFOAM: The Open Source CFD Toolbox           |
|  \\    /   O peration     | Version:  v2012                                 |
|   \\  /    A nd           | Website:  www.openfoam.com                      |
|    \\/     M anipulation  |                                                 |
\*---------------------------------------------------------------------------*/
FoamFile
{
    version     2.0;
    format      ascii;
    class       volScalarField;
    location    "250";
    object      k_0;
}
// * * * * * * * * * * * * * * * * * * * * * * * * * * * * * * * * * * * * * //

dimensions      [0 2 -2 0 0 0 0];


internalField   nonuniform List<scalar> 
18232
(
0.0170446
0.000150342
0.000145907
0.000149114
0.000166358
0.000185326
0.000149019
0.000148812
0.000165329
0.000165877
0.000149114
0.000175379
0.000164001
0.00783446
0.000158153
0.000204469
0.00014792
0.000149409
0.000148233
0.00017491
0.000196273
0.000149277
0.000149027
0.000149916
0.000156365
0.000156687
0.000146481
0.000184758
0.000149396
0.000145957
0.00014982
0.0493332
0.000148706
0.075985
0.000165906
0.000184086
0.0080565
0.000148759
0.00381694
0.000149803
0.0750469
0.000171005
0.000169158
0.0100331
0.000147006
0.00014531
0.000147426
0.000171722
0.000178001
0.000146653
0.00014816
0.000149154
0.0479647
0.000167228
0.000169408
0.000182118
0.000148075
0.000148705
0.0283571
0.000147997
0.000157926
0.000146963
0.000155222
0.00014908
0.000182276
0.000150866
0.0198155
0.0483837
0.000146404
0.000155468
0.000148087
0.000146411
0.0487007
0.000200295
0.000183857
0.000192778
0.000151996
0.000150225
0.00915772
0.000149368
0.046766
0.000177364
0.000168605
0.000150308
0.000225559
0.000182063
0.000146054
0.000148233
0.00017757
0.000172691
0.000148232
0.000146474
0.000149754
0.000182322
0.000148235
0.000155434
0.000147448
0.000148996
0.00023275
0.000146564
0.000159541
0.000166892
0.000202089
0.000161128
0.000182577
0.000155401
0.000146009
0.000188888
0.000149364
0.000154857
0.000150629
0.000195141
0.000146664
0.000148915
0.000148166
0.000157077
0.000178629
0.000252234
0.000168863
0.000157441
0.000147878
0.000148705
0.000192912
0.000188886
0.0063643
0.000168721
0.000203309
0.000144597
0.000195838
0.000196014
0.000145957
0.000149364
0.000169095
0.000145025
0.0533692
0.000191632
0.000178212
0.000149573
0.000148215
0.00242893
0.000168943
0.000155266
0.0155967
0.000147584
0.00016457
0.000161313
0.000157561
0.000149896
0.00201887
0.000172628
0.000229385
0.000170198
0.000178654
0.000152031
0.00017201
0.0820513
0.000198943
0.000181654
0.000169733
0.000148226
0.000150366
0.000145002
0.000146532
0.0233222
0.0013181
0.000148855
0.000164133
0.0166435
0.000152554
0.000240955
0.000146432
0.000148882
0.000145982
0.000149384
0.000150311
0.00683377
0.000150586
0.000149835
6.74178e-05
0.000148344
0.000174662
0.00230112
0.000146455
0.000201879
0.00784694
0.000149948
0.000149312
0.000295946
0.000149736
0.0183044
0.000153679
0.000147395
0.00016542
0.00117216
0.000147543
0.000148548
0.000146522
0.000149534
0.000146058
0.000145361
0.000149824
0.000159302
0.000159832
0.000176691
0.000188468
0.000437302
0.000191355
0.0350495
0.000172362
0.000166706
0.00014648
0.000157411
0.000159226
0.000220699
0.000173909
0.000158853
0.000179973
0.000146524
0.000146055
0.000148974
0.00106201
0.000147996
0.000509298
0.000153626
0.000147297
0.000146338
0.000172857
0.000149916
0.000148344
0.000148815
0.000148512
0.000152613
0.0185857
0.000198911
0.000148692
0.00025466
0.000150372
0.000203464
0.000146743
0.000148986
0.000148551
0.00498952
0.000204903
0.000160395
0.00867749
0.000221699
0.000149693
0.0318041
0.0417607
0.000153664
0.00018453
0.000182448
0.000146302
0.000172072
0.000148442
0.000190045
0.000201325
0.000355246
0.000260162
0.000174816
0.000152512
0.000166819
0.000174005
0.000149783
0.000146007
0.000149601
0.0104035
0.000169466
0.000182464
0.000189039
0.000149469
0.077196
0.000173362
0.000146313
0.000146345
0.0206812
0.000167964
0.000149938
0.000148946
0.00274363
0.0110779
0.000157367
0.000149262
0.0128691
0.000178714
0.000150401
0.000164362
0.0102589
0.000155771
0.000178188
0.000147399
0.000170042
0.0188607
0.000176014
0.000170888
0.000188144
0.013444
0.000148772
0.000146927
0.00015507
0.000155711
0.000149141
0.000115985
0.000183815
0.000149212
0.000148712
0.000189801
0.000162883
0.000147989
0.000637119
0.000160581
0.000147747
0.000190756
0.000151282
0.000149447
0.000164728
0.014599
0.000145024
0.000225239
0.000148213
0.00830871
0.000157046
0.000184303
0.00017525
0.00015891
0.000150378
0.00019915
0.000156792
0.00016645
0.00015591
0.000166465
0.000147723
0.0001776
0.000311396
0.000175475
0.0541712
0.000189995
0.00262395
0.000146413
0.000166257
0.000148847
0.000187792
0.000149773
0.000144318
0.000144983
0.000184453
0.0157045
0.00016384
0.000190103
0.0001504
0.000206784
0.000158855
0.000158794
0.000146148
0.000169425
0.000163651
0.000183113
0.0132136
0.000148584
0.000147842
0.000192797
0.000168615
0.0235561
0.000150501
0.0215516
0.000153858
0.000164365
0.0133946
0.00015491
0.000837818
0.00018866
0.00018542
0.000150547
0.111268
0.000145387
0.000146549
0.000147858
0.000146322
0.000224427
0.0043556
0.000162306
0.000169628
0.000149835
0.000149586
0.046568
0.000166137
0.000148989
0.000146288
0.000148495
0.000158874
0.000170535
0.000164791
0.00336709
0.000166758
0.00859114
0.000154073
0.000186776
0.000146486
0.000177879
0.000146422
0.00018584
0.000190084
0.000196005
0.000444402
0.00016918
0.000148631
0.000165018
0.000149094
0.000148801
0.000181375
0.00796864
0.103055
0.000162521
0.000156799
0.00782549
0.000176939
0.000147381
0.00014958
0.00356261
0.000149705
0.000160119
0.000163861
0.000178704
0.000145682
0.006089
0.000180022
0.000184213
0.00017667
0.000164123
0.000174954
0.000144968
0.00017773
0.015422
0.000149758
0.000177178
0.000147865
0.0001482
0.000148822
0.000156616
0.000149113
0.000159524
0.000183543
7.58868e-05
0.00016956
0.000149121
0.000169011
0.000153812
0.000149409
0.000181918
0.000163656
5.06665e-05
0.000150669
0.000144582
0.000147773
0.00019864
0.000147057
0.049344
0.000149632
0.000172842
0.000161571
0.000145737
0.000178625
0.00015364
0.000195368
0.000145903
0.000148891
0.000145473
0.000156462
0.000163729
0.000161446
0.000147419
0.000132854
0.000179525
0.000198652
0.000165369
0.000166891
0.000149117
0.000184869
0.052161
0.000152667
0.000173396
0.000157346
0.000147839
0.000179235
0.00014962
0.000166171
0.000153731
0.000152326
0.0103137
0.000166569
0.000148013
0.000182481
0.000147092
0.000156503
0.000168622
0.000179455
0.000145306
0.000187763
0.000197488
0.000148064
0.00014905
0.000153671
0.000152489
0.000180059
0.0152786
0.000174541
0.000147928
0.000150241
0.00014659
0.00014788
0.000534911
0.000150899
0.000156623
0.00872072
0.000144705
0.000147949
0.000148924
0.000172127
0.000150467
0.000146579
0.000152187
0.000150533
0.000155125
0.0485049
0.00910666
0.000148029
0.000146119
0.000147382
0.000153406
0.0144164
0.000148073
0.000202156
0.000180177
0.000168627
0.0513673
0.000146533
0.000195621
0.000147405
0.000520876
0.00018521
0.000150345
0.000170273
0.000146558
0.000144573
0.000148134
0.000170082
0.00954669
0.000168446
0.000146964
0.00017521
0.000168398
0.000145314
0.000150661
0.000148009
0.0117334
0.0339188
0.000148395
0.000153638
0.000148852
0.000194972
0.000228178
0.000149828
0.000167637
0.000149256
0.000193392
0.00014742
0.000145285
0.000210352
0.000186129
0.000173368
0.000148286
0.000148207
0.00877233
0.000153498
0.000146668
0.000149125
0.0379659
0.000157315
0.000216705
0.00014644
0.0215243
0.000147527
0.000254301
0.000178569
0.00014664
0.000172254
0.000147477
0.000172065
0.00286564
0.0280005
0.000145271
0.00014823
0.000178926
0.000146109
0.000530765
0.000149036
0.000156599
0.0538506
0.000414156
0.00015506
0.000149092
0.000145259
0.0664885
0.000178037
0.000145078
0.000161133
0.000148126
0.0102086
0.000148283
0.000166362
0.00014683
0.000147751
0.000168717
0.000164062
0.000160216
0.000147819
0.000146417
0.00762782
0.00014781
0.000148548
0.000147505
0.000149302
0.000200131
0.00912474
0.000166776
0.00017446
0.000171803
0.0871933
0.000151976
0.000149101
0.000147975
0.000148267
0.00014876
0.000146343
0.0053043
0.0132999
0.00259629
0.00926536
0.000215916
0.000169658
0.000183265
0.000191261
0.000149789
0.000189293
0.000148034
0.000168454
0.000178384
0.0856112
0.000156436
0.000149546
0.0133879
0.00014942
0.000155981
0.000153398
0.00871236
0.000173832
0.00014754
0.000186921
0.000180001
0.000199542
0.000153994
0.000146608
0.000154353
0.000177695
0.000147543
0.000188659
0.000164012
0.000145918
0.000148884
0.000147727
0.000146826
0.0360835
0.00885695
0.000148575
0.00868972
0.000169863
0.00914649
0.000188801
0.00014844
0.0885874
0.000156492
0.000157056
0.0189417
0.000148804
0.000156138
0.0049091
0.000171673
0.000148342
0.000158383
0.000369462
0.000149914
0.000146834
0.000206857
0.000155458
0.000160588
0.000171183
0.0128907
0.000158188
0.000170858
0.0415187
0.00018217
0.0226182
0.00017192
0.0332407
0.000168748
0.000147398
0.00715823
0.000148988
0.000147719
0.000146504
0.0705962
0.000169773
0.000148256
0.00378703
0.000149788
0.000170784
0.000162398
0.00785554
0.000175478
0.000169162
0.000148752
0.000145657
0.000147766
0.0644368
0.000185125
0.000287682
0.000149781
0.00018613
0.000149127
0.000148992
0.000158986
0.000146034
0.000151741
0.000154483
0.00015929
0.000149804
0.00271297
0.00014639
0.000159813
0.00790002
0.000170384
0.0346261
0.000145604
0.000188829
0.101306
0.00014501
0.0392766
0.000167641
0.039528
0.000193431
0.00767114
0.000146802
0.000153738
0.000149227
0.000176661
0.00025623
0.000187673
0.000149325
0.00014923
0.0151116
0.0547446
0.00019161
0.000146679
0.000169825
0.000145942
0.000166883
0.0647557
0.000159055
0.0604589
0.000150786
0.000155642
0.0297155
0.000450698
0.000153919
0.000146876
0.000171299
0.00535177
0.000162285
0.000145184
0.000177369
0.000198185
0.00016806
0.000153185
0.000184472
0.000149215
0.000149758
0.000334157
0.00016636
0.0170992
0.000211496
0.000173701
0.000174857
0.00864201
0.000148646
0.000156875
0.000165737
0.000621835
0.000151014
0.000171094
0.00697668
0.000158981
0.00762806
0.000146875
0.000149259
0.000148567
0.000160967
0.000148889
0.000440345
0.00016776
0.000152171
0.00805117
0.000171791
0.0196695
0.0285393
0.000169589
0.000205206
0.000187297
0.000150059
0.000146621
0.000176137
0.0186193
0.000163365
0.000166254
0.000198426
0.000153255
0.000154135
0.000149218
0.0420497
0.000148325
0.000200242
0.000179028
0.000147482
0.000783177
0.000160878
0.0453194
0.000149342
0.000146657
0.000146463
0.000191142
0.00014631
0.000168594
0.000147473
0.0885663
0.000150196
0.000216365
0.000189032
0.000156524
0.000146726
0.000151798
0.000174521
0.000147325
0.000151918
0.000228631
0.0738056
0.000158353
0.000203171
0.000148773
0.00014627
0.000156289
0.000149187
0.00015601
0.00016893
0.000160899
0.000162188
0.000149789
0.000160617
0.000160492
0.000149658
0.0399618
0.000184335
0.000149298
0.000146788
0.000201414
0.00122654
0.000145192
0.00803744
0.000147995
0.000146489
0.000148181
0.0158769
0.000207533
0.000183002
0.000189403
0.000193413
0.000148746
0.00116362
0.0473551
0.00700771
0.000158604
0.000156961
0.00019615
0.0001737
0.000149813
0.000182663
0.000189839
0.000186166
0.000145392
0.00014855
0.000152222
0.000147028
0.000149837
0.00829221
0.000186305
0.000146441
0.000145223
0.0450791
0.000154203
0.0201151
0.000148253
0.000148705
0.000105611
0.000154785
0.000164624
0.000148972
0.000145304
0.00014753
0.000148939
0.0805818
0.000148142
0.000148759
0.000145374
0.000147816
0.0540228
0.000147441
0.000162221
0.00014638
0.000182928
0.000169952
0.00014906
0.000212242
0.00109726
0.000146552
0.000149273
0.00015728
0.000147316
0.000147404
0.000144641
0.000149853
0.000176531
0.000164305
0.000156778
0.000175182
0.00017813
0.000149222
0.000147967
0.00589963
3.55078e-05
0.000170713
0.00016383
0.000188823
0.000149569
0.000148729
0.0344059
0.0787623
0.000159505
0.000147078
0.000171517
0.0384053
0.00014692
0.000160315
0.0539258
0.0084536
0.000165702
0.000161049
0.000155695
0.00642166
0.000149142
0.000149955
0.000187252
0.0183799
0.0213686
0.000183823
0.000167052
0.000149474
0.000146218
0.000147558
0.000160192
0.000193199
0.0001471
0.0480615
0.000152924
0.00019505
0.0170719
0.000146484
0.000171854
0.000149446
0.000151831
0.000147661
0.000167134
0.000149673
0.000147812
0.000157223
0.00678353
0.000156436
0.000211061
0.000148376
0.000150515
0.000168329
0.000173356
0.00016
0.00717621
0.00016128
0.000182482
0.000148784
0.00741279
0.00410648
0.000188835
0.000166545
0.00794785
0.000148315
0.0470616
0.000167828
0.000146282
0.000180201
0.00581855
0.08879
0.000152691
0.000157059
0.000188038
0.000149785
0.000176033
0.000146431
0.00919825
0.000144599
0.000175497
0.000156852
0.000197003
0.000149699
0.000150282
0.000174173
0.000149167
0.000170175
0.0496386
0.00014694
0.000148428
0.000145436
0.000160041
0.000173151
0.000155274
0.00015169
0.000167936
0.000151182
0.000271103
0.000164086
0.000165598
0.000152002
0.000151837
0.0947001
0.000172597
0.000146566
0.000208769
0.000658825
0.040372
0.0291214
0.0274723
0.000168026
0.000146629
0.00014978
0.000151478
0.000147543
0.000185345
0.0245236
0.000169728
0.000147262
0.000164501
0.0506828
0.000135818
0.000147731
0.000154321
0.0101605
0.000177057
0.00016867
0.000163128
0.000148736
0.000149191
0.000158535
0.00677619
0.0001454
0.0409687
0.00014757
0.00014867
0.0239832
0.000207208
0.000150776
0.000145908
0.000159041
0.000175027
0.000178143
0.000196539
0.000148247
0.000147287
0.000148284
0.00927592
0.000166191
0.000161118
0.000187722
0.000152904
0.000146693
0.000147973
0.000168307
0.000203528
0.000145959
0.000165169
0.000155934
0.000149546
0.000145952
0.000146337
0.000145594
0.000145979
0.000181388
0.000147597
0.000194646
0.000155509
0.000161224
0.000164701
0.000155652
0.000147595
0.0093535
0.000149963
0.0396811
0.000149592
0.000154425
0.000173115
0.000148888
0.0381593
0.000145969
0.000174266
0.0509192
0.00361358
0.000160831
0.000158586
0.000147013
0.0826574
0.000187546
0.000147286
0.000148381
0.000148214
0.0880566
0.000159244
0.0041079
0.0128609
0.000148229
0.00014923
0.000149894
0.0897321
0.000177748
0.000183261
0.000178657
0.000170234
0.000368355
0.000148849
0.000183032
0.0458395
0.0193258
0.000148248
0.000149801
0.000192983
0.0461123
0.000184402
0.000176047
0.000148606
0.000182143
0.000147007
0.000147041
0.000165092
0.0480118
0.000149882
0.000146393
0.000145404
0.0001473
0.000215812
0.000145158
0.000178475
0.00014545
0.000159157
0.000206355
0.000149739
0.000145942
0.000174618
0.000148826
0.000154957
0.0001596
0.00888074
0.000166868
0.000148994
0.000174722
0.000175002
0.000144299
0.000158519
7.26907e-05
0.0057209
0.000178464
0.000168622
0.000168432
0.000150928
0.0001629
0.000146221
0.000149529
0.00014692
0.000160083
0.000148649
0.000159448
0.000175449
0.0173897
0.000149657
0.000215024
0.000147746
0.000149208
0.000165947
0.000147428
0.000169866
0.000147724
0.000238162
0.000172933
0.000149267
0.000171953
0.000171092
0.000161776
0.000150092
0.0517939
0.000148659
0.000146252
0.000165602
0.000175353
0.000147866
0.000148317
0.000194453
0.000147688
0.000149247
0.000148871
0.000150279
0.00016905
0.000146124
0.000159314
0.0222951
0.000164484
0.000164256
0.000144636
0.000154317
0.000145048
0.000146015
0.000165341
0.000158653
0.000147493
0.000176742
0.0202619
0.00148046
0.00015733
0.000164353
0.000177249
0.0702193
0.000155525
0.000149098
0.000174495
0.000179195
0.000149904
0.000674229
0.000146485
0.0688311
0.0634746
0.00815916
0.000958743
0.0576021
0.000180954
0.00018186
0.000149184
0.000148782
0.000148264
0.00018292
0.000195938
0.000207422
0.000192322
0.000145544
0.000145518
0.000148282
0.000190603
0.000144299
0.000153926
0.000108794
0.00018885
0.000137415
0.000149282
0.000147256
0.0517264
0.0364705
0.000155083
0.000145621
0.000197611
0.00018574
0.000175778
0.000147704
0.000148562
0.000171743
0.000149724
0.000145352
0.000553491
0.000180337
0.000149085
0.038257
0.000149838
0.000150532
0.000168748
0.000167203
0.000145408
0.000213472
0.000155228
0.000167421
0.000145344
0.000206299
0.000145888
0.000152615
0.000144425
0.000175047
0.000184483
0.00015923
0.000146076
0.000146284
0.00018418
0.000225752
0.000165678
0.000146572
0.000149853
0.00230337
0.000145325
0.00016031
0.000151814
0.000185124
0.000147977
0.000144661
0.000160497
0.000214275
0.000205241
0.000200962
0.000150029
0.00365168
0.000148561
0.012227
0.000183334
0.000148684
0.00016164
0.000165347
0.000150737
0.000273228
0.000148682
0.000157062
0.000145904
0.000148962
0.0584121
0.000150887
0.000173581
0.000151974
0.000170145
0.000149357
0.000193191
0.000164598
0.000159545
0.00018418
0.000190036
0.00018734
0.0269981
0.000148234
0.000182814
0.000160435
0.000146581
0.000147514
0.000197095
0.000148518
0.0351658
0.000197425
0.000162813
0.0499858
0.00014649
0.000146985
0.000148088
0.00017625
0.000171147
0.000148962
0.000163751
0.000174646
0.000145836
0.00014544
0.000146603
0.000173478
0.000149726
0.0971527
0.0104027
0.000144714
0.000216617
0.000191655
0.000313768
0.000145811
0.000148809
0.000146684
0.000163262
0.000147461
0.000171182
0.00015008
0.000157141
0.000149796
0.00014637
0.00014744
0.000165868
0.000144466
0.00015991
0.000162957
0.000167189
0.000173936
0.000147203
0.000158212
0.00825693
0.00018022
0.000160664
0.000209174
0.000146859
0.00217185
0.0872716
7.97455e-05
0.000150452
0.000149879
0.000149033
0.000148696
0.000146919
0.000149166
0.000150727
0.000158454
0.0535718
0.000163273
0.000146157
0.000616004
0.000640058
0.000162715
0.000189427
0.000167718
0.000152085
0.0001896
0.000185656
0.000162716
0.00014821
0.00016324
0.00016088
0.000154868
0.000243775
0.000148251
0.00014991
0.000147396
0.000147346
0.0609076
0.000158962
0.000147362
0.000148717
0.00142432
0.000146901
0.000159589
0.039674
0.000146781
0.000153577
0.0246966
0.000182736
0.000217433
0.000149574
0.000149161
0.000147567
0.000178859
0.0261223
0.000164117
0.000149746
0.000148496
0.000177333
0.062627
0.000152784
0.000149836
0.000181892
0.00125829
0.000145971
0.00018699
0.000166167
0.000180595
0.00014608
0.00774919
0.0157743
0.000147846
0.000222628
0.00573025
0.000152752
0.00794443
0.000161605
0.0406953
0.0895933
0.00017013
0.00014753
0.0439998
0.00972443
0.000151599
0.0440214
0.000204455
0.000211638
0.000160474
0.000146982
0.000149524
0.000193678
0.000173683
0.000153513
0.000166157
0.0911741
0.000153841
0.000953169
0.000150557
0.000149738
0.000147015
0.00024565
0.000212811
0.000146327
0.00015044
0.000192531
0.000166917
0.000171209
0.000146394
0.000145821
0.000415298
0.000162368
0.000147476
0.000148935
0.000146747
0.00014768
0.000197451
0.000177809
0.000154515
0.000149308
0.000146874
0.000158355
0.000147799
0.00014579
0.000159991
0.000148254
0.000149257
0.0162459
0.000184326
0.000148158
0.00015876
0.000190409
0.000154702
0.00019772
0.000175425
0.00016847
0.000169792
0.000145818
0.000154413
0.000148517
0.000146533
0.000150345
0.00809895
9.37827e-05
0.000146509
0.000145008
0.000150599
0.00014994
0.000154345
0.00015486
0.000186499
0.00043438
0.000144295
0.000179113
0.000147434
0.000177255
0.000208421
0.000161561
0.000148355
0.000154206
0.000159007
0.00014934
0.000182583
0.000160682
0.00915528
0.000165143
0.000148454
7.07635e-05
0.000145117
0.000109553
0.0590627
0.000197128
0.000148251
0.000148721
0.000149842
0.0476077
0.000161375
0.000189443
0.0793136
0.00017573
0.000194551
0.000146709
0.000147983
0.000146972
0.000153027
0.000144058
0.000187969
0.000161778
0.000181674
0.000152475
0.000149748
0.0292911
0.00014853
0.000147738
0.000152015
0.000160253
0.000486778
0.0110382
0.000167542
0.000153034
0.000181703
0.000178702
0.00016513
0.0404376
0.000154545
0.000183174
0.000160227
0.000520593
0.000163013
0.000147422
0.00019158
0.000146772
0.000189409
0.000146102
0.000146614
0.000152074
0.000149836
0.00014844
0.000170261
0.000187276
0.000170174
0.000181826
0.000190463
0.000148447
0.000146269
0.000172055
0.000157329
0.000179383
0.000167746
0.00021901
0.0493007
0.000167519
0.000213673
0.00848903
0.00015876
0.000174991
0.000163548
0.000162858
0.0503204
0.00018211
0.000151797
0.000170832
0.000148292
0.000208521
0.000175198
0.00014685
0.00016708
0.000164434
0.0448022
0.000146255
0.00473144
0.000180812
0.0238768
0.000327309
0.000163151
0.000261726
0.0001675
0.00020644
0.00014436
0.000198793
0.0857211
0.000144267
0.00016087
0.000155886
0.000519033
0.00017301
0.00014925
0.000167737
0.000186392
0.000175931
0.000162878
0.000147323
0.000150749
0.0607244
0.000179918
0.000152011
0.00790909
0.000173942
0.00347664
0.000185275
0.000160329
0.000175553
0.00014869
0.000170847
0.000191578
0.000171762
0.00014501
0.00016683
0.000170755
0.000147428
0.000181087
0.000157548
0.000158048
0.000148773
0.000147395
0.00018457
0.000148892
0.000146849
0.000193251
0.000149699
0.000148072
0.000146293
0.000171151
0.000153497
0.000146817
0.000213805
0.000197073
0.000183662
0.000205433
0.00014862
0.000148681
0.00346086
0.000151544
0.00016475
0.000205854
0.000145788
0.00014777
0.000148956
0.000185709
0.000167618
0.000153045
0.000176268
0.00017054
0.000149208
0.000154544
0.00810568
0.00016854
0.00015203
0.0585657
0.000160674
0.000196381
0.000148147
0.000187727
0.000198638
0.000237643
0.00014743
0.000145771
0.000177269
0.000148885
0.000147798
0.0608125
0.00017053
0.000175089
0.000163791
0.00014699
0.000194706
0.000161551
0.000146638
0.0468493
0.00014771
0.000184385
0.000176607
0.000314061
0.0498218
0.000147194
0.000149699
0.000148478
0.000147433
0.000171469
0.000189758
0.0189675
0.000149368
0.000146905
0.000187074
0.000149225
0.000144565
0.000189237
0.0157938
0.000500462
0.000145404
0.000147797
0.000156308
0.000145124
0.000163064
0.000188903
0.000189287
0.000170631
0.000226914
0.00406539
0.000162692
0.09922
0.00014934
0.000170023
0.000166028
0.000191625
0.00014909
0.000151832
0.000211481
0.000185328
0.00017493
0.000150279
0.000171861
0.000152112
0.00801774
0.000155917
0.000158707
0.041261
0.000162854
0.000196135
0.000147164
0.000149803
0.0151229
0.000187318
0.00358474
0.00214281
0.00015903
0.000150074
0.000170651
0.000153039
0.000153769
0.000616331
0.00016682
0.000144683
0.000149658
0.000164075
0.000146725
0.000188762
0.000186658
0.000145081
0.000162085
0.000159551
0.000146233
0.000178522
0.000152067
0.000174974
0.00142807
0.000164347
0.000178882
0.000165567
0.000185664
0.0384599
0.000183754
0.0680232
0.000211224
0.000148464
0.0288568
0.000155632
0.0434744
0.000174324
0.000151802
0.000147546
0.000147407
0.00968051
0.000146524
0.000147907
0.000146405
0.000149198
0.000160116
0.000148615
0.000163234
0.000162403
0.000145115
0.0372649
0.000141038
0.00019519
0.000177873
0.000186882
0.00408745
0.00127782
0.000148708
0.056255
0.000190271
0.00845721
0.000148271
0.000168002
0.000186272
0.000148853
0.0257899
0.000148714
0.0802289
0.000158308
0.000147254
0.000165546
0.000147928
0.000155904
0.000163498
0.000176014
0.000189912
0.00014759
0.000153956
0.000170076
0.000162803
0.00018882
0.000217754
0.000182847
0.00752886
0.000189522
0.00014743
0.0619034
0.000210214
0.0299719
0.000148322
0.000170485
0.000150423
0.000149812
0.000148144
0.000154335
0.000187428
0.000147948
0.000149288
0.000136262
0.000163315
0.00016345
0.000176221
0.000158542
0.000153613
0.000214581
0.00014683
0.000149028
0.000158182
0.000163344
0.00018857
0.0472827
0.000289928
0.000169557
0.000188719
0.00779726
0.0894331
0.000146647
0.0526696
0.000220787
0.000149374
0.000190349
0.000176794
0.000512496
0.000176727
0.000148766
0.00692395
0.00101204
0.000144263
0.00332754
0.000184866
0.000158481
0.000216955
0.000152681
0.0490411
0.000152414
0.000184567
0.000154723
0.000149835
0.000146989
0.000174584
0.000166394
0.000201914
0.000168056
0.00437173
0.000182498
0.00934148
0.000196716
0.00018416
0.000145865
0.0403757
0.000150946
0.00253887
0.000149358
0.000169974
0.000197645
0.000187401
0.000181463
0.000244396
0.000148881
0.00908509
0.000188878
0.000172564
0.000177776
0.000160298
0.000181724
0.00764159
0.000145552
0.000149935
0.000150217
0.000147341
0.000189406
0.0574792
0.000149767
0.000202461
0.000162244
0.0518888
0.000146889
0.000147616
0.000160687
0.000159273
0.000352729
0.000187691
0.00011382
0.000146401
0.000148613
3.22246e-05
0.000149167
0.000146568
0.000148934
0.000181445
0.000147869
0.000149365
0.000146627
0.000145878
0.000170528
0.0715416
0.00018769
0.000146885
0.0496711
0.000146251
0.000163874
0.000151815
0.000163253
0.00113274
0.000146571
0.0888205
0.000148714
0.000198957
0.000163869
0.000144493
0.000149711
0.000192942
0.000147163
0.000172032
0.000162201
0.000163444
0.000148951
0.000149369
0.00905616
0.000166854
0.00539091
0.0197693
0.000152529
0.000206943
0.00016782
0.000164397
0.000148982
0.000166561
0.00605757
0.000144285
0.00016851
0.000153722
0.000153328
0.000147921
0.000213317
0.000175818
0.000152731
0.000148697
0.000156376
0.000158502
0.000159705
0.00014822
0.000146358
0.000145805
0.000147463
0.000175746
0.00015873
0.0156857
0.000145734
0.000189558
0.000149317
0.00016279
0.00014575
0.000173022
0.000159894
0.000172888
0.0131201
0.000163428
0.000150306
0.00016814
0.023125
0.000181199
0.000154131
0.000175099
0.000148008
0.00195272
0.0481675
0.000193483
0.000160236
0.0257245
0.000168237
0.000154512
0.000180535
0.000152343
0.0428947
0.00014754
0.000173248
0.000150791
0.000145852
0.000200804
0.00382326
0.000152188
0.000144629
0.000174644
0.00594752
0.000270372
0.00014846
0.000182628
0.000166059
0.000209603
0.000153642
0.00345346
0.000177855
0.000146247
0.000148978
0.00016641
0.0200987
0.000147513
0.000184981
0.049408
0.000161414
0.000154837
0.000180159
0.000164247
0.000161952
0.00889619
0.000147713
0.000156419
0.000148478
0.000146712
0.0001905
0.000179434
0.000199841
0.0357113
0.000148911
0.0967323
0.0001446
0.0402112
0.00016085
0.000146196
0.000147749
0.0540941
0.000145641
0.000152505
0.000152267
0.0525559
0.000156214
0.000153943
0.000176018
0.000154028
0.000149265
0.000146785
0.000150615
0.00972033
0.000148491
0.000174698
0.000209072
0.000146556
0.0356694
0.000145485
0.000145514
0.00841938
0.00018102
0.00018716
0.000147456
0.000157873
0.000149845
0.000173601
0.000140453
0.000155016
0.000163011
0.000149519
0.0576759
0.000160078
0.000158514
0.000145665
0.000160234
0.000146687
0.000179702
0.000155145
0.000197839
0.000149404
0.0570749
0.000176203
0.000158532
0.000146967
0.0198969
0.00016348
0.00018954
0.00014958
0.000148801
0.000162664
0.01547
0.0488669
0.00438414
0.000147745
0.000148569
0.000167794
0.00814924
0.000170552
0.000186763
0.000149427
0.000180285
0.000183393
0.00373714
0.000160782
0.000165777
0.0157517
0.000150437
0.000243331
0.00017689
0.000147786
0.000158681
0.000163864
0.000178911
0.011425
0.000163339
0.000163889
0.000163593
0.000138111
0.000241488
0.000146557
0.000146236
0.0830656
0.000148969
0.000149617
0.000235492
0.000121553
0.000173391
0.00948539
0.000146414
0.00014885
0.00843513
0.000170121
0.000168118
0.000144817
0.000145872
0.000178272
0.000152323
0.000146486
0.000150812
0.000144205
0.000173101
0.000153502
0.000200488
0.000160587
0.0605089
0.000173416
0.000165774
0.000168521
0.00248785
0.000183182
0.000163521
0.000148866
0.000162235
0.000147817
0.000158774
0.000148802
0.00198917
0.000147452
0.000146668
0.00459767
0.000159207
0.000175269
0.0220394
0.00506863
0.000155566
0.000177152
0.0329044
0.001374
0.00715489
0.000149627
0.000151971
0.000188461
0.000148552
0.000162683
0.000158223
0.00924394
0.00018689
0.000213931
0.000145398
0.000161241
0.000167883
0.000207077
0.000144175
0.000147294
0.00722488
8.90378e-05
0.000148414
0.000145534
0.000144918
0.000186549
0.000166378
0.000190012
0.000150007
0.00313084
0.000158972
0.000137022
0.000149839
0.000175073
0.000156005
0.00014642
0.000167197
0.000149164
0.000184802
0.000158838
0.000176108
0.00027028
0.000193636
0.000220733
0.000148124
0.0081093
0.00017017
0.0475533
0.000174941
0.000184818
0.000160745
0.000189949
0.0510599
0.00016767
0.000147188
8.62231e-05
0.0234318
0.000147084
0.000147173
0.000148747
0.000154463
0.000190511
0.000158993
0.000145751
0.000154371
0.000189889
0.0001565
0.000149399
0.000148932
0.000156354
0.000149253
0.00018401
0.000145012
0.000146616
0.00017901
0.000148521
0.00956166
0.00016292
0.000147928
0.000144505
0.000184725
0.000145581
0.000192096
0.0125311
0.000148339
0.00916254
0.000154158
0.000146674
0.00019107
0.00014911
0.000535603
0.000177399
0.000160579
0.000167473
0.00025642
0.000148024
0.000226553
0.000169924
0.000166663
0.000177775
0.00852465
0.00016735
0.000145629
0.00014855
0.000148842
0.0405117
0.00014847
0.000145651
0.000184383
0.000240333
0.00898244
0.0868653
0.000145884
0.000155486
0.0100285
0.000198598
0.0513494
0.00851985
0.00112315
0.000148176
0.00018628
0.000149179
0.000148749
0.00844031
0.0453262
0.000387797
0.0352975
0.000179412
7.10069e-05
0.000155048
0.000148535
0.00835968
0.000149339
0.000176539
0.000165649
0.000148153
0.0191458
0.000149263
0.000153335
0.000167591
0.000191376
0.000151868
0.000152732
0.000166355
0.000145369
0.0366065
0.000146542
0.000150342
0.000145764
0.00016328
0.000145913
0.00015325
0.00887457
0.000191001
0.000188824
0.0708161
0.0347936
0.000221436
0.000180591
0.0571947
0.000147433
0.00752331
0.0099273
0.00017439
0.000145407
0.000154678
0.000179616
0.000166809
0.000158103
0.000146923
0.000148901
0.00017286
0.000180228
0.000218586
0.000160731
0.000189145
0.00525961
0.000178507
0.000146827
0.000169861
0.000181031
0.000176713
0.000177147
0.0394465
0.000147454
0.000182845
0.0281021
0.00891693
0.00018153
0.000145467
0.000153832
0.000150068
0.000183199
0.000149358
0.000150675
0.000149109
0.000150434
0.000147643
0.000164916
0.0001497
0.000147276
0.0556757
0.000148509
0.000181536
0.000150841
0.00804383
0.000180348
0.0163945
0.000158676
0.000148834
0.000152406
0.000145436
0.00014799
0.000148687
0.000157421
0.000191642
0.000179524
0.000187438
0.000145136
0.00014912
0.000149303
0.000171233
0.000163133
0.00043369
0.000199241
0.00811344
0.000182556
0.000174338
0.000178043
0.000181642
0.00952909
0.000146759
0.000150838
0.000199874
0.0489552
0.00671111
0.000215765
0.00930626
0.00016377
0.000163412
0.000148722
0.000145705
0.00016576
0.000184901
0.00014764
0.00816563
0.000182484
0.078295
0.000177698
0.00260638