/*--------------------------------*- C++ -*----------------------------------*\
| =========                 |                                                 |
| \\      /  F ield         | OpenFOAM: The Open Source CFD Toolbox           |
|  \\    /   O peration     | Version:  v2012                                 |
|   \\  /    A nd           | Website:  www.openfoam.com                      |
|    \\/     M anipulation  |                                                 |
\*---------------------------------------------------------------------------*/
FoamFile
{
    version     2.0;
    format      ascii;
    class       volScalarField;
    location    "250";
    object      omega_0;
}
// * * * * * * * * * * * * * * * * * * * * * * * * * * * * * * * * * * * * * //

dimensions      [0 0 -1 0 0 0 0];


internalField   nonuniform List<scalar> 
18232
(
39.368
0.022298
0.0217091
0.0221236
0.0413784
0.138001
0.0221034
0.0221372
0.0395484
0.0400712
0.0221406
0.0463875
0.0359068
7.3895
0.0296944
0.208373
0.022015
0.0222189
0.0219612
0.064981
0.241301
0.0221987
0.0221128
0.0224025
0.0273022
0.0277277
0.0217582
0.131754
0.0222171
0.0217159
0.0222754
14.6213
0.0221061
16.3079
1.6584
0.125034
9.99033
0.0221296
4.27349
0.0222728
12.6097
0.0393292
0.0483036
8.3387
0.0218881
1.10321
0.0217477
0.0404615
0.0749943
0.0216648
0.0220115
0.0221842
13.2463
0.0348294
0.0411172
0.078806
0.0220302
0.0220787
16.0285
0.0218229
0.0292702
0.0218817
0.0250885
0.0221241
0.0602775
0.0225879
13.855
11.938
0.0217512
0.0253319
0.0220306
0.0217953
14.1463
0.284626
0.0626299
0.159146
0.0232658
0.0225006
28.0101
0.0222221
9.68315
0.0502678
0.0361603
0.022517
1.6263
0.0782615
0.021732
0.0219626
0.0507062
0.0434825
0.0219617
0.0217518
0.0222663
0.0769184
0.0219647
0.0253307
0.0219151
0.0221146
1.14768
0.0217238
0.0326699
0.034398
0.250437
0.0350497
0.11425
0.0261901
0.0217208
0.0824308
0.0222114
0.0248542
0.0225051
0.174958
0.0216715
0.0220788
0.0220147
0.0259549
0.0522078
1.53368
0.0388288
0.0262365
0.0220037
0.0221223
0.479995
0.162209
8.5593
0.0466845
0.129369
0.0215313
0.23141
0.178875
0.0217069
0.0222201
0.0391742
0.0215468
9.67381
0.150626
0.0763844
0.0222415
0.0218568
3.74761
0.040271
0.0260641
4.68279
0.0219333
0.034456
0.0312958
0.028538
0.0222857
4.63058
0.0614318
1.02614
0.0382306
0.0527829
0.0233222
0.0424053
9.25236
0.133895
0.0590472
0.0815461
0.0218588
0.0223037
0.0215428
0.0217596
10.1993
4.86471
0.0220462
0.0446411
4.84134
0.0238709
0.949091
0.021736
0.0221467
0.021711
0.0222277
0.0225127
24.3113
0.0226167
0.0222774
1.14288
0.0220342
0.0685731
3.34622
0.0218022
0.25126
26.5395
0.0222929
0.0221845
2.1383
0.0222636
13.7471
0.0246651
0.0218645
0.0395889
3.32822
0.0219321
0.0220179
0.0216575
0.0222544
0.0216861
0.0216302
0.0222759
0.0278225
0.0333237
0.155377
0.0804547
3.62948
0.264609
7.79939
0.0609831
0.035118
0.0217445
0.0286094
0.0321069
0.775977
0.207451
0.0274034
0.0557164
0.0217538
0.0217274
0.0221087
3.08432
0.0218254
4.58767
0.0240963
0.0218173
0.0217294
0.0628194
0.0224032
0.0220373
0.022128
0.0220066
0.0239275
4.55988
0.132155
0.0221025
1.90638
0.0225513
0.137003
0.0216724
0.0221612
0.0220132
4.18979
0.142331
0.0337533
11.8764
0.994853
0.022258
18.4439
17.8987
0.0242594
0.0862572
0.0821709
0.0216888
0.0605109
0.0220006
0.370687
0.285133
3.73206
1.33661
0.0697646
0.0234502
0.0344138
0.0646869
0.0222703
0.0216484
0.0222454
9.57643
0.0830172
0.0821196
0.152625
0.0222528
9.77498
0.0768085
0.0217896
0.0216902
15.5073
0.0355326
0.0223884
0.0221555
24.0051
9.9515
0.0261348
0.0220642
12.1185
0.0788259
0.0225746
0.0340856
7.96756
0.0256457
0.0517123
0.0218617
0.0389056
11.4405
0.0472097
0.0389897
0.14468
10.8372
0.0219532
0.0218766
0.0250964
0.0246991
0.0221822
1.01769
0.0842449
0.0221922
0.0220762
0.0772254
0.0302635
0.0220247
2.1651
0.0342388
0.021983
0.0829596
0.0229434
0.022105
0.0346738
11.5289
0.0215551
1.27475
0.0220282
5.65828
0.0259153
0.063184
0.158776
0.0310412
0.0224398
0.107941
0.0257595
0.03363
0.0257239
0.0340294
0.0219192
0.0519249
3.36094
0.0672416
5.8392
0.161083
6.48283
0.0217541
0.0345243
0.0221335
0.210386
0.0222689
0.0214699
0.021555
0.0722355
8.53445
0.0332427
0.0783317
0.0225507
0.203067
0.031316
0.0302418
0.0216625
0.0381802
0.0332934
0.0814229
10.3668
0.0221059
0.0219958
0.284915
0.0459771
16.9155
0.0226051
26.3817
0.0247925
0.0451206
10.0405
0.0255196
5.93564
0.161036
0.126226
0.022351
43.5456
0.0216328
0.0217251
0.0218094
0.0217916
0.214501
3.11157
0.0330835
0.0383426
0.0222773
0.0222757
18.6384
0.0332675
0.0220934
0.0217863
0.0220043
0.0279891
0.0428816
0.0549025
5.3967
0.0339153
6.10326
0.0245755
0.330058
0.0218077
0.198406
0.0218062
0.129008
0.212848
0.096813
5.81064
0.0377479
0.0221123
0.0351633
0.022176
0.0220594
0.10551
7.76345
8.33106
0.0299264
0.0258454
7.54456
0.0817629
0.0219377
0.0222423
4.32963
0.0223256
0.0290707
0.0447359
0.0529626
0.0216552
4.50295
0.0608228
0.0628542
0.0488305
0.0442867
0.0644551
0.0215597
0.0738692
8.15626
0.0223049
0.0509539
0.0219983
0.0220242
0.022125
0.0250644
0.0221222
0.0333997
0.0785585
1.18514
0.0459733
0.0221379
0.0445589
0.0245951
0.0222195
0.0585396
0.0428227
1.53185
0.0226547
0.0215251
0.0219858
0.25722
0.0218369
25.1618
0.0222495
0.073004
0.031488
0.0216591
0.0996145
0.0244487
0.162555
0.0216788
0.0220565
0.0216425
0.0264932
0.0353001
0.0315755
0.0219432
1.08971
0.061147
0.114034
0.0604378
0.0494347
0.0220504
0.116768
6.74371
0.0235455
0.0635396
0.0254898
0.0219985
0.0539823
0.0222479
0.0420822
0.0239948
0.0233754
7.6823
0.0336914
0.0220269
0.110518
0.0218382
0.0256386
0.0525497
0.0592816
0.0216355
0.152118
0.217629
0.0220346
0.0221112
0.0237835
0.0237558
0.10808
8.39763
0.0680336
0.0219663
0.0225021
0.0218265
0.0218911
1.99867
0.0227758
0.0257594
6.90856
0.0215476
0.0219658
0.0220748
0.0487319
0.0225525
0.0217135
0.0234761
0.0224781
0.0259826
17.4745
25.44
0.0219165
0.021657
0.021919
0.0240159
9.19032
0.0220347
0.122219
0.110976
0.0516609
16.4497
0.0218147
0.171001
0.0219175
3.71024
0.0904888
0.0225602
0.0423222
0.0218214
0.0215263
0.0220445
0.0639037
13.9522
0.038296
0.0218264
0.0657673
0.0449625
0.021623
0.0226241
0.0220262
13.4503
13.0246
0.0219594
0.0235328
0.0220494
0.168064
0.942352
0.0222765
0.0642522
0.0221976
0.147412
0.0219481
0.0216333
0.204045
0.300159
0.064121
0.0220392
0.0219567
8.41523
0.0238757
0.0217237
0.0220524
26.3246
0.0287258
1.09172
0.0217597
13.3645
0.0219313
0.873533
0.0538361
0.021838
0.0498468
0.021928
0.041023
2.53898
9.79748
0.021619
0.0220576
0.102938
0.0217394
3.2833
0.0221384
0.0250416
21.2216
2.44105
0.0251001
0.0221625
0.0216339
5.52854
0.0525264
0.0215377
0.033592
0.0220422
20.0984
0.0220648
0.0422475
0.0216888
0.0218677
0.0387799
0.0459599
0.0324296
0.0220013
0.0217601
7.60586
0.0220001
0.022014
0.021848
0.0222041
0.722322
6.76799
0.0353962
0.063049
0.0601491
4.24688
0.0232653
0.02214
0.0219753
0.0219675
0.0221078
0.021796
4.81763
10.3571
6.13984
12.5531
1.06787
0.0375431
0.0822631
0.159875
0.0222711
0.142168
0.0219189
0.0435975
0.0518595
4.07638
0.0253555
0.0222649
10.3838
0.0220917
0.0253464
0.0234345
5.64906
0.064095
0.021855
0.21939
0.0554645
0.238934
0.0239345
0.0217588
0.0240717
0.0506578
0.021835
0.0743241
0.045667
0.0217056
0.0220824
0.0217945
0.0218638
17.3283
7.27785
0.0220226
8.61411
0.0558097
6.5094
0.0751127
0.0220533
4.01052
0.0266202
0.0278804
11.0078
0.0221131
0.0251693
4.07471
0.1094
0.0219785
0.027574
3.0147
0.022369
0.0218464
0.282503
1.50442
0.0343718
0.0578082
15.0839
0.0297709
0.0391855
24.1603
0.0661445
9.00488
0.0424556
16.5374
0.036428
0.0219103
28.8424
0.0221609
0.0219877
0.0218017
5.35253
0.0776206
0.0220423
3.67256
0.022271
0.0390474
0.0308823
21.0352
0.046711
0.0532448
0.022045
0.0216384
0.0219199
4.38733
0.0739906
1.53288
0.0222701
0.125507
0.0221789
0.0221597
0.0281551
0.0217279
0.0231307
0.0252924
0.0317014
0.0222727
2.45805
0.0218014
0.0334484
21.6921
0.0385454
10.5585
0.021634
0.148621
7.464
0.0215609
17.3404
0.0490266
16.6198
0.129099
10.2679
0.0218606
0.023976
0.0220518
0.0742571
2.03971
0.15009
0.0220912
0.0221944
14.4862
8.25157
0.185301
0.0218443
0.0756162
0.0217096
0.0351956
3.92009
0.0316931
4.75712
0.0227328
0.0251126
6.63744
3.35979
0.0240743
0.0218565
0.0415781
4.16287
0.0307631
0.0216078
0.0500463
0.111699
0.0587654
0.0233457
0.0735307
0.0221922
0.0222669
3.36917
0.0477511
11.393
0.74427
0.0531155
0.0679044
7.41145
0.0220329
0.0263154
0.0404832
1.85291
0.022639
0.0396907
7.36462
0.0311706
4.50007
0.0218523
0.0221981
0.0220207
0.035852
0.0220582
5.1505
0.0386529
0.0231778
6.2168
0.040797
42.8407
9.66194
0.077471
0.263955
0.139339
0.0224262
0.0218347
0.0716488
17.6199
0.0368548
0.034488
0.587924
0.0233936
0.0241776
0.0221684
14.4197
0.0219772
0.287639
0.0595958
0.0219212
1.64535
0.0362073
17.7995
0.0220997
0.0217278
0.0217961
0.143105
0.0217702
0.0362775
0.0219392
4.0865
0.0224749
0.218437
0.0751742
0.0253975
0.0218485
0.0231311
0.0666428
0.0218253
0.0233565
1.4179
4.50245
0.0298404
0.297737
0.0221319
0.0217645
0.0255319
0.0221885
0.02533
0.044726
0.0346894
0.0296096
0.0222711
0.0328037
0.0342682
0.0222532
20.2664
0.0766393
0.0222037
0.0218581
0.266202
3.93599
0.0216113
4.44673
0.234571
0.0217691
0.0220508
41.5081
0.815566
0.0748978
0.0772682
0.131172
0.02204
2.59938
25.1745
18.5317
0.0269256
0.0256603
0.230348
0.0538523
0.0222743
0.0600604
0.0795574
0.128723
0.0216445
0.0220856
0.02321
0.0218312
0.0222777
8.78262
0.121804
0.0217802
0.0216116
17.3309
0.0242406
5.71721
0.0220329
0.0220813
0.3193
0.0242772
0.0355799
0.0220809
0.0216406
0.021949
0.0221545
14.0598
0.0220455
0.0221301
0.0216405
0.021931
6.78173
0.0218186
0.02966
0.021645
0.071485
0.0796733
0.022114
0.37649
1.63352
0.0218093
0.0222004
0.0258235
0.0218225
0.0219391
0.021497
0.0222797
0.076993
0.0352227
0.0255652
0.0530211
0.0575977
0.0221933
0.0219712
22.0059
0.28696
0.0955337
0.0378802
0.159507
0.022274
0.0221259
4.79444
4.42382
0.0284035
0.0218935
0.104264
17.5163
0.021863
0.0333334
7.35239
8.77655
0.0328469
0.0351103
0.0244517
26.192
0.0221826
0.0222939
0.12758
6.44081
10.6244
0.0679519
0.0647675
0.0221173
0.0216985
0.0219634
0.0275896
0.202541
0.0218972
10.8339
0.0236792
0.223027
31.7997
0.021771
0.110772
0.0220998
0.0232978
0.0219671
0.0511402
0.0222552
0.0219339
0.0265663
4.25213
0.0258338
1.21047
0.0220776
0.0225841
0.0394512
0.0524554
0.031734
9.74747
0.0361392
0.0764572
0.0220498
5.02454
4.29607
0.258212
0.0615816
4.63795
0.0220693
10.7737
0.0353272
0.0216422
0.103682
5.83
9.72659
0.0233956
0.0257394
0.144351
0.0222706
0.153055
0.0217432
22.8593
0.0215296
0.0540727
0.0272276
0.18248
0.0222588
0.022522
0.0660413
0.022131
0.0802332
15.8767
0.0218798
0.0219987
0.0216403
0.0274877
0.0428912
0.0242353
0.0230895
0.0670458
0.0229176
1.11114
0.0338484
0.0464969
0.0232062
0.0230569
6.25346
0.0416165
0.0218128
0.35742
3.19669
8.94251
16.4911
25.0559
0.0365884
0.0218371
0.0222699
0.0230191
0.021902
0.124535
9.59614
0.0800759
0.0219231
0.0373713
16.0023
1.31474
0.0219894
0.024077
9.04897
0.167134
0.0372973
0.0345542
0.021946
0.0221335
0.0277627
19.535
0.0216522
9.17602
0.0217745
0.0220392
25.5887
0.181017
0.0227178
0.0217106
0.0276228
0.0468847
0.0515925
0.100244
0.0218659
0.0217537
0.0219683
24.2576
0.0482798
0.0331506
0.355131
0.0236649
0.0218316
0.0218264
0.0436207
0.14465
0.0217264
0.0323196
0.0261253
0.0222378
0.021736
0.0217753
0.0216721
0.0217405
0.0589746
0.0219314
0.177748
0.0246076
0.0287469
0.0429948
0.0246479
0.0219029
16.1181
0.0224115
17.4915
0.0222536
0.0243134
0.0523881
0.0221399
19.5656
0.0216822
0.0660964
16.9075
4.10837
0.0284286
0.0302938
0.0217956
3.96203
0.119304
0.0217514
0.0218841
0.0219556
4.86174
0.0269617
2.9795
10.9595
0.0218602
0.0221466
0.0222856
4.09301
0.0499108
0.0607873
0.0593323
0.0643843
4.58319
0.0220649
0.116102
15.7518
13.709
0.0220387
0.0222727
0.199149
19.5486
0.0630613
0.074644
0.0219223
0.0688329
0.021878
0.0218832
0.035196
24.5715
0.0222839
0.0217826
0.0216539
0.0219286
0.208753
0.0216077
0.0770819
0.0216351
0.0273603
0.497611
0.0222636
0.0217233
0.046401
0.0220416
0.0243555
0.0311833
15.3226
0.0606276
0.0221583
0.0454441
0.114566
0.0214689
0.027153
1.28379
4.21366
0.0521282
0.0362892
0.0441641
0.022833
0.035437
0.0217722
0.0222353
0.0218783
0.028952
0.0219349
0.0309363
0.152676
47.6981
0.0222531
0.19616
0.0218744
0.0221902
0.0330481
0.0219451
0.0384243
0.0218795
1.67247
0.0517309
0.0221938
0.10143
0.0471212
0.0286898
0.0224358
18.5991
0.0220261
0.0217772
0.0327282
0.072451
0.0218105
0.021975
0.185074
0.0218618
0.0221966
0.0220821
0.0225237
0.0377818
0.0216811
0.0283612
28.1567
0.0426575
0.0477687
0.0215378
0.0244057
0.021539
0.0217423
0.036582
0.0295534
0.0217659
0.0801812
22.6997
2.63865
0.0258767
0.0450362
0.0493039
7.74028
0.0257041
0.0221086
0.0450135
0.0981037
0.0222868
2.17885
0.0218118
4.6419
4.20741
7.7966
12.594
20.291
0.0566684
0.0582819
0.022148
0.0220556
0.0219281
0.0608982
0.0956129
0.187184
0.15913
0.0216647
0.0216618
0.022042
0.176254
0.0214664
0.0245171
1.23469
0.130844
1.45481
0.0222015
0.0219172
13.4206
17.2929
0.0242715
0.0216752
0.249639
0.145222
0.0735036
0.0218667
0.0219928
0.0434236
0.0222622
0.0216455
6.6643
0.0598435
0.0221733
17.2569
0.0222779
0.0226163
0.0444944
0.0465908
0.0215933
0.186609
0.0262745
0.0358463
0.0216457
1.34114
0.0217051
0.0235275
0.0215123
0.0694181
0.297262
0.0303942
0.0217508
0.0217597
0.122348
1.14211
0.0331755
0.0218284
0.0222798
3.87397
0.0216334
0.0331601
0.023105
0.0749761
0.0218837
0.0215407
0.0339085
1.86258
0.29489
0.211724
0.0224009
4.14519
0.0220895
12.5249
0.0631159
0.0221053
0.0287036
0.0365638
0.0224456
2.04081
0.0220162
0.025339
0.0216812
0.022073
9.97783
0.0227853
0.0619941
0.0232346
0.0827492
0.0222119
0.201068
0.0346049
0.027117
0.0775118
0.132209
1.07312
6.1647
0.021966
0.98297
0.0277007
0.0218288
0.0219554
0.190579
0.0219143
18.2081
0.216068
0.0401987
6.12946
0.0217447
0.0217812
0.0219317
0.0778201
0.0474154
0.0221575
0.033564
0.0520091
0.0216702
0.0216516
0.0217559
0.0535755
0.0223142
9.87394
15.1797
0.0215507
0.393641
0.165503
3.49332
0.0217124
0.0220603
0.0218445
0.030474
0.0219402
0.0582771
0.0224333
0.025339
0.0222721
0.0217547
0.0219357
0.0477159
0.0215188
0.0289532
0.0306367
0.0369897
0.0627186
0.0217866
0.0269786
11.5045
0.060652
0.0304985
0.347577
0.0217685
3.18811
11.3306
0.998249
0.0225656
0.0223899
0.022107
0.0220376
0.0218757
0.02213
0.0227116
0.0306354
6.20457
0.0359193
0.0216311
2.95388
5.32382
0.032572
0.258393
0.0595305
0.023275
0.0795264
0.13014
0.0336965
0.0219478
0.0429174
0.0353396
0.0257342
1.01613
0.0219297
0.0222877
0.0219407
0.0217376
17.7292
0.0301542
0.021934
0.0220366
2.80607
0.0218731
0.0284862
17.5498
0.0218574
0.02424
15.7351
0.0617746
0.200193
0.0222408
0.0221478
0.0219663
0.163725
29.6266
0.0451189
0.0222647
0.0219059
0.0560453
10.5914
0.0238873
0.0223435
0.211978
2.76085
0.0216365
0.15563
0.0336941
0.0569551
0.0217319
8.84342
17.4154
0.0219982
0.217674
4.11208
0.0235108
5.24781
0.0302452
22.3089
4.13583
0.0422987
0.021961
18.3151
10.5426
0.0231846
9.63267
0.349326
0.609813
0.0350909
0.0218847
0.0222387
0.157632
0.0629528
0.0234631
0.0371529
18.7304
0.0236107
2.10124
0.0226053
0.0223413
0.0218903
0.803969
1.13749
0.0217718
0.0225523
0.169593
0.0352737
0.0404109
0.0216497
0.0217138
3.71654
0.0323369
0.0218963
0.0221539
0.0218519
0.0218641
0.124748
0.0719975
0.0251151
0.0222052
0.0218706
0.0267637
0.0218891
0.0216666
0.0320587
0.0218712
0.0221982
11.3932
0.119692
0.0219316
0.0308904
0.225909
0.0246849
0.222562
0.0476464
0.0624537
0.0614698
0.0216743
0.0252346
0.0220969
0.0217782
0.0225178
7.07092
0.924317
0.0217783
0.0215291
0.0226293
0.0224026
0.0250308
0.0257042
0.108227
3.94899
0.0214961
1.53328
0.0218959
0.0497898
0.159147
0.0302414
0.0220586
0.0244393
0.0291078
0.0222094
0.120986
0.0345717
7.25538
0.0446908
0.0219657
2.1562
0.0215945
0.850963
22.9307
0.392771
0.0218693
0.0221248
0.0223442
13.4409
0.0293882
0.138452
5.1034
0.126842
0.466216
0.0218371
0.0219135
0.0218846
0.0236847
0.021443
0.0744307
0.0325486
0.0638487
0.0234201
0.0222649
20.1207
0.0220047
0.021988
0.0234173
0.02853
1.00905
8.69493
0.0374885
0.0234941
0.0578183
0.195011
0.0326683
4.76065
0.0252048
0.0658626
0.03339
1.88837
0.0307244
0.021926
0.0853371
0.0218553
0.185237
0.0216616
0.0217617
0.023158
0.0222776
0.0220561
0.040321
0.0924078
0.0863144
0.200657
0.0827241
0.0220872
0.0216706
0.0557544
0.0276967
0.0553911
0.0429614
1.14714
6.04154
0.0360021
0.395759
4.5926
0.0316942
0.0529857
0.0351716
0.0404347
16.1936
0.0668364
0.0232362
0.093334
0.022049
0.269919
0.0697828
0.0218672
0.034225
0.046723
7.45896
0.021755
4.08754
0.0723742
18.1744
2.59346
0.031522
1.70437
0.0555872
0.303077
0.0215011
0.161881
4.7374
0.0214927
0.0330981
0.0257762
1.70978
0.060917
0.0221807
0.0388894
0.120838
0.0751565
0.0412338
0.0218019
0.0224433
21.9875
0.14379
0.0234439
8.24541
0.0631385
3.50739
0.114167
0.0286185
0.0681023
0.0220748
0.043088
0.187205
0.0433147
0.0215308
0.0381863
0.0462335
0.0219352
0.0622088
0.0262396
0.0265484
0.0221318
0.0219387
0.120237
0.0221465
0.0218672
0.163918
0.0222582
0.0218884
0.0216842
0.0961202
0.0237254
0.0218611
0.394963
0.121501
0.248242
0.505158
0.0220964
0.0220709
3.36291
0.0231202
0.0319772
0.161355
0.0216746
0.0218312
0.0221513
0.0717824
0.034911
0.0238017
0.129098
0.042399
0.0221813
0.025522
7.64859
0.0372267
0.0232215
5.00683
0.0343662
0.122373
0.0218541
0.196886
0.367833
1.1267
0.0219295
0.021698
0.101504
0.022055
0.0218855
21.8656
0.0385547
0.0816271
0.0345537
0.0218865
0.259659
0.0295965
0.021749
8.9185
0.0218687
0.0702165
0.048429
2.25194
18.7447
0.0219129
0.0222582
0.0220167
0.0219371
0.0399868
0.0854732
12.5335
0.022213
0.021872
0.183239
0.0221859
0.0215214
0.16399
22.0496
4.5332
0.0216551
0.0219963
0.0258479
0.0215401
0.0303839
0.0758139
0.16343
0.0408887
1.1766
3.97062
0.0407433
7.54727
0.0221839
0.037949
0.0358392
0.139242
0.0221122
0.0231569
0.184409
0.301824
0.0636552
0.022515
0.109423
0.0232547
6.89713
0.0258791
0.0297928
6.71576
0.0312633
0.119462
0.0218039
0.0222731
12.5875
0.236832
3.61226
2.94893
0.0290221
0.0222449
0.0461189
0.0235542
0.0247261
2.19913
0.0591136
0.0215498
0.0223028
0.0428534
0.0217548
0.182773
0.0884599
0.0215976
0.0299422
0.0271156
0.0217021
0.155457
0.0234383
0.140099
2.6948
0.0345494
0.0932065
0.0467976
0.11685
18.4805
0.13065
22.7931
0.172164
0.0219024
25.3477
0.0249156
26.7071
0.106685
0.0232891
0.0219629
0.0218366
7.6957
0.0218177
0.0218164
0.0218007
0.0221719
0.0319349
0.0220176
0.0387994
0.029582
0.0216009
8.52184
1.62467
0.448419
0.0577677
0.241321
3.59565
2.90145
0.0220355
21.4926
0.217487
6.2926
0.0219696
0.0365952
0.134689
0.0221351
13.8885
0.0220437
5.30113
0.0306553
0.0218112
0.0367735
0.0219562
0.0250525
0.0438677
0.0490629
1.49858
0.0219649
0.0244055
0.0422313
0.0389324
0.213232
0.210457
0.0851727
4.49277
0.191448
0.0219406
4.83391
0.759181
15.7338
0.0220523
0.0394932
0.0225689
0.0222743
0.0220355
0.0244224
0.115404
0.0218611
0.0222023
0.937301
0.0425191
0.0441455
0.0921371
0.0296621
0.0245104
0.191482
0.021863
0.0221013
0.0262929
0.041248
0.0751222
17.3758
5.52838
0.0614073
0.0772006
11.6034
3.96899
0.0218242
19.4935
0.21336
0.0222144
0.0957256
0.0627166
3.20239
0.0502671
0.0221217
6.58665
2.19335
0.021484
3.62429
0.072073
0.0268185
0.643106
0.0235674
18.9285
0.0235402
0.110962
0.0242603
0.0222774
0.0218539
0.0621781
0.048165
0.238651
0.044015
27.1479
0.0597939
10.3671
0.145357
0.0703386
0.021631
11.2443
0.0227875
2.96951
0.022191
1.11609
0.112298
0.308091
0.0747209
1.03634
0.0220704
5.69395
0.116613
0.0582206
0.147603
0.0316763
0.106181
33.2476
0.0215609
0.0223764
0.0225135
0.0218906
0.214011
14.4766
0.022268
0.131009
0.0316553
20.7068
0.021874
0.0219706
0.027981
0.0268539
1.58728
0.144234
0.242997
0.0217861
0.0220453
0.515433
0.0221847
0.0217434
0.022147
0.0566999
0.0220084
0.0222243
0.0216486
0.0215717
0.0395524
7.1105
0.123439
0.0218695
18.0363
0.0217806
0.0424846
0.0231127
0.0306154
2.67903
0.0217867
5.57719
0.0220507
0.114827
0.0441258
0.0215238
0.0223087
0.139081
0.0219083
0.0553257
0.0300603
0.0403058
0.0220743
0.0222135
9.95087
0.060172
19.0085
4.82252
0.0238455
0.862532
0.0651797
0.0319084
0.0220761
0.0380473
22.3257
0.0214863
0.0447418
0.0244237
0.0239551
0.0219577
0.806528
0.0481886
0.0233487
0.0221027
0.0273536
0.0304572
0.0303238
0.0219711
0.0216275
0.0215701
0.0219359
0.0468246
0.0274219
9.8128
0.0217015
0.159362
0.0222063
0.0392116
0.0217035
0.0424479
0.0276772
0.0584039
10.9531
0.0426365
0.0225225
0.0689523
14.2398
0.243074
0.0250931
0.0697755
0.0219581
2.97068
6.74934
0.14761
0.0342668
5.20498
0.0397666
0.0243912
0.104926
0.0237306
8.36991
0.0219584
0.0425963
0.022747
0.0217103
0.940878
4.62027
0.0233723
0.0215397
0.151028
3.36095
2.64109
0.0220172
0.175606
0.0376026
0.199814
0.0242088
3.65929
0.0713422
0.0216988
0.0219939
0.0564059
40.7936
0.0219583
0.0689394
17.6185
0.0289365
0.0257806
0.0548483
0.0342411
0.0340579
6.3128
0.0217886
0.0274324
0.0220052
0.0218357
0.378506
0.0551684
0.445124
13.4738
0.0221507
6.77099
0.0215355
26.5781
0.0324974
0.0217158
0.0218321
6.04568
0.0216596
0.0234409
0.0235629
19.1011
0.0269923
0.0247433
0.0882535
0.0240619
0.0221622
0.0216671
0.0226141
8.53571
0.0220068
0.0539996
1.43516
0.0217877
12.6893
0.021641
0.0216634
4.49187
0.0566411
0.0754965
0.0219441
0.0261493
0.0222788
0.043316
0.731936
0.0246001
0.0445517
0.0222339
20.8843
0.0296037
0.0295457
0.02157
0.0275944
0.0218327
0.0542025
0.0259905
0.150152
0.0222183
21.0472
0.0717043
0.0265472
0.0218836
12.1081
0.0315531
0.13689
0.0222598
0.0221171
0.0400072
8.75549
21.3406
5.2456
0.0219712
0.0221042
0.0349934
4.87242
0.0559063
0.143004
0.0222308
0.0990522
0.0744365
3.55038
0.0279753
0.0337344
9.88424
0.0225979
1.14448
0.075611
0.0219897
0.0304625
0.0320022
0.0528037
9.08967
0.0346772
0.0475364
0.0451427
1.05713
1.07995
0.0218197
0.0217186
6.32954
0.0220895
0.0222909
0.951624
0.71747
0.0617259
7.10693
0.0217001
0.0219936
4.66821
0.0864051
0.0681439
0.0215718
0.0217284
0.180839
0.0236058
0.0216403
0.0227638
0.0214816
0.0608233
0.0239769
0.306566
0.0349737
22.276
0.0614308
0.0411482
0.0475854
3.67957
0.0791002
0.0429807
0.0221372
0.032274
0.0218005
0.0266211
0.0221194
3.59645
0.210882
0.0216694
3.95761
0.0315816
0.0662067
6.1737
4.32745
0.0244248
0.0547653
6.33216
2.16804
31.1845
0.022138
0.0233167
0.138963
0.0220148
0.0432392
0.0290205
6.49975
0.353729
0.201256
0.0216307
0.0310898
0.0429664
0.390225
0.0214765
0.0219291
12.684
0.950076
0.0220679
0.0216249
0.0215548
0.0696199
0.0337459
0.131521
0.0224105
3.18106
0.0282026
1.37555
0.0222779
0.122546
0.02515
0.0218056
0.0602079
0.0221331
0.065477
0.02711
0.081931
1.90038
0.870547
0.210168
0.0220332
29.5761
0.0560837
21.7968
0.055848
0.085342
0.0344954
0.1259
23.4322
0.0662791
0.0217861
0.30892
15.3325
0.0218999
0.0219123
0.0219531
0.0245461
0.137054
0.0282203
0.0216961
0.0247539
0.0918675
0.0258969
0.0222169
0.0221473
0.0266262
0.0221966
0.124364
0.0215413
0.0218206
0.0530056
0.0220976
7.54822
0.0342218
0.0220122
0.0215142
0.119971
0.0216289
0.197526
4.49619
0.0219707
6.66996
0.0247835
0.0218421
0.084616
0.0221275
1.51229
0.0771737
0.0318892
0.0609637
0.981927
0.0218798
0.671493
0.061957
0.0385054
0.179654
5.67508
0.0346041
0.021661
0.0220355
0.0221339
17.7339
0.0220905
0.02169
0.0817081
1.56076
5.56895
5.22981
0.0217163
0.0245053
7.14022
0.333558
20.9124
13.1733
2.49955
0.0219369
0.112527
0.0221412
0.0220499
5.28833
21.4988
2.17257
17.854
0.0938461
0.414641
0.0242617
0.0220251
5.12132
0.0222027
0.0501202
0.0420742
0.0220389
12.4816
0.0221646
0.0238352
0.0421087
1.06202
0.0232703
0.0236134
0.0500012
0.0216497
6.41827
0.0216481
0.0224383
0.0217014
0.0423798
0.0217185
0.0243255
6.19994
0.15173
0.135376
6.73935
17.7435
0.475637
0.0998943
23.5687
0.0219392
4.44835
11.3091
0.0665893
0.0215721
0.0239038
0.0539935
0.0567241
0.0269993
0.0218777
0.0220786
0.115103
0.0980734
0.793756
0.0313017
0.12124
26.4812
0.0567182
0.0216746
0.0378267
0.104916
0.983296
0.0500851
5.89265
0.0218733
0.0607867
17.6933
6.12864
0.107764
0.0216544
0.0238223
0.0223669
0.107363
0.0222123
0.0226816
0.0221767
0.0225863
0.0219115
0.0502051
0.0223013
0.0217567
17.1391
0.0220084
0.05792
0.0227553
4.56406
0.0696575
15.8691
0.0296401
0.0220512
0.0234414
0.0216138
0.0219586
0.0220198
0.0264503
0.0860261
0.0539157
0.0709101
0.0216115
0.0221431
0.0222039
0.0974281
0.0330837
1.88529
0.120705
6.03194
0.107048
0.115673
0.0636191
0.0737198
9.88074
0.0218448
0.0227356
0.238921
20.7035
4.63872
0.403425
7.382
0.0308536
0.0414913
0.022124
0.0216914
0.0558785
0.0792934
0.0219735
5.99754
0.0634101
5.44332
0.0974387
4.04541
0.0215076
0.0347648
0.0218302
0.0229034
0.0491549
0.0224669
21.0809
2.21467
3.65213
0.0215196
0.254198
18.7983
3.23313
0.0237739
12.885
0.0216972
0.0220956
0.0737907
0.0349002
11.4087
0.0219292
0.119657
0.0450661
13.2864
0.0220162
0.0221405
0.0284905
5.34322
0.0219421
0.766412
0.113027
0.0219028
0.798676
14.466
0.0219721
0.890833
0.0220353
0.0728207
0.0265083
23.0361
0.0551259
0.0236729
0.0218745
0.188757
0.0408901
5.43194
0.710589
2.83436
0.0218909
0.0222379
0.0224712
0.0390259
0.0414469
5.77821
0.0768198
0.0218348
0.0543548
0.0220692
6.29889
0.0509538
0.185956
13.4098
2.26256
0.0229958
0.0298675
0.0218203
0.154562
5.918
20.3558
0.0382789
0.0217531
4.66706
0.136303
8.88049
0.0875804
0.152271
5.39717
0.0345252
0.0436896
0.0218096
0.0226601
0.0219193
0.192884
0.0220345
0.030616
7.08902
0.0220005
0.0521359
0.0217373
0.0235926
0.0234512
0.0237522
5.58836
0.0352106
0.0427293
0.928728
2.79007
0.0694359
0.0217926
0.0273127
0.151799
6.58792
8.41616
0.969988
0.0239696
0.365371
19.5109
0.074093
0.0216248
0.037046
0.134005
0.875623
0.0260638
0.0301625
0.0218485
5.20652
5.64569
0.0215555
0.0699022
0.0233295
0.0216924
0.0215458
0.022752
0.0277633
0.0221111
0.0222845
0.0516672
0.0222011
0.108091
0.0372283
0.0263275
0.0216697
11.0101
0.0220008
5.68079
0.0228743
0.0548407
0.0232353
0.0245613
10.5761
4.77397
0.0218058
4.89219
0.0216662
0.0220871
0.0626752
0.0220017
3.92392
0.058302
0.0225381
0.0326384
3.2661
0.0429266
0.159808
0.0489841
12.5446
0.0232312
0.0479762
5.92067
0.0286783
0.0321385
0.256668
0.0217953
0.756421
0.0756202
0.0258814
0.0290376
0.065944
0.023744
0.0217127
0.0627836
0.0400447
0.111074
4.34202
0.0224841
21.2852
0.0224842
0.0218712
0.0231023
0.0241816
31.6579
0.0243359
0.0221338
0.0962329
0.0222235
0.0526147
0.0673407
4.67137
0.0227781
0.0256558
5.16447
0.024294
6.14589
0.0318952
5.83512
0.0217049
0.0430683
0.0220472
11.627
1.60649
0.0222944
0.100982
0.0615329
6.17548
0.0217463
0.0232052
0.141299
0.0220481
0.0216863
0.021652
5.75191
22.7315
0.021808
0.022784
0.0225854
13.5002
0.0219078
0.0218509
7.42263
0.0594528
0.671656
0.0960258
0.0220763
0.0219145
0.021871
0.0311804
0.400605
0.176627
0.0738289
5.1874
13.4889
0.0218747
0.0589007
0.0220435
0.0230506
0.021876
0.135613
0.0229944
0.0437395
0.022396
0.0218248
6.2904
6.61112
0.0689926
0.134764
0.260986
0.0368861
0.0216659
0.0247562
0.0768427
0.0413081
0.022279
0.0359684
0.0215773
0.0284725
0.0304677
0.0219704
0.038764
2.8759
0.0216559
0.0238731
4.55354
0.0378981
5.24611
0.0221741
6.89662
0.0869471
0.024311
0.0226756
6.15456
0.0216232
6.63566
0.035146
0.0217456
0.021879
0.0217919
0.023346
0.0219674
0.463931
0.11529
0.0223915
0.0379636
0.0218839
0.0514005
13.1535
10.2774
0.0339222
0.0358213
0.0237294
0.0220226
0.0266317
0.021865
22.3941
0.0220265
0.0233975
0.0224609
0.0221895
0.0219316
0.0219982
1.16279
0.0217645
0.0292958
0.0219321
0.207187
0.0220369
0.151007
7.51537
8.76009
0.0224782
0.0224331
0.198036
15.2153
14.001
5.48996
0.0595948
0.0223394
0.0888058
4.96516
0.593338
0.0216196
0.054783
6.05073
0.0240874
0.0344461
0.0282475
0.0221994
6.57914
0.0217765
0.0218805
22.6004
0.113184
0.0231052
0.111901
0.0542057
0.0252795
0.0247182
2.27861
0.0216195
0.0214537
0.0367948
0.0220497
0.308301
0.022071
0.0322088
23.6403
23.2748
1.19601
0.114031
0.0219543
0.130197
0.0359965
3.07296
0.0409575
0.0221429
19.9827
16.4046
0.0224041
0.0231271
0.0410037
23.2594
0.310331
25.6925
3.18602
0.0489421
0.0586857
0.0493352
0.108841
0.021562
0.0300135
0.117148
0.900138
0.0219413
0.0258429
0.24297
0.021797
0.0479537
0.0315464
4.80216
0.279663
0.0218616
0.0222191
0.022083
0.0220738
0.0218877
2.11024
0.255732
0.362296
0.13397
0.0222891
0.0258481
0.0227826
0.0508764
0.0262619
0.0337386
1.17892
24.0974
0.0975288
2.40575
3.93231
0.314265
0.0256705
3.71946
0.0564981
0.0378984
1.56676
0.0327233
0.0540186
0.0218162
0.0219566
0.056831
5.36826
0.063119
29.1641
8.24709
1.08849
0.204537
0.162657
0.0318915
0.032744
0.021922
0.0643921
0.0221221
0.0222159
0.021861
0.0309168
0.246302
0.0222205
0.0218225
7.91841
0.0219325
0.0221476
0.0455049
29.2088
0.0231977
0.0216824
0.0224504
0.0216211
0.0225976
0.398321
0.0593947
0.255123
12.5835
0.0238646
1.80109
14.8731
0.0216354
0.0716825
0.0273749
0.733176
18.8289
4.19501
5.33505
1.63105
0.11589
14.0291
0.185174
0.0424955
0.0307392
4.83906
0.0357775
0.454263
0.205592
23.3641
0.0218356
0.859145
0.0415785
0.22951
0.022204
0.0219847
1.45173
0.0215764
0.0448798
0.0552777
5.91356
0.0532561
0.022114
0.173071
6.56321
4.52425
20.8063
0.0304764
0.0316386
0.0278871
0.409506
0.0457454
0.0218615
18.359
27.4541
0.0268501
0.0228105
0.0332982
0.852396
0.0220462
0.741901
0.0282429
0.045197
2.61518
0.0219556
0.0216143
28.8576
8.87097
0.0404053
0.0219601
0.0215549
18.1971
0.0245109
0.0607295
2.10011
3.47111
0.116518
0.0218211
0.0222966
0.0718289
0.233704
0.0369712
0.0220212
3.4014
0.0221289
0.0263456
0.0327794
5.24821
0.0221346
0.0685413
2.08221
0.243042
0.0546824
0.192388
0.02877
18.2664
0.0511222
7.23352
0.0291617
0.0216378
0.0223393
0.022475
0.0408123
3.76106
0.0218882
0.0234823
0.0236643
0.0222047
0.155401
0.0508322
0.0217571
0.0631448
0.0233789
1.18762
0.0217499
0.0268248
0.0218618
0.0258988
0.0222735
0.0226383
0.122994
0.07052
2.42714
0.0225662
0.14795
0.820267
0.0215726
0.0304294
0.0215754
0.0219735
0.0220315
1.83897
0.0265657
0.0306469
8.76191
8.84516
0.0217949
0.0262288
16.0414
0.0222275
0.111593
0.0221262
0.0214585
5.50341
0.118576
0.296248
0.102599
2.037
0.0223184
1.90697
0.0242695
0.237588
0.0271505
2.14462
0.0251714
12.7724
0.0228941
0.77032
0.184243
0.0217878
0.0224987
10.7958
0.0221879
0.0256252
0.50882
0.614767
14.8393
0.0217062
0.0218496
0.0220953
0.0221304
0.0677312
5.86865
0.60099
0.0222194