/*--------------------------------*- C++ -*----------------------------------*\
| =========                 |                                                 |
| \\      /  F ield         | OpenFOAM: The Open Source CFD Toolbox           |
|  \\    /   O peration     | Version:  v2012                                 |
|   \\  /    A nd           | Website:  www.openfoam.com                      |
|    \\/     M anipulation  |                                                 |
\*---------------------------------------------------------------------------*/
FoamFile
{
    version     2.0;
    format      ascii;
    class       volScalarField;
    location    "300";
    object      k_0;
}
// * * * * * * * * * * * * * * * * * * * * * * * * * * * * * * * * * * * * * //

dimensions      [0 2 -2 0 0 0 0];


internalField   nonuniform List<scalar> 
33474
(
0.000133454
0.000108908
0.0194668
9.87167e-05
0.000114006
0.0160294
0.000102243
0.000117238
0.000117577
9.90804e-05
0.000133088
0.00010524
0.000115294
0.00010994
0.000393094
0.000229367
0.000113364
0.000224335
0.0677359
0.000113552
0.000106979
0.00011076
0.000107827
0.00146308
0.0022702
0.000110249
9.74478e-05
0.00141684
0.0615638
0.000107321
0.000102776
0.000106127
0.00164328
9.84441e-05
0.000455755
0.000525362
0.000107404
0.000119508
0.000110128
0.000439312
0.000141951
0.0262062
0.0126116
0.000147353
0.0759828
0.0946127
0.000145716
0.000459942
0.000102203
0.000134438
9.87354e-05
0.000111235
0.0026343
0.0428424
0.000114173
0.00390748
0.000111833
0.000102128
0.0463261
0.0450512
0.000102157
0.000107324
0.029689
9.67722e-05
0.000133792
0.000111669
0.0586675
0.0758826
0.000102109
0.0572936
9.84191e-05
0.000109471
0.000146045
9.90375e-05
0.0001062
0.000132646
0.000107342
0.000102269
0.000114009
0.000167297
0.0555181
0.000110619
0.0224362
9.38521e-05
0.000132381
0.0620304
0.000295749
0.0455478
0.0239446
0.000102514
0.00182127
0.000125937
0.000233823
0.000102723
0.000105886
0.000111109
0.000106615
0.000114164
9.0946e-05
0.0421704
9.94141e-05
0.00212466
0.0742011
0.000110604
0.000279493
0.0947837
0.00150331
0.000128819
0.00010087
0.000177473
0.00020275
0.000132434
0.0443113
0.00010708
0.000223342
0.0269522
0.000120628
0.000110761
9.66617e-05
9.70601e-05
9.50791e-05
0.000112558
9.6526e-05
0.000100742
0.000541412
0.0264142
0.000194519
9.79972e-05
0.0255374
0.0748161
0.000498456
0.042796
0.108679
0.000136966
0.000107238
9.41409e-05
0.000128856
0.000108754
0.000105906
0.000128854
0.0457803
0.0273143
0.000145375
0.000104319
0.00013109
0.000185163
0.0279488
9.79775e-05
0.000116558
0.000136555
0.000133728
0.000107719
9.75726e-05
0.00010795
0.000111219
0.000100777
0.0617305
9.67806e-05
0.000187599
0.0266939
0.000130964
0.000152
0.0458863
9.51356e-05
0.0776453
0.00011344
9.19151e-05
0.000116229
0.000134102
0.000118092
0.000182663
0.000129458
0.000117869
0.0641836
0.000107587
9.7524e-05
0.0435982
0.000107089
0.000881929
0.000107027
0.000121243
9.83072e-05
0.000107603
0.074771
0.000108999
0.000132225
0.000122202
0.0627893
0.0475358
0.000118919
0.000112509
0.0665498
0.000106044
0.000131462
0.0391122
0.000167403
9.15594e-05
0.00012467
0.0303957
0.000118659
9.42988e-05
0.0021637
0.000112871
0.000107806
0.000128531
0.000118583
0.00529174
0.00012168
0.000485969
0.000471724
0.000102551
0.0219294
0.000218051
0.000110788
0.000111486
0.07397
0.000120834
0.0778633
0.000108342
0.000113066
0.000410982
0.000127418
0.000106617
0.000214881
0.0121426
0.000107649
0.000356769
0.000132574
0.0488595
0.0927628
9.77214e-05
0.00514055
0.00011689
0.0624078
0.0629851
0.000126863
0.000106303
0.000297889
0.000106381
0.0684926
0.000343269
0.0388446
0.000101505
0.000111374
0.000108045
0.0119906
0.00018634
0.000104556
0.0144288
9.87926e-05
0.00209852
0.000126571
0.0293358
0.00430028
0.00296695
0.000109017
0.000100244
0.0001073
0.0652528
0.0115453
0.000100949
0.000116988
0.000143384
9.44679e-05
0.000113038
0.000126264
0.0682085
0.00012464
9.90247e-05
0.000179836
0.000105125
0.000104539
0.000107949
0.000119992
0.0389201
0.000108882
0.000286589
0.0614759
0.000110101
0.000102273
0.000127287
0.000107258
0.000102197
0.000104904
0.000105902
0.000100341
0.000113098
0.0157168
9.6713e-05
0.000105183
0.0284114
0.000126616
0.00013854
0.0345489
0.0222033
0.0227071
0.000112383
0.00101265
0.000483695
0.000201926
0.00564064
0.019011
0.0389791
0.000208044
0.00185319
9.16072e-05
0.000108044
0.0346476
0.0806669
0.000109518
0.000107977
0.000107285
0.000119002
0.000107276
0.000106817
0.0438184
9.84615e-05
0.00079525
0.000105537
0.0385154
9.45838e-05
0.000103036
0.000108941
0.000116748
9.39174e-05
0.000560274
0.000126366
0.000105129
0.000100391
0.000117138
0.0895855
0.000102181
0.000121346
0.000147251
0.000131318
0.00647481
0.000242001
0.000104526
0.0667338
0.0403459
0.000145804
0.0124961
0.000116587
0.00011166
0.000115253
0.00421143
0.000103088
0.000147583
0.00011355
9.18928e-05
0.000116716
0.0262553
0.000114064
0.0478241
0.0305362
0.0142748
0.0811417
0.0828435
9.58563e-05
0.000121728
0.00021401
9.19064e-05
0.0627411
9.84061e-05
0.000110542
0.0123621
0.000109629
0.000111168
0.000149399
0.0118129
0.000124013
0.000110891
0.0623132
0.000107925
0.000110432
0.0441562
0.0333886
0.000105137
0.0146465
0.00013118
0.0186514
0.00866247
0.000107557
0.000142581
0.000270775
0.0436522
0.000107302
0.000104098
0.000105706
0.0464736
0.0866492
0.000106681
0.000143706
0.0131643
0.000105818
0.000118181
0.000116905
0.000179757
0.000132723
0.000102147
0.0318134
0.00796555
0.000145395
0.000169171
0.000106961
0.000117064
0.0251097
0.000273313
0.00011656
0.000146434
0.000127095
0.0389549
0.000145014
0.0255942
0.000116749
9.71641e-05
9.83422e-05
0.0545954
9.6565e-05
0.0328354
0.000101125
0.0714179
0.0167875
0.000101747
0.0619956
0.000132999
0.0129473
0.0419183
0.000254797
0.070744
9.28972e-05
0.00766456
0.0354135
0.000123005
0.000107269
0.000120418
0.000110652
0.000113368
0.000126923
9.88669e-05
0.00011085
0.000144358
0.000103226
0.000112489
0.0414128
0.0123949
0.000102117
9.78466e-05
9.91397e-05
0.000107724
0.000107969
0.0579845
0.000104485
0.000110248
0.0121307
0.000127462
0.00011151
0.000108166
0.00237216
0.000174447
0.0123424
0.0680903
0.0637346
0.0279012
0.0442994
0.0152883
0.000129037
0.0884712
0.000122386
0.000123028
0.0499714
0.000119318
0.0380443
0.0509977
0.057953
0.000224957
0.000101551
0.00010712
0.000117032
0.000131389
0.0560109
0.000123366
0.0738635
0.126834
9.61193e-05
0.066708
0.0416448
0.000126769
0.0183328
0.000101694
0.000103385
0.000111575
0.0487546
0.000126991
0.000120862
9.45465e-05
0.000107798
0.000111198
0.0222594
9.3088e-05
0.0596789
0.000101619
0.000113501
0.0681957
0.000172585
0.000280688
0.00206505
0.000131745
0.0240432
0.0467637
0.0629053
0.000192506
0.000129004
0.000119518
0.000107029
0.0463914
0.000112286
0.0594298
0.0580998
0.000114669
0.000105283
0.000127147
0.0950956
0.000107483
0.000955593
0.000377318
0.0411228
0.0399991
0.00162044
0.000112264
0.000110181
0.000225475
0.000129777
0.103731
9.21284e-05
0.0737245
0.000112601
0.0588309
0.00759948
0.000122924
0.0893414
0.0137599
0.000128069
0.000112537
0.000175619
0.0133262
0.024551
0.000104972
0.0379349
0.00447509
9.70723e-05
0.000376633
0.000114828
0.031155
0.000118077
9.9137e-05
0.000132098
0.000111466
9.22707e-05
0.026392
0.000134921
0.000114054
0.000140984
0.000113088
0.000110087
0.000103003
0.039016
0.000104243
0.00246226
0.00329831
9.96131e-05
0.000111508
0.00183266
0.000109998
0.00917993
0.000122742
9.44272e-05
0.024931
0.000106205
0.000112665
0.000123002
0.0243425
0.041311
0.0363109
0.000105389
0.000147536
0.00171961
0.0558646
9.40605e-05
0.000116776
0.000114199
0.000118138
0.0447013
0.000122717
0.000141492
0.000112931
0.000126793
0.000112362
0.0654149
9.86537e-05
0.0162019
9.40635e-05
0.000121029
0.00011331
0.0683116
0.000107936
0.000290239
9.39483e-05
0.000217634
0.000105048
0.000107875
0.000114913
0.000243309
0.000148168
0.000102052
0.0345058
0.036165
0.000147192
0.000117916
9.40002e-05
0.000118525
0.0371689
0.00039133
0.00191889
0.0721388
0.00010827
0.000100379
0.00012452
0.000105636
0.000112699
0.000126043
0.021571
0.000111283
0.000222554
0.0140618
0.00254429
0.000105543
0.0442514
0.0211207
0.0152419
0.0643368
9.93117e-05
0.000114865
0.000473097
0.0129705
0.00128053
0.0369102
0.000134091
0.000470959
0.00014571
0.0180467
0.000132328
0.000396438
0.00028354
0.000122963
0.000147918
0.000103644
0.000108445
0.00042247
0.000232053
0.000107121
0.000108074
0.0806748
0.000106549
0.0946226
0.000107279
0.0752562
0.000111505
0.0792057
0.000234092
0.064718
0.00887508
0.000147671
0.0116301
0.000110409
0.000117863
0.0668499
0.00012277
0.00010705
0.000118076
0.000117887
0.000126801
9.562e-05
0.00010426
0.02843
0.000106068
0.00010589
0.0525236
0.01164
0.103235
0.0266782
0.083863
0.0695339
9.66834e-05
0.0198338
0.000111105
0.000116923
0.000122812
0.0480105
0.000114351
0.000488662
0.000147815
0.0146084
0.000764456
0.000177781
0.000100631
0.000123025
0.000130207
0.0473325
0.000102772
9.82079e-05
0.000107755
0.000285519
0.0700278
9.87827e-05
0.0996915
0.000106324
0.131323
0.000168619
0.000106679
0.000103829
9.40529e-05
0.00012285
0.000106831
0.0001074
9.5716e-05
0.000121499
0.000123688
0.0560599
0.00010543
0.0165033
0.0384556
0.000106975
0.000242808
0.000457129
0.00013947
0.000113067
0.00013151
0.000108445
0.0598955
0.000116862
0.000131752
0.00010516
0.0941191
0.0477611
0.00525085
0.0232753
0.0617956
0.00011381
0.000110482
0.0952822
0.000284242
0.000173244
0.000105367
0.000124375
0.000118008
0.000107413
0.0745592
0.000109976
0.0108978
0.000123314
0.000144808
0.000293893
0.000296113
0.00012713
0.053038
0.000105856
0.000106044
0.000106037
0.014602
0.0252118
0.000107293
0.000104082
0.0393623
9.87933e-05
0.0816648
0.00010233
0.0521738
9.90217e-05
0.000112261
0.0657526
0.000353746
0.064088
0.0840464
0.000110946
9.92487e-05
0.000114923
0.000117492
0.0321052
0.000103446
0.00105719
0.00011983
0.000122681
0.0494759
0.0001468
0.024259
0.0131796
0.069774
0.0214004
0.0040209
0.000109644
0.000106756
0.000102104
0.000843643
0.000415139
0.000248399
0.000145164
9.9198e-05
0.115321
0.0110638
0.00167727
0.0001182
0.000274362
0.000116921
0.000105323
0.000105707
0.000128246
0.0019503
9.67473e-05
0.000384479
0.000107799
0.000104651
0.00331089
0.000133292
0.000111153
0.0752718
0.00866966
0.000115265
0.0464534
0.000102609
0.000102107
9.83883e-05
9.68949e-05
0.000142803
0.000107724
0.000106471
0.029367
0.0671389
0.000114409
0.000107212
0.0246494
0.0010216
0.000112909
0.000102785
0.000102969
9.76674e-05
9.86458e-05
0.000103866
0.000155309
0.000116758
0.0847897
0.000113005
0.0425252
0.000106792
0.000126917
0.000106933
0.0379017
0.00010676
0.000103241
0.119489
0.000122513
0.000116853
0.0209577
0.0610465
0.0449356
0.0761728
0.000322809
0.0125395
0.00011962
0.0556813
0.0248496
0.000109303
0.0834561
0.0442298
0.000110184
0.00106247
0.0001062
0.000113898
0.0766558
0.106478
0.00169674
0.00347584
0.0381494
0.000108668
0.000110871
0.000109116
0.000168931
0.000103209
0.000112312
0.0256986
0.0272886
9.45907e-05
0.000109391
0.00221285
0.000122069
0.000127255
0.0687407
0.000126558
0.00910486
0.000107407
0.0891147
0.0281036
0.00498181
0.000104964
0.000127473
0.00010619
0.000106668
0.00187172
0.000152934
0.000392761
0.000133838
0.000295352
0.000108167
0.000124585
0.128363
0.0445383
0.000263005
0.0481424
0.000108263
0.000121767
0.00010173
0.000114943
0.00010834
0.0439922
0.000611094
0.0379002
0.000107191
0.0790871
9.90033e-05
0.0523657
0.000413573
0.0739035
0.000112749
0.00155499
0.0990624
0.0479028
9.09174e-05
0.00955167
0.0370854
0.000148456
0.00010754
0.082226
9.8689e-05
0.0589259
0.000116725
0.000123211
0.000109226
0.0750922
0.000906942
0.000100612
0.000147953
0.000108318
0.0135449
0.0117052
0.000109115
0.000145058
0.0311359
0.000122449
9.75169e-05
0.000145849
0.0372303
0.0432805
0.00822341
9.94009e-05
0.00010625
0.0891121
0.000154119
0.000119094
0.000107199
0.000145196
0.000103759
0.000107418
0.0750993
0.000108541
0.0188332
0.0310628
0.000105884
0.0559078
0.0838795
9.3104e-05
0.000120586
0.0566116
0.000110352
0.000147568
0.000106083
0.000131198
9.26709e-05
9.43373e-05
0.000109395
0.000109395
0.0358918
9.86067e-05
0.00637948
0.00213911
0.000110392
0.0140665
0.000121745
0.0175282
0.000116338
0.0001373
0.000338053
0.000108122
0.000122159
0.00494115
0.000143768
0.000146564
0.0876784
0.000167494
9.68109e-05
0.0227428
0.00010051
0.0289498
0.000113365
0.000111329
0.00010503
0.000106926
0.000113436
0.0580348
0.000109571
0.101228
0.000641872
0.000105182
0.000114365
0.00047858
0.000111641
0.0275938
0.000122789
0.100334
0.00383465
0.000298964
0.0277059
0.000131734
0.000107825
0.000116124
0.00468484
0.000109209
0.0697791
0.00012446
0.000117641
0.000107797
0.000107471
0.000148141
0.000105674
0.000115946
0.00010716
0.000136397
0.000106915
0.000139335
0.000142328
0.0250946
0.0690936
0.0677388
0.00708678
0.000107154
0.0207188
0.000947911
0.000329025
0.000108405
0.0328821
0.000116484
0.000119206
9.84791e-05
0.000145139
0.000112457
0.0892431
0.000102668
0.0762856
0.000102162
0.000174607
0.000100296
0.000139018
0.024639
0.000142516
9.93081e-05
0.000286684
0.000397411
0.000382428
0.000111804
0.0397638
0.00236488
0.000123473
0.0419813
0.000108363
0.0449853
0.0313447
0.00011918
0.000107196
0.000107134
0.000124037
0.0646393
0.000121994
0.000107903
0.0805398
9.13119e-05
0.000356537
0.0408712
9.78181e-05
0.077608
0.00013079
0.00010846
0.000107665
9.86123e-05
0.000102006
0.000106321
0.0511174
0.000113079
0.000121695
0.000111907
0.00011754
0.0233471
9.41192e-05
0.000104545
0.000117879
0.00024781
0.000110153
0.00011101
0.000127734
0.000145819
0.000111596
0.0309006
0.000121177
0.000147909
0.0485638
0.000103583
0.000117303
0.000103665
0.0439877
0.000123781
0.000334561
9.7668e-05
0.000123862
0.000107435
0.000107426
0.000104021
0.0406884
0.0392457
0.0423188
0.000132712
0.000195817
0.000107727
0.000106735
0.00159915
0.000106967
0.000105983
0.000177412
0.0708486
0.000117597
0.000133389
0.000102469
0.00010676
0.0086805
0.000358837
0.0795379
0.000232063
0.000348222
0.0929061
0.0627298
9.88247e-05
0.00012389
9.82195e-05
0.000107871
0.0120401
0.137697
0.000108086
0.00010759
0.00120187
0.000112487
0.0629807
0.000103782
0.000107225
9.43259e-05
0.000117111
0.000126715
0.0758795
0.000105601
0.00434768
0.019528
0.000177908
0.00664272
0.0949539
9.12468e-05
0.000120479
0.00010539
0.00010622
0.0801372
0.000105251
0.000121073
0.0256625
0.000276348
0.0310389
0.0016697
0.00911033
0.000114391
9.59176e-05
0.00529928
9.14303e-05
0.000145591
0.000106944
0.0666083
9.21863e-05
0.0620948
0.0605485
0.000135572
9.30656e-05
9.48325e-05
0.046572
0.000107091
0.00826695
0.0202262
0.00012809
0.000155649
0.000216267
0.000127182
0.000118124
9.9924e-05
0.000108273
0.0438383
0.000104051
0.000116981
0.000169752
0.0774032
0.000107809
0.0529098
0.000104624
9.80534e-05
0.00010619
0.000112547
9.88846e-05
0.000144704
0.000118761
0.025821
0.000126715
9.68321e-05
0.0761352
0.000107042
0.000102391
0.00012725
0.000102284
0.000116663
0.0240626
0.000100485
0.0599787
0.069416
0.042952
0.0196091
0.000105943
9.18168e-05
0.000143869
0.000107232
0.000111169
0.000109436
0.00129441
0.00010729
0.047833
0.117608
0.000144304
9.68809e-05
0.000109317
0.082194
0.000134912
0.00222458
0.000111809
0.00020971
0.000123391
0.000236211
0.0003292
0.000125086
0.000148375
0.000153399
0.0654002
0.0363891
0.0689957
0.000200817
0.000102937
0.0337107
0.000127086
0.000148444
0.000106108
0.000132669
0.0276142
0.000107494
0.122905
0.0594031
0.000103887
0.000118211
9.22735e-05
9.90954e-05
0.000106852
0.0667773
9.07763e-05
0.000114187
0.000466793
0.000451031
0.0805444
0.0788728
0.0077949
0.000102281
0.000690343
0.000122433
0.00248123
0.000143098
0.0606462
0.0402313
0.000125686
0.000106866
0.0499182
0.000106629
0.000518638
0.0797953
0.0252447
0.0916083
0.000103879
0.0638762
0.0381649
0.000424014
0.000108382
0.00368784
0.00013365
0.000178642
0.0382816
0.000632215
0.00782608
0.0707585
0.0280794
0.000148012
0.000182744
0.000107023
0.0118102
0.000106146
0.000126634
0.000107638
0.0623515
0.000119118
0.000603988
9.91598e-05
0.000114188
0.038274
0.0485594
0.000101737
0.000110345
0.000107433
0.0406531
0.000102402
0.000135255
0.0117534
0.000125422
0.0102596
0.000106374
0.000104021
9.29771e-05
0.000101409
0.0324406
9.91842e-05
0.0670685
0.000284234
0.000103531
9.51764e-05
0.0957422
0.000112768
0.000122348
0.000130647
0.000111497
0.000246576
0.000132724
0.00018917
0.000100495
0.00270194
0.000103594
0.000132524
0.000825523
0.00187713
0.00019455
0.000100455
0.0765887
0.0330333
0.0109867
0.000116755
0.000110219
0.0001303
0.0712866
0.000106022
0.000127339
9.43158e-05
0.000108926
0.000143368
0.000116669
0.00012035
0.000336531
0.000104582
0.0369795
0.0512297
0.000116828
0.0729489
0.00741001
0.0879412
0.000105761
0.000111565
0.000107538
0.000127428
0.000116399
0.000116131
0.000111328
0.000109223
0.000108708
0.000120574
0.0496397
0.000122257
0.030275
0.000224362
0.0492205
0.000117202
0.000104177
0.000107944
0.000117103
0.0210377
0.000111412
0.000114915
0.0823054
0.0380373
0.000120913
0.000135511
0.0108859
0.0458254
9.81152e-05
0.0381706
0.053535
0.000136216
0.000112748
0.0438606
0.000106458
9.53578e-05
0.000105965
0.00018182
9.41161e-05
0.0305414
0.0428899
0.0709754
0.000112583
0.000147135
0.000101938
0.0362818
0.00010719
0.000119497
0.000121966
0.0552713
0.040403
0.000122196
0.00131077
0.00011657
0.000108841
0.000121474
0.067261
0.000104598
0.000119964
0.000134007
0.0265197
0.000112364
0.000109145
0.000102178
0.000193342
0.000107677
9.56249e-05
0.000137586
0.00010734
0.0219143
0.000101467
0.000107031
0.000144111
0.000757179
0.000115744
0.000123845
0.0249482
0.069172
0.000104742
9.42772e-05
0.00282183
0.000256682
0.000120626
0.000114069
0.000104191
0.000115489
9.09319e-05
0.0609885
0.0307938
0.000127161
0.000231203
0.0544198
0.0738264
0.000127278
0.000107352
0.000239042
0.000115449
0.000122971
0.0343367
9.27981e-05
0.000126672
0.000101618
0.0251089
0.012822
0.0467954
0.0369737
0.000112654
0.0382688
0.0290272
0.073203
0.000104224
0.000131446
0.000127111
0.000133571
0.0428343
0.000126881
0.000127032
0.000114208
0.00148451
0.000124195
0.000110341
0.0276084
0.00011237
0.0567628
0.000150849
0.000100675
0.000434447
0.0468624
0.000105217
0.000110621
0.000107603
0.0139439
0.000111016
0.000120345
0.0229768
0.0214932
0.00080717
0.000110945
0.000133822
0.0065071
9.70955e-05
0.000128051
0.000135685
0.0151455
9.23908e-05
0.00153613
0.00012588
0.042188
0.0346502
0.000114191
0.0580423
0.000114675
0.0426652
0.000102889
0.0267622
0.000126053
0.000176203
0.0550251
0.00450872
0.000110609
0.000103373
0.0354567
0.000107459
0.000321032
9.90675e-05
0.000148942
0.0814628
0.000149046
0.0428116
0.000100201
9.75425e-05
0.000107436
0.00011966
0.000111969
0.000297138
9.75033e-05
0.0256144
0.000107218
0.0568854
0.0385607
0.000107918
0.000111624
0.00207623
0.000124736
0.000134184
0.0371191
9.83613e-05
0.0367369
0.000114026
0.0001034
0.000147297
0.000123481
0.000106051
0.00465671
0.0222545
0.0343077
0.00496059
0.000132775
0.00014876
0.0021815
0.0341921
0.0323755
0.000111343
0.0752863
0.0256408
0.00013217
0.000210643
0.00010633
0.0485118
0.00010458
0.000105795
9.9407e-05
0.000108512
0.000107282
0.00684591
0.000105111
9.41931e-05
0.121652
0.0001105
0.0142036
0.000102835
0.110437
0.000106845
0.000120037
0.000124317
0.000146378
0.000125638
9.72889e-05
0.0225727
0.000143961
0.0583661
0.0480176
9.44334e-05
0.000109801
0.000120169
0.0217562
0.000104025
0.0453845
0.0788169
0.000112482
0.0608559
0.065967
9.5528e-05
0.0504154
9.44901e-05
0.000114045
0.000132417
0.000158963
0.00013165
0.000104602
9.4523e-05
0.0260794
0.000634304
0.0293397
0.000114202
0.000110105
0.000104434
0.000130933
0.000116739
0.000103273
0.000105415
0.000112904
0.0441902
0.0696119
0.0543189
0.000116802
0.000109845
0.000115153
0.000123131
0.000505945
0.0838205
0.000107607
0.000466856
0.043046
0.000114189
0.0142237
0.00010624
9.0831e-05
0.000489588
0.000106906
0.000112558
9.51582e-05
9.75337e-05
0.000127967
9.24223e-05
0.00011067
9.58997e-05
0.000139538
0.000111666
0.0370179
9.64689e-05
0.00172418
0.0362118
0.000331258
9.29397e-05
0.000110079
0.000103706
0.000112443
0.000103457
0.0331091
0.000114056
0.000107279
0.00705464
0.0613148
0.000116754
0.0115478
0.000102839
0.0692977
0.0134456
0.000109376
0.000107648
0.000131615
0.00251246
0.0567501
0.0891001
0.000113111
0.000116655
0.0889158
0.000115345
0.00612423
0.0380442
0.0498223
0.000147531
0.00717644
0.038058
0.0744058
0.000122627
0.000108075
0.000106136
0.000149528
0.000123004
0.000142446
0.043232
0.00010127
0.000114044
9.35905e-05
0.000110856
0.000696757
0.000121684
0.000146497
0.0488044
0.000106145
0.000121435
0.000105649
0.000137951
0.000119652
0.000101088
0.0218605
9.29273e-05
0.000123055
0.000128409
0.0985576
0.000145609
0.0331883
0.0315421
0.00899505
0.0247788
0.000104706
0.000106127
0.000371527
0.0337497
0.0415604
0.000150419
0.000114543
0.000147171
0.0397057
0.000111113
0.000103166
0.00167632
0.0479174
9.78336e-05
0.0616885
0.000110619
0.0360976
0.000108665
0.000109308
0.000123323
0.000127555
0.000111485
0.00010999
0.000119457
0.000106882
0.000148364
0.00114764
9.64021e-05
0.000112422
0.00197614
0.0549289
0.000109391
0.00014797
0.000107284
0.00013091
0.000104996
0.000220648
0.0021727
0.000116385
0.000124628
0.000106748
0.0257769
0.00176971
0.0856964
0.000147011
0.000268061
0.000109383
0.00178354
0.0144007
0.000105047
0.000109594
0.0501539
0.000109072
0.000105622
0.00177601
0.000352693
0.000106886
9.45909e-05
0.00717442
0.000115762
0.000129543
0.00919181
0.000111728
0.000128071
0.000107271
0.000104735
0.000110584
0.0142746
0.000107779
0.000116035
0.000103595
0.00010933
9.56879e-05
0.000107236
0.0418959
9.33555e-05
0.0701967
0.0274458
0.00205062
0.000108245
0.00233835
0.000127052
0.0500372
0.044855
0.00012377
0.000107658
0.000105684
0.00011711
0.000148061
0.000102622
0.000123236
0.0234676
0.031582
0.102275
0.00149892
0.000105624
0.0799118
9.68014e-05
0.0245146
0.10477
0.0230519
0.000547545
0.000620597
0.0231228
0.0745144
0.0570698
0.000105474
0.0531345
0.00052305
9.96141e-05
9.35514e-05
9.84102e-05
0.0165122
0.000197182
0.000107325
0.00011405
0.000322142
0.0140051
0.000114628
0.000109765
0.000127011
0.000106317
9.57934e-05
0.000103293
0.000110998
9.85417e-05
0.0167971
0.000124104
0.000142169
0.00010527
0.000119468
0.000107376
0.067341
0.00012696
0.000133066
0.000107668
0.0728374
0.000112699
0.00017759
9.36747e-05
0.000119489
0.000117469
0.000102811
0.000132667
0.000923451
9.59865e-05
0.00014656
0.000106933
0.00010943
9.93085e-05
0.000132251
0.000110207
0.000238331
0.000121262
0.00010725
0.00899216
0.078499
9.89732e-05
0.000111384
0.000105603
0.000110384
0.0380775
0.0025236
0.000130502
0.0258219
0.000103559
0.000132021
0.000142667
0.000132511
0.019611
0.000123335
0.0309541
0.057041
0.00203454
0.021302
0.000107705
0.0323535
0.0499212
0.000104777
0.000126422
0.000104898
0.000106499
0.000111705
0.0723904
9.61926e-05
0.000114038
0.0389192
0.000136778
0.000101177
0.000104815
0.000105801
0.000107651
0.021908
0.000496649
0.0300112
0.024278
0.000282517
0.000122828
0.00010717
0.000123957
0.0388492
0.000107849
0.00517683
0.024996
0.0671969
0.00014612
0.000102343
0.0633775
0.0414194
0.00622489
0.0579912
0.000148323
0.042087
9.45005e-05
0.000103586
0.000108335
0.000149238
0.0607508
0.000111515
0.000109956
0.000142476
0.0367994
0.0263794
0.000103525
0.000116512
9.57987e-05
0.0673742
0.00256136
0.000103265
0.049774
0.0226719
0.000151842
0.0526539
0.000748101
0.000183119
0.075327
0.000107263
0.0526529
0.127378
0.000106295
0.0321968
0.000161182
0.0684138
0.000114199
0.0593586
0.000116674
0.000398246
0.0447543
9.77931e-05
0.000129835
0.0850518
9.62073e-05
0.0486211
0.000125247
0.000111605
0.000103666
0.0250118
0.000157383
9.61834e-05
0.000122686
0.00010806
0.000103765
0.000147814
0.000103786
0.000105176
0.0326756
0.000107996
0.0265352
0.0423673
0.0804176
0.000104791
0.00470217
0.0371725
0.000132633
0.000143848
0.014222
0.000118108
0.00214737
0.0820257
0.000105281
0.0124595
0.0071365
0.000105083
0.0777813
0.000107142
0.00367099
0.000106919
0.0214178
9.87951e-05
0.045089
0.000112311
0.0461065
0.00422677
0.000218661
0.000112762
0.000707906
0.00102626
0.000130213
0.00126573
0.038674
0.000116254
0.0988872
0.000133117
0.000335383
9.86873e-05
0.000134785
0.0001166
0.0423388
0.00010713
0.0446791
0.0230991
0.000107602
0.000112261
9.5818e-05
0.000107329
0.000106397
0.000114778
0.0142106
0.042701
0.0223638
0.0001006
0.0601107
0.0506711
0.0397673
0.000104136
0.0560267
0.000117275
0.000117644
0.010869
0.029432
0.000104547
0.0874978
0.000135111
0.000126496
0.057302
0.000107503
0.0897407
0.0223117
0.000132582
0.00784177
0.0479899
0.0713761
0.000102783
0.0219543
0.000545271
0.000105079
0.000118509
0.000106069
0.0282417
0.0519133
9.88748e-05
0.000108818
9.90404e-05
0.000122932
0.00216205
0.000124276
0.000102642
0.000120973
0.00011006
0.000127709
0.000836817
0.00011198
0.000106271
0.000106763
0.000342994
9.1664e-05
0.000109615
0.064748
0.0576086
0.000109098
0.0340651
0.000119638
0.0223931
0.0597062
0.0373602
0.000124142
0.000117427
0.000110094
0.000136461
0.000106789
0.000112689
0.000146884
0.000112453
0.000116536
9.36973e-05
0.0475844
0.000122715
0.00178306
0.0875409
0.000182128
0.000149249
0.000103654
0.000107576
0.000103688
0.0651799
0.0265578
0.000103562
0.000165124
0.000106718
0.000146106
0.000107754
0.000102338
0.0358222
0.0728444
0.000120324
0.000103854
0.000231547
0.000109318
0.0125144
0.00013428
0.0234704
0.000102945
9.77614e-05
0.000113494
0.00010654
0.000159063
0.0536336
9.78239e-05
0.0442357
0.0347971
0.000126678
0.0396258
0.0194709
0.000124825
0.000101608
0.000111974
0.000111371
0.0227115
0.000126797
9.12231e-05
0.000130301
0.0365488
0.000106312
0.000140401
0.00101705
0.000163224
0.0846722
0.000101317
0.000126489
0.000494842
0.000124083
0.000116585
0.000117179
0.0597859
0.0001089
0.0457828
0.000273444
0.0374919
0.000130658
0.00973652
0.000342811
9.46513e-05
0.000108048
0.000107263
0.0710669
0.000109357
0.000106061
0.0733259
0.000105426
0.000103542
0.000215662
0.0339798
0.000101884
0.000110595
0.000106297
0.000101531
0.000105707
0.0807232
0.0373898
0.000112699
0.000107853
0.0643372
0.000123962
0.0453875
0.0238076
0.0503742
9.41234e-05
0.000116516
0.0792523
0.0494213
0.0244397
0.000102929
0.000116544
0.000110833
0.077136
0.00011629
0.000104827
0.000122948
9.9699e-05
0.000282998
0.000122405
0.00011236
0.000107898
0.000111824
9.4004e-05
0.000107211
0.0755006
0.000109325
0.0606091
0.118096
0.0281485
0.000108626
0.0123391
0.0501242
0.000114066
9.46572e-05
0.0661206
0.00011338
0.0584012
0.000107339
0.000146032
0.000254432
0.00092704
0.000110892
0.000149003
0.000103565
0.000112301
0.000126272
0.054805
0.000110188
0.101458
0.00888705
0.000107322
9.69051e-05
0.0915716
0.0254247
0.000111059
0.000120292
0.000128545
0.000106881
9.6564e-05
0.000109401
0.000106394
0.000124833
0.0411578
0.000101947
0.0308742
0.00142228
0.000109903
0.0725677
0.0509301
0.000122792
0.000102058
0.000107895
0.0001196
0.0251225
0.0452338
0.000111461
0.0536211
0.0250663
9.79164e-05
0.000105776
0.0414952
0.000109104
0.0960404
0.0253171
0.0368386
0.000718665
0.000113983
0.0533688
0.000235223
0.0643685
0.0361362
9.13679e-05
0.000112488
0.000489226
0.000120848
0.000107951
0.000144971
0.000100379
0.000111449
0.00012295
0.00013884
0.000127137
0.000140258
0.000108132
0.00360129
0.00028475
0.000111651
9.37376e-05
0.0489964
0.000125578
0.000134656
0.000225065
0.00013579
0.00010345
9.49225e-05
0.0143141
0.000109482
0.000105452
0.0622857
0.000103958
0.000146059
0.0297087
0.000242305
0.000105748
0.000105397
0.000135779
0.000139738
0.000159663
0.000110399
0.00011268
0.0694339
0.034077
0.000108007
9.31218e-05
0.000107706
0.00085135
0.000109332
0.000112298
0.000116329
0.000131397
0.000114177
0.000107037
0.000136122
0.000101767
0.0588113
0.000147871
0.000701632
0.0399902
0.000112948
0.000120458
0.000145464
0.000111447
0.000104531
9.4528e-05
9.60816e-05
0.00896405
0.000246101
0.0120993
9.53887e-05
0.000579466
0.000122588
0.00101277
0.127859
0.000112538
0.000124184
0.00012601
0.000114063
0.000194899
0.000116475
0.000126155
0.000749381
0.000138289
0.000123258
0.000137744
0.000111341
0.0062003
0.0899019
0.000103841
0.000107125
0.000114254
0.0697508
0.000129109
0.000380779
0.000128985
0.000104784
9.67545e-05
0.000125824
0.023449
0.0668011
0.000906717
0.000141432
0.00010956
0.000130973
0.000119626
0.0910074
9.99307e-05
9.41795e-05
0.000178907
0.0558859
0.0355756
0.0228304
0.0343811
0.000119482
9.98636e-05
0.0630994
0.0827343
0.00176819
0.00998343
0.000105218
0.000110586
0.0360999
0.000111825
0.000102708
0.000107496
9.46334e-05
0.000112202
0.000137167
0.0455951
0.0202858
0.000121835
0.00012275
0.000111065
9.59825e-05
0.000119105
0.016536
0.000132428
0.000131167
0.000112539
0.000106696
0.000103712
0.00011712
0.00011744
0.000116848
0.000119577
0.0678054
0.0446679
0.000259843
0.00010927
0.000105838
0.000120549
9.96048e-05
0.000356497
0.0011599
0.0330759
0.0601428
0.000136487
0.000117656
0.000104927
0.0411415
0.000106445
0.000148187
0.0011002
0.0255097
0.0385272
0.0672887
0.0712961
0.000135284
0.0518785
0.00010662
9.47222e-05
0.0766693
0.00012166
0.000136617
0.000280992
0.000107776
0.120192
0.000113098
0.0754818
0.000108317
0.000120087
0.000118307
9.11928e-05
0.000125752
0.000106307
0.000131782
0.000101843
9.83313e-05
0.000766144
0.000129274
0.0513831
0.000105692
0.0901056
0.00012358
0.00293674
0.0200274
0.0274344
0.010325
0.000220952
0.00691199
0.00010672
0.000132039
0.000105682
0.000112868
0.000974837
9.31956e-05
0.000108598
0.000106588
0.000106896
0.000124192
0.0550649
0.000101929
0.000104228
0.0001061
0.000107658
9.52824e-05
0.00018997
9.63253e-05
9.598e-05
0.000122921
9.47419e-05
0.0102482
0.000118684
0.0266846
0.000111144
0.000121742
0.000114224
0.000142533
0.000131236
0.0481098
0.000148427
0.0147158
0.0880072
0.000133294
0.00012148
0.000107159
0.0416484
0.000112571
0.000113699
0.0563219
9.37854e-05
0.000148014
0.00011573
0.0585143
0.00011166
0.0582301
0.000112513
0.0322366
0.000228518
9.27227e-05
0.000140176
0.000128003
0.000107974
0.0347837
0.0417818
0.000132318
0.0266592
0.000103591
0.000103869
0.0235149
0.0387384
0.000132438
0.000102965
0.0507151
0.000128488
0.037793
0.000120764
0.000522287
0.0352001
0.042041
0.000827608
0.00012782
0.000150688
0.000126662