/*--------------------------------*- C++ -*----------------------------------*\
| =========                 |                                                 |
| \\      /  F ield         | OpenFOAM: The Open Source CFD Toolbox           |
|  \\    /   O peration     | Version:  v2012                                 |
|   \\  /    A nd           | Website:  www.openfoam.com                      |
|    \\/     M anipulation  |                                                 |
\*---------------------------------------------------------------------------*/
FoamFile
{
    version     2.0;
    format      ascii;
    class       volVectorField;
    location    "300";
    object      U;
}
// * * * * * * * * * * * * * * * * * * * * * * * * * * * * * * * * * * * * * //

dimensions      [0 1 -1 0 0 0 0];


internalField   nonuniform List<vector> 
33474
(
(0.999201 -0.00365851 0)
(1.00943 -0.0133255 0)
(-0.230736 0.000877307 0)
(1.05284 -0.0376024 2.93147e-21)
(0.980536 0.00180104 -1.24317e-21)
(0.253414 0.0840127 0)
(1.0351 -0.0685696 -1.88679e-21)
(1.00056 -0.0129483 1.20925e-21)
(1.00069 -0.0126581 0)
(1.01435 -0.0038704 0)
(0.812468 -0.0943904 0)
(1.0134 -0.0141009 6.21314e-23)
(1.00532 -0.00806699 -5.05328e-22)
(1.00846 -0.0133664 -1.15606e-22)
(0.742144 -0.285386 1.28866e-20)
(0.681624 0.0680267 -4.87048e-21)
(0.992594 -0.0184531 2.14817e-21)
(0.687908 0.0623902 0)
(-0.1817 0.00282892 0)
(0.992441 -0.0181013 0)
(1.01004 -0.00645273 -3.60978e-24)
(0.972876 -0.0129875 9.7917e-21)
(0.961354 -0.0292646 -3.94672e-21)
(1.23047 -0.0635205 -2.43444e-20)
(0.425015 0.129634 8.36237e-20)
(0.971483 -0.0150634 0)
(1.06901 -0.0198481 6.00644e-21)
(1.22909 -0.0585859 0)
(0.521062 0.0379066 0)
(0.945004 -0.022758 -7.581e-21)
(1.01989 -0.0288385 0)
(1.01024 -0.0277785 1.27289e-23)
(1.22714 -0.0490135 0)
(1.06917 0.0171988 5.71223e-21)
(0.615398 0.151323 0)
(0.571961 0.0701371 1.39759e-20)
(0.980809 -0.0386223 0)
(0.994097 -0.00965776 0)
(0.878724 0.0108917 -1.15987e-20)
(1.18197 -0.0218153 -7.24239e-21)
(1.00019 -0.000152323 0)
(0.261347 -0.00527877 -2.52114e-20)
(-0.0299212 0.0238121 1.8271e-20)
(1.00001 -0.000321986 -1.11762e-21)
(0.493029 0.050705 -6.4264e-21)
(0.982643 -0.441187 -1.41302e-20)
(1.00005 -0.000427029 2.08913e-21)
(0.585006 0.0764115 0)
(1.02691 -0.0608528 -2.1811e-21)
(1.07091 -0.168973 8.08003e-21)
(1.05148 -0.0375914 0)
(0.986204 -0.0221946 -6.88619e-21)
(0.416066 0.149032 -7.20804e-20)
(0.844818 0.059662 3.15153e-21)
(0.980881 0.00150841 2.14924e-21)
(0.370212 0.100449 -4.88718e-20)
(0.984518 -0.0191055 0)
(1.02323 -0.040267 0)
(-0.183849 -0.010449 -9.27316e-20)
(-0.151027 0.00768077 1.45108e-20)
(1.02144 -0.0289951 1.01246e-21)
(1.10085 -0.0254891 3.78611e-21)
(0.247692 0.00649871 0)
(1.05286 -0.0238738 0)
(0.999285 -0.00354913 -2.50567e-21)
(0.984493 -0.0196553 0)
(1.15118 -0.193902 -3.23755e-20)
(0.593517 0.05432 0)
(1.02209 -0.0291091 -2.27078e-21)
(0.553685 0.0363581 -9.47823e-21)
(1.07353 0.00956102 0)
(1.09026 0.0116876 -1.49779e-21)
(1.00004 -0.000363469 0)
(1.06084 -0.0396595 -3.86837e-21)
(1.01226 -0.0138657 0)
(0.8033 0.0712696 0)
(0.939863 -0.0172665 -1.21806e-20)
(1.01155 -0.00218271 -3.17099e-22)
(0.98059 0.00262542 1.00763e-20)
(0.982418 -0.242156 -1.65347e-21)
(0.431072 0.0295733 -1.55754e-22)
(0.978382 -0.0203597 0)
(0.314783 -0.00336379 4.60629e-21)
(1.02627 -0.00698057 7.51907e-22)
(0.804761 0.0665632 0)
(0.539863 0.0400367 4.93767e-21)
(1.16742 -0.0193949 3.06897e-20)
(-0.128656 -0.0102076 0)
(0.0479664 0.00531607 -2.34976e-20)
(1.07822 -0.0553362 7.22197e-21)
(0.433533 0.0516124 0)
(1.00178 -0.00502077 -1.58865e-22)
(0.676244 -0.0458209 4.25069e-21)
(1.01143 -0.00203587 0)
(0.965961 -0.0657058 0)
(0.985572 -0.0222728 3.9986e-21)
(1.0103 -0.00647608 -1.04241e-25)
(0.981007 0.00282577 -7.97294e-21)
(1.01729 -0.000183827 0)
(-0.231874 0.0107281 6.3454e-20)
(1.0142 -0.0040012 0)
(0.417826 0.0544338 0)
(0.23346 0.038038 2.1264e-20)
(0.972722 -0.0139589 -6.22626e-21)
(1.11223 0.0325501 0)
(0.596068 0.0518012 0)
(1.14365 0.0290917 0)
(1.00164 -0.000225331 -1.57057e-21)
(1.03837 -0.0521926 -9.08263e-23)
(1.14009 -0.146495 4.18082e-20)
(0.873841 -0.254163 0)
(0.800675 0.0555721 0)
(0.827857 0.0585492 0)
(1.09226 0.00385796 -2.28234e-20)
(0.681678 -0.0373562 9.00911e-22)
(1.28611 -0.157337 1.52485e-21)
(0.994793 -0.00867793 3.82476e-21)
(0.979098 -0.0202868 0)
(1.05206 -0.0230587 0)
(1.01618 -0.00418701 -2.02936e-22)
(1.04452 -0.0150047 3.57209e-21)
(1.05222 -0.127705 9.30841e-21)
(1.05481 -0.0219503 7.68686e-21)
(1.03854 -0.0509779 -6.35309e-21)
(1.16942 -0.000300328 2.96477e-20)
(0.241087 0.00515083 0)
(0.767063 -0.169996 0)
(1.07018 0.013381 0)
(0.327048 -0.00604485 -4.73491e-21)
(0.824314 0.0485795 0)
(1.12746 0.0277729 0)
(0.57097 0.0372497 4.48142e-21)
(0.883849 -0.401116 0)
(0.805147 -0.0939668 -7.64304e-21)
(0.944167 -0.024198 0)
(1.03115 -0.00896734 -4.6913e-21)
(1.00157 -0.000272963 2.03284e-21)
(0.956392 0.00194623 0)
(0.964125 -0.0662129 -8.80249e-21)
(1.0015 -0.00306084 5.1452e-22)
(0.883765 0.0484243 1.63588e-20)
(0.994881 0.0510252 0)
(0.763967 0.0179335 4.63058e-21)
(1.0136 -0.0110933 -3.04073e-22)
(1.08319 0.0345426 -1.76832e-21)
(0.842749 -0.225044 -1.2571e-20)
(0.522952 -0.61623 0)
(1.01513 -0.00384868 3.94662e-22)
(1.11485 -0.0495599 0)
(1.11433 0.00492717 0)
(0.999315 -0.00366788 -5.1405e-21)
(0.962854 -0.0312251 1.60982e-20)
(1.07019 -0.0200524 -8.29265e-21)
(1.00979 -0.00786416 2.65617e-22)
(1.05093 -0.123309 -5.93681e-21)
(1.01287 -0.00306145 6.88878e-24)
(0.516377 0.0376585 2.33134e-20)
(1.07039 -0.00887495 2.47685e-21)
(0.72018 -0.0772228 2.57648e-20)
(0.229657 -0.00428685 -5.60345e-21)
(0.997438 0.000720333 4.44309e-22)
(0.755152 0.0201676 -4.58377e-21)
(-0.25795 0.00597414 0)
(1.0439 -0.014724 2.86802e-21)
(0.263559 0.0409807 -1.88177e-20)
(1.06108 -0.125852 -5.0278e-21)
(1.0171 -0.000160369 2.08808e-21)
(0.967635 -0.151884 8.10674e-21)
(0.999387 -0.00355716 4.85517e-21)
(1.00279 -0.0105389 -1.56928e-22)
(0.776988 -0.167767 0)
(1.00058 -0.00519539 -1.31677e-21)
(1.00298 -0.0106572 1.57897e-21)
(0.824964 0.0572008 1.12973e-20)
(1.00469 -0.0290155 2.13857e-21)
(1.04267 -0.0261587 3.1908e-21)
(0.902491 0.0488191 0)
(0.951857 -0.0344515 0)
(1.16895 0.0107797 2.70689e-20)
(1.0998 -0.0363255 1.17122e-22)
(0.997152 -0.00957578 0)
(1.07088 0.0139937 0)
(0.96275 -0.0324399 -2.15442e-20)
(0.834264 0.0466224 -2.31798e-20)
(1.00926 -0.0141375 3.32868e-22)
(1.13083 -0.0754089 0)
(0.840246 -0.0832072 -2.20319e-20)
(0.615354 0.0436807 0)
(-0.231934 0.0079801 8.05375e-21)
(1.00373 -0.00739281 -1.92695e-22)
(0.864953 -0.0342228 0)
(1.13573 -0.241591 -9.60688e-20)
(1.01244 -0.0136103 0)
(1.12926 -0.0730502 0)
(-0.277604 0.0050833 0)
(0.988546 -0.237707 0)
(1.01997 -0.00264409 -2.15189e-23)
(0.822385 -0.0589168 2.43499e-20)
(0.242568 -0.00693358 -9.14003e-21)
(0.841788 0.0517493 1.45339e-20)
(1.03078 -0.00912549 4.68114e-21)
(1.12206 0.0412294 -1.42504e-21)
(1.05544 -0.128027 4.129e-21)
(1.00436 -0.0285035 0)
(1.00148 -0.00314773 -5.57435e-22)
(1.00378 -0.00763708 2.77523e-21)
(1.12605 0.0382505 0)
(1.10327 -0.108237 4.3705e-21)
(0.863179 -0.362854 -2.59027e-21)
(1.15151 0.0141372 1.43866e-20)
(1.07664 -0.056162 3.6775e-21)
(0.451375 -0.0114122 0)
(0.704707 0.104974 -5.90473e-20)
(0.956231 -0.124941 2.09404e-20)
(1.00722 -0.00542396 0)
(1.07134 -0.176866 -3.49356e-20)
(1.00316 -0.00621212 0)
(0.163896 0.0339253 1.31855e-20)
(1.08934 0.0112236 -5.23648e-21)
(0.862481 -0.0375975 -8.19349e-21)
(1.14993 0.0128434 -2.83029e-22)
(1.00134 -0.00511329 -1.7204e-21)
(1.01138 -0.0194633 1.62894e-22)
(0.867837 -0.262968 0)
(-0.0290868 -0.0264575 0)
(1.02815 -0.114493 0)
(0.743457 -0.270431 0)
(0.997955 4.36912e-05 -4.74528e-21)
(0.567593 0.0343922 -4.26599e-21)
(0.63179 0.0526115 0)
(1.07319 0.00474413 -4.89162e-21)
(0.600375 -0.478016 -2.22721e-20)
(0.988483 -0.00820597 5.07716e-21)
(0.527119 0.0384148 -2.07102e-20)
(0.511902 0.0390891 -5.22506e-21)
(0.997376 -0.00525789 0)
(1.01 -0.00472512 -2.81358e-23)
(1.11298 0.0331072 0)
(1.01013 -0.0271655 2.1185e-22)
(-0.0839315 0.0193642 2.97142e-20)
(1.1833 -0.0419982 -3.36952e-20)
(-0.226732 0.00639949 1.17196e-19)
(1.01838 -0.0141007 0)
(1.00737 -0.00585484 -3.51541e-22)
(0.958116 -0.0227224 4.93906e-21)
(1.12456 0.0396872 1.99782e-20)
(0.727414 -0.083301 -3.14751e-20)
(0.995694 -0.0662828 0)
(0.260925 -0.0677388 6.49112e-20)
(1.05344 -0.038668 -3.09038e-21)
(1.11974 0.0433402 -2.95364e-20)
(0.995615 -0.00103352 0)
(0.267837 -0.00659306 2.51144e-20)
(1.20407 0.00214165 -5.11302e-20)
(1.21889 -0.0201843 -4.89376e-20)
(1.00812 -0.000546186 0)
(1.02208 -0.0161842 1.56243e-21)
(1.10014 -0.0268951 -3.67147e-21)
(0.890059 0.0477871 -7.43603e-23)
(0.256031 -0.00257482 -9.70954e-21)
(1.02787 -0.0349835 -2.55735e-21)
(0.84543 0.0474018 -2.90306e-20)
(1 -0.00142399 0)
(1.02375 -0.00681385 7.35244e-22)
(1.00654 -0.00810759 -7.80048e-22)
(0.826036 0.0802028 0)
(-0.0881455 0.0211611 2.13892e-20)
(0.996055 -0.00535305 0)
(1.05943 -0.0394129 0)
(1.14438 -0.145428 -3.69042e-20)
(1.00595 -0.0418195 -3.76336e-21)
(1.09406 -0.0336469 4.99603e-21)
(0.95908 -0.0250181 -1.13987e-20)
(0.994245 -0.00896354 0)
(0.0428603 0.0104119 0)
(0.957318 0.00246918 0)
(0.964167 -0.312374 0)
(-0.107469 0.0163426 4.6108e-20)
(0.878406 0.0139727 -1.15362e-20)
(1.03617 -0.0698807 1.96379e-21)
(1.08264 0.0337943 1.60774e-21)
(0.930466 0.00570899 -3.15314e-20)
(1.02701 -0.062337 1.56982e-21)
(1.01358 -0.0144164 -1.5276e-23)
(1.00992 -0.0300777 -2.1913e-21)
(1.02168 -0.0162406 -2.90525e-22)
(1.00659 -0.00794143 7.0519e-22)
(0.546037 0.55204 -2.83041e-20)
(1.06971 -0.00986626 4.45072e-21)
(1.01178 -0.0314298 7.08912e-22)
(0.161461 0.00624047 3.53558e-21)
(0.995947 -0.00257172 1.17448e-21)
(1.00037 -0.000217988 0)
(0.0300101 0.00793245 7.05771e-21)
(0.342272 -0.00479669 -2.03289e-20)
(1.05385 0.0427662 0)
(0.864424 -0.0261078 0)
(0.651486 -0.347842 2.78317e-21)
(1.12767 0.0270424 1.51229e-21)
(1.12136 0.0180776 -3.95209e-20)
(1.12434 0.0388095 0)
(1.04259 0.0505625 0)
(-0.185236 0.00619688 1.58067e-20)
(0.695469 0.0298146 1.61937e-20)
(1.12094 0.0409797 0)
(1.02588 -0.0042204 0)
(0.903324 0.0142116 0)
(0.0622672 -0.00652886 0)
(0.185232 0.0374271 0)
(0.962485 -0.000105469 0)
(1.10164 -0.0359652 -2.21087e-20)
(0.932102 0.00880357 -5.76254e-21)
(1.00386 -0.000713564 -1.32251e-21)
(0.932031 0.00608538 2.71834e-20)
(0.937733 -0.043351 -1.89414e-20)
(1.22334 -0.174447 0)
(1.01775 -0.00738536 1.42062e-21)
(1.16621 0.0104329 -2.02868e-20)
(0.993354 -0.0501643 -1.88313e-21)
(0.928699 0.0496969 0)
(1.02341 -0.00683822 1.37658e-21)
(1.02048 -0.0709125 -2.21313e-22)
(0.958097 0.00443126 0)
(1.1126 -0.0670251 0)
(1.02986 -0.0081972 4.6587e-21)
(0.854133 -0.372443 -1.19364e-20)
(1.00173 -0.00484235 0)
(0.998073 -0.0511336 0)
(1.01306 -0.00319799 -2.91066e-22)
(0.987368 -0.00413677 -3.75919e-22)
(0.971158 -0.146462 3.68904e-20)
(1.02525 -0.0562255 -2.33394e-21)
(1.00302 -0.00607559 2.62024e-21)
(0.762726 -0.0169809 -8.22344e-20)
(1.00005 -0.00478601 2.18077e-21)
(1.1038 0.0468922 -6.22095e-24)
(1.17331 -0.0532109 6.83036e-21)
(1.0104 -0.00210162 0)
(-0.175343 -0.00610065 8.14085e-20)
(0.0420708 -0.00958282 0)
(0.99994 -0.000691434 -9.98608e-22)
(-0.0318123 -0.0223945 1.06489e-20)
(0.991709 -0.0120621 0)
(0.869135 -0.0266442 0)
(0.875491 -0.0866963 1.93184e-21)
(1.20465 0.000388376 4.453e-20)
(1.01916 -0.0698585 6.46702e-22)
(1.00001 -0.000471534 -6.9012e-22)
(1.06405 -0.124929 5.48927e-21)
(1.02556 -0.00424964 -6.86461e-22)
(0.99158 -0.0116559 5.26433e-22)
(0.37165 0.00644322 -8.5698e-21)
(1.00586 -0.00796651 0)
(0.432059 0.0225396 -5.55135e-21)
(0.207656 0.00691138 0)
(0.0304434 0.00412468 5.02558e-20)
(1.0369 -0.210301 4.75205e-20)
(-0.0991471 -0.000815747 7.60171e-20)
(1.06598 0.0106122 -6.8024e-21)
(1.00031 -0.00938141 -2.97051e-21)
(1.12184 0.0192445 8.8593e-21)
(1.0208 -0.0031331 1.72826e-21)
(0.587037 0.0420664 9.98041e-21)
(1.01787 -0.00762656 0)
(0.979306 -0.0213562 0)
(1.22819 -0.0134464 -3.14336e-20)
(1.00787 -0.000536492 1.55227e-22)
(0.956429 -0.128041 -5.46934e-21)
(1 -5.34633e-05 0)
(-0.0244569 0.027377 -1.30961e-22)
(1.0016 -0.00691797 0)
(1.04745 -0.123125 -1.32501e-20)
(0.635194 0.0446254 -9.70259e-21)
(0.957791 -0.0240531 0)
(0.971742 -0.0142096 0)
(0.583323 0.0380834 0)
(0.384302 0.0101518 -7.94087e-21)
(1.00754 -0.04017 0)
(0.574386 0.558677 2.0205e-20)
(0.997448 0.000224636 6.07236e-21)
(-0.210071 -0.000541726 0)
(1.2077 -0.398318 0)
(0.97998 -0.0377451 2.87974e-21)
(1.00015 -0.00014452 8.99277e-22)
(0.955718 -0.305502 2.12724e-21)
(-0.218077 0.0071085 -9.26167e-20)
(0.933602 0.00930635 0)
(1.01412 -0.0119716 -5.21081e-22)
(0.993329 -0.0490156 0)
(-0.152022 0.00939793 -4.2678e-20)
(0.688468 0.0527206 4.04192e-21)
(1.00977 -0.00478021 3.87536e-23)
(0.768557 -0.0207516 6.86617e-20)
(-0.0341618 0.0265763 -2.01411e-20)
(1.01054 -0.0298754 1.32602e-21)
(1.00395 -0.00781766 0)
(1.00472 -0.00288339 1.8374e-22)
(0.850131 -0.22291 1.39838e-20)
(1.00088 -0.00274255 0)
(1.02588 -0.0555866 0)
(0.167896 0.00768126 0)
(1.19312 -0.40592 0)
(1.00006 -0.000403518 -1.39781e-21)
(1.1029 -0.188194 -1.72106e-20)
(1.00957 -0.00459717 -3.68574e-23)
(1.00456 -0.0028393 -7.933e-22)
(0.349061 -0.0058418 2.7746e-20)
(1.0965 0.0452714 7.01985e-21)
(0.988051 -0.00813323 0)
(1.00002 -0.000676216 -7.91238e-22)
(0.997358 -0.00505538 0)
(-0.202114 -0.00878139 7.35897e-20)
(0.999915 -0.000776764 0)
(0.411783 0.00599829 -1.62162e-20)
(1.11602 -0.0480837 0)
(1.02693 -0.013327 -1.55663e-21)
(1.01499 -0.00396144 1.12713e-21)
(0.425452 0.0282281 -1.71423e-20)
(1.05568 -0.0223734 -4.47593e-22)
(0.116607 -0.00624256 0)
(1.0273 -0.0343717 2.42898e-21)
(0.846825 0.0495631 0)
(0.198552 -0.00432252 0)
(1.02422 -0.032632 8.80528e-22)
(0.284781 0.0324217 0)
(0.799042 0.0618186 4.57023e-21)
(0.282584 -0.13394 5.5431e-20)
(-0.175107 0.00806555 -3.33217e-20)
(1.09615 0.0442789 0)
(0.280831 0.039108 9.61168e-21)
(1.05607 0.00535922 0)
(1.09879 0.0469374 3.76917e-22)
(0.00162934 0.00741653 1.39242e-20)
(0.997605 -0.00824992 1.98651e-21)
(1.01004 -0.00717544 0)
(0.994884 -0.00895379 -3.13581e-21)
(0.980031 -0.0214182 0)
(0.994667 -0.0187643 0)
(0.995711 -0.000818502 1.20818e-21)
(1.06683 -0.0345839 2.15183e-21)
(1.09555 0.00619512 1.99442e-20)
(1.00004 -0.00108172 0)
(1.01535 -0.0125461 0)
(1.00689 -0.00789145 0)
(-0.0197646 0.00834121 -5.88007e-20)
(1.12483 0.0400091 1.76912e-20)
(1.02032 -0.0212985 0)
(1.0704 -0.0223694 -1.85205e-20)
(1.01965 -0.0107945 8.256e-22)
(0.961287 -0.0307169 6.60716e-21)
(1.00367 -0.0285713 -5.63629e-22)
(0.270563 0.0292646 0)
(1.09335 -0.0325464 -2.92409e-21)
(0.967631 -0.00637904 0)
(0.186118 0.00359738 -1.18408e-20)
(1.00104 -0.00563616 -8.47066e-22)
(1.00729 -0.00606799 0)
(1.00336 -0.0279957 -1.62103e-21)
(1.11892 0.0438658 2.92467e-20)
(1.10197 0.0310401 2.14485e-20)
(1.0742 0.0523491 -7.05116e-22)
(0.687583 0.0519999 -1.69611e-20)
(-0.19613 0.00504358 0)
(0.29908 -0.00701058 -8.1628e-21)
(-0.0909086 -0.0115156 0)
(1.01388 -0.581149 3.16438e-21)
(0.996785 0.000101598 -1.04638e-20)
(0.673144 0.0536055 -3.28977e-20)
(1.00175 -0.00792917 0)
(0.994502 -0.00520369 -3.05826e-21)
(0.448623 0.0254937 -1.14641e-20)
(1.00356 -0.00721001 1.70253e-22)
(0.129829 -0.00921135 0)
(-0.216197 -0.0103132 0)
(0.947251 0.0425511 0)
(0.695179 0.103709 8.08908e-20)
(1.02915 -0.0500282 -1.58266e-21)
(0.978904 -0.0411341 -1.90393e-22)
(1.1094 -0.0778313 -2.512e-20)
(0.978438 -0.192418 0)
(-0.217357 0.00697682 -3.62282e-20)
(0.99766 -0.00799223 2.02249e-21)
(0.307254 0.0418272 1.66141e-20)
(0.580801 -0.0954201 4.98079e-20)
(1.06681 0.0102399 0)
(-0.0835614 0.01948 -2.26244e-20)
(-0.0222746 0.0103616 2.7453e-20)
(0.99825 -0.0059082 0)
(0.0149009 0.338139 1.50296e-21)
(1.02961 -0.0541391 1.41534e-21)
(1.01504 -0.0122189 1.21514e-22)
(0.871486 0.0347195 3.97172e-20)
(1.20155 -0.179726 -8.88968e-20)
(0.996023 -0.00236753 -1.19337e-21)
(0.996945 -0.00973913 1.39221e-21)
(1.05137 -0.0114369 -8.87195e-21)
(0.905448 0.015761 0)
(0.975262 -0.0130184 2.9879e-21)
(0.411274 0.00654787 0)
(1.05675 0.00495817 3.25711e-21)
(0.286846 0.0304893 0)
(1.01829 -0.0144248 6.4823e-22)
(0.993391 -0.0183158 0)
(0.790382 0.0560376 3.75824e-21)
(1.10218 0.0301802 -1.45148e-20)
(1.11948 -0.242096 0)
(1.1762 -0.351393 3.52433e-20)
(1.12724 -0.0857225 1.13661e-20)
(0.35596 -0.00693451 -9.16291e-21)
(0.423083 0.0201486 1.86042e-21)
(1.12129 -0.633965 3.47241e-20)
(0.706219 0.0294856 1.35143e-20)
(1.00063 -0.00537791 -4.90421e-22)
(0.993896 -0.00889926 5.87002e-21)
(1.09244 0.00265636 1.09421e-20)
(-0.133624 0.0102966 2.59779e-20)
(0.975516 -0.00111923 5.48039e-21)
(0.276078 0.030523 0)
(0.279903 0.0288897 2.28072e-21)
(1.00573 -0.00812307 0)
(1.00341 -0.0440292 0)
(1.00163 -0.00447102 1.20892e-23)
(0.657533 0.0483662 2.11879e-20)
(1.08429 0.0169064 0)
(0.518175 -0.128935 0)
(1.19832 -0.122159 2.05757e-20)
(-0.0105937 -0.00968966 -1.23582e-22)
(-0.253071 0.00689958 1.95644e-20)
(1.11976 0.0414681 -1.31888e-20)
(1.00677 -0.0118956 0)
(0.967483 -0.0080804 0)
(1.11338 0.0277982 -5.61715e-21)
(0.975403 -0.188593 -5.71441e-22)
(0.0499731 -0.0823768 -1.84189e-19)
(1.02552 -0.00458561 2.05675e-21)
(-0.151387 0.00185871 0)
(0.987604 -0.0186996 0)
(0.262055 0.0291926 0)
(1.17173 0.0280997 -1.03117e-20)
(0.993994 -0.00420163 3.16805e-21)
(-0.0594385 -0.00235767 -7.20416e-20)
(-0.0393031 0.0230766 1.64579e-20)
(1.12326 -0.0215827 1.07198e-20)
(1.00682 -0.00801821 6.98576e-22)
(1.13416 -0.154875 1.6714e-20)
(0.14093 -0.00244464 0)
(0.355106 0.00520678 -1.13319e-21)
(1.01131 -0.00680259 -8.10274e-23)
(0.0783582 0.42272 6.7285e-20)
(1.22311 -0.0174228 2.17021e-20)
(1.02673 -0.0129456 2.03361e-21)
(0.864779 -0.33523 0)
(1.00539 -0.00823228 -7.10349e-22)
(1.27196 -0.156936 0)
(1.00424 -0.00608807 1.83989e-21)
(1.05051 -0.0409054 3.16044e-21)
(1.07267 -0.164112 0)
(1.00189 -0.0204544 1.9925e-21)
(1.02518 -0.00463201 -1.29416e-21)
(1.03275 0.0435896 8.48294e-21)
(1.0007 -0.000282364 9.16069e-22)
(0.981723 -0.00624533 -2.53594e-21)
(1 -0.00195505 0)
(0.994715 -0.0193242 8.90459e-23)
(0.966862 -0.00847686 5.29086e-21)
(1.01565 -0.0124667 6.92933e-22)
(0.00540208 0.00947589 0)
(1.01564 -0.0183048 4.70015e-22)
(1.23641 -0.0559735 0)
(0.398048 -0.154968 0)
(1.0711 0.0177752 0)
(0.975135 -0.0109449 -3.29283e-21)
(0.471648 0.204183 4.2163e-20)
(1.00827 -0.0135593 0)
(1.11 0.0405583 -1.4967e-20)
(1.00043 -0.00872015 0)
(1.02473 -0.00727146 7.24821e-22)
(1.03967 0.0433385 0)
(1.00877 -0.0299028 0)
(0.980808 -0.0127762 0)
(0.996253 -0.00732537 -2.53599e-21)
(0.392098 -0.00447626 -1.73197e-20)
(-0.2799 0.00165337 -6.51155e-20)
(0.396901 0.0124043 0)
(1.0024 -0.0441167 1.00961e-21)
(1.00002 -0.000340784 -1.32592e-23)
(1.17296 -0.340286 -1.12775e-21)
(0.637221 0.0420095 -8.6538e-21)
(1.02415 -0.00647086 3.15373e-21)
(0.988991 -0.00897614 0)
(0.981846 -0.00570712 0)
(1.09734 -0.107703 0)
(-0.278557 0.00494987 -4.29816e-20)
(0.993775 -0.00394096 -1.83602e-21)
(0.999998 -0.00181072 -4.15531e-21)
(0.862036 -0.0296993 1.6309e-20)
(0.995853 -0.00196129 -2.15174e-21)
(1.00657 -0.0117313 5.98567e-22)
(0.711448 0.0516429 9.38089e-21)
(1.05087 -0.0365507 0)
(1.21598 -0.00921053 -3.30317e-20)
(1.02951 -0.00834227 -4.66962e-21)
(1.0015 -0.00921312 0)
(1.00277 -0.0164463 -1.66999e-21)
(0.675851 0.0514724 1.33178e-20)
(0.982065 -0.035431 2.60324e-21)
(1.11921 -0.249256 0)
(1.02908 -0.00799158 0)
(1.11244 0.0275417 -4.60319e-21)
(1.00723 -0.0409018 7.49035e-22)
(1.03102 -0.115478 -2.71626e-21)
(0.879282 -0.089188 3.43516e-20)
(1.17766 -0.0962973 -1.47877e-20)
(1.00001 -9.23724e-05 2.15129e-21)
(1.02394 -0.039973 -5.58818e-22)
(0.0715684 0.236143 -2.07106e-20)
(-0.0237374 -0.00778205 0)
(1.13852 -0.0345669 -4.11376e-20)
(1.00358 -0.00937903 0)
(1.0259 -0.00708518 -9.27942e-22)
(1.00288 -0.160185 0)
(0.480472 0.0191379 -1.20195e-20)
(0.673517 0.214721 0)
(1.12093 0.0416339 1.85628e-21)
(0.917018 0.0263072 2.1727e-20)
(0.931618 -0.0887937 0)
(1.07026 -0.0454466 0)
(0.996085 -0.0055868 -2.56043e-21)
(1.03374 -0.101417 -1.49535e-21)
(0.98813 -0.0185382 0)
(1.0016 -0.00520678 1.52541e-21)
(0.24919 0.237487 2.71527e-20)
(0.87127 -0.0228963 0)
(1.17324 -0.0972455 1.21514e-20)
(0.968183 -0.58894 1.91019e-20)
(1.23699 -0.0529365 -1.50351e-20)
(1.01222 -0.01132 0)
(-0.250024 -0.00532503 -1.73228e-19)
(1.03184 0.0505461 3.29432e-21)
(1.14705 0.0322214 -1.25246e-20)
(0.908462 0.0442404 0)
(1.04754 -0.0419604 -4.74137e-21)
(1.10255 -0.0858964 -8.41748e-21)
(0.583383 -0.0641257 0)
(1.02838 -0.564705 2.1199e-20)
(0.646492 -0.368788 4.31514e-20)
(0.0629512 0.45239 -6.79822e-20)
(1.00075 -0.00233362 3.74227e-21)
(0.613007 0.163419 0)
(1.00003 -0.000818041 -3.30184e-24)
(0.442383 -0.0104652 6.22472e-21)
(1.00091 -0.0028773 -1.36044e-21)
(1.1803 -0.0240508 0)
(1.16486 -0.0187025 -3.34976e-22)
(0.993838 -0.00366459 1.98422e-22)
(1.00002 -0.000106379 -2.14877e-21)
(1.01473 -0.0122754 3.23727e-22)
(0.933325 -0.0916331 -3.39293e-21)
(0.660246 0.21564 -6.34597e-22)
(0.678075 -0.0176709 0)
(0.9534 -0.0346083 -1.001e-20)
(0.937437 -0.0914921 -1.88103e-20)
(0.768591 0.0506843 -1.62175e-20)
(1.01001 -0.0259011 -9.02081e-22)
(-0.00301251 0.00996768 -1.37857e-20)
(1.01017 -0.00768564 6.98329e-24)
(0.508524 0.0500989 6.22885e-21)
(1.00428 -0.0182802 3.63245e-22)
(0.150361 0.0356475 -2.51361e-22)
(0.672465 -0.026247 5.55419e-22)
(0.933269 0.0351895 0)
(1.13855 0.0382075 1.94779e-21)
(1.00002 -0.000423903 -1.18927e-23)
(0.264098 0.00189733 -1.96564e-20)
(0.98023 -0.0224594 4.80219e-21)
(1.00436 -0.00622926 -2.31981e-21)
(0.729873 0.053638 -5.62233e-21)
(0.994273 -0.00510736 2.14465e-21)
(1.01039 -0.00791144 -4.64797e-23)
(1.00346 -0.00921947 8.12549e-22)
(1.00432 -0.00296409 0)
(1.1009 0.0155767 2.44109e-20)
(1.02731 -0.0104122 0)
(1.01545 -0.0179956 -2.13442e-22)
(0.0392197 0.0694141 0)
(1.09781 -0.0285186 0)
(1.08523 -0.0692305 2.0152e-20)
(1.17835 -0.168081 -3.22885e-20)
(-0.0269794 -0.0379202 -1.86726e-20)
(0.156647 0.0351769 -4.20075e-21)
(0.199679 0.00560889 7.83197e-24)
(0.635925 0.0572535 -4.836e-20)
(0.789417 0.0581629 2.30193e-20)
(1.05112 -0.0233607 -2.22357e-21)
(0.432065 -0.00605982 -1.78928e-20)
(1.00262 -0.0202039 -1.87236e-21)
(0.986954 -0.00426244 3.88361e-21)
(0.996319 -0.00760378 -2.94372e-21)
(0.376777 0.0211494 1.8269e-20)
(1.00182 -0.0156946 -4.056e-21)
(1.16396 0.00267579 -1.63121e-20)
(1 -0.000448487 -5.21268e-23)
(0.265845 -0.115037 0)
(1.13267 0.0288463 1.92351e-20)
(1.10544 -0.193603 1.58868e-20)
(1.07924 0.00785858 0)
(1.00216 -0.00676352 0)
(0.968346 -0.189425 3.65972e-21)
(0.349892 0.0202851 -2.24743e-22)
(1.01624 -0.013354 -4.20989e-22)
(1.03503 -0.0239916 -2.14703e-21)
(0.908198 0.0141277 0)
(1.11831 0.0286471 1.56648e-20)
(0.780382 0.0580158 -1.43348e-20)
(1.06756 -0.033509 -1.66797e-20)
(0.122304 0.0326799 0)
(0.958826 -0.0527432 -1.8547e-20)
(0.742072 -0.26797 0)
(0.8508 -0.211097 2.43199e-20)
(0.940932 -0.0626169 -1.03322e-20)
(1.01441 -0.0119086 0)
(1.02873 -0.00811482 6.2124e-22)
(0.830153 0.06492 0)
(0.935815 -0.0426224 0)
(1.00933 -0.00466217 1.52176e-22)
(1.02687 -0.0104033 0)
(1.00266 -0.00709648 2.38956e-23)
(0.830543 0.0710615 0)
(0.0299428 0.0189651 3.9452e-20)
(1.01112 -0.00659468 -9.46263e-24)
(0.253321 0.106643 2.73106e-20)
(0.484458 0.0202233 1.10014e-20)
(1.01125 -0.0190211 1.97456e-22)
(1.10981 0.0319042 -1.65735e-20)
(0.604484 0.127129 0)
(1.00033 -0.00017352 0)
(0.986315 -0.0164262 -7.02094e-21)
(0.997608 0.000211562 -4.47289e-21)
(0.894602 0.00783292 1.35767e-20)
(0.169349 -0.734664 0)
(1.09504 -0.105144 0)
(1.12938 -0.0837676 0)
(1.05055 -0.0936631 0)
(0.676802 0.0476288 -3.95772e-20)
(1.20366 -0.162312 -9.01513e-22)
(0.624398 -0.497762 0)
(-0.307078 0.00461159 -4.67763e-20)
(0.551011 0.039744 -5.30323e-21)
(1.00229 -0.0161022 -1.66726e-21)
(0.980971 -0.0224986 -4.30364e-21)
(0.722727 0.0361495 4.34616e-20)
(0.976211 -0.307811 4.63583e-22)
(1.10348 0.0292096 0)
(1.03148 -0.100303 0)
(1.03579 -0.167648 6.81148e-21)
(1.00433 -0.00594134 1.01534e-21)
(1.00175 -0.0326247 0)
(0.49629 0.0487099 1.19188e-20)
(1.00821 -0.0141577 4.11367e-22)
(1.16495 0.0288247 1.33619e-20)
(1.00205 -0.00679009 0)
(0.769439 0.0250699 0)
(0.780691 -0.265381 -2.85072e-20)
(0.983292 -0.314018 -7.36815e-22)
(1.00138 -0.00528854 2.26028e-21)
(0.816613 0.0484684 -8.48778e-21)
(1.01206 -0.0111358 0)
(1.01244 -0.014213 0)
(1.01018 -0.00491381 2.12652e-23)
(1.11179 0.0416107 -2.3096e-20)
(1.29858 -0.26752 -5.26127e-20)
(0.980462 -0.0396502 5.95034e-21)
(1.0731 -0.0716479 2.30116e-22)
(-0.297061 -0.00142749 7.8328e-22)
(1.03349 -0.0256254 1.86597e-21)
(0.207225 0.039132 2.83224e-21)
(1.02232 -0.0398608 1.91489e-21)
(0.139248 0.727192 -5.42554e-20)
(1.07455 0.00990333 0)
(0.975807 -0.00160399 3.56512e-21)
(0.956812 0.0238022 0)
(1.18595 -0.0438163 3.62205e-20)
(0.844479 0.0554733 1.17874e-20)
(1.00927 -0.138726 0)
(0.942517 -0.119635 0)
(1.05074 -0.0417836 -7.95313e-21)
(1.00136 -0.0152352 -3.41693e-21)
(1.11172 -0.0767396 2.32527e-20)
(0.138392 -0.00615862 0)
(1.09073 -0.0334871 -1.05924e-20)
(0.503328 -0.117524 -3.20338e-20)
(0.994332 -0.00933927 0)
(0.993894 -0.00438923 -9.53581e-22)
(0.388627 0.0227073 -1.85288e-20)
(1.13901 -0.0361303 4.2173e-20)
(0.274743 -0.00377891 0)
(0.271712 0.0699324 3.03989e-20)
(0.625014 0.050304 -3.04065e-21)
(1.01963 0.0585118 -1.08258e-20)
(1.12986 0.0375409 9.63252e-21)
(0.891363 -0.0480145 2.40112e-20)
(0.938511 -0.0625467 1.04701e-20)
(1.02755 -0.058088 -2.14901e-22)
(1.18362 -0.274739 0)
(0.856141 -0.34598 1.62164e-20)
(1.11211 0.0307897 -2.06496e-21)
(0.999999 -0.00100003 -3.55563e-21)
(1.03914 -0.0342998 5.84489e-21)
(0.190381 -0.00485822 2.8639e-20)
(0.982042 -0.572931 -1.32544e-20)
(1.14572 0.0295649 -6.58353e-21)
(1.00421 -0.00572534 -9.89655e-22)
(1.11731 0.0284628 -2.79672e-20)
(1.11125 -0.071685 -8.71713e-21)
(0.981918 -0.0829891 4.42235e-21)
(1.08318 -0.0695227 -2.04061e-20)
(0.965121 -0.184976 3.81923e-21)
(0.523326 0.302271 -8.89433e-21)
(1.05387 -0.0235147 0)
(1.20122 -0.118353 0)
(1.09067 0.00802817 5.82064e-21)
(1.01327 -0.0111188 0)
(0.386541 0.114366 4.28973e-20)
(0.998115 0.000100135 -1.67618e-21)
(0.871756 -0.0158358 7.3385e-21)
(0.481833 0.049489 0)
(-0.0039912 -0.064253 -2.20214e-20)
(0.964453 -0.148102 -3.56107e-21)
(-0.26483 0.00465088 0)
(1.02027 -0.0294765 0)
(1.08573 -0.035402 -4.64237e-21)
(1.05092 -0.0345079 -1.94726e-24)
(1.04994 -0.0245391 -6.77969e-21)
(0.999996 -0.00153079 -9.42455e-22)
(1.0107 -0.0144112 -6.66828e-24)
(0.964257 -0.0915538 3.73304e-22)
(0.381029 0.00765079 0)
(0.685619 0.0502089 -5.98029e-21)
(1.00153 -0.0156998 1.66121e-21)
(0.930793 0.00186074 2.77987e-20)
(0.0501944 0.0033418 4.85104e-21)
(0.636918 -0.332637 -2.80019e-21)
(0.985665 -0.0163604 7.16658e-21)
(1.01669 -0.0145989 4.5455e-22)
(1.01594 -0.0130787 4.26417e-22)
(1.0723 -0.0165148 1.35771e-21)
(1.03972 -0.0309669 0)
(1.01067 -0.00157745 0)
(1.12988 -0.00572949 0)
(1.10508 -0.087523 -1.71205e-20)
(0.121428 0.0346804 -7.88748e-21)
(0.898667 -0.100761 0)
(-0.099985 0.0083654 -2.66001e-20)
(1.07291 -0.0879562 2.06627e-20)
(1.00113 -0.00561468 4.24185e-21)
(0.93464 -0.0590072 -2.17013e-20)
(0.91541 0.0534138 0)
(1.0695 -0.0908751 1.05089e-21)
(1.01613 -0.0692497 0)
(0.247399 -0.00566593 -5.56897e-21)
(1.10655 0.00489132 7.84068e-21)
(1.00458 -0.00800463 1.02593e-21)
(1.29624 -0.26939 0)
(0.932705 0.0418542 0)
(0.177063 0.0163078 1.07854e-22)
(0.557333 0.0532354 0)
(1.1214 0.0276481 3.46306e-22)
(0.204419 0.00222284 0)
(1.00325 -0.0078433 2.73356e-23)
(1.1173 -0.628104 -3.21755e-20)
(0.218467 -0.00354366 3.14369e-20)
(0.965663 -0.0161333 -2.29053e-21)
(0.181829 0.0380598 2.43543e-20)
(-0.241769 0.0123871 0)
(1.00806 -0.00621293 3.10301e-22)
(1.14178 0.0277761 -2.47141e-20)
(0.962323 -0.0554127 1.00998e-20)
(1.002 -0.0161313 8.92061e-22)
(0.698368 0.0566855 2.90344e-20)
(0.11281 0.0228535 -4.70284e-20)
(0.567239 -0.330014 4.40926e-20)
(0.461441 0.307384 -4.11368e-20)
(0.426733 0.015035 6.87452e-21)
(1.00974 -0.0134211 7.36539e-24)
(1.08273 0.0228352 -1.13294e-20)
(1.00927 -0.0135369 1.86028e-22)
(1.00191 -0.237625 1.15734e-21)
(1.0173 -0.0705545 -4.59374e-23)
(1.00386 -0.0171364 0)
(0.371481 0.00686883 8.43473e-21)
(0.285854 -0.00526789 0)
(1.05221 -0.0116799 0)
(0.892574 -0.045785 -2.01447e-20)
(1.2336 -0.0492744 4.3559e-20)
(1.10667 0.00361597 1.08384e-20)
(0.998875 -0.00621645 0)
(0.712133 0.0547656 0)
(0.995811 -0.00219685 0)
(1.13994 0.0380663 -2.25119e-21)
(1.08186 0.0194096 4.82223e-21)
(0.156047 0.0376322 7.16909e-21)
(0.130874 -0.00462404 0)
(1.17868 0.0237949 0)
(1.00851 -0.0401293 0)
(1.00157 -0.00428461 -6.73661e-22)
(0.966761 -0.0541372 -1.12835e-20)
(1.00995 -0.0252805 0)
(0.464673 0.188877 0)
(1.09689 0.0307565 -1.9006e-20)
(1.10007 -0.296165 -1.09467e-20)
(1.12146 -0.00876965 3.00419e-21)
(0.758406 -0.249342 0)
(1.01022 -0.0139069 6.527e-22)
(1.00181 -0.00619483 -1.66631e-21)
(0.479937 -0.0812557 0)
(-0.133317 0.00768363 2.63815e-20)
(1.1765 -0.0519744 -7.20205e-21)
(-0.246391 0.00376843 0)
(0.897219 0.00704133 1.25585e-20)
(1.00017 -0.00929175 3.4601e-21)
(1.07847 -0.0475262 0)
(1.00108 -0.0152332 4.52031e-21)
(1.00269 -0.0280806 0)
(-0.144256 -0.00736967 2.63877e-20)
(1.12886 0.0287653 0)
(-0.107832 0.00644785 6.33923e-20)
(0.929727 -0.00175373 -1.11649e-20)
(0.183604 0.0369035 0)
(1.03817 -0.03241 -5.81699e-22)
(0.391509 0.0256124 1.37851e-20)
(1.19847 -0.0696887 -5.6204e-20)
(0.733963 0.0596876 1.35146e-20)
(1.09754 -0.0857337 0)
(0.491363 0.207386 -7.37234e-20)
(0.021288 0.00594721 0)
(-0.218093 0.015038 -9.3239e-20)
(1.03422 -0.00268991 -3.11599e-21)
(0.295302 -0.00532615 6.15357e-20)
(-0.115952 0.00662336 -6.52773e-20)
(1.00001 -0.000334014 0)
(0.910248 0.0157452 -1.09777e-20)
(-0.0836745 -0.0429511 1.91079e-19)
(1.03329 -0.0248764 -1.33587e-21)
(0.608279 0.0410816 -2.46055e-21)
(0.990433 -0.0107122 0)
(1.00274 -0.0030999 0)
(0.996554 -0.028333 2.14955e-21)
(0.801135 0.0526015 0)
(1.18575 -0.284963 0)
(1.06641 -0.0503443 -6.50849e-21)
(1.00001 -0.000179761 5.18749e-22)
(1.00951 -0.00779216 -2.37314e-22)
(-0.0401807 -0.00995606 1.01276e-20)
(-0.0236628 0.0333734 -1.79225e-20)
(0.959742 -0.00161776 5.7753e-21)
(1.11338 0.0113222 1.88304e-20)
(0.516944 0.0343855 5.12978e-21)