/*--------------------------------*- C++ -*----------------------------------*\
| =========                 |                                                 |
| \\      /  F ield         | OpenFOAM: The Open Source CFD Toolbox           |
|  \\    /   O peration     | Version:  v2012                                 |
|   \\  /    A nd           | Website:  www.openfoam.com                      |
|    \\/     M anipulation  |                                                 |
\*---------------------------------------------------------------------------*/
FoamFile
{
    version     2.0;
    format      ascii;
    class       volScalarField;
    location    "200";
    object      omega;
}
// * * * * * * * * * * * * * * * * * * * * * * * * * * * * * * * * * * * * * //

dimensions      [0 0 -1 0 0 0 0];


internalField   nonuniform List<scalar> 
18598
(
0.0537101
0.282043
0.0222927
0.0700433
0.0216435
0.0349928
0.0438642
0.0221607
0.280485
4.59593
0.0219388
8.62323
0.0215222
7.43416
0.0221351
0.0885674
5.87002
0.0343824
0.0236836
8.32075
0.0219405
0.0217551
9.12959
0.021758
0.0216226
6.14027
0.356502
0.0219894
0.350669
0.0522382
3.69386
0.0221678
0.0228703
0.0721812
0.043791
0.250822
0.0216568
0.0219363
0.0216389
8.10774
0.113558
0.411984
0.189992
8.37098
0.0253029
0.0224109
0.0216362
0.746616
0.0216015
0.0216246
0.0217931
4.06499
0.136847
0.132442
0.0217518
0.0218268
0.0219884
0.0221391
0.0215612
0.0336124
9.35506
0.267779
0.0219916
0.0217503
0.186303
2.62615
0.0215619
0.022909
1.48196
0.0215767
0.0262501
0.0395138
1.07363
0.133658
0.0220767
0.107394
0.0221014
0.0218241
0.05522
0.0262504
9.09637
0.0224943
0.0219761
6.25445
0.0228094
3.87493
0.0215832
6.35405
0.0219655
0.0305947
0.0253679
0.129349
0.0250328
0.0900109
18.6339
0.0218036
5.82039
0.0219205
8.51483
0.0753349
0.0219699
0.0221299
0.029264
0.036424
0.0505044
0.0231895
0.0787789
6.13952
0.0219803
0.185819
0.0327529
6.58127
0.0221143
0.0289395
0.131329
0.0224022
8.90697
0.0329127
0.0287813
0.0216607
7.64181
0.0217439
0.021842
0.033113
6.65619
0.0243107
0.024361
0.051721
0.24759
0.0216227
0.0215418
0.0618086
8.31708
0.0250685
1.16245
0.0217967
0.068228
0.0219828
0.0216342
0.0829993
0.293886
0.0218435
0.021981
9.45818
0.0218929
0.023099
0.705898
0.124487
0.0219126
0.0318485
0.0231441
0.0289831
0.0218688
7.53227
0.0217962
0.0218965
8.00992
0.0244514
0.0215164
0.0276933
0.0629755
0.0914846
0.0216114
0.0215983
0.0216246
7.14313
0.284804
0.0221722
0.0550393
0.0576258
0.0220706
0.0411512
7.41457
0.147737
0.0257398
0.0217507
6.78102
0.0224314
0.0269523
6.41036
0.0575058
0.335535
0.0606985
0.0228364
8.61088
0.0310561
5.22906
6.34508
0.0220145
0.155691
0.0224691
0.0217325
0.0612885
4.81367
0.0291146
0.021685
8.66293
9.1239
0.0613705
0.193395
4.33433
0.0218199
0.0411456
0.0222846
0.0245941
8.71003
0.448137
0.0218733
0.0242854
0.0242369
0.0560263
5.50052
0.021716
0.0738556
0.115324
0.0307404
0.113478
0.0219238
0.0221288
0.0621158
0.021483
0.0219226
0.0231074
0.0220223
0.0385288
0.0219115
0.0218427
0.0219224
9.65085
0.0215924
8.3351
5.90945
0.0219187
0.0219501
0.261307
9.74814
0.0227519
0.0315224
0.021741
0.0249529
0.0244076
0.0541911
9.61638
0.0215537
0.0903508
0.0227732
0.0410871
0.0218415
0.0314411
0.0216899
7.55876
0.291591
6.32059
8.29314
0.045684
9.05891
0.0386327
6.80128
0.0220005
6.20491
0.0267894
0.0528483
4.45186
15.2201
0.692305
0.0224358
0.0214807
4.52322
0.105107
0.0251819
0.021697
0.0220102
0.0524894
0.0218354
28.0232
9.96848
8.38281
6.05628
0.109764
0.0540844
0.0526566
25.1086
0.0235397
25.7657
6.88644
0.0308947
0.100976
0.0827643
0.0216961
5.24348
0.0952532
0.361098
6.82528
0.362142
10.1377
0.03458
0.0215541
0.26421
0.0397947
0.0535897
10.6571
4.61626
0.0413015
6.34545
0.0255505
0.0844865
6.45514
0.0322395
7.26584
0.307362
17.9331
0.0242185
0.284373
5.70733
0.0608587
0.047476
0.0673281
0.0242958
0.022005
5.26204
0.0228193
8.41076
0.0219336
0.0244789
0.0230826
7.36941
0.022106
0.0771957
0.0299035
0.0226712
0.0246416
0.0227867
20.6458
6.64502
0.0216871
0.100275
0.0231206
6.83832
0.10789
0.0223334
0.0511225
0.254479
0.131878
4.87347
0.0220912
5.76735
5.86316
4.30411
0.152013
6.65613
0.0241021
0.0287414
0.030476
0.0921547
0.113821
0.0219098
0.0533521
7.74482
0.0938545
0.0216882
0.0219749
5.22144
0.0220709
0.0216912
0.0215178
0.0217532
34.3116
4.2804
0.0588396
6.12236
0.0503621
0.616505
0.0250384
8.04679
0.0221296
0.377047
7.27997
0.0230276
0.0219799
8.3911
8.068
0.02206
0.0329944
0.0596697
0.0261102
4.20413
0.0219423
0.0222703
0.0214924
0.0313219
0.251163
0.0263085
0.0218539
0.0220761
20.5777
0.0220713
0.0246127
0.021979
0.186215
0.0231138
0.0260102
0.0219887
0.0216794
0.0222641
10.3486
6.12947
3.12863
6.66344
5.30776
0.0564324
0.0220545
5.10204
0.0219766
0.0263263
0.088966
0.0350752
0.0443108
0.0282366
20.5112
0.0298811
0.0224984
0.0219018
0.0220828
2.80611
0.0243836
0.0252939
0.0245576
0.0229766
0.0472901
3.73157
0.021731
0.339693
0.0223742
0.175464
0.0755221
4.08446
0.0215356
0.0220641
0.121413
0.0218591
19.9953
8.39826
0.0221628
0.0219222
0.0220598
4.35035
7.00275
6.56869
0.0267053
0.382716
0.0215367
5.89416
10.7532
0.0222759
3.19636
0.0269005
0.0230552
0.0220609
0.0250871
0.022057
0.262806
0.0221688
0.0222637
6.05782
0.101857
0.021946
0.386867
0.0219935
8.64964
0.0241054
0.0217748
0.0219191
0.0216998
22.3117
0.0219017
0.0216872
0.0514057
0.0254948
5.43389
0.0719405
0.0215259
9.26352
0.0930259
0.0387084
0.0221695
0.0230987
0.0221305
0.0221315
0.0293113
0.0219091
0.0235028
0.108901
0.033895
0.117211
3.75517
0.0252074
0.0846988
0.0980008
8.70937
0.0217583
8.23661
0.140169
0.0220777
4.17323
0.0229331
0.0219165
6.89623
0.0221466
0.0219613
6.34819
0.0385058
0.0244395
0.0232595
0.021677
0.0321693
0.0218325
0.0223441
6.1146
9.08129
0.0223096
0.0223909
5.57366
0.0252844
0.0224372
0.0242951
3.0599
0.0229055
0.0218934
3.33165
6.66805
0.0216398
0.104559
0.0219543
0.0231976
0.247109
8.34622
0.352667
0.0217795
0.0219161
0.478309
0.022982
0.34481
0.0231756
0.0218564
0.0220466
6.48273
0.0220473
0.117735
0.0215567
0.44349
4.56083
20.2551
0.292218
0.0219163
2.51607
0.0225346
5.68575
8.54302
0.0216079
0.0222691
5.01164
0.069152
0.0293418
0.027566
0.0217571
9.70329
0.0219303
4.33884
0.0220792
0.0247452
0.0217665
0.15372
0.0219812
0.0482649
9.02993
9.65998
0.0219016
0.0513863
0.0219056
0.0241693
0.177032
0.115783
7.57711
0.0215248
27.9396
7.22238
0.0218151
0.21865
0.0219867
7.29097
0.307165
0.0231007
9.62065
0.0220609
0.112218
4.77784
0.0561792
0.021773
0.0221546
0.0221059
0.0254
0.0216787
0.0260019
0.0221853
0.0217339
7.23976
0.0217684
0.0499151
0.0222752
0.0218138
8.94055
6.45836
2.73636
0.0217678
9.51025
0.0218363
0.0242635
0.0217546
0.0225191
12.1626
6.83227
0.0218675
0.0217005
0.0653306
0.0215655
0.0226451
0.163586
0.02198
0.0221728
0.0215704
0.0219774
0.0240667
0.0219169
0.267045
0.0231554
0.0219266
0.0524489
0.022837
9.47344
0.392514
0.0228487
0.0220635
0.0241775
0.0613367
0.0218929
0.0402613
0.0214916
0.0222724
4.79167
8.6486
0.0219572
0.0221157
0.0229398
0.0217135
0.0241357
7.63387
5.26452
0.201572
0.0274079
0.145661
0.0222943
0.0522046
0.0277293
0.0923556
0.0376545
5.22914
0.0218952
0.022026
8.00338
0.021868
0.0216082
6.34021
0.0217197
6.18099
0.0234501
0.0222499
0.021606
0.0220572
0.190952
10.5675
0.0512811
0.0217777
0.0227362
0.0219922
0.0435005
6.95904
0.0234185
0.659119
0.0221654
0.0219026
0.0225294
0.0220483
0.0217092
0.0409659
0.0220413
0.36495
8.53662
0.0688297
0.0222597
0.0215123
0.0222778
0.0642546
0.0219861
7.18389
0.0316945
0.0229455
0.0601964
0.069604
11.393
0.0216705
6.609
0.0221144
8.45423
0.0243713
5.28255
0.0400409
4.55923
0.0294713
0.0222675
0.0322676
0.0296903
0.0219796
5.03571
8.50521
0.0285418
0.0238535
0.0217121
0.195979
0.022145
0.0216862
0.368283
0.0227971
0.198928
4.63648
0.0216773
0.269002
0.0221593
0.022036
0.494991
0.0653556
0.0222697
0.244731
0.0221207
0.0516427
0.575667
6.50283
6.5586
7.31807
6.69781
0.0364881
0.215979
0.0220911
0.0312871
2.21969
17.0357
0.0272395
0.0516669
4.76288
6.50454
19.283
0.700871
4.28766
0.0219515
0.0219287
0.0794708
0.0218742
9.97182
0.0415773
0.0225268
0.28712
0.0357523
0.0226844
0.022974
0.0216803
0.0222712
0.0218316
0.205545
0.026321
0.021845
6.24933
0.0219873
0.0538284
0.0576445
4.63927
0.0224145
5.31732
0.0224497
0.0216944
0.0237044
8.63511
0.0425341
0.0218522
0.0220389
0.0222717
0.0493756
0.0220075
11.6319
0.149679
4.47897
10.5952
0.0224644
0.139644
0.377114
0.0219533
0.023211
0.0219139
0.0220741
13.0643
0.0221181
0.0216356
0.0248991
0.083924
0.0224154
5.74787
4.81326
0.033945
0.0271657
0.0217917
0.0219887
0.883208
0.0222763
0.02272
0.0227811
0.0220096
0.0215781
0.0220275
14.8786
9.24215
0.0220505
0.0226822
0.282687
6.71779
0.0215143
0.0217108
0.0218983
0.0290067
4.53712
0.288915
0.090255
7.43174
0.0219279
0.0546796
0.0219783
0.0292502
0.0246298
0.983961
4.45629
0.021917
5.08772
0.0217449
0.0230944
0.0309766
0.0219023
0.0218169
0.0554941
0.0522744
0.0218007
0.0616227
7.27263
0.26624
0.211524
0.0781485
0.0220483
0.0219361
0.0216519
0.022033
8.74475
8.63369
0.0806914
0.0249288
0.0219753
0.267994
0.0221144
6.41623
0.0220232
0.0217861
0.322207
0.0216527
0.0294073
0.205936
0.021835
0.022264
0.0218666
0.0248455
0.152606
11.1579
4.28381
0.0216666
0.025155
0.0220358
4.05555
0.166238
0.021618
0.023817
0.0220329
0.0258223
0.0756903
0.021705
9.37595
0.0893363
0.0222692
7.03449
0.105919
0.0219302
7.19457
0.0221115
0.0215839
6.17292
3.17354
0.0244672
0.406249
0.0217077
0.472118
0.0221638
0.0217475
0.0226136
0.0215213
0.026479
0.0218315
0.0296436
0.0217056
0.847696
0.35969
0.0939018
0.0219772
4.03044
0.0824494
0.0984079
0.0221197
0.0223504
0.781373
0.0218354
0.0217188
0.0456639
0.136641
0.0215538
0.0256341
0.0219769
0.0416537
6.29501
0.0220607
0.0216643
0.0216405
0.0866101
0.0218943
0.0222422
0.0222381
0.118102
0.0218604
0.0217663
0.0218366
0.0397099
0.0224846
0.0219808
0.459464
0.0219611
9.503
0.0235922
0.0219784
10.695
1.93794
0.0596803
8.95206
0.021571
6.62038
0.021674
4.61202
0.0542442
0.0220569
0.0235158
2.30709
0.907549
0.141469
0.0220984
9.58444
0.022955
0.0341383
0.295234
0.0493204
0.0214999
0.021601
0.0244454
0.0222408
0.0219387
0.0227216
0.450624
0.0576051
0.0915721
0.460594
0.0303764
4.59698
9.14136
0.0221582
11.9574
0.0498052
0.0223339
0.369585
10.1759
13.9287
9.54167
0.040473
0.029156
0.0216338
0.0279887
0.0222517
0.169809
0.305723
0.0229306
0.0224409
0.0711456
0.023011
0.117302
0.02205
0.0216715
0.0219299
0.02191
0.194398
8.76948
5.51626
0.022523
0.0222957
0.0480189
0.0216158
0.0214513
0.0220592
0.02164
5.29539
0.0274167
0.022096
0.149755
0.0230676
9.58413
10.7054
0.0218771
0.258315
0.0288543
0.0240726
0.0214565
0.0476712
0.0221804
4.83014
5.65903
0.0217706
8.61385
0.040626
0.0338403
6.76368
0.0219396
0.0217779
0.0216694
0.0384865
0.0466159
0.0232914
4.6716
0.0242738
0.0222311
0.93197
0.0231975
0.385215
0.0219403
0.0224373
4.32631
0.0535312
0.027294
9.14604
0.0394713
0.0237497
6.40463
0.0214968
7.08108
0.0218567
5.74529
0.021804
6.87055
0.0229639
9.28057
0.021973
9.97193
0.0217422
9.05655
0.0223278
0.0219084
0.0394808
0.0219594
0.075464
0.469079
0.0219357
8.96976
0.0403429
4.97746
0.0219115
0.0266062
0.0218405
0.0436137
7.00205
0.0219453
0.902518
7.28059
8.18602
0.0216329
7.15911
0.022815
0.021912
0.0219335
5.04085
0.0463841
0.0216328
0.343046
1.09975
0.0220521
4.48688
8.54203
0.0414675
0.0223927
0.050584
8.97398
0.162404
0.0534147
0.0380791
0.0226198
0.0221492
0.0236519
0.137027
0.0222618
0.0220296
0.0219321
0.0218193
0.0219774
0.0219332
7.81193
16.8382
0.0216576
7.21503
0.0467805
0.822742
0.0217393
0.0259192
0.0471954
0.0421324
0.0350093
0.355349
0.0222862
0.0219317
0.0223256
0.0221845
0.0219101
0.0227529
0.621693
0.174706
0.112802
0.0217759
0.0223296
0.0217116
0.0221751
0.0218439
10.2236
0.418474
9.93962
0.0220507
0.0217933
0.0241223
6.25753
0.023083
6.844
0.0219565
0.53883
6.29092
0.0232203
0.0219322
0.021907
0.0221989
0.0450985
0.038393
0.0252906
0.0382063
0.351846
1.03473
0.133118
0.0251112
0.0252906
0.358914
0.0219542
0.670265
4.39509
0.0226057
0.0479685
0.0276279
0.0218845
0.0222261
0.0496478
0.0217421
0.0312585
0.0223481
8.82036
0.0219404
0.0311185
0.0260866
5.09739
0.0770203
16.6296
0.0216904
0.0214669
0.0221351
9.20378
0.0216301
0.0219264
0.0296216
0.034238
0.0598057
0.104732
0.11977
6.03344
0.0215951
0.022153
0.0217985
0.0506488
0.0219607
0.114988
0.022261
0.0215943
0.103359
0.0406743
0.0217805
0.0408029
0.0477625
0.945914
0.0216393
2.87925
0.0216689
6.10414
0.0230071
11.7668
0.147481
0.0596408
0.0218151
0.0279355
28.7721
0.0307933
0.0221008
0.119223
43.0387
5.43779
0.0216395
5.18478
0.127317
1.35682
0.127328
7.99083
6.11151
0.0217239
0.0220605
0.021839
0.0219123
0.0224796
0.0219748
0.0235631
0.0218817
0.0219776
5.14318
0.13408
0.021629
0.310979
0.0217948
0.444252
0.0219945
0.510157
0.0219827
0.0218361
0.0477237
0.0232865
2.84255
0.023187
0.0216728
0.0218968
20.7052
0.0222767
0.0222583
0.189877
6.33524
4.51493
0.0216893
0.0263577
0.0698739
0.0218466
0.0218658
0.0225661
0.0215234
0.0220586
4.24731
2.50653
0.0626994
0.0219575
0.0224841
0.0224288
0.0222848
7.25326
0.0479438
0.0217757
0.0217985
12.0252
0.0834053
0.0220369
0.130285
0.0278056
0.63944
0.0229823
0.0523974
0.047704
0.0910445
6.59307
0.0218907
0.0668531
0.052253
0.0219346
0.0218052
0.0219763
0.0223542
0.0219349
6.2174
0.0253662
0.0435337
4.24008
28.8604
0.332151
0.0239333
0.0219301
0.0221802
0.0221183
0.0219578
0.0228028
0.0308035
0.0222853
0.0222224
0.0222769
6.35052
6.46255
0.0455277
0.102298
0.0216968
0.0241505
8.24717
0.0225004
0.0283866
7.88511
0.359072
0.664107
0.0293995
0.0217522
0.0216965
6.47565
0.0247012
0.0219923
0.0410146
0.170825
0.021521
1.42712
0.243719
0.0218173
7.86853
0.0245505
8.76559
0.345366
0.0575761
0.022576
0.0279499
0.0878882
0.0219254
0.02187
0.0221058
0.0220667
0.0994232
0.107876
6.41183
0.0217213
0.078006
0.0221484
0.0386444
0.361585
0.0220543
6.55168
0.0780862
0.0219641
0.0245302
0.0983793
0.0223008
0.0223342
0.0757424
0.0218023
0.021626
4.60616
0.0407019
0.0301908
0.0245807
0.0216999
0.110572
0.0896721
0.0413227
0.0776666
0.0215589
0.0698197
5.76069
6.54018
0.0256687
9.00005
0.0220024
0.850206
18.4019
0.771876
0.0225199
0.0223443
0.0219898
0.0219566
0.24196
0.0636024
0.106445
0.0218024
0.0940607
0.0215174
0.0218719
6.18539
9.67884
0.5463
0.0220083
5.31608
0.021615
0.0688543
0.0218853
0.110819
0.0217189
0.022
7.95848
0.0715326
0.0221226
1.81583
0.0636717
6.25769
0.0224215
4.69775
0.0834788
0.0220663
0.0218832
0.287663
0.0238301
0.0219199
0.271784
0.0260527
0.0555172
44.7547
0.0218411
0.122185
0.851748
0.0219783
0.0216882
0.261875
0.0218862
0.0277956
6.46226
0.120397
0.0219617
9.5857
0.0219783
0.0219826
3.16484
0.0219703
0.0452164
0.041434
0.0218903
0.0218018
0.0218432
0.152392
0.490033
0.0217916
0.022103
0.0222691
0.0387407
0.0226598
6.3536
0.0221797
0.0219109
0.165436
0.0411044
0.103246
0.0554262
0.0231688
0.0466541
0.022649
0.0345145
0.0217588
0.0415249
0.659793
0.0220658
0.0221521
0.0219812
0.0219568
9.14181
5.29606
0.023026
0.0217489
0.0220143
0.0224003
0.0231178
14.7252
9.02035
0.0219289
0.0958245
0.0226246
0.0407323
0.0221933
0.0220245
0.0780314
0.359833
0.0820702
0.0220149
0.0222592
0.0352076
0.0217687
6.90696
0.0216361
0.0983888
0.0967504
0.0252891
0.257439
0.0219487
0.275035
0.0218816
0.0507465
0.0220198
0.0219504
0.0389757
0.0222711
0.041962
0.035883
12.4756
10.4709
9.25521
0.0217376
0.0219225
0.0222326
0.0282489
0.02741
0.0238468
0.0218704
0.0218444
7.9708
0.0219514
0.0453846
0.0418216
15.991
8.57752
0.0230378
0.0380769
6.50628
1.06209
0.0218499
8.59764
8.59302
0.0237538
8.7483
0.0218492
0.0222276
0.176009
0.0315952
0.0216778
22.5844
0.0314367
0.101396
0.0216271
5.36905
0.0421061
0.112089
9.60368
0.166379
0.614049
0.0221583
0.0229818
0.0337322
0.0218508
0.132126
0.0218974
0.0218746
9.57577
0.0216841
4.36832
9.47502
0.0219603
0.0219658
0.0396101
19.3914
0.035666
0.0219614
0.0225998
0.0346262
0.0302274
7.09134
0.0274149
0.0226098
8.5118
10.4885
0.176413
0.0537111
0.0262848
7.22022
6.46483
0.0216327
11.8029
0.396432
6.82618
0.0256475
0.0220155
0.0221522
0.0218168
0.0219212
0.606671
0.021971
0.129708
0.0219599
0.0216877
0.0244818
0.0220679
6.38789
0.0516331
0.0222628
0.0220073
0.0217025
0.0265094
0.0657051
0.0222307
0.0266701
0.0218619
0.0223181
0.0309909
12.9539
0.0218425
7.71966
0.0239226
4.91152
0.0260976
7.03743
0.0216239
0.0220112
0.0226116
0.0216206
5.15521
0.0216133
0.0339442
0.0222753
0.048749
0.0990386
0.155494
0.0233994
0.0221982
0.0596077
0.0221172
0.021733
0.0218552
0.0221249
0.0219492
0.0965528
0.0696844
0.021628
0.0219024
0.0677739
0.192482
0.0218642
0.0247587
5.09521
4.25074
0.0763698
0.0225556
0.107226
0.0222814
0.0218181
0.0510386
0.0219216
6.43826
0.0396309
0.0217207
0.0218646
0.0688039
7.80169
0.103744
0.0220569
0.0220673
0.0221581
7.82381
0.114478
0.0232141
0.0719386
0.68256
0.283828
0.0221974
0.065018
7.44684
5.23459
10.7421
0.284633
0.0221692
0.0221494
6.58498
14.0905
0.0216141
0.0959194
6.03813
8.86554
0.0218884
8.61766
0.021994
2.43019
0.0219236
0.18138
0.022163
0.0222641
18.3782
0.0218736
0.023986
1.1527
0.0219713
0.126348
0.0219473
0.0675331
0.0220656
6.63251
0.021605
0.0276997
0.0225133
8.89446
7.77435
0.0222768
0.0328009
6.71736
0.0217389
0.0241048
5.95677
0.0226035
0.0219709
0.0220393
0.0220684
0.194875
0.0277888
0.0218916
0.0220065
0.0449701
0.0220567
6.96645
0.0247652
0.0240422
0.0383624
0.0222708
0.0219602
0.0219757
0.0223992
0.0220637
0.0220894
7.99505
6.07323
10.1175
0.0218638
6.83303
0.0300964
6.11187
5.78951
19.0661
0.0216498
0.0218117
0.0219822
0.0217439
5.35084
0.0218698
0.183745
0.0224051
0.11781
0.0217237
0.021745
4.21071
0.0217484
0.0541269
13.8677
9.02173
0.0218533
0.0242685
0.0260475
0.167981
0.0226098
0.0933669
2.09799
0.0234065
0.974771
0.0217429
0.0390216
0.0219102
6.25641
0.0264363
0.0663194
5.81346
0.0259302
0.0220296
0.0257066
0.0222622
0.021954
5.47423
0.0260223
0.0240321
0.0222763
0.0219166
0.0757569
10.4909
0.0337858
6.72759
1.92409
0.0367897
10.8826
0.0222894
0.0221552
0.0218078
0.021771
0.0242574
0.1415
0.0215046
6.54871
0.0773533
0.155799
7.27165
0.798992
0.0405903
2.61797
0.0222356
0.121962
6.39852
0.0334792
7.26814
0.766322
7.46124
0.364866
4.67962
0.256614
0.038611
0.022064
0.52442
0.117353
0.021839
0.0507501
0.0265965
0.065517
7.4628
0.0299399
0.0221945
0.0218259
0.124572
6.68294
0.0229294
0.0222153
0.0331445
0.865833
0.0218715
1.46035
0.0218492
0.0230023
0.0479578
0.0221226
0.0219554
0.0221429
6.59576
0.0218418
4.5253
0.0460853
0.0221672
0.0646047
0.0222117
0.0218105
0.492775
6.09604
0.0216677
0.0221215
0.650979
0.149186
0.0221511
0.0220085
0.0267883
0.0493621
28.4688
0.036519
0.0259098
0.0214407
5.60094
4.96793
0.021954
0.177297
4.65498
0.0224212
6.54818
5.33619
9.19882
0.0220804
0.0707642
0.0231167
0.0215712
0.234856
4.5958
0.0675354
0.0220529
5.86339
0.0216013
0.0218526
0.289619
0.0219919
0.179591
0.0219344
0.0222531
10.3815
0.27714
0.0214711
0.0218429
0.0219938
0.265294
7.99869
0.272711
0.289884
0.0224198
0.0230589
0.021843
0.0221659
21.3776
8.66014
10.4313
0.0797422
2.52475
0.0218284
0.0239928
0.0311907
0.0240216
0.0221412
0.0292692
0.0219317
0.022111
0.0219291
0.0222159
0.0218275
8.11421
0.0221896
0.0218542
0.147348
0.0265331
0.0539711
0.0218491
0.0797561
0.0219387
0.0231572
0.0222525
0.0216553
5.95017
5.18815
0.0269041
8.44584
0.303553
0.0219295
0.0294504
0.0218612
0.022507
0.0261213
0.0230189
0.0219614
0.0762594
17.82
6.47732
0.16044
0.0218217
0.0218001
0.0263759
0.026379
0.0699957
0.0223627
4.52013
0.311439
0.0217672
0.0249257
5.45926
0.0217654
0.337331
5.70524
10.4536
0.0271663
8.03579
4.21848
0.231567
0.0215781
0.0220582
0.0217433
0.0218597
8.04245
6.45359
0.170868
0.0461217
0.0216511
0.021707
0.0220168
6.39148
0.0217752
0.0218706
6.19312
9.3842
0.0227742
0.0219915
0.0221146
0.265319
0.0217335
0.0252064
0.0230942
0.0220234
0.0219757
0.306548
0.0220289
0.0216217
0.0221642
6.4925
0.0268875
0.158041
0.0389156
0.0218648
17.6865
0.0222225
17.7056
0.0221679
0.949006
0.0219943
0.0218906
0.0218466
0.0250869
0.0457472
0.0219749
0.0215937
0.0221474
8.6666
0.0236426
0.982971
0.0321067
0.0218636
0.292335
0.0253172
0.021647
0.0220885
0.0883087
0.0221857
4.44491
0.0220312
0.0222793
0.0929518
9.81176
0.0382986
0.0225788
0.0345517
0.0226799
0.021973
0.0459855
0.0219324
0.0469623
0.0217099
6.08922
4.7401
0.0423916
0.021977
0.0215284
11.1073
0.0218465
0.0288975
0.0361108
42.8757
6.48399
0.0383309
9.32113
0.0219949
0.0218532
9.38185
0.267462
0.021968
0.113346
0.0223889
0.0222981
0.0222744
0.160615
0.0219336
0.0390417
0.370604
7.0894
0.0217169
0.0288062
0.504417
0.022095
0.0259062
0.0238255
0.0222541
7.34639
0.156664
0.0225017
0.230754
0.0252798
1.3218
0.260891
0.0218074
0.0220728
0.0404036
0.0225292
5.2633
0.271166
0.022274
0.0237472
0.0224765
0.0514093
0.0219382
6.6814
0.0771236
5.80595
0.0215652
0.0235786
13.5208
0.0221769
6.99778
0.0216193
0.0220715
0.0464698
0.022426
0.0352912
0.315744
4.5637
6.83813
0.0335098
0.0221363
0.0215059
0.0219176
0.0500831
0.303615
0.0664394
0.353393
5.28348
0.0222076
0.0346296
8.47987
0.0220595
0.023063
0.0257007
1.52836
0.028184
0.338457
0.0218473
0.275568
0.0215837
11.213
0.0382288
0.0586384
0.0461439
17.8401
0.247904
0.19502
0.0778666
0.032756
0.0221313
11.84
8.73396
0.0218247
0.0382304
0.0220166
0.0216138
0.0216175
0.230238
0.049725
0.021885
0.0490498
0.174323
0.0216589
0.0215007
14.776
0.0255924
0.0387906
0.165202
0.0225586
0.0224765
0.0219044
0.0220703
12.9199
0.0215186
0.0216995
0.307524
0.0220425
0.0304954
0.332419
0.153142
5.02216
6.25437
0.0253148
1.77461
0.0220445
0.0444884
0.0273793
0.0264897
0.0222879
0.022059
0.0278718
6.63657
0.0218622
0.0220093
1.47578
0.0219095
0.0579463
0.241284
0.0216044
0.030793
0.0218825
0.0216238
19.0805
0.0218517
0.0222525
3.0301
0.0214409
0.0605859
0.714061
0.021826
0.121707
0.300165
0.285364
0.0215368
0.0220919
16.03
0.0217211
4.13576
0.168072
11.1815
0.0216463
0.0629767
0.0214174
0.022229
0.0220493
0.0218483
0.0217997
6.46394
0.0216365
3.10162
0.0220548
9.32431
0.0219759
0.119728
0.794447
0.0436448
0.0220441
0.0221487
0.0431082
0.022362
0.287334
0.0885654
39.3491
0.0221473
0.0227907
0.0225409
0.02391
0.0632511
0.0231315
0.0245305
0.0222778
13.3893
0.240874
0.0422124
0.260855
0.0239706
0.021986
0.0220842
0.0221631
0.0219317
0.0476503
0.022174
0.0265599
4.2026
0.0217145
0.258032
0.0219177
6.86309
0.0277737
7.5205
0.0222767
4.38533
0.0265345
0.0216242
0.0386419
0.177638
0.0244609
10.8406
0.0219723
0.0219527
0.0215351
0.133395
6.06295
6.82148
0.368516
0.106094
0.0258076
1.52648
0.0619581
0.0229024
0.161122
0.0444986
0.0939411
4.54619
0.0308069
9.90633
0.0256644
0.0980945
0.0226522
0.0221063
0.0816542
0.0219312
2.5249
0.0231381
0.0222708
0.0218524
0.0216785
0.0220247
0.0216196
0.021932
0.0218218
0.170782
6.07095
0.0220816
8.92744
6.52903
0.0264563
0.0244047
0.155831
0.021848
0.0221285
0.0219134
0.0479702
5.17429
0.0470626
0.304334
0.0221071
0.287496
0.0218716
0.0219285
0.0224035
0.0594449
0.0220752
0.0324818
0.0248278
0.110238
0.0219732
0.0263316
0.0531414
0.0464551
0.165319
5.58688
5.43331
0.130114
0.0219627
0.0234649
0.0258593
0.021718
0.115527
6.68539
10.2989
2.5328
0.151797
0.898244
0.0220207
0.0216802
0.0238911
0.0215819
0.0218588
5.30264
6.65845
0.343337
0.0218118
7.01929
0.0281644
0.0224337
0.0266066
0.212431
0.0219899
0.0231941
0.0514526
0.021803
0.198494
7.84227
11.9129
0.0792078
0.0218015
0.0222552
0.143459
7.02531
5.70792
6.07949
0.0215303
5.67872
0.0787164
0.0221363
0.0219837
4.72533
0.0218452
7.70328
6.74338
0.0861187
0.0652736
9.62177
10.4878
0.0258382
0.0344481
0.228678
7.92854
0.0315329
0.0220594
0.0216062
4.68
7.06531
0.0463972
6.17505
0.0217012
0.0378051
0.22285
0.0247124
0.0330607
0.0221899
6.29362
0.830136
6.20574
0.0221279
0.0222799
0.170609
0.0964846
0.0219779
0.532847
0.0219359
0.0215154
0.0220485
0.0527429
0.0217063
8.09131
9.25885
0.592133
0.0220346
0.0216453
2.9709
0.0287235
3.91154
0.0417815
0.021929
5.04141
0.0325863
0.0379186
0.0219267
0.0216912
0.123712
0.117629
6.1496
6.54674
0.413104
0.0216826
0.204446
0.214566
0.0895629
0.252148
0.0223471
6.85175
0.0219379
8.93165
0.027311
0.0220361
0.0218994
0.0273106
6.2978
6.20033
4.25981
8.81118
0.135906
0.0236492
0.0221965
6.56957
0.0278838
0.0215298
10.3423
0.0385222
0.0219469
0.179353
0.242634
0.0220655
0.0215646
0.0218118
0.293859
6.93476
0.0222538
7.9387
0.0219896
0.0220695
0.0221071
0.0220538
0.104583
0.0219324
0.023597
0.0221727
0.0521106
12.0765
0.109689
0.690327
6.21974
6.88803
0.0279654
0.071867
0.532338
0.325822
0.0325076
8.75802
0.0220282
0.0218943
10.9732
6.8601
0.727498
9.91858
6.43193
0.0221271
0.0249474
6.28554
6.95988
0.0219055
0.336885
1.03573
6.94284
6.61579
0.659321
0.0222943
15.887
0.0215975
0.0222617
0.0706117
0.0338738
6.10899
0.0709324
0.0216894
0.232337
0.0222879
0.0284042
0.0219217
6.24156
0.0371567
8.92897
0.0220949
0.082858
0.021676
0.0219264
6.49604
6.52373
0.0221497
7.44976
0.021701
0.329027
0.496483
6.52024
6.35391
0.0766647
5.41867
0.0858073
0.0215148
8.28004
0.919155
0.0300574
0.022184
6.5302
6.17911
1.89706
0.021865
0.02198
5.08208
0.171511
6.81745
0.164094
0.0679553
0.0219311
8.60412
0.0312018
6.71451
0.0225573
6.86801
0.0248237
0.0221687
0.271754
0.302319
0.0512141
6.86579
0.113949
0.0220126
7.76477
0.0226043
0.0219774
0.237447
0.0222709
0.119382
0.0219338
0.0216457
0.0220062
0.0256276
0.0243218
6.47882
0.0275238
0.0217232
0.0218106
0.021794
4.17379
0.066023
4.71086
0.0260209
6.17717
0.0220944
0.0224864
0.0629153
6.7857
4.96336
0.0219151
8.03481
5.08502
0.250939
0.0450575
0.0600777
0.673312
0.0929847
0.0538841
10.0263
0.290283
0.0217305
6.39527
6.5097
0.0744309
0.0220302
0.0218817
0.261089
5.64454
0.0284813
0.374801
0.021877
0.0219643
8.69877
0.0220095
0.146559
0.0448831
0.0219239
0.0219404
0.157976
0.0321819
0.0216063
0.0269975
6.41341
4.6802
5.95705
0.0218735
10.599
0.0218069
0.0218711
39.0168
0.0220266
0.546037
0.0219149
0.461326
0.179729
2.26865
0.022337
4.35779
0.0849386
6.93594
0.0219292
9.21768
0.0219601
0.0237123
0.0218081
0.355953
0.400538
0.0220788
0.0247592
0.0215296
0.0220267
0.024695
0.0220595
0.0993378
0.0302694
0.0220263
6.19235
0.0220692
0.0239982
0.0217467
0.0219827
0.0222785
0.0219117
0.0220311
0.0218047
0.0223808
0.230264
7.23533
0.43728
0.0222141
0.0912043
8.75111
0.0221186
0.0757126
0.0784662
0.0227418
0.0252247
0.0219278
6.64837
0.0218237
0.0331514
6.37547
0.0889945
0.0232865
0.0271
0.0603007
0.0218894
0.0319766
0.0221584
6.46041
0.0230141
0.0773361
0.0218324
6.6305
0.0643293
0.0844631
0.0218933
0.0222769
0.02209
0.0221886
0.0219509
0.655744
0.0217309
7.3182
0.0220555
0.0247416
5.00152
0.0608641
0.0289092
0.222222
6.69145
0.0230758
0.02166
0.0322549
0.0220931
0.0219738
0.0229446
0.02164
0.377555
0.0324005
0.0221078
0.0219351
0.0217094
0.0258131
0.0220797
0.277388
0.251709
0.0220217
4.62275
0.0216556
0.33952
0.0218525
0.0218658
0.0433199
0.28278
0.0221641
0.0290848
0.0214516
16.4637
0.0239479
0.0224882
0.0260186
25.7031
14.0308
0.0688974
0.0259966
0.0219695
0.0233242
6.95125
0.0218557
0.0257747
0.216961
0.0219386
5.0718
0.061942
0.0693978
0.0238319
0.0229372
0.0220277
0.0222585
5.15139
0.0220645
0.0228691
0.0878157
0.0219363
0.037914
0.022643
0.122631
0.0218724
0.804491
0.0223705
0.0249227
0.0220472
1.24638
18.8363
0.0220444
0.0266932
8.54509
0.04842
0.0280909
13.1148
0.0221327
0.0622092
5.34809
8.42734
0.0420577
0.0220232
0.0219213
0.022277
0.0220071
0.30256
0.0229605
0.552548
0.244091
0.0217172
0.0564253
4.48964
0.0220347
0.0701206
0.0640731
0.422079
0.0227073
0.0361526
0.0217529
0.0221261
0.0219431
6.3632
0.0932699
0.1184
0.0223239
0.0216456
0.0220338
0.0215109
17.6027
0.0218162
0.059659
0.0222722
10.9052
0.0222852
0.0220537
0.0875271
10.0306
0.0218963
0.0293117
0.232728
0.215653
0.0215705
0.0229016
0.0644491
0.0220063
6.68835
6.22009
0.0247164
0.0322732
0.021943
0.0219198
0.306354
0.0217165
3.25906
0.0218106
0.342973
0.0218002
0.0219155
6.02044
0.023846
0.0224231
0.021779
0.0295808
0.0259886
0.0305234
0.0218374
6.65943
0.19681
0.0239274
0.0707094
0.0243343
0.0217031
0.0236417
0.0217079
0.321641
0.0541241
0.387859
0.0431338
0.0216713
0.127236
0.0221626
3.84368
0.0254891
7.2993
0.0225685
0.094157
5.38024
8.26626
0.0242442
0.0366007
0.233073
0.151275
9.00871
0.022027
0.0265735
0.0228746
0.0486075
0.0242011
12.0798
0.0221665
0.0218219
0.0222072
0.0218856
0.0222297
6.52571
0.0218372
0.0219331
6.30919
0.0219799
0.0220013
0.0697121
7.68229
0.51611
0.0366979
0.0310655
0.0264565
11.9451
6.03669
0.0221059
0.0650917
6.39898
0.0214516
0.0242317
0.0219913
6.46398
0.0938891
0.212378
20.6195
0.0220672
0.021922
0.0301134
0.0283919
0.0220566
4.82933
0.0356908
0.02191
0.02192
5.8762
0.0220915
0.0306431
0.0231706
0.0220373
0.0219835
3.64183
0.0273734
0.0964216
0.0227232
0.0219155
0.916822
0.0220294
0.0222453
6.47424
0.0217523
0.0221191
9.76541
0.0217052
0.105867
0.0237348
0.249565
0.0240255
0.219438
0.22377
0.14959
0.0222244
6.56049
0.0219114
0.0218301
4.09143
0.0261352
5.168
7.60386
0.0216285
0.0220203
0.127803
0.0874862
0.0831312
0.0219909
0.0216263
6.50665
0.028568
0.0214848
0.0219318
0.0903608
0.0220566
8.33681
0.0736852
0.0376841
0.0230642
0.0228377
18.3767
0.0220289
0.0216269
0.129065
0.0321867
0.021994
0.0219593
0.02224
0.0217278
0.079207
0.202938
0.0219322
0.0214758
0.0224356
0.0219231
0.0576418
0.0218913
0.0220496
0.0221298
6.4629
0.0216088
6.75361
7.36963
0.990713
5.90494
0.0223013
0.0760135
5.05039
0.0255798
0.0218864
0.0220181
0.0273444
0.022054
0.341282
0.537728
0.0223399
0.0258357
0.0220949
0.0283632
0.0310646
0.254359
0.0394244
0.28027
0.0214915
0.768023
0.325224
0.0693757
0.0219463
1.46093
0.02201
12.8296
8.67406
0.0219336
5.26593
0.0222353
0.0576459
0.022131
0.0524211
0.0606664
10.2191
0.0215032
0.0906096
0.0938247
0.0468954
0.0219078
0.0217297
4.23267
0.47424
0.0224492
0.0222079
0.0266384
0.0279259
0.852805
0.0217845
0.241856
0.0449725
7.24969
7.26172
35.5691
0.0224191
0.0217945
0.112023
0.0215957
0.0281897
0.0219588
0.0909448
24.5418
0.256943
0.0309347
4.94254
0.0219273
0.035411
0.0851999
0.108798
11.0173
8.04385
0.021893
0.0221736
0.0842152
0.146056
7.66048
0.717067
0.0219813
0.0220071
0.0270678
0.0924695
4.49589
0.0218858
6.11699
0.0219102
7.18641
0.240331
0.022216
15.6397
0.0221776
4.43704
38.3419
0.0254769
0.298489
0.519083
9.67306
22.3441
0.022831
10.2207
0.0275258
0.749728
0.0219911
0.257243
0.0219803
0.0396837
9.87677
0.0887861
6.23045
0.0228414