/*--------------------------------*- C++ -*----------------------------------*\
| =========                 |                                                 |
| \\      /  F ield         | OpenFOAM: The Open Source CFD Toolbox           |
|  \\    /   O peration     | Version:  v2012                                 |
|   \\  /    A nd           | Website:  www.openfoam.com                      |
|    \\/     M anipulation  |                                                 |
\*---------------------------------------------------------------------------*/
FoamFile
{
    version     2.0;
    format      ascii;
    class       volScalarField;
    location    "200";
    object      p;
}
// * * * * * * * * * * * * * * * * * * * * * * * * * * * * * * * * * * * * * //

dimensions      [0 2 -2 0 0 0 0];


internalField   nonuniform List<scalar> 
18598
(
-0.0404652
-0.114907
0.0215481
-0.0798232
0.00328362
-0.0562399
-0.0645676
0.0236448
-0.0388476
-0.0364192
0.0346619
-0.394639
0.00530568
-0.397002
0.0250186
-0.14707
-0.0428297
-0.0546847
0.0131498
-0.348886
0.0234696
0.00767093
-0.217891
0.00192072
0.0082013
-0.0466295
-0.0617107
0.0312118
-0.0631595
-0.0394498
-0.0486845
0.0235302
-0.00918563
-0.073315
-0.060822
-0.0473295
0.00858116
0.0350631
0.00296577
-0.282785
-0.0625713
-0.0133059
-0.190148
-0.39637
0.104225
0.00990939
0.00881108
-0.127243
-0.000664473
0.00836634
0.0134975
-0.330436
-0.181779
-0.10049
0.00707551
0.0147674
0.0236502
0.0186199
0.000311555
-0.0142231
-0.0519502
-0.112311
0.0312247
0.00243628
-0.0564104
-0.18867
0.000445127
-0.0168492
-0.164422
0.00874243
-0.0303045
-0.0522777
-0.124052
-0.174682
0.0262578
-0.0619204
0.0245103
0.0147621
-0.0500837
-0.0307927
-0.351813
0.00971604
0.0386932
-0.0446202
-0.00788474
-0.047953
0.00883279
-0.396048
0.0251702
0.0165856
0.0693329
-0.0987978
0.100866
0.148961
-0.356054
-0.00296408
-0.0510005
0.0310718
-0.331289
-0.0749072
0.025373
0.0185607
-0.0348341
-0.0340827
-0.0438927
-0.0203283
-0.046882
-0.0703887
0.0316375
-0.0572021
0.0658444
-0.0522969
0.0251397
-0.0330452
-0.0962865
0.0583602
-0.335175
-0.0115063
-0.0369877
0.00861396
-0.388505
-4.07508e-05
-0.00425653
0.0594008
-0.0525597
-0.0268617
-0.0250813
-0.0548069
-0.048063
0.00496318
0.00714684
-0.0339524
-0.115733
0.0723063
-0.128733
0.0134397
-0.117642
0.0316099
0.00863213
0.241172
-0.0397769
0.0183079
0.0237059
-0.377567
0.02493
0.0158626
-0.289181
-0.0945973
0.0285119
0.0817409
-0.0197305
-0.0294371
0.0228556
-0.165837
-0.00290426
0.0249927
-0.189517
-0.0277107
0.00513801
-0.0337226
-0.0995282
0.130858
-0.000921823
0.00358553
0.00461912
-0.285866
-0.0570195
0.024699
-0.0378676
-0.105413
0.0264419
5.59071e-06
-0.377687
-0.177591
-0.0335722
0.00806576
-0.39456
0.0598074
-0.0393509
-0.16733
-0.043813
-0.0676681
-0.0353797
-0.00713259
-0.04083
0.0890054
-0.0581937
-0.0939619
0.0243263
-0.184477
-0.0106123
0.000350026
-0.0447121
-0.0486449
-0.0407357
0.00407322
-0.223692
-0.0718187
-0.0970457
-0.196068
-0.0746268
0.0145887
0.00635517
0.0214851
0.0632427
-0.379231
-0.257769
0.0234302
-0.026512
-0.00197478
-0.0405338
-0.0438949
0.011161
-0.123893
-0.159707
-0.0447009
-0.159521
0.0136997
0.0248474
-0.070785
0.00575531
0.0301059
0.0174826
0.0242987
-0.0494442
0.0131464
-0.00405509
0.0233981
-0.3881
0.00376949
-0.117662
-0.0692491
0.0306404
0.0238815
-0.226672
-0.36965
-0.00602052
0.0938161
0.00247031
0.0666906
-0.0266546
-0.0501214
-0.0558548
0.0006783
0.243124
0.00900021
0.0102618
0.0184092
-0.0478792
0.00365303
-0.128354
-0.23445
-0.396749
-0.124167
-0.0806004
-0.216167
0.153036
-0.265458
0.0310335
-0.0447414
-0.0381736
-0.0913091
-0.191453
-0.349061
-0.28431
0.0381736
0.00560106
-0.0415897
-0.116308
-0.0310356
0.0105915
0.00680669
-0.0749714
0.0181679
-0.12257
-0.378074
-0.300379
-0.0431252
-0.0585195
-0.0945379
-0.0494097
-0.393996
0.0147238
-0.112093
-0.0568504
0.0959024
-0.11529
-0.137914
0.00522742
-0.0576696
-0.149278
-0.0654367
-0.0415217
-0.126443
-0.271669
-0.055022
0.000871191
-0.198295
0.154939
-0.0550623
-0.368323
-0.0398336
0.0156247
-0.0518337
-0.0321113
-0.0467717
-0.169755
0.0872909
-0.0488642
-0.215396
-0.358923
-0.0264306
-0.206065
-0.0495589
-0.0979946
-0.0734339
-0.107382
-0.0272624
0.0306387
-0.261627
-0.015975
-0.132064
-0.00679272
0.0943003
0.0185693
-0.0563935
0.024614
0.0134167
-0.0432983
0.010916
-0.027842
-0.0120876
-0.171681
-0.170822
0.0101752
0.173486
0.0750286
-0.0568819
-0.0592936
0.0112327
-0.0736877
-0.10717
-0.165228
-0.047175
0.0451119
-0.0467714
-0.0705621
-0.0749931
-0.0377311
-0.250661
0.0746546
-0.0298973
-0.0292086
0.153905
-0.0512282
0.0119903
0.126534
-0.160561
-0.145564
0.0044485
0.0327593
-0.0483422
0.0237417
0.0102626
0.00701244
0.00867366
-0.175841
-0.0543764
-0.0957394
-0.393762
-0.0394878
-0.04379
0.0651793
-0.292965
0.0251699
-0.0649533
-0.0713918
0.0202935
0.0243488
-0.278709
-0.352873
0.0266352
-0.0536897
-0.0437423
-0.0315454
-0.0505992
0.030806
0.0199818
0.00603052
0.100364
-0.18902
0.0925417
0.015891
0.0491285
-0.365513
0.0133888
-0.00253683
0.0326198
-0.0531385
0.0385517
-0.0305851
0.0225334
0.00337121
0.0199871
-0.192374
-0.0448801
-0.032005
-0.0951632
-0.0431137
-0.0486596
0.0276059
-0.0462869
0.0395215
0.0907447
-0.14524
0.00518466
-0.0802474
0.0344438
-0.318212
0.00893405
0.0384146
0.0222823
0.0261658
-0.327905
-0.0251926
-0.0323554
-0.0258824
0.0726184
-0.0835042
-0.0307985
0.00287288
-0.0811188
-0.00922795
-0.0528321
0.00932531
-0.0551585
0.00150918
0.0264607
-0.0449835
0.0161663
-0.368972
-0.0946791
0.0234122
-0.00617026
0.0445151
-0.0507754
-0.0695217
-0.287516
-0.00150278
-0.0529499
0.00168395
-0.0524176
-0.0982036
0.0197603
-0.155358
0.0112624
0.0375075
0.0274535
-0.0239232
0.0275662
-0.0704843
0.0232928
0.0238483
-0.39365
-0.134239
0.0305715
-0.122011
0.0223983
-0.0725789
-0.0204682
-0.00249221
0.0147275
0.0056459
-0.380651
0.0226057
0.00328411
-0.0990771
-0.0294359
-0.0474961
-0.111527
0.00189497
-0.111274
-0.0815521
-0.0376252
0.0230341
-0.0188992
0.0250119
0.0247377
-0.0377135
0.0285496
0.00821712
-0.0507062
0.00309436
-0.154327
-0.0514979
0.0729549
-0.14248
-0.14452
-0.350491
0.0108028
-0.132573
-0.0523874
0.0453604
-0.0550455
-0.0165592
0.0153241
-0.354513
0.0464418
0.0354668
-0.0667906
-0.0365988
-0.027264
-0.0200797
0.00299037
0.143846
0.0178438
-0.0119118
-0.0727005
-0.0509356
0.0376449
0.0416779
-0.0440376
-0.0258686
-0.0102867
-0.025971
-0.222008
-0.0105428
0.0217862
-0.0324153
-0.174513
0.00258122
-0.136725
0.0347194
-0.0194217
-0.22118
-0.127668
-0.0365315
0.006561
0.012389
-0.288768
-0.0103784
-0.0814449
-0.0196955
0.0193642
0.0434702
-0.329919
0.047379
-0.0787566
0.00765216
0.0201467
-0.0363447
-0.371051
-0.058053
0.0290341
-0.190536
-0.0143964
-0.0475892
-0.0681878
-0.00055269
0.0196862
-0.0481291
-0.0703969
0.0210318
-0.0317877
0.0124883
-0.287534
0.0336261
-0.109613
0.0503255
-0.0285955
-0.0019667
-0.101224
0.0300814
-0.0403761
-0.124025
-0.278294
0.0254907
-0.0963257
0.0255154
-0.0206055
-0.107621
-0.0802511
-0.365417
0.00209395
-0.382093
-0.354265
0.0165629
-0.0705584
0.0244121
-0.111861
-0.0571464
-0.018615
-0.282941
0.0273427
0.182635
-0.0502948
-0.10234
0.0130812
0.0249468
0.0459642
0.0921016
0.00644617
-0.0351808
0.00437861
-0.00347017
-0.0514087
0.0105411
-0.0403721
0.019631
0.016294
-0.054145
-0.252626
-0.052434
0.0110529
-0.29466
0.018088
-0.0267571
0.0123398
-0.0114651
-0.33415
-0.0656165
0.0224767
0.0107534
-0.0691092
0.00358815
-0.0121519
-0.0558977
0.0329077
0.024025
0.00345692
0.0330367
-0.0210237
0.0233024
-0.194852
-0.0192944
0.0304833
0.132392
0.0519156
-0.0411266
-0.0807687
0.0225837
0.0239322
-0.0258277
-0.0693111
0.0195928
-0.0703005
0.00588501
0.0238042
-0.0478062
-0.151737
0.0207482
0.0245092
-0.0119485
0.0110175
-0.0211704
-0.0561624
-0.0504368
-0.0552234
0.0776743
-0.185949
-0.00953977
-0.0705688
-0.0274487
-0.110998
0.16913
-0.0414209
0.0221033
0.0244785
-0.0420269
0.0203766
0.00390645
-0.330846
-0.00303964
-0.0475043
0.0105582
0.0198567
0.00357293
0.0274412
-0.121816
-0.379837
-0.0779162
0.0118728
0.0513019
0.0229798
-0.0824171
-0.396607
0.076237
-0.28379
0.0247891
0.0286902
-0.0110322
0.0140933
0.0110434
-0.00579934
0.0464605
-0.082652
-0.276554
-0.0970823
0.0578315
0.00251392
0.021233
-0.112232
0.0297687
-0.0757931
0.140593
-0.0169444
-0.0628783
-0.0978978
-0.303071
0.00912148
-0.334626
0.0254937
-0.198226
0.0726576
-0.053779
-0.0073307
-0.0392826
-0.0397761
0.0236351
-0.0538181
-0.0371686
0.0331168
-0.0480964
-0.21791
-0.0357128
-0.0173829
0.0111744
-0.05745
0.0480113
0.00981001
0.00801674
0.0562797
-0.0559495
-0.0441478
0.00937974
-0.109306
0.0248232
0.0266761
-0.245227
-0.114275
0.0195566
-0.206982
0.0251577
-0.0689981
-0.27687
-0.352498
-0.0638983
-0.0534756
-0.0555152
-0.0332764
-0.195102
0.0258763
-0.0521956
-0.191091
-0.102125
0.00918042
-0.0760974
-0.0507391
-0.0448337
-0.385567
-0.287648
-0.0354707
0.0210028
0.0303118
-0.00142859
0.0211348
-0.170422
-0.0742817
-0.0135084
0.0027443
-0.0338184
-0.0116753
0.0219035
0.00955796
0.0236691
0.017818
-0.0411884
-0.0024252
0.0145922
-0.0728526
0.0227655
-0.00750895
-0.0968351
-0.0510675
-0.0127665
-0.0532239
-0.0136156
0.00692699
-0.015695
-0.153703
-0.0806163
0.0147816
0.0267441
0.0211374
-0.0893231
0.0304054
-0.390605
-0.107046
-0.0698132
-0.370917
-0.0107833
-0.179198
-0.0522736
0.0215157
-0.0197419
0.0259666
0.0408495
-0.389844
0.024996
0.00774257
-0.0213539
-0.0129942
-0.00819586
-0.0501105
-0.0476776
0.0160602
0.0788816
0.0143655
0.0199217
-0.285574
0.0195114
0.0583494
-0.0114688
0.0303679
0.00364595
0.0285541
-0.382259
-0.235198
0.0482624
0.0124915
-0.205143
-0.272026
0.00230037
0.00753113
0.00669357
-0.0392159
-0.0702348
-0.0561218
-0.12968
-0.337268
0.0181184
0.00409073
0.0382981
-0.0376694
0.096965
-0.293063
-0.0560293
0.0167402
-0.0583619
-0.00217263
0.0739535
0.103602
0.0282939
0.0145559
-0.00341443
-0.0663742
0.015234
-0.0884986
-0.0556346
-0.226246
-0.0694152
-0.138812
0.0265645
0.0276752
0.00321937
0.0178769
-0.173081
-0.0650131
-0.13838
0.0564513
0.0382864
-0.0393849
0.0186525
-0.398297
0.0287169
0.0140394
-0.0579697
0.00757335
-0.0330502
-0.196305
-0.00319651
0.0226818
0.0225586
-0.0279165
-0.0558145
-0.367215
-0.0766388
0.00263455
-0.0230586
0.0243925
-0.113544
-0.130813
-0.000879445
-0.021014
0.042718
0.0936686
-0.0445329
-0.00276716
-0.288049
-0.0814909
0.0198224
-0.0551389
-0.0672635
0.0329585
-0.0571748
0.0185904
0.0035384
-0.392729
-0.321821
-0.0258664
-0.155589
0.00712807
-0.118383
0.0231554
0.0123156
-0.0120645
0.0074899
0.00987691
0.0151877
-0.0386001
-0.00286805
-0.297537
-0.0703636
-0.112452
0.0264244
-0.0507049
-0.119718
-0.0586486
0.0253427
0.0391196
-0.198078
0.0178616
0.00838533
-0.0828059
-0.0480159
0.00354977
0.103838
0.026143
-0.0516954
-0.136452
0.0275648
0.0079027
0.00554043
-0.14274
0.0170931
0.0235
0.0234438
-0.145744
0.0203674
0.00879344
0.0154769
-0.035899
-0.0115368
0.0401283
-0.116014
0.0364653
-0.365168
-0.010444
0.0295111
-0.20104
-0.0538615
-0.0876567
-0.304256
0.000297496
-0.396832
0.00685512
-0.0459916
-0.0171457
0.0232554
-0.0107827
-0.0625311
-0.216847
-0.17941
0.0423422
-0.270429
0.0339726
-0.048877
0.00456662
-0.0452131
0.00225093
0.0071701
-0.0197464
0.0194447
0.0271673
-0.00408909
-0.151112
-0.0446517
-0.148295
-0.0550147
0.103212
-0.0687512
-0.33375
0.0247155
-0.378092
-0.0512436
0.030571
-0.0125972
-0.166522
-0.3876
-0.0408839
-0.014201
-0.0320471
0.0067106
-0.029796
0.0199308
-0.0475121
-0.0875547
0.0354648
0.0114792
-0.106591
-0.011738
-0.145355
0.0279279
0.00696495
0.0162051
0.0259664
-0.0582289
-0.193574
-0.0573116
-0.0134021
-0.0114696
-0.0412669
-0.000354279
0.00648876
-0.00124355
0.00776557
-0.0460272
0.0371283
0.0245718
-0.118544
-0.017559
-0.103396
-0.295725
0.0215156
-0.0724006
0.117534
-0.0215757
0.00659873
0.0582012
0.0245392
-0.0473807
-0.0895075
0.00882347
-0.198673
-0.0512222
-0.0482214
-0.331546
0.0161393
0.0132415
0.00791012
0.172305
-0.0411578
-0.0201536
-0.048079
0.00335745
-0.00864576
-0.288384
-0.00435049
-0.0530865
0.025174
0.04196
-0.0764766
-0.0410267
-0.0331351
-0.221956
-0.0516403
0.0111017
-0.293246
0.00242606
-0.0661785
0.0192536
-0.0512452
0.0150191
-0.061227
0.0537986
-0.327874
0.0224215
-0.358618
0.00423948
-0.0514566
-0.0090425
0.0228941
-0.064407
0.0374899
-0.0804183
-0.264557
0.0230132
-0.222801
-0.067826
-0.0474422
-0.00636153
0.0316748
0.0189391
-0.0822095
-0.040982
0.0338788
-0.235238
-0.0938348
-0.113292
0.00988281
-0.0529235
-0.00526642
0.0229456
0.029786
-0.057258
-0.0766791
0.00583812
-0.052334
-0.248128
0.0234391
-0.0575177
-0.217486
0.0259447
-0.0130719
-0.0635918
-0.0623822
-0.179803
-0.0678782
0.0986157
0.057196
0.0117358
-0.0159254
-0.18316
0.0190637
0.0265133
0.0306656
0.014784
0.0289833
0.0238675
-0.0779408
-0.389672
0.0075995
-0.254524
-0.0746495
-0.291504
0.00383665
-0.0304558
-0.0782364
-0.0760604
-0.0383402
-0.0741369
0.0236715
0.033447
0.0296006
0.0244717
0.029661
0.056297
-0.272556
-0.0525799
-0.0520376
0.0114099
-0.00410812
0.0110203
0.0245876
-0.00359829
-0.370578
-0.115383
-0.0540447
0.0266699
0.0131026
-0.0252252
-0.389158
-0.00403304
-0.0546315
0.032869
-0.237796
-0.352673
-0.0199361
0.0232443
-0.00637329
0.0188984
-0.0713015
0.0791611
-0.0314869
0.103757
-0.244815
-0.296906
-0.105185
0.0588674
0.0715141
-0.0525237
0.0332473
-0.281031
-0.0353942
0.0198143
-0.0928883
-0.0367935
-0.00373441
0.0385281
-0.0743545
-0.0035984
-0.0551654
-0.00987322
-0.310048
0.0348853
-0.0295003
0.00374348
-0.0548716
-0.0460248
-0.112528
-0.0026248
0.00623129
0.0434493
-0.227916
0.00871256
0.0326
-0.03339
0.0146903
-0.0481125
-0.136641
-0.0523887
-0.0452714
-0.000564602
0.024889
0.00949199
-0.0503628
0.0233798
-0.091058
0.0237615
-0.000534165
-0.0895588
-0.066372
0.0137684
-0.0557644
0.0861545
-0.0978772
0.00672584
-0.195241
0.00297225
-0.168154
-0.0157478
-0.356937
-0.0551273
-0.0551085
0.0145766
-0.0272197
-0.390635
0.0131438
0.0418177
-0.0839685
-0.355877
-0.0455018
0.00583335
-0.0494334
-0.0368701
-0.0633179
-0.0480407
-0.371807
-0.0523016
-0.00310838
0.0275314
0.0150294
0.0298165
-0.0114007
0.0293498
-0.0153186
0.00118232
0.033293
-0.0477645
-0.0082856
0.00249506
-0.15794
0.012993
-0.117396
0.0220224
-0.278762
0.0187536
0.0150055
0.091161
-0.0204082
-0.0505605
0.00630122
0.00765024
0.0196847
-0.325871
0.0193165
0.0225937
-0.0404807
-0.1638
-0.0599262
-0.00273098
-0.0358179
-0.103091
0.0197106
0.0204879
0.0132744
0.00416108
0.0274017
-0.0564691
-0.0343918
-0.0663909
0.0359969
-0.0131968
-0.0117751
0.0237133
-0.101494
-0.0905424
0.0134481
0.0100039
-0.218977
0.174434
0.0179673
-0.103124
-0.0330228
-0.137839
-0.0133318
-0.0482814
-0.087641
-0.105877
-0.0452658
0.0171172
-0.0946819
-0.0650775
0.0293731
0.0137412
0.0298557
0.0403299
0.0174866
-0.396524
-0.0294276
-0.0364495
-0.0326794
-0.372539
-0.0524402
-0.0242398
0.00956177
0.023891
0.0245875
0.0297356
0.0547952
-0.0533683
0.0217056
0.0234263
0.0210173
-0.132486
-0.244204
-0.0419246
-0.0594561
0.00820881
-0.0218213
-0.118816
0.015428
0.113277
-0.082584
-0.162887
-0.28296
-0.029907
0.0124049
0.00446492
-0.3969
-0.0274852
0.023846
0.0356851
-0.0519223
0.00727445
-0.0503693
-0.0331794
0.0164486
-0.174306
0.094783
-0.183311
-0.0714453
-0.0851547
-0.0147324
-0.0301626
-0.12225
0.0231471
0.0228286
-0.00115099
0.0196443
-0.134068
-0.154261
-0.134574
0.00811612
-0.0450537
0.0187223
0.0852206
-0.0760218
0.0171937
-0.240595
-0.136296
0.0393197
-0.0204688
-0.089059
0.0540881
0.0130808
-0.0240612
0.0154775
0.0097789
-0.0615738
-0.0671053
-0.0282715
0.00345169
0.0048497
-0.0912081
-0.13286
-0.0128801
0.190587
0.00341811
-0.101188
-0.0495069
-0.390666
-0.0341911
-0.307131
0.020603
-0.280073
-0.385275
-0.0481543
-0.0130133
0.0552671
0.0221731
0.0213524
-0.0697617
-0.0918953
-0.157062
0.0149862
-0.113561
0.00428245
0.0234093
-0.0532764
-0.0410063
-0.266308
0.04127
-0.0484978
0.00836335
-0.110726
0.0245473
0.100923
0.0105678
0.0437118
-0.345576
0.19453
0.04563
-0.24004
-0.0429386
-0.37907
0.0568978
-0.0484581
-0.0222631
0.020367
0.0193081
-0.0420261
-0.0196213
0.0159575
-0.041156
0.000683994
-0.0842276
-0.378292
0.0184162
0.0739285
-0.282739
0.0341387
0.0052042
-0.0819076
0.0248318
-0.0339212
-0.292081
-0.0819977
0.03744
-0.273089
0.0387909
0.0188993
-0.230684
0.0184636
-0.085291
0.0200254
0.0257412
0.0151864
0.0187771
-0.143567
-0.227569
0.014636
0.0255851
0.0209352
-0.0681802
-0.00200848
-0.0419079
0.00347542
0.0290127
-0.0469146
0.187414
-0.148752
-0.0519698
-0.0185205
-0.0420151
0.049464
-0.00828634
-0.00247056
-0.0213489
-0.235831
0.0484267
0.0186615
0.0198274
0.0181262
-0.358554
-0.0473142
-0.0167958
-0.00169722
0.0445865
0.00885959
0.0452152
-0.379573
-0.335884
0.0206663
-0.11117
-0.0116312
-0.0668361
0.0237502
0.0267815
-0.117642
-0.0860852
-0.131549
0.0194186
0.0193331
-0.0653585
0.0131762
-0.0925751
0.00239539
-0.118414
-0.150737
0.0974617
-0.0408143
0.0335291
-0.118589
0.0190813
0.0583508
0.0193553
0.0246318
-0.0657853
0.0237215
0.185305
-0.040849
-0.376651
-0.375343
-0.374999
0.00121845
0.0308646
-0.000656449
0.0105096
0.116967
-0.0165192
0.0181161
0.0193707
-0.0669295
0.0331646
-0.08469
0.0306625
-0.388331
-0.340546
-0.0131794
0.172957
-0.249558
-0.302136
0.0190296
-0.0771273
-0.307249
-0.0204128
-0.300318
0.0155696
-0.0106667
-0.0545286
-0.057436
0.00793658
-0.382447
-0.0408614
-0.0662754
0.00642142
-0.0521945
-0.0193637
0.0860202
-0.0598933
-0.056447
-0.281563
0.0477215
-0.0146334
-0.00826353
0.0128955
-0.170509
0.0153917
0.0236914
-0.314005
0.00483597
-0.185322
-0.100616
0.0183081
0.011229
-0.0648935
-0.381909
-0.0605646
0.038588
-0.0132527
-0.0586613
-0.0510919
-0.0405451
-0.0274145
-0.0134429
-0.209309
-0.0877766
-0.0539546
0.017204
0.0147852
-0.395606
-0.284429
0.00613213
-0.365757
-0.0528195
-0.390204
-0.0340113
0.0208925
0.0225818
0.0126386
0.0301947
-0.242011
0.0321532
-0.160734
0.0380912
0.00621389
0.0951357
0.0272642
-0.328477
-0.0580575
0.0374801
0.0208242
0.0107234
0.0118986
-0.116008
-0.000425846
0.0867821
0.0156737
-0.0123563
-0.0350954
-0.25272
0.0190273
-0.0749393
-0.0195818
-0.0497644
-0.0308865
-0.0454357
-0.000691891
0.0421679
0.0190167
0.00843673
-0.0443321
0.00943084
-0.000638368
0.0223771
-0.0898825
-0.135742
-0.141518
0.0726903
0.0236899
-0.0456372
0.0203999
0.00970699
0.0177951
0.0470914
0.0306807
-0.12013
-0.0762067
0.0052578
0.000632524
0.0552423
-0.189851
0.0221686
-0.0189169
-0.0473941
-0.106451
-0.0370061
0.000205875
-0.0607373
0.0223142
0.0164053
-0.0510818
0.0263705
-0.0443345
-0.0365379
0.0114444
0.0219619
-0.0566128
-0.136334
0.10875
0.0276663
0.0182861
-0.00710703
-0.0420725
-0.160073
-0.0199229
-0.0447749
-0.287831
-0.15044
0.0248845
-0.0676727
-0.0716124
-0.0561891
-0.2052
-0.13587
0.0242712
0.0187516
-0.281842
-0.0956635
0.00588815
-0.10847
-0.389142
-0.33062
0.0253517
-0.17032
0.0205147
-0.0859455
0.020546
-0.0549056
0.0187228
0.025578
-0.381159
0.0236473
0.0394291
-0.271599
0.031806
-0.0376568
0.0334287
-0.0776442
0.0244249
-0.166338
-0.000103138
0.115466
-0.0134659
-0.376741
-0.0800437
0.0213333
-0.0575189
-0.179019
0.0118968
-0.00689137
-0.0697518
-0.0150743
0.0106731
0.0245755
0.0476406
-0.0548847
-0.0292355
0.0266832
0.0446082
-0.0704717
0.0277135
-0.0539761
0.0982399
-0.0245971
-0.0666238
0.0193511
0.0381494
0.0169051
0.0354427
0.0180507
0.0261841
-0.11461
-0.0458215
-0.353766
0.0208033
-0.242544
0.137608
-0.306684
-0.0481447
-0.38452
0.00830702
0.0143685
0.0407218
-0.00115127
-0.0427126
0.00107899
-0.0588245
-0.00859309
-0.00325431
0.0115545
0.00893963
-0.0294005
0.00940743
-0.0583542
-0.316546
-0.358683
0.0161233
-0.00785082
0.108321
-0.0509233
0.0554541
0.119683
-0.0891081
-0.014767
-0.214455
0.0120297
-0.0425892
0.0299117
-0.391768
-0.0357934
-0.117428
-0.0452442
-0.0321885
0.0454571
0.0167405
0.0229352
0.0288478
-0.0504596
-0.0318662
-0.0249139
0.0199079
-0.00673643
0.178618
-0.381881
-0.0411437
-0.364519
-0.0489349
-0.0672456
-0.0450609
0.0237927
0.0460431
0.0140743
0.0128512
-0.0261908
-0.0549473
0.00427234
-0.130169
0.226683
-0.035959
-0.05519
-0.2432
-0.0521601
-0.0479112
0.0193804
-0.0537736
-0.364514
-0.0173881
-0.080213
-0.286942
-0.104571
-0.078816
-0.0583166
-0.219202
-0.0471553
0.0182093
-0.273652
-0.0381789
0.0052029
-0.047433
0.0748708
-0.108846
-0.0984993
0.0105014
0.0374754
0.00564864
-0.0923197
-0.0677862
-0.0171076
0.0235528
-0.0163558
-0.051694
0.0233869
-0.271869
0.0191157
0.00664326
-0.0608758
0.0115371
0.0256529
0.0225877
-0.134101
0.0192529
-0.0538672
-0.0872626
0.024751
-0.0990814
0.0241875
0.00842538
-0.141985
-0.392394
0.00889106
0.020532
-0.202909
-0.0710496
0.00560507
0.0173781
0.0383223
0.0179504
-0.326491
0.169426
-0.0191057
0.00642824
-0.0496295
-0.0450867
0.0373126
-0.0523155
-0.0544305
0.0341829
-0.175947
-0.045261
-0.131939
0.026053
0.0551762
-0.017678
0.00885254
-0.0832671
-0.12108
-0.109596
0.0230807
-0.0415247
0.00810551
0.0173716
-0.168624
0.0429226
-0.055407
0.0285533
0.0193679
-0.355785
-0.0828743
0.00621289
0.00834403
0.0417535
-0.100397
-0.0456369
-0.0857636
-0.230691
0.0102205
-0.0145222
0.0182497
0.0132968
-0.0419009
-0.188274
-0.350447
-0.11395
-0.0515778
-0.00352565
0.0386812
-0.0524621
-0.0236727
0.0251307
-0.0311251
0.0290065
0.0508315
0.0335981
-0.00795458
0.0110372
-0.396079
0.012875
0.0182091
-0.189153
0.0396487
-0.0512233
0.0173818
-0.123153
0.0346726
0.0436309
0.0194706
0.00352123
-0.0744782
-0.116665
-0.00936728
-0.390012
-0.154814
0.0174126
-0.028119
0.0202209
0.00470482
0.0330475
0.0417518
0.0368125
-0.115508
-0.365393
-0.312762
-0.0703862
0.0146905
0.0146141
0.0375293
0.0911504
0.225712
0.0320411
-0.0697974
-0.217738
0.00180312
-0.0278296
-0.0434744
0.0128385
-0.0599482
-0.057304
-0.350388
-0.0276208
-0.283356
-0.0289146
-0.0526162
0.00654046
0.02291
0.0120393
0.0197248
-0.0472765
-0.30757
-0.171811
-0.0849134
0.0038945
0.00567089
0.0261535
-0.396981
0.0131154
0.0228945
-0.376614
-0.354199
-0.00324628
0.0241797
0.0255043
-0.0655493
0.00947131
0.0945265
-0.016765
0.0429168
0.0343703
-0.0589955
0.0211693
0.00433002
0.0244331
-0.289083
0.084784
-0.173928
-0.0542068
0.0199959
-0.366103
0.0234162
-0.368794
0.0195002
-0.29129
0.0405575
-0.00417935
0.019311
-0.0206941
-0.0427781
0.0245321
0.00693917
0.024999
-0.177525
-0.0144434
-0.0510835
-0.0377871
0.0193807
-0.237745
0.101269
0.00921114
0.0258707
-0.087036
0.0244626
-0.0494009
0.0464209
0.0219387
-0.0870057
-0.328851
-0.0415562
0.0243715
-0.0457383
-0.0010648
0.033433
-0.0729258
0.022158
-0.0775711
0.00608681
-0.377828
-0.0673197
-0.0643897
0.0234898
0.00641684
-0.372389
0.0187058
-0.0338001
-0.0465932
-0.370123
-0.366169
-0.0667301
-0.243793
0.0295517
0.0154564
-0.373002
-0.121307
0.0392345
-0.149312
0.0104285
-0.00301963
0.0218612
-0.16123
0.0277892
-0.061977
-0.201293
-0.238464
0.0103623
-0.035263
-0.055021
0.0121542
0.108559
-0.000297297
0.0190467
-0.39178
-0.150191
-0.0122146
-0.082114
-0.0325983
-0.240885
-0.132058
0.0155372
0.0240965
0.0576938
0.0613654
-0.223474
-0.161983
0.0386684
-0.0213188
0.0110662
-0.0745922
0.0100352
-0.0457069
-0.100328
-0.0601387
0.000431214
0.00640962
-0.0413981
-0.00146504
-0.396863
0.00697941
0.0271279
-0.0836332
0.013194
-0.045882
-0.238248
-0.0612039
-0.379313
-0.0545733
0.0186273
0.00681791
0.0202654
-0.0734229
-0.237226
-0.105961
-0.0637194
-0.0557042
0.0189408
-0.0467119
-0.148925
0.0272362
-0.0157116
-0.0290302
-0.0349919
0.123029
-0.135822
0.0147058
-0.0518387
0.00652416
-0.0464138
-0.0675375
-0.0463949
-0.0351867
-0.377185
-0.0985805
-0.204157
-0.0485844
-0.0528501
0.0252693
-0.34066
-0.169292
0.0173836
-0.0656839
0.0257352
0.00695173
0.000990724
-0.0513714
-0.0623954
-0.00621685
-0.0502695
-0.0513508
0.00275453
0.00615669
-0.384022
0.099206
0.0572359
-0.185396
0.0542937
0.00485878
0.027591
0.0152265
-0.0980027
0.00255998
-0.000717504
-0.213881
0.0214309
-0.0502981
-0.229456
-0.0263592
-0.085797
-0.363019
0.0214279
-0.224623
-0.00191767
-0.0426507
-0.0226766
0.0332223
0.0542024
0.0225436
-0.0247496
-0.235879
0.0194992
0.0245534
-0.099816
0.0295815
-0.050787
-0.0374801
-0.000630683
0.139951
0.0233921
0.00913449
-0.104128
-0.00554526
0.000230336
-0.0580822
0.0059506
-0.0472482
-0.209023
0.0139214
-0.0531158
-0.212415
-0.0917152
0.00314714
0.0256845
-0.374447
0.0115149
-0.0549278
-0.0409257
-0.395792
0.00728785
-0.111397
0.00644082
0.0233166
0.0192369
0.0152601
0.0147405
-0.2828
0.000579101
-0.0511726
0.0274678
-0.342656
0.0284321
-0.147791
-0.293323
-0.0371325
0.0280933
-0.000597208
-0.0758831
0.00902596
-0.0753887
-0.117659
-0.373654
0.0360647
-0.0109348
-0.0141153
-0.0195243
-0.0636013
0.0691237
-0.0163941
0.0236444
-0.374196
-0.131571
-0.0356678
-0.149841
-0.0226823
0.0185636
0.0238986
0.0372432
0.0330618
0.102131
0.0246485
0.0776446
-0.05561
-0.000954918
-0.22044
0.0264038
-0.392495
-0.0394268
-0.0414537
0.0192421
-0.0700648
0.0348727
0.000628113
-0.0408183
-0.0380021
-0.0263372
-0.343815
0.0186218
0.00697228
0.00499699
-0.0873348
-0.37552
-0.101262
-0.0599854
-0.114516
0.0842273
-0.220952
-0.108426
0.0654161
-0.149472
0.152634
-0.139388
-0.0565344
-0.0510196
-0.338085
-0.0332783
-0.0519803
0.0237318
0.0257408
-0.0465547
0.0201474
-0.105646
0.0709452
0.0192703
0.00161877
0.0082319
0.0256199
0.00586771
0.0226842
0.0145322
-0.0933107
-0.373277
0.0263875
-0.317299
-0.397507
1.69588e-05
-0.0269181
-0.0443201
0.0196198
0.0244801
0.0248763
-0.0773
-0.0703857
-0.0510885
-0.0646586
0.0253258
-0.227235
0.019639
0.0285984
-0.0124117
-0.0635753
0.0245024
-0.0389552
0.0927702
-0.15515
0.0287944
0.087979
-0.0530003
-0.0582717
-0.0449387
-0.0594127
-0.0529697
-0.163366
0.0387163
0.0711506
0.0367424
0.0113997
-0.053866
-0.138146
-0.0445014
-0.101148
-0.0578912
-0.293225
0.0454594
0.00215238
-0.0239528
0.00819229
-0.000907179
-0.0429791
-0.0461831
-0.245541
0.0139429
-0.302202
0.022508
0.0329445
-0.00770849
-0.0368817
0.0170479
-0.0143235
-0.0522467
0.0145276
-0.164246
-0.384991
-0.371445
0.252755
0.0147858
0.0230671
-0.0633976
-0.397335
-0.0594654
-0.0482236
0.00657919
-0.0456166
-0.107901
0.0248576
0.0421297
-0.0536254
0.00616841
-0.329947
-0.0463821
-0.119528
-0.0997338
-0.341681
-0.345464
0.111035
-0.00535546
-0.0940204
-0.0886388
-0.0560915
0.0270437
0.00812806
-0.0564416
-0.174159
-0.0760424
-0.0985812
0.0070016
-0.0397512
-0.110914
-0.0124078
-0.0407508
0.0243892
-0.349063
-0.227669
-0.389846
0.0252822
0.023812
-0.179061
-0.151676
0.0194949
-0.0310711
0.0224723
0.00279011
0.0245271
-0.0307975
0.0110199
-0.138777
-0.240084
-0.0489538
0.0187809
0.00905681
-0.0492261
-0.0269059
-0.057877
-0.0652331
0.0185822
-0.155379
0.0566064
0.0890084
0.032803
-0.00225791
-0.0782548
-0.0998391
-0.0457386
-0.225531
-0.23512
0.00253756
-0.0737089
-0.0831692
-0.134536
-0.104306
0.0555385
-0.0463571
0.0277247
-0.210446
-0.0377801
0.00665789
0.0158567
0.111529
-0.351394
-0.157955
-0.0475801
-0.174513
-0.139121
-0.000169446
0.0243382
-0.329709
-0.0280934
0.00502784
-0.336256
-0.0479319
0.0228738
-0.0561242
-0.160232
0.0236081
0.00634447
0.0141694
-0.23582
-0.393702
0.0234836
-0.0868818
0.0298406
-0.00196131
0.0255717
0.02271
-0.0408458
0.0336537
0.00558879
0.0195965
-0.0559419
-0.309879
-0.139053
-0.219469
-0.070497
-0.177461
-0.0380849
-0.0565946
-0.265012
-0.214157
0.00602367
-0.18155
0.0176203
0.0270638
-0.0841616
-0.283589
-0.285648
-0.305871
-0.297611
-0.00853672
-0.0144937
-0.338963
-0.167835
0.0280394
-0.170861
-0.272004
-0.110887
-0.309491
-0.278136
0.0194773
-0.342499
0.000225526
0.023261
0.205457
-0.0314595
-0.374257
-0.0455685
0.00592358
-0.113368
0.0195256
0.0311391
0.0281372
-0.355637
-0.0582141
-0.207642
0.0258556
-0.0447109
-0.00185415
0.0253554
-0.205609
-0.228067
0.0186555
-0.111948
0.011059
-0.0519056
-0.217464
-0.242346
-0.347281
-0.135746
-0.0445426
-0.105285
0.00627385
-0.137727
-0.0315163
0.107443
0.019648
-0.106089
-0.385097
-0.046033
0.0155483
0.0406105
-0.0433328
-0.152151
-0.0466487
-0.0573185
-0.0456843
0.0282099
-0.176555
0.14328
-0.221684
0.0146375
-0.361175
0.037939
0.0221766
-0.22616
-0.273929
-0.0262091
-0.0466724
-0.102638
0.026009
-0.0877491
0.046673
0.0184287
-0.216983
0.0192025
-0.102855
0.0175951
0.00702656
0.0286365
-0.0340428
-0.015414
-0.19936
0.0503625
-0.00301219
0.0131752
0.014872
-0.0433438
-0.105675
-0.0605394
-0.0291062
-0.373793
0.0263367
0.00679193
-0.108891
-0.391741
-0.0446068
0.0255961
-0.0895527
-0.0441974
-0.0514457
-0.0344674
-0.0933406
-0.265713
-0.103642
-0.0472553
-0.324011
-0.0732885
0.00162864
-0.321751
-0.397048
-0.131074
0.0194631
0.0154154
-0.186631
-0.0499321
-0.0261077
-0.0532113
-0.00609647
0.00740762
-0.162547
0.0410585
-0.111239
0.129014
0.0247468
0.0273363
-0.0422554
0.0207794
0.00717713
0.0765727
-0.311741
-0.0643959
-0.278029
0.0195021
-0.381296
0.00583167
0.0227115
-0.353786
0.0279338
-0.102076
0.0220949
-0.142958
-0.0520191
-0.051237
0.0555797
-0.0595441
-0.134141
-0.226227
0.0172228
-0.233889
0.0356879
-0.0143281
0.0150962
-0.0968002
-0.0799613
0.0268534
0.0979209
0.00524929
0.0282809
0.0515457
0.019137
-0.0404538
-0.0481049
0.0417422
-0.10762
0.0180864
0.0699461
0.00679706
0.0195064
0.0227636
0.0251969
0.0290267
0.0153649
-0.0110826
-0.219034
-0.340897
-0.214917
0.023716
-0.146731
-0.187499
0.0254519
0.0354252
-0.131041
0.0662497
0.0205349
0.0322717
-0.0454171
0.0170598
-0.055859
-0.340143
-0.101051
-0.0204667
0.0642217
-0.10368
0.0255036
0.0277995
0.0193107
-0.388902
0.0670853
-0.0380411
0.0133789
-0.299032
-0.108542
-0.0886336
0.026834
0.0191804
0.0264709
0.0197393
0.0366728
-0.0897207
-0.00170479
-0.369803
0.0272724
-0.0270809
-0.0532015
-0.0677207
-0.030909
-0.0459299
-0.207312
-0.0189654
0.00880616
-0.0576963
0.0481689
0.0406499
-0.0166574
0.00179092
-0.0949455
-0.0465977
0.0505929
0.0224635
0.0111382
-0.029154
0.0243983
-0.230288
-0.221059
0.029543
-0.0565597
0.00421464
-0.0534624
-0.000342667
0.0156996
0.124878
-0.228522
0.00231646
-0.0273289
0.00452818
-0.364473
-0.0234737
-0.0126264
-0.0335814
-0.11172
-0.381271
-0.0622947
-0.0281156
0.0304415
-0.0148445
-0.392862
0.00645564
0.0294273
-0.051753
0.0341367
-0.0470253
-0.105136
-0.119301
-0.018733
0.0401758
0.0291919
0.0197985
-0.056408
0.0190886
-0.0147362
-0.042659
0.0300808
0.15766
0.048358
-0.165814
0.018424
-0.295889
0.0595354
0.0539689
0.0209788
-0.198855
-0.180331
0.0192888
0.0640709
-0.146133
-0.0564229
-0.0290729
-0.392645
0.021102
-0.110444
-0.0423303
-0.382725
-0.07523
0.0282214
0.0253156
0.0541986
0.0282367