/*--------------------------------*- C++ -*----------------------------------*\
| =========                 |                                                 |
| \\      /  F ield         | OpenFOAM: The Open Source CFD Toolbox           |
|  \\    /   O peration     | Version:  v2012                                 |
|   \\  /    A nd           | Website:  www.openfoam.com                      |
|    \\/     M anipulation  |                                                 |
\*---------------------------------------------------------------------------*/
FoamFile
{
    version     2.0;
    format      ascii;
    class       surfaceScalarField;
    location    "200";
    object      phi;
}
// * * * * * * * * * * * * * * * * * * * * * * * * * * * * * * * * * * * * * //

dimensions      [0 3 -1 0 0 0 0];
oriented        oriented;


internalField   nonuniform List<scalar> 
27668
(
0.0649458
0.058242
-0.123188
0.0372367
-0.0667851
0.0295484
0.326355
0.149836
-0.0628351
-0.0340364
0.0968715
0.344456
-0.197857
-0.146599
-0.0759955
0.148434
-0.0724386
-0.130679
0.0894168
0.041262
-0.406094
0.403326
0.00276814
-0.0422585
-0.0395054
0.0817639
-0.0640518
0.0216672
0.0423846
0.298053
-0.195351
-0.102702
0.00205187
0.448693
-0.261494
-0.187199
-0.0104733
0.0036075
0.201694
0.199503
-0.401197
-0.125982
0.0882597
0.0377228
-0.0259473
0.00234805
0.0235992
-0.148593
0.0725974
-0.173773
0.179455
-0.0056814
-0.00204109
0.00531771
-0.00327662
0.110168
-0.249377
0.13921
0.343108
-0.160591
-0.182517
0.00601505
-0.0297223
0.0237072
-0.153615
-0.091459
0.245074
-0.139147
-0.230507
0.369654
0.0198156
-0.028775
0.00895946
-0.0872806
0.0425595
0.0447212
-0.100442
0.264524
-0.164082
-0.0497155
-0.0375652
-0.0623792
0.127325
0.063338
-0.0591884
-0.00414962
0.0424394
-0.448534
-0.207024
0.216765
-0.0097407
-0.0520955
0.105067
-0.0529711
-0.0578584
-0.0728204
-0.0914745
0.0417748
0.0496998
-0.193371
0.392827
-0.199455
0.13079
0.167263
0.232593
0.111863
0.00693789
-0.0114476
0.00450969
0.0498352
-0.0891976
0.0393624
0.0292853
-0.0552181
0.0259328
0.10726
-0.0687253
-0.0385346
-0.00513646
-0.209315
0.0653743
0.14394
0.0383334
0.166089
-0.204422
0.180711
0.221056
-0.401768
0.0654337
-0.0025621
-0.0628716
0.12247
-0.283939
0.161469
-0.397224
0.258076
0.260095
-0.493607
0.233513
-0.0801803
0.075036
0.00514425
-0.0952089
0.0850956
0.0101133
0.0356167
-0.0831898
0.0475731
0.226812
0.116296
0.146295
-0.42095
0.274656
0.417299
-0.277999
-0.139299
0.445186
-0.0116551
-0.433531
-0.320189
0.0324502
-0.0820287
-0.0382397
0.120268
-0.0144654
0.0170368
-0.00257147
0.0780943
-0.0408576
0.148794
-0.249235
0.139812
-0.293427
-0.094171
0.0347218
0.0594492
0.0438864
-0.0810295
0.0371431
-0.264812
-0.0553765
-0.0314199
0.187644
-0.156224
-0.060734
-0.00340265
0.0641367
-0.370501
-0.107067
0.477567
-0.193358
0.109904
0.0834535
-0.0186684
0.097471
-0.0788026
0.0640322
0.00140154
-0.0188053
-0.0764037
0.405233
-0.198167
-0.207066
0.106724
-0.056889
-0.159966
0.399425
-0.239458
0.37106
-0.224766
-0.0493304
-0.0533018
0.102632
-0.123836
-0.069522
-0.0105864
0.00854536
-0.146903
0.185237
0.275585
-0.123167
-0.152419
0.0290091
-0.0091935
-0.192081
-0.0149428
0.0667799
-0.00344187
0.0332053
-0.403706
-0.00536919
0.00335241
0.00201678
-0.288454
0.371589
-0.0831356
-0.141028
0.0809608
0.0600669
-0.0632729
-0.0532237
0.116497
0.084255
-0.0486383
-0.132357
-0.0769574
0.0461981
0.0211947
-0.0673928
0.0597882
-0.0506886
-0.00909957
0.258462
0.019559
-0.278021
0.0152881
-0.0141146
-0.00117353
0.196462
-0.315961
0.119499
-0.00896447
0.00809436
0.000870107
-0.101931
0.0498352
-0.30872
0.0202662
0.0180191
0.427167
-0.177221
0.0896132
0.0876076
0.169917
-0.0979405
-0.0719769
0.0524162
-0.101747
-0.205833
0.211048
-0.00521569
0.0360752
0.0653291
-0.101404
0.0177891
-0.0175791
-0.000209985
-0.123826
-0.147704
0.271529
-0.0595993
-0.0345717
0.0962315
-0.108788
0.0125562
0.00187792
-0.0163433
-0.194402
-0.181666
0.376068
-0.108928
-0.0682933
0.0370728
0.0471822
0.217434
-0.058743
-0.158691
-0.00834232
-0.00062215
-0.118444
0.0364151
0.0807403
0.0718831
-0.152623
-0.381103
0.187732
-0.011674
0.00191468
-0.090669
-0.150837
0.241506
-0.309773
0.140495
0.169278
0.00557336
0.0906582
0.00558562
-0.0230767
0.0174911
-0.134866
0.173251
-0.0383849
0.180259
-0.144968
-0.0352915
0.0496398
-0.117681
0.0680416
-0.0557627
-0.0357118
0.138653
-0.358269
0.219616
0.446628
-0.469707
0.0230783
0.045835
0.0366641
-0.0824991
-0.01044
-0.0141503
0.0245903
0.154734
-0.134548
-0.0201864
-0.0120008
-0.0487333
0.378351
-0.118256
0.0451244
-0.112568
0.067444
0.140698
-0.216512
0.0655489
-0.0239717
-0.0415772
-0.0703704
0.0281119
-0.225955
-0.0371857
0.263141
0.1929
0.224398
0.00304801
-0.0105846
-0.396222
0.148372
0.24785
-0.159325
-0.0168413
0.176166
0.0184274
0.0592778
-0.0777052
0.0874424
-0.0503696
0.348747
-0.196099
-0.152648
-0.0404743
-0.067244
0.107718
-0.183323
-0.0225102
-0.161058
0.0440171
0.117041
-0.155296
0.30261
-0.147314
0.000432318
-0.00394402
0.0035117
0.0104435
0.248019
-0.220728
-0.175495
0.00554908
-0.00482783
-0.000721254
-0.170531
0.0356655
0.32931
0.119383
-0.175018
0.110447
0.064571
-0.0396271
0.0986549
-0.0590278
0.0666388
-0.0204407
0.292255
-0.169785
0.129672
-0.30522
0.175548
0.326587
-0.187934
-0.000579217
0.00751711
-0.0613215
0.0820822
-0.0207607
0.301477
-0.493061
0.191584
0.0493862
0.0518467
-0.101233
0.0656492
0.0371595
-0.102809
0.250525
0.154708
-0.134003
0.100071
0.0339314
0.0104999
-0.00745187
-0.0346339
0.0864122
-0.0517783
-0.166902
0.160078
0.00682428
-0.341516
0.180925
-0.00596941
0.00802128
0.0912119
0.126222
0.0807863
0.0734832
-0.154269
-0.00184606
0.00272795
-0.000881889
0.0748389
-0.137307
0.0624677
0.0260106
-0.0724596
0.046449
0.0879252
-0.0420903
-0.212485
0.0204038
-0.0151648
0.000305124
0.0148596
-0.0506989
0.113778
-0.0630793
-0.0571932
0.0336635
0.0235296
-0.00627439
-0.00313619
0.00941059
-0.413943
0.286713
0.12723
0.0541256
-0.0887595
0.120485
-0.252348
0.131863
0.164581
-0.25525
-0.0504992
0.0998854
0.0175274
-0.0185758
0.00104834
0.0808203
-0.153253
0.0724327
0.156147
-0.344932
0.188784
0.0129795
-0.00511935
-0.00786013
0.0192643
-0.00147521
-0.112098
0.0724707
0.0511814
0.0560785
0.033964
-0.00394637
-0.0300177
-0.032344
0.403405
-0.0833596
-0.0506432
-0.0970351
0.42339
0.0276898
0.103145
-0.130835
-0.00153929
-0.00261351
0.0041528
0.0733481
-0.00760756
-0.0657405
-0.320871
0.165575
-0.144563
0.176907
-0.032344
0.00132914
0.133757
-0.135086
0.123914
-0.065672
0.000453776
0.0197392
-0.0201929
0.176673
0.189653
-0.366326
0.100832
-0.0557081
-0.10807
0.0799023
0.0281675
0.0961785
0.0675525
-0.163731
-0.0476126
-0.0604572
0.0881045
-0.228203
0.140099
-0.146069
0.373751
-0.227682
0.0451796
-0.108015
0.112153
-0.406028
0.293876
-0.130152
0.29008
-0.159928
-0.173921
0.0145967
-0.192585
-0.221358
0.0774268
-0.0960951
0.227818
-0.139713
-0.206201
-0.103572
0.373922
-0.211597
-0.162325
-0.0118106
0.286822
-0.15715
0.0212508
-0.0316908
-0.0043498
-0.00260221
0.00695201
-0.0690903
0.265552
0.240942
-0.130775
-0.0412469
0.089381
-0.0481341
-0.00436757
-0.00563317
0.0100007
-0.186641
-0.0258438
-0.10368
0.052981
-0.117604
0.257416
0.0910395
-0.154312
0.0273738
0.149778
-0.177152
0.0735615
-0.102191
0.0286291
0.0152896
-0.0157324
0.000442856
-0.225971
-0.044691
0.270663
0.0546201
0.0109288
-0.195241
0.0117815
0.18346
-0.131187
0.0478275
0.0843314
-0.310287
-0.0347265
0.130905
0.338218
-0.182071
-0.000620141
-0.00128361
0.00190375
-0.0747452
0.0334983
-0.00313664
-0.00223254
-0.0245
0.0196196
0.00488045
-0.0368858
0.115901
-0.0790152
-0.0152007
0.0212158
0.102224
-0.0569152
-0.0453089
0.0313161
-0.0604312
0.0291151
-0.370922
0.228445
0.142476
-0.0234623
-0.00698454
0.0304468
-0.0487866
0.129573
-0.0561561
-0.0592025
0.115359
0.0690448
-0.0251583
0.0510126
0.00877561
0.0884679
-0.0603593
-0.0281086
0.187746
-0.172815
-0.014931
0.360856
-0.248703
0.0635396
-0.0482849
-0.0152547
-0.0367136
0.0901955
-0.0534819
0.197649
-0.176054
-0.0215955
-0.198555
-0.18725
0.385806
-0.481511
0.52624
-0.0447286
-0.0267359
0.0896346
-0.0628987
-0.181422
0.334467
-0.153045
0.0195637
-0.00375508
-0.0158086
-0.0111871
0.00964776
0.00978787
-0.0104314
0.000643496
-0.000765604
-0.0251817
-0.0829624
-0.00401813
0.0869806
0.0591625
-0.115319
0.116552
-0.0429901
0.00778687
-0.0143323
0.00654538
-0.151856
-0.0219171
0.00389645
0.0156672
0.0229063
-0.0075072
-0.0153991
-0.0253921
-0.0782879
0.0566639
-0.0933776
-0.0590939
0.105487
-0.0463926
-0.343202
0.191603
0.1516
-0.0316116
-0.0255815
-0.115777
0.0853255
0.0304511
-0.0251592
0.0511698
-0.0131529
-0.00201187
0.0671732
-0.0697353
0.0458251
0.00686502
-0.0526901
-0.0731777
-0.0754153
-0.26649
0.0405186
-0.0490304
0.085857
-0.0368266
0.0723793
0.0298448
0.115474
-0.0658343
0.0149598
-0.0193274
-0.0149442
-0.0491076
-0.0731394
-0.0580478
0.0184016
-0.012816
-0.010674
-0.156228
-0.0576818
0.0937571
-0.000345454
-0.0015006
0.073304
-0.00279359
-0.0122624
0.015056
-0.0832401
0.0811462
0.00209394
-0.0604025
0.0550661
0.00533643
0.157783
-0.16266
0.00487779
0.0322359
-0.0812663
-0.0152028
0.0124092
-0.0581138
-0.053984
-0.13518
0.0790962
0.0560839
-0.0505158
0.112441
-0.0619252
0.166501
-0.00871827
-0.20171
-0.169212
0.0635904
-0.0322743
0.142584
-0.174004
-0.00540023
-0.0190998
-0.208617
0.2127
-0.00408263
0.190067
-0.0735963
-0.116471
-0.130396
-0.0435253
0.00818412
0.0230327
-0.0312168
-0.403368
0.243401
0.025088
-0.0699955
0.0449075
0.148373
-0.192737
-0.00250433
-0.14675
0.174124
-0.0154905
0.174068
-0.158578
0.00728354
-0.00220633
-0.00507721
0.00316027
-0.123081
0.26771
-0.144629
0.0518899
-0.0011181
-0.0507718
0.0337689
-0.153961
0.120193
-9.05293e-05
0.0153801
-0.0132153
-0.0697472
-0.442105
0.0243756
0.41773
-0.102809
0.0760734
-0.0447599
0.0790992
-0.0343393
-0.0330323
0.0919425
-0.0589102
0.0208209
-0.00392453
-0.0168964
-0.188969
0.241176
-0.0522073
0.00954543
-0.00902276
-0.000522672
0.00694693
-0.0112967
0.00330259
0.0306615
0.0698815
-0.00102155
-0.0688599
0.000413286
0.00564241
-0.0060557
0.0894429
-0.167545
0.0781016
-0.13676
-0.0242976
0.0736858
0.0764276
-0.150113
0.0730845
0.0548972
-0.0828612
0.027964
-0.124313
-0.114658
0.238971
-0.0921455
0.039723
0.0524225
-0.00221778
-0.00172623
-0.0360295
-0.0797471
-0.162023
-0.182908
-0.248383
0.283176
-0.0347928
0.00293138
0.0223286
-0.0252599
0.269613
0.133938
-0.403551
0.233767
-0.356848
0.36602
0.0806081
-0.145291
-0.196226
0.00728354
-0.0167084
-0.0121246
0.0288329
-0.114386
0.0562725
0.00195217
-0.00792158
-0.127323
0.064944
-0.0194098
0.048695
0.118729
-0.0110449
0.0102537
0.000791174
0.382925
-0.181231
0.0362974
-0.0614566
0.02319
-0.0373627
0.0141727
-0.176184
0.0457883
-0.406707
0.266133
0.140574
-0.00505591
-0.00639167
0.00337519
-0.00489678
0.0015216
-0.431197
0.307324
0.123873
-0.149071
0.0758935
0.11444
-0.0396014
0.144211
-0.126402
-0.0178093
-0.00680413
0.0508792
-0.0440751
-0.27109
0.126221
0.144868
0.489768
-0.229141
-0.260627
0.172125
-0.410628
0.238503
-0.0985221
0.07313
-0.0488302
0.0853556
-0.0365254
-0.16188
0.112241
0.0496394
-0.408408
0.0976154
0.310792
0.28448
-0.15131
-0.13317
-0.00938998
-0.233116
0.223109
0.0100074
0.109056
-0.107727
0.052296
-0.300679
0.0508552
0.0222975
-0.0731528
-0.110584
-0.0585356
0.16912
0.165416
-0.0212051
-0.347771
0.0215582
0.326213
-0.200612
0.35727
-0.156657
0.325851
0.163917
0.00572877
-0.000179683
0.00554676
0.00789274
-0.069585
0.0616922
0.00640592
-0.0126803
0.0151047
-0.0146509
-0.10129
0.0479883
0.339165
-0.152225
-0.186941
0.00404755
0.214036
0.0615493
-0.0885465
-0.0733339
-0.0624614
-0.0635211
-0.000877341
-0.0785443
0.0794217
-0.0556992
-0.0642554
0.119955
-0.156777
0.0979735
0.058804
-0.00543967
0.0512648
-0.0775611
-0.0426475
0.120209
0.173819
0.0139274
-0.071464
0.287258
-0.215794
-0.416495
0.229896
-0.0185948
-0.0615855
0.0956337
0.0846255
0.0536466
0.144003
-0.0491621
0.144796
0.0477573
0.120406
-0.168163
-0.0978489
0.0609631
-0.0518988
0.0597916
-0.258894
0.14129
-0.0392214
0.0714462
-0.0322248
0.06807
0.146247
-0.214317
0.0797607
-0.0289055
0.0737848
-0.0486968
-0.0489635
0.0607034
-0.0117399
-0.23462
-0.017338
0.251958
-0.180672
0.0222103
-0.0708159
0.0486056
-0.335963
-0.0724453
-0.00121234
0.0562785
-0.0239753
0.00226519
0.0217101
-0.349511
0.391951
-0.237352
0.0287347
0.239305
-0.0464795
-0.192826
0.0497384
-0.00305779
-0.0466806
0.0401761
-0.0169862
0.00694683
-0.00752605
0.0695664
-0.148809
0.079243
-0.0291326
-0.0304358
0.0595684
0.0819884
-0.316609
0.0169912
-0.00576443
-0.0112268
-0.0200789
0.179515
0.302743
-0.482258
-0.0555105
0.0427968
0.0127137
0.129501
-0.00758436
-0.121917
0.0680026
-0.178587
0.235879
0.109973
-0.345851
0.14608
-0.150451
0.00437074
-0.0795462
0.315425
-0.076382
0.0636589
0.0127231
0.0994244
-0.448936
-0.541457
0.354828
0.186629
-0.00390501
0.00585718
0.0586704
-0.104336
0.0456651
-0.111494
-0.159596
0.0652671
0.00190605
0.0405696
-0.38834
-0.00409455
0.0036844
0.000410148
0.156104
-0.160132
0.0040278
-0.220125
0.230568
-0.298196
0.0699923
-0.163658
-0.179545
0.000635699
-0.0323969
0.0317612
-0.271781
0.200317
0.137606
0.0764442
0.0357148
-0.112159
0.000183992
0.142951
-0.143135
0.0378039
-0.0477283
0.00992437
-0.107882
0.0573663
-0.205725
0.287714
-0.000912911
-0.000610902
0.00152381
-0.0468603
0.098564
-0.0517037
0.152414
-0.113612
-0.0388015
0.272171
-0.417636
0.145465
0.203247
-0.185169
-0.0180777
0.384166
-0.184663
0.202888
-0.348957
0.159928
-0.0868432
-0.0730851
0.23567
0.113077
-0.192322
0.0610492
0.131273
-0.0309039
0.0858011
0.0845882
-0.0854656
-0.100162
0.0671292
0.067654
-0.013802
-0.053852
0.116336
0.0383986
0.0381383
-0.0972322
0.0633736
0.045357
-0.108731
-0.00496713
0.351643
-0.557444
0.205801
0.0127966
0.00682296
0.0709811
-0.0487707
0.0503361
0.0104774
-0.0271858
0.140446
-0.183097
0.042651
-0.172099
-0.126097
0.0104542
-0.00638202
-0.00407219
-0.215398
0.00893733
0.20646
-0.193412
0.232477
-0.0390651
0.0179903
-0.0171362
-0.000854077
0.0862329
0.0661806
0.028688
0.162323
0.0487258
0.210048
0.147222
-0.136944
0.0547875
0.082156
0.168056
0.112036
-0.280091
0.0854496
0.128584
-0.214033
-0.006778
0.00417579
0.00456693
-0.00673286
0.00216593
0.0250811
-0.197049
0.171968
0.184333
-0.0240538
-0.16028
0.0220872
0.162779
-0.0166991
0.217854
-0.149784
-0.0131726
0.162951
0.00258345
-0.0553139
0.0527305
-0.173588
0.193123
-0.0195346
-0.131943
-0.164001
0.295944
0.0373233
0.016442
0.00252085
0.00063942
0.265689
-0.0330964
-0.0320614
0.0907318
-0.260697
0.0672849
0.184613
-0.0222904
-0.0520729
0.0887593
-0.0366864
0.0215192
-0.00872258
-0.000640347
0.0705218
0.546014
-0.283293
-0.262721
0.103505
0.0731818
-0.0826898
0.00950793
0.0431765
-0.0615164
0.022295
0.019924
-0.168036
0.318731
-0.150695
-0.234139
0.187659
0.00136635
0.00689008
-0.00825642
-0.260428
0.137678
0.122749
-0.0869485
0.0294847
0.0574638
0.510441
-0.212439
-0.298002
0.045668
-0.0555788
0.00991078
0.0499717
-0.0283045
0.0506137
-0.049978
0.0761743
-0.0544308
-0.0217435
-0.283859
0.0877599
0.0540001
-0.0514166
-0.111394
-0.090496
0.20189
0.0143811
0.000907058
0.000411156
0.112504
0.176105
-0.288609
-0.299436
0.478952
0.0505051
-0.0127012
0.0545255
0.0475626
-0.102088
-0.0906666
-0.0503611
-0.0714052
-0.103613
0.0949334
-0.277768
0.182835
0.0217571
-0.00994466
-0.0118124
-0.294502
0.17274
0.121762
-0.0649556
0.0564156
0.00853996
0.216316
0.0681635
-0.167786
0.0210355
0.040372
-0.260497
-0.026028
0.0960842
-0.0700562
-0.378814
0.137235
0.241578
0.0642196
-0.128452
0.0642321
0.000511733
-0.00113187
-0.0157464
0.0249031
-0.0091567
-0.373977
0.153249
-0.0302893
0.106733
-0.199967
-0.17401
0.171048
-0.0149434
0.0556627
-0.0816907
-0.0669119
-0.0200366
-0.00214725
-0.0078952
0.0100424
0.117508
-0.323233
-0.0299308
0.0377177
0.00966152
0.000792701
0.0283369
-0.243133
0.214797
0.0727389
0.000770613
-0.0735095
-0.316623
-0.090084
0.0148527
0.208478
-0.182373
-0.026105
0.00601065
0.250101
-0.329647
0.0411055
-0.0422236
-0.0149811
-0.00577039
0.0207515
0.101364
-0.177403
-0.195367
0.37277
-0.411365
0.317787
0.0935784
0.199489
0.0416877
0.157436
-0.0817365
-0.0756993
0.285474
0.26054
-0.105395
0.184707
-0.0793129
0.200534
-0.223736
0.0232023
0.0271346
0.169934
-0.197069
0.00786954
-0.00330261
-0.322107
0.252766
0.0693408
-0.0631036
0.181353
-0.480789
-0.213244
0.241581
-0.00666035
0.00581295
0.000847394
-0.00453107
0.00494435
-0.0583085
0.0515043
-0.202245
-0.119861
-0.0174548
0.0075101
-0.32906
0.147638
-0.17983
0.0171699
-0.208175
0.303108
0.177894
0.0529991
-0.230893
0.00982823
-0.0605168
-0.0306985
-0.0111098
0.0418083
-0.316578
0.190614
0.125964
-0.405936
0.20738
0.103516
-0.0489904
-0.168235
0.320262
-0.152027
-0.21893
0.208555
0.0103745
0.0173564
-0.0645036
0.0471473
0.214964
0.092486
-0.30745
-0.428191
0.281039
0.147152
-0.308025
0.139789
0.26726
0.178206
-0.157132
-0.0210738
0.212286
0.161636
0.0370268
0.0233087
-0.275696
0.145544
-0.0428691
-0.0492765
-0.185726
0.0473006
0.138425
-0.00899014
0.0081757
0.000814437
-0.0398702
0.0630245
-0.0231543
0.156061
0.00888111
-0.164943
-0.0670398
0.336652
-0.162379
-0.017451
-0.0503857
0.0955653
-0.357721
0.262873
0.0948481
0.0703426
-0.127667
0.0573244
-0.233903
-0.310975
-0.230482
0.0202586
-0.00273115
-0.00641835
0.0234483
-0.01703
-0.214284
0.222639
-0.00835483
-0.196595
-0.206773
-0.172079
0.195966
-0.0238865
-0.178053
0.354725
0.0180741
-0.00166167
-0.00499868
-0.0237981
-0.00320198
0.0270001
-0.090311
0.069876
0.0204351
-0.141797
0.0758191
0.0659778
0.0134884
-0.0708626
0.0573742
-0.0942222
-0.117835
0.212057
0.0412351
-0.0966905
0.0554554
0.179165
-0.102919
-0.0762463
0.0661894
-0.117652
0.0514626
0.106355
-0.0567433
-0.0496113
-0.00182964
0.0169343
0.155315
-0.392109
0.199524
-0.00121263
-0.0077775
0.175882
0.14217
-0.318052
0.375961
-0.110192
-0.265769
-0.00553939
0.00690574
0.208168
-0.181034
-0.00997841
0.0104567
-0.000478272
-0.0295354
-0.162787
-0.0949082
-0.34257
0.437478
0.0707405
0.345749
-0.0956481
0.0802878
-0.0246251
-0.00179335
-0.0093937
0.119477
-0.015719
-0.103758
0.317799
-0.138418
-0.17938
-0.0346066
-0.151119
0.277974
-0.404798
0.126824
0.046018
-0.0963278
0.0503098
0.0024633
0.00088911
-0.0935261
0.127295
0.0621782
-0.0796953
0.0175171
-0.0898007
0.391278
-0.146418
-0.0966936
0.243112
-0.0608081
0.181293
-0.0710996
-0.162016
-0.203327
-0.202609
0.039947
0.0601244
-0.139789
-0.120638
-0.0740843
0.0342141
0.0310312
0.0261266
-0.0571579
-0.113232
0.0878923
0.0253398
0.033089
-0.206957
0.176698
-0.324037
0.147339
0.320386
0.00361692
-0.324003
-0.11414
0.052637
0.0615031
-0.18769
-0.191124
-0.00308797
-0.00100658
-0.0614745
-0.075469
0.157402
-0.0169563
-0.100666
0.0502807
-0.0355204
-0.0777116
0.0104577
-0.000669799
-0.406372
0.188098
0.218274
0.00726427
-0.0097549
0.00249064
-0.198923
-0.180252
0.379175
0.00556149
0.000167278
-0.0578695
0.147312
0.0542434
-0.0434099
-0.0108335
0.0995815
-0.0596345
0.0485954
0.0754294
0.0844989
-0.107
-0.26189
0.36889
-0.0692275
-0.0798437
0.162162
-0.0725492
0.168405
-0.278767
0.110362
-0.0186253
0.0215567
0.00449743
0.00848206
0.151974
-0.0712341
-0.134794
0.164569
-0.0297749
-0.413175
0.209847
-0.0867617
0.0271624
0.192157
-0.221269
0.0291119
0.444318
-0.195012
-0.249307
-0.00955006
-0.1943
0.118006
0.0762945
-0.0555892
-0.0589842
0.0106992
-0.234829
-0.171543
0.0333344
-0.287691
-0.123674
-0.137642
-0.184449
0.322091
0.0588302
-0.074851
0.0160208
-0.0873783
-0.0267618
-0.285871
0.467224
-0.032481
0.0811978
-0.0487167
0.189764
0.102986
-0.0617511
0.083229
-0.0210508
0.00286501
-0.00924704
0.0179666
-0.0165907
-0.00137588
0.00640436
-0.000591412
0.0171704
0.00573584
0.108848
0.0610699
0.0572278
-0.0897088
-0.224993
-0.146027
0.0767991
0.0505974
-0.000464979
0.00140282
-0.000937841
0.150115
-0.0206142
0.0203165
0.0991608
0.00527744
0.0258264
-0.0242345
-0.00159188
0.000249597
0.0318226
-0.0320722
0.0477072
0.0407608
-0.00591569
0.0363894
-0.0304737
-0.17478
-0.0395042
-0.12647
-0.149227
0.08736
-0.0135753
-0.131792
-0.177642
0.309434
-0.00419366
0.00198733
0.122204
-0.0518613
0.195235
-0.211996
0.016761
0.0216169
0.0302464
-0.0518633
-0.140243
0.0423026
-0.147747
0.132257
-0.0201229
0.209489
-0.358044
0.251044
0.174894
0.159573
0.0563895
0.0286882
-0.0850777
0.142108
-0.0725418
-0.437505
0.171188
0.266317
-8.08663e-05
-0.00669713
0.299533
-0.0694427
0.100605
-0.0311619
-0.0552237
0.00610543
0.043633
-0.117982
0.203431
0.00521051
0.0490329
0.126847
-0.238241
-0.419746
-0.0617654
-0.162553
0.027759
0.0260576
-0.032476
-0.0604108
0.106429
-0.175995
-0.26151
-0.3124
0.174758
-0.170965
0.491351
-0.117829
0.0586267
-0.0254995
0.216303
-0.190804
0.00816952
0.000569317
-0.00873884
0.0679805
0.0281036
-0.0262423
0.0279652
-0.00172282
-0.0132544
0.0109495
-0.0744545
0.0729215
-0.0594331
-0.0793192
0.0379139
0.0414054
-0.217983
0.370176
-0.152193
-0.159138
0.191516
-0.0323782
0.349108
-0.177983
-0.171125
0.0608895
-0.200344
0.139454
0.0130722
-0.00490263
0.192085
-0.191864
0.378852
-0.186988
0.157708
-0.154955
-0.00275324
0.0788715
0.00848852
0.196818
-0.212679
0.0158606
0.000208331
-0.0101867
-0.040631
0.0526707
-0.0120397
0.0598984
0.0530618
-0.11296
-0.0964772
-0.0453197
0.385682
-0.225314
-0.160369
0.452357
-0.233966
-0.218391
0.0731286
-0.0699624
-0.0031662
-0.47198
0.186109
-0.192776
0.176931
0.0158442
-0.153581
-0.0291262
-0.217003
0.191504
-0.13394
-0.174085
0.295596
-0.288474
-0.00712193
-0.0183968
0.0248754
-0.00647867
0.0287105
-0.0192721
-0.00943846
0.112732
-0.264041
-0.199356
0.00661933
-0.0167701
-0.06647
-0.0293999
0.294206
0.327093
-0.152094
-0.174999
0.374881
0.151359
-0.0778236
-0.0274199
0.00117751
0.0439004
0.0381818
-0.0394385
-0.0556578
0.0950963
0.0100213
-0.00275708
0.280392
-0.11383
-0.166561
0.107618
-0.0630028
-0.0446151
0.146077
-0.271556
0.125478
0.169772
-0.0978886
0.0577097
0.0690763
0.00405231
-0.0587977
0.00983425
0.273841
-0.16261
-0.111231
-0.01732
0.0182067
-0.000886708
-0.137699
-0.131658
0.269356
-0.110377
0.158134
-0.141638
0.0431161
0.10389
-0.250308
0.0190434
0.337495
-0.356539
0.0381751
-0.045893
0.111825
-0.0659323
-0.0607476
0.279944
-0.219196
-0.0705482
0.110755
-0.0402069
-0.0175797
0.0257638
0.0373081
0.052342
0.0203969
-0.00246468
0.10387
-0.101405
-0.0856542
-0.226746
0.242066
-0.0193276
-0.222739
-0.318334
0.120478
-0.217099
-0.223032
0.44013
-0.0129213
-0.00899019
0.0219115
0.000830402
0.0430251
0.0204007
0.114157
-0.134558
0.157414
-0.280581
-0.0958394
0.056334
0.206565
-0.422353
0.215789
-0.000843954
0.00445955
-0.00361559
0.0300864
0.26551
0.204553
0.18113
-0.0671578
0.012727
-0.186871
0.364542
-0.177671
0.0692775
-0.139354
0.0700768
-0.0883328
0.0196075
0.261093
-0.0903197
-0.170773
0.270577
-0.488666
0.218088
0.158813
0.143796
-0.167567
0.14969
0.0178773
0.0730271
-0.0556707
-0.0046115
0.0195713
0.0295621
-0.0129404
-0.0166217
-0.362553
0.246598
0.115955
0.00725716
-0.187013
-0.205096
-0.0481147
-0.0168409
-0.0802788
-0.000846052
0.0811249
0.282152
-0.169647
0.175348
-0.165874
-0.00947407
-0.181742
-0.0523971
0.0688893
-0.0617019
-0.0386386
0.10034
0.278121
-0.0699526
-0.00352774
-0.0852779
0.0384176
-0.236938
0.539681
-0.0144348
-0.00129764
0.0665802
0.0193316
-0.0859119
0.144854
0.124272
-0.269126
-0.0250869
0.420608
-0.214043
0.152882
-0.00557131
0.0016663
0.0178103
0.0572257
0.0340325
-0.179
0.0382063
0.0247334
-0.0629397
0.181689
0.145404
0.060221
-0.00551311
-0.0547078
0.371595
-0.270531
-0.178827
0.449359
-0.165931
0.336741
0.1737
-0.142312
0.134728
-0.402866
0.109864
0.293002
0.0753192
0.188836
0.0892851
0.0700018
-0.0515744
-0.0563988
-0.0160608
0.102485
-0.0362956
-0.0115851
-0.223006
0.234591
0.00846563
0.0640867
-0.103525
-0.0688259
0.106326
-0.0374999
0.184002
-0.171177
0.196258
0.0588136
-0.0617508
0.00293717
0.252387
0.158161
0.158164
-0.316326
0.0602018
-0.0203436
0.0818829
-0.0615393
-0.182933
-0.141305
0.324238
0.0997591
-0.154238
0.0544787
-0.231918
0.220333
-0.0596902
-0.0667406
0.126431
0.000716176
0.00206494
-0.00278111
-0.344265
0.204321
0.139943
-0.207867
0.367439
-0.159573
-0.163387
0.341432
-0.178045
0.085795
0.184756
0.18583
-0.370586
0.176155
-0.378877
0.202722
-0.23733
0.413486
0.102194
-0.0261643
-0.0760297
-0.143511
-0.167795
0.311306
-0.0619219
0.236539
-0.174617
-0.319972
-0.0828939
-0.142799
0.06637
0.0764292
-0.0738155
-0.157077
0.169603
0.0444332
-0.0123255
0.0725464
-0.258855
0.0366153
0.22224
-0.0107346
0.00858734
0.104557
0.0529098
-0.157467
0.0779953
0.233487
-0.311482
0.00639686
-0.000835375
-0.0110898
-0.0472187
0.039881
-0.110429
-0.0078591
0.0115718
-0.00371268
-0.190562
-0.0742499
-0.00365936
0.00281541
-0.023558
0.207713
-0.184155
-0.0484055
-0.0105786
0.0822895
0.0183151
0.229167
0.139757
-0.368924
0.160189
-0.0556324
0.0158311
-0.0442079
0.0283769
0.06449
-0.00567636
-0.00427909
0.0906913
0.118082
0.106712
-0.224794
-0.0182179
-0.00834956
0.0265675
-0.204221
0.0814339
0.122787
-0.0540846
0.126871
-0.0727869
-0.0252663
0.0468832
0.102572
-0.0501563
-0.102512
-0.181833
0.422604
-0.261385
-0.161219
-0.157358
-0.016911
0.17427
0.233186
-0.461962
0.228776
0.183054
0.0590127
0.202319
-0.181982
-0.0203369
-0.0268328
0.0650391
-0.0856363
-0.0516702
-0.064746
0.102884
0.049012
-0.0601017
-0.068184
-0.0734542
0.0293434
-0.0022836
-0.0270598
-0.00552885
0.0106736
-0.00514475
0.352213
-0.357159
0.00494637
0.0173044
-0.0190978
-0.0523264
0.104053
-0.0517268
-0.0969203
-0.117914
0.214834
0.0561792
-0.000681962
0.00129623
-0.019693
-0.0135305
0.000377618
-0.0477315
0.102387
-0.0546558
0.126647
-0.0573694
-0.199411
0.36965
-0.170239
0.070238
0.230943
0.0749096
-0.0729379
-0.00197174
0.0310896
0.0427831
-0.0738727
-0.136218
-0.442105
0.0492851
-0.109784
0.060499
0.0210436
0.0820386
0.0201553
0.265695
0.0734703
0.223372
-0.24693
0.101742
0.149141
-0.0346525
-0.0521093
-0.00873903
0.0173221
-0.00858309
-0.0174105
-0.197212
0.206345
-0.00913333
-0.090478
0.219062
-0.0627527
-0.065699
0.117226
0.172863
-0.290089
-0.471971
0.375181
0.0967901
-0.0895067
0.233041
-0.143534
-0.375764
0.1839
-0.0437673
-0.00396101
-0.0599545
-0.096823
0.299803
0.0996218
-0.0168961
-0.0633827
0.201265
-0.176223
-0.0250418
-0.000108171
-0.000356807
-0.000177688
-0.300472
0.16868
-0.0533556
-0.0230264
-0.0711556
-0.0472637
0.118419
0.185562
-0.185247
-0.000315202
-0.205551
-0.26642
0.0412681
-0.0883689
0.0471008
-0.280736
-0.212325
0.00224514
0.0215752
-0.0193101
-0.237504
0.175582
0.0059383
-0.0146773
-0.12741
0.0677196
0.0704353
-0.12452
-0.00286483
0.502558
-0.200644
-0.301914
-0.365645
0.188243
0.177492
-0.385358
0.0453695
0.0609852
-0.130725
0.0679727
0.0254754
-0.0436291
-0.0074164
0.0510455
-0.0237432
0.14785
-0.124107
-0.22522
0.130997
0.0630977
0.00597857
-0.0210699
0.150783
-0.129713
-0.0693757
0.0402431
0.286189
-0.12549
-0.160699
0.0231461
0.161187
0.0246579
0.00490423
-0.0494434
-0.032742
0.143189
-0.0189484
-0.0107739
0.0599918
0.0672956
-0.127287
0.149919
0.000145083
-0.00531952
0.00517443
0.194273
-0.296785
0.00947767
-0.314485
0.14645
0.00287661
0.190374
0.164425
-0.354798
0.0174986
-0.0155874
-0.00191122
-0.127296
0.174597
-0.00841106
-0.00399017
0.0124012
-0.21297
-0.00479093
0.217761
0.00252426
0.0130713
-0.0155955
0.296965
-0.0800847
-0.21688
-0.000328496
0.241276
-0.0950287
-0.371648
0.0998666
0.0652179
-0.12474
0.0595217
-0.163152
0.322071
-0.158919
-0.0715902
0.0375538
0.0727171
0.000630913
0.192825
0.156101
-0.348926
-0.0203201
-0.0624492
-0.0225498
-0.263995
0.186854
0.077141
0.0364801
-0.150663
0.114183
-0.299697
0.182455
0.117242
-0.0154051
-0.0809227
-0.0115449
-0.00198565
-0.281633
0.067004
0.214629
0.0613432
-0.0659672
0.00462397
0.00661694
-0.017725
0.0111081
-0.0113615
0.0326124
0.283489
0.156728
-0.440217
-0.00850264
-0.024838
0.0333406
0.0156782
-0.159362
-0.206305
-0.0674182
0.273723
-0.00868429
-0.0213086
0.0299929
0.0596305
-0.122599
0.0629683
-0.168463
-0.200364
0.368827
-0.082917
0.0323002
0.0506168
-0.00244525
0.0637885
0.378904
-0.149737
0.0323585
0.00134127
-0.0336998
0.00474531
-0.00633286
0.00158755
0.117029
-0.0678395
-0.0491893
-0.0848855
0.211733
-0.0587376
0.116036
-0.0572984
0.00090792
0.031105
-0.089069
0.057964
0.0570932
-0.0251177
-0.0634528
0.0885705
-0.0352634
-0.157512
-0.00956312
-0.174297
0.18386
0.154136
0.0144335
-0.168569
-0.0574293
-0.0327156
0.0901449
0.264238
0.237493
-0.501732
0.183953
-0.330291
0.146338
0.129533
-0.256003
0.322046
-0.368758
0.0467124
0.209168
0.124107
-0.333274
-0.134781
-0.114596
0.0270349
-0.0201538
-0.00688116
-0.0161336
0.0163832
0.180568
0.00748234
-0.00183993
-0.0724408
-0.0627393
-0.0756297
0.0152704
0.228636
0.0683283
0.107614
-0.10743
0.120417
-0.0607866
0.0579486
0.0346114
-0.107892
0.073281
0.0665504
-0.0201716
-0.0463788
-0.0516302
-0.306413
-0.133709
-0.160792
0.0806986
-0.177619
0.405535
-0.263093
-0.142442
-0.256063
0.226979
0.0290839
-0.0397071
-0.154593
0.0204175
0.0565247
-0.0769422
-0.0781283
0.058472
0.0196563
-0.033621
-0.0492402
0.115553
-0.218455
0.200376
0.0180792
0.362711
-0.173057
0.153053
0.252481
0.186642
0.0744503
-0.00772068
-0.047716
0.0641595
-0.0164436
0.00260206
0.22167
0.135901
-0.302705
0.166804
0.17612
-0.0198385
-0.156281
0.00670306
0.00241368
-0.00911674
-0.156743
0.135673
-0.00590631
0.278572
-0.130111
-0.148461
-0.0152999
0.0741301
-0.00553758
0.00840259
-0.170162
0.187048
-0.0168861
0.351303
-0.158478
-0.106123
-0.157872
-0.436043
-0.000793299
0.436836
0.107347
-0.0179303
-0.0443685
-0.0485228
0.0928913
-0.0235945
-0.152459
-0.0756493
0.0505316
-0.0771147
0.0695071
0.0728544
-0.00975666
0.106752
-0.0575657
-0.0491866
-0.110657
0.131058
0.0631119
-0.0477302
-0.031589
0.14478
0.133793
0.0381186
-0.0440342
0.176484
-0.00472357
-0.17176
0.084378
-0.114667
0.13767
0.00481509
-0.142485
0.246554
-0.0919365
-0.154617
-0.0330048
0.198851
-0.165846
0.0994128
-0.117211
-0.160674
0.277884
0.0761156
0.0533179
-0.129434
0.123441
0.0106315
-0.00421756
-0.00641398
0.0657903
-0.261142
0.168593
-0.0949076
0.171779
-0.122165
-0.049614
0.00101275
0.0249541
-0.0259668
0.10794
-0.0426106
-0.00410516
0.00319225
0.257971
-0.069135
-0.244975
-0.179358
0.424333
-0.0638023
0.181884
0.00976216
0.4059
-0.184844
0.275802
-0.130949
-0.156865
0.0885713
0.115082
-0.0551838
0.121314
-0.0598505
-0.061463
-0.0514983
-0.0528373
-0.0758745
0.0422535
0.0256511
0.00611532
-0.0317664
0.291901