/*--------------------------------*- C++ -*----------------------------------*\
| =========                 |                                                 |
| \\      /  F ield         | OpenFOAM: The Open Source CFD Toolbox           |
|  \\    /   O peration     | Version:  v2012                                 |
|   \\  /    A nd           | Website:  www.openfoam.com                      |
|    \\/     M anipulation  |                                                 |
\*---------------------------------------------------------------------------*/
FoamFile
{
    version     2.0;
    format      ascii;
    class       volScalarField;
    location    "200";
    object      p;
}
// * * * * * * * * * * * * * * * * * * * * * * * * * * * * * * * * * * * * * //

dimensions      [0 2 -2 0 0 0 0];


internalField   nonuniform List<scalar> 
18758
(
0.00229505
-0.00679778
0.00313884
0.00206993
0.00846119
0.000526779
0.000582319
-0.00276414
0.00836445
0.00843838
-0.000613583
-0.0133704
0.0113967
-0.0113949
0.000866614
0.00155651
-0.0136623
3.84468e-05
0.000885515
0.00615832
-0.0210082
-0.0365562
0.000564648
0.00116637
-0.0356327
-0.0725204
-0.0626667
0.00411342
-0.0286429
-0.0109072
-0.0264789
-0.0537823
-0.00269292
-0.0378213
0.00882727
-0.0117798
0.0117507
0.00836404
-0.0488819
0.000556442
-0.0112635
0.00858027
0.00159573
0.00393532
0.00243638
-0.0116346
0.00846087
-0.0252168
-0.0808595
0.0023711
-0.00118675
-0.108389
0.00250122
0.0073705
-0.0431553
0.0109099
0.00288159
0.00585924
-0.0227015
0.00285248
0.00260671
0.00397108
-0.043851
0.000212565
0.00266326
-0.0248475
0.00380805
0.00181992
0.00652953
7.65154e-05
-0.101965
-0.0847962
0.00243709
0.00772429
0.0231753
-0.0268556
-0.0307505
-0.00999506
0.00856166
0.00159897
-0.039593
-0.0426905
-0.00918751
0.0169627
0.00410456
-0.0435933
-0.0252805
0.00842404
-0.0534113
-0.0439815
-0.0709128
0.00203061
-0.0399382
-0.0748166
0.00241165
0.00393286
0.000311774
-0.0261463
-0.0166194
0.00390166
-0.013294
0.0101117
0.00177817
0.00392574
-0.0256242
-0.0188123
-0.0259604
-0.076345
-0.0384889
-0.0171037
0.00127842
-0.00119435
0.00558922
0.00359064
0.0103657
0.000264411
-0.0246637
0.00272531
-0.00653995
0.00404228
0.00371705
-0.0322748
0.00410851
0.00348559
-0.142368
0.00737748
0.00394907
0.00350972
-0.0388921
-0.178529
-0.0246025
0.00349872
-0.00316104
-0.0382895
0.000478421
0.0038044
-0.0189657
0.00405545
-0.0139656
-0.038546
0.00553455
-0.0181326
-0.0282511
-0.0394106
-0.148074
-0.0386106
-0.0227443
-0.0361748
-0.00155831
-0.0603217
-0.185798
-0.142965
-0.00570121
0.00853031
-0.0101443
-0.0756394
-0.0388421
-0.0411596
0.0182635
-0.00462768
-0.0522055
0.00355962
-0.0692108
-0.0231551
0.00636699
0.00272313
0.0035402
-0.0787499
-0.180413
-0.0195833
-0.117678
0.00312959
-0.0300584
0.000571574
-0.0461562
0.0045596
0.00226662
-0.0602394
-0.0415587
-0.0126066
0.00164408
0.00735011
-0.0428825
-0.0162427
-0.0622126
-0.00109516
-0.0114841
0.00951673
-0.0695596
0.0164999
-0.138987
-0.000977403
0.00145978
-0.00540919
0.00119769
-0.0149337
-0.0142139
-0.00541757
-0.0636687
0.00179103
0.00308913
-0.0424438
0.0282691
0.0015286
0.00125801
-0.062796
0.00448988
0.00882257
-0.187248
-0.167339
0.00196881
-0.0374182
0.0030495
0.00547141
0.00533941
0.00037153
0.00108851
-0.0376438
0.000562245
-0.0167278
-0.00466259
0.00321256
-0.0269716
-0.0425529
0.0278381
-0.00344753
0.0236867
-0.0458727
-0.061218
0.00446584
-0.0741059
-0.0371843
-0.0432383
0.00380205
0.00296739
0.00321712
0.0233367
-0.0954737
-0.0145323
-0.00199915
0.0011416
0.0227253
-0.0132948
0.00261116
-0.0662726
-0.0442448
0.00287655
0.00393857
0.00271196
0.00399091
-0.113206
0.00400042
-0.00049673
0.00316652
0.000352998
-0.0238648
0.00277385
-0.0883885
0.000799122
-0.0270093
0.00554475
0.00349003
0.0028245
0.0018903
0.00989658
0.00627906
0.0035176
-0.0151356
-0.00598495
0.00515184
-0.00142238
-0.083691
0.00503025
0.00435029
0.00153259
0.00509928
-0.00938482
0.000534858
0.00548669
-0.0106881
0.00393139
0.00346737
0.000817594
-0.0242843
0.000657499
0.00433234
0.000173291
-0.0146765
0.00396293
0.00394077
0.00263128
-0.0119779
0.00289008
0.00244382
0.00233594
0.00269503
-0.00120435
0.00196125
0.00119621
-0.138013
-0.0180136
0.00315674
0.00315123
-0.0575655
0.00281238
0.00159593
0.00343946
-0.0237401
0.00399039
0.0118852
0.000699404
-0.00845029
-0.0158355
-0.0116467
-0.0298865
-0.0343827
0.00171548
-0.0618815
-0.046081
0.00378785
-0.011256
0.0174407
-0.0490066
0.0033615
0.00174827
-0.172174
-9.59516e-05
0.00419233
-0.133148
0.0200591
0.00572338
-0.0474147
0.00333304
0.00274645
0.000730559
0.00358274
0.00489377
0.00308663
-0.00337234
0.00455847
0.00466946
-0.00283718
-0.0280133
-0.0710391
0.00404214
-0.0559086
-0.0160209
0.00416918
-0.0260963
0.00284584
-0.035984
-0.0126244
-0.00175088
-0.0011143
-0.125466
-0.0276293
0.00894732
-0.00295105
0.00582373
0.00558325
0.00398076
-0.015959
-0.0127516
-0.0075164
0.0263574
-0.0131629
0.00292625
-0.0204652
0.0075472
-0.0239068
-0.0901657
-0.00136201
-0.0500748
0.0209444
-0.0126062
-0.00078395
0.000298226
-0.0263207
-0.0380417
0.00100683
-0.00555226
0.00381673
0.00113523
-0.036024
-0.0102694
-0.00783982
-0.000774515
-0.139188
-0.00239918
-0.0172876
-0.0168307
0.00146076
-0.0094033
0.00568666
0.00401834
0.00374016
0.00565896
-0.00212487
0.00346438
0.00266225
0.00259307
0.00488828
-0.0324741
-0.0284186
-0.0212039
-0.0229603
-0.157819
-0.0278888
-0.0345182
0.00270618
0.00104839
-0.00122698
-0.00889616
-0.00136062
-0.0202359
-0.0224474
-0.000432826
0.00280599
-0.0304923
0.00252536
-0.0180396
0.0014415
-0.0496808
-0.00241645
-0.0154375
0.00236102
-0.0485403
-0.0413378
0.000674255
0.00396331
0.00186233
-0.0488406
0.00208587
0.00247567
0.00726795
-0.0291394
-0.00168469
0.00225975
-0.00136277
-0.00111628
-0.00535357
0.00388452
0.000711276
-0.0222822
0.00139978
0.00299829
-0.0465026
-0.000430684
-0.0209523
0.000719968
-0.000560027
0.00309739
0.000102671
0.00239512
-0.00192204
-0.109123
0.00229457
0.000161733
-0.0195007
0.00706296
0.00150558
0.00297299
0.000537922
0.0188126
-0.0422473
-0.00606235
-0.0152147
-0.0142978
-0.0593894
-0.0168482
-0.0386962
-0.0163591
0.00266562
-0.0329439
0.0210834
0.0082134
-0.00224734
-0.0177848
0.00499461
0.00549318
0.00310758
0.000648434
0.00400793
-0.000352705
0.00399689
-8.85109e-05
0.0120685
0.00347965
0.00126098
-0.0432114
0.00339865
0.00302684
0.000722868
0.00690285
0.00498928
-0.0214951
0.00452686
-0.000812368
0.000169491
-0.0261948
-0.0422258
-0.0378145
0.0206081
0.0010906
-0.00124069
-0.042327
-0.0406493
0.00372949
0.00284536
0.000767459
-0.0221187
0.000129723
0.000128278
-0.0674958
0.00510753
-0.0384086
0.00403572
0.00393386
-0.0138083
0.00395736
0.00443622
0.00182481
0.000931983
0.00441795
0.00236202
-0.0256946
0.0017252
0.000605301
-0.0209461
0.000126847
0.00171506
0.00349775
-0.0150032
0.0093723
0.00232124
0.00384174
0.0187696
0.00203818
0.00818817
0.0037597
0.00260705
0.00270251
-0.00573374
-0.00571853
-0.107954
-0.0726183
0.00391427
0.00439702
-0.0114383
-0.0751689
0.00147539
0.000331937
-5.3681e-05
0.00130654
0.0042693
0.00373085
0.00499641
0.00157745
-0.0221636
0.00374727
0.000566908
0.0201293
-0.0365326
0.00563504
0.00397278
0.00429696
0.00305492
0.00181726
0.00402311
0.00210617
0.0017032
-0.0121539
-0.0383475
0.00431501
-0.0268532
0.00394068
0.00166311
-0.0367592
0.000158986
0.000949163
-0.050308
0.00316165
-0.0150419
0.0253809
0.00319057
-0.000429982
-0.0545697
0.00269815
0.0108702
0.00321867
0.00270817
0.00306987
0.016433
0.000138361
0.0093285
0.00449519
-0.0258833
-0.0434394
-0.0103734
0.00398937
-0.138307
0.00116458
0.00193389
0.0034312
0.00297913
0.0123635
0.0184209
0.00320081
-0.0154701
0.00407382
-0.0188468
0.00304659
0.00234687
0.00181171
-0.0163983
-0.103599
-0.0041953
0.00609268
0.0042067
0.00312341
-0.0209038
0.00271697
0.00422764
0.00151247
0.00408593
-0.00577374
0.00486103
0.000851846
-0.0360162
0.00621176
0.00733461
0.00352914
0.00387022
0.000709166
-0.0332949
0.000678768
-0.0249018
-0.149384
-0.112251
0.00188267
0.000779854
0.0175957
-0.0179918
0.00111204
0.00341958
0.00451547
0.0034757
-0.0246958
0.000610151
-0.00606909
0.00406229
0.00396256
0.00402743
0.0039726
-0.0356647
-0.0158175
0.00545421
0.00429165
-0.00502572
0.000386688
-0.0051933
-0.0272651
0.00461872
-0.0169788
0.00418026
0.00399955
-0.0206488
0.000410102
0.000435723
0.0142892
7.0399e-05
-0.0476648
0.00177804
-0.027688
-0.152913
0.00878866
0.00314468
-0.0217485
-0.0157286
0.0173143
-0.0301641
-0.00576808
-0.00490721
-0.0292725
0.00182349
-0.0243348
-0.0303266
0.00329786
-0.0128539
-0.0331911
0.0114906
0.00823459
0.00515324
0.00124413
-0.00334224
0.00252124
0.00907517
0.0250853
0.00427642
-0.00134262
0.00721493
0.00517654
-0.0237084
0.00153513
0.000529923
0.000922092
0.00411016
-0.0588669
0.00388971
0.00557726
0.000870439
-0.0410572
-0.0461313
-0.00141865
0.00487427
-0.000954956
0.00451114
-0.0148624
-0.0187683
0.00538491
-0.00822173
0.00523984
0.00117142
-0.0721415
0.00152297
-0.00436409
-0.0452417
-0.0125967
-0.0919824
0.00166063
0.00565041
0.0077179
-0.00200355
-0.0195677
0.000236608
-0.00793259
0.00135845
0.00148451
0.00325848
-0.025385
0.00465261
-0.00526303
-0.0763332
-0.00280904
0.00116264
0.00306681
-0.00182283
0.00378012
-0.00129614
-0.0142342
-0.0680478
0.00334351
0.00376469
0.00327858
-0.00552158
0.0197208
0.00649526
0.00396175
0.00270427
-0.004894
0.0049887
-0.0275036
-0.0139095
0.00227735
-0.0262227
-0.00426486
0.00122429
0.00286337
-0.0016489
-0.00218522
0.00229116
0.00264646
-0.0191261
0.00531019
-0.0220762
-0.000272788
-0.0312028
0.00364496
-0.0188523
-0.0265647
0.0113493
-0.0231414
0.00100779
0.00518859
-0.010347
0.00216796
0.0173904
0.00379099
0.00408996
0.00721674
-0.083668
-0.00185866
0.00336537
0.0013238
1.45258e-06
0.00298393
0.00407225
0.00237889
0.00316679
-0.0108808
0.000946546
-0.000538032
-0.00999706
0.00398116
-0.0497117
0.0110509
-0.0216164
-0.0432765
-0.0187886
-0.0702189
0.00214629
0.00407174
0.00559851
0.00330086
0.00239407
0.00318308
0.00293064
-0.00341828
-0.000527582
-0.0425159
-0.00201662
0.00276882
0.00386781
0.00184032
0.00554784
0.000465231
0.0020016
0.00542247
0.00261648
-0.0822397
0.000160092
-0.0370577
0.00379759
-0.0281891
-0.0361548
0.00343659
-0.0897392
-0.0138523
0.00420667
0.00140943
0.000528359
-0.043822
0.000215166
0.00201221
-0.0114964
-0.0308533
0.00195777
-0.000614926
-0.00453191
0.000594712
0.00287282
0.000446422
0.00505645
0.000971136
0.00713173
-0.0101321
0.00195286
0.000395527
-0.0625293
-0.0863975
0.00104151
-0.0202705
-0.0508765
0.00543626
0.00315357
0.0032842
0.000156895
0.00585545
0.00541477
0.0028229
-0.00536667
0.00694617
-0.00096182
-0.0826327
-0.00844224
0.00290404
0.00507604
-0.0464143
-0.0051934
0.00196636
0.000531815
0.00223829
-0.0127807
-0.0181929
-0.000720744
0.00388384
0.003688
0.00668016
-0.0370598
0.00299547
-0.0208912
0.000322294
-0.0303719
-0.0128599
-4.06048e-05
0.0114799
0.00176386
-0.00101415
-0.0123692
0.00487866
-0.0436232
-0.0222298
0.00570916
-0.0584748
-0.0815485
0.00172894
-0.024096
0.00196023
0.000638126
-0.00585974
0.00673854
0.00379766
0.00335183
0.00266842
0.00425444
-0.0172054
0.00376942
0.00245601
0.00391184
-0.0792239
0.00511069
0.00305423
-0.0092548
0.0264226
-0.0135893
-0.0206109
-0.0246228
0.00449385
0.00142453
-0.000847512
-0.00487051
0.00353109
0.00444103
-0.0113505
0.0026181
-0.0206944
-0.000618162
-0.00344894
0.00657365
0.00257629
-0.0426056
-0.0191047
0.00137942
0.00203731
-0.0468576
0.00521026
-0.159955
-0.0532832
0.00385618
-0.00199707
0.0120587
0.00397578
-0.012085
-0.0105719
0.00111365
-0.0355847
0.000573238
0.00498995
0.00102721
0.00367889
0.00690094
-0.0411208
0.000485037
0.00325287
0.00576417
-0.00829126
-0.0366282
0.00548523
0.00349232
-0.0997263
0.0236002
0.00108267
-0.104502
0.00371547
-0.066259
-0.0599456
0.00324231
0.00303782
-0.000438025
-0.0174215
0.00420428
-0.00374977
0.00374063
0.00486561
-0.0436495
0.00295093
0.00113054
0.00192138
-0.0534992
-0.0190135
0.00464605
-0.027631
0.00335399
0.00233591
-0.0374441
-2.69055e-05
-0.0518192
0.0042417
-0.00937595
0.00337281
0.00426485
0.00320715
0.00422919
0.0104165
0.00536552
0.0111183
-0.00981286
0.00607316
0.000952209
-0.0164792
0.000288061
-0.0381194
-3.6686e-05
-0.012193
-0.0161646
-0.00624788
0.00281975
0.00283551
0.00261888
-0.0700692
0.000824466
-0.021974
0.0210222
-0.000340255
-0.0231062
0.000359119
0.00389336
0.0063307
0.00418019
-0.0138973
0.00473658
0.00451601
0.00422773
-0.0120827
0.000762245
-0.0256087
0.00469701
0.00384085
0.00304715
0.00589192
0.00263865
0.00252004
0.00354604
0.00203694
0.00269073
0.00272854
-0.0420618
-0.0376658
0.00267956
0.00265209
0.0246793
0.0063408
-0.094857
0.000217369
-0.00396851
-0.0549987
0.00370392
0.00272127
0.00269393
-0.000337598
0.00592863
0.00274745
-0.0128005
-0.008276
0.00291568
0.0261746
-0.0249563
-0.105318
0.00958122
-0.00317383
-0.00228567
-0.0270158
0.00259026
0.00279455
-0.0162294
0.00361915
0.0028465
0.00311886
-0.130394
-0.0200898
0.003167
0.00268538
-0.010106
0.00283821
-0.00210653
-0.0196445
0.00433854
0.00956288
0.00307998
-0.00540564
0.00535094
-0.0402205
-0.00829326
0.000742818
-0.0165822
0.0011113
0.0029031
0.00226071
-0.00699049
0.00305034
-0.0189234
-0.035244
-0.0252438
-0.0193355
-0.00763387
-0.0011665
0.00307274
-0.00334533
-0.019411
0.00430654
-0.0110017
0.00265398
-0.00237191
-0.00711049
0.00619729
0.0254018
0.0220655
0.0028008
0.00319088
0.0153133
0.00307443
-0.00125223
0.00308535
0.00379396
0.00392053
-0.0167975
0.0053507
-0.0123577
-0.0378133
0.00359157
0.00386447
-0.0123088
0.00558964
0.00363865
0.0182704
0.00588891
0.00306072
-0.0159859
0.00778479
0.00889682
0.00207181
0.00380578
-0.00155033
0.00402107
-0.0132223
0.0114746
-0.0693204
0.000455416
-0.076517
0.00590684
-0.0752821
-0.0767477
-0.0229305
-0.0426836
-0.0964098
0.00841444
0.000368713
-0.0292984
0.00965528
6.43912e-05
0.00281573
0.00482577
0.0151526
0.00387216
0.00212063
0.00319188
-0.0585707
-0.0868936
-0.0142567
-0.0362069
-0.0245061
0.00573087
0.00542571
0.000546002
-0.0561318
-0.0351161
0.00035447
-0.00850106
-0.0206092
-0.118193
-0.148907
0.000122116
0.0157476
0.00147509
-0.161364
-0.00788442
-0.00898435
-0.00786403
0.00971303
-0.0412394
-0.030056
-0.00178996
0.00231907
-0.033027
0.00157247
-0.0419632
0.00572308
0.00266431
0.00651118
-0.00963311
5.67072e-05
-0.00759523
-0.00403546
-0.0123853
0.00197803
0.00516863
0.00445997
0.0246523
-0.119932
0.00146781
0.00933544
-0.0658943
-0.0115919
0.00138392
-0.0294009
-0.0326388
0.00308006
0.000387341
3.5701e-05
0.00304242
0.00378749
-0.0918549
0.00503629
0.00314922
-0.0229354
-0.0144648
-0.0156102
0.00146989
0.000519309
-0.00617276
0.00557997
0.00406786
0.00413184
0.00412436
0.0039315
-0.0240671
0.00361712
0.00397187
-0.0163955
0.00401434
0.00368828
0.00351865
0.00119317
-0.00802027
0.00361425
0.00420386
-0.00313028
-0.0404803
0.00420641
4.59141e-05
-0.043145
-0.0259465
-0.0213321
-0.00366367
0.00385639
0.00390732
-0.0619816
-0.0093142
0.00320963
-0.00235453
-1.88861e-05
-0.0899329
0.000118755
0.00359936
0.00383987
0.00416225
0.00500542
0.00177228
0.00610428
0.00567052
-0.000249767
0.00140578
0.000942334
-0.00698951
0.00369642
0.00360433
0.0028301
-0.0265568
-0.0869942
-0.0250702
-0.0414993
-0.0199048
0.0221083
-0.0781753
0.004133
0.00902795
-0.0212451
-0.11969
0.00401957
0.00852471
0.000258819
-0.0439435
0.0023839
-0.0100677
0.00359718
0.000472499
0.00054825
-0.0259254
-0.00106659
-0.0768377
-0.00482634
0.00019441
0.00271482
0.00282009
0.00647977
-0.000783078
-0.0754783
-0.0119959
0.00590974
0.00607127
0.00288926
0.00164172
-0.0606962
0.025885
0.00140192
0.00249213
-0.0322147
0.00280186
-0.000857996
0.00331632
0.0049855
-0.0028435
0.00360495
0.0036729
-0.00137732
-0.0144911
-0.00174101
0.000102361
-0.00614583
-0.0390924
0.00392996
-0.0343027
-0.00651179
-0.0350634
0.000253391
0.00381999
0.00935989
0.00950902
-0.099372
0.00413949
0.0118669
0.00169315
0.00194303
0.00334172
0.00347295
0.0180889
0.00266232
-0.0150679
0.016114
0.00333116
0.00418714
-0.00408136
-0.0236053
0.00108359
-0.0294028
-0.0671542
-0.0425584
0.0145627
0.00322717
0.00138845
-0.155499
0.00649699
0.00373479
0.00325837
-0.0398625
0.003814
0.00396964
-0.0824667
-0.0184925
0.0054464
0.00605731
0.00312639
-0.0970412
-0.0202955
-0.158462
-0.00528128
0.000994102
0.00437561
0.00866719
0.00119066
0.00293431
-0.00763118
0.00283871
0.00282485
0.00382558
0.00609473
-0.0329817
0.00409975
-0.185068
-0.0177689
-0.0220094
-0.0194797
0.00893929
0.00299465
-0.0311394
-0.00539914
0.00302044
-0.0271955
0.00368809
-0.0495592
-0.022355
0.00404936
0.00298022
0.00685807
0.00900578
-0.00555832
0.00377821
0.00200218
-0.020763
0.00603418
0.00268155
0.00122676
0.00589049
0.000497404
0.000305219
0.0040645
0.00226886
-0.0252886
-0.0395105
0.00418594
0.00401029
0.00934365
-0.0201558
0.0013417
-0.0510825
0.0115688
-0.0224173
0.00444847
0.0033225
-0.066424
0.0060051
-0.00106768
-0.0235061
0.00399618
0.00301556
-0.033801
0.00238743
-0.0118733
-0.0273963
-0.0768972
0.000326565
0.00239302
-9.68507e-05
0.00338254
0.00103648
0.00175814
0.0118384
0.00176407
0.00292421
-0.035657
0.00352007
-0.00343825
0.000949655
-0.02706
-0.113572
0.00595358
0.00600954
-0.0149591
-0.0409165
-0.0217422
0.00317765
0.00440608
-0.014504
-0.0233848
-0.00273461
-0.00328185
0.00320305
0.00316679
-0.0125218
0.00246925
0.00367049
-0.00423149
0.00580177
0.00429921
-0.000661386
0.00396133
0.00639631
0.00301048
0.00251706
0.00152916
-0.0108291
0.00400053
0.00440115
0.00287531
-0.012547
0.00388003
0.00386851
-0.0380027
-0.0419615
0.0143458
-0.0369955
0.0036702
0.00244458
0.00406348
0.00333685
0.00231065
0.00432076
0.00505072
0.00395155
-0.00360482
0.00327021
0.00265851
-0.0324065
0.0113886
0.00388397
-0.0267314
0.00408587
-0.0098693
-0.0477086
-0.102666
0.00760748
-0.00830208
-0.0208446
0.00633099
0.00122048
-0.0913273
-0.028386
0.00390842
-0.0230441
-0.0177941
0.00336487
-0.00397753
-0.0160406
-0.0209153
-0.0010835
-0.00928376
-0.0174418
0.00182886
-0.00406262
-0.0373624
-0.000619832
0.00330826
-0.0247246
0.0130624
0.00149517
0.000847874
-0.00760901
0.00308355
0.0081167
-0.0144732
-0.0181615
0.0101314
0.00591266
0.00388498
-0.0471875
-0.00917455
-0.0507121
-0.0493456
0.00362353
0.00929962
0.00386691
0.00421359
-0.0204545
-0.000999808
0.00198435
-0.0124342
-0.0036403
-0.045653
0.00999828
-0.0693366
-0.0125867
-0.0127672
0.00110851
0.00360446
-0.0104419
0.000952826
-0.0730927
-0.0161204
-0.0290656
0.00379714
0.0240057
-0.0241568
-0.0979123
0.00475743
0.002582
-0.00541209
-0.0198926
0.0040965
0.00277107
0.0127489
0.00495912
-0.00140223
0.000810035
0.000605328
0.00570661
0.00318316
0.0254092
-0.00601958
0.000645568
-0.0329528
0.00110263
-0.0175019
-0.0571291
-0.103335
0.00534277
-0.0195683
0.00303296
0.00456066
-0.00408042
-0.121869
0.00166004
0.00320754
0.00228988
0.00336108
0.0266973
-0.043875
-0.00334915
-0.0413161
-0.0519588
-0.0286165
-0.0490859
0.00421092
0.00424265
-0.00826354
0.00103159
0.00105097
-0.00312032
0.00400347
0.00380676
0.0041977
0.00265418
-0.0140989
0.0013395
0.0102187
0.00592537
0.00256492
0.000610068
-0.121373
0.00275889
0.00322459
-7.19793e-05
0.0046318
-0.000973593
0.000587804
0.00222636
-0.0449531
0.00494136
0.00369878
0.00103871
0.00362151
-0.0179515
0.00440587
0.00454045
0.00665595
-0.000100105
0.0141171
0.00367293
0.00385017
0.00214049
0.00316477
0.00306681
0.00182387
0.0102028
-0.0436184
-0.000166383
-0.0603877
0.00455335
0.0110435
0.00773525
0.00909381
-0.0809451
0.00546356
0.00225105
-0.0236409
0.00539834
-0.0711639
0.00260355
-0.016521
-0.0122084
0.00281112
-0.0297216
0.00373111
0.00319589
-0.00815635
-0.0740511
0.00418053
0.00309185
0.0265764
0.00553777
-0.0343142
0.00286137
-0.0161943
-0.0148374
-0.0190886
-0.0777163
-0.128717
0.00411367
0.00436125
0.000101784
0.00618476
-0.00781355
-0.00180278
0.000697151
0.00266391
0.00324499
0.00264179
0.00413417
0.00349134
0.0120879
-0.00418931
0.0034208
0.00747249
-0.0920504
0.00143487
-0.0824702
-0.00395899
0.00646242
0.00286474
-0.0244957
-0.0442188
0.0107306
-0.123994
0.000854992
0.0102451
0.00133968
-0.019901
0.00266579
-0.0179237
-0.0149391
0.00353095
0.00658914
0.0025327
-0.00703717
-0.00443431
0.00348204
-0.00258781
0.00380378
0.00385559
-0.147827
0.00276162
0.00148687
-0.0104997
0.0054854
0.00179469
-0.00306409
-0.000201121
0.00602011
-0.000774496
0.00210773
-0.0636908
-0.0189237
-0.0749353
0.00229262
0.0012353
0.00135677
0.00203766
0.00198013
0.0130751
0.00185183
0.00390385
0.000606342
0.00377457
-0.0179853
0.000322021
0.02668
-0.0430318
-0.0253875
-0.00520469
-0.0031566
-0.0352175
0.00517204
-0.0399117
0.00298049
-0.0225752
-1.64269e-05
0.000196586
0.00352615
0.0060137
-0.0235768
0.00370782
0.00275216
0.00869385
0.0029296
0.00691982
-0.0290021
0.0117138
0.00432967
0.00544602
0.0267974
0.00232908
-0.0182352
0.0037389
0.0057446
0.00135356
0.00307479
0.00923258
-0.0218314
0.0128191
0.00330302
-0.0373787
0.00203012
0.00360364
0.00240877
0.00530965
-0.0218055
0.00297546
-0.00779484
0.0050907
-0.0610341
0.000386312
0.00472989
0.00334494
0.0123938
0.00401123
-0.0393385
0.00378165
-0.0251758
-0.00741115
-0.0278719
0.0040027
0.00354781
0.00133236
-0.00959612
0.00321151
-0.0893703
0.00388697
0.0118783
-0.0129093
5.35665e-05
-0.0457497
0.00290601
0.00385481
0.00624753
0.0171011
-0.0449459
-0.00254995
-0.0541911
-0.0589109
0.00587334
-0.0189304
0.00357751
0.00211194
0.0023891
0.00235826
0.0223671
-0.00413855
-0.0237125
0.000203848
-0.000605071
-0.0163472
-0.00372707
0.00715995
-0.0150413
-0.0357408
0.00279084
0.00452072
0.00071434
0.00331324
0.00360478
-0.0770391
-0.109566
-0.0203588
0.00335965
-0.000276461
-0.0161354
0.00365581
0.00333308
0.00357804
-0.00288361
0.000892006
0.00217214
0.00282307
-0.0307623
-0.0599843
0.0110102
-0.0108009
0.00334909
0.00359158
-0.0361566
0.0025823
0.022186
-0.0410322
0.00100499
-0.0405125
0.00382752
-0.109149
0.00286365
-0.0331217
0.00292393
-0.00180275
0.00843349
0.00634313
-0.00665479
0.00207939
-0.00906175
-0.015586
0.00280499
0.00325816
-3.20823e-05
0.00327749
-0.000289591
-0.00638766
-0.0306211
0.00554196
0.00348177
0.0077793
0.00546313
-0.0054567
0.00232053
-0.0229316
-0.021637
0.000669413
0.00507542
-0.0116298
0.0038411
-0.0356274
-0.0140248
-0.0266993
-0.0422519
-0.0129019
-0.0115811
0.00226502
0.00287982
0.00335053
0.00279686
0.00103351
0.00256674
-0.0658135
0.00340988
0.00394833
2.47988e-05
0.0137004
0.00161859
-0.116443
-0.030488
-0.00966264
0.00402016
-0.0684658
0.00326736
-0.0170685
0.0158888
0.00403808
-0.00754341
-0.0170289
-0.0342468
0.00383359
0.00243072
-0.0223587
0.0196843
-0.0224381
-0.0100592
-0.0299847
-0.0431034
0.00967845
-0.0072912
0.00437595
-0.0353224
-0.0111083
-0.0628062
0.0050166
-0.0502966
-0.016767
-0.0165513
-0.00248586
-0.0118592
-0.00463999
0.000739923
0.00249348
0.0013656
-0.0312602
0.000514603
-0.021512
0.00814873
-0.0244018
0.00208721
0.00777662
-0.0466315
-0.0119915
-0.0204548
-0.0132047
0.00281831
-0.110337
-7.85968e-05
-0.00431384
0.016354
-0.0157111
-0.0304813
0.0265481
-0.00600308
0.00139229
-0.054667
0.00164222
-0.0010046
-0.0325602
0.00076588
0.00215782
-0.0216054
0.000169887
0.00303168
-0.0373256
0.00256288
0.00355614
-0.016187
0.00360826
-0.0539744
0.000791011
-0.0145093
-0.0886117
0.00402407
-0.0137865
-0.0416242
-0.00525841
-0.0149843
0.00408557
-0.00672854
-0.0575266
-0.0126462
0.00637621
0.0043658
0.00797403
0.00177292
0.00265179
-0.00012054
0.00364361
0.00394055
0.00968193
0.00638593
0.00186057
0.0020302
-0.0241387
-0.0443779
0.00311548
0.00209051
-0.0175619
0.00369437
0.00347107
0.00343692
0.00354611
-0.00603146
-0.0133253
0.00968548
0.00830515
0.00369277
0.00212527
-0.0376644
-0.0398113
0.00601886
0.00271052
-0.00422955
-0.00624525
0.00362672
-0.0271544
0.00617023
0.0213609
0.00309064
-0.0199405
0.00255168
0.00215269
-0.015168
-0.0190144
-0.0191851
-0.0127984
0.00257077
0.00388275
-0.0127104
0.015099
-0.0521141
0.00338982
-0.00210698
0.0021115
0.00242955
-0.00475228
0.00424235
-0.0397136
-0.00697576
0.00469385
0.00149942
0.00886455
-0.0244933
-0.0968791
0.00255456
0.0039572
-0.035202
-0.0177214
-0.0252116
-0.00787599
-0.0364646
0.00646036
-0.0442655
-0.0104083
0.00100679
-0.0769591
0.0025095
0.00414314
-0.00500078
0.00242405
-0.0153925
-0.0409855
0.000250198
-0.0274665
0.00247308
0.00418737
-0.00245605
-0.0109923
0.00405079
-0.0265658
-0.00100497
-0.00196428
-0.000413967
-0.0565503
0.00324246
-0.0191781
0.00249349
0.00244248
-0.0146837
0.00371237
0.0114498
0.0082838
-0.012393
-0.0297481
0.00310093
-0.0186807
0.00309395
-0.116653
0.00615945
0.00302738
-0.180131
0.00320517
0.000927975
-0.0132656
-0.00364546
0.003612
-0.141691
-0.0506691
-0.0100767
0.00136779
0.00101334
0.00808355
-0.0338751
0.00385645
0.00873719
0.00525687
-0.0792001
-0.0712204
0.000796886
0.00252572
-0.0465065
0.00672529
-0.00305099
0.00476262
0.00356939
-0.0200948
-0.0119264
0.000238382
0.00330443
0.00377024
0.00248509
0.000844944
0.00281523
0.00538519
0.00866193
-0.00245832
-0.0139229
-0.00819851
0.0032321
-0.0162968
0.00808875
-0.035233
-0.0148137
-0.0396857
-0.0116151
-0.0483361
0.00330544
-0.0277516
0.00164804
-0.00654652
0.00422481
-0.000948638
-0.000982658
-0.00814877
-0.000137754
0.00117936
-0.0251552
-0.0116638
-0.0400255
0.00136667
0.00385872
-0.073984
0.00358612
0.000406523
0.000695458
0.00428574
-0.0645224
0.00187396
-0.0789249
-0.0154488
0.00344528
0.031775
0.012453
-0.0857812
0.00423502
-2.89566e-05
0.00245069
0.0111793
-0.0387202
0.00404509
0.00229573
0.00215344
-0.00125278
-0.0261281
0.0036039
-0.0853878
-0.0547503
0.00371413
-0.0213534
0.00333998
-0.114723
0.00356399
0.00103549
-0.00485329
-0.00349035
0.00402761
-0.0623398
-0.180306
0.00240185
-0.0729074
-0.0536173
-0.00162827
-0.0697157
-0.00435808
0.00239709
0.00405687
-0.000128737
0.000375067
-0.00394387
0.00386193
0.00950236
-0.0225424
0.000321872
-0.0269194
-0.0125169
0.00878123
0.0055352
0.00930555
0.00250401
-0.0444966
-0.0547946
0.0237883
-0.00674593
0.00535314
-0.0207728
-0.00329869
0.00217162
-0.000884291
0.00222704
-0.150294
-0.0314445
-0.0346528
0.00116348
-0.0045321
-0.0168648
0.0233287
0.00390123
0.00356671
0.00530996
0.00122448
-0.0213516
0.00171831
-0.0152087
-0.00834493
-0.0881768
0.00384283
0.00181332
-0.00628945
-0.0188183
0.00228981
-0.0470404
0.00297311
0.00330934
-0.00823406
-0.0170459
0.00424776
-0.0105572
-0.0587723
0.00283816
-0.00989488
-0.00824339
0.00848118
-0.00513814
0.000456211
-0.0262141
-0.0110407
-0.0414035
0.00320775
0.0009653
-0.0814412
0.00422077
-0.00401175
0.00199736
0.00304898
-0.0919401
-0.0020366
-0.00130788
-0.00802418
0.00352072
0.0114062
-0.0710815
0.00335194
-0.0115727
0.0022988
0.0200014
0.0044796
0.00434018
0.000647201
-0.00222169
-0.0213749
-0.00109403
-0.0227519
0.0024811
-0.0606814
0.00319739
0.00251116
-0.00396059
-0.00502783
0.00393119
0.0181669
-0.00839427
0.00416044
-0.00580075
0.00333342
0.0137972
-0.0163663
-0.03247
0.00322206
0.00299977
0.0124781
0.00395483
0.00328968
0.00145383
-0.0224069
0.00107818
-0.00439654
-0.0460726
0.00350615
0.00493069
0.00510864
0.00373305
0.00299611
-0.0777628
0.001747
0.00545186
-0.0439945
0.00525918
-0.0430572
-5.07168e-05
0.00351741
-0.0473157
0.0242049
-0.00533366
-0.0396527
0.000811295
0.0156998
0.00324491
0.000896644
0.00336984
0.00473196
8.96078e-05
-0.0324518
-0.0110448
-0.00436591
-0.0421304
0.00464189
-0.0082695
-0.0406366
-0.00282052
-0.00375317
0.00277191
0.0109532
-0.0469209
0.00627251
-0.0572347
-0.0241374
0.00926893
-0.0629248
0.00229008
-0.000907288
0.00186176
-0.000742785
0.00570731
0.000486326
-0.0949528
0.00226367
0.00191108
0.00231631
-0.0247428
0.00364223
0.00287623
-0.0251927
0.00522636
0.00640414
-0.0450434
-0.0074319
-0.00345032
-0.0108328
0.00945657
-0.00596218
0.00404778
0.0123262
7.26281e-05
-0.00473643
0.00490515
-0.0162119
0.00215739
-0.0238614
0.00479653
-0.00807925
-0.0584674
0.00206596
0.00647318
0.00329897
0.00165792
-0.0298536
-0.133565
0.00468361
0.00349443
0.00445512
-0.0276168
0.00554389
-0.0243063
0.00102775
0.00187145
0.00248982
0.00347272
0.00561723
0.00337189
-0.0292092
-0.00718041
-0.0431752
-0.0440844
0.000746322
-0.0732171
-0.00650852
0.00276255
0.00523956
0.00350929
-0.000663702
0.00180038
-0.0220026
0.00376606
-0.00599746
-0.026731
-0.0200453
0.00298476
-0.0465941
-0.0373442
-0.00683425
-0.0181213
-0.00635775
-0.00792487
0.00402054
0.00798482
-0.00102033
0.00729286
-0.0203623
0.00182635
-0.00427326
-0.102701
-0.00486659
-0.00717744
0.00599575
0.00630361
0.00420296
-0.100245
0.00405971
-0.0481199
-0.0206897
0.00201635
0.0109717
-0.0464694
-0.00987923
1.39896e-05
0.00146708
-0.175051
-2.31219e-05
0.0120181
-0.0450838
-0.0182618
0.00402713
0.0242526
-0.00116871
0.00566703
-0.000939263
-0.0166131
-0.013736
-0.00762967
-0.0456645
0.00380362
-0.0277235
-0.0179527
0.00245514
0.000876587
-0.0674622
0.00812663
0.00317321
-0.0657617
-0.0339379
-0.107821
0.00352176
0.00218989
-0.0763198
-0.0276311
-0.183199
-0.00114876
0.00661238
-0.0055886
-0.000751916
-0.00166735
0.00391482
-0.00338459
0.00408901
-0.106755
0.00367674
-0.00762953
0.00226441
-0.02767
-0.0115905
-0.0406554
-0.0354574
0.00498827
0.00395699
-0.00918184
-0.00791353
0.00371729
-0.00325885
0.00423583
-0.0764387
-0.174022
-0.00271476
-0.139963
0.0067796
0.000585472
-0.0650094
-0.012282
-0.0093597
-0.0819199
-0.0658529
0.000158918
-0.0639965
0.0023742
0.0025653
-0.124386
0.0146508
-0.0145458
-0.105036
0.00381645
-0.0812435
-0.00302692
0.00230807
-0.0120827
-0.0415477
-0.0927362
-0.0100737
0.00234513
0.00254167
-0.00317372
-0.00505025
0.0289796
-0.110404
-0.000272224
-0.0244283
0.00232103
0.00213925
0.00233862
-0.00611789
0.000935274
-0.0191677
-0.00195337
0.0034839
-0.00557814
-0.13048
-0.0101983
0.0303948
-0.0836006
-0.000685756
-0.167724
-0.011512
-0.015948
-0.0114826
0.000865768
0.000533433
0.00166116
0.000807832
-0.0397773
0.00290185
0.00151257
-0.00334996
0.0024571
-0.0209595
-0.0138256
-0.015604
-0.0318382
-0.00784009
-0.0670799
-0.087719
-0.000988966
0.00614542
-0.0246013
-0.0163754
-0.00631807
0.00378424
-0.00238993
0.00254708
-0.00414636
2.98738e-05
-0.097005
-2.94574e-06
0.00175352
-0.134774
-0.065798
0.00316244
0.00235925
-0.00447343
-0.0226776
-0.00152084
0.00301239
0.00229663
-0.00987873
-0.049581
-0.0449554
0.00382718
-0.0404183
-0.000307309
-0.014529
0.000427253
-0.0155184
0.00265198
0.00310731
-0.0368704
-0.0225206
0.00648032
-0.0212683
-0.0391475
-0.0414074
0.00221502
-0.00380318