/*--------------------------------*- C++ -*----------------------------------*\
| =========                 |                                                 |
| \\      /  F ield         | OpenFOAM: The Open Source CFD Toolbox           |
|  \\    /   O peration     | Version:  v2012                                 |
|   \\  /    A nd           | Website:  www.openfoam.com                      |
|    \\/     M anipulation  |                                                 |
\*---------------------------------------------------------------------------*/
FoamFile
{
    version     2.0;
    format      ascii;
    class       volScalarField;
    location    "200";
    object      ReThetat_0;
}
// * * * * * * * * * * * * * * * * * * * * * * * * * * * * * * * * * * * * * //

dimensions      [0 0 0 0 0 0 0];


internalField   nonuniform List<scalar> 
18758
(
546.065
146.83
592.288
519.704
561.838
611.087
591.343
538.033
563.947
558.709
163.363
162.555
424.424
541.962
590.584
598.08
141.581
630.444
591.998
591.583
109.82
188.281
606.768
610.578
107.535
175.462
69.3106
354.954
445.47
135.833
161.842
71.7997
543.787
45.7521
561.593
137.388
334.731
564.997
125.05
625.734
133.013
540.71
187.957
583.452
595.247
154.096
541.949
430.773
25.8864
497.097
158.027
38.6643
490.037
547.368
604.154
376.457
613.393
591.959
431.156
614.05
593.136
589.757
62.5158
224.069
588.418
33.8726
595.314
624.813
351.869
630.317
36.9586
71.3667
592.571
579.556
442.033
128.355
85.8971
114.25
559.333
198.268
554.815
142.981
123.94
533.234
553.688
602.21
534.369
580.609
62.3359
599.004
28.5035
582.979
530.924
25.7953
593.384
608.61
628.018
459.215
107.187
598.394
133.649
589.972
624.918
608.427
34.173
113.983
435.614
28.9962
71.9318
98.6177
597.372
213.307
500.299
595.737
590.015
300.072
454.484
616.661
294.835
546.736
600.66
84.2985
557.884
614.49
30.0926
548.488
591.993
614.34
446.287
30.9978
432.343
578.064
481.319
28.3249
625.194
599.104
271.711
566.243
370.541
547.715
491.319
114.688
480.73
74.9641
30.646
504.274
32.4583
454.217
156.336
259.561
33.1335
28.0735
584.16
567.609
140.291
46.5195
515.394
453.642
535.775
149.057
35.9153
612.55
25.98
32.5786
255.367
614.809
612.719
38.2875
31.584
164.384
26.866
587.635
437.598
109.74
67.1255
602.626
593.23
540.263
51.1224
571.869
626.109
564.615
602.454
564.108
117.822
595.423
132.387
543.004
25.7043
68.8297
27.7714
595.572
388.073
85.6244
627.815
561.127
359.031
588.056
25.6714
606.992
568.752
447.569
88.3766
598.265
597.68
25.9047
606.603
562.149
32.2785
29.4446
597.934
511.701
556.026
569.553
592.042
627.946
594.239
512.54
616.434
120.304
74.9521
609.392
475.702
439.317
77.8257
110.602
448.806
598.748
35.7452
606.919
169.917
502.647
64.6003
592.449
601.424
608.959
420.265
26.2621
344.253
561.587
597.074
441.355
380.302
595.211
171.742
375.316
600.905
610.735
608.768
598.83
26.7055
585.181
130.721
605.785
600.028
347.209
614.411
63.808
597.582
318.406
501.548
614.028
599.682
389.882
55.6416
49.4844
613.811
377.159
583.1
590.424
284.031
41.72
589.753
608.265
597.229
591.946
496.389
619.929
563.834
534.938
611.011
582.965
595.812
31.3894
590.702
608.492
630.848
385.444
608.942
608.749
590.529
567.388
613.257
604.729
596.306
591.955
110.983
573.163
605.67
32.0461
531.609
603.192
606.264
66.6159
250.296
626.309
434.493
115.103
592.716
483.809
596.141
45.1454
367.416
396.662
456.328
46.2209
625.258
60.6877
438.679
594.539
397.182
538.74
395.005
601.53
625.172
30.004
103.96
609.965
28.7433
465.492
460.001
27.4752
601.877
614.389
599.139
599.025
578.122
546.078
536.386
605.688
578.793
564.888
50.7877
66.5039
570.31
62.2405
101.717
610.077
501.959
245.275
211.831
129.551
332.701
596.298
27.4941
256.407
477.243
565.059
463.728
577.841
584.276
353.966
90.3049
158.332
481.418
105.098
601.073
516.021
567.944
448.424
26.0714
307.415
61.731
308.587
125.938
324.497
597.11
37.2349
461.123
200.217
179.112
602.003
608.445
290.729
145.62
122.3
279.032
29.2462
560.813
157.245
113.321
597.878
545.585
590.758
582.35
597.312
583.236
596.016
573.531
595.124
605.896
479.271
212.986
547.771
232.106
227.027
34.2224
218.666
429.133
598.289
608.503
174.737
542.907
563.828
129.753
444.673
318.408
613.727
50.6236
593.65
529.131
626.91
25.6869
46.5098
124.051
597.287
26.8945
537.144
595.753
585.615
596.996
60.7813
596.525
605.111
144.366
555.065
562.026
593.964
549.258
525.355
270.236
371.916
587.055
35.1734
627.055
528.859
598.63
604.923
193.251
589.81
524.305
592.558
311.757
578.876
595.255
26.8363
237.458
630.61
515.473
592.461
598.084
602.882
587.507
75.24
27.667
576.731
463.548
111.996
676.835
97.67
374.604
95.7007
617.257
424.839
451.701
536.716
547.256
117.815
320.747
489.011
608.117
592.24
609.132
604.858
608.95
605.938
241.944
589.319
627.677
541.294
584.561
591.769
625.671
593.871
317.483
104.671
606.106
165.741
603.575
522.495
589.25
29.0494
303.989
596.529
597.003
27.9268
27.4934
369.471
613.648
342.499
31.2444
630.922
607.777
46.8476
591.939
542.852
361.057
573.629
457.241
610.887
602.997
578.596
598.005
607.504
590.326
87.334
625.939
340.231
95.6345
630.591
625.921
584.192
503.345
584.814
369.037
597.822
57.7523
486.513
549.868
608.366
608.726
605.211
573.132
573.263
32.925
89.3759
610.86
607.731
569.27
35.5529
626.707
627.526
605.947
627.463
609.102
609.085
584.882
598.083
427.116
597.752
624.685
337.423
30.2018
501.127
590.871
600.313
586.689
595.152
554.674
345.239
184.808
567.605
82.8175
600.482
501.211
591.839
606.084
507.375
630.158
601.909
72.8789
593.187
560.598
549.768
602.943
593.779
25.6682
616.823
127.685
308.835
600.654
592.502
541.707
547.912
582.514
602.598
374.274
80.6018
97.9401
610.476
33.2702
628.164
597.38
596.899
501.696
88.2656
321.944
605.717
564.109
547.206
57.358
350.964
600.074
403.647
522.574
26.5164
485.972
420.065
609.202
502.412
442.271
603.768
609.447
626.552
610.321
498.992
387.075
133.584
75.6023
422.01
588.072
596.903
611.918
323.956
153.186
625.525
468.452
28.4525
32.7227
592.44
596.365
530.243
107.693
628.364
270.809
596.418
575.13
498.333
594.606
574.676
583.614
610.072
593.928
383.126
505.61
115.25
568.861
608.808
299.223
627.317
288.488
86.0099
596.386
220.193
577.191
584.607
199.725
106.069
105.802
66.7051
551.22
73.6778
625.781
40.6883
34.4719
480.832
607.015
154.762
523.576
535.717
84.231
247.149
588.399
89.3815
604.879
467.443
444.27
607.027
477.326
81.3062
147.975
588.994
587.456
627.61
563.178
584.359
518.631
419.3
608.14
296.623
589.967
591.983
520.801
626.9
226.77
597.126
610.738
160.338
611.129
566.568
240.544
542.659
565.451
598.32
589.179
411.215
588.267
110.6
535.157
592.142
547.405
598.63
627.917
38.4309
626.912
28.5084
442.94
567.134
32.5062
610.337
471.942
588.509
150.767
542.547
308.5
148.929
596.223
220.745
618.48
96.3502
587.903
568.038
35.5797
205.597
597.209
582.426
547.572
613.448
598.863
122.974
27.6586
610.407
613.674
618.295
266.548
323.732
390.06
610.224
363.816
566.452
588.903
530.923
115.851
600.157
469.431
360.153
602.298
281.45
591.044
483.168
600.776
615.82
513.682
593.649
442.429
604.429
29.3017
596.252
533.618
440.799
332.834
465.071
605.995
598.297
145.344
343.802
541.639
606.273
599.581
579.488
26.4381
213.941
611.046
597.175
568.082
583
587.964
594.793
600.778
99.3829
597.417
593.219
143.771
610.971
364.244
358.683
53.1052
511.133
119.43
27.9968
594.515
598.882
591.17
610.298
599.339
612.435
608.212
564.068
234.824
597.85
358.553
576.706
599.609
477.537
491.933
399.991
593.411
565.615
615.836
26.8561
62.4007
79.2044
592.454
434.51
441.585
287.04
26.4362
228.127
583.674
605.379
622.976
49.9158
578.63
624.488
405.438
148.802
595.443
129.813
177.374
596.935
596.579
597.893
601.998
589.504
590.021
473.915
590.718
578.173
73.0554
27.0943
591.932
115.528
523.146
573.812
602.666
609.766
613.731
580.864
573.998
599.96
572.229
591.646
577.5
37.4668
490.293
601.716
600.748
95.8019
588.023
624.69
74.3275
599.336
461.522
506.555
594.717
607.058
613.745
591.046
511.956
600.607
117.342
396.261
420.94
155.667
570.164
550.515
625.759
347.791
567.984
602.563
605.083
335.935
580.396
61.835
108.927
612.393
501.593
624.652
585.573
492.497
571.802
601.514
339.303
600.296
608.431
124.503
607.742
599.393
607.281
39.459
599.986
575.033
478.147
64.6448
138.689
346.604
88.3936
603.083
627.295
595.058
240.929
587.782
604.911
533.449
616.405
137.204
576.584
582.723
58.957
595.987
543.794
121.539
627.303
590.461
73.5615
591.212
36.65
87.0312
611.983
591.704
294.66
609.595
532.665
116.979
618.864
102.7
597.069
601.876
590.61
479.963
572.575
82.2043
578.963
600.96
460.92
142.771
511.305
518.186
363.538
26.3492
60.403
629.004
26.4857
594.374
42.3761
73.3727
609.917
526.469
576.817
107.781
608.601
155.051
608.076
58.9907
602.191
610.157
627.909
594.66
60.7311
172.224
597.026
275.887
594.762
599.803
96.6393
594.002
284.103
607.392
524.324
602.094
607.447
600.731
608.484
365.885
502.108
565.837
465.342
586.242
594.072
173.586
597.681
81.887
599.81
136.605
509.531
143.135
614.132
612.231
599.915
27.5044
598.863
88.3927
501.855
604.532
528.339
597.674
610.818
582.336
608.379
186.536
597.257
584.905
594.844
545.38
101.274
266.799
588.899
606.712
572.559
588.441
597.266
578.509
580.749
594.774
617.165
615.584
556.134
520.582
595.528
616.808
275.446
599.332
54.8035
67.4495
565.737
25.9771
582.91
615.095
609.988
544.504
606.197
616.296
463.842
136.995
650.896
289.904
30.668
34.8553
585.696
581.036
592.519
115.76
616.626
595.754
488.22
321.067
602.031
609.756
27.9704
545.466
559.605
573.166
525.102
640.05
590.14
537.647
594.965
565.588
551.084
572.651
580.064
93.4413
578.328
593.611
123.388
627.901
604.325
596.467
551.595
572.657
101.406
450.278
130.737
117.591
282.534
103.428
572.448
232.029
113.25
587.911
566.964
591.142
592.472
549.978
599.642
410.098
331.416
592.892
618.923
568.198
547.079
103.361
603.983
580.457
598.812
340.332
471.29
477.756
30.7425
597.214
598.762
402.806
502.065
598.876
334.685
579.12
522.388
102.708
365.005
561.713
590.89
592.174
568.959
611.69
124.876
367.245
27.2045
339.975
100.064
581.407
26.0031
30.0128
30.1909
599.864
51.2655
537.986
170.419
415.91
556.985
630.414
595.269
588.875
569.502
606.743
597.413
359.034
47.6666
58.128
109.307
521.089
176.89
488.207
540.205
594.03
39.3085
384.932
606.862
474.864
217.396
27.1319
28.7755
446.624
440.462
627.032
35.308
574.881
132.962
138.349
588.589
554.37
419.959
590.727
591.653
103.646
333.671
564.556
579.299
604.73
586.34
133.731
567.252
109.637
566.008
98.1586
204.423
579.852
324.101
441.619
33.3808
627.004
485.124
30.317
484.778
597.569
88.9249
99.2012
596.272
598.839
139.911
558.062
589.518
63.4212
294.45
604.297
505.199
286.007
483.205
560.512
554.748
144.713
584.377
609.575
602.397
346.895
607.782
282.069
615.2
610.082
96.0219
572.452
597.376
329.229
627.924
526.094
614.28
600.178
603.067
574.786
603.878
114.138
603.279
166.428
27.0848
520.224
612.384
607.491
29.1943
501.46
607.013
121.542
459.289
53.5581
617.767
615.34
612.092
608.69
594.443
623.479
600.331
590.069
594.702
193.199
623.826
102.339
592.003
614.236
576.504
37.8686
31.2395
93.6193
32.2265
91.0574
339.995
29.9329
575.823
476.993
458.426
27.785
602.458
282.72
185.544
428.407
594.117
100.552
599.316
597.245
599.27
506.816
207.329
277.34
589.549
629.946
615.872
620.852
561.472
597.916
28.7957
411.611
459.482
583.568
595.885
624.002
32.3246
185.285
598.628
584.215
69.3788
620.623
595.409
617.218
595.499
602.174
599.735
613.987
289.22
537.502
318.665
563.842
578.757
787.667
600.292
81.6232
582.521
504.565
204.644
312.141
492.03
357.254
35.2701
583.306
566.669
582.596
595.313
614.018
602.361
616.607
442.927
527.18
638.023
614.357
603.611
442.099
90.467
628.661
487.429
305.619
597.221
100.4
588.064
582.101
29.2645
567.837
605.167
596.552
547.432
612.852
610.52
88.6983
432.518
565.101
600.496
589.507
32.8396
543.424
33.2261
362.97
594.929
602.881
316.335
456.309
517.175
542.743
487.047
574.772
606.141
591.675
391.583
434.831
35.0753
116.639
473.793
97.6518
333.562
609.408
86.9367
177.495
545.445
32.2642
593.83
576.238
420.161
113.833
486.54
467.293
559.268
126.915
599.415
624.496
27.4865
583.334
595.999
596.587
590.773
625.918
570.902
602.317
594.626
28.0253
78.3312
599.572
567.664
299.81
126.234
627.314
411.679
445.98
461.708
587.971
601.079
32.4999
592.183
406.18
419.136
610.684
519.143
28.2324
601.885
137.054
124.316
31.5496
571.206
604.343
593.588
600.833
596.658
107.416
65.2596
614.296
308.185
119.694
584.856
582
597.713
91.5261
31.4481
817.292
438.495
539.548
29.5583
111.607
610.422
601.205
500.806
477.828
241.191
127.008
608.184
333.251
103.774
585.38
604.69
582.327
591.639
602.412
564.561
611.079
369.319
331.553
587.605
581.998
465.33
610.271
600.675
593.667
98.1082
611.355
577.721
28.6537
413.993
580.967
534.898
597.982
596.791
564.256
615.512
599.204
580.118
311.962
546.98
552.201
596.41
616.5
66.2901
515.593
593.676
339.599
609.271
545.815
561.443
57.473
534.454
523.265
544.689
400.978
627.269
75.8336
43.7007
610.926
425.776
128.546
587.598
547.873
100.917
424.528
576.149
135.862
522.727
595.512
97.889
632.357
245.157
608.915
158.967
582.337
624.326
409.181
472.426
575.758
709.517
264.178
123.303
496.381
749.34
610.966
44.9
103.41
424.95
360.989
587.486
215.303
587.848
601.82
454.137
563.293
307.785
98.1548
575.166
35.3762
170.442
27.1784
484.568
408.956
628.766
600.341
529.494
629.363
60.1514
229.544
29.228
288.043
338.472
119.098
60.566
599.394
579.124
250.738
434.77
587.825
596.501
490.752
601.416
494.078
594.075
580.955
669.207
596.205
409.635
99.6482
626.037
26.5796
614.733
28.1273
416.523
48.7025
560.047
103.266
569.091
602.248
550.315
28.6959
442.549
114.402
592.116
596.525
292.913
45.1302
573.698
571.695
376.244
45.5873
71.5245
606.36
587.285
137.448
629.216
613.689
518.289
593.637
595.418
607.042
596.987
527.674
597.458
568.534
567.888
609.287
79.7257
27.6503
543.283
618.752
594.509
685.682
595.227
595.177
586.932
595.868
602.493
574.176
557.194
396.761
126.515
604.893
591.165
450.493
506.427
574.291
394.986
606.376
594.076
380.588
419.169
570.907
105.766
68.8442
595.212
46.9769
579.419
380.221
93.2117
270.542
25.8955
588.309
599.547
78.9934
548.045
68.1355
625.651
105.244
28.127
612.814
496.427
598.98
397.874
388.303
26.5397
602.3
587.697
400.825
579.909
108.596
612.734
122.877
219.169
451.462
50.255
28.095
609.233
605.244
589.226
413.219
140.997
567.681
577.964
579.927
618.591
583.713
608.804
615.889
322.196
570.013
616.38
539.902
68.16
205.316
33.3185
583.674
403.997
546.074
534.212
596.136
214.655
28.4544
619.06
492.87
627.395
477.313
608.39
435.506
109.081
590.011
364.309
615.697
132.11
157.383
615.878
549.642
585.677
580.07
33.5618
588.639
587.011
568.555
579.137
611.514
547.65
594.322
591.723
598.402
600.05
69.3148
95.4153
46.1881
620.207
627.341
625.905
617.938
624.813
578.191
625.205
611.275
593.224
605.256
488.47
599.055
284.913
45.0443
479.445
277.825
581.092
101.983
685
739.421
610.579
109.495
592.126
588.729
587.222
397.602
409.799
603.433
497.698
567.082
595.083
564.941
89.0256
584.285
605.384
546.632
137.958
598.06
229.256
603.308
597.706
586.935
545.507
488.767
98.8301
581.403
616.341
49.0797
585.358
635.769
599.537
584.759
28.6073
610.232
575.846
511.539
61.3887
626.24
601.099
614.678
572.105
578.634
96.5337
587.215
534.222
477.422
28.0453
611.698
615.537
627.25
468.608
618.741
74.3192
132.517
575.353
128.461
595.554
47.9733
586.152
611.807
527.179
440.955
418.161
126.677
438.373
531.441
574.118
473.859
581.74
297.72
587.019
556.703
298.206
573.536
117.504
135.184
140.459
103.323
127.216
92.8037
121.825
507.767
590.214
611.653
587.746
616.125
599.913
30.3023
40.8603
127.794
540.436
534.543
125.179
602.713
563.355
615.519
439.779
597.36
624.723
584.047
489.676
46.8236
586.718
482.412
615.212
551.32
191.377
617.072
481.596
59.2138
629.153
528.244
612.305
30.3872
596.108
71.4026
580.65
580.822
554.062
624.761
179.589
614.156
128.442
555.597
587.762
587.358
603.326
616.545
593.538
144.742
26.6473
475.363
608.965
535.747
548.682
591.072
592.619
414.394
123.436
170.372
599.729
133.402
612.881
508.205
550.896
481.321
338.08
130.419
102.624
624.16
588.977
602.062
595.616
586.433
596.508
29.0715
591.409
597.959
570.347
574.249
598.6
34.0723
26.1873
121.588
587.507
517.626
616.74
101.069
73.0417
591.196
123.91
528.527
495.385
607.664
563.517
508.429
523.757
399.567
116.821
386.39
602.008
514.75
549.35
595.509
84.1787
532.63
75.7685
577.041
35.6604
228.094
121.827
553.199
272.441
524.36
596.245
618.149
563.346
474.794
594.84
106.865
577.23
403.048
599.75
533.677
383.265
139.471
92.4989
513.234
557.77
47.0828
359.526
569.427
555.327
99.0067
462.65
336.134
500.379
506.755
386.253
623.55
128.808
488.7
588.618
208.588
112.351
88.5354
533.09
436.912
551.486
615.536
431.361
588.843
570.609
615.743
32.6041
28.0286
94.3151
99.2574
588.693
319.893
526.409
390.739
99.0787
27.0618
548.38
594.343
602.57
523.648
623.162
599.605
237.456
599.644
612.266
563.682
593.097
625.185
559.851
81.5148
545.261
597.508
586.605
492.232
582.574
599.496
602.174
615.77
230.855
505.713
375.028
585.692
593.231
624.815
334.161
410.12
330.959
576.932
574.965
444.454
602.46
518.505
86.0105
262.851
570.864
550.738
616.495
495.052
94.9494
112.889
116.749
508.939
616.081
611.533
514.952
513.815
25.6934
614.737
139.085
624.685
600.851
380.588
606.359
100.454
382.555
126.006
624.665
466.83
474.828
33.9326
616.077
597.573
392.366
124.609
94.2149
129.463
31.5493
598.725
658.629
501.513
630.757
29.3899
584.752
603.908
593.179
619.893
307.738
33.5866
526.04
41.6121
618.027
603.738
580.998
368.169
393.113
39.5056
601.503
565.349
454.676
73.0722
616.93
122.588
591.698
588.846
35.1774
604.784
59.8623
133.414
103.185
52.6501
599.845
541.739
546.084
27.1789
566.679
586.584
34.3342
286.745
629.516
545.55
244.762
615.274
31.5909
44.1113
506.746
627.16
537.999
519.009
30.6382
612.403
478.365
568.428
57.258
27.2855
593.657
617.873
535.339
576.516
602.152
601.107
603.679
441.157
534.441
80.3804
587.683
591.652
585.702
563.836
552.781
552.749
106.646
105.559
145.377
573.353
617.12
191.387
514.198
506.554
224.272
550.894
95.2752
39.8491
617.263
102.8
285.588
553.118
607.032
602.305
600.507
198.357
119.943
586.341
31.9318
81.7401
26.2887
626.03
612.425
63.9612
603.614
581.579
560.964
602.003
740.951
580.443
29.6534
123.098
610.884
357.231
548.416
118.485
259.451
594.72
552.825
533.542
57.8854
272.457
288.289
579.102
600.877
420.717
615.285
133.552
83.3117
602.939
305.788
615.931
28.1679
604.056
120.801
550.625
292.349
298.12
28.5129
33.3123
620.08
62.9731
26.1034
567.959
26.4854
564.779
623.079
594.033
500.227
536.245
585.019
601.907
577.532
460.396
415.855
33.7368
418.869
572.362
579.429
390.691
617.464
595.952
86.3422
172.91
96.8638
559.515
548.734
552.045
601.701
548.446
599.953
31.7394
77.7715
26.0058
605.319
590.037
442.044
247.168
598.377
615.608
559.311
565.791
457.762
591.172
125.049
588.537
31.2454
612.785
249.348
80.1962
224.285
620.027
597.995
587.456
615.667
398.53
78.2588
602.485
562.817
28.4913
589.828
413.287
130.796
587.109
109.486
582.579
101.743
474.904
439.636
617.298
607.203
43.8843
607.172
128.102
548.705
491.04
35.2289
554.738
600.199
555.293
599.819
108.442
26.9916
615.7
132.203
554.833
269.556
595.762
364.391
172.393
487.036
499.976
591.057
30.6171
622.494
28.2838
617.482
593.019
525.266
589.893
609.701
506.939
528.177
601.913
112.972
614.985
445.053
512.62
126.507
555.865
608.562
568.849
602.336
601.926
545.202
30.2828
166.354
108.179
65.7211
615.971
600.918
598.481
603.733
618.716
218.699
624.731
541.103
727.79
574.32
346.19
602.941
615.904
25.7692
126.088
587.28
511.353
560.352
263.626
599.163
560.875
103.331
602.303
181.363
381.539
564.02
551.047
63.3065
581.186
411.513
209.366
417.62
529.415
569.201
510.181
56.3105
596.951
79.1292
131.902
99.6107
27.4271
617.616
588.745
595.654
161.331
138.093
288.426
33.639
620.382
73.2239
616.234
30.8559
593.932
434.853
407.333
569.283
595.622
596.574
504.296
567.102
573.606
381.058
529.344
603.981
104.011
571.907
566.296
600.737
234.158
489.591
95.7135
504.576
532.332
27.8469
534.025
357.855
615.956
596.193
32.9963
29.8784
142.507
605.879
580.73
34.1715
358.953
411.701
197.873
142.646
106.964
616.234
85.8741
611.939
458.136
262.514
599.472
598.961
584.626
25.7968
396.711
123.695
414.163
599.192
598.483
587.797
132.173
613.96
151.956
444.358
101.157
618.647
27.1829
34.8348
126.751
102.784
555.124
588.977
599.443
525.745
587.621
592.402
29.4957
598.458
547.827
31.6593
127.199
127.962
571.95
496.268
608.745
26.6022
562.19
31.1011
459.188
238.918
576.142
597.894
64.9486
596.29
595.793
32.5725
159.424
479.939
555.614
445.288
605.066
482.937
603.315
371.122
601.143
562.417
99.6765
557.797
596.286
613.001
32.8753
227.771
608.7
475.648
26.3983
516.508
617.648
27.0198
34.6815
26.9027
603.622
578.652
68.9748
39.0608
36.0254
579.161
596.449
588.072
507.052
569.745
609.76
331.744
603.795
37.6291
579.495
353.919
620.149
42.8427
292.378
585.24
92.5709
126.47
612.218
393.946
160.142
605.251
570.12
588.998
26.7812
31.6869
603.29
30.5073
435.603
594.704
26.4971
541.019
403.819
27.024
25.7027
597.264
28.1644
600.164
617.184
29.5766
467.06
103.491
58.9055
555.03
31.9238
145.12
507.363
235.027
36.8043
30.7931
558.643
621.386
597.318
542.458
112.016
284.224
40.7524
212.512
538.255
621.574
603.225
555.595
127.913
597.857
93.6799
113.781
616.146
549.532
30.2442
409.663
330.618
101.127
593.513
31.0468
99.0904
225.116
547.19
556.306
192.735
587.974
577.062
578.828
557.492
222.364
28.3323
597.806
401.897
62.9165
435.11
496.473
127.149
736.283
42.1685
597.359
89.509
30.2604
446.014
556.667
613.548
568.121
568.839
171.867
586.54
31.9549
583.778
591.324
27.7417
60.5086
617.83
597.043
140.628
117.764
592.78
611.564
539.246
497.183
393.081
542.111
612.791
581.199
565.326
93.1916
186.241
96.6744
591.03
387.394
37.1604
96.9199
594.298
150.399
722.666
165.656
619.534
543.563
33.4453
544.284
388.924
35.2014
603.724
536.493
574.839
417.746
421.227
73.2065
409.691
563.454
602.573
437.559
98.4521
591.115
436.786
116.986
622.534
609.786
44.0591
61.3241
382.219
544.095
591.222
579.329
514.629
432.459
273.062
590.245
612.626
590.433
121.818
827.054
605.722
110.659
128.558
578.464
27.8658
37.0185
617.397
36.4843
49.4024
28.0713
27.0844
609.493
139.191
396.032
576.029
571.545
55.1942
107.494
32.3931
550.938
590.904
500.041
41.739
563.567
76.0205
626.466
590.807
37.6604
99.3556
478.133
79.9717
520.825
595.455
137.971
92.3173
425.292
118.899
425.686
423.084
588.714
591.056
533.99
101.876
27.2
108.164
372.338
113.633
87.9428
471.095
603.137
568.213
505.9
228.348
614.495
511.284
168.786
595.693
520.435
272.402
27.7049
579.671
587.555
137.9
586.234
566.881
552.11
380.305
473.498
537.844
615.707
590.812
115.019
95.3553
564.292
83.5572
111.495
382.463
577.255
125.532
599.345
26.1715
373.481
31.106
593.818
406.429
620.521
591.765
81.14
174
114.33
615.786
600.88
145.602
232.871
269.938
569.675
545.121
159.628
535.723
593.859
601.895
206.631
101.744
436.64
508.317
25.7575
616.391
569.751
325.676
456.195
595.781
139.335
595.574
583.645
559.91
584.441
223.578
672.791
629.696
406.945
603.631
490.262
161.147
580.261
509.848
28.7226
647.092
774.904
580.435
26.0933
584.453
431.341
609.837
431.608
494.676
509.5
579.955
394.023
420.83
328.534
133.406
597.693
617.998
111.771
414.778
453.015
49.5581
530.456
31.3732
603.019
502.893
405.357
121.298
616.197
122.784
425.651
404.64
551.376
570.22
558.905
572.506
558.877
554.942
554.774
599.405
421.735
25.8673
279.694
503.175
595.504
28.8168
251.313
599.513
470.093
558.657
570.608
59.4816
110.863
616.002
25.9633
596.566
92.5135
375.585
380.358
561.555
574.085
559.652
615.059
579.774
127.247
111.328
455.888
96.0037
542.343
586.555
561.71
218.657
585.966
556.964
563.952
569.382
422.003
548.614
512.795
440.936
272.797
407.015
26.8381
500.067
361.752
437.27
93.0251
451.754
545.468
600.942
509.06
397.317
96.5657
49.0795
601.998
27.9402
98.5987
120.798
405.73
276.689
26.6303
34.1539
626.499
388.084
520.17
393.58
484.871
211.515
597.454
95.5476
440.096
392.78
601.02
573.037
564.248
347.496
588.553
598.039
502.46
498.879
605.248
568.878
26.5875
607.719
297.465
400.073
321.816
571.973
115.236
391.375
594.399
607.176
26.1684
538.365
605.2
596.166
179.389
29.7478
370.157
592.719
516.155
221.85
135.486
439.549
603.374
354.013
355.852
514.032
532.251
606.766
46.6829
607.116
28.5141
124.588
417.177
312.485
378.94
617.289
558.377
101.719
581.725
591.658
597.518
576.091
50.5889
71.938
219.729
614.085
25.8756
470.617
128.033
594.086
482.037
506.592
398.333
591.094
396.92
95.4461
375.762
508.305
607.238
520.608
492.278
439.047
618.446
557.473
593.625
584.613
37.8008
35.4747
299.421
415.322
554.729
628.14
289.319
140.698
243.147
523.514
594.299
591.812
570.896
386.739
609.35
55.364
593.259
36.5021
618.576
26.7062
582.213
129.437
115.05
247.622
341.06
628.333
85.2111
616.843
361.541
200.229
583.497
612.131
278.755
345.703
551.195
371.721
640.201
410.389
620.299
578.223
615.73
117.818
303.453
29.6123
25.8217
585.383
111.886
602.289
579.072
315.982
618.845
600.054
597.948
601.026
369.147
567.079
530.173
573.077
602.6
601.237
553.156
509.144
583.817
514.88
517.906
557.963
102.829
576.157
491.617
212.843
609.257
526.628
594.176
615.156
516.748
264.01
104.002
512.801
615.132
603.85
523.626
624.824
468.784
455.542
619.993
27.183
47.1577
211.042
555.55
485.039
457.267
604.017
141.793
576.543
576.832
237.38
240.411
581.045
131.938
251.455
105.664
381.569
437.147
553.428
611.934
624.576
111.47
251.328
95.1821
566.172
597.294
245.599
580.894
547.803
624.63
278.412
618.159
510.26
591.151
596.703
469.091
26.8836
601.677
622.315
507.394
37.5755
85.1124
615.197
504.764
564.895
310.328
96.8788
502.646
36.3099
241.23
119.239
331.349
149.326
416.233
381.119
252.924
571.972
365.794
135.052
536.756
596.863
360.669
560.669
512.752
580.683
537.038
562.799
200.516
28.9095
436.231
412.191
29.1564
384.675
526.073
624.32
617.741
258.719
448.222
164.111
526.506
611.387
501.866
451.979
388.273
105.078
586.835
66.5741
590.209
317.051
624.992
602.499
87.5488
154.564
31.475
115.939
566.018
577.686
209.422
290.239
622.054
27.6164
318.569
45.6235
467.864
147.764
401.741
384.342
256.174
73.2912
87.3588
458.32
509.245
605.847
535.219
586.246
582.008
498.975
446.515
602.706
499.229
624.626
595.637
616.592
567.382
34.5492
531.137
248.915
391.731
28.9919
544.703
595.867
533.135
593.144
578.344
195.312
443.105
596.392
523.454
594.129
28.9227
488.073
583.532
476.016
507.246
32.3131
125.999
156.751
575.602
501.594
566.397
27.0206
398.396
47.6182
29.4637
57.7787
605.351
117.071
38.6982
61.7241
576.398
34.669
559.564
570.616
592.334
575.447
556.215
615.71
97.1243
551.344
215.813
521.175
135.123
566.942
36.9687
586.733
114.53
566.19
74.1512
315.545
590.741
27.8555
33.0884
597.623
196.168
584.596
515.816
582.917
549.438
609.618
543.105
30.9777
668.631
418.682
317.606
429.758
512.081
578.165
452.802
166.389
601.511
549.544
102.95
472.729
178.417
531.624
269.031
593.592
48.397
593.332
541.777
33.057
408.89
191.495
616.704
587.271
66.7827
115.805
572.759
600.201
462.741
29.6349
73.01
552.342
542.248
566.027
518.43
585.386
30.2355
29.9626
35.7769
26.4254
618.136
468.084
443.088
86.2153
451.808
572.641
581.741
591.888
489.162
624.042
384.115
587.349
91.0266
59.8681
502.03
577.434
583.062
35.1442
494.721
545.686
114.092
580.365
579.724
275.808
33.9725
42.0667
555.99
42.4416
552.141
219.369
475.593
597.833
291.458
176.598
554.643
480.627
660.292
555.11
666.62
75.9234
527.879
387.866
577.681
487.724
578.841
201.172
598.464
285.375
304.245
51.3982
605.118
262.74
27.5701
127.244
245.321
555.952
488.053
508.525
575.813
37.8408
26.2919
62.2739
568.207
88.761
582.18
70.6083
598.823
595.632
567.771
60.2557
548.462
500.891
122.023
60.6284
594.304
530.698
477.036
596.225
360.591
604.699
114.801
543.95
593.801
304.542
262.244
535.152
515.717
529.465
400.935
436.349
577.04
59.1503
600.311
244.458
375.042
595.681
295.59
524.443
587.906
357.139
528.058
66.9594
575.792
583.582
617.195
604.289
64.6383
561.932
116.412
578.477
597.759
608.52
126.927
71.4436
410.429
479.125
578.355
560.176
591.259
709.759
583.333
490.768
569.177
347.561
559.361
611.144
536.277
268.388
571.283
599.028
596.58
530.806
582.362
587.013
589.675
85.609
618.931
31.7139
550.148
615.136
158.196
479.011
583.582
70.2781
592.58
586.882
136.196
600.83
543.685
497.62
79.0644
78.1136
398.082
401.386
46.5258
526.571
487.194
530.1
596.191
39.1077
684.852
532.524
555.379
594.361
80.149
169.046
343.553
572.949
536.552
607.616
543.265
590.778
567.439
458.1
378.232
514.851
294.234
38.1765
144.402
591.451
378.399
597.013
530.444
614.003
516.812
595.916
593.774
594.75
290.068
607.951
30.6254
533.608
356.566
600.7
28.3942
578.64
591.832
589.196
546.973
242.724
83.8043
467.856
288.56
553.384
486.003
112.919
599.502
593.324
30.3647
66.7891
572.192
593.353
599.183
597.924
611.857
101.015
72.6272
528.201
602.236
97.2537
593.733
600.801
454.515
572.916
357.912
558.715
256.63
489.73
204.575
187.359
285.613
59.923
354.918
225.595
542.62
612.059
464.319
583.177
496.632
45.7807
590.988
581.137
417.075
423.36
602.024
591.57
64.715
580.335
597.154
600.622
570.612
588.576
589.477
532.721
27.3712
576.121
583.121
512.183
596.987
453.573
569.732
216.037
567.79
137.403
604.18
529.707
600.12
64.5595
37.9051
593.99
53.2465
476.396
137.852
76.7747
608.785
576.505
582.164
438.486
505.808
608.496
591.744
93.9359
523.613
232.028
571.671
604.896
590.264
536.563
570.259
571.428
298.65
409.261
80.5591
603.774
579.481
175.445
597.647
609.475
571.485
570.954
605.272
551.077
571.787
37.6889
596.896
331.795
601.944
542.575
597.718
577.066
543.691
62.7711
533.694
585.678
594.546
570.732
578.128
567.358
39.3487
595.398
267.05
569.534
223.682
373.138
587.607
109.027
599.084
592.745
31.6977
577.434
553.23
205.199
69.7158
587.761
596.523
579.297
586.797
508.887
587.673
70.5698
597.654
601.282
554.386
410.871
595.312
589.747
612.337
593.794
603.621
45.1313
598.625
574.87
575.033
562.213
585.846
36.0685
431.36
62.6517
590.982
410.548
552.751
274.262
583.663
605.533
61.954
556.776
102.024
234.674
134.439
404.618
273.006
398.112
424.42
422.808
80.7374
79.6363
101.9
594.877
584.455
82.9802
555.76
590.855
69.5
143.431
598.076
580.079
602.32
605.784
595.693
604.406
533.767
333.559
602.011
545.281
581.044