/*--------------------------------*- C++ -*----------------------------------*\
| =========                 |                                                 |
| \\      /  F ield         | OpenFOAM: The Open Source CFD Toolbox           |
|  \\    /   O peration     | Version:  v2012                                 |
|   \\  /    A nd           | Website:  www.openfoam.com                      |
|    \\/     M anipulation  |                                                 |
\*---------------------------------------------------------------------------*/
FoamFile
{
    version     2.0;
    format      ascii;
    class       volVectorField;
    location    "200";
    object      U;
}
// * * * * * * * * * * * * * * * * * * * * * * * * * * * * * * * * * * * * * //

dimensions      [0 1 -1 0 0 0 0];


internalField   nonuniform List<vector> 
18758
(
(1.0257 -0.000618714 0)
(1.06647 -0.0159074 0)
(1.00429 6.90846e-06 1.24506e-21)
(1.02564 -0.000662157 6.114e-22)
(1.00177 -0.00109828 1.91426e-22)
(1.00722 9.19422e-05 -4.88238e-23)
(1.01609 -0.00490943 3.93387e-22)
(1.02345 -0.0180812 0)
(1.00304 -0.0030184 0)
(1.00364 -0.00512317 -1.60649e-21)
(1.0528 -0.0368211 1.18215e-22)
(0.901243 -0.205949 -3.31488e-21)
(0.948285 -0.0237541 0)
(1.03536 -0.0157811 0)
(1.01554 -0.00465394 -8.53785e-23)
(1.01289 -0.00201139 6.39403e-22)
(0.890923 -0.200268 3.62194e-22)
(1.01158 0.00076579 -2.2214e-23)
(1.01536 -0.00440049 0)
(1.01692 -0.0106916 -2.66582e-21)
(1.08897 -0.0055641 -2.57511e-21)
(1.13186 -0.012671 1.04056e-20)
(1.00687 6.91454e-05 -9.68921e-23)
(1.00692 0.000117839 -2.18796e-22)
(1.09566 -0.0115478 -6.07937e-21)
(1.1853 -0.117151 1.23989e-20)
(0.801666 -0.070292 -1.42241e-20)
(0.974262 -0.121397 1.86097e-21)
(1.0841 -0.0898837 0)
(1.06742 -0.00518908 1.40247e-21)
(0.824024 0.319961 -7.15692e-21)
(0.800496 -0.10723 -6.31688e-21)
(1.02333 -0.0174322 -8.12346e-22)
(0.856445 0.0106208 -2.64937e-22)
(1.00245 0.00383916 -1.94555e-21)
(1.06603 -0.02351 0)
(0.947258 -0.0255713 0)
(1.00289 0.00209484 -1.9211e-22)
(0.896599 -0.305641 0)
(1.0145 0.00229048 -4.99512e-23)
(0.91614 -0.15218 6.39761e-22)
(1.00237 -0.00726382 -8.03912e-22)
(0.950297 -0.104353 -2.03217e-22)
(1.01097 -0.000595753 0)
(1.0102 -0.000664063 0)
(0.792211 0.289824 0)
(1.00392 -0.00851888 1.86846e-21)
(1.07422 -0.0969937 -2.49881e-21)
(-0.0120179 0.166552 -3.49878e-20)
(1.02245 -0.00748983 6.31812e-22)
(1.05193 -0.0440891 0)
(0.610277 0.0219007 1.91749e-20)
(1.02164 -0.00773716 -7.41808e-22)
(1.01641 -0.0125448 -4.08419e-22)
(1.12871 -0.0463529 2.87861e-23)
(0.954943 -0.0126195 3.68011e-21)
(1.01209 0.0011452 7.03962e-22)
(1.01728 -0.0106855 2.60637e-21)
(1.06685 -0.093638 4.61414e-21)
(1.01212 0.00112849 -6.1636e-22)
(1.00968 -0.000604181 0)
(1.01089 -0.000481035 -4.73738e-22)
(0.760899 0.184131 -2.22488e-21)
(0.835628 -0.265431 -6.33555e-23)
(1.0095 -0.00060135 0)
(0.583443 0.0294901 -9.37464e-21)
(1.00683 -0.000200852 0)
(1.01105 0.00070003 3.74261e-22)
(0.968586 -0.125193 1.06974e-22)
(1.01164 0.000799714 1.78168e-23)
(0.563368 0.0366674 -3.94238e-20)
(1.137 -0.114826 8.44854e-21)
(1.01382 -0.00472127 -1.56068e-23)
(1.01146 -0.0117277 -1.32447e-21)
(0.969452 0.0293803 8.18561e-21)
(0.795415 0.315673 1.40515e-20)
(0.867416 0.310252 -1.28191e-20)
(0.867913 -0.154031 0)
(1.00243 -0.00427701 0)
(0.943711 -0.100244 5.00788e-22)
(1.10677 -0.0614467 -1.33022e-20)
(0.889379 -0.300482 6.97568e-21)
(0.881035 -0.161942 0)
(0.987324 0.00484761 -4.26722e-22)
(1.01221 -0.00308279 -1.16542e-21)
(1.12072 -0.048825 2.70335e-20)
(1.05562 -0.0184379 0)
(1.01058 -0.0105285 1.878e-21)
(0.772795 0.168085 -8.54128e-21)
(1.11792 -0.0489692 -1.68535e-20)
(0.226277 0.230112 1.03053e-20)
(1.00975 -0.000425948 -4.07425e-22)
(1.09595 -0.0542905 0)
(-0.0134855 0.156877 2.59703e-20)
(1.01372 -0.00449329 6.53232e-22)
(1.00859 -0.000697278 1.89359e-21)
(1.01312 0.0013509 1.43029e-22)
(1.07019 -0.0689412 -1.65462e-20)
(0.860078 -0.170127 -1.55841e-21)
(1.01161 -0.00358725 0)
(0.782048 0.279152 0)
(1.01894 -0.00422452 -1.74394e-21)
(1.01109 0.00068013 3.57418e-22)
(1.00857 -0.000687926 -2.16157e-21)
(0.591145 0.0362879 -6.08061e-21)
(1.08867 0.0143833 -2.91229e-21)
(1.07814 -0.0969402 -2.992e-21)
(0.241167 0.217715 0)
(0.906007 0.288562 -6.81646e-21)
(1.09223 -0.109823 -6.86006e-21)
(1.01331 -0.00196586 0)
(0.816112 -0.286455 2.21907e-22)
(1.01456 -0.0104761 1.54779e-21)
(1.00573 -2.93531e-05 -1.20852e-23)
(1.01956 -0.00505025 -3.37556e-21)
(0.938255 -0.200235 2.38727e-22)
(1.06746 -0.0693695 7.78733e-21)
(1.0123 0.000874367 5.4365e-22)
(0.939763 -0.240269 0)
(1.01373 -0.00408141 0)
(1.00613 -3.65054e-05 7.26968e-22)
(0.863901 0.313824 7.51545e-21)
(1.01273 -0.00344092 1.16651e-21)
(1.01023 0.000127979 0)
(0.1409 0.199022 8.08098e-21)
(1.01686 -0.0129878 4.28669e-22)
(1.01151 -0.000555852 9.06258e-22)
(1.01021 0.000131859 -4.13114e-22)
(1.11567 -0.117742 -4.29764e-22)
(0.0984661 0.108023 -6.42664e-20)
(1.0702 -0.0915231 2.75101e-21)
(1.00703 -0.000274642 0)
(1.02086 -0.0353869 0)
(0.296695 0.155313 5.54537e-21)
(1.0149 0.00223543 0)
(1.0063 -0.000116769 -1.29254e-21)
(0.854331 0.261528 -1.60709e-21)
(1.01373 -0.00276357 2.45114e-22)
(1.02328 -0.165537 2.37032e-21)
(1.10508 -0.064691 1.12341e-20)
(1.01317 -0.0129825 1.47632e-21)
(0.956908 -0.154928 2.63994e-21)
(1.0701 -0.0544936 -5.46617e-21)
(0.890935 0.295864 0)
(0.157943 0.195417 2.32798e-21)
(1.08536 -0.0445319 0)
(0.531891 0.0504655 4.95171e-22)
(1.10985 -0.106869 -1.80556e-20)
(1.05803 -0.0297119 -1.20268e-22)
(1.03356 -0.3646 1.5026e-20)
(0.208128 0.150813 -5.68422e-20)
(-0.0166239 0.0777347 6.57379e-20)
(1.02599 -0.00407269 9.10151e-22)
(1.00492 0.00608057 1.36907e-23)
(0.911304 -0.160727 -7.5512e-22)
(0.757915 -0.196354 0)
(1.09459 -0.0552583 0)
(1.11985 -0.119608 1.21775e-20)
(0.993517 0.0127348 1.60319e-21)
(1.06201 -0.0263762 0)
(0.395736 -0.00175681 -1.11025e-20)
(1.01094 0.000306801 2.48209e-22)
(-0.0346376 0.066576 1.845e-20)
(0.535682 0.0560295 -4.65745e-21)
(0.793417 0.228453 2.75421e-21)
(1.01334 0.00169251 0)
(1.01095 0.000311344 -3.61259e-22)
(0.484891 -0.0372942 2.43381e-20)
(0.131955 0.128201 5.62106e-20)
(0.909458 -0.222429 7.69426e-21)
(-0.0540056 0.0584606 -1.66175e-20)
(1.00347 1.59798e-05 -1.89498e-21)
(1.08649 -0.0964149 0)
(0.882892 -0.00530618 -2.21901e-22)
(0.93442 0.240473 -9.37078e-21)
(1.01109 -0.00287881 -1.50014e-21)
(1.01378 -0.00444688 -1.6522e-22)
(1.19232 -0.0979312 -6.33985e-21)
(0.923273 0.00282758 0)
(1.03638 -0.00585491 0)
(1.01019 0.000550212 -3.51571e-22)
(1.01819 -0.0117898 -4.67947e-22)
(1.12793 -0.0500317 9.46177e-21)
(1.04197 -0.00873939 -5.40368e-21)
(0.948506 -0.380204 6.77305e-21)
(1.0178 -0.00248464 -5.77895e-22)
(1.06732 0.000452524 -3.41163e-22)
(1.02969 -0.01591 -2.4121e-21)
(-0.00667638 0.153746 -7.36003e-21)
(0.761777 0.167717 0)
(-0.0334271 0.0621801 -9.16927e-20)
(1.01759 -0.00254349 4.91816e-22)
(0.994338 -0.0931804 5.90454e-23)
(0.875498 0.265729 -1.61986e-21)
(1.01001 0.000659204 2.24902e-22)
(1.04018 -0.00920424 2.32517e-21)
(1.01654 -0.180821 0)
(1.02553 -0.00385014 0)
(0.00178941 0.160256 -1.16176e-20)
(1.00639 6.43196e-05 -3.57606e-22)
(1.01438 -0.00251813 7.0272e-22)
(1.12678 -0.127203 0)
(0.923927 0.109931 6.13572e-21)
(1.01276 -0.00162206 -2.1229e-22)
(1.01339 -0.0021287 0)
(-0.0227644 0.0774667 -2.23817e-20)
(1.01098 -0.000561125 5.95687e-22)
(1.00283 0.00610214 2.99939e-23)
(0.160492 0.129314 0)
(0.0169593 0.0629685 2.93087e-20)
(1.00472 3.44155e-05 -3.21694e-22)
(1.09405 -0.0604891 0)
(1.01489 -0.00279844 -6.8812e-22)
(1.0144 -0.00411257 8.52364e-22)
(1.01728 -0.0109784 1.26655e-21)
(1.01315 0.00141323 -1.39303e-22)
(1.01272 -0.00069921 -2.35143e-22)
(1.09404 -0.0574143 0)
(1.00818 0.000149135 6.01698e-23)
(0.964567 -0.118574 4.03324e-21)
(0.883626 0.260441 1.68864e-21)
(1.01387 0.000362283 8.67987e-22)
(1.0679 -0.0557501 6.83264e-21)
(1.12566 -0.127615 6.31119e-21)
(0.914987 0.107768 -1.32227e-20)
(0.898859 0.112081 0)
(0.969944 0.0388624 -8.39152e-21)
(1.11502 -0.0420416 -1.09659e-20)
(0.406361 0.00410123 1.09618e-20)
(1.01092 -0.000562627 1.2696e-21)
(1.19001 -0.124288 1.55339e-20)
(1.08359 -0.0473018 2.01599e-21)
(0.950013 0.224477 -1.21011e-20)
(1.00605 -0.000124665 1.26527e-21)
(1.01056 -0.00161054 2.08739e-24)
(1.01423 0.000644696 -5.20792e-24)
(0.939477 -0.0129843 -5.69981e-21)
(-0.00967402 0.173908 -9.81229e-21)
(1.0084 -0.197612 0)
(1.02234 -0.0125308 -9.36906e-23)
(1.01367 -0.00236012 2.76365e-22)
(0.945619 -0.00963777 5.64016e-21)
(1.02753 -0.148231 0)
(1.00427 1.83156e-05 0)
(1.01405 -0.369872 1.5653e-20)
(1.10055 -0.204037 0)
(1.01069 -0.00159393 1.02255e-21)
(1.00834 -0.000498242 -4.29774e-22)
(1.01462 0.00305291 -2.92859e-22)
(1.01156 -0.00357533 -6.14787e-22)
(-0.0519 0.067647 4.60561e-20)
(1.01198 -0.00122125 1.39778e-21)
(1.03871 0.039798 1.96683e-22)
(1.01473 0.000368452 -8.29575e-24)
(1.00551 2.4473e-05 -3.45868e-23)
(1.02811 -0.225513 0)
(1.0128 0.00145833 5.54566e-22)
(1.08464 -0.102662 6.44238e-22)
(1.01349 -0.000944913 0)
(0.89527 -0.287052 -1.78949e-21)
(1.01593 -0.011795 -5.42227e-23)
(1.0105 0.000206419 1.85628e-21)
(1.01083 -0.00160812 -8.5152e-22)
(0.993011 -0.0868167 -3.07321e-22)
(0.688825 -0.141815 2.03866e-21)
(0.666138 -0.135285 1.19825e-22)
(1.01051 0.000186963 -2.09843e-21)
(1.03217 -0.158336 0)
(1.02643 -0.00377159 -2.80365e-21)
(1.01191 -0.00517408 0)
(0.914267 -0.235647 2.96424e-22)
(0.769641 0.0260491 -3.07962e-20)
(1.01203 -0.00514134 0)
(1.01081 -0.00054168 -1.31547e-21)
(1.01506 0.00496938 5.70343e-22)
(1.01738 -0.0109936 -8.1131e-23)
(1.03217 -0.0331581 -5.34527e-22)
(1.00852 0.000166964 0)
(1.01509 -0.00463167 2.64728e-21)
(1.03455 -0.0156963 6.00316e-21)
(1.00826 -0.00051041 0)
(1.00626 -0.000193033 4.75329e-23)
(1.01416 -0.0022001 -1.10384e-22)
(0.485082 0.075698 -8.74669e-21)
(1.01587 -0.00470345 -6.93979e-23)
(1.01074 -0.000546336 5.82633e-22)
(1.01057 0.000494736 -6.58515e-23)
(1.03615 -0.145265 0)
(1.00856 -0.000689855 1.10639e-21)
(1.00853 -0.000675706 0)
(1.00361 4.00417e-06 0)
(1.03573 -0.00829847 -7.98167e-21)
(1.01193 0.00100695 4.12021e-22)
(1.00601 3.61214e-05 2.48843e-22)
(1.00468 2.70977e-05 -8.85292e-22)
(1.01589 0.00458959 5.62973e-22)
(0.891722 0.122492 2.50049e-22)
(1.00943 -0.000368293 5.463e-22)
(1.00634 7.98446e-05 -1.23467e-22)
(0.226512 0.23241 0)
(1.0454 -0.0201627 0)
(1.00635 3.92805e-05 5.63574e-22)
(1.00624 4.28459e-05 0)
(0.824561 -0.143361 1.97732e-20)
(1.00981 -0.0348727 2.95569e-22)
(1.01021 0.000545354 -5.30269e-22)
(1.03529 -0.00961589 0)
(1.08356 0.0343552 3.43446e-21)
(1.01063 0.000147102 4.90524e-22)
(0.955542 -0.0110876 0)
(1.0143 -0.0021593 4.20218e-23)
(0.625014 -0.142681 1.41614e-21)
(1.02718 -0.173254 -3.83506e-21)
(1.03175 -0.121467 0)
(1.08547 -0.0863727 0)
(0.856056 0.00934873 -8.85002e-21)
(1.01093 0.00065414 0)
(0.792981 0.0124947 1.08626e-20)
(1.13332 -0.140649 1.75753e-21)
(1.0069 -0.00021396 0)
(1.02907 -0.112414 0)
(0.992704 0.00964276 0)
(1.02068 -0.354565 0)
(1.01037 -0.00202392 8.68998e-22)
(1.01091 0.000668788 3.59818e-22)
(0.0426225 0.07679 0)
(0.883678 0.039287 -6.20076e-23)
(1.00963 -0.000775958 0)
(0.0853123 0.193352 4.68128e-20)
(0.956059 -0.0148283 0)
(1.00515 -0.0154824 0)
(0.226225 0.188345 -7.33458e-21)
(1.0103 -0.00188044 -4.30634e-22)
(1.01325 0.00167598 -1.16541e-21)
(1.0137 -0.000935202 1.05674e-22)
(1.00574 -2.56342e-05 1.4219e-24)
(1.01574 -0.00934243 0)
(1.01249 -0.00387065 -5.47778e-22)
(1.02414 -0.0184043 -1.10144e-21)
(1.01097 -0.000618094 -2.36698e-21)
(1.01577 -0.00922947 2.65036e-22)
(1.02327 -0.0121178 -8.71822e-22)
(0.660518 -0.360109 -1.42326e-20)
(0.856676 -0.134147 3.70638e-20)
(1.01392 -0.00244221 -6.30801e-22)
(0.791879 -0.0286408 -1.97892e-20)
(0.854402 -0.136968 4.84443e-21)
(1.00951 -0.000757008 0)
(1.06157 -0.0400431 2.49152e-21)
(1.00098 -0.040932 3.55885e-22)
(1.11053 -0.0127097 -1.6647e-20)
(0.964588 -0.149144 -2.95284e-21)
(0.97666 -0.170969 0)
(1.01773 -0.00223221 1.63358e-22)
(0.0121243 0.150906 -4.7985e-20)
(0.895693 -0.282483 2.35858e-22)
(1.02472 -0.0260855 -8.803e-24)
(1.02346 -0.0121521 8.00705e-22)
(1.00418 -0.0138493 0)
(1.0154 -0.00350701 -9.9916e-24)
(1.01137 -0.00098732 -4.78967e-22)
(1.02053 -0.188831 0)
(0.878963 0.287916 3.17594e-21)
(0.962559 -0.136424 -1.91892e-21)
(0.961768 0.0573741 0)
(0.875263 0.283604 -3.37791e-21)
(1.01069 -0.00164523 4.34706e-22)
(1.04963 -0.0259713 -2.90787e-21)
(1.01875 -0.011875 0)
(1.06598 -0.0726345 -1.19501e-21)
(-0.0170596 0.161408 2.26172e-20)
(0.952734 -0.20121 3.81715e-22)
(0.994274 0.157441 0)
(0.904878 -0.0781013 5.17931e-21)
(0.931311 -0.141038 0)
(0.966437 -0.173095 5.44475e-23)
(1.00521 4.97109e-05 3.91496e-24)
(0.670061 0.0170311 1.07547e-20)
(1.11441 -0.109151 -3.64465e-22)
(1.03327 -0.0337916 -1.93287e-22)
(0.950766 -0.137951 0)
(1.00734 -0.000245355 0)
(1.00706 0.000109939 -3.49345e-23)
(1.12475 -0.0147655 5.95975e-21)
(0.954355 -0.155729 -2.98261e-21)
(0.889966 0.14857 0)
(0.910008 -0.231271 -4.78802e-22)
(0.101357 0.188528 -4.34612e-20)
(1.02282 -0.0125247 6.44491e-22)
(0.896139 -0.222731 2.35261e-21)
(1.08515 -0.113466 0)
(1.01307 -0.00204821 -5.95909e-22)
(1.03261 -0.0160762 0)
(1.01745 -0.0107423 0)
(1.00987 0.00328262 0)
(1.00622 -5.33955e-05 -8.14045e-22)
(1.01573 -0.00322887 8.36838e-22)
(1.01963 -0.0020548 4.50401e-23)
(1.00551 -0.000155063 0)
(1.00453 1.68301e-05 0)
(1.01585 0.00262617 -3.03941e-22)
(1.00492 -0.0306541 0)
(0.875438 -0.288762 0)
(1.06097 -0.0281557 0)
(0.90205 0.298648 0)
(0.885536 0.309834 -5.57114e-21)
(0.297798 0.212938 -9.93016e-21)
(0.877632 -0.282715 -7.79744e-21)
(1.09968 -0.12443 8.50377e-21)
(1.01567 0.00383776 -2.89457e-22)
(1.0068 0.00011591 1.89403e-22)
(0.948846 -0.111635 -2.51012e-22)
(1.03199 -0.016032 1.56041e-21)
(1.02162 -0.0126912 -2.89735e-22)
(0.829095 0.271819 0)
(1.0633 -0.0727589 1.07552e-21)
(1.0371 -0.0898112 3.46938e-23)
(1.01276 0.00141292 0)
(0.664626 -0.358002 1.18782e-20)
(1.01021 -0.000672508 0)
(1.04541 -0.0208734 0)
(1.01009 0.000606483 3.52929e-22)
(0.0383788 0.151533 -1.62723e-20)
(0.640916 -0.158888 -1.29805e-22)
(0.948697 -0.163518 5.70139e-21)
(1.00463 3.65733e-05 4.49092e-22)
(0.173236 0.205514 -5.40034e-22)
(1.09601 -0.0506734 0)
(1.01358 -0.000720494 -1.47522e-23)
(1.01068 0.00312904 -4.949e-22)
(1.00456 2.74085e-05 4.64718e-22)
(1.01548 0.125975 8.26962e-21)
(1.0046 1.67785e-05 -2.06256e-22)
(1.006 4.15856e-05 -1.21109e-21)
(0.765402 0.230257 -3.36938e-22)
(1.06227 -0.0268405 2.35203e-21)
(1.02201 -0.0127467 -7.71964e-22)
(1.01364 -0.0042206 6.86398e-22)
(1.02167 -0.0168156 0)
(1.02001 -0.0226846 0)
(0.80249 -0.324939 6.90297e-22)
(1.05452 -0.0867947 9.27522e-22)
(1.00309 1.29154e-05 -1.75644e-22)
(0.620641 0.0208279 5.76967e-21)
(1.0101 0.000609642 -3.1105e-22)
(1.01297 -0.00447757 5.85198e-22)
(1.11366 -0.0432247 1.50106e-21)
(1.01622 -0.000216181 -1.92343e-22)
(0.824959 0.320707 -8.58515e-21)
(1.00295 3.78259e-05 1.90026e-22)
(1.01914 -0.0229087 -1.02208e-22)
(1.00422 3.22546e-05 0)
(0.952952 -0.187519 0)
(1.01664 0.00603506 1.57319e-21)
(1.01934 -0.00222851 -1.84527e-22)
(0.00872356 0.180097 2.6195e-20)
(1.01511 -0.0377281 -2.98497e-22)
(1.01078 0.000577218 0)
(1.04861 -0.0262711 0)
(1.012 0.00156286 -2.68879e-21)
(1.01284 -0.00176069 1.97369e-22)
(1.00583 4.03533e-05 0)
(1.0128 -0.00044226 0)
(0.728163 -0.106041 -1.45473e-20)
(0.190295 0.306918 0)
(1.02686 -0.00675371 8.15537e-22)
(1.04311 -0.0532176 -5.21359e-21)
(0.87306 0.288179 2.62554e-21)
(1.1877 -0.100232 6.76582e-21)
(0.872925 0.112313 -8.77357e-21)
(1.09079 -0.205037 4.06661e-21)
(0.8708 0.0837523 7.95667e-21)
(1.01215 0.000691654 0)
(1.09444 -0.115273 7.82889e-21)
(0.951529 -0.0160865 2.81866e-21)
(1.00415 -0.0192514 -3.01617e-21)
(1.02278 -0.0167264 0)
(0.947328 -0.11223 3.81464e-21)
(1.00056 -0.0347586 -8.43148e-22)
(1.01175 -0.0118412 1.65517e-21)
(1.00683 4.90188e-05 6.56608e-22)
(1.01606 -0.00494359 -2.87808e-22)
(1.0087 -0.00073984 5.01867e-22)
(1.01607 -0.000263991 -3.95034e-23)
(1.00868 -0.000733147 2.91227e-22)
(1.01559 -8.23763e-05 3.08992e-23)
(0.945359 0.0202214 1.14667e-21)
(1.00406 -2.95294e-06 -7.37618e-22)
(1.00987 0.000589927 5.08783e-22)
(1.09634 -0.0481281 0)
(1.00688 -0.000258862 -2.07367e-21)
(1.004 1.66109e-05 0)
(1.01403 0.00226746 -3.94157e-22)
(1.01231 0.00107592 -1.60805e-21)
(0.996076 -0.0325399 0)
(1.07819 -0.0341356 5.47757e-21)
(1.01096 -0.000592423 2.05528e-21)
(1.04595 -0.0416481 -5.29235e-23)
(1.0064 5.12961e-05 7.84981e-23)
(1.05912 -0.0297548 8.44469e-21)
(1.13135 -0.0725598 5.10018e-21)
(0.22705 0.32659 9.52175e-21)
(0.90387 -0.08264 -5.16201e-21)
(1.01294 -0.000890466 0)
(1.01797 -0.00214789 1.13511e-22)
(0.192922 0.316545 7.24226e-22)
(0.234179 0.174977 -7.97246e-21)
(1.00491 -0.0156481 -5.61828e-22)
(1.01241 0.00126952 6.47004e-22)
(1.04337 -0.105202 0)
(0.481311 0.069822 -1.47802e-22)
(1.01068 0.00051413 6.11806e-23)
(1.00689 6.9865e-05 -6.29788e-23)
(0.582063 -0.169801 -2.82813e-20)
(1.01723 -0.0111811 -1.21938e-21)
(1.10672 -0.0659828 1.21882e-20)
(1.00322 -0.0161282 4.58413e-22)
(1.01089 0.00471741 8.32793e-22)
(1.04171 -0.0532642 -2.36377e-21)
(1.00843 -0.000539117 8.66006e-22)
(1.01084 -0.00259196 1.31001e-21)
(1.01053 -0.000451149 0)
(1.00568 4.29673e-05 1.47144e-23)
(1.01091 -0.000544836 -1.14716e-21)
(1.01017 -0.000607899 -2.45999e-22)
(0.851407 -0.0242462 0)
(1.00938 0.00034334 0)
(1.02649 -0.0811429 0)
(0.876416 0.302225 -8.26466e-21)
(1.0109 0.000594225 0)
(1.00948 0.000369671 0)
(1.00338 2.84897e-06 -2.5632e-23)
(1.04189 -0.030229 1.63508e-21)
(1.02379 -0.00971673 2.86167e-21)
(1.06505 -0.0951282 0)
(1.01173 -0.00367968 0)
(0.749692 0.140143 2.47743e-21)
(1.0107 -0.0330787 7.48551e-22)
(1.0043 -0.0167633 3.21186e-21)
(1.0111 0.000230868 5.22069e-22)
(1.01555 0.00180161 6.32377e-22)
(1.01459 0.00337651 -2.98516e-22)
(1.02649 -0.00772935 -4.38046e-22)
(1.02646 -0.00736054 9.73306e-22)
(0.252183 0.28517 2.83353e-20)
(0.944576 -0.365376 0)
(1.00821 -0.000470062 0)
(1.01083 -0.000558497 -6.3275e-24)
(1.03493 -0.00786734 7.67857e-21)
(0.425138 0.0180129 1.20177e-20)
(1.0102 0.000605542 -3.35313e-22)
(1.0135 0.00149996 0)
(1.01542 -9.7273e-05 7.42957e-24)
(1.00988 0.000584952 8.79337e-24)
(1.01062 -0.000536847 0)
(1.01109 0.000281353 -4.8587e-22)
(1.01719 -0.0105486 -1.21183e-21)
(1.0128 -0.00187101 -4.21201e-22)
(1.06459 -0.0964988 0)
(1.01176 -0.00364879 5.63998e-22)
(1.01507 0.00267776 0)
(0.92914 -0.0570066 0)
(0.255237 0.327483 -1.34006e-20)
(1.00989 -0.0102839 4.27122e-22)
(1.01164 -0.00077503 0)
(1.01133 -0.00337154 6.50875e-22)
(1.00353 2.39854e-05 4.02036e-22)
(1.01381 -0.00384101 2.73578e-22)
(1.01415 -0.00317013 -2.59654e-24)
(1.04151 -0.0568753 0)
(1.00983 -0.0616225 5.99933e-22)
(1.03598 -0.00694659 6.10195e-21)
(1.07056 0.0250372 -3.36435e-21)
(1.01124 -0.00329795 -6.82712e-22)
(1.06307 -0.0420617 2.804e-21)
(1.01131 -0.000406422 -7.01036e-22)
(1.00631 5.48896e-05 -3.78578e-22)
(1.08392 -0.0480832 1.23861e-21)
(1.01163 0.000814991 -3.00305e-23)
(1.00548 5.99042e-05 4.89635e-22)
(0.823417 0.0326785 7.68811e-21)
(1.00433 2.21068e-05 -9.44869e-22)
(1.04031 -0.00989276 1.38643e-21)
(0.972242 0.0540748 0)
(1.00583 2.83081e-05 -1.07098e-21)
(1.01688 -0.00327919 -6.20158e-23)
(0.0191113 0.145899 1.24976e-20)
(1.01232 0.000870414 5.71836e-22)
(0.940739 0.041754 0)
(1.00412 -0.0241466 0)
(1.00591 1.6169e-05 3.22301e-22)
(1.00423 2.7087e-05 0)
(0.991318 0.00158408 4.68131e-22)
(1.0197 -0.0174455 -1.29165e-22)
(1.02391 -0.0100861 -1.49516e-21)
(1.011 -0.00279447 -1.46327e-21)
(0.897178 -0.280363 1.96884e-21)
(1.06753 -0.0175826 2.41397e-21)
(0.875759 0.0857644 4.6637e-21)
(1.00858 -0.00060883 1.88063e-21)
(0.26778 0.237846 3.26525e-20)
(1.00977 0.000542595 0)
(1.00475 2.59703e-05 -3.9913e-22)
(1.0121 -0.00372922 0)
(1.01732 -0.00762364 2.28152e-23)
(0.756535 0.173785 0)
(0.923317 -0.0808432 -4.41776e-21)
(1.01574 0.00116081 -9.53227e-22)
(1.04082 -0.00853553 1.80064e-22)
(1.013 -0.00369645 -1.03883e-21)
(0.667827 -0.364748 -2.86527e-21)
(1.03592 -0.0998645 0)
(1.01148 -0.00146649 2.78887e-22)
(1.0407 -0.00446596 0)
(1.04339 -0.0223411 0)
(-0.00685125 0.167969 0)
(1.02294 -0.0353885 0)
(0.995781 -0.0134518 0)
(1.00952 -0.000872309 -1.25682e-24)
(1.01634 -0.00645633 -3.62769e-22)
(1.05831 -0.0763442 -5.20036e-21)
(1.00584 1.79481e-05 -3.47256e-22)
(1.00957 -0.000875621 -1.45269e-24)
(1.01017 0.000600411 0)
(1.00916 -0.000678602 1.02568e-21)
(1.02615 -0.0326315 1.05116e-21)
(1.04853 -0.0710572 0)
(1.04723 0.0242876 -6.78481e-23)
(0.809318 0.047301 -1.12066e-20)
(0.994813 -0.0119458 8.98764e-22)
(1.01051 0.00216241 -2.50815e-21)
(1.01207 -0.0037834 -5.96471e-22)
(1.00806 -0.000337434 0)
(1.01213 -0.097658 -4.74696e-23)
(1.115 -0.0108671 1.07583e-20)
(1.01441 0.00240188 3.6737e-22)
(1.06452 -0.0587777 6.7702e-21)
(-0.00569032 0.0802774 2.7272e-20)
(0.246596 0.278993 4.12465e-20)
(1.00396 2.60328e-05 0)
(1.00459 7.34442e-05 4.79353e-23)
(0.986791 0.00793372 0)
(0.917583 0.151006 0)
(1.00978 0.000543158 0)
(0.998051 -0.0389301 -2.55775e-22)
(1.01184 -0.00416307 5.4054e-22)
(1.00552 -0.00018036 0)
(1.05814 -0.0348305 -8.32871e-21)
(1.01353 -0.000700781 7.10913e-23)
(1.02693 -0.00709829 -2.34111e-22)
(1.01037 -0.000590801 -4.53566e-22)
(1.00838 -0.000611077 0)
(1.01009 0.00220231 0)
(1.05689 -0.0730836 -7.40078e-22)
(1.08237 -0.0508086 8.64897e-21)
(0.874587 0.160708 -4.7876e-21)
(1.01395 -0.00416179 -8.40952e-22)
(1.01074 -0.000531796 -7.07993e-22)
(0.945613 -0.223983 6.05714e-22)
(1.01356 0.00160224 8.95971e-23)
(0.932254 -0.23892 -6.74179e-22)
(0.855954 -0.00916807 0)
(1.01179 -0.00418099 0)
(0.848967 0.252498 0)
(1.00889 0.000210977 -2.48094e-22)
(1.01178 -0.000985346 5.12018e-22)
(0.847612 0.277522 -3.20917e-21)
(0.879282 0.0177245 1.13849e-22)
(0.883472 0.0276755 1.01087e-22)
(0.713624 -0.124647 3.52812e-21)
(1.01989 -0.0166127 0)
(0.779222 -0.11611 6.6289e-21)
(1.00928 0.000327288 -5.27638e-22)
(0.742918 0.00369277 0)
(0.305095 0.219853 4.76002e-20)
(1.02245 -0.0251836 -3.46394e-21)
(1.01521 0.000700064 -7.31359e-22)
(0.918082 -0.21592 -1.58993e-20)
(1.04229 -0.0215964 0)
(1.02786 0.0320565 -1.56163e-21)
(1.14811 -0.0883106 1.10879e-20)
(0.887644 -0.294893 6.07455e-22)
(1.02471 -0.00395378 -4.21665e-23)
(0.860106 -0.110209 0)
(1.00611 6.23974e-05 8.89848e-22)
(1.06365 -0.0614082 1.21102e-21)
(1.08773 -0.0948221 0)
(1.00666 -1.47724e-05 3.92758e-22)
(1.03857 -0.043285 0)
(0.877545 0.317079 1.23143e-20)
(0.932818 0.0290224 0)
(1.01485 -0.00888658 2.71846e-21)
(1.01729 -0.0106808 -1.58072e-21)
(1.01002 0.000651981 0)
(1.02396 -0.0120875 0)
(1.01703 0.00527935 -1.10064e-21)
(1.02848 -0.0184363 4.43371e-21)
(0.947417 0.0296263 -4.71071e-21)
(1.01124 -0.00033852 0)
(0.938911 -0.213919 -6.16354e-22)
(1.01114 0.00205705 2.99969e-21)
(1.01181 -0.00491118 2.00064e-21)
(1.05431 -0.0236086 -1.76518e-21)
(1.00938 0.000354156 0)
(1.03647 0.0187447 0)
(1.01399 -0.00224859 1.13202e-22)
(1.00922 -0.000688452 0)
(0.994133 -0.378234 -2.17204e-20)
(1.00811 -0.000397418 -1.27206e-21)
(1.01561 -0.00427234 -9.17365e-22)
(0.950661 -0.0985668 0)
(1.09634 -0.0516257 -3.19241e-21)
(1.10016 -0.0448248 3.63104e-21)
(1.01823 -0.00160881 -3.09413e-22)
(1.0123 -0.00531291 -2.22133e-22)
(1.00661 -0.0763461 4.82071e-22)
(1.01283 -0.00558753 0)
(0.904969 0.17975 2.13013e-21)
(1.04639 -0.0186274 0)
(1.01708 -0.0112021 9.75596e-22)
(1.03071 -0.0141267 1.57491e-22)
(1.01168 -0.00428321 1.51351e-21)
(1.00995 0.000621119 -2.45217e-22)
(0.470886 -0.0441374 -1.78381e-20)
(1.00944 0.000373772 9.29586e-23)
(0.298388 0.220788 0)
(1.13297 -0.138257 -1.39449e-20)
(1.03658 -0.00667531 9.85377e-23)
(0.410699 0.113701 -1.98071e-20)
(1.00692 6.81158e-05 -4.5748e-22)
(1.00826 -0.0138153 4.27794e-22)
(1.01503 -0.00974007 -7.15057e-23)
(0.727223 -0.342543 -1.10981e-21)
(1.04731 -0.0167082 8.61333e-21)
(1.04571 -0.0743808 -3.45367e-23)
(0.900205 -0.162322 -1.83149e-21)
(1.00453 4.86314e-05 3.10982e-22)
(0.942325 -0.102379 0)
(1.00772 3.11497e-05 0)
(1.15627 -0.0944601 -8.14097e-21)
(1.01271 -0.00571944 0)
(1.02611 -0.00969074 0)
(0.593654 0.0963923 -2.72231e-20)
(0.957464 -0.116192 0)
(1.0136 -0.00218785 0)
(1.0159 -0.00817381 7.66932e-22)
(1.02216 -0.0174679 0)
(1.0093 2.40963e-05 -1.59151e-21)
(1.01798 -0.00164167 0)
(0.96371 -0.126887 3.29223e-21)
(0.118276 0.329025 1.93457e-20)
(1.01314 0.000693075 0)
(1.00917 2.72181e-05 0)
(1.00771 2.85068e-05 0)
(0.79016 -0.325429 0)
(0.922103 -0.0787081 -2.55669e-21)
(0.982977 -0.00935042 1.96704e-21)
(1.0084 -0.000599848 1.84418e-24)
(1.03731 -0.0197437 3.82931e-22)
(1.02571 -0.00983274 6.30962e-24)
(1.01217 -0.00534113 0)
(1.0606 -0.0287193 0)
(0.866898 -0.183891 3.00586e-21)
(1.01153 -0.00141149 -5.69378e-22)
(1.06693 -0.0581177 -1.34633e-20)
(1.08918 -0.114279 -2.83919e-23)
(1.01533 0.00471085 0)
(1.00669 -0.0395189 -7.76569e-22)
(1.01927 -0.00405048 -9.89321e-22)
(1.01982 -0.0339416 3.27565e-22)
(1.01148 -0.00123768 0)
(1.01299 0.000755409 -2.92298e-22)
(1.04794 -0.0281245 1.0444e-20)
(1.01171 -0.00483332 -2.11041e-21)
(1.06113 -0.0770354 -5.91569e-22)
(1.01587 -0.00033125 -3.06457e-23)
(0.366248 0.124428 -5.09001e-21)
(1.00735 -0.000267934 0)
(1.04641 -0.018947 2.28564e-21)
(1.07849 -0.0919278 -7.10006e-22)
(0.940469 0.00963586 -1.15933e-21)
(1.06128 -0.0622598 0)
(1.00635 0.000113579 0)
(1.01168 -0.00420585 -2.22247e-21)
(0.892355 -0.174427 0)
(1.03707 -0.0245546 0)
(1.02108 0.0268042 0)
(1.00897 -0.000983277 8.31183e-22)
(1.01142 -0.00349909 -5.98498e-22)
(1.01138 -0.0129349 -2.64343e-21)
(-0.0598384 -0.0118231 -8.19178e-21)
(0.946839 -0.122011 5.50907e-22)
(1.01279 0.000727542 0)
(1.01344 -0.00242196 0)
(1.02017 -0.0126866 -8.62784e-23)
(1.01582 -0.00791311 3.72961e-22)
(1.01 0.000244306 -4.77342e-22)
(1.01329 -0.00392701 -7.11987e-22)
(1.00579 1.62868e-05 1.55263e-24)
(0.870502 0.103888 -5.01384e-21)
(1.01396 -0.00230523 0)
(1.01712 -0.00355262 0)
(0.898378 -0.171738 0)
(1.00861 -0.000568183 0)
(1.1062 -0.213964 0)
(0.959332 -0.0911555 -3.64527e-21)
(0.660895 -0.36798 0)
(1.01875 -0.336034 0)
(0.922403 -0.17327 5.29808e-21)
(0.123607 0.329695 -1.07846e-20)
(1.01354 -0.00394649 1.44193e-22)
(1.01152 -0.00358447 2.00799e-21)
(1.01745 -0.0107365 -1.2475e-21)
(1.01316 0.000602448 7.39949e-22)
(1.0116 -0.00182366 0)
(1.00696 4.00337e-05 -6.93489e-22)
(1.00654 6.86828e-05 -1.48266e-21)
(1.02398 -0.011651 4.73196e-23)
(0.851219 -0.26957 -1.10331e-22)
(1.13079 -0.0741032 7.57079e-21)
(1.07474 -0.109234 3.7851e-23)
(1.01091 0.00283184 3.41868e-22)
(1.01129 -0.00324541 0)
(1.01084 -0.0345175 -1.51299e-22)
(1.00447 -0.0304248 0)
(1.00021 -0.0819806 -9.83735e-23)
(1.00397 1.13677e-05 0)
(1.01346 -0.00418983 -8.67231e-22)
(1.01297 0.000728363 -2.87688e-22)
(0.0516136 0.282971 -3.13316e-20)
(0.902233 0.220145 0)
(0.819269 -0.0238409 0)
(1.00618 -0.000162924 0)
(1.08191 -0.0985075 -3.67742e-21)
(1.10602 -0.117309 5.15211e-21)
(1.00297 -0.0357459 -1.06486e-21)
(-0.0646106 -0.00666059 -8.97098e-21)
(0.882138 -0.228653 0)
(1.01729 -0.0107926 0)
(1.01584 0.00677169 -8.64502e-22)
(1.01548 0.00259876 0)
(0.916959 0.00307148 -1.23691e-20)
(1.01883 -0.00877039 7.91186e-23)
(1.00963 0.000472053 -4.15041e-22)
(1.03183 -0.104829 0)
(0.904767 -0.295172 -8.11044e-21)
(1.01332 -0.00339359 -4.47862e-22)
(1.03134 0.060521 1.55557e-22)
(1.07649 -0.0912471 1.48337e-21)
(1.01446 -0.00208613 -5.03931e-23)
(1.01254 -0.00363237 2.26736e-22)
(1.01466 -0.00185469 0)
(1.01178 -0.00242958 -7.99922e-22)
(1.01564 -0.00502653 0)
(1.00967 -0.000686101 -3.1809e-21)
(1.03341 -0.042479 8.06849e-22)
(1.01469 -0.00515947 0)
(1.0187 -0.0088628 -8.59415e-23)
(0.878123 0.0528262 0)
(0.056373 0.279383 3.73579e-20)
(1.01508 -0.00428654 3.61931e-22)
(0.946722 -0.101875 0)
(1.17694 -0.0559667 1.33628e-20)
(1.01514 -0.00920308 0)
(1.01643 0.000817152 9.35238e-23)
(1.01349 0.000518937 1.81774e-22)
(1.00795 0.000115562 -6.05606e-23)
(1.01711 -0.01048 -3.79389e-22)
(1.01504 -0.00929057 6.51475e-22)
(1.00539 4.74023e-05 0)
(1.02606 -0.00801432 1.90729e-21)
(1.0101 -0.000859921 7.75761e-22)
(1.02011 -0.00861569 2.70651e-22)
(0.646358 0.0721683 2.73368e-20)
(1.03088 -0.0340164 -1.72924e-21)
(1.00607 2.9747e-05 -7.3555e-22)
(1.01184 -0.00230045 0)
(0.849143 0.241592 1.7333e-20)
(1.02519 -0.00407723 1.20769e-21)
(1.00974 0.00047232 4.26615e-22)
(0.623711 -0.315431 -8.07584e-23)
(1.01178 -0.00177524 -5.70624e-22)
(1.03878 -0.0508224 -1.46264e-22)
(1.0469 -0.0282954 -1.25932e-20)
(1.01731 -0.00321789 -1.3258e-22)
(1.00888 -0.000903767 5.34835e-22)
(1.00958 6.21024e-05 9.60523e-22)
(1.01692 -0.0102274 -9.15845e-22)
(1.07827 -0.0395726 4.27439e-21)
(1.00563 4.11125e-05 7.59645e-22)
(0.914058 -0.164656 3.2317e-21)
(1.00108 -0.0874191 4.31819e-22)
(1.08752 -0.11775 3.36274e-21)
(0.872496 -0.230302 -2.06307e-21)
(1.02016 -0.0120735 -4.82137e-24)
(0.963157 -0.00116392 -2.48331e-21)
(1.00938 0.000344247 6.70593e-22)
(1.05483 -0.112801 0)
(1.03631 -0.00780131 6.01764e-23)
(1.01142 -0.00236243 -1.55958e-21)
(1.13967 -0.072997 0)
(1.01463 -0.236062 4.78712e-21)
(1.01196 -0.00656531 -1.36289e-23)
(1.06492 0.0146643 2.27952e-20)
(1.17047 -0.123695 -1.56758e-20)
(1.00721 9.96877e-05 0)
(1.05639 -0.033308 0)
(1.00987 0.000483651 -4.73467e-22)
(1.01289 -0.000466534 -8.03219e-23)
(1.02625 -0.0340829 -2.21887e-21)
(1.01004 -0.00676802 -1.4066e-21)
(1.00736 -0.000246324 -1.05543e-21)
(1.00238 -0.0159172 0)
(1.01113 -0.00167741 -2.9621e-24)
(1.01111 -0.000363731 -1.95454e-21)
(0.872192 0.205964 8.13903e-21)
(1.01121 0.000300589 -4.83104e-22)
(1.01158 -0.0018866 -9.0239e-23)
(1.00892 -0.00090289 0)
(0.714277 0.0492008 3.27129e-20)
(1.01198 -0.00229653 0)
(1.01535 -0.00153029 0)
(1.03178 -0.0408433 2.54754e-21)
(0.87606 0.115639 0)
(0.906444 0.212149 -5.74782e-21)
(1.02149 -0.215482 -8.91809e-21)
(0.8532 -0.0508256 0)
(1.01093 -0.0026923 -1.36822e-21)
(1.00963 0.000467687 1.53509e-22)
(1.01753 -0.00309306 1.41834e-22)
(0.87631 -0.293443 0)
(1.00445 -9.08846e-06 -7.65945e-22)
(1.01023 -0.00154687 0)
(1.03561 -0.0196729 -1.37025e-21)
(1.01267 0.000597396 8.6742e-22)
(1.14792 -0.102711 4.70001e-21)
(1.01988 -0.00906611 -4.74599e-23)
(1.02278 -0.00595211 0)
(0.937092 0.183326 0)
(1.01278 -0.00356987 -3.81916e-22)
(1.09678 -0.0484458 -3.77241e-21)
(0.778677 0.283661 -3.02216e-21)