/*--------------------------------*- C++ -*----------------------------------*\
| =========                 |                                                 |
| \\      /  F ield         | OpenFOAM: The Open Source CFD Toolbox           |
|  \\    /   O peration     | Version:  v2012                                 |
|   \\  /    A nd           | Website:  www.openfoam.com                      |
|    \\/     M anipulation  |                                                 |
\*---------------------------------------------------------------------------*/
FoamFile
{
    version     2.0;
    format      ascii;
    class       volScalarField;
    location    "100";
    object      epsilon_0;
}
// * * * * * * * * * * * * * * * * * * * * * * * * * * * * * * * * * * * * * //

dimensions      [0 2 -3 0 0 0 0];


internalField   nonuniform List<scalar> 
18232
(
7.90668e-07
0.000963322
0.0145873
2.96175e-06
8.80064e-07
0.015409
0.000630851
7.15215e-07
4.35172e-07
0.000657346
8.89812e-07
1.40469e-06
0.000393444
0.000283089
2.08152e-06
0.0104606
2.10936e-06
0.014512
1.20807e-06
8.33909e-06
0.0271055
0.000402477
0.000399048
1.31506e-06
7.86267e-07
9.57753e-07
1.41449e-06
0.00041087
6.39831e-07
0.000250681
9.52916e-07
1.05153e-05
2.59286e-06
1.64056e-06
2.78796e-06
7.1311e-07
0.0264076
0.00759668
0.00273958
1.20185e-06
1.52671e-06
1.3195e-06
0.0148572
1.30735e-06
2.77201e-06
1.5732e-06
0.000337941
1.72071e-06
2.05521e-06
0.0153032
2.09549e-06
1.99744e-06
8.26563e-07
8.01963e-05
8.35755e-07
4.33104e-07
0.00737249
0.000343236
1.47994e-06
1.96619e-06
3.03863e-06
0.000876071
0.0020313
0.000906439
1.04772e-06
9.403e-07
0.00245804
1.57319e-06
1.04447e-06
1.47978e-06
1.6056e-06
4.12003e-07
0.000359392
1.3276e-06
2.98508e-06
1.31468e-06
1.40327e-06
0.00443519
0.00218827
2.08522e-06
6.68789e-06
2.82609e-06
1.6571e-05
1.38842e-06
4.18224e-07
0.00197228
8.85736e-07
1.33029e-06
0.000265807
0.0163983
1.83894e-06
1.18519e-06
2.88537e-06
0.000423057
1.04579e-06
1.37762e-06
8.98336e-07
1.17904e-06
8.96059e-07
1.69577e-06
0.0237716
0.00182918
9.80422e-07
6.38338e-07
1.59737e-06
0.000353877
1.50403e-06
0.000225921
0.0133473
0.000706415
0.000255896
1.39351e-06
2.79026e-06
0.000216061
6.40494e-07
1.53369e-06
1.68642e-06
0.000338714
0.00656042
9.36549e-07
4.17084e-07
0.00036817
9.03971e-07
1.13688e-05
1.30265e-06
1.08004e-06
1.71645e-06
0.0157005
4.68052e-06
1.8695e-06
1.27824e-06
2.76138e-06
8.28108e-07
1.11689e-06
1.57945e-06
6.44314e-07
3.00411e-06
2.13643e-06
0.0241666
0.0185038
6.44442e-07
0.0173356
0.0143909
1.57574e-05
1.13438e-06
1.56656e-06
1.707e-06
5.09173e-06
1.18474e-06
8.9825e-07
5.16769e-06
8.23355e-07
0.021899
1.79863e-06
0.0201613
4.7357e-06
0.0146872
2.18913e-06
1.26427e-06
0.0177606
1.26868e-06
3.47036e-05
0.0196476
0.00227295
0.000430453
1.13056e-06
3.28269e-06
0.00872843
1.58227e-06
4.67887e-06
1.38326e-06
1.62272e-05
4.7588e-06
1.33534e-06
5.64368e-07
7.8993e-07
0.000895028
1.55821e-06
6.39877e-07
7.91492e-07
8.20799e-07
0.00591662
1.72249e-06
0.00105252
5.87166e-07
8.36558e-07
7.97357e-07
0.0258018
1.9492e-06
2.72989e-06
1.57723e-06
0.00161773
5.1396e-07
5.16415e-07
1.3834e-06
5.09329e-07
3.23884e-06
1.56493e-06
1.71669e-06
1.30037e-06
8.41503e-07
8.29929e-07
1.46505e-06
5.55403e-07
1.55722e-06
1.28077e-06
1.87564e-06
4.39681e-07
1.42369e-06
5.79252e-07
6.57546e-07
9.19324e-07
8.84323e-07
1.48824e-06
1.45907e-06
0.00145173
1.38472e-06
1.59274e-06
0.000558457
6.59925e-06
1.81453e-06
1.44734e-06
0.000334903
1.26757e-05
1.01365e-06
8.29923e-07
9.10973e-07
1.00068e-06
1.90231e-06
2.87943e-06
0.000799085
6.62399e-07
5.66849e-07
8.10074e-07
1.03094e-06
6.41875e-07
1.02919e-06
4.59889e-06
1.46953e-06
1.02903e-06
0.0170621
7.77747e-07
9.95516e-07
7.53475e-07
0.000360787
6.38933e-07
2.0805e-06
1.45771e-06
8.29933e-07
5.57792e-07
0.0174749
2.02469e-06
0.0272314
2.17665e-06
2.7618e-06
0.00060416
1.56797e-06
0.00454936
5.1161e-07
1.13315e-06
0.000531853
9.01887e-07
0.0114203
1.13946e-06
1.26409e-06
4.23773e-06
1.88616e-06
1.0391e-06
7.82392e-07
0.0113248
6.43227e-07
1.01393e-06
5.07119e-06
0.0203158
0.000261925
1.3502e-06
2.04637e-05
1.27044e-06
8.24273e-07
1.15068e-05
0.00481124
0.00051699
0.000443046
5.43459e-07
1.40175e-06
9.38017e-07
1.02763e-06
1.22196e-06
0.0173066
9.16515e-06
0.0156676
0.00118626
6.49357e-07
7.39648e-07
1.0239e-06
2.22282e-06
8.2389e-07
6.64513e-07
8.43496e-07
0.000329595
7.33861e-07
1.08288e-05
0.0273087
8.12208e-07
5.45795e-07
1.19762e-06
1.63117e-06
1.99778e-06
9.087e-07
7.58517e-07
8.98097e-07
4.27462e-06
0.000272375
8.31217e-07
9.13956e-07
0.000288455
1.27391e-06
7.37573e-07
1.23608e-06
4.18254e-07
1.17105e-06
0.00544484
3.25034e-06
1.12013e-06
4.19334e-06
8.88624e-05
1.40684e-06
1.17815e-06
9.06195e-07
1.19224e-06
4.25499e-06
3.13034e-06
0.000883707
1.63895e-06
2.04335e-06
3.24282e-06
9.75418e-07
1.34474e-06
1.42989e-06
0.000108459
6.97778e-06
9.27989e-06
1.40606e-06
6.15051e-06
1.18452e-06
2.00291e-06
0.00401065
9.33838e-07
1.55027e-06
5.78196e-07
1.23054e-06
2.25613e-06
1.81196e-06
8.38559e-07
1.63091e-06
5.77422e-07
0.00862018
1.6176e-06
1.07673e-06
1.59173e-06
9.16209e-07
8.48798e-06
2.20832e-06
8.09209e-07
1.16441e-06
1.21328e-06
5.74937e-07
1.59806e-06
1.8155e-06
9.43979e-07
6.34253e-07
1.41299e-06
0.00429916
8.4129e-07
1.01051e-06
1.40902e-06
0.0165359
4.16897e-07
8.76293e-07
0.00295573
0.000171883
1.27419e-06
1.55431e-06
2.13045e-06
4.19355e-07
4.184e-07
1.57542e-06
1.37677e-06
1.47068e-06
8.74722e-07
7.51901e-07
0.000344861
8.34893e-07
7.65004e-07
1.01395e-06
1.64787e-06
0.000799886
9.38512e-07
0.00622324
1.7045e-06
5.32394e-06
7.63982e-07
1.56186e-06
1.70153e-06
0.00287
2.20462e-06
1.46252e-06
6.89345e-06
2.6461e-06
7.56752e-07
0.00060666
1.46255e-06
0.000157307
1.59308e-06
1.08305e-06
8.75112e-07
1.63345e-06
0.00300357
7.58326e-07
1.00892e-06
7.52525e-07
0.00137291
6.51796e-05
2.67937e-06
1.82405e-06
1.19139e-06
3.5463e-06
1.64701e-06
1.58804e-06
0.0180394
0.00393022
1.57542e-06
1.59774e-06
1.19117e-06
7.65371e-07
5.2272e-07
3.71305e-06
1.95305e-06
7.58569e-07
1.94533e-06
9.26519e-07
1.16988e-06
0.000360314
9.46191e-07
1.34497e-06
1.50541e-06
2.16231e-06
0.00410299
8.82114e-07
1.63771e-06
0.00910957
9.67598e-07
3.50858e-06
1.39057e-06
1.27092e-06
1.27662e-06
1.16655e-06
0.000610092
1.5007e-06
1.3811e-06
1.39951e-06
9.60049e-07
7.45199e-07
1.41294e-06
1.66381e-06
7.52197e-07
1.19583e-06
0.000515267
4.15164e-07
4.15268e-07
0.00351479
1.65479e-06
0.0165067
0.0143203
0.000694354
6.59755e-07
6.54676e-07
1.58364e-06
0.000158075
7.55208e-07
4.25759e-07
1.54965e-06
1.36582e-05
7.549e-07
8.25551e-07
8.27226e-07
3.57591e-06
0.00325637
2.67993e-05
1.54257e-06
1.42503e-06
0.0265299
0.00966431
7.46871e-07
0.000352384
1.36529e-06
0.0146524
1.32718e-06
7.46972e-07
6.67514e-07
0.000250594
7.15393e-07
5.13984e-07
1.14598e-06
0.0230674
5.7562e-07
1.4891e-06
5.06995e-07
0.0251714
9.29993e-07
1.89496e-06
4.32107e-07
9.54559e-07
4.63001e-07
0.0111784
1.55373e-06
5.30809e-07
1.5569e-06
1.58997e-06
8.58438e-07
6.5459e-07
8.8866e-07
8.29591e-07
1.32018e-06
1.26902e-06
1.16271e-06
2.35973e-06
0.00264973
1.33833e-06
2.17836e-06
1.14499e-06
0.0195984
0.000349456
8.23922e-07
6.61682e-06
1.55812e-06
0.000542725
8.21755e-07
0.000578765
1.44883e-06
7.37605e-07
0.00288289
9.18802e-07
1.58322e-06
0.00166026
4.46455e-07
9.81569e-07
7.48011e-07
0.022016
9.00768e-07
1.64219e-06
1.56404e-06
2.31881e-06
8.59044e-07
5.39484e-06
1.75647e-06
5.71399e-07
1.21867e-06
1.22364e-06
1.62436e-06
1.72902e-06
9.40964e-07
4.82912e-07
0.000372303
0.0268047
0.000302885
1.78837e-06
1.67178e-06
0.000781121
8.10815e-05
6.3184e-07
0.0176809
7.34821e-07
8.28343e-07
6.31711e-07
4.71353e-07
5.7379e-07
2.25483e-06
4.24284e-07
0.010294
9.68075e-07
7.30312e-07
7.51838e-05
0.0106137
0.00398314
6.24627e-07
8.13206e-06
1.17389e-06
1.56589e-06
4.12197e-07
4.4208e-07
6.55797e-07
0.0276386
1.12991e-06
9.71789e-07
0.0256643
8.66321e-07
2.19477e-06
0.00106246
6.74261e-07
1.6649e-06
0.000343594
0.00774366
1.1599e-06
7.05169e-07
8.22271e-07
8.44435e-07
7.44826e-07
0.0221392
9.30545e-07
0.00341155
1.17645e-06
1.54873e-06
0.00409346
8.48911e-07
0.0259731
0.022305
9.56123e-07
8.87576e-07
5.24159e-07
5.27231e-07
8.59466e-07
6.70412e-05
7.47085e-06
1.41096e-06
1.62708e-05
0.0002521
2.32054e-06
1.82954e-06
1.37566e-06
5.49752e-05
1.64728e-06
8.63228e-07
0.00113299
0.000478894
2.01165e-06
1.80324e-06
1.08993e-06
8.24091e-07
1.04257e-06
0.00363293
6.35742e-05
5.84209e-07
1.1523e-06
0.000515595
1.33856e-06
0.000300286
1.13785e-06
9.99965e-07
5.69892e-07
1.97395e-06
5.89843e-07
2.29812e-06
2.81851e-05
1.03894e-06
5.77008e-07
1.21024e-06
9.10618e-05
1.13219e-06
8.49007e-07
2.30244e-06
1.70875e-06
1.34513e-06
5.79511e-07
1.94552e-06
4.93258e-06
2.28529e-06
1.51958e-06
4.19051e-07
6.3049e-07
0.0170922
8.85471e-07
1.12972e-06
1.73247e-06
1.20756e-06
1.51416e-06
1.83469e-06
1.6076e-06
6.35436e-07
1.14833e-06
6.57617e-07
1.09184e-06
5.74958e-06
1.68445e-06
7.28544e-07
1.4151e-06
0.0202545
9.9553e-07
1.58604e-06
6.5095e-07
1.04592e-06
9.5148e-07
6.28803e-07
0.0156274
1.09006e-06
7.56255e-07
5.17454e-07
1.35091e-06
0.000321118
1.68309e-06
0.000563099
9.88097e-07
1.35151e-06
6.98597e-07
1.71214e-05
7.61431e-07
2.27605e-06
2.06341e-06
1.03652e-06
1.54123e-06
6.55341e-07
9.95792e-07
1.66097e-06
1.40775e-06
0.0260463
1.65037e-06
1.08822e-06
2.04742e-06
1.17691e-06
0.0147849
1.63692e-06
0.0220235
7.95034e-07
1.04197e-06
1.52446e-06
1.35931e-06
1.41097e-06
1.13754e-06
7.81221e-06
6.69102e-07
1.43418e-06
7.58056e-07
1.12777e-06
1.47027e-06
0.00034521
1.63324e-06
1.32907e-06
9.70539e-07
0.000973028
1.62156e-06
5.34439e-06
0.000333887
9.81819e-07
0.000130533
0.0154977
0.00310438
1.42394e-06
0.000167622
1.83914e-06
0.023543
1.54747e-06
8.37361e-07
1.57027e-06
1.34276e-06
0.0157496
0.0263504
1.34714e-06
3.55693e-06
9.56325e-07
0.000369032
8.90512e-07
5.73916e-07
6.37518e-06
0.0181149
6.08186e-07
1.44876e-06
5.91981e-06
9.17408e-07
1.21803e-06
1.76849e-06
2.53396e-06
1.05281e-06
0.00110855
1.15652e-06
1.46064e-06
1.09285e-06
1.17464e-06
2.67367e-06
5.23612e-05
1.44208e-06
0.0111746
9.82672e-07
1.60284e-06
9.75633e-07
1.62438e-06
0.000167012
1.58895e-06
0.000269908
6.40948e-07
7.72795e-07
9.0504e-06
2.94568e-06
5.0202e-07
1.29981e-06
1.13307e-06
9.36177e-07
5.83172e-07
1.58932e-06
1.05577e-06
0.000358056
2.74082e-06
8.16659e-07
1.84007e-06
1.47266e-06
1.83656e-06
9.7194e-07
1.17596e-06
1.68746e-06
1.09481e-06
7.54843e-07
0.00405412
1.52189e-06
0.0213971
7.40484e-06
9.5823e-07
1.03822e-06
1.1231e-06
0.0149497
6.24183e-07
8.15526e-07
9.55171e-07
1.4908e-06
8.06847e-07
6.61368e-06
8.35778e-07
0.00032835
4.17272e-07
1.46019e-06
1.46536e-06
5.12074e-07
5.3442e-07
1.46887e-06
6.41914e-07
1.84858e-06
7.74528e-07
1.69579e-06
3.19617e-06
0.0119502
3.40452e-06
9.25331e-07
0.00192961
1.74894e-06
1.40908e-06
2.67757e-06
1.58131e-06
3.58428e-06
0.000317642
0.0236438
0.000911095
9.30051e-07
1.39927e-06
1.71451e-06
4.137e-07
1.63306e-06
1.11584e-06
0.00393857
0.000102363
0.0196566
1.45159e-06
1.13004e-06
1.60319e-06
9.19294e-07
0.0187978
9.53397e-07
0.000456335
1.30093e-06
7.42203e-07
0.000221911
1.46348e-06
1.91025e-06
1.49734e-06
5.41569e-05
3.22875e-06
1.25465e-06
1.43629e-06
5.54016e-07
1.4211e-06
1.26362e-06
0.00427416
6.26056e-06
2.43192e-06
1.19074e-06
6.39478e-07
0.000309654
0.000898525
1.57263e-06
1.73428e-06
0.000355212
0.00130107
1.68151e-06
5.00509e-07
1.0659e-06
1.53915e-06
1.4101e-06
1.42501e-06
6.24625e-07
1.25415e-06
1.55668e-06
6.19039e-06
4.98073e-07
8.34417e-07
1.07599e-06
1.07256e-06
0.00357644
8.44183e-07
7.98912e-07
6.0358e-07
6.43745e-07
1.17097e-06
1.14339e-06
1.93112e-06
6.27802e-07
3.25122e-06
0.0268994
0.000272206
1.56244e-06
0.0233815
6.41169e-06
0.000266899
1.06903e-06
0.00193719
0.000235668
8.56125e-07
1.71715e-06
9.55848e-07
9.33076e-07
2.63e-06
1.89071e-06
9.14073e-07
0.000119385
1.16565e-06
9.05505e-07
1.5714e-06
6.53497e-07
6.27921e-07
6.54764e-07
9.565e-05
8.82182e-05
2.50971e-06
1.34476e-06
1.17987e-06
8.3355e-07
0.000524581
1.02469e-06
1.2162e-06
0.000252612
8.39103e-07
0.00114405
9.457e-07
5.24961e-07
0.0175119
5.30276e-07
1.38847e-06
0.0134306
2.2905e-06
5.11421e-07
6.23073e-07
3.9443e-06
0.000333742
0.00105522
0.00408793
1.95906e-06
6.73036e-07
1.00421e-06
0.0010187
1.66895e-06
5.61562e-07
1.51315e-06
1.04228e-06
6.1986e-07
0.00309274
0.0172325
0.00797114
1.70634e-06
0.00010749
4.97216e-06
5.85511e-05
1.50441e-06
1.01494e-06
6.06616e-07
8.29867e-05
5.83639e-07
1.51092e-06
0.000334326
2.07704e-06
1.16709e-06
1.58252e-06
5.52669e-07
1.8213e-06
1.70511e-06
1.44346e-06
1.42754e-06
9.49541e-07
1.55746e-06
0.0267785
1.01745e-06
3.86196e-06
1.68058e-06
8.27863e-07
1.00139e-06
9.98909e-07
1.21422e-06
3.11199e-05
7.22052e-07
0.0174138
1.66362e-06
0.000346992
6.75262e-07
1.87904e-06
8.54329e-07
5.69522e-07
5.49244e-07
5.56711e-07
1.13778e-06
1.79987e-06
5.99384e-07
1.21332e-06
1.70686e-06
3.76874e-06
0.00360312
8.35973e-07
1.35239e-06
6.4077e-07
1.52999e-06
1.13063e-06
1.12564e-06
0.0126477
1.19907e-06
1.70295e-06
1.1841e-06
0.00380956
0.00033858
0.000122074
1.22203e-06
1.24415e-06
5.51842e-07
3.49579e-06
7.19073e-07
1.16303e-06
0.000439254
4.90192e-06
8.03666e-07
4.52974e-07
0.000441139
1.36559e-06
1.25421e-06
0.00517278
1.64524e-06
1.5205e-06
1.66219e-06
0.000291394
8.69692e-07
0.00292521
1.63115e-06
6.71882e-07
1.7196e-06
6.02692e-07
0.00957191
1.50527e-06
1.00711e-06
0.000812755
1.30362e-06
1.13936e-06
8.5341e-07
7.0674e-07
5.40634e-07
1.63209e-06
6.62463e-07
3.90039e-06
1.61736e-06
1.19231e-05
8.65084e-07
1.28725e-05
0.00198508
1.84603e-06
0.000642934
6.42124e-07
0.000118757
1.01934e-06
0.000371251
5.37428e-07
0.0195173
7.70273e-05
5.8122e-05
1.73039e-06
0.0201644
4.5523e-05
0.00138746
1.67802e-06
1.25301e-06
1.1245e-06
3.39992e-05
0.00363784
1.70237e-06
1.51625e-06
3.67025e-06
1.19266e-06
0.00046362
5.82675e-07
9.13198e-07
0.000413785
5.40116e-07
6.38353e-07
1.4874e-06
9.22606e-07
6.55607e-07
0.00298008
6.37009e-07
9.21426e-06
1.44015e-06
0.0100217
0.000628893
1.13756e-06
1.39917e-06
8.11962e-07
1.13451e-06
0.00626637
9.35437e-07
0.000316934
6.71365e-07
1.49223e-05
1.29569e-06
1.06327e-06
6.00112e-07
1.22473e-06
6.49176e-07
0.0150867
5.60667e-07
1.40826e-06
1.01215e-06
0.000190412
1.2521e-06
1.67498e-06
0.000112225
1.35002e-06
8.40541e-07
3.81079e-06
5.33274e-07
1.35195e-06
1.15739e-06
3.44701e-06
5.85832e-07
0.0202518
5.20108e-07
7.93392e-07
3.11599e-06
8.39321e-07
5.3583e-07
0.000103181
4.48277e-06
0.000182022
0.000285986
1.58075e-06
1.35514e-06
9.42518e-07
1.49927e-06
1.65519e-06
0.000209523
0.00724573
9.76014e-07
0.00322216
0.00432959
1.50984e-06
5.32859e-07
1.64439e-06
0.000126138
0.00306098
1.37031e-06
1.65473e-06
7.14562e-07
9.11532e-07
1.43242e-06
5.04945e-06
5.40622e-07
3.20113e-06
5.48478e-07
9.86149e-07
0.000407733
1.47944e-06
1.14159e-06
7.93697e-05
5.76166e-07
0.00389765
5.17287e-07
5.14417e-07
0.000604803
6.50548e-07
9.36525e-07
0.000103449
5.19748e-07
9.03195e-07
7.11678e-07
1.88174e-06
5.70606e-07
0.000268975
4.94118e-07
1.67472e-06
1.57566e-06
4.29031e-07
2.19288e-06
1.47756e-06
5.6383e-07
1.43338e-06
1.43335e-06
0.000234208
1.76975e-06
1.51555e-06
1.53739e-06
0.000335837
1.62507e-06
3.96478e-06
1.18726e-06
8.5069e-07
1.39968e-06
9.07704e-07
1.26381e-06
1.82008e-06
7.03343e-05
0.000317372
5.08091e-05
9.11375e-07
2.57767e-06
0.000336659
1.47065e-06
8.92803e-07
9.65307e-07
1.35891e-06
4.1486e-07
5.02375e-07
1.83668e-06
4.15154e-07
0.0109338
1.41556e-06
1.40104e-06
1.73904e-06
6.87736e-07
0.0168316
6.92131e-07
0.000505221
1.1378e-06
7.99112e-07
1.84595e-06
1.36883e-06
0.000166458
1.19309e-06
0.000342291
1.50607e-06
1.75555e-06
4.48576e-06
1.51448e-06
0.000143205
5.83765e-07
8.5563e-07
5.29917e-07
1.17522e-06
5.16906e-07
0.0124029
4.18637e-07
1.40493e-06
1.42625e-06
0.00813548
9.01256e-05
1.49028e-06
3.90173e-06
7.06996e-07
7.10721e-07
1.24897e-06
1.33255e-06
6.27553e-07
1.50928e-06
5.77288e-07
7.63597e-07
5.81998e-06
1.63874e-06
5.24963e-07
1.47167e-06
1.2455e-06
0.0170357
0.0171217
3.06244e-06
1.47905e-06
0.00228054
1.61632e-06
0.00100513
1.5337e-06
1.55922e-06
0.0204241
1.09742e-06
6.79852e-07
1.38513e-06
8.89171e-07
0.0037501
1.25304e-06
1.45793e-06
8.3529e-07
5.04489e-07
1.379e-06
0.0185157
1.24748e-06
0.00020293
1.89237e-06
0.0197896
0.0238425
1.81154e-06
2.44692e-06
2.11642e-06
1.58222e-06
7.9442e-07
1.21003e-05
1.16772e-06
1.48438e-06
0.000247447
2.11155e-06
6.46096e-07
1.55194e-06
1.4875e-06
1.70216e-06
9.70932e-07
8.0319e-07
0.000277429
5.32552e-07
5.43589e-07
9.97055e-07
2.00435e-05
6.17678e-07
0.000413813
6.62541e-07
4.36088e-06
1.15205e-06
1.66027e-06
1.34022e-06
1.51579e-06
9.44547e-07
1.67698e-06
5.35231e-07
0.0037288
5.11827e-07
2.21831e-06
1.88352e-06
1.74626e-06
1.13841e-06
0.00377833
1.09051e-06
1.50329e-06
0.0241575
1.43879e-06
0.0005273
1.62128e-06
4.11716e-06
1.57111e-06
8.31082e-07
0.000251779
1.1154e-06
1.49505e-06
0.000451756
9.50137e-07
0.0234149
0.000414966
1.57213e-06
4.16774e-07
1.66207e-06
9.31754e-06
1.52613e-06
0.00113458
1.26255e-06
1.69387e-06
5.24466e-05
0.00022436
9.33986e-07
2.27832e-05
0.000204292
1.05333e-06
5.61293e-07
3.9013e-06
4.33589e-06
1.13444e-06
6.94987e-06
0.000369495
8.84229e-06
1.56552e-06
1.74188e-06
2.26565e-06
1.39286e-06
6.75858e-07
0.0126442
0.00044359
5.04719e-07
0.0222639
7.04322e-07
8.28986e-07
0.00153216
0.000278237
1.39816e-06
1.39949e-06
7.26063e-06
0.000747431
1.64948e-06
1.67079e-06
9.14886e-07
3.20251e-05
0.0037615
1.69802e-06
1.58408e-06
4.215e-06
8.16844e-07
0.00116985
1.65729e-06
1.53585e-06
1.28642e-06
1.61559e-06
1.11997e-06
1.21846e-06
1.64493e-06
3.52664e-05
0.0177447
8.66807e-07
0.000312645
2.67635e-06
0.000757354
1.47403e-06
0.0084751
1.43306e-06
1.46386e-06
5.0924e-07
6.00263e-07
1.63671e-06
1.94606e-06
1.23518e-06
5.02933e-07
6.03001e-06
1.72932e-06
0.0175814
1.75179e-06
0.000215875
1.25645e-06
2.10815e-06
0.0185223
1.68565e-06
8.73451e-07
1.35264e-06
1.28164e-06
0.0192616
1.52632e-06
2.33608e-06
2.4578e-06
4.956e-07
0.000424628
0.0197895
0.0131945
5.69404e-07
0.00073898
7.57147e-05
0.000275866
5.59675e-07
0.000233851
0.000314944
0.000376896
7.69792e-05
9.17919e-07
0.000243133
6.03295e-07
8.22765e-07
0.00206953
3.94004e-05
0.00397241
9.63392e-06
1.52665e-06
0.000130188
0.0260509
0.0127537
1.52999e-06
5.62284e-07
1.24e-06
0.000174734
1.88191e-06
0.00253853
8.40035e-07
0.0256416
2.72575e-05
0.00599959
1.4073e-06
0.00294919
6.24271e-07
1.2436e-06
4.47015e-07
0.00022349
5.34399e-07
1.63602e-06
1.59978e-06
0.00081007
8.50307e-07
2.12223e-06
5.96505e-07
0.00587304
7.36168e-05
4.8117e-06
1.85181e-06
0.000397673
1.57312e-06
1.57204e-06
1.24805e-05
8.1716e-06
0.0016849
2.42555e-05
1.46317e-06
0.000366682
1.06747e-06
1.96132e-06
5.22963e-05
6.0614e-07
9.19614e-07
1.58155e-06
0.000712715
5.36906e-07
0.000969059
0.00339735
1.80694e-06
1.07026e-06
0.00348007
0.0228305
9.71443e-07
0.00012889
1.06835e-06
1.33952e-06
8.70694e-06
5.75224e-07
4.88111e-07
1.32562e-06
2.47781e-06
5.39406e-07
4.94051e-07
0.00011436
1.84409e-06
0.000190521
1.34116e-06
1.92498e-06
0.000579807
0.000296018
0.00524103
6.33006e-07
0.0262459
5.02086e-07
0.00116967
8.56326e-07
1.34348e-06
0.00482603
0.00044649
1.47046e-06
1.5646e-06
7.84816e-07
0.0222287
2.36378e-06
1.52963e-06
8.82613e-07
8.80429e-07
2.15154e-05
0.0132143
1.60902e-06
1.27602e-06
0.00429269
0.00672027
0.0213382
5.19815e-06
7.89993e-07
5.40066e-07
1.34984e-06
8.46298e-07
1.35408e-06
0.000306989
4.29494e-06
1.21917e-06
6.50847e-07
8.38956e-07
5.42227e-07
1.80413e-06
8.86148e-07
1.02007e-05
1.26378e-06
1.48726e-06
1.23278e-06
4.99532e-06
1.33817e-06
1.12744e-06
5.86261e-06
5.46086e-05
1.42914e-06
1.13738e-06
0.0211997
0.023745
2.64245e-06
1.35323e-06
0.0117637
0.0194283
1.81812e-06
0.000260819
2.04674e-06
9.53821e-07
0.0174241
1.64072e-06
7.75853e-06
1.07746e-06
2.41053e-06
5.24078e-07
2.09836e-06
1.35244e-06
1.27594e-06
1.72278e-06
5.18188e-07
1.35996e-06
3.82886e-06
1.43655e-06
1.64676e-06
1.36588e-06
1.90535e-06
1.05729e-06
0.0228528
8.72664e-07
2.6671e-06
8.18919e-07
1.93497e-06
1.79355e-06
1.66763e-06
1.01614e-06
1.53197e-06
1.98539e-06
8.00856e-06
0.000203835
1.82117e-06
8.34104e-07
0.0188191
6.19159e-07
0.0234426
4.44958e-07
1.40903e-06
0.0239697
1.23047e-06
0.000559348
1.58762e-06
8.40243e-07
1.56467e-06
1.71437e-06
7.80235e-07
5.62482e-07
0.00116627
5.68509e-07
9.35853e-07
4.83647e-05
6.0229e-07
9.37976e-05
6.27092e-07
2.60317e-06
1.43736e-06
1.38991e-06
8.63361e-06
0.00375648
7.98411e-07
9.17755e-07
1.00555e-06
1.33826e-06
7.9799e-07
1.20487e-06
0.0208261
0.000323821
1.80366e-06
1.48983e-06
1.16894e-06
1.70161e-06
2.87181e-06
0.0205695
5.65238e-07
7.75084e-07
3.00744e-05
5.82283e-06
0.00024231
5.97058e-07
0.000296866
0.0124532
1.92478e-06
9.40522e-07
1.72992e-06
5.97116e-05
1.19462e-06
9.11932e-07
1.34614e-06
9.122e-07
1.06195e-06
4.37311e-07
8.05133e-05
1.10467e-06
9.94439e-07
0.000104123
1.07021e-06
3.87769e-06
0.00209247
1.56104e-06
1.34517e-06
0.000493734
1.11665e-06
0.000403647
8.21917e-07
1.46213e-06
1.55148e-06
1.03134e-06
4.86081e-07
4.89865e-07
3.28142e-07
0.000473555
2.98883e-06
0.000646611
0.0201338
2.17789e-06
1.05434e-06
5.95701e-07
4.96476e-07
1.62906e-06
4.18308e-07
0.00103855
1.28019e-06
1.1549e-06
0.0227196
1.01301e-06
4.59481e-07
0.000547174
1.63085e-06
1.18451e-06
0.0197632
5.69181e-05
0.0221694
0.00109808
5.45587e-07
1.06266e-06
6.0204e-06
0.0272015
8.67219e-07
1.31673e-05
1.05888e-05
0.000131749
0.0125659
8.59971e-06
7.27061e-07
0.000400891
4.58511e-07
2.66825e-06
5.59435e-06
2.46067e-06
9.59736e-05
2.00491e-06
0.00226042
7.29898e-07
1.76547e-06
0.00283699
8.02047e-07
3.07725e-06
5.48335e-07
1.69945e-06
1.36757e-06
0.000614548
8.69951e-05
4.46707e-06
0.00569469
5.38107e-05
1.64334e-06
1.01596e-06
6.86377e-07
8.29563e-07
1.54951e-06
2.16548e-06
0.00028149
4.21841e-07
1.45363e-06
4.57259e-07
1.14816e-06
5.7239e-07
0.00309578
3.59431e-06
1.08187e-06
1.48623e-06
6.32853e-07
1.8052e-06
1.55864e-06
0.0197998
1.27094e-06
8.65797e-07
1.14564e-06
2.73103e-06
2.94645e-05
6.75738e-06
0.000234686
0.0213691
6.6557e-07
0.00024481
0.00118719
0.0262949
1.19065e-06
0.000301877
6.27291e-07
0.014391
5.11611e-07
0.000393474
5.3718e-07
1.46797e-06
6.53974e-07
0.000332955
0.000295383
1.7017e-06
7.65636e-07
1.10753e-06
1.34559e-06
0.0119716
2.40831e-06
1.58985e-06
1.46845e-06
6.79428e-07
1.11039e-06
2.82577e-05
0.000132019
8.93389e-07
1.31055e-06
1.56564e-06
2.82709e-06
1.14453e-06
2.72759e-06
7.70604e-07
1.48175e-06
1.59254e-06
8.85286e-06
0.00252355
2.74812e-06
0.000233507
9.47499e-07
1.33911e-06
1.39179e-06
4.4461e-07
1.294e-06
0.000325149
1.38428e-06
0.000802948
1.01422e-06
9.62162e-07
4.93122e-07
9.11442e-07
0.000164746
0.0203298
3.74164e-06
4.31686e-06
1.12151e-06
0.00129337
1.92208e-06
1.47443e-06
0.00720767
0.0115638
1.44046e-06
8.91867e-07
1.57982e-06
1.41925e-06
0.000329802
6.31967e-06
5.5118e-07
1.23662e-06
1.91691e-06
4.03903e-06
5.78432e-07
7.83781e-07
1.58752e-06
3.65683e-06
1.68713e-06
0.00047381
0.000508666
0.0181634
9.33645e-07
1.06725e-06
1.29569e-06
2.02341e-06
2.60413e-05
9.75537e-07
1.71373e-06
6.38803e-07
9.10612e-07
7.42333e-07
0.0186455
0.00925839
2.10463e-06
8.87065e-07
1.53959e-06
5.16493e-07
2.51221e-06
8.38516e-07
0.000354988
0.000929972
7.9239e-07
0.0272155
5.89928e-07
0.00115577
7.17883e-07
8.27741e-07
1.23461e-06
0.0252648
1.82425e-06
0.00905044
1.31713e-05
6.97797e-07
1.68285e-06
1.59443e-06
9.22771e-07
0.00425701
0.00691502
9.85451e-07
1.49511e-06
9.05651e-07
1.09474e-05
7.61256e-07
6.50107e-07
1.60663e-06
0.000181552
1.14968e-06
6.69009e-07
1.75928e-06
0.00116136
1.32468e-06
0.0139586
4.16735e-07
8.22974e-07
6.65551e-07
1.21261e-06
2.71237e-06
1.56471e-06
1.53934e-06
1.53625e-06
9.81095e-07
1.32798e-06
1.99438e-06
5.6542e-07
0.0040815
1.36283e-06
2.4439e-06
0.0222702
1.58047e-06
1.00868e-06
6.38156e-07
1.24992e-06
0.000352832
9.62382e-07
1.53612e-06
0.000626264
1.35726e-06
2.73311e-06
1.62208e-06
4.90408e-07
4.37162e-07
1.62842e-06
0.00110884
4.34968e-06
0.000148365
9.13455e-06
1.6391e-06
1.52885e-06
1.51751e-06
2.32406e-06
1.47276e-06
1.17162e-06
0.0201784
6.48823e-06
7.56637e-07
1.569e-06
3.35439e-06
7.12729e-07
3.87879e-05
3.11925e-07
1.31142e-06
0.00376453
3.31592e-06
6.00378e-07
1.79644e-06
1.13158e-06
7.97214e-07
4.20292e-07
9.21664e-07
0.0217581
1.14414e-06
7.95466e-07
0.0171482
1.07074e-06
0.0123338
5.25108e-07
1.09565e-06
0.025092
2.06146e-06
1.23997e-06
0.000372545
0.0258876
0.018398
8.26e-07
0.000334747
1.51904e-06
0.00405468
0.0225165
7.94126e-07
7.36598e-06
9.24201e-07
1.32053e-06
1.58218e-06
9.90475e-07
1.56809e-06
9.15839e-07
8.30574e-07
0.0232769
1.26097e-06
2.5654e-06
6.71351e-07
4.1711e-07
5.42994e-06
1.1008e-06
1.29167e-05
0.0059163
0.0269992
5.48381e-07
1.06919e-06
1.67854e-06
5.68265e-07
1.90657e-06
0.00134745
2.58472e-05
4.60821e-07
4.79844e-05
7.13748e-05
1.25457e-06
1.24665e-06
5.69417e-07
0.0243441
1.20767e-06
1.46095e-05
0.00566328
6.42178e-06
4.62561e-07
2.13569e-06
3.02578e-06
7.52388e-07
0.0237783
0.000297053
1.15131e-06
3.35962e-05
1.27985e-06
5.63826e-06
8.90276e-07
4.57244e-07
1.48037e-06
4.59531e-07
4.55032e-07
1.6389e-06
6.75991e-07
4.59292e-07
1.53112e-06
9.05084e-07
1.2995e-06
7.07667e-07
6.21035e-05
1.48196e-06
5.86659e-07
1.39768e-06
2.7354e-06
5.28621e-07
1.39908e-06
7.47977e-07
3.27735e-06
2.88329e-05
1.43476e-06
4.23876e-07
6.67549e-07
1.45067e-06
2.54301e-06
1.26955e-06
3.9534e-05
3.88303e-05
0.00169014
6.49462e-05
1.3645e-06
0.00069085
0.00279938
0.00195224
5.58468e-07
5.52437e-06
0.000182583
0.000229386
7.42083e-07
6.82458e-07
5.40627e-07
5.30995e-07
7.3521e-06
6.09487e-07
1.27884e-06
4.30516e-06
1.28765e-06
1.2976e-06
5.37911e-07
1.41403e-06
4.58026e-07
2.09628e-06
5.3921e-06
5.78974e-06
1.7391e-06
4.57181e-06
0.00178202
8.87653e-05
1.80959e-06
5.27746e-07
1.56698e-06
1.52854e-06
2.84392e-06
1.11847e-06
1.27017e-06
8.99901e-07
1.53034e-06
1.33567e-06
5.07532e-07
0.0230015
1.23489e-06
6.53791e-07
0.000431198
7.45676e-07
2.69534e-06
5.51161e-07
1.32354e-06
1.45149e-06
5.80796e-05
1.93422e-06
4.95601e-07
5.2413e-07
1.28341e-06
1.44896e-06
1.41723e-06
1.31155e-06
0.000645918
0.0180857
5.65874e-07
8.75525e-05
1.2751e-06
2.05047e-06
0.0272392
4.39759e-05
0.000225161
0.000724436
3.03995e-05
5.37559e-07
7.7837e-07
1.58097e-06
0.0044739
0.000912406
1.55983e-06
1.0857e-05
8.19214e-07
0.00130723
0.000328181
7.37621e-07
8.3309e-07
0.000449238
1.30834e-06
0.000354097
2.94583e-06
0.000234623
1.4849e-06
0.000203767
9.69817e-07
1.04313e-06
1.35822e-06
6.54879e-06
2.06265e-05
0.000318797
4.83295e-07
1.64858e-06
1.79129e-06
1.48914e-06
9.8958e-07
0.0211247
7.79539e-07
0.000432775
1.46641e-06
1.39682e-06
0.0198417
5.87102e-07
1.29256e-06
1.52834e-06
2.04632e-06
1.5114e-06
1.63045e-06
1.52405e-06
0.000207655
8.52538e-07
0.0242731
8.19107e-07
7.84985e-06
1.58902e-06
5.13052e-07
1.15949e-06
8.25274e-07
7.06358e-07
5.22445e-07
9.17305e-05
1.71446e-06
3.22386e-06
1.31906e-06
1.42169e-06
5.10733e-06
1.46874e-06
1.50798e-06
0.0183272
1.53959e-06
1.40256e-06
1.22721e-06
0.00775264
7.11439e-07
1.48111e-06
7.51309e-07
1.45673e-06
0.0254563
0.00282069
3.68732e-05
0.0086345
9.02569e-05
1.33608e-06
0.000296039
1.39304e-06
0.00327955
6.33651e-07
1.54355e-06
8.06258e-07
6.98949e-06
5.8263e-07
6.45223e-07
1.70619e-06
7.17076e-07
7.11973e-07
1.28715e-06
7.56496e-07
0.000275672
1.02273e-06
1.46211e-06
6.78649e-07
1.40928e-06
7.11815e-05
1.79867e-05
1.36573e-06
3.49201e-06
2.57864e-06
0.000310727
2.19567e-06
2.85379e-06
0.00103063
0.0010399
1.6263e-06
6.3461e-07
1.39741e-06
4.59399e-05
1.36114e-06
1.28485e-06
1.24692e-06
8.72329e-07
1.19183e-06
5.26559e-07
7.91881e-07
8.47517e-06
0.0218601
1.049e-06
1.04913e-06
6.31719e-07
0.0220075
1.15484e-06
1.64282e-06
6.94553e-07
8.20415e-07
0.000923166
2.05531e-06
1.02367e-06
0.0186793
4.68179e-07
0.000298105
9.41027e-07
4.21883e-06
1.91695e-06
1.15389e-06
5.29734e-07
0.0186951
7.84317e-07
1.40186e-06
0.000790975
0.000305484
1.36732e-06
1.33824e-06
5.45045e-06
2.85609e-05
8.23494e-07
7.2124e-06
7.43572e-06
9.53225e-07
6.41487e-07
1.6787e-06
6.89232e-07
1.36606e-06
0.00461889
0.000254909
0.000596899
8.17561e-07
1.28072e-06
1.55506e-06
1.5476e-06
2.06361e-06
2.80719e-06
2.68921e-07
2.51512e-06
8.13623e-07
5.29667e-07
4.82953e-07
1.6314e-06
2.13713e-06
5.55278e-07
1.53967e-06
1.10217e-06
5.3885e-07
1.65837e-06
5.1232e-05
0.000279838
1.31781e-06
0.0198375
5.59513e-07
2.14285e-05
1.77222e-06
1.43245e-06
1.47227e-06
1.6166e-06
0.0222824
1.33368e-06
4.59975e-07
1.1586e-06
1.45422e-06
1.22287e-06
8.94438e-05
0.000275503
1.21477e-06
0.000293946
0.000391931
1.64402e-06
8.5524e-07
1.18657e-06
1.72398e-06
0.0165767
1.81275e-06
6.84223e-07
1.4714e-05
1.91439e-05
1.61785e-06
9.73033e-07
1.39682e-06
0.00870744
2.66913e-06
1.95588e-06
2.90764e-06
4.58558e-07
5.26133e-07
1.63178e-06
2.83217e-06
2.1343e-06
0.000324018
3.17277e-06
0.000358431
1.61718e-06
1.62396e-06
1.20951e-06
1.85171e-06
1.59433e-06
2.51811e-06
9.7399e-07
1.91206e-06
4.59938e-07
0.0210435
1.22069e-06
1.12262e-06
1.79947e-06
1.32645e-06
5.3822e-07
0.000294505
1.30324e-06
1.92244e-06
1.20664e-06
9.01891e-07
1.71402e-06
0.000246627
3.14837e-06
1.54086e-06
2.56995e-06
9.30063e-07
1.523e-06
4.53006e-07
0.000318089
1.27054e-06
1.78807e-06
0.000303086
1.59053e-06
1.14633e-06
0.0266143
2.48672e-06
0.00438022
1.60963e-05
1.20516e-06
1.83218e-06
0.000369837
0.000860605
6.26988e-07
8.25123e-06
1.6939e-06
0.000231764
1.29917e-06
1.55748e-06
0.00422716
0.000369422
9.32362e-07
5.18408e-07
1.79772e-06
0.000507005
1.12032e-06
0.000451194
1.54956e-06
8.81194e-07
1.66798e-06
5.14302e-06
0.00538419
0.000153362
1.66204e-05
2.31041e-07
2.02339e-06
1.28856e-06
1.6723e-06
3.0457e-06
0.012017
0.000945375
1.14081e-06
4.16904e-07
2.04983e-06
1.05548e-06
1.37746e-06
0.00288684
1.53954e-06
0.000214406
1.14133e-06
8.16017e-07
2.1641e-05
2.65766e-06
2.65564e-06
2.26756e-06
0.0113081
0.00119094
5.28136e-07
5.28985e-07
4.51112e-07
1.80223e-06
1.10796e-06
0.000552429
1.29191e-06
1.2105e-06
1.61938e-06
9.25981e-06
8.21919e-07
7.82418e-07
3.93684e-05
2.0175e-06
2.95757e-06
6.04736e-07
0.00974316
1.60645e-06
1.14618e-06
2.55703e-05
7.67329e-07
1.70619e-06
1.53096e-06
1.31801e-06
1.53422e-06
1.34821e-06
1.52041e-06
7.89988e-07
1.065e-06
1.51871e-06
5.3049e-07
1.21437e-05
0.000312647
7.75697e-07
0.00126203
0.00475431
1.52497e-06
1.24828e-06
1.44236e-06
1.41753e-06