/*--------------------------------*- C++ -*----------------------------------*\
| =========                 |                                                 |
| \\      /  F ield         | OpenFOAM: The Open Source CFD Toolbox           |
|  \\    /   O peration     | Version:  v2012                                 |
|   \\  /    A nd           | Website:  www.openfoam.com                      |
|    \\/     M anipulation  |                                                 |
\*---------------------------------------------------------------------------*/
FoamFile
{
    version     2.0;
    format      ascii;
    class       volScalarField;
    location    "100";
    object      k;
}
// * * * * * * * * * * * * * * * * * * * * * * * * * * * * * * * * * * * * * //

dimensions      [0 2 -2 0 0 0 0];


internalField   nonuniform List<scalar> 
18232
(
6.2181e-05
0.0104741
0.0974139
0.000138559
6.63116e-05
0.0505657
0.00966537
6.00627e-05
4.68097e-05
0.0104765
6.67059e-05
8.39337e-05
0.0105304
0.00506772
0.000110978
0.0518259
0.000108934
0.0638836
8.12574e-05
0.000296362
0.112216
0.00643354
0.0106431
8.12391e-05
6.20147e-05
6.87988e-05
8.5233e-05
0.0113731
5.55595e-05
0.00314459
6.86203e-05
0.000346894
0.000114692
9.11082e-05
0.000132752
5.99297e-05
0.106643
0.0524199
0.0256331
7.71589e-05
0.000113284
8.10189e-05
0.0983818
8.10049e-05
9.81158e-05
8.9481e-05
0.00409699
9.52938e-05
0.000110169
0.0499035
0.000108532
0.000107817
6.35058e-05
0.00398776
6.39788e-05
4.60726e-05
0.0381941
0.00414642
8.62116e-05
0.000106554
0.000142131
0.00989002
0.0259565
0.0138021
7.31435e-05
6.82942e-05
0.0232405
8.94288e-05
7.24983e-05
8.61666e-05
8.96963e-05
4.41954e-05
0.0107133
8.12859e-05
0.000140361
8.08695e-05
8.49439e-05
0.0442266
0.0278522
0.000101085
0.000248201
0.000133832
0.00040232
8.96061e-05
4.45358e-05
0.0160219
6.65484e-05
8.60125e-05
0.0105131
0.103221
9.86909e-05
7.66866e-05
0.000136966
0.00539043
7.30799e-05
8.99256e-05
6.66476e-05
7.6479e-05
6.65615e-05
9.37602e-05
0.078226
0.0173312
6.94591e-05
5.55387e-05
8.94576e-05
0.0103177
8.70551e-05
0.00406805
0.05859
0.011421
0.00476706
8.4548e-05
0.000133742
0.00249576
5.56298e-05
8.87694e-05
9.34247e-05
0.0103089
0.0512461
6.81492e-05
4.44742e-05
0.0111762
6.805e-05
0.000359706
8.04813e-05
7.37854e-05
9.46815e-05
0.101147
0.000191163
0.000113235
8.05789e-05
0.000131924
6.36273e-05
7.42753e-05
8.95957e-05
5.57648e-05
0.000139862
0.00011063
0.0932164
0.0599815
5.5774e-05
0.108178
0.0957133
0.000476206
7.55565e-05
8.88975e-05
9.43931e-05
0.000205374
7.70398e-05
6.70634e-05
0.000206705
6.34331e-05
0.0712925
9.78277e-05
0.105462
0.000193935
0.0964955
0.000112268
8.01069e-05
0.110366
7.95639e-05
0.00143647
0.107515
0.0182004
0.0079681
7.47455e-05
0.000151209
0.0578448
8.89886e-05
0.000192469
8.32967e-05
0.000469726
0.000193321
8.15349e-05
5.20747e-05
6.20092e-05
0.0161709
8.87199e-05
5.5616e-05
6.20726e-05
6.33632e-05
0.0478797
9.49899e-05
0.0185943
5.31665e-05
6.39268e-05
6.34307e-05
0.101532
0.000107245
0.000131015
8.94907e-05
0.0159633
4.97095e-05
4.98171e-05
8.32729e-05
4.94898e-05
0.000150268
8.8824e-05
9.48401e-05
8.04124e-05
6.47161e-05
6.37677e-05
8.56849e-05
5.16444e-05
8.86489e-05
8.0666e-05
0.000104424
4.69326e-05
8.49387e-05
5.27957e-05
5.63565e-05
6.74772e-05
6.57736e-05
9.99449e-05
8.5501e-05
0.0102834
8.42562e-05
8.92909e-05
0.0139629
0.000247534
9.83477e-05
8.93539e-05
0.0103306
0.000392469
7.2864e-05
6.37615e-05
6.76232e-05
7.07077e-05
0.00010402
0.00013556
0.0145772
5.65772e-05
5.21855e-05
6.28526e-05
7.26605e-05
5.57061e-05
7.27195e-05
0.000189429
8.79221e-05
7.18737e-05
0.105138
6.16521e-05
7.05182e-05
6.11628e-05
0.00419035
5.60304e-05
0.000108467
8.73233e-05
6.36469e-05
5.17518e-05
0.107737
0.000106947
0.125215
0.000111818
0.000131987
0.0113381
8.93618e-05
0.0241386
4.95881e-05
7.48241e-05
0.013476
6.64483e-05
0.0834655
7.66236e-05
7.95867e-05
0.000178831
0.000173765
7.2316e-05
6.18334e-05
0.0828259
5.63581e-05
7.19582e-05
0.000204117
0.0762606
0.00287319
8.20141e-05
0.00103176
7.97898e-05
6.35499e-05
0.00111236
0.0457545
0.00454264
0.00562565
5.10713e-05
0.000104556
6.79808e-05
7.20389e-05
7.79439e-05
0.104792
0.000434583
0.0928597
0.00823469
5.5994e-05
6.05906e-05
7.16903e-05
0.0001114
6.35641e-05
5.66671e-05
6.47009e-05
0.0101521
6.02649e-05
0.000352891
0.123749
6.29412e-05
5.11799e-05
7.70116e-05
9.08927e-05
0.000106623
6.7061e-05
6.07963e-05
6.78768e-05
0.000178949
0.0105935
6.37885e-05
6.79031e-05
0.0032316
7.97425e-05
6.05211e-05
8.26505e-05
4.45442e-05
7.65461e-05
0.0400964
0.000149104
7.43805e-05
0.000176656
0.00156878
8.39941e-05
7.68153e-05
6.69668e-05
7.68399e-05
0.00014663
0.000145864
0.00761412
9.10625e-05
0.000107592
0.000148923
6.92799e-05
8.21158e-05
8.75046e-05
0.00507253
0.000253537
0.000414318
8.49319e-05
0.000231389
7.9373e-05
0.000106849
0.0270564
6.77903e-05
8.84973e-05
5.27296e-05
7.8183e-05
0.000116776
9.92074e-05
6.43461e-05
9.11809e-05
5.27079e-05
0.0574568
9.00295e-05
7.32729e-05
8.95405e-05
6.73603e-05
0.000295181
0.000114769
6.3798e-05
7.63107e-05
7.76297e-05
5.31431e-05
8.97722e-05
0.000113705
6.82181e-05
5.58221e-05
8.52783e-05
0.0289801
6.45395e-05
7.19512e-05
8.38044e-05
0.0947366
4.44973e-05
6.57564e-05
0.0245067
0.0036247
7.95991e-05
8.8587e-05
0.000110326
4.46355e-05
4.45739e-05
9.086e-05
8.84899e-05
8.68795e-05
6.57091e-05
6.1988e-05
0.0107075
6.38737e-05
6.18863e-05
7.12611e-05
9.18426e-05
0.0123422
6.79804e-05
0.0449351
9.42099e-05
0.000209919
6.0939e-05
8.98768e-05
9.40929e-05
0.0224127
0.000114656
8.67206e-05
0.00025679
0.000128757
6.18806e-05
0.0147031
8.66088e-05
0.00721566
8.95554e-05
7.35171e-05
6.60443e-05
9.14036e-05
0.0234303
6.07564e-05
7.10729e-05
6.11612e-05
0.0144186
0.00159978
0.000112772
9.80346e-05
8.03833e-05
0.00016012
9.17818e-05
8.93777e-05
0.0984838
0.0418494
8.95936e-05
8.97534e-05
7.70267e-05
6.09966e-05
5.00833e-05
0.000164976
0.000103562
6.07716e-05
0.000105663
6.77585e-05
7.69822e-05
0.0107573
6.86052e-05
8.22007e-05
8.70852e-05
0.000114302
0.0434127
6.56924e-05
9.10977e-05
0.0598657
6.99462e-05
0.000159203
8.32421e-05
7.94617e-05
7.96607e-05
7.64473e-05
0.010916
8.93224e-05
8.29391e-05
8.37851e-05
7.03397e-05
6.08732e-05
8.41268e-05
9.32686e-05
6.2057e-05
7.69634e-05
0.0131026
4.43738e-05
4.43736e-05
0.0248759
9.2874e-05
0.102737
0.0938245
0.00884054
5.684e-05
5.66066e-05
8.90934e-05
0.00713952
6.06598e-05
4.50635e-05
8.80617e-05
0.00038274
6.05785e-05
6.35648e-05
6.36108e-05
0.000160532
0.0358574
0.000667387
8.9119e-05
8.56271e-05
0.0990044
0.0749639
6.02265e-05
0.0107332
8.28285e-05
0.0943919
8.13681e-05
6.10538e-05
5.68026e-05
0.0101314
5.92362e-05
4.96874e-05
7.56979e-05
0.0872654
5.26178e-05
8.89475e-05
4.93672e-05
0.112331
6.78902e-05
0.000103478
4.54472e-05
7.02583e-05
4.73219e-05
0.077233
8.95359e-05
5.08202e-05
8.8276e-05
8.92753e-05
6.47673e-05
5.62322e-05
6.60841e-05
6.40329e-05
8.11411e-05
7.94314e-05
7.59389e-05
0.000118929
0.0298958
8.25162e-05
0.000114789
7.53058e-05
0.111905
0.0107328
6.34383e-05
0.000243389
8.95394e-05
0.0104016
6.33863e-05
0.0143277
8.50145e-05
5.9921e-05
0.0211088
6.90702e-05
9.10987e-05
0.0139371
4.63757e-05
7.0567e-05
6.02723e-05
0.103628
6.64096e-05
0.000100194
8.94598e-05
0.000116007
6.62885e-05
0.000211746
9.93353e-05
5.24838e-05
7.78229e-05
7.79552e-05
9.29428e-05
9.53812e-05
6.80361e-05
4.83322e-05
0.0111939
0.0911017
0.00979246
0.000100544
9.25355e-05
0.00604746
0.00287936
5.53017e-05
0.0774701
5.98002e-05
7.25046e-05
5.52888e-05
4.77553e-05
5.25212e-05
0.000115765
4.49912e-05
0.0504278
6.99834e-05
5.99634e-05
0.00135321
0.0742204
0.0427855
5.49954e-05
0.000281817
7.64004e-05
8.93691e-05
4.42063e-05
4.73302e-05
5.62817e-05
0.0954804
7.57686e-05
6.91317e-05
0.113089
6.53568e-05
0.000112333
0.0070566
5.71207e-05
9.5422e-05
0.00871741
0.0407743
7.62091e-05
6.21449e-05
6.33361e-05
6.43356e-05
6.0231e-05
0.0979362
6.95251e-05
0.0390605
7.6469e-05
8.91723e-05
0.0420159
6.45421e-05
0.0966211
0.0999234
7.04192e-05
6.62129e-05
5.06617e-05
5.03323e-05
6.48021e-05
0.0034315
0.000935156
8.6566e-05
0.000473492
0.00845638
0.000118998
0.000102405
8.39031e-05
0.00198899
9.1275e-05
6.52183e-05
0.0124739
0.00940052
0.000107193
0.00010713
7.33564e-05
6.37866e-05
7.43582e-05
0.0288229
0.00227001
5.30183e-05
7.5921e-05
0.00983651
8.3109e-05
0.00456239
7.61371e-05
7.23393e-05
5.23423e-05
0.000104249
5.32879e-05
0.000116675
0.000682847
7.1586e-05
5.2753e-05
7.91778e-05
0.00319092
7.50168e-05
6.50787e-05
0.000119647
9.71808e-05
8.22427e-05
5.28842e-05
0.00010536
0.000201894
0.000118976
8.75482e-05
4.45835e-05
5.72224e-05
0.0966127
6.61386e-05
7.56183e-05
0.000121632
7.74303e-05
8.69757e-05
9.86023e-05
9.30084e-05
5.54461e-05
7.58451e-05
5.68693e-05
7.34859e-05
0.000225483
9.52527e-05
5.99418e-05
8.46651e-05
0.111581
7.12262e-05
8.9333e-05
5.66284e-05
7.47678e-05
6.83294e-05
5.55625e-05
0.0520602
7.57529e-05
6.14336e-05
5.01275e-05
8.20162e-05
0.0102116
9.44576e-05
0.0103851
7.02019e-05
8.23668e-05
6.08877e-05
0.000486956
6.16911e-05
0.000114538
0.000109207
7.14872e-05
8.89787e-05
5.67752e-05
7.11936e-05
9.16773e-05
8.37619e-05
0.132129
9.17793e-05
7.55817e-05
0.000107139
7.63716e-05
0.0549886
9.41797e-05
0.113427
7.10045e-05
7.48945e-05
8.77345e-05
8.3238e-05
8.407e-05
7.59934e-05
0.000256238
5.68764e-05
8.55847e-05
6.14162e-05
7.51051e-05
8.57041e-05
0.010512
9.13044e-05
8.2704e-05
6.95132e-05
0.0145004
9.04485e-05
0.000208888
0.0103366
7.05807e-05
0.00455217
0.0518712
0.034085
8.50254e-05
0.00576307
0.000102794
0.109524
8.95357e-05
6.44383e-05
9.48767e-05
8.17792e-05
0.0962581
0.131757
8.18987e-05
0.000159103
7.0595e-05
0.00347056
6.75846e-05
5.2614e-05
0.000236928
0.11219
5.45298e-05
8.67766e-05
0.000223819
6.7875e-05
7.79522e-05
7.86391e-05
0.000124696
7.65038e-05
0.0122151
7.57222e-05
8.73894e-05
7.34384e-05
8.12218e-05
0.00012786
0.00117205
8.50264e-05
0.0566163
7.00086e-05
9.65597e-05
6.97022e-05
9.05365e-05
0.00368088
9.04335e-05
0.0089632
5.56233e-05
6.14164e-05
0.000303813
0.000139516
4.90864e-05
8.14235e-05
7.6013e-05
6.78535e-05
5.298e-05
9.35406e-05
7.52601e-05
0.00975189
0.000131946
6.36136e-05
9.87199e-05
8.57261e-05
9.84243e-05
7.18379e-05
8.17752e-05
9.4551e-05
7.34964e-05
6.05786e-05
0.0380813
8.87326e-05
0.102402
0.00028385
6.89036e-05
7.38164e-05
7.49969e-05
0.0943513
5.58394e-05
6.42611e-05
6.86454e-05
8.70062e-05
6.29806e-05
0.000244163
6.39862e-05
0.0102431
4.44881e-05
8.72643e-05
8.75188e-05
4.99184e-05
5.06334e-05
8.56615e-05
5.56577e-05
0.000101562
6.14893e-05
9.58615e-05
0.000147887
0.0850262
0.000152211
6.74373e-05
0.0203833
9.54617e-05
8.44493e-05
0.000126795
8.95767e-05
0.00015993
0.0100058
0.108707
0.0140318
6.76163e-05
8.41218e-05
9.42056e-05
4.43175e-05
9.31831e-05
7.52485e-05
0.0426642
0.00360291
0.11269
8.6295e-05
7.52476e-05
9.71692e-05
6.80662e-05
0.0685582
6.87244e-05
0.0118921
8.14517e-05
6.01183e-05
0.00944939
8.54487e-05
0.00010242
8.7219e-05
0.00288433
0.000146665
8.04765e-05
8.4839e-05
5.16888e-05
8.53922e-05
7.99128e-05
0.0321889
0.00023555
0.000121074
7.72472e-05
5.55507e-05
0.00976149
0.00874953
8.95784e-05
9.55123e-05
0.00665267
0.00786064
0.000100358
4.90713e-05
7.62028e-05
8.9163e-05
8.68389e-05
8.53929e-05
5.49945e-05
7.95634e-05
8.82762e-05
0.000233856
4.89407e-05
6.50139e-05
7.33996e-05
7.32659e-05
0.0283582
6.45937e-05
6.23971e-05
5.41454e-05
5.57476e-05
7.61749e-05
7.52686e-05
0.000104005
5.51241e-05
0.000147881
0.128446
0.0087122
8.84399e-05
0.113246
0.000238942
0.00890603
7.37666e-05
0.020774
0.0077833
6.4928e-05
9.39072e-05
6.9471e-05
6.87023e-05
0.000127969
0.000103187
6.84099e-05
0.00355271
7.60197e-05
6.74707e-05
8.96731e-05
5.62711e-05
5.51349e-05
5.63295e-05
0.00403082
0.00401571
0.000123719
8.21034e-05
7.65841e-05
6.41364e-05
0.00983043
7.10144e-05
7.80041e-05
0.00839818
6.40605e-05
0.0105463
6.89377e-05
5.01985e-05
0.107099
5.04694e-05
8.60559e-05
0.0904612
0.000113222
4.98564e-05
5.57248e-05
0.000171311
0.00962255
0.0151167
0.0434817
0.00010505
5.70492e-05
7.03286e-05
0.0148645
9.38366e-05
5.19286e-05
8.70348e-05
7.31565e-05
5.48634e-05
0.02977
0.105883
0.0325784
9.39072e-05
0.00386719
0.000203694
0.0021466
8.72205e-05
7.42192e-05
5.41801e-05
0.00412824
5.34039e-05
8.73949e-05
0.00860755
0.000108373
7.60497e-05
9.63542e-05
5.1501e-05
9.74975e-05
9.35441e-05
8.59257e-05
8.49967e-05
6.84211e-05
8.97783e-05
0.129611
7.0748e-05
0.000170468
9.40336e-05
6.50275e-05
7.01651e-05
7.01318e-05
7.98302e-05
0.00102797
5.9251e-05
0.103966
9.33241e-05
0.00962843
5.72571e-05
0.000100584
6.80246e-05
5.30363e-05
5.13414e-05
5.18223e-05
7.62466e-05
9.96397e-05
5.38767e-05
8.18676e-05
9.7217e-05
0.000164278
0.0249975
6.45661e-05
8.23226e-05
5.56706e-05
8.9083e-05
7.55264e-05
7.51545e-05
0.0475282
7.7071e-05
9.40641e-05
7.71648e-05
0.0400021
0.00871348
0.00244799
7.78929e-05
7.91443e-05
5.14773e-05
0.000155901
5.91233e-05
7.58986e-05
0.0122805
0.000199398
6.25994e-05
5.08696e-05
0.0123972
8.28796e-05
7.94132e-05
0.0374295
9.17775e-05
8.72535e-05
0.000100354
0.00880184
6.52052e-05
0.0319685
9.15775e-05
5.70981e-05
9.60805e-05
5.39222e-05
0.0745654
8.73152e-05
7.03804e-05
0.0127026
8.05875e-05
7.57516e-05
6.48196e-05
5.9666e-05
5.09239e-05
9.13782e-05
5.69812e-05
0.000171635
9.0009e-05
0.00037261
6.50203e-05
0.000391997
0.0136976
0.000100608
0.015332
5.56787e-05
0.00237161
7.08224e-05
0.0104642
5.07748e-05
0.107356
0.0015608
0.00297886
9.47973e-05
0.117499
0.00109559
0.0119883
9.31021e-05
7.94893e-05
8.00145e-05
0.000722649
0.0404295
9.34948e-05
9.01111e-05
0.000160637
7.82899e-05
0.0118294
5.30219e-05
6.91824e-05
0.0110284
5.09142e-05
5.5566e-05
8.69669e-05
6.72954e-05
5.62725e-05
0.0285487
5.55028e-05
0.00031823
8.47795e-05
0.0766673
0.0112182
7.49837e-05
8.37008e-05
6.3204e-05
7.55082e-05
0.0303877
6.97954e-05
0.00984568
5.71292e-05
0.00045034
8.03504e-05
7.27632e-05
5.37867e-05
7.79656e-05
5.59864e-05
0.0904719
5.19016e-05
8.38327e-05
7.05574e-05
0.00285262
7.97135e-05
9.28932e-05
0.00395684
8.30058e-05
6.40533e-05
0.000165814
5.0606e-05
8.20593e-05
7.57077e-05
0.000153782
5.31631e-05
0.107764
4.995e-05
6.21774e-05
0.000136355
6.40065e-05
5.07347e-05
0.00354076
0.000187188
0.0062094
0.00938588
9.01056e-05
8.22573e-05
6.81682e-05
8.71538e-05
9.81102e-05
0.00706896
0.0490415
6.92783e-05
0.0375276
0.0284955
8.72818e-05
5.05973e-05
9.16588e-05
0.00437799
0.0300499
8.33792e-05
9.15364e-05
5.8926e-05
6.88228e-05
8.48661e-05
0.000203589
5.10946e-05
0.000146265
5.13207e-05
6.96764e-05
0.0114519
8.90552e-05
7.56073e-05
0.00264951
5.26252e-05
0.0366848
4.98192e-05
4.96877e-05
0.0145311
5.63289e-05
6.94944e-05
0.00349042
4.99446e-05
6.72541e-05
5.88004e-05
0.000102011
5.23597e-05
0.00280468
4.87794e-05
9.3853e-05
0.000122606
4.52999e-05
0.000112344
8.59292e-05
5.26359e-05
8.49211e-05
8.56612e-05
0.00617303
9.82768e-05
8.70997e-05
8.77596e-05
0.010541
9.02853e-05
0.000171781
7.72072e-05
6.50171e-05
8.44098e-05
6.67281e-05
8.01073e-05
0.00010052
0.00360646
0.0101941
0.00143466
7.0737e-05
0.000125223
0.00871122
8.57211e-05
6.92346e-05
6.88795e-05
8.25897e-05
4.43509e-05
4.91611e-05
0.000116698
4.43732e-05
0.05504
8.5037e-05
8.35961e-05
9.51691e-05
5.82024e-05
0.10131
5.89914e-05
0.012761
7.52004e-05
6.41665e-05
0.000101401
8.3571e-05
0.0045472
7.74115e-05
0.0106561
8.73712e-05
9.65643e-05
0.000187324
8.75033e-05
0.00544099
5.30449e-05
6.52528e-05
5.04601e-05
7.63314e-05
4.98099e-05
0.0865331
4.45698e-05
8.37368e-05
8.53242e-05
0.0386936
0.00349045
8.66049e-05
0.000169253
5.85691e-05
5.87316e-05
7.99041e-05
8.16593e-05
5.55939e-05
8.6912e-05
5.32863e-05
6.20169e-05
0.000224254
9.18605e-05
5.02083e-05
8.58476e-05
7.94676e-05
0.103397
0.0980098
0.000130559
8.66903e-05
0.0127167
9.27384e-05
0.0116492
8.77744e-05
9.25548e-05
0.118554
7.35941e-05
5.73642e-05
8.33627e-05
7.00864e-05
0.0292378
7.90833e-05
8.52949e-05
6.42737e-05
4.92127e-05
5.66236e-05
0.105621
7.88792e-05
0.00260838
0.000100991
0.114743
0.115496
9.88011e-05
0.00012435
0.000111257
8.91987e-05
6.41991e-05
0.000378649
8.07128e-05
8.64103e-05
0.00829613
0.000110253
5.75339e-05
9.48544e-05
8.68275e-05
9.60055e-05
7.07121e-05
6.28778e-05
0.0043492
5.07252e-05
5.12606e-05
7.326e-05
0.000441188
5.48255e-05
0.0115337
5.74722e-05
0.000185803
7.55507e-05
9.16519e-05
8.26597e-05
8.82538e-05
6.97916e-05
9.40597e-05
5.08683e-05
0.041317
4.96202e-05
0.000112617
0.000102109
9.60512e-05
7.52063e-05
0.0387901
7.33518e-05
8.66395e-05
0.115405
8.47062e-05
0.00595876
9.10148e-05
0.000175002
8.97429e-05
6.37661e-05
0.00620489
7.43712e-05
9.38404e-05
0.011538
6.8282e-05
0.11838
0.00856828
8.98814e-05
4.44571e-05
9.47083e-05
0.000310824
8.86693e-05
0.0205596
7.99518e-05
9.32066e-05
0.00153915
0.00394412
6.77874e-05
0.000974149
0.00511048
7.20847e-05
5.22867e-05
0.0001679
0.000184981
7.53439e-05
0.000254046
0.0100663
0.00154855
8.97124e-05
9.59549e-05
0.000113086
8.38938e-05
5.71761e-05
0.0548994
0.0115512
4.92832e-05
0.112633
5.84774e-05
6.36479e-05
0.00880749
0.00925904
8.34398e-05
8.3696e-05
0.000251016
0.0123319
9.21008e-05
9.3602e-05
6.70374e-05
0.000572763
0.0261626
9.52602e-05
8.96906e-05
0.000142646
6.34095e-05
0.0210258
9.26784e-05
8.7831e-05
8.13185e-05
9.00098e-05
7.45618e-05
7.77654e-05
9.16118e-05
0.00305865
0.103259
6.50922e-05
0.00382789
0.000128043
0.0148943
8.81958e-05
0.0682344
8.76686e-05
8.61936e-05
4.97274e-05
5.38345e-05
9.12465e-05
0.000103018
7.87688e-05
4.92034e-05
0.000770716
0.000124614
0.110057
9.89906e-05
0.00930743
8.03446e-05
0.000110098
0.0987574
9.76282e-05
6.83331e-05
8.30015e-05
7.99504e-05
0.112317
8.75436e-05
0.000117635
0.000125676
4.88077e-05
0.0124612
0.110923
0.0835269
5.43879e-05
0.00772865
0.00250728
0.00260614
5.19657e-05
0.00605432
0.0100335
0.0114725
0.00396471
6.71215e-05
0.00604611
5.39689e-05
6.36679e-05
0.0214071
0.00093025
0.0425321
0.00219904
9.09928e-05
0.00454415
0.132345
0.0889251
8.75417e-05
5.20873e-05
7.84857e-05
0.00548639
0.000123079
0.0207345
6.56704e-05
0.0849786
0.000667345
0.0490844
8.67173e-05
0.0206405
5.75248e-05
7.91e-05
5.10345e-05
0.00723048
5.11474e-05
9.13371e-05
9.00617e-05
0.0157846
6.70356e-05
0.00011145
5.44294e-05
0.0483279
0.00183823
0.000199588
9.45727e-05
0.0106818
8.90304e-05
8.96322e-05
0.000384288
0.000284909
0.0150934
0.000534799
8.57563e-05
0.0078543
7.34567e-05
0.00010775
0.00109709
5.40807e-05
6.7215e-05
9.29733e-05
0.0113195
5.07648e-05
0.0145881
0.0389557
0.000124823
7.36634e-05
0.0370518
0.115127
7.08956e-05
0.00403905
7.28493e-05
8.36544e-05
0.000306924
5.44661e-05
5.14981e-05
8.31365e-05
0.000126382
5.34738e-05
5.3433e-05
0.0039861
0.000100022
0.00478765
8.23157e-05
0.000101835
0.014322
0.00969362
0.0376184
5.63099e-05
0.13131
4.91014e-05
0.020923
6.73185e-05
8.18715e-05
0.0456145
0.0126687
8.69632e-05
8.94027e-05
6.2239e-05
0.122477
0.000134684
8.89428e-05
6.72309e-05
6.57436e-05
0.000510242
0.0853503
9.25538e-05
7.96549e-05
0.0423121
0.0448559
0.123469
0.000209755
6.24847e-05
5.18022e-05
8.20754e-05
6.45307e-05
8.2233e-05
0.00988767
0.000181598
7.78261e-05
5.6057e-05
6.42537e-05
5.19129e-05
6.49827e-05
6.76969e-05
0.000337175
7.92238e-05
8.86345e-05
7.81647e-05
0.0002054
8.16079e-05
7.47986e-05
0.000225215
0.00108712
8.51186e-05
7.58611e-05
0.123015
0.126691
0.000127503
8.20583e-05
0.0794361
0.114607
9.94408e-05
0.00870263
0.000107114
6.86026e-05
0.104244
9.36954e-05
0.00157823
7.28923e-05
0.000120193
5.06448e-05
0.000105156
8.23367e-05
7.97698e-05
9.45317e-05
5.03265e-05
8.46605e-05
0.00016704
8.53827e-05
9.16032e-05
8.36503e-05
0.000121802
7.22145e-05
0.114285
6.53031e-05
0.000134068
6.35675e-05
0.000102127
9.7453e-05
9.4767e-05
7.07044e-05
8.85063e-05
7.33075e-05
0.000278888
0.00266706
0.000102618
6.38555e-05
0.114776
5.54656e-05
0.112263
5.1262e-05
8.47342e-05
0.119209
7.80914e-05
0.0137409
9.17041e-05
6.40905e-05
9.01563e-05
9.38566e-05
6.20349e-05
5.2087e-05
0.0129933
5.23511e-05
6.81923e-05
0.000750723
5.43619e-05
0.00334154
5.55981e-05
0.000126651
8.46985e-05
8.41576e-05
0.000287988
0.0220138
6.26743e-05
6.73693e-05
7.03127e-05
8.18639e-05
6.23737e-05
8.10868e-05
0.10829
0.0103223
9.97045e-05
8.65223e-05
7.78649e-05
9.96607e-05
0.000135855
0.121328
5.22081e-05
6.17966e-05
0.00182543
0.000214559
0.00513077
5.47086e-05
0.00964821
0.0880071
0.000101868
6.80302e-05
0.000103184
0.00113705
7.77026e-05
6.71353e-05
8.20991e-05
6.68968e-05
7.26105e-05
5.06401e-05
0.00163845
7.3909e-05
6.99112e-05
0.00147437
7.30361e-05
0.000167185
0.0121278
8.91336e-05
8.58038e-05
0.0126479
7.49304e-05
0.0103445
6.462e-05
8.57398e-05
8.93654e-05
1.66918e-05
5.09577e-05
5.19463e-05
4.14589e-05
0.0121177
0.000143664
0.0153483
0.113369
0.000111233
7.29432e-05
5.4875e-05
4.88972e-05
9.11806e-05
4.45732e-05
0.0185507
7.97559e-05
7.72147e-05
0.124448
7.05907e-05
4.66161e-05
0.0133626
9.08537e-05
7.80566e-05
0.106834
0.00205591
0.12709
0.014867
5.1313e-05
7.26844e-05
0.00066307
0.116892
6.89857e-05
0.000660001
0.000343425
0.00480239
0.0879021
0.0002955
5.94676e-05
0.00504598
4.69536e-05
0.000137137
0.000222028
0.00012424
0.0041158
0.000109019
0.025045
5.95879e-05
0.000106939
0.030801
6.2776e-05
0.000145114
5.14606e-05
9.79296e-05
8.25087e-05
0.0149004
0.00173333
0.000180163
0.025001
0.00193338
9.1873e-05
7.07057e-05
6.00069e-05
6.36588e-05
8.86936e-05
0.000111697
0.00931648
4.47993e-05
8.51809e-05
4.67779e-05
7.60973e-05
5.24526e-05
0.0327816
0.00102671
7.30409e-05
8.72045e-05
6.12859e-05
9.792e-05
8.89849e-05
0.110247
7.97899e-05
6.50448e-05
7.5449e-05
0.000130516
0.000876567
0.000247642
0.00972841
0.123575
5.71238e-05
0.00992542
0.0210808
0.0910496
7.73953e-05
0.0103898
5.50161e-05
0.0610796
5.15975e-05
0.0102075
5.10528e-05
8.58119e-05
5.52276e-05
0.00855013
0.0111781
9.52824e-05
6.13697e-05
7.39426e-05
8.19259e-05
0.0849666
0.000122587
8.92865e-05
8.5772e-05
5.73674e-05
7.41114e-05
0.000501744
0.00346719
8.01671e-05
8.15438e-05
9.18732e-05
0.000133911
7.52226e-05
0.000130973
6.15972e-05
8.62636e-05
8.98484e-05
0.000558208
0.0164545
0.000130659
0.00458688
6.838e-05
8.17099e-05
8.41431e-05
4.61914e-05
8.05665e-05
0.00998612
8.36099e-05
0.0140554
7.06548e-05
7.7167e-05
3.32543e-05
6.70742e-05
0.00588611
0.120161
0.000162918
0.00117585
7.51747e-05
0.0163658
0.000103615
0.000100579
0.027127
0.0790895
8.50785e-05
6.61841e-05
9.18725e-05
8.47258e-05
0.00588429
0.000238256
5.15492e-05
7.83847e-05
0.000101983
0.000688477
5.19921e-05
6.19252e-05
9.02025e-05
0.000119665
9.28877e-05
0.0038303
0.00740075
0.100161
6.7718e-05
7.32379e-05
8.06307e-05
0.000111463
0.000743125
6.92335e-05
9.48259e-05
1.91232e-05
6.93634e-05
6.07114e-05
0.0693663
0.0334342
0.000109293
5.88459e-05
8.8822e-05
4.98074e-05
0.000122907
6.41213e-05
0.00544886
0.0142271
6.25152e-05
0.123029
5.33187e-05
0.0206623
5.9013e-05
6.60288e-05
7.84386e-05
0.114365
9.80637e-05
0.0717752
0.000509863
5.8223e-05
9.31973e-05
0.000264173
1.02337e-05
0.0441358
0.0265127
6.95845e-05
8.7079e-05
6.68413e-05
0.000341685
6.1178e-05
5.65051e-05
9.0092e-05
0.0069236
7.5436e-05
5.72386e-05
9.66383e-05
0.0153294
8.14228e-05
0.0925969
4.4737e-05
6.40608e-05
5.79021e-05
8.22345e-05
0.000129469
9.11208e-05
8.87143e-05
8.79827e-05
6.94257e-05
8.22047e-05
0.000108711
5.22162e-05
0.0431354
8.23653e-05
0.000119993
0.113207
9.00013e-05
7.04296e-05
5.55752e-05
7.87738e-05
0.00944769
6.87974e-05
8.79624e-05
0.00862935
8.32673e-05
0.000130557
9.0302e-05
5.28427e-05
4.57569e-05
9.19719e-05
0.0196067
0.000182818
0.00387027
0.000308704
9.08629e-05
8.76083e-05
8.75602e-05
0.000117089
8.64851e-05
7.62229e-05
0.117091
0.000236299
6.0967e-05
8.86453e-05
0.000906089
5.87994e-05
0.00081896
4.02375e-05
8.24374e-05
0.0345956
0.000766092
5.45448e-05
9.87221e-05
7.47846e-05
6.27242e-05
4.47169e-05
6.72801e-05
0.125603
7.52448e-05
6.25914e-05
0.105974
7.33814e-05
0.0877555
5.14942e-05
7.37e-05
0.132771
0.000111843
7.86356e-05
0.0068472
0.115059
0.100982
6.35622e-05
0.0105677
8.75978e-05
0.0369872
0.115991
6.21853e-05
0.00146363
7.00006e-05
8.19076e-05
9.02583e-05
4.45549e-05
8.86175e-05
6.70531e-05
6.63448e-05
0.117623
7.93198e-05
0.000124906
5.69719e-05
4.44843e-05
0.00129176
7.39116e-05
0.000418719
0.0253694
0.115191
5.14521e-05
7.29266e-05
9.2843e-05
5.23451e-05
0.000101376
0.00810508
0.00197963
4.70889e-05
0.00092162
0.00254981
7.8912e-05
7.87591e-05
5.02642e-05
0.127828
7.86101e-05
0.000320095
0.0316162
0.000243668
4.65948e-05
0.000111177
0.000144369
6.0781e-05
0.129839
0.00755186
7.70447e-05
0.00302397
7.97235e-05
0.000125697
6.59853e-05
4.67381e-05
8.61111e-05
4.69052e-05
4.66266e-05
9.13656e-05
5.7174e-05
4.68515e-05
9.09213e-05
6.67888e-05
8.19628e-05
5.85878e-05
0.00325455
8.61574e-05
5.31743e-05
8.44266e-05
0.000133069
5.05352e-05
8.35955e-05
6.05803e-05
0.000135947
0.000720729
0.000219291
4.51256e-05
5.68053e-05
8.50993e-05
0.000124239
7.95542e-05
0.00245945
0.000823642
0.0123644
0.00319014
8.2533e-05
0.0110578
0.0311113
0.0201259
5.21308e-05
0.000217054
0.00270621
0.00449812
6.05228e-05
5.80797e-05
5.09036e-05
5.06424e-05
0.000261656
2.06161e-05
8.02163e-05
0.000687252
8.25056e-05
8.09552e-05
5.09829e-05
8.39649e-05
4.67369e-05
0.00010772
0.000211055
0.0002244
9.59759e-05
0.000186222
0.0152511
0.00183792
9.76065e-05
5.02628e-05
9.08601e-05
8.77682e-05
0.00013307
7.43627e-05
7.98704e-05
6.65772e-05
8.77645e-05
8.30178e-05
4.96542e-05
0.088981
7.8728e-05
5.64945e-05
0.0112918
6.0491e-05
0.000134304
5.15837e-05
8.20716e-05
8.52976e-05
0.00162518
0.000102124
3.02876e-05
5.0084e-05
8.04668e-05
8.56979e-05
8.45849e-05
8.194e-05
0.0107326
0.111538
5.40387e-05
0.00151897
7.95843e-05
0.000108126
0.115794
0.00161247
0.00580456
0.0133845
0.00188574
5.07498e-05
6.158e-05
8.91852e-05
0.0437776
0.0165672
0.00010192
0.000358645
6.32026e-05
0.00942032
0.0044797
6.03374e-05
6.51598e-05
0.00862328
8.13922e-05
0.0097931
0.000160922
0.00318226
8.61389e-05
0.00691149
6.90044e-05
7.18871e-05
8.23333e-05
0.000246758
0.00132664
0.00800622
5.03326e-05
9.1149e-05
9.64546e-05
8.66991e-05
4.86787e-05
0.107787
6.16155e-05
0.0125976
8.61388e-05
8.6008e-05
0.114387
5.31911e-05
8.01242e-05
8.77828e-05
0.000110036
8.69699e-05
9.22338e-05
8.8494e-05
0.00269988
6.57223e-05
0.112205
6.32452e-05
0.000274421
8.92169e-05
4.99226e-05
7.57709e-05
6.35609e-05
5.61616e-05
5.00061e-05
0.00449868
0.000101593
0.000147712
8.12213e-05
8.41938e-05
0.000206392
8.62798e-05
9.62521e-05
0.106145
8.78993e-05
8.35762e-05
7.84409e-05
0.0439251
5.57335e-05
8.60267e-05
6.09384e-05
8.52979e-05
0.132912
0.0192922
0.00134404
0.0452861
0.00252945
8.24405e-05
0.00394168
8.34022e-05
0.0356051
5.53302e-05
9.02683e-05
6.28562e-05
0.000247244
5.30228e-05
5.60898e-05
9.5374e-05
5.8991e-05
5.87771e-05
7.99932e-05
6.28082e-05
0.00539693
7.09531e-05
8.60657e-05
5.76075e-05
8.43236e-05
0.00120493
0.000507725
8.24791e-05
0.000156391
0.000125867
0.00984911
0.000111769
0.00014297
0.0135591
0.00781061
9.12839e-05
5.53734e-05
8.34134e-05
0.000756085
8.47181e-05
8.05555e-05
7.87738e-05
6.5304e-05
7.69111e-05
5.05e-05
6.32236e-05
0.000446215
0.125828
7.21167e-05
7.21413e-05
5.5266e-05
0.102334
7.64013e-05
9.27403e-05
5.80813e-05
6.32402e-05
0.0125581
0.000107614
7.20867e-05
0.103838
4.71585e-05
0.00942669
6.83896e-05
0.000179041
0.000102884
7.55796e-05
5.05627e-05
0.113509
6.28026e-05
8.62668e-05
0.00927494
0.00999769
8.36246e-05
8.18729e-05
0.000191406
0.000932186
6.33718e-05
0.000269109
0.000266419
6.85922e-05
5.58881e-05
9.26302e-05
5.80567e-05
8.36823e-05
0.0429754
0.00690313
0.0100486
6.31321e-05
8.08689e-05
8.91398e-05
8.89199e-05
0.000107169
0.000141194
4.78469e-05
0.00012297
6.33355e-05
5.06577e-05
5.16781e-05
9.2491e-05
0.000110148
5.21234e-05
9.11926e-05
7.38367e-05
5.08185e-05
9.55722e-05
0.00251483
0.00958692
8.12945e-05
0.113072
5.1964e-05
0.000697095
9.72829e-05
8.45332e-05
8.60137e-05
9.1739e-05
0.103007
8.24333e-05
4.68459e-05
7.56868e-05
8.53972e-05
7.80336e-05
0.00159465
0.00958101
7.76294e-05
0.0101891
0.00912286
9.10615e-05
6.53759e-05
7.69652e-05
9.61696e-05
0.0973277
0.000102029
5.80601e-05
0.00118877
0.00053905
9.1162e-05
7.02508e-05
8.36613e-05
0.0695799
0.000138932
0.000104419
0.000138162
4.69423e-05
5.04532e-05
9.06493e-05
0.000134615
0.000109137
0.0105829
0.000147493
0.0106752
9.09868e-05
9.16963e-05
7.79936e-05
0.000101845
9.2716e-05
0.000123456
6.9158e-05
0.000107306
4.70148e-05
0.119386
7.7822e-05
7.5124e-05
9.70924e-05
8.21036e-05
5.1035e-05
0.0101042
8.11289e-05
0.000101541
7.73445e-05
6.65007e-05
9.36872e-05
0.00776431
0.000145126
8.9396e-05
0.000124311
6.79606e-05
8.74513e-05
4.65108e-05
0.0105677
7.98615e-05
9.66377e-05
0.00801893
8.9739e-05
7.53081e-05
0.112068
0.000132332
0.0444907
0.000514254
7.73656e-05
0.00010352
0.0102534
0.0148627
5.49989e-05
0.000552613
9.51994e-05
0.00822893
8.03854e-05
9.09581e-05
0.0423414
0.0110401
6.76908e-05
5.5741e-05
9.70702e-05
0.00964396
7.43788e-05
0.0127966
9.01723e-05
6.60476e-05
9.18558e-05
0.000203817
0.0386463
0.00350908
0.000622932
3.53358e-05
0.00010937
8.06131e-05
9.5593e-05
0.000141603
0.0861859
0.0164164
7.51177e-05
4.44678e-05
0.00010673
7.23757e-05
8.28265e-05
0.0143473
8.86401e-05
0.00771171
7.54407e-05
6.33785e-05
0.000818459
0.0001352
0.000130322
0.000116451
0.0641749
0.0114762
5.0619e-05
5.03273e-05
4.63907e-05
9.94129e-05
7.41324e-05
0.00618484
8.01417e-05
7.74873e-05
9.03196e-05
0.000270444
6.34684e-05
6.17455e-05
0.00113953
0.000132499
0.000140649
5.39557e-05
0.0754709
8.97149e-05
7.54457e-05
0.00209733
6.11106e-05
9.74873e-05
8.77675e-05
8.22048e-05
8.757e-05
8.2038e-05
9.06195e-05
6.23423e-05
7.24497e-05
8.70914e-05
5.04005e-05
0.000473635
0.0106032
6.14605e-05
0.0105859
0.0450894
8.736e-05
8.01173e-05
8.50798e-05
8.40694e-05
5.01502e-05
9.15984e-05
0.000107024
0.000114355
0.011648
0.0207856
0.0694712
6.47711e-05
7.72839e-05
7.79279e-05
0.000613339
0.0128757
0.000105051
5.13555e-05
7.88591e-05
9.73235e-05
0.000503001
0.000554371
8.39851e-05
0.0028838
4.62848e-05
9.61586e-05
9.31058e-05
0.114556
6.20868e-05
6.21737e-05
8.08689e-05
0.0125576
0.000222822
9.36932e-05
0.0104833
0.0877533
0.000365639
0.00540963
0.000209091
5.47348e-05
0.000176354
0.000118888
8.67769e-05
0.00166786
0.0049528
0.000573357
9.26951e-05
8.78577e-05
6.65517e-05
6.18426e-05
9.00509e-05
8.10357e-05
0.00249652
0.000892871
0.0065575
0.000415275
0.000186866
5.61531e-05
0.000138381
0.000125103
9.44085e-05
4.71729e-05
0.00556542
0.00897876