/*--------------------------------*- C++ -*----------------------------------*\
| =========                 |                                                 |
| \\      /  F ield         | OpenFOAM: The Open Source CFD Toolbox           |
|  \\    /   O peration     | Version:  v2012                                 |
|   \\  /    A nd           | Website:  www.openfoam.com                      |
|    \\/     M anipulation  |                                                 |
\*---------------------------------------------------------------------------*/
FoamFile
{
    version     2.0;
    format      ascii;
    class       surfaceScalarField;
    location    "100";
    object      phi_0;
}
// * * * * * * * * * * * * * * * * * * * * * * * * * * * * * * * * * * * * * //

dimensions      [0 3 -1 0 0 0 0];
oriented        oriented;


internalField   nonuniform List<scalar> 
27087
(
0.519678
-0.136049
-0.383628
-0.208357
0.357235
-0.148878
-0.0149732
0.016088
-0.00111482
-0.0300405
-0.151627
0.181667
-0.398793
0.0604838
0.338309
-0.106491
0.0519998
0.0544916
0.208183
0.0720508
-0.280234
-0.474274
0.474773
-0.00049984
0.250134
-0.523376
0.273242
-0.0931866
0.30137
0.455536
-0.331404
-0.124132
-0.186414
0.375581
-0.189166
0.347829
-0.450693
0.102864
-0.268897
0.0485364
0.220361
0.281499
-0.176293
-0.105206
0.124174
-0.174303
0.0501288
0.160364
0.0353745
-0.195739
-0.158062
0.0472723
0.110789
0.499124
-0.0844764
-0.414648
0.231132
-0.142896
-0.0882358
0.0027843
-0.0458861
0.0431018
-0.196846
0.493377
-0.145548
0.364487
-0.269643
-0.0948434
0.381409
0.138269
0.416011
-0.225037
-0.190974
0.345248
-0.226724
-0.118524
-0.337026
-0.0896449
0.426671
-0.521231
0.242316
0.278915
-0.301156
0.0927987
0.213834
0.202178
0.0966807
0.134452
0.317248
-0.545814
0.228566
0.165033
-0.327867
0.162834
0.155981
-0.186022
-0.0947628
-0.379511
-0.0603881
0.0631724
-0.137458
0.119765
0.281253
-0.220549
-0.0607038
0.327821
0.1104
-0.438221
0.206895
-0.329943
0.123049
-0.317862
0.494556
-0.176694
0.00267686
-0.0176501
0.102862
0.261625
0.293205
-0.0863103
-0.0333176
0.222526
-0.189208
0.200292
-0.171833
-0.028459
0.471343
-0.154095
0.145021
0.136478
-0.0531706
-0.0533208
-0.0417336
0.202098
-0.0168739
-0.15942
-0.410628
0.550788
-0.140159
0.0925276
0.3509
-0.443427
0.309773
0.12538
-0.435154
-0.244154
0.494288
0.189898
-0.0657237
0.151831
0.0484603
0.17967
0.148536
-0.328206
-0.213826
0.196952
0.0183901
0.142625
-0.161015
0.10064
-0.184609
0.0839682
0.330393
-0.196076
-0.134316
0.201823
-0.29501
0.438231
-0.0739922
-0.364239
0.504153
-0.137047
-0.367106
0.00911985
0.272133
-0.219027
0.18571
0.446135
-0.318671
-0.127464
0.349683
-0.170013
0.383503
-0.409005
0.0255017
-0.16584
-0.316129
-0.431232
0.377892
0.0533406
-0.472912
0.15505
-0.139505
0.157895
0.325359
0.169197
0.206434
-0.320642
0.114209
-0.0361092
-0.221223
0.257332
0.215145
0.115248
-0.483932
0.324919
0.159013
0.17948
-0.0559974
-0.123482
-0.135167
0.178785
-0.0436177
0.107663
-0.00778281
-0.0998804
0.4626
-0.0999853
-0.362615
0.240409
0.259298
-0.499707
-0.117928
0.120497
-0.00256926
0.056743
0.499124
-0.246857
-0.172566
0.419423
0.0106503
-0.00273473
-0.00791555
0.193759
-0.211255
0.0174961
0.239752
-0.388812
0.14906
-0.00611037
-0.133394
-0.18576
0.136109
0.0496511
0.348421
0.0898106
0.0853778
0.377222
0.483464
-0.350264
-0.1332
0.416586
-0.176834
0.326192
0.157272
0.159494
0.0523758
-0.21187
-0.0486537
-0.0161769
0.0648306
0.185483
-0.0848425
0.370876
-0.502372
0.131496
-0.307842
-0.176725
0.484567
0.34483
0.0386731
0.0856171
-0.422643
-0.140782
-0.151561
0.292343
0.249132
-0.200595
-0.0187568
-0.139305
-0.134444
-0.203569
0.338013
-0.112198
-0.270177
0.382375
0.314103
-0.107669
-0.15568
0.14957
-0.0306215
0.132735
-0.102113
0.186378
-0.494219
0.113768
-0.276363
0.162594
-0.0785003
0.237995
-0.463715
0.0324827
0.175427
-0.02258
-0.152847
0.36639
0.137762
0.556044
-0.315635
0.362636
-0.489725
0.127089
0.455285
-0.471345
0.0160607
0.212814
-0.0375525
-0.175261
0.443769
-0.118411
0.364971
-0.51616
0.151188
0.30411
-0.197611
-0.106499
0.00892227
0.00172801
-0.215581
0.0776858
0.137896
-0.376936
0.249817
0.127119
0.256269
-0.394976
0.138707
0.181385
-0.0254036
0.327875
0.119076
-0.446951
-0.295627
0.449588
-0.153961
-0.0711093
-0.147918
0.199751
-0.527182
0.327431
0.0138741
-0.165501
-0.227974
0.116561
0.111413
0.00710495
-0.0762622
0.0691573
0.0656305
-0.0136307
-0.321481
-0.00975376
-0.00628545
0.0160392
-0.015696
0.0183728
-0.0313086
0.138972
-0.511685
0.367252
0.144433
-0.0824007
0.236576
-0.154176
0.169407
0.134703
-0.223191
0.174709
0.0484825
0.421899
-0.31442
-0.107479
0.141011
-0.472415
0.170345
-0.00217526
-0.16817
-0.113864
0.441739
0.0290916
-0.0777453
-0.132379
-0.0753324
0.207711
0.0408186
0.207222
-0.121011
-0.0862104
0.00362808
-0.0193241
0.117635
-0.176881
0.059246
0.341306
-0.0850369
0.00629251
-0.0160463
-0.217046
0.357836
-0.14079
-0.103199
-0.0814097
0.0268667
0.0139519
-0.014068
-0.10386
-0.346326
0.211882
-0.298959
0.450613
-0.151654
0.247307
-0.181569
-0.0657385
0.0142663
-0.151725
-0.313964
0.434286
-0.120322
0.121902
0.0853194
-0.0569237
-0.247353
0.304277
-0.0448545
-0.131426
0.17628
-0.0909729
-0.124609
-0.332957
-0.139956
-0.333783
0.51944
-0.185657
-0.475499
0.347545
0.127955
-0.373353
-0.0709305
0.444283
-0.036921
0.236936
-0.200015
-0.280664
-0.125432
0.406096
-0.126855
-0.348644
-0.315881
-0.129316
0.445197
0.0263573
0.149069
0.30331
-0.133902
-0.434206
0.0608533
0.549516
-0.394178
-0.155338
0.167986
-0.437558
0.269572
0.520627
-0.252158
-0.26847
-0.0532832
0.0444261
0.17336
-0.217786
-0.149238
-0.0368875
0.186126
-0.232358
0.161249
-0.128702
-0.0551683
0.18387
0.525453
-0.201091
-0.324362
0.491663
-0.184709
-0.306954
-0.294026
0.237102
0.357656
-0.503688
0.146032
0.164002
0.0833049
-0.260481
0.17808
0.133168
0.170142
0.104287
0.339482
-0.267263
-0.171158
0.438421
-0.103036
0.382604
-0.279568
0.354631
-0.282944
-0.0716867
-0.363337
0.528796
-0.165459
0.199655
-0.295136
-0.0998402
-0.189392
0.233818
-0.147558
-0.375818
0.233255
0.0467468
-0.280002
0.348902
-0.498511
0.149609
-0.508685
0.355165
0.15352
0.503602
-0.376629
-0.126974
0.125944
-0.427933
0.301989
-0.267335
-0.111026
0.378361
0.202369
0.152262
0.000415969
-0.149588
0.149172
0.199805
0.114298
0.0850275
-0.398991
-0.133034
-0.300803
0.433838
0.0879143
0.0915654
-0.215132
0.0827535
-0.36732
-0.392547
0.483716
-0.0911691
-0.170442
0.125588
0.481898
-0.33022
-0.151678
-0.417091
0.314055
-0.465419
0.205229
0.26019
0.466046
-0.335075
-0.130972
0.0865482
-0.225574
0.139026
-0.170445
0.0352773
0.364219
-0.43515
-0.328906
-0.179779
-0.498549
0.164766
-0.292637
0.466263
-0.173627
0.436133
-0.380971
-0.0551615
-0.457389
0.368858
0.0672752
-0.0141591
-0.131701
0.14586
0.0129552
0.206143
-0.219098
-0.330613
0.452274
-0.121661
-0.0138141
-0.00617573
0.0199898
-0.535331
0.120291
0.41504
0.31914
0.146906
0.155722
-0.445785
0.290063
-0.0339285
0.416055
-0.396961
-0.0190933
-0.101929
0.209225
-0.107296
-0.217267
0.230222
-0.45305
0.0424221
-0.528706
0.165369
-0.0200995
-0.161406
-0.0621438
0.22355
-0.0643376
0.0193724
0.0449652
-0.0456622
0.163297
0.0321464
0.46041
-0.0961905
-0.344503
0.167508
0.176995
-0.120784
0.1212
0.171709
0.353744
0.149976
-0.448935
0.296191
-0.429226
0.135527
-0.434498
0.298971
-0.00178946
0.0111388
-0.00934933
-0.0105426
0.403251
-0.392708
-0.376896
0.160765
0.216131
-0.144993
0.130833
-0.26951
0.409338
-0.139828
0.115523
-0.153922
-0.0124341
0.0106446
0.00723264
-0.387251
0.380018
0.499077
-0.130219
0.200433
-0.0300881
0.0121193
-0.0899549
0.0778356
-0.0298012
0.161218
-0.131416
0.461242
-0.240313
-0.220929
0.0227634
-0.160245
0.137482
-0.262192
-0.114704
0.0329873
0.349616
0.148435
-0.178237
0.207036
-0.243146
-0.0175063
0.116271
-0.217784
0.248186
-0.0304018
-0.340307
0.503803
-0.163496
-0.380536
-0.303314
-0.126646
0.42996
-0.524344
0.345845
0.178499
0.329082
-0.327974
-0.00110791
0.00843137
-0.00482595
-0.00360541
0.136122
0.0240627
-0.160185
-0.00918887
0.00460578
0.00458309
0.0710032
-0.178551
-0.348631
0.310072
0.142022
-0.452094
0.329046
0.123228
0.0600885
-0.485263
0.425174
0.36173
-0.328743
-0.498352
0.169446
-0.187779
0.453329
-0.26555
-0.277879
-0.185836
-0.142111
0.452183
0.127925
-0.135708
-0.0332696
-0.031068
-0.426737
0.134101
-0.523447
0.18314
0.354174
0.0501388
-0.404313
-0.167187
-0.0957711
0.262959
0.283657
-0.194393
-0.0892637
0.506898
-0.368657
-0.138241
0.326461
0.143279
-0.469741
0.0703885
0.384896
0.212942
-0.103956
-0.108986
0.182485
-0.429342
0.426738
-0.116964
-0.45818
0.311994
0.146185
-0.005309
0.166527
-0.36494
0.147894
0.142527
-0.440033
0.297506
-0.285783
0.371161
-0.146989
0.483041
-0.336052
-0.26062
0.40434
-0.14372
0.157983
-0.131925
-0.0260577
0.244309
-0.101684
0.154986
0.12197
-0.179829
0.0766301
0.141474
-0.327888
0.161279
0.156633
0.400421
-0.0462465
-0.278105
-0.267709
-0.0585941
0.206949
-0.148355
0.152523
-0.157832
0.246631
-0.0815985
0.0219459
-0.183352
0.126114
0.118195
-0.0895736
0.46045
-0.204328
-0.112565
0.316893
0.249556
-0.367762
0.118206
-0.310623
0.403151
0.00180122
0.120947
-0.122748
-0.0298148
0.165937
0.149084
0.196164
-0.12933
0.131131
-0.400462
0.11468
0.183014
0.100643
0.0856961
-0.168098
0.0824018
-0.30333
-0.120278
0.423607
-0.342478
0.132766
0.209712
0.125612
0.383644
-0.509256
0.308387
-0.41317
0.104783
-0.134837
0.234852
-0.100015
-0.287554
0.395264
-0.107709
-0.30628
0.450827
-0.144546
0.105104
-0.257959
0.152856
0.474514
-0.109896
0.124162
0.0604223
0.400106
-0.277366
0.357351
-0.0799849
-0.140469
-0.150876
0.291345
0.134945
-0.0277726
-0.139514
0.167286
0.244564
-0.118071
-0.126494
0.352303
-0.489488
0.137185
0.151523
0.252817
0.405277
-0.266224
-0.139053
-0.137302
-0.311943
0.449245
-0.112022
0.261908
-0.149886
-0.157047
-0.219889
-0.480064
0.17675
0.397734
0.0183203
-0.171559
0.159476
-0.0737799
0.313465
-0.501244
0.342915
0.156161
0.154838
-0.399628
0.24479
-0.00225361
-0.00693527
0.247383
-0.506145
0.258762
0.477223
-0.324652
-0.15257
-0.194211
0.136148
0.0580639
-0.0104152
-0.249325
0.25974
0.316473
-0.0271093
-0.289363
-0.105542
-0.0864399
-0.141534
0.0251197
0.332684
-0.357803
0.346336
-0.321216
-0.289317
0.138088
0.151229
0.183317
0.288026
0.281664
-0.154927
-0.126737
0.403762
0.073461
0.132144
-0.427515
0.295371
-0.0938178
0.456454
-0.29235
0.460336
0.375136
0.145491
0.477626
-0.14858
0.266241
-0.112111
-0.15413
0.100371
0.214134
-0.314505
-0.429976
0.0418262
0.116156
-0.043474
-0.154137
-0.198546
0.0599223
0.138624
-0.466311
0.36601
0.100301
-0.0968908
0.239277
-0.142386
-0.189325
0.145851
0.0801565
-0.0997018
0.0195453
0.101186
0.143378
0.180106
-0.296185
0.116079
-0.162301
0.134528
0.028532
0.139216
-0.167748
-0.299867
0.432012
-0.435727
0.280456
0.15527
0.131699
0.149965
-0.395847
0.488522
-0.0926756
0.144747
-0.285215
0.0760838
-0.35345
-0.270636
0.33112
-0.179829
0.238588
-0.0587589
0.128483
0.404304
0.0292194
-0.433523
0.142552
0.140369
-0.430288
0.289919
0.0437109
-0.172413
-0.348745
0.236547
-0.300615
-0.158633
0.214947
-0.0563139
0.411811
-0.151542
-0.260269
0.272136
-0.108134
-0.383116
0.443205
0.138111
0.162201
-0.300312
0.00873704
-0.0101942
0.0014572
0.211745
-0.324912
0.113168
-0.121977
-0.262898
0.503873
-0.259795
-0.244078
-0.130325
-0.335986
-0.36806
0.519278
-0.151218
0.0119704
0.143896
-0.155866
-0.127976
-0.0765247
0.2045
0.467652
-0.0633481
-0.127278
-0.494092
0.117464
-0.301961
-0.209724
-0.0479766
0.425868
-0.419519
0.408977
0.10294
0.202085
-0.305025
0.148178
-0.28896
-0.288536
0.146634
0.141902
-0.246018
0.328899
-0.0828805
0.416414
-0.29047
0.0894091
-0.256597
-0.109974
7.82954e-05
-0.443917
0.297138
0.146779
0.156748
0.115388
0.436183
-0.207216
-0.228968
-0.520582
0.345744
0.174838
-0.184575
-0.336007
0.398107
-0.246585
0.202954
0.118607
-0.32156
0.301848
-0.125588
-0.17626
0.152495
0.283689
0.263884
0.111696
0.0526274
-0.42996
0.377333
0.131857
-0.428943
0.297086
0.35059
-0.138688
-0.211902
-0.0670241
0.207334
-0.14031
-0.295659
0.37796
0.445236
-0.149045
-0.407064
0.241224
0.239915
0.178191
-0.148144
-0.0300473
0.150062
-0.217086
0.00569663
-0.016856
-0.208665
0.553966
-0.311317
-0.24265
0.252386
0.301581
0.0159383
0.26077
-0.276709
-0.454524
0.0586772
0.441167
-0.114705
0.478214
-0.167333
-0.310882
-0.344163
0.456922
-0.112759
-0.109998
0.206678
0.390472
-0.468906
0.0784341
0.110857
0.446019
-0.326942
-0.144038
0.156009
-0.259556
0.126151
0.133404
-0.138584
0.0373699
0.101214
-0.145395
0.259164
-0.280286
0.0535619
0.0525791
0.00305513
-0.0556342
-0.00034294
-0.00924607
0.00958901
-0.45738
0.470193
-0.0128127
0.521427
-0.168403
-0.353024
0.111855
0.200768
-0.312623
-0.0223097
0.35786
-0.160252
-0.197608
-0.288574
-0.484009
0.205807
0.278202
-0.443915
0.271349
-0.523508
0.179816
0.343692
0.290572
-0.413837
0.142531
0.271306
-0.064143
-0.0993154
0.482959
0.125795
0.176053
-0.168093
0.525749
0.0231279
0.00445061
-0.0275785
-0.127702
0.0818456
-0.22715
0.145304
0.310984
-0.555138
0.470633
-0.324688
-0.145944
-0.454981
0.0582214
0.39676
0.0520734
-0.00377299
-0.242286
-0.383693
0.390926
0.0108251
-0.354988
0.284695
-0.268757
-0.0956251
-0.258742
0.354367
-0.346347
0.501239
-0.154892
0.44473
-0.474776
0.0300462
0.298043
-0.450724
0.15268
0.142755
0.215105
0.363714
-0.0472412
0.25467
-0.395069
0.140399
-0.0344492
-0.131944
0.166393
0.28366
-0.106834
0.270953
0.167217
-0.438171
-0.143515
0.145856
-0.403465
0.257609
0.0102608
-0.0291817
0.0189208
0.177923
0.343504
-0.436735
0.32287
0.146459
-0.132417
-0.0140413
-0.100037
0.266561
-0.166525
-0.231597
0.316703
-0.40541
0.104606
-0.487292
0.315906
0.171386
0.270721
-0.428873
0.158152
0.0600507
0.11814
-0.317952
0.464557
-0.146605
-0.176089
-0.113228
0.123645
-0.00314737
-0.265348
-0.206818
0.472166
-0.357343
0.500104
-0.142761
-0.114383
-0.342997
-0.00811337
0.015641
-0.00752765
0.418538
-0.28301
0.23086
-0.386589
0.155729
-0.28486
0.124737
0.160124
-0.0899334
0.153225
-0.0632917
-0.414918
0.16276
-0.120861
0.0376925
-0.233291
0.195598
-0.345628
0.511768
-0.166141
-0.113257
0.442338
-0.112163
0.420551
-0.26558
0.134997
0.130583
-0.257348
0.125512
0.131836
0.31556
0.114583
-0.430143
0.332832
0.148847
-0.481679
-0.311802
-0.0162423
-0.038702
0.0549442
-0.378461
-0.0813438
0.459805
0.21128
-0.173587
-0.0858508
0.41077
-0.126825
-0.553046
0.222909
0.330137
-0.0567784
0.419662
-0.362884
-0.0723265
0.119599
0.425279
-0.154559
0.440793
-0.285071
-0.42003
0.363252
0.0325332
-0.487515
-0.346431
0.496368
-0.149937
-0.0896125
0.460211
-0.370598
0.17602
0.302195
-0.104919
-0.0693846
-0.30206
-0.141857
-0.25096
-0.272548
0.105937
-0.136558
0.0508301
0.320545
-0.273871
-0.0466735
-0.123459
-0.279031
0.40249
-0.0648449
0.141209
-0.0763642
-0.128627
0.324647
-0.19602
-0.29488
0.12602
0.16886
-0.23892
-0.24282
-0.412906
-0.16133
0.516496
-0.0452019
0.0289596
0.0879315
-0.328446
0.240514
-0.345391
0.483729
-0.138338
0.0332237
-0.0100957
0.175433
0.228329
0.16923
0.0322203
-0.20145
-0.140523
0.0675022
0.0730208
-0.507475
0.191324
0.316151
0.0804089
-0.24862
0.168211
0.049553
0.253645
-0.303198
0.0463045
0.143594
0.242118
0.155989
0.455111
-0.163487
-0.291624
0.240819
0.309969
-0.411987
0.365357
0.0466303
0.300024
0.121822
-0.421846
0.118448
-0.0432841
-0.0751634
-0.451373
0.300778
0.150594
-0.294033
0.235811
0.0582221
0.219793
-0.34842
0.167524
-0.267561
-0.266143
0.0449196
0.0202686
-0.432256
-0.00732905
0.0599081
0.0284908
0.0899568
-0.457581
0.308673
0.148908
0.453601
-0.127409
-0.306891
-0.173928
-0.517084
0.363751
0.153333
-0.347791
0.252166
0.496586
-0.145686
-0.0954466
-0.104038
0.199485
-0.219976
0.353487
-0.133511
0.050687
-0.165757
0.11507
-0.34376
0.508249
-0.164489
-0.2364
0.101563
-0.326572
0.13718
-0.102071
0.301876
-0.532833
0.224091
0.308743
-0.213584
-0.114283
0.396475
-0.221042
-0.23113
0.339135
-0.108005
-0.223573
-0.113429
0.337002
0.00777291
0.175241
-0.113391
0.363208
0.316258
-0.47717
0.160912
-0.158545
0.456588
-0.215267
0.505094
-0.289826
-0.0738187
0.114285
-0.0404663
-0.314362
-0.218472
0.215579
0.333937
-0.171718
0.11568
-0.339253
0.275285
0.0277966
-0.303081
-0.0467406
0.254883
-0.208142
0.320485
-0.232553
0.266631
-0.155426
-0.343123
0.0564384
-0.184414
-0.441194
0.0470167
0.1453
-0.17975
-0.0878972
0.0154052
0.268163
-0.283569
-0.327007
0.490624
-0.163618
-0.0843515
0.449323
-0.328955
-0.45154
0.282214
0.169326
0.146772
-0.414035
0.288806
-0.142173
0.239056
-0.158647
0.297717
-0.194777
-0.488067
0.16106
-0.144519
0.226365
-0.143993
-0.0791984
0.131318
0.157489
-0.106401
0.259706
-0.153304
-0.462624
0.522344
-0.384617
-0.137727
0.00648344
0.128949
0.105857
-0.340706
0.234849
-0.411637
0.159401
0.252236
0.166706
0.238571
0.499015
-0.229795
-0.26922
0.0467504
0.147009
-0.165676
-0.0886122
0.254288
-0.473995
0.0539651
0.383269
-0.240738
-0.129036
-0.306123
0.435159
0.457752
-0.141494
-0.162088
0.159912
0.386842
-0.115888
-0.444195
0.302084
0.338381
-0.105126
-0.0136172
0.0275358
-0.0139187
-0.48115
0.123807
0.282858
-0.326692
-0.124785
0.451476
-0.306499
-0.117345
0.423844
0.13628
0.289588
-0.425868
0.302972
0.0998022
-0.030297
-0.0695053
0.457691
-0.0672637
-0.390427
-0.287761
0.445579
0.000618869
-0.446198
0.367191
-0.0730866
-0.294104
-0.472279
-0.270496
0.106822
0.163675
0.318634
0.436012
-0.116872
-0.315733
0.111405
0.33897
0.116142
-0.0564277
-0.109329
-0.292254
0.434275
0.0940187
-0.183952
0.1719
-0.164127
-0.279278
0.294683
-0.170278
-0.106085
-0.455728
-0.138235
0.30562
-0.117799
-0.187821
0.409435
-0.254597
0.0307954
-0.03299
0.00219464
0.261848
-0.10418
-0.157669
0.0901496
0.367541
-0.22788
0.125951
0.286717
0.122317
-0.409034
0.0164566
-0.102613
0.0861566
0.0899693
-0.255645
-0.0193656
0.0096781
0.00968747
0.433372
-0.278827
-0.154545
0.296031
0.209063
-0.218306
0.111905
-0.221067
0.333462
-0.112395
0.236563
0.114027
-0.222589
0.149385
0.0326857
-0.182071
-0.335007
-0.163345
-0.193931
0.307801
-0.11387
0.302612
0.130759
0.151649
-0.397801
0.246152
-0.0188272
0.293125
-0.274298
-0.440523
-0.14345
0.248553
-0.0558633
0.331148
-0.441829
0.107756
0.334073
-0.202814
0.303184
-0.265222
0.0293972
0.235825
0.0183519
0.11945
0.315313
0.198044
-0.2826
0.497657
-0.215057
0.0511211
0.0486811
-0.113442
-0.146114
0.221537
-0.17479
-0.496984
0.214384
-0.115292
-0.101425
0.02305
0.0783748
-0.123366
0.265706
-0.142339
0.282171
0.143503
0.192646
-0.336149
0.128286
0.037639
0.00108303
0.0326911
-0.0018957
0.44787
-0.0806788
-0.219326
0.10488
0.114446
0.169987
0.300646
0.0124586
0.120276
-0.0766608
0.428964
0.144997
-0.126149
0.145972
-0.0198229
0.00773056
-0.0104549
0.00272436
0.358263
-0.473111
0.114847
0.00215481
0.214352
-0.216507
-0.314898
-0.15052
0.357966
0.120767
-0.478734
-0.403625
0.347493
0.0561322
0.0178843
-0.162981
0.145097
0.0434893
0.37248
-0.415969
-0.110243
-0.145517
0.400188
-0.345351
0.128085
-0.15762
-0.280021
0.437641
-0.361598
0.405088
0.13223
0.00393454
-0.136789
0.160852
0.0520557
-0.257626
0.20557
-0.165956
0.124426
0.0415304
0.296161
0.139851
0.365401
-0.134541
-0.145668
-0.0301706
-0.235052
0.238717
-0.116675
0.264652
-0.147978
0.470163
-0.345389
-0.124774
-0.266601
-0.197876
0.464477
-0.423345
-0.0250309
0.448376
-0.137152
0.0723067
-0.215212
0.156618
-0.471623
0.154185
0.317438
-0.316929
-0.0151317
0.332061
0.0374583
0.283026
0.445747
-0.130187
-0.282932
-0.242204
0.364763
-0.12256
-0.0646029
0.437083
-0.389934
-0.0895554
0.479489
-0.127148
0.154419
-0.448235
0.293816
-0.0551285
-0.156126
0.524702
-0.259165
-0.265537
-0.208525
0.0498917
-0.287594
-0.447449
-0.139409
-0.131087
0.303111
-0.460732
0.419691
0.242662
-0.320885
0.078223
0.143608
-0.305811
0.162203
-0.0151977
0.00708435
0.0207703
-0.163667
0.448771
-0.193316
-0.255455
-0.394823
-0.385074
0.149241
0.235833
0.00409808
0.033541
-0.457762
0.320461
0.343997
-0.483649
0.139652
0.361514
0.0570913
-0.418606
-0.285624
0.171341
0.114282
-0.323734
0.489587
-0.165853
0.0203098
-0.291711
0.00890032
-0.3306
0.321699
0.0759766
0.219178
-0.217024
-0.126173
0.422223
-0.0893912
-0.517915
0.208513
0.309403
-0.262847
0.244019
0.197378
-0.463979
0.0939106
-0.233281
0.13937
0.0448188
-0.468163
-0.256282
0.148961
0.107321
0.18887
0.0180799
-0.00647478
0.0108177
-0.00434295
-0.00793287
0.125787
-0.117854
-0.305683
0.446701
-0.141018
0.0962969
-0.327427
0.157366
0.0355114
-0.192877
0.19066
0.147721
-0.485263
0.0892858
0.159992
-0.249278
-0.126997
-0.0923289
-0.268978
-0.072934
-0.111966
0.313789
0.140064
0.313866
-0.123206
0.172042
0.0335881
-0.20563
-0.234942
-0.12114
-0.14444
-0.294977
-0.221183
0.0570062
-0.303024
-0.50688
0.295104
0.211776
0.00890363
-0.0310244
0.0221208
-0.11288
0.292986
-0.233425
0.108012
0.203445
-0.311457
-0.252951
0.0895643
-0.0731077
0.201324
0.247447
-0.454848
0.299191
0.155656
0.00822177
-0.325151
-0.128849
0.426017
-0.113273
-0.312744
0.229303
0.295399
0.00672469
-0.294279
-0.128527
-0.157097
-0.281786
-0.193569
0.475354
0.124127
-0.13206
-0.0904431
0.457695
-0.209562
0.261618
-0.341842
0.49174
-0.149898
0.283019
-0.372632
0.227034
-0.330391
0.103356
0.073189
0.0871247
-0.160314
0.169602
-0.10968
0.0250366
-0.161819
0.136782
-0.333
0.0185794
0.439694
-0.432231
0.222715
0.209516
-0.143689
0.163504
-0.0198157
-0.127371
-0.12418
-0.403169
0.132992
-0.0788885
-0.0616344
-0.13817
-0.248419
0.332408
-0.491088
0.15868
-0.452644
0.146145
0.164796
-0.288163
0.347957
-0.0984003
-0.297045
0.183564
0.113481
-0.412702
0.289243
-0.0941421
0.321177
-0.332602
0.0241079
0.308494
0.121821
0.047781
0.503662
-0.171253
0.16411
-0.453637
0.289527
0.437725
-0.271488
-0.166237
0.267088
0.170637
0.0668559
0.118627
0.124027
-0.430307
-0.487201
0.163662
0.323539
-0.476651
-0.01378
0.490431
0.286087
-0.483963
0.423518
-0.136801
-0.255809
0.401666
0.0509995
-0.207174
0.156175
0.12522
0.294442
0.136806
-0.159711
0.0229057
0.0473831
-0.0280107
0.189358
-0.432059
-0.304762
-0.0278398
0.013306
-0.023499
0.010193
0.128587
0.0173852
0.126403
-0.293366
-0.230978
-0.347155
0.23856
0.108596
0.426177
-0.236819
0.443122
-0.0466468
0.248668
-0.105233
-0.143435
0.0213034
0.275835
-0.156524
-0.294849
-0.149276
0.167161
-0.133239
0.463331
-0.299222
0.277761
-0.245826
-0.0319353
-0.136143
-0.275315
0.411458
0.453005
-0.129463
-0.155397
-0.458506
0.162149
0.296356
-0.287483
-0.162506
-0.296
0.232088
-0.438351
0.206264
0.447979
-0.215891
-0.137945
-0.322951
0.210386
0.355354
0.14852
0.137259
0.313568
0.136611
0.272075
-0.408686
0.314828
0.124101
-0.43893
-0.423781
0.163986
-0.485198
0.223232
0.261966
0.436854
-0.140464
-0.29639
-0.142671
-0.00101812
0.302746
-0.281442
0.107611
-0.475671
-0.0428132
0.0118984
0.0309148
-0.559932
0.219916
0.340015
-0.222259
-0.114183
0.336443
-0.00892152
0.00900861
-8.70898e-05
-0.0136161
0.455732
0.385883
0.0596959
-0.337549
0.492028
-0.154479
-0.243282
0.0993868
0.143895
0.194507
0.16993
-0.364437
-0.100155
-0.194855
0.226187
0.0943571
-0.143394
-0.188767
-0.295242
0.444804
-0.341213
-0.103591
-0.302969
-0.26591
0.126501
0.203362
0.316078
-0.22974
-0.145578
0.375318
-0.215135
-0.165837
-0.0472743
-0.368184
0.415458
-0.303726
0.107866
0.19586
-0.0219359
-0.0208773
0.0193267
0.0981203
-0.117447
-0.0539634
0.226005
0.250246
0.0275155
0.151494
0.023215
-0.47234
0.217729
0.254611
-0.203481
-0.0253504
0.228832
0.304348
-0.421693
0.304392
-0.483784
0.179392
-0.185315
-0.202743
0.388058
-0.470653
0.312833
0.15782
-0.320539
0.117057
-0.323973
-0.0978812
0.421855
0.122786
-0.399468
0.263325
0.138971
0.22643
0.23618
0.292616
0.238217
0.248285
-0.170359
-0.0779259
-0.306811
0.103902
0.186845
-0.290746
-0.11855
0.0494018
0.189875
0.0108194
0.0365637
0.134681
0.305703
-0.440384
-0.258132
0.146199
0.111933
0.256546
-0.177777
-0.078769
0.299986
-0.384462
-0.305768
0.450579
-0.144811
0.336679
0.108126
-0.106438
0.452284
-0.159212
0.0427492
0.116463
0.243141
-0.421732
0.178591
0.0255175
-0.021485
0.0317176
0.175617
-0.0308831
-0.359051
0.272436
0.11755
-0.389987
-0.136228
-0.0525182
0.188746
0.461602
-0.307183
0.12675
-0.433641
-0.553806
0.215978
0.337828
-0.504698
0.162856
0.245736
-0.208277
0.0950744
-0.237795
0.142721
-0.330596
-0.146056
0.14743
0.264381
0.0679346
0.171122
-0.0185124
0.144317
-0.125804
0.0657774
0.0936986
-0.358799
0.411427
0.119634
0.203654
-0.323287
0.26195
-0.387382
0.267261
-0.123653
0.120171
0.240247
-0.360419
-0.236205
0.385445
-0.0832865
-0.275829
0.386229
-0.13695
-0.37605
0.21339
0.16266
0.325648
-0.113904
0.28233
-0.232777
0.469155
-0.290857
-0.178298
-0.132113
-0.268515
0.400628
-0.226197
-0.108068
0.334265
-0.317626
0.134825
-0.153337
0.398216
-0.155075
0.281168
0.142349
0.213539
-0.395834
0.182295
-0.143733
-0.0399859
0.183719
-0.187339
-0.299862
-0.497397
0.341672
0.155725
0.401644
-0.188105
-0.194044
0.305899
-0.0658149
-0.00911879
0.145266
0.0864115
-0.361239
0.131499
0.285764
-0.177752
-0.431157
0.189836
0.241322
0.281682
0.165283
-0.446966
-0.19225
-0.143858
0.336107
-0.1443
-0.0868623
0.231162
-0.0932
0.365636
0.148557
-0.252809
0.104252
0.50387
-0.322867
-0.181003
-0.00893603
0.00859309
0.193171
-0.218521
-0.31245
-0.132074
0.444524
-0.324499
0.12093
0.0515317
0.21179
-0.263321
-0.137703
-0.23106
0.368763
0.379218
0.0639037
0.0628233
0.41195
0.177501
0.326302
0.223101
0.0154868
-0.427475
0.121352
-0.101384
0.401801
0.0423713
-0.147625
0.429307
0.146025
-0.0505313
-0.0954939
-0.250301
0.149533
0.100768
0.0786106
-0.215792
0.137181
-0.438201
0.293417
0.144784
-0.0768468
0.362934
0.444018
-0.253575
-0.190443
0.448923
-0.134094
0.341205
-0.507754
0.21105
0.296704
0.00900076
-0.0112057
0.00220495
0.243569
0.200449
0.223862
-0.409177
0.0389203
0.166681
-0.205601
-0.0178214
0.00635959
0.0114618
-0.0929179
-0.0662945
-0.0190259
-0.224446
0.145945
-0.320339
0.243581
-0.395124
0.450392
-0.206823
-0.247014
-0.026857
0.17609
0.0721947
0.19392
-0.297501
0.103581
0.00658706
0.118663
-0.12525
0.4086
0.00851438
-0.417114
-0.262811
-0.188127
0.450938
-0.47419
0.162097
0.312093
0.455748
-0.154969
0.177508
0.315869
-0.330253
0.497679
-0.235728
0.172334
0.117422
-0.289756
0.304771
0.134201
-0.438971
-0.507678
-0.170489
-0.133237
0.286057
0.211622
-0.172398
0.0234372
0.148961
0.142479
-0.404291
0.261813
0.00230808
-0.0115541
-0.177154
0.295761
-0.433608
0.28466
0.148948
0.0276086
0.208955
-0.449039
0.125305
-0.373907
0.148099
-0.0158765
-0.132223
0.129669
-0.447621
-0.205051
0.15215
0.297296
-0.449446
-0.205444
-0.213466
0.264998
-0.276467
-0.118772
0.395239
0.126094
0.377776
0.25996
-0.392074
0.322688
0.000660941
-0.325344
0.049773
0.21343
-0.263203
0.136472
0.080176
-0.310445
-0.285702
0.0845961
0.201106
0.0784189
0.14917
-0.227589
0.199568
0.298089
0.198859
-0.326292
0.127434
0.413066
-0.118861
-0.294205
0.0127291
0.131588
-0.540427
0.241734
0.298693
-0.3134
0.424838
-0.14367
0.132374
-0.297302
-0.176888
0.216263
0.303015
-0.473949
0.321497
0.152452
0.289099
-0.0977882
-0.191311
0.337203
0.075863
-0.307146
-0.233281
-0.489569
0.214787
0.274782
-0.240169
0.0788341
0.161335
-0.301465
-0.195519
-0.426732
0.149316
-0.26599
0.125411
0.219802
-0.345212
-0.262373
0.439123
-0.307152
0.131547
0.175605
-0.186613
0.330116
0.241883
0.184295
-0.109508
0.128406
-0.0188981
-0.434964
-0.0972011
-0.196832
0.0947991
0.0818772
-0.176676
0.108145
-0.318198
-0.255561
-0.290001
0.338959
0.513316
-0.230297
0.092036
0.263655
0.134561
0.308033
0.085175
-0.265769
0.180594
0.0566997
-0.329422
0.479041
-0.149619
0.15068
-0.307469
-0.208544
-0.293828
0.236759
0.302144
-0.108225
0.243978
0.139291
-0.486349
0.235126
0.251223
-0.445747
-0.213019
-0.549347
0.220642
0.328705
-0.479525
0.292164
0.187362
-0.157361
-0.278366
0.139612
0.305312
-0.444924
-0.0709208
-0.271561
-0.333084
-0.212225
0.397767
-0.134112
0.209226
-0.130616
0.340942
0.0245534
-0.14029
0.115737
-0.486823
0.184317
0.302506
0.174437
0.0821096
0.362278
-0.241243
-0.121035
-0.164082
0.475066
-0.00765082
0.39813
-0.17385
-0.22428
-0.504845
0.20931
0.295534
-0.177861
0.263036
-0.111997
-0.185048
0.199826
0.225094
-0.42492
0.0967342
-0.237951
0.141217
0.22737
-0.372948
0.221971
0.135501
-0.357472
0.241448
-0.3678
0.15054
0.247667
-0.138402
-0.43137
0.183578
0.247791
-0.433891
0.168341
-0.193753
0.306564
-0.112811
-0.305745
0.441014
-0.135269
0.0556042
0.356049
-0.217079
0.2148
0.360395
-0.118947
-0.104616
-0.244129
0.314886
0.140861
-0.0780352
-0.0920227
0.170058
0.0719551
-0.395929
0.244058
0.154072
0.477942
-0.163056
0.186204
0.297525
-0.114965
-0.480847
0.241927
-0.524665
0.181339
0.343326
0.162815
-0.429685
0.26687
-0.467606
0.224786
-0.119652
-0.121101
0.304665
-0.00518448
-0.391305
0.39649
0.196286
0.425369
0.0378381
-0.463207
-0.00844876
0.00423213
0.00421663
0.530104
-0.283133
-0.24697
0.182426
0.219124
-0.411357
0.192233
0.449354
-0.292543
-0.15681
-0.138206
-0.323139
0.415181
-0.215355
-0.172648
-0.258722
-0.196936
-0.235296
-0.113981
-0.251835
0.142967
0.108867
-0.140782
-0.210844
-0.109695
0.214991
0.232988
-0.494108
0.305695
0.188413
-0.356396
-0.0774953
-0.297168
-0.277151
-0.258883
-0.00783659
0.00136181
0.350883
-0.476865
0.125982
-0.230339
0.280112
0.195803
0.129343
-0.22573
-0.212621
0.16191
-0.269768
0.107858
0.143402
0.032906
-0.176308
-0.297658
-0.130027
0.427685
-0.433986
0.136328
-0.422023
-0.00709336
0.429116
-0.207119
0.333697
-0.126578
-0.0348158
0.393079
-0.144997
0.372367
-0.206855
-0.297989
0.00305446
-0.395016
0.391961
0.03778
-0.163762
0.125982
-0.221137
0.0768374
0.471362
0.0803175
-0.336515
0.256197
-0.197536
0.282132
0.0193418
-0.00780054
0.00787057
-7.00306e-05
0.218611
0.0704882
0.285719
-0.113385
-0.128319
0.0228224
0.105497
0.267901
-0.161102
-0.106799
0.100359
0.238777
0.184583
-0.306814
0.122231
0.195051
-0.298014
0.102963
-0.0201474
0.00232608
0.157802
-0.437823
-0.2183
-0.289175
0.237762
-0.495398
0.257636
0.328414
0.149528
-0.106892
0.0330736
0.206611
0.139436
-0.346047
-0.25799
-0.33565
-0.135973
-0.248823
0.00102001
0.00798075
0.347169
-0.140559
0.354018
-0.233046
-0.120972
0.038395
-0.174623
0.0166204
-0.0858369
0.00935351
0.0764834
0.38564
-0.147878
0.429869
-0.429869
-0.254327
0.136257
-0.482463
0.0993465
0.152533
0.296821
-0.146958
0.109406
0.489021
-0.179795
-0.309226
-0.114376
0.276286
0.203728
0.304521
-0.227569
0.141539
0.0860294
0.212168
0.310176
0.320228
0.016593
-0.336821
-0.406465
0.40128
-0.147762
-0.10852
-0.00149035
-0.42847
0.460569
-0.182529
-0.27804
-0.247336
-0.331565