/*--------------------------------*- C++ -*----------------------------------*\
| =========                 |                                                 |
| \\      /  F ield         | OpenFOAM: The Open Source CFD Toolbox           |
|  \\    /   O peration     | Version:  v2012                                 |
|   \\  /    A nd           | Website:  www.openfoam.com                      |
|    \\/     M anipulation  |                                                 |
\*---------------------------------------------------------------------------*/
FoamFile
{
    version     2.0;
    format      ascii;
    class       volVectorField;
    location    "100";
    object      U;
}
// * * * * * * * * * * * * * * * * * * * * * * * * * * * * * * * * * * * * * //

dimensions      [0 1 -1 0 0 0 0];


internalField   nonuniform List<vector> 
18232
(
(1.01138 0.00224619 0)
(1.07024 -0.0675425 -1.40859e-21)
(-0.154786 0.0915694 5.68293e-20)
(1.16773 0.081689 0)
(1.01294 0.00800398 1.14085e-21)
(0.944617 0.128502 -8.48196e-20)
(0.803365 -0.0798457 1.51004e-21)
(1.002 -3.00138e-05 5.25515e-22)
(1.01597 -0.0124697 0)
(0.832044 -0.0854203 0)
(1.01411 0.00936481 -4.73374e-22)
(1.04343 0.0231348 -5.25016e-21)
(0.983363 -0.123763 8.16402e-21)
(0.791707 -0.120344 -1.88646e-21)
(1.00253 0.0802439 9.88206e-22)
(1.06174 0.118802 -1.66401e-20)
(1.142 0.0619468 -3.80325e-20)
(0.975661 0.0648676 -1.37876e-20)
(0.999901 -1.19181e-05 -2.2958e-22)
(0.871189 0.078025 5.90251e-21)
(0.563308 0.0648442 1.03551e-20)
(0.77838 -0.0985208 7.40186e-22)
(1.00129 -0.10674 -4.78905e-21)
(1.03332 0.0244661 -3.86836e-21)
(1.01152 0.00207421 -3.23713e-22)
(1.01649 0.00657353 6.67932e-23)
(1.03013 0.0334068 1.45636e-21)
(0.858052 -0.213562 9.92339e-21)
(1.00504 0.000284002 -5.65019e-22)
(1.07241 -0.0609846 0)
(1.01653 0.00654762 -5.97769e-23)
(0.867949 0.0628925 0)
(1.04433 0.0445897 0)
(1.07529 0.0105515 1.55011e-20)
(1.16553 0.0798711 5.28091e-20)
(1.00273 -1.49811e-05 5.62251e-22)
(0.62108 0.0685771 5.05399e-20)
(0.477486 0.350411 8.62828e-21)
(0.907236 -0.0910689 -3.81875e-21)
(1.02302 0.00665439 0)
(1.06097 -0.0220268 -1.02291e-21)
(1.03128 0.0101515 -2.76238e-21)
(-0.161076 0.0883457 -8.06439e-20)
(1.0328 0.0240666 -2.76e-21)
(1.07037 -0.0254649 0)
(1.0724 0.0315294 1.78616e-20)
(0.723151 0.504719 -3.97161e-21)
(1.03815 0.0409774 0)
(0.999658 0.07575 -2.77432e-21)
(0.951828 0.129455 2.77238e-20)
(1.13959 0.0621069 2.98581e-20)
(1.00803 0.0802723 -1.83605e-21)
(1.00845 0.00261548 -3.17413e-22)
(1.00514 -0.0418011 1.25453e-21)
(1.01112 0.00396173 2.46348e-22)
(1.01589 -0.0122086 0)
(1.1197 0.140135 1.38901e-20)
(0.705415 0.483729 -2.12037e-21)
(1.05112 0.0176594 1.38749e-20)
(1.01146 0.0786143 -3.72182e-21)
(1.14825 0.127507 0)
(0.6811 0.299064 -1.9646e-21)
(0.847973 -0.258363 6.71919e-21)
(0.848879 -0.0705624 8.39681e-22)
(1.02482 -0.00170196 -2.69259e-22)
(1.01901 0.0069227 1.3342e-21)
(0.927581 -0.0911632 -1.53328e-21)
(1.07149 0.0305772 -9.92172e-21)
(1.01555 0.00532028 0)
(1.05008 0.0172336 -9.75647e-21)
(1.04008 0.000973318 0)
(1.01209 -0.00559456 0)
(0.92991 -0.158172 1.78568e-21)
(1.03197 0.0105906 0)
(1.14442 0.12576 -3.06775e-20)
(1.03086 0.0102997 0)
(1.02827 0.0302908 0)
(0.917143 -0.174024 0)
(0.860769 -0.25164 0)
(1.02423 0.0534816 -5.51659e-22)
(1.19509 0.100175 3.16174e-20)
(1.16849 0.0741778 1.61938e-20)
(1.18757 0.0841701 -7.75555e-20)
(1.00675 -0.015144 0)
(1.0109 -0.00440605 2.36911e-23)
(0.460335 -0.165176 -5.56555e-21)
(1.0133 0.00890117 -1.33029e-21)
(0.999621 1.41209e-06 0)
(0.869506 -0.105763 -2.05428e-22)
(-0.044997 0.086776 -5.14613e-20)
(1.12334 0.0359117 0)
(1.02404 0.0132475 0)
(1.14576 0.11929 -1.89875e-20)
(0.662396 0.47848 -1.373e-20)
(1.0265 -0.00161408 6.34093e-22)
(1.01005 -0.01533 4.83699e-22)
(1.01613 0.00740296 1.16858e-21)
(1.02365 0.0127717 -2.99321e-21)
(1.01593 0.00746042 -7.00012e-22)
(1.09657 0.038571 -8.21611e-21)
(0.755625 0.131009 -5.32544e-20)
(0.654247 0.322222 8.81274e-23)
(1.01388 0.00665971 0)
(1.00758 0.000264986 -1.20233e-21)
(1.03968 0.00121457 0)
(0.856458 -0.221984 -4.94216e-21)
(1.05771 0.0245918 0)
(0.769343 -0.141344 0)
(0.997644 0.0686584 0)
(0.931553 -0.0581907 0)
(0.978993 -0.0556703 -2.73456e-21)
(1.02897 0.0295011 -1.69057e-21)
(1.14246 0.117465 3.17581e-20)
(1.20736 0.105228 -2.75477e-20)
(1.00734 0.000302099 8.71189e-22)
(1.05583 0.0468866 6.07893e-21)
(1.09426 0.0385928 -3.87877e-21)
(0.92403 -0.164445 -6.53723e-21)
(0.658038 -0.0676714 -9.77835e-21)
(1.01912 0.0071958 5.45043e-24)
(1.01121 -0.0048255 -6.82917e-23)
(0.973662 -0.053347 5.31215e-21)
(1.0029 9.06957e-05 -7.98732e-22)
(0.977046 0.282795 9.58372e-21)
(1.03022 0.00992547 -2.49175e-21)
(1.01323 0.000892892 0)
(1.09736 0.0457848 -1.62955e-20)
(-0.0671557 0.0874411 0)
(1.18499 0.0804563 0)
(1.07917 0.024813 2.85774e-22)
(1.03127 0.0238873 5.59486e-22)
(1.16316 0.0807225 -4.74499e-20)
(1.01017 0.00343558 1.98469e-22)
(1.0186 0.00592895 -2.83586e-22)
(1.07275 0.0289173 1.87757e-20)
(1.00483 0.00029807 2.86368e-22)
(1.16998 0.0808791 0)
(1.1237 0.0866132 7.45472e-21)
(0.722266 0.0806338 -4.40268e-20)
(0.885633 0.132763 3.60209e-20)
(1.00504 0.000311035 3.54104e-24)
(-0.162504 0.0572471 5.29434e-20)
(-0.183416 0.0940171 9.33421e-20)
(1.18818 0.0836043 8.79714e-20)
(1.01645 0.00110285 3.96976e-22)
(1.06567 0.0183499 1.42186e-22)
(1.09564 0.0467174 -1.56048e-20)
(1.09277 0.214698 -1.18946e-21)
(1.02478 0.0203142 0)
(1.0146 0.0104063 1.03347e-21)
(1.18993 0.113917 -6.58247e-21)
(1.00991 0.00324812 -3.84543e-22)
(0.807238 0.127162 5.03076e-20)
(1.10758 0.0541525 -1.1045e-20)
(-0.108048 -0.290543 2.24621e-20)
(1.18483 0.0995412 1.68716e-20)
(-0.191939 0.091387 -3.03256e-20)
(1.13783 0.0774986 4.66183e-20)
(1.03079 0.0238139 0)
(-0.140415 0.0549945 4.41091e-20)
(1.03054 0.0187774 0)
(0.713852 0.306638 0)
(-0.0907237 -0.267469 -3.40389e-20)
(0.43738 -0.0830605 -6.06909e-21)
(0.941793 -0.0490983 2.8069e-21)
(1.01933 0.00630654 -4.40432e-21)
(1.04432 0.16395 1.13089e-20)
(0.487659 0.341692 -1.08605e-20)
(1.03336 0.000438824 7.61768e-21)
(1.1851 0.102638 -2.74507e-20)
(1.04119 0.0238132 0)
(0.936489 0.294582 3.71867e-21)
(1.18548 0.079484 -4.1647e-20)
(1.03236 0.0103787 -2.64662e-21)
(1.00656 -0.000116784 6.11215e-22)
(1.00694 0.00159105 -1.78527e-22)
(1.05509 0.116532 3.34786e-21)
(1.06573 0.0204774 -2.65969e-22)
(1.00809 0.000232185 9.15757e-23)
(1.00705 0.00164772 -1.58677e-22)
(1.01054 0.00338272 2.24895e-22)
(0.659707 -0.0948898 4.73264e-21)
(1.09691 0.0495068 -1.98426e-20)
(1.04881 0.0915894 -1.00361e-21)
(1.00729 -8.99236e-05 5.74245e-22)
(1.00947 0.00321869 0)
(1.00309 5.4851e-05 2.47725e-22)
(0.657469 0.0770812 -3.27694e-21)
(0.994461 0.0153426 -1.77047e-21)
(1.16039 0.084428 2.51858e-20)
(1.07194 0.0279243 -8.47432e-21)
(0.72842 0.113109 -8.05829e-21)
(1.0121 -0.00201562 1.24147e-21)
(1.01141 -0.00176639 0)
(1.04099 0.0229873 0)
(1.01323 -0.00229054 1.13907e-21)
(1.03701 0.161328 7.87488e-21)
(1.06483 0.017586 -3.9446e-24)
(1.09549 0.0508036 1.84536e-21)
(1.02986 0.0100337 6.53917e-21)
(1.0121 0.00234816 2.93006e-22)
(1.01142 0.00390638 0)
(1.04725 0.0154214 0)
(1.00672 -0.000161914 1.15588e-21)
(1.06485 0.0197974 -1.2157e-20)
(1.03126 0.0237083 0)
(0.999082 0.0166595 -1.39034e-21)
(1.01555 -0.0122025 -1.76629e-22)
(1.04242 0.0343788 0)
(1.0078 -9.46097e-05 -6.33308e-22)
(1.00516 0.000424261 0)
(1.01775 0.00747526 0)
(1.00961 0.00320233 -6.04521e-23)
(1.00367 -0.0239185 0)
(1.04643 0.0156628 -6.66078e-21)
(1.21071 0.111131 0)
(1.02886 0.0283329 -1.48714e-21)
(1.03359 0.00037151 -5.01102e-21)
(0.992674 0.0552265 -7.37921e-21)
(1.19649 0.102813 -6.12839e-23)
(1.10984 0.0546602 0)
(1.00268 -0.0190694 0)
(0.981478 -0.1131 -1.22398e-21)
(0.942326 0.281272 0)
(1.01699 0.0241771 2.93907e-22)
(1.01125 0.00384729 -2.49947e-22)
(1.01616 0.0118804 0)
(1.01888 0.00457032 9.28666e-22)
(1.01909 0.0788397 0)
(1.17079 0.0737896 -2.57205e-20)
(1.06888 0.10244 9.63556e-21)
(1.00515 0.00044823 0)
(1.00681 -0.000107931 -6.23738e-22)
(1.00818 0.00235342 1.4266e-23)
(1.02969 0.00109037 0)
(1.0079 0.00030297 0)
(1.03143 0.00195554 2.59645e-22)
(1.18257 0.0899017 -3.68118e-20)
(1.02181 0.0271952 0)
(1.0168 0.0046722 -1.03371e-21)
(-0.20227 0.0537776 2.52712e-20)
(1.01143 0.00186791 3.21762e-22)
(1.01954 0.00444632 0)
(1.00589 0.00311683 0)
(0.680511 0.494085 1.71549e-20)
(1.00375 -9.80461e-06 -6.2193e-22)
(1.12596 0.0788393 1.50041e-20)
(1.0234 0.0276104 -2.07193e-22)
(1.00869 0.0027628 4.60637e-22)
(1.00696 -0.000148399 -1.16266e-21)
(-0.184147 0.0500648 0)
(1.09811 0.0926464 4.58608e-21)
(0.418328 0.0365716 0)
(1.13544 0.0780075 -5.99561e-20)
(1.16299 0.0835363 -2.59601e-20)
(1.07141 0.11947 -1.00473e-20)
(1.07048 0.0338395 7.23097e-21)
(1.1663 0.105137 3.37329e-20)
(1.01233 -0.00208167 -6.05858e-22)
(1.01964 0.00667688 5.50518e-21)
(1.00787 0.0386656 1.6314e-21)
(1.01004 0.0033424 0)
(-0.158793 0.101048 -1.08555e-19)
(1.00787 0.000465503 2.74855e-22)
(1.02998 0.0218761 -4.18954e-21)
(1.1807 0.0896325 2.88808e-22)
(0.993146 -0.0312826 1.32733e-21)
(1.01621 0.00448261 1.06799e-21)
(1.01129 0.00199416 -3.2487e-22)
(-0.166742 0.103917 1.05885e-19)
(1.00352 -0.000172039 -4.04177e-22)
(1.03026 0.0037869 0)
(1.18742 0.117642 2.25704e-20)
(0.8284 0.0871303 0)
(1.22621 0.248056 -5.35986e-20)
(1.03347 0.0105645 0)
(1.23265 0.11049 -2.09355e-21)
(1.03042 0.0221134 1.36936e-21)
(1.01141 0.00369494 -7.57984e-23)
(1.22051 0.243213 4.12511e-20)
(0.932383 -0.158241 -1.88757e-21)
(1.21875 0.112735 1.14615e-21)
(0.972733 -0.0771856 1.88198e-21)
(1.00721 -0.000294059 3.0119e-22)
(0.997073 -0.0257584 7.38666e-22)
(1.01476 0.00633899 -5.78929e-23)
(1.01058 0.000714166 -1.10006e-21)
(1.02686 0.0147248 0)
(-0.00449961 0.0886877 0)
(1.21371 0.0980288 -2.96436e-20)
(0.00562516 0.0911176 0)
(1.19974 0.115913 0)
(1.00482 0.000321985 2.73476e-22)
(1.01913 0.00685943 1.44344e-21)
(1.01752 0.00410147 0)
(1.03157 0.000515281 6.29283e-21)
(1.01161 0.00377075 7.60576e-22)
(1.00534 0.000492574 -5.79561e-22)
(1.01221 0.003623 8.81364e-22)
(0.906097 -0.17576 7.39173e-21)
(1.01785 0.00637082 -9.51915e-22)
(1.18791 0.0842079 -2.6443e-20)
(0.42467 0.0466283 -1.69397e-21)
(1.0084 0.00248476 -3.40939e-22)
(1.00748 -0.00026996 -7.55649e-22)
(1.02262 0.00591675 3.46915e-21)
(1.07662 0.0141067 1.68131e-20)
(1.06458 0.0997498 0)
(1.01695 0.00752567 -7.02482e-22)
(1.01003 0.00168415 1.17202e-21)
(1.00386 0.000125517 1.23918e-21)
(1.18511 0.0769379 0)
(0.85672 -0.11512 0)
(1.01085 0.00375348 2.333e-22)
(1.01472 0.0124038 -5.89645e-22)
(1.2188 0.270768 2.29178e-20)
(1.03096 0.0193279 0)
(1.01613 0.00761416 1.5508e-21)
(1.01227 -0.0109643 -2.87591e-21)
(1.01127 -0.00524068 -1.55942e-23)
(1.02376 0.0196372 0)
(0.649748 0.142273 1.11674e-20)
(1.14971 0.132821 7.65246e-21)
(1.01893 0.00628825 0)
(1.1842 0.0778852 0)
(0.738564 0.290677 -3.5599e-21)
(1.04345 0.0223742 1.10486e-20)
(1.02426 0.0202682 6.09056e-22)
(1.0168 0.0076847 6.93769e-22)
(1.02223 0.00567246 -3.55399e-21)
(1.05106 0.0410781 3.26039e-22)
(1.11354 0.153039 2.80481e-20)
(1.20788 0.271108 -2.56971e-20)
(1.07644 0.0115216 -2.12666e-20)
(1.10143 0.0935949 0)
(1.14677 0.13653 -2.66121e-20)
(1.01369 0.00639917 2.15576e-22)
(1.03645 0.0247058 0)
(1.04996 0.0289175 -1.04127e-21)
(1.00224 -0.0458083 -7.07496e-22)
(1.20866 0.0758452 -7.54139e-21)
(1.21196 0.103616 3.35012e-20)
(1.02959 0.0321067 2.44697e-21)
(1.20733 0.0733261 3.52464e-20)
(1.01122 -0.0082999 3.23882e-21)
(1.06099 0.0990367 0)
(0.836564 0.452588 0)
(1.01418 0.00615487 6.52769e-23)
(1.06444 0.0223424 0)
(1.00714 -8.81225e-05 -1.14947e-21)
(1.0268 0.0132646 2.16089e-21)
(1.0304 0.110912 3.23767e-21)
(1.0663 0.0117832 0)
(1.01257 0.00421544 -1.39771e-21)
(1.0829 0.0257863 1.14069e-20)
(1.00752 -8.95598e-05 -3.14507e-22)
(0.47557 0.294647 8.18908e-21)
(1.03277 -5.27136e-05 1.2278e-21)
(1.01666 0.0136143 1.39791e-23)
(1.06506 0.0123345 1.86427e-20)
(1.01765 0.00772117 0)
(1.02215 0.257583 -9.8842e-21)
(1.04602 0.112913 -1.01911e-21)
(1.0041 0.000169187 0)
(1.02322 0.0195108 0)
(1.02587 0.0133352 0)
(1.00413 -0.00021361 -4.03098e-22)
(1.06732 0.0129861 0)
(1.07671 0.0171792 3.15561e-22)
(1.01508 0.00646894 -8.70573e-23)
(1.00404 -2.52072e-05 7.53414e-22)
(1.02849 0.0316903 0)
(0.788293 0.440439 0)
(1.01242 0.00394416 -7.68894e-22)
(1.03116 0.00513622 0)
(1.03315 0.00568331 0)
(0.0253221 0.0927291 0)
(1.01264 -0.00733151 8.56946e-24)
(1.01453 0.00670534 1.34261e-21)
(0.65171 0.256556 0)
(0.765778 -0.182961 0)
(1.02953 0.0128675 0)
(1.06549 0.0219317 -1.29869e-20)
(1.12556 0.0843935 -7.09912e-21)
(1.01108 -0.00262721 -7.51436e-24)
(1.01099 -0.00285665 -1.82637e-23)
(1.0431 0.0568017 2.56302e-21)
(1.0325 0.0436335 0)
(1.03973 0.0425349 4.08461e-21)
(1.01432 0.00667307 -7.61573e-22)
(1.00961 0.00839358 0)
(0.989009 -0.0308464 1.52126e-22)
(1.00963 0.00329003 -2.39325e-22)
(1.00334 5.69431e-05 7.97437e-22)
(1.01793 0.00445313 -3.99323e-22)
(1.08729 0.0285299 -1.25334e-20)
(0.895 -0.0385282 0)
(1.01446 0.00630151 -1.16655e-22)
(0.642367 0.117097 -5.39996e-21)
(1.09774 0.0434365 0)
(1.18577 0.0822594 5.51945e-20)
(1.00624 0.00115174 0)
(1.0567 0.0517243 -1.12488e-22)
(1.09656 0.0422885 -4.32728e-22)
(0.457093 -0.0285982 -4.40191e-21)
(1.0411 0.112397 9.58509e-22)
(1.03594 0.0415502 0)
(1.02225 0.247485 0)
(1.14075 0.110369 -2.09688e-20)
(1.00809 0.00952782 0)
(0.971394 -0.0311084 4.77145e-22)
(1.03845 0.0416736 -3.54495e-21)
(0.991314 -0.0583168 0)
(1.06417 0.0115204 -2.39504e-22)
(1.01676 0.0142248 1.09429e-23)
(1.01309 0.00744453 0)
(1.0844 0.0301638 0)
(0.489595 -0.0847504 0)
(1.00564 0.000525811 -1.77328e-22)
(1.0187 0.00411075 -3.92742e-22)
(1.01478 0.00842862 0)
(0.723255 0.136889 1.22497e-20)
(0.986044 -0.0460456 0)
(1.03159 0.0518719 0)
(1.12214 0.0294059 -2.81084e-20)
(1.00282 0.0356206 2.95674e-21)
(1.03202 0.170067 2.66912e-22)
(1.03376 0.000331832 -2.24724e-21)
(1.06193 0.0107235 -1.18562e-20)
(0.0615734 0.096967 -3.333e-20)
(1.01478 0.0209385 1.2295e-20)
(1.07193 0.0331539 -8.00873e-21)
(1.06653 0.0120578 0)
(1.02105 0.0018091 0)
(1.00634 0.00120048 2.02705e-22)
(1.00909 -0.000997929 0)
(1.09533 0.181993 1.05543e-20)
(1.1215 0.0657749 -1.98453e-21)
(1.00574 0.000464937 0)
(1.01614 0.0811133 0)
(1.01845 0.00753645 3.49746e-22)
(1.01636 0.00108356 -4.68806e-22)
(0.95055 -0.13977 -1.99944e-21)
(1.00931 0.000622165 0)
(1.03605 0.0258137 0)
(1.05749 0.0233928 0)
(0.990565 0.071581 -2.42611e-22)
(1.01038 -0.0647007 0)
(1.00973 0.0033412 6.21113e-23)
(1.07816 0.0139448 -2.54311e-20)
(0.492168 0.287436 1.32902e-20)
(1.02627 0.0116581 1.13138e-21)
(1.02454 0.167917 8.88315e-23)
(1.03245 0.00608799 0)
(1.02852 0.0110916 -2.36188e-21)
(1.0289 0.0109805 5.04195e-21)
(1.02322 0.0200456 -1.09216e-21)
(0.789027 0.0637173 4.68392e-22)
(1.02124 0.0210287 -1.27329e-23)
(1.03209 0.00626685 0)
(1.04258 0.0232557 5.65331e-21)
(1.00481 0.000195728 0)
(1.01254 0.00878451 0)
(1.04396 0.0197753 -6.14479e-21)
(1.08025 0.0555356 -1.46212e-20)
(1.0115 0.0100527 0)
(1.02263 0.00634583 0)
(1.01606 0.0562585 1.40072e-21)
(1.01181 -0.00563321 0)
(1.01153 -0.00503127 -1.02501e-23)
(0.686568 0.463317 -1.78961e-20)
(1.07989 0.0536048 0)
(-0.0297427 0.0884691 3.31757e-20)
(-0.208913 0.0976195 -3.32189e-20)
(0.955164 -0.0790312 0)
(1.00436 6.37448e-05 7.95151e-22)
(1.0044 4.79194e-05 4.87438e-22)
(1.04289 0.00205241 -6.0114e-21)
(0.992803 -0.0572576 -4.28757e-23)
(1.00979 0.00163811 -1.24599e-21)
(1.01378 -0.00957869 -2.41864e-22)
(1.03468 0.00141491 0)
(0.849807 0.0569756 0)
(1.00541 0.000654533 -1.74228e-22)
(1.01079 0.00358214 -4.75326e-22)
(1.01038 0.00350106 0)
(1.09219 0.17818 1.01155e-20)
(0.842185 -0.210728 1.25816e-21)
(1.20306 0.0955657 1.9555e-20)
(1.05541 0.0487651 -1.30642e-20)
(1.02979 0.0345659 0)
(0.619164 0.106561 -1.98762e-20)
(-0.146955 0.0868854 -1.97868e-20)
(1.00549 0.000785644 -3.95648e-22)
(0.977792 -0.102479 -5.71309e-22)
(1.03838 0.0264392 0)
(-0.218319 0.0946265 -1.54081e-20)
(1.03443 0.0164169 2.16703e-21)
(1.01431 0.00972343 0)
(1.00477 0.000421382 5.80275e-22)
(0.877294 -0.106609 2.06531e-22)
(1.00495 0.000182423 5.16491e-22)
(1.01159 -0.00184805 -1.3211e-21)
(1.02153 0.0189499 -4.35241e-22)
(0.756849 0.0856291 5.59002e-20)
(1.00691 -8.95896e-05 1.34791e-21)
(1.02259 0.0193027 0)
(1.01287 -0.00218591 -1.57847e-21)
(0.280116 0.108926 2.59923e-20)
(1.01844 0.00725801 -6.84106e-22)
(1.0312 0.0847382 0)
(1.01534 -0.0115913 0)
(1.00791 0.0132329 1.43988e-21)
(1.01011 -0.00108726 8.66438e-23)
(0.239498 -0.192003 2.02623e-20)
(1.05701 0.0502783 -3.78363e-21)
(1.00474 -0.000276195 2.37713e-23)
(1.03452 0.0011935 -4.72434e-22)
(1.04216 0.00200301 0)
(1.00884 0.0027933 7.77374e-25)
(1.00462 0.000325675 -5.66193e-22)
(1.00878 0.000928561 1.75076e-22)
(1.01255 0.00279815 4.91729e-22)
(1.03391 0.016442 2.23572e-21)
(1.02903 0.0126375 0)
(1.02279 0.0130285 -2.87578e-21)
(1.12308 0.106781 -3.07241e-20)
(0.889564 0.22375 0)
(1.02405 0.00111649 0)
(0.993114 0.0765551 6.41839e-22)
(1.02151 0.0116616 0)
(-0.214462 -0.03504 1.92571e-20)
(0.984363 -0.0814332 9.86916e-22)
(1.0097 0.00316923 0)
(1.19874 0.0783783 0)
(1.0611 0.0477179 1.30391e-22)
(0.829878 0.324816 1.22535e-20)
(1.01032 0.00334811 -4.26843e-22)
(0.983235 0.0334646 9.87004e-21)
(1.03199 0.00276813 -5.52636e-21)
(1.01006 0.00148027 1.03687e-21)
(0.685648 0.496289 1.54371e-20)
(1.00715 0.00550623 7.52275e-22)
(1.04511 0.0577323 8.6025e-21)
(0.47697 -0.1911 1.96562e-20)
(1.0161 -0.0132716 2.14984e-22)
(1.02843 0.0089234 0)
(1.00561 0.000840717 2.19556e-22)
(0.167537 0.107924 3.67652e-20)
(1.01015 0.00349344 0)
(1.06737 0.0445993 0)
(1.06756 0.0415356 8.05816e-21)
(1.16172 0.0527043 -1.74719e-20)
(1.00181 7.48855e-05 -6.09675e-22)
(1.18611 0.0815396 -4.26917e-20)
(1.00302 0.0331452 -2.8952e-22)
(1.01031 0.000124223 8.31076e-22)
(1.02631 0.0142668 0)
(1.02637 0.0128123 6.42076e-23)
(1.03798 0.0619522 -5.67725e-23)
(1.09476 0.0547104 1.52325e-20)
(1.01376 0.00611207 0)
(1.0076 -0.000680248 0)
(0.970271 -0.0804395 0)
(0.637725 0.130923 -6.38097e-20)
(1.01563 -0.0168877 -1.25635e-20)
(0.99982 0.0319662 -1.5235e-21)
(1.02006 0.0487256 3.38936e-22)
(1.2215 0.106752 2.24353e-21)
(1.06188 0.0231094 1.68912e-22)
(1.00994 -0.000216155 8.37534e-22)
(0.905252 0.0567926 3.23574e-20)
(1.00977 0.00145383 -1.39926e-21)
(1.00377 0.00314667 -7.33273e-22)
(1.00952 -0.000124872 -1.50036e-21)
(1.00942 -0.000869464 -8.65662e-23)
(1.00637 -9.46926e-05 0)
(1.02181 0.000587907 -3.17838e-21)
(1.01407 -0.00996776 4.37271e-23)
(1.06082 0.111269 0)
(1.0266 0.0106497 -1.61359e-21)
(1.00486 0.000180482 0)
(1.20863 0.101572 2.66249e-20)
(0.253069 -0.172899 0)
(0.966432 -0.15152 0)
(1.01111 -0.000575641 4.15359e-22)
(1.20329 0.0819483 -3.93068e-20)
(1.0241 0.0158479 -9.24097e-22)
(1.06989 0.03656 1.67916e-20)
(1.01162 -0.00434468 0)
(1.01551 -0.0126373 0)
(1.00498 0.000383128 0)
(0.590327 0.126987 9.85182e-20)
(1.01336 0.0174054 0)
(1.01334 0.00602871 4.79477e-22)
(0.301382 0.107183 -4.38375e-20)
(1.01395 0.00626842 7.33568e-22)
(1.14136 0.0740198 4.69856e-21)
(1.1708 0.103243 -1.95018e-20)
(1.00446 0.000339605 0)
(1.01113 0.0436319 0)
(0.813385 -0.10589 -1.68806e-22)
(1.10917 0.148527 -7.61406e-21)
(1.02263 0.0198825 0)
(1.01393 -0.00743974 1.09211e-21)
(1.00835 0.00254086 6.38157e-23)
(1.00749 0.000768103 2.57733e-23)
(1.01028 0.00152136 0)
(0.767993 0.0364164 3.35588e-20)
(1.00512 0.000236538 0)
(0.939213 -0.141423 0)
(1.02407 0.0154943 -1.69076e-21)
(1.06111 0.0458747 1.12176e-22)
(0.886889 -0.191388 0)
(1.00771 0.000728148 -5.50975e-23)
(0.647868 0.103882 0)
(0.758727 0.0307071 0)
(1.0028 0.00909302 -8.1557e-22)
(1.01532 0.00712462 4.07683e-22)
(1.00977 -0.000774588 6.93254e-25)
(1.00994 -0.00102467 6.04371e-22)
(1.00902 0.00289367 -7.93714e-25)
(1.01063 -0.0392481 -4.43519e-22)
(0.814911 0.0695221 0)
(1.04608 0.0223838 5.61296e-22)
(1.20471 0.0922193 6.96363e-22)
(1.03959 0.0289417 -1.70654e-21)
(1.03176 0.116186 -3.16222e-21)
(0.999456 0.0240954 -1.78452e-21)
(1.02944 0.0277247 2.06614e-21)
(1.06078 0.010118 0)
(1.07561 0.00919997 8.11549e-21)
(1.01357 0.00598607 0)
(1.10641 -0.0415815 -3.26734e-22)
(0.844871 0.0193027 1.24107e-21)
(1.0573 0.102722 -8.7939e-21)
(1.0739 0.0292804 -5.06776e-22)
(1.01656 0.00215483 1.94663e-21)
(1.01262 0.00253841 6.77907e-22)
(1.01212 0.0266136 0)
(0.445378 0.0151807 6.94225e-21)
(1.06034 0.00241955 -2.2849e-22)
(1.00736 -8.96725e-05 -5.60917e-22)
(1.0221 0.0191525 4.31008e-22)
(0.831429 0.0389636 0)
(1.03418 0.0216265 1.75806e-23)
(0.705967 -0.17152 0)
(1.01253 0.0177541 0)
(1.01408 0.0234838 3.52627e-22)
(1.00675 -9.92526e-05 -1.22354e-21)
(1.1241 0.066163 -1.31606e-20)
(1.00754 -9.25089e-05 -3.48605e-22)
(1.12077 0.104105 0)
(1.2056 0.0956994 -4.10828e-20)
(1.01603 0.00830349 1.48107e-21)
(1.01068 0.00012104 -7.18014e-22)
(1.0114 0.000466628 4.67495e-22)
(1.06306 0.0139654 0)
(1.02128 0.0147903 -2.08097e-21)
(1.01176 0.00277822 -3.18225e-22)
(0.983633 0.0722519 2.18241e-22)
(1.00784 0.0430559 0)
(1.03584 0.0263931 0)
(1.01112 0.000140744 3.53895e-22)
(1.02846 0.0878761 -4.07336e-21)
(1.10124 0.207682 4.94324e-21)
(0.98119 0.0667328 0)
(1.06014 0.0244466 0)
(1.01105 -0.00491731 7.84893e-23)
(1.0261 0.00555131 -3.38275e-22)
(0.0385972 0.0953824 -5.38648e-21)
(1.0151 0.00711165 -3.78274e-22)
(1.01498 0.0183099 1.06558e-21)
(0.969334 0.0570577 0)
(1.02542 0.0132885 2.48804e-21)
(1.03234 0.000885672 -5.42424e-21)
(1.12148 0.0367667 1.95232e-20)
(1.01682 0.044767 -1.3084e-21)
(1.00928 -1.43959e-05 0)
(1.02144 0.0194958 1.6145e-22)
(1.01513 -0.00480653 -1.4779e-21)
(1.01669 0.00186999 -8.90123e-22)
(1.19517 0.113518 6.94519e-21)
(1.02178 0.000558776 0)
(1.01734 0.00548372 0)
(1.04154 0.0333229 1.09314e-22)
(-0.213372 -0.100298 0)
(1.03009 0.00792407 0)
(1.06269 0.0117023 -1.78316e-21)
(1.01489 -0.00362851 0)
(1.0024 0.0213636 -1.36497e-21)
(1.01175 0.00429807 6.37506e-22)
(1.00384 2.30777e-05 -6.50317e-22)
(0.93893 0.129473 2.94556e-20)
(1.03621 0.0192445 -5.493e-22)
(1.01619 0.00880399 -1.09536e-21)
(1.0052 -0.000321783 7.17676e-22)
(1.0329 0.00977043 0)
(1.00378 -0.0361761 1.07684e-20)
(1.06551 0.0675313 0)
(0.80208 0.0386156 -6.9804e-22)
(1.01951 0.00490563 0)
(1.03702 0.0254497 0)
(1.01509 -0.00840621 -1.67381e-21)
(1.20709 0.0915996 -7.33481e-20)
(1.01981 0.00807474 0)
(1.16017 0.0512319 4.88054e-22)
(1.05743 0.105146 -9.4095e-21)
(1.01586 0.00811875 0)
(1.05765 0.0467285 -6.6715e-21)
(1.01467 -0.00387201 -4.57928e-22)
(1.02958 0.00656085 4.85335e-22)
(1.07747 0.00728494 -1.78753e-20)
(1.03343 0.00610505 0)
(0.258559 -7.50857e-05 2.63407e-20)
(1.08647 0.0227012 0)
(1.03415 0.0199506 5.86477e-22)
(1.12455 0.0758674 -7.04437e-21)
(1.02324 0.0114629 7.79536e-22)
(0.934934 0.0965729 0)
(1.01553 0.0474281 6.60368e-22)
(0.150396 0.092559 0)
(1.0051 -0.00165168 0)
(1.00896 0.0250874 -1.5117e-21)
(1.06131 0.0249335 8.89168e-21)
(1.03046 0.0275605 -6.21611e-22)
(1.0433 0.0199335 0)
(1.01421 0.0187186 4.87819e-22)
(1.20256 0.153035 -2.2473e-20)
(1.00533 0.00051565 0)
(1.03697 0.0377547 -1.32635e-21)
(1.00549 -0.00437226 2.2028e-21)
(1.01976 0.0180852 0)
(1.03789 0.00648772 7.71763e-21)
(0.96277 -0.130097 0)
(1.08397 0.0271271 0)
(1.03413 0.0222096 0)
(1.02027 0.00557488 0)
(0.878407 -0.0472066 -9.75626e-22)
(1.06948 0.0097995 0)
(1.20798 0.068092 3.04114e-20)
(0.990029 -0.0984445 7.1212e-21)
(1.02835 0.0100877 0)
(1.04366 0.0670764 0)
(0.93707 0.12693 -2.98763e-20)
(0.825771 -0.211056 -5.32132e-23)
(1.04218 0.03514 -8.86929e-21)
(1.04367 0.0652214 0)
(0.997834 0.027334 2.75923e-21)
(0.671921 0.00979479 7.88159e-20)
(1.05011 0.0521031 -1.57901e-22)
(1.01228 0.00280946 -1.08006e-21)
(1.0268 0.0618076 5.21736e-22)
(1.03302 0.0107652 0)
(0.0881647 -0.294889 3.97045e-20)
(0.299062 -0.00385111 -2.38657e-20)
(1.03235 0.00953133 1.67344e-21)
(1.14152 0.154344 0)
(1.00644 0.0112555 -7.2538e-23)
(1.19738 0.105306 4.60136e-20)
(1.00265 2.9013e-05 -2.40261e-22)
(1.01072 0.000161648 3.46667e-22)
(1.19544 0.0791602 0)
(-0.0948612 0.0597487 -3.61953e-20)
(1.00421 -5.65147e-05 -3.06622e-22)
(1.02581 0.0331272 0)
(1.20957 0.0705128 -6.65165e-20)
(1.0172 0.0122417 1.33214e-21)
(1.02213 0.00173435 -7.13115e-22)
(0.967301 0.007112 1.0582e-21)
(1.14375 0.099024 -1.91084e-20)
(1.02072 0.0332529 1.65546e-22)
(0.680338 0.266813 1.92418e-21)
(1.02235 0.0125715 2.72525e-21)
(1.02362 0.0302804 1.16162e-21)
(1.01744 0.0058484 0)
(1.01904 0.0386753 1.18218e-21)
(1.18267 0.0432639 -6.68394e-20)
(1.22289 0.0951217 -4.26318e-21)
(1.04631 0.0181572 -3.95971e-21)
(1.0303 0.141497 -3.32536e-20)
(1.02008 0.00496621 0)
(1.06104 0.0457211 -5.55401e-22)
(1.01986 0.0053995 0)
(1.06935 0.00900569 0)
(0.785417 -0.158221 6.00487e-22)
(1.06974 0.0464718 0)
(1.03627 -0.00516305 -3.58973e-21)
(1.00558 0.000313994 -2.23419e-21)
(1.01087 0.00183019 1.58501e-21)
(1.20502 0.0837215 3.68038e-20)
(1.11066 0.147279 -5.13262e-21)
(1.01208 -0.00199892 -3.06819e-22)
(1.03237 0.0233869 -1.34674e-21)
(1.01166 0.0162702 0)
(1.01347 0.00593444 0)
(1.00774 -0.000101923 0)
(1.06243 0.030527 0)
(1.01789 0.0305272 3.66371e-22)
(0.997266 -0.105886 1.49423e-21)
(1.14374 0.11224 -1.89886e-20)
(1.02523 -0.00158673 1.3473e-21)
(1.12367 0.0336423 0)
(1.03227 0.00208849 0)
(1.12451 0.02895 2.89293e-20)
(1.00407 0.0117502 2.39766e-21)
(1.02251 0.041803 -1.60711e-21)
(1.06779 0.0670988 -1.08512e-20)
(1.01749 0.00553118 -2.03348e-21)
(1.00542 0.000591478 0)
(1.03583 -0.096299 3.52615e-22)
(1.04464 0.049502 0)
(0.150501 0.106304 -3.98636e-20)
(0.88371 0.0817436 -6.85632e-21)
(1.01784 0.00634468 1.01486e-21)
(1.01899 0.0265831 -1.06207e-21)
(1.01889 0.0180637 -5.77931e-23)
(0.118007 -0.273456 -3.58986e-20)
(1.00295 -0.000116078 4.58736e-25)
(1.00285 3.5043e-05 5.18076e-22)
(1.01531 0.00667259 5.5608e-23)
(1.05463 0.0365083 -1.51065e-21)
(1.01269 0.00206309 -9.92319e-22)
(1.19741 0.0798492 0)
(1.01131 0.00403543 1.43108e-23)
(0.905959 -0.158243 -1.30841e-21)
(1.01158 -0.00550693 -4.74498e-23)
(1.02446 0.0332207 0)
(1.02339 0.0315877 1.47917e-21)
(1.00711 -0.000602512 4.54282e-23)
(1.00803 -0.000514931 0)
(1.0375 0.00618397 -5.67213e-21)
(1.00542 0.000319872 1.57707e-21)
(1.03778 0.0832624 0)
(1.01069 0.00192834 -1.41273e-21)
(1.03089 0.0670452 3.86399e-21)
(1.11018 0.157776 -2.72645e-20)
(-0.104579 0.0901781 2.38698e-20)
(1.18306 0.0686358 5.2387e-20)
(1.01311 0.00566902 0)
(1.08495 -0.0611605 -1.05178e-22)
(1.1083 0.0338504 -6.3415e-21)
(1.04043 0.0329231 2.71126e-21)
(1.02084 0.000157056 0)
(1.0721 0.0255279 0)
(1.14567 0.150081 4.09685e-20)
(0.899155 -0.169059 5.09204e-22)
(0.680398 0.0156418 -3.18704e-20)
(0.871064 -0.0748495 3.91768e-21)
(1.0134 0.00584579 3.20412e-23)
(1.03992 0.031673 2.92347e-21)
(1.10171 0.0311468 2.28851e-20)
(1.01284 -0.00738141 1.09548e-23)
(1.04038 0.0632509 5.22842e-21)
(1.0131 0.000872883 0)
(0.982781 -0.100549 -2.93982e-21)
(1.05843 0.0388956 -5.76403e-22)
(-0.0721534 -0.213607 -1.98838e-20)
(1.03589 0.0399592 1.40982e-21)
(1.01954 0.0185444 0)
(1.00228 0.0554469 0)
(1.01587 0.0128812 0)
(0.85831 0.0978634 3.11844e-20)
(1.01796 0.00642705 3.03328e-22)
(1.0128 -0.0807344 1.24375e-20)
(1.03211 0.0234716 1.49363e-21)
(1.01001 0.0014987 9.32995e-23)
(0.927857 -0.089711 -8.98497e-22)
(1.03202 0.00222815 5.45842e-21)
(1.06715 0.00626116 1.25302e-21)
(1.05599 0.0362516 1.44559e-20)
(1.01899 -0.0354729 -2.64679e-22)
(1.18179 0.0671447 0)
(1.01463 0.000623175 0)
(1.0457 0.0176708 1.20832e-20)
(1.01135 0.000117054 3.49702e-22)
(1.02609 0.00114453 0)
(1.03008 0.0233639 -5.24776e-22)
(0.611449 0.375845 -7.69986e-23)
(1.18667 0.0831111 2.21543e-20)
(1.14201 0.0935339 0)
(1.0253 0.020766 4.81014e-23)
(1.00521 0.00028628 3.26133e-22)
(0.926263 0.12482 5.62991e-21)
(0.565607 -0.29035 0)
(1.07117 0.0358114 9.73017e-21)
(1.09644 0.0535244 2.3063e-21)
(0.964579 -0.0574813 3.47553e-21)
(1.17377 0.10532 2.29632e-20)
(1.06864 0.0386382 9.05132e-23)
(1.01482 -0.00211359 6.01488e-22)
(1.00233 0.0253178 2.14963e-21)
(1.05073 0.050532 4.8864e-21)
(1.04737 0.0302805 1.19595e-21)
(1.03367 0.0364628 -4.70373e-21)
(1.01072 -0.000466234 8.20535e-22)
(1.0297 0.0231519 -5.39534e-22)
(1.03812 0.00231801 -9.64644e-21)
(1.1866 0.0835631 0)
(1.01427 -0.00201525 -2.84999e-22)
(1.01835 -0.00632001 -1.10039e-21)
(1.01521 0.013125 -3.14699e-22)
(1.01511 0.0124941 0)
(0.625328 0.323814 -2.99089e-22)
(1.01264 0.00464877 9.32728e-22)
(1.00824 0.00225356 0)
(1.00449 -2.10138e-05 0)
(1.0058 0.000358499 6.52265e-22)
(1.02276 0.0110594 0)
(1.02151 0.0120275 6.63205e-22)
(1.0684 0.0935391 1.32761e-20)
(1.01015 -0.000304547 -8.07591e-22)
(1.17384 0.0811727 0)
(0.34734 0.0298787 -2.29709e-20)
(0.887154 0.169901 2.59261e-21)
(1.03804 0.00205476 8.53564e-21)
(0.205227 0.0990486 -9.11774e-22)
(1.19411 0.0802616 -2.87855e-20)
(1.03343 0.0169393 5.04166e-21)
(1.0104 0.000682176 7.15216e-22)
(1.11987 -0.0190317 0)
(0.891707 0.184678 -2.3403e-21)
(1.01318 0.00562272 -1.4283e-21)
(1.10087 0.0179865 -9.35913e-21)
(1.0243 0.0121005 1.42629e-22)
(1.00501 0.00264444 2.43709e-21)
(1.14643 0.101103 1.90221e-20)
(1.03562 0.0863359 0)
(1.01924 -0.00809994 5.09301e-22)
(0.812916 -0.185473 -1.84807e-21)
(1.02281 0.0122515 -2.87061e-21)
(1.01416 0.0111684 -1.45839e-22)
(1.06911 0.0408366 0)
(1.0092 0.000426803 0)
(1.01052 -0.000399616 0)
(1.00924 0.000499911 4.86378e-22)
(0.91062 0.139818 -2.06129e-22)
(0.913871 0.120078 6.08591e-22)
(1.14456 0.0953471 2.04007e-20)
(1.03665 0.0241112 2.11003e-21)
(1.02064 0.00185011 0)
(1.01254 0.00366209 8.35361e-22)
(1.09312 0.0734138 4.81281e-21)
(1.01457 0.00585094 5.80112e-22)
(1.02155 0.00147634 3.04636e-21)
(1.01612 0.0783583 -3.2775e-21)
(1.01009 0.00358927 0)
(0.533747 -0.252505 -8.19922e-21)
(1.0228 0.0117718 -6.9332e-22)
(1.00931 -0.00096471 -3.07226e-22)
(0.139423 -0.20788 0)
(1.00944 -0.000815435 0)
(1.04427 0.0340792 7.43817e-22)
(-0.0715315 0.0912577 -5.8632e-20)
(1.03195 7.52836e-05 4.21558e-21)
(1.00567 -0.000389479 -6.65236e-22)
(1.01828 0.00641444 -1.56668e-21)
(1.14281 0.167132 0)
(0.840895 0.212237 -1.75608e-21)
(0.841647 -0.0507075 -4.64376e-21)
(0.980433 -0.128219 9.49161e-21)
(1.06808 0.0961269 9.57789e-21)
(1.00479 0.000439584 0)
(1.01463 0.00734672 5.11281e-22)
(0.860171 -0.039022 -1.10109e-21)
(1.06831 0.0642956 -4.58221e-21)
(1.0066 -0.000128312 0)
(1.04382 0.00728479 0)