/*--------------------------------*- C++ -*----------------------------------*\
| =========                 |                                                 |
| \\      /  F ield         | OpenFOAM: The Open Source CFD Toolbox           |
|  \\    /   O peration     | Version:  v2012                                 |
|   \\  /    A nd           | Website:  www.openfoam.com                      |
|    \\/     M anipulation  |                                                 |
\*---------------------------------------------------------------------------*/
FoamFile
{
    version     2.0;
    format      ascii;
    class       volScalarField;
    location    "50";
    object      k;
}
// * * * * * * * * * * * * * * * * * * * * * * * * * * * * * * * * * * * * * //

dimensions      [0 2 -2 0 0 0 0];


internalField   nonuniform List<scalar> 
18540
(
9.35383e-05
6.0324e-05
8.44175e-05
0.000106383
8.65429e-05
6.10887e-05
8.20202e-05
0.00615873
6.04779e-05
8.72575e-05
8.88108e-05
0.000170566
0.000144335
0.00772149
8.62096e-05
6.05659e-05
6.41896e-05
8.03677e-05
6.08582e-05
8.18432e-05
0.00011135
6.70198e-05
6.04299e-05
9.00416e-05
6.23915e-05
8.63798e-05
8.93601e-05
0.0252249
0.000109858
0.0128033
0.00486749
7.16431e-05
8.12328e-05
6.39438e-05
8.6687e-05
6.27719e-05
0.00810422
8.45634e-05
6.05668e-05
9.73418e-05
0.000112135
6.17881e-05
8.48597e-05
7.90076e-05
6.33402e-05
6.38773e-05
0.00404397
6.33476e-05
6.67438e-05
0.000114205
0.00708758
6.80604e-05
7.07652e-05
0.000112135
9.69322e-05
0.00348147
9.78547e-05
8.41726e-05
9.38112e-05
0.000109809
8.99386e-05
7.62086e-05
7.08051e-05
6.17612e-05
6.09823e-05
6.0625e-05
6.34941e-05
9.85303e-05
0.000151554
6.178e-05
8.51903e-05
0.000109657
6.59625e-05
6.16299e-05
6.61511e-05
0.00442055
0.000143468
8.60535e-05
8.50186e-05
0.00604858
6.35766e-05
8.25337e-05
6.82126e-05
6.42216e-05
8.89042e-05
8.44813e-05
0.000142625
7.0197e-05
7.51285e-05
0.000118629
0.0001134
0.0322018
0.00012982
8.79264e-05
6.04744e-05
6.5902e-05
0.00014955
8.15877e-05
6.21337e-05
8.20587e-05
6.06024e-05
7.80031e-05
8.22342e-05
6.07548e-05
6.04349e-05
6.06209e-05
8.1813e-05
9.70189e-05
7.67166e-05
8.68961e-05
9.15139e-05
6.15303e-05
7.49808e-05
8.46047e-05
6.07376e-05
6.06902e-05
6.36796e-05
8.01334e-05
7.87778e-05
8.46358e-05
8.18404e-05
0.0316505
0.00356199
7.6869e-05
8.54097e-05
7.81824e-05
8.16351e-05
0.000104717
6.10851e-05
9.09411e-05
0.00721187
7.89896e-05
7.11209e-05
0.00415921
6.10211e-05
8.65257e-05
7.0632e-05
9.14247e-05
7.08937e-05
6.08393e-05
6.12042e-05
7.12806e-05
8.67328e-05
8.97489e-05
0.000109727
8.71385e-05
0.000110256
0.00588734
6.06896e-05
6.43222e-05
0.00891352
7.26298e-05
6.37505e-05
8.4659e-05
6.43234e-05
7.35922e-05
0.000212088
6.70135e-05
7.56177e-05
0.00688804
0.000425639
0.0147894
8.69567e-05
0.000388593
8.83282e-05
6.69253e-05
8.16279e-05
7.67733e-05
7.51387e-05
8.53343e-05
7.92986e-05
8.46557e-05
7.98978e-05
0.00668807
9.7835e-05
0.000222373
7.5321e-05
0.0400976
7.51585e-05
7.57699e-05
0.0151264
7.64249e-05
8.01298e-05
6.78905e-05
8.2461e-05
8.15361e-05
0.0429042
6.14436e-05
0.00014385
0.000117066
8.21026e-05
0.000423304
8.53336e-05
0.00615393
8.46987e-05
7.64159e-05
0.000143427
0.0162151
8.40148e-05
8.77413e-05
8.16795e-05
0.0425009
6.3342e-05
8.98849e-05
6.21241e-05
6.72974e-05
0.000101697
6.13637e-05
8.68372e-05
0.00362563
8.22223e-05
8.22812e-05
8.584e-05
6.8517e-05
0.00017616
0.00392395
6.05639e-05
6.34803e-05
0.000180651
0.00660042
9.3668e-05
6.13563e-05
0.00553758
8.04497e-05
8.645e-05
8.02895e-05
0.000103972
0.000116101
0.000110825
7.55688e-05
6.36412e-05
8.90791e-05
0.0414338
0.000192531
0.000125763
0.000112309
0.00012052
8.98709e-05
6.1507e-05
8.80992e-05
6.4349e-05
9.64457e-05
9.14722e-05
6.59173e-05
6.06218e-05
7.09063e-05
8.46979e-05
8.43048e-05
9.13483e-05
6.70397e-05
7.92028e-05
0.00167517
6.46507e-05
8.15328e-05
0.00759954
9.41639e-05
0.000332265
0.00251002
0.000125552
0.00625293
0.00363501
0.00553492
0.0092708
6.24256e-05
6.77482e-05
0.00423837
7.26127e-05
8.16066e-05
0.0159066
8.55772e-05
6.11561e-05
6.24691e-05
6.29571e-05
6.04048e-05
6.17576e-05
7.25447e-05
8.14334e-05
0.000120234
0.00302711
6.42723e-05
6.09857e-05
8.1908e-05
0.00599218
8.17039e-05
8.2954e-05
0.0565675
8.01841e-05
8.08984e-05
7.86754e-05
0.0592595
6.76787e-05
7.92719e-05
0.000118887
8.18686e-05
8.80722e-05
8.44759e-05
6.86958e-05
8.74346e-05
8.99444e-05
0.000105183
6.02183e-05
6.65786e-05
8.16408e-05
0.0500628
0.000120673
8.13488e-05
9.83688e-05
8.55081e-05
8.90108e-05
6.02082e-05
8.24052e-05
8.66091e-05
8.87058e-05
6.80232e-05
0.00011183
8.99008e-05
6.11795e-05
7.99301e-05
6.52778e-05
0.000107917
8.72587e-05
8.92167e-05
6.45015e-05
6.08719e-05
0.0499391
6.61435e-05
6.31085e-05
8.90344e-05
8.1382e-05
6.27072e-05
8.72029e-05
6.08373e-05
7.13724e-05
8.2055e-05
7.28565e-05
8.51414e-05
0.00185753
6.18785e-05
8.78611e-05
8.21705e-05
8.01496e-05
7.7665e-05
8.72546e-05
7.73307e-05
8.14058e-05
0.000346736
8.12545e-05
0.00503156
9.46422e-05
8.07004e-05
6.57179e-05
6.04167e-05
8.70619e-05
8.89684e-05
7.28039e-05
6.21375e-05
8.55549e-05
6.17257e-05
0.010399
8.42364e-05
7.59189e-05
8.52676e-05
8.82341e-05
0.000124364
8.76808e-05
7.50321e-05
8.63757e-05
8.06871e-05
6.23099e-05
9.4938e-05
7.12975e-05
6.15184e-05
6.72886e-05
0.0250871
0.000192115
0.00216766
8.92463e-05
8.58697e-05
9.07925e-05
7.53823e-05
0.0400588
7.25038e-05
9.01167e-05
8.02436e-05
8.41993e-05
8.87962e-05
6.67866e-05
8.61933e-05
0.000303624
0.000174065
6.68762e-05
0.00019971
6.34775e-05
0.041792
0.00596771
0.000141614
6.04958e-05
7.9461e-05
0.000294948
8.03141e-05
6.08315e-05
0.0240985
8.38262e-05
8.19746e-05
6.24523e-05
8.41283e-05
7.48437e-05
0.000136719
6.845e-05
5.9007e-05
0.00103684
6.13318e-05
7.50136e-05
8.80305e-05
8.07355e-05
6.13945e-05
6.17563e-05
8.42537e-05
7.50708e-05
0.0028384
0.0274285
8.08696e-05
6.08238e-05
6.2688e-05
8.77749e-05
8.45136e-05
6.31136e-05
6.57869e-05
0.000121309
7.65244e-05
8.64772e-05
8.97795e-05
6.07509e-05
8.50469e-05
6.32411e-05
6.07886e-05
6.12337e-05
0.00505281
6.23465e-05
8.88083e-05
0.0271536
0.00555085
0.0564715
5.87453e-05
6.63514e-05
6.81292e-05
8.05417e-05
0.00468285
6.06956e-05
6.14407e-05
0.000189364
6.3371e-05
6.10657e-05
6.27659e-05
6.32008e-05
6.28467e-05
0.00125551
6.36893e-05
8.08306e-05
8.94387e-05
8.00647e-05
8.5966e-05
0.00397748
6.08635e-05
0.00275768
7.40766e-05
6.80506e-05
0.00290125
6.13454e-05
6.19213e-05
6.3649e-05
0.00375204
7.74273e-05
8.924e-05
8.08863e-05
6.84275e-05
6.25422e-05
6.15673e-05
6.38718e-05
6.77325e-05
0.000131254
8.13475e-05
0.000109383
6.14823e-05
7.67593e-05
0.000115515
0.000177569
8.99465e-05
0.004502
6.86955e-05
0.000136644
6.05717e-05
0.000135636
9.57017e-05
0.00429675
7.22473e-05
0.000102304
6.05788e-05
8.17956e-05
6.08568e-05
0.000182014
8.50688e-05
0.000344101
6.36521e-05
6.18473e-05
6.10797e-05
6.15165e-05
7.4249e-05
8.16755e-05
8.87958e-05
6.3286e-05
0.000425833
9.51763e-05
0.0048592
6.51809e-05
0.000164581
6.15757e-05
7.47927e-05
7.33214e-05
6.25907e-05
7.72556e-05
8.5227e-05
6.15418e-05
0.00794852
0.000103619
0.00444383
7.6448e-05
6.2397e-05
7.89986e-05
0.00167358
6.21917e-05
0.00616646
8.88356e-05
6.12455e-05
6.08983e-05
6.03259e-05
7.4322e-05
6.22383e-05
8.1629e-05
9.37765e-05
7.76166e-05
6.6936e-05
0.00618397
8.49751e-05
6.83796e-05
0.000303319
0.000100023
7.50296e-05
0.000939352
0.00011456
8.92282e-05
6.08405e-05
0.00287826
7.14575e-05
6.04341e-05
8.1744e-05
0.000887551
6.04035e-05
0.00459197
6.37458e-05
8.74394e-05
0.00495991
0.000177623
6.18466e-05
0.057288
6.0618e-05
7.53307e-05
8.58076e-05
7.95883e-05
0.000112812
8.59579e-05
0.00054547
0.0033873
7.50545e-05
0.000128883
0.000215348
0.000154111
7.95544e-05
6.09653e-05
0.00276536
8.26093e-05
8.00801e-05
8.86331e-05
0.00722383
6.52814e-05
8.07478e-05
7.46194e-05
8.35947e-05
8.77809e-05
8.74124e-05
8.74508e-05
7.74944e-05
8.03836e-05
8.00285e-05
6.14432e-05
0.000122023
6.3496e-05
7.73731e-05
7.73942e-05
6.31535e-05
8.29132e-05
8.19782e-05
8.70868e-05
6.03572e-05
6.03569e-05
0.00102963
6.35726e-05
8.00912e-05
7.21029e-05
6.34631e-05
6.08591e-05
7.05896e-05
0.000451419
0.00169444
6.80085e-05
7.03002e-05
7.56097e-05
8.68255e-05
8.1448e-05
8.53772e-05
8.86551e-05
6.63884e-05
6.6349e-05
6.70286e-05
8.16097e-05
6.08315e-05
8.57547e-05
0.0055132
8.37368e-05
8.40757e-05
8.19911e-05
6.05733e-05
7.54838e-05
7.89855e-05
9.14253e-05
7.40531e-05
6.46222e-05
0.000120868
0.0049615
7.57893e-05
0.0064449
8.10588e-05
7.56591e-05
0.00011188
0.0036005
0.000107689
6.07431e-05
0.00598676
8.02194e-05
6.60923e-05
7.69629e-05
0.00350885
6.63049e-05
8.89514e-05
7.02888e-05
8.99239e-05
8.26923e-05
7.95204e-05
9.00759e-05
8.79689e-05
6.18907e-05
0.00191346
7.4396e-05
6.35381e-05
8.87257e-05
7.44491e-05
6.11132e-05
7.38847e-05
0.000474538
7.40103e-05
8.99326e-05
6.88065e-05
7.38759e-05
9.66199e-05
7.09126e-05
6.08437e-05
6.9633e-05
0.00526541
9.46849e-05
7.45276e-05
8.6188e-05
8.43464e-05
7.10174e-05
8.91964e-05
7.72011e-05
0.000114472
0.00402187
6.29797e-05
6.10113e-05
6.61904e-05
0.000362493
6.04457e-05
6.04585e-05
6.45212e-05
0.00479324
0.0169446
0.0575763
0.000112735
6.05227e-05
8.48015e-05
0.00011209
6.45994e-05
9.2995e-05
8.87736e-05
0.000109833
0.00370282
7.43688e-05
0.00011444
0.000112861
6.25225e-05
8.63965e-05
8.8927e-05
7.57246e-05
9.04803e-05
9.02799e-05
6.45587e-05
7.95744e-05
7.94614e-05
6.11572e-05
0.000107095
0.000107551
7.44642e-05
0.00521915
7.77869e-05
0.00344941
7.13738e-05
0.000611245
0.00354664
6.13055e-05
9.27223e-05
9.15683e-05
6.63383e-05
0.0245352
8.99655e-05
8.47406e-05
0.00610285
8.92737e-05
6.08753e-05
6.26003e-05
7.60767e-05
0.000109452
0.000164051
7.35604e-05
6.25221e-05
9.26033e-05
8.55869e-05
7.06243e-05
9.2785e-05
7.96591e-05
6.95562e-05
9.01127e-05
8.89869e-05
9.44687e-05
6.22747e-05
6.08545e-05
0.000272667
0.00392421
0.000109687
0.000476804
6.94387e-05
0.00715354
6.82085e-05
0.000372442
8.62657e-05
6.1361e-05
0.000100108
0.000121756
0.000112734
6.25143e-05
6.27256e-05
6.09853e-05
0.000187497
7.03881e-05
0.00020681
8.53648e-05
0.000112365
0.000412886
6.16828e-05
8.68889e-05
0.0056358
6.36417e-05
0.000265415
7.55764e-05
6.44693e-05
8.75744e-05
7.48003e-05
8.31878e-05
8.49054e-05
7.44797e-05
9.08738e-05
8.04259e-05
6.19356e-05
6.584e-05
6.70892e-05
8.46988e-05
6.28398e-05
0.00233034
8.41951e-05
6.74589e-05
6.24023e-05
0.00431599
8.52054e-05
6.90182e-05
8.80321e-05
0.04816
6.09523e-05
8.20187e-05
0.0425479
0.000106715
6.24504e-05
6.22672e-05
0.000206456
8.45394e-05
6.56514e-05
6.08564e-05
6.32059e-05
7.47037e-05
0.00946538
6.2265e-05
8.70412e-05
0.00581488
0.00242652
8.30559e-05
8.88374e-05
6.5711e-05
0.00011441
6.79691e-05
9.19015e-05
0.00175213
0.00216261
8.09229e-05
0.00639703
6.37167e-05
0.000310493
6.53647e-05
6.8197e-05
6.50772e-05
7.31735e-05
6.3388e-05
0.000151454
0.000105999
8.57095e-05
6.78167e-05
6.40496e-05
8.69834e-05
6.72835e-05
0.00489029
0.00013601
6.10254e-05
6.11764e-05
0.000143146
6.42486e-05
9.39099e-05
8.93396e-05
6.9432e-05
6.93787e-05
6.10428e-05
8.9023e-05
7.13262e-05
7.84135e-05
8.92216e-05
8.37187e-05
9.58075e-05
6.04676e-05
6.45088e-05
7.74257e-05
8.18567e-05
0.0002408
0.000632255
8.49934e-05
6.44831e-05
6.56367e-05
8.86693e-05
8.54752e-05
6.93152e-05
8.18338e-05
7.54641e-05
8.65807e-05
6.58589e-05
6.12884e-05
6.11561e-05
6.35056e-05
7.46238e-05
6.12314e-05
0.0356213
0.00437769
8.43175e-05
0.0112463
7.99689e-05
0.00344548
8.43678e-05
6.08753e-05
8.43957e-05
8.41744e-05
7.90562e-05
0.00378722
8.915e-05
7.0805e-05
6.16986e-05
0.000131497
0.0170263
6.12649e-05
7.64071e-05
8.86733e-05
8.58872e-05
6.62481e-05
0.000690681
8.44595e-05
8.7199e-05
7.53512e-05
7.48265e-05
7.71516e-05
7.12613e-05
7.12236e-05
6.07292e-05
8.42514e-05
8.06529e-05
7.28427e-05
8.53356e-05
6.91937e-05
8.85991e-05
0.000192278
9.55976e-05
7.17707e-05
6.09724e-05
0.0115514
7.7582e-05
9.24465e-05
8.54589e-05
8.40536e-05
6.12033e-05
8.69584e-05
0.0240422
0.00135049
0.00913473
0.0400573
8.02141e-05
0.00289434
8.69383e-05
6.148e-05
8.8878e-05
0.00790838
8.03177e-05
0.000110641
0.000109493
0.00698382
8.59986e-05
6.10037e-05
0.00210142
8.51397e-05
7.06211e-05
0.000340684
0.000200837
0.00535458
8.47082e-05
0.000910171
8.09256e-05
0.000138513
7.62178e-05
0.000124492
8.4009e-05
7.01854e-05
8.7168e-05
8.62106e-05
0.0245935
8.10783e-05
0.00055302
8.54721e-05
8.17146e-05
8.84181e-05
9.73187e-05
6.26428e-05
7.70072e-05
6.60649e-05
0.000117016
6.10743e-05
0.00012004
0.00941855
0.0545287
0.00277538
8.53981e-05
0.00196185
0.000114689
0.00282538
6.13817e-05
8.68994e-05
0.000117266
8.053e-05
7.04347e-05
7.65557e-05
6.58395e-05
8.93129e-05
8.75571e-05
6.14046e-05
6.07627e-05
8.14543e-05
6.06192e-05
6.16098e-05
6.93484e-05
0.000332816
0.000515281
9.99636e-05
6.24514e-05
0.000132763
8.73923e-05
8.6387e-05
7.50171e-05
0.0472679
8.19691e-05
6.38273e-05
7.58582e-05
0.0116516
7.71782e-05
0.0170319
9.67006e-05
8.42507e-05
0.0124553
9.12823e-05
9.00864e-05
6.11633e-05
6.11233e-05
6.59228e-05
9.0119e-05
8.55447e-05
0.00013523
7.89791e-05
9.48418e-05
8.3001e-05
6.42703e-05
0.000123957
8.0141e-05
0.000225222
8.5839e-05
8.50542e-05
8.94024e-05
6.1978e-05
9.39646e-05
6.43351e-05
6.21128e-05
8.55493e-05
8.54615e-05
7.64731e-05
6.6885e-05
9.01048e-05
8.57151e-05
7.03737e-05
8.98862e-05
6.13215e-05
6.12524e-05
8.49594e-05
8.3488e-05
0.0162634
7.42449e-05
8.08408e-05
6.98401e-05
0.000116243
0.000132509
6.10522e-05
8.106e-05
8.76377e-05
6.01687e-05
0.00627059
8.23855e-05
6.10169e-05
0.000115409
0.000113821
6.28492e-05
6.76952e-05
6.73893e-05
0.0168692
6.10939e-05
7.45532e-05
6.9629e-05
8.87307e-05
7.58837e-05
0.00464959
8.14773e-05
8.94796e-05
7.46476e-05
6.09108e-05
6.0118e-05
8.15725e-05
7.92311e-05
6.29748e-05
6.4909e-05
7.98371e-05
8.13689e-05
8.31059e-05
9.26345e-05
0.000102288
7.1319e-05
0.0189084
7.60398e-05
8.68769e-05
0.0175029
6.0464e-05
8.05422e-05
0.00566331
7.15758e-05
6.09755e-05
8.88206e-05
8.88102e-05
9.64222e-05
6.32571e-05
7.56746e-05
7.75933e-05
0.021773
9.27606e-05
7.14275e-05
0.000213271
8.67264e-05
9.14034e-05
0.00545585
8.76598e-05
0.0553587
6.07639e-05
8.87753e-05
0.000111744
8.90303e-05
7.82907e-05
0.00362041
9.7037e-05
6.24041e-05
8.1389e-05
8.3964e-05
6.941e-05
8.53417e-05
8.83367e-05
7.82142e-05
6.13552e-05
8.81962e-05
8.00086e-05
6.17693e-05
6.05292e-05
6.38688e-05
8.66188e-05
7.43876e-05
7.29663e-05
6.51915e-05
0.00227879
6.54733e-05
6.47815e-05
8.11141e-05
8.754e-05
0.000107089
8.16576e-05
0.000101762
6.21309e-05
0.0053901
8.92332e-05
7.39103e-05
0.000105132
8.37792e-05
8.88863e-05
6.12686e-05
0.000101706
8.90612e-05
0.00429393
8.11753e-05
9.17178e-05
6.13815e-05
6.826e-05
8.56681e-05
6.05703e-05
6.043e-05
6.1576e-05
6.43175e-05
0.000129519
9.69161e-05
6.95771e-05
6.08893e-05
6.76692e-05
6.05884e-05
7.25197e-05
7.00986e-05
9.42762e-05
0.00408769
0.00359041
6.98579e-05
0.00409587
8.63757e-05
6.07643e-05
6.66871e-05
6.94724e-05
8.36105e-05
6.30708e-05
9.53403e-05
6.15373e-05
9.17484e-05
7.48065e-05
7.51175e-05
6.08959e-05
6.20098e-05
8.16068e-05
9.06498e-05
8.67686e-05
8.95017e-05
0.000110728
7.53867e-05
0.000695941
0.000250254
0.0172159
6.12978e-05
6.98471e-05
8.61546e-05
8.5621e-05
8.86139e-05
8.33714e-05
0.00334753
7.83156e-05
8.48331e-05
8.93755e-05
6.13178e-05
0.0163355
6.04525e-05
0.00014155
8.15673e-05
6.06165e-05
8.84634e-05
6.3622e-05
6.23112e-05
6.05634e-05
0.00050815
6.08542e-05
5.58899e-05
9.23563e-05
0.000133364
6.13365e-05
7.49889e-05
7.84415e-05
4.94169e-05
7.82526e-05
6.99591e-05
8.56122e-05
6.13162e-05
6.07122e-05
6.48058e-05
0.000100823
7.91975e-05
8.4084e-05
6.51586e-05
0.000101349
8.51603e-05
6.72811e-05
0.000447903
0.00308444
8.9581e-05
9.06382e-05
7.18425e-05
0.00943335
6.08403e-05
9.42009e-05
8.41102e-05
7.06471e-05
8.41818e-05
9.46659e-05
7.01928e-05
6.34189e-05
6.09953e-05
6.08466e-05
6.692e-05
9.67284e-05
9.16887e-05
0.000137238
0.000181917
0.000184863
6.04414e-05
6.25765e-05
0.000811446
0.000146437
8.79788e-05
6.07299e-05
0.0043744
0.00221915
6.09658e-05
9.11404e-05
7.5062e-05
0.00186392
6.11137e-05
6.12409e-05
7.02414e-05
9.43601e-05
8.52975e-05
6.1752e-05
6.93457e-05
7.29075e-05
0.000157512
8.9575e-05
6.1466e-05
5.846e-05
9.00132e-05
0.000150796
0.00134616
8.51722e-05
0.000101451
7.83409e-05
7.60153e-05
0.00495679
0.000188847
8.63912e-05
9.45165e-05
0.000111876
8.05814e-05
6.18061e-05
8.99389e-05
6.04864e-05
9.73644e-05
7.3256e-05
8.29287e-05
0.0144197
0.00383112
8.60304e-05
8.39188e-05
0.00336834
6.43346e-05
7.37521e-05
7.49523e-05
0.00109554
0.000185722
0.0142563
6.08044e-05
6.07742e-05
0.0250883
6.03612e-05
7.47443e-05
7.95808e-05
6.01522e-05
0.000524153
6.89888e-05
6.10425e-05
0.0017662
8.69855e-05
8.61844e-05
6.25108e-05
9.07545e-05
8.31691e-05
6.10374e-05
6.70609e-05
8.54239e-05
8.0835e-05
6.04846e-05
8.72033e-05
6.05652e-05
9.12078e-05
6.13192e-05
8.54183e-05
6.16082e-05
6.11164e-05
6.13197e-05
0.0037216
0.00487844
7.75561e-05
8.19217e-05
7.44317e-05
8.3655e-05
9.06488e-05
6.09147e-05
0.000103046
8.7703e-05
0.00577899
0.00272505
6.12171e-05
7.29334e-05
9.26083e-05
0.000101517
6.37818e-05
8.49068e-05
6.11693e-05
0.0590354
9.66634e-05
6.03885e-05
6.1306e-05
8.8209e-05
0.000121044
8.48893e-05
6.30174e-05
6.12871e-05
6.05214e-05
7.9372e-05
9.26796e-05
6.26155e-05
9.199e-05
0.00403718
7.07499e-05
9.12584e-05
6.11495e-05
6.09761e-05
6.11372e-05
7.73808e-05
0.000423289
9.00874e-05
6.09718e-05
0.000101445
0.000701176
7.87553e-05
0.000966471
0.000135856
7.4896e-05
6.18515e-05
6.51223e-05
0.0506496
7.79069e-05
8.53815e-05
8.28149e-05
0.0163742
0.0106853
8.05378e-05
0.004621
0.000138997
0.000107709
8.87181e-05
7.69311e-05
7.44522e-05
6.19257e-05
6.21925e-05
9.25446e-05
0.00127205
6.12656e-05
6.13968e-05
6.03763e-05
9.62771e-05
7.66072e-05
0.00362304
6.10705e-05
8.12994e-05
8.82556e-05
0.0106465
8.69801e-05
0.00433383
0.000446182
7.48304e-05
6.23426e-05
6.96045e-05
8.95787e-05
6.93494e-05
9.67275e-05
6.04657e-05
0.000128982
6.01994e-05
7.86265e-05
8.66422e-05
8.58766e-05
8.87918e-05
6.1358e-05
7.5211e-05
0.000109523
6.40282e-05
0.000109577
0.000137737
6.09169e-05
9.06848e-05
7.055e-05
0.0129382
6.97128e-05
7.58624e-05
0.0165697
6.04367e-05
7.39059e-05
6.29055e-05
8.26921e-05
6.14703e-05
7.77706e-05
6.17444e-05
6.1882e-05
6.51319e-05
0.0156307
7.15766e-05
0.0320595
0.00499265
6.3406e-05
6.69625e-05
0.000105557
6.08029e-05
9.41455e-05
9.65502e-05
8.54079e-05
8.03387e-05
6.05618e-05
6.96713e-05
6.24666e-05
6.13196e-05
8.16945e-05
6.74686e-05
7.015e-05
8.56911e-05
7.81984e-05
8.07857e-05
1.22681e-05
8.03897e-05
6.99505e-05
8.61745e-05
8.83939e-05
9.35801e-05
9.2468e-05
7.92889e-05
6.13545e-05
0.0328246
9.36866e-05
0.00432344
6.08291e-05
9.6121e-05
6.07889e-05
6.12005e-05
6.44948e-05
7.53522e-05
7.16119e-05
6.14206e-05
0.0129283
6.02046e-05
7.47345e-05
0.000849882
7.70946e-05
8.24932e-05
6.3399e-05
6.92516e-05
6.6617e-05
6.01769e-05
0.000266655
0.00514107
5.54859e-05
9.01462e-05
9.01866e-05
0.00468236
8.14345e-05
8.05211e-05
8.95734e-05
0.000120606
0.000327536
9.11234e-05
4.21828e-05
0.000109915
6.22458e-05
7.36154e-05
0.00341844
0.022944
0.000560363
6.14574e-05
8.81678e-05
0.0142983
6.0875e-05
0.059045
6.16554e-05
7.14888e-05
7.01519e-05
6.17019e-05
6.64434e-05
7.16084e-05
0.000142385
0.0197617
8.63343e-05
0.0012499
7.967e-05
6.13464e-05
0.000101292
0.0168285
8.83872e-05
8.36503e-05
6.78079e-05
6.04601e-05
0.00632591
0.00387087
9.02529e-05
0.000128417
6.14774e-05
7.3823e-05
0.0210848
8.23979e-05
0.000105745
0.000671423
0.000626576
0.000659939
8.23788e-05
6.0316e-05
6.92961e-05
6.1532e-05
7.41374e-05
9.44721e-05
8.13687e-05
0.000155535
8.40154e-05
6.13225e-05
6.19548e-05
0.0113209
6.73119e-05
8.78268e-05
7.65794e-05
8.67972e-05
6.83282e-05
0.0243314
0.000114163
0.000111646
6.3364e-05
6.01559e-05
6.13844e-05
6.16433e-05
6.19388e-05
6.1752e-05
0.000146378
0.000161403
6.1151e-05
0.000110271
6.76049e-05
0.0176596
8.43283e-05
0.000108502
8.63929e-05
9.01016e-05
6.41954e-05
8.39236e-05
6.33078e-05
9.08293e-05
8.65619e-05
6.24771e-05
6.30693e-05
6.69489e-05
8.2467e-05
8.96493e-05
6.04408e-05
0.0563028
7.878e-05
6.32147e-05
6.92076e-05
7.34596e-05
9.71803e-05
7.4293e-05
9.23865e-05
8.47008e-05
9.99638e-05
8.90818e-05
7.67791e-05
0.00211053
6.33065e-05
0.00285613
0.00348348
6.10327e-05
0.000146587
7.74296e-05
8.93698e-05
0.000450406
0.000120226
8.39656e-05
8.46031e-05
9.67553e-05
0.000507563
6.39184e-05
6.38014e-05
9.87061e-05
7.15607e-05
6.43396e-05
6.98951e-05
0.000137593
6.40695e-05
8.4165e-05
7.98791e-05
6.10631e-05
8.41898e-05
0.00876904
7.26734e-05
6.789e-05
0.00212145
0.000109766
6.99637e-05
0.000114983
6.0186e-05
9.1829e-05
7.20773e-05
8.56044e-05
6.02447e-05
0.00327173
0.00011145
6.22817e-05
0.0582206
8.78482e-05
0.0033611
8.85954e-05
7.51969e-05
0.000103288
6.12995e-05
0.000199489
0.0170533
0.0159758
0.000123057
6.04157e-05
8.1869e-05
8.72227e-05
6.08695e-05
9.10885e-05
0.00279143
0.00284278
0.000511278
0.00387396
6.58691e-05
0.000104411
7.52588e-05
7.00791e-05
7.38517e-05
6.03671e-05
0.000109703
7.19007e-05
9.9678e-05
7.47401e-05
9.6643e-05
9.25181e-05
7.93304e-05
6.45547e-05
6.08681e-05
8.49448e-05
8.19327e-05
6.05641e-05
0.00567789
6.68874e-05
0.0459303
6.26548e-05
8.61727e-05
6.72647e-05
6.09277e-05
7.85864e-05
6.10146e-05
0.000129803
0.00542717
8.785e-05
6.48243e-05
6.9065e-05
0.000332534
6.05031e-05
7.22294e-05
9.23819e-05
8.41682e-05
6.09987e-05
7.07227e-05
6.39932e-05
8.51608e-05
8.82315e-05
7.95403e-05
9.97421e-05
8.88632e-05
0.00244013
7.50611e-05
6.04003e-05
8.09141e-05
0.00905607
6.05788e-05
6.33824e-05
6.43448e-05
6.28602e-05
6.14157e-05
8.46946e-05
0.000107342
9.42066e-05
9.61776e-05
6.79662e-05
0.0116749
6.42227e-05
6.02623e-05
0.00352105
7.98574e-05
9.13234e-05
6.0981e-05
6.04151e-05
0.00111617
0.00434022
8.53174e-05
6.42794e-05
6.47479e-05
0.000235316
6.09749e-05
8.13469e-05
6.01275e-05
8.99359e-05
8.27345e-05
8.86703e-05
7.74857e-05
8.34457e-05
9.14078e-05
8.4197e-05
8.19234e-05
9.63952e-05
0.000131456
6.63213e-05
8.41282e-05
7.60607e-05
0.000382686
8.71195e-05
0.0104895
8.52764e-05
0.00406602
0.00056989
6.03094e-05
0.000398508
8.64406e-05
0.00122353
6.13054e-05
9.26313e-05
0.0216699
6.51041e-05
6.53775e-05
0.00863282
0.00907159
8.98931e-05
8.53747e-05
0.000130535
0.000449569
6.14218e-05
6.78487e-05
7.98982e-05
8.35968e-05
7.24955e-05
6.1356e-05
6.02073e-05
6.31062e-05
6.44436e-05
0.00390889
0.0339377
7.36748e-05
0.00339665
6.67264e-05
6.13513e-05
7.75371e-05
7.27405e-05
9.00682e-05
9.13186e-05
8.1762e-05
6.6054e-05
0.000340975
0.0521162
6.74999e-05
6.97628e-05
8.96125e-05
7.64724e-05
0.000114584
6.05022e-05
8.29795e-05
0.000807842
0.055111
0.0015239
8.76327e-05
6.62325e-05
8.39053e-05
9.49222e-05
8.11905e-05
7.47751e-05
0.000142635
0.000113113
0.000322271
7.94339e-05
0.00546381
0.000100085
7.39985e-05
0.00583853
6.04991e-05
8.57834e-05
7.4862e-05
8.20756e-05
6.62931e-05
8.46364e-05
0.000106514
8.8481e-05
6.8064e-05
6.22187e-05
0.0252859
7.80799e-05
6.12456e-05
8.40767e-05
9.81656e-05
8.72674e-05
0.00101339
0.00134464
9.06595e-05
0.000104243
0.00621754
8.53959e-05
8.80557e-05
0.004914
7.52634e-05
6.13851e-05
0.000407896
6.33578e-05
6.19286e-05
8.35661e-05
6.55218e-05
7.42214e-05
6.03904e-05
7.3127e-05
6.9603e-05
7.556e-05
7.70837e-05
7.83969e-05
0.000107338
9.71038e-05
6.02651e-05
0.000101042
9.40853e-05
8.58472e-05
8.41332e-05
6.44221e-05
7.90827e-05
6.7718e-05
0.0084891
6.55174e-05
6.12377e-05
8.91996e-05
0.00277686
8.55768e-05
0.000105848
0.00375143
8.5277e-05
6.0428e-05
6.09583e-05
6.04159e-05
6.45635e-05
0.00516379
6.37401e-05
9.42356e-05
6.02798e-05
0.0110467
0.000176421
0.000221194
8.56981e-05
7.36673e-05
8.8483e-05
8.30602e-05
6.01957e-05
0.0515475
6.15371e-05
7.52945e-05
6.06279e-05
6.33727e-05
7.51547e-05
6.22426e-05
7.951e-05
9.74697e-05
6.74226e-05
7.92082e-05
7.87948e-05
9.01037e-05
8.98588e-05
6.31743e-05
6.15255e-05
8.45609e-05
7.30881e-05
0.0406662
0.00162792
6.24376e-05
7.4613e-05
6.06138e-05
6.10747e-05
0.000103107
6.28788e-05
6.02502e-05
8.23443e-05
6.01523e-05
6.93112e-05
7.52156e-05
6.90566e-05
0.00579036
0.000219138
6.95664e-05
0.0028654
6.0151e-05
6.49992e-05
7.49501e-05
0.000422349
8.38374e-05
7.41923e-05
9.8498e-05
8.84883e-05
6.02312e-05
0.000105969
7.01768e-05
6.31735e-05
6.47623e-05
7.9566e-05
8.58505e-05
0.000132995
0.000125885
8.46146e-05
6.07579e-05
0.000137156
9.60012e-05
0.0001149
8.30368e-05
0.00250113
6.0885e-05
9.35542e-05
9.00102e-05
6.10525e-05
6.0042e-05
7.12765e-05
6.72831e-05
7.24715e-05
9.02679e-05
0.000973275
0.00567599
8.85547e-05
9.45971e-05
0.0353875
8.40599e-05
6.03958e-05
6.09069e-05
0.0350648
6.41246e-05
0.000159575
0.000112824
6.02124e-05
0.000243378
0.00525778
8.58664e-05
6.76035e-05
6.09491e-05
6.0577e-05
7.09925e-05
6.06366e-05
6.36995e-05
9.35035e-05
0.0057983
7.42185e-05
0.00464717
0.005656
0.0568475
0.000134117
6.2543e-05
8.61332e-05
8.22713e-05
6.35197e-05
0.0223224
6.97834e-05
9.49728e-05
6.02186e-05
9.56601e-05
0.000310237
0.000387205
8.14119e-05
8.88447e-05
6.45171e-05
6.75334e-05
8.40167e-05
8.13976e-05
7.84102e-05
9.03711e-05
9.10603e-05
6.08236e-05
6.13989e-05
0.000108023
0.00045079
0.0577725
6.88782e-05
6.59348e-05
6.03893e-05
6.12279e-05
6.33183e-05
8.21939e-05
9.17421e-05
7.16187e-05
6.08118e-05
0.000434238
6.0781e-05
8.39911e-05
9.5159e-05
7.32245e-05
6.03141e-05
8.87146e-05
6.07917e-05
0.000114354
6.08114e-05
7.68647e-05
7.28505e-05
7.95066e-05
0.00012289
6.75083e-05
0.00564967
6.10318e-05
8.05246e-05
8.98649e-05
0.00316738
6.09197e-05
6.95808e-05
0.000120895
6.08197e-05
6.17914e-05
9.45716e-05
7.28598e-05
6.10669e-05
0.0063728
6.02073e-05
0.00068743
7.44457e-05
6.13028e-05
0.000211049
0.00468693
0.00103551
9.33841e-05
0.000152567
0.000106333
0.000174863
6.04252e-05
6.67949e-05
6.4004e-05
0.000537418
0.000169261
0.00179238
0.000100941
6.20235e-05
6.25753e-05
0.00757121
0.00561221
0.00500876
6.10861e-05
8.86696e-05
9.18436e-05
7.37913e-05
0.000123115
6.11516e-05
8.79054e-05
7.59196e-05
7.95883e-05
8.9044e-05
8.13585e-05
0.000133317
0.0259798
8.8884e-05
6.3178e-05
8.30805e-05
0.0440625
7.11875e-05
9.08107e-05
6.09525e-05
6.24014e-05
8.2843e-05
0.00869499
0.00010027
0.00144537
0.0103406
7.28759e-05
6.41545e-05
6.09554e-05
6.37071e-05
6.17283e-05
8.98597e-05
8.79415e-05
8.68798e-05
0.00599093
6.3646e-05
6.03782e-05
8.51221e-05
7.25162e-05
9.02901e-05
0.0256801
8.99647e-05
6.09772e-05
7.89401e-05
7.61673e-05
6.85808e-05
6.41937e-05
7.96712e-05
0.0038698
6.27232e-05
6.107e-05
8.57617e-05
0.000114826
7.6219e-05
6.36145e-05
0.0241331
6.34702e-05
6.09601e-05
0.00010579
7.48788e-05
0.000136607
6.14662e-05
8.21463e-05
0.000119935
7.31601e-05
7.15278e-05
6.09607e-05
0.00288873
6.0733e-05
6.87158e-05
6.33476e-05
7.47109e-05
8.54082e-05
0.000731971
9.40662e-05
0.00010106
0.000683279
0.016363
0.000118325
9.14348e-05
8.2194e-05
8.92088e-05
6.1905e-05
0.000103469
0.00023729
7.95559e-05
0.000108132
0.000375833
6.06969e-05
6.37575e-05
7.78453e-05
6.93216e-05
0.00223145
6.74757e-05
6.0189e-05
0.00544297
6.21832e-05
6.91768e-05
7.04864e-05
0.00694927
0.000108612
0.000101007
6.20945e-05
7.70283e-05
8.49663e-05
0.000135539
8.83167e-05
0.000103991
8.08667e-05
6.77409e-05
0.000101612
7.73074e-05
8.80571e-05
8.84015e-05
0.00010276
9.06736e-05
6.02211e-05
8.4756e-05
0.000366324
8.80642e-05
9.70089e-05
7.95967e-05
0.000146526
8.54251e-05
7.73475e-05
6.18807e-05
0.000100182
6.10547e-05
6.82603e-05
6.99685e-05
8.93911e-05
0.000180138
8.31933e-05
9.0521e-05
0.000114334
7.96171e-05
7.95613e-05
6.24172e-05
7.24492e-05
9.84422e-05
8.49088e-05
9.92009e-05
7.07705e-05
7.0719e-05
0.0642927
7.30643e-05
9.27305e-05
7.55659e-05
0.000909003
8.94345e-05
6.18003e-05
0.000400089
0.000114094
6.02437e-05
9.46947e-05
6.29879e-05
0.0379744
8.29769e-05
6.09926e-05
6.24948e-05
7.32245e-05
0.00112848
0.000385494
9.77314e-05
8.14656e-05
0.000104731
7.22836e-05
8.52152e-05
9.00383e-05
0.0206615
6.34506e-05
0.000130267
4.79686e-05
0.00326863
9.2459e-05
8.42916e-05
6.26938e-05
6.02924e-05
9.31776e-05
0.000107356
8.84017e-05
0.000662842
6.50212e-05
8.41586e-05
6.49174e-05
8.70291e-05
7.15594e-05
6.37965e-05
0.000270188
7.82529e-05
7.83021e-05
0.00241162
6.27846e-05
0.00554373
8.77384e-05
8.88403e-05
7.66879e-05
6.02032e-05
0.000639153
9.08978e-05
7.43767e-05
0.0134806
7.17839e-05
8.37418e-05
6.40538e-05
8.92353e-05
6.2652e-05
0.00244976
9.71988e-05
9.84529e-05
8.42764e-05
5.68203e-05
7.56751e-05
0.00199793
6.00787e-05
6.80744e-05
7.34171e-05
6.15849e-05
9.17246e-05
0.0453772
7.74515e-05
6.07068e-05
9.5836e-05
6.81272e-05
0.000514217
8.72422e-05
8.54424e-05
7.74721e-05
0.000139499
0.000102528
8.62614e-05
6.73165e-05
8.97338e-05
0.00533726
7.29551e-05
6.09875e-05
8.61015e-05
0.000156405
8.48102e-05
0.000110302
0.000103079
8.30505e-05
9.46492e-05
0.000351336
6.06078e-05
9.03111e-05
0.000365773
6.12974e-05
7.7005e-05
8.74326e-05
8.11953e-05
7.91274e-05
6.17878e-05
6.00983e-05
6.14752e-05
7.35703e-05
8.89769e-05
0.0357508
0.0010071
9.3442e-05
7.90076e-05
8.91177e-05
6.09773e-05
8.03326e-05
6.71298e-05
0.00559758
8.96951e-05
6.29064e-05
7.56516e-05
0.0165136
6.8277e-05
7.72455e-05
8.20066e-05
8.68788e-05
8.99942e-05
6.4832e-05
6.22093e-05
8.43232e-05
0.000959062
9.39983e-05
8.71813e-05
7.19625e-05
8.22975e-05
9.39846e-05
8.99234e-05
6.97783e-05
6.76799e-05
0.00347488
7.22701e-05
6.24984e-05
8.03496e-05
8.28299e-05
8.16264e-05
0.000519565
9.01523e-05
8.96269e-05
6.08339e-05
8.35848e-05
0.0132762
0.00426674
6.62562e-05
6.39809e-05
6.44957e-05
7.80382e-05
6.40869e-05
8.86816e-05
8.30686e-05
8.13764e-05
7.67009e-05
0.00303841
7.19173e-05
7.76229e-05
6.24288e-05
7.39673e-05
9.39047e-05
6.9205e-05
0.000299193
0.000120099
9.15032e-05
6.39351e-05
6.37676e-05
0.000607768
6.16675e-05
0.000545504
8.42177e-05
8.65335e-05
0.0101513
9.33935e-05
7.32634e-05
0.00584258
6.17668e-05
0.0368043
0.0551804
0.000209749
0.000186644
8.69313e-05
0.00010624
8.37828e-05
8.36063e-05
0.000152879
9.01665e-05
8.16081e-05
8.61058e-05
6.30456e-05
0.00437185
7.59732e-05
6.04624e-05
7.20862e-05
6.58863e-05
8.26744e-05
6.46809e-05
8.496e-05
8.45909e-05
0.0010252
6.14662e-05
9.31052e-05
7.95233e-05
9.36837e-05
8.81143e-05
7.89944e-05
0.000101597
6.40316e-05
6.48928e-05
0.00012404
7.70657e-05
8.87162e-05
7.04809e-05
6.01995e-05
8.6851e-05
0.00563382
6.88354e-05
8.74844e-05
6.93956e-05
8.85745e-05
8.73434e-05
0.00439862
6.06565e-05
6.42902e-05
8.27422e-05
8.38515e-05
0.00596121
0.0100245
0.0088278
7.96788e-05