/*--------------------------------*- C++ -*----------------------------------*\
| =========                 |                                                 |
| \\      /  F ield         | OpenFOAM: The Open Source CFD Toolbox           |
|  \\    /   O peration     | Version:  v2012                                 |
|   \\  /    A nd           | Website:  www.openfoam.com                      |
|    \\/     M anipulation  |                                                 |
\*---------------------------------------------------------------------------*/
FoamFile
{
    version     2.0;
    format      ascii;
    class       volScalarField;
    location    "200";
    object      epsilon_0;
}
// * * * * * * * * * * * * * * * * * * * * * * * * * * * * * * * * * * * * * //

dimensions      [0 2 -3 0 0 0 0];


internalField   nonuniform List<scalar> 
18649
(
0.000688983
1.35414e-06
0.000714052
2.49781e-06
8.31011e-07
0.000728466
1.48177e-06
4.44095e-07
0.00024205
0.000784663
1.28978e-06
1.19961e-06
9.3571e-07
1.48799e-06
0.0284742
9.25098e-07
1.23532e-06
1.479e-06
0.000651315
1.35692e-06
1.19329e-06
0.0106643
0.00021174
2.22417e-06
0.000672502
0.000173527
0.000313206
0.000632649
1.274e-06
0.023771
8.90341e-07
8.83388e-07
1.23137e-06
1.67945e-06
1.24292e-06
1.50695e-06
0.0260196
1.36138e-06
1.2887e-06
1.49728e-06
0.00283152
1.57233e-06
6.01429e-06
0.000695216
0.000203208
0.00949566
0.000212548
1.73913e-06
1.53599e-06
2.12852e-06
2.42722e-06
0.000253651
9.73298e-07
0.00279711
5.81594e-07
6.84817e-06
0.0228276
1.5403e-06
4.21835e-07
0.000906504
6.79724e-07
3.61174e-06
1.60517e-06
0.0219248
0.01956
0.000341959
0.000899461
1.60764e-06
0.000250861
0.0105954
0.000304762
1.68209e-06
1.46588e-06
1.58929e-06
8.76982e-07
0.000661554
0.000781975
1.25794e-06
0.011021
4.75344e-07
8.64348e-07
1.41936e-06
0.000310523
0.000411516
4.92752e-07
6.01747e-06
1.42375e-06
1.3959e-06
4.94175e-07
0.00278762
0.0292809
3.7775e-06
2.25124e-06
1.94163e-06
8.3352e-07
9.6893e-07
1.51275e-06
1.63426e-06
0.000207726
6.755e-07
0.000186446
8.49796e-07
2.69887e-05
4.44588e-07
0.000246769
0.000241809
0.000388404
5.16489e-05
6.29003e-06
1.46235e-06
1.24503e-06
1.7496e-06
1.43046e-06
9.82299e-07
8.3728e-07
1.66226e-06
1.60317e-06
1.74996e-06
9.04481e-07
1.41583e-06
6.61619e-07
2.04012e-06
0.000817794
9.85961e-07
4.82844e-07
1.59244e-06
0.00337931
1.09885e-06
1.27724e-06
4.99471e-07
1.51334e-06
0.0208004
5.09814e-06
6.4254e-06
1.19692e-06
0.00860254
0.000658822
8.97402e-05
0.000638037
0.000204167
1.73217e-06
9.68497e-07
4.22259e-07
1.14386e-06
0.000288013
6.46135e-07
1.62112e-06
7.09989e-06
0.00025353
1.55066e-06
0.000884763
3.67776e-06
1.01207e-06
1.46583e-06
1.93365e-06
1.77504e-06
1.54922e-06
9.37387e-07
9.22648e-07
0.000295193
0.000161115
0.000717607
1.56145e-06
0.000570289
9.51929e-07
8.98378e-07
3.86473e-05
0.000299595
7.44587e-07
6.63958e-07
1.43096e-06
1.02393e-06
8.91748e-07
9.28243e-07
2.04806e-06
1.70059e-05
0.000345602
1.53787e-06
0.000281174
0.000263394
1.14271e-06
0.000314939
3.98631e-06
9.41945e-07
1.18524e-06
3.09104e-06
5.84288e-07
1.9725e-06
6.62195e-07
4.64568e-07
1.56401e-06
0.000927521
3.57463e-06
1.43631e-06
1.46694e-06
8.93796e-07
5.48346e-06
4.3419e-06
3.06103e-05
1.74392e-06
4.67085e-07
8.30244e-07
0.000307759
1.47077e-06
1.13911e-06
1.0282e-06
6.37322e-06
0.000870525
1.63579e-06
9.62953e-07
6.63305e-07
1.43314e-06
5.95268e-07
1.55022e-06
0.0300655
1.566e-06
1.47326e-06
1.56128e-06
9.32061e-07
0.000173544
1.35876e-06
5.29261e-07
0.00874636
1.83366e-06
0.000642012
3.30048e-05
2.75087e-06
8.97764e-06
2.02292e-06
1.7399e-06
4.6352e-07
8.76141e-07
1.73898e-06
1.22584e-06
0.0120337
1.1343e-06
1.54452e-06
1.17966e-06
5.99294e-07
4.18788e-07
1.4735e-06
0.000831346
2.06465e-06
0.011454
0.000424988
1.11487e-06
1.43448e-06
1.23435e-06
0.0123176
1.99466e-06
1.11824e-06
9.32594e-06
1.11762e-06
8.85081e-07
1.65403e-06
9.01068e-07
9.59711e-07
6.69841e-07
1.58131e-06
6.9288e-07
0.0256374
5.56212e-07
5.34326e-07
1.41277e-06
5.8616e-07
2.64753e-06
6.2874e-07
8.02775e-05
8.98522e-07
7.67712e-07
4.33908e-06
0.000139757
1.54667e-06
7.65817e-07
0.0274429
2.05458e-06
1.4538e-06
1.67352e-06
1.45291e-06
3.68746e-06
9.94695e-06
1.57243e-06
0.00084914
1.46242e-06
4.9745e-07
5.70729e-06
1.59362e-06
1.18022e-06
0.000639172
4.66349e-07
1.15867e-06
0.000424151
1.48363e-06
1.12973e-06
0.00247493
0.012791
0.0229827
0.0130466
1.7315e-06
9.27443e-07
8.30025e-07
0.000526032
1.77929e-06
2.9855e-06
8.93288e-06
2.31624e-05
9.94564e-05
2.60237e-06
1.74447e-06
2.3435e-06
1.16682e-06
0.000132771
4.24552e-07
2.37098e-06
1.47123e-06
8.57507e-07
1.56309e-06
0.00273998
0.000727214
1.80909e-06
0.0104938
7.48175e-07
6.63398e-07
1.26532e-06
0.012929
1.19329e-06
0.00260754
0.000306235
9.30121e-07
1.5303e-06
1.52056e-06
0.000694975
0.000188759
8.1977e-07
0.000606805
1.14308e-06
0.000116731
2.02737e-05
1.84737e-06
6.67173e-06
1.21359e-06
0.000890282
0.00255333
0.000559527
0.000345603
2.69519e-06
2.064e-06
1.26564e-06
0.0136995
0.000919293
1.5419e-06
2.65924e-06
5.57942e-07
1.09799e-06
1.64646e-06
1.44791e-06
1.1938e-06
0.000384688
8.45533e-07
5.79484e-07
1.4045e-06
0.00285439
1.72481e-05
9.54895e-07
0.000360289
0.000878224
8.29861e-07
5.08605e-07
0.00091051
5.96403e-07
1.8825e-06
0.00717536
5.41517e-07
9.82635e-07
0.0280533
1.50448e-06
2.79155e-06
0.00080527
0.00024564
5.07253e-05
7.62436e-05
1.56318e-06
1.09851e-06
0.000103225
0.000156887
1.44227e-06
1.23851e-06
9.1874e-07
1.51943e-06
1.27706e-06
0.000160626
8.84776e-07
1.46835e-05
1.45208e-06
0.000623292
1.65448e-05
8.3506e-07
4.74628e-07
7.1481e-07
7.59582e-07
9.3964e-06
0.00157366
1.64061e-06
2.28173e-06
2.52174e-06
6.84658e-07
9.2469e-07
4.60922e-05
1.05892e-06
2.0457e-06
1.70914e-06
2.26829e-06
3.99911e-06
1.53607e-06
1.1255e-05
1.65876e-06
0.000659995
1.38427e-06
1.48866e-06
1.58156e-06
1.69293e-06
1.35826e-05
2.19068e-06
0.000488164
0.000298907
4.16486e-07
2.93802e-05
6.99026e-05
1.66808e-06
0.0189909
0.000211612
6.4532e-07
1.34427e-06
1.35233e-06
0.0253096
1.31142e-06
1.10431e-06
0.00153232
1.27394e-06
8.24864e-07
6.40554e-07
4.2109e-07
1.47755e-06
1.84148e-06
1.53374e-06
1.11087e-06
1.48252e-06
4.05857e-06
0.000980589
1.08832e-06
1.58342e-06
0.00294234
1.58931e-06
8.44211e-05
1.69484e-06
1.02289e-06
1.21493e-06
7.46803e-07
0.000573572
7.06611e-06
8.89036e-07
0.002477
1.30272e-06
0.000347273
0.00626315
9.4639e-07
4.19973e-07
4.25312e-07
1.09696e-06
1.42931e-06
1.13961e-06
5.35566e-07
1.54628e-06
1.75102e-06
1.88805e-06
2.59279e-06
1.45588e-06
1.10663e-06
1.67503e-06
0.000361317
1.73474e-06
0.0108439
1.40725e-06
6.7358e-07
4.34491e-06
0.00122466
1.13468e-06
0.000276418
0.0103132
1.1691e-06
1.13307e-06
0.00156689
4.31198e-07
1.88951e-06
9.21149e-07
3.98821e-06
1.56275e-06
9.39449e-07
5.52803e-07
1.00102e-06
1.92961e-06
1.57116e-06
1.45992e-06
1.18608e-06
0.000213094
0.000183584
0.00281849
4.61531e-07
9.15733e-07
0.000241365
8.12712e-07
1.45155e-06
8.16022e-07
5.68996e-06
5.13614e-06
1.43863e-06
0.000681515
1.18678e-06
2.70134e-06
9.10773e-07
9.48031e-07
1.3703e-06
1.54374e-06
0.00905901
9.41804e-07
0.000284845
0.00118629
3.15159e-05
0.000286989
1.3844e-06
7.12888e-07
0.000171438
6.3996e-07
7.10062e-07
5.49922e-06
1.45505e-06
4.20909e-07
1.19384e-06
0.013624
1.56993e-06
2.86025e-06
8.85431e-07
0.0138958
1.1448e-06
2.21662e-06
2.24679e-05
0.000937382
1.18346e-06
1.62929e-06
1.70554e-06
8.90694e-07
0.000656451
8.53544e-07
2.52987e-06
1.44576e-06
0.00181959
1.34422e-06
0.000350712
1.153e-06
1.09816e-06
0.00587503
1.99185e-06
6.24208e-06
1.65988e-06
7.525e-07
9.47958e-07
0.0256971
2.43016e-06
1.56174e-06
2.09082e-06
1.53615e-06
2.24815e-06
4.34537e-07
8.60204e-07
0.000123915
4.42348e-07
0.000649833
1.42724e-06
0.000164179
1.58924e-06
1.0033e-06
1.13158e-06
0.00320496
9.80983e-06
5.6562e-07
1.58486e-06
1.52101e-06
1.07768e-05
0.00980553
1.18035e-06
1.05444e-06
8.08381e-07
0.000144948
1.96975e-06
0.000254954
1.1066e-06
1.58759e-06
1.11823e-05
9.12292e-07
0.000551766
8.08014e-07
0.0201605
7.03767e-07
4.93046e-07
9.08876e-07
2.04703e-06
6.8457e-07
0.000314223
1.55102e-06
0.000275357
1.52097e-06
0.0101673
9.148e-06
1.1447e-06
5.05359e-06
1.37522e-06
8.60548e-07
7.64176e-07
3.71838e-06
1.80787e-06
9.50486e-07
6.57656e-05
4.4715e-06
1.1017e-06
1.54393e-06
1.67016e-06
0.000753281
0.00919514
0.00267242
0.0147719
1.55447e-06
0.000586424
0.0114961
1.3333e-06
1.87284e-06
0.000163346
1.41621e-06
3.84314e-05
1.3673e-06
0.00234934
1.58325e-06
2.74214e-05
0.000418985
1.10651e-06
2.922e-06
7.97801e-07
1.38627e-06
6.35101e-07
1.42945e-06
0.0026891
6.74712e-07
2.62297e-06
0.00059001
2.0522e-06
1.4657e-06
0.0156292
1.38813e-06
1.11726e-06
0.00106854
1.12443e-06
9.96977e-07
0.000696235
5.37964e-07
1.39741e-06
1.96303e-06
9.2287e-07
8.39781e-07
1.48371e-06
1.63507e-06
7.35801e-07
1.63481e-06
1.66236e-06
1.05759e-06
8.84e-07
1.314e-06
0.00138464
1.7779e-06
5.01962e-06
0.00269956
0.000563919
1.33024e-06
8.66783e-06
0.00318984
1.49703e-06
2.63739e-06
8.78185e-07
1.76005e-06
1.46145e-06
9.75508e-07
1.14146e-06
8.52826e-07
1.56677e-06
0.000161562
0.0236639
0.0012433
1.53742e-06
2.76033e-06
0.0206015
5.56484e-07
0.000500588
1.35943e-06
0.000353534
1.59539e-06
0.0158283
7.60012e-07
0.00245013
8.41303e-07
0.000489448
1.13367e-06
0.000300567
0.00173625
1.54926e-06
0.0118695
7.23886e-07
0.0277548
7.17912e-07
1.67973e-06
0.00248053
6.67268e-07
4.68419e-07
9.57527e-07
5.64589e-07
3.83602e-06
0.00508071
1.24697e-06
1.4561e-06
0.00829405
0.000215862
8.52403e-07
2.5784e-06
6.61869e-07
1.25221e-06
0.000840128
0.00035471
1.73454e-06
1.86701e-06
1.55559e-06
0.000837578
7.90818e-07
8.7264e-07
0.000364799
6.82569e-06
4.93279e-07
1.62525e-06
3.34228e-06
1.56116e-06
8.81722e-07
4.52881e-07
0.00269577
1.90764e-06
5.84826e-07
1.25251e-06
0.0143073
1.26423e-06
1.91745e-06
3.63725e-06
1.59331e-06
5.74958e-05
1.47792e-06
5.94607e-07
4.92496e-07
1.39485e-06
2.97043e-06
1.59371e-06
6.34775e-07
7.04805e-07
2.12527e-06
8.71629e-07
0.000121581
6.2164e-05
1.33581e-06
1.65849e-06
0.00139768
1.08418e-06
5.53895e-07
5.65558e-07
4.39283e-07
1.8236e-06
8.46907e-07
0.0244971
1.26601e-06
1.34975e-06
5.55121e-07
1.49436e-06
1.60147e-06
6.15187e-07
5.1194e-05
0.0515695
0.000268109
0.00646564
0.0164713
0.00226171
8.69734e-07
1.51407e-06
0.000288957
1.86231e-06
0.00235419
1.46553e-06
2.89985e-06
0.000294105
0.000957167
0.000271957
1.26872e-06
5.81842e-07
6.47856e-07
1.53715e-06
1.0436e-06
0.000620641
2.79803e-06
5.17526e-07
1.54215e-06
1.70859e-06
1.55278e-06
0.0108829
2.51578e-05
0.0235951
1.26307e-06
0.000233917
1.29819e-06
1.60319e-06
1.61787e-06
4.71361e-07
9.36679e-07
0.000799568
1.04056e-06
2.52503e-06
1.51629e-06
1.2556e-06
1.36341e-06
4.02374e-06
0.000253642
0.00277718
1.54136e-06
0.00272129
1.55214e-06
2.66407e-06
2.15733e-06
4.60637e-06
9.57378e-07
1.59448e-06
4.20749e-07
1.39989e-06
1.53446e-06
7.57458e-07
5.81136e-07
5.13887e-07
4.3776e-07
0.0045111
1.43996e-06
1.53555e-06
1.34394e-06
9.32588e-07
1.24928e-06
8.24629e-07
0.00209261
7.23747e-07
6.22512e-07
1.16924e-06
7.03713e-07
8.68063e-07
0.00174258
1.46179e-06
0.000865688
6.01813e-07
1.42859e-06
9.38477e-07
9.12186e-07
8.15414e-07
4.5164e-07
6.52775e-07
2.47121e-06
1.04869e-05
0.000467475
0.0102233
1.71045e-06
1.55107e-06
7.22055e-07
0.0155981
4.44259e-07
0.0014691
2.80958e-06
0.00638329
5.80329e-07
0.00903832
0.000544604
1.50652e-06
1.05152e-06
1.46516e-06
0.0103429
1.69087e-06
1.76022e-06
1.42832e-06
0.00284293
0.0146335
5.24464e-07
0.002907
1.59802e-06
7.69899e-07
9.38903e-07
9.92828e-07
1.24999e-06
4.48786e-07
0.00285352
0.00282447
5.02357e-07
1.28072e-06
1.17476e-06
1.09007e-06
8.9491e-07
0.0138696
0.00609831
3.19282e-06
4.54652e-07
4.58335e-07
4.20585e-07
0.00952892
0.00270124
1.96675e-05
2.96513e-06
5.81762e-07
0.000292026
0.000124538
0.00489009
4.57755e-07
5.63392e-07
3.36974e-05
1.45345e-06
0.0197518
1.03294e-06
7.73906e-07
6.01856e-07
1.82863e-06
1.42315e-06
4.92233e-07
1.2916e-06
1.16226e-06
8.58839e-07
1.79598e-06
0.00265185
0.000349535
2.60553e-06
0.000287803
1.57125e-06
2.57838e-06
1.36271e-06
5.84565e-07
1.00874e-06
0.000608117
0.000312683
0.0216989
0.0302331
1.00112e-06
5.52673e-07
1.42993e-06
1.52784e-06
0.00862152
2.00946e-06
5.61951e-07
5.95501e-07
0.00766952
1.40507e-06
2.38106e-06
1.24154e-06
0.00121878
0.0242299
5.08996e-06
0.000309427
8.77959e-07
1.65616e-06
8.60713e-07
8.35409e-05
1.3373e-06
1.3938e-06
0.000566209
5.02279e-05
1.15035e-06
5.55068e-07
1.56764e-06
0.00963735
0.00100808
0.0106423
7.23045e-07
1.40365e-06
0.000759602
9.23449e-07
4.20614e-07
1.60116e-06
0.0005437
4.93505e-07
8.65488e-07
0.000515823
0.0151539
1.06023e-06
7.87681e-05
1.09957e-06
0.000435802
4.32912e-07
1.93808e-06
0.000847182
0.00288415
0.000244758
4.46311e-07
1.4518e-06
0.0101595
1.21552e-06
7.66075e-07
0.0404252
0.0170054
6.36908e-07
7.33955e-07
1.59212e-06
0.000465399
0.011445
0.00213904
2.37648e-06
1.47141e-06
1.41064e-06
1.57518e-06
0.00185532
2.61494e-06
0.0156569
2.00894e-06
1.04772e-06
0.0149672
0.000107182
0.00167845
8.97597e-06
0.00180073
5.69463e-07
1.29031e-06
0.00930867
3.53708e-06
1.66171e-06
1.5662e-06
1.51082e-06
0.000380374
1.39671e-06
0.00116519
1.29981e-06
8.18928e-06
1.26627e-06
0.000895175
8.61222e-07
0.0123363
1.75535e-06
1.54994e-06
0.00235392
2.09011e-06
6.00406e-07
0.00045617
0.0152973
1.57165e-06
1.23411e-06
0.000799564
8.18667e-07
0.011053
1.29584e-06
0.000698582
1.03857e-06
5.00716e-07
1.14647e-06
0.000898878
6.29576e-07
5.53981e-07
7.42175e-07
0.000669394
0.00269398
1.50007e-06
1.14012e-06
1.43315e-06
9.71204e-06
1.61564e-06
1.59416e-06
0.00349377
0.00153233
0.0199111
1.17582e-06
5.61787e-07
0.00182064
4.58586e-07
0.000301054
0.00248511
1.0631e-06
4.31449e-07
1.52608e-06
0.00254239
0.0215568
0.00900889
4.49834e-07
1.08651e-06
0.000307556
1.83089e-06
9.02856e-05
0.0108318
0.000918182
8.28284e-07
1.54899e-06
0.0133775
1.46633e-06
4.46834e-07
4.57544e-07
1.40878e-06
0.00110578
1.03514e-06
0.000387667
8.07338e-07
0.00860111
2.04465e-05
4.19722e-07
1.71348e-06
1.31768e-06
0.00908285
1.53995e-06
1.38984e-06
1.18802e-06
8.20009e-07
0.0489625
2.07042e-06
6.51086e-05
1.34935e-05
0.000402353
0.0156871
1.60517e-06
1.5312e-06
8.18315e-07
8.28938e-07
1.37147e-06
9.52923e-07
0.000288921
1.71092e-06
0.000839483
1.48576e-05
7.6163e-07
0.000301696
0.000439169
1.83921e-06
1.79932e-06
0.00663608
1.37558e-06
0.000199172
6.12165e-05
1.53496e-06
6.29134e-07
0.000978559
4.02952e-05
5.33131e-06
9.74846e-07
1.29888e-06
9.33124e-07
1.37195e-06
1.05254e-06
0.000487278
1.35366e-06
0.000249016
0.00272688
1.68006e-06
7.50408e-07
4.58031e-07
0.000447348
4.92561e-07
0.00358625
1.66094e-06
0.000198039
1.26058e-06
1.26847e-06
1.12057e-06
0.000280585
4.23849e-07
0.00238457
1.16222e-06
1.46628e-06
8.895e-07
1.3673e-06
4.43721e-07
6.56369e-07
8.40943e-07
1.52008e-06
3.31554e-05
0.00698287
9.29181e-07
0.000653693
4.27713e-07
9.48623e-07
0.00318746
1.05419e-06
4.44875e-07
0.000449765
9.34821e-07
1.99727e-06
0.000820707
1.12985e-06
2.54256e-06
0.000911815
1.11369e-06
0.000989591
4.7053e-07
2.998e-06
0.0190332
1.44208e-06
4.68143e-07
1.7658e-06
4.12896e-06
5.77021e-07
6.51968e-07
1.25486e-05
4.95733e-07
4.56406e-06
0.000320293
9.09329e-07
1.8588e-06
0.0214934
1.59062e-06
1.51447e-06
1.40457e-06
1.54058e-06
1.58389e-06
1.08988e-06
1.27931e-06
4.34541e-06
0.00089987
1.06084e-06
1.13747e-06
9.29802e-07
1.20733e-06
1.52497e-06
0.000262241
3.40227e-05
4.26719e-07
0.000702842
4.39644e-06
5.40898e-05
0.00038411
0.0419001
9.10425e-07
6.57723e-07
1.53982e-06
1.65354e-06
0.000372662
6.03868e-07
0.000678805
1.05598e-06
1.81207e-06
9.49289e-07
5.73154e-07
0.000342887
1.16374e-06
8.33301e-07
0.0168285
7.44895e-06
1.52538e-06
9.03187e-07
2.06519e-06
0.000276861
1.56457e-06
0.00100964
0.0199208
5.58729e-07
1.1031e-06
9.6805e-07
0.000916975
1.27564e-06
1.48051e-06
1.98157e-06
1.09275e-06
0.000316592
0.000346847
0.000274776
0.00980459
0.0122614
0.000352501
2.63204e-06
2.32607e-06
0.00855753
9.91331e-05
1.05017e-06
1.05133e-06
8.08781e-07
1.54739e-05
1.45352e-06
1.521e-06
0.000373938
0.000615698
1.59623e-06
5.35256e-07
7.44181e-07
0.000600548
1.21942e-06
1.45546e-06
1.49187e-06
0.000484584
1.72169e-06
0.000901231
1.49669e-06
6.98756e-06
2.01828e-06
1.60147e-06
0.000398727
1.34716e-06
1.28949e-06
1.20321e-06
8.9797e-07
7.43433e-07
0.00017472
0.0157604
1.06713e-06
4.25805e-07
1.10122e-06
9.23751e-07
0.000930049
1.45439e-06
1.1124e-06
8.01892e-07
1.40517e-06
9.05669e-07
1.04718e-06
1.33751e-06
4.847e-07
6.04662e-06
1.12044e-05
1.22413e-06
1.59748e-06
4.55756e-07
1.51344e-06
4.29388e-06
0.000606247
8.78925e-07
1.66025e-06
7.6332e-07
0.0152346
1.60214e-06
5.51682e-05
4.43268e-07
0.0319307
1.16236e-06
1.36085e-06
8.47252e-05
5.50433e-07
0.0223879
1.30355e-06
0.0207752
1.41294e-06
0.000312261
5.44552e-07
0.0189266
0.00551755
7.3402e-07
0.00153255
7.40566e-07
4.41223e-07
0.000964883
7.62366e-07
1.10801e-06
5.59337e-06
1.81433e-06
1.06449e-06
7.43534e-07
4.21548e-07
9.15618e-07
0.000659479
1.15385e-06
5.41094e-07
0.0421542
1.56123e-06
0.000388855
7.93437e-07
1.46523e-06
7.61826e-07
1.30873e-06
0.000796154
2.09574e-06
4.52835e-05
4.66413e-06
1.99823e-06
1.13609e-06
7.47117e-07
8.85861e-07
0.0140272
1.14721e-06
1.11927e-06
7.37852e-07
1.48001e-06
1.91499e-05
0.00994584
7.46376e-07
0.000165302
1.01942e-06
1.64463e-06
4.67734e-07
1.47398e-06
1.35909e-06
0.000294781
1.06554e-06
7.35171e-07
0.000941227
1.17405e-06
8.40562e-07
0.000334007
0.014656
4.23604e-07
0.0189943
5.96747e-07
0.0106818
1.60556e-06
0.000643692
9.45746e-05
1.83847e-06
8.2195e-07
2.58075e-06
9.34871e-07
1.33019e-06
1.66534e-06
1.62264e-06
1.46456e-06
0.000598906
0.000406292
1.6132e-06
1.19444e-06
1.14337e-06
8.55062e-07
2.50386e-06
1.21475e-06
1.01303e-06
1.40324e-06
7.55345e-07
1.64604e-06
8.77116e-06
1.41129e-06
1.27002e-06
1.73735e-06
0.0106494
0.00331831
1.60433e-06
0.00177761
0.00134447
2.37511e-06
0.0227277
8.16129e-07
1.57143e-06
1.12446e-06
9.01026e-07
1.25622e-06
0.0205435
1.23372e-06
1.60279e-06
9.41229e-07
1.49137e-06
0.000551976
5.16745e-07
0.00104492
1.62508e-06
0.0130854
1.58044e-06
0.000280354
5.98269e-07
1.84578e-06
1.45844e-06
1.22223e-06
1.43886e-06
1.20233e-06
0.000917226
1.52877e-06
1.56864e-06
4.35886e-07
0.000327158
0.010358
1.13367e-06
7.94601e-07
0.00087551
0.00016667
0.00255258
7.24315e-07
1.06874e-06
0.0174678
1.57412e-06
0.000546864
0.000104186
5.03416e-07
1.46976e-06
0.000749348
1.27573e-06
1.6059e-06
6.917e-07
6.83911e-05
1.65624e-06
4.80841e-06
8.31085e-07
0.000108275
0.000370769
0.0177539
0.0423912
1.28251e-06
1.04526e-06
1.00281e-06
1.27014e-06
4.60409e-07
0.0155175
8.85913e-07
0.00232934
1.42769e-06
0.000540122
0.000236802
8.30333e-07
7.29346e-07
1.50048e-06
0.00054119
7.54773e-07
9.44348e-07
9.42245e-07
4.86162e-06
0.0115451
7.74434e-07
1.33986e-06
1.26651e-06
1.48002e-06
8.11068e-07
7.57983e-07
0.000456316
1.45336e-06
8.33764e-05
2.03863e-06
8.16096e-07
0.000271531
8.23169e-07
0.00579281
7.64675e-07
1.10781e-05
5.78433e-07
9.12159e-07
5.55092e-07
1.02933e-06
2.9858e-05
6.50596e-07
2.89505e-06
1.41319e-06
5.12168e-05
1.51415e-06
1.76694e-06
7.70381e-07
2.21996e-06
0.000456763
1.89202e-05
1.53126e-06
1.09616e-06
1.04405e-06
1.46672e-06
8.77895e-07
5.03804e-05
1.47349e-06
1.26298e-06
0.0136413
1.42483e-06
1.3145e-06
1.27269e-06
0.000439263
0.0202466
0.000440712
7.51877e-07
8.78758e-07
6.93292e-05
0.000179026
1.45832e-06
1.01328e-06
0.00219589
0.00033971
4.92058e-07
0.00247623
4.09805e-06
7.35972e-07
2.23894e-06
5.30895e-07
8.79596e-07
1.1797e-06
1.59842e-06
8.12458e-07
1.79878e-06
1.54074e-06
1.46256e-06
5.60268e-07
4.45729e-07
1.62268e-06
1.51441e-06
1.58143e-06
4.34918e-07
1.18744e-06
1.11534e-06
1.53357e-06
1.5623e-06
1.65463e-06
3.03046e-06
4.42277e-07
0.037613
1.54344e-06
4.28034e-05
1.59901e-06
0.000506344
7.51128e-07
1.01201e-06
1.19757e-06
5.94045e-07
2.89136e-06
1.67737e-06
3.0008e-05
5.80038e-07
1.58844e-06
6.09907e-07
1.44182e-06
9.64565e-05
8.57885e-07
0.000443633
0.0509861
2.13839e-06
3.52734e-07
5.30036e-07
1.62144e-06
1.48258e-06
1.52241e-06
6.17354e-07
5.79259e-07
0.00217289
0.000291573
1.52324e-06
1.60599e-06
8.56937e-07
0.000452428
5.49989e-07
1.04806e-06
7.6215e-07
6.23237e-07
4.56756e-07
0.000272949
9.21912e-07
0.000586585
1.34332e-06
1.24569e-06
0.000469584
3.00569e-06
1.49343e-06
0.000436596
0.0119488
0.00161921
0.000776837
7.26984e-07
8.04022e-07
6.68507e-07
8.58382e-07
1.46966e-06
2.61231e-06
4.71376e-07
0.000716089
4.71665e-07
1.78627e-06
4.22017e-07
1.44305e-06
0.000310554
1.88543e-06
0.0242682
1.50847e-06
4.2084e-07
0.000947302
0.0185119
1.32403e-06
0.00427196
4.55943e-07
1.65418e-06
1.4722e-06
1.52145e-06
0.00971933
9.06312e-06
1.68245e-06
1.46628e-06
0.000310414
1.32909e-06
1.40777e-06
3.07609e-06
1.50967e-06
0.000560186
8.47801e-07
1.11767e-06
1.31126e-06
5.78944e-07
3.01617e-05
0.0285369
1.05919e-06
6.30915e-07
1.52366e-06
4.561e-07
0.000751016
1.06576e-06
0.000503457
1.6687e-06
0.000638416
7.13061e-05
1.40332e-06
0.0166267
0.000108911
5.26892e-07
1.72051e-06
0.0227012
1.9357e-06
0.00174858
1.10675e-06
8.515e-07
1.76036e-06
1.43837e-06
0.000946099
2.89179e-06
4.34896e-05
0.000215679
0.000503141
1.47509e-06
7.13336e-07
0.0179083
1.31502e-06
0.000571466
9.74414e-06
1.82554e-06
0.000257684
1.50024e-06
1.57938e-06
1.41115e-05
1.77964e-05
6.14208e-07
0.0287854
6.38231e-07
1.12966e-05
0.00856559
1.7014e-06
0.000605768
1.58857e-06
1.15247e-06
0.000430902
1.16764e-06
1.55376e-06
1.55187e-06
0.000169937
0.0101002
6.1671e-07
1.54782e-06
1.68293e-06
0.0299094
0.000362939
0.00965005
1.88782e-06
0.030179
1.49475e-06
8.02127e-07
7.66551e-05
0.0273092
7.37393e-07
0.010037
9.87722e-06
0.0120414
1.5243e-06
1.4121e-06
0.000449488
0.000443096
2.99541e-06
1.34354e-06
0.000226883
0.0130695
0.000336748
6.19084e-07
5.60531e-07
1.59164e-06
5.34351e-07
7.27827e-07
9.80667e-07
5.26029e-07
1.29511e-06
0.000109728
1.78222e-06
5.60409e-07
1.23195e-06
0.000278758
6.28731e-06
1.16428e-06
0.0217277
1.19005e-06
1.19782e-06
0.0283673
7.41547e-07
1.54969e-06
0.000290086
1.29858e-06
0.000593849
4.60257e-07
1.93334e-05
1.14277e-06
0.00950892
1.26735e-06
1.39038e-06
1.30242e-06
0.000674141
0.0284079
2.36291e-06
6.73635e-07
7.21275e-05
0.0193506
0.000102839
2.50048e-05
1.10903e-05
3.53052e-06
1.23071e-06
1.64972e-06
1.5217e-06
1.46843e-06
1.58319e-06
6.92894e-07
1.6183e-06
4.29633e-07
1.19774e-06
0.0100292
2.05964e-06
0.0200023
0.0156829
0.0112162
0.0142028
8.46093e-07
0.000318774
8.2008e-07
4.95815e-07
1.39625e-06
7.48662e-07
1.08918e-06
0.017551
9.92411e-07
0.0409758
1.50391e-06
2.62561e-05
0.00176159
4.92039e-07
0.00963483
1.41566e-06
1.43571e-06
1.01594e-06
5.89443e-07
0.000524789
0.000388452
6.71255e-07
0.000220723
1.28474e-06
5.82292e-07
0.000193068
1.19592e-06
4.53837e-07
8.40572e-07
2.52291e-06
1.52855e-06
1.77483e-06
0.0275579
4.56935e-07
0.000561617
1.29889e-06
1.25316e-06
0.000169257
0.000489684
0.00992868
1.4466e-06
4.58244e-07
7.22161e-07
0.000734145
4.51577e-06
1.62892e-06
1.5159e-06
7.96621e-07
1.51461e-06
1.12915e-06
1.02592e-06
1.6094e-06
0.0175841
5.58982e-07
8.44864e-07
5.14014e-07
0.000269675
8.24111e-07
0.000114342
2.32529e-05
1.65983e-06
3.64629e-06
1.07289e-06
2.69904e-06
0.00275456
0.0103241
1.27392e-06
1.52346e-06
4.65414e-07
1.24177e-06
0.0139503
0.00476413
0.0168966
0.000491814
8.50946e-07
5.56723e-07
0.00011183
6.93627e-07
0.0134241
1.69383e-06
7.15481e-07
2.48046e-06
0.00137954
1.2473e-06
5.62121e-07
8.11615e-07
1.37172e-06
1.18544e-06
7.0431e-07
1.17529e-06
8.99342e-07
0.000208544
4.78462e-07
1.02348e-06
0.00269967
0.00048881
7.37893e-07
1.52876e-06
0.00646552
1.72362e-06
0.0135125
0.0157409
1.58139e-06
1.55926e-06
1.18812e-06
0.00174519
0.000548339
1.09765e-06
0.030605
0.0122016
0.000109158
8.87032e-07
1.00786e-06
5.04624e-07
1.16895e-06
0.0443781
3.24746e-06
0.00265105
0.0101834
9.91215e-07
4.28985e-07
0.0296486
1.58507e-06
0.0284374
0.0138006
3.35735e-06
0.000110258
0.000813296
1.41697e-06
8.93391e-07
1.16349e-06
0.0337179
0.00251582
0.012975
4.46136e-07
1.73731e-06
0.0113218
1.31955e-05
9.7181e-07
4.67869e-07
1.43482e-06
1.72565e-06
4.04059e-06
1.11375e-06
1.64293e-06
1.93325e-06
0.0121691
9.96588e-06
2.35857e-06
2.99988e-06
3.03484e-06
2.55216e-05
5.8621e-06
0.00866745
1.21151e-06
0.00268627
1.13165e-05
7.81719e-07
0.0272505
1.49153e-06
9.4065e-07
1.28764e-06
0.000864566
0.0123822
7.25886e-07
1.42353e-06
0.000299746
1.13783e-06
1.66123e-06
0.00029561
1.22686e-06
0.000297223
0.00230438
0.0103464
1.18425e-06
0.0368448
1.53398e-06
1.01484e-06
7.31606e-07
5.76617e-07
9.12808e-07
0.0203397
1.29747e-06
0.00029597
1.56212e-06
2.11348e-06
1.1059e-06
1.90684e-06
1.58852e-06
1.51763e-06
0.000302426
1.50496e-06
0.000445848
1.23338e-06
6.00006e-05
1.90978e-06
0.000123037
1.56924e-06
8.07604e-07
3.05389e-06
1.62978e-06
7.82724e-06
0.000446582
4.07907e-06
8.80814e-06
0.000386098
1.39905e-06
1.4587e-06
7.49189e-07
0.00510692
0.0371899
0.000448024
2.12972e-06
4.90356e-06
7.46055e-07
0.00383045
0.000568566
0.00865126
1.6257e-06
7.29572e-07
2.09685e-06
0.00965774
7.94289e-07
7.35483e-06
0.000552658
1.30226e-06
1.27822e-05
1.41465e-06
0.0126901
0.000704322
0.0145317
1.7484e-06
7.78805e-07
7.22932e-07
0.0165728
4.21444e-07
1.5837e-06
0.00265473
1.75318e-06
7.35186e-07
4.20629e-06
0.000282666
1.73762e-06
8.08467e-07
8.79743e-06
5.52127e-06
1.2978e-06
1.62061e-06
0.000979808
0.00311807
2.88436e-06
0.000295477
2.4507e-06
1.51342e-06
1.57008e-06
0.000316198
1.01023e-06
7.37218e-07
0.000278519
4.72605e-06
1.44124e-06
1.11596e-06
1.1569e-06
6.74357e-06
0.0360631
7.25683e-07
0.00932144
1.5954e-06
0.00033137
6.78441e-07
0.00144493
0.0107204
8.34047e-07
0.018096
0.000430506
1.39889e-06
1.05617e-06
0.00103207
1.6296e-06
0.000211244
4.73698e-07
1.44002e-06
1.64937e-06
1.59e-06
1.4711e-06
0.030201
8.91896e-07
2.11119e-06
0.0183885
4.22606e-07
0.00350964
1.73572e-06
4.07714e-06
0.00203334
5.25485e-06
0.00100196
1.08346e-06
3.69845e-05
1.50981e-06
8.34027e-07
2.1149e-06
1.14384e-06
1.52235e-06
2.14112e-06
1.22851e-06
1.58356e-06
1.16227e-06
0.000462761
0.000453721
1.69633e-05
7.08774e-06
9.98992e-07
5.08541e-06
1.1999e-06
1.70352e-06
7.45827e-05
1.0701e-06
1.16591e-06
0.000481907
1.30212e-06
7.88714e-07
0.00257128
1.92963e-06
0.00271835
0.00832597
7.57467e-07
1.32887e-06
1.74993e-06
1.55236e-06
2.03456e-06
0.0145277
4.5483e-07
1.15354e-06
0.0136481
7.60721e-06
0.000257914
0.0145807
0.0286868
6.22339e-06
0.000558147
0.00121459
9.38016e-07
5.06807e-07
1.55933e-06
0.000958727
0.000267886
1.62546e-06
1.47095e-06
0.00040443
1.84316e-06
8.12565e-07
1.58904e-06
8.84075e-07
4.57274e-07
0.0077386
1.35694e-06
0.000391678
0.0034308
4.63796e-07
0.00317032
1.0132e-06
1.62358e-06
0.000628346
0.0135671
3.13229e-05
7.50288e-07
1.52029e-06
0.000442405
1.61483e-06
1.62437e-06
0.00962295
0.00032946
0.0141755
0.000626979
1.47951e-06
1.36204e-06
7.09176e-07
8.05475e-07
0.0218526
0.0152877
2.00799e-06
1.58621e-06
7.22316e-07
0.000538248
0.00467328
1.31643e-06
0.000458957
2.43262e-06
0.0109567
7.76532e-07
7.09332e-07
0.000480017
4.19903e-07
1.72062e-06
2.43975e-05
1.54442e-06
1.44633e-06
0.00040208
1.6561e-06
1.29249e-06
1.63754e-06
0.0196685
1.61371e-06
2.91552e-06
8.2064e-07
0.000945603
0.000948837
0.000572069
1.19094e-06
7.98726e-07
1.89503e-06
0.000673144
0.000204782
1.58114e-06
1.15836e-06
1.83869e-06
5.05925e-07
2.85217e-05
3.69267e-06
1.45333e-06
1.44675e-06
1.16738e-06
8.84887e-07
7.37494e-07
1.1464e-06
1.60975e-06
1.64582e-06
1.22728e-05
0.00354524
0.00188778
1.72834e-06
3.19084e-06
6.06899e-05
1.29624e-06
1.65059e-06
3.02899e-05
1.06577e-06
1.19588e-06
1.06784e-06
1.69695e-06
1.0443e-06
3.30357e-06
1.95401e-06
0.000281026
1.55468e-06
0.0374419
0.0126801
0.0218938
7.09271e-07
0.000943232
1.61447e-06
1.5189e-06
0.00525261
9.94657e-07
1.51493e-06
4.57235e-07
4.74319e-07
1.26676e-06
1.38016e-06
1.81723e-06
5.5728e-07
2.25818e-06
0.00929773
1.45982e-06
0.0004421
9.88545e-07
2.32543e-06
2.06869e-06
7.18598e-07
1.46234e-06
0.000561085
3.197e-06
1.33692e-06
1.12371e-06
0.000333437
8.20907e-07
0.000555764
0.0183408
0.000379703
0.00188229
1.62862e-06
6.39288e-06
0.0517466
0.000127064
1.51075e-06
3.80577e-06
0.0181505
0.00298172
1.47371e-06
0.0117848
1.50568e-06
1.51684e-06
0.0220008
6.02199e-05
1.53701e-06
7.57403e-07
4.69527e-06
8.94827e-07
0.000322975
7.64044e-07
0.00227085
7.57665e-07
1.50193e-06
1.58953e-06
1.00614e-06
1.56068e-06
1.14018e-06
8.19129e-07
0.0217699
1.43798e-06
0.000275241
0.000270622
0.000795825
1.56035e-06
0.017781
9.6701e-07
1.58148e-06
0.00103732
0.022066
8.18651e-07
2.0502e-06
4.5463e-07
1.51005e-06
1.78443e-06
0.000444934
0.000630114
1.28595e-06
0.000526496
0.0103268
2.26132e-06
1.58715e-06
5.34211e-07
1.47081e-06
1.61104e-06
7.51086e-07
0.0456041
1.52765e-06
0.0198249
4.81114e-07
0.0216112
0.000488564
0.00495228
0.011622
1.55582e-06
1.99807e-06
1.43924e-06
9.66735e-07
1.14035e-06
1.70465e-06
1.20402e-06
1.01862e-06
1.24601e-06
0.0119311
0.025843
0.000431615
0.0355737
7.38915e-07
5.92132e-07
1.26105e-06
1.0767e-06
6.02007e-05
0.00162653
1.81917e-06
1.85239e-06
1.3087e-06
0.00992935
6.62637e-07
5.53368e-07
0.000502955
0.0240454
0.0119613
9.02932e-07
1.51151e-06
1.54984e-06
0.000159638
0.0157536
9.12568e-07
0.0229092
7.75597e-07
1.49676e-06
8.03868e-07
4.59217e-07
5.17985e-05
0.000167119
1.58251e-06
8.70986e-07
0.0282404
1.47559e-06
0.0102894
1.54333e-06
5.03419e-06
1.59732e-06
1.51738e-06
1.32004e-06
8.11872e-07
0.00650282
7.66937e-07
0.000359613
1.44487e-06
4.56127e-07
0.00650694
2.44864e-06
0.00970746
1.4781e-06
1.07153e-06
1.70079e-06
0.0390976
8.62003e-07
1.61545e-06
1.51495e-06
0.0211214
1.41411e-06
0.000700567
0.0114728
1.79142e-06
6.54378e-07
2.91821e-06
1.46681e-06
2.54597e-06
1.63531e-06
7.4415e-07
1.08593e-06
0.0126705
0.00771744
0.0276351
0.000305113
8.69941e-07
0.017105
9.75822e-07
0.0231941
1.73454e-06
1.28936e-06
1.19212e-06
6.38053e-06
0.000407413
0.000602637
1.4917e-06
0.000543488
1.38302e-06
1.18787e-06
6.28647e-07
3.82323e-06
7.81804e-07
0.00155407
7.32746e-07
1.2909e-06
0.00839485
1.1138e-06
0.0186644
0.0167709
1.15819e-06
6.74432e-07
0.0119093
0.0180675
1.37233e-06
3.57767e-06
1.73065e-06
1.3903e-06
1.48013e-06
0.0290148
4.45398e-07
1.47031e-06
0.00222076
1.44145e-06
3.94119e-06
0.0288255
1.87565e-06
2.13027e-05
0.0121663
8.07407e-07
1.52712e-06
1.26385e-06
1.59772e-06
6.91512e-07
1.45819e-06
0.000942125
7.57578e-07
1.44613e-06
1.55841e-06
1.60078e-06
0.0224355