/*--------------------------------*- C++ -*----------------------------------*\
| =========                 |                                                 |
| \\      /  F ield         | OpenFOAM: The Open Source CFD Toolbox           |
|  \\    /   O peration     | Version:  v2012                                 |
|   \\  /    A nd           | Website:  www.openfoam.com                      |
|    \\/     M anipulation  |                                                 |
\*---------------------------------------------------------------------------*/
FoamFile
{
    version     2.0;
    format      ascii;
    class       volScalarField;
    location    "100";
    object      ddt0(k);
}
// * * * * * * * * * * * * * * * * * * * * * * * * * * * * * * * * * * * * * //

dimensions      [0 2 -3 0 0 0 0];


internalField   nonuniform List<scalar> 
18618
(
9.94755e-09
1.23095e-06
-3.92555e-08
3.34647e-08
1.07714e-08
1.18051e-07
9.44619e-06
-2.28357e-06
1.13918e-07
4.2297e-08
-1.66754e-08
-8.67495e-09
-1.68891e-08
2.87072e-08
-1.30431e-08
2.9078e-08
-5.30894e-08
1.08101e-08
-8.72382e-11
6.29077e-06
-3.93408e-08
6.89552e-05
-1.08331e-08
-3.94151e-08
4.82122e-06
7.55007e-08
7.45516e-08
3.67997e-05
1.77507e-07
-1.6588e-08
1.92728e-08
-1.51347e-08
-4.78218e-09
-5.82922e-12
-7.17218e-08
-2.04043e-06
-1.74528e-07
4.31063e-06
-3.35878e-06
-1.56008e-08
4.42321e-05
4.19369e-05
-9.26821e-06
-6.1259e-06
-1.48357e-08
1.52036e-08
-7.15792e-06
-4.37995e-08
6.32474e-08
-3.40816e-06
7.22189e-08
-2.11013e-08
1.01144e-07
-1.72523e-07
-1.92839e-07
2.38236e-06
-7.90362e-08
5.30028e-08
4.64991e-05
2.79024e-05
7.29203e-06
1.32392e-06
8.39886e-08
1.23911e-08
3.17224e-06
2.00552e-07
2.77895e-05
-7.26782e-09
-6.35985e-09
5.31598e-05
-5.22201e-09
9.6006e-09
-4.07258e-08
8.37128e-06
-7.71134e-08
6.70379e-07
-4.03766e-08
-2.69529e-08
5.82594e-08
2.43899e-07
1.21645e-09
-1.58618e-08
1.99454e-07
3.72806e-08
7.58431e-05
-3.988e-09
2.11393e-06
4.88909e-05
-2.24993e-06
-1.87617e-05
-5.15308e-08
7.19236e-06
4.80469e-06
-8.04341e-08
2.74272e-06
7.72555e-06
2.05915e-08
-3.64469e-07
-7.17472e-09
-9.24811e-06
-1.665e-06
-4.51126e-05
4.27088e-09
2.80117e-06
2.01591e-07
1.66112e-07
4.43675e-06
2.82801e-08
9.88326e-06
6.5896e-06
3.19389e-05
-1.58011e-08
-7.87914e-06
-9.11251e-06
-1.37163e-08
3.24681e-08
7.37981e-06
2.93107e-09
1.24468e-07
-1.62931e-06
5.3507e-08
-1.32434e-08
-3.11025e-08
4.69813e-08
9.12878e-08
2.57745e-11
-8.58009e-08
3.17762e-06
3.38396e-06
7.55087e-08
-5.50816e-06
1.72195e-05
4.84923e-06
-8.03714e-08
-4.24323e-08
2.14725e-08
4.40385e-10
3.71037e-05
0.000177053
2.66042e-09
1.22553e-06
8.44905e-06
2.06145e-09
-2.19702e-08
-2.2896e-08
-1.83736e-08
-8.70604e-09
1.05739e-07
2.37151e-08
-1.0816e-08
2.40111e-06
8.24354e-08
2.05217e-08
-7.09473e-08
-2.20431e-08
5.39492e-07
-9.68083e-06
1.86051e-08
-2.49498e-08
6.37838e-05
1.11583e-07
-4.32512e-08
1.12138e-05
-1.03958e-05
-5.25364e-08
3.01329e-08
3.22052e-08
5.16849e-05
-6.03589e-08
-3.5024e-07
-5.44912e-08
1.31064e-08
1.47263e-07
3.62496e-06
-8.54693e-06
-6.53663e-08
-8.27326e-07
-2.86694e-08
-1.2099e-08
-5.24494e-08
2.89946e-06
-6.79261e-08
4.27911e-05
2.24962e-08
-6.97956e-10
2.23915e-08
-8.57542e-06
3.74222e-07
1.49015e-06
4.27783e-08
-1.29504e-08
-6.90251e-08
3.8064e-08
-1.1015e-07
-1.1967e-08
1.30142e-05
-9.68284e-10
9.0482e-09
-5.93949e-06
-1.85883e-08
-1.52904e-08
1.21013e-05
1.02889e-05
-4.27048e-06
-5.93579e-07
1.02976e-07
-3.67329e-07
-4.84199e-05
3.00427e-09
-1.82546e-08
1.82851e-06
1.3964e-06
-2.11801e-08
2.68593e-08
-2.3935e-10
-1.29669e-07
-5.94271e-06
4.84847e-06
8.38941e-08
1.31633e-09
-1.78279e-10
-2.88263e-09
-3.75838e-06
3.5108e-08
4.61444e-05
1.46706e-09
1.30298e-08
3.58673e-07
2.67822e-06
1.36013e-08
6.37708e-08
1.13802e-08
1.74325e-08
5.44277e-07
-4.43176e-08
1.97625e-08
6.69861e-08
-3.2696e-07
1.01776e-05
-3.57617e-08
7.05429e-07
1.00707e-07
1.63607e-08
-8.37042e-06
5.05805e-08
3.14398e-08
1.14226e-05
5.42467e-08
3.92142e-05
-1.13025e-07
-7.12516e-08
4.92969e-05
-4.65594e-08
1.80869e-05
7.64261e-09
-8.49328e-08
-2.985e-07
4.60086e-08
-2.36435e-09
1.67992e-09
3.44481e-08
-5.6775e-06
7.40633e-06
-8.07327e-09
6.05793e-05
8.66029e-06
-9.68977e-08
-3.02034e-08
6.27988e-08
7.48593e-08
3.75999e-07
2.57457e-08
5.29554e-09
5.30427e-08
-3.41716e-08
1.25713e-07
1.74805e-08
-4.83948e-08
2.25421e-08
-4.13e-06
-4.87803e-08
4.50907e-08
-7.24259e-08
7.79941e-09
-5.29842e-06
3.70347e-09
-9.92387e-08
3.25497e-08
1.25187e-07
5.96359e-08
-2.62382e-08
-7.02169e-09
2.63583e-08
2.55128e-08
0.000181791
3.77643e-06
3.02242e-06
-2.74146e-07
8.20422e-06
6.78291e-08
1.61076e-08
1.0604e-08
2.26616e-08
6.93773e-08
-3.41892e-08
5.93836e-09
-2.05045e-09
-7.54191e-06
1.87723e-07
-9.07732e-06
5.19737e-06
-3.02067e-09
-1.59617e-07
-1.00745e-08
1.81169e-08
5.14524e-08
3.29985e-09
-2.90548e-08
1.42049e-08
-3.65036e-06
4.09935e-08
3.04608e-06
-1.71688e-08
1.41613e-05
7.4111e-09
4.7219e-06
-5.17026e-06
3.35812e-08
-1.41446e-08
9.86854e-05
3.58756e-08
0.000188877
2.73965e-08
1.35399e-08
2.32653e-08
5.53042e-11
3.15911e-05
-2.70756e-08
-3.00443e-08
-6.375e-06
-1.59132e-08
9.9351e-08
0.000178701
3.32976e-07
2.60378e-08
4.10448e-08
-4.36051e-08
1.0218e-07
-1.55894e-08
2.81955e-08
7.84877e-08
2.03756e-08
3.41355e-06
1.82283e-08
6.27152e-09
2.00014e-10
2.34046e-08
-1.72612e-08
-4.8882e-08
3.77827e-08
-7.62241e-08
-5.12869e-06
4.60553e-05
3.08912e-08
-6.32513e-06
6.89526e-05
2.32693e-08
-2.09498e-08
3.4457e-08
-3.23064e-07
-6.73101e-08
8.9685e-08
1.3608e-07
-4.91523e-08
3.14016e-08
-2.70767e-08
4.0885e-07
2.09549e-07
-6.95548e-08
8.92204e-08
2.6021e-07
7.61134e-08
-2.99599e-08
-7.39602e-09
-1.21718e-07
1.99679e-08
8.40946e-08
0.000149237
-2.59949e-09
4.00823e-08
4.95958e-08
2.16514e-08
1.67261e-06
3.40729e-05
3.18411e-08
6.0544e-07
8.37174e-06
2.49496e-06
-4.22374e-08
-8.05737e-06
4.94503e-08
-1.39093e-08
-1.61771e-08
-9.65854e-06
1.02918e-08
-1.01774e-05
2.56e-08
8.47766e-08
-4.16475e-08
-2.08942e-08
1.51918e-08
-2.36451e-08
1.05941e-08
6.4722e-09
-1.9674e-08
3.74039e-08
-2.82829e-08
2.5237e-08
2.33323e-08
-5.64376e-08
-1.48352e-08
1.51465e-06
-4.27135e-08
-2.68542e-08
2.77378e-08
0.000182553
3.58393e-08
-2.16968e-08
1.95716e-05
-2.08652e-06
2.11094e-08
1.65397e-08
-2.32486e-09
-1.08773e-08
-5.06541e-08
6.71506e-08
2.77563e-08
-9.07469e-08
4.07721e-07
1.54452e-07
-1.95371e-08
2.70515e-05
-7.48723e-08
-2.30845e-08
-6.13543e-06
1.1698e-07
-1.23787e-07
-2.10585e-06
2.4188e-07
5.83152e-08
4.71924e-08
2.3764e-08
7.98973e-08
2.73406e-08
-3.96143e-08
1.33043e-06
-2.51068e-08
1.01712e-08
-2.46679e-08
6.16281e-05
-9.42265e-06
4.55943e-08
2.55195e-07
4.45524e-09
4.08986e-07
-2.35386e-08
-3.00611e-08
7.70312e-09
3.19798e-08
-3.27709e-08
4.63677e-08
1.02191e-08
-3.01835e-08
-1.22874e-05
3.71705e-08
-3.50315e-08
1.60246e-06
3.57519e-08
6.27372e-06
3.31447e-08
4.69992e-07
8.47782e-08
-4.87611e-06
-1.64663e-08
6.29589e-07
-3.98208e-08
3.18074e-07
-2.45477e-08
-5.10546e-08
2.59013e-08
-6.76576e-08
0.000186295
9.14142e-09
-2.80785e-08
-1.72604e-06
-2.9419e-06
1.25931e-07
0.000106772
8.00029e-08
-5.75928e-08
7.91044e-09
5.50891e-08
3.09057e-05
-2.39069e-08
1.03523e-09
1.37165e-07
9.35063e-08
-9.34904e-08
8.34468e-06
5.04911e-07
6.67551e-06
-9.11316e-08
3.96172e-08
6.35821e-09
5.37743e-08
2.24529e-09
1.9044e-08
-1.0467e-08
1.55464e-07
-6.43742e-06
3.70348e-09
-8.76738e-09
1.12844e-06
-1.43679e-08
2.16755e-08
-5.63845e-09
-4.96709e-06
2.95609e-08
-1.64023e-06
-2.30839e-09
8.21819e-06
-2.1431e-06
5.77703e-08
5.61963e-08
1.64961e-08
-2.55114e-08
7.82316e-06
-4.42357e-09
1.2215e-08
2.47266e-08
-2.20148e-08
-5.88649e-08
9.24732e-08
5.52778e-08
7.31627e-08
-2.03885e-08
5.28515e-06
-1.16128e-05
-7.98031e-09
-8.5497e-08
-2.64776e-08
-3.10775e-08
8.12056e-07
5.19157e-08
2.18787e-06
-7.64822e-08
-5.51929e-06
-7.55506e-09
1.63717e-07
2.43012e-09
0.000179423
-3.39558e-08
-1.47599e-06
-8.82249e-08
2.10302e-08
-6.64011e-08
-1.22553e-05
-2.63165e-08
9.11815e-08
-7.52565e-09
9.52753e-09
-6.65869e-06
-8.85741e-09
8.54086e-06
9.08188e-05
-7.85122e-06
-5.73892e-06
8.09977e-08
6.68592e-06
-2.12443e-08
-7.09396e-09
-9.57146e-10
1.25781e-08
-9.77727e-09
5.57383e-08
-2.17704e-08
7.72286e-09
7.81447e-08
-2.36184e-05
5.65414e-07
1.07776e-08
-4.30329e-08
2.22259e-08
2.31029e-07
-3.39531e-08
-2.72292e-09
4.16926e-06
-6.68544e-06
3.98281e-07
-8.33327e-08
4.57928e-09
7.48777e-06
-7.65983e-08
1.59671e-08
2.43063e-08
3.88431e-08
-3.15751e-09
-4.96573e-09
-6.74493e-09
4.06454e-09
8.23116e-05
-9.64716e-07
-9.36552e-06
7.47391e-06
-5.42346e-05
1.57816e-09
2.32568e-08
-8.90317e-06
-4.42405e-08
-6.92152e-08
1.28571e-08
-1.02777e-07
9.25704e-06
7.70164e-08
-1.69428e-08
-1.80455e-07
-4.51304e-08
-3.4576e-08
9.42006e-07
-3.90105e-08
-1.0623e-07
-5.318e-09
5.24662e-06
1.02938e-08
4.25117e-07
6.69968e-07
9.71639e-06
-2.0324e-08
1.94574e-06
6.66452e-08
-6.04962e-09
-1.45142e-08
3.18682e-05
4.64474e-07
3.1749e-08
2.93577e-06
-5.84847e-08
-2.21625e-09
1.31346e-08
2.74142e-08
-2.5696e-06
-3.74976e-08
-1.05982e-07
1.48571e-07
-4.05981e-08
3.36254e-08
-1.11003e-07
8.09875e-06
1.03436e-08
-5.14433e-09
6.9624e-05
-2.40189e-07
4.91074e-09
8.13439e-08
2.55788e-08
-1.51134e-08
4.4056e-08
-1.36119e-09
3.66444e-07
-1.12094e-07
-4.76482e-06
1.14742e-08
-4.35223e-09
8.37331e-09
-4.05711e-08
2.94343e-07
7.09239e-05
1.18272e-06
0.000182241
2.62176e-08
4.22689e-05
2.72163e-08
6.02091e-08
-5.90161e-09
8.23743e-08
-6.69006e-07
2.48623e-06
5.34108e-09
-4.23547e-08
-4.85558e-08
9.60569e-06
-2.63287e-08
5.60822e-08
2.31718e-08
5.04692e-07
-1.87634e-07
-1.50743e-07
6.73968e-09
-1.18664e-08
2.07743e-06
-4.74281e-06
7.01986e-08
-4.56819e-08
-1.11797e-08
1.47484e-09
4.03139e-09
2.70299e-08
-9.76017e-06
2.77593e-08
-3.06307e-08
6.92704e-10
-2.50671e-08
2.98534e-08
-4.55701e-06
-5.10874e-05
1.1366e-05
2.0117e-08
4.30735e-06
-6.85351e-08
1.00806e-08
4.77659e-09
-2.21661e-08
9.31314e-05
-2.84115e-07
-8.47874e-06
4.74251e-10
4.05568e-06
-8.5126e-08
6.65769e-10
-1.11286e-08
-1.82581e-08
-4.27749e-06
2.99172e-08
-1.9766e-08
-5.76542e-06
9.45626e-10
4.43885e-06
-3.6903e-06
-4.88275e-08
1.26809e-08
-1.10903e-07
1.25188e-07
9.80449e-08
4.16318e-06
6.51383e-06
2.01142e-05
3.45325e-07
4.35901e-07
3.8405e-08
-4.87254e-06
-2.40049e-08
2.44054e-08
-2.12591e-08
-2.26391e-08
-4.56435e-06
8.70242e-09
3.91771e-05
-2.62937e-08
-3.98919e-08
-1.0176e-05
5.30817e-07
3.549e-10
-5.05608e-09
2.44342e-09
1.578e-08
1.35496e-06
3.54393e-05
-4.30285e-08
2.44485e-08
9.37055e-05
-1.10535e-08
2.35682e-08
3.84585e-08
-1.02812e-08
-2.87149e-08
-9.03418e-08
-1.0953e-07
4.94994e-07
-1.03555e-07
8.70168e-09
5.37636e-08
7.79168e-05
-2.38274e-09
4.79909e-08
1.56341e-05
1.07119e-08
-3.08284e-08
8.62858e-06
-5.82707e-06
7.70396e-06
2.6029e-08
1.03132e-07
9.0254e-08
-1.09406e-08
-4.19998e-08
-1.04002e-05
-1.44785e-08
-2.96129e-07
-9.83791e-09
-7.09448e-09
-6.53167e-08
-1.15079e-08
-2.42275e-08
8.6528e-09
-1.41574e-08
-4.00858e-09
-5.24551e-07
-2.12272e-08
-7.21224e-08
-1.84383e-06
1.04366e-06
9.63564e-08
-3.42203e-08
-8.96116e-09
2.67645e-08
-1.17117e-08
6.79035e-09
-3.07158e-08
-1.51067e-07
1.97483e-08
5.76294e-08
1.13857e-07
-4.57439e-09
-6.16829e-06
-1.02428e-08
-9.99008e-06
7.02362e-06
3.95309e-09
6.78647e-07
-1.49694e-08
-1.14826e-08
-1.34199e-07
1.85867e-06
-7.10328e-06
7.35699e-09
-9.91124e-10
-2.85851e-06
-1.66336e-09
-6.2908e-08
-2.38575e-08
-2.01441e-06
1.08677e-08
2.70309e-05
4.6514e-08
-8.6857e-08
-9.4868e-06
-5.55906e-08
-5.32571e-09
-4.94975e-08
2.59087e-09
-3.30133e-05
4.45067e-07
2.25021e-05
-5.14895e-08
2.23514e-05
-9.48092e-06
5.83777e-05
-6.33937e-06
7.14704e-08
-4.38379e-06
-1.99802e-07
5.52196e-08
-6.06508e-08
-1.8627e-08
7.56766e-06
7.59314e-08
2.28995e-08
4.69242e-08
1.90482e-07
-1.36132e-07
5.351e-08
-2.57344e-06
-9.15515e-08
-8.38656e-08
-1.14281e-05
2.92969e-08
1.46431e-07
-5.20446e-05
4.21097e-08
-1.34424e-08
-2.31445e-08
4.82673e-08
3.61546e-08
-5.10484e-08
-7.73053e-09
1.49305e-05
-7.79655e-06
1.10626e-07
-2.18564e-08
-3.82936e-06
2.66456e-06
6.37053e-08
3.03053e-08
-7.80892e-08
4.69267e-06
2.246e-09
9.69286e-09
3.3924e-08
9.17186e-08
-3.51094e-07
-5.07792e-08
3.68508e-08
-8.04368e-08
-3.40033e-09
2.05291e-09
2.84816e-07
-2.93109e-08
-8.36576e-09
5.23394e-08
-7.17137e-09
-1.77844e-08
8.31561e-08
1.68833e-08
7.1136e-08
6.23027e-08
-7.54981e-06
2.66732e-08
2.34738e-06
-5.46203e-08
-3.52757e-08
-4.11325e-08
-3.44113e-09
6.13987e-08
1.0576e-07
1.41312e-05
-1.60244e-07
-1.03162e-05
4.87867e-08
-4.02116e-08
1.3829e-06
8.20642e-08
8.55652e-08
-1.55938e-07
2.07924e-08
-2.15784e-08
6.56627e-08
9.16795e-08
3.72398e-06
-6.80719e-08
2.71538e-08
-9.06399e-06
1.689e-05
5.71009e-08
1.79031e-07
1.07595e-05
-4.51273e-05
4.49221e-08
-1.4683e-08
1.73539e-08
-1.5342e-08
7.60815e-07
1.61259e-08
2.01377e-08
-6.26169e-08
2.93586e-08
5.88827e-08
-2.80178e-09
5.06826e-09
9.90875e-09
-3.55483e-08
4.82663e-05
-4.64677e-08
-2.40381e-08
-2.07992e-08
6.5504e-08
1.19226e-08
7.57194e-09
6.66153e-06
-4.5668e-06
1.56338e-08
2.54103e-08
9.22677e-06
8.37752e-08
-8.57379e-08
-1.23742e-07
-6.01382e-08
-3.63181e-06
2.21021e-08
-2.28097e-08
-9.52841e-08
8.90558e-05
-2.10934e-09
-1.0298e-08
5.30157e-05
1.87853e-08
3.72102e-06
6.31626e-09
-5.04291e-06
1.54879e-08
-6.50657e-08
2.80643e-05
-1.01124e-07
3.94898e-06
-2.92633e-08
7.37442e-06
0.000181782
4.99629e-08
4.25575e-07
-1.66541e-07
1.28376e-07
-6.91787e-06
6.94613e-10
4.12843e-08
-9.29275e-08
-4.11042e-08
8.40835e-08
1.51401e-07
3.07279e-08
6.20679e-05
-1.33212e-08
1.05016e-07
-2.98863e-08
3.49161e-08
6.54266e-08
-4.06806e-09
-2.15365e-09
6.92684e-09
2.96501e-08
-6.51701e-08
3.69167e-08
5.72344e-09
1.58589e-05
7.31506e-09
-1.03862e-08
-3.25847e-08
4.29194e-07
6.39088e-08
-5.45292e-06
5.32611e-08
2.07708e-06
5.16955e-08
5.43097e-08
9.98231e-06
4.89359e-05
-1.29951e-08
6.94511e-05
2.23239e-08
9.34003e-06
4.28461e-07
-5.39556e-08
1.28632e-08
-5.24232e-08
1.0048e-05
6.53035e-08
-4.3627e-09
6.15338e-08
-2.2444e-08
-6.65377e-08
4.49908e-07
8.26563e-08
1.72145e-07
-1.65064e-09
2.30132e-08
5.83368e-05
-3.79438e-08
-1.57947e-09
7.08098e-06
1.02779e-08
2.68398e-08
0.000185661
-1.53425e-07
-1.54458e-07
1.58614e-07
-1.06397e-07
-2.63343e-08
-4.00977e-08
-1.41642e-08
-4.28188e-08
-3.3435e-08
6.20933e-08
1.08209e-07
8.50604e-05
-1.41107e-07
1.12391e-05
-8.34973e-09
1.82131e-08
1.02287e-08
1.04817e-08
-1.64705e-08
9.63193e-07
8.15625e-06
2.26705e-08
-4.99757e-09
-3.85225e-06
3.81862e-07
4.93619e-05
-6.69511e-08
-3.08565e-08
-4.41148e-09
3.74224e-08
-1.06175e-07
-6.72915e-09
7.67458e-09
3.38778e-09
-2.29904e-08
-5.20115e-08
8.10223e-08
1.05599e-07
1.12722e-08
5.94512e-08
6.7075e-08
1.41099e-08
4.62434e-06
-6.50997e-08
8.2629e-05
3.81553e-08
2.46795e-08
-1.10974e-09
1.52078e-05
3.01402e-06
3.86679e-08
-1.27191e-08
-1.9908e-08
1.6519e-05
2.2707e-05
-1.12318e-07
1.94791e-08
6.45701e-05
2.67489e-05
2.57193e-06
1.38499e-09
7.84015e-07
6.17649e-08
7.27682e-08
-2.59051e-08
2.54468e-08
-7.35211e-08
3.09714e-08
-1.92675e-08
7.73693e-08
-6.03721e-05
2.08212e-05
2.88968e-08
-3.5014e-08
-1.74732e-08
9.39589e-08
1.46525e-06
-1.81148e-09
-8.41676e-09
1.63586e-08
-2.63889e-08
-3.37891e-08
-2.25175e-08
-1.66237e-07
2.37313e-06
-1.36543e-09
1.38775e-07
-5.74472e-08
-2.37651e-08
2.23138e-08
7.72801e-08
2.39604e-05
-1.68671e-08
5.43082e-09
1.25584e-05
-9.41546e-08
-5.09972e-08
4.90345e-09
-8.74363e-08
3.2639e-05
3.94273e-08
7.47999e-08
7.81883e-07
3.63677e-08
-2.41773e-08
7.4519e-07
2.90351e-08
-5.85227e-09
-2.61645e-08
4.3909e-08
9.62517e-08
4.31921e-08
1.06427e-05
-5.13517e-08
4.72288e-08
1.40399e-08
4.53063e-07
-5.16285e-08
-3.82953e-05
3.19909e-05
3.01751e-08
8.04412e-08
-9.21959e-07
5.60243e-08
1.67504e-05
-2.88329e-08
1.13034e-08
4.95073e-08
3.14878e-06
-2.5875e-08
2.9412e-09
-2.75946e-08
-2.4644e-08
9.19587e-09
4.38885e-05
8.16758e-06
-3.99122e-08
-3.39946e-06
-3.20548e-08
-4.26176e-08
4.23861e-08
-7.91732e-09
-4.36567e-08
-2.41355e-08
-9.5689e-09
-8.68718e-09
-2.71941e-06
1.19399e-05
-2.00574e-08
1.01646e-08
-4.69697e-08
-7.86955e-06
3.00337e-08
6.03952e-09
7.68657e-08
-3.20935e-06
5.92886e-08
1.18116e-08
6.09786e-08
1.34907e-06
-6.66631e-08
1.56383e-09
-7.37437e-08
-2.20938e-08
-5.97186e-08
-8.537e-08
-4.79608e-08
5.97493e-08
1.58514e-07
-1.32587e-08
-8.81084e-09
9.44754e-08
8.66117e-08
8.44568e-08
4.97207e-08
-9.87228e-06
-6.34277e-09
-1.68034e-08
-1.25817e-06
-5.42874e-06
5.23025e-08
1.91392e-08
-1.83368e-07
7.30213e-08
1.29668e-08
2.33918e-08
1.0596e-05
-6.56635e-06
3.86574e-08
2.39341e-08
4.27381e-08
-2.50465e-08
9.46383e-06
3.38303e-07
-1.86817e-08
-9.70851e-09
1.64311e-08
-4.01463e-06
1.02438e-08
2.32209e-05
2.81423e-07
8.76767e-07
4.16532e-08
1.08707e-06
-2.64464e-08
7.79323e-08
-1.73269e-07
-7.4209e-08
-2.18364e-05
8.19144e-05
2.87024e-08
-1.0039e-08
6.10185e-09
9.69273e-07
2.53422e-07
2.92847e-08
2.23079e-08
4.47216e-09
1.32863e-07
6.14327e-08
-2.71312e-07
7.21512e-10
8.55062e-06
8.20137e-08
-6.88992e-06
1.17944e-08
4.30194e-08
-3.10569e-10
6.59552e-09
8.43721e-06
-3.75595e-06
5.03442e-08
1.3041e-08
6.549e-10
-7.80116e-08
8.07179e-08
2.09645e-08
1.21419e-10
-1.79061e-08
-4.07339e-08
4.48059e-08
-2.30225e-08
-4.51421e-08
2.97388e-07
1.52861e-08
-7.47067e-09
-2.07566e-08
3.9145e-07
-1.14448e-07
-4.3381e-08
-1.72013e-08
1.19046e-07
3.64036e-08
1.07158e-08
-1.04169e-07
6.30032e-08
-3.72823e-08
-7.63122e-06
2.09268e-08
8.0345e-08
2.008e-06
-3.465e-08
-2.50201e-08
-7.52598e-08
1.78106e-08
-7.63499e-06
-1.95909e-08
-5.38924e-08
8.5616e-07
6.58744e-08
2.43529e-07
1.97851e-07
3.21257e-08
2.93486e-08
-4.89503e-08
5.7907e-07
2.56806e-08
1.10021e-06
8.32927e-06
-5.00247e-05
-2.54095e-07
1.47243e-08
-2.20545e-07
6.0565e-08
4.1767e-07
-7.57001e-09
-8.39795e-08
1.85832e-10
-5.14854e-06
7.50111e-08
5.31631e-05
-4.56966e-08
9.90254e-05
-3.39368e-10
4.57953e-08
-1.52053e-09
1.88023e-08
4.68146e-08
9.69435e-09
-1.06636e-07
-1.0731e-08
-1.45704e-08
1.49725e-06
8.68317e-06
1.01225e-06
-2.54167e-07
-1.19965e-07
2.80448e-09
3.44222e-08
-9.62877e-09
1.70449e-08
1.27022e-05
-6.25996e-09
5.1335e-08
3.49628e-07
3.20334e-05
1.85317e-05
-2.06823e-06
1.63378e-07
6.65041e-05
0.000108053
-2.13244e-05
2.46768e-08
-5.02504e-08
1.24608e-08
5.12923e-08
2.69406e-05
8.6706e-06
-1.13524e-09
1.21726e-06
1.05694e-07
-3.54022e-08
1.01759e-08
3.3265e-08
5.05285e-06
2.1477e-08
7.39072e-06
2.95548e-05
5.5518e-08
7.82546e-05
-6.53704e-08
-5.93568e-07
-2.05516e-06
5.55813e-08
1.05927e-08
1.62187e-07
-4.46382e-08
1.07773e-07
6.2638e-08
-2.65875e-10
1.2169e-08
2.10362e-09
9.09244e-09
4.92587e-06
3.64368e-08
-6.58617e-06
1.58304e-07
6.26053e-08
1.18612e-07
1.31159e-07
2.30162e-07
-2.50426e-08
-4.63746e-08
3.29045e-08
2.37565e-08
1.07929e-07
1.19724e-07
-6.70749e-09
-5.83589e-06
5.14662e-07
-8.73969e-09
9.88165e-08
-9.17366e-08
-1.50054e-09
6.28137e-08
-6.1917e-08
1.85125e-09
-1.62625e-08
3.52148e-07
2.30112e-07
-9.91374e-06
-3.56518e-09
5.55068e-05
6.60929e-09
4.68483e-08
-2.31709e-09
3.70222e-08
-8.35222e-09
1.64231e-08
-2.16689e-08
-1.73068e-08
1.15587e-07
1.81486e-05
4.65556e-08
0.000186308
-5.30921e-06
3.63447e-09
-1.90776e-08
0.000109619
3.79399e-09
1.80945e-07
1.85569e-06
9.31477e-05
-8.77581e-08
2.65994e-05
3.65624e-06
-3.14839e-08
-9.16196e-06
-2.11014e-05
-1.20848e-08
2.21797e-08
5.99016e-07
3.96124e-08
4.24077e-07
1.87526e-08
-9.22515e-06
4.10416e-08
8.57566e-08
2.49505e-07
-1.63696e-08
-3.27379e-08
7.22827e-08
5.79432e-07
7.05504e-06
-9.57953e-08
-3.87894e-06
2.01598e-08
1.58694e-05
4.89968e-05
-8.42346e-05
-3.87842e-08
-2.80382e-09
-1.37027e-08
1.3579e-05
4.4377e-08
-5.00862e-08
-3.97601e-06
2.41472e-06
5.17109e-08
-2.6823e-08
2.15031e-07
1.86622e-08
1.53394e-08
2.78168e-05
3.09539e-08
-3.16628e-06
8.91033e-06
-4.77829e-09
4.11774e-05
3.65409e-08
-4.75643e-08
4.75945e-08
1.6656e-08
2.22176e-07
8.0631e-05
-1.52967e-07
-2.00861e-08
-1.1192e-08
-1.17774e-07
1.56453e-07
1.54e-09
-1.78459e-08
8.47486e-08
5.51286e-06
2.37341e-09
1.08511e-06
3.77863e-08
1.34889e-06
4.26098e-07
7.63598e-05
-4.06292e-06
3.02184e-08
2.00114e-06
3.3608e-08
1.18103e-08
1.2285e-09
1.2457e-08
3.94952e-08
-2.44823e-08
-5.07832e-08
-4.45478e-08
5.73335e-09
6.89339e-08
6.93433e-08
3.66722e-05
3.62791e-07
8.66733e-08
4.8282e-08
6.36287e-05
-5.21019e-08
2.17838e-08
1.05487e-08
7.89779e-09
-9.16973e-06
4.73374e-08
1.81101e-08
7.49121e-07
7.45328e-08
1.96071e-07
9.05742e-05
-1.03901e-05
5.76538e-08
4.33134e-06
2.42074e-07
-6.66532e-08
9.43898e-08
-5.94693e-08
-6.31103e-08
-7.65024e-08
3.8337e-09
3.22544e-08
-3.82364e-06
4.25703e-08
3.16769e-08
3.99876e-08
4.32409e-08
-1.01056e-05
1.33789e-08
6.98461e-09
-1.44937e-10
-2.39407e-09
0.000106943
-7.07394e-08
-6.34274e-08
-4.79931e-06
-2.91532e-09
8.90709e-06
1.34735e-08
-7.44935e-08
-4.04253e-08
2.17879e-06
1.69144e-05
-1.02633e-07
2.49155e-08
-3.0067e-08
5.12112e-08
5.59398e-08
2.42872e-08
3.44344e-05
2.71564e-05
-3.86942e-06
-6.45368e-06
3.09491e-07
5.00045e-08
1.23586e-05
3.12423e-08
1.26373e-06
-4.92205e-08
5.43866e-08
-6.72274e-08
-8.00386e-09
-2.54302e-09
-9.64066e-09
-1.17867e-07
3.78335e-08
9.34878e-05
-8.09243e-08
6.82291e-08
-1.08703e-07
1.79163e-08
-1.2684e-08
-7.21393e-06
7.53066e-08
4.52035e-08
-9.78349e-09
3.7901e-08
6.14839e-08
5.22075e-08
7.02172e-08
4.156e-09
8.83775e-06
-5.22109e-06
2.64726e-08
9.42161e-11
-1.19649e-08
-3.51618e-08
-4.72743e-10
3.0113e-08
5.81295e-08
3.58172e-08
8.95207e-08
-2.9045e-08
-9.54559e-08
-1.05642e-05
7.85384e-08
8.50278e-10
-8.02687e-08
5.80095e-06
4.7562e-05
1.5632e-08
4.58117e-09
2.9651e-08
1.90178e-08
-4.01001e-06
-5.04767e-06
-5.12045e-06
2.19762e-05
-5.13952e-08
-6.04875e-08
-6.38662e-08
3.84198e-08
4.75322e-07
3.23399e-08
6.63663e-09
-9.53723e-06
-6.48691e-08
3.08505e-08
3.16274e-05
-7.33824e-06
2.15259e-08
-8.83968e-08
-4.11032e-08
-9.95826e-09
-1.10617e-07
8.58555e-05
-3.08982e-09
8.57629e-10
2.99709e-08
-2.73245e-08
-3.5821e-09
3.24875e-05
2.08765e-08
0.00010409
-2.83407e-06
-2.29824e-06
1.19876e-07
-1.10725e-08
1.26444e-07
-1.21619e-07
1.64351e-06
-4.17256e-08
0.000127612
9.88039e-08
-1.07978e-09
1.99607e-06
8.57024e-11
-9.50709e-09
3.23121e-07
1.02507e-08
-2.68809e-09
3.70712e-05
3.23942e-06
3.22158e-07
1.76591e-08
-4.44439e-05
4.94145e-07
-2.2962e-08
8.47838e-08
1.91942e-07
1.12041e-06
2.79534e-08
3.8919e-08
8.6983e-08
2.70684e-08
-3.43178e-09
-1.98597e-08
-1.10718e-07
-2.01271e-06
-1.18876e-08
-7.75709e-09
-3.14237e-08
-5.96315e-06
-3.90688e-05
3.76875e-05
-6.34357e-06
-1.60959e-08
5.92524e-06
-1.31397e-05
1.60622e-08
-9.36915e-08
-1.21383e-08
1.75291e-08
2.78554e-08
-1.6983e-08
2.93796e-08
-6.09815e-09
-6.66083e-08
3.78117e-08
6.17374e-08
-2.21756e-08
-1.96647e-08
2.61017e-09
-4.92911e-08
1.05792e-07
-2.09187e-08
2.21273e-05
2.926e-08
3.51667e-08
-1.42064e-08
5.51142e-08
4.90668e-06
-4.27059e-08
-1.02117e-08
1.04425e-05
2.32116e-07
1.30781e-07
-1.19526e-08
-1.89788e-09
2.1373e-07
2.41329e-08
-2.08595e-08
-4.44156e-11
4.09125e-06
2.96619e-06
4.03205e-05
2.87807e-09
7.78199e-07
-6.53224e-06
6.81737e-09
9.3659e-08
3.85611e-09
-1.14778e-08
-4.37267e-09
-1.4246e-05
-7.91458e-06
-4.4378e-06
7.85624e-07
-1.60389e-08
4.44262e-07
-3.11494e-08
6.56314e-09
-1.55334e-08
7.17924e-08
-1.95745e-08
8.8055e-09
7.07957e-05
6.86212e-09
1.97476e-05
4.11287e-06
1.18179e-07
-3.95473e-08
1.00284e-05
8.76225e-08
0.000175067
-6.34029e-09
4.18108e-07
6.61033e-05
1.83702e-06
-2.18307e-08
1.11264e-05
1.07106e-09
2.31611e-07
7.38372e-08
-2.43818e-08
-8.35429e-08
-9.33327e-08
9.1953e-08
-9.46455e-08
1.13512e-07
-2.84037e-08
-1.57262e-08
-4.0606e-08
4.96703e-08
4.64645e-08
4.73949e-08
5.7418e-08
-2.02649e-06
1.92097e-08
1.77564e-08
3.00216e-07
5.53493e-08
8.65874e-06
1.71617e-09
1.24593e-05
6.54091e-06
-2.20199e-08
3.94532e-05
-1.90061e-07
1.57155e-07
6.08784e-08
3.03684e-08
7.16826e-05
-2.88925e-08
-5.78866e-08
3.65746e-08
0.000180623
-6.61857e-06
-4.11445e-06
-4.14987e-08
-2.42443e-07
-2.96709e-08
3.24426e-08
-1.9405e-06
2.11867e-07
2.88716e-08
1.3991e-07
1.10406e-08
4.45699e-09
5.49814e-07
-9.83356e-09
1.41806e-08
1.58981e-08
2.81972e-08
2.30435e-08
1.48648e-06
-2.77476e-09
-7.44992e-06
-1.86575e-06
3.18922e-08
-4.193e-06
-3.85738e-09
-4.13401e-05
6.18553e-09
-3.99505e-08
-2.65199e-08
2.45024e-06
-1.4684e-08
-5.81828e-08
-5.54754e-05
0.000186896
1.87852e-09
2.70973e-07
1.03932e-08
-1.02199e-07
-8.99097e-06
-1.5816e-07
-1.16573e-07
2.86984e-08
5.19566e-08
1.03734e-08
-1.14392e-08
-4.12857e-08
1.13115e-08
-2.67929e-08
3.71511e-07
1.07758e-06
1.10267e-06
1.75704e-05
-2.06346e-07
6.32022e-07
1.52532e-07
3.19985e-08
-1.19571e-08
-5.49291e-08
-1.88649e-09
-3.09797e-08
1.02932e-05
-5.42589e-08
2.92542e-08
1.42791e-07
3.68444e-08
1.97944e-08
1.75213e-08
7.22059e-11
-2.185e-09
1.14161e-05
1.53164e-08
-4.13376e-08
1.78801e-08
3.9058e-07
6.14669e-07
-5.4287e-08
6.55937e-08
2.01232e-05
1.34542e-08
2.7578e-08
0.000165983
9.60184e-09
-1.51376e-09
1.43617e-05
-6.0355e-08
-9.58111e-06
3.27813e-07
6.28391e-08
6.80198e-06
1.11387e-07
5.17311e-09
1.69164e-08
2.67422e-08
-3.09288e-08
1.78778e-08
1.24394e-07
4.02754e-08
-1.58499e-05
1.26742e-05
3.6156e-07
1.46506e-07
-2.25643e-08
-2.27716e-07
1.09211e-07
-2.20106e-09
3.07298e-08
-1.16583e-08
0.000121842
-3.23138e-08
3.64368e-08
5.22677e-08
-1.32966e-09
8.47878e-08
3.70016e-08
-1.5969e-07
-4.2054e-08
3.44308e-08
2.92898e-08
9.15297e-06
-7.99149e-07
-2.36568e-09
4.33953e-07
-4.66253e-08
1.27375e-08
8.02013e-06
1.0381e-08
2.20255e-05
9.4429e-07
-3.69458e-08
-7.93529e-09
3.18831e-08
3.5094e-08
5.1435e-05
4.25728e-05
5.34284e-08
1.67835e-05
1.63776e-08
-7.1222e-08
2.28685e-06
-8.27452e-09
-2.28907e-08
1.58136e-07
2.36331e-08
6.63213e-08
0.000176365
-1.47882e-07
-9.44359e-08
1.3128e-07
-4.6339e-08
2.91684e-08
-2.30346e-08
-1.54686e-05
1.95453e-06
1.53512e-07
-3.28113e-08
6.36356e-08
-6.9512e-06
5.75269e-08
3.42568e-05
-5.20068e-06
6.68369e-06
2.42963e-05
9.12029e-08
1.55104e-08
-8.43261e-08
2.85824e-07
1.43002e-08
-9.30033e-08
2.79037e-07
-1.85106e-07
-2.35189e-08
1.32891e-05
1.45174e-07
-5.39455e-09
-4.58875e-08
1.07017e-08
5.09456e-06
-3.04153e-08
5.47882e-09
9.01802e-06
7.22362e-06
-4.95324e-09
-1.03009e-05
-5.53155e-06
-6.82163e-07
-4.0848e-06
4.58493e-08
2.75492e-08
1.8695e-05
-2.81616e-09
7.26298e-08
1.25162e-07
8.67782e-06
2.70074e-10
-2.15067e-08
7.64688e-09
-1.19504e-07
-2.71624e-08
9.02199e-06
-6.94628e-09
-4.91201e-06
4.62263e-09
-4.88326e-06
1.69415e-10
-4.53215e-06
4.14752e-08
-2.26594e-09
-5.71512e-10
2.11653e-08
-4.00273e-06
1.93625e-05
-2.10547e-08
7.1045e-06
-1.14747e-08
1.49314e-07
-2.9213e-09
5.6541e-08
-6.10787e-06
7.16868e-07
9.44026e-06
-7.92619e-06
2.26402e-08
-1.59497e-08
1.89829e-09
-6.86631e-08
2.49555e-06
1.65784e-07
1.2827e-07
8.93947e-08
3.32033e-07
-5.29393e-09
-2.78979e-10
1.38315e-07
6.28104e-05
2.61068e-07
2.0547e-09
-1.14342e-07
1.75266e-06
-4.80654e-06
0.000116872
3.02212e-08
6.84612e-08
6.1287e-05
3.03997e-05
2.52762e-08
5.45303e-08
-5.55243e-08
-8.08128e-05
7.54579e-08
5.06252e-07
-1.49524e-10
-2.20873e-08
2.4262e-08
1.06197e-08
2.36411e-08
3.18225e-08
-1.27073e-07
-1.48444e-06
2.21476e-08
4.48265e-05
-5.36134e-08
2.1483e-07
6.68617e-05
8.00358e-09
-9.30915e-09
1.104e-09
-4.92321e-08
8.00716e-08
1.23476e-07
1.16973e-08
6.40203e-06
-3.74576e-07
9.90201e-08
-1.66586e-08
-3.7681e-08
-2.39329e-08
2.68909e-07
1.10721e-08
-7.88298e-08
-3.35872e-08
4.02825e-09
1.41199e-07
1.0053e-07
0.000168922
2.1448e-08
-3.84714e-06
1.11483e-07
9.57824e-09
2.04196e-07
-6.46394e-09
2.07986e-05
5.00617e-07
-5.44237e-08
6.46238e-05
-1.04059e-07
-1.04796e-08
-1.17187e-08
-2.13685e-08
-2.34013e-08
-2.68621e-08
3.82753e-08
-1.6961e-07
1.92723e-08
2.06877e-08
-5.8393e-09
8.75515e-08
-1.08736e-07
4.4593e-07
-6.61344e-08
2.91902e-08
-8.6353e-08
9.93337e-08
5.55081e-10
-1.79033e-09
-2.81658e-06
-4.83237e-08
3.45422e-07
1.6361e-07
5.25011e-08
1.03772e-08
1.94145e-07
-5.74317e-09
-1.04249e-09
1.07282e-08
2.40627e-08
7.25649e-06
5.74929e-05
-1.65001e-07
1.3796e-06
-9.3809e-09
3.83214e-08
4.86018e-09
3.02105e-08
2.56134e-06
1.34972e-08
4.72751e-08
3.05459e-05
1.81626e-05
5.48406e-08
-4.81414e-08
-4.02021e-08
-1.3282e-07
2.55996e-09
4.65397e-07
-2.60965e-08
-1.03446e-07
4.00179e-08
-3.54018e-08
8.86643e-06
2.34865e-06
2.32943e-08
-6.78244e-06
-3.75197e-09
2.05725e-07
4.90693e-06
1.74327e-09
4.37865e-08
-1.20294e-05
5.35136e-08
-1.65501e-08
8.0665e-06
6.70739e-05
-2.24528e-08
1.36188e-08
3.37287e-08
-9.10016e-08
9.10489e-07
-6.01418e-08
3.49993e-08
3.49884e-05
9.94897e-08
5.59306e-08
8.23378e-05
3.43893e-08
-4.17121e-05
1.83124e-08
1.63501e-08
5.25982e-07
1.42253e-08
3.78111e-08
2.38461e-08
1.1263e-07
1.80745e-07
-1.5422e-06
-5.17494e-08
-6.03526e-08
-1.42422e-07
-7.53307e-06
1.52536e-05
-7.5378e-08
-1.08689e-05
-8.95501e-08
-3.87998e-06
-8.10139e-06
6.60486e-06
9.55632e-08
3.59208e-08
-3.16304e-07
1.62059e-09
3.46006e-08
4.6707e-08
-2.08684e-08
-3.12435e-06
1.28959e-07
2.76576e-08
3.58238e-08
4.83943e-06
2.01014e-05
9.78529e-06
7.20352e-08
7.76599e-06
1.32858e-08
1.85813e-08
4.36903e-08
3.61276e-06
4.6127e-07
-1.13796e-08
-1.75577e-08
1.30133e-07
5.32006e-06
1.31393e-08
1.11612e-05
1.57792e-05
-2.6939e-07
-7.82232e-08
-5.98025e-08
-2.23558e-08
1.42251e-08
6.04726e-08
-2.837e-08
3.24837e-08
-1.53928e-07
-7.83643e-08
-1.75226e-08
1.44629e-08
-6.17366e-08
3.20856e-08
-1.21758e-05
-1.57986e-07
3.71092e-08
-1.87034e-08
9.76954e-05
2.57407e-07
-6.93815e-09
5.37289e-08
7.71919e-08
-1.01791e-08
-8.77261e-08
-6.06614e-06
-4.59151e-08
-5.44176e-06
-4.56891e-08
-2.27681e-08
-1.19531e-08
6.33105e-08
-2.95405e-08
8.59407e-06
4.79056e-07
-2.61486e-08
8.78611e-07
-7.7493e-06
1.63112e-06
-1.77159e-08
5.72151e-05
1.09741e-07
3.21565e-05
2.67633e-06
1.07376e-08
1.87019e-08
2.15649e-05
-6.60901e-10
1.13128e-05
-9.81065e-11
8.7342e-05
-5.07946e-09
5.82674e-08
-9.5222e-08
-3.53833e-08
5.11216e-06
-9.17802e-08
-8.37147e-10
1.42504e-05
1.94696e-07
-1.25368e-08
3.47955e-08
3.00012e-11
8.94002e-06
-3.89055e-08
1.83151e-07
8.07206e-06
1.20975e-08
1.67039e-05
-2.32588e-07
-1.233e-08
8.14594e-08
7.78243e-06
6.01838e-05
-5.28535e-08
-1.20489e-07
4.13946e-08
-5.95345e-08
-6.80297e-08
-4.07512e-08
-1.51051e-09
8.87684e-06
-2.69969e-08
-1.80999e-08
6.51324e-07
2.66009e-08
7.72133e-08
4.86007e-07
0.000160121
3.66615e-07
-9.20017e-08
2.13613e-08
5.66255e-08
-3.19253e-08
-1.05534e-08
-2.93586e-08
1.27061e-08
4.90017e-08
-1.48481e-09
-5.01777e-08
4.10624e-08
-1.02777e-08
2.22669e-08
-1.90394e-08
2.64118e-08
6.44336e-09
8.02396e-08