/*--------------------------------*- C++ -*----------------------------------*\
| =========                 |                                                 |
| \\      /  F ield         | OpenFOAM: The Open Source CFD Toolbox           |
|  \\    /   O peration     | Version:  v2012                                 |
|   \\  /    A nd           | Website:  www.openfoam.com                      |
|    \\/     M anipulation  |                                                 |
\*---------------------------------------------------------------------------*/
FoamFile
{
    version     2.0;
    format      ascii;
    class       volVectorField;
    location    "100";
    object      ddt0(U);
}
// * * * * * * * * * * * * * * * * * * * * * * * * * * * * * * * * * * * * * //

dimensions      [0 1 -2 0 0 0 0];


internalField   nonuniform List<vector> 
18618
(
(3.99129e-05 4.76876e-05 5.72645e-24)
(4.88259e-06 1.40739e-08 0)
(3.81186e-05 -2.80301e-05 -6.71725e-21)
(8.11365e-06 3.00015e-05 -2.28639e-21)
(3.66307e-05 3.88751e-05 -4.49992e-21)
(1.18618e-06 8.23761e-05 1.72993e-21)
(0.00040312 -0.000160706 -4.69212e-21)
(9.36658e-05 1.9656e-05 0)
(-3.28753e-05 0.000127199 0)
(0.000180668 0.00061596 -3.9339e-21)
(3.66699e-05 3.77093e-05 0)
(3.58441e-05 5.19472e-05 1.63922e-21)
(1.84873e-05 -1.37935e-07 1.93206e-21)
(3.95289e-05 5.14034e-05 6.64537e-21)
(2.09057e-05 2.09087e-05 1.68849e-21)
(6.79026e-07 8.41892e-05 -2.44032e-22)
(3.39193e-05 -3.17524e-05 -7.3204e-22)
(3.88828e-05 4.78118e-05 -4.96854e-21)
(1.48742e-05 1.1681e-05 0)
(-3.38313e-05 0.00013419 3.04653e-21)
(2.12559e-05 2.04763e-05 0)
(-2.29684e-05 -0.000236396 8.2945e-21)
(1.70454e-05 4.03602e-06 0)
(3.51386e-05 5.06464e-05 -3.74263e-21)
(0.000427427 0.000127904 0)
(-3.88088e-05 0.000120317 -2.95344e-21)
(0.000178712 9.43243e-07 0)
(-4.97476e-05 0.000361801 -3.31766e-21)
(0.000121417 0.000196662 -2.66221e-21)
(3.79303e-05 -2.72817e-05 6.2444e-21)
(5.79897e-05 5.69323e-05 -4.68931e-21)
(6.19708e-05 9.05302e-06 3.17005e-21)
(0.000737845 0.000192435 -2.02042e-21)
(1.76631e-05 1.35646e-05 1.90477e-21)
(2.00346e-05 0.000116317 3.46846e-21)
(0.000215915 -0.000164046 0)
(3.41596e-05 -1.46969e-05 2.02456e-21)
(-0.000256195 0.0007249 5.13254e-21)
(0.000101084 2.25245e-05 3.66165e-22)
(1.68572e-05 3.30796e-06 3.42271e-21)
(-0.000123079 -4.46308e-05 6.99935e-21)
(0.000115394 -0.000169208 -2.55914e-22)
(-0.000261906 6.81318e-05 -4.19161e-21)
(-0.00196946 -0.00010428 1.58998e-21)
(0.000147206 3.25405e-05 -2.61288e-21)
(2.48235e-05 0.000130097 -2.25807e-21)
(3.98491e-05 3.39723e-05 0)
(0.000101355 8.84531e-05 6.49278e-21)
(0.000118413 -1.50492e-05 9.95037e-22)
(-0.000280077 0.000221257 7.3755e-21)
(0.000172655 7.15204e-06 3.07573e-21)
(7.12621e-05 -1.57903e-05 0)
(0.00017954 8.64243e-05 4.74618e-21)
(0.000111386 0.00017495 0)
(7.13933e-05 7.04465e-05 -7.83523e-22)
(-0.000210795 0.000726899 0)
(0.000149036 0.000120642 0)
(0.000173021 0.000404744 1.54967e-21)
(-0.000147534 -4.93633e-05 -6.85516e-21)
(-0.000770433 0.000585698 0)
(0.000150021 1.37368e-05 -6.86893e-21)
(0.000251487 -0.000265264 -3.60629e-21)
(0.000122659 -1.45418e-05 7.99633e-22)
(9.48869e-06 1.35544e-06 0)
(0.000202176 -0.000138191 0)
(0.000113696 -5.14414e-05 -1.69352e-21)
(-0.000723343 0.000587875 0)
(0.000158017 3.9349e-05 2.55864e-21)
(1.7707e-05 1.40836e-07 3.96381e-21)
(-0.000151124 -6.16236e-05 5.13288e-21)
(3.87497e-05 0.000198861 1.75259e-21)
(1.52026e-05 1.09115e-05 -7.24277e-22)
(6.49101e-07 2.01738e-05 3.98006e-21)
(-3.96094e-05 0.000107478 0)
(4.59995e-05 9.89071e-06 0)
(0.000214455 -0.000153443 0)
(1.21446e-06 3.47537e-05 0)
(2.23621e-05 3.13914e-05 4.35534e-21)
(1.97087e-05 -2.84267e-06 -7.27733e-21)
(0.000117277 -5.56896e-05 9.97375e-22)
(0.00015143 -1.23325e-05 2.18929e-21)
(1.76456e-05 1.32132e-05 -3.79269e-21)
(7.78612e-07 3.56581e-05 -2.73391e-21)
(6.20175e-05 7.33538e-05 -3.79725e-21)
(-6.73738e-05 -0.000230613 -8.09892e-21)
(3.73279e-05 -1.54292e-05 0)
(0.00015367 -0.000144245 -1.34886e-21)
(-0.000103988 -5.47686e-05 -4.05684e-21)
(0.000247547 -0.000266666 3.56314e-21)
(-0.000495948 -0.00107867 -3.1321e-21)
(3.18659e-05 2.38555e-06 0)
(0.000159579 1.55649e-05 5.9761e-21)
(-0.000120512 0.000302912 0)
(1.77535e-05 -3.00403e-06 3.5712e-21)
(0.000149834 1.84338e-05 -6.01741e-21)
(0.000261131 -0.000263192 0)
(5.50575e-05 5.75831e-05 0)
(-4.36553e-05 0.000206728 -4.55795e-21)
(1.15184e-05 7.04433e-07 0)
(-3.25247e-05 4.769e-05 0)
(-0.000294592 0.000239588 -6.57522e-21)
(-0.00125063 -0.00143619 0)
(6.05863e-05 8.96748e-06 0)
(-0.000105909 0.000303248 2.40861e-21)
(0.000127384 0.000194451 -2.08015e-21)
(3.76611e-05 6.71879e-05 3.59734e-21)
(0.000415845 0.000120838 2.85168e-21)
(1.42551e-05 1.9382e-06 5.96831e-25)
(0.000266978 -0.000260135 -3.3409e-21)
(0.000289897 -0.000241236 3.1375e-21)
(4.15292e-05 -1.97167e-05 2.84045e-21)
(0.000254343 -0.000165702 0)
(4.43052e-05 4.19127e-05 0)
(-0.00141842 -5.55988e-05 -1.73091e-21)
(1.46946e-05 1.83804e-05 -1.81807e-21)
(1.68276e-05 1.77559e-06 1.05401e-21)
(0.000401122 -0.000146679 3.32431e-21)
(8.58528e-06 3.21859e-05 0)
(0.000184072 8.99093e-05 1.60672e-21)
(-1.25214e-06 6.09848e-06 0)
(1.43076e-06 0.000106115 4.57194e-21)
(8.6367e-05 -1.3564e-05 -2.52116e-21)
(0.00016294 -8.76832e-06 2.67983e-21)
(8.65624e-06 6.92349e-05 0)
(7.09504e-05 5.27986e-05 -5.31987e-21)
(6.60409e-05 -1.33301e-05 9.60438e-22)
(0.000118758 1.49871e-05 0)
(0.00020585 -0.000130562 0)
(0.000299628 -9.34441e-05 -2.12601e-24)
(0.000147551 0.000480211 -6.67163e-21)
(-0.000493127 1.82482e-05 0)
(-0.00044064 0.00045269 1.90094e-21)
(-2.80725e-05 0.00013312 -8.47213e-22)
(0.000144 0.000114477 -2.32232e-21)
(2.41579e-05 1.50085e-05 -1.874e-21)
(0.000197808 0.000114971 3.83678e-21)
(1.31438e-05 5.26562e-06 -1.96069e-21)
(4.26447e-05 -2.83285e-05 -1.3123e-21)
(-0.000458941 -0.000122993 -1.66703e-24)
(3.09268e-05 4.26332e-05 0)
(0.000130067 1.66707e-05 -1.39686e-21)
(0.00029856 -0.000234381 2.51122e-21)
(1.95745e-05 -2.21567e-06 3.78719e-21)
(1.17289e-05 1.74493e-06 6.59377e-24)
(0.000239191 -0.000164357 1.86744e-21)
(1.43041e-05 1.7176e-05 3.67121e-21)
(1.57224e-05 4.59295e-07 -9.66097e-22)
(3.92595e-07 3.31876e-05 5.4542e-24)
(1.07193e-05 1.0082e-06 2.81514e-21)
(3.70774e-05 6.93319e-05 3.47052e-21)
(2.43676e-06 6.42217e-05 8.4312e-25)
(3.80261e-05 4.07929e-05 -1.16155e-21)
(0.000892279 0.000160516 -1.93049e-21)
(2.27619e-05 8.58069e-05 0)
(0.000159721 -1.17519e-05 -8.51362e-22)
(0.000142752 1.9169e-05 -1.33399e-21)
(-9.56731e-06 0.000130332 0)
(0.000137181 2.60643e-05 -2.0435e-21)
(6.66938e-05 -2.00828e-05 0)
(-0.000377136 0.000246545 -1.71497e-21)
(7.43786e-05 5.82139e-05 6.8408e-21)
(0.000104331 8.31847e-05 1.56447e-21)
(-0.00162239 0.000526168 3.79054e-21)
(3.69939e-05 5.47655e-06 -3.22429e-21)
(8.03059e-06 1.79684e-05 0)
(8.14869e-05 9.12052e-05 1.22878e-21)
(6.0084e-05 7.46778e-05 7.66076e-22)
(9.51381e-05 -0.000116949 -4.14907e-21)
(2.03357e-05 3.83286e-05 0)
(-4.94449e-05 0.000214281 5.62026e-21)
(1.42784e-07 -1.51612e-06 8.26543e-21)
(0.000758247 0.000148757 -4.09524e-21)
(9.63584e-05 -4.35971e-05 -6.44475e-21)
(0.000358148 6.18408e-05 4.87693e-21)
(-0.000268912 4.87795e-05 -6.63148e-22)
(1.36897e-06 2.64966e-05 -5.77809e-22)
(0.000212901 0.000342722 -3.01754e-21)
(2.39714e-05 8.74349e-05 -1.95045e-21)
(8.81851e-06 4.52672e-07 1.36653e-21)
(0.000140677 3.56108e-05 3.43267e-21)
(-1.4112e-05 6.81439e-05 7.45885e-21)
(1.90279e-05 0.000115181 0)
(-8.47578e-05 0.000376626 0)
(9.31302e-07 2.05258e-05 3.91372e-21)
(7.72297e-06 9.67291e-07 3.45695e-21)
(9.30086e-05 0.000115801 -1.88253e-21)
(1.21787e-05 7.91638e-06 -2.99379e-21)
(5.56827e-05 0.000282584 0)
(0.000155799 -0.000135163 1.32328e-21)
(3.97632e-05 5.02538e-05 -2.87573e-21)
(1.39419e-05 5.55195e-06 -4.22364e-21)
(5.24919e-05 0.000124569 5.11305e-21)
(7.99054e-05 9.13122e-05 -1.157e-21)
(3.61589e-05 -3.26894e-05 1.10237e-21)
(1.92185e-05 -2.56444e-06 0)
(-0.000317763 0.000570111 3.33075e-21)
(3.01805e-05 4.12409e-05 -2.05329e-21)
(5.64752e-05 5.8539e-05 -2.91736e-22)
(-5.22949e-05 1.5642e-05 0)
(0.000148382 3.66887e-05 4.9791e-21)
(5.94201e-05 -1.05388e-05 1.36002e-22)
(0.000224141 8.08456e-06 0)
(-5.23946e-05 0.000127487 0)
(-6.48324e-05 8.76014e-06 0)
(0.000197219 0.000337152 -2.94139e-21)
(5.75058e-05 8.46255e-05 -4.51253e-22)
(0.000135978 1.91119e-05 5.43449e-21)
(-0.00124476 -0.0015643 3.96905e-21)
(3.45336e-06 1.41142e-06 5.52351e-21)
(1.70008e-05 8.32181e-07 2.4667e-22)
(0.000221888 -0.000114195 0)
(0.000212152 -0.000106614 2.25331e-21)
(8.94629e-05 2.40278e-05 -3.3724e-21)
(1.55701e-05 2.40385e-07 0)
(5.07864e-05 4.65798e-05 -6.45796e-21)
(8.88438e-10 -1.88963e-06 1.53153e-21)
(-0.000193441 0.000191349 0)
(0.000442872 9.99836e-05 7.80646e-22)
(4.61186e-06 0.000104066 -2.98638e-22)
(7.52115e-05 -3.4506e-05 -3.64992e-21)
(3.76639e-05 6.86117e-05 0)
(0.000155131 -1.06984e-05 1.02627e-21)
(0.00012997 3.63764e-05 0)
(1.27396e-07 2.37488e-06 0)
(-6.56062e-05 -4.90829e-05 -5.58227e-21)
(8.40202e-06 1.79984e-05 1.77579e-24)
(8.43667e-05 -1.38185e-05 0)
(0.000148651 -5.794e-05 0)
(0.000292113 -8.26645e-05 3.52667e-21)
(0.000158321 4.31771e-05 -1.89351e-22)
(6.35746e-05 7.73248e-05 5.81731e-21)
(0.000147631 4.46155e-05 -1.62238e-21)
(1.47176e-05 1.50145e-06 2.78573e-21)
(0.000127245 1.54047e-05 -6.85923e-21)
(0.000138774 3.60299e-05 0)
(6.13056e-06 6.24249e-06 -3.51828e-21)
(1.76214e-06 2.92368e-05 4.00116e-21)
(-4.46234e-05 0.000256574 -4.64842e-21)
(-5.32504e-05 0.000133622 5.71297e-21)
(9.26465e-05 -0.000104062 -5.14494e-21)
(6.53845e-06 1.12055e-06 -2.83687e-21)
(6.99725e-05 -1.69817e-05 0)
(1.21289e-05 1.16557e-05 1.7613e-21)
(-3.64961e-05 3.87962e-05 -1.4448e-24)
(0.000176782 0.000426077 0)
(0.000868833 0.000590471 -5.80104e-22)
(-0.000321092 0.000589616 -1.56044e-21)
(6.25306e-06 6.07845e-06 0)
(1.80344e-05 -3.2362e-05 0)
(7.7947e-06 3.50485e-05 3.15385e-22)
(1.76785e-05 -3.0037e-06 6.82643e-21)
(7.30692e-05 -0.000198386 0)
(0.000104144 8.66307e-05 3.26421e-21)
(-0.000430672 0.000468689 5.4593e-21)
(0.000177812 0.000139671 2.30567e-21)
(0.000119005 1.62066e-05 0)
(-4.06157e-05 0.000188479 0)
(1.26625e-05 1.00999e-05 -3.10484e-24)
(1.74135e-05 5.2586e-06 2.93063e-21)
(7.81038e-05 -3.48357e-05 -4.08886e-21)
(1.51968e-05 1.94686e-05 -4.62467e-24)
(-0.00018166 0.000197734 0)
(0.000434413 0.000120349 -7.71285e-22)
(1.61728e-05 0.000113648 3.34123e-21)
(1.59043e-05 -0.000225241 0)
(-0.000283526 0.00064785 0)
(-3.63602e-05 0.000156011 0)
(0.000101078 9.19235e-05 -1.63569e-21)
(8.32786e-05 -2.98909e-05 4.05842e-21)
(3.51438e-05 0.000128086 2.60603e-21)
(0.000154195 -5.40992e-05 3.66822e-21)
(1.2837e-05 5.70781e-06 -2.70947e-21)
(8.90208e-05 8.0164e-07 0)
(1.57716e-05 1.90845e-05 -4.00842e-21)
(4.92714e-08 -2.30222e-06 -3.60713e-21)
(4.52696e-05 0.000113491 -3.04189e-21)
(0.000134099 5.79713e-05 -4.147e-21)
(4.55352e-05 6.81505e-05 1.99576e-21)
(5.99198e-05 -4.54407e-05 1.96404e-21)
(0.000125021 3.57846e-05 4.77568e-21)
(1.15426e-05 2.97573e-06 0)
(0.000120676 0.000321061 3.07658e-21)
(1.39883e-05 2.73424e-05 0)
(6.80433e-05 4.29923e-05 0)
(9.05987e-05 3.19182e-05 0)
(7.60105e-06 3.38434e-05 -7.66015e-23)
(3.60963e-05 -6.42489e-06 3.52137e-21)
(9.76917e-05 0.000157348 2.59023e-21)
(7.35566e-05 6.86388e-05 1.66474e-21)
(1.51402e-05 0.000183089 8.65354e-21)
(1.11813e-05 -7.29408e-06 -2.0781e-21)
(8.75241e-05 0.000159447 3.8435e-22)
(9.53022e-06 2.6972e-05 -6.41228e-21)
(0.000925636 0.000198023 0)
(-0.000565124 -3.185e-05 1.82471e-21)
(0.00036987 7.0601e-05 -4.82454e-21)
(0.000159783 2.11535e-05 0)
(-0.000332277 0.000254529 0)
(-0.00157205 0.000467087 -4.81334e-21)
(5.7183e-05 4.9464e-06 -6.01699e-21)
(9.57059e-05 0.000112806 2.19787e-21)
(9.79267e-06 1.81407e-06 -1.33002e-21)
(0.000131091 1.60155e-05 -4.49854e-21)
(5.606e-05 8.4962e-05 3.89317e-22)
(1.14186e-05 5.53059e-06 0)
(3.63438e-06 9.41327e-07 -4.9827e-21)
(2.72572e-05 4.7093e-05 -3.14104e-21)
(-0.000435051 5.82564e-05 0)
(0.000107398 -5.06699e-05 7.82297e-21)
(-1.37558e-05 0.000139474 0)
(-5.3461e-05 0.000122524 1.27211e-24)
(1.75091e-05 5.70341e-06 -1.71894e-21)
(5.10753e-05 0.000290622 2.31744e-21)
(-6.49834e-08 3.83475e-07 0)
(8.47034e-07 2.27008e-05 2.61924e-22)
(2.93068e-05 4.07715e-05 1.03798e-21)
(6.8103e-05 4.15601e-05 -2.17917e-21)
(0.000599103 3.94133e-05 -2.46104e-24)
(0.000231934 0.000384259 2.91195e-21)
(0.000219825 -0.000235372 -1.65759e-21)
(1.56868e-05 3.43453e-07 5.93081e-21)
(-3.16654e-05 6.49499e-05 -2.14511e-24)
(7.74262e-06 2.30306e-05 0)
(0.000223128 4.93292e-06 4.82469e-22)
(2.94033e-07 1.22701e-05 -3.87889e-21)
(-0.000236056 0.000601687 8.15333e-21)
(-1.49427e-05 4.55389e-06 2.67436e-21)
(2.92345e-05 4.13399e-05 -5.52416e-21)
(9.68291e-06 -0.000105277 6.35023e-22)
(-0.000170364 0.000225411 2.07585e-21)
(0.000148537 5.25896e-05 0)
(-0.000730467 -3.25712e-05 -1.00333e-21)
(2.78668e-05 4.82578e-05 4.40634e-25)
(1.18761e-06 2.55758e-05 -2.62098e-22)
(0.000191727 0.000119781 -2.23633e-21)
(1.33389e-05 5.35552e-06 7.83637e-21)
(-0.000838937 0.000633624 6.26484e-21)
(8.81498e-05 2.61157e-05 2.31298e-21)
(8.77085e-05 -9.94299e-05 5.28156e-21)
(-6.68295e-05 0.00017298 -5.42317e-21)
(9.48428e-05 0.00017778 -9.11512e-23)
(0.000130654 -1.64305e-05 -1.79437e-21)
(-0.000537846 -0.000131521 2.05311e-21)
(0.000239649 -3.38899e-06 0)
(1.11735e-05 6.32687e-06 0)
(7.91811e-05 3.43849e-05 -1.52687e-21)
(0.000101451 3.28269e-05 4.05507e-21)
(8.75374e-05 -3.42879e-05 -2.03067e-21)
(8.17963e-05 0.000166171 0)
(1.68425e-05 2.71097e-06 -3.42936e-21)
(7.9355e-06 2.27657e-05 -3.59209e-21)
(2.95478e-06 7.28254e-07 -8.45742e-23)
(-0.000369521 0.000292634 0)
(5.99612e-06 1.85276e-05 2.80124e-21)
(1.62409e-05 2.09208e-05 3.73658e-21)
(8.00276e-06 6.59406e-07 0)
(7.19234e-06 2.30745e-05 4.46771e-22)
(8.58425e-05 0.00017506 3.27765e-21)
(8.5758e-06 7.17008e-05 2.61506e-21)
(8.88527e-05 -5.70724e-07 1.2704e-21)
(1.78443e-05 9.13081e-06 -7.10324e-21)
(9.57658e-05 3.23894e-05 -3.1194e-21)
(0.000109008 -0.000154845 -1.07851e-21)
(0.000211082 0.000467544 0)
(-0.000315336 1.7466e-05 -6.26182e-21)
(-3.30374e-05 -0.000223474 1.40962e-26)
(1.20234e-05 1.25507e-05 -2.52461e-21)
(9.09244e-07 2.15738e-05 -2.51742e-21)
(0.00021473 0.000603188 -5.98208e-21)
(-5.17018e-05 0.000248941 6.00336e-21)
(3.12606e-05 1.57518e-06 3.57603e-21)
(8.94025e-06 2.5249e-05 4.20936e-21)
(1.56395e-06 0.000119468 -1.53822e-21)
(0.000138159 3.14816e-05 8.50317e-21)
(1.56723e-05 3.93666e-08 -6.03481e-21)
(2.24536e-05 3.23606e-05 -5.02368e-21)
(0.000168036 -5.24058e-05 0)
(5.7028e-06 0.000104905 -2.42027e-23)
(1.13869e-05 2.65255e-06 0)
(0.00143926 0.00108616 -3.32517e-23)
(0.000238524 3.28366e-06 0)
(1.2509e-07 -1.186e-06 0)
(3.60998e-05 -4.55022e-06 -1.83735e-21)
(9.2883e-06 -9.74466e-05 4.37551e-21)
(0.000105117 0.000179857 0)
(2.09425e-05 -1.05839e-07 0)
(0.000158041 -7.71024e-06 0)
(-0.000512387 0.000117953 5.03492e-24)
(1.24418e-05 1.04656e-05 -1.79259e-21)
(0.000106237 0.000313058 0)
(2.48884e-05 8.9348e-05 4.80702e-21)
(1.04355e-05 2.0479e-05 -5.32411e-21)
(4.02607e-06 6.02767e-05 3.43071e-21)
(2.0372e-05 -2.37203e-05 3.869e-21)
(7.5543e-06 2.36069e-05 7.83513e-21)
(5.87704e-05 0.00023649 -3.73327e-21)
(0.00015876 1.447e-05 -2.99234e-21)
(-0.000311263 0.00027919 0)
(6.93243e-06 5.03147e-06 0)
(-0.000426734 8.44259e-05 2.52441e-21)
(8.23874e-06 2.52081e-05 1.10522e-21)
(0.00062692 0.000167908 -3.37834e-21)
(0.000304696 1.43874e-05 0)
(7.06428e-05 9.44723e-05 0)
(2.06224e-05 1.90152e-06 0)
(3.62341e-05 2.24375e-06 6.9593e-21)
(1.26214e-05 5.82736e-06 2.31495e-21)
(6.31378e-05 7.4125e-05 -2.52789e-21)
(0.000575506 5.69874e-05 4.25685e-21)
(1.36205e-05 1.70612e-05 -4.00895e-21)
(7.09087e-05 -2.74353e-05 -1.01223e-21)
(8.39576e-08 -6.16258e-07 0)
(2.06648e-05 2.92368e-06 0)
(2.99731e-06 2.79017e-06 0)
(5.9142e-05 7.37167e-05 -7.59696e-22)
(0.000149137 0.000316655 0)
(1.69847e-05 4.03901e-06 3.43729e-21)
(0.000108235 -0.000131481 6.58096e-21)
(0.000137907 2.40769e-05 -2.18274e-21)
(0.000137449 3.37171e-05 -4.04037e-21)
(1.70964e-05 4.02402e-07 0)
(0.00013346 1.9533e-05 0)
(0.000281373 9.86708e-06 -5.64283e-21)
(0.000149182 3.06652e-05 2.80427e-21)
(2.06162e-05 -3.94982e-07 2.09181e-21)
(-0.000543514 -5.21009e-05 -3.66732e-21)
(0.000134135 0.000313024 -3.03805e-21)
(0.000234934 -0.000146884 -2.01233e-21)
(-0.000445227 0.00117749 0)
(-0.000315057 0.000235415 0)
(1.02817e-05 2.06918e-05 4.51919e-21)
(1.2991e-05 9.15571e-06 0)
(2.71976e-05 0.000129088 -4.91844e-21)
(8.87791e-06 8.43345e-07 0)
(3.05524e-05 -1.08377e-05 -1.46444e-21)
(3.65936e-05 0.0001295 -3.42833e-21)
(1.01737e-06 3.23573e-05 3.76515e-21)
(6.46795e-06 3.72368e-05 -4.80739e-21)
(6.65019e-05 -0.000108651 -7.48918e-21)
(2.55294e-05 5.3169e-05 2.01278e-21)
(4.71878e-05 0.000109583 2.17479e-21)
(-0.000507411 0.0011316 -1.48244e-21)
(1.32626e-06 2.83536e-05 7.94149e-22)
(0.000134008 3.42303e-05 5.06849e-22)
(9.1915e-05 3.84417e-05 2.70466e-21)
(7.05801e-05 6.35861e-05 0)
(6.13145e-05 9.31413e-05 4.73289e-21)
(-0.00165 1.1031e-05 0)
(2.20923e-05 7.78111e-05 5.00798e-21)
(8.67007e-06 7.92466e-06 0)
(7.78277e-05 9.48566e-05 -2.70401e-21)
(-9.72497e-09 -2.23114e-06 -3.15201e-21)
(0.00116815 0.00107549 -2.82333e-21)
(0.00011084 9.33403e-05 -8.49734e-22)
(1.05814e-05 5.37051e-06 -3.8429e-21)
(0.000143644 -0.000125356 2.60645e-21)
(1.33598e-05 1.61338e-05 2.70515e-24)
(6.89625e-05 -2.05567e-05 0)
(6.94752e-05 3.72672e-05 1.27586e-21)
(2.02862e-05 -0.000158301 0)
(7.12748e-05 9.63674e-05 -1.01828e-21)
(0.000227285 -5.14321e-05 -5.37635e-21)
(1.22086e-05 0.000201355 3.1642e-21)
(9.2849e-06 6.70367e-06 -3.72426e-21)
(0.000232528 -1.51162e-05 0)
(5.55866e-05 5.60506e-05 3.30345e-21)
(1.05247e-05 4.61363e-06 0)
(3.23822e-08 -5.26481e-07 2.86738e-21)
(5.34848e-05 -9.67813e-05 5.05147e-21)
(2.24431e-05 -6.16058e-07 2.45896e-21)
(0.000222728 -4.46724e-05 4.27217e-21)
(0.000135701 2.44027e-05 1.99595e-21)
(0.000220648 -0.000145255 0)
(7.81075e-05 1.38041e-05 9.83414e-22)
(0.000234838 8.67856e-06 0)
(0.000104891 3.68362e-05 -4.56649e-21)
(0.00014597 1.97989e-05 2.64092e-21)
(0.000346043 -1.629e-05 5.85719e-21)
(-5.1308e-05 0.000114843 -4.75492e-21)
(0.000143847 5.42354e-05 -2.23692e-21)
(6.24138e-05 0.000230959 3.52152e-21)
(2.29132e-06 0.000101942 -4.33613e-21)
(-8.46145e-05 0.000184968 1.89184e-21)
(-1.42034e-05 -0.000200826 -3.12433e-21)
(0.000125611 0.000273651 -2.81112e-21)
(6.14072e-06 3.48316e-05 0)
(0.00023143 -9.42087e-06 -9.60984e-22)
(0.000129179 -9.49175e-06 7.79669e-21)
(0.000153629 0.000121468 0)
(0.000155254 4.9987e-05 3.04631e-21)
(-4.99998e-05 0.000139735 -1.27769e-21)
(-0.000664995 -5.48999e-05 3.95543e-21)
(5.09108e-05 4.38229e-05 3.10828e-21)
(6.49037e-07 2.13557e-05 0)
(-0.00106167 0.000211076 0)
(-7.17169e-05 0.000178453 7.67979e-22)
(-3.60855e-05 0.000115876 2.54454e-24)
(-0.000106056 -0.000256182 -3.54549e-21)
(1.87084e-06 0.000100605 6.19039e-21)
(-4.89933e-07 1.14374e-05 3.94736e-21)
(-1.68163e-07 -1.45858e-06 5.99299e-21)
(2.61085e-05 1.76697e-05 3.1292e-21)
(-0.000788022 0.000642616 -6.35897e-21)
(9.01621e-06 6.96759e-06 0)
(0.000315937 2.51443e-05 1.3446e-21)
(8.13045e-05 -4.52178e-05 4.21679e-21)
(6.04826e-05 8.19217e-05 0)
(6.05133e-05 9.46055e-05 -5.0473e-21)
(-4.71199e-05 0.000114589 1.3545e-21)
(0.000165225 0.000254958 -4.19576e-21)
(0.000206138 -0.000168818 0)
(1.92111e-05 8.21296e-06 2.95297e-21)
(0.000357733 -2.14232e-05 -8.4099e-21)
(0.000331489 5.15689e-06 1.50736e-21)
(7.56984e-05 3.86535e-05 -3.07297e-21)
(3.57623e-06 2.09885e-05 -3.97138e-21)
(-2.20583e-05 -0.000137954 -3.35532e-22)
(5.03116e-07 1.81661e-05 0)
(0.000192963 7.67767e-05 4.31992e-22)
(-0.000278001 1.98686e-05 0)
(6.94445e-05 -2.86455e-05 0)
(3.44489e-06 2.07287e-05 0)
(-0.000156452 0.000586529 -2.73076e-21)
(8.65859e-05 1.67336e-05 -6.55754e-21)
(3.98791e-05 -3.54925e-05 3.18505e-21)
(6.89735e-06 5.59341e-06 3.73398e-21)
(-0.000641384 2.08978e-05 -3.12586e-21)
(4.49586e-06 3.56971e-05 0)
(-9.50517e-06 1.10355e-05 1.61926e-21)
(1.75434e-06 9.05763e-06 0)
(-0.000226191 0.000314054 -7.57425e-22)
(-0.00214575 0.000429359 0)
(5.93461e-05 8.196e-05 0)
(7.58754e-05 9.5187e-05 7.11085e-21)
(9.60618e-05 0.000290675 0)
(-1.84769e-07 -1.55641e-07 2.7776e-21)
(0.000144934 1.34188e-05 0)
(-2.19585e-07 -7.31122e-07 -6.36036e-21)
(1.945e-05 1.05606e-05 -4.12294e-21)
(5.79399e-05 6.87351e-06 3.14176e-21)
(0.000189514 0.000225838 4.62573e-21)
(1.51659e-05 0.000114952 -5.05315e-21)
(0.00134748 0.0011634 -1.52063e-21)
(9.96341e-05 0.00015284 -2.35246e-21)
(1.05983e-05 1.93865e-05 -1.16203e-21)
(4.2836e-06 2.26426e-05 1.93064e-21)
(-4.50563e-05 0.000103384 0)
(0.000238882 -0.000254398 -3.91327e-21)
(1.69483e-05 2.59332e-06 -2.27844e-21)
(1.34639e-05 2.59332e-05 0)
(1.35681e-05 5.84407e-06 0)
(1.80706e-05 0.000217551 -3.86276e-21)
(0.000154909 0.000249139 0)
(3.60281e-05 -1.55839e-05 0)
(0.00027255 -8.43604e-05 -8.6694e-21)
(2.58617e-05 -4.14143e-06 3.26388e-21)
(-0.000665303 -3.77674e-05 4.29865e-21)
(9.23104e-06 7.5842e-06 3.29214e-21)
(0.000234562 7.54386e-05 -1.7683e-21)
(9.1114e-05 0.000284563 -4.0412e-21)
(-0.000486141 -9.90994e-05 9.84987e-22)
(9.09282e-05 -9.20853e-05 4.99917e-21)
(-0.0017007 3.52277e-05 0)
(5.7535e-05 9.73444e-05 -1.01805e-24)
(1.9559e-05 2.05567e-05 9.485e-22)
(0.000215948 0.000916838 -2.82263e-21)
(7.69317e-05 1.05688e-05 2.75465e-21)
(3.35113e-05 4.16418e-05 0)
(8.7194e-05 -3.48531e-05 -4.19067e-21)
(2.85356e-05 4.77537e-05 2.22665e-21)
(6.18278e-06 1.87018e-06 0)
(9.53394e-05 4.42787e-05 0)
(1.97735e-06 4.01107e-05 6.63904e-21)
(0.000218565 2.21524e-05 4.09272e-21)
(-1.65753e-05 -0.000262918 4.17944e-21)
(-0.000295546 3.94577e-05 0)
(0.000232862 -0.000247704 6.41803e-21)
(0.000188814 1.55957e-05 -1.45663e-21)
(-3.66452e-05 0.000103628 3.59699e-21)
(2.75746e-05 -1.44525e-05 0)
(0.000133744 3.0634e-05 1.76639e-21)
(4.37474e-05 0.000109853 4.31455e-21)
(0.000133818 5.41611e-05 0)
(3.68101e-06 2.15914e-05 -2.23328e-21)
(1.12091e-06 3.41913e-05 -3.22783e-21)
(2.66955e-05 -1.39715e-05 0)
(5.18319e-06 2.01768e-05 -2.18337e-21)
(2.0456e-05 -1.56805e-06 0)
(-0.000754207 -0.0010358 3.02334e-21)
(1.97437e-05 0.000216322 3.86181e-21)
(1.05558e-05 1.85084e-06 0)
(1.83185e-05 9.23988e-06 5.45729e-21)
(5.21142e-05 4.6779e-05 2.89662e-21)
(3.3505e-05 -1.569e-05 2.5745e-21)
(6.99111e-05 3.91923e-05 8.12561e-21)
(0.000133357 2.95584e-05 4.77182e-21)
(0.00031457 -9.14768e-05 0)
(-0.000151601 0.000184498 9.15517e-22)
(0.000216879 -2.5772e-05 4.5961e-22)
(1.44688e-05 1.06868e-05 3.97277e-21)
(9.60456e-06 2.25361e-05 0)
(-0.000273075 0.000616577 -4.72214e-21)
(0.000137226 0.000116119 2.50592e-21)
(3.96218e-05 6.72782e-05 3.80705e-21)
(1.66816e-05 2.12299e-05 0)
(0.000152034 5.44497e-05 4.15741e-21)
(5.83975e-06 2.03979e-06 0)
(2.52628e-06 -9.35478e-05 -5.90067e-21)
(9.21387e-06 3.49962e-07 -1.59315e-21)
(0.000107046 9.22733e-05 1.43258e-21)
(-0.00158853 0.00176207 2.45571e-21)
(0.000132626 2.18511e-05 -2.86403e-21)
(-0.000280097 7.98705e-05 4.99773e-21)
(0.000383046 -0.000154201 -5.09842e-21)
(-0.000654249 -0.00169087 -4.10594e-21)
(1.72693e-05 5.87588e-07 0)
(0.000343652 1.55981e-06 5.00837e-21)
(-7.10738e-05 0.000151147 -2.24067e-21)
(1.45207e-05 2.71965e-05 0)
(5.6185e-05 9.70444e-05 3.4208e-21)
(-1.83142e-05 -0.000129927 0)
(2.0177e-05 -1.77322e-06 -1.89952e-21)
(-3.69495e-05 0.000119487 1.23171e-24)
(0.000183782 1.14063e-05 -3.29156e-21)
(-2.11901e-07 -1.13335e-06 0)
(-5.4651e-05 0.000169248 0)
(6.48437e-05 -1.37079e-05 3.74408e-21)
(1.49225e-05 2.56614e-05 0)
(0.000138744 -0.000106551 -7.46742e-21)
(4.32196e-06 3.67177e-05 0)
(6.53747e-05 9.00437e-05 3.82991e-21)
(1.61694e-05 1.41713e-05 -4.32653e-21)
(-0.00189347 0.000507353 4.00688e-21)
(2.95654e-06 -8.62662e-05 0)
(0.000121829 0.000289721 5.86867e-21)
(6.88778e-05 -0.000116673 4.34237e-21)
(-7.28312e-05 0.000155248 0)
(8.97722e-05 1.99763e-05 1.81751e-21)
(-0.00217099 0.000512682 0)
(0.000165537 0.000463191 0)
(6.54761e-05 2.36212e-06 3.17162e-21)
(3.45151e-05 4.08278e-05 2.44684e-21)
(-0.00105165 0.00067155 -7.98469e-22)
(7.26277e-05 0.000233599 0)
(2.20044e-05 -1.06274e-06 -2.34927e-21)
(-0.000203294 0.000610411 0)
(3.72326e-05 0.000176843 9.75992e-21)
(4.31717e-06 6.54053e-05 0)
(8.92823e-05 -4.42729e-06 3.02939e-21)
(1.40154e-05 0.00010481 -1.4935e-21)
(-0.00109451 -1.71579e-06 -8.70477e-21)
(1.02944e-05 2.08351e-05 1.1411e-21)
(2.53165e-05 -4.61243e-06 -6.76887e-21)
(0.000189449 7.83573e-05 -1.38091e-21)
(3.03262e-05 -0.000107106 0)
(8.99161e-05 6.10966e-05 -5.68176e-21)
(1.03741e-05 1.83275e-06 2.38222e-22)
(-0.000228189 0.00033029 -2.79224e-21)
(1.52906e-05 1.1712e-05 2.23308e-21)
(1.44624e-05 5.87717e-06 2.99008e-21)
(-0.000574612 -9.76814e-05 0)
(-4.33776e-05 0.000279968 -1.14773e-21)
(5.25697e-06 2.05764e-05 -4.50402e-21)
(1.91e-05 1.26155e-05 2.23011e-21)
(0.000191878 0.000391336 -1.47628e-21)
(4.05321e-05 4.59338e-05 2.60583e-21)
(0.000149598 8.89401e-05 2.26564e-21)
(4.51286e-06 1.06501e-05 -4.94384e-21)
(7.71712e-05 0.000227934 -3.54464e-21)
(6.49847e-05 9.16233e-05 -4.36382e-21)
(-0.00069403 2.22555e-05 -2.32349e-21)
(-7.06615e-08 -1.07335e-06 -2.99928e-21)
(8.79034e-07 1.9368e-05 0)
(4.42336e-05 6.8884e-05 0)
(1.13608e-05 1.33847e-06 -3.47261e-21)
(5.64354e-05 -0.000105857 -4.31081e-21)
(-4.57437e-05 -0.000181749 -4.30788e-21)
(6.78373e-06 -1.23028e-05 2.07671e-21)
(-0.000568797 -0.000113981 -2.95723e-21)
(0.000270637 0.000298774 6.23437e-21)
(-8.87503e-05 -4.33043e-05 6.18079e-21)
(0.0001768 0.000115465 -9.23943e-21)
(0.000136445 0.000364746 0)
(4.03148e-06 1.05016e-05 -1.67008e-21)
(1.26627e-06 3.5919e-05 -2.46137e-21)
(-0.000712297 0.000241251 0)
(-3.79052e-05 7.11624e-05 -1.55483e-21)
(1.57602e-06 3.93097e-05 -6.58302e-21)
(0.000292445 1.95894e-05 5.80045e-21)
(1.21034e-05 1.36592e-05 0)
(-0.00015705 0.000258892 -1.74737e-21)
(1.80835e-05 -4.05581e-06 -8.05028e-21)
(1.43576e-05 5.86861e-06 -1.18584e-21)
(1.99389e-05 2.67606e-05 0)
(-2.30209e-05 6.55689e-05 7.92066e-21)
(0.000100938 0.000323857 0)
(1.38899e-07 4.30465e-05 7.92902e-21)
(1.05752e-05 1.01084e-05 -3.70943e-21)
(1.08413e-05 9.09216e-06 -5.73027e-22)
(-0.000330056 0.000277428 0)
(-2.57923e-05 8.62475e-06 3.0843e-21)
(0.00010887 2.82183e-05 2.26529e-21)
(0.000106636 8.15822e-05 -1.84335e-21)
(6.40207e-05 -3.36361e-05 0)
(-1.59969e-05 -0.000157535 0)
(1.90616e-05 -2.08654e-06 9.4238e-22)
(0.000183536 0.000112478 6.95893e-24)
(-4.34646e-05 5.48545e-05 0)
(0.00014368 2.32499e-05 -1.0907e-23)
(1.46166e-05 1.05768e-05 -4.31604e-21)
(1.68628e-05 3.32946e-06 -2.06351e-21)
(9.57072e-07 3.77447e-05 -3.7649e-21)
(0.000241111 3.51837e-06 2.53808e-21)
(-5.49627e-05 0.000168351 4.76101e-23)
(-9.28658e-05 -0.00187304 -9.59128e-22)
(-5.98333e-05 0.000132674 5.84513e-21)
(0.000155248 4.57754e-05 -6.10788e-21)
(-0.000252716 0.000666263 -2.95897e-21)
(3.23365e-05 -6.06081e-06 -4.18503e-22)
(1.54314e-05 -4.00396e-08 -3.00737e-21)
(0.000763761 0.000230763 4.24147e-21)
(1.7056e-05 4.43336e-06 0)
(-0.000813412 -0.000128826 0)
(-0.00105048 0.000242732 4.76741e-21)
(3.67299e-05 4.75251e-05 -7.09665e-22)
(0.000446476 0.000568493 -1.30373e-21)
(-0.000388131 0.000302209 2.00082e-21)
(2.06746e-05 -2.0185e-05 0)
(1.63018e-05 1.37238e-05 0)
(0.000118578 1.13442e-05 -2.60234e-21)
(3.39333e-05 0.000207331 0)
(-0.000505331 -3.76894e-07 8.12311e-22)
(1.16749e-05 1.39777e-05 0)
(0.000135844 3.33034e-05 -4.0261e-21)
(0.000114591 8.02827e-05 0)
(6.35415e-05 -1.54249e-05 0)
(-0.000350731 0.000299059 0)
(-0.00075304 -1.50774e-06 3.28514e-21)
(1.79872e-05 -3.88926e-06 1.28671e-23)
(9.11482e-06 3.12756e-07 -3.25708e-22)
(5.45485e-05 0.000125072 -3.41077e-21)
(5.54142e-07 2.67012e-05 -9.00567e-21)
(2.8981e-06 0.000105954 -4.01906e-21)
(-0.00228137 0.000605122 0)
(-0.00146336 0.000421678 -3.45115e-21)
(0.00014706 5.02551e-06 0)
(0.000207611 0.000135276 2.92784e-21)
(0.000206434 -3.56861e-05 1.81631e-21)
(0.000196413 0.000437064 2.80463e-21)
(-0.000431935 7.74115e-06 -1.60564e-21)
(3.08835e-05 5.33989e-06 -3.34626e-21)
(0.000411429 0.000433111 -2.60434e-21)
(9.37606e-06 2.28182e-05 0)
(8.91576e-05 2.07492e-05 0)
(-0.000234393 1.5065e-06 -4.7462e-21)
(1.69524e-05 3.34333e-06 -4.04278e-22)
(-0.000118846 0.00029135 1.89058e-24)
(4.13315e-05 4.56923e-05 3.41692e-21)
(0.000166813 -9.30209e-06 3.11267e-24)
(0.000231922 -0.000251917 0)
(0.000120616 0.00027953 -2.499e-21)
(8.12781e-05 -1.18104e-05 2.74582e-21)
(-2.37799e-07 -8.12012e-08 0)
(0.0001789 0.000145573 1.38072e-21)
(2.01592e-05 3.59937e-05 0)
(0.000217149 -9.76611e-05 -6.09968e-21)
(-0.00106276 0.000722701 0)
(6.71821e-05 -1.40816e-05 -6.6092e-21)
(0.000270738 0.000286952 -8.74878e-21)
(-0.000810502 -0.000117529 3.49443e-21)
(5.86922e-06 7.88084e-06 -3.32347e-21)
(5.00009e-05 0.000111666 -4.70697e-21)
(0.000150864 5.82728e-05 -4.1184e-21)
(1.09024e-05 5.12627e-06 4.19633e-21)
(7.38626e-06 1.98737e-05 3.46225e-21)
(4.83547e-05 3.14435e-05 1.64118e-21)
(0.000123272 1.68443e-05 5.02494e-21)
(6.88439e-05 0.000279056 -2.3259e-21)
(1.51533e-05 1.15666e-05 2.38658e-21)
(8.39579e-06 8.03921e-06 3.62644e-21)
(8.89487e-05 5.9573e-05 2.42737e-21)
(-0.000553196 -0.000116695 -3.00936e-21)
(1.789e-05 1.13603e-06 0)
(7.83483e-06 2.36557e-05 -1.08523e-21)
(-3.29788e-05 -1.2476e-05 0)
(1.88961e-05 1.06791e-05 -4.38835e-21)
(1.78248e-05 -3.58816e-06 0)
(-0.000213361 0.000339034 2.90281e-21)
(-0.000390848 2.22999e-05 1.41194e-21)
(-0.000143919 0.000288815 5.39686e-21)
(1.0283e-05 4.96253e-06 -3.90357e-21)
(1.92472e-05 -1.37665e-06 -8.93481e-22)
(0.00122577 0.00111784 1.81197e-21)
(3.94619e-06 6.25705e-05 8.94385e-25)
(8.6181e-07 1.21576e-05 0)
(-0.00014274 8.10463e-05 -2.55037e-21)
(0.000103094 0.000193992 0)
(-4.68912e-05 0.000194785 0)
(6.57728e-05 6.88177e-05 0)
(8.43892e-05 8.56144e-05 0)
(-3.45709e-08 4.11278e-05 -7.64534e-21)
(0.000108798 7.65993e-05 -1.53435e-21)
(3.89491e-05 7.30749e-06 4.57611e-21)
(0.000151165 4.32363e-05 2.93048e-21)
(9.50488e-05 0.000189266 -1.51036e-21)
(3.15179e-05 -6.67415e-06 3.52436e-21)
(8.12033e-05 1.29846e-05 1.4772e-21)
(0.000125702 2.87208e-05 -4.62152e-21)
(9.02365e-05 1.57691e-05 0)
(-0.00144208 -7.26513e-07 -3.14097e-21)
(-9.88308e-05 0.000456369 1.52309e-22)
(0.000125866 6.06955e-05 3.51938e-21)