/*--------------------------------*- C++ -*----------------------------------*\
| =========                 |                                                 |
| \\      /  F ield         | OpenFOAM: The Open Source CFD Toolbox           |
|  \\    /   O peration     | Version:  v2012                                 |
|   \\  /    A nd           | Website:  www.openfoam.com                      |
|    \\/     M anipulation  |                                                 |
\*---------------------------------------------------------------------------*/
FoamFile
{
    version     2.0;
    format      ascii;
    class       surfaceScalarField;
    location    "100";
    object      ddtCorrDdt0(phi);
}
// * * * * * * * * * * * * * * * * * * * * * * * * * * * * * * * * * * * * * //

dimensions      [0 3 -2 0 0 0 0];
oriented        oriented;


internalField   nonuniform List<scalar> 
27688
(
-1.02827e-05
1.45242e-05
-4.24235e-06
-8.20101e-08
2.86076e-09
7.83546e-08
-1.24422e-05
5.78736e-06
6.65452e-06
4.28701e-06
4.08468e-06
-8.37174e-06
1.57219e-05
-3.9327e-06
-1.17893e-05
-1.36638e-05
1.76373e-05
-3.9725e-06
-1.59301e-05
-6.36127e-06
2.22914e-05
3.77481e-06
-3.89295e-06
1.17692e-07
-4.99259e-06
-4.20045e-06
9.19231e-06
5.54883e-05
-2.01097e-05
-3.53789e-05
1.33002e-05
2.4213e-06
7.49583e-06
6.10873e-06
-1.36045e-05
-7.85884e-07
7.63195e-06
-6.84609e-06
1.63869e-05
-1.32798e-05
-3.10731e-06
1.01883e-05
-4.43531e-06
-5.75308e-06
-1.92936e-05
5.62806e-06
1.5952e-07
-8.43917e-06
8.27981e-06
-1.57191e-05
5.43616e-06
-2.71809e-07
-5.17672e-06
5.4485e-06
-5.31864e-06
8.58165e-06
-3.26327e-06
6.41114e-06
3.77691e-06
1.3473e-05
-3.82397e-07
-1.3091e-05
-7.65728e-06
9.90585e-07
6.66515e-06
-6.89303e-06
1.4389e-05
7.60629e-06
1.15678e-05
-1.91745e-05
1.03789e-06
-6.0309e-06
-1.39774e-05
1.36567e-05
3.20205e-07
-1.35234e-05
1.95526e-05
-6.02981e-06
1.71994e-05
-3.8944e-06
-1.33055e-05
-9.59466e-06
-2.84749e-06
-1.24085e-05
1.52255e-05
-2.81707e-06
-3.0983e-06
1.40341e-05
-1.0936e-05
6.48392e-05
1.26988e-05
-7.75374e-05
9.67604e-06
-1.11452e-06
-8.56103e-06
-4.64455e-06
-1.10042e-05
1.56487e-05
1.60693e-05
-4.70511e-06
-1.1365e-05
8.90118e-06
-1.11033e-06
-7.79092e-06
5.5968e-05
-2.77036e-05
-2.82661e-05
-5.7684e-07
4.35133e-06
-5.61751e-06
-2.04016e-06
5.54762e-06
-6.18481e-06
6.36694e-07
8.4274e-06
-2.92843e-07
-8.13518e-06
-4.15809e-06
-7.49843e-06
1.16555e-05
-7.3829e-05
-4.26573e-06
7.80932e-05
5.21492e-06
1.26498e-05
-1.78652e-05
2.02483e-05
-1.79315e-05
-2.31664e-06
1.47753e-06
-1.92142e-06
4.43422e-07
1.51161e-05
-1.43194e-05
-7.96496e-07
-1.0512e-05
8.88935e-06
1.62207e-06
-2.00983e-06
-1.16721e-05
1.36814e-05
-1.4606e-05
6.28392e-07
2.44995e-06
-1.25365e-05
1.00863e-05
-5.3309e-06
-1.07025e-05
1.60329e-05
-1.93653e-05
7.30569e-06
1.20593e-05
-2.56708e-06
5.49765e-06
-2.93085e-06
2.39091e-05
3.20582e-05
8.70776e-06
8.54019e-06
-1.72488e-05
-9.2965e-08
3.31995e-05
-3.31073e-05
4.3094e-06
1.23809e-06
6.95077e-05
-3.36373e-05
-3.58712e-05
5.61807e-06
-5.77889e-06
1.60583e-07
7.8326e-06
9.05214e-06
-1.68854e-05
-8.12592e-06
-2.38654e-06
4.4783e-06
-4.76347e-06
2.84999e-07
-2.00399e-05
1.15582e-05
8.48093e-06
-3.53964e-06
9.03758e-06
-5.49813e-06
2.76065e-05
4.19007e-05
6.70097e-06
-2.05933e-05
1.38917e-05
-5.98573e-06
5.19979e-06
7.2461e-06
-2.93697e-06
-3.0019e-06
-1.20534e-05
1.50547e-05
4.18988e-06
-4.46181e-06
7.34514e-06
-4.44472e-07
-6.9008e-06
4.26699e-06
1.94934e-06
-6.21706e-06
-2.50558e-06
2.50522e-06
1.25544e-05
3.51387e-06
6.56751e-07
1.07905e-05
-1.14474e-05
1.17683e-05
-2.10702e-06
-9.66112e-06
-4.50107e-06
-2.88246e-06
7.38362e-06
5.13036e-06
-8.67021e-06
1.65092e-05
4.4994e-06
-2.10086e-05
1.34459e-06
8.33134e-06
-4.46134e-06
-3.08495e-06
7.546e-06
-1.1748e-05
-3.24528e-06
1.49934e-05
9.20646e-06
4.2663e-06
2.9864e-06
-1.1249e-05
8.26244e-06
-1.11049e-05
-7.548e-07
1.18592e-05
-3.87935e-06
-2.30577e-06
-8.36697e-06
1.61988e-05
-3.76233e-05
5.665e-05
-1.9027e-05
5.82536e-06
-1.09608e-05
5.13567e-06
3.79558e-07
5.23834e-06
2.2885e-05
-1.15128e-05
-1.13731e-05
-4.10966e-06
7.09867e-06
-2.98874e-06
3.12948e-07
5.1614e-06
-5.4747e-06
-1.80584e-05
1.84271e-05
-3.69568e-07
-9.59384e-07
1.67713e-05
-1.58116e-05
-1.24245e-05
-3.50513e-06
1.59292e-05
-3.58397e-07
4.89544e-06
-4.53727e-06
-2.1705e-06
1.93793e-07
1.9761e-06
-1.81115e-05
1.61014e-05
-5.22492e-05
-2.43877e-05
7.66372e-05
-1.35306e-05
1.04317e-05
9.70033e-06
1.31839e-05
1.67966e-05
4.02553e-07
1.21164e-06
-5.74944e-06
4.53773e-06
2.43876e-05
-1.67816e-05
4.77429e-06
-7.56548e-06
2.79115e-06
-2.01788e-05
2.11999e-06
-2.2627e-05
2.44753e-06
-2.46171e-06
2.01109e-06
4.49635e-07
-4.23635e-05
-1.10764e-06
4.34715e-05
2.55714e-06
-1.08008e-06
-7.38291e-05
-3.44655e-06
6.91226e-06
-3.4655e-06
6.83e-06
-5.12506e-06
-1.70494e-06
7.03654e-06
-2.29666e-05
-3.87323e-06
8.16022e-06
1.13364e-05
-1.66675e-05
1.0014e-07
-1.00542e-07
2.10237e-05
-6.42808e-06
-1.45948e-05
-1.1407e-05
-4.93996e-06
1.63469e-05
-1.15597e-05
2.16584e-05
-1.00989e-05
-1.15284e-05
1.6093e-05
-4.56359e-06
1.02065e-05
-3.15084e-06
-7.05644e-06
5.04961e-06
-3.56438e-06
-1.48649e-06
-7.40339e-06
1.69079e-05
-9.50479e-06
-8.67279e-06
-1.13677e-05
-9.14817e-06
-1.06207e-05
1.97683e-05
4.20975e-05
-4.12805e-05
-8.17777e-07
1.75565e-05
4.44534e-06
-2.2003e-05
2.19783e-05
-3.40837e-05
1.21058e-05
1.34931e-06
-6.66787e-06
-9.48523e-06
1.8193e-05
1.94645e-06
7.98255e-06
-9.92877e-06
-2.45581e-05
2.55951e-05
-1.03782e-06
-4.79582e-06
9.92149e-07
3.80379e-06
-5.65823e-07
-1.89625e-06
-2.14721e-05
2.60034e-05
-4.5312e-06
-4.87333e-06
1.30558e-05
-8.18214e-06
5.60169e-06
-6.09106e-06
4.8895e-07
-2.14292e-05
-1.19821e-06
3.2002e-06
-7.70126e-06
-4.57592e-06
-4.17655e-07
4.99363e-06
-4.24102e-05
4.68838e-08
-5.94643e-06
2.49985e-06
-5.87782e-06
7.25005e-06
-1.37252e-06
4.33375e-06
-8.79517e-06
3.29956e-06
-3.65811e-06
2.13429e-05
-1.474e-05
-6.60245e-06
3.09288e-06
-6.05619e-07
-2.48774e-06
1.62599e-05
-1.20631e-05
-4.19705e-06
1.76634e-05
-8.9435e-05
7.17715e-05
9.26498e-06
1.16588e-05
-2.0924e-05
-2.66239e-05
1.50641e-05
5.58566e-06
1.57513e-08
8.72026e-06
-4.42431e-06
-4.29623e-06
1.49852e-05
-1.17368e-05
-3.24858e-06
1.13255e-05
-1.49234e-05
3.59768e-06
1.46865e-05
5.64646e-06
4.55965e-06
-1.40555e-05
1.55115e-05
-1.45619e-06
5.96282e-05
-9.45881e-05
3.49591e-05
1.25892e-06
-2.3448e-06
1.08544e-06
2.12641e-06
-5.14223e-06
3.0161e-06
-1.21899e-05
1.62213e-05
-4.03129e-06
3.6648e-06
-1.54126e-05
2.12729e-06
-7.34358e-06
5.2156e-06
6.47384e-06
-1.24537e-05
5.97925e-06
-8.30518e-07
-1.15943e-05
-6.82262e-08
-4.63764e-07
5.31894e-07
-1.94492e-05
8.4289e-05
-4.22717e-06
8.76884e-06
-4.54193e-06
-2.12799e-05
2.44995e-05
-3.21978e-06
-1.15028e-05
7.34422e-06
1.082e-06
-6.72061e-06
5.6385e-06
-2.05277e-05
2.26926e-05
-2.16526e-06
-8.67862e-06
1.79433e-05
2.71156e-06
-4.70853e-06
1.997e-06
-1.96435e-05
7.94138e-06
1.17019e-05
4.71815e-06
-1.62548e-06
1.34899e-05
-1.81342e-05
1.9519e-06
-1.54755e-05
-8.37756e-06
1.96042e-06
6.41717e-06
2.79256e-06
-3.81565e-06
1.02319e-06
1.84198e-05
-8.93856e-06
-9.48115e-06
4.26258e-07
8.32306e-07
-6.08164e-06
1.86148e-05
-1.25327e-05
1.83064e-06
-1.29357e-05
4.63011e-06
1.17565e-05
5.36813e-06
-4.82808e-06
-5.39869e-07
1.32858e-05
-1.99586e-05
6.6732e-06
-1.51146e-05
2.92443e-06
9.27352e-06
-9.11421e-06
-4.36353e-06
7.5638e-06
-2.76486e-06
-2.48652e-05
2.76296e-05
-1.27167e-05
7.84348e-06
-1.33679e-05
5.57876e-07
1.53096e-06
-2.08926e-06
2.18767e-05
-1.66622e-05
3.98143e-06
1.06731e-06
-9.99412e-06
1.07313e-05
-7.37427e-07
-5.48406e-06
-3.10449e-06
8.58782e-06
-1.49111e-06
2.04875e-06
1.52024e-06
-2.2048e-05
-1.06854e-05
1.49664e-05
-4.28134e-06
-5.77109e-06
5.36479e-06
4.0581e-07
7.04952e-05
-0.000122744
1.6242e-06
-1.63839e-06
1.42647e-08
-3.88442e-06
-2.70097e-06
6.58589e-06
-8.68068e-06
1.72455e-05
-8.56498e-06
-1.68466e-05
8.16549e-06
-1.49244e-05
6.69794e-06
8.22621e-06
8.28022e-07
-6.70591e-06
1.5392e-05
-4.05624e-06
-1.13357e-05
-8.59645e-07
7.64732e-08
7.8356e-07
1.73248e-05
-9.34667e-06
-7.97876e-06
-2.83732e-05
1.28638e-05
1.55089e-05
1.9146e-05
-1.7488e-05
-1.65689e-06
5.48326e-07
-1.4371e-05
1.3821e-05
1.34417e-05
7.90112e-06
-1.01148e-05
6.32739e-06
-2.80121e-06
-3.52667e-06
1.35571e-07
8.70018e-07
-1.00529e-06
4.70841e-06
-2.55707e-06
-2.15198e-06
5.33403e-06
-3.20748e-06
-1.5036e-05
3.6289e-06
-1.48867e-05
6.18308e-06
8.70274e-06
1.13311e-05
-2.04798e-05
-1.34642e-05
2.01648e-05
2.47052e-06
-1.57874e-05
1.33168e-05
1.22692e-05
-1.84377e-05
6.16768e-06
-1.8394e-06
6.61364e-06
-1.85569e-07
-1.2788e-05
-6.85572e-06
4.44448e-06
-7.84316e-07
-3.66028e-06
1.04288e-05
-8.43264e-07
-9.58571e-06
-1.37357e-05
-5.238e-06
1.89734e-05
3.09744e-06
-2.86202e-05
1.14004e-05
1.72196e-05
-5.19482e-07
4.37094e-07
-1.22e-05
1.46499e-05
-6.10473e-06
5.52696e-06
5.77833e-07
-1.07541e-07
-2.06319e-06
3.61428e-05
-3.62367e-05
-6.67311e-05
0.000121193
-5.44615e-05
3.09032e-05
-3.36682e-05
3.48634e-06
9.58053e-07
1.30054e-06
4.63446e-07
-1.76443e-06
-1.02126e-05
8.67447e-06
1.53811e-06
-7.10874e-06
2.99917e-06
3.80381e-06
6.76103e-06
-1.05654e-05
1.06059e-06
-1.19694e-05
3.39479e-05
1.11979e-05
9.87561e-06
-2.10739e-05
-1.53773e-05
7.97375e-06
-8.41466e-06
-4.72567e-06
1.31399e-05
2.74551e-07
4.98999e-06
-5.26466e-06
-5.91587e-07
-6.2903e-06
6.88144e-06
1.35308e-05
-1.29827e-05
8.84198e-06
-1.92956e-06
4.65643e-06
1.26679e-05
-1.68055e-05
-1.27753e-05
1.88213e-05
-6.04588e-06
8.1103e-06
3.46328e-06
-1.1574e-05
8.62852e-06
3.28164e-05
-4.14454e-05
-4.67784e-06
-6.21413e-06
1.08916e-05
-1.35401e-05
-7.79225e-07
-3.4397e-06
6.70795e-06
-3.26867e-06
9.5864e-06
8.99943e-06
-1.85857e-05
-9.31048e-06
-5.57666e-06
-8.50209e-07
-3.94557e-06
5.65517e-06
8.47154e-06
-1.41268e-05
6.35047e-06
2.49155e-06
9.27601e-07
-9.9582e-07
1.19743e-05
5.41049e-06
-1.73842e-05
-1.33582e-05
1.67651e-05
-3.40733e-06
-1.44397e-05
-1.16376e-06
1.56028e-05
-1.07455e-05
-4.28964e-06
1.50349e-05
8.46397e-07
5.48062e-06
-1.50249e-06
-3.08513e-06
4.58782e-06
-2.78574e-05
2.57431e-05
2.11385e-06
-6.57941e-06
8.74705e-06
-2.16754e-06
1.34553e-05
1.57203e-06
-1.5025e-05
-4.51167e-06
3.7537e-06
7.57379e-07
-8.31948e-06
-1.89326e-06
-1.25417e-05
7.78759e-06
4.75393e-06
1.46259e-05
-3.30409e-07
-1.42952e-05
-8.90231e-06
4.62852e-06
4.27321e-06
2.85775e-07
1.26938e-05
-1.29802e-05
-3.45208e-06
3.39708e-06
5.47586e-08
-2.15099e-06
1.47464e-05
-1.25955e-05
-4.30609e-06
-3.34512e-06
7.6513e-06
8.92482e-05
-7.15854e-05
2.26681e-05
-2.90966e-05
6.42821e-06
-2.45901e-05
3.31032e-06
-5.94543e-06
6.25817e-06
5.65157e-06
1.50006e-05
-2.06523e-05
6.70812e-05
-7.45342e-06
-7.90947e-06
-5.2002e-06
1.31091e-05
1.22562e-05
6.16355e-06
-1.84803e-07
4.66291e-06
-1.45937e-05
6.2533e-06
8.33998e-06
-1.57068e-05
5.02152e-06
-4.68225e-06
7.3656e-07
3.94571e-06
1.73258e-06
-1.0831e-07
1.04963e-05
2.26418e-07
-1.07228e-05
5.6807e-06
-1.93027e-05
1.36212e-05
4.81048e-06
4.1495e-06
4.57051e-06
-3.02649e-06
-5.41793e-06
8.44366e-06
5.29237e-06
-5.88469e-06
1.12581e-05
-1.73394e-05
5.94968e-08
7.63672e-08
2.50593e-07
-7.28423e-06
7.03354e-06
-1.55244e-05
2.80782e-06
1.50472e-05
-1.59082e-06
-7.28381e-05
2.98978e-05
4.29405e-05
-3.28777e-05
-6.48697e-06
3.93626e-05
1.68804e-05
-8.26915e-07
-1.60536e-05
-5.29815e-06
6.12605e-06
1.36742e-06
3.35026e-06
6.24103e-06
-1.00083e-05
3.76732e-06
8.40171e-07
-1.08344e-05
-4.11465e-06
4.21158e-07
3.69349e-06
-3.95317e-05
4.85847e-05
-9.05361e-06
-6.66292e-07
1.09213e-06
-1.2554e-05
-2.97024e-06
-1.93448e-05
1.69904e-05
2.35427e-06
-1.22851e-05
7.82306e-06
4.46178e-06
-5.27523e-06
-1.02484e-05
1.55239e-05
3.37034e-05
-1.10353e-05
1.49153e-05
-4.41907e-06
8.72019e-06
-8.46966e-06
-2.15305e-05
-3.02791e-06
4.40724e-06
-3.41503e-06
7.26067e-05
-3.06808e-05
-4.19263e-05
-6.36202e-06
-8.56252e-06
-1.81533e-05
-1.0467e-05
3.77633e-06
6.00557e-06
-9.78246e-06
-2.039e-05
7.77904e-06
1.26106e-05
1.0773e-05
-2.80164e-06
-7.97173e-06
-2.62183e-05
4.74601e-06
-1.83414e-05
1.53636e-05
2.97766e-06
-4.68063e-06
-1.56165e-09
5.1669e-06
-6.86299e-06
1.69535e-06
-1.15456e-05
1.62852e-05
-4.73958e-06
-3.57573e-06
7.42635e-06
-3.85098e-06
9.75989e-06
-1.19109e-05
1.21259e-06
-7.85141e-06
5.57664e-06
2.27513e-06
8.41364e-07
8.43855e-08
-9.25828e-07
-1.81258e-05
2.62462e-05
-8.12045e-06
5.01022e-06
-8.53443e-06
3.52445e-06
-9.2021e-06
6.1956e-06
3.00655e-06
3.53264e-06
-7.39966e-07
-3.61828e-06
9.85937e-06
-1.06302e-05
-1.75874e-05
6.05986e-06
1.47111e-05
-9.0563e-06
-1.56995e-08
-6.34051e-06
6.35618e-06
-1.84008e-06
-2.67191e-06
1.23855e-06
7.18838e-06
1.71399e-06
-4.08829e-05
3.9167e-05
2.42216e-06
1.05714e-05
-1.29943e-05
7.72785e-06
-5.09478e-06
-1.00993e-06
7.70664e-06
-3.61592e-07
5.05141e-05
4.97346e-06
2.62926e-07
-1.39988e-05
1.03191e-05
-4.49364e-06
-7.45094e-06
3.14486e-06
1.78705e-05
2.53554e-06
1.32951e-05
-1.5831e-05
-7.3044e-06
2.0063e-06
2.54199e-06
9.22633e-06
1.53419e-05
-6.43016e-06
-8.91244e-06
1.8288e-05
8.58911e-07
2.98762e-06
-4.49012e-06
-0.000199214
3.67894e-05
-1.4743e-05
-3.59837e-06
-4.85692e-07
5.789e-07
-9.32704e-08
-7.04462e-06
-5.49716e-06
-1.51211e-05
-4.22372e-06
-7.29794e-06
-1.20676e-05
3.67143e-06
-7.97032e-06
4.29918e-06
-9.97572e-06
-2.84759e-06
1.28237e-05
1.48939e-05
-2.71791e-05
5.80146e-06
-3.7353e-07
-2.74844e-05
-1.68434e-05
8.16468e-06
7.10844e-06
-7.74124e-06
6.32966e-07
2.41021e-06
-3.01626e-06
7.34569e-07
-3.14477e-06
-4.70663e-06
1.88216e-05
-1.39688e-06
-1.74246e-05
-4.51881e-06
-1.26028e-06
-2.1825e-05
1.80601e-05
3.76451e-06
-3.9139e-06
5.16501e-07
3.3973e-06
-1.29868e-05
1.86666e-05
-3.68551e-06
-3.76536e-06
-2.73359e-05
8.23253e-05
-5.4989e-05
2.13028e-05
-4.09363e-05
1.96333e-05
1.53867e-06
3.01002e-06
-4.54911e-06
-8.44604e-06
4.90227e-06
3.54401e-06
-1.39176e-06
-9.53302e-07
-4.76746e-06
3.91726e-06
-1.43965e-05
1.11512e-05
-5.06114e-05
-2.2227e-05
-3.65472e-06
-2.29173e-06
4.49222e-06
1.02815e-05
-1.47738e-05
-4.85724e-07
-5.77617e-06
-2.6697e-06
2.2613e-07
6.15284e-07
-1.14273e-05
1.5092e-05
-2.91558e-05
4.39232e-06
2.47636e-05
1.23876e-06
-6.54637e-06
5.3073e-06
-1.04276e-05
2.9561e-05
-1.91339e-05
7.47953e-06
7.50548e-06
-1.02525e-05
1.33171e-06
-5.21567e-06
-5.36313e-06
-7.28186e-07
1.88675e-05
-3.8434e-05
1.95663e-05
-6.78105e-06
1.94305e-05
7.36415e-06
-3.69261e-06
2.71221e-05
-2.83148e-05
1.19256e-06
-3.41304e-06
-4.06764e-05
-1.73397e-06
-4.4291e-05
-4.40369e-05
8.83284e-05
-1.246e-05
-2.61562e-06
9.72415e-06
4.52319e-06
4.66666e-07
6.53963e-06
1.37086e-05
-3.56166e-06
-1.29991e-07
3.69157e-06
1.15717e-05
-8.44907e-06
-3.12298e-06
1.40948e-05
-4.50811e-06
1.12127e-05
-1.05561e-05
3.2771e-06
-7.93419e-06
4.65692e-06
5.0393e-06
3.7242e-06
-8.76397e-06
-1.79301e-06
5.20079e-06
-3.40746e-06
-9.24333e-06
-7.19811e-06
1.64419e-05
-7.39131e-05
2.96224e-05
-4.59596e-06
5.67788e-06
6.34946e-06
-1.51485e-05
8.7987e-06
5.53371e-07
3.19995e-06
-3.256e-06
-1.87488e-05
1.44814e-05
4.26748e-06
-7.40415e-05
6.5368e-05
8.67088e-06
8.51216e-07
4.22814e-06
-5.08025e-06
3.68872e-06
1.04136e-06
-4.73042e-06
-1.29049e-05
-2.20986e-06
-6.49818e-08
-7.94367e-07
3.46861e-05
9.63423e-05
-0.00013103
-1.33755e-06
-1.29124e-05
1.42497e-05
4.53617e-06
-2.28617e-07
-4.3075e-06
-9.64927e-06
1.14797e-05
-5.82359e-06
2.16884e-06
-3.64745e-06
1.49727e-05
-1.20872e-05
1.45178e-05
-2.4293e-06
-4.18421e-06
-2.45837e-06
6.64205e-06
-3.84911e-06
5.38752e-06
-2.56686e-05
-1.72499e-06
2.73933e-05
-1.76514e-05
1.41688e-05
3.48233e-06
5.20695e-07
-4.42295e-06
3.90193e-06
-1.77687e-05
1.67226e-05
1.04565e-06
5.90537e-07
1.61799e-05
-4.63931e-07
4.99998e-06
3.7764e-07
-3.77712e-07
3.03314e-06
-7.50211e-06
4.4684e-06
3.61172e-06
-8.52791e-06
4.91664e-06
-1.09894e-06
-2.45694e-05
2.82371e-06
-1.45604e-05
-3.70497e-05
-3.627e-06
-4.57571e-06
2.16242e-06
2.41295e-06
3.50109e-05
-2.56015e-05
-9.40993e-06
-1.67146e-05
1.14779e-05
5.23698e-06
-5.45142e-06
8.80805e-08
5.0018e-05
-3.08491e-05
-1.91692e-05
-8.24421e-06
5.21727e-06
1.00876e-05
-1.53627e-05
1.73286e-05
1.49327e-06
-7.88248e-06
-1.07177e-05
1.85999e-05
1.12148e-05
-7.43893e-06
2.9914e-05
-2.31088e-05
-1.89438e-05
1.85314e-05
4.12883e-07
-5.04244e-06
-2.4051e-06
1.35036e-05
4.5637e-06
-1.80673e-05
-6.42716e-06
1.4967e-05
-6.3131e-06
2.02051e-05
-1.38927e-05
5.75121e-06
3.46582e-06
-9.21752e-06
-1.97447e-06
1.86332e-06
1.35286e-05
2.31856e-07
-7.51613e-06
2.13274e-05
2.02576e-05
-4.15854e-05
-3.4748e-06
-7.07296e-06
1.05471e-05
5.05734e-06
-4.01963e-06
-1.4259e-05
6.3034e-06
7.95505e-06
1.06219e-05
-1.85035e-05
9.79525e-08
-4.21254e-06
5.7151e-07
-7.18455e-07
1.46931e-07
9.83786e-06
-1.97715e-06
-7.86051e-06
3.89692e-05
4.20928e-06
4.8468e-05
-2.71652e-05
5.19317e-06
-9.18841e-06
1.55029e-05
-6.31504e-06
-1.6156e-05
-2.59288e-06
-3.9775e-06
-2.61893e-06
-1.65088e-05
1.91277e-05
-1.44559e-05
9.75045e-06
1.13001e-07
6.8327e-06
-6.94568e-06
3.85475e-05
1.14706e-05
4.97288e-05
-3.05761e-05
-1.9153e-05
-2.16314e-06
7.32965e-06
1.09386e-05
-5.3012e-06
-5.63736e-06
-1.72878e-05
2.34711e-05
-6.18348e-06
-5.96355e-06
6.19551e-06
-1.15033e-05
1.62718e-05
-4.76932e-06
8.72592e-06
2.50845e-06
-1.12352e-05
-1.31365e-05
1.76271e-05
6.04728e-06
4.89136e-06
2.09913e-05
-4.45553e-05
2.35633e-05
6.54493e-06
-6.50463e-06
-4.06903e-08
-7.94674e-07
-1.00023e-05
1.07967e-05
-4.27613e-07
-2.73625e-05
2.33474e-05
4.01402e-06
-5.96315e-06
1.07891e-05
-4.82616e-06
9.3982e-07
-8.4006e-07
3.24435e-06
5.2819e-07
-3.77243e-06
3.93501e-06
1.5361e-05
-1.92967e-05
-1.27647e-05
-7.49948e-05
8.77586e-05
5.77798e-06
-1.51828e-05
2.27774e-06
-1.04928e-05
2.42116e-05
-1.37197e-05
1.07287e-08
3.15811e-08
-4.23958e-08
-5.40519e-06
8.86399e-07
5.71534e-07
-1.59701e-07
-7.39021e-06
7.55001e-06
5.46296e-06
-1.33731e-05
-2.02305e-05
-7.08502e-06
2.73151e-05
5.64243e-06
-1.84174e-05
-0.000128599
-7.0615e-05
-3.36847e-06
1.79945e-05
-3.74186e-06
7.8228e-06
-4.08105e-06
8.29381e-07
-8.77546e-06
7.94619e-06
-6.77119e-06
1.83118e-06
4.93934e-06
-1.50504e-05
1.59042e-05
-8.54655e-07
-4.14247e-06
6.07258e-06
-1.92955e-06
-5.75496e-07
-6.00381e-06
5.55814e-06
-1.49317e-06
-4.06483e-06
3.61383e-06
1.19993e-05
-1.56133e-05
1.66951e-05
-1.93139e-05
-8.39645e-06
1.13829e-05
1.98625e-05
-8.53214e-06
2.39753e-06
5.13686e-06
-7.53443e-06
3.35752e-05
-3.35755e-05
-6.62625e-07
-3.76054e-06
-1.28242e-06
1.64449e-05
-1.51628e-05
-1.88871e-05
8.39375e-06
-2.4126e-05
2.51786e-05
-1.05254e-06
-2.63778e-05
8.22428e-06
-4.16865e-05
-3.23556e-05
-9.64433e-06
-6.51168e-06
-6.82931e-06
-9.78629e-07
7.80795e-06
-7.80698e-05
5.8536e-05
1.95321e-05
-3.49036e-06
-1.70444e-05
1.18897e-05
5.15471e-06
3.98668e-06
8.44429e-06
6.47105e-06
-3.256e-06
2.6898e-06
5.66253e-07
4.64865e-06
-4.09583e-06
8.57068e-06
-1.29673e-05
4.3966e-06
-9.16654e-06
9.80253e-06
-6.36331e-07
-1.0521e-06
-1.32072e-05
-9.08087e-06
1.50059e-05
1.87441e-06
1.64056e-05
-1.43888e-05
-2.01688e-06
5.3829e-06
-3.43381e-06
-5.12115e-07
-6.70629e-06
7.21934e-06
1.61643e-05
-8.37967e-06
-7.78512e-06
7.1098e-06
-1.6353e-05
1.03043e-07
-1.34615e-05
6.87662e-06
1.03367e-05
-1.02815e-05
-5.50865e-08
-7.39263e-06
6.88072e-06
-9.69667e-06
4.08413e-06
5.61281e-06
3.2495e-06
4.11474e-06
-4.85741e-05
1.09507e-05
1.67362e-05
-1.32138e-05
-3.52216e-06
-1.61519e-06
4.42959e-06
-2.81455e-06
6.27868e-06
-6.29437e-06
-1.34739e-05
9.41711e-06
9.68368e-06
-7.82682e-07
2.96041e-06
1.05413e-05
5.62268e-06
1.0118e-05
-2.07386e-05
-1.3535e-05
2.55244e-06
1.09819e-05
-9.64223e-06
1.58923e-05
-6.2507e-06
6.56636e-06
-6.95215e-07
-5.87153e-06
7.4321e-06
-1.00476e-05
-1.69734e-05
7.48763e-06
-1.74884e-05
1.20572e-05
5.43119e-06
-2.85154e-06
-1.66612e-05
6.41298e-06
-1.08584e-06
-2.17014e-06
-1.73502e-05
2.22881e-06
3.79284e-06
-1.08131e-06
-1.60989e-05
1.47613e-05
-9.28244e-05
-4.78533e-05
0.000140678
-5.03501e-06
5.12393e-06
-8.94173e-08
5.80643e-06
-1.33054e-05
-1.50904e-05
2.2127e-05
-1.13901e-06
-8.79029e-05
8.90424e-05
-9.10626e-06
6.05331e-06
3.05294e-06
1.88798e-05
8.28054e-06
-2.3243e-06
-5.95659e-06
3.0853e-06
5.6617e-06
-1.5994e-05
6.34958e-06
-2.22345e-05
4.94656e-06
7.21784e-06
-3.96827e-06
3.91453e-06
-7.01948e-06
1.79947e-06
5.02287e-07
-4.91578e-07
7.09362e-06
4.10509e-06
-1.11988e-05
5.1966e-06
8.97022e-06
-1.41671e-05
-8.14802e-06
4.51628e-06
3.63172e-06
-1.1444e-05
1.79462e-06
6.5767e-06
-1.254e-05
-1.84516e-05
1.36348e-05
4.81692e-06
5.27994e-06
-5.64938e-06
3.69464e-07
6.9215e-05
3.53605e-05
-0.000104576
-1.39056e-05
-3.44484e-06
6.06332e-06
7.46042e-06
-1.35235e-05
-2.58449e-06
7.62366e-06
1.08198e-05
-3.44009e-06
-7.38008e-06
-1.5013e-05
1.37186e-05
1.29409e-06
-9.75761e-05
8.48111e-05
3.95415e-05
2.55494e-06
8.0239e-06
6.95026e-06
-1.49744e-05
-1.48763e-05
1.06656e-05
4.21063e-06
-2.21351e-05
-3.90908e-05
6.1226e-05
1.80049e-05
-6.76158e-07
8.47964e-06
-4.86773e-06
3.31174e-05
1.54669e-05
1.36806e-05
-1.54745e-05
1.79361e-06
-1.47954e-07
1.05222e-05
-1.03739e-05
-5.79949e-06
-9.13989e-06
1.49389e-05
-1.16315e-05
-6.76081e-06
1.83928e-05
4.51489e-05
-3.57106e-06
-4.15776e-05
-8.36113e-06
4.61923e-06
-4.74065e-06
7.13807e-06
-1.59987e-05
4.49523e-06
-1.54181e-05
-3.03175e-06
1.84499e-05
8.60097e-06
-1.26748e-05
4.0738e-06
2.6907e-06
-4.30588e-06
2.3742e-05
-1.98078e-05
6.15776e-06
-8.81063e-06
2.6525e-06
3.9318e-06
-4.90856e-06
9.76987e-07
-1.65888e-05
2.13144e-05
2.07951e-05
-1.29249e-05
-7.87058e-06
-6.72555e-06
-2.97097e-06
8.63899e-06
-8.63887e-06
7.01015e-11
3.62546e-05
-3.05661e-06
8.66966e-06
5.85408e-06
4.77384e-08
1.40026e-05
-1.40506e-05
-1.44362e-06
4.37729e-06
-2.93365e-06
1.78788e-05
1.26137e-07
-3.97004e-06
-3.02458e-05
2.57363e-05
4.50885e-06
-7.22804e-07
7.22798e-07
-6.70965e-07
4.18662e-06
-1.86265e-05
-5.31467e-06
7.38646e-07
6.75717e-06
-7.0634e-07
-6.60652e-06
7.31289e-06
9.32458e-07
3.85717e-07
-1.31919e-06
1.87739e-06
-5.50901e-06
-2.46873e-05
3.0195e-05
8.29095e-07
2.21626e-05
-1.94688e-05
-2.69451e-06
-2.28493e-06
3.05207e-05
-2.8236e-05
-4.21209e-06
2.76851e-06
1.3446e-05
-2.65551e-06
1.36935e-05
-3.58195e-05
2.21257e-05
4.80674e-06
-3.43935e-06
-3.21535e-06
1.1786e-05
-2.20688e-05
-7.05432e-07
-4.97898e-06
5.68422e-06
-1.55216e-06
-1.20392e-05
1.35905e-05
-4.61917e-06
7.37888e-06
-2.75947e-06
5.23932e-06
-1.30731e-06
4.77476e-06
4.86421e-06
-9.63896e-06
5.2758e-06
-3.33937e-06
-1.93635e-06
2.45496e-05
-8.58457e-06
-1.59647e-05
6.6941e-06
-1.02075e-05
3.51324e-06
4.58188e-06
-5.63073e-06
1.04893e-06
5.04151e-06
-4.59599e-07
-6.82448e-06
8.09177e-07
-1.4758e-06
-1.66645e-05
8.86627e-06
7.79768e-06
2.25948e-06
1.32519e-05
-5.90069e-06
2.60372e-06
3.2965e-06
-2.24591e-05
-5.00587e-06
2.74646e-05
-7.64671e-06
3.28309e-06
6.31896e-07
3.18116e-06
-2.98772e-06
7.08162e-06
1.11159e-05
-1.81984e-05
1.00273e-06
5.56336e-06
5.29539e-06
1.61327e-06
-6.90848e-06
4.25091e-06
-7.33596e-06
2.19238e-05
1.30866e-05
-9.94941e-06
6.47427e-06
7.42364e-05
7.17287e-06
-8.14088e-05
3.27e-06
5.31723e-06
-1.97775e-05
-1.42863e-05
4.71022e-05
3.67381e-06
-1.11652e-05
7.49119e-06
1.73932e-07
-4.80983e-06
4.63599e-06
-6.85553e-05
8.12547e-05
-5.05181e-06
-3.67449e-05
1.47329e-05
4.69717e-05
-2.56447e-05
2.3135e-06
2.43308e-07
-2.88944e-05
-3.87828e-05
6.76767e-05
-1.86004e-05
4.75005e-07
2.51555e-06
-6.81469e-06
4.29848e-06
6.01922e-06
-7.39191e-07
1.04379e-05
-1.17136e-05
1.27529e-06
-1.44798e-05
1.14778e-05
-1.31044e-06
1.8866e-05
1.62855e-06
-6.72321e-06
1.54056e-05
-9.0564e-06
-3.91028e-06
-3.48198e-06
7.39177e-06
-1.0051e-05
1.52476e-05
1.94216e-05
-2.7479e-05
-2.76711e-06
-7.15843e-06
2.53933e-06
4.88884e-06
-2.71134e-06
-2.17753e-06
7.66158e-07
1.25196e-05
-1.53193e-07
9.49525e-06
-9.34245e-06
3.53585e-06
3.61713e-05
-0.000133748
7.03015e-05
-2.5564e-05
-4.47384e-05
1.67013e-06
-5.94419e-06
4.27368e-06
9.26123e-06
8.61207e-06
-1.78739e-05
-1.09071e-05
1.55804e-05
-4.67384e-06
3.78561e-05
1.84845e-05
-1.27982e-06
-1.72059e-05
-1.10249e-05
5.7469e-06
5.27819e-06
2.10944e-05
3.2905e-05
-5.40008e-05
-2.08452e-06
9.5167e-06
-1.44575e-05
-5.55721e-07
-6.35537e-06
8.34383e-06
-1.98845e-06
7.20467e-06
-1.90931e-06
1.23393e-05
-1.45723e-05
2.23323e-06
1.25451e-05
-3.87593e-06
2.08722e-05
7.86048e-07
-4.44715e-08
-1.28803e-05
1.04426e-05
4.10851e-06
-1.45512e-05
-1.25713e-07
2.86118e-08
9.71037e-08
2.1323e-05
-1.01254e-05
1.11778e-05
-4.70409e-06
-8.2437e-06
-8.60325e-06
-6.50366e-05
4.29015e-05
1.64752e-05
-7.50513e-06
-2.81605e-05
2.26508e-05
-2.04455e-05
-3.06587e-06
4.74262e-06
-1.67678e-06
-1.79377e-05
8.23975e-06
9.69873e-06
-1.22971e-05
-4.36385e-06
-3.92549e-06
3.69694e-06
2.64035e-06
3.13947e-06
-5.7798e-06
-5.84491e-06
1.21096e-05
-6.26541e-06
3.29642e-07
2.0976e-06
1.65178e-05
5.46239e-06
4.55548e-06
-3.5143e-06
1.27395e-05
-4.13874e-06
-2.023e-05
3.64083e-06
8.58184e-06
-1.98354e-06
-6.59818e-06
-6.82143e-06
3.13592e-06
-1.43959e-06
1.43918e-06
7.03916e-06
-7.19885e-06
4.54024e-06
2.83879e-06
3.00145e-06
2.07401e-05
1.39125e-05
4.57152e-06
-1.18738e-05
1.52624e-05
-3.3894e-06
-4.20763e-06
3.74368e-06
-4.10147e-06
-3.54535e-06
-9.39137e-05
-1.0413e-05
1.02651e-05
4.78398e-06
-3.95616e-06
-8.27724e-07
-3.37337e-06
-4.02363e-06
7.39634e-06
-2.21026e-05
5.818e-06
1.6284e-05
-1.19198e-05
2.67943e-06
-5.24675e-06
-1.49762e-05
1.4557e-05
4.19593e-07
8.48613e-06
-1.7921e-06
1.58998e-05
-1.85745e-07
-1.57147e-05
3.59573e-06
-1.08598e-05
7.26419e-06
-7.50853e-06
-1.43237e-05
9.92388e-06
-6.25031e-06
5.68343e-08
-2.56275e-06
1.31736e-05
-4.76318e-06
-8.41091e-06
-6.73117e-06
-8.93749e-06
1.56684e-05
5.96846e-05
-5.62831e-05
-3.40346e-06
3.48079e-05
-2.62342e-05
-8.57437e-06
1.15358e-05
3.97985e-06
-1.55158e-05
-1.24637e-06
1.49267e-05
4.29002e-05
-7.17952e-05
-1.22539e-05
-4.20907e-07
4.59626e-07
-3.42857e-06
-7.77642e-06
1.12047e-05
-7.73841e-06
3.6369e-06
1.74194e-05
-5.76109e-06
1.01199e-06
-9.45085e-05
-5.4656e-05
-5.96324e-06
-4.97495e-06
6.19726e-06
-1.22353e-06
-6.75978e-06
2.84926e-06
-2.42754e-06
-1.38226e-05
1.62503e-05
-6.90541e-06
3.53174e-06
4.30894e-06
-1.93992e-05
1.45933e-05
-1.65172e-05
1.92365e-06
-3.95015e-06
2.06455e-05
1.02422e-05
1.86573e-07
-4.16788e-06
1.10201e-06
-5.49518e-07
7.44902e-06
-6.89863e-06
1.0409e-06
3.76545e-06
-8.87876e-06
1.28414e-06
-1.56568e-05
-1.62879e-05
1.1429e-05
4.85909e-06
-5.22483e-06
7.2174e-06
-1.99306e-06
-7.45558e-06
4.5026e-06
2.95299e-06
2.42379e-07
-8.5446e-06
8.30242e-06
-1.37127e-05
1.43021e-05
-1.15982e-06
1.96864e-06
1.37105e-05
-3.42851e-06
-2.13714e-05
5.11534e-06
1.62559e-05
2.17303e-06
9.78758e-06
-1.19591e-05
6.90792e-06
-1.58905e-05
8.98273e-06
-7.20211e-06
1.3008e-05
4.33544e-06
-3.0841e-06
-4.37148e-06
-6.19054e-06
2.0483e-06
-2.74919e-06
7.75935e-06
5.29942e-06
-6.01776e-05
5.48776e-05
5.42626e-07
4.95475e-06
5.49666e-06
1.21232e-06
-6.70918e-06
2.44501e-07
-5.38659e-06
3.00425e-06
-5.63576e-06
2.62977e-06
-7.44618e-07
-6.16105e-06
8.99197e-06
-5.18838e-06
-9.29206e-06
2.93643e-06
1.5437e-05
-3.90134e-06
-3.66671e-05
3.23135e-05
4.35335e-06
1.58177e-06
-5.74179e-06
4.16027e-06
-3.65706e-06
-1.42744e-05
8.04892e-06
9.35985e-06
-1.74087e-05
7.11809e-06
-6.28725e-06
-8.30813e-07
3.75079e-06
7.06858e-06
1.26954e-05
1.18211e-05
9.18204e-07
1.02876e-06
-1.3283e-05
5.9826e-06
1.08137e-05
3.40156e-06
2.67976e-06
-6.0816e-06
9.06502e-06
-1.30116e-05
3.9465e-06
-7.18609e-06
1.96096e-06
-5.2956e-06
6.29813e-06
6.3917e-06
-1.80518e-06
3.96753e-06
-1.51027e-05
9.08518e-06
6.01772e-06
2.52789e-07
1.31839e-05
-1.3437e-05
6.93563e-05
-6.0543e-06
-9.04812e-06
3.85984e-06
1.03271e-05
-1.41872e-05
1.26606e-05
-8.80079e-06
-6.71727e-06
-4.30754e-06
3.63605e-05
-0.000103091
-1.43416e-05
1.34405e-05
9.01689e-07
-8.45887e-07
1.24798e-06
-4.02114e-07
1.70596e-05
-4.1925e-05
-3.12584e-06
5.93358e-06
-2.80823e-06
-1.62946e-05
1.50121e-05
-5.67901e-06
-1.53986e-05
2.10773e-05
4.13513e-05
3.7976e-06
7.49558e-05
-5.74128e-06
3.84547e-05
-9.32797e-05
5.48269e-05
1.23274e-05
1.10722e-06
2.54282e-06
-3.64982e-06
-1.47661e-05
-5.79361e-06
2.05592e-05
3.13431e-06
2.41592e-06
-5.55025e-06
1.83569e-06
3.05307e-06
4.35219e-06
-1.25751e-05
8.22234e-06
1.41816e-06
-6.39364e-06
5.74576e-06
-4.16384e-06
-1.08108e-07
5.56907e-06
-6.01361e-06
-4.64603e-05
-9.10347e-05
0.000137494
-2.29951e-06
4.26016e-06
-1.96052e-06
5.99441e-06
-5.82043e-06
-9.77982e-06
5.10162e-06
-3.23196e-06
-5.49635e-06
7.4429e-06
1.67524e-06
2.70205e-06
-5.61522e-06
-1.23589e-06
-3.00187e-06
4.23752e-06
-1.20251e-05
1.62116e-05
-7.60742e-06
7.05827e-06
-1.14795e-05
7.20081e-06
4.27866e-06
3.34591e-06
-6.47205e-06
3.37619e-06
1.00676e-05
9.79441e-06
7.98845e-08
-6.04347e-06
2.06841e-06
-1.74866e-05
-1.94882e-05
-1.89461e-05
-1.88478e-05
-7.53019e-06
0.000100995
-6.25397e-05
1.54204e-05
-1.00096e-05
1.1046e-05
1.50758e-06
1.59183e-06
9.13175e-07
4.89598e-07
2.69119e-06
3.29951e-06
-9.1297e-06
5.83007e-06
-2.98652e-06
-1.72202e-07
1.10427e-06
7.6842e-06
-3.92464e-05
3.15613e-05
2.64692e-06
5.74581e-07
-5.87025e-06
3.33333e-06
-1.53964e-05
3.55652e-05
-3.45369e-05
-1.02874e-06
-3.16297e-06
-2.36499e-06
5.52805e-06
1.72006e-05
-1.78452e-05
6.45218e-07
3.53454e-07
-6.29917e-06
-8.84859e-06
5.61715e-06
3.23147e-06
-5.73058e-06
4.49448e-06
2.93936e-06
-6.26386e-07
4.75529e-06
-3.08534e-06
-9.21933e-06
1.23748e-05
-3.1552e-06
-5.41919e-06
6.63032e-06
-1.03176e-05
1.1509e-06
-0.000141053
9.11264e-05
4.99271e-05
1.21261e-05
-5.93155e-06
-6.19473e-06
-1.43682e-05
-6.22566e-06
-3.56008e-05
2.91126e-05
1.63227e-06
8.80513e-06
1.77954e-05
1.7012e-05
-1.53443e-05
2.20686e-06
7.72428e-06
6.01648e-06
-1.37408e-05
1.62479e-05
8.30187e-06
8.46184e-07
-1.31432e-05
-9.50686e-06
-1.00883e-05
-1.82792e-06
1.19163e-05
-1.27294e-05
-2.14141e-06
1.48706e-05
-2.7776e-06
4.45281e-06
2.15428e-05
-8.03964e-06
7.19431e-06
-7.48745e-06
4.61856e-06
-1.46786e-05
1.00597e-05
-8.63986e-06
7.22195e-06
1.41829e-06
-1.48449e-06
-1.47153e-06
7.04893e-06
-5.57758e-06
5.7747e-06
-1.07733e-05
7.34461e-06
6.27588e-05
7.54229e-06
-3.31786e-05
5.6992e-06
4.01162e-06
8.98566e-06
-1.29983e-05
2.3263e-05
-1.76599e-05
-5.60336e-06
1.29594e-05
-1.45119e-05
-1.1926e-05
-3.67054e-06
6.1859e-06
8.22503e-06
1.11212e-05
-7.52539e-06
-4.50409e-06
-2.86747e-05
-1.4699e-05
3.95321e-06
-1.19597e-05
-1.73326e-05
2.92924e-05
-7.10323e-06
-1.00107e-05
1.7113e-05
4.78377e-06
-2.36364e-05
1.88518e-05
-5.06268e-06
8.07903e-06
-1.40253e-05
5.94622e-06
8.85107e-06