/*--------------------------------*- C++ -*----------------------------------*\
| =========                 |                                                 |
| \\      /  F ield         | OpenFOAM: The Open Source CFD Toolbox           |
|  \\    /   O peration     | Version:  v2012                                 |
|   \\  /    A nd           | Website:  www.openfoam.com                      |
|    \\/     M anipulation  |                                                 |
\*---------------------------------------------------------------------------*/
FoamFile
{
    version     2.0;
    format      ascii;
    class       volScalarField;
    location    "100";
    object      k;
}
// * * * * * * * * * * * * * * * * * * * * * * * * * * * * * * * * * * * * * //

dimensions      [0 2 -2 0 0 0 0];


internalField   nonuniform List<scalar> 
18618
(
0.000106064
0.000508894
9.53558e-05
0.000114462
0.000105919
0.000109391
0.0185123
0.0194564
0.000313873
0.000148712
0.000105578
0.000107082
0.000100002
0.000106122
0.000108419
0.000109189
9.42522e-05
0.000106266
9.07217e-05
0.0127079
0.00010824
0.0699776
9.23706e-05
0.000107382
0.0183615
0.000333727
0.000144988
0.0607955
0.000185391
9.54609e-05
0.000103748
0.000100489
0.00010217
0.000106417
0.00010683
0.0448428
9.78855e-05
0.00139906
0.0221147
9.27146e-05
0.034772
0.061875
0.0231495
0.0102957
0.000100381
0.000108761
0.0235684
0.000107296
0.00014623
0.0270732
0.000143786
9.80583e-05
0.000135188
0.000155695
0.0179032
0.000820597
0.00013047
0.000129084
0.0371478
0.0176701
0.0241453
0.0283096
0.00014568
0.000111988
0.00104767
0.000204343
0.0165869
0.000100116
9.89178e-05
0.0409704
0.00015533
9.09156e-05
0.000136076
0.00645938
0.0121124
0.0467044
0.000132628
0.000111407
9.87053e-05
0.000209426
9.67812e-05
0.000106458
0.000113975
0.00010397
0.0716887
9.80431e-05
0.000850719
0.0398296
0.0272016
0.00726408
0.000100927
0.0265476
0.00125555
9.49392e-05
0.0250902
0.0285751
0.000104035
0.000277852
0.000109471
0.0248241
0.0262399
0.0136377
0.000100725
0.00071306
0.000185114
0.000173809
0.0140534
0.000105091
0.0285928
0.0207691
0.0327307
9.40855e-05
0.0259985
0.00953172
0.000115556
9.32349e-05
0.0148045
0.000114128
0.00014173
0.0119131
0.000107542
9.7804e-05
9.68038e-05
0.000110197
0.000135362
0.000190163
0.000100017
0.000883173
0.00106124
0.000140978
0.0166989
0.0141033
0.0138977
0.000126202
0.000104315
0.000103117
0.000117744
0.0376074
0.0869741
0.000108267
0.0214314
0.021086
9.91036e-05
0.000107828
9.40022e-05
0.000115678
9.34766e-05
0.00011433
0.000109066
0.00010687
0.00773458
0.000105845
0.000102273
0.000107884
9.67262e-05
0.0247651
0.0313503
0.000109828
9.78675e-05
0.0969022
0.000134527
0.000106875
0.0217632
0.00998404
0.000118495
0.000105394
0.000104122
0.060924
0.000111827
0.000292487
0.000148659
0.00010157
0.000202251
0.000731591
0.0211636
0.000115511
0.00281276
0.000107712
0.000118282
0.000101625
0.00622735
0.000106836
0.0688615
0.00013555
0.000122554
0.000111275
0.00797984
0.000726304
0.000589198
0.000106215
0.000116282
0.000109357
0.000105355
9.4388e-05
9.87494e-05
0.0039481
0.000108369
0.000103937
0.0186406
0.000100742
0.000191762
0.0465274
0.00785878
0.0167924
0.00285734
0.000104525
0.024157
0.0144273
0.000130038
9.34505e-05
0.00059386
0.000471272
0.000100609
9.37954e-05
0.000104097
0.000143908
0.0280447
0.0227763
0.000107611
9.60766e-05
0.000106951
9.68141e-05
0.0312517
0.000141823
0.0390108
0.000118153
9.79501e-05
0.000213043
0.000736225
0.000100375
0.000104045
0.000101376
0.000105077
0.0216678
0.000101798
0.000125513
0.00013386
0.000264819
0.00887175
9.32353e-05
0.000409459
9.80331e-05
0.000120907
0.0228397
0.000129378
0.000112112
0.00349249
0.000125818
0.0378748
0.000113793
9.51472e-05
0.0644963
0.000107251
0.0122946
0.000106166
0.000100184
0.000278516
0.000120004
9.14238e-05
9.61219e-05
0.000114918
0.0277313
0.0230422
0.000106835
0.0678259
0.00203848
0.000294345
0.000107737
0.000194527
0.000108842
0.000213404
0.00011843
9.90038e-05
0.000114914
0.000147735
0.000106614
0.000104984
0.000105492
9.47304e-05
0.0307121
0.00011504
0.000131913
0.000113984
0.000102351
0.0256916
0.000114026
9.95839e-05
0.000133496
0.000133018
0.000173595
9.22422e-05
0.000126264
0.000114886
0.000103294
0.0900974
0.000781002
0.0293416
0.025776
0.0216561
0.000100519
0.000110949
0.000111299
0.00011299
0.000104585
0.000119682
0.000129595
0.000109558
0.0204885
0.000206456
0.0299942
0.00255632
9.09669e-05
0.00101721
0.000142437
0.000135636
0.000108764
0.000102404
9.89657e-05
0.000119112
0.0118345
9.34212e-05
0.00401793
0.000126896
0.0474646
0.000138181
0.00141293
0.00545896
0.000108726
9.17345e-05
0.0699484
0.000113799
0.101424
0.000109294
0.000134971
0.00010367
0.000117487
0.0174238
0.00010082
9.32323e-05
0.0261085
0.000125343
0.000146064
0.0922551
0.000226369
0.000120223
0.000136566
0.000101341
0.000197883
0.000127506
9.28681e-05
0.000121693
9.11438e-05
0.0237824
0.000128503
0.000114253
0.000122369
0.000127573
0.00012711
0.000109964
9.89669e-05
0.000104638
0.0259411
0.0622861
0.000127925
0.0172462
0.0699032
0.000121284
0.000135556
0.000139553
0.0002762
0.000100818
0.000115201
0.000107448
0.000101388
9.37189e-05
0.000111283
0.000214177
0.000107443
0.000115445
0.00012576
0.000222053
0.00014869
9.98492e-05
9.17523e-05
0.000156484
0.000100072
0.000140613
0.0851954
0.000120434
0.000132893
0.00010752
0.000123096
0.00788973
0.0330219
0.000121831
0.000304664
0.0267305
0.0233488
0.00012459
0.0224284
0.000115383
0.000101425
9.72642e-05
0.0341052
0.000100704
0.0100642
0.000118687
0.000103938
9.91962e-05
0.000116121
9.68618e-05
0.00014925
0.000101241
9.09967e-05
0.000104159
0.000125328
9.19373e-05
9.30814e-05
0.000109902
0.000101589
9.37683e-05
0.0224233
9.70701e-05
9.99875e-05
0.000100083
0.0898045
0.000126499
9.41131e-05
0.00250566
0.0266673
0.000123922
0.000119519
0.000108563
0.000112699
9.81878e-05
0.000108896
0.000133183
0.000113738
0.000698376
0.000196509
0.000106061
0.00332311
0.000115225
0.000107005
0.0276857
0.000134664
0.000104952
0.0128056
0.000190393
0.000123188
0.000105608
0.000144575
0.000128568
0.000109637
0.000120322
0.00054835
0.000116366
9.77104e-05
0.000102108
0.0649633
0.0338252
9.55469e-05
0.000217266
0.000122113
0.000227652
0.000104072
0.000119972
0.000149412
0.000655895
0.000100217
9.5614e-05
0.000110534
9.40327e-05
0.0145229
9.70369e-05
0.000101821
0.0245732
9.67547e-05
0.00296725
0.000112472
0.000289144
0.000107812
0.0242592
9.11879e-05
0.000547696
0.000113946
0.000222044
9.73153e-05
0.000131803
0.000101228
0.000418674
0.0976142
0.000103978
0.000136133
0.0214166
0.020914
0.000346722
0.0707226
0.000107907
0.000138659
0.000148642
0.000104637
0.0164894
0.000122465
9.7538e-05
0.0002038
0.000104287
0.000105113
0.00517381
0.000507165
0.0493743
0.000103669
9.67078e-05
9.71305e-05
0.00013653
0.000131944
9.11306e-05
0.000136837
0.000144496
0.0175431
9.67337e-05
0.000131416
0.000497922
0.000138384
9.44218e-05
0.000124588
0.0163587
0.000126057
0.0113243
0.00013362
0.0086367
0.0183394
0.000104332
0.000105572
0.000134374
0.000142923
0.0228847
0.000149399
0.000104283
0.000100661
0.000111579
0.000106912
0.000129054
0.000130084
0.000122566
0.00013042
0.00321234
0.0208683
9.289e-05
0.000114416
0.000117442
0.000169002
0.000424579
9.78705e-05
0.000628155
9.94787e-05
0.00877886
0.000122487
0.00020264
0.000135008
0.087668
9.34546e-05
0.0136552
0.000105113
0.000112791
0.000168018
0.0144668
0.000107263
0.000199822
0.000109072
0.000125369
0.0303753
0.000130159
0.044423
0.0632339
0.0198556
0.0147472
0.00014391
0.00619878
9.66241e-05
0.000106894
0.000106058
0.000105037
0.000131466
0.000124899
9.66251e-05
0.000129344
9.94216e-05
0.00847458
0.000252655
0.000116928
0.000104441
0.000103829
9.76975e-05
0.000102151
0.00010684
0.00123983
0.0282697
0.000219234
0.000108493
0.000124724
0.0020496
0.000124215
0.000106595
0.000114291
0.000115001
0.000126011
9.16301e-05
0.000118511
0.000108741
0.012433
0.0246556
0.0239248
0.0125733
0.0157022
0.00010223
9.70991e-05
0.0298751
0.000114049
0.000105149
9.11868e-05
9.93705e-05
0.00974749
0.000144235
0.000143601
0.000387848
9.84835e-05
0.000114218
0.00042528
0.000126461
0.000104737
0.000115117
0.0201759
9.16848e-05
0.000701506
0.000813355
0.00378724
0.000100394
0.0191469
0.000135624
0.000100002
0.000106785
0.0198316
0.000283554
9.99675e-05
0.00096439
0.000142179
0.000110716
9.86463e-05
0.000107157
0.0137955
0.000123108
9.92955e-05
0.000143207
9.21299e-05
0.000103076
0.00011731
0.00725884
0.000108314
0.000115272
0.0422965
0.000258775
0.000129195
0.000105239
0.000124243
0.000105754
0.00010492
0.000129287
0.000262558
0.000104896
0.016136
0.000149488
0.00013608
0.000105743
0.000108236
0.000724996
0.0678835
0.000535132
0.0934806
0.000110382
0.0346125
0.000104453
0.000130781
0.000129833
0.000131997
0.024696
0.00321199
0.000130445
9.73694e-05
0.000120024
0.00554354
9.615e-05
0.000115595
0.000112399
0.000409448
0.00123183
0.00011318
0.000121995
0.000121534
0.0240603
0.00444345
0.000101193
0.000106854
0.000219343
9.12081e-05
9.89018e-05
0.000103765
0.0257254
9.95091e-05
0.000108208
9.18194e-05
0.000113758
9.68342e-05
0.0227924
0.00781321
0.00515024
0.000100794
0.00150335
9.9469e-05
0.000102086
0.000103116
9.19336e-05
0.05817
0.0222245
0.0270124
0.000118745
0.023842
9.34474e-05
0.000114867
0.000120629
0.00015552
0.0150954
0.000121805
0.000107761
0.0329138
9.83687e-05
0.0229474
0.0145496
9.63177e-05
0.000117268
0.000109381
0.000134886
0.000107536
0.0194196
0.0218866
0.0330902
0.000200186
0.000218848
0.000127735
0.0160796
0.000101337
0.000112553
0.000125045
0.000100423
0.0153854
9.163e-05
0.0530915
0.000105637
9.67413e-05
0.0171441
0.00062637
9.82049e-05
0.00014272
0.000106343
0.000112065
0.000445205
0.0189168
9.84515e-05
0.000110315
0.0583978
0.00012696
0.00010651
0.000114954
0.000119442
0.000117113
0.0001034
0.0220577
0.000640435
0.000108165
0.000123587
0.00010298
0.0489471
9.0455e-05
0.000115747
0.0153937
0.000104652
9.57389e-05
0.00497949
0.0168362
0.00270996
0.000120316
9.93981e-05
0.000128634
0.000110893
0.000136655
0.0264973
0.000124625
0.000294476
0.0165524
0.000105075
0.000113329
0.000106436
0.000101538
0.000100986
0.000125347
9.92747e-05
0.0134017
0.000107149
0.000100135
0.0134075
0.000333413
0.000107617
0.000139803
0.000121434
0.000103301
0.000116161
9.2695e-05
9.95492e-05
0.000108038
9.12772e-05
0.000100488
0.000106657
9.50085e-05
0.0349415
0.000114076
0.0249748
0.00983321
0.000107637
0.000362588
0.000133299
0.000127534
9.63627e-05
0.0020473
0.0287127
9.61072e-05
0.000107823
0.0388959
0.000120676
0.000103753
0.000104258
0.00289693
9.66295e-05
0.0134334
0.000110312
0.00010178
0.0254988
9.88666e-05
0.000120788
9.30479e-05
0.000129066
0.0101659
0.0167095
0.0394518
0.000118722
0.0313145
0.0238937
0.0664757
0.0172781
0.000107175
0.0160218
0.000117621
0.00010876
0.000105672
0.000139647
0.00230344
0.000110401
0.000102825
0.000103305
0.000183017
0.00011908
9.93858e-05
0.0387269
0.00010854
0.000103902
0.0175801
0.00010845
0.000127323
0.0148577
0.000108584
0.000102718
0.000102672
0.00010179
0.000111917
0.000106889
0.00013312
0.00529627
0.035972
0.000218801
9.36324e-05
0.0149
0.0199061
9.92334e-05
0.000105722
9.1999e-05
0.000912066
0.00011782
0.000116259
0.000100975
9.52305e-05
0.000117257
0.000148698
0.000136815
0.000201939
0.000120706
9.93996e-05
0.000222889
0.00030757
0.000107748
0.000104468
0.000128721
0.000107276
0.000119038
0.000105905
9.62234e-05
9.99278e-05
0.0358462
0.000123054
0.000720412
0.000137381
9.2012e-05
9.72013e-05
9.34663e-05
9.94724e-05
0.000106417
0.0525605
0.01124
0.0277469
0.000124024
0.000106829
0.000602046
0.000142619
0.000146708
0.000109028
0.000106218
9.40856e-05
0.000116862
0.000876887
0.0313736
0.000113648
0.000119335
0.0290464
0.0278633
0.000132384
0.000173635
0.0455937
0.013698
0.000124825
0.000100192
0.000118992
0.000120244
0.000282201
9.67611e-05
9.93152e-05
0.0011601
0.000115769
9.79574e-05
0.000127398
9.44777e-05
0.000128056
9.71892e-05
0.0634641
0.000105072
9.71666e-05
9.41752e-05
0.000115678
0.000117467
9.29337e-05
0.0220001
0.0160706
0.000101094
9.36738e-05
0.005036
0.000104097
9.35056e-05
0.000103875
0.000101367
0.0147197
9.49069e-05
9.85534e-05
0.00010803
0.0575547
0.000114468
0.000108584
0.0648155
0.00010063
0.000712472
9.73062e-05
0.0159566
0.000137093
0.000121193
0.0452122
0.000104612
0.0344929
0.000116303
0.00400657
0.0893261
0.000113195
0.000215468
0.0456709
0.000176539
0.0193573
0.000138122
0.000124502
0.000116003
0.000125025
0.000123913
0.000143003
9.81631e-05
0.0657284
0.000138696
0.000107672
9.84827e-05
0.000102724
0.000135671
0.000144494
0.000103497
0.000128199
9.29209e-05
0.000105598
0.000100268
0.000118732
0.00399874
9.81065e-05
0.000131642
0.000101288
0.000292376
0.00010033
0.0373202
0.000315329
0.0249737
0.000128945
0.000100091
0.00415697
0.0605339
0.000108098
0.0461704
0.000122761
0.00869486
0.000228689
0.000102365
0.000127029
9.80681e-05
0.0454569
9.87117e-05
9.82928e-05
0.00012688
0.000123004
9.68939e-05
0.000290047
0.000134518
0.000216204
9.36674e-05
0.000134896
0.0424745
0.000108088
0.000109782
0.00452236
0.000112786
0.000102526
0.0955472
0.000110028
0.000114716
0.000223491
0.00010933
9.10163e-05
0.000154792
0.000100473
0.000102177
0.000107675
9.68912e-05
0.000130911
0.0741942
0.000129059
0.00461981
9.69796e-05
0.000135106
0.000108651
9.56339e-05
9.40179e-05
0.000704636
0.00687723
0.00010066
0.000133817
0.0146207
0.0162077
0.0617346
0.000104395
0.000124632
0.000105225
9.41551e-05
0.000143263
9.16786e-05
9.56878e-05
9.93269e-05
9.55833e-05
0.000115573
9.70092e-05
0.000134404
9.98081e-05
0.000116584
0.000102512
0.00015738
0.0210076
0.000203327
0.0738867
0.000113823
0.000128555
0.000134192
0.048744
0.00104302
0.000104329
9.797e-05
0.000144259
0.048901
0.00689648
0.000122132
0.000108544
0.0419111
0.0396168
0.000918675
0.000108725
0.000467321
9.9128e-05
0.000107351
0.000119215
0.000128186
0.000101481
0.000106362
9.39871e-05
0.000105937
0.00877985
0.00237007
0.000112391
9.46842e-05
0.000137386
0.000117127
0.00045415
0.000100306
0.000140755
0.000101021
0.000100627
0.000109481
9.99411e-05
0.000111618
0.000721916
9.82878e-05
0.000156772
0.000113647
0.000119221
0.000112966
0.000144327
0.0351139
0.000140914
0.000112539
0.0203085
0.000112102
0.000114025
9.87129e-05
0.000138805
0.0574426
9.501e-05
0.000141306
0.000375102
0.000100614
0.000140019
0.0242866
0.000121102
0.000131641
0.000107104
9.83029e-05
0.000143865
9.08016e-05
0.0241978
0.000119986
0.000123434
0.000104563
0.000223957
0.000129774
0.0108802
0.048019
0.000102847
0.000172867
0.0193096
0.000133423
0.0160194
0.000130316
0.000111939
0.000134214
0.0162689
0.000120617
9.65674e-05
0.000100957
9.35398e-05
0.000100842
0.0387566
0.00175036
0.000101198
0.0140554
0.000148691
9.75798e-05
0.000113128
0.000101622
9.23717e-05
0.000108342
0.0001419
0.000131016
0.0212443
0.026834
0.000100505
0.000102362
9.8399e-05
0.0231127
0.000170465
0.000103514
0.000142792
0.0265931
0.000106582
0.000112454
0.0001198
0.000548657
0.000111796
0.000121165
0.000115456
0.000133673
0.000100863
0.000123511
9.7519e-05
0.000119451
0.000116318
9.70635e-05
0.00012381
0.000105215
0.000143
0.000140262
9.55061e-05
0.0323259
9.15212e-05
0.00013042
0.0339731
0.0361406
0.000101905
9.46023e-05
0.000114257
0.000115359
0.000108413
9.46761e-05
0.0449145
0.0365708
0.000104425
0.000104302
0.000107896
0.000121882
0.0213954
0.000756076
0.00011199
0.000102047
0.000102938
0.0287706
0.000113426
0.0316606
0.000213314
0.0155903
0.000106586
0.000662596
0.000107111
9.43965e-05
0.000137471
0.000100543
0.00664786
0.0621953
0.00010671
0.000117058
9.00969e-05
0.000333948
0.000342123
0.000106484
0.000107544
9.07097e-05
0.000101767
9.9706e-05
0.000230232
0.000116762
0.00282947
0.000120877
0.0098924
0.000101805
0.000102562
0.000105823
0.000102873
0.0159722
0.0194371
0.000113666
0.000100181
9.57001e-05
9.70235e-05
0.000145772
0.000121405
0.000103003
0.000101696
9.47859e-05
0.000106599
0.000101799
0.000133177
0.000237245
0.000103604
0.000101939
0.000141512
0.000238008
0.000105631
9.81301e-05
0.000145265
0.000105027
0.000100138
9.78763e-05
0.000106527
9.89482e-05
0.000107158
0.0244972
0.000113179
0.000105095
0.000616854
0.000137102
0.000100839
9.19515e-05
9.80197e-05
0.0114922
0.000101324
9.97407e-05
0.000445146
0.000107899
0.000334021
0.000109287
0.000112745
0.000148686
0.000113894
0.000532812
0.00013192
0.000392194
0.0102888
0.0151121
0.000265181
0.000105155
0.000117831
9.50669e-05
0.000241832
0.000146072
0.000114735
0.000129809
0.0165511
0.000104902
0.0462616
0.000105665
0.0643598
0.000127879
0.000134886
0.000101194
0.000104114
9.02254e-05
0.000100909
0.000108192
9.91939e-05
9.92234e-05
0.00047899
0.0120211
0.000411045
0.0364547
0.000301382
9.3883e-05
0.000112713
9.81411e-05
9.67464e-05
0.0037885
0.000119247
0.000196271
0.000189288
0.059135
0.0204514
0.0131217
0.00017636
0.0501135
0.0722212
0.0135243
9.61889e-05
0.000104852
9.42505e-05
0.000146071
0.0571943
0.0131466
0.000101489
0.000391238
0.000104988
0.000105328
0.000122701
0.000132008
0.00134611
0.000102621
0.00272177
0.0469391
0.000133528
0.0487718
9.84502e-05
0.0261907
0.0135379
9.84454e-05
0.00010862
0.000171314
0.000108248
0.000116774
0.000108506
9.70738e-05
9.2823e-05
0.000100901
9.44754e-05
0.00197302
9.60852e-05
0.0353813
0.000142876
0.000107945
0.000132481
0.000195893
0.000176563
0.000116854
9.96363e-05
0.000100715
0.000110565
0.000137103
0.000101642
0.000102914
0.0174075
0.000288838
9.43459e-05
0.000127529
9.77636e-05
9.49908e-05
9.57948e-05
0.000101947
9.12412e-05
0.000110465
0.00060184
0.000190664
0.0141631
9.07711e-05
0.0416845
0.000113274
9.59092e-05
0.000100626
0.000111683
0.000146991
0.000122935
9.82947e-05
9.94156e-05
0.000123754
0.0198132
0.000129865
0.0969629
0.0166241
0.000106587
9.89135e-05
0.0705574
9.74562e-05
0.000193314
0.000752926
0.0666677
0.000117842
0.0416324
0.0246339
0.000108794
0.0343178
0.0129978
9.4147e-05
0.000129639
0.000349167
0.000106303
0.000310053
0.000127569
0.0138364
0.000106352
0.000105815
0.000189784
9.42315e-05
0.000105028
0.000107149
0.000324069
0.0347888
0.000128573
0.0208226
9.74843e-05
0.028536
0.0365709
0.013443
9.61039e-05
0.000108703
0.000131093
0.0227366
9.91559e-05
0.000105391
0.0100798
0.021909
0.000114288
9.96586e-05
0.000213768
9.26966e-05
0.000128192
0.00300913
9.5184e-05
0.013797
0.0164853
0.000100437
0.0090923
0.000121071
9.52569e-05
9.75485e-05
0.000193426
0.000217231
0.014327
0.000149219
0.000111641
0.000101959
0.000384495
0.000144719
0.000147246
0.00041063
0.000107092
0.0350734
0.000138243
0.000385872
0.000133218
0.000745318
0.000214485
0.0491174
0.0155456
0.000112025
0.0251801
0.000114744
0.000101719
0.000100235
9.27811e-05
0.000118213
9.53435e-05
0.000113613
0.000179604
0.000109343
0.000134465
0.000129687
0.0340909
0.000259926
0.000109462
0.000115444
0.068095
0.000101637
0.000168917
9.6626e-05
0.000137798
0.0260074
9.29616e-05
0.000130337
0.000318293
9.87807e-05
0.000169354
0.0759944
0.027029
0.000100024
0.0027988
0.000121564
0.000109449
0.000106058
0.000106867
0.000397226
0.000107297
9.83384e-05
0.000129223
0.0221988
0.000104833
0.00011683
0.000105788
9.29668e-05
0.0325908
9.28852e-05
0.000106491
0.00010731
0.000121515
0.0673133
0.000143295
0.000142247
0.0094994
0.000109446
0.0225334
0.000100236
0.000102972
0.000118432
0.000629496
0.0498358
0.000120913
0.00010964
0.000112318
0.000133195
9.53972e-05
0.00012214
0.00578692
0.054561
0.0330953
0.0174642
0.000371744
9.9613e-05
0.0465221
0.000123058
0.000848095
9.46416e-05
0.000104843
9.98369e-05
9.87969e-05
0.000135624
9.1241e-05
0.000177472
0.000125531
0.0713787
9.55238e-05
0.000113831
0.000151817
0.000112562
0.00016876
0.0195647
0.000115067
9.98469e-05
0.000135091
0.000110209
0.000106149
9.30836e-05
0.000133714
9.26734e-05
0.00797457
0.0183798
9.43147e-05
0.000101345
0.000112159
0.000113365
0.000145402
0.000105724
0.000126525
0.00010972
0.000138335
9.69026e-05
0.000118836
0.0284122
9.46622e-05
0.000138604
0.000107084
0.00191169
0.0179749
0.000132291
0.000132947
9.82517e-05
0.000128426
0.014786
0.0229747
0.0092736
0.0348123
0.000100178
0.000163324
0.000104275
0.000117497
0.000238646
0.000116182
0.000103104
0.0297948
0.000105502
0.000127859
0.0557123
0.0313518
0.000141298
0.000101942
0.000105679
0.000128367
0.000103163
0.0114382
9.60327e-05
0.00010262
0.000187821
0.000100059
0.000147933
0.0338157
0.000111381
0.0796047
0.0227396
0.00518779
0.000128256
0.000131661
0.000106702
0.00010728
0.0121126
0.000167457
0.0719148
0.000108131
0.000135932
0.0410019
0.000147319
0.000108663
0.000173617
0.000148122
0.000147456
0.00800592
0.0355851
0.000228239
9.20822e-05
0.0132613
0.000244768
0.000102419
9.90153e-05
0.000108953
0.00169546
0.000106004
0.00011834
0.000106538
0.000102396
0.000142479
9.53003e-05
0.00010064
0.00237895
9.67823e-05
9.51457e-05
0.00014884
0.0188025
0.0117955
0.0213395
0.0303131
9.73254e-05
0.00151137
0.00841019
0.000105222
0.000110447
0.000111391
0.000113707
0.000117833
0.000127611
9.67045e-05
0.000100565
0.000121107
0.000122129
9.96316e-05
0.000107826
0.000100624
0.000109203
0.000147034
0.037417
9.84127e-05
0.0196904
0.000101624
0.000104589
0.000111561
0.000130634
0.0234505
0.00015495
9.89203e-05
0.0361653
9.74181e-05
0.000128012
9.69325e-05
0.000119064
0.000206684
9.3873e-05
0.000102911
0.000116025
0.000770593
0.000764208
0.0344288
0.000145252
0.000342209
0.0258364
0.000131648
0.000105579
0.000112579
0.000117844
0.00014807
0.0165068
0.028537
0.0244599
0.000515104
0.000100451
0.000217113
0.000104443
0.000137415
9.57976e-05
0.000109922
0.000100224
0.000141148
0.0688524
0.000217436
0.0401577
0.000781346
0.000388881
0.000123344
0.0245591
0.000121908
0.0886135
0.000131143
0.000245247
0.0673225
0.000551618
0.000118301
0.0269368
0.000128764
0.000337642
0.000121172
0.000103495
0.000106456
0.000121659
0.000108439
9.98941e-05
0.000141102
9.20905e-05
0.00012237
0.000105829
0.000127645
9.38364e-05
0.000110403
0.000129799
0.0168661
0.000106368
0.000145947
0.000268987
0.00012667
0.00571632
9.31984e-05
0.0508065
0.00238366
0.000214793
0.043417
0.000118442
0.000117323
9.20829e-05
0.000103238
0.0468257
9.60042e-05
0.000103416
0.000102408
0.0914675
0.0321236
0.0149538
0.000129163
0.00022183
0.000122621
0.000139318
0.0151052
0.000380199
0.000104103
0.000129427
0.00013121
0.000147857
0.000251623
0.000113545
0.000110802
9.05215e-05
9.36632e-05
9.30355e-05
0.0393483
0.000105719
0.00491717
0.0146608
0.000112508
0.0151348
0.000172941
0.015834
0.000103647
0.000105317
9.40167e-05
0.000772521
9.58261e-05
0.000133842
0.0162231
0.0985127
0.000149519
0.000192074
0.000111855
0.000166271
0.0351491
0.000153064
0.000116039
0.00010581
9.92369e-05
9.52588e-05
0.000116927
0.000114537
0.000147346
0.000153159
0.000649857
0.000697542
0.000335318
0.0127941
0.000107356
0.000271089
0.000130113
0.000101136
0.000107939
0.0001073
0.000115935
0.000105938
0.0401659
0.00010527
0.000127883
0.000110017
9.18611e-05
0.000111852
0.000103059
0.0001382
0.000131158
0.0213901
0.000106562
0.000120591
0.0001092
0.000275475
0.000455681
0.000105481
0.000101339
0.0387214
0.000113157
9.65929e-05
0.096152
0.000112888
9.87057e-05
0.0350273
0.00011326
0.0307055
0.000482796
0.000134977
0.0105603
0.00010222
0.000312342
0.000100958
0.000111601
9.74613e-05
0.000107205
0.000131977
0.000105987
0.0224843
0.0198136
0.000222774
0.000116634
0.000114837
0.000107466
0.000278553
9.54637e-05
0.000104477
0.000112463
0.0923875
0.000128832
0.000105478
0.000115849
0.000114017
0.000406471
0.000100992
0.000160501
0.000116428
0.000112403
0.000104754
0.0277435
0.0130732
9.73011e-05
0.000327868
0.000116467
9.46375e-05
0.00357883
9.08852e-05
0.0408712
0.000715543
0.000125474
9.18151e-05
9.43956e-05
0.000100675
0.0637128
0.0189673
0.000133162
0.00591436
9.9846e-05
0.000126831
0.000504919
0.000121168
0.000128276
0.000145629
9.89006e-05
0.000163765
0.0899995
0.000165231
9.97198e-05
0.000111273
0.000107841
0.000128687
0.0001245
0.0229298
0.000576845
0.000221034
0.00011009
9.74841e-05
0.0249302
9.56361e-05
0.0541997
0.0187617
0.00246238
0.0204164
0.000184191
0.000101681
0.000122379
0.000437982
0.00010663
9.98709e-05
0.000643979
0.000376091
0.000141637
0.0199144
0.000157564
9.45869e-05
0.000123139
0.000136276
0.0318482
9.65463e-05
9.61661e-05
0.00304265
0.0443127
9.99382e-05
0.0283248
0.0190006
0.0198703
0.00706313
0.000117846
0.000128769
0.0508849
0.000120315
0.000110294
0.000133537
0.00779837
0.00012869
0.000105636
9.48617e-05
0.000108466
9.82603e-05
0.00710026
0.000102172
0.031873
0.000135512
0.0158301
9.94051e-05
0.0214829
0.00011107
0.000119184
9.84121e-05
0.000137438
0.034379
0.00625578
0.000105307
0.0192571
9.85095e-05
0.000139814
9.51258e-05
0.000129868
0.0189144
0.000275035
0.0445709
0.0291996
9.49451e-05
0.000138345
0.000127248
0.00012327
0.0251287
0.000107821
0.000113885
0.000104754
0.000127222
0.00013555
0.000107667
0.000107839
0.0677682
0.0257041
9.28146e-05
0.000107898
0.000516082
0.0272179
0.0658942
0.000139466
0.00011189
0.0548302
0.00478598
0.000106558
0.000114268
0.000104327
0.00873882
0.000107825
0.00075208
0.000105289
0.0001101
0.00012503
9.42245e-05
0.000130186
0.000140886
0.000109061
0.0339952
0.000106101
0.0502426
0.000134459
0.000219672
0.0521719
0.000107614
0.000123063
0.000101022
0.000154749
0.000109838
9.89949e-05
0.000106941
0.0366922
0.0369287
0.000136728
0.000129068
9.59736e-05
0.000130068
0.000216054
9.06109e-05
0.000104502
0.000145582
9.5107e-05
0.00010758
0.000102227
0.0974206
0.000104876
0.0267544
0.000137108
9.43226e-05
0.000222201
9.86838e-05
0.0432736
0.000263631
0.000106858
0.0630735
0.000113183
9.15614e-05
0.000104446
0.000104162
0.00010135
0.000126412
0.00011458
0.000210253
0.000119403
9.03511e-05
0.000124955
0.000176684
0.000107151
0.000564722
0.00012426
0.000117932
0.000306242
0.000131461
0.000110334
0.000124222
0.0144917
0.000118497
0.000232267
0.000131124
0.000130713
0.000121324
0.000273232
0.00012698
0.00014631
0.000104518
0.000126678
0.00559739
0.0497326
0.000110263
0.04064
0.000100329
0.000128161
0.0001112
0.000111634
0.000669148
0.000123789
0.000129324
0.0457998
0.0101742
0.000115235
0.00013371
0.000110081
0.000118297
0.000101515
0.000218413
0.000111402
0.000139518
0.000152708
0.000106491
0.0498464
0.000505395
0.000106433
0.0257675
0.000103728
0.000413544
0.0425801
0.000138385
0.000103582
0.00745586
9.59996e-05
0.0001158
0.0073193
0.0424106
0.000103938
9.96603e-05
0.000101865
0.000117885
0.00157594
0.000107226
0.000123914
0.0196409
9.5016e-05
9.97694e-05
0.0921282
0.000113541
0.0123668
9.65567e-05
9.71519e-05
0.000454276
9.96819e-05
0.000126654
9.79306e-05
9.93636e-05
0.000172622
0.00221947
0.000104047
0.000107734
0.000187055
0.0287758
0.0500897
0.000114733
0.0262211
0.000368265
0.0441924
0.0202242
0.0390739
0.000103395
9.67821e-05
0.000235821
0.000129864
0.000110618
0.000131653
9.04535e-05
0.0207537
0.000138308
0.000103807
0.00010259
0.0257533
0.020088
0.0374975
0.000114598
0.047857
0.000106244
0.000134653
0.000100036
0.0122171
0.000320234
9.87823e-05
0.000116542
0.000101338
0.0244656
0.000100032
0.0203111
0.00582455
0.000238192
0.000104161
9.46218e-05
9.72775e-05
0.00011309
0.000130193
0.000109971
9.01751e-05
0.000109527
0.00011034
9.25148e-05
0.000369844
0.000124178
0.000104363
0.0255563
0.000105117
0.000130907
9.18523e-05
0.102573
0.000318468
0.000107789
0.000114939
9.27594e-05
0.000124653
0.000102722
0.0169546
9.69157e-05
0.00439839
0.000106906
0.00010907
0.000112725
0.000137426
0.000107614
0.0153471
0.000268697
0.000122952
0.00036707
0.0218266
0.000486375
9.33615e-05
0.0644425
0.0001088
0.0479481
0.0116558
0.00013704
0.000103652
0.0521175
0.00014802
0.0415466
0.000104452
0.0588467
9.42949e-05
0.000130499
0.00021373
9.26066e-05
0.00757025
0.00010909
9.35509e-05
0.0179865
0.00016988
0.000149486
0.000110291
0.000100087
0.00495906
0.000211177
0.000171096
0.0453692
0.000134811
0.0158228
0.000115745
9.74669e-05
9.82965e-05
0.00840554
0.0483318
0.000119408
0.00015124
0.000106375
0.000109087
0.000109151
9.61569e-05
0.000120178
0.0445803
0.000107447
0.000104533
0.000449323
9.38134e-05
0.000304379
0.000221052
0.082024
0.000244574
0.00010408
0.00013469
0.000271983
0.000105946
9.11442e-05
9.59394e-05
9.47294e-05
0.000106625
0.000100623
0.000105642
0.000115368
0.000122446
0.000103894
9.83498e-05
0.000100191
0.000147085
0.000123125
9.41215e-05
0.000101478
0.000113791
0.000135157
0.000260385
0.0221572
0.000124365
0.0277215
0.0216982
0.0656698
0.0519272
0.015542
0.000135723
0.000222788
0.0404056
0.000121747
0.000144755
9.82358e-05
0.0194052
0.000171511
0.000121411
0.000102569
0.0220899
9.11264e-05
0.000475735
0.0206041
0.00063386
0.0490496
0.0135565
9.24513e-05
0.000113486
0.000114214
9.59481e-05
0.000106386
0.000124565
9.60285e-05
0.000119861
0.000213183
0.000102684
0.000124363
0.000107089
9.93636e-05
0.0001536
0.000109818
9.57706e-05
0.0113868
0.000103272
0.000102272
0.000129298
0.0845498
0.000104654
0.000104504
9.2411e-05
0.000105908
0.000136902
0.000104198
0.00024514
0.000100589
0.000105223
9.5853e-05
9.40772e-05
0.000123449
0.00021517
0.000118179
0.000142379
0.0253515
0.000412592
0.000131118
0.000141475
0.000114783
0.0281192
0.0163118
0.000109824
0.000115007
0.000358935
0.015382
0.000140793
0.000523511
0.000139792
0.000191654
9.4261e-05
0.000107979
0.0239559
9.56137e-05
0.000108835
0.00226073
0.000148738
0.0352481
0.0554495
0.0145518
0.0251698
0.0175703
0.000103799
0.0762715
0.00011209
0.000120225
9.97635e-05
9.74328e-05
0.062885
0.000130456
0.000121435
0.0215503
0.0124272
0.00995112
0.000374895
0.000121418
9.5501e-05
0.0215296
9.45267e-05
0.00286581
0.000102574
0.000104157
0.000104422
0.000101792
0.000106399
0.000121498
9.573e-05
9.52798e-05
0.00010405
0.0500535
9.51326e-05
0.000100287
0.000378497
0.000106912
0.000119613
9.87739e-05
0.000272778
0.0342539
0.000107093
9.76544e-05
0.000134879
0.000414288
0.000307306
0.0438687
0.000160418
0.000100839
0.000129359
0.000101959
0.000140567
0.045983
0.000110521
0.000102799
0.000136927
0.000107169
0.000112184
0.000337151
9.43269e-05
0.000237405
0.0355587
0.000378243
0.000178398
0.000116045
0.000140062
9.48961e-05
0.0425895
0.000297502
0.00284574
0.0537874
0.000120481
0.000125792
0.000118887
0.024708
0.0177571
0.000133129
0.0303557
0.000100111
9.54385e-05
0.0213858
9.12462e-05
0.000104353
0.00393543
0.000106044
0.000146112
0.00010281
0.000131704
0.000249038
0.000147411
0.000105634
0.000347264
0.000449405