/*--------------------------------*- C++ -*----------------------------------*\
| =========                 |                                                 |
| \\      /  F ield         | OpenFOAM: The Open Source CFD Toolbox           |
|  \\    /   O peration     | Version:  v2012                                 |
|   \\  /    A nd           | Website:  www.openfoam.com                      |
|    \\/     M anipulation  |                                                 |
\*---------------------------------------------------------------------------*/
FoamFile
{
    version     2.0;
    format      ascii;
    class       volScalarField;
    location    "100";
    object      nut;
}
// * * * * * * * * * * * * * * * * * * * * * * * * * * * * * * * * * * * * * //

dimensions      [0 2 -1 0 0 0 0];


internalField   nonuniform List<scalar> 
18618
(
0.000457031
0.00119491
0.00045338
0.000459798
0.000456843
0.000458506
0.00485171
0.00212484
0.000928952
0.00060039
0.000456769
0.000457442
0.000455917
0.000457191
0.000457747
0.00045862
0.000453246
0.000457081
0.000451305
0.00445472
0.000457675
0.00930299
0.000451762
0.000457552
0.00547933
0.000970348
0.000571061
0.00883462
0.000647957
0.000453364
0.000457174
0.000455584
0.000483749
0.000456815
0.000462663
0.00754962
0.000454592
0.00160995
0.00307116
0.00045195
0.00342629
0.00913671
0.00551304
0.000576698
0.000467817
0.000470397
0.00432321
0.000473728
0.000577451
0.00773793
0.000567481
0.000455131
0.000545783
0.000586042
0.00526785
0.00147918
0.000532457
0.000550449
0.00390544
0.00619941
0.00278495
0.00565859
0.000575669
0.000458594
0.001621
0.000698306
0.00590486
0.000468109
0.000454326
0.00481627
0.000608629
0.000451326
0.000465833
0.00326323
0.000346984
0.00781878
0.000464767
0.00045853
0.000454122
0.000712498
0.000459231
0.000457378
0.000459288
0.000458748
0.00938089
0.000454131
0.00146732
0.00471221
0.0055865
0.00205963
0.000455094
0.00358696
0.00155368
0.000452784
0.00351052
0.00569157
0.000457113
0.000869444
0.000458255
0.00540236
0.00760205
0.00641647
0.000455499
0.0014295
0.000647831
0.00064554
0.00494408
0.000456402
0.0055578
0.00510903
0.00357613
0.000459434
0.00542346
0.000301282
0.000460063
0.000452185
0.00457367
0.000459669
0.000559553
0.000363525
0.000459592
0.000455721
0.000460213
0.000458571
0.000557786
0.000675167
0.000462135
0.00162556
0.00164231
0.000580291
0.00257383
0.00524156
0.00476578
0.000521675
0.000455947
0.000479551
0.000460491
0.004887
0.00755436
0.000457645
0.00246145
0.00499575
0.000454406
0.000457416
0.000458805
0.000459941
0.000452069
0.000459505
0.000457935
0.000457828
0.00355819
0.000456798
0.000484967
0.000458839
0.000459512
0.00358552
0.00805219
0.000487895
0.000454938
0.00599652
0.000555297
0.000472961
0.00693074
0.00394207
0.00046084
0.000466127
0.000458733
0.00929576
0.000458715
0.000899313
0.000469325
0.000482324
0.000694549
0.00143863
0.00450173
0.000459714
0.00347015
0.000458856
0.000460889
0.000470788
0.0030325
0.000462385
0.00747152
0.000465786
0.000461951
0.00048242
0.00341256
0.00141673
0.00131594
0.000457219
0.000460139
0.00047438
0.00046593
0.000453365
0.000454266
0.00255953
0.000457686
0.0004572
0.0024182
0.000468916
0.000679359
0.00884884
0.00340881
0.0017275
0.00310101
0.000459435
0.00346726
0.00691875
0.000464097
0.000452442
0.00131516
0.0011582
0.000457993
0.000452259
0.000456649
0.000467921
0.00782213
0.00564936
0.00045985
0.00045458
0.000457854
0.000459569
0.00657305
0.000467635
0.0047085
0.000460767
0.000455533
0.000716323
0.00146507
0.000469027
0.000459214
0.000471143
0.000456647
0.00261203
0.000471119
0.000462807
0.000465262
0.000845943
0.00376658
0.000454889
0.00108516
0.000454943
0.000461442
0.00449339
0.000552425
0.00051173
0.00241309
0.000463148
0.00481201
0.000459659
0.000452799
0.00915271
0.000473657
0.00477905
0.000488095
0.000462449
0.0008681
0.000461203
0.000451537
0.000454665
0.000459627
0.00772336
0.00554092
0.000461367
0.00919581
0.00204144
0.000889193
0.000474577
0.000682092
0.000471601
0.00071628
0.000460863
0.000456644
0.000459746
0.000469091
0.000465512
0.000480954
0.000457393
0.00045383
0.00645215
0.000459587
0.00055682
0.000459664
0.000457044
0.00483158
0.00045966
0.000454408
0.000536234
0.000551729
0.00064993
0.000452158
0.000538502
0.000459499
0.000488114
0.00685674
0.00150201
0.00508214
0.00754699
0.00679794
0.000455255
0.000481918
0.000458323
0.00049774
0.000459387
0.000460921
0.000464256
0.000458118
0.00457182
0.000707387
0.00783434
0.00206459
0.000451274
0.00168447
0.0004677
0.000465883
0.000457778
0.000457042
0.000474154
0.000525287
0.00416652
0.000452204
0.00268624
0.0004633
0.00891695
0.000466525
0.00176765
0.00301491
0.000457894
0.000453621
0.00592814
0.000495117
0.00716372
0.000458015
0.00046564
0.000481106
0.000460429
0.00617913
0.000457931
0.000454872
0.0072152
0.000537237
0.000575994
0.00796777
0.000736012
0.000461164
0.000559794
0.000460898
0.000687458
0.000542009
0.00045186
0.000461952
0.000451683
0.0072111
0.000463544
0.000459641
0.000462358
0.000463586
0.000541076
0.000458409
0.000456486
0.000456568
0.00482988
0.00924947
0.000549055
0.00253279
0.00933811
0.000461621
0.000465836
0.000578845
0.000871048
0.000455143
0.000459697
0.000463763
0.000469691
0.000452388
0.000458878
0.000716296
0.000459537
0.0004596
0.000549361
0.000726796
0.000469331
0.000454405
0.000453296
0.0005872
0.000454693
0.000562234
0.00582509
0.000461312
0.000559492
0.000459025
0.00046216
0.00344394
0.00356562
0.000462096
0.000859398
0.003513
0.00704528
0.00046271
0.00559405
0.00045977
0.000480978
0.000466038
0.00827153
0.000454863
0.00383234
0.000460921
0.000458932
0.000474509
0.00046018
0.000454548
0.000469315
0.000455126
0.000451617
0.000458495
0.000539658
0.000451633
0.000455557
0.00048817
0.000470215
0.000452478
0.00263776
0.000464984
0.000466911
0.00045471
0.00705215
0.000543219
0.000458916
0.00203412
0.00770345
0.000462535
0.000460999
0.000470299
0.000458775
0.000454326
0.000471842
0.00046498
0.000459968
0.00135968
0.000693433
0.000463796
0.00244391
0.000459689
0.000478687
0.0056798
0.000556811
0.00046191
0.00142467
0.00068273
0.000462299
0.000466248
0.000468147
0.000555733
0.000480439
0.000461352
0.00123581
0.000460159
0.00045503
0.000456932
0.00939942
0.00821011
0.000460315
0.000704422
0.000462087
0.000738589
0.000457105
0.000461278
0.000469276
0.00132656
0.000454824
0.000460396
0.000489419
0.000458386
0.00454783
0.000463647
0.000462238
0.00343368
0.000465791
0.00240226
0.000491381
0.000830338
0.000459595
0.00689714
0.000454445
0.00119122
0.000459949
0.000728149
0.000458452
0.000534541
0.000471302
0.00112372
0.00728263
0.000456621
0.000465894
0.00610803
0.00619479
0.000983174
0.00810014
0.000459505
0.000466557
0.000469481
0.000456643
0.00590786
0.000461837
0.000466979
0.00070237
0.00045923
0.000462913
0.002773
0.00115153
0.00797666
0.000455856
0.000465727
0.000466323
0.000560001
0.000464766
0.000453761
0.000466118
0.000565996
0.00258472
0.000454445
0.000464614
0.00122832
0.000562427
0.000453173
0.000462375
0.00264138
0.000463195
0.00037003
0.000465295
0.00383437
0.00522312
0.000459371
0.000466128
0.000562402
0.000467731
0.00233938
0.000469203
0.000456062
0.000455446
0.000504156
0.000462028
0.000557313
0.000528409
0.000462059
0.000464298
0.00249548
0.00513396
0.000452126
0.000459734
0.000460501
0.000641506
0.00105637
0.000454036
0.00132557
0.000454354
0.000287465
0.000461841
0.0006901
0.000563218
0.00737926
0.000454769
0.00185616
0.000461913
0.000458907
0.000649356
0.00450297
0.000457301
0.000694958
0.000457939
0.000462882
0.0067209
0.00046445
0.00871596
0.00768085
0.00391123
0.00446672
0.000567253
0.00299808
0.000453429
0.000478863
0.000463462
0.000480995
0.000464675
0.000462599
0.000453477
0.000464069
0.000454243
0.00284333
0.000768075
0.000460458
0.000456213
0.000456645
0.000454493
0.000456955
0.00047886
0.00183065
0.00778531
0.000720558
0.000457367
0.00046276
0.00185735
0.000517029
0.000457744
0.000459354
0.000497736
0.000463095
0.000453172
0.000461155
0.00047761
0.00519273
0.00379763
0.00595317
0.00423421
0.00893998
0.000456007
0.00046641
0.00792802
0.00045968
0.000461907
0.000453685
0.000454345
0.00392744
0.000569018
0.000467905
0.00107482
0.000454999
0.000459431
0.00109109
0.000463371
0.000461819
0.000459772
0.00616851
0.000453059
0.00138663
0.001523
0.00253074
0.000457872
0.00574571
0.000567861
0.000455552
0.00045719
0.00678573
0.000829927
0.00045477
0.00155467
0.00055406
0.000458559
0.000456281
0.000460021
0.0017265
0.000462318
0.00045436
0.000563448
0.000453893
0.000461571
0.000460726
0.00343879
0.000457313
0.000459832
0.00372597
0.000832111
0.00046399
0.000456675
0.000538646
0.000456887
0.000482672
0.000464
0.00078834
0.000462511
0.00258699
0.000469415
0.000465964
0.000457497
0.000457696
0.00144682
0.00943207
0.00122557
0.0077784
0.000502659
0.00354497
0.000482717
0.000555247
0.000464087
0.000464704
0.0073239
0.0023032
0.00046408
0.00046602
0.000461239
0.00300397
0.00045313
0.000459906
0.00045897
0.00109041
0.00192291
0.000459681
0.000461833
0.000461743
0.00721833
0.00261604
0.000462051
0.000472923
0.000734395
0.000453943
0.000454073
0.000480897
0.00587137
0.000465041
0.000457774
0.00045141
0.000459024
0.000463353
0.00654477
0.00213825
0.00302458
0.000469959
0.00164994
0.000454668
0.000461044
0.000486588
0.000451702
0.00560462
0.00654832
0.00592275
0.000526628
0.00723174
0.00045245
0.00045971
0.000517954
0.000609724
0.00183312
0.000461809
0.000480714
0.00780613
0.000455018
0.00700459
0.0019105
0.000453096
0.000460655
0.000474497
0.00046538
0.000460148
0.00600379
0.0068219
0.00487391
0.000681468
0.000720686
0.000547705
0.00214042
0.000455014
0.000510442
0.000462806
0.000457807
0.00150857
0.000451489
0.00961278
0.000456909
0.000460051
0.0047538
0.00129554
0.000455536
0.000467728
0.000488442
0.000458775
0.00110706
0.00658259
0.000454949
0.000502396
0.00577238
0.000463378
0.000465876
0.000497431
0.000461082
0.000460428
0.000456156
0.00284915
0.001316
0.00045737
0.000462424
0.000461241
0.00509963
0.000451229
0.000459912
0.000372649
0.00045628
0.000453008
0.00291288
0.00253166
0.00210878
0.000461349
0.000454386
0.000556386
0.000458581
0.000466109
0.00664792
0.000535821
0.000902762
0.00497688
0.000465795
0.000459476
0.000472235
0.000455184
0.000470132
0.000537459
0.000454714
0.000620163
0.000483995
0.000457711
0.00173684
0.0010122
0.000477154
0.0005485
0.000533947
0.000461978
0.000460104
0.000453154
0.000454512
0.000458533
0.000454004
0.000481243
0.000465893
0.00045267
0.00812935
0.000493357
0.00597155
0.00396103
0.000475476
0.000957874
0.000465089
0.000463464
0.00045386
0.00209058
0.00788383
0.000454528
0.000457536
0.00856269
0.000461395
0.000456344
0.000456984
0.0023418
0.000454698
0.00680852
0.000458543
0.000461526
0.00667125
0.00045449
0.000461377
0.000451949
0.000464214
0.00404475
0.0050655
0.00678056
0.000460841
0.0040781
0.00547806
0.00928565
0.00226149
0.000476358
0.00272361
0.000460121
0.000470163
0.000461684
0.000564522
0.00215772
0.000458549
0.000461193
0.000461667
0.000643228
0.000460998
0.000454594
0.0085146
0.000457939
0.000456197
0.00502891
0.000457588
0.000519441
0.00827064
0.000457673
0.000458622
0.000458773
0.000455219
0.000510956
0.000471769
0.000465102
0.00302448
0.0084008
0.000716062
0.000455433
0.00222669
0.00594591
0.000477139
0.000456774
0.000451793
0.00155388
0.000460599
0.000460274
0.000455433
0.00045282
0.000460353
0.000469401
0.00046611
0.000727057
0.000461613
0.000456666
0.000716839
0.000926596
0.000457523
0.00045604
0.000463782
0.0004573
0.000460923
0.000457417
0.000453768
0.000454582
0.0083625
0.000535179
0.00145032
0.000466126
0.000453793
0.000465013
0.000454739
0.000477842
0.000464666
0.00841287
0.000333074
0.0067022
0.000462631
0.000457171
0.00133756
0.00058373
0.00057825
0.000457927
0.000457007
0.000458034
0.000460437
0.00157615
0.00574276
0.000459484
0.00046108
0.00672655
0.00329071
0.000543957
0.000645673
0.00883162
0.00394038
0.000462788
0.000468015
0.000524401
0.000516392
0.000896366
0.000454324
0.000455402
0.00182021
0.000499384
0.000453952
0.000463418
0.000453792
0.000463472
0.0004582
0.00925886
0.000478184
0.000453597
0.000458524
0.000460398
0.000460509
0.000453204
0.00683024
0.00262891
0.000455567
0.000454602
0.00283695
0.000459102
0.00045256
0.000456026
0.00045495
0.00205401
0.000453923
0.0004675
0.000458143
0.00653005
0.000459572
0.000457753
0.00925777
0.000471551
0.00148297
0.000454612
0.00187926
0.000466126
0.000462055
0.007944
0.000456143
0.00677611
0.000460108
0.00254506
0.00725177
0.000505063
0.000719928
0.00757681
0.000651379
0.00403825
0.000466487
0.000462705
0.000460455
0.000518385
0.000462422
0.000563011
0.000455582
0.00938158
0.000563667
0.000459755
0.000453908
0.000461052
0.000465968
0.000468177
0.000456225
0.00046381
0.000455323
0.000461172
0.000454889
0.000460851
0.00267086
0.000455333
0.000559487
0.000455154
0.000881021
0.000454753
0.00845954
0.000941596
0.00749836
0.00054387
0.000454684
0.00257587
0.00932226
0.000475095
0.00500641
0.000462072
0.00358752
0.000744307
0.000455549
0.000547079
0.000454984
0.00876755
0.000475104
0.000454169
0.0004633
0.000513662
0.000457691
0.000878553
0.000465556
0.000711937
0.000454719
0.000465548
0.00482123
0.000459491
0.000458108
0.00305982
0.000490068
0.000459112
0.00764431
0.000476633
0.000459451
0.000724493
0.0004579
0.000451261
0.000608289
0.000458203
0.000455561
0.000474308
0.000463047
0.000547696
0.00934088
0.000463835
0.0028813
0.000453294
0.000465712
0.000458205
0.00045545
0.000455344
0.00130214
0.00358568
0.000471562
0.000465299
0.00187751
0.0035242
0.00932452
0.000456255
0.000463374
0.000466049
0.000453081
0.00046811
0.000455906
0.000455107
0.000459803
0.000452866
0.000459956
0.000454464
0.000465319
0.000465841
0.000460246
0.000455732
0.000613939
0.00657787
0.000730049
0.00923676
0.000506753
0.000543425
0.00046537
0.00890028
0.00167786
0.000480842
0.000464283
0.000557965
0.00895715
0.00351684
0.000461894
0.000484234
0.00398464
0.00650195
0.00149855
0.000457751
0.00115745
0.000476468
0.000462889
0.000461295
0.000532853
0.00046114
0.000478037
0.000455337
0.000477693
0.00285309
0.00201048
0.00045901
0.00045273
0.000466249
0.000460518
0.00111358
0.000456226
0.000566248
0.000455495
0.00045787
0.000458034
0.000456134
0.000458645
0.001409
0.00046676
0.000599198
0.000459362
0.000460995
0.000511426
0.000570875
0.00521585
0.000467242
0.000458865
0.00655492
0.000458942
0.000459606
0.000456398
0.000466612
0.00917187
0.000452718
0.00056322
0.00102936
0.000455351
0.000566049
0.00727641
0.000461489
0.000464657
0.000478071
0.000454183
0.000566691
0.000451853
0.00537221
0.00050791
0.000462226
0.000456697
0.000735612
0.000464305
0.00478819
0.00989389
0.0004559
0.000646541
0.00597688
0.000561835
0.00569363
0.000464205
0.000497227
0.000548454
0.00384918
0.000461312
0.00045871
0.000457551
0.000455101
0.000455246
0.00480886
0.00190414
0.00046079
0.00177551
0.000469116
0.000457817
0.000458956
0.000471482
0.0004521
0.000457707
0.000467496
0.000464421
0.00634704
0.00559803
0.000455708
0.00045607
0.000454947
0.00599831
0.000641155
0.000458888
0.000568265
0.00680385
0.00047937
0.000458768
0.000461343
0.00128001
0.00045835
0.000461394
0.000460124
0.000465254
0.000457636
0.00046238
0.000457754
0.00046106
0.0004604
0.000454617
0.000533842
0.000476149
0.000586022
0.000563528
0.000457372
0.00810217
0.000452992
0.000464331
0.00743732
0.00826966
0.000479201
0.000453833
0.000459939
0.000459725
0.000458072
0.000453324
0.00883952
0.00841072
0.000456559
0.000457166
0.00048275
0.000461869
0.00677479
0.00145141
0.000458791
0.000469874
0.000479846
0.00712645
0.000459247
0.00406999
0.000700518
0.00276266
0.000475072
0.00127754
0.00048401
0.000452522
0.000466352
0.000454866
0.00168344
0.00772201
0.000461167
0.000460437
0.000451271
0.000978352
0.000982845
0.000460824
0.000457077
0.000451812
0.000463858
0.000479011
0.000773872
0.000460318
0.00228277
0.000461769
0.00376804
0.00045788
0.000481143
0.000456925
0.000456135
0.00478844
0.00493366
0.000505908
0.000457805
0.000454322
0.000457622
0.000592513
0.000461642
0.000456192
0.000464883
0.000452662
0.000457731
0.000456803
0.000465251
0.000744726
0.000481607
0.000456898
0.00056874
0.000780864
0.000462047
0.000464037
0.00046834
0.000456351
0.000455118
0.00046429
0.000461488
0.000454403
0.000472118
0.00666005
0.000497869
0.000459431
0.00132295
0.000541841
0.0004792
0.000451869
0.000454283
0.00411288
0.000480848
0.000454461
0.00114614
0.000467829
0.000957633
0.000458792
0.00045904
0.000600675
0.000459371
0.00119964
0.000556315
0.00109285
0.00401333
0.00349549
0.000850591
0.000484952
0.000460135
0.000462889
0.000788062
0.00046852
0.000459805
0.000464231
0.00266839
0.000456362
0.00645177
0.000480125
0.00712008
0.000463621
0.000549614
0.000461447
0.000456628
0.000451495
0.00048047
0.000459306
0.000455452
0.000469358
0.00117052
0.00438045
0.00104587
0.00776533
0.000914832
0.000454504
0.000512548
0.000456185
0.000453303
0.0023953
0.000461161
0.000688255
0.000658849
0.00874473
0.00673264
0.000682086
0.000629928
0.00655193
0.00814565
0.00429096
0.000458312
0.000465768
0.000453625
0.000468717
0.00849739
0.00435246
0.000464398
0.00100924
0.00045946
0.000461809
0.000462107
0.000558856
0.00171881
0.000459728
0.00229567
0.00823097
0.000465232
0.00487085
0.000454279
0.00766045
0.00171134
0.000454123
0.000457708
0.000620166
0.000458124
0.000460237
0.000457361
0.000464143
0.000453464
0.000455482
0.000452485
0.00183846
0.00045804
0.00822036
0.00056221
0.000468059
0.000552141
0.000690306
0.000649664
0.000460226
0.00045488
0.000470494
0.000490365
0.00056387
0.000463208
0.000456265
0.00290052
0.000873532
0.000455488
0.000463389
0.000453963
0.000453039
0.000457741
0.000462222
0.000451258
0.000459554
0.00126674
0.000681448
0.00447887
0.000452532
0.00480097
0.000459505
0.000457967
0.000458064
0.000510823
0.000468768
0.000462215
0.000454121
0.000460301
0.000510935
0.00583948
0.000546672
0.00748626
0.00262241
0.000456681
0.000468385
0.00806828
0.000453747
0.000685334
0.0014026
0.0079916
0.000460753
0.00711876
0.00747983
0.000457843
0.0082516
0.00422279
0.000457685
0.000546462
0.000984348
0.000477985
0.000941222
0.00046353
0.00450647
0.000457617
0.000477726
0.000678682
0.000458148
0.000466113
0.000476548
0.000983995
0.00617871
0.000463854
0.00285314
0.000467069
0.00358773
0.00363405
0.00784285
0.00045346
0.000477531
0.000464603
0.00725592
0.00045461
0.000457491
0.0038616
0.00247991
0.000507516
0.000465905
0.000706521
0.000453438
0.000463771
0.00233232
0.000462925
0.00166404
0.00565979
0.00045495
0.00414162
0.000461649
0.000461464
0.00045396
0.000682687
0.000765766
0.0056939
0.000570152
0.000503927
0.00045599
0.00105141
0.000568186
0.000468946
0.00108036
0.000460142
0.00681914
0.00057591
0.000991456
0.000465203
0.00145429
0.000715921
0.0052517
0.00251713
0.000507599
0.00750152
0.000459278
0.000458255
0.000456156
0.000454875
0.000460368
0.000461552
0.000459065
0.00067817
0.000458166
0.000465561
0.000543496
0.00371421
0.000787942
0.000472254
0.000460215
0.00929804
0.000461923
0.000641505
0.000454723
0.000562087
0.00695012
0.000455744
0.000464258
0.000882109
0.000454068
0.000639305
0.00924634
0.00693535
0.000479516
0.00218441
0.000461584
0.000474252
0.000472763
0.000471814
0.00106449
0.000461339
0.000457422
0.000535853
0.00648506
0.000482556
0.000523329
0.000466403
0.000455658
0.00817541
0.000455188
0.000457291
0.000462428
0.000461961
0.00773047
0.000556484
0.000553799
0.000396176
0.000458204
0.00708937
0.000455183
0.000455651
0.000504753
0.00126753
0.00893085
0.000462092
0.000458239
0.000459092
0.000546525
0.000453146
0.000461866
0.00314007
0.00911136
0.00716346
0.00246138
0.00102017
0.000454545
0.00887072
0.000462271
0.0015318
0.000452784
0.000459342
0.000454955
0.000459214
0.000465784
0.000451267
0.00067379
0.000541081
0.00699782
0.000453239
0.000490766
0.000609
0.000459153
0.000638616
0.00405197
0.000460118
0.000455453
0.000465778
0.000474501
0.000457572
0.000455628
0.000465237
0.000452009
0.00351326
0.00523972
0.000453168
0.000461611
0.000459034
0.000459278
0.000468389
0.000458003
0.000518174
0.000458931
0.000558472
0.000464026
0.000460551
0.00702208
0.000453332
0.000466572
0.000457715
0.0018535
0.00645824
0.000464848
0.000465023
0.000457338
0.000463721
0.00190372
0.00652873
0.000370198
0.00527262
0.000454475
0.000602475
0.000461612
0.000460738
0.000748094
0.000460056
0.000456523
0.00706953
0.000461802
0.000463661
0.00918196
0.00713862
0.000578226
0.000461671
0.00046098
0.000463727
0.000456007
0.0049236
0.000454509
0.000458405
0.000654235
0.000454706
0.000468972
0.00401445
0.000488747
0.0079437
0.00669765
0.00285534
0.000522437
0.000464627
0.000465681
0.000459825
0.00429766
0.000634739
0.00609435
0.00046774
0.000465822
0.00860919
0.000469031
0.000476836
0.00062635
0.000469117
0.000468952
0.00382343
0.00719141
0.000791259
0.000452092
0.00520343
0.000750266
0.00047112
0.000454296
0.000458643
0.00179193
0.000473888
0.000460853
0.000458456
0.000465951
0.000570405
0.000453117
0.000455187
0.00200893
0.000458188
0.000452991
0.000469363
0.00525663
0.00464
0.00941685
0.00748393
0.000458722
0.00183034
0.00361601
0.000456514
0.000458573
0.000458456
0.000459301
0.000525587
0.000463648
0.000453485
0.000455402
0.000462362
0.000461967
0.000454709
0.000480035
0.000455838
0.000457935
0.000469046
0.00803653
0.000464962
0.00082929
0.000456756
0.000456125
0.000458273
0.000553873
0.0072112
0.00060815
0.000459315
0.00672425
0.000453734
0.000463489
0.000458604
0.000461091
0.000684578
0.000454643
0.000455929
0.000459872
0.00148739
0.00142929
0.00363895
0.000468489
0.000948017
0.00705859
0.000464651
0.00047108
0.000458893
0.000460555
0.000469102
0.00480674
0.00769283
0.00700633
0.00115092
0.000455602
0.000719089
0.000456783
0.000560918
0.000454171
0.000459094
0.000454922
0.000467453
0.00941557
0.000726197
0.00721056
0.0014721
0.00103642
0.000461961
0.00272562
0.000461916
0.00629259
0.000464719
0.000794538
0.00940582
0.00120379
0.000460859
0.00334879
0.000463699
0.000956245
0.000461649
0.000459099
0.000459328
0.000461844
0.00046885
0.000462709
0.000467331
0.000455614
0.000461972
0.000475212
0.000463493
0.00046113
0.000481991
0.000551953
0.00415247
0.00047246
0.000468467
0.000842568
0.000519177
0.00321186
0.000452176
0.00791742
0.00210998
0.000721166
0.00660845
0.000460462
0.00046073
0.000451931
0.000477033
0.00499108
0.000454022
0.000459545
0.000465965
0.00655815
0.00774658
0.0019265
0.00046371
0.000751375
0.000461971
0.000573681
0.00267018
0.000987429
0.000459315
0.000463705
0.000557367
0.000468965
0.000765349
0.000459247
0.000503293
0.000451078
0.000460798
0.000452117
0.00827917
0.00045669
0.00289962
0.00246273
0.000458981
0.00193188
0.000623469
0.00133693
0.000457115
0.0004621
0.000452303
0.00144135
0.000454436
0.000465373
0.00836054
0.00696956
0.000469445
0.000675636
0.000497163
0.000642508
0.0083661
0.000579395
0.000460555
0.000466423
0.000464317
0.000455498
0.00046073
0.000459672
0.000468969
0.000604637
0.00131389
0.00136653
0.00101425
0.00503862
0.000459515
0.000869213
0.000464689
0.000471258
0.00045823
0.000461963
0.00045998
0.000482295
0.00789309
0.00047939
0.000463636
0.000473737
0.000451688
0.000488127
0.000456527
0.000466601
0.000464501
0.00515386
0.000458384
0.000461527
0.000473062
0.000854717
0.00116618
0.0004622
0.000462223
0.00674739
0.000500719
0.000453412
0.00860438
0.000458907
0.000454074
0.00611121
0.000459537
0.00804083
0.00113379
0.000465866
0.004117
0.000464599
0.000903911
0.000455471
0.000506574
0.000454
0.00047454
0.000549747
0.000466625
0.00565955
0.00647469
0.00071537
0.000459874
0.000495067
0.000459256
0.000852566
0.000453518
0.000455831
0.000459042
0.00884765
0.000463864
0.0004566
0.000459694
0.000459381
0.00102128
0.000461614
0.000631121
0.000498754
0.000458899
0.000456718
0.00569421
0.00435734
0.000454327
0.000945864
0.000460141
0.00045388
0.00257244
0.000451509
0.00723976
0.00147943
0.000462938
0.000451928
0.000453674
0.000470406
0.00608923
0.00668108
0.000545202
0.00525563
0.000468298
0.000462769
0.00118553
0.000533553
0.000463738
0.000569819
0.000474775
0.000603991
0.00790255
0.000643932
0.000462367
0.000458627
0.000458288
0.000535084
0.000542427
0.00566128
0.00122223
0.000722814
0.000458776
0.00045389
0.00691625
0.000457637
0.00659492
0.0021201
0.00213544
0.000887779
0.00066999
0.000455381
0.000461892
0.00106679
0.000458191
0.000462024
0.0013333
0.00104124
0.000467362
0.00647104
0.000601706
0.000452934
0.000462459
0.000556691
0.00576997
0.000454025
0.000453071
0.00235566
0.00853355
0.000456519
0.00744727
0.00234966
0.00615642
0.0033683
0.000460561
0.000464264
0.00896831
0.000525033
0.000459378
0.000554425
0.00347957
0.000463908
0.000458167
0.000456046
0.000458799
0.000454965
0.00344249
0.000456047
0.00760667
0.000465668
0.00175485
0.000470306
0.00300867
0.000458478
0.000460967
0.000455238
0.000558529
0.00789674
0.00323765
0.000456529
0.00623678
0.000454434
0.000569482
0.000452981
0.00046412
0.00406431
0.000886411
0.00885066
0.00792347
0.000453384
0.000544141
0.000463436
0.000462476
0.00750753
0.000466614
0.000459711
0.000459454
0.000462969
0.000465704
0.000475504
0.000458228
0.0088573
0.00755864
0.000452055
0.000458269
0.00119927
0.00698902
0.00609984
0.000466806
0.000458935
0.00811526
0.00290271
0.000475408
0.000507101
0.000458487
0.00226953
0.000457549
0.00144813
0.000457048
0.000478603
0.000463122
0.000457397
0.000540873
0.000467341
0.000474381
0.00755995
0.000465107
0.0080639
0.000465371
0.000718163
0.00610546
0.000457431
0.000462282
0.000455361
0.000617782
0.000458273
0.000454189
0.000457469
0.00724425
0.00775089
0.000551876
0.000463922
0.000454166
0.000464328
0.000703466
0.000451271
0.000461747
0.000468451
0.000453404
0.000465624
0.000464477
0.00858717
0.000480901
0.00502013
0.000563603
0.000453737
0.000725857
0.000454768
0.00795578
0.000831628
0.000457718
0.00600649
0.000484584
0.000452962
0.000457007
0.000456541
0.00045544
0.000463288
0.000459683
0.000731311
0.000460938
0.000451123
0.000462924
0.000651251
0.000462253
0.00129245
0.000459869
0.000504253
0.000894544
0.000549936
0.000486289
0.000462523
0.002233
0.00046109
0.000772057
0.000537577
0.000541015
0.000461528
0.000843691
0.000463294
0.000468499
0.000456717
0.000545341
0.00324167
0.00714337
0.000477306
0.00857819
0.000454868
0.000463696
0.000458645
0.00049423
0.0013872
0.000514965
0.000525314
0.00791144
0.00479769
0.000508502
0.000465083
0.000457986
0.000460918
0.000455553
0.000725603
0.000458679
0.000466713
0.000581284
0.000476511
0.00791843
0.0012071
0.000466537
0.0070212
0.000460173
0.00109091
0.0087038
0.000549863
0.000461881
0.00328383
0.000453161
0.00045997
0.00340278
0.00380962
0.000455876
0.000457705
0.000479863
0.000460599
0.0017513
0.00045781
0.000536863
0.00677451
0.000463764
0.000454802
0.00770324
0.000514646
0.00535716
0.000453294
0.000453562
0.0011934
0.000459651
0.000463223
0.000453908
0.00045474
0.000635134
0.00196682
0.000458409
0.000457517
0.000692613
0.00783264
0.00877487
0.000488874
0.00552458
0.00100295
0.00765105
0.00399198
0.00788509
0.000456142
0.000453613
0.000783726
0.000464145
0.000504997
0.000543603
0.000451764
0.0056892
0.000565637
0.000456129
0.000458426
0.00352287
0.00667935
0.00719906
0.000459641
0.00759096
0.000464569
0.00053905
0.000469011
0.00460915
0.000927305
0.000454514
0.000460118
0.000462712
0.00753255
0.000470385
0.00498943
0.00370606
0.000785198
0.000460971
0.000453154
0.000454566
0.000459702
0.000464293
0.000478489
0.000451091
0.000472125
0.000458583
0.00045677
0.000988083
0.000463318
0.000456021
0.00548491
0.000456301
0.000542203
0.000453766
0.00829256
0.00091157
0.000494215
0.000508796
0.000452122
0.000536312
0.000455637
0.00246698
0.000457984
0.00261016
0.000459082
0.000470928
0.000459276
0.000466281
0.000457668
0.00538487
0.000836713
0.000461975
0.00101847
0.00396881
0.00118144
0.000455222
0.00938009
0.000457157
0.00828343
0.00456895
0.000466119
0.000458853
0.00902501
0.000469041
0.00816063
0.000461202
0.00725426
0.000457779
0.000464504
0.000737682
0.000452138
0.00386695
0.00047046
0.000452233
0.00607114
0.000637822
0.000469465
0.000458246
0.000456352
0.00284602
0.000727109
0.000628815
0.00857097
0.000465613
0.00562334
0.000459849
0.00045537
0.000460591
0.00376447
0.00654782
0.000461033
0.000610964
0.000457031
0.000470643
0.000458309
0.000453094
0.000461427
0.00878128
0.000472624
0.000456915
0.00107577
0.000452509
0.000876458
0.000730493
0.00786218
0.000788724
0.000458129
0.000552819
0.000829835
0.000482184
0.000451522
0.000454085
0.000452991
0.000479165
0.000468967
0.000480246
0.000520774
0.000461912
0.000459315
0.00045438
0.000455015
0.000583438
0.000462232
0.000452575
0.000456656
0.00045931
0.000545852
0.00078389
0.00704458
0.000462465
0.0053428
0.0051856
0.00826472
0.00656496
0.0046857
0.00055448
0.000733579
0.00821328
0.000461706
0.00056987
0.0004563
0.00488483
0.00065225
0.000461893
0.000456114
0.00363396
0.000451648
0.00111537
0.00626101
0.00135971
0.00834815
0.005263
0.000452478
0.000500164
0.000500886
0.000455117
0.000460527
0.000462713
0.000468359
0.000461321
0.000703174
0.000456207
0.00046261
0.000478531
0.000454581
0.000615671
0.000457896
0.000467232
0.00541003
0.000477276
0.000469643
0.000463991
0.00828825
0.000462194
0.000456896
0.000451836
0.000462726
0.000466155
0.000456554
0.000800183
0.000455064
0.000473557
0.000453976
0.000453841
0.000531037
0.000703853
0.000460732
0.00046767
0.00348064
0.00103031
0.000464548
0.000467344
0.000459644
0.00707746
0.00317048
0.000458256
0.000459748
0.000941901
0.0018189
0.000467076
0.00118007
0.000578162
0.000678643
0.000455447
0.000467507
0.00738304
0.000452862
0.000457759
0.00197318
0.000582203
0.00766871
0.00894668
0.00216799
0.00759175
0.00489185
0.000456079
0.00934702
0.000458957
0.000461205
0.000460183
0.000455711
0.00911242
0.000464258
0.00050948
0.00201858
0.00431434
0.0039026
0.000991351
0.000461524
0.000453587
0.00693896
0.000452921
0.00226606
0.000462954
0.000456912
0.000456928
0.000456085
0.000460821
0.000461852
0.000453179
0.000455948
0.000456832
0.00899717
0.000453144
0.000469055
0.000977694
0.000479908
0.000461099
0.0004556
0.000806518
0.00743436
0.000457892
0.000456151
0.000546887
0.00103145
0.000947814
0.00876564
0.000597494
0.000455054
0.000463985
0.000479063
0.00046724
0.00716687
0.000484409
0.000457222
0.000466226
0.000458859
0.000503412