/*--------------------------------*- C++ -*----------------------------------*\
| =========                 |                                                 |
| \\      /  F ield         | OpenFOAM: The Open Source CFD Toolbox           |
|  \\    /   O peration     | Version:  v2012                                 |
|   \\  /    A nd           | Website:  www.openfoam.com                      |
|    \\/     M anipulation  |                                                 |
\*---------------------------------------------------------------------------*/
FoamFile
{
    version     2.0;
    format      ascii;
    class       volScalarField;
    location    "100";
    object      p;
}
// * * * * * * * * * * * * * * * * * * * * * * * * * * * * * * * * * * * * * //

dimensions      [0 2 -2 0 0 0 0];


internalField   nonuniform List<scalar> 
18618
(
0.0272648
-0.0722611
-0.0036063
0.0452268
0.023029
0.068962
-0.137448
-0.0705639
-0.0715214
-0.0842854
0.0224475
0.0316209
0.00911812
0.0297368
0.0187772
0.0703889
-0.00664454
0.0277479
-0.00171631
-0.0754748
0.0183675
-0.106575
0.00281932
0.0311611
-0.19455
-0.0716652
-0.0587441
-0.26411
0.0551822
-0.00308815
0.0325566
0.0110726
-0.0671519
0.0149209
0.101725
-0.0876477
0.00451693
-0.099073
-0.0740121
0.00306771
-0.0902264
-0.0904178
-0.090435
-0.0915439
-0.0366845
0.123293
-0.0761013
0.036741
-0.0633074
-0.0923157
-0.0566346
-3.5179e-05
-0.0237865
0.0677227
-0.0723272
-0.0979803
0.0131476
-0.0754555
-0.0869917
-0.108328
-0.0690077
-0.11199
-0.0624317
0.016331
-0.0965066
-0.0716851
-0.106673
-0.039375
0.00923781
-0.0898583
-0.0699135
-0.00135732
0.0288984
-0.0735274
-0.0752415
-0.0834207
0.0299973
0.0326038
0.00821713
-0.0727796
-0.0278751
0.0147243
0.0490724
0.0442641
-0.109975
0.00433724
-0.0898512
-0.0879511
-0.107275
-0.169121
0.0103142
-0.0698479
-0.0815785
0.00466421
-0.0696116
-0.109632
0.0331828
-0.0744991
0.0151577
-0.0809716
-0.0922496
-0.167561
0.0112608
-0.0810825
0.0467282
-0.0663584
-0.18421
0.0128817
-0.113348
-0.110538
-0.0788141
-0.0392527
-0.0765256
-0.114407
0.0357416
0.00339884
-0.135152
0.0458203
-0.0262212
-0.0777238
0.0885411
-0.00396395
-0.0310275
0.0602898
-0.0617871
-0.0680593
-0.0159924
-0.0961978
-0.111949
-0.0795429
-0.097108
-0.0980233
-0.0757756
0.0140481
0.0139324
-0.0535107
0.0241507
-0.0789098
-0.218349
0.0283196
-0.0706988
-0.114536
0.00844508
0.0143717
-0.0381854
0.035424
0.00516705
0.0483938
0.0151934
0.0431976
-0.0714695
0.0238209
-0.0682898
0.062898
-0.0299247
-0.0707203
-0.0792115
-0.0336264
-0.000679417
-0.365376
-0.0613331
0.0316799
-0.133669
-0.0723163
0.0377308
0.0507274
0.0455237
-0.0853437
0.0390053
-0.0750545
0.0278001
-0.0661861
-0.0710372
-0.119474
-0.0902697
0.0453259
-0.0848375
0.0634393
0.0186918
-0.0385495
-0.0727023
0.100163
-0.304775
0.0287179
0.0197773
0.0596598
-0.0734392
0.11022
-0.088463
0.0290588
0.0243605
0.0993076
0.0523492
-0.00665264
0.00823151
-0.0967863
0.0284435
0.0334741
-0.0813421
-0.0380525
-0.0683463
-0.0745445
-0.0747067
-0.0772408
-0.066635
0.0542108
-0.070407
-0.168108
0.0211242
0.00292191
-0.0975422
-0.0945683
0.00907815
0.00534334
0.0265675
0.0270902
-0.0863884
-0.197105
0.0863577
-0.00873493
0.0421827
-0.0291496
-0.0727097
0.027418
-0.0850295
0.0382069
-0.00326905
-0.0760425
-0.108804
-0.0406194
0.0473792
-0.0411585
0.0127691
-0.0702162
-0.0382965
0.0211075
0.0294905
-0.076399
-0.0752704
-0.024297
-0.0719396
-0.000173964
0.0266541
-0.0797485
-0.0764367
-0.0793214
-0.0971416
0.0209941
-0.0808909
0.0469753
0.00491003
-0.0946785
0.0337437
-0.0981754
-0.0569156
-0.0163404
-0.073728
0.0268843
0.00294383
-0.00892168
0.035489
-0.0869364
-0.201025
0.0968086
-0.100943
-0.0976139
-0.0724706
0.039332
-0.0693342
0.113862
-0.0752905
0.0243258
-0.000461939
0.0351047
0.0278049
0.0908387
-0.0471333
0.040437
-0.0112413
-0.0740393
0.0198746
-0.072763
0.0406033
0.0243016
-0.0749284
0.0467998
0.00766697
0.0770406
-0.0616745
-0.0705766
-0.00547453
-0.0645069
0.0434441
-0.0697316
-0.279251
-0.124535
-0.0701765
-0.0929927
-0.132572
0.0103018
0.056199
0.0161208
-0.0441698
0.055015
0.0228126
0.0210675
0.0358902
-0.0963414
-0.0722002
-0.0799235
-0.0735277
0.00274754
0.0982631
0.0273701
0.0291236
0.0291057
0.0235296
-0.0596613
-0.0731499
-0.101251
0.00524505
-0.0721181
0.026138
-0.0760037
0.0285127
-0.095015
-0.0729434
0.0296962
-0.0206632
-0.323454
-0.0176276
-0.295694
0.0355404
0.029284
-0.0540712
0.0243278
-0.110379
0.0104241
-0.0234172
-0.0822339
-0.0652214
-0.0623637
-0.211236
-0.0819383
0.0229174
-0.0612495
0.00597216
-0.0701722
-0.0652831
0.00312289
0.0344799
-0.0068881
-0.093383
0.0242169
0.0349826
0.0196945
0.025966
-0.065439
0.0615222
-0.000554841
0.0130005
-0.0743673
-0.0877189
-0.0774141
-0.0904433
-0.0994485
0.026985
0.028915
-0.0830149
-0.0763547
0.0100948
0.0429299
0.112872
-0.0359522
0.00537607
0.0322792
-0.0763318
0.086914
0.0198562
-0.0888426
-0.0798251
0.0261114
0.00823242
-0.0199082
0.0751661
0.00948279
-0.0591097
-0.338801
0.0265958
-0.072594
0.0649449
0.0280699
-0.0719176
-0.0796339
0.0345274
0.140213
-0.0680876
-0.0910192
0.0207154
-0.0964834
0.0431836
-0.064676
-0.0476818
-0.0724777
0.0100687
-0.0729816
0.024145
0.0448693
-0.0597595
0.0357775
-0.00501289
0.0260316
0.0103898
-0.00663557
0.0448665
-0.0716185
0.00339892
-0.0273583
-0.0352859
-0.0371564
0.00322861
-0.0683168
-0.0459699
-0.0363749
0.00936897
-0.261118
-0.0716992
-0.0377873
-0.111739
-0.0922889
0.0278198
0.0268169
0.119933
0.0168268
0.005887
0.114654
0.0297681
0.0484907
-0.0805811
-0.0676297
0.0834253
-0.112276
0.046092
-0.0195367
-0.0755573
-0.0620637
0.0618963
-0.12638
-0.0677181
0.0217282
0.0556893
0.0272041
-0.0896492
0.0332776
0.0219799
-0.0862817
0.0355327
-0.00135367
0.0213301
-0.091721
-0.0732054
-0.0377207
0.219956
0.0216142
-0.0822949
0.0320146
0.0216841
0.0257773
-0.0789781
0.00924496
-0.0377499
-0.034088
-0.0366829
-0.0714772
-0.0425155
0.00560385
-0.0690787
-0.0485261
-0.0734836
-0.0147036
0.134751
0.0844902
-0.0815005
-0.026653
0.0286787
0.0477054
-0.0799815
-0.0208239
0.00852327
-0.0425463
-0.0727271
-0.26936
0.0254069
0.0290622
-0.115981
-0.0806853
-0.0715177
-0.148283
0.0828978
0.0285073
0.0278649
0.0146898
-0.110027
0.021566
-0.0490145
-0.0712895
0.0512016
0.0640269
-0.074057
-0.0128251
-0.0898254
0.012378
-0.0491719
-0.0486564
-0.0617569
0.0260427
-0.0229391
0.0289107
-0.0372004
-0.089626
-0.0052949
0.0258852
-0.0923655
-0.0612245
-0.00750867
0.0208225
-0.10229
0.0326463
-0.0816835
0.0229721
-0.0864741
-0.146728
0.0518091
0.0575796
-0.0720155
0.0262811
-0.067472
0.0278607
0.0130431
0.0108689
-0.0645098
0.0997746
-0.0902152
0.0730518
0.0295716
0.025818
-0.0728762
-0.102692
0.00235786
0.0404673
0.024915
-0.0718826
0.00231769
0.00416145
-0.105691
0.00821412
-0.107998
0.02186
-0.0656467
-0.0716153
-0.231834
-0.0228285
-0.122089
0.0664052
0.0291258
-0.0928903
-0.0731996
0.0259
-0.0703291
0.0347753
0.0203542
-0.0744911
0.0309044
-0.0721945
-0.138625
-0.091067
-0.102347
-0.0548252
-0.0731379
0.00334286
-0.0227739
0.084258
-0.0463119
0.0257838
0.0335982
0.00332853
0.0248185
0.00889202
-0.168971
0.207655
0.0200139
0.0129156
0.0268097
0.00392138
0.022214
-0.0241625
-0.115648
-0.0855255
-0.078895
0.0158478
0.027775
-0.0966677
0.0187717
0.040824
0.0353697
-0.0184463
0.0205126
-0.0194712
0.0186253
0.0345232
-0.131552
-0.0721125
-0.0909887
-0.130033
-0.168111
0.0108429
-0.0492291
-0.0817626
0.0401706
0.06717
-0.0224187
0.00878261
-0.074491
-0.0571635
0.0262556
-0.0738405
0.00229838
0.0390139
-0.0848253
0.0324005
0.0580473
0.0312269
-0.141303
-0.0187286
0.0208589
-0.0816464
-0.0753143
0.00620299
-0.146585
-0.0784949
0.00808098
0.0247541
-0.117465
0.119485
0.00909785
-0.094473
0.168116
0.0599717
-0.00193591
0.0845589
-0.112791
0.0294533
0.00802347
-0.0329375
-0.0211863
0.0284393
0.0199862
-0.0871301
0.0158253
0.0239599
-0.12365
-0.0772825
0.0249711
0.0138811
-0.0743981
0.0262909
-0.0515592
0.0221872
0.114182
0.0600968
-0.103974
0.0278505
0.0287432
0.0410566
0.0145525
-0.0799323
-0.0967051
-0.0729835
-0.225945
-0.0681858
-0.0847577
-0.0539143
-0.0744897
0.0222504
0.0301217
-0.106649
-0.0720132
0.0307279
-0.0472074
0.0303508
-0.0828407
0.00587339
0.0236608
0.0328155
-0.070618
0.0171131
0.0518401
0.0237043
0.023614
-0.0915073
-0.0726172
-0.0021256
0.0288174
-0.0708343
-0.0241593
0.00842995
-0.0534691
-0.0815301
-0.032885
0.0155921
0.00372777
0.0496582
-0.0425739
-0.0806875
-0.167997
-0.0742356
-0.0411922
-0.0977784
0.00780389
0.00831083
-0.0685274
0.00321236
-0.167878
-0.116882
-0.0775872
-0.0791868
-0.0972642
-0.00539249
0.0308678
-0.0532907
-0.0705613
-0.0962893
0.0270173
-0.0214857
-0.0739317
0.00186894
-0.0924673
-0.104481
0.00610521
0.0182657
0.0979979
0.0292259
0.0883335
-0.147019
-0.128833
-0.0706607
-0.0388628
-0.0787772
-0.0764016
-0.0938792
0.0110367
-0.0738466
0.0275475
0.00750299
-0.084523
0.00370286
-0.165533
0.0259525
-0.0317937
-0.102488
0.0335697
-0.00151654
0.022185
-0.0576625
0.0384095
-0.0944026
-0.118018
0.00161972
-0.0673623
-0.163412
0.0214383
0.0859288
-0.0149637
0.0220814
0.0403632
0.0195292
-0.0695426
0.0999966
0.0157591
0.0216614
0.0274256
-0.123311
0.00361336
0.0426392
-0.0801931
0.0132219
0.00551205
-0.0863849
-0.0932704
-0.0820244
0.0216232
0.00884739
-0.0907273
0.0589755
0.0263383
-0.0868034
-0.065849
-0.074289
-0.0713176
0.0459602
0.0511237
0.024611
0.0117221
-0.0405315
-0.0659823
0.00761476
-0.072205
-0.0421845
0.00505413
-0.123154
-0.0860921
0.00372627
0.162153
-0.0805129
0.0301841
0.0242647
-0.0143767
0.00903217
0.0613237
-0.0236493
-0.0658929
0.0889593
0.0027708
-0.0741042
0.00476699
-0.0859699
-0.127749
0.0246392
0.0051714
0.0295175
0.0215407
0.00128305
-0.0718087
-0.0858598
-0.00790888
0.0269952
-0.0719716
0.0363842
0.0133392
0.0318593
-0.0724729
-0.00557272
0.0131104
0.0613544
0.00870641
-0.0911775
0.00832945
0.0364042
0.00230884
0.0241056
-0.168058
-0.0742143
-0.0711676
0.0375642
-0.074356
-0.0853203
-0.0956607
-0.0861798
0.00357683
-0.11006
0.0413399
0.124603
0.0773707
-0.0614344
-0.0749438
0.0602647
0.0250453
0.031932
0.0454539
0.0315538
0.00686525
-0.0716757
0.0156715
0.0125142
-0.072529
0.0394963
0.154419
-0.167731
0.0403556
0.0301106
0.0297808
0.0115193
-0.0784296
0.0462692
0.0215015
-0.096337
-0.0739416
-0.0699246
-0.0246696
-0.112658
-0.140206
-0.0626211
0.0230792
-0.00325389
-0.126853
0.0393477
0.0179811
0.0117727
0.00305805
0.042028
0.0258768
0.0287605
-0.1053
0.0194415
0.00833314
0.231969
-0.0724133
0.0276142
0.013991
0.0219998
0.026537
0.0276535
0.0403827
0.00120396
0.00865315
-0.074
-0.0742925
-0.105889
0.0288333
-0.0207111
-0.0455424
-0.0219489
-0.0639204
0.088728
-0.0871744
-0.0747169
-0.0814806
0.0295437
0.0253517
-0.0734641
-0.0785776
-0.0632744
0.0160041
0.0243278
-0.0352841
0.0386918
0.062871
-0.0703834
0.0346393
0.0274244
-0.0778353
-0.0702654
-0.0563336
-0.0667196
-0.0714484
-0.167377
0.0331409
-0.0386044
-0.0722054
-0.0526317
-0.0853733
-0.0045374
0.00509714
0.0165894
-0.0144842
0.00469002
0.0307787
-0.0126636
0.0219248
-0.0209791
-0.0927906
-0.0387058
0.00435071
-0.0363179
0.0453559
0.0397676
-0.0142271
-0.12668
-0.106264
0.0125583
-0.0206048
-0.0824688
0.0469275
-0.00555924
0.0134553
0.0115495
-0.106949
-0.0108842
-0.0462687
0.058803
-0.130445
0.0394842
0.0336321
-0.0914495
-0.0473001
-0.122198
0.00735386
-0.0885182
0.0262041
0.0344135
-0.0725783
0.0144659
-0.0708005
0.0197836
-0.0866689
-0.245158
-0.0586236
-0.0771325
-0.0891372
-0.066698
-0.0968637
0.0286924
0.0330818
0.0198113
0.023309
0.0244177
-0.0433787
-0.0021365
-0.091625
-0.0617621
0.0868445
0.00653413
0.0239835
0.0290303
0.026389
0.0198876
0.0259907
-0.0268353
0.0752749
0.00920442
0.0263331
-0.0998334
0.0076536
-0.0817009
0.0107747
-0.0703741
0.00919614
-0.0736893
-0.0718869
-0.107475
-0.0628951
0.00864134
-0.0746821
-0.0887224
0.0451966
-0.109559
0.0268068
-0.0745409
-0.0811071
0.0116958
-0.0784552
0.000310574
-0.0722227
-0.0611278
0.0060451
0.0310105
0.0274849
-0.0203892
-0.070516
0.0294349
-0.0639018
-0.0214906
0.0288284
-0.095643
0.0805491
0.0356823
-0.0725987
0.0075433
0.027546
-0.238331
0.0995502
0.0230663
-0.0691337
0.0160549
0.0034213
-0.0712986
0.00644359
0.0113498
0.0427127
-0.0415151
-0.0621257
-0.108828
0.0310956
-0.0750468
0.00670496
0.0229776
0.0566544
-0.0147214
-0.0229701
-0.0985581
-0.13757
-0.0464879
0.0215937
-0.102941
-0.153911
-0.0864358
0.0141526
0.0338909
0.0478564
-0.00617606
0.0271646
-0.0313989
-0.0140947
-0.0118667
0.00531867
0.0398755
-0.00362347
0.0293869
-0.0341753
0.0391945
0.0128425
-0.0698984
-0.0913891
-0.104681
-0.113438
-0.0594107
-0.0634634
0.0228967
-0.0738162
-0.0937556
-0.0505609
-0.0394877
0.190429
-0.0715697
-0.10233
0.0219213
-0.0314372
-0.110003
-0.0719526
-0.091752
0.023808
-0.0928507
-0.0623565
0.106981
0.031203
-0.0521551
0.00660049
-0.024173
-0.0235231
-0.0288073
-0.167905
-0.113166
0.0349359
0.00202654
0.028624
0.0355192
-0.0968298
0.00969416
-0.0613777
0.0122916
0.009008
0.0246149
0.00870613
0.0231424
-0.0979348
-0.0451448
-0.065433
0.0388713
0.0370496
-0.0748049
-0.0594413
-0.0724856
0.0282007
0.0343149
-0.144491
0.0329808
0.0224841
-0.00177325
0.0285598
-0.0769741
0.00293384
-0.0583702
-0.0704922
0.010639
-0.0619191
-0.109712
0.0233222
0.0239957
-0.0137171
0.00490847
-0.0528691
-0.0121865
-0.178373
-0.00675017
0.0296859
0.0261682
-0.0805296
0.0241758
-0.168414
-0.157919
0.012929
-0.0700754
-0.0823977
-0.0784513
-0.20185
0.0278681
-0.0486556
-0.057272
-0.152525
0.023223
-0.0272081
0.0124876
-0.0241325
0.0101726
-0.0838357
-0.0990932
0.0039931
-0.111305
0.0278682
-0.0168463
0.0292459
-0.0408522
-0.00499261
0.0334248
0.0221436
0.0224963
-0.0810827
-0.185789
0.010153
0.0175615
0.00238784
-0.0973028
-0.0705052
0.0399328
-0.0599989
-0.073804
-0.0296103
0.0166325
0.0306645
-0.0727016
0.0232182
0.0359611
0.0404146
0.0293802
0.0112945
0.0213943
-0.01732
0.0368624
0.0422362
-0.00296742
-0.0666183
-0.0293162
-0.0796008
-0.0605304
-0.0269701
-0.0776752
-0.0182912
0.0224346
-0.0727612
-0.07205
-0.0591859
-0.0109245
0.0228059
0.0201782
0.0570852
-0.00623546
-0.0715062
-0.0741498
0.0143302
0.0343196
-0.0309422
0.0332542
-0.134523
0.0639924
0.0395061
-0.0328422
-0.055234
-0.0732219
0.0288208
-0.0742384
0.192382
-0.151417
0.000202795
-0.100139
-0.0428723
0.0027853
0.027842
0.00965418
-0.168878
-0.137215
0.0953377
0.0247536
0.00340319
-0.087637
-0.0711431
0.0918963
0.0143865
-0.012441
-0.0047027
-0.064258
-0.076653
0.0408178
-0.0825327
0.0348044
-0.096131
0.0201434
-0.0603645
0.0131642
0.011164
-0.115068
-0.11617
-0.0579507
0.00538153
-0.00876746
-0.0195218
-0.0787763
0.0359541
0.0193977
-0.0125257
0.00234274
0.0420065
0.0191136
0.0293593
0.0962112
-0.0558836
0.0199935
-0.0620687
-0.069525
0.0768941
-0.0381862
0.0263425
0.0137104
0.00878531
-0.0401065
0.0947481
0.00704794
0.0490596
-0.0974337
-0.0432402
0.0609053
-0.102613
0.186039
-0.0633035
-0.00369116
0.00534446
-0.0980591
-0.0649646
0.00833958
-0.0707762
0.114944
-0.0709221
0.0688799
0.0388128
-0.0854082
0.039287
0.0113341
-0.0717333
-0.083098
-0.141823
-0.166637
-0.0771377
-0.0558054
0.0411859
-0.0465181
-0.069591
0.024973
0.0444316
0.0277505
-0.100441
0.0182289
-0.0863028
-0.0401965
-0.146346
0.0208968
-0.0568033
0.000911117
0.0253657
-0.00909874
-0.0648087
0.0789412
0.00463235
-0.0480809
-0.0972699
-0.147337
-0.0851519
-0.0733483
-0.0729636
-0.0192463
-0.0780524
-0.00527023
0.00648151
-0.0989373
0.0188884
-0.0695559
-0.0353184
-0.0916222
-0.144358
-0.0729501
0.0266897
-0.096602
-0.146605
-0.0833626
-0.0269058
0.0413263
-0.0113092
0.0277847
-0.0921971
-0.114367
-0.0124354
-0.103742
0.0603136
0.0707927
0.0273407
-0.0795582
-0.0801991
0.0286383
-0.0737698
-0.0740522
0.0292254
-0.128595
0.00628643
-0.0944125
-0.117944
0.00639209
0.0235692
0.0219318
0.0584862
0.0358057
0.0161236
-0.0437747
-0.0164125
0.0115377
0.00579384
-0.0866831
-0.0264797
-0.0743402
-0.0389091
0.116339
-0.0624223
-0.0674898
-0.0671323
0.0241251
0.00735197
-0.0427824
-0.0369173
-0.0640511
-0.00345651
0.0201309
-0.0946666
-0.0698669
-0.0227872
0.0224679
0.00554328
0.00629407
-0.0266838
0.0073085
0.00397882
0.0569599
-0.0157263
-0.06742
-0.0741666
0.00345269
-0.0928666
0.0218369
-0.02714
0.00773964
-0.0786612
0.0249839
0.0340961
0.00620376
-0.0130252
0.152077
-0.214512
-0.0635584
-0.251639
-0.0990606
0.015036
-0.0469575
-0.140052
0.00470874
-0.0673037
-0.0931614
-0.138024
0.0354721
-0.0724453
-0.108495
0.0345248
-0.0784417
-0.0816313
-0.033842
-0.064145
-0.0703755
-0.0256477
-0.0919632
0.0319349
-0.0728303
0.0402882
-0.0300758
-0.0674632
-0.0348919
0.0430955
0.000484894
-0.0917387
-0.109806
0.0314088
-0.0737158
-0.0494938
-0.0706486
-0.091032
-0.167324
0.00419764
0.0382273
0.0238142
-0.12543
0.00654514
0.0410076
-0.0990266
-0.0697911
-0.0583439
-0.0350696
-0.058257
-0.0167145
0.0289224
-0.113183
-0.0462776
-0.112336
-0.0915014
0.00950459
-0.113392
0.0218025
-0.0424954
0.00513609
-0.0688908
-0.108412
-0.132374
0.133788
-0.0638825
0.0164666
-0.0733633
-0.0434985
0.0271284
-0.0722973
0.086864
-0.0704949
-0.0830349
-0.100438
0.0294304
-0.0850238
-0.0772653
-0.117358
-0.111544
-0.0706085
-0.0957213
0.0233953
0.0198686
0.00917063
-0.0253722
0.0405323
-0.0424745
0.0217639
-0.0940103
0.0303252
0.0293228
-0.0602669
-0.081202
0.0994086
0.136168
0.0195603
-0.0994854
0.00515755
-0.0787912
-0.00632363
-0.0617558
-0.0918393
-0.0295656
0.0240555
0.0184018
0.00704179
-0.0666812
-0.11799
-0.0867479
-0.0645884
-0.0730465
0.033634
0.103557
0.0107952
0.0433395
-0.0728134
0.098881
-0.0100287
-0.0526975
-0.0800298
-0.0520439
-0.0805275
0.0628104
-0.0286541
-0.0789193
-0.025909
0.0303335
0.104327
0.0195767
-0.147182
0.174524
0.177541
-0.105766
0.030472
-0.125211
0.00901816
0.0123563
-0.00507219
-0.0812799
-0.074402
0.0372938
0.0193316
0.0408625
-0.0575171
0.000980058
0.0222298
-0.112037
-0.0800343
-0.0731359
-0.0874275
-0.0708226
0.00870541
-0.0713023
0.0338005
-0.084541
0.00426341
0.058066
0.00799233
-0.0138775
0.0229069
0.0034526
-0.100892
-0.0725453
-0.187375
0.00394398
0.0301912
-0.0911132
0.0354364
-0.0712241
-0.0953142
0.0195701
0.00771217
0.0225702
0.138598
0.0409419
-0.0282715
0.0296509
-0.00415834
-0.0773158
-0.0717628
-0.00738979
0.00263407
0.040421
0.0391503
0.0222405
0.0544575
0.122179
0.0604719
-0.0595177
-0.0441962
0.0396688
-0.081891
-0.00695746
0.0219436
0.0404945
-0.0751165
-0.124747
0.0227373
0.0229003
-0.010042
0.0258071
-0.101662
-0.0788279
-0.10979
-0.0723383
0.00958259
0.0612045
0.0498162
0.0357636
0.176928
0.0410772
0.023761
-0.0781738
0.0740901
0.0288029
-0.079562
-0.0760636
-0.073646
0.010202
0.0755644
0.0305782
0.0119493
-0.130271
-0.00790617
0.028761
0.197909
0.00942928
0.0231215
-0.0796028
-0.0144193
-0.1881
-0.0839671
-0.0751981
0.12688
0.0237089
0.0935653
0.0833534
-0.0716483
-0.0718852
-0.298592
0.121941
0.0218182
-0.074202
0.0230439
0.0448543
-0.0175592
0.0226978
0.0226479
-0.111014
-0.07072
-0.109911
-0.00581103
-0.167651
0.196779
-0.0341105
0.00802332
0.0702821
-0.0717328
-0.00273612
0.0265739
0.0670818
-0.0108624
-0.0622795
0.000995202
0.00984787
-0.0722087
-0.0235982
0.00326584
0.0262027
-0.0720932
-0.167254
-3.09756e-05
-0.0745169
-0.021738
-0.0813055
-0.0828431
0.0182455
0.0454791
0.0180839
0.035062
-0.08115
0.0316427
0.0065684
0.0103897
0.0368671
0.0267607
0.00757985
-0.0158608
0.0109971
0.024352
0.0277481
-0.0734201
-0.0393494
-0.0796203
0.0178238
0.0142861
0.0182789
-0.0735809
-0.115905
-0.0714413
-0.0128842
-0.0696394
0.00348539
0.0226539
-0.0240037
0.0192807
0.201096
-0.0201195
0.0118151
0.0201291
-0.120982
-0.079804
-0.0832612
0.0253439
-0.0836021
-0.0783912
0.0226784
0.0114364
0.0310173
0.0246994
0.026652
-0.0746135
-0.0818706
-0.0830851
0.113023
0.0101824
-0.0781161
0.0262372
-0.0611796
-0.00801439
0.0591754
0.00908334
0.027471
-0.0988126
-0.0706834
-0.0710553
-0.119508
-0.0780337
0.0243304
-0.0678026
0.0337133
-0.308138
0.0235385
-0.0693453
-0.0957157
-0.0836876
0.0320786
-0.0687341
0.0243796
-0.0717658
0.0199978
0.0402248
0.0685225
0.0340751
0.124292
-0.0198853
0.027583
-0.0300756
0.0290849
-0.0154693
0.0318131
-0.0439165
0.0348054
-0.0744937
-0.147777
0.0231505
0.0252302
-0.0706865
0.103328
-0.137989
0.00132064
-0.092299
-0.0876029
-0.0699346
-0.0778411
0.0403076
0.0197217
0.00138927
-0.0461994
-0.112754
-0.00647786
0.0389951
-0.00925706
-0.292574
-0.0736171
-0.0994423
0.0232029
-0.0768445
0.0288897
-0.0735165
-0.125961
-0.0964691
0.0491935
0.0309955
-0.0805755
0.0270518
0.21654
0.0170298
-0.0666641
0.0036146
-0.0431556
0.00101574
-0.0718231
0.0187987
-0.0813797
-0.124038
0.0395066
-0.0975284
0.0622275
-0.165299
0.0315465
0.0702301
0.00563444
-0.100017
-0.00879779
0.029586
-0.167766
-0.283557
0.027759
-0.0737536
-0.0491711
-0.0930739
-0.0788687
0.139933
0.0445329
0.0609745
-0.0324929
-0.0180218
0.0197319
0.0344564
0.0267456
-0.070578
-0.00395971
-0.0715697
-0.110427
-0.190171
0.0811623
-0.0843103
0.0306945
-0.0432269
0.0483594
0.101371
0.0313548
-0.045094
-0.0703821
-0.0409648
0.0302303
0.139293
0.00143596
0.00650694
0.0232514
0.0286625
0.0232662
-0.14147
0.058958
0.0302589
0.110999
-0.0706467
-0.0707715
0.0735794
-0.000457013
-0.071924
-0.0508496
0.00577188
-0.191745
0.0168746
0.00787942
-0.112542
0.0515933
-0.0816639
-0.105307
0.0293136
-0.134327
-0.00361432
-0.0758353
0.0118648
-0.0704155
0.00502197
0.0233462
-0.0618421
0.0677586
-0.0739537
-0.0974351
0.176215
0.0431725
0.00655066
0.0797342
-0.0705892
-0.0038354
0.0132985
0.0304792
-0.193905
0.0291485
0.0187863
0.0427714
0.0256975
-0.0699071
-0.00232236
-0.0949549
0.00416356
0.0313058
0.0239155
-0.206633
-0.0727525
-0.0014808
-0.0705079
0.0200992
-0.0121619
-0.0771718
-0.00348831
-0.0717964
-0.0830093
0.0242138
-0.0057028
-0.0114772
-0.0435982
-0.324336
-0.124057
-0.055905
0.0426679
-0.0416459
0.0223623
-0.108843
-0.0812086
0.0292964
-0.0391106
-0.060437
0.0241842
-0.211892
-0.0953645
-0.01955
0.0578527
0.0475971
-0.0536975
-0.082696
-0.0750552
-0.0824126
-0.0779169
0.0599069
0.00465659
-0.0981871
-0.0274596
-0.302503
-0.0765874
-0.0862397
-0.0803887
-0.0669271
0.0110278
0.0329923
-0.103935
0.058518
-0.0171621
-0.106691
-0.0739369
0.0275248
-0.146318
-0.0662389
0.00280763
0.0214441
-0.0604432
-0.0701835
-0.00140124
0.00450841
-0.0818369
-0.073815
0.00786708
-0.0865996
-0.0770359
-0.0834764
-0.0952291
0.0380495
0.0227476
-0.0747342
-0.065687
0.0566043
-0.0621764
-0.0772066
0.0209773
0.0554828
-0.024092
0.0755296
0.000548842
-0.0819665
0.0174275
-0.0733248
0.022704
-0.0862046
-0.0497602
-0.0741036
0.0587787
0.0264517
0.00801441
-0.0607737
-0.0721315
-0.100889
0.0134442
-0.0919677
0.00611519
-0.0635359
0.00500207
0.0232896
-0.102707
-0.0869015
-0.0734789
-0.0852085
-0.00495409
0.199649
0.0304137
0.0328077
-0.0956463
0.117713
0.0465399
0.0574423
0.0317199
0.0225295
0.0277335
0.050629
-0.106776
-0.0965498
-0.00222885
0.0602164
-0.11385
-0.0742284
-0.271819
0.0283992
0.0325017
-0.0884956
-0.109994
-0.0026439
-0.0575045
0.0459762
-0.166758
0.0222266
-0.108536
0.0128678
0.0706617
0.0243544
-0.0323622
-0.0580515
0.0282823
0.0873931
-0.0724389
0.0800212
-0.0794939
0.029404
-0.0593754
-0.259636
0.0222849
0.0270943
0.0104249
-0.0901196
0.0192844
0.00724713
0.0169164
-0.0704984
-0.0724388
-0.0497751
0.0303694
-0.00720852
0.0299577
0.212798
-0.00074115
0.0538473
0.0271286
-0.00450992
0.115695
-0.00199098
-0.196924
-0.0469292
-0.0731408
-0.0635177
-0.0123588
-0.0790778
0.00379533
-0.0715257
-0.0699777
0.0401441
-0.317655
0.119245
-0.0175713
0.0327892
0.0237753
0.0110482
0.0224411
0.0441951
-0.0736584
0.0193244
-0.000967347
0.0295821
-0.0663861
0.102633
-0.0750788
0.033671
-0.0176777
-0.074631
-0.0626961
-0.0165497
0.0215408
-0.120966
0.0317401
-0.0701781
-0.0377481
-0.0567873
0.0201422
-0.0700836
0.0316616
0.0222441
0.025257
-0.0774015
-0.121499
-0.0882187
0.101949
-0.0735979
0.0092458
0.0314849
0.0307581
-0.0427916
-0.082133
0.032338
0.107694
-0.0746078
-0.180716
-0.0563586
0.0295986
0.0162208
0.0201809
0.0112835
-0.0780811
0.0303609
0.0284274
0.0203386
-0.013628
-0.0907759
-0.108631
0.0816127
-0.0784932
0.010595
-0.0959197
-0.069698
0.00765769
0.0358798
-0.0817726
0.00607308
0.0314746
-0.0808077
-0.114633
0.0126169
0.000824985
-0.0604054
0.0202065
-0.0718745
0.0415461
-0.0734026
-0.118611
-0.0484301
0.0080347
-0.259383
-0.0788013
-0.167773
0.00514201
0.0054872
-0.0955661
-0.00794374
0.0317567
0.00569369
0.00775291
-0.0700936
-0.0719203
0.0430383
0.0365365
-0.102564
-0.0838988
-0.0762881
0.120855
-0.100957
-0.0752262
-0.0835476
-0.0893819
-0.0706131
0.0149102
0.00409875
-0.0758665
0.0291143
-0.0723893
-0.057749
-0.0121006
-0.114743
-0.0632628
0.0146083
0.0286818
-0.0696443
-0.146397
-0.0700658
0.0474694
-0.0939868
0.0854166
0.0749834
-0.0427703
-0.177387
-0.0705859
0.00669744
0.0415959
-0.00347001
-0.110079
-0.0465301
-0.145489
-0.166359
-0.0742302
0.0495046
-0.00610526
-0.00209121
0.0519716
0.027513
0.0671389
-0.00130992
0.137328
0.0448217
-0.0338513
-0.0767122
0.03434
0.0130104
-0.0975286
0.0133596
-0.0579243
-0.0210873
-0.258122
-0.0710936
-0.0627485
-0.0582669
-0.00267365
-0.066755
0.0119725
-0.0916571
-0.0215737
-0.0820658
0.0709406
0.129002
0.0301224
0.0275127
0.0370358
-0.0908901
-0.0697346
0.0240705
-0.0822231
-0.0789176
-0.0995233
-0.0247059
-0.0928832
0.0185899
-0.0746739
-0.171923
0.022907
0.0413908
-0.076466
0.022788
-0.0707021
0.010052
-0.1183
-0.0334023
0.0306001
-0.0729139
-0.00462764
-0.163541
0.135183
0.00433273
-0.0968066
-0.0663491
0.0276587
0.0361751
0.00822256
-0.0832845
-0.0723177
-0.0692391
-0.0718139
0.0290684
-0.0978006
0.044978
-0.00552005
-0.0237078
-0.0801836
-0.0909645
0.0322953
-0.093286
0.0242208
0.134089
0.0528169
0.00474297
0.0247245
-0.0711715
0.0549924
0.0325099
-0.106571
-0.00517452
-0.0759425
-0.0790841
-0.181563
-0.0690192
0.0424833
-0.0597309
-0.0705541
-0.0442179
-0.000742788
0.000186055
0.00611041
-0.027911
-0.0392233
-0.0411276
-0.0816689
0.023999
0.0455834
0.00534219
0.00885399
-0.0633449
0.0265802
0.00203492
0.0169708
0.0290483
-0.0407922
0.164157
-0.128083
0.0242589
-0.0731018
-0.153763
-0.118264
-0.102727
-0.151468
-0.0596047
-0.0800857
-0.0716343
0.0361407
-0.0555049
-0.00523817
-0.0950618
-0.0796813
0.0217358
0.0184121
-0.0759808
-0.0032741
-0.109355
-0.082536
-0.074824
-0.230871
-0.110733
-0.00955478
-0.0478804
-0.0457924
-0.013137
0.0874826
0.0329285
-0.0544986
0.0320828
0.103162
0.01922
0.0297196
-0.0177036
0.00844576
-0.0913336
0.0163678
-0.0532593
-0.16759
-0.0470649
-0.0298356
0.0292554
-0.194704
0.0560043
0.0310053
0.00366128
0.0819719
0.0276634
0.0244996
-0.0740425
0.00959346
-0.0134547
-0.00653338
0.00524534
-0.063189
0.183353
0.0388027
0.028116
-0.0695047
0.139525
0.024118
0.0281973
0.0390571
-0.0740578
-0.157217
0.0161599
0.0202172
-0.0397266
-0.0919037
0.0259561
0.0611819
-0.0807494
-0.067768
-0.023337
0.117619
-0.101118
0.00399393
0.0184359
-0.0739923
-0.0635201
-0.0702301
-0.0836249
-0.115912
-0.105687
-0.150475
0.0139878
-0.115546
0.0421555
0.0340542
-0.00912045
-0.00567556
-0.0920326
0.0231921
0.0363393
-0.164664
-0.071641
-0.136041
-0.0957241
0.0220627
-0.000842279
-0.13585
0.000598633
-0.0773508
0.011836
0.0304308
0.0312913
0.0162733
0.0900374
0.0304031
0.000519473
-0.0211941
0.0306864
-0.0736054
0.0035687
-0.041388
-0.073457
-0.0285157
0.0246108
0.00161131
0.165331
-0.0716359
0.0488228
-0.00834923
-0.0493804
-0.0919161
-0.0804646
-0.0732291
0.0189099
0.00996688
0.0301399
-0.0585822
0.026003
-0.0793759
0.00891911
0.0105586
0.0288051
0.0681937
-0.0599348
-0.0657232
-0.0481484
-0.0699324
-0.070939
-0.0870793
-0.0714998
0.0179465
0.0282939
0.00473794
-0.0700804
-0.073549
-0.105124
-0.300686
0.0192149
0.0223294
0.0203826
-0.0872254
-0.107888
-0.0191709
-0.0747999
-0.0489231
-0.0175066
-0.104388
-0.000486304
0.0127131
-0.0881542
0.0138976
-0.0628631
-0.0558448
0.0234396
-0.073291
0.0228221
0.0664957
-0.0906319
-0.0922295
0.0107173
-0.0726141
-0.0541711
0.0225591
-0.0832898
0.0439619
-0.0312931
-0.0851391
0.00952476
0.0259935
0.0157918
-0.0810104
-0.0156519
0.0417293
0.0225164
-0.282522
0.0374297
0.00343271
-0.0465645
-0.0829895
0.0055184
0.0117823
-0.125008
0.0365602
-0.00178665
-0.0856522
-0.0750367
0.00306259
-0.0922678
-0.0526351
0.0486354
-0.110376
0.000565411
0.0141234
0.0215573
0.027667
-0.0609862
-0.190778
0.07037
-0.0622397
-0.0833575
-0.091508
-0.0730732
-0.0101922
-0.101702
-0.0236605
0.00597104
-0.0168858
-0.0737579
-0.0876217
-0.00607673
0.0657617
0.0330829
0.0274062
0.0283939
-0.0495086
-0.0535562
-0.0238641
0.00330995
-0.0754924
-0.0389919
-0.0568785
-0.0859321
-0.112924
-0.115908
0.0334101
-0.0704358
-0.0875454
0.0320915
-0.0249151
-0.189453
0.0302212
0.0261029
0.000153172
0.0487193
-0.1429
0.00250658
-0.0721397
-0.111263
0.014087
-0.0475921
-0.160521
0.0511184
-0.0307666
0.00752981
0.00951009
0.00857443
-0.075608
0.0258062
-0.0583238
0.00113935
-0.0915596
0.0383947
0.0144942
-0.0898641
0.0148506
0.0218796
0.0655127
0.0628272
-0.0937891
-0.0494289
0.0196689
0.00952993
-0.0949643
-0.0713704
-0.00247516
0.00542301
-0.0955214
-0.0674176
0.0303243
-0.0778618
-0.0733915
-0.0110361
0.0057964
0.131639
-0.0147988
-0.119486
0.0221588
-0.174987
-0.325628
-0.0843363
0.0616914
-0.0990133
-0.0616365
-0.0256046
0.0288705
-0.0848407
-0.109961
-0.0707074
0.0681688
0.0428641
0.0315133
0.011423
-0.0711503
-0.0863356
-0.0872134
-0.109796
-0.0731402
-0.101653
0.0104732
0.0589868
-0.0843286
-0.0718757
-0.122492
-0.0820994
-0.106576
0.0230183
0.00454171
0.0779394
-0.0932213
-0.0892135
0.0128328
-0.102957
-0.00384492
-0.033387
-0.0721134
0.012092
-0.0624847
-0.143532
-0.112315
-0.167754
0.0392516
-0.0768851
0.0177077
-0.0604943
-0.0928937
-0.110981
-0.153804
-0.102016
-0.0720972
0.0164141
-0.0504466
0.083939
-0.0896688
-0.132355
-0.0801871
-0.0564244
0.070391
-0.0907735
0.00122648
-0.0842339
-0.0754382
0.0120063
-0.0756344
0.00891692
0.000176117
-0.0750771
0.022928
-0.0889923
0.0386411
-0.0765354
0.0198466
0.0158542
-0.0905836
-0.0587082
-0.0758762
-0.0771487
0.0519439
0.024036
-0.091873
-0.0102063
-0.00535614
0.0156917
0.0486792
-0.0718584
-0.109433
-0.201745
-0.0100055
-0.0759017
0.032166
-0.0955408
-0.0870565
0.00534567
-0.0838146
-0.105308
-0.0720604
-0.08418
-0.0705603
-0.0725604
-0.0771325
-0.0504281
-0.0723326
-0.0879152
-0.0925271
-0.16745
-0.0981896
0.104846
-0.0799612
-0.0737162
-0.0551483
-0.359774
-0.0721917
-0.0719382
0.00290432
-0.0719171
0.0153726
-0.0812046
-0.0748794
-0.0896165
-0.0343212
-0.0728638
-0.0751118
-0.0736409
-0.215819