/*--------------------------------*- C++ -*----------------------------------*\
| =========                 |                                                 |
| \\      /  F ield         | OpenFOAM: The Open Source CFD Toolbox           |
|  \\    /   O peration     | Version:  v2012                                 |
|   \\  /    A nd           | Website:  www.openfoam.com                      |
|    \\/     M anipulation  |                                                 |
\*---------------------------------------------------------------------------*/
FoamFile
{
    version     2.0;
    format      ascii;
    class       volVectorField;
    location    "100";
    object      U_0;
}
// * * * * * * * * * * * * * * * * * * * * * * * * * * * * * * * * * * * * * //

dimensions      [0 1 -1 0 0 0 0];


internalField   nonuniform List<vector> 
18618
(
(0.999691 0.0269851 -1.26174e-22)
(1.09312 0.0720688 0)
(1.02923 0.0214431 -1.38366e-21)
(0.982222 0.00346727 6.19513e-21)
(1.00358 0.0233191 6.28159e-21)
(0.95706 -0.0034096 -6.95843e-21)
(1.14462 0.100765 -3.28489e-20)
(0.560581 0.0481271 0)
(1.09209 0.0656743 0)
(1.10441 0.042416 -1.59391e-20)
(1.00414 0.0230755 0)
(0.995502 0.0253071 -3.07e-21)
(1.01398 0.000573983 -1.27457e-21)
(0.997235 0.027538 -1.17619e-20)
(1.00629 0.0127533 -2.02882e-21)
(0.955416 -0.0043477 9.99588e-22)
(1.03233 0.0202405 -3.15871e-22)
(0.999235 0.0263783 8.18026e-21)
(1.02581 0.00746036 0)
(1.06128 0.0637377 1.11732e-20)
(1.00664 0.0126759 0)
(0.696974 0.0179869 4.48536e-20)
(1.02013 0.0054128 0)
(0.995982 0.0247684 6.89779e-21)
(1.19758 0.201442 0)
(1.09236 0.066094 -1.03597e-20)
(1.07613 0.114316 0)
(1.11088 0.52772 -4.52576e-20)
(0.944184 0.22723 8.4466e-21)
(1.02867 0.0213628 1.2797e-21)
(0.993993 0.0443022 8.62795e-21)
(1.01533 0.0356239 -2.14297e-21)
(1.08907 0.0225898 -6.52456e-21)
(1.00874 0.00852919 -1.81609e-21)
(0.921917 0.0309823 -1.97637e-20)
(0.915746 0.0427415 0)
(1.02079 0.018901 -5.35881e-22)
(1.12076 0.0523814 2.41398e-20)
(0.583573 0.046658 1.31082e-21)
(1.01988 0.00550327 -8.12886e-22)
(0.333471 0.0203287 3.12467e-20)
(0.725749 0.0224676 -1.14582e-21)
(0.716682 0.0513338 -1.80499e-20)
(0.679354 0.0695873 8.6045e-21)
(1.06031 0.0582604 -4.99521e-21)
(0.896908 0.0497681 1.5844e-20)
(0.63258 0.0466809 0)
(0.98469 0.106902 -1.33568e-20)
(1.08275 0.0873833 3.19228e-21)
(0.898885 0.0515986 3.23961e-20)
(1.07407 0.11536 9.09601e-21)
(1.02614 0.0357075 0)
(1.03847 0.152081 6.23939e-21)
(0.936886 0.201433 0)
(1.03514 0.0610745 -2.78e-21)
(1.11925 0.0515353 0)
(1.00042 0.162838 0)
(1.0963 0.0465374 5.61721e-21)
(0.329549 0.0179882 -3.03439e-20)
(1.01992 0.0500354 0)
(0.489576 0.037714 -2.33784e-20)
(1.06306 0.0670352 -2.02886e-20)
(1.08201 0.0881975 2.51204e-21)
(1.00594 0.00180875 0)
(1.11565 0.0926695 0)
(1.09059 0.0872299 -6.10552e-21)
(1.03153 0.0510799 0)
(1.06294 0.055206 5.2047e-21)
(1.01354 0.000987213 -2.56042e-21)
(0.342251 0.0175292 2.27367e-20)
(1.09055 0.0597264 5.97831e-21)
(1.02537 0.0075115 -6.24171e-23)
(0.998935 0.000524837 -7.12256e-21)
(1.09038 0.0671114 0)
(0.354119 0.0295983 0)
(0.895736 0.0403621 0)
(0.997672 -0.0010376 0)
(0.994638 0.0162226 -8.54633e-21)
(1.01494 0.00734126 4.17036e-21)
(1.09165 0.0879862 3.73094e-21)
(1.05269 0.0436417 3.23625e-21)
(1.00887 0.00829202 3.69232e-21)
(0.97772 -0.0044096 7.84785e-21)
(0.981672 0.0553689 9.40649e-21)
(0.660302 0.0154237 -4.40744e-20)
(1.02116 0.0205511 0)
(1.10932 0.0874309 -6.07583e-21)
(0.358212 0.0179341 -1.81965e-20)
(1.06531 0.0667896 1.9193e-20)
(-0.0107505 0.0794611 -2.3755e-20)
(1.01477 0.0168138 0)
(0.507813 0.0377449 2.03392e-20)
(1.10484 0.0628936 0)
(1.01858 0.00727648 -1.11345e-21)
(0.532806 0.0393622 -2.04319e-20)
(1.06481 0.0679355 0)
(0.993427 0.0421428 0)
(1.09488 0.0626945 -1.65719e-20)
(1.00743 0.000696587 0)
(0.672033 0.0484323 0)
(0.915529 0.0517919 -2.8881e-20)
(0.00211357 0.0486149 0)
(1.01514 0.0346343 0)
(1.10301 0.0622185 9.46411e-21)
(0.952756 0.227405 4.86926e-21)
(1.08679 0.0687927 1.19039e-20)
(1.19182 0.201808 2.66265e-20)
(1.00935 0.00135362 1.24114e-24)
(1.06781 0.0682195 -1.93812e-20)
(1.10311 0.0776759 1.77052e-20)
(0.397025 0.0223439 1.12232e-20)
(1.06379 0.0230433 0)
(0.650459 0.0464514 0)
(0.479084 0.0440319 -1.1048e-20)
(0.9919 0.00974772 3.97161e-21)
(1.01962 0.0059329 -2.51464e-22)
(1.1527 0.105532 2.23201e-20)
(0.981666 0.00408418 0)
(1.04005 0.156179 2.7252e-21)
(0.372599 0.031746 0)
(0.936199 -0.000854971 -2.32653e-20)
(1.02992 0.0413599 -6.54985e-22)
(1.05574 0.0434052 4.48464e-21)
(0.966507 0.00475799 0)
(1.08274 0.0703106 -1.64386e-20)
(1.08787 0.0777608 3.19836e-21)
(1.04042 0.0652941 0)
(1.11449 0.0938697 0)
(1.12734 0.116714 -1.11529e-22)
(1.10006 0.0462312 -2.55346e-20)
(0.687601 0.0547031 0)
(1.05189 0.056596 8.82531e-21)
(1.05206 0.0627314 -2.96792e-21)
(1.00071 0.157199 2.05718e-21)
(1.01053 0.0122914 1.74818e-21)
(1.07622 0.0497585 1.03995e-20)
(1.00132 0.00797742 3.02359e-21)
(0.413467 0.022693 -5.20217e-21)
(0.827178 0.0544674 1.43558e-21)
(0.998646 0.021153 0)
(0.525333 0.0428174 -4.69683e-21)
(1.10654 0.0785647 1.4592e-20)
(1.0146 0.00701678 -2.18026e-21)
(1.00795 0.00121162 -4.83106e-23)
(1.06276 0.0231601 3.71996e-21)
(0.992197 0.00946964 -7.82148e-21)
(1.01689 0.00199772 3.83614e-22)
(0.97844 -0.00486822 -2.46144e-22)
(1.00723 0.000900132 -2.83214e-21)
(0.983758 0.0297368 -8.8974e-21)
(1.08759 0.0674299 -3.15635e-23)
(1.00287 0.0243459 1.66441e-21)
(1.09005 0.0182455 -6.29452e-21)
(0.963736 0.0209989 0)
(1.05467 0.0430775 -1.34282e-21)
(0.550526 0.0419991 -4.58708e-21)
(0.868206 0.0497572 0)
(1.05497 0.0920368 -3.76877e-21)
(1.02676 0.0329231 0)
(1.03092 0.563815 -3.70889e-20)
(1.08236 0.0695961 2.10977e-20)
(0.990038 0.105415 -2.57245e-21)
(0.882031 0.0457056 2.36193e-20)
(1.08472 0.0672412 -1.16044e-20)
(0.990059 0.0032754 0)
(0.972087 0.0891821 -3.51238e-21)
(0.980442 0.0539039 -1.95572e-21)
(0.625896 0.0195989 -1.81048e-20)
(0.98853 0.0151211 0)
(1.09545 0.0626653 2.04329e-20)
(0.999989 4.28161e-05 -1.4269e-20)
(1.08819 0.0215767 -1.29609e-20)
(1.09009 0.084921 -2.34832e-20)
(1.12638 0.16709 3.06951e-20)
(0.696975 0.0521345 -2.8422e-21)
(0.981593 -0.00417322 1.58293e-21)
(1.0324 0.405127 -1.49034e-20)
(0.963222 0.0227132 7.44284e-21)
(1.00367 0.000550074 -1.67643e-21)
(1.06189 0.0620084 7.00672e-21)
(1.09379 0.0685685 2.64836e-20)
(0.923601 0.0283064 0)
(1.12063 0.518333 0)
(0.999015 0.000956893 -6.94755e-21)
(1.00252 0.000443529 -4.43848e-21)
(0.959149 0.120608 6.27654e-21)
(1.09248 0.0686958 -1.08387e-20)
(0.83649 0.363258 0)
(1.107 0.0886722 5.96055e-21)
(0.997976 0.0273512 5.03576e-21)
(1.00128 0.0087862 6.42744e-21)
(0.920663 0.086799 -2.79331e-20)
(0.970537 0.0875278 3.08026e-21)
(1.03233 0.0208095 4.85358e-22)
(1.01474 0.00670375 0)
(1.11249 0.0568979 1.52949e-20)
(0.998523 0.0206972 3.49799e-21)
(0.993128 0.0434917 5.55385e-22)
(0.620341 0.0506756 0)
(1.0616 0.0586242 9.91656e-21)
(1.08816 0.0769385 4.09264e-22)
(0.782477 0.0365149 0)
(1.0849 0.0661071 0)
(0.59387 0.0508611 0)
(1.01416 0.407262 -8.1605e-21)
(0.971283 0.0567405 1.39675e-21)
(0.554678 0.0424459 1.85706e-20)
(0.00220246 0.0471173 2.95834e-20)
(1.00115 0.00029442 -7.50556e-21)
(1.0204 0.00712858 -4.95515e-23)
(1.11427 0.101066 0)
(1.11088 0.101802 1.0832e-20)
(1.01659 0.0581789 1.86457e-21)
(1.01667 0.00187606 0)
(1.00029 0.0344913 1.00007e-20)
(0.999775 -0.000926563 -2.60365e-21)
(0.889847 0.050449 0)
(1.19393 0.186146 7.93527e-21)
(0.938507 0.00411004 1.46618e-21)
(1.03471 0.0315588 -1.75422e-21)
(0.984865 0.0298848 0)
(1.05385 0.0439127 1.6187e-21)
(0.634228 0.0413177 0)
(0.999537 -0.00123655 0)
(0.367643 0.0203424 -2.37647e-20)
(0.989588 0.00354586 -7.49666e-23)
(1.02923 0.0407543 0)
(1.09369 0.0952118 0)
(1.12294 0.118258 1.91255e-20)
(1.06411 0.0553677 -4.02186e-22)
(0.978268 0.0592831 -1.55361e-20)
(1.06446 0.0588896 -3.29257e-21)
(1.00969 0.00106935 -2.43631e-21)
(0.534942 0.0419407 -2.34239e-20)
(1.06152 0.0628443 0)
(1.00166 0.0019948 4.79466e-21)
(0.99837 0.000330477 -7.294e-21)
(1.09672 0.0609115 -1.72013e-20)
(1.07951 0.0654349 2.09213e-20)
(1.04975 0.023429 -6.83419e-21)
(1.09238 0.0724256 -1.00627e-20)
(1.02629 0.0347986 0)
(0.999583 0.0068465 -2.95227e-21)
(0.653678 0.048565 -1.19124e-22)
(1.09725 0.0459232 0)
(1.10011 0.0216731 -2.19783e-21)
(1.11454 0.0564711 -7.19158e-21)
(1.00172 0.00191779 0)
(0.402828 0.0228242 0)
(0.980267 0.00314741 -8.93319e-22)
(1.01826 0.00703129 -2.32907e-21)
(0.722671 0.022116 0)
(0.987705 0.107882 -5.91086e-21)
(1.06707 0.0561293 2.52529e-20)
(1.0792 0.0517618 6.51604e-21)
(1.04069 0.0666652 0)
(1.09413 0.0633126 0)
(0.999442 0.00736882 5.09186e-23)
(1.01967 0.00396235 -6.51193e-22)
(1.03485 0.0324803 -2.2305e-21)
(0.992002 0.0105676 1.39301e-22)
(0.901265 0.0514138 0)
(1.19527 0.193503 -7.84062e-21)
(0.927372 0.0229752 -1.86994e-20)
(0.710368 0.0203967 0)
(1.11834 0.0548854 0)
(1.09294 0.0645355 0)
(0.98195 0.108913 3.53833e-21)
(1.0888 0.0811379 1.42967e-20)
(0.906437 0.0652196 -1.66583e-20)
(1.09308 0.0967629 1.42608e-20)
(1.00116 0.00764379 4.16727e-21)
(1.02632 0.0484933 0)
(0.992415 0.0107558 8.57746e-21)
(0.999976 9.12626e-05 6.23463e-21)
(0.932259 0.0638562 1.54855e-20)
(1.06968 0.0628572 -9.98931e-21)
(0.986464 0.0366725 -4.61577e-21)
(1.03707 0.0259012 1.26469e-21)
(0.633334 0.0423426 1.70653e-20)
(1.004 0.00644441 0)
(1.09368 0.0510301 1.09584e-20)
(0.987036 0.00940687 0)
(1.002 0.0491051 0)
(0.616121 0.0470306 0)
(0.980519 0.00263425 2.12314e-22)
(1.01772 0.0195722 -1.72033e-21)
(0.932524 0.171712 -1.1384e-20)
(1.08267 0.0682482 5.16299e-21)
(1.09111 0.0615381 2.99253e-20)
(1.0306 0.0128976 -7.64573e-22)
(1.08576 0.0592846 1.2216e-21)
(0.984149 0.00482979 1.67702e-20)
(1.09138 0.0180172 0)
(0.882032 0.0943157 2.53073e-20)
(1.13033 0.171273 -3.03666e-20)
(0.559598 0.0387662 0)
(0.92033 0.0515462 0)
(0.870855 0.047353 -3.00018e-20)
(1.01605 0.0322935 3.76721e-21)
(0.96285 0.120913 -6.65742e-21)
(1.00618 0.00195814 1.42424e-21)
(1.06515 0.0865461 -1.04908e-20)
(0.970547 0.0551556 -1.20505e-21)
(1.00188 0.00618165 0)
(1.00124 0.000233626 6.76903e-21)
(0.991419 0.0201418 6.70747e-21)
(0.718869 0.0533447 0)
(1.09113 0.0857131 2.84303e-20)
(0.896772 0.0509332 0)
(1.09912 0.0676182 1.78292e-23)
(1.01994 0.00412056 3.4057e-22)
(0.841638 0.386017 -1.04925e-20)
(0.999621 -0.00110003 0)
(0.998738 0.000102237 -4.72837e-22)
(0.997928 0.020384 -1.84465e-21)
(1.00289 0.0481966 2.84747e-21)
(1.08248 0.0240373 -9.6135e-23)
(1.09422 0.0441481 1.02593e-20)
(1.12338 0.0806398 -8.50659e-21)
(1.01682 0.00154851 -2.38757e-21)
(1.09806 0.0690092 -4.8577e-23)
(0.999827 0.00433739 0)
(0.7591 0.0352719 1.78097e-21)
(0.999298 0.000504307 6.85379e-21)
(1.11737 0.0555657 3.7053e-20)
(1.09857 0.0697684 9.6823e-21)
(0.997298 0.0204552 9.976e-21)
(1.04631 0.0159469 7.5896e-22)
(1.08535 0.242881 3.52359e-20)
(1.03731 0.116084 0)
(0.80075 0.0828145 -1.47385e-20)
(0.991725 0.0208526 -8.43397e-23)
(0.998575 0.000122773 4.73151e-22)
(1.07673 0.0504777 -5.96881e-21)
(1.00123 0.00819602 -1.19819e-20)
(1.02141 0.0487496 3.26673e-20)
(1.01523 0.0585452 -1.19242e-21)
(1.04889 0.0234974 7.01568e-21)
(0.945904 0.0539408 -2.14027e-20)
(1.0865 0.0577292 -2.95214e-22)
(1.08173 0.0908321 -5.89543e-21)
(0.761948 0.0387772 2.25274e-20)
(1.09579 0.128873 0)
(1.00176 0.0059667 0)
(1.08199 0.0731855 -4.68206e-21)
(1.01886 0.0708797 -1.47454e-21)
(1.08943 0.0829408 -7.32148e-21)
(1.08646 0.0590706 0)
(1.01992 0.00587634 7.75281e-22)
(0.993322 0.00282961 7.5602e-21)
(1.03202 0.0109272 -3.72167e-23)
(0.949533 0.0523539 0)
(1.00057 0.00355786 -4.28345e-21)
(0.992552 0.0117309 -7.87134e-21)
(1.00265 0.000351497 0)
(0.999915 0.00418492 -7.27964e-22)
(1.08676 0.0583951 1.06789e-20)
(0.965094 0.00448033 -9.49893e-21)
(1.02648 0.0473826 8.83243e-23)
(1.01011 0.00677976 6.11988e-21)
(0.615668 0.0459608 -1.11925e-20)
(0.69778 0.022278 -4.7271e-21)
(1.09819 0.0440081 0)
(0.66806 0.0526959 -2.69099e-20)
(0.666962 0.0170275 -1.84666e-22)
(0.999367 0.00675658 4.22186e-21)
(0.998898 0.000714311 4.50083e-21)
(1.10333 0.0417098 -2.3727e-20)
(1.09674 0.061476 2.22156e-20)
(1.01493 0.0163025 -2.33501e-21)
(0.984655 0.00426278 -1.07476e-20)
(0.909981 0.00429073 9.8215e-21)
(1.05934 0.0628838 1.60603e-20)
(1.01672 0.00142098 2.43834e-21)
(0.994912 0.0165673 9.85779e-21)
(1.0937 0.10017 0)
(0.937782 0.00542704 1.22854e-22)
(1.00394 0.00617087 0)
(1.10872 0.0110505 -1.36571e-22)
(1.09364 0.13087 0)
(0.999975 0.00017948 0)
(1.01714 0.0194523 9.19043e-22)
(1.04556 0.0160875 4.98186e-21)
(0.928532 0.202336 0)
(1.01389 0.00837566 0)
(1.07782 0.101732 0)
(0.983693 0.203121 8.34483e-22)
(0.999633 0.00715931 2.99226e-21)
(1.09356 0.051889 0)
(0.961543 0.0232443 -1.79154e-20)
(0.998681 0.00550485 9.30456e-21)
(1.08819 0.067432 1.21617e-20)
(0.386466 0.0240176 1.52994e-20)
(0.993276 0.0024101 -1.6543e-20)
(0.834247 0.277111 2.77614e-20)
(0.498478 0.0371759 -9.99611e-21)
(0.960821 0.0534531 0)
(1.00194 0.0019056 0)
(0.739463 0.0525885 1.1462e-20)
(0.984367 0.00349399 -2.8471e-21)
(1.08686 0.0255695 -1.07144e-20)
(1.07134 0.0346674 0)
(0.832002 0.0462972 0)
(1.01324 0.00812733 0)
(1.08601 0.0673669 2.52283e-20)
(1.00125 0.0074075 -3.49623e-21)
(0.98098 0.0570983 6.48543e-21)
(1.08249 0.0251174 1.24778e-20)
(0.991889 0.0088428 8.7639e-21)
(1.03098 0.0325327 -2.66173e-22)
(0.999989 8.81918e-05 0)
(1.01293 0.00819808 0)
(1.03173 0.0105635 0)
(0.981244 0.0523091 1.9685e-21)
(1.09266 0.0494894 0)
(1.01914 0.00389725 -8.82006e-22)
(1.05265 0.0221442 9.91473e-21)
(1.05649 0.0906662 -4.29178e-21)
(1.06048 0.0631953 -7.73174e-21)
(1.02003 0.00702668 0)
(0.523764 0.0406669 0)
(1.06975 0.0357782 -1.34421e-20)
(1.06007 0.056998 5.35586e-21)
(1.01394 0.00805172 -1.35403e-21)
(0.864779 0.0820967 -4.92757e-20)
(1.09271 0.0505024 -1.05462e-20)
(1.0624 0.0243571 -4.0086e-21)
(1.12945 0.0425738 0)
(0.902727 0.0516433 0)
(0.998853 0.00541957 -7.79041e-21)
(0.999501 0.007688 0)
(0.901133 0.0513926 3.26272e-20)
(1.00544 0.00147258 0)
(1.01909 0.0165378 5.26416e-22)
(0.90561 0.0680914 2.19144e-20)
(0.997901 -0.00100294 -6.88667e-21)
(0.978802 0.00185545 1.39215e-20)
(1.10099 0.0793762 -3.04514e-20)
(1.088 0.0698596 6.7697e-21)
(0.940309 0.0610172 -1.00182e-20)
(1.12668 0.0440291 -7.96209e-21)
(0.980809 -0.00407576 -2.17561e-21)
(1.04128 0.0954412 5.02699e-22)
(0.636613 0.045305 9.92683e-21)
(1.08303 0.0689306 0)
(0.962676 0.0670809 -1.6464e-20)
(0.735133 0.0557223 0)
(1.08814 0.0679853 1.681e-20)
(1.00188 0.00377622 0)
(0.967145 0.0883706 8.1203e-21)
(0.999809 -0.000799841 5.29353e-21)
(1.10947 0.0152035 -1.18382e-20)
(0.987102 0.117999 1.30331e-21)
(1.00217 0.00527214 5.40154e-21)
(1.10486 0.0877182 1.13304e-20)
(0.99214 0.00849778 -9.65038e-23)
(1.02744 0.0335821 0)
(1.00509 0.0478611 -1.60331e-21)
(0.607361 0.0157543 0)
(0.84842 0.0482119 -3.72025e-21)
(1.06233 0.0332653 -1.06384e-20)
(0.76292 0.17641 -3.73248e-20)
(1.00206 0.00413117 5.17852e-21)
(1.09666 0.123146 0)
(0.994746 0.0415451 -6.11987e-21)
(1.00235 0.00523954 0)
(0.999995 7.66052e-05 -4.63545e-21)
(1.09947 0.0780294 2.01589e-20)
(1.01443 0.0097724 -1.51902e-21)
(1.06226 0.0339139 8.42103e-21)
(1.05522 0.0938158 3.39881e-21)
(1.06137 0.0243801 0)
(1.06421 0.0643856 3.51254e-21)
(1.06646 0.0389331 0)
(1.01881 0.0757189 1.21278e-21)
(0.537387 0.0403283 8.94571e-21)
(1.07221 0.0308408 1.43909e-20)
(1.09873 0.0678779 -1.70545e-20)
(1.03463 0.11477 -1.73444e-21)
(0.844257 0.267711 -2.61877e-20)
(0.940576 -0.000472922 2.14457e-20)
(0.964847 0.0545863 7.47966e-21)
(1.05208 0.0125432 -4.66594e-21)
(0.940609 0.3334 5.30981e-21)
(0.979668 0.00177888 0)
(1.09456 0.124781 -3.86096e-21)
(1.04595 0.0471357 8.8697e-21)
(1.00498 0.163959 0)
(1.06582 0.0567041 6.45598e-21)
(1.09374 0.0657381 -4.5467e-21)
(0.806376 0.0720604 5.31542e-20)
(1.00139 0.0342009 -4.75287e-21)
(0.998787 -5.58732e-05 0)
(0.807595 0.0524595 0)
(1.00047 0.0579328 2.96634e-21)
(1.09218 0.0662915 4.42097e-23)
(0.837798 0.0342312 -2.5711e-20)
(0.942486 -0.00162804 -2.93624e-20)
(0.999326 0.000378547 -6.97478e-21)
(0.99999 1.0011e-05 -1.03629e-20)
(1.01016 0.0139604 -2.92886e-21)
(1.03344 0.0498956 -3.31604e-20)
(1.00203 0.0039255 0)
(1.07256 0.0347059 3.38426e-21)
(1.09044 0.0836845 1.50792e-20)
(0.974239 0.0584588 0)
(0.960131 0.0676751 1.83761e-20)
(1.09512 0.0675784 4.86263e-21)
(0.991061 0.312211 -4.31733e-21)
(0.883716 0.0396071 0)
(1.01088 0.00746416 -2.48909e-21)
(1.07275 0.0302544 -2.09171e-20)
(1.07229 0.0327814 3.76409e-21)
(1.08244 0.0725559 -9.50562e-21)
(0.999871 0.00291893 6.50228e-21)
(1.0485 0.0130763 -4.34845e-22)
(0.998943 -5.71747e-05 0)
(1.05126 0.151115 8.69005e-22)
(0.663752 0.0530232 0)
(1.03123 0.0316585 0)
(0.999933 0.00293632 0)
(1.1128 0.0540426 -1.19553e-20)
(1.08176 0.0765093 -2.03991e-20)
(1.03323 0.0217804 1.5163e-21)
(1.00188 0.00200861 -5.00428e-21)
(0.703345 0.0553492 -1.50164e-20)
(0.995158 0.000115613 0)
(0.529694 0.0445246 6.3269e-21)
(1.00054 0.00184918 0)
(1.08299 0.0617981 -3.09627e-21)
(0.847188 0.0425576 0)
(0.973663 0.0571172 0)
(0.96535 0.0864157 -2.28569e-20)
(1.09294 0.0532878 0)
(0.999946 0.000944568 -4.56829e-21)
(0.472122 0.0375903 0)
(0.999999 -1.37305e-06 1.09979e-20)
(1.01043 0.0083217 3.60654e-21)
(1.01549 0.0329957 -1.97094e-21)
(1.08623 0.0490659 1.4824e-20)
(0.924149 0.0224047 2.84968e-20)
(1.11015 0.0119649 -6.37843e-21)
(0.937816 0.167181 9.58159e-21)
(0.997598 0.00571348 2.11964e-21)
(0.999951 0.00323727 -3.12891e-21)
(1.09849 0.0682385 0)
(1.08792 0.0705129 -2.00528e-20)
(1.02108 0.00712155 3.5128e-22)
(0.987226 0.00882152 0)
(1.00085 0.00837502 0)
(1.09239 0.059754 -1.35085e-20)
(0.977862 0.303734 0)
(1.02127 0.0198428 0)
(1.11994 0.115959 -4.70621e-20)
(1.01613 0.0129093 -1.74687e-21)
(0.445829 0.0378543 2.19646e-20)
(1.00193 0.00417235 -4.57561e-21)
(1.07573 0.165096 -6.26803e-21)
(1.09247 0.0537483 -1.40372e-20)
(0.841528 0.0630057 1.1408e-20)
(1.04839 0.0245023 6.2617e-21)
(0.747354 0.0531557 0)
(0.957854 0.0652004 5.41633e-22)
(0.997802 0.0139204 -1.69569e-21)
(1.11244 0.0366852 -1.24016e-20)
(1.06585 0.0641557 9.93916e-21)
(1.00091 0.022161 0)
(1.08969 0.0818677 -1.47045e-20)
(0.99253 0.0210878 -4.683e-21)
(1.00193 0.000630847 0)
(0.659692 0.044289 0)
(0.99673 -0.00115019 -1.25816e-20)
(0.794207 0.03848 1.44723e-20)
(0.88908 0.0393999 3.02349e-20)
(0.689099 0.05246 0)
(1.11545 0.0781877 3.30956e-20)
(1.07191 0.119952 -4.04058e-21)
(1.0917 0.0672589 1.28198e-20)
(1.02156 0.0157203 0)
(1.04459 0.0928352 2.1485e-21)
(0.939611 0.0578427 -2.02297e-20)
(1.06888 0.063494 0)
(0.999964 0.00304999 3.61939e-21)
(0.993573 -0.00342492 6.65102e-21)
(1.02151 0.0152411 0)
(1.00032 0.00340985 3.41071e-21)
(1.01439 0.00803513 0)
(-0.00778784 0.0740365 2.28577e-20)
(0.768828 0.216677 -4.45589e-20)
(1.00353 0.00518476 0)
(1.01027 0.00709315 -4.71264e-21)
(1.00006 0.0354137 -4.56302e-21)
(1.02132 0.018747 -5.2383e-22)
(1.00418 0.0487296 -1.033e-20)
(1.04606 0.0921277 6.1018e-21)
(1.13148 0.119152 0)
(0.896178 0.0512312 3.74208e-21)
(1.09455 0.117601 1.88281e-21)
(1.00753 0.00701939 -4.1051e-21)
(0.998898 0.00503815 0)
(1.11748 0.0554321 -2.14754e-20)
(0.996252 0.154578 -2.21982e-21)
(0.986287 0.03116 -9.03643e-21)
(0.992147 0.0114069 0)
(1.03753 0.119275 4.41503e-21)
(1.00178 0.000601086 0)
(1.04513 0.0155019 -6.71431e-21)
(1.00378 0.00041265 1.94272e-21)
(0.985919 0.114406 -2.84399e-21)
(1.078 0.0284718 1.53509e-20)
(0.564734 0.0441297 -9.63329e-21)
(0.729732 0.051134 2.15079e-20)
(1.15226 0.10445 -3.39208e-20)
(-0.00917697 0.0460421 -3.04196e-20)
(1.012 0.000696916 0)
(1.0728 0.0321079 1.25704e-20)
(0.880285 0.0506923 -8.82881e-21)
(0.98751 0.00986709 0)
(0.957278 0.0634052 -1.32687e-20)
(1.04799 0.0133677 0)
(1.01444 0.00771338 1.16131e-21)
(1.07619 0.0655339 6.99133e-24)
(1.07424 0.118742 -9.73441e-21)
(0.999956 0.000819277 0)
(1.09467 0.0647425 0)
(1.02386 0.0334149 -4.34976e-22)
(0.988661 0.0103876 0)
(1.10297 0.0886017 -3.18388e-20)
(0.995404 1.33464e-05 0)
(0.966642 0.0692631 -1.24285e-20)
(0.995947 0.0111718 8.29804e-21)
(0.862 0.0444252 2.65257e-20)
(1.04439 0.0155865 0)
(0.940654 0.355791 -8.19814e-21)
(1.10292 0.0794667 1.76873e-20)
(1.09897 0.0668628 0)
(1.01943 0.0566205 -6.23777e-22)
(0.860348 0.0404079 0)
(1.09907 0.0457685 0)
(1.0182 0.0366641 -1.44095e-21)
(1.00198 0.0225431 -3.60917e-21)
(0.993057 0.0467556 -4.34658e-21)
(0.860663 0.273088 0)
(1.01449 0.00938474 1.45126e-21)
(1.11631 0.0547968 0)
(0.834769 0.143827 -8.95234e-20)
(0.966581 -0.000166456 0)
(1.02783 0.0460379 2.48934e-22)
(0.940688 0.0165855 7.21006e-21)
(0.716857 0.0566358 -4.62426e-20)
(0.997708 0.00543342 -2.08146e-21)
(1.01624 0.0125677 3.6421e-21)
(1.04721 0.151333 -2.30405e-21)
(1.04682 0.0176559 0)
(0.996158 0.0776538 8.70239e-21)
(1.00347 0.00492856 -3.08623e-22)
(1.09106 0.0619796 -1.16773e-20)
(1.00771 0.00762876 -2.35768e-21)
(1.00163 0.00931914 -4.52436e-21)
(0.204405 0.00848849 0)
(1.09755 0.0600892 -4.35173e-21)
(1.00026 0.00342915 7.10657e-21)
(1.00974 0.00877977 -2.06556e-21)
(1.09532 0.0459366 -5.35127e-21)
(1.00057 0.0269536 -4.17487e-21)
(1.07394 0.0568007 5.97115e-21)
(1.00107 0.00226648 7.03061e-21)
(0.869795 0.26356 2.03055e-20)
(0.964328 0.0697906 1.47504e-20)
(0.707564 0.0558184 -1.13989e-20)
(0.999998 -1.12521e-05 5.17791e-21)
(0.99903 0.000813955 0)
(0.985866 0.035638 0)
(1.00778 0.00103929 3.37898e-21)
(1.10092 0.0783412 -1.71539e-20)
(0.589361 0.0136073 -2.08169e-20)
(1.09387 0.0727686 7.54825e-21)
(0.7759 0.0469051 -3.28683e-20)
(1.08984 0.0426251 2.06466e-20)
(0.341965 0.020201 2.62838e-20)
(1.07654 0.0521489 -2.51931e-20)
(1.09537 0.0491174 0)
(1.00099 0.00216132 2.37284e-21)
(0.99756 -0.000880028 4.57484e-21)
(0.83825 0.0514133 0)
(1.09867 0.0689023 -5.49292e-21)
(0.996944 -0.00108129 1.24754e-20)
(1.07089 0.0357537 1.38186e-20)
(0.996892 0.00706268 0)
(1.09671 0.0642469 -6.91362e-21)
(1.01723 0.00697043 3.3853e-21)
(1.00185 0.009255 1.75356e-21)
(0.994476 0.0146605 0)
(1.09147 0.0684493 2.75774e-20)
(0.926827 0.400715 0)
(0.974685 -0.00554643 -2.42843e-20)
(1.0012 0.00553368 5.54406e-21)
(1.0013 0.00573818 8.57642e-22)
(0.94895 0.0526523 0)
(1.09969 0.0699624 1.10502e-20)
(1.02652 0.0726554 4.25095e-22)
(0.992841 0.106098 3.031e-21)
(1.09032 0.0788474 0)
(1.0497 0.0132715 0)
(1.01448 0.00640164 -5.6414e-22)
(1.07609 0.0514909 1.53714e-22)
(0.685134 0.0482366 0)
(1.0568 0.0574206 -1.86453e-23)
(1.00771 0.0067856 4.45511e-21)
(1.0186 0.0030566 5.808e-22)
(0.977023 -0.00465959 1.10778e-20)
(1.06666 0.0379575 5.54473e-21)
(0.984589 0.0569279 1.81931e-22)
(-0.00986867 0.0815231 -7.05776e-21)
(1.09458 0.0670662 2.11612e-20)
(1.0646 0.0565745 -1.32173e-20)
(1.11936 0.0541119 -1.36887e-20)
(1.01729 0.0172772 2.1555e-22)
(1.01267 0.00026563 1.81115e-21)
(1.09034 0.0223714 1.40706e-20)
(1.01939 0.00407062 0)
(0.163821 -0.0106227 0)
(0.823366 0.05198 2.64051e-20)
(0.664407 0.0464475 -2.64721e-21)
(1.09983 0.03395 -4.91244e-21)
(0.951315 0.0526576 9.17157e-21)
(1.03079 0.0163026 0)
(0.996302 0.0112417 0)
(1.07392 0.0830891 -7.06462e-21)
(1.09118 0.0595035 0)
(0.667305 0.0544466 3.68071e-21)
(0.999339 0.00644878 0)
(1.04307 0.0965668 -4.63505e-21)
(0.899807 0.0494597 0)
(1.02425 0.0325745 0)
(0.96432 0.0537391 0)
(0.694308 0.0566662 1.61172e-20)
(1.01692 0.00670913 1.16987e-23)
(1.00414 0.000507332 3.86796e-22)
(0.92208 0.0896052 1.86996e-20)
(0.998305 -0.0013073 1.62591e-20)
(0.936105 0.00209111 2.03403e-20)
(0.868137 0.0374736 0)
(0.862698 0.0485495 -2.07851e-20)
(0.473056 0.0310818 0)
(1.04493 0.197926 5.69946e-21)
(1.09477 0.112622 7.40204e-21)
(1.09721 0.0446333 1.02678e-20)
(0.663014 0.051908 -7.22052e-21)
(1.01399 0.0163058 2.32497e-21)
(1.09513 0.0355308 -9.18672e-21)
(0.999048 0.00496006 0)
(1.01812 0.0562594 0)
(0.624762 0.0512442 -1.94199e-20)
(1.01857 0.00282388 1.12093e-22)
(0.990579 0.616936 4.25854e-21)
(1.00092 0.0273923 -5.34563e-21)
(1.05646 0.0430606 6.90306e-23)
(1.10506 0.0739068 0)
(0.933017 0.343774 3.30628e-21)
(1.02754 0.040469 2.6753e-22)
(1.00012 0.000151389 0)
(1.07989 0.0513788 3.94619e-21)
(0.989191 0.0147653 0)
(1.11018 0.104681 -2.97595e-20)
(1.00628 0.0462474 0)
(1.02447 0.0343385 7.47719e-22)
(1.08909 0.0429527 -2.89227e-20)
(0.165325 -0.00656601 2.83716e-20)
(1.00149 0.0021943 4.58053e-21)
(0.936979 0.0687954 2.2457e-20)
(1.03422 0.120935 -3.2186e-21)
(1.00217 0.00549634 -5.89709e-21)
(0.987266 0.00266467 -8.33609e-21)
(1.00708 0.0297851 -1.87231e-21)
(0.541716 0.0444121 1.74139e-20)
(0.853799 0.352154 8.96857e-21)
(1.00772 0.00725904 -2.47083e-21)
(1.00185 0.00357589 -5.00981e-21)
(0.997271 0.0763342 -3.9613e-21)
(0.236368 0.00499482 -1.86455e-20)
(1.01874 0.000831237 0)
(0.984915 0.00301848 2.79559e-21)
(0.220308 0.0168476 0)
(1.01019 0.00798463 3.82876e-21)
(1.01759 0.00687277 0)
(1.10076 0.0623084 1.19458e-20)
(0.67682 0.0530806 6.22966e-21)
(1.10502 0.0637196 2.12656e-20)
(1.00232 0.00496403 5.37021e-21)
(1.01408 0.00643984 5.34868e-22)
(1.11037 0.0142689 7.60316e-21)
(0.967657 -0.000537459 -8.0854e-23)
(0.999846 0.00194305 0)
(0.728135 0.0492674 -1.04597e-20)
(1.08712 0.0564201 0)
(1.09473 0.0633123 0)
(1.04488 0.0622181 0)
(0.977294 0.0886928 0)
(0.975524 -0.00526728 2.33038e-20)
(0.99718 0.104386 1.79805e-21)
(1.01402 0.0213617 -3.29957e-21)
(1.06391 0.0577245 6.20606e-21)
(1.08723 0.0572036 -4.95508e-21)
(1.01742 0.0167352 -1.75681e-21)
(0.518223 0.0468719 5.17773e-21)
(1.06431 0.0747862 -9.93105e-21)
(1.02076 0.0549354 0)
(0.735321 0.0570122 -1.81637e-20)
(1.10607 0.0562987 6.25785e-22)
(1.01754 0.108026 -4.06515e-22)
(0.842632 0.141106 6.77234e-20)
(1.10122 0.033861 0)
(0.994125 0.0779502 0)
(1.00138 0.00900634 -5.72206e-23)
(1.04012 0.0191342 1.82219e-21)
(1.01382 0.00612711 0)
(0.965469 0.0207776 -7.10392e-21)
(1.04919 0.0135922 0)
(1.0877 0.0112661 0)
(0.933733 0.0677078 -1.2116e-20)
(1.02141 0.0111582 -2.85845e-22)
(0.868163 0.0479795 -7.73646e-21)
(1.014 0.128245 1.3653e-21)
(0.706996 0.0500842 -3.43132e-20)
(1.15338 0.107277 1.21984e-20)
(0.996566 0.110286 -4.75337e-21)
(0.97939 0.290153 1.27088e-21)
(0.998326 0.000504938 7.27434e-21)
(1.00138 0.00209212 -5.16364e-21)
(1.02396 0.0181324 -3.41352e-23)
(1.09771 0.0688896 2.61518e-20)
(0.88257 0.0507299 -3.9614e-21)
(1.0338 0.0312131 1.85164e-21)
(0.99986 0.0216113 -7.2585e-21)
(0.799834 0.0427898 -2.32751e-20)
(0.99131 0.00114899 -4.32375e-21)
(1.01119 0.0128681 5.74562e-22)
(0.994948 0.0400882 6.81956e-21)
(1.09964 0.0703343 -3.23462e-20)
(1.03157 0.0329424 0)
(0.878257 0.535031 0)
(0.965283 0.00192419 0)
(1.01589 0.0743867 0)
(0.751036 0.050609 2.12814e-20)
(1.01488 0.00769757 -2.39141e-21)
(0.991287 0.00071652 -8.79329e-21)
(1.0212 0.00747353 -7.92634e-22)
(1.00058 0.00339115 5.25901e-21)
(-0.00474358 0.0635219 9.93979e-21)
(1.04493 0.0623781 -5.81223e-21)
(0.522985 0.0296787 -4.64155e-21)
(0.990178 0.00288199 1.53857e-21)
(0.444939 0.0280331 1.17108e-20)
(0.69711 0.049773 2.92851e-20)
(0.687548 0.0190832 -9.75505e-21)
(0.650481 0.0526708 1.86373e-20)
(1.01815 0.105347 0)
(0.725997 0.0558085 -1.94864e-21)
(0.985783 -0.00306668 -1.15371e-20)
(0.895673 0.0446606 -1.53388e-20)
(0.947207 0.0531128 -1.54979e-20)
(1.0818 0.0783352 0)
(1.10026 0.0667985 0)
(0.966425 0.00165512 0)
(0.999561 0.0769326 -7.7929e-21)
(0.992492 0.0771603 -7.77114e-21)
(0.956584 0.223533 1.83184e-20)
(0.995847 0.00742155 -3.32883e-21)
(1.01882 0.0225422 3.30874e-21)
(0.814592 0.0435773 1.51633e-20)
(1.00756 0.00645585 0)
(1.01066 0.00713697 -2.4756e-21)
(1.04779 0.0614478 0)
(0.987856 0.0237103 4.32127e-21)
(0.854797 0.117773 -1.93963e-20)
(-0.0071869 0.0482117 3.38077e-20)
(0.987025 0.0234324 9.12569e-21)
(0.995669 0.0608704 1.3283e-21)
(0.995954 0.0622075 1.54885e-21)
(1.0135 0.0163503 0)
(1.09929 0.0229296 0)
(0.975542 0.102395 4.28436e-21)
(1.0008 0.000392212 0)
(1.10699 0.0572998 -3.35121e-20)
(0.818478 0.0452497 0)
(1.0799 0.167271 -4.71837e-22)
(1.05009 0.0256178 0)
(0.732405 0.0564264 3.11552e-20)
(0.852078 0.0467894 -3.46954e-20)
(1.08488 0.014609 1.04024e-20)
(1.00355 0.0240676 -5.93587e-21)
(1.02801 0.0109269 9.18719e-22)
(1.13365 0.159558 4.91874e-21)
(0.988313 0.00248675 -2.55287e-21)
(1.00445 0.000549608 -3.92884e-22)
(1.01455 0.03047 2.77831e-21)
(1.02106 0.0109099 -3.675e-22)
(0.985105 -0.0028779 -6.05993e-21)
(0.999991 0.000181132 1.29288e-21)
(0.999076 0.000478502 6.82586e-21)
(1.12386 0.0208111 0)
(1.00292 0.000444809 0)
(1.01447 0.000409286 1.87228e-21)
(0.747839 0.174395 0)
(1.09296 0.0650019 0)
(0.999259 0.021765 0)
(1.01038 0.0118577 2.88538e-21)
(1.00116 0.00223728 -7.15131e-21)
(1.0003 0.0223212 -3.71651e-21)
(0.998909 0.00801146 1.55142e-21)
(0.986618 0.0343432 0)
(1.02401 0.0176271 8.93211e-24)
(1.01639 0.0168025 0)
(0.831466 0.0458091 -1.07528e-20)
(1.09525 0.0447458 -1.00548e-20)
(1.12089 0.112618 2.03374e-20)
(0.998999 -0.000201757 -8.33821e-21)
(1.04636 0.0171557 3.35061e-21)
(1.06933 0.0367776 5.3992e-23)
(1.04749 0.0244508 -3.1781e-21)
(1.08606 0.0143781 -1.17352e-20)
(0.93461 0.061221 4.93499e-21)
(0.838291 0.0333531 0)
(0.491712 0.0395747 7.35069e-21)
(0.707925 0.0475661 0)
(0.99769 0.00489935 0)
(1.00142 0.0227575 -3.91187e-21)
(1.09488 0.0728734 0)
(1.09913 0.0478795 -1.3987e-20)
(1.08258 0.0898814 -3.24117e-21)
(1.00723 0.00635143 0)
(1.00237 0.0237469 8.84307e-21)
(1.06006 0.0255521 -7.40603e-21)
(0.989056 0.00549643 1.12521e-20)
(0.887352 0.382662 2.5371e-20)
(0.57014 0.0382331 2.35002e-21)
(0.992831 0.0126967 0)
(0.999074 0.00781754 0)
(0.685425 0.0456669 3.02808e-20)
(0.447153 0.0321321 0)
(1.07558 0.0960896 -4.46353e-21)
(1.08717 0.0682626 -1.11562e-20)
(0.769199 0.0369413 -3.82386e-21)
(0.0263171 0.0411366 -3.63005e-20)
(0.99462 0.00035861 4.44297e-21)
(1.06218 0.0562185 1.1372e-20)
(1.09333 0.0447967 -3.10793e-20)
(1.07353 0.0817439 7.26045e-21)
(1.10526 0.0555743 -1.86505e-20)
(1.0305 0.0309647 0)
(1.02114 0.0367211 -1.29152e-21)
(0.934321 0.389573 -4.05386e-21)
(1.03355 0.123463 4.0617e-21)
(1.02069 0.0193635 0)
(0.996991 0.0022691 5.02305e-21)
(1.03844 0.0255109 3.1012e-21)
(1.00125 0.00235171 2.26639e-21)
(1.04602 0.0462884 -6.47361e-21)
(0.698711 0.0207601 0)
(1.06122 0.0728442 -6.53154e-21)
(1.02048 0.0151843 -2.14985e-22)
(1.06102 0.0255029 0)
(0.981278 -0.0065519 5.52739e-23)
(0.987893 0.00289667 1.3349e-20)
(1.03992 0.0196737 -2.01195e-21)