/*--------------------------------*- C++ -*----------------------------------*\
| =========                 |                                                 |
| \\      /  F ield         | OpenFOAM: The Open Source CFD Toolbox           |
|  \\    /   O peration     | Version:  v2012                                 |
|   \\  /    A nd           | Website:  www.openfoam.com                      |
|    \\/     M anipulation  |                                                 |
\*---------------------------------------------------------------------------*/
FoamFile
{
    version     2.0;
    format      ascii;
    class       volScalarField;
    location    "200";
    object      epsilon;
}
// * * * * * * * * * * * * * * * * * * * * * * * * * * * * * * * * * * * * * //

dimensions      [0 2 -3 0 0 0 0];


internalField   nonuniform List<scalar> 
18618
(
2.21551e-06
2.09193e-05
1.80567e-06
2.56485e-06
2.21086e-06
2.34841e-06
0.00668722
0.0161632
9.97324e-06
3.37728e-06
2.19684e-06
2.25612e-06
1.97538e-06
2.21708e-06
2.3117e-06
2.33929e-06
1.76469e-06
2.22365e-06
1.64181e-06
0.00345006
2.30432e-06
0.0483956
1.70044e-06
2.2683e-06
0.00581058
1.08223e-05
3.35311e-06
0.0380413
4.81526e-06
1.80969e-06
2.11929e-06
1.99554e-06
1.94757e-06
2.23154e-06
2.22099e-06
0.0249727
1.89864e-06
0.000124398
0.0144602
1.71223e-06
0.032045
0.0386289
0.00884841
0.0163972
1.94178e-06
2.26548e-06
0.0116936
2.19034e-06
3.38042e-06
0.00872752
3.31648e-06
1.90205e-06
3.03593e-06
3.74635e-06
0.00577361
4.73081e-05
2.89446e-06
2.75766e-06
0.0320882
0.00472358
0.0190442
0.0135039
3.36426e-06
2.46141e-06
6.77225e-05
5.52222e-06
0.00438138
1.93022e-06
1.93862e-06
0.0316474
3.6373e-06
1.64905e-06
3.57766e-06
0.00123865
0.0384137
0.0261196
3.40615e-06
2.43612e-06
1.93194e-06
5.68701e-06
1.83761e-06
2.23182e-06
2.54561e-06
2.12155e-06
0.0502872
1.9057e-06
4.88748e-05
0.030582
0.0126331
0.00219797
2.01459e-06
0.0178892
0.000101293
1.79216e-06
0.0163299
0.0136794
2.13109e-06
8.29112e-06
2.35385e-06
0.0103893
0.00835881
0.00251571
2.00516e-06
3.57703e-05
4.80192e-06
4.30753e-06
0.00380406
2.17831e-06
0.0140082
0.00804771
0.0272376
1.73621e-06
0.0113566
0.0270876
2.61233e-06
1.73053e-06
0.00455489
2.5499e-06
3.25794e-06
0.0354482
2.2652e-06
1.89051e-06
1.8346e-06
2.38262e-06
2.99486e-06
4.94013e-06
1.95034e-06
4.73841e-05
6.74596e-05
3.13171e-06
0.00981082
0.0036008
0.00385407
2.76227e-06
2.14829e-06
2.00152e-06
2.70993e-06
0.0263344
0.0927376
2.30608e-06
0.0169572
0.00847725
1.9457e-06
2.28779e-06
1.73537e-06
2.61869e-06
1.74024e-06
2.55981e-06
2.3381e-06
2.2454e-06
0.00162199
2.20726e-06
1.94642e-06
2.2831e-06
1.83438e-06
0.0155656
0.0112493
2.23315e-06
1.89565e-06
0.142345
2.97121e-06
2.1767e-06
0.00624084
0.00243598
2.74145e-06
2.14699e-06
2.12763e-06
0.0365714
2.4527e-06
8.92502e-06
4.23855e-06
1.93013e-06
5.43933e-06
3.51632e-05
0.0090457
2.61275e-06
0.000216299
2.27564e-06
2.7322e-06
1.97835e-06
0.00123314
2.22254e-06
0.057706
3.55081e-06
2.9261e-06
2.31428e-06
0.00179761
3.40592e-05
2.53993e-05
2.22091e-06
2.64484e-06
2.27205e-06
2.14617e-06
1.76912e-06
1.93237e-06
0.000607531
2.31023e-06
2.12709e-06
0.0129883
1.95136e-06
4.9955e-06
0.0225553
0.00173944
0.0147375
0.000248416
2.14119e-06
0.015302
0.00261787
3.2793e-06
1.73792e-06
2.56858e-05
1.80637e-05
1.99021e-06
1.75127e-06
2.13628e-06
3.98363e-06
0.00926646
0.00860549
2.26643e-06
1.82857e-06
2.24869e-06
1.83762e-06
0.0135568
3.87165e-06
0.0293687
2.72625e-06
1.89652e-06
5.85106e-06
3.5683e-05
1.93649e-06
2.12251e-06
1.96703e-06
2.17656e-06
0.0163376
1.98383e-06
3.0632e-06
3.46632e-06
7.74375e-06
0.00200899
1.72133e-06
1.46314e-05
1.90142e-06
2.85139e-06
0.0105639
2.76088e-06
2.22413e-06
0.000505617
3.07555e-06
0.0271288
2.53557e-06
1.79988e-06
0.0418914
2.18882e-06
0.00301427
2.08686e-06
1.95552e-06
8.34299e-06
2.80974e-06
1.66666e-06
1.83005e-06
2.58586e-06
0.00918355
0.00897317
2.22732e-06
0.0460741
0.00020868
9.13505e-06
2.20436e-06
5.11959e-06
2.26306e-06
5.87047e-06
2.73944e-06
1.93315e-06
2.5845e-06
4.18832e-06
2.19879e-06
2.06837e-06
2.19026e-06
1.7808e-06
0.0133377
2.59125e-06
2.84889e-06
2.54381e-06
2.06382e-06
0.0124466
2.54571e-06
1.96432e-06
3.00546e-06
2.92263e-06
4.27246e-06
1.69443e-06
2.69358e-06
2.58554e-06
1.97333e-06
0.109731
3.84126e-05
0.0154448
0.00812663
0.00629505
1.99688e-06
2.30302e-06
2.43262e-06
2.32006e-06
2.14369e-06
2.79587e-06
3.25591e-06
2.35787e-06
0.00834352
5.56674e-06
0.0106128
0.000310789
1.65098e-06
5.62165e-05
3.90425e-06
3.55388e-06
2.32583e-06
2.06589e-06
1.8631e-06
2.45249e-06
0.00322069
1.73759e-06
0.000586941
3.12767e-06
0.0232762
3.6833e-06
0.000116242
0.000960381
2.32343e-06
1.67054e-06
0.0764456
2.36371e-06
0.132252
2.34716e-06
3.52079e-06
2.01688e-06
2.69839e-06
0.0046109
1.99892e-06
1.72133e-06
0.00877334
2.65981e-06
3.37988e-06
0.0984927
6.41292e-06
2.8206e-06
3.03777e-06
2.00728e-06
5.25812e-06
2.73017e-06
1.71846e-06
2.88543e-06
1.65597e-06
0.00727018
3.20458e-06
2.5561e-06
2.91485e-06
3.15969e-06
2.71756e-06
2.37403e-06
1.93233e-06
2.15884e-06
0.0126901
0.0386057
2.71472e-06
0.0106336
0.0480621
2.86812e-06
3.54982e-06
3.07639e-06
8.18869e-06
2.01036e-06
2.59822e-06
2.24197e-06
1.97356e-06
1.74787e-06
2.42901e-06
5.91027e-06
2.26092e-06
2.60911e-06
2.61897e-06
6.24222e-06
4.23932e-06
1.9752e-06
1.67254e-06
3.77753e-06
1.98278e-06
3.20275e-06
0.115305
2.83001e-06
2.87807e-06
2.26664e-06
2.95089e-06
0.00174087
0.027827
2.89112e-06
9.82158e-06
0.0185113
0.00718407
3.01943e-06
0.00818402
2.60587e-06
1.93002e-06
1.82969e-06
0.0129467
2.00688e-06
0.00254036
2.75192e-06
2.11921e-06
1.87044e-06
2.63752e-06
1.85834e-06
4.27176e-06
2.02735e-06
1.65089e-06
2.13044e-06
2.64789e-06
1.6849e-06
1.71298e-06
2.23509e-06
1.97933e-06
1.74967e-06
0.0173257
1.82652e-06
1.93021e-06
1.98161e-06
0.105988
2.68083e-06
1.7391e-06
0.000318464
0.00850753
2.9886e-06
2.78823e-06
2.25754e-06
2.49168e-06
1.91066e-06
2.2642e-06
3.43364e-06
2.53154e-06
3.52796e-05
5.14589e-06
2.18418e-06
0.000466136
2.59975e-06
2.1582e-06
0.0123037
2.96935e-06
2.14743e-06
0.0103635
4.90284e-06
2.95432e-06
2.155e-06
4.01811e-06
2.70912e-06
2.25629e-06
2.82433e-06
2.33283e-05
2.64843e-06
1.88881e-06
2.05416e-06
0.0411035
0.0128434
1.78673e-06
6.06604e-06
2.9045e-06
6.46733e-06
2.13252e-06
2.80858e-06
4.28135e-06
3.17655e-05
1.98743e-06
1.78889e-06
2.25534e-06
1.73814e-06
0.00443233
1.83018e-06
2.02058e-06
0.0160083
1.81148e-06
0.00036137
2.3256e-06
9.15855e-06
2.27664e-06
0.00794499
1.64838e-06
2.30671e-05
2.54055e-06
6.23328e-06
1.86051e-06
2.94173e-06
1.96055e-06
1.49851e-05
0.12067
2.13156e-06
3.57954e-06
0.00683766
0.00661363
1.15869e-05
0.057471
2.28124e-06
3.70853e-06
4.23605e-06
2.15851e-06
0.00432764
2.9223e-06
1.83636e-06
5.46293e-06
2.13237e-06
2.14939e-06
0.000933347
2.05195e-05
0.0285759
2.12177e-06
1.80993e-06
1.82354e-06
3.0352e-06
3.3712e-06
1.6481e-06
3.61505e-06
3.35061e-06
0.0107822
1.85401e-06
3.34544e-06
2.0188e-05
3.10495e-06
1.77118e-06
3.02126e-06
0.00917729
3.08677e-06
0.031382
3.45347e-06
0.00187551
0.00585493
2.1335e-06
2.15397e-06
2.92836e-06
3.93075e-06
0.0203485
4.2808e-06
2.1468e-06
2.00239e-06
2.23585e-06
2.22725e-06
2.7213e-06
2.89508e-06
2.92613e-06
3.2969e-06
0.00040716
0.00811602
1.718e-06
2.56278e-06
2.69581e-06
4.09928e-06
1.56355e-05
1.89974e-06
2.84367e-05
1.96056e-06
0.0241462
2.924e-06
5.45308e-06
2.95249e-06
0.096506
1.72991e-06
0.00907457
2.15408e-06
2.49415e-06
4.0112e-06
0.00444107
2.26421e-06
5.30606e-06
2.33812e-06
3.05611e-06
0.0125266
3.2835e-06
0.0208863
0.048727
0.00915631
0.00464894
3.3229e-06
0.00123833
1.85352e-06
2.15291e-06
2.18554e-06
2.0703e-06
3.34749e-06
3.03502e-06
1.85335e-06
3.24479e-06
1.95871e-06
0.00216447
7.53264e-06
2.67276e-06
2.15237e-06
2.12548e-06
1.88908e-06
2.05596e-06
2.15073e-06
8.37442e-05
0.00946765
6.14471e-06
2.31633e-06
3.02539e-06
0.000228969
2.69957e-06
2.23437e-06
2.55881e-06
2.40148e-06
3.08613e-06
1.66861e-06
2.74129e-06
2.23186e-06
0.00285084
0.0145639
0.00875665
0.00356117
0.00238859
2.06323e-06
1.822e-06
0.0103786
2.54675e-06
2.15558e-06
1.65036e-06
1.95701e-06
0.0023206
3.32851e-06
3.96668e-06
1.33829e-05
1.91959e-06
2.55624e-06
1.56151e-05
3.1055e-06
2.13912e-06
2.59396e-06
0.00600895
1.67125e-06
3.25518e-05
4.31774e-05
0.000554479
1.9823e-06
0.00580421
2.9579e-06
1.97632e-06
2.24452e-06
0.00539304
8.8115e-06
1.97788e-06
6.15847e-05
3.29614e-06
2.4053e-06
1.92056e-06
2.2467e-06
0.00995214
2.95053e-06
1.95323e-06
3.30511e-06
1.68413e-06
2.07336e-06
2.68846e-06
0.00148188
2.30898e-06
2.60075e-06
0.0433625
7.51144e-06
3.23763e-06
2.18297e-06
2.60665e-06
2.20354e-06
2.05927e-06
3.24209e-06
7.95068e-06
2.14236e-06
0.00911537
4.28481e-06
3.57667e-06
2.20007e-06
2.30368e-06
3.58574e-05
0.0446824
2.26266e-05
0.103586
2.19385e-06
0.0306937
2.04099e-06
2.80747e-06
3.26879e-06
3.37431e-06
0.0076096
0.000437886
3.29988e-06
1.83376e-06
2.80979e-06
0.000996074
1.83687e-06
2.61471e-06
2.47741e-06
1.46603e-05
7.25053e-05
2.50922e-06
2.9006e-06
2.87942e-06
0.00743297
0.000733883
1.99647e-06
2.176e-06
6.07025e-06
1.65038e-06
1.93993e-06
2.02143e-06
0.0102714
1.9192e-06
2.30239e-06
1.68196e-06
2.53727e-06
1.82371e-06
0.00741841
0.0024349
0.000855147
1.94912e-06
0.000139565
1.95944e-06
2.03949e-06
1.97278e-06
1.68465e-06
0.0542302
0.00687483
0.0112323
2.43093e-06
0.00728353
1.73787e-06
2.58274e-06
2.54733e-06
3.63993e-06
0.0112362
2.89183e-06
2.18007e-06
0.0128671
1.91465e-06
0.00698161
0.0100213
1.84355e-06
2.68684e-06
2.27257e-06
3.51877e-06
2.26202e-06
0.00571575
0.00640465
0.0204701
5.36554e-06
6.12547e-06
2.71284e-06
0.0109278
2.03162e-06
2.24822e-06
3.04028e-06
1.98372e-06
0.0141669
1.67439e-06
0.0266768
2.19805e-06
1.8329e-06
0.00591228
2.77458e-05
1.90599e-06
3.91952e-06
2.0925e-06
2.46346e-06
1.68059e-05
0.00507163
1.9184e-06
2.19211e-06
0.0531148
3.13049e-06
2.19311e-06
2.40088e-06
2.7847e-06
2.68089e-06
2.1105e-06
0.01553
2.85222e-05
2.30244e-06
2.97318e-06
2.07089e-06
0.0424379
1.63268e-06
2.62125e-06
0.0578451
2.16065e-06
1.82184e-06
0.000835785
0.0101384
0.00034386
2.82417e-06
1.9573e-06
2.70836e-06
2.41281e-06
3.60579e-06
0.00963039
2.63576e-06
9.01296e-06
0.00522959
2.13571e-06
2.51677e-06
2.16204e-06
2.03893e-06
1.95587e-06
2.65888e-06
1.95125e-06
0.0263028
2.14236e-06
1.97283e-06
0.0093428
1.04781e-05
2.18942e-06
3.21923e-06
2.50965e-06
2.08071e-06
2.63951e-06
1.70734e-06
1.96254e-06
2.29132e-06
1.65269e-06
1.89296e-06
2.19899e-06
1.79533e-06
0.013883
2.38227e-06
0.00951766
0.00235182
2.19668e-06
1.25676e-05
3.43819e-06
3.15824e-06
1.84286e-06
0.000200406
0.00963066
1.82984e-06
2.28769e-06
0.0162701
2.84058e-06
2.12337e-06
2.14097e-06
0.000355887
1.84912e-06
0.00245552
2.388e-06
2.02203e-06
0.00888435
1.93589e-06
2.84646e-06
1.72463e-06
3.23178e-06
0.00219392
0.00523591
0.0209442
2.75222e-06
0.0219158
0.00948942
0.0438078
0.0119444
2.17488e-06
0.0085406
2.70674e-06
2.26636e-06
2.1781e-06
3.15075e-06
0.000243464
2.39175e-06
2.06487e-06
2.08206e-06
4.72728e-06
2.76861e-06
1.95608e-06
0.0162333
2.316e-06
2.13034e-06
0.00585078
2.31331e-06
2.81629e-06
0.0023099
2.31907e-06
2.07147e-06
2.06902e-06
2.04894e-06
2.21957e-06
2.18244e-06
3.42903e-06
0.000916184
0.0141793
6.12987e-06
1.73389e-06
0.00901733
0.0060652
1.86143e-06
2.20276e-06
1.68661e-06
5.14956e-05
2.71247e-06
2.64311e-06
2.01548e-06
1.80282e-06
2.68851e-06
4.23956e-06
3.61441e-06
5.2192e-06
2.84076e-06
1.94906e-06
6.27129e-06
9.5888e-06
2.28464e-06
2.15408e-06
3.21556e-06
2.26544e-06
2.7665e-06
2.20699e-06
1.83712e-06
1.97716e-06
0.0141556
2.57251e-06
3.45252e-05
3.64307e-06
1.68024e-06
1.83138e-06
1.73049e-06
1.86779e-06
2.19456e-06
0.0305499
0.0343529
0.0104788
2.9921e-06
2.24694e-06
2.64917e-05
3.18751e-06
3.39757e-06
2.33693e-06
2.22181e-06
1.74142e-06
2.66934e-06
4.47277e-05
0.0156343
2.53011e-06
2.77981e-06
0.0114446
0.0214424
2.92979e-06
4.29803e-06
0.0216941
0.00417024
3.0307e-06
1.93353e-06
2.45152e-06
2.53874e-06
8.35497e-06
1.855e-06
1.94944e-06
6.79914e-05
2.42586e-06
1.90319e-06
3.15193e-06
1.77132e-06
3.18389e-06
1.85685e-06
0.0400437
2.08396e-06
1.87361e-06
1.74288e-06
2.61707e-06
2.69691e-06
1.71577e-06
0.00646566
0.00889822
2.01916e-06
1.7385e-06
0.00087089
2.12495e-06
1.7392e-06
2.12951e-06
2.03271e-06
0.00954606
1.78722e-06
1.87309e-06
2.29297e-06
0.0458043
2.56623e-06
2.31824e-06
0.0417915
1.93667e-06
3.22509e-05
1.87554e-06
0.012244
3.62884e-06
2.86278e-06
0.0234996
2.15979e-06
0.0160287
2.64584e-06
0.000620036
0.101952
2.2976e-06
5.95271e-06
0.0258453
4.40591e-06
0.0084284
3.68143e-06
3.01547e-06
2.63101e-06
2.72738e-06
2.98861e-06
3.30047e-06
1.90451e-06
0.0422498
3.11251e-06
2.26971e-06
1.92324e-06
2.06131e-06
3.55396e-06
4.01362e-06
2.11408e-06
3.18942e-06
1.7078e-06
2.17742e-06
1.98924e-06
2.75316e-06
0.000602861
1.90377e-06
2.82554e-06
2.02873e-06
9.09406e-06
1.99289e-06
0.0151672
9.9262e-06
0.00761166
2.78376e-06
1.98361e-06
0.000653016
0.0360255
2.21664e-06
0.0385503
2.93528e-06
0.00202019
6.47786e-06
2.07056e-06
2.68578e-06
1.90349e-06
0.021734
1.84971e-06
1.91525e-06
3.12763e-06
2.66351e-06
1.84769e-06
8.95717e-06
3.4979e-06
6.01537e-06
1.73792e-06
3.51811e-06
0.0339524
2.2892e-06
2.36734e-06
0.00065518
2.34359e-06
2.06146e-06
0.110093
2.28968e-06
2.57757e-06
6.32087e-06
2.34949e-06
1.65268e-06
3.61383e-06
1.98391e-06
2.06297e-06
2.20318e-06
1.82679e-06
2.85057e-06
0.0541276
3.23167e-06
0.000724105
1.86784e-06
3.52757e-06
2.31861e-06
1.8084e-06
1.74871e-06
3.90329e-05
0.00129349
1.93773e-06
3.46358e-06
0.0102958
0.00672878
0.0374998
2.14996e-06
3.01702e-06
2.14065e-06
1.762e-06
3.94619e-06
1.661e-06
1.81166e-06
1.9329e-06
1.81636e-06
2.61461e-06
1.86376e-06
3.49333e-06
1.9276e-06
2.65808e-06
2.07588e-06
3.70356e-06
0.00625979
5.27295e-06
0.0543566
2.31607e-06
2.76894e-06
3.48235e-06
0.0246218
6.49506e-05
2.04335e-06
1.86282e-06
3.36853e-06
0.0246009
0.00132779
2.90652e-06
2.19678e-06
0.0398854
0.0220151
5.59829e-05
2.32419e-06
1.88312e-05
1.86012e-06
2.24182e-06
2.77427e-06
2.8004e-06
2.01179e-06
2.13507e-06
1.74758e-06
2.11966e-06
0.00229902
0.000290909
2.47673e-06
1.78254e-06
3.64385e-06
2.68097e-06
1.73874e-05
1.98584e-06
3.19161e-06
2.01688e-06
1.99151e-06
2.35545e-06
1.9726e-06
2.44378e-06
3.60229e-05
1.8659e-06
3.75042e-06
2.53082e-06
2.77484e-06
2.26077e-06
3.32466e-06
0.0215532
3.825e-06
2.48387e-06
0.00573618
2.46456e-06
2.54628e-06
1.92264e-06
3.71538e-06
0.0331551
1.795e-06
3.22838e-06
1.2919e-05
2.00082e-06
3.15947e-06
0.00740925
2.86024e-06
3.35665e-06
2.16501e-06
1.91469e-06
3.32301e-06
1.64287e-06
0.0102247
2.56273e-06
2.96654e-06
2.15512e-06
6.28675e-06
3.2655e-06
0.00212403
0.0212777
2.08851e-06
4.25828e-06
0.00585619
2.89106e-06
0.00426049
3.29297e-06
2.27949e-06
2.98767e-06
0.0062249
2.83849e-06
1.83138e-06
2.0059e-06
1.73172e-06
2.01123e-06
0.0284059
0.000166074
2.002e-06
0.0100576
4.24051e-06
1.87319e-06
2.50856e-06
1.97527e-06
1.69956e-06
2.30819e-06
3.8764e-06
3.32626e-06
0.00665634
0.0120625
1.99555e-06
2.0682e-06
1.91643e-06
0.00810952
4.17391e-06
2.10252e-06
3.26926e-06
0.0097176
2.13839e-06
2.48097e-06
2.80002e-06
2.28204e-05
2.45296e-06
2.86439e-06
2.6077e-06
3.45612e-06
2.00172e-06
2.96957e-06
1.87111e-06
2.78526e-06
2.64459e-06
1.86612e-06
2.61041e-06
2.09745e-06
3.19275e-06
3.18131e-06
1.79611e-06
0.0118901
1.6655e-06
3.29684e-06
0.0144761
0.0145855
1.95546e-06
1.77599e-06
2.55433e-06
2.60626e-06
2.30938e-06
1.78046e-06
0.020958
0.0146491
2.15047e-06
2.14188e-06
2.1768e-06
2.89311e-06
0.00616465
3.61005e-05
2.45984e-06
1.99859e-06
1.99327e-06
0.0108339
2.52098e-06
0.022437
5.88489e-06
0.00790918
2.1568e-06
3.52147e-05
2.1407e-06
1.77276e-06
3.6464e-06
2.00008e-06
0.00225453
0.046884
2.22299e-06
2.67864e-06
1.6198e-06
1.09152e-05
1.12166e-05
2.2153e-06
2.27757e-06
1.63981e-06
2.01157e-06
1.87213e-06
6.37464e-06
2.66509e-06
0.000347799
2.8485e-06
0.00249453
2.03789e-06
1.97318e-06
2.20621e-06
2.08865e-06
0.00507483
0.00696116
2.31317e-06
1.97413e-06
1.81512e-06
1.85279e-06
3.28318e-06
2.87418e-06
2.09337e-06
2.00502e-06
1.78679e-06
2.23452e-06
2.04247e-06
3.43114e-06
6.86767e-06
2.01221e-06
2.04753e-06
3.21265e-06
6.75286e-06
2.17474e-06
1.87003e-06
4.05542e-06
2.17482e-06
1.98334e-06
1.85924e-06
2.21414e-06
1.93971e-06
2.19166e-06
0.00821389
2.32726e-06
2.16399e-06
2.75254e-05
3.13172e-06
1.91459e-06
1.685e-06
1.90423e-06
0.00308031
1.92658e-06
1.97003e-06
1.6564e-05
2.24109e-06
1.10116e-05
2.34285e-06
2.49168e-06
3.37448e-06
2.54206e-06
2.16985e-05
2.85139e-06
1.35777e-05
0.00253416
0.00577932
7.72068e-06
2.05971e-06
2.71633e-06
1.75913e-06
6.90996e-06
4.09861e-06
2.57693e-06
3.26713e-06
0.00929966
2.17033e-06
0.0301649
2.09935e-06
0.052443
3.17457e-06
3.01105e-06
1.99904e-06
2.13688e-06
1.62368e-06
1.91209e-06
2.29465e-06
1.94529e-06
1.89131e-06
1.84497e-05
0.00315999
1.5203e-05
0.0159345
9.3189e-06
1.74644e-06
2.24503e-06
1.90124e-06
1.85917e-06
0.000595503
2.7752e-06
5.16749e-06
4.96042e-06
0.0370745
0.00566982
0.0228559
4.48109e-06
0.0347979
0.0577733
0.00408973
1.81846e-06
2.1269e-06
1.76331e-06
4.09771e-06
0.0357831
0.00379253
1.99878e-06
1.41072e-05
2.15952e-06
2.16345e-06
2.93271e-06
2.8441e-06
0.000105486
2.06252e-06
0.000318365
0.0244585
3.44935e-06
0.0440686
1.92089e-06
0.0082561
0.00966746
1.92127e-06
2.31998e-06
4.29494e-06
2.30218e-06
2.66668e-06
2.31686e-06
1.82988e-06
1.7109e-06
2.01187e-06
1.77584e-06
0.000210892
1.81548e-06
0.0140613
3.29809e-06
2.24191e-06
2.8972e-06
5.13638e-06
4.42031e-06
2.67034e-06
1.96451e-06
1.94384e-06
2.25278e-06
3.04259e-06
2.00946e-06
2.08956e-06
0.00946753
8.93698e-06
1.7604e-06
3.15803e-06
1.89508e-06
1.79292e-06
1.80555e-06
2.02565e-06
1.66102e-06
2.3901e-06
2.62671e-05
4.92608e-06
0.00427971
1.63974e-06
0.032851
2.51338e-06
1.80905e-06
1.99064e-06
2.21065e-06
4.14825e-06
2.94261e-06
1.91487e-06
1.93449e-06
2.70359e-06
0.00630687
2.81007e-06
0.115792
0.00954449
2.23893e-06
1.88329e-06
0.0574783
1.88432e-06
5.03682e-06
4.12772e-05
0.0518865
2.71286e-06
0.0222159
0.00742673
2.32655e-06
0.01315
0.00383957
1.74502e-06
2.80121e-06
1.16721e-05
2.13281e-06
9.73915e-06
3.15964e-06
0.00406252
2.22481e-06
2.11481e-06
4.90008e-06
1.74639e-06
2.13257e-06
2.17329e-06
1.02175e-05
0.0186371
3.20752e-06
0.0137948
1.83395e-06
0.0206589
0.0334017
0.00196288
1.83372e-06
2.23088e-06
3.3291e-06
0.00652278
1.94725e-06
2.18539e-06
0.00252601
0.0175983
2.33159e-06
1.92156e-06
5.92229e-06
1.70649e-06
3.18865e-06
0.000404507
1.76336e-06
0.0103291
0.00452531
1.9953e-06
0.00193894
2.85727e-06
1.77198e-06
1.88707e-06
5.05836e-06
5.74455e-06
0.00342006
3.53283e-06
2.23949e-06
2.05235e-06
1.3441e-05
3.3501e-06
4.16107e-06
1.49856e-05
2.24349e-06
0.0164686
3.0333e-06
1.39496e-05
3.43344e-06
3.76001e-05
5.92675e-06
0.0415111
0.00869475
2.23911e-06
0.00780223
2.58014e-06
2.03286e-06
1.98313e-06
1.70437e-06
2.73253e-06
1.77485e-06
2.53065e-06
4.40509e-06
2.34877e-06
3.49562e-06
2.81645e-06
0.028471
7.79586e-06
2.28468e-06
2.6075e-06
0.0458778
2.01459e-06
4.09564e-06
1.84889e-06
3.08064e-06
0.00887772
1.70829e-06
3.29337e-06
1.049e-05
1.93433e-06
4.12603e-06
0.0573984
0.0096101
1.88212e-06
0.000351769
2.88145e-06
2.27638e-06
2.14507e-06
2.18129e-06
1.41958e-05
2.24649e-06
1.90395e-06
2.83063e-06
0.00710545
2.05638e-06
2.36599e-06
2.16147e-06
1.70867e-06
0.0119626
1.70708e-06
2.23207e-06
2.24207e-06
2.87678e-06
0.054727
3.33305e-06
3.30006e-06
0.0204297
2.3531e-06
0.00654649
1.98694e-06
2.09457e-06
2.51199e-06
3.10862e-05
0.0256529
2.84724e-06
2.36178e-06
2.47306e-06
2.95274e-06
1.80846e-06
2.90677e-06
0.00105817
0.0300961
0.0139604
0.011216
1.28459e-05
1.9649e-06
0.0224817
2.94819e-06
4.66977e-05
1.78084e-06
2.15419e-06
1.97233e-06
1.91465e-06
3.55411e-06
1.66123e-06
4.32821e-06
2.64973e-06
0.0653432
1.81233e-06
2.38312e-06
3.47558e-06
2.48389e-06
4.10585e-06
0.00858165
2.59074e-06
1.97048e-06
3.52636e-06
2.30588e-06
2.21656e-06
1.71285e-06
3.45855e-06
1.71103e-06
0.00174097
0.00612806
1.76738e-06
2.00437e-06
2.46639e-06
2.51843e-06
4.06224e-06
2.19702e-06
2.78921e-06
2.36095e-06
3.12049e-06
1.82389e-06
2.75922e-06
0.0104894
1.77971e-06
3.7057e-06
2.2551e-06
0.000194776
0.0046763
3.38811e-06
3.42028e-06
1.90087e-06
3.20043e-06
0.0103859
0.00755744
0.020863
0.0209507
1.98801e-06
4.01338e-06
2.12133e-06
2.69639e-06
6.9067e-06
2.64126e-06
2.09638e-06
0.0114605
2.17062e-06
3.17313e-06
0.0311011
0.0125683
3.15624e-06
2.02788e-06
2.18155e-06
3.19789e-06
2.10083e-06
0.00256079
1.82809e-06
2.06846e-06
4.88145e-06
1.98236e-06
4.19974e-06
0.0258939
2.29247e-06
0.0716407
0.00719886
0.00091653
2.84275e-06
3.3577e-06
2.20145e-06
2.25326e-06
0.00326964
4.06602e-06
0.0789689
2.25035e-06
3.56996e-06
0.0180096
4.16436e-06
2.23222e-06
4.38172e-06
4.20916e-06
4.17298e-06
0.00163821
0.0160794
6.18097e-06
1.68876e-06
0.00294238
7.23955e-06
2.00823e-06
1.9429e-06
2.32982e-06
0.000160066
2.13847e-06
2.73509e-06
2.22907e-06
2.02809e-06
3.24746e-06
1.80425e-06
2.00282e-06
0.000279054
1.8415e-06
1.79915e-06
4.24799e-06
0.00638563
0.00259022
0.00446476
0.0114076
1.85984e-06
0.000125156
0.00188804
2.18282e-06
2.39388e-06
2.43588e-06
2.53346e-06
2.39717e-06
3.16192e-06
1.85605e-06
1.99911e-06
2.85477e-06
2.90624e-06
1.96518e-06
2.18577e-06
2.00015e-06
2.34385e-06
4.1485e-06
0.0161667
1.8771e-06
0.0423895
2.03557e-06
2.15864e-06
2.44435e-06
2.80796e-06
0.00697023
3.62209e-06
1.91903e-06
0.0177545
1.88172e-06
3.18239e-06
1.84554e-06
2.76712e-06
5.65283e-06
1.74562e-06
2.09108e-06
2.63433e-06
3.80704e-05
4.09543e-05
0.0296111
4.05315e-06
1.15687e-05
0.00879113
3.35675e-06
2.13259e-06
2.48517e-06
2.71391e-06
4.20633e-06
0.00540996
0.00978615
0.00794138
2.10259e-05
1.99398e-06
6.04452e-06
2.14995e-06
3.06956e-06
1.82002e-06
2.36884e-06
1.98759e-06
3.83553e-06
0.0461365
6.03077e-06
0.0204161
3.96363e-05
1.37361e-05
2.96286e-06
0.0201309
2.89596e-06
0.115696
3.33104e-06
7.05002e-06
0.044177
2.50111e-05
2.73364e-06
0.0197128
3.21699e-06
1.11869e-05
2.86165e-06
2.10084e-06
2.22113e-06
2.8836e-06
2.25848e-06
1.94307e-06
3.83441e-06
1.67707e-06
2.91698e-06
2.12579e-06
3.16311e-06
1.72111e-06
2.28072e-06
2.78112e-06
0.00621229
2.15843e-06
4.09244e-06
8.02245e-06
2.79115e-06
0.000999807
1.72942e-06
0.0305071
0.000270588
5.92491e-06
0.0259841
2.7415e-06
2.68978e-06
1.68913e-06
2.01587e-06
0.0397341
1.8274e-06
2.09556e-06
2.0285e-06
0.11808
0.0123522
0.0104969
3.23689e-06
6.08647e-06
2.92943e-06
3.09123e-06
0.00773825
1.3561e-05
2.12454e-06
3.25219e-06
2.81672e-06
4.19556e-06
7.49507e-06
2.52668e-06
2.20808e-06
1.63543e-06
1.71601e-06
1.72357e-06
0.0173212
2.20252e-06
0.000818314
0.0078985
2.48146e-06
0.0107219
4.34904e-06
0.0163037
2.11561e-06
2.16168e-06
1.75926e-06
4.3087e-05
1.8192e-06
3.46432e-06
0.00274195
0.128501
4.28596e-06
5.02412e-06
2.27631e-06
3.96761e-06
0.0135887
3.65782e-06
2.63374e-06
2.16246e-06
1.91156e-06
1.79423e-06
2.67106e-06
2.56858e-06
4.16637e-06
3.55766e-06
2.95041e-05
3.53413e-05
1.08969e-05
0.0030962
2.2581e-06
7.92366e-06
3.27926e-06
1.95719e-06
2.2882e-06
2.2436e-06
2.62978e-06
2.10074e-06
0.0186817
2.08674e-06
3.17563e-06
2.30085e-06
1.68195e-06
2.314e-06
2.09463e-06
3.68291e-06
3.3332e-06
0.00839785
2.22971e-06
2.83595e-06
2.27114e-06
8.29791e-06
1.71187e-05
2.16789e-06
2.00154e-06
0.020273
2.31423e-06
1.85243e-06
0.0984435
2.49947e-06
1.9313e-06
0.0190733
2.51332e-06
0.0107937
1.90803e-05
3.52016e-06
0.00260509
2.0264e-06
1.01035e-05
2.01381e-06
2.22635e-06
1.8834e-06
2.18325e-06
2.88692e-06
2.16863e-06
0.00849132
0.0056629
6.29219e-06
2.66186e-06
2.40592e-06
2.26412e-06
8.49883e-06
1.80933e-06
2.15506e-06
2.48114e-06
0.0868198
3.22037e-06
2.19293e-06
2.62771e-06
2.54671e-06
1.4906e-05
1.99029e-06
3.7581e-06
2.45551e-06
2.47743e-06
2.16289e-06
0.0126282
0.00374606
1.87543e-06
1.06912e-05
2.65338e-06
1.777e-06
0.000489394
1.64721e-06
0.0210591
3.40083e-05
3.06114e-06
1.67951e-06
1.76858e-06
1.9427e-06
0.0612461
0.00501643
2.95751e-06
0.000624955
1.91907e-06
3.12605e-06
2.01028e-05
2.50003e-06
3.19343e-06
3.38188e-06
1.85817e-06
4.02986e-06
0.0946297
3.9092e-06
1.93773e-06
2.42884e-06
2.28356e-06
2.81133e-06
2.59974e-06
0.00881777
2.6988e-05
6.21109e-06
2.37765e-06
1.88482e-06
0.00819642
1.79995e-06
0.0409211
0.0150132
0.000284506
0.0425807
4.66844e-06
2.04373e-06
2.91723e-06
1.66786e-05
2.23369e-06
1.9451e-06
2.88698e-05
1.29598e-05
3.8631e-06
0.00558506
3.77336e-06
1.7784e-06
2.95168e-06
3.03909e-06
0.0160356
1.84878e-06
1.83776e-06
0.000389156
0.0212985
1.96997e-06
0.00984058
0.0139029
0.0060125
0.00143951
2.71296e-06
3.21547e-06
0.0266204
2.50351e-06
2.38354e-06
2.93198e-06
0.00168159
3.21294e-06
2.19259e-06
1.77743e-06
2.30877e-06
1.9109e-06
0.00141815
2.06053e-06
0.0124062
3.54902e-06
0.012898
1.8945e-06
0.0139182
2.42086e-06
2.77317e-06
1.91584e-06
3.08173e-06
0.0138796
0.00118504
2.1866e-06
0.00556745
1.92269e-06
3.13445e-06
1.79813e-06
3.27005e-06
0.00799455
8.01248e-06
0.0206371
0.00990829
1.79013e-06
3.17443e-06
3.14544e-06
2.95806e-06
0.00776341
2.24301e-06
2.53941e-06
2.15018e-06
3.14196e-06
3.55062e-06
2.19776e-06
2.28435e-06
0.0479819
0.00806615
1.71572e-06
2.28673e-06
2.06986e-05
0.0098909
0.0664251
3.7499e-06
2.45487e-06
0.0337251
0.000794781
2.15439e-06
2.33247e-06
2.13735e-06
0.00285513
2.28698e-06
3.62943e-05
2.1834e-06
2.28324e-06
3.0391e-06
1.74888e-06
2.8495e-06
3.8226e-06
2.26016e-06
0.0142459
2.17988e-06
0.0285497
3.49538e-06
6.15203e-06
0.0415883
2.27884e-06
2.94881e-06
2.01807e-06
3.5626e-06
2.36994e-06
1.94278e-06
2.25006e-06
0.0169714
0.0163881
3.07776e-06
3.2315e-06
1.82631e-06
3.27934e-06
6.00859e-06
1.63801e-06
2.12997e-06
4.07207e-06
1.79618e-06
2.23731e-06
2.02713e-06
0.101248
2.06435e-06
0.0129984
3.04425e-06
1.7657e-06
6.25501e-06
1.92863e-06
0.021506
7.79635e-06
2.24562e-06
0.061118
2.38313e-06
1.66716e-06
2.14862e-06
2.13924e-06
2.03029e-06
3.1056e-06
2.57083e-06
5.60941e-06
2.78352e-06
1.62923e-06
3.03544e-06
4.41371e-06
2.23577e-06
2.39327e-05
3.02169e-06
2.49348e-06
9.81087e-06
2.86359e-06
2.26055e-06
3.00228e-06
0.0085026
2.74147e-06
6.50143e-06
2.9008e-06
2.87152e-06
2.87004e-06
8.25953e-06
3.13219e-06
4.11229e-06
2.15372e-06
2.67873e-06
0.000956069
0.0314916
2.29614e-06
0.0177583
1.99213e-06
3.18658e-06
2.42631e-06
2.27989e-06
3.24002e-05
2.69051e-06
2.87589e-06
0.0242068
0.00206516
2.36597e-06
3.46105e-06
2.38139e-06
2.73322e-06
2.03626e-06
6.06768e-06
2.43511e-06
3.75305e-06
3.63986e-06
2.14695e-06
0.0293544
1.98057e-05
2.18717e-06
0.00880263
2.10775e-06
1.54679e-05
0.0191993
3.15586e-06
2.09224e-06
0.00163448
1.83077e-06
2.62387e-06
0.00151814
0.0426089
2.13299e-06
1.95396e-06
1.95137e-06
2.7158e-06
0.000141551
2.26054e-06
2.60105e-06
0.00529888
1.75434e-06
1.9702e-06
0.0984531
2.26989e-06
0.00246849
1.85151e-06
1.87351e-06
1.7277e-05
1.94699e-06
3.11657e-06
1.9018e-06
1.95461e-06
4.3026e-06
0.000248459
2.12623e-06
2.28326e-06
4.69012e-06
0.00974959
0.026447
2.42771e-06
0.0118716
1.27155e-05
0.0239255
0.00930831
0.017697
2.10957e-06
1.85902e-06
6.60792e-06
3.27011e-06
2.19333e-06
2.89995e-06
1.63095e-06
0.00688822
3.08722e-06
2.12682e-06
2.06715e-06
0.0171435
0.00551211
0.0178351
2.57122e-06
0.0283186
2.1881e-06
3.04237e-06
1.92353e-06
0.00309308
1.03672e-05
1.93289e-06
2.6563e-06
1.99948e-06
0.00728331
1.9182e-06
0.00781591
0.000888931
6.72955e-06
2.11959e-06
1.77864e-06
1.87524e-06
2.50494e-06
3.28525e-06
2.27838e-06
1.62298e-06
2.2875e-06
2.38916e-06
1.68808e-06
1.30234e-05
2.9951e-06
2.14953e-06
0.0113635
2.17949e-06
2.87431e-06
1.6743e-06
0.113563
1.04332e-05
2.12574e-06
2.3527e-06
1.71327e-06
2.63447e-06
2.08449e-06
0.0105493
1.84736e-06
0.000726781
2.24091e-06
2.27503e-06
2.49238e-06
3.64597e-06
2.2777e-06
0.00413278
8.05844e-06
2.94433e-06
1.2692e-05
0.0109106
1.88345e-05
1.7246e-06
0.0406049
2.33054e-06
0.025354
0.00284933
3.62631e-06
2.10825e-06
0.0277395
4.20398e-06
0.0193434
2.13311e-06
0.0431985
1.75012e-06
3.29981e-06
5.74963e-06
1.70807e-06
0.00144294
2.27691e-06
1.74205e-06
0.00499839
4.16194e-06
4.28406e-06
2.38898e-06
1.97632e-06
0.000844112
5.692e-06
4.26733e-06
0.0222323
3.51266e-06
0.00420099
2.62289e-06
1.87842e-06
1.88943e-06
0.00181004
0.0324153
2.78343e-06
3.43716e-06
2.22868e-06
2.27632e-06
2.3399e-06
1.8369e-06
2.8169e-06
0.0208659
2.20132e-06
2.15301e-06
1.74428e-05
1.75075e-06
9.88807e-06
6.17212e-06
0.0794014
7.06146e-06
2.12899e-06
2.98803e-06
8.31931e-06
2.10159e-06
1.65653e-06
1.82532e-06
1.78355e-06
2.14092e-06
1.94651e-06
2.09788e-06
2.31647e-06
2.92104e-06
2.11592e-06
1.91631e-06
1.98608e-06
3.38903e-06
2.95142e-06
1.76233e-06
2.03026e-06
2.53699e-06
3.03662e-06
7.85038e-06
0.00637018
3.00891e-06
0.0131146
0.00855704
0.0472664
0.0372485
0.00488828
3.02533e-06
6.24098e-06
0.0184361
2.88919e-06
3.34672e-06
1.9042e-06
0.0073693
4.15674e-06
2.8723e-06
2.07632e-06
0.0122107
1.65564e-06
1.88982e-05
0.00635111
2.89507e-05
0.0263232
0.00331921
1.70091e-06
2.33005e-06
2.35677e-06
1.82136e-06
2.21259e-06
3.01765e-06
1.77517e-06
2.80344e-06
5.86687e-06
2.08032e-06
3.00877e-06
2.16235e-06
1.95524e-06
3.52092e-06
2.37029e-06
1.76982e-06
0.00203722
2.01624e-06
2.00818e-06
3.24265e-06
0.0774822
2.13408e-06
2.15196e-06
1.70146e-06
2.18291e-06
3.61803e-06
2.14093e-06
7.00114e-06
2.00194e-06
2.10852e-06
1.82208e-06
1.7565e-06
2.60851e-06
5.95947e-06
2.72806e-06
3.90097e-06
0.0168135
1.50529e-05
3.33042e-06
3.85462e-06
2.57986e-06
0.0104204
0.00753099
2.36936e-06
2.5889e-06
1.25503e-05
0.0117534
3.81959e-06
2.12365e-05
3.08989e-06
4.99469e-06
1.75736e-06
2.24571e-06
0.00718194
1.81752e-06
2.32958e-06
0.000255048
3.46849e-06
0.0150905
0.0317669
0.0088297
0.00764498
0.00597221
2.1266e-06
0.0570753
2.46415e-06
2.82061e-06
1.94813e-06
1.87612e-06
0.0400626
3.29923e-06
2.61602e-06
0.0204365
0.00341766
0.00243987
1.32422e-05
2.87452e-06
1.80989e-06
0.00610123
1.7762e-06
0.00035637
2.04753e-06
2.13761e-06
2.14779e-06
2.04555e-06
2.21191e-06
2.87764e-06
1.8206e-06
1.79336e-06
2.13328e-06
0.0256473
1.79808e-06
1.93304e-06
1.34969e-05
2.14918e-06
2.7915e-06
1.92776e-06
8.37597e-06
0.0147406
2.25497e-06
1.88276e-06
3.02165e-06
1.53824e-05
9.39369e-06
0.0202354
3.91131e-06
2.01202e-06
3.2458e-06
1.95808e-06
3.80603e-06
0.0268831
2.27579e-06
2.08144e-06
3.61993e-06
2.25286e-06
2.26381e-06
1.14335e-05
1.73063e-06
6.7106e-06
0.020289
1.33541e-05
4.52191e-06
2.63333e-06
3.78023e-06
1.79045e-06
0.0192389
9.14679e-06
0.00024631
0.0416959
2.83069e-06