/*--------------------------------*- C++ -*----------------------------------*\
| =========                 |                                                 |
| \\      /  F ield         | OpenFOAM: The Open Source CFD Toolbox           |
|  \\    /   O peration     | Version:  v2012                                 |
|   \\  /    A nd           | Website:  www.openfoam.com                      |
|    \\/     M anipulation  |                                                 |
\*---------------------------------------------------------------------------*/
FoamFile
{
    version     2.0;
    format      ascii;
    class       volScalarField;
    location    "200";
    object      k_0;
}
// * * * * * * * * * * * * * * * * * * * * * * * * * * * * * * * * * * * * * //

dimensions      [0 2 -2 0 0 0 0];


internalField   nonuniform List<scalar> 
18618
(
0.000106079
0.000533249
9.5387e-05
0.000114464
0.000105938
0.000109418
0.0191128
0.0196776
0.000324087
0.000150695
0.000105592
0.000107079
0.000100041
0.000106117
0.000108421
0.000109251
9.42703e-05
0.000106281
9.07206e-05
0.0132276
0.000108251
0.0712739
9.23954e-05
0.000107376
0.0189243
0.000345367
0.000146231
0.0611938
0.000186454
9.54884e-05
0.000103761
0.000100512
0.000102373
0.000106411
0.000106844
0.0462139
9.78154e-05
0.0015257
0.0223883
9.27343e-05
0.0351569
0.0631258
0.0234169
0.0103071
0.000100496
0.000108895
0.023849
0.000107398
0.000147677
0.0276073
0.000144961
9.80774e-05
0.000135846
0.00015635
0.0185925
0.000899049
0.000131013
0.000130197
0.0375031
0.018252
0.0244381
0.0293802
0.000147084
0.000111993
0.00111949
0.000208103
0.0171681
0.000100223
9.89293e-05
0.0414228
0.000157472
9.09328e-05
0.000136107
0.006784
0.0121887
0.0480859
0.000132643
0.000111423
9.87372e-05
0.00021337
9.68607e-05
0.000106397
0.000114028
0.000103973
0.0729425
9.80672e-05
0.000903403
0.0402659
0.0282383
0.00706597
0.000100954
0.0268781
0.00134362
9.49571e-05
0.0253979
0.0296395
0.000104044
0.000285673
0.000109481
0.0251225
0.0267886
0.0131931
0.000100748
0.000765938
0.00018618
0.000176538
0.0145681
0.000105103
0.0296444
0.021536
0.0331004
9.41746e-05
0.0263158
0.00951951
0.000115526
9.32499e-05
0.0153308
0.00011412
0.000142522
0.0119835
0.000107589
9.78605e-05
9.68929e-05
0.000110221
0.000136599
0.000193485
0.000100108
0.000938126
0.00112289
0.00014257
0.0168561
0.0146757
0.0144588
0.000126676
0.000104325
0.000103327
0.000117775
0.0380498
0.0887667
0.000108281
0.0216809
0.0218535
9.90882e-05
0.000107834
9.40877e-05
0.000115669
9.35244e-05
0.00011435
0.000109064
0.00010686
0.00811145
0.00010585
0.000102465
0.000107873
9.68132e-05
0.0250682
0.0319671
0.000110106
9.78756e-05
0.0970758
0.000135728
0.00010697
0.0220639
0.0104462
0.000118477
0.000105491
0.000104131
0.0618925
0.00011184
0.000301527
0.000148653
0.000101753
0.000205981
0.000756228
0.0213956
0.000115556
0.00290956
0.000107694
0.000118274
0.000101762
0.00653252
0.000106853
0.0691919
0.000135563
0.000122553
0.000111396
0.00835672
0.000735011
0.000616782
0.000106209
0.000116279
0.000109519
0.000105447
9.44029e-05
9.87424e-05
0.00423556
0.000108382
0.00010396
0.018841
0.00010086
0.000195175
0.0474603
0.0082276
0.0169439
0.00295024
0.000104551
0.0244583
0.0139564
0.000130039
9.34339e-05
0.000618881
0.00048715
0.000100646
9.38185e-05
0.000104117
0.000143924
0.0285992
0.0233572
0.000107591
9.61115e-05
0.000106938
9.69028e-05
0.0316585
0.000141821
0.0394528
0.000118138
9.79912e-05
0.000216944
0.000770511
0.000100485
0.000104069
0.000101502
0.000105091
0.0219171
0.000101942
0.000125512
0.000133878
0.000272108
0.00928896
9.32776e-05
0.00042458
9.80535e-05
0.000120922
0.0231049
0.000130516
0.000112583
0.00375396
0.000125832
0.0383126
0.000113799
9.51676e-05
0.0658067
0.000107351
0.0128319
0.000106477
0.000100275
0.000286333
0.000120008
9.14256e-05
9.61594e-05
0.000114886
0.0282972
0.0236249
0.000106876
0.0692306
0.0022257
0.000303259
0.000107839
0.000198003
0.000108953
0.000217281
0.000118422
9.90322e-05
0.000114888
0.000147729
0.000106632
0.000105188
0.000105522
9.47683e-05
0.0311069
0.000115039
0.00013311
0.000113967
0.000102367
0.0260018
0.000114052
9.96183e-05
0.000133955
0.000134183
0.000176544
9.22551e-05
0.000127227
0.00011491
0.000103515
0.0918458
0.000807752
0.0297158
0.0263217
0.02194
0.000100534
0.000111067
0.000111313
0.000113381
0.000104604
0.000119685
0.000129596
0.000109561
0.0207095
0.000210339
0.0306384
0.00270351
9.09812e-05
0.00102983
0.000142437
0.00013563
0.000108761
0.000102413
9.91118e-05
0.000119861
0.0123245
9.34449e-05
0.00424006
0.000126911
0.0483912
0.000138171
0.00154119
0.00574166
0.00010872
9.17676e-05
0.0709348
0.000114133
0.103045
0.000109297
0.000134969
0.000103897
0.000117521
0.0180075
0.000100862
9.32778e-05
0.0267582
0.000126267
0.000147463
0.0939411
0.000229996
0.00012026
0.000137819
0.0001014
0.000201468
0.000128513
9.29247e-05
0.000121654
9.11724e-05
0.0243537
0.000128549
0.000114244
0.000122372
0.000127561
0.000128104
0.000110011
9.90018e-05
0.000104553
0.0262607
0.0634602
0.000129013
0.0174145
0.0711604
0.000121293
0.000135542
0.000141141
0.000284156
0.000100838
0.000115202
0.000107475
0.000101525
9.37246e-05
0.000111251
0.000217972
0.000107481
0.000115429
0.000126736
0.00022544
0.000148676
9.98915e-05
9.18e-05
0.000157165
0.000100085
0.000141787
0.0865088
0.000120445
0.000134131
0.000107496
0.000123099
0.00826371
0.0334131
0.000121792
0.000306889
0.0270689
0.0239355
0.000124605
0.0226827
0.000115371
0.000101618
9.73514e-05
0.0347468
0.000100716
0.0105232
0.000118691
0.000103952
9.93498e-05
0.000116116
9.68858e-05
0.000149248
0.000101251
9.10192e-05
0.000104169
0.000126281
9.19544e-05
9.31181e-05
0.000110187
0.000101731
9.37475e-05
0.0226935
9.71733e-05
0.000100101
0.000100054
0.0915704
0.000127502
9.41962e-05
0.00275054
0.0271989
0.000123916
0.00011951
0.000108682
0.000112688
9.82014e-05
0.000109012
0.000133203
0.000113724
0.000738521
0.000200134
0.000106099
0.003638
0.000115226
0.000107199
0.02803
0.000135892
0.000105014
0.0128957
0.000193831
0.000123186
0.000105694
0.00014458
0.000129684
0.000109781
0.000120321
0.000572189
0.000116361
9.77387e-05
0.000102113
0.0659804
0.0344901
9.56059e-05
0.00021806
0.000122108
0.000231396
0.000104082
0.000119969
0.00014941
0.000692017
0.00010018
9.56715e-05
0.000110828
9.41179e-05
0.0151343
9.71391e-05
0.000101867
0.0248833
9.68348e-05
0.0031465
0.000112774
0.000291294
0.000107809
0.0249088
9.12433e-05
0.000554744
0.000113936
0.000225513
9.73631e-05
0.000132321
0.000101352
0.00043804
0.0992674
0.00010399
0.000136134
0.0216598
0.0215587
0.000359502
0.0724746
0.000107904
0.000138658
0.000148629
0.000104639
0.0170684
0.000122477
9.7626e-05
0.000207622
0.00010431
0.000105164
0.00543797
0.000514717
0.0507927
0.000103675
9.67842e-05
9.72125e-05
0.000137793
0.000131939
9.11593e-05
0.000136841
0.0001454
0.0177146
9.67537e-05
0.000131417
0.000535003
0.000139662
9.44539e-05
0.000124629
0.0165083
0.000126041
0.0113853
0.000133623
0.00907075
0.0185196
0.000104356
0.000105654
0.000135649
0.000142928
0.0231633
0.000149404
0.000104292
0.000100667
0.000112049
0.000106917
0.000130149
0.000130506
0.000122543
0.000130424
0.00340423
0.0217009
9.28887e-05
0.000114422
0.000117434
0.000171763
0.000430306
9.79076e-05
0.000653668
9.95079e-05
0.00878317
0.000122521
0.000205251
0.000136305
0.0894547
9.35042e-05
0.0137546
0.000105177
0.000112787
0.00017108
0.0150757
0.000107267
0.00020352
0.000109075
0.000125367
0.0307648
0.000130169
0.0453383
0.0650044
0.0200669
0.015326
0.000145066
0.00650222
9.6647e-05
0.000107081
0.000106098
0.000105242
0.000131466
0.000124908
9.66446e-05
0.000129322
9.94711e-05
0.00822166
0.000253822
0.000116929
0.000104442
0.000103847
9.76208e-05
0.000102165
0.000107023
0.00132287
0.028844
0.000222751
0.000108553
0.000124704
0.0022262
0.000124674
0.000106588
0.000114309
0.000115344
0.000126007
9.16854e-05
0.000118501
0.000108855
0.0130461
0.0249544
0.0242073
0.0130594
0.0151939
0.000102253
9.71783e-05
0.03047
0.000114034
0.000105213
9.12132e-05
9.94212e-05
0.0101903
0.000145428
0.000143613
0.000404533
9.85074e-05
0.00011425
0.000439634
0.000126412
0.000104784
0.000115124
0.020412
9.17363e-05
0.000711183
0.000866687
0.00399559
0.000100423
0.0193542
0.000137024
0.000100015
0.000106789
0.020377
0.000285631
9.99424e-05
0.00105337
0.000142577
0.000110738
9.86795e-05
0.000107117
0.0138968
0.000123106
9.93181e-05
0.000144074
9.21725e-05
0.000103145
0.000117229
0.0076448
0.000108358
0.000115267
0.0426397
0.000265699
0.000129197
0.000105212
0.000125182
0.000105772
0.00010516
0.000129287
0.000264404
0.000104933
0.0162824
0.000149481
0.000136063
0.00010576
0.00010825
0.000769281
0.0689092
0.00056177
0.0951632
0.000110817
0.0349989
0.000104698
0.000131956
0.000129842
0.000132028
0.0250442
0.00339546
0.000130489
9.74655e-05
0.000120011
0.00585225
9.61996e-05
0.000115562
0.000112411
0.000426642
0.00125116
0.000113152
0.000122008
0.000121529
0.0246356
0.00468203
0.000101242
0.000106946
0.000223907
9.12483e-05
9.8959e-05
0.000103992
0.0260403
9.96194e-05
0.000108153
9.18812e-05
0.000113849
9.69364e-05
0.0234561
0.00762323
0.00542795
0.000100911
0.00163482
9.94975e-05
0.000102262
0.000103339
9.19388e-05
0.0584773
0.0224932
0.0273454
0.000119467
0.0244097
9.34811e-05
0.000114862
0.000121247
0.000157677
0.0152196
0.000121806
0.000107975
0.0336903
9.83791e-05
0.0235305
0.014667
9.63618e-05
0.000117273
0.000109552
0.000134924
0.000107551
0.0196324
0.0221718
0.033521
0.000202169
0.000222457
0.000128803
0.0162201
0.000101364
0.000113066
0.000125035
0.000100455
0.0155152
9.16626e-05
0.053522
0.000105653
9.68294e-05
0.0178237
0.000634454
9.82218e-05
0.000142724
0.00010666
0.00011208
0.000459161
0.0194747
9.84712e-05
0.000110743
0.0587133
0.000126963
0.000106569
0.000115284
0.000119439
0.00011709
0.000103418
0.0223108
0.000648392
0.000108183
0.000123563
0.000103049
0.0493385
9.04739e-05
0.000115732
0.0155035
0.000104668
9.57741e-05
0.00528027
0.0170039
0.00287934
0.000120326
9.94204e-05
0.000129729
0.000110912
0.000136658
0.0268301
0.000125522
0.000303634
0.0172001
0.000105187
0.000113332
0.000106523
0.000101569
0.000101105
0.000126275
9.92704e-05
0.0135418
0.000107417
0.000100161
0.013507
0.000347545
0.000107779
0.00014021
0.000122254
0.000103365
0.000116157
9.27337e-05
9.95431e-05
0.000108068
9.13084e-05
0.000100648
0.000106706
9.50481e-05
0.0356964
0.000114351
0.0252759
0.0102733
0.000107745
0.000367224
0.000133309
0.00012754
9.63679e-05
0.00218329
0.0292661
9.61407e-05
0.000107839
0.0396331
0.000120694
0.000103754
0.000104285
0.00307931
9.66636e-05
0.0137268
0.000110322
0.00010184
0.0258156
9.8806e-05
0.000120815
9.30533e-05
0.000129017
0.00984054
0.0173617
0.0399791
0.000118709
0.0317093
0.0241702
0.0677097
0.0174502
0.000107349
0.0161646
0.000117708
0.000108897
0.000105745
0.000140952
0.00245026
0.000110407
0.000102904
0.000103365
0.00018407
0.000119114
9.93906e-05
0.0394912
0.000108451
0.000103853
0.01829
0.000108468
0.000127596
0.0143793
0.00010861
0.000102734
0.000102684
0.000101815
0.000112378
0.000106991
0.000133116
0.00564468
0.0366491
0.000221703
9.36768e-05
0.0150306
0.0201279
9.93707e-05
0.000105737
9.20209e-05
0.000951781
0.000117814
0.000116274
0.000100984
9.52636e-05
0.00011723
0.0001487
0.000136834
0.000206838
0.000120708
9.94573e-05
0.000223665
0.000317458
0.000107763
0.000104498
0.000128726
0.000107292
0.000119042
0.000105921
9.62346e-05
9.99331e-05
0.0365401
0.000123943
0.000754339
0.00013738
9.20511e-05
9.73118e-05
9.35149e-05
9.96154e-05
0.00010643
0.0539162
0.0113084
0.028099
0.000123987
0.000106842
0.000635933
0.000144265
0.00014815
0.000108988
0.000106218
9.41694e-05
0.000116861
0.000888937
0.0317824
0.000113632
0.000119331
0.0294177
0.0282219
0.000133344
0.000176365
0.0464862
0.0132707
0.000124839
0.000100302
0.000119733
0.000120855
0.000291493
9.67793e-05
9.93271e-05
0.00117836
0.000116116
9.79858e-05
0.000127411
9.45088e-05
0.000128091
9.72331e-05
0.0646752
0.000105305
9.72001e-05
9.42623e-05
0.000115633
0.000117461
9.29595e-05
0.0222919
0.0162158
0.000101099
9.37213e-05
0.00531785
0.000104103
9.3521e-05
0.000103877
0.000101393
0.0148415
9.4949e-05
9.86823e-05
0.000108062
0.0579582
0.000114486
0.000108601
0.0660475
0.000100774
0.000734437
9.73372e-05
0.0160985
0.000137105
0.000121192
0.0458415
0.000104664
0.0349581
0.000116298
0.00425888
0.0910961
0.0001137
0.000219331
0.0470967
0.000179359
0.0195594
0.00013813
0.000124508
0.000115918
0.000125484
0.000123933
0.000143961
9.81964e-05
0.0668229
0.000139991
0.000107691
9.8497e-05
0.000102801
0.000135649
0.000144493
0.000103537
0.000128182
9.29584e-05
0.000105652
0.000100265
0.000118721
0.00430831
9.81492e-05
0.000132903
0.000101318
0.000301021
0.000100359
0.0380402
0.000325682
0.0253604
0.000130003
0.000100112
0.00437936
0.0615237
0.000108195
0.0465729
0.000122763
0.00909408
0.000232506
0.000102376
0.000128083
9.80794e-05
0.0464136
9.88437e-05
9.83322e-05
0.000126882
0.000123437
9.69428e-05
0.000298393
0.000134503
0.000218955
9.37195e-05
0.000134905
0.0429027
0.000108077
0.000109782
0.0047754
0.000113034
0.000102532
0.0972213
0.000110193
0.000114743
0.000226447
0.000109288
9.10282e-05
0.000156917
0.000100512
0.000102177
0.000107781
9.69804e-05
0.000132027
0.075461
0.000129035
0.00487552
9.70333e-05
0.000135113
0.000108665
9.56698e-05
9.40759e-05
0.000762331
0.00726069
0.000100801
0.000133816
0.0147394
0.0163419
0.0627848
0.000104435
0.000124648
0.000105333
9.41801e-05
0.000143215
9.17428e-05
9.5712e-05
9.9394e-05
9.56382e-05
0.000115605
9.7033e-05
0.00013445
9.99222e-05
0.000116626
0.000102513
0.000159618
0.0216069
0.000208365
0.0752463
0.000114351
0.000129601
0.000134197
0.0497387
0.0011158
0.000104545
9.80428e-05
0.000144613
0.0498619
0.00733468
0.000122127
0.000108786
0.0422688
0.0401337
0.000976408
0.00010872
0.000498754
9.92663e-05
0.000107355
0.000119191
0.000129008
0.000101538
0.000106536
9.40444e-05
0.000106114
0.00855428
0.00261432
0.00011239
9.4684e-05
0.000137407
0.000117122
0.000468179
0.000100339
0.00014208
0.000101041
0.000100663
0.000109477
9.99717e-05
0.000111602
0.000759309
9.84143e-05
0.000158496
0.000113652
0.000119226
0.000113492
0.000145588
0.0355646
0.000140914
0.000112552
0.020566
0.0001121
0.000114012
9.87523e-05
0.000138777
0.0585735
9.50348e-05
0.000142482
0.000388576
0.000100614
0.000141343
0.0246277
0.000121129
0.000131643
0.000107305
9.83099e-05
0.000144986
9.08491e-05
0.0248186
0.000120341
0.000123431
0.000104591
0.000227727
0.000129765
0.0105319
0.0484929
0.000102845
0.000175762
0.0199347
0.000134725
0.0165315
0.000130328
0.000112327
0.000135227
0.0164209
0.000120644
9.66287e-05
0.000101001
9.35868e-05
0.000100854
0.0391971
0.00192136
0.000101253
0.0141627
0.000148713
9.76378e-05
0.000113121
0.000101751
9.24059e-05
0.00010836
0.000141899
0.000131025
0.0218882
0.0274977
0.000100523
0.000102376
9.84291e-05
0.0233816
0.000173258
0.000103544
0.000144038
0.0273672
0.000106775
0.000112459
0.000119761
0.000577395
0.000111778
0.000121222
0.000115431
0.00013366
0.000100913
0.00012349
9.7578e-05
0.000119463
0.000116308
9.70684e-05
0.000124677
0.000105388
0.000144694
0.000141477
9.5552e-05
0.0329657
9.15704e-05
0.00013042
0.0349141
0.0368969
0.000102098
9.46357e-05
0.000114252
0.00011539
0.000108431
9.47072e-05
0.0456976
0.0372783
0.000104442
0.000104315
0.000108129
0.00012184
0.0216751
0.000766503
0.000112012
0.0001022
0.000103144
0.0295625
0.0001134
0.0320723
0.000214233
0.015647
0.000106761
0.000717747
0.000107377
9.44041e-05
0.000137428
0.000100528
0.00648458
0.0639441
0.000106765
0.00011704
9.0126e-05
0.000348424
0.000354132
0.000106583
0.000107535
9.07522e-05
0.000101838
9.98557e-05
0.000235697
0.000116727
0.00301668
0.000120859
0.0103272
0.000101823
0.000102772
0.000105825
0.00010289
0.0165599
0.0196429
0.00011418
0.000100207
9.5735e-05
9.70821e-05
0.000147561
0.000121438
0.000103013
0.000101815
9.48081e-05
0.000106599
0.000101813
0.000133175
0.000238793
0.000103831
0.000101946
0.000142868
0.000243789
0.00010569
9.82115e-05
0.000145278
0.000105057
0.000100151
9.79535e-05
0.000106599
9.8954e-05
0.000107251
0.0247988
0.000113572
0.000105103
0.000642695
0.000137418
0.00010102
9.19828e-05
9.80263e-05
0.0119779
0.000101511
9.97648e-05
0.000465169
0.00010798
0.000345632
0.000109274
0.000112738
0.000150671
0.000113927
0.000540069
0.000133105
0.000411404
0.0107384
0.0146873
0.000272498
0.000105431
0.000117854
9.51244e-05
0.000247748
0.000146068
0.000114728
0.000129801
0.0167028
0.000104909
0.0467861
0.000105903
0.0647397
0.000127884
0.000135908
0.000101242
0.000104122
9.02485e-05
0.00010108
0.000108202
9.92071e-05
9.93502e-05
0.000494868
0.0125083
0.000424463
0.0374163
0.000310892
9.39243e-05
0.000113204
9.81894e-05
9.68019e-05
0.00406267
0.000119245
0.000199853
0.000191097
0.0605324
0.0207272
0.0132363
0.000177375
0.0506207
0.0726711
0.0141094
9.62337e-05
0.000104967
9.42785e-05
0.000146056
0.0586467
0.0136592
0.000101608
0.000400215
0.000105002
0.000105382
0.000122713
0.000133262
0.00144071
0.000102635
0.00288842
0.0476092
0.000133526
0.0491194
9.84696e-05
0.0267225
0.0136374
9.84929e-05
0.000108616
0.000172227
0.000108294
0.000116789
0.000108562
9.71852e-05
9.28519e-05
0.000100903
9.44898e-05
0.00211414
9.61184e-05
0.0361194
0.000143784
0.00010803
0.00013366
0.000199482
0.000179431
0.000116879
9.96574e-05
0.000100837
0.000110869
0.000138462
0.0001017
0.00010292
0.0175832
0.00029701
9.4407e-05
0.000127576
9.77683e-05
9.50025e-05
9.58306e-05
0.000101998
9.12656e-05
0.000110427
0.000610627
0.000194095
0.0147622
9.08162e-05
0.0421155
0.000113263
9.59446e-05
0.000100658
0.000112138
0.000146991
0.000122928
9.82924e-05
9.94971e-05
0.000123959
0.0203649
0.000130965
0.0986193
0.0167776
0.000106641
9.90399e-05
0.0723319
9.74865e-05
0.000196819
0.000815177
0.0684198
0.000117828
0.0421895
0.0250177
0.000108801
0.0349861
0.013563
9.42317e-05
0.00013073
0.00036107
0.000106476
0.000322942
0.000127571
0.0144293
0.000106355
0.000106002
0.000193187
9.43196e-05
0.000105146
0.000107326
0.000338698
0.0360833
0.000128494
0.0210508
9.75674e-05
0.0289069
0.0369608
0.0130461
9.6119e-05
0.000108825
0.000131099
0.0230964
9.91528e-05
0.000105405
0.0105182
0.0221658
0.00011482
9.9771e-05
0.000216411
9.27273e-05
0.000128175
0.00331144
9.52437e-05
0.0138956
0.0170706
0.000100442
0.00962503
0.000121067
9.53403e-05
9.7562e-05
0.000196902
0.000223042
0.0149337
0.000149777
0.000112116
0.00010198
0.000400551
0.000145707
0.000147238
0.000428836
0.00010707
0.0355477
0.00013978
0.00039429
0.000133222
0.000790145
0.000218169
0.0494986
0.0156845
0.000112519
0.0257173
0.000114749
0.000101739
0.000100275
9.2815e-05
0.000118295
9.54301e-05
0.000113623
0.000183284
0.000109333
0.000134466
0.000130705
0.0344834
0.000261752
0.000109514
0.000115393
0.0693597
0.000101687
0.000171639
9.66614e-05
0.000139079
0.0263398
9.30218e-05
0.000130344
0.0003217
9.87862e-05
0.000171941
0.0773656
0.027377
0.000100175
0.00296
0.000121562
0.000109617
0.000106183
0.000106967
0.000414306
0.000107312
9.83955e-05
0.000130081
0.0228538
0.000105075
0.000117472
0.000105864
9.30217e-05
0.0332079
9.29215e-05
0.000106489
0.000107307
0.000121518
0.0690953
0.000143668
0.000142608
0.00952421
0.000109439
0.0228518
0.000100245
0.000102989
0.000118782
0.00066997
0.0508537
0.00012089
0.000109653
0.000112308
0.000134184
9.54189e-05
0.000122157
0.00621565
0.0556359
0.0335383
0.0176376
0.000386413
9.96089e-05
0.0474375
0.000123049
0.00090355
9.46372e-05
0.00010486
9.98622e-05
9.88502e-05
0.000135629
9.12866e-05
0.000181035
0.000126505
0.0715221
9.55152e-05
0.000114062
0.000154015
0.00011256
0.00017149
0.0197702
0.000115013
9.9876e-05
0.000135065
0.000110298
0.000106158
9.31249e-05
0.000133716
9.27201e-05
0.00835681
0.0190965
9.43525e-05
0.000101394
0.000112153
0.000113363
0.000145402
0.000105754
0.000126843
0.000109734
0.000139472
9.70154e-05
0.000118901
0.0287813
9.46986e-05
0.000138598
0.000107093
0.00203068
0.0185338
0.00013229
0.000132935
9.82979e-05
0.000128443
0.0149081
0.0236461
0.00929123
0.0352754
0.000100229
0.000164093
0.000104317
0.000117439
0.000239929
0.000116201
0.000103115
0.0301835
0.000105556
0.000127862
0.056759
0.031764
0.00014285
0.000102005
0.000105743
0.000128366
0.000103106
0.0120575
9.60688e-05
0.000102635
0.000188536
0.000100068
0.00014792
0.0342167
0.000111673
0.0798062
0.0233729
0.00546355
0.000128595
0.000131683
0.000106712
0.000107249
0.0126415
0.000170125
0.0732394
0.00010818
0.00013593
0.0418248
0.000147325
0.000108774
0.000175011
0.000148119
0.000147453
0.0085043
0.0360738
0.000235562
9.21008e-05
0.01283
0.000245938
0.000102589
9.90235e-05
0.000108999
0.00180614
0.000106168
0.000118306
0.0001066
0.000102511
0.000143849
9.53203e-05
0.000100656
0.00253033
9.68276e-05
9.51608e-05
0.00014885
0.0195284
0.0114047
0.0217234
0.0310713
9.73778e-05
0.00162034
0.00880829
0.000105234
0.000110437
0.000111425
0.000113705
0.000118505
0.000127486
9.67067e-05
0.000100587
0.000121092
0.000122125
9.96353e-05
0.000108046
0.000100653
0.000109192
0.000147024
0.038322
9.84945e-05
0.0199644
0.000101635
0.000104592
0.00011159
0.000131789
0.0237855
0.000157072
9.89762e-05
0.0366555
9.74291e-05
0.000128019
9.6988e-05
0.000119063
0.000207548
9.39182e-05
0.000102877
0.000116065
0.000800919
0.000821698
0.0348131
0.000145241
0.000352141
0.0265007
0.000131647
0.000105674
0.000112594
0.000117862
0.000148067
0.017193
0.0291591
0.025095
0.000520041
0.000100473
0.000220775
0.000104466
0.000138677
9.58384e-05
0.000109934
0.000100245
0.000141121
0.069963
0.000221895
0.0407087
0.000812515
0.000401676
0.000123395
0.0248631
0.00012189
0.0902241
0.000131123
0.000251265
0.0684169
0.000586544
0.000118325
0.0272917
0.000128791
0.000347819
0.000121207
0.000103533
0.000106495
0.000121673
0.000108534
9.99631e-05
0.000141116
9.21657e-05
0.000122362
0.000105994
0.00012765
9.39298e-05
0.000110549
0.00013093
0.0170477
0.000106462
0.000145964
0.000276387
0.000127002
0.00605435
9.32359e-05
0.052289
0.00256134
0.000219145
0.0439464
0.000118412
0.000117277
9.20707e-05
0.00010341
0.0472147
9.60287e-05
0.000103445
0.000102522
0.0931348
0.0328838
0.0150784
0.000129214
0.000226869
0.000122642
0.000140794
0.0152399
0.000387847
0.000104144
0.000129528
0.000132435
0.000147868
0.00025272
0.000113542
0.000111248
9.05258e-05
9.3756e-05
9.30851e-05
0.0402488
0.000105762
0.00519967
0.0147779
0.000112512
0.0152605
0.000173764
0.01541
0.000103675
0.000105371
9.40264e-05
0.000847542
9.58448e-05
0.000133814
0.0156898
0.10017
0.000149519
0.000195061
0.000112243
0.000169199
0.0358015
0.000153591
0.000116022
0.000105888
9.93392e-05
9.53042e-05
0.000116855
0.000114525
0.000147337
0.00015521
0.000659001
0.000742677
0.00035638
0.0132743
0.000107346
0.00027933
0.000130093
0.00010126
0.000107898
0.00010731
0.00011595
0.000106167
0.0407435
0.000105498
0.000127909
0.000110102
9.18833e-05
0.000112097
0.000103072
0.000138181
0.000131167
0.0220575
0.000106549
0.000120589
0.000109322
0.000283177
0.000477389
0.000105525
0.000101386
0.0392446
0.000113583
9.65944e-05
0.0975777
0.000112882
9.87276e-05
0.036293
0.000113279
0.0312855
0.000493351
0.000134937
0.0110183
0.000102295
0.000321256
0.000100959
0.000112079
9.74653e-05
0.000107308
0.000133119
0.000106061
0.0233566
0.0204001
0.000223933
0.000116741
0.000115117
0.000107483
0.000285861
9.54892e-05
0.000104538
0.000112485
0.0927539
0.000128837
0.000105499
0.000115898
0.000113999
0.00041339
0.000101044
0.000163133
0.000116737
0.000112404
0.00010476
0.0283701
0.0136305
9.73047e-05
0.000338562
0.000116448
9.46704e-05
0.00378869
9.0917e-05
0.0414283
0.00075859
0.000125448
9.18451e-05
9.44267e-05
0.000100798
0.0642698
0.019509
0.000134136
0.00608168
9.99547e-05
0.000126907
0.000518416
0.00012197
0.00012827
0.000146589
9.90387e-05
0.000164666
0.0917247
0.000168139
9.97902e-05
0.000111289
0.000107792
0.000129536
0.000125445
0.0238095
0.00061334
0.000224241
0.000110121
9.74998e-05
0.0252471
9.5677e-05
0.0547263
0.0189716
0.00264076
0.0207071
0.000187302
0.000101676
0.000122358
0.000447256
0.000106636
9.99562e-05
0.000658144
0.000391479
0.000141642
0.0201639
0.000159324
9.45519e-05
0.000123109
0.00013743
0.0322655
9.65673e-05
9.62253e-05
0.00324087
0.0453138
9.99734e-05
0.0287106
0.0192117
0.0204952
0.00742468
0.00011784
0.000128713
0.0519263
0.000121065
0.000110246
0.000134741
0.00817368
0.000128693
0.000105679
9.49193e-05
0.000108554
9.82802e-05
0.00747007
0.000102188
0.0326657
0.000135537
0.0159691
9.95288e-05
0.0217439
0.000111105
0.000119164
9.84474e-05
0.00013862
0.0351939
0.00665566
0.000105292
0.0198569
9.85238e-05
0.000141244
9.50883e-05
0.00012989
0.0191054
0.000283968
0.0453602
0.0297584
9.49691e-05
0.000138643
0.000127254
0.000123279
0.0256619
0.000107853
0.000113871
0.000104777
0.00012718
0.000135559
0.000107777
0.000107816
0.0692725
0.0262425
9.28428e-05
0.000107935
0.000529318
0.0279753
0.0672543
0.000139476
0.000111859
0.0554844
0.005169
0.000106736
0.00011479
0.000104347
0.00851686
0.000107823
0.000769127
0.000105303
0.000110208
0.000124982
9.43009e-05
0.000131107
0.000140868
0.000109196
0.0349107
0.000106142
0.050895
0.000134469
0.000222379
0.0531618
0.000107615
0.000123055
0.000101039
0.000157105
0.000109832
9.90194e-05
0.000106905
0.0371988
0.0379129
0.000137675
0.000129072
9.6003e-05
0.000130047
0.000216892
9.0624e-05
0.000104547
0.000145597
9.51341e-05
0.000107565
0.000102299
0.0988439
0.00010508
0.0270774
0.000138464
9.43541e-05
0.000225516
9.87269e-05
0.0438904
0.000270556
0.000106861
0.0637914
0.000113293
9.16023e-05
0.000104471
0.000104184
0.000101357
0.000126419
0.000114582
0.000214897
0.000119428
9.03712e-05
0.000124937
0.000179499
0.000107147
0.000593738
0.000124311
0.00011829
0.00031487
0.000132612
0.000110611
0.000124228
0.0146101
0.000118476
0.000237851
0.000131806
0.000131635
0.000121349
0.000280308
0.000126985
0.000146309
0.000104547
0.000127704
0.00593518
0.050298
0.000110415
0.0414561
0.000100363
0.000128142
0.000111216
0.00011199
0.000718355
0.000124221
0.000129698
0.046433
0.010596
0.000115769
0.000133768
0.000110079
0.00011826
0.000101516
0.000222287
0.000111395
0.000139531
0.00015354
0.000106676
0.051296
0.000519798
0.000106493
0.0264493
0.000103842
0.000439555
0.043416
0.000139011
0.000103632
0.00781368
9.60191e-05
0.000115818
0.00768341
0.0427487
0.000103966
9.96729e-05
0.000102069
0.000117903
0.00167967
0.000107222
0.00012483
0.020183
9.50953e-05
9.97762e-05
0.0920112
0.000114072
0.0119604
9.65791e-05
9.71697e-05
0.000486773
9.97346e-05
0.000126648
9.79579e-05
9.9352e-05
0.000174906
0.00236176
0.000104071
0.000107752
0.000191107
0.0293572
0.0512026
0.000114853
0.027236
0.000379984
0.0455324
0.0204412
0.0396363
0.000103389
9.67874e-05
0.000241562
0.000129865
0.000111067
0.000132606
9.04922e-05
0.0209809
0.000139691
0.000103817
0.000102607
0.0260743
0.0203565
0.0380155
0.00011455
0.0493381
0.00010629
0.000135132
0.000100148
0.0126992
0.000329658
9.87959e-05
0.000116545
0.000101399
0.0248632
0.000100165
0.0209422
0.00611809
0.000244111
0.000104209
9.46427e-05
9.72823e-05
0.00011304
0.000130174
0.000110077
9.01783e-05
0.000109538
0.000110333
9.25753e-05
0.000381718
0.000124182
0.000104412
0.0265522
0.000105154
0.000131842
9.189e-05
0.102599
0.000327719
0.000108145
0.000115486
9.27932e-05
0.000125555
0.000102734
0.0171201
9.696e-05
0.00465556
0.00010695
0.000109159
0.000112749
0.000137439
0.000107629
0.0159213
0.000275878
0.000122986
0.000383068
0.0220757
0.000502213
9.34049e-05
0.0655159
0.000108835
0.0486244
0.0121348
0.000137058
0.000103683
0.0531652
0.000148024
0.0421587
0.000104588
0.059336
9.43817e-05
0.000130472
0.000218547
9.26408e-05
0.00796201
0.000109129
9.35643e-05
0.0185737
0.000172476
0.000149484
0.000110291
0.000100114
0.00524397
0.000215814
0.000173268
0.0464007
0.000134799
0.0164075
0.000115779
9.75113e-05
9.83247e-05
0.00882142
0.0488545
0.000119404
0.000153407
0.000106384
0.00010915
0.000109156
9.61863e-05
0.000120157
0.0454596
0.000107544
0.000104566
0.000459188
9.38273e-05
0.000312824
0.000224919
0.0838332
0.000250468
0.000104118
0.000135778
0.000278933
0.000106176
9.11648e-05
9.59088e-05
9.47531e-05
0.000106813
0.000100737
0.000105878
0.00011594
0.000122461
0.000103928
9.83627e-05
0.000100186
0.000148675
0.000123112
9.41302e-05
0.0001015
0.000113786
0.000135923
0.000261897
0.0224677
0.000124376
0.0280653
0.0223288
0.0662487
0.0524212
0.0160722
0.000136831
0.000226615
0.0413772
0.000121755
0.000145926
9.82729e-05
0.0201856
0.000174411
0.000121349
0.00010258
0.0223503
9.11484e-05
0.000486745
0.0212382
0.000670081
0.0495314
0.0141355
9.24897e-05
0.000113907
0.000114643
9.59738e-05
0.000106474
0.00012456
9.61446e-05
0.000119863
0.000214404
0.000102685
0.000124349
0.000107287
9.93371e-05
0.000155903
0.00010984
9.58831e-05
0.0110619
0.000103446
0.000102412
0.000129304
0.0847786
0.000104692
0.000104526
9.24299e-05
0.000105958
0.000136905
0.000104232
0.000251397
0.000100602
0.000105373
9.58913e-05
9.41214e-05
0.000124306
0.000216112
0.000118177
0.000142366
0.0256651
0.000416219
0.000131124
0.000141475
0.000114794
0.028893
0.0164438
0.000109793
0.000114993
0.000364065
0.0155074
0.000140794
0.000529374
0.000141351
0.00019505
9.43213e-05
0.000108061
0.0244826
9.56736e-05
0.000108857
0.00239617
0.000150202
0.0361868
0.0566524
0.0146723
0.0255767
0.0181359
0.000103805
0.0775236
0.00011209
0.000120272
9.98294e-05
9.7483e-05
0.0641811
0.000130464
0.000121825
0.0211717
0.0129517
0.010392
0.000384816
0.00012145
9.54948e-05
0.0218296
9.45267e-05
0.00303885
0.000102639
0.000104187
0.000104437
0.000101806
0.000106495
0.000121514
9.57821e-05
9.5327e-05
0.000104086
0.0510188
9.51137e-05
0.000100398
0.00038482
0.000107107
0.000119588
9.8802e-05
0.000274416
0.0352263
0.000107121
9.7697e-05
0.000135783
0.000422181
0.000317819
0.0447228
0.000161376
0.000100838
0.000129344
0.000102148
0.000140557
0.0465536
0.000110733
0.000102845
0.000136944
0.000107202
0.000112673
0.000342518
9.44535e-05
0.000243185
0.0360267
0.000397213
0.000180713
0.000116047
0.000140044
9.49162e-05
0.0434341
0.000306821
0.00295071
0.054381
0.000120483
0.000125762
0.000118925
0.0253115
0.0183352
0.000133688
0.0307273
0.000100246
9.54752e-05
0.0222163
9.1252e-05
0.000104311
0.00418828
0.000106065
0.000147664
0.000103012
0.000131694
0.000255502
0.000147414
0.000105688
0.00035351
0.000458078