/*--------------------------------*- C++ -*----------------------------------*\
| =========                 |                                                 |
| \\      /  F ield         | OpenFOAM: The Open Source CFD Toolbox           |
|  \\    /   O peration     | Version:  v2012                                 |
|   \\  /    A nd           | Website:  www.openfoam.com                      |
|    \\/     M anipulation  |                                                 |
\*---------------------------------------------------------------------------*/
FoamFile
{
    version     2.0;
    format      ascii;
    class       volVectorField;
    location    "200";
    object      U_0;
}
// * * * * * * * * * * * * * * * * * * * * * * * * * * * * * * * * * * * * * //

dimensions      [0 1 -1 0 0 0 0];


internalField   nonuniform List<vector> 
18618
(
(1.00006 0.0279393 -1.27483e-22)
(1.09407 0.0723163 0)
(1.03023 0.0225146 -1.9026e-21)
(0.982208 0.00415781 6.11104e-21)
(1.00397 0.0241813 6.0288e-21)
(0.956889 -0.00239729 -6.90742e-21)
(1.14589 0.101925 -3.35558e-20)
(0.553125 0.0473969 0)
(1.09189 0.0662212 0)
(1.10292 0.0451575 -1.54168e-20)
(1.00453 0.0239317 0)
(0.995801 0.0262287 -2.98798e-21)
(1.01465 0.000609082 -1.08376e-21)
(0.997573 0.028507 -1.14238e-20)
(1.00664 0.0132826 -1.91795e-21)
(0.955233 -0.00331264 9.92628e-22)
(1.03342 0.0213595 -3.74774e-22)
(0.999588 0.0273173 7.92005e-21)
(1.02699 0.00815756 0)
(1.05809 0.0634916 1.09432e-20)
(1.007 0.0132019 0)
(0.687164 0.0167526 4.57632e-20)
(1.02111 0.00582668 0)
(0.996281 0.025675 6.70883e-21)
(1.1996 0.204712 0)
(1.09219 0.0665824 -1.02255e-20)
(1.07755 0.115916 0)
(1.10974 0.531693 -4.55907e-20)
(0.944579 0.229869 8.26047e-21)
(1.02966 0.0224216 1.76208e-21)
(0.994405 0.0455756 8.40408e-21)
(1.01597 0.0368018 -1.96766e-21)
(1.08958 0.0265748 -6.40606e-21)
(1.00913 0.0089157 -1.66972e-21)
(0.921833 0.0325339 -1.96412e-20)
(0.909061 0.0414985 0)
(1.02159 0.0197784 -3.77079e-22)
(1.11805 0.0543216 2.32285e-20)
(0.575999 0.0458788 1.28363e-21)
(1.02085 0.00591409 -4.06763e-22)
(0.323685 0.0193928 3.18207e-20)
(0.716647 0.021128 -1.16388e-21)
(0.708827 0.0508186 -1.74427e-20)
(0.669797 0.0686354 8.27509e-21)
(1.06104 0.0598655 -5.04279e-21)
(0.896815 0.0515436 1.57581e-20)
(0.625042 0.0460242 0)
(0.985249 0.108756 -1.30139e-20)
(1.08396 0.0884907 3.23465e-21)
(0.89152 0.0514476 3.13117e-20)
(1.07545 0.116992 9.31201e-21)
(1.02694 0.0369668 0)
(1.03955 0.154225 6.59166e-21)
(0.937261 0.20391 0)
(1.03159 0.0603838 -2.74639e-21)
(1.11681 0.0535655 0)
(1.00119 0.165086 0)
(1.09546 0.04881 5.47888e-21)
(0.319633 0.0170421 -3.09639e-20)
(1.01196 0.0507928 0)
(0.481483 0.0369046 -2.32035e-20)
(1.06063 0.0667292 -2.07145e-20)
(1.08323 0.089331 2.54759e-21)
(1.00621 0.0018883 0)
(1.11814 0.0936131 0)
(1.09199 0.0881447 -6.1915e-21)
(1.02387 0.0518921 0)
(1.06364 0.0568678 5.23874e-21)
(1.01419 0.00104443 -2.1654e-21)
(0.332301 0.0165652 2.31832e-20)
(1.09019 0.060918 5.88384e-21)
(1.02653 0.00819479 -1.50045e-22)
(0.998935 0.00065718 -6.9481e-21)
(1.08902 0.0670216 0)
(0.349237 0.0291217 0)
(0.888665 0.0390814 0)
(0.997664 -0.000830459 0)
(0.994833 0.0169227 -8.33025e-21)
(1.01562 0.00774549 3.48418e-21)
(1.09311 0.0889033 3.7844e-21)
(1.05359 0.045339 3.30433e-21)
(1.00927 0.00867036 3.40388e-21)
(0.977617 -0.00371083 7.75976e-21)
(0.982036 0.0568026 9.233e-21)
(0.650275 0.0142286 -4.49672e-20)
(1.02195 0.0214734 0)
(1.11154 0.0881762 -6.17991e-21)
(0.348291 0.0169835 -1.85199e-20)
(1.06297 0.0664577 1.95842e-20)
(-0.0114997 0.0776397 -2.29129e-20)
(1.01539 0.0175651 0)
(0.499653 0.0369203 2.01753e-20)
(1.10367 0.0638008 0)
(1.01944 0.00773257 -7.35168e-22)
(0.524973 0.0386 -2.01664e-20)
(1.06235 0.0676973 0)
(0.993823 0.0433858 0)
(1.09422 0.0635251 -1.62426e-20)
(1.00777 0.000728116 0)
(0.664501 0.0478103 0)
(0.908224 0.0516977 -2.79169e-20)
(-0.00337992 0.044767 0)
(1.01577 0.0357961 0)
(1.10191 0.0631701 9.20666e-21)
(0.953195 0.230051 4.71705e-21)
(1.0872 0.0695409 1.18609e-20)
(1.19417 0.205105 2.70625e-20)
(1.00978 0.00142037 1.17137e-24)
(1.06549 0.06799 -1.97965e-20)
(1.10262 0.0778776 1.80753e-20)
(0.387555 0.0213966 1.13541e-20)
(1.06528 0.0253316 0)
(0.64297 0.0457931 0)
(0.472461 0.0433876 -1.06466e-20)
(0.991996 0.0103537 3.88996e-21)
(1.02056 0.00635465 -1.28736e-22)
(1.15466 0.106853 2.27917e-20)
(0.981655 0.00478925 0)
(1.04115 0.158362 2.85109e-21)
(0.367949 0.0312963 0)
(0.935979 0.000418926 -2.31335e-20)
(1.03073 0.0427241 -7.83332e-22)
(1.05662 0.0451564 4.55386e-21)
(0.966435 0.00569888 0)
(1.08328 0.0712767 -1.64278e-20)
(1.08889 0.0785039 3.21215e-21)
(1.04122 0.0668255 0)
(1.11691 0.094846 0)
(1.13003 0.118363 -1.13832e-22)
(1.09891 0.0485788 -2.48192e-20)
(0.679424 0.054117 0)
(1.04574 0.0572849 8.49323e-21)
(1.04849 0.0624487 -2.90325e-21)
(1.00147 0.159403 1.90476e-21)
(1.011 0.012846 1.61184e-21)
(1.07658 0.0516517 1.03283e-20)
(1.00148 0.00835533 2.91075e-21)
(0.403922 0.0217189 -5.26781e-21)
(0.817311 0.0543435 1.44276e-21)
(0.998945 0.0219583 0)
(0.517749 0.0420705 -4.62696e-21)
(1.10624 0.0788021 1.48984e-20)
(1.01527 0.00740282 -1.82234e-21)
(1.00831 0.00126825 -4.98811e-23)
(1.06424 0.0253939 3.79013e-21)
(0.99229 0.0100666 -7.65413e-21)
(1.01774 0.00214148 2.68916e-22)
(0.978335 -0.0041823 -2.46501e-22)
(1.00755 0.000941143 -2.60955e-21)
(0.983989 0.0308153 -8.74262e-21)
(1.08652 0.0671113 -3.5778e-23)
(1.00326 0.0252351 1.60057e-21)
(1.09077 0.0226838 -6.17899e-21)
(0.963773 0.0221368 0)
(1.05556 0.0448131 -1.36703e-21)
(0.542782 0.0412151 -4.51712e-21)
(0.861373 0.0492455 0)
(1.05596 0.0935856 -3.86628e-21)
(1.02759 0.0341515 0)
(1.02773 0.566383 -3.72263e-20)
(1.08289 0.0706118 2.10893e-20)
(0.990632 0.107248 -2.4893e-21)
(0.871482 0.0456333 2.26728e-20)
(1.08379 0.0667701 -1.15779e-20)
(0.990076 0.00383403 0)
(0.972518 0.0909331 -3.45178e-21)
(0.980791 0.0553252 -1.92089e-21)
(0.616403 0.0183393 -1.83537e-20)
(0.988663 0.0158739 0)
(1.09474 0.0634991 2.00256e-20)
(0.999988 5.02368e-05 -1.39011e-20)
(1.08884 0.0255794 -1.27531e-20)
(1.0914 0.0857933 -2.37931e-20)
(1.12863 0.169617 3.1316e-20)
(0.689104 0.0515845 -2.7473e-21)
(0.981506 -0.0035324 1.56394e-21)
(1.03297 0.40908 -1.52123e-20)
(0.96327 0.0238747 7.37032e-21)
(1.00384 0.000575225 -1.58166e-21)
(1.0626 0.0635584 7.06472e-21)
(1.0932 0.068373 2.62312e-20)
(0.923509 0.029832 0)
(1.11915 0.522195 0)
(0.999016 0.00109716 -6.77112e-21)
(1.00264 0.000464733 -4.20688e-21)
(0.959583 0.122604 6.17587e-21)
(1.09212 0.0683488 -1.0819e-20)
(0.836275 0.366199 0)
(1.10909 0.0894481 6.06361e-21)
(0.998322 0.0283146 4.88907e-21)
(1.00145 0.00919184 6.18191e-21)
(0.920787 0.0886732 -2.77024e-20)
(0.97095 0.0892675 3.02534e-21)
(1.03341 0.0219376 5.71684e-22)
(1.01542 0.00707639 0)
(1.10909 0.0582914 1.47391e-20)
(0.998813 0.021488 3.38928e-21)
(0.993528 0.0447546 5.41499e-22)
(0.612859 0.0500027 0)
(1.06231 0.0602207 1.00005e-20)
(1.08914 0.0776437 4.0129e-22)
(0.774814 0.0352961 0)
(1.08294 0.0660392 0)
(0.586618 0.0502233 0)
(1.01461 0.411029 -8.44411e-21)
(0.971582 0.0582225 1.37682e-21)
(0.547019 0.041696 1.82676e-20)
(-0.00385095 0.0428774 2.86167e-20)
(1.0012 0.000307519 -7.15231e-21)
(1.02135 0.00762239 -2.17049e-23)
(1.11659 0.102251 0)
(1.11307 0.102997 1.10431e-20)
(1.01726 0.0596227 1.70435e-21)
(1.01752 0.00201062 0)
(1.00071 0.0356033 9.67166e-21)
(0.999773 -0.000894863 -2.54474e-21)
(0.882667 0.0501815 0)
(1.1956 0.189191 8.07199e-21)
(0.938324 0.00538272 1.45732e-21)
(1.03568 0.0328864 -1.97283e-21)
(0.985104 0.0309584 0)
(1.05474 0.0456226 1.64791e-21)
(0.626672 0.04054 0)
(0.999533 -0.00118684 0)
(0.357845 0.0193914 -2.41816e-20)
(0.989605 0.00411462 -7.66996e-23)
(1.03004 0.0421061 0)
(1.0953 0.0963077 0)
(1.12544 0.119907 1.95196e-20)
(1.06479 0.0570285 -4.04159e-22)
(0.978625 0.0607662 -1.52714e-20)
(1.06513 0.060487 -3.31737e-21)
(1.01013 0.00112213 -2.19774e-21)
(0.527359 0.0412029 -2.30512e-20)
(1.06225 0.0643862 0)
(1.00173 0.00209192 4.57033e-21)
(0.99837 0.00050953 -7.1227e-21)
(1.09585 0.061924 -1.68211e-20)
(1.07717 0.0653256 2.05047e-20)
(1.05112 0.0250796 -7.15383e-21)
(1.0933 0.0727098 -1.0082e-20)
(1.0271 0.0360476 0)
(0.999687 0.00722934 -2.85797e-21)
(0.646121 0.0479452 -1.14208e-22)
(1.09634 0.0482637 0)
(1.09961 0.0263954 -2.12682e-21)
(1.1112 0.0579288 -6.92684e-21)
(1.00179 0.00201114 0)
(0.393203 0.0218714 0)
(0.980243 0.00386867 -8.81914e-22)
(1.01911 0.00747115 -1.60259e-21)
(0.71336 0.0208242 0)
(0.988288 0.109737 -5.73549e-21)
(1.06133 0.0568769 2.43356e-20)
(1.07943 0.0535743 6.46122e-21)
(1.04149 0.0681985 0)
(1.09357 0.0640823 0)
(0.999554 0.00777174 5.19306e-23)
(1.02067 0.00429785 -2.75292e-22)
(1.03582 0.033816 -2.46699e-21)
(0.992106 0.0111866 1.40759e-22)
(0.894207 0.0511723 0)
(1.19691 0.196648 -7.97568e-21)
(0.927263 0.0244455 -1.85875e-20)
(0.700776 0.0191503 0)
(1.11547 0.0565928 0)
(1.09256 0.0651898 0)
(0.982496 0.110786 3.45362e-21)
(1.08998 0.0819374 1.44516e-20)
(0.906437 0.0670331 -1.65497e-20)
(1.09469 0.0979051 1.45141e-20)
(1.00131 0.00801394 4.01105e-21)
(1.02707 0.0498898 0)
(0.992526 0.0113731 8.39353e-21)
(0.999975 0.00010528 6.07471e-21)
(0.932369 0.0655567 1.53588e-20)
(1.07029 0.0643477 -1.00188e-20)
(0.986764 0.0378503 -4.52381e-21)
(1.03817 0.0272084 1.39589e-21)
(0.625799 0.0415827 1.67271e-20)
(1.0042 0.00672566 0)
(1.09301 0.0529181 1.07125e-20)
(0.987102 0.0100891 0)
(1.00251 0.0504374 0)
(0.608599 0.0462865 0)
(0.980489 0.00334672 2.09549e-22)
(1.01843 0.0204319 -1.46255e-21)
(0.932872 0.174032 -1.12271e-20)
(1.08316 0.0692786 5.15373e-21)
(1.09076 0.0625558 2.9452e-20)
(1.03179 0.0138525 -9.75237e-22)
(1.08575 0.0606246 1.20798e-21)
(0.984156 0.00550276 1.65244e-20)
(1.092 0.0225646 0)
(0.872739 0.0947185 2.57031e-20)
(1.13263 0.173884 -3.09801e-20)
(0.55172 0.0379591 0)
(0.912951 0.051495 0)
(0.860424 0.0472233 -2.88058e-20)
(1.0167 0.0334184 3.41722e-21)
(0.963307 0.122901 -6.5372e-21)
(1.00646 0.00204494 1.32334e-21)
(1.06614 0.087953 -1.06701e-20)
(0.970833 0.0566234 -1.18783e-21)
(1.00202 0.00648163 0)
(1.00129 0.000243863 6.4503e-21)
(0.991626 0.0209679 6.55811e-21)
(0.710684 0.0528246 0)
(1.09253 0.0865796 2.8804e-20)
(0.890142 0.0504405 0)
(1.09882 0.0678294 1.39656e-23)
(1.02095 0.00447301 1.19868e-22)
(0.841385 0.389026 -1.03017e-20)
(0.999618 -0.00105618 0)
(0.998737 0.000243817 -4.61732e-22)
(0.998207 0.0211682 -1.79072e-21)
(1.00341 0.0495189 2.74078e-21)
(1.08336 0.0274763 -8.53112e-23)
(1.09356 0.0465878 1.00197e-20)
(1.12478 0.0809823 -8.66683e-21)
(1.01768 0.00166239 -1.67399e-21)
(1.09804 0.0689304 -4.37721e-23)
(0.99988 0.00460228 0)
(0.751259 0.0340639 1.77743e-21)
(0.999296 0.000601198 6.68351e-21)
(1.11496 0.0572361 3.57039e-20)
(1.09888 0.0695593 9.66526e-21)
(0.99757 0.0212434 9.69081e-21)
(1.04785 0.0174036 8.1328e-22)
(1.08088 0.245218 3.5636e-20)
(1.0383 0.117897 0)
(0.790422 0.0830698 -1.4955e-20)
(0.991942 0.0216928 -8.52132e-23)
(0.998574 0.000279439 4.62038e-22)
(1.07707 0.0523499 -5.93152e-21)
(1.00139 0.00858314 -1.15279e-20)
(1.01323 0.0495612 3.13383e-20)
(1.01588 0.0599896 -1.08253e-21)
(1.05025 0.0251193 7.34388e-21)
(0.939616 0.0536035 -2.08075e-20)
(1.08639 0.0591463 -2.91196e-22)
(1.08299 0.0920125 -5.98951e-21)
(0.751437 0.0384702 2.29684e-20)
(1.0976 0.130668 0)
(1.00189 0.00626048 0)
(1.08272 0.0741728 -4.70724e-21)
(1.01956 0.072421 -1.28493e-21)
(1.09068 0.083785 -7.40377e-21)
(1.08639 0.0604179 0)
(1.02088 0.00630546 3.75204e-22)
(0.993343 0.0033131 7.41035e-21)
(1.03331 0.0119016 -4.63015e-23)
(0.942271 0.0524253 0)
(1.00062 0.00374779 -4.12275e-21)
(0.992677 0.0123626 -7.69687e-21)
(1.00277 0.000368 0)
(0.999965 0.00443769 -7.03881e-22)
(1.08665 0.05977 1.05383e-20)
(0.965014 0.00544032 -9.41238e-21)
(1.02724 0.0487714 1.49867e-22)
(1.01057 0.00710953 5.537e-21)
(0.608144 0.0452145 -1.09507e-20)
(0.688532 0.0209649 -4.80296e-21)
(1.09722 0.0465148 0)
(0.66017 0.0521072 -2.60128e-20)
(0.657041 0.0158162 -1.86624e-22)
(0.999466 0.00714263 4.08638e-21)
(0.998898 0.000855094 4.39061e-21)
(1.10194 0.0445016 -2.29711e-20)
(1.09588 0.0624321 2.17234e-20)
(1.01556 0.0170402 -2.06428e-21)
(0.984659 0.00492243 -1.05852e-20)
(0.90971 0.0058071 9.77671e-21)
(1.06009 0.0644309 1.62433e-20)
(1.01757 0.0015216 1.71322e-21)
(0.995115 0.0172747 9.60863e-21)
(1.09536 0.101389 0)
(0.93761 0.006715 1.22123e-22)
(1.00414 0.00644148 0)
(1.10757 0.017679 -1.30579e-22)
(1.09541 0.132698 0)
(0.999974 0.000187108 0)
(1.01783 0.020303 7.84285e-22)
(1.04707 0.017521 5.35893e-21)
(0.928862 0.204824 0)
(1.01451 0.00881487 0)
(1.07917 0.103138 0)
(0.976439 0.204412 8.39952e-22)
(0.999743 0.00755083 2.89566e-21)
(1.0929 0.0537105 0)
(0.961585 0.0244263 -1.77346e-20)
(0.998749 0.00586895 9.03295e-21)
(1.08724 0.0671076 1.20593e-20)
(0.376929 0.0230864 1.54977e-20)
(0.993292 0.00289047 -1.62175e-20)
(0.834184 0.279813 2.75033e-20)
(0.490243 0.0363279 -9.93049e-21)
(0.953858 0.0535015 0)
(1.00203 0.00199858 0)
(0.731288 0.0521239 1.10586e-20)
(0.984362 0.0041503 -2.80534e-21)
(1.08736 0.0291775 -1.05314e-20)
(1.07218 0.037041 0)
(0.825061 0.0456041 0)
(1.01384 0.00854813 0)
(1.08522 0.0668999 2.5209e-20)
(1.00139 0.00776755 -3.36086e-21)
(0.981347 0.0585517 6.37015e-21)
(1.0833 0.028492 1.23469e-20)
(0.991974 0.00943592 8.58546e-21)
(1.03188 0.0338132 -3.25983e-22)
(0.999989 9.18783e-05 0)
(1.01351 0.00861924 0)
(1.03302 0.0115246 0)
(0.981591 0.0537105 1.93414e-21)
(1.09207 0.0514953 0)
(1.02011 0.00421101 -4.49552e-22)
(1.05411 0.0239018 1.03145e-20)
(1.05749 0.092193 -4.39581e-21)
(1.06122 0.0647396 -7.81865e-21)
(1.02096 0.00750933 0)
(0.516116 0.0399363 0)
(1.07059 0.0380571 -1.34417e-20)
(1.0608 0.0586186 5.40728e-21)
(1.01456 0.00847704 -1.16603e-21)
(0.855292 0.0824214 -5.00922e-20)
(1.09212 0.0524276 -1.03266e-20)
(1.06383 0.026554 -4.08424e-21)
(1.12494 0.0451003 0)
(0.895276 0.0515341 0)
(0.99892 0.00577541 -7.55688e-21)
(0.99962 0.00809844 0)
(0.901059 0.0531573 3.24422e-20)
(1.00568 0.00153744 0)
(1.01985 0.0173267 4.0764e-22)
(0.905625 0.0699223 2.17721e-20)
(0.997893 -0.000812369 -6.73727e-21)
(0.978756 0.00258245 1.37535e-20)
(1.10276 0.0798191 -3.08425e-20)
(1.08848 0.0704814 6.7576e-21)
(0.940442 0.0626572 -9.92682e-21)
(1.1218 0.0464136 -7.61675e-21)
(0.980721 -0.00342359 -2.14956e-21)
(1.0422 0.0970793 5.28327e-22)
(0.629126 0.0445724 9.69932e-21)
(1.08354 0.069932 0)
(0.962964 0.0686843 -1.62516e-20)
(0.7252 0.055049 0)
(1.08844 0.0686581 1.67279e-20)
(1.00198 0.00396435 0)
(0.96754 0.0901275 7.98934e-21)
(0.999807 -0.000770054 5.17393e-21)
(1.10803 0.0212066 -1.13311e-20)
(0.987707 0.119928 1.25602e-21)
(1.0023 0.00552741 5.16347e-21)
(1.10684 0.0884727 1.15177e-20)
(0.992221 0.00908088 -9.82058e-23)
(1.02828 0.0348276 0)
(1.00562 0.049181 -1.53957e-21)
(0.597521 0.0145279 0)
(0.841592 0.0475213 -3.6317e-21)
(1.06341 0.0353354 -1.07586e-20)
(0.762692 0.17883 -3.71262e-20)
(1.00218 0.00433486 4.94551e-21)
(1.09849 0.124839 0)
(0.995151 0.0427778 -5.96057e-21)
(1.00249 0.00549058 0)
(0.999995 7.97207e-05 -4.48402e-21)
(1.10112 0.0784235 2.0396e-20)
(1.01506 0.0102748 -1.30304e-21)
(1.06331 0.0359735 8.51914e-21)
(1.05621 0.0953659 3.49287e-21)
(1.0628 0.0265329 0)
(1.0621 0.0637254 3.50006e-21)
(1.06729 0.0410122 0)
(1.01952 0.0772924 9.9705e-22)
(0.529638 0.0395746 8.82179e-21)
(1.07317 0.0333787 1.43924e-20)
(1.0983 0.0680068 -1.67875e-20)
(1.03559 0.116581 -1.86491e-21)
(0.844218 0.27039 -2.59445e-20)
(0.940373 0.000752871 2.13231e-20)
(0.958767 0.05432 7.27063e-21)
(1.0539 0.0141417 -4.9398e-21)
(0.940789 0.336515 5.07774e-21)
(0.979625 0.00249481 0)
(1.09634 0.126503 -3.94564e-21)
(1.04682 0.0487123 9.15944e-21)
(1.00579 0.16622 0)
(1.06647 0.0583418 6.48995e-21)
(1.09346 0.0662329 -4.47539e-21)
(0.796167 0.0722445 5.40369e-20)
(1.00182 0.0353063 -4.59381e-21)
(0.998785 7.83139e-05 0)
(0.798141 0.0521899 0)
(0.995095 0.0576875 2.88801e-21)
(1.09205 0.06677 3.6123e-23)
(0.828734 0.0334007 -2.62796e-20)
(0.942279 -0.000429755 -2.91862e-20)
(0.999326 0.000470098 -6.80149e-21)
(0.999992 1.80681e-05 -1.01037e-20)
(1.01063 0.014571 -2.70572e-21)
(1.02557 0.0507927 -3.18126e-20)
(1.00214 0.00411942 0)
(1.07336 0.0371202 3.37296e-21)
(1.0917 0.0845064 1.52487e-20)
(0.974567 0.0599475 0)
(0.960405 0.0692888 1.815e-20)
(1.09413 0.0675914 4.78756e-21)
(0.991514 0.3154 -4.69242e-21)
(0.876421 0.0383787 0)
(1.01137 0.00783192 -2.2473e-21)
(1.07372 0.0328336 -2.09078e-20)
(1.07317 0.0352559 3.75564e-21)
(1.08314 0.0735252 -9.53713e-21)
(0.999893 0.00308575 6.29198e-21)
(1.05018 0.0145561 -4.65811e-22)
(0.998941 6.19304e-05 0)
(1.05247 0.153247 9.03158e-22)
(0.655919 0.0524186 0)
(1.03215 0.0329306 0)
(0.999957 0.00310268 0)
(1.11078 0.0558358 -1.15427e-20)
(1.08262 0.0775029 -2.05334e-20)
(1.03432 0.0229441 1.75901e-21)
(1.00197 0.00210661 -4.76289e-21)
(0.694876 0.0547793 -1.44769e-20)
(0.995156 0.000496558 0)
(0.523087 0.0438328 6.17921e-21)
(1.00056 0.00192967 0)
(1.07917 0.0623218 -2.99892e-21)
(0.835991 0.0417623 0)
(0.97398 0.0585926 0)
(0.965727 0.0881604 -2.25169e-20)
(1.09233 0.05499 0)
(0.999947 0.000986821 -4.42494e-21)
(0.464049 0.0367929 0)
(1 2.5601e-06 1.07231e-20)
(1.0109 0.00872016 3.27816e-21)
(1.01613 0.0341295 -1.78913e-21)
(1.08609 0.0510574 1.45802e-20)
(0.924026 0.0238954 2.83276e-20)
(1.10872 0.018523 -6.0935e-21)
(0.938189 0.169479 9.43976e-21)
(0.997666 0.00612337 2.06253e-21)
(0.999982 0.00342431 -3.025e-21)
(1.09817 0.0683298 0)
(1.08685 0.0703337 -2.04344e-20)
(1.02206 0.00763787 9.4506e-23)
(0.987287 0.00949229 0)
(1.001 0.00877565 0)
(1.09188 0.0609103 -1.3272e-20)
(0.978278 0.306831 0)
(1.02207 0.02075 0)
(1.12235 0.11754 -4.80305e-20)
(1.01681 0.0135483 -1.47144e-21)
(0.440179 0.0374041 2.11672e-20)
(1.00203 0.00437975 -4.36956e-21)
(1.07722 0.16739 -6.43656e-21)
(1.09189 0.0554132 -1.37592e-20)
(0.831798 0.0630407 1.16256e-20)
(1.04971 0.0261174 6.56873e-21)
(0.737231 0.0525075 0)
(0.958109 0.0668068 5.42477e-22)
(0.998 0.0145245 -1.6462e-21)
(1.11023 0.0400652 -1.19115e-20)
(1.06387 0.0634782 9.91869e-21)
(1.00125 0.0229881 0)
(1.09093 0.0826651 -1.48638e-20)
(0.992756 0.0219262 -4.5763e-21)
(1.00202 0.000661299 0)
(0.652232 0.043567 0)
(0.996717 -0.000878803 -1.23203e-20)
(0.786762 0.0373041 1.43992e-20)
(0.88086 0.0386044 3.09101e-20)
(0.681195 0.051898 0)
(1.1161 0.0783965 3.37189e-20)
(1.07332 0.121662 -4.14426e-21)
(1.09051 0.0671695 1.26213e-20)
(1.02241 0.0165199 0)
(1.04552 0.0944423 2.23569e-21)
(0.939735 0.059463 -2.00505e-20)
(1.06951 0.0649802 0)
(0.999992 0.00322379 3.49921e-21)
(0.993539 -0.00301945 6.53325e-21)
(1.02237 0.0160262 0)
(1.00036 0.00359458 3.28823e-21)
(1.01504 0.0084645 0)
(-0.00909471 0.0720941 2.20775e-20)
(0.768618 0.219188 -4.43044e-20)
(1.00371 0.00541793 0)
(1.01073 0.00743812 -4.26636e-21)
(1.00049 0.0365426 -4.41606e-21)
(1.02214 0.0196231 -3.20196e-22)
(1.00471 0.0500597 -9.93198e-21)
(1.04699 0.0937235 6.32723e-21)
(1.1343 0.120878 0)
(0.889167 0.0509475 3.62601e-21)
(1.09632 0.119187 1.92224e-21)
(1.00787 0.00733099 -3.80712e-21)
(0.998958 0.00537776 0)
(1.11473 0.0570747 -2.06938e-20)
(0.996978 0.156769 -2.05538e-21)
(0.986547 0.0322469 -8.86235e-21)
(0.992264 0.0120382 0)
(1.03853 0.121112 4.67175e-21)
(1.00186 0.000630133 0)
(1.04665 0.0169154 -7.22351e-21)
(1.00394 0.000431433 1.83172e-21)
(0.986504 0.116313 -2.76617e-21)
(1.06721 0.0304747 1.44775e-20)
(0.557101 0.0433535 -9.47293e-21)
(0.721848 0.0506439 2.07854e-20)
(1.15454 0.105762 -3.46305e-20)
(-0.015893 0.0402897 -2.939e-20)
(1.01256 0.000735113 0)
(1.07369 0.0346273 1.25469e-20)
(0.873391 0.0502795 -8.5684e-21)
(0.987583 0.0105481 0)
(0.957519 0.0649966 -1.31199e-20)
(1.04964 0.0148346 0)
(1.01509 0.00812899 9.86339e-22)
(1.07379 0.0653618 2.67822e-24)
(1.07566 0.120425 -9.96745e-21)
(0.999957 0.000855104 0)
(1.09418 0.0653454 0)
(1.02464 0.0346197 -2.161e-22)
(0.988746 0.0110578 0)
(1.10485 0.0894111 -3.23644e-20)
(0.995401 0.000381612 0)
(0.966963 0.070871 -1.22546e-20)
(0.996089 0.0117348 8.08386e-21)
(0.851086 0.0440413 2.54823e-20)
(1.04588 0.0169782 0)
(0.940768 0.358967 -7.70861e-21)
(1.10482 0.079899 1.79141e-20)
(1.09801 0.0670968 0)
(1.02011 0.0580579 -5.38241e-22)
(0.849022 0.0396974 0)
(1.09801 0.0481476 0)
(1.01888 0.0378735 -1.26609e-21)
(1.00234 0.023381 -3.47266e-21)
(0.983995 0.0474711 -4.16408e-21)
(0.860666 0.275807 0)
(1.01513 0.00987198 1.24491e-21)
(1.11412 0.0565531 0)
(0.8347 0.14611 -8.90126e-20)
(0.966468 0.000734711 0)
(1.02861 0.0474245 3.97806e-22)
(0.940593 0.0179109 7.16082e-21)
(0.707649 0.0560085 -4.45154e-20)
(0.997772 0.00583202 -2.02537e-21)
(1.01693 0.0131955 3.06922e-21)
(1.04839 0.153463 -2.40886e-21)
(1.04831 0.0191528 0)
(0.996715 0.0792657 8.4257e-21)
(1.00365 0.00515135 -2.929e-22)
(1.08758 0.0626149 -1.13109e-20)
(1.00806 0.00796636 -2.19349e-21)
(1.00182 0.00973619 -4.34984e-21)
(0.194551 0.00759945 0)
(1.09659 0.0611868 -4.24583e-21)
(1.0003 0.00361649 6.85661e-21)
(1.01018 0.00918866 -1.89284e-21)
(1.09457 0.0482525 -5.21938e-21)
(1.00094 0.0279063 -4.03787e-21)
(1.0744 0.0584241 5.94993e-21)
(1.00112 0.00237563 6.72712e-21)
(0.869842 0.266262 2.00517e-20)
(0.964637 0.071411 1.4551e-20)
(0.698999 0.0552506 -1.0983e-20)
(0.999998 -7.60842e-06 5.05162e-21)
(0.99903 0.000948121 0)
(0.986154 0.0368019 0)
(1.00813 0.00108712 3.09905e-21)
(1.10268 0.0787335 -1.7353e-20)
(0.57927 0.0124074 -2.12176e-20)
(1.09493 0.0730178 7.57963e-21)
(0.765431 0.046745 -3.35185e-20)
(1.08953 0.0451016 2.02337e-20)
(0.33222 0.0192861 2.67614e-20)
(1.07686 0.0539323 -2.50127e-20)
(1.09457 0.0511693 0)
(1.00103 0.00226403 2.27024e-21)
(0.997551 -0.000659298 4.47613e-21)
(0.82953 0.0512808 0)
(1.09882 0.0689004 -5.44078e-21)
(0.996932 -0.000820929 1.22163e-20)
(1.0717 0.0380738 1.38182e-20)
(0.99698 0.0075255 0)
(1.09433 0.0647489 -6.72544e-21)
(1.01802 0.0073873 2.55949e-21)
(1.00204 0.00966691 1.68326e-21)
(0.99465 0.0153253 0)
(1.09175 0.0687622 2.73891e-20)
(0.926744 0.404003 0)
(0.974557 -0.00480667 -2.40411e-20)
(1.00131 0.00582049 5.32568e-21)
(1.00142 0.00603211 8.2394e-22)
(0.941806 0.0526867 0)
(1.10022 0.0698288 1.10193e-20)
(1.02727 0.0742076 5.273e-22)
(0.993456 0.107932 2.93307e-21)
(1.09147 0.079508 0)
(1.05142 0.0147918 0)
(1.01515 0.00675773 -4.74668e-22)
(1.07644 0.0533124 1.44972e-22)
(0.677605 0.0476257 0)
(1.05756 0.0590256 -1.89024e-23)
(1.00806 0.00708934 4.13118e-21)
(1.01955 0.00330463 3.18993e-22)
(0.976914 -0.00395177 1.09586e-20)
(1.06751 0.0400703 5.56777e-21)
(0.978978 0.0566184 1.77063e-22)
(-0.0108651 0.0774213 -6.78522e-21)
(1.09333 0.0671299 2.07648e-20)
(1.06527 0.0582141 -1.32789e-20)
(1.11675 0.0559206 -1.31823e-20)
(1.01799 0.0180678 1.83464e-22)
(1.01328 0.000281089 1.50146e-21)
(1.09076 0.0264564 1.37821e-20)
(1.02037 0.00440055 0)
(0.153891 -0.011465 0)
(0.81392 0.0517694 2.53757e-20)
(0.656944 0.0457947 -2.57773e-21)
(1.0989 0.0373932 -4.76626e-21)
(0.944007 0.0527603 8.85277e-21)
(1.03192 0.0173194 0)
(0.996448 0.0118031 0)
(1.07491 0.0843348 -7.14662e-21)
(1.09077 0.0606996 0)
(0.659319 0.0538513 3.55286e-21)
(0.999431 0.00682566 0)
(1.04401 0.0982032 -4.84154e-21)
(0.893511 0.0486344 0)
(1.02505 0.0337699 0)
(0.957255 0.0538486 0)
(0.685776 0.056055 1.55345e-20)
(1.01771 0.0071101 1.03578e-23)
(1.00432 0.00053067 3.63671e-22)
(0.922224 0.0914956 1.85425e-20)
(0.998297 -0.00115312 1.59054e-20)
(0.935903 0.00338242 2.0225e-20)
(0.856591 0.0367533 0)
(0.85248 0.0484405 -1.99545e-20)
(0.464212 0.030158 0)
(1.04605 0.200502 5.95539e-21)
(1.09653 0.114107 7.5526e-21)
(1.09632 0.0470774 1.00032e-20)
(0.655139 0.0513211 -6.9749e-21)
(1.01458 0.0170329 2.07692e-21)
(1.09457 0.0386959 -8.95715e-21)
(0.999107 0.00528973 0)
(1.0188 0.0576904 0)
(0.617362 0.0506389 -1.88074e-20)
(1.01953 0.00305635 5.99261e-23)
(0.989392 0.620514 4.25199e-21)
(1.00131 0.0283569 -5.16577e-21)
(1.05735 0.0448277 6.82229e-23)
(1.10505 0.0738824 0)
(0.933152 0.346888 3.09671e-21)
(1.02834 0.0418005 4.12139e-22)
(1.00013 0.000156235 0)
(1.08009 0.0532134 3.90836e-21)
(0.989323 0.0155036 0)
(1.11233 0.105955 -3.035e-20)
(0.997249 0.0470734 0)
(1.02526 0.0355623 3.64064e-22)
(1.08882 0.0453955 -2.83558e-20)
(0.155329 -0.00732142 2.90502e-20)
(1.00155 0.00230139 4.37076e-21)
(0.937131 0.0705056 2.2255e-20)
(1.0352 0.122794 -3.47352e-21)
(1.0023 0.00576135 -5.63712e-21)
(0.987266 0.00326603 -8.20158e-21)
(1.00757 0.0308179 -1.78073e-21)
(0.534173 0.0436621 1.71233e-20)
(0.853662 0.355103 8.77541e-21)
(1.00807 0.00758307 -2.29301e-21)
(1.00195 0.00375402 -4.78159e-21)
(0.997829 0.0779335 -3.84433e-21)
(0.226216 0.00408746 -1.91045e-20)
(1.01975 0.000907997 0)
(0.984908 0.00366128 2.75459e-21)
(0.213912 0.0162254 0)
(1.01064 0.00836642 3.47568e-21)
(1.0184 0.00729217 0)
(1.09799 0.0630785 1.15813e-20)
(0.668817 0.0525083 6.01653e-21)
(1.10347 0.0644701 2.06751e-20)
(1.00245 0.00520329 5.12413e-21)
(1.01472 0.00679348 4.50038e-22)
(1.10884 0.0204533 7.26841e-21)
(0.967544 0.000346003 -8.2446e-23)
(0.999855 0.00204553 0)
(0.720511 0.0487394 -1.01339e-20)
(1.08696 0.0579195 0)
(1.09411 0.0640796 0)
(1.04167 0.0615659 0)
(0.977755 0.0904248 0)
(0.975404 -0.00453896 2.30682e-20)
(0.997821 0.106199 1.71694e-21)
(1.01462 0.022235 -2.99179e-21)
(1.06459 0.0593403 6.24236e-21)
(1.08706 0.0586459 -4.88339e-21)
(1.01813 0.0175116 -1.4807e-21)
(0.510917 0.0461606 5.0849e-21)
(1.06514 0.0761995 -1.00594e-20)
(1.02146 0.056362 0)
(0.725538 0.0563464 -1.74829e-20)
(1.10444 0.057826 6.06627e-22)
(1.01834 0.109824 -2.10997e-22)
(0.842584 0.143378 6.73275e-20)
(1.10017 0.0373466 0)
(0.994666 0.0795705 0)
(1.00155 0.00941787 -5.84336e-23)
(1.04142 0.0204409 1.99518e-21)
(1.01446 0.0064638 0)
(0.965514 0.0218935 -7.02756e-21)
(1.05087 0.0151093 0)
(1.08927 0.016128 0)
(0.933866 0.0694275 -1.20139e-20)
(1.02232 0.0118175 -1.2339e-22)
(0.861561 0.0471385 -7.58809e-21)
(1.01483 0.130209 1.11769e-21)
(0.699348 0.0495319 -3.32216e-20)
(1.15605 0.1087 1.24491e-20)
(0.997217 0.112143 -4.57273e-21)
(0.979853 0.29319 1.10649e-21)
(0.998326 0.000693844 7.10405e-21)
(1.00144 0.00219359 -4.92822e-21)
(1.02485 0.0190356 -6.76887e-24)
(1.09805 0.0689665 2.59042e-20)
(0.875433 0.0504315 -3.83673e-21)
(1.03476 0.0325287 2.08243e-21)
(1.00018 0.022424 -7.01885e-21)
(0.792686 0.0418437 -2.28916e-20)
(0.991309 0.00166059 -4.24709e-21)
(1.01169 0.0134512 5.23586e-22)
(0.995347 0.041299 6.6422e-21)
(1.10046 0.0702962 -3.22787e-20)
(1.03247 0.0342377 0)
(0.877762 0.538518 0)
(0.965182 0.00285631 0)
(1.01657 0.0759529 0)
(0.743182 0.0501599 2.05595e-20)
(1.01555 0.00811683 -1.99704e-21)
(0.991281 0.00122445 -8.63962e-21)
(1.02218 0.00800563 -2.56442e-22)
(1.00063 0.00356982 5.0617e-21)
(-0.00722594 0.061031 9.60834e-21)
(1.04165 0.0617619 -5.73675e-21)
(0.514205 0.0286841 -4.64419e-21)
(0.990191 0.0034368 1.51166e-21)
(0.4359 0.0271265 1.17636e-20)
(0.689425 0.0492145 2.83627e-20)
(0.677949 0.0178049 -9.9418e-21)
(0.64279 0.0520535 1.80389e-20)
(1.01894 0.107124 0)
(0.717039 0.0552467 -1.87637e-21)
(0.985724 -0.00248585 -1.13774e-20)
(0.895558 0.0464194 -1.52599e-20)
(0.947345 0.0546664 -1.53503e-20)
(1.08273 0.0793395 0)
(1.09968 0.0671246 0)
(0.966324 0.002571 0)
(1.00014 0.0785325 -7.52255e-21)
(0.993018 0.0787756 -7.56108e-21)
(0.957046 0.226156 1.77703e-20)
(0.995934 0.00791609 -3.24585e-21)
(1.01954 0.0234867 2.74591e-21)
(0.807543 0.0426141 1.49125e-20)
(1.0079 0.00674457 0)
(1.01114 0.00748852 -2.22419e-21)
(1.04498 0.0606622 0)
(0.988067 0.024645 4.23628e-21)
(0.854753 0.119942 -1.92864e-20)
(-0.0133166 0.0429848 3.26465e-20)
(0.987227 0.0243683 8.95419e-21)
(0.996164 0.0623331 1.29027e-21)
(0.996457 0.063685 1.50367e-21)
(1.01409 0.0170749 0)
(1.09881 0.027465 0)
(0.976029 0.104233 4.2022e-21)
(1.00083 0.000408652 0)
(1.10305 0.0585979 -3.22782e-20)
(0.811482 0.04445 0)
(1.08144 0.169601 -4.76611e-22)
(1.0514 0.0272929 0)
(0.72316 0.0558414 2.99842e-20)
(0.84129 0.0463634 -3.33444e-20)
(1.08632 0.0189154 1.03082e-20)
(1.00394 0.0249508 -5.69705e-21)
(1.02917 0.0117689 1.34076e-21)
(1.13611 0.162029 5.01711e-21)
(0.988315 0.0030687 -2.51122e-21)
(1.00465 0.000574627 -3.69395e-22)
(1.01518 0.0315523 2.54526e-21)
(1.02196 0.0115543 -2.05305e-22)
(0.985044 -0.0022848 -5.97694e-21)
(0.999991 0.000188644 1.25117e-21)
(0.999076 0.000596541 6.65918e-21)
(1.1202 0.0261377 0)
(1.00305 0.000466134 0)
(1.01517 0.000434099 1.55499e-21)
(0.747583 0.176825 0)
(1.09261 0.0656038 0)
(0.999571 0.0225836 0)
(1.01085 0.0123955 2.648e-21)
(1.00121 0.00234545 -6.83623e-21)
(1.00063 0.023153 -3.59222e-21)
(0.999028 0.00844557 1.50337e-21)
(0.986904 0.0354832 0)
(1.02492 0.018519 -3.9638e-24)
(1.01706 0.0175694 0)
(0.824559 0.0449971 -1.05351e-20)
(1.0945 0.0471553 -9.80318e-21)
(1.12336 0.114125 2.07527e-20)
(0.998996 -9.01568e-05 -8.14402e-21)
(1.04786 0.0186314 3.58351e-21)
(1.07015 0.0390089 5.40318e-23)
(1.0488 0.026034 -3.32586e-21)
(1.08745 0.0187676 -1.16146e-20)
(0.934719 0.0628986 4.893e-21)
(0.830443 0.0320044 0)
(0.484924 0.0389081 7.21571e-21)
(0.700443 0.0469781 0)
(0.997744 0.00528308 0)
(1.00177 0.0236009 -3.77022e-21)
(1.09603 0.0730988 0)
(1.09804 0.0500705 -1.36114e-20)
(1.08384 0.0910296 -3.28936e-21)
(1.00756 0.00663268 0)
(1.00275 0.024619 8.51574e-21)
(1.06144 0.0276298 -7.5709e-21)
(0.989091 0.00609593 1.10566e-20)
(0.887206 0.38579 2.47745e-20)
(0.562214 0.0373969 2.32072e-21)
(0.992969 0.0133413 0)
(0.99919 0.0082426 0)
(0.678005 0.0450187 2.94841e-20)
(0.438335 0.0312248 0)
(1.07682 0.0974402 -4.54557e-21)
(1.08753 0.0689982 -1.11158e-20)
(0.761534 0.0357612 -3.79982e-21)
(0.0216867 0.038623 -3.51949e-20)
(0.994617 0.000768086 4.35452e-21)
(1.06289 0.0578578 1.14619e-20)
(1.09273 0.0471691 -3.03632e-20)
(1.07449 0.0829885 7.3543e-21)
(1.10366 0.0571555 -1.80795e-20)
(1.03142 0.0322147 0)
(1.02187 0.0379519 -1.03843e-21)
(0.934283 0.39285 -3.79151e-21)
(1.03454 0.125345 4.38342e-21)
(1.02148 0.0202526 0)
(0.997007 0.00260499 4.90754e-21)
(1.03957 0.0268477 3.37328e-21)
(1.00131 0.00246658 2.16425e-21)
(1.04691 0.0478665 -6.68106e-21)
(0.689374 0.0194438 0)
(1.06204 0.0743009 -6.61861e-21)
(1.0213 0.0159529 -1.4523e-22)
(1.0624 0.0276257 0)
(0.98117 -0.00592004 5.76163e-23)
(0.987898 0.00348987 1.31341e-20)
(1.0412 0.0209812 -2.20296e-21)