/*--------------------------------*- C++ -*----------------------------------*\
| =========                 |                                                 |
| \\      /  F ield         | OpenFOAM: The Open Source CFD Toolbox           |
|  \\    /   O peration     | Version:  v2012                                 |
|   \\  /    A nd           | Website:  www.openfoam.com                      |
|    \\/     M anipulation  |                                                 |
\*---------------------------------------------------------------------------*/
FoamFile
{
    version     2.0;
    format      ascii;
    class       volScalarField;
    location    "200";
    object      ddt0(omega);
}
// * * * * * * * * * * * * * * * * * * * * * * * * * * * * * * * * * * * * * //

dimensions      [0 0 -2 0 0 0 0];


internalField   nonuniform List<scalar> 
18166
(
-0.11773
8.95512e-07
0.0167264
0.000893552
-0.00218764
-0.0020674
-5.73432e-07
1.76787e-05
0.000952467
-0.057794
6.42637e-07
-0.00166151
-0.000322033
0.000444235
0.000127364
-2.20705e-05
0.280041
-6.15995e-06
0.000131664
-0.0924191
3.27635e-05
3.04215e-06
-0.000250773
5.95011e-05
0.0236846
0.147784
1.39044e-05
-0.0134129
8.65014e-06
-1.18954e-06
-4.31005e-08
0.00147376
-0.00091765
0.0220209
0.692522
-1.33927e-06
6.49388e-07
7.08196e-07
0.000188438
-0.00182136
0.00104563
0.000203862
2.6259e-06
-6.23771e-05
0.0381136
1.8274e-06
-8.51019e-08
-0.301379
8.45259e-07
-0.076772
0.038799
0.22161
6.7454e-07
-3.27629e-05
1.69808e-06
9.66997e-07
-0.0128961
-2.89545e-06
0.290034
9.99334e-07
-2.05862e-06
-6.33879e-07
-8.69494e-07
-1.46335e-07
-5.24063e-06
-2.73944e-07
9.3783e-07
-2.21603e-05
0.226846
2.10272e-06
-0.000451093
-0.000683141
-0.095193
0.000540005
2.2665e-06
-0.00357805
1.58913
0.517955
-0.0562418
4.8622e-05
3.36762e-05
-8.55956e-05
0.0205103
8.77772e-07
4.68942e-06
-1.20563e-06
0.0003264
-5.19184e-07
-9.21998e-07
2.57994
8.01499e-07
4.35922e-07
0.000163213
-8.2711e-07
0.000502653
1.00804e-05
0.0215163
-3.03434e-06
0.00464959
-0.539179
-5.43904e-06
-4.85538e-06
-1.30638e-06
0.0133576
1.67327e-06
-0.062365
1.10705e-06
1.82157e-06
-0.000276629
4.68923e-06
-0.260235
0.0213608
0.00610371
0.207505
8.08351e-05
0.0822193
0.679341
0.000460429
5.22793e-05
-2.53032e-07
-8.40698e-06
-4.85009e-07
0.000325059
-3.48952e-06
-7.26894e-08
0.000128171
0.000143599
0.000547839
4.39749e-07
-8.45626e-07
-2.61579e-07
-7.77718e-08
-0.0470344
-2.86961e-05
0.000825409
0.0892606
8.65724e-06
-0.0716004
1.16357e-06
0.0738931
-1.55309e-05
-9.73475e-06
0.000127959
0.0343664
9.80638e-07
0.26335
0.0821441
6.81829e-07
-8.36202e-06
-0.566891
0.000922162
-9.7603e-06
0.0165872
-0.140995
0.004215
-8.96485e-06
-2.88902e-05
-9.63194e-05
-0.00237567
7.44403e-05
2.3016e-05
-0.000190802
-0.23862
-7.8947e-06
-1.40506e-06
-0.000864278
0.0247379
1.20652e-05
-0.139378
-1.70114e-05
-0.00165442
0.015611
6.98267e-06
-0.123975
-2.82099e-06
-0.109318
2.87874e-06
-0.141297
9.66528e-07
-4.17342e-07
1.9054e-06
2.69637e-06
-0.105476
0.0376987
0.000140661
2.45454e-06
1.05736e-05
-1.05919e-05
3.48787e-05
2.14341e-06
-8.75272e-05
0.000162034
-0.0581223
2.58833e-06
-0.00011161
-0.00763744
0.0250331
-0.0137685
-1.41366e-05
9.80174e-07
3.96601e-05
0.00113583
-0.142615
0.000120517
8.57503e-07
-0.00362241
-1.56576e-05
0.00263525
-0.00830057
0.00100109
6.32306e-06
0.00478269
-0.0116713
0.000333492
-9.62395e-05
-1.89688e-05
-0.32935
-2.79691e-05
-9.86554e-05
-1.72094e-06
-0.000110352
-0.0864562
0.000256267
-3.62381e-06
3.28683e-06
0.172233
-8.73694e-07
1.59879e-06
0.00572771
-3.35301e-06
3.28983e-06
6.89584e-07
0.122234
8.13743e-07
-0.19042
-0.0790415
-0.0551677
-2.88405e-06
-7.46715e-06
-0.000492168
-6.42221e-08
0.00134921
1.07397e-06
0.136731
-2.48322e-06
-9.39645e-07
-0.194975
-7.1284e-07
0.000342432
-0.00099421
-0.0432319
-1.16003e-06
1.79966e-05
0.00157126
-1.37159e-05
2.82018e-06
-1.86231e-05
-3.61764e-07
1.77745e-05
1.17209e-05
0.000522369
0.00233307
8.09597e-07
-6.91318e-07
3.96983e-06
-0.000357106
0.000855041
1.23358e-05
1.9184e-06
-0.204621
8.77157e-07
9.45405e-07
0.038362
-0.00511251
0.000930226
1.01504e-06
0.0399404
6.49684e-06
-8.5138e-07
0.0253372
4.89578e-07
0.00102023
-0.0019535
9.76487e-07
-7.15585e-07
0.00114351
0.0148055
-0.000579813
1.12793e-06
-7.47276e-05
9.62574e-05
-0.150774
-8.80124e-07
9.51146e-05
-2.96656e-09
3.74642e-06
-2.6862e-06
0.0594112
2.42631e-07
-0.0559868
-0.000557538
0.012574
0.0380825
0.000248391
-1.33944e-06
0.00482309
-0.00339977
2.30796e-06
-5.16185e-06
-6.72334e-05
-2.43235e-06
5.46511e-10
2.1612e-05
1.6548e-05
8.09955e-07
5.53858e-07
6.44456e-07
0.0160744
0.012655
8.52768e-07
-2.13004
0.00012348
-0.139083
0.000113434
1.4756e-06
6.27409e-07
-3.24009e-06
0.000329969
-3.70857e-07
-0.00969646
5.86939e-07
6.01016e-06
-1.1198e-06
-2.23513e-05
-0.000112899
1.05375e-06
-0.00143282
0.00126839
-6.21374e-05
-1.4508e-06
0.0215313
1.9362e-05
0.0131752
-2.07577e-07
-2.10773e-05
3.46118e-06
-0.0591965
6.8825e-06
-1.62208e-06
1.60216e-06
0.0317981
-3.06485e-06
0.000557037
1.65684e-05
-0.316956
-6.42182e-05
2.09957e-05
-4.2441e-05
-0.131062
-0.000533807
8.98782e-06
2.58559e-07
3.20132e-07
-4.0326e-06
-0.00669593
3.73541e-07
1.27725e-06
-2.0408e-06
5.2571e-06
1.90505e-05
-9.1429e-07
-1.76373e-05
1.40437e-06
0.192595
-1.16614e-06
-2.1909e-06
-5.7847e-06
-0.00349721
-3.02355e-06
9.34371e-06
-1.44587e-06
1.6802e-06
-0.00644783
-0.137621
-1.3262e-06
3.40775e-06
0.00156173
-0.0123679
-1.53014e-05
0.0394265
-1.61096e-06
-0.21892
0.000411038
2.93042e-05
-0.00362628
-0.0014143
-2.41919e-06
-1.7308e-06
-1.65739e-06
0.00209299
-1.80784e-06
-1.63763e-06
-2.1148e-05
-1.24482e-06
4.2995e-05
2.7365e-06
2.73068e-06
0.107626
0.0434406
-1.23261e-06
-8.23956e-06
0.00631568
0.00637956
-2.94317e-06
5.87166e-07
-0.635405
1.4285e-05
-3.11204e-07
8.7435e-07
6.02928e-05
-1.11929e-06
7.02132e-07
-0.290452
-0.239372
3.76821e-05
1.0192e-06
6.57531e-06
4.1485e-07
3.00261e-07
0.00122519
8.99844e-06
1.8591e-06
-1.52092e-06
0.0271849
3.01532e-06
-1.66365e-06
5.93976e-06
0.00298947
2.63461
0.031855
-0.316331
0.0356968
0.151081
0.0428853
-2.69045e-06
0.00235022
-1.86067
-2.07481e-05
0.00112778
0.00764317
0.000142022
8.65279e-06
1.61799e-06
1.7496e-06
3.34631e-07
0.000195911
-0.00244377
-6.55135e-07
-2.24105e-06
-1.54e-05
-2.52648e-06
-1.79725e-06
4.26195e-06
4.71212e-06
2.67769e-05
-0.00405288
9.54703e-05
8.33874e-08
0.00249865
-9.84512e-06
-0.0145065
7.01445e-07
0.000183526
-1.2341e-05
-0.123342
-1.58796e-06
6.33805e-06
5.9636e-06
1.04472e-05
0.0282102
-0.000101918
-5.03229e-05
-0.107719
2.63336e-06
-0.00345523
-0.000436592
-0.00670952
1.87105e-06
-0.000107341
1.4445e-09
9.96213e-07
-5.64e-06
-1.16981e-06
0.00185023
0.0396064
-0.000432118
1.78011e-05
-7.62988e-05
5.02744e-07
1.16095e-06
6.22321e-05
-3.09827e-07
4.71958e-05
0.063383
-0.000380106
-4.50439e-07
-5.95664e-06
1.12592e-06
-0.000334989
-0.279867
-3.26183e-05
-4.17442e-06
2.60356e-06
3.11467e-06
-0.0111114
-0.00542583
0.135168
3.41156e-06
0.126283
-5.29944e-07
-9.66162e-05
-0.0742726
0.0187454
0.00191158
-0.167841
0.000398318
-1.95004e-07
5.90413e-07
7.90135e-07
2.84875e-06
0.00110336
0.000445372
2.55532
-0.271238
-0.000108978
0.281734
8.0413e-07
-1.14362e-06
0.000394535
-2.27931e-05
1.53977e-05
-0.00115346
-0.00212821
0.00586519
-1.43532e-06
-0.000195293
4.42841e-06
-1.69839e-06
-0.571253
9.57849e-06
0.000255312
1.15917e-05
7.09511e-07
0.000471319
3.18764e-06
-1.68054e-06
-0.00932888
-0.00172765
4.06699e-06
0.124504
-2.70869e-06
0.000478384
0.00943201
2.28758e-06
1.44424e-06
-0.209417
-2.21753e-05
0.000246352
-1.76947e-06
1.00533e-06
6.69357e-05
-1.68754e-06
-0.122755
9.6454e-07
-0.026403
-0.0170689
7.19477e-05
-2.55703e-06
2.49849e-05
8.57415e-06
7.21342e-06
0.000501961
5.16306e-05
1.31565e-05
-0.0109744
-1.24225e-05
-8.93485e-07
4.48945e-07
-0.00538502
5.11209e-06
0.104773
-1.09906e-06
0.0200253
0.000895732
8.4668e-07
5.13778e-06
3.51832e-06
0.0769163
-0.00573812
-0.0489748
1.06201e-06
0.000698852
3.7843e-08
-1.45009e-06
0.00170872
1.8993e-06
-0.0272931
0.127078
-0.00345268
-2.45886e-05
-1.69163e-06
0.00129019
-6.20337e-05
2.48059e-06
-2.46595e-05
1.5045e-06
-0.00111819
-2.69476e-05
0.000285684
-0.0110586
-0.00703859
-3.49043e-06
-0.373545
-0.303375
9.22306e-07
-0.0229068
-7.79582e-07
1.33733e-06
-0.686508
0.00126285
-9.69219e-05
-7.01715e-05
1.1758e-05
-0.0137264
0.00304022
0.000243966
-2.50617e-05
-0.00103692
-6.33729e-07
-0.116492
-2.61702e-06
7.106e-07
-0.00466005
-3.35005e-06
-9.41036e-08
-8.14701e-07
0.0782241
-6.97485e-05
-2.14523e-05
0.000134434
0.00228065
-1.01125e-06
-6.81811e-07
0.0105884
-0.00170858
-0.463843
5.03805e-05
2.05237e-05
1.0907e-06
-1.98135e-05
8.6798e-06
5.26338e-05
1.37928e-05
1.03968e-06
6.80345e-07
-0.00861401
-1.47968e-07
0.0206135
-1.8168e-06
-0.00990317
-0.0206966
-6.76928e-05
-2.25173e-05
0.0584608
-0.106811
-0.126321
0.00526773
9.29998e-07
-1.11144e-05
-4.92345e-07
6.9467e-07
-9.29409e-06
1.88074e-06
-0.0245381
0.000175051
0.0522782
-0.171131
-0.0407752
0.037759
5.64918e-06
0.000708316
1.83967e-06
-7.3104e-06
-0.000975416
0.0438631
0.71947
-4.22482e-05
-0.0714964
7.47743e-07
-1.26582e-06
9.83507e-05
-0.0392603
5.24688e-06
-1.39962
-0.000308997
7.10717e-06
0.000258367
-1.10445e-06
4.32688e-07
0.000122148
-0.729541
-0.0187998
-9.29935e-05
-0.0100154
-0.0116569
0.000563255
-5.85713e-06
-3.5196e-06
-1.25254e-06
0.000880255
-0.1503
1.0996e-06
0.0364089
-6.73367e-05
-0.00202515
-9.19887e-06
-0.00601561
-0.000865213
0.00099329
-0.531337
-0.00985679
0.00128893
-4.96468e-05
-0.00246386
-3.43905e-05
2.11195e-05
3.41715e-05
0.00682611
-8.56646e-06
-0.0295598
-0.218373
-0.182925
-3.5918e-07
8.90636e-06
-3.96147e-07
-1.29234e-06
0.000509617
0.0313403
-2.33134e-06
6.80435e-06
-2.56342e-06
-0.000986817
8.34065e-06
-5.60288e-06
1.61625
7.53733e-07
0.062658
7.0909e-07
2.48768e-06
-0.000267986
0.000136791
-4.56048e-06
-0.00091923
0.00126614
0.000221464
-1.31539e-05
0.000301594
-9.0923e-05
0.393722
-5.27511e-08
-3.30546e-06
-9.17626e-07
-3.72163e-07
5.20283e-07
-4.15895e-06
-0.00266059
-0.00189718
-0.0106493
0.00286442
-0.00698477
-0.27416
-0.000787528
-0.026466
-0.00088609
-0.012697
4.74874e-07
-2.60568e-05
-9.47811e-07
5.58156e-05
0.0885587
1.8415e-05
-1.17249e-05
1.34879e-06
-0.000109485
0.0584832
-8.2831e-07
-1.85836e-07
-0.00102232
-1.78999e-06
-2.97533e-05
9.19767e-07
-6.23227e-07
-2.4151e-06
-0.0152544
-1.22913e-05
-1.26247e-06
0.0250484
0.000811493
0.000208905
-0.302838
-7.13044e-07
-0.148564
1.32883e-06
-7.11563e-06
0.0127808
0.000214698
0.164106
-0.0133003
-2.95554e-07
-9.61391e-07
9.13743e-05
4.73123e-05
-0.000160993
-1.50537e-06
-1.98815e-06
0.521758
-1.07561e-05
0.00160414
1.56088e-06
0.00037495
1.47874e-05
-1.24382e-05
0.000157413
7.6292e-06
-0.000206146
1.6763e-07
-1.20225e-06
7.30878e-05
0.000218177
-0.00236781
-0.0523882
-9.60008e-07
-0.0236599
-0.0332878
-0.000142018
-2.75792e-06
-0.00332379
0.000380983
9.28835e-07
2.9557e-05
-0.00737816
-1.61991e-06
0.00506507
8.08376e-06
-0.00896272
-2.56364e-05
-0.0201362
0.0170804
-1.54394e-06
7.50977e-06
-2.63221e-06
-0.000140833
0.0570124
9.04649e-07
-0.00280649
2.05628e-08
-3.67076e-06
0.00164891
-0.473241
-0.0257023
-9.67915e-07
0.000854508
-3.33757e-06
0.042139
3.68147e-06
-0.0553635
0.00157399
-2.68713
2.03664e-06
-1.7086e-06
-8.44293e-06
0.127738
1.40075e-05
-0.390441
-4.51497e-07
-0.974508
-0.00968538
-7.80761e-05
0.000144984
0.000937392
-0.0014921
-0.00842733
-5.43454e-05
-2.35967e-06
-0.000258805
0.000114565
-0.000440194
-0.131615
-0.00797697
-2.04142e-05
-7.45599e-07
-9.72616e-06
4.17091e-07
-2.45319e-06
-1.97477e-05
-0.447922
-4.00307e-07
-0.0977914
0.000156063
-0.00108109
-0.0176846
-3.02775e-07
4.30125e-06
-0.0293334
-0.158025
-0.00351452
-0.00167765
-0.0152923
8.52203e-07
4.91653e-07
0.011039
-1.00164
-0.0279913
-4.40297e-05
9.37156e-05
-0.00195935
2.60886e-07
7.38367e-07
1.54561e-06
2.00613e-06
-3.84987e-05
2.85859e-06
0.000529699
-8.7657e-07
-1.00349
-2.29521e-05
-0.0265815
-2.34858
-0.470749
0.0142885
0.0491643
0.0280212
-0.32687
-0.000267488
-0.00161588
-1.49127e-06
0.000108941
-5.03941e-05
-0.00633754
-0.00016008
-0.00977953
-0.000115473
0.0425281
-0.00255932
-5.47072e-07
-0.0129716
-2.02926e-06
-4.34614e-05
0.0388264
-5.13307e-07
-0.000130545
0.373109
0.0177752
-0.0726502
0.0196379
-1.74809e-06
-0.153573
-3.39129e-06
1.88248e-06
-0.000145277
-9.7863e-07
-0.0750702
-0.000217495
-4.94292e-07
-0.0010502
1.0215e-05
-1.48361e-05
-1.80301e-06
1.67757e-05
-7.42562e-05
-0.105083
0.00028959
-0.000341752
0.0490214
1.59445e-05
-0.0230321
-0.188759
-0.00181307
8.45425e-06
-0.000150279
0.9746
0.0299728
-2.44773
3.23771e-05
6.31471e-07
-0.00955665
0.0971082
4.50874e-06
0.0010414
0.00202823
0.00247762
5.47556e-05
0.0353061
0.00444661
1.4334e-05
9.3484e-07
-7.44532e-07
-3.33834e-05
-8.77579e-07
-0.0230211
-1.49855e-06
-0.118637
-0.0783504
7.09535e-06
0.480738
-2.67132e-06
-2.92243e-06
3.91122e-06
0.000488495
-0.0150706
0.000178875
-0.00591382
4.11848e-05
2.04203e-05
-3.32904e-06
-0.00625328
-0.0179704
9.61701e-07
-0.0163696
7.03235e-07
0.000120514
-0.527656
-0.170656
-0.000305873
0.000102848
1.03037e-06
4.65674e-05
0.000128496
-0.0260122
-0.0319408
-0.0838208
-0.045707
0.000585635
-0.000522632
-0.000724896
0.293151
5.88692e-06
0.0684241
-0.000175325
-0.133035
-0.000123577
-0.160588
-1.93635e-06
9.79064e-07
-6.16013e-05
-4.88423e-07
6.40376e-06
0.00442804
-7.31527e-06
0.029743
-0.0187612
-1.04991
2.27114e-06
-1.85198e-05
0.000122157
-0.0105371
-0.413613
4.6134e-05
-0.00501846
-1.59018e-06
-0.000506091
0.00049762
3.87603e-06
-8.32027e-05
-8.66632e-08
7.16053e-05
-0.00173661
0.0514857
0.0326025
1.91845e-05
-0.0203112
-0.0282004
-0.0101308
0.00115108
-7.04797e-05
-9.64669e-07
-0.189403
-9.91376e-07
8.2078e-07
-0.00397099
-6.62065e-06
0.302292
9.70085e-05
-0.262174
0.000220691
-5.84875e-07
-2.84768e-06
-1.29464e-07
0.000195443
5.75646e-06
-0.0233303
-2.91096e-07
-5.72091e-07
-2.93201e-05
0.000160018
-4.69628e-07
-0.00331311
-0.000142424
-0.269061
-2.07501e-06
9.47754e-07
3.87546e-06
-0.0158847
-4.43772e-05
5.75905e-06
0.000387012
1.27019e-06
-1.586e-06
-0.000230059
-1.09291e-06
1.30796e-06
1.28294e-06
6.36052e-05
-0.308232
-0.229894
-3.65699e-05
-7.56438e-06
0.00130315
-0.000471181
0.000593967
2.7758e-05
-3.36285e-05
0.00193483
0.209482
3.62388e-05
9.38429e-07
4.46338e-05
3.21502e-05
-0.0323232
0.000215514
6.83994e-05
-0.00181546
0.114586
0.000263031
-1.45941e-06
-4.3977e-07
-0.00182152
-0.00036332
-2.99943e-06
0.000145958
1.15806e-06
2.19592e-05
4.16789e-07
-0.022004
2.30543e-07
0.018537
0.0208867
-1.57576e-05
0.0058406
0.00059458
-0.144914
-0.00457261
0.0051201
1.63229e-06
1.96827e-06
-1.07449
-2.55101e-07
-5.84077e-05
-0.00477401
-1.38085e-07
-8.15357e-06
-0.0934774
2.75126
0.0702934
2.99394e-07
-9.57144e-07
-0.00204615
0.935886
-1.24121e-07
9.17675e-05
-0.0935739
-9.85473e-07
1.59508e-06
-1.51823e-06
0.000482509
7.20009e-05
-7.69351e-06
7.82858e-05
-1.57863e-05
1.14662e-05
-0.00103937
-0.000198033
1.16451e-06
-0.00553068
-0.00505709
-0.148182
0.000147312
-1.18415e-06
0.00105381
0.0287958
-0.119292
-1.62829e-06
0.000286177
-0.00127397
-0.00020994
-7.6125e-06
-0.00901714
0.000590525
-0.00137636
-1.60125e-06
0.000103253
-0.230342
0.141038
-8.07508e-07
8.31603e-05
-2.17846e-06
0.0740602
-4.62929e-07
0.00469649
-6.50302e-07
4.12548e-07
-1.84112e-06
-0.000708619
-7.09984e-06
-1.24258e-06
-3.61024e-07
0.0488889
-0.44193
0.000357168
3.68856e-06
-1.0348e-05
2.85262
2.673e-06
-0.328128
-1.32231e-06
3.24993e-05
-0.270154
5.35297e-08
-1.90313e-05
-0.0316712
0.0194404
0.000762009
3.28005e-05
-5.13182e-05
-1.20733e-06
-1.08563e-06
-0.00492137
-5.04475e-06
-2.72358e-05
-7.90291e-08
-0.00111649
0.00738459
-0.00800357
1.07277e-06
-3.93166e-07
-8.55657e-06
2.38631e-08
0.00198706
-3.12391e-05
0.12711
-5.27134e-05
-9.76823e-06
-0.000242305
-1.39377e-06
-0.00348115
3.84335e-06
-0.0717691
1.34091e-06
-0.00300147
0.215585
-1.21512e-06
1.25941e-07
-1.68499e-06
-9.82185e-06
2.66781e-06
4.04885e-06
0.000172962
-0.00366866
-0.00243457
-0.0714833
2.78741e-05
3.03226e-07
-1.45362e-06
-0.00831491
-4.26857e-05
1.25772e-06
2.23931e-05
0.0509342
-1.63703e-06
-2.90835e-07
0.000230284
-6.15437e-07
-2.99824e-06
4.18119e-06
7.04946e-05
3.39352e-07
1.55639e-06
-0.00822897
1.32609e-05
0.0289756
-7.91018e-07
0.130485
0.785396
-6.908e-07
0.000135752
4.23405e-06
-7.06865e-05
-4.60898e-06
-0.00122288
-0.00126509
1.31728e-05
-6.74335e-05
9.36544e-07
-0.00394678
-3.2949e-06
-1.28616e-05
-1.16122e-06
0.0277249
-0.461452
6.23137e-05
7.94027e-05
4.79131e-07
0.00010583
0.000232653
-8.04768e-07
-0.000190059
-7.26245e-07
-6.89953e-08
-1.56648e-06
-0.00116112
1.0149e-06
2.41814e-06
6.1565e-07
-4.31751e-07
-1.36387e-06
-0.00813104
2.20228e-06
-2.83941e-05
-0.0224235
1.09177
3.02448e-06
-0.0119176
1.18825e-05
5.23323e-07
-0.286513
2.64901
4.1468e-05
0.00027795
1.39516e-06
0.0020605
0.00496658
1.22583e-06
0.00024556
-7.4966e-07
-0.000492093
0.0213543
-0.16197
9.51345e-07
-2.93355e-06
-1.60055e-06
-0.00513884
-1.31697e-06
-9.29036e-07
-1.46607e-06
-0.00193833
-0.000193044
5.09136e-07
5.68003e-08
-6.75706e-05
7.52406e-06
-0.26601
0.00194489
7.49137e-06
-0.112027
-0.0100586
-4.9915e-09
-0.0020904
0.000717169
-0.00344902
0.000399426
-0.0303489
-0.00115686
-2.50217e-05
-0.0275069
0.0150039
9.32164e-05
8.29551e-07
1.04734e-06
2.58473e-05
1.45522e-06
0.0375652
-0.00274985
-4.84161e-06
2.53536e-05
-7.19829e-06
0.00175227
-0.0857194
2.61238e-07
-1.49981e-05
-1.95852e-06
2.74164e-07
1.85771e-05
4.90211e-05
3.6916e-05
0.00916275
-9.82e-07
-0.300574
0.00881376
-3.33641e-05
6.82708e-07
-2.69156e-06
1.41582e-05
5.11722e-06
-2.78377e-07
-0.0392442
0.150765
-0.591657
-1.02397e-05
0.907952
-6.21166e-06
0.147284
2.01417e-07
-0.000174111
0.000273196
-0.00143728
-1.0173e-05
-3.54001e-07
2.98039e-06
-0.057968
-0.00997424
3.54269e-05
-7.27877e-06
1.55606e-06
0.00193159
-3.28464e-05
0.0333616
-0.157226
-9.86676e-05
-4.09226e-06
1.16547e-06
-2.19544e-06
-1.39263e-06
1.65641e-06
0.000426341
-1.9989e-07
-0.00254202
-3.83993e-07
-3.24201e-06
-1.24919e-06
-0.000887975
-1.53516e-06
-0.000110266
-8.54208e-07
-2.05587e-06
2.77741e-05
3.50225e-05
1.74949e-06
9.74977e-07
0.0140354
0.0449312
-1.33584e-05
-2.00924e-06
-1.50176e-06
4.6558e-06
-0.000166352
1.89837e-05
-0.366052
-0.0297591
-0.0284471
-2.15563e-06
-0.000139719
1.81093e-06
-8.22557e-05
-1.01612e-06
-2.20054e-05
-0.00597947
5.7816e-05
1.83434
9.19476e-07
2.97444e-06
1.07881
8.33823e-05
6.82936e-06
-0.0735119
-0.0125073
-0.00389251
0.000236981
-5.83441e-05
-2.62311e-06
-0.0592555
-0.0198948
-0.00918719
-0.0125059
-0.00179824
0.00197187
-0.00337474
0.00471762
-2.45316e-05
0.00489982
0.0271441
-0.114454
-1.76709e-05
0.000295071
0.000281874
-0.176342
3.42551e-06
0.00711039
-0.00173639
0.000217108
-8.74577e-05
-2.85188e-05
-3.82419e-07
-1.19325e-05
4.9736e-06
-1.63716e-06
-1.72598e-06
-2.69776e-07
-0.0574973
-0.211977
1.3463e-06
0.000340149
5.03784e-06
0.0199979
-0.0871577
4.69478e-06
0.00446886
-0.000106061
-0.175187
-0.0010143
-0.0482753
-3.97843e-05
-0.0335226
1.55101e-05
3.84938e-09
0.000472786
1.14472e-06
-7.57982e-05
-0.0223797
-0.00074541
-1.32503e-05
-4.47225e-07
-1.11171e-05
-5.17975e-06
-0.387438
0.0116276
5.64391e-05
-0.000493876
-0.0111464
-0.0566482
-1.96082e-05
9.17728e-05
4.50393e-06
1.00291e-06
1.18531e-06
-0.289447
-0.861766
-0.286906
6.20007e-05
-4.57674e-07
0.00327529
-1.01261e-05
0.00284177
-0.000204418
-0.44646
-4.22602e-07
-3.05977e-05
0.00197599
1.10171e-05
-0.0229915
-1.0689e-07
2.76502e-06
-0.000109845
-0.0337271
0.000150263
-0.000475825
0.000139309
-6.36615e-06
-9.58699e-06
1.37614e-06
1.28847e-07
9.32363e-07
7.94175e-06
-0.000167898
-6.46247e-06
8.46056e-06
-3.01813e-06
0.0163609
-1.22576e-06
-0.0285629
-0.00390894
0.00117741
-0.69482
5.5924e-07
1.45676e-05
2.31e-06
3.92618e-07
0.000593858
0.000229674
-0.364597
1.46044
-0.00365981
-8.10472e-07
-0.000125844
0.226763
-0.167553
-0.438285
-5.83185e-05
-0.000592217
0.000206135
-6.31174e-05
-0.000993815
-5.32801e-05
0.000626625
-5.12986e-05
0.0011758
0.877111
0.0013652
-0.00101289
3.5271e-06
-2.51087e-06
0.0184456
0.0130482
0.00012756
0.0116664
-0.0695325
-0.0314282
0.108105
-0.00157541
3.73932e-08
-2.54302e-05
-0.178776
0.00111602
0.00272055
-0.292245
2.00804e-06
-0.0032383
2.42141e-08
-5.6524e-07
-7.07043e-06
-8.54217e-06
-0.00781952
-3.07327e-06
-1.02103e-05
-0.0301531
1.53649e-06
-0.0429823
-5.21993e-07
1.61748e-06
-0.163538
6.55096e-07
2.06669e-05
-0.456427
-2.68286e-06
-3.78797e-05
-1.8942e-07
1.40678e-06
0.00150522
8.63955e-07
8.77869e-07
-0.00372388
-1.82273e-05
6.47051e-05
1.1854e-05
-1.16623e-05
0.000303718
-2.60915e-05
0.0058218
-0.000652806
-6.03598e-06
2.28139e-06
-2.43028e-06
0.000122841
-0.137591
2.61755e-06
-0.106366
2.77564e-05
0.0262917
-0.000384304
0.000887514
0.0303059
4.2506e-06
0.020674
-7.23054e-06
-0.00757164
-3.50132e-07
1.44143e-05
1.42802e-06
-1.21398e-06
6.18608e-05
-1.70364e-06
0.0208916
-8.66053e-05
-0.0768897
-4.77124e-09
1.65668e-05
0.0784746
0.112251
-0.35701
-0.10015
-0.238526
0.000224853
1.73486
1.15766e-06
1.0521e-06
0.0274568
-1.16872e-06
0.0311318
-0.000683015
-0.000112738
0.000253062
-6.40031e-07
-6.91156e-07
5.8106e-05
0.0133518
8.34434e-07
-0.141109
-1.05596e-05
1.48693e-06
-0.191826
3.337e-06
-1.15313e-06
1.19967e-06
-0.000200531
6.84784e-05
-0.956463
6.14324e-05
-4.97028e-08
5.21712e-05
0.00181267
0.00204346
-0.012897
-0.197955
-5.18065e-07
0.000203566
-6.23836e-07
0.00753453
1.71131e-06
-5.48541e-07
3.8154e-06
-0.428654
0.00550211
1.84635e-06
0.000281288
-0.00913332
6.65947e-07
0.000414403
0.0052836
-8.02577e-06
-8.04322e-07
-0.104414
0.000181779
9.10999e-05
-5.21116e-07
-0.0480037
6.23904e-06
-0.0213223
-1.26174e-06
-8.92899e-07
-1.0573e-05
3.8741e-05
-0.00105577
2.39717e-06
-9.08839e-07
-4.99674e-06
1.51824e-06
-0.0125691
-0.179443
0.000110447
-8.62768e-06
-2.43237e-06
-0.00138945
0.000134979
-1.13287e-07
-0.172698
0.178078
2.02967e-06
-2.89348e-05
1.60872e-06
0.00578046
4.11313e-06
-0.256218
0.00326789
-0.0147092
-0.37899
8.05124e-05
-3.6154e-06
0.0719822
-0.234511
-2.14976e-06
2.42141e-06
-1.44051e-05
-7.79284e-08
-9.94601e-06
0.00225582
0.000122431
7.76277e-08
0.000824111
0.0332085
-1.77916e-06
-0.0220429
8.16361e-07
4.05677e-07
-7.54385e-07
0.0200815
2.2571e-05
-0.138938
-4.15576e-07
-7.70972e-07
-8.87553e-05
-2.10997e-07
1.92221e-05
3.7014e-06
-5.14651e-07
-0.0193345
-2.96607e-05
3.54692e-05
-2.53254e-07
-7.6792e-06
-0.00673962
-8.40095e-07
-7.90708e-07
-1.9026e-05
-1.43381e-05
0.000614586
-1.26096e-05
0.0307484
-0.0364125
0.000422109
-2.04206e-06
-0.0320535
-0.0770066
0.000587281
-8.16027e-07
3.14056e-07
-0.000141428
0.0140573
9.61121e-07
-0.0149234
-0.0115726
-3.48082e-05
1.79589e-05
-6.17358e-06
-0.412042
3.20327e-06
-0.143666
0.000231414
-7.33636e-05
-0.0241799
0.00247946
2.92231e-05
2.17612e-07
0.000857966
-0.666916
-0.010897
-1.19228e-06
0.000797351
0.012921
2.12746e-05
-0.000143085
-4.32072e-08
0.00105479
6.71973e-05
1.04201e-06
-0.351896
-0.0226086
0.00108072
0.000821642
-0.0100839
-0.000252492
8.48785e-07
0.00489504
-0.00235625
0.00030912
8.43971e-05
-0.00428333
0.00453231
-0.00465225
4.95132e-06
-0.0196546
1.61388e-06
3.1466e-05
-0.0342436
0.000693622
-0.00408319
1.1087e-06
-1.60132e-05
-0.00171872
4.85375e-05
6.27483e-07
-1.44718e-05
-0.000431133
-0.00323435
1.24716
-0.00834671
0.000401879
0.000229379
-2.45638e-06
-7.68054e-07
-1.52774e-06
-5.81906e-05
-1.84489e-05
1.45689
0.0023994
-1.47937e-06
-2.70119e-06
-0.0112981
0.314664
-0.00221604
-7.64269e-07
-1.14024e-06
-0.0010827
-3.76824e-05
2.47397e-07
-1.36163
7.25016e-05
0.000290777
7.12172e-05
0.0212813
4.11201e-05
-0.00894569
0.00479596
8.41813e-07
-2.96672e-05
3.78589e-05
2.5363e-06
7.79842e-07
0.000397752
-0.338838
-1.81571e-07
0.000311578
-2.82044e-06
0.00448458
0.0048638
0.0129022
0.00465365
-0.000149877
-0.000396417
-0.179118
8.56127e-07
-6.08409e-07
2.48463e-06
0.000204642
0.00119878
-9.27854e-05
-3.91861e-06
-0.0471246
-8.84e-07
0.00151331
-6.96882e-07
2.11479e-05
1.23051
0.0486209
0.000100196
0.129586
-1.08024e-06
3.34414e-06
0.0137771
-0.00735617
-0.00870435
-7.53946e-06
9.19114e-05
-2.66022e-07
0.000444443
-0.0110928
-6.94126e-05
0.000108629
-0.00521476
0.00481667
1.36299e-06
-1.1701e-05
0.0001177
-0.00105059
-0.0236765
0.0239943
-3.68702e-07
-0.000644979
-0.573679
2.45304e-06
-0.0320366
1.33426e-05
-0.00013997
-5.95006e-06
0.000641113
-2.70415e-05
-1.27713e-06
-3.67908e-07
-0.0010519
0.574911
-8.66823e-07
1.48005e-06
0.137525
4.23323e-05
-2.13817e-06
0.00229961
-0.000104173
9.39744e-06
-1.00009e-05
0.00712087
8.42466e-07
7.82368e-07
0.000122713
-0.0367034
0.0325097
1.96565e-06
-4.70779e-05
1.7161e-07
0.00127605
-2.00741e-05
2.40416e-05
-0.225134
-2.89038e-05
0.000182464
-0.00592631
4.62228e-06
0.000800546
-1.88243e-06
-2.67236e-05
1.8139
-0.0181471
-1.03184e-06
0.00279509
1.01032e-05
5.41626e-06
-0.00148125
-0.000121253
-7.21091e-05
-5.83802e-05
1.96406e-06
6.59764e-06
-1.51823e-06
2.21681e-05
1.32623e-05
-0.000891312
-0.00834802
-0.0650782
0.11125
1.66705e-07
0.00445573
-6.44581e-06
-7.2962e-06
2.33902e-05
-8.26099e-07
6.76516e-07
-5.59239e-05
-0.0250756
-1.00413e-06
0.000466712
-2.96189e-06
2.07128e-06
1.37374
-0.310969
-1.82935e-06
-1.03083e-05
0.00192411
1.44034e-05
6.4111e-07
0.220811
1.03764
-9.0517e-07
2.22851e-05
-3.27957e-07
0.0491714
9.09101e-07
3.58717e-06
-0.133699
-0.0113767
-3.84976e-07
-0.174333
-6.55069e-07
1.5026e-06
-6.59527e-06
-1.01978e-06
-0.407295
1.06138e-06
3.72874e-06
0.344472
-2.41807e-06
-2.31626e-05
-1.1866e-06
-4.46762e-05
-0.0149318
0.00359851
-9.59082e-05
-1.30633e-05
-0.00347329
-5.2172e-06
-2.3814e-06
2.35657e-05
-7.35416e-07
-0.000145053
-4.66217e-07
-1.01982e-05
3.11323e-06
-0.000931819
-0.0402549
-0.389788
-0.0070256
-0.00043987
-0.00083975
-1.95148e-06
-6.21398e-05
-1.44713e-05
7.77543e-07
-0.00285757
2.82516e-06
3.56997e-06
7.12921e-06
-5.7958e-07
-0.000154746
0.0934512
-0.000405112
-1.71603e-07
1.85598e-07
9.93477e-07
-1.88124e-07
-9.27154e-06
-0.000607647
0.00854458
0.0161406
0.000435222
0.176634
1.94351e-06
-1.02793e-06
3.44087e-06
-1.14348e-05
2.17664e-06
8.17589e-06
4.43819e-06
-1.58578
-0.0378734
0.535589
-0.424161
0.0721308
0.000678863
-0.315854
-4.93661e-07
3.16003e-05
0.000358089
3.28676e-05
2.126e-07
0.000795758
-6.51889e-07
-0.0900645
9.84286e-07
2.35854e-07
1.87521e-06
-7.8723e-06
0.0191044
-7.04708e-06
-0.051603
0.00187171
0.00125557
0.912658
1.34272e-06
-0.0235892
4.20583e-06
-2.83061e-05
0.00148742
2.48012e-05
-9.91548e-07
7.45034e-05
0.000831887
-2.77619e-06
-4.3808e-06
-8.21253e-07
-0.276204
-0.0955448
1.76259e-05
-9.59844e-07
6.89292e-06
-2.94686e-07
-6.95821e-05
-0.0118912
1.62424e-06
-0.00752999
-0.192316
-1.0074e-06
-2.0856e-05
-0.0984165
1.35963e-06
-0.00209573
0.0243859
-4.56383e-07
2.39184e-06
-5.62956e-05
-9.64016e-06
-0.00634701
0.0121376
-0.000314042
3.17462e-06
0.0016024
-1.66083e-05
-0.00218928
0.000641717
-5.68752e-07
-1.78735e-05
0.000690128
-7.11031e-06
0.0351003
-3.24354e-06
-0.131771
0.000484429
-0.0052065
0.000432548
0.00100453
0.000290137
-0.0631198
-5.05058e-07
1.57082e-05
0.0157995
-0.925991
-3.43781e-05
-0.00593218
0.136798
1.92026e-08
2.01312e-05
-0.000309153
6.84785e-07
0.00613956
-4.89312e-07
-0.000322316
-4.09928e-05
-0.00570986
-0.147847
-0.00242944
-0.00752127
-5.18912e-07
-2.52843e-05
0.0972939
-0.000995676
0.00734087
7.85413e-07
-4.9411e-06
0.000765429
-0.00254561
3.80489e-06
0.0913173
1.17811e-06
0.0701454
0.000293995
4.55596e-05
-6.12331e-07
0.0014127
-4.36573e-06
-0.00877988
1.45922e-06
4.09541e-07
-4.29849e-07
-7.41276e-06
1.0529
1.50064e-05
1.52652e-07
-3.35622e-07
0.0139134
-0.0982826
-0.000453042
-0.0133912
-0.000533014
0.00381216
1.82975e-06
3.22468e-07
-8.90017e-06
-0.000104526
-3.73364e-06
-0.0362605
-0.000193776
1.56031e-05
-0.201994
0.00794346
6.01477e-06
-8.95153e-06
9.41073e-07
3.54994e-05
2.81205e-07
-3.75227e-05
1.31816
1.42284e-05
-4.27152e-07
0.00113733
-0.0633644
-0.00179497
0.00107844
-0.000570553
1.78101e-06
-1.21278e-06
0.00159817
-9.2579e-08
-0.000152408
-0.528849
4.62425e-07
-9.26088e-06
1.51803e-05
-3.41093e-06
-5.45273e-07
-4.84518e-07
0.0114718
-0.0076713
-1.32992
-0.00191029
-0.553136
9.9695e-06
-7.45886e-05
2.21333
2.0574e-07
-0.00101305
1.68926e-06
0.0194781
-8.82375e-07
-0.0102036
-0.0430935
-9.66329e-05
-3.16765e-07
1.9913e-06
2.02256e-05
-2.24403e-06
0.109529
-8.16463e-07
-9.38551e-05
4.10867e-05
0.000643209
1.63669e-06
-0.0286371
6.23426e-07
1.4935e-06
-1.37356e-07
-0.00213436
3.27513e-05
-0.019765
-3.05347e-07
-0.810341
-0.00316417
-0.00494582
-7.34898e-07
0.00022369
5.25279e-08
2.32085e-05
-9.46772e-08
1.87993e-05
-0.0919247
-7.96036e-07
-0.39319
8.92758e-08
0.000315609
0.00110106
-5.6892e-06
-0.575672
1.26438e-06
4.63409e-06
0.000351471
-0.0354274
-0.000291828
3.74947e-06
3.59653e-05
-0.000752256
0.00537896
0.000309234
0.00167282
1.15374e-05
-2.25851e-05
2.04543e-07
-1.1592e-05
-3.21176e-06
-0.000561768
0.000149773
-0.000118794
1.05655e-06
-0.0191358
-0.375465
9.5111e-06
-1.99177e-05
-0.131756
0.0145614
-1.46421e-05
6.74632e-06
2.7182e-05
-6.74879e-05
2.75253e-05
0.00203016
-2.99525e-07
1.25054e-06
-0.454774
2.36521e-06
4.20039e-05
-0.00529974
1.52337e-05
0.138272
-0.0141079
0.000287507
2.9888e-06
-0.230541
-0.00411011
-0.0216849
6.12326e-05
-0.916263
0.00108874
0.0513416
-7.20376e-07
-0.000237418
0.00138062
1.52267e-06
-2.00119e-06
0.000380616
-2.86756e-06
7.90933e-07
0.00193806
2.97138e-06
-3.64823e-05
-0.239627
2.37444e-06
-2.70563e-07
0.00181488
1.02244e-05
0.0307302
-6.57857e-06
0.191374
1.24973e-05
-1.17899e-05
-7.04675e-07
0.0194744
-0.313239
5.38236e-07
0.0281866
-0.000193649
-0.936977
-0.0650259
7.15626e-07
-0.00509967
-0.12494
0.00468561
4.17518e-07
-0.00588339
-0.00127569
-0.161831
2.48623e-05
-3.99439e-07
-0.0145765
-0.00406408
9.43413e-05
-0.106278
3.17184e-05
-0.0223012
-2.83445e-06
1.31642e-05
0.00116156
-0.000996275
-8.6025e-07
0.0183631
-0.137419
0.000274859
-6.3885e-07
1.56952e-06
-2.51389e-05
0.000184383
-1.5131e-06
1.89698e-06
0.127834
-0.255375
0.111166
-1.48341e-07
-2.79606e-06
7.15e-07
-0.00668551
1.32065e-05
-0.000219635
-1.21071e-06
-1.50064e-05
-0.00124158
-0.372949
0.000338982
-2.43615e-06
0.000664103
0.0274791
-8.42058e-06
2.08172e-06
8.90047e-05
-0.0101039
0.0004753
0.0912912
0.000261576
-0.284425
-0.12924
-0.238598
2.08494e-05
-0.129955
-0.0447284
7.60363e-05
-0.00787385
-0.000131693