/*--------------------------------*- C++ -*----------------------------------*\
| =========                 |                                                 |
| \\      /  F ield         | OpenFOAM: The Open Source CFD Toolbox           |
|  \\    /   O peration     | Version:  v2012                                 |
|   \\  /    A nd           | Website:  www.openfoam.com                      |
|    \\/     M anipulation  |                                                 |
\*---------------------------------------------------------------------------*/
FoamFile
{
    version     2.0;
    format      ascii;
    class       volScalarField;
    location    "200";
    object      nut;
}
// * * * * * * * * * * * * * * * * * * * * * * * * * * * * * * * * * * * * * //

dimensions      [0 2 -1 0 0 0 0];


internalField   nonuniform List<scalar> 
18166
(
0.00753159
0.00679091
0.00071873
0.000516031
0.00331537
0.00117602
0.00673006
0.00681538
0.00123087
0.00753548
0.00679085
0.000785711
0.00183694
0.00100475
0.00172716
0.0067942
0.00890683
0.00678708
0.00238512
0.0110838
0.00455425
0.00693194
0.00259761
0.00512067
0.00956827
0.00790515
0.00681675
0.0103666
0.00679142
0.00671832
0.00665916
0.0142687
0.0049297
0.00989252
0.00262471
0.00674942
0.00669369
0.0067705
0.00465081
0.000689981
0.001332
0.00268112
0.00696876
0.00283988
0.00287757
0.00671069
0.00676487
0.0206996
0.0066647
0.0119503
0.00995211
0.00847781
0.00666418
0.00680516
0.00670853
0.00672993
0.006284
0.00673698
0.00252425
0.00673176
0.00681116
0.00669476
0.00675141
0.00673844
0.00676093
0.00669516
0.0067037
0.00679652
0.00694677
0.00671967
0.00142094
0.000583139
0.000256716
0.00110895
0.00671893
0.00293568
0.00438832
0.00924612
0.000472269
0.00557781
0.00357638
0.0067518
0.00320403
0.00668562
0.00669856
0.00681075
0.00673724
0.00673667
0.00671263
0.00318863
0.00668538
0.00679009
0.00216247
0.0067124
0.00190339
0.00644761
0.000384321
0.00672159
0.0154013
0.0142376
0.00674321
0.00679183
0.0067186
0.0102143
0.00670009
0.00669362
0.00676963
0.00673899
0.00678532
0.00678225
0.00815599
0.00326107
0.00686156
0.0063038
0.00361874
0.0100977
0.00712582
0.00208025
0.00521625
0.00669302
0.0067978
0.00669257
0.0028165
0.00669431
0.00671397
0.00349091
0.00234904
0.00675704
0.00673372
0.00673537
0.00672808
0.00674267
0.00126748
0.00674747
0.00333875
0.00990308
0.00678439
0.000464061
0.00675939
0.0101742
0.00680503
0.00679844
0.00307563
0.0065799
0.00668306
0.00266488
0.00628053
0.00669455
0.00679574
0.0144487
0.00689199
0.00400458
0.0107182
0.00795518
0.00113419
0.00679342
0.00680296
0.0067118
0.00143611
0.00484418
0.00681335
0.00687563
0.0110417
0.00699778
0.00674244
0.00676049
0.00172135
0.00681316
0.00694471
0.00680492
0.00740513
0.00872093
0.00677344
0.0152266
0.00699448
0.00872925
0.00681067
0.0058558
0.00673015
0.00461394
0.00669537
0.00679387
0.00743116
0.00142328
0.00382835
0.00680988
0.00680284
0.00678907
0.00674199
0.00689281
0.00672621
0.00424966
0.00148841
0.00676623
0.00689168
0.000979262
0.00124166
0.0049158
0.00680392
0.00670466
0.00679532
0.0146641
0.00672934
0.00377642
0.00672954
0.000848427
0.00679688
0.00042778
0.00103003
0.00655216
0.00676838
0.000784847
0.000894591
0.0067271
0.0021329
0.00680462
0.0216118
0.00680763
0.00672439
0.00676822
0.00675063
0.0100493
0.000877384
0.0067599
0.00676562
0.006118
0.00669475
0.00675199
0.00841216
0.00675461
0.00686793
0.00668615
0.00717477
0.00668636
0.00856058
0.0118469
0.0128901
0.00694283
0.0068231
0.0006608
0.00669525
0.00089286
0.00689732
0.00600515
0.00674717
0.00669565
0.000199111
0.0066959
0.00527703
0.00101888
0.00939639
0.00676836
0.00681251
0.000588918
0.00679635
0.00676575
0.00680585
0.00673653
0.00681205
0.00662561
0.000970238
0.000995382
0.00517843
0.00679938
0.00676093
0.00361328
0.00172664
0.00681056
0.00675967
0.00218936
0.00670201
0.00672965
0.0017034
0.014437
0.00650098
0.00670321
0.00991514
0.00669683
0.00678759
0.00050908
0.00672831
0.00673278
0.00137553
0.00673174
0.00673708
0.00655388
0.00105675
0.000691715
0.00669791
0.00673685
0.00688317
0.00373514
0.0067491
0.00582854
0.00669009
0.00700216
0.00697235
0.00590629
0.0066906
0.00207878
0.00139032
0.00275326
0.00817557
0.00582839
0.00672559
0.00691586
0.000664987
0.00676644
0.00679011
0.00674923
0.00677848
0.00671492
0.00668839
0.00680516
0.0067263
0.00698153
0.00668718
0.000866631
0.00119556
0.00670176
0.00469642
0.00419129
0.00764967
0.00416991
0.0067085
0.0066874
0.00677405
0.000665013
0.00671295
0.00102579
0.0067643
0.00694748
0.00671313
0.0068061
0.00133221
0.00671001
0.0010058
0.000828348
0.00679193
0.00671731
0.00336493
0.00679309
0.000689761
0.00671322
0.00287412
0.0067819
0.000179078
0.00678979
0.00672039
0.00670026
0.00162009
0.0070714
0.000584961
0.00679692
0.00306116
0.00224049
0.00681375
0.00679865
0.00649715
0.000731074
0.00681109
0.00678068
0.0066869
0.0025863
0.00837668
0.00668854
0.00670659
0.0067413
0.00677009
0.00275489
0.00669558
0.00679383
0.00675221
0.000794398
0.00671588
0.00697938
0.00678943
0.00682496
0.00674118
0.00679179
0.00669688
0.00672299
0.000818543
0.00861654
0.00669914
0.00678443
0.00107201
0.000703219
0.00469442
0.000313401
0.00669756
0.0123522
0.00174593
0.004362
0.01258
0.000629081
0.00673807
0.00669057
0.0067287
0.000547299
0.00669122
0.00668527
0.00680452
0.00669455
0.00463251
0.00672013
0.00693254
0.000775191
0.0123486
0.00669261
0.00678862
0.0120595
0.00593565
0.00704466
0.0066624
0.000673245
0.00531307
0.00671724
0.00669743
0.00540743
0.00671881
0.00666208
0.00383101
0.00469314
0.00679201
0.006763
0.00678992
0.00666022
0.00665917
0.0059523
0.00412824
0.00679264
0.00672473
0.00658134
0.00682773
0.00676236
0.00677469
0.000623126
0.00163241
0.00462945
0.00862223
0.000628285
0.00145836
0.00140974
0.00675114
0.00713059
0.00491236
0.00679386
0.000962258
0.00945572
0.00548045
0.00680282
0.00672181
0.00677384
0.00699366
0.00395975
0.00662255
0.00671475
0.00676293
0.00679335
0.00693636
0.00669876
0.00673283
0.00296679
0.00233958
0.00654277
0.00561522
0.00671378
0.00601586
0.00680235
0.00749564
0.00670996
0.00368024
0.00680723
0.000309343
0.00675103
0.00679369
0.00703248
0.00680801
0.00315126
0.00279698
0.00691731
0.00749107
0.00676576
0.00310255
0.00692915
0.000607389
0.00669666
0.00668717
0.00687946
0.0066984
0.00679079
0.00672229
0.000630482
0.0089296
0.00274517
0.00680686
0.00252347
0.00672791
0.00672887
0.00239481
0.00672304
0.00408692
0.00293628
0.0068418
0.00675774
0.00679224
0.0067042
0.00682034
0.00225232
0.00680374
0.00676971
0.00671333
0.00698904
0.000843951
0.00092543
0.00372941
0.00678515
0.000835587
0.00673842
0.00673942
0.003138
0.0023599
0.000752776
0.00837175
0.00652007
0.00672371
0.00670934
0.0067574
0.00673448
0.000473867
0.00628644
0.00173461
0.0100313
0.00690936
0.000914093
0.00681122
0.00693278
0.00511057
0.00679354
0.00681576
0.000797013
0.0066291
0.000974351
0.00675602
0.00198383
0.00706362
0.00669532
0.00303972
0.00680352
0.00157195
0.00681363
0.00670281
0.00110659
0.00668068
0.00669246
0.000672806
0.000610267
0.00676035
0.0103316
0.00676822
0.00113208
0.00178532
0.00680795
0.00672429
0.0103184
0.00679698
0.00683508
0.00668934
0.00679685
0.00678795
0.00668683
0.00818162
0.00674158
0.0103911
0.012433
0.00199088
0.00674708
0.00409469
0.00678477
0.00679437
0.0138228
0.00300582
0.00681213
0.00508715
0.00695667
0.00670496
0.00669827
0.00111614
0.00678892
0.0130759
0.00679774
0.00322536
0.00123004
0.00675143
0.00674876
0.00674992
0.00881189
0.00133388
0.00320811
0.00669594
0.00164141
0.00675991
0.00673762
0.00113732
0.00669446
0.00590374
0.00948604
0.000673455
0.00678262
0.00676486
0.00648922
0.00677779
0.00677478
0.00678799
0.00669941
0.00102251
0.00678788
0.00683543
0.011293
0.00107762
0.00674754
0.0115953
0.00175627
0.006703
0.0059849
0.00670488
0.00672622
0.0140573
0.00715669
0.00671145
0.00676787
0.00679381
0.00829088
0.000863541
0.00138636
0.00680659
0.00686412
0.00676676
0.00447147
0.00674427
0.00665969
0.000406668
0.00674503
0.00671823
0.00669457
0.00885702
0.00676424
0.00679456
0.00682946
0.000705327
0.00696279
0.00673791
0.0119948
0.00677219
0.00831464
0.00354828
0.0067951
0.00669584
0.00678813
0.0068005
0.00287225
0.00592337
0.00671068
0.00704393
0.00347303
0.0068614
0.0116579
0.00673789
0.00123939
0.0020813
0.00676774
0.00679285
0.000480433
0.00676721
0.00985378
0.0060013
0.00673949
0.00369429
0.00673363
0.00668813
0.0067835
0.00671107
0.000826115
0.000989725
0.000919171
0.00584627
0.00990973
0.00895338
0.00676837
0.00178938
0.0067024
0.00679514
0.00152434
0.000980672
0.0114455
0.00134486
0.000472901
0.00672766
0.00672138
0.000821414
0.00491896
0.00676934
0.00711749
0.00685279
0.0067791
0.00672327
0.00671946
0.007002
0.0034846
0.00937709
0.00048403
0.00111403
0.00360653
0.00889702
0.0010885
0.00288697
0.00677224
0.00677107
0.00107399
0.00388394
0.00673265
0.00131
0.00352747
0.00630393
0.00679048
0.000619804
0.00115218
0.000862538
0.00248255
0.00300344
0.00708256
0.00125954
0.00109745
0.00680164
0.00681078
0.00434124
0.000475414
0.00348
0.00693957
0.0134164
0.0102343
0.00690334
0.00679663
0.00685755
0.00671514
0.00101143
0.00820452
0.00402783
0.00678524
0.00675433
0.00211828
0.00679406
0.00676132
0.00355635
0.00674569
0.0125579
0.00668785
0.00680385
0.000849629
0.00698587
0.00689741
0.00103024
0.000785613
0.00297756
0.00680929
0.00669755
0.00426542
0.000404089
0.00671572
0.00675985
0.00671691
0.00670964
0.00665967
0.00686474
0.000434658
0.014062
0.00688324
0.000722832
0.000506666
0.0085946
0.00411943
0.000381417
0.000637053
0.0139806
0.00376543
0.00678885
0.0067185
0.0029212
0.00945352
0.00680862
0.00696897
0.00672744
0.00668371
0.00103916
0.00671598
0.00671548
0.00447266
0.00672238
0.00678936
0.00673237
0.00672493
0.00674484
0.00093068
0.00681065
0.00671431
0.00809021
0.00643802
0.00675863
0.0213457
0.00675494
0.00424136
0.00670261
0.00697234
0.0150093
0.00678736
0.00975614
0.00134203
0.00711046
0.0067001
0.00329874
0.00679417
0.00663076
0.0068228
0.00674034
0.00115546
0.00680363
0.00125821
0.00675323
0.002439
0.00680478
0.00701642
0.00401193
0.00679044
0.00686056
0.00671161
0.00675258
0.00670958
0.00688637
0.00136424
0.0126774
0.00672601
0.000460124
0.00234523
0.00673812
0.00669622
0.00494932
0.00301626
0.00669846
0.0067132
0.00252374
0.00671903
0.00916447
0.00679549
0.000474531
0.00679263
0.00971404
0.0148079
0.00671907
0.00345755
0.00698821
0.00674134
0.013665
0.00676782
0.0143289
0.00670948
0.0067646
0.000747008
0.00830908
0.0105612
0.00669425
0.000900305
0.00675652
0.0098851
0.00685946
0.00450132
0.000823153
0.00395828
0.00670889
0.00674952
0.00679151
0.00817652
0.00680613
0.0125591
0.00669963
0.00172548
0.000604205
0.00383591
0.00344652
0.014966
0.00140163
0.000445993
0.0067625
0.00700728
0.00179952
0.00429715
0.00688351
0.0050643
0.0124087
0.00680879
0.00677618
0.00679988
0.00676195
0.00696596
0.00681078
0.000449193
0.00671067
0.000614955
0.00927579
0.00191871
0.000583112
0.00672429
0.00674372
0.00997604
0.0101976
0.011666
0.000975205
0.00156052
0.0067038
0.00285862
0.0105462
0.00654017
0.00760663
0.00390941
0.00689024
0.000704517
0.00670342
0.00677599
0.00672227
0.00672492
0.00508547
0.00677752
0.00100548
0.00670639
0.00431632
0.0068066
0.0109339
0.00156348
0.00495774
0.000214763
0.0131502
0.00382866
0.0117513
0.00563973
0.00188173
0.00684222
0.00408957
0.00676731
0.000647363
0.00690608
0.000402063
0.00187228
0.0134003
0.00127962
0.00669957
0.000739131
0.00669159
0.00423288
0.00799047
0.00672394
0.00676759
0.000561386
0.0124878
0.0090763
0.0127277
0.00669866
0.00761382
0.00704902
0.00672728
0.00165318
0.00358722
0.00761968
0.00538529
0.00673216
0.000827
0.00679573
0.00699225
0.00672717
0.00638515
0.00675674
0.00910809
0.00323319
0.00448313
0.0134759
0.00680735
0.011301
0.00466043
0.00161678
0.00679649
0.00201649
0.00487657
0.00901026
0.00417477
0.00441654
0.00670893
0.00402832
0.000165063
0.00676461
0.00646757
0.00148632
0.00156543
0.00546497
0.0124614
0.0106942
0.00671318
0.00670881
0.00670798
0.0068018
0.00669476
0.00406417
0.00669071
0.00849253
0.00526619
0.00678343
0.00653408
0.00672868
0.00698232
0.00686692
0.00211254
0.00734661
0.00677038
0.000486138
0.00648228
0.0067878
0.00710797
0.0130983
0.00569992
0.00671068
0.00537807
0.0067468
0.000923336
0.00800161
0.00805449
0.00685803
0.00499623
0.00675979
0.00451594
0.00349789
0.000765858
0.00250132
0.000494319
0.0038874
0.00183795
0.00667484
0.00663749
7.71282e-05
0.0067793
0.0110041
0.00628916
0.00953347
0.00677993
0.00576892
0.00685579
0.00668683
0.00681407
0.00668616
0.00679074
0.0012533
0.0067966
0.0155125
0.00927988
0.00850404
0.00679033
0.00680934
0.0024007
0.000464938
0.0211026
0.00512891
0.000877738
0.00679435
0.00364053
0.00160535
0.00679606
0.00673154
0.0067171
0.00677001
0.00108114
0.0130388
0.0137384
0.0067844
0.0138317
0.000573995
0.00978928
0.00105022
0.00675517
0.00679257
0.00292058
0.00672375
0.006689
0.00594893
0.00678727
0.00810404
0.00465282
0.0111247
0.0023252
0.00671134
0.00674507
0.00696112
0.00182416
0.00677231
0.0113802
0.00670968
0.00669506
0.00680095
0.00273529
0.00678014
0.00145716
0.00595154
0.0114049
0.00679178
0.00671051
0.00678103
0.0075779
0.00677435
0.00676868
0.00205479
0.00677034
0.00681759
0.00277768
0.00672254
0.00668682
0.00668547
0.00596995
0.021041
0.00474308
0.00680601
0.00678528
0.00705725
0.00336666
0.00145125
0.00646652
0.00672687
0.00117922
0.00879804
0.00189022
0.0067036
0.000850969
0.00675503
0.00140413
0.00158774
0.00677485
0.000755992
0.00469569
0.00299874
0.00671478
0.00670774
0.000656693
0.00671983
0.0067438
0.00296732
0.00679455
0.00371826
0.00676295
0.00189557
0.00670258
0.0153346
0.000698426
0.00679559
0.000452512
0.00154521
0.00617382
0.000559615
0.00692663
0.00683453
0.00670701
0.00505863
0.00677448
0.00680146
0.00668491
0.00671802
0.00357647
0.00746864
0.00130252
0.0134142
0.00675315
0.00670588
0.00120192
0.00466359
0.00697273
0.0067958
0.0155109
0.00669957
0.00677673
0.00668808
0.000794615
0.000568684
0.00679418
0.00528166
0.00681239
0.00676197
0.00694792
0.0064705
0.00671516
0.00586126
0.00866161
0.00598455
0.00234764
0.00669957
0.00659751
0.00928215
0.00618328
0.00668792
0.00216916
0.000557351
0.00157067
0.00679536
0.00444337
0.0064885
0.00160627
0.00682659
0.00303102
0.00956807
0.00350568
0.00668105
0.00470823
0.00377697
0.00728392
0.00680711
0.0150324
0.0066963
0.00691283
0.00680928
0.00170455
0.00678385
0.00678855
0.00670252
0.0131459
0.014232
0.00160941
0.00677266
0.00678709
0.00184356
0.00676195
0.00885346
0.00671313
0.00679119
0.0192484
0.0066996
0.00675369
0.000562993
0.000493745
0.00699
0.00681206
0.00676333
0.00671438
0.0067386
0.000620793
0.00678872
0.00260726
0.00668891
0.00719255
0.000752919
0.000755764
0.00671459
0.00668858
0.00679424
0.00675179
0.0144895
0.00494439
0.0109379
0.00192364
0.00678519
0.00588661
0.0067883
0.000463544
0.00679702
0.00310014
0.00671597
0.0129533
0.0066281
0.00673693
0.00673419
0.00670365
0.00679869
0.00684328
0.00675767
0.00132489
0.000903309
0.00699017
0.0088455
0.00676202
0.00669959
0.00674133
0.0133584
0.00676856
0.00674323
0.00634401
0.0012254
0.00670387
0.0066951
0.00301241
0.00671263
0.00674241
0.00689326
0.00249002
0.0067305
0.00669495
0.000939806
0.00672896
0.00116076
0.00667949
0.00343407
0.000725847
0.0066973
0.00165709
0.00711863
0.0034296
0.00677891
0.00119757
0.00112979
0.00672822
0.00687099
0.0067756
0.0067578
0.00673591
0.00680376
0.00672128
0.00137568
0.0141877
0.00674765
0.00515724
0.00671298
0.00512754
0.00691316
0.00669784
0.00561018
0.00678891
0.00674777
0.00668549
0.000360492
0.00668815
0.00674461
0.00675579
0.00675945
0.00672237
0.00062908
0.00670865
0.00210818
0.0117537
0.000707582
0.00681271
0.0110281
0.00670855
0.00683319
0.0115458
0.00275602
0.00577391
0.00270741
0.00672035
0.0117958
0.00103158
0.00676923
0.00342558
0.00671295
0.000783902
0.00303746
0.0115623
0.00670353
0.00673193
0.00670258
0.000656815
0.00671927
0.00669933
0.0067175
0.000874921
0.00609117
0.00670872
0.00674594
0.00671022
0.00681246
0.0185978
0.00103144
0.00679637
0.0066076
0.0109823
0.00669165
0.00166395
0.000954411
0.00382783
0.00656815
0.00918117
0.00118934
0.00673239
0.00342747
0.000435464
0.00354333
0.00676513
0.00672
0.00681327
0.00678044
0.0100508
0.0131874
0.00671969
0.00676055
0.0067818
0.00117281
0.0106565
0.00670409
0.00673424
0.00679347
0.00674835
0.00673833
0.00612541
0.00675791
0.0148721
0.00669487
0.0115444
0.00122606
0.00342935
0.00671896
0.00673633
0.00396343
0.00462675
0.00670157
0.00943478
0.00106844
0.00829255
0.00678844
0.000410508
0.00289375
0.00303299
0.00674032
0.00175075
0.00376043
0.00555805
0.00474303
0.00669488
0.0028492
0.0125864
0.00800769
0.00238748
0.00679317
0.00670252
0.0146726
0.00464811
0.00145475
0.00981997
0.00682519
0.0067376
0.00670046
0.00671595
0.00671769
0.00671541
0.00145164
0.00675463
0.0134931
0.00679016
0.0067612
0.00671346
0.00130173
0.00677523
0.00674999
0.00677432
0.0067153
0.0067525
0.00679675
0.0067008
0.00668739
0.0105274
0.00802971
0.00675052
0.00673182
0.00687441
0.00709876
0.0068429
0.0068154
0.010648
0.0068322
0.00910326
0.00708548
0.00691872
0.0067058
0.00675688
0.00669698
0.00680537
0.000851973
0.0050804
0.00310538
0.00671207
0.00674776
0.00951128
0.00357688
0.00677382
0.0079554
0.0126487
0.00129731
0.00683025
0.00677989
0.00673322
0.0075799
0.000371562
0.00187377
0.000366667
0.000957387
0.00380456
0.000602455
0.00720221
0.00680724
0.000823006
0.00173717
0.00475517
0.00681107
0.00220377
0.0023785
0.00995674
0.00685196
0.00743929
0.0011293
0.00681071
0.00679385
0.00680308
0.00673031
0.00681078
0.00676065
0.00670406
0.0067313
0.00674251
0.0122582
0.0142836
0.0067116
0.00218961
0.00676758
0.000675276
0.00721368
0.00678267
0.00124823
0.00258855
0.0139018
0.000969068
0.00686001
0.00677642
0.0015725
0.00570612
0.00671627
0.000430866
0.00671118
0.00678817
0.0103087
0.000588377
0.00679433
0.00670069
0.00680115
0.00677376
0.0201449
0.00274746
0.00507167
0.00341861
0.00187182
0.00178347
0.00310094
0.00598132
0.00675962
0.00675091
0.00673223
0.0034432
0.00560971
0.00793346
0.00678328
0.00670075
0.000876099
0.00680062
0.00607958
0.00681314
0.000279438
0.00672172
0.00306597
0.000572492
0.00658554
0.000444013
0.00671634
0.00677402
0.00665386
0.00224994
0.00210301
0.00105911
0.00358768
0.00492496
0.00678499
0.00674751
0.00669175
0.00675943
0.006797
0.00185079
0.00681255
0.00677651
0.00703749
0.00936046
0.00704552
0.00220215
0.00120252
0.00717312
0.00751151
0.00675707
0.00652921
0.00678305
0.00670356
0.00707284
0.00297068
0.0123606
0.00441513
0.00115998
0.00670537
0.00665772
0.00030725
0.00898652
0.0127096
0.00675355
0.00670022
0.00154127
0.00676855
0.00242914
0.00676682
0.00688353
0.00543675
0.00116895
0.00622948
0.007087
0.00518147
0.00466814
0.00676293
0.00805899
0.0146933
0.0018427
0.00198479
0.00330713
0.00277676
0.00372604
0.00303635
0.00671708
0.00680726
0.00412007
0.00270554
0.000516086
0.00716514
0.00700933
0.000892866
0.00670736
0.00671218
0.00677485
0.00681372
0.000954495
0.00678685
0.00685396
0.000974233
0.0067164
0.0118311
0.0067264
0.00669664
0.00833601
0.00666337
0.00679027
0.0116763
0.00675332
0.00680258
0.0066854
0.00669452
0.0139103
0.0068188
0.00675992
0.000435151
0.00674392
0.00621246
0.00455744
0.00680407
0.00069563
0.00679001
0.00630645
0.000447805
0.0067828
0.0066778
0.00672536
0.00380452
0.00369198
0.00679295
0.00722867
0.00675711
0.00317643
0.00664533
0.00740155
0.0120661
0.00675163
0.00990434
0.00681282
0.000829196
0.00675222
0.00686243
0.00672576
0.00674138
0.00679552
0.00669049
0.00190166
0.006718
0.00330534
0.00679534
0.00624708
0.00701748
0.0100919
0.0123277
0.0068452
0.00713938
0.00167665
0.000688205
0.00670437
0.0067364
0.00356697
0.00671184
0.00759687
0.0022669
0.00686893
0.00245324
0.00668046
0.00673774
0.00284825
0.00240004
0.00671012
0.0105203
0.00680707
0.00675349
0.00321197
0.00709237
0.00670659
0.00669048
0.00687623
0.00458655
0.00696388
0.00679396
0.00675676
0.00679979
0.00080823
0.00857677
0.00602792
0.0202157
0.00667957
0.00246328
0.00668102
0.00183481
0.00677209
0.00667886
0.00675048
0.00299654
0.00999927
0.00671558
0.00206389
0.00685522
0.00665982
0.00094331
0.00056605
0.00701549
0.00676706
0.000403623
0.00574022
0.00260769
0.00678945
0.0110371
0.00679468
0.0103457
0.00670499
0.00673196
0.00679786
0.00500582
0.00190334
0.00691924
0.00673388
0.00678769
0.00671688
0.00627228
0.00441263
0.00679763
0.00679372
0.00676202
0.000279058
0.00321236
0.00676522
0.00508255
0.00202169
0.00671924
0.00214103
0.00672423
0.00157982
0.00679319
0.00712011
0.00131299
0.00268558
0.0215082
0.00409567
0.00678958
0.000754808
0.0110259
0.00693663
0.00706953
0.00680898
0.00670593
0.00680074
0.000883527
0.00675182
0.00170436
0.00668229
0.014922
0.0067274
0.0133446
0.00671858
0.00671374
0.00670542
0.00114836
0.00680915
0.00523951
0.00671419
0.00669863
0.00668834
0.00670349
0.00622028
0.00675248
0.00673343
0.00152627
0.00204722
0.00675542
0.00675503
0.00677931
0.000790468
0.00669855
0.0067238
0.00702355
0.00680394
0.00133124
0.00679242
0.00586979
0.0121974
0.00679043
0.00679458
0.0030116
0.00831029
0.00678136
0.00668107
0.00676143
0.0024135
0.000511402
0.00670305
0.00391313
0.00286008
0.00678112
0.00661544
0.00681246
0.0023846
0.0067473
0.00865098
0.00633741
0.00667966
0.00372988
0.000597739
0.00367099
0.00671539
0.00122091
0.00750893
0.000961002
0.00709892
0.00668007
0.00123775
0.00595909
0.00189257
0.006798
0.00660832
0.00411793
0.00672867
0.000145668
0.00167456
0.00660234
0.0068798
0.00121172
0.00540588
0.00669376
0.00144508
0.00117958
0.000700298
0.00340472
0.0138618
0.0128091
0.0143271
0.0065537
0.00740264
0.00671476
0.00673486
0.0122877
0.00151082
0.0154638
0.00673158
0.00676488
0.00400837
0.00681332
0.00671056
0.00678752
0.000797642
0.0008274
0.00661699
0.0117177
0.0055399
0.0017665
0.006755
0.00669786
0.00699286
0.00678514
0.00679864
0.00588376
0.000702535
0.00673445
0.00674022
0.000493895
0.00533804
0.00467482
0.00671672
0.00669892
0.00132431
0.00678179
0.00671453
0.00417201
0.00676522
0.00709722
0.00415719
0.00306536
0.00591924
0.000318587
0.000464207
0.00682436
0.0067942
0.00472961
0.00679494
0.00673131
0.00459179
0.0196177
0.00679755
0.00260288
0.00673641
0.0123646
0.00106364
0.000914586
0.00918197
0.00196446
0.000791886
0.00155625
0.00679416
0.00671069
0.0067423
0.00685665
0.00146108
0.00725837
0.00678063
0.00728526
0.00670594
0.00714153
0.00669785
0.00680164
0.00484942
0.00966219
0.00679222
0.0102247
0.00670216
0.00674834
0.00717631
0.0148092
0.000615211
0.00679289
0.00286054
0.00671672
0.00671319
0.0147455
0.00687076
0.00408618
0.00451399
0.0113095
0.00678821
0.00679106
0.00316247
0.00671505
0.00983095
0.0033356
0.0067091
0.00199441
0.00797695
0.00673245
0.00729921
0.00653964
0.00684902
0.00677274
0.00195539
0.00681229
0.0067252
0.0067163
0.00141681
0.00331462
0.00672243
0.00669372
0.0112651
0.00681304
0.00675663
0.00082826
0.00457612
0.00679444
0.00677576
0.000975285
0.00671068
0.00675009
0.00537825
0.000434954
0.000790636
0.00670539
0.00677708
0.0067099
0.00100047
0.00675536
0.00284833
0.00147481
0.00677654
0.00388007
0.000549031
0.00675674
0.00168601
0.0067551
0.00271609
0.00605123
0.013565
0.00671252
0.00269734
0.00678355
0.00678002
0.005371
0.00682927
0.00674569
0.00648702
0.00674021
0.00678318
0.00671776
0.00488072
0.00679717
0.00143939
0.0113706
0.00122096
0.0140104
0.00673682
0.0149986
0.00678925
0.0067553
0.00681201
0.00672782
0.006684
0.00671024
0.00113104
0.00673578
0.00692557
0.00671424
0.006724
0.00158085
0.00797655
0.00672926
0.00680198
0.000590839
0.00677076
0.00677142
0.00289933
2.39895e-05
0.00671047
0.00400944
0.00668613
0.00862811
0.00670894
0.00674774
0.00741353
0.00100782
0.00674343
0.0192793
0.00671554
0.00670964
0.00677017
0.00670101
0.00735035
0.00686322
0.00688633
0.00539675
0.00685108
0.0068095
0.00672167
0.00655116
0.00868947
0.000551314
0.00522399
0.00681035
0.000503455
0.00676764
0.00674926
0.00688877
0.00667972
0.00243228
0.00668765
0.0049476
0.00669493
0.000758062
0.00414407
0.00855913
0.000841009
0.00151195
0.0013403
0.00676009
0.00104661
0.00678985
0.00671526
0.0025976
0.00686368
0.00679352
0.00691491
0.00669568
0.00152824
0.00591982
0.00684249
0.00671627
0.00687249
0.00675531
0.00670025
0.00680344
0.00349718
0.00646899
0.0150029
0.00657062
0.0015498
0.00671752
0.00670117
0.0070727
0.00678754
0.00673047
0.00677226
0.00678799
0.00415122
0.00472103
0.00357684
0.0109686
0.0111291
0.00171662
0.00857036
0.00675256
0.00719877
0.00192892
0.00679121
0.00667837
0.000710954
0.00673995
0.00888241
0.00670962
0.00671387
0.00678684
0.00678709
0.00457825
0.00677678
0.00414816
0.00705722
0.00107451
0.00726959
0.00675854
0.0127989
0.00679793
0.00679367
0.00109568
0.00678275
0.00670838
0.00173512
0.00200709
0.0067388
0.00676628
0.00672957
0.000401635
0.00132968
0.00679489
0.00671213
0.00678872
0.00670372
0.00675669
0.00125631
0.00670667
0.00118394
0.00855016
0.00676368
0.00674929
0.00352133
0.00676383
0.00127997
0.00140504
0.00669999
0.00677148
0.000549251
0.000765424
0.000531541
0.000241199
0.00183999
0.0071367
0.000890022
0.00679844
0.00732814
0.00164871
0.00673715
0.00679747
0.00706998
0.00680025
0.00813757
0.00676449
0.00127699
0.0016054
0.000599371
0.00687234
0.00130331
0.00172992
0.000278437
0.00674363
0.00677763
0.0149192
0.00362409
0.00678864
0.000485856
0.011129
0.00671468
0.00679275
0.00466116
0.00670073
0.000535342
0.00678171
0.000873262
0.00676091
0.000391082
0.000678784
0.00116905
0.000808369
0.00673557
0.00680033
0.00839271
0.0111082
0.0066148
0.00671787
0.00678294
0.00518444
0.00674641
0.0067601
0.00448704
0.0067204
0.00500899
0.00290873
0.0036874
0.00678682
0.00124544
0.00690177
0.00070862
0.00708066
0.00676981
0.00671822
0.00679001
0.00262798
0.00681013
0.00671543
0.00669698
0.0126364
0.00726907
0.000678656
0.00510267
0.00673508
0.00175212
0.00672658
0.00678688
0.00674437
0.00654027
0.00675099
0.00451956
0.006565
0.00679604
0.0142498
0.000684065
0.00674516
0.00678626
0.00670981
0.00674
0.0067521
0.00671369
0.00135827
0.00679685
0.00675206
0.000842171
0.00487772
0.000927595
0.000966264
0.00293857
0.00672443
0.00669889
0.0141136
0.00673954
0.00676724
0.00900163
0.00678339
0.00678955
0.00673644
0.00673471
0.00670365
0.00669703
0.000504918
0.0112777
0.000895465
0.000848002
0.0135447
0.00692887
0.00677991
0.00321523
0.006714
0.0026868
0.00679058
0.00814005
0.00670505
0.00276795
0.00110428
0.00673955
0.00667861
0.00676769
0.00194137
0.00674073
0.0127586
0.006716
0.00667967
0.0031065
0.000927685
0.00670546
0.00526068
0.00674234
0.00670486
0.00669873
0.00732587
0.00674103
0.00753111
0.00669935
0.000473096
0.00248459
0.00646084
0.0067335
0.00337089
0.00670924
0.00675455
0.00669614
0.00674754
0.0186572
0.00669426
0.00899155
0.00670779
0.00201413
0.0011041
0.0067818
0.0132045
0.00673091
0.0067657
0.00247463
0.0135172
0.00474736
0.00675557
0.0067585
0.000731528
0.00453983
0.0015915
0.00707315
0.00699362
0.00677074
0.00670607
0.00678926
0.00285836
0.00249147
0.00671976
0.00581351
0.00673071
0.00673114
0.013999
0.00677295
0.0068054
0.000187353
0.00325376
0.00680525
0.00685215
0.00665
0.00678647
0.00677009
0.00662216
0.00670004
0.00671422
0.00605768
0.00672388
0.00679419
0.00616098
0.00677768
0.00272373
0.000534908
0.00236618
0.00675863
0.0107816
0.00630423
0.000455929
0.00337313
0.00381543
0.0009009
0.00924699
0.0066996
0.00688416
0.00715111
0.00672447
0.00682614
0.00151387
0.00674295
0.00671681
0.00127366
0.00682738
0.0015247
0.00345775
0.00679007
0.00671486
0.00761659
0.00678383
0.00130328
0.00677188
0.00945262
0.00497134
0.0067998
0.00668036
0.012922
0.00185329
0.00668481
0.000476018
0.000840103
0.00513873
0.00987344
0.00670843
0.000954918
0.0188209
0.0108531
0.00671466
0.00252031
0.00128341
0.00479123
0.0067792
0.00339103
0.000899691
0.000487248
0.00687972
0.00974485
0.00303695
0.00039846
0.00673151
0.00680116
0.00692693
0.000681766
0.00675258
0.00154175
0.0077471
0.00166991
0.00672943
0.00671492
0.00680488
0.00125687
0.0067081
0.00673775
0.00488852
0.00869761
0.00614287
0.00678403
0.00673692
0.006702
0.0122873
0.00679481
0.00684257
0.00669764
0.00671887
0.00160428
0.00866923
0.00256607
0.00672768
0.00657584
0.00948728
0.00485836
0.00671473
0.00585676
0.00111612
0.00680639
0.00632264
0.00236102
0.00876797
0.0089109
0.0112634
0.00672363
0.0064407
0.0160654
0.00379545
0.0147033
0.00168008
0.00533031
0.0126388
0.00902328
0.00689395
0.00876157
0.012462
0.00672633
0.000585625
0.00228516
0.00633187
0.00929278
0.0104852
0.00671714
0.0147258
0.00669784
0.00674841
0.000286405
0.00670131
0.00673858
0.00674661
0.0067914
0.0102916
0.00197073
0.0033323
0.00677748
0.000878565
0.00670768
0.00676105
0.00672558
0.00105856
0.0068114
0.00347348
0.00858889
0.00677211
0.00671209
0.00248846
0.00684933
0.00690335
0.00216941
0.000956062
0.0131704
0.00670234
0.00671589
0.00750844
0.000654809
0.0114931
0.00674629
0.00674247
0.00866956
0.00672044
0.00670091
0.00050209
0.00670269
0.00141415
0.00777738
0.00178106
0.00154423
0.000536421
0.00679142
0.0036529
0.00318298
0.00678534
0.00272245
0.00671945
0.00239289
0.00683354
0.00687936
0.0160016
0.000521448
0.00679989
0.000571645
0.00432609
0.00668949
0.00675694
0.00681371
0.00136263
0.00641201
0.0067474
0.00148441
0.000638422
0.00681346
0.00485895
0.00677083
0.0104667
0.000135138
0.00669862
0.00692364
0.000999243
0.000167779
0.00678186
0.00662654
0.00137321
0.00670118
0.00679345
0.00678877
0.00106013
0.00125452
0.00673246
0.00189816
0.00679683
0.00670983
0.00668483
0.000666248
0.00674806
0.00788004
0.0156189
0.00671021
0.00156606
0.00675362
0.00130897
0.00604788
0.00676963
0.006717
0.0159429
0.0067055
0.00810363
0.00392556
0.0141595
0.00564639
0.00669834
0.00848312
0.00670314
0.0113022
0.00265102
0.00666791
0.00670032
0.00535751
0.000269807
0.00665233
0.0068089
0.00095059
0.00234457
0.00669941
0.00675892
0.000960562
0.00118536
0.00668418
0.000597933
0.00497404
0.00679073
0.00680158
0.00670862
0.00928868
0.00790425
0.00945623
0.00677694
0.000708007
0.00671422
0.00671368
0.00108178
0.000512364
0.00671209
0.00499251
0.000877534
0.00677411
0.00678732
0.00182682
0.00279332
0.0015425
0.00677959
0.00148297
0.0056752
0.00676092
0.00377263
0.00677226
0.00103609
0.00691906
0.00671093
0.000226347
0.00373946
0.00671259
0.00674576
0.00671513
0.0011887
0.00674039
0.000127542
0.00680757
0.00675062
0.00754194
0.00052766
0.00676172
0.000658951