/*--------------------------------*- C++ -*----------------------------------*\
| =========                 |                                                 |
| \\      /  F ield         | OpenFOAM: The Open Source CFD Toolbox           |
|  \\    /   O peration     | Version:  v2012                                 |
|   \\  /    A nd           | Website:  www.openfoam.com                      |
|    \\/     M anipulation  |                                                 |
\*---------------------------------------------------------------------------*/
FoamFile
{
    version     2.0;
    format      ascii;
    class       volScalarField;
    location    "200";
    object      omega_0;
}
// * * * * * * * * * * * * * * * * * * * * * * * * * * * * * * * * * * * * * //

dimensions      [0 0 -1 0 0 0 0];


internalField   nonuniform List<scalar> 
18166
(
0.525098
0.0214909
0.167745
0.0739092
0.0949886
0.048699
0.0211223
0.021553
0.0298672
0.537514
0.0214986
0.0711969
0.0271833
0.0378007
0.0263726
0.0217416
4.2196
0.0209485
0.0235249
0.769651
0.0222437
0.0226823
0.0236932
0.0223812
0.35624
0.295205
0.021582
0.491909
0.0215885
0.0211808
0.0194765
0.264647
0.0347982
0.360195
0.186161
0.0214933
0.0206345
0.0204194
0.0247416
0.0711914
0.0297273
0.0243103
0.0217636
0.0233863
0.116717
0.0206995
0.0219414
1.39674
0.0195218
0.785996
0.445996
4.10217
0.0195148
0.0217011
0.0206894
0.0213827
0.41699
0.0214252
0.127946
0.021392
0.021289
0.0208195
0.021062
0.0214786
0.0219548
0.0208444
0.0209932
0.0217029
3.76997
0.0205024
0.0268115
0.0736352
0.021422
0.0291192
0.0204959
0.0334791
2.72253
1.43002
0.167152
0.0263076
0.0221796
0.0238932
0.103544
0.0203686
0.0206925
0.021293
0.0217244
0.0214706
0.0211751
2.31133
0.0203608
0.0208006
0.0243118
0.021179
0.0286167
0.0218162
0.108414
0.0213492
1.51499
3.19177
0.0223069
0.0210061
0.021174
0.490639
0.020426
0.431887
0.0210553
0.0213982
0.0196438
0.0215326
4.60436
0.112356
4.58793
3.78666
0.0226015
0.471478
1.31582
0.0253125
0.0223014
0.020058
0.021668
0.0200508
0.0249282
0.0207507
0.0212273
0.0237719
0.023585
0.0227236
0.0208148
0.021457
0.0211125
0.0214911
0.0111536
0.0221247
0.0343261
0.465811
0.021232
0.18803
0.0210295
0.355027
0.0215556
0.0216581
0.0236836
0.540927
0.0195599
0.131351
0.527701
0.0206361
0.0209644
3.15225
0.0233099
0.0222027
0.36898
4.33548
0.0687657
0.0209659
0.0216333
0.0224158
0.0694974
0.0225519
0.0215504
0.0222394
4.03174
0.0219776
0.0214965
0.0236546
0.0641343
0.021491
4.40184
0.0215596
0.0239128
0.395908
0.0211954
1.52438
0.0220303
0.679777
0.0211394
0.302605
0.0213769
0.0218428
0.0207478
0.0208299
0.344652
0.257347
0.0233071
0.0213535
0.0213699
0.0217952
0.0223448
0.0220273
0.0223282
0.0233097
0.250095
0.0222397
0.0222756
0.182961
0.152742
0.469311
0.021567
0.0209996
0.0226306
1.52924
4.41911
0.0227342
0.0213957
0.0674935
0.0216946
0.0750335
0.0626996
0.0236093
0.0211739
0.0668689
0.0637107
0.0216898
0.0246138
0.0216043
1.40657
0.0216598
0.0223665
0.0212603
0.0240706
0.311654
0.0379589
0.0216108
0.0219927
0.490177
0.0208099
0.0211666
0.0186464
0.0214947
0.0223887
0.020067
0.291511
0.0200714
4.23941
0.344226
0.359421
0.0219843
0.0223088
0.0674447
0.0208405
0.0372796
0.0226133
0.455747
0.0214141
0.0200491
0.137405
0.0200555
0.0268342
0.0503888
0.294185
0.0212549
0.021498
0.062604
0.0216988
0.021658
0.0215968
0.0214412
0.0214906
0.0217873
0.039722
0.0396134
0.0217688
0.021145
0.0218755
0.0250828
0.142563
0.0214562
0.0209722
0.0563363
0.0210048
0.0214019
0.0628924
0.259243
0.0309569
0.0209675
0.442708
0.0206889
0.0214642
0.100535
0.021105
0.0228648
0.035355
0.0213982
0.0214644
0.023673
0.0707834
0.0607273
0.0209531
0.0222319
0.0194694
0.23631
0.0214983
0.0226352
0.0200544
0.0228135
0.0212521
0.416745
0.0200623
0.161665
0.0301979
0.0367881
3.82323
0.0248001
0.0212102
0.0310726
0.0548176
0.021206
0.0209578
0.0221543
0.0214159
0.0212295
0.0218364
0.0214054
0.0210952
0.0220983
0.0204285
0.0699252
0.0716171
0.0209991
1.05206
0.0231449
4.36802
0.0231307
0.0206801
0.0204357
0.0214003
0.164507
0.0212128
0.0611045
0.021024
0.0217648
0.0209674
0.0216423
0.0348804
0.0212594
0.0592155
0.0436991
0.0217223
0.0211256
0.036061
0.0218685
0.0688939
0.0212187
0.0233834
0.0215373
0.0954063
0.0215658
0.0208453
0.0204335
0.0543576
0.0220171
0.0685341
0.0217974
0.213472
0.0238106
0.0215521
0.0216156
0.389001
0.0537454
0.0212793
0.0212766
0.0200572
0.0235414
0.644764
0.0200609
0.0206709
0.0213127
0.021159
0.024475
0.020769
0.021334
0.0211736
0.422735
0.0211178
0.0222789
0.0209876
0.0246503
0.0213115
0.0215874
0.0200356
0.021342
0.0569281
0.488339
0.0200471
0.021558
0.0337861
0.0586037
0.0222548
0.14158
0.0200288
1.46293
0.0276927
0.0223209
0.370925
0.0690786
0.0213665
0.0200023
0.0212264
0.0830534
0.0199954
0.0199719
0.0216487
0.0202292
0.0223705
0.0210828
0.0223506
0.0523489
0.316244
0.0202261
0.0209447
0.363895
0.0399047
0.0217629
0.0195089
1.85211
0.0218445
0.0213702
0.0207124
0.0224217
0.0210269
0.0195129
0.215222
0.279595
0.0224313
0.0213924
0.021565
0.0194956
0.0194856
0.0292063
0.0222301
0.0204758
0.0212033
0.0390042
0.0221799
0.0212458
0.0211799
0.0984555
1.12333
0.0511836
4.22055
0.180196
0.0996978
0.0840084
0.0212527
0.025011
1.16497
0.0217406
0.0336664
0.0171218
0.0280322
0.021373
0.0213348
0.0203693
0.0211134
0.0237782
0.0247575
0.0211029
0.0212535
0.0213397
0.0210494
0.020275
0.0209972
0.0235409
0.0262504
0.0263442
0.022496
0.021234
0.0344122
0.0215156
0.0219391
0.0212415
0.0240552
0.0211369
0.162236
0.0215405
0.0224654
0.0217342
0.0212194
0.0831469
0.0265912
0.020926
0.451748
0.0211994
0.032768
0.0236255
0.102196
0.0201391
0.0225289
0.0224116
0.0209636
0.0212161
0.0211988
0.0614932
0.277062
0.0265245
0.0214474
0.0248101
0.0214069
0.0213627
0.0236579
0.0214169
0.0220748
0.118243
0.0226117
0.0215144
0.0212485
0.0209747
0.0228668
0.118196
0.0216994
0.0226263
0.021009
0.0227722
0.110575
0.0741112
0.0726009
0.0215551
0.246957
0.0214498
0.0222751
0.105261
0.0139935
0.0621959
4.27207
0.0234302
0.0214145
0.0212369
0.0203383
0.0212757
0.0813682
0.0240416
1.1803
1.36606
0.0290289
0.273893
0.0206554
0.0220741
0.0244322
0.0217595
0.0238271
0.0552024
0.0268214
0.0740201
0.0215134
0.0248175
0.022135
0.0200175
0.744777
0.0211569
0.0263038
0.0214175
0.0209421
0.0431628
0.0195615
0.0200131
0.0598808
0.0669156
0.0211249
0.346579
0.0213904
0.0308459
0.0706329
0.0212534
0.0210775
4.13801
0.0217059
0.0223148
0.019985
0.0217331
0.0226972
0.019981
0.357733
0.0211453
0.285539
0.362264
0.0247113
0.0212436
0.0221143
0.0212275
0.0214657
0.266863
0.0242272
0.0213481
0.189348
0.0216571
0.0211817
0.020762
0.0637734
0.0215703
1.37926
0.0214324
0.0425686
0.0308119
0.0215143
0.0235746
0.023756
0.332829
0.0875734
0.106858
0.0206783
0.0270347
0.0221
0.0212602
0.0343415
0.0201351
0.0435822
0.292844
0.081274
0.0216651
0.0211753
0.0456334
0.0220223
0.02215
0.0213674
0.0209376
0.0370844
0.0215871
0.023433
0.399371
0.0640994
0.020673
1.48517
2.99048
0.0210228
0.0428726
0.0211861
0.0210874
3.12777
0.0248801
0.0224021
0.0220943
0.0215104
3.11215
0.0619438
0.0282794
0.0209943
0.0232925
0.0219616
0.31771
0.0212314
0.0194956
0.0809882
0.0215341
0.02137
0.0207949
0.408273
0.0238601
0.0213779
0.0196037
0.0435549
0.0219212
0.0206043
0.382353
0.0236887
4.31679
0.0222134
0.0218296
0.0206702
0.0214146
0.0211167
0.0231852
0.0217457
0.0212584
0.0213866
0.0391506
0.0222964
0.388758
0.021255
0.0671993
0.0165688
0.0220683
0.0217603
0.143409
0.330445
0.705942
0.0329507
0.0211376
0.0228119
0.0205882
0.0204255
0.0208647
0.0207079
0.0797809
0.0481089
0.149516
0.351808
0.491747
0.343291
0.0211874
0.0265962
0.0209464
0.0210243
0.0364786
0.154795
1.30402
0.0339408
0.0331402
0.0214
0.0211915
0.047735
0.333382
0.0211962
1.43191
0.0215669
0.0212081
0.0231601
0.021188
0.0221051
0.0240692
1.54334
0.101302
0.0571081
0.068984
0.399175
0.0320596
0.0233456
0.0214018
0.021834
0.0308215
0.720533
0.0213744
0.145112
0.0249098
0.0259062
0.0210079
0.0796716
0.0308807
0.0416243
0.146492
0.0322152
0.0252671
0.0308375
0.0567748
0.0209954
0.0215034
0.0222957
0.131872
0.0239061
0.437024
1.58633
0.717994
0.0212498
0.0214027
0.0215682
0.0211559
0.0319519
0.0286772
0.023711
0.0215469
0.0212664
0.0273701
0.0210623
0.0221219
2.79514
0.0214972
0.332508
0.0204201
0.0225049
0.0512304
0.0274766
0.0224543
0.0332354
0.0690871
0.0237759
0.021559
0.0234284
0.024156
1.01176
0.0212262
0.0212733
0.0209129
0.0209131
0.0194936
0.0221858
0.0741741
0.352329
0.543811
0.058077
0.0802488
4.21239
0.0292522
0.0968666
0.0639706
0.353687
0.0224445
0.0218096
0.0209177
0.0253352
0.437864
0.021446
0.0217491
0.0213542
0.0225638
0.132789
0.02111
0.0212221
0.0295063
0.0208566
0.0218117
0.0213802
0.0214299
0.0206514
0.0785497
0.0214853
0.0211531
0.0285944
0.048441
0.0228118
1.47656
0.0214055
0.258328
0.0204552
0.0218732
0.339098
0.0197477
0.312196
0.084726
0.0226329
0.0208344
0.0244308
0.0222134
0.023243
0.0224058
0.020634
1.82324
0.0215355
0.0328245
0.0216746
0.0368033
0.0214018
0.0221269
0.0237678
0.0210354
0.0220964
0.0206554
0.0214996
0.022971
0.0210256
0.053106
0.366533
0.0214359
0.109282
0.0918486
0.0224185
0.0206055
0.0411711
0.024513
0.0207136
0.0230033
0.0197138
0.0211576
0.017368
0.0217585
0.0828468
0.0214285
0.546403
0.350308
0.0211616
0.0226673
0.0213186
0.0224824
0.364488
0.0215275
0.340979
0.0206453
0.0212853
0.0680208
4.39717
0.394099
0.0207798
0.0386213
0.0212843
0.536074
0.0225445
0.29407
0.0919261
0.822691
0.0204402
0.0215603
0.0214357
3.82483
0.0214051
3.64803
0.020771
0.268635
0.11501
0.0243939
0.0235458
0.246338
0.0339098
0.0683619
0.0220613
0.0226932
0.0371824
0.0227422
0.0224639
0.285433
0.371842
0.0216649
0.0217752
0.0214627
0.022507
0.0211961
0.0216897
1.14008
0.0209148
0.193379
2.78787
0.0279747
0.0728679
0.0214108
0.0211018
1.33761
1.33349
0.564998
0.0410077
0.236991
0.0209497
0.0234662
0.546622
4.85218
0.467403
0.0221402
0.022247
0.0857124
0.0210491
0.0212572
0.0210595
0.0205274
0.023295
0.0215271
0.0402726
0.0206085
0.466137
0.02173
0.340197
0.628167
1.04121
0.162472
0.344382
0.333683
3.79047
0.0239366
0.0290994
0.0214192
0.0231542
0.0219951
0.0896032
0.022882
0.113558
0.0250844
0.349769
0.0715643
0.0202219
0.0579766
0.0206013
0.0234511
0.837922
0.0214048
0.0236919
0.261777
0.347214
0.688579
0.351286
0.0202821
0.455464
0.0218498
0.020537
0.0275465
0.0226039
0.468686
0.023753
0.0211251
0.0374926
0.0216819
0.0219295
0.0208172
0.0217629
0.0221449
0.506334
0.0242745
0.0245276
0.355342
0.0214512
0.341534
0.242541
0.0293844
0.0214458
0.0252564
2.74918
0.346947
1.13824
0.0220377
0.0206593
0.0328021
0.107004
0.0211423
0.0323642
0.0336845
0.0336509
0.0222413
0.313037
0.544377
0.0196222
0.0206665
0.020618
0.0212294
0.0208021
0.0498582
0.0199576
0.370102
0.375604
0.0209913
3.62449
0.0208985
0.0226117
0.0208718
0.0256854
0.0118789
0.0226061
0.0679928
0.0220363
0.0217426
0.022334
0.363319
0.0148035
0.0209533
0.0190793
0.0201423
0.0375208
4.59812
0.66321
0.0219858
0.0226007
0.0226634
0.0220768
0.0229118
0.0850239
0.0371619
0.196532
0.0589972
0.0270793
0.0257416
0.0260586
0.198292
0.0209702
0.559508
0.0248717
4.14665
0.0209567
0.30424
0.0215009
0.0204128
0.0214597
0.0195706
0.0208205
0.0570662
0.0214337
0.357523
0.536938
1.41794
0.0211319
0.0216827
0.0237787
0.0778003
1.38156
0.0221738
0.0788837
0.0215099
0.0254585
0.0260274
0.0217591
0.0222778
0.0213936
0.0221763
0.0365683
0.331223
0.369732
0.0217427
0.342786
0.079673
0.281358
0.058755
0.0223169
0.0215337
0.0936788
0.0214382
0.0204168
0.0361174
0.0214152
3.5504
0.0230168
3.98217
0.0246106
0.0209076
0.0212264
0.0220426
0.0403402
0.0209363
0.555887
0.0206372
0.020827
0.0210382
0.0237482
0.0212812
0.0384769
0.0233225
3.45891
0.0214827
0.0212856
0.0215434
0.502624
0.0219598
0.0211672
0.0271304
0.0215381
0.0204362
0.0273324
0.0214384
0.0200923
0.0200914
0.0227388
1.44897
0.994657
0.0214838
0.0213948
0.0224025
0.0253701
0.0275176
0.0220027
0.0250548
0.0429715
3.39864
0.0270511
0.0210214
0.0361494
0.0222514
0.129154
0.0269173
0.0222
0.076393
0.119671
0.0272063
0.0208426
0.0206265
0.0722041
0.0278468
0.0206569
0.0231691
0.0215537
0.0225007
0.021383
0.126055
0.020917
0.34526
0.0890399
0.0212541
0.116369
0.0395268
0.308866
0.0482406
0.0291517
0.0222594
0.0204387
5.11792
0.0212645
0.0222768
0.0258961
0.0213938
0.022762
0.344158
1.0561
0.360219
0.0201656
0.0211447
0.0774872
3.42646
0.0218501
0.0222005
1.53645
0.0199722
0.0212526
0.0199606
0.0572312
0.0524567
0.0210251
0.0224049
0.0216449
0.0221866
0.0241266
0.0234049
0.0213391
0.0371502
3.02351
4.42091
0.0236488
0.0199796
0.0272783
0.358917
0.374265
0.0199679
0.0245018
0.0582805
0.0272591
0.0214793
0.033752
0.0219766
0.0324842
0.0212955
0.022944
0.72825
0.0987132
0.020244
0.0228635
0.0223828
0.548688
0.0211928
0.248901
0.0208384
0.0223025
0.0211522
0.0262486
0.0213968
0.0218548
0.020892
0.336082
3.29441
0.026533
0.022204
0.0209019
1.39243
0.0223914
0.671838
0.0208327
0.0208076
1.43128
0.0207547
0.0229549
0.0779038
0.120117
0.424419
0.0216259
0.0220416
0.0199752
0.0212863
0.0486059
0.0213891
0.0236518
0.0206131
0.0220209
0.0898701
0.0571095
0.0199829
0.0206068
0.0214566
0.0215094
0.420166
0.0219363
0.347032
0.0245058
0.0208636
0.0239199
0.0202924
0.079915
0.0217055
0.106104
0.021337
0.267973
3.77614
0.0206111
0.0205809
0.0199724
0.0214832
0.0215659
0.0208463
0.0274584
0.0542928
0.0221989
0.372881
0.0202067
0.0207467
0.020628
0.416241
0.0221622
0.0215165
0.022351
0.104729
0.0199796
0.0208401
0.0239613
0.0209096
0.0212147
0.021002
0.0360408
0.020567
0.0204036
0.113708
0.0199861
0.23388
0.0202176
0.122108
0.629472
0.0202178
0.0270359
0.0220654
0.0255564
0.0213555
0.0391144
0.0772505
0.0199975
0.0198739
0.0211339
0.0231823
0.0206641
0.0214912
0.0214447
0.105061
3.30101
0.0229265
0.0225542
0.0206749
0.0228207
0.0221888
0.0208208
0.0237423
0.0218577
0.0214554
0.0199643
0.112893
0.0203646
0.0214033
0.0210651
0.0213689
0.0214452
0.0565624
0.0199737
0.0264116
0.414526
0.425371
0.0214877
0.413889
0.01961
0.0216691
3.92662
2.02274
0.0227561
0.0241158
0.0210576
0.438456
0.234566
0.0211172
0.0237486
0.0211865
0.0417624
0.10523
1.19829
0.020985
0.0206532
0.0205563
0.0521249
0.0199862
0.0208269
0.0211326
0.0434594
0.0236639
0.0199817
0.021492
0.0227349
0.0214177
1.43585
0.0363095
0.0217053
0.393638
0.434507
0.0206045
0.0333176
0.0371023
0.0296179
0.0212525
1.22999
0.0417376
0.0200007
0.087463
0.118544
0.0230364
0.0210977
0.0212845
0.0216307
0.0211574
0.433848
0.424053
0.0199922
0.0200123
0.021377
0.0334405
0.766068
0.0210484
0.0200045
0.0210509
0.0215083
0.0200376
0.0221568
0.0200318
0.341546
0.0202215
3.89686
0.246593
0.0223587
0.0212803
0.0209507
0.0226678
0.0221758
0.0208922
0.465689
0.0427192
0.749998
0.0211323
0.482587
0.0232831
0.0808291
0.0214247
0.0399623
0.0239716
0.0421102
0.0220047
0.0206638
0.0237026
0.363023
0.0241157
0.0244703
0.0214101
0.0204456
0.34523
0.0219462
0.112352
0.747668
0.0209479
0.0200422
0.0204512
0.0200919
0.0211678
0.0213055
0.0269971
0.0214098
0.371015
0.0217031
0.0212953
0.0208251
0.0406576
0.0219697
0.0200709
0.0212702
0.0200981
0.0201966
0.0208569
0.0204229
0.0203652
0.416764
0.833786
0.0201868
0.0209483
0.021093
0.021831
0.0218695
0.0215525
1.41019
0.398684
0.458516
0.0218606
0.0221684
0.0212543
0.020058
0.0202251
0.021725
0.0906815
0.022306
2.78681
0.0209552
0.0214037
1.25283
0.0251617
0.0212031
0.483526
0.425783
0.0541598
0.0200752
0.022034
0.0209373
0.422416
0.10963
0.116074
0.130308
0.035382
0.877776
0.059131
0.0259807
0.0212612
0.0990492
0.0511983
0.236826
0.0215773
0.024297
0.0627426
4.18028
0.0199937
0.0263301
0.0395001
0.0201426
0.0208667
0.0210375
0.0201103
0.0215412
0.0214465
0.0205655
0.0209545
0.0214348
0.555968
1.5719
0.0207183
0.024176
0.0209196
0.0931468
0.28874
0.0219088
0.249545
0.0234144
1.24486
0.0541406
0.389237
0.0219267
0.0659611
0.0218388
0.0214015
0.132714
0.0212852
0.0208144
0.397189
0.0579078
0.0212059
0.0207721
0.0214623
0.0213402
1.35317
0.0704011
0.0222441
0.0251278
0.108391
0.191116
0.0228124
0.0234308
0.0214406
0.0214012
0.0207321
0.238318
0.605772
0.715182
0.0224244
0.0208843
0.101258
0.0215096
0.0364044
0.0209878
0.625706
0.020948
0.0229277
0.0608735
0.0222794
0.0985728
0.0213624
0.0215166
0.0231436
0.0655996
0.0262486
0.036523
0.0235414
0.0220419
0.0211049
0.0234965
0.0206117
0.0223649
0.0213512
0.037771
0.0215519
0.0219667
0.0217828
0.0320144
0.021885
0.0222073
0.056387
0.0221265
0.701894
0.0218577
0.0217236
0.0222512
0.0209249
0.0218805
0.0239197
3.38841
3.19179
0.0389903
0.0211544
0.0227461
0.190997
4.13274
3.24454
0.0222911
0.0204659
0.0272792
0.022221
0.0372219
0.0221516
0.0216527
0.0230935
0.0407839
0.758696
0.0199476
0.0276788
0.0221489
0.02168
4.28907
0.413317
0.0266545
0.0708721
0.0860124
0.144777
0.116042
0.0358264
0.0214011
0.0212387
0.267011
0.0346292
0.0628709
0.489075
0.0218571
0.0537813
0.0212162
0.0211958
0.0210513
0.0215541
0.137402
0.0211831
0.0209474
0.239218
0.0213061
0.556856
0.0214068
0.0201627
4.25213
0.0195024
0.0219145
1.54005
0.0212707
0.0210995
0.0203999
0.0201586
0.414988
0.0209579
0.0210823
0.0889835
0.0201107
0.0234057
0.022213
0.021846
0.0515953
0.0220115
0.0342235
0.066389
0.0213735
0.0195493
0.0208924
0.0233556
0.0584663
0.0215679
0.503339
0.0201737
0.115008
0.0204883
0.0220981
0.022221
0.0208524
0.532888
0.0215908
0.175338
0.0213938
0.0209909
0.0213516
0.0212922
0.0221395
0.0199644
0.0599121
0.0249045
0.0800154
0.0215425
0.022643
0.300416
0.316386
3.31452
0.475496
0.486955
0.0264388
1.17935
0.021245
0.0207412
0.00543546
0.0208155
0.0430238
0.0587874
0.0209842
0.024342
0.0202566
0.0207214
0.0235248
0.0666987
0.0212949
3.84747
0.0214693
0.0209244
0.20744
0.0217059
0.0206002
0.0203744
0.0224066
0.0224632
1.24459
0.0221484
0.0210601
0.0212524
0.0531565
0.488227
0.0305098
1.47387
0.0201929
0.0246312
0.0202681
0.0744159
0.0212343
0.0201892
0.0211089
0.181041
0.357867
0.0213136
0.0263328
0.0244875
0.0195027
0.035068
0.0929261
0.0220585
0.0213942
0.178292
0.0401808
0.0236568
0.0215162
0.764926
0.0213121
0.557044
0.0205907
0.0212605
0.0215068
0.0219586
0.0259872
0.0222035
0.0212703
0.0213923
0.0210306
0.0310339
4.1788
0.0213453
0.020915
0.0215285
0.134671
0.023802
0.0217607
4.33199
0.312307
0.0197865
0.0237693
0.0210692
0.0698379
0.0229271
0.491713
0.036451
0.0125716
1.43918
0.0229125
0.0212132
0.227162
3.41992
0.0211246
0.0220791
0.0215005
0.0212167
0.0214912
0.24443
0.0245248
0.0277127
0.0220188
0.37255
0.0211995
0.356043
0.0210639
0.0213561
0.0211615
0.146881
0.0215046
0.381809
0.0212125
0.0208026
0.0228876
0.0209002
0.0218838
0.0208315
0.0207115
0.179315
0.0273093
0.0201301
0.0215754
0.0210755
0.051165
0.0208281
0.0214319
0.0221348
0.021521
0.0317535
0.021172
0.0174061
0.765131
0.0220317
0.0215544
0.126183
0.363804
0.0220775
0.020251
0.0215574
0.0259484
0.164355
0.0209591
0.288683
0.0409199
0.0220908
0.0217924
0.021515
0.18744
0.0214089
4.09401
0.0241279
0.0230586
0.0286481
0.124171
0.0225768
0.0213631
0.0821333
4.6627
0.109701
0.0220571
0.0220375
0.154277
0.0219164
0.0248036
0.0216732
0.022727
0.0224598
0.0213684
0.0942632
0.0895075
0.0226025
0.0215806
0.0934226
0.0241755
0.020644
0.130828
0.055091
0.0411031
0.0228477
0.266537
0.271308
0.42431
0.0217234
0.494982
0.021314
0.019816
0.370363
0.0282824
0.45376
0.02141
0.0220438
0.0303406
0.0215956
0.0213511
0.021831
0.11007
0.109602
3.42889
0.372194
0.0251502
0.0244816
0.0207572
0.0208123
0.0213296
0.0208388
0.0219121
4.18063
0.0688579
0.0206066
0.0211973
0.0856302
3.78809
0.0425349
0.0209845
0.0200535
0.0408159
0.0207815
0.0213556
0.984512
0.0202339
0.0218269
0.0221596
0.078811
0.0221051
0.0904455
0.109047
0.0222251
0.0217703
0.0221315
0.0215899
0.0214162
0.0376007
1.34608
0.0215606
0.0254918
0.0211963
0.433983
0.0487302
0.183264
3.69037
0.0261357
0.0487486
0.100554
0.0215276
0.0207906
0.0213924
0.0218518
0.028287
0.0210997
0.0205978
0.53767
0.0211521
0.019938
0.0207952
0.0208928
3.20576
0.302796
0.0228315
0.343131
0.0208277
0.0201354
0.031814
0.247203
0.0620993
0.0214573
0.0236164
0.0210767
0.0217813
0.25385
0.0214745
0.0231445
0.000115472
0.437181
0.0200178
0.0200174
0.0231329
0.0197274
0.307582
0.085316
0.0207811
0.0266153
4.40934
0.0213064
0.543217
0.0218279
0.019904
0.0213437
0.0256205
0.0216445
0.0206695
0.0214095
0.0320122
3.43198
0.0201
0.020403
0.365321
0.0217051
0.0213504
0.0510895
0.0238566
0.021708
0.0205536
0.106544
0.021294
0.0234083
0.0240723
0.153829
0.189163
0.021271
0.0217651
0.0213712
0.0367529
0.0201592
0.0231446
0.058366
0.0217637
0.0237788
0.0683806
0.0208656
0.039414
0.0198892
0.0235099
1.04194
0.422072
0.0211681
0.0621268
0.0207881
0.0207322
0.0355919
0.0199454
0.0221481
0.0219059
0.0213758
0.0219112
0.0208403
0.0220787
0.0217615
0.0518065
0.435806
0.0346553
1.4768
0.0214358
0.246383
0.0207988
0.0201614
0.0200085
0.0212469
0.0203431
0.0227717
0.278993
0.0214513
0.0234398
0.0206752
0.0198055
1.28608
0.727439
0.0212091
0.021491
0.0711701
0.0221129
0.0200084
0.0792882
0.629928
0.0207983
0.0221861
0.0204643
3.46643
0.021262
0.021562
4.3298
0.14273
0.0213649
1.46786
0.0214103
0.0204083
0.0205251
0.0208352
0.582905
0.0226438
0.0226162
3.71736
0.0214575
0.021572
0.020106
0.0229658
0.520312
0.0696157
0.0235245
0.0216236
0.0763097
0.0213292
0.0215495
0.0237076
0.0202298
0.0236795
0.0205001
0.0218691
0.0207281
0.0402021
0.238142
4.3098
0.0868036
0.0312776
0.0502361
0.0213643
0.0399473
0.0210581
0.0213468
0.0305698
0.0216758
0.0216843
0.0228745
0.0208386
0.0279997
0.0610623
0.0227529
0.0213862
0.0210613
0.0213595
0.0206722
0.0214354
0.027806
0.0327635
0.340227
0.0212245
2.4196
0.021321
0.0208264
0.022523
0.0239409
0.021297
0.020595
0.0207057
0.297214
0.295108
3.4197
1.45958
0.363259
0.0364241
0.655108
0.0210432
0.0212335
0.0258264
0.0208238
0.0201577
0.0504717
0.0213835
0.698957
0.0212692
0.0213643
0.0215313
0.0208255
0.0517031
0.0210498
0.260861
0.0204993
0.0334167
3.28208
0.0224645
0.421632
0.0216737
0.0217651
0.0311402
0.0207301
0.0208039
0.0387369
0.0310977
0.0212074
0.0204955
0.0212562
0.171301
0.311039
0.0218387
0.0208929
0.0216836
0.0204964
0.0201564
0.158545
0.020689
0.152797
4.22088
0.0215623
0.0201355
0.0818556
0.0214914
0.0833887
0.113687
0.0208849
0.0222272
0.0628623
0.0440603
0.0662191
0.186504
0.0259931
0.0226169
0.0372948
0.0216556
0.0210988
0.027679
0.0203735
0.0212159
0.0226401
0.0214083
0.405249
0.0213751
0.0532581
0.0370207
0.0546786
0.0213146
0.0303119
0.0263669
0.135137
0.0210158
0.0206814
0.419888
0.409075
0.0218283
0.0994543
0.557989
0.0213793
0.0218798
0.0243488
0.0209943
0.085478
0.0211558
0.0501544
0.0201448
0.0817667
0.0182465
0.0870552
0.158846
0.0212865
0.0198961
2.93742
0.399374
0.030759
0.0213565
0.0207927
0.04617
0.0200769
0.0221959
0.0477012
0.0210656
0.0819373
0.0246544
0.0224822
0.0214963
0.0330044
0.0237041
0.0516058
0.0222925
0.0221968
0.021086
0.0214149
0.267163
0.0214486
0.0213863
0.0207705
0.579299
0.415354
0.0508841
0.0173116
0.0201058
0.0635296
0.0210658
0.0205267
0.0201102
0.0233572
0.0201708
3.94183
0.0233849
0.021792
1.34873
0.091938
0.0236677
0.0211303
0.0212782
0.0198407
0.0213462
0.0197187
0.467075
0.0217971
0.0217087
0.037534
0.314383
0.0579684
0.0353608
0.0443068
0.0210549
0.020561
0.409757
0.0214347
0.020086
0.799909
0.0206428
0.021161
0.0199253
0.021272
0.0211298
0.0207791
0.0813408
0.361807
0.574859
0.0443787
3.2246
0.0233542
0.0206295
2.24791
0.0213803
0.0649445
0.0215471
0.40133
0.020514
0.0594503
0.278675
0.0223073
0.0201766
0.0214949
0.0273459
0.0211917
1.36801
0.0202203
0.0230111
0.0233446
0.0573309
0.0212745
0.0105718
0.0208785
0.0206788
0.020905
0.022082
0.0198839
0.414332
0.0208949
0.45214
0.0598637
0.0227242
0.0212762
0.0243531
0.0207733
0.0222183
0.0207629
0.0222877
1.47448
0.0207855
1.33728
0.0212206
0.0280942
0.0348122
0.0206971
3.21061
0.0213656
0.0221349
0.0247031
0.760215
0.0245082
0.0211135
0.0201135
0.0483228
0.0501393
0.0267368
0.0228486
0.0221641
0.0219867
0.0212257
0.0208634
0.023075
0.0259295
0.0215956
0.0236709
0.020559
0.371399
3.36998
0.0217765
0.0213025
0.0503592
0.0940178
0.0215203
0.0222326
0.0225121
0.0217277
0.0204119
0.0242628
0.0208937
0.0213316
0.411152
0.0205149
0.020797
0.0229743
0.0206281
0.0967814
0.113754
0.0243086
0.0214572
3.55562
0.0316293
0.0903588
0.0225167
0.442664
0.0402106
4.09808
0.020499
0.0229259
0.0260041
0.0213438
0.0227496
0.0295396
0.0212092
0.0213508
0.0353846
0.021458
0.0267836
0.0708504
0.0215504
0.0214034
0.0287892
0.0216452
0.0773648
0.020524
0.509655
0.0220347
0.0216175
0.0202038
0.302818
0.149193
0.020408
0.166064
0.0449281
0.540155
4.19885
0.0212636
0.0509033
1.47685
0.293219
0.0212495
0.0433289
0.0381568
4.2441
0.0220415
0.0226155
0.187273
0.0766823
0.0218435
0.392853
0.0229299
0.0921757
0.0209116
0.0213619
0.0210933
0.0707025
0.0213412
0.0872343
4.30011
0.0439602
0.0201159
0.0213222
0.0213537
0.0334771
0.0205417
0.0213709
0.116979
4.20075
0.201821
0.0215139
0.0211907
0.020943
0.431241
0.0216836
0.0224836
0.0205518
0.0196276
0.0361788
4.3655
0.0244346
0.0206525
0.0305092
3.56775
0.021963
0.0207189
0.0319338
0.0132586
0.0213015
0.224211
0.0244943
4.21256
4.09162
3.33854
0.0224194
4.33646
0.827718
0.0229269
0.248414
0.0289707
0.0220696
0.34241
0.419719
3.47743
3.65703
0.762153
0.0208571
0.0758979
2.10481
0.0306165
3.50772
4.03757
0.0213785
0.45856
0.0207865
0.0213378
0.135385
0.0197581
0.0214092
0.0210931
0.0217787
3.72043
0.0253801
0.0957358
0.0217657
0.566022
0.0207637
0.0215071
0.0206753
2.71682
0.0214791
0.0230139
0.466987
0.0212267
0.0208079
0.0241146
0.0237112
0.0235582
0.0257101
0.0350222
1.66711
0.0206119
0.0213289
0.0204738
0.0563954
0.441133
0.0213756
0.0213864
0.500868
0.0214375
0.0206025
0.189357
0.0209337
0.0325596
0.0191035
2.09455
0.0347052
0.124199
0.020953
2.97254
0.0236429
0.0208269
3.79638
0.0214372
1.95993
0.0290566
0.0216338
0.275392
0.172138
0.0215892
0.060959
0.0228092
0.0203739
0.0213933
0.0216513
0.139333
0.0304132
0.0210312
1.30973
0.062427
0.0213465
0.0220637
0.0204952
0.362024
0.0909551
0.0208112
0.0302447
1.03823
0.117189
0.0204805
0.0229801
0.14611
0.0209355
0.0212639
0.0207105
0.0323135
0.279099
0.0287702
0.0239999
0.0217147
0.0208132
0.0203423
0.0767268
0.0207064
0.0192773
1.48602
0.0212687
0.0279271
0.0213798
0.15344
4.33788
0.0222477
0.0210544
0.449737
0.0212272
4.23361
0.0542384
0.420341
0.352825
0.357721
3.61564
0.0211372
0.739994
0.0235869
0.0227242
0.0209842
0.0249515
0.163943
0.0228333
0.0216076
0.0350456
0.0808398
0.0209036
0.0202127
0.0386588
0.0292706
0.0203516
0.350559
0.165802
0.0213851
0.0209015
0.0212724
3.80859
0.326236
1.47178
0.0227328
0.0544468
0.0214045
0.0210801
0.0413923
0.119758
0.0214151
0.0423122
0.229074
0.0211848
0.0212414
0.0255084
0.0232599
0.0277345
0.0209077
0.227859
0.0248571
0.0214793
3.56052
0.0214412
0.135771
0.0213154
0.0210002
0.12707
0.479613
0.0204131
0.0211052
0.0210745
0.0351608
0.0199648
0.0947677
0.0214399
0.0214845
0.431325
0.134676
0.020159
0.226744
3.43829
0.331377
0.0242562
0.0201319
0.021276
0.223521
0.209635
0.0206853
0.0202894
0.822574
0.0708136
0.0226448
0.021027
0.04521
0.264556
0.0209794
0.333949
0.265094
0.021181
0.0224913
0.0318032
0.420142
0.130822
0.0220077
0.0334523
3.02762
0.0358415
3.68987
0.020885
0.437544
0.0261375
0.188886
0.0289774
0.379415
0.0724315
0.0202338
1.08104
0.0242919
3.30697
0.061738
0.155777
1.68899
0.118473
0.0215038
0.110756
0.121058
0.0259763
0.0297881
4.10058
0.259541
0.020677
0.131561
0.233845
0.0145854
0.0227164
0.0205069
3.52016
0.0219902
0.0211134
0.0214395
0.230835
3.68242
1.59237
0.0200112
0.0214235
0.512606
0.459615
0.0256654
0.0667466
0.0329412
0.0222355
0.021491
0.762005
0.0216796
0.0271168
0.0201612
0.0212744
0.0350912
0.999585
0.0215463
0.0493401
0.153311
0.174956
2.05753
0.0354265
0.025384
0.0217188
0.0206652
0.0211297
0.0321346
0.0212747
0.021281
0.346344
0.0214447
0.0213716
0.0234605
0.0227539
0.0209506
0.0887753
1.41903
0.0221211
0.0196063
0.0275108
0.019878
0.0219937
0.0344758
0.141736
0.142309
0.418896
1.20953
0.341665
0.0269938
0.00504544
0.0218382
0.021517
0.25251
0.0228322
0.032307
0.0236403
0.0237784
0.0238306
2.70233
0.0238972
0.0212006
0.0304316
0.0199243
0.0213898
0.021925
0.0213567
0.0204466
0.0237833
0.0199669
0.0429686
0.0207963
0.0360554
0.0213548
0.0332716
0.548687
0.0214078
0.0417134
0.0799228
0.0217135
4.12649
0.0213319
0.0218524
0.0217519
0.0221813
0.0207341
0.0226131
0.0366137
4.4124
0.0202586
0.0211392
0.0212543
0.102857
0.0236124
0.0217351
0.0234023
0.0378655
0.0204004
0.021418
1.5801
0.045577
5.02308
0.0211443
0.0226702
0.148422
0.0223056
0.0312159
0.141266
1.44548
0.0213816
0.0214263
0.164475
0.0226645
0.0205826
0.0209015
0.022211
0.0452666
0.0207887
0.0206133
0.0589647
3.44303
0.0218049
0.0351884
0.0205268
0.0239798
0.0217888
0.808091
0.0303489
1.48484
0.0222713
0.314421
0.0500412
0.0824143
0.0264522
0.02121
0.0203871
0.0207463
0.0925562
1.47951
0.0221101
0.0236126
0.0199882
0.137438
0.0220751
0.0223015
0.0310855
0.221121
0.027693
0.0223237
0.0205005
0.0217264
0.0211799
0.1672
0.0210084
0.449071
0.0198872
0.0485388
0.0218052
0.0203358
0.0200153
0.0217047
0.0214351
0.0205008
0.0732354
0.0252149
0.956214
0.0200115
0.0247853
0.0216548
0.0220419
0.0480956
0.0225712
0.0221389
0.0233566
4.28568
0.0206931
0.0486247
0.0203826
0.0196855
0.023063
0.0232
0.359229
0.0206776
0.0232884
0.0231752
0.0254715
0.231474
0.0488098
0.0208801
0.0216441
0.0431828
0.021408
0.0217798
0.0214734
0.020493
4.02211
0.123126
0.0217905
2.47437
0.0199439
0.0458877
0.0213697
0.0349217
0.0207805
0.0211295
0.314382
0.0277544
0.0999294
0.021382
4.1851
0.0210081
0.0844434
0.020918
0.0211151
0.0471214
0.020696
0.0262082
0.127011
3.2473
0.0195226
0.0264384
4.04867
0.0218215
0.0197179
1.25308
0.0246374
0.0240631
0.0646013
0.0205441
0.0744948
0.0214599
4.22108
0.0206643
0.0205733
0.0242224
0.0237461
0.030288
0.0219661
0.0218913
0.0202665
0.0206748
0.0201691
0.0261448
0.0798266
0.0202423
0.0217618
0.0472529
0.129894
0.0211573
0.0300226
3.34139
0.0210102
0.0214152
0.0198603
0.0273835
0.0220077
0.0739213
0.0391801
0.0205351
0.0212444
0.13808
0.0210721
0.0216016
3.10013
0.143242
0.0578346
0.0269888
0.0213636
0.0237235
0.0198421
0.0261971
0.0313917
0.0505158
0.019767
0.020461
0.0289641
0.250107
4.27685
0.0350185
0.303939
0.0219687
0.0225053
0.0222675
0.0553727
0.0554637
0.0418673
0.0226747
0.0198704
0.0545818
0.0245079
0.02113
0.377266
0.0646097
0.02388
0.761925
0.0212848
0.0638256
0.021503
0.0235686
0.0204192
0.0207543
0.0208641
0.0342486