/*--------------------------------*- C++ -*----------------------------------*\
| =========                 |                                                 |
| \\      /  F ield         | OpenFOAM: The Open Source CFD Toolbox           |
|  \\    /   O peration     | Version:  v2012                                 |
|   \\  /    A nd           | Website:  www.openfoam.com                      |
|    \\/     M anipulation  |                                                 |
\*---------------------------------------------------------------------------*/
FoamFile
{
    version     2.0;
    format      ascii;
    class       volScalarField;
    location    "450";
    object      ddt0(k);
}
// * * * * * * * * * * * * * * * * * * * * * * * * * * * * * * * * * * * * * //

dimensions      [0 2 -3 0 0 0 0];


internalField   nonuniform List<scalar> 
18232
(
1.02089e-07
-1.84056e-05
0.00536843
-2.25152e-05
1.19577e-06
-0.0222598
-0.00195799
5.1573e-08
2.40141e-06
-0.00186499
7.81437e-07
4.62479e-08
-0.00049933
-0.00486973
1.60641e-05
-1.32013e-05
-6.93861e-06
-0.000171975
-2.12858e-08
-0.00400143
0.0105264
-0.00367638
-5.16798e-05
-7.19355e-07
5.62005e-08
-8.03925e-07
-1.0824e-06
0.00274214
-3.13841e-08
6.12364e-05
-8.42016e-07
-0.00237029
3.1966e-05
-1.44424e-08
-3.17769e-05
3.40615e-08
0.0107137
0.000168593
0.0141308
-4.21244e-08
-1.1292e-05
-3.47282e-08
0.00631727
-8.76748e-07
-1.32609e-05
-1.5462e-07
0.00113353
2.08333e-05
1.22302e-05
-0.0210805
-2.47234e-06
1.43832e-05
-3.07934e-08
-8.96711e-05
2.33783e-07
1.80776e-06
-4.40726e-05
0.000369932
-1.3435e-07
9.96003e-06
-8.4775e-06
0.000572886
0.0309569
-0.000460145
-1.05105e-06
-1.21528e-06
0.0132643
1.0413e-07
2.04537e-07
-1.51532e-07
-4.59392e-08
-2.37828e-08
0.00231555
-4.06725e-08
-7.60905e-06
-2.45944e-08
-1.83458e-06
0.00717199
0.0261395
-0.000172067
-2.58967e-05
2.02829e-06
-1.98024e-05
2.74175e-05
-3.47657e-08
-0.0211287
1.11171e-06
-1.70153e-08
-0.0045658
0.00829257
2.97871e-07
1.8339e-07
-1.55134e-05
-1.66946e-05
-4.3547e-06
2.09837e-05
-4.8322e-07
1.59295e-07
-3.10874e-07
8.94787e-07
-0.00368689
0.000517892
-6.48275e-08
-4.35775e-08
-6.00482e-08
0.0030505
4.42812e-08
-0.00641682
-8.13157e-05
-0.00145809
0.00105264
-2.03787e-06
-1.40828e-05
0.000191931
-4.97157e-08
8.97024e-07
8.28704e-07
0.00262885
-0.0316219
-1.29857e-06
-3.82538e-08
0.00058403
-2.52454e-08
-0.00855672
1.59717e-08
-1.45979e-07
-1.34034e-06
0.00730926
-7.69564e-06
-2.09272e-05
-1.79472e-06
-1.2846e-05
5.68931e-08
-2.44859e-08
4.85699e-07
-2.7844e-08
-3.3843e-05
-7.28178e-06
0.00899296
-0.0166912
-3.34644e-08
0.0138251
0.00810448
-4.34427e-05
-2.79692e-07
-2.61993e-08
-1.11637e-06
-3.57207e-05
1.3443e-08
2.96175e-07
-1.38007e-05
2.17008e-08
-0.00677375
6.58683e-08
0.0211564
-2.42425e-05
0.00765714
3.0514e-06
-1.05623e-06
0.0138149
-6.1301e-07
0.000811749
0.0218969
-0.0103738
-0.000831527
-8.17278e-08
-7.90045e-06
0.000104763
-6.19843e-08
-2.87436e-05
-1.09065e-08
-0.0162491
-1.69631e-05
-3.21364e-08
7.79872e-08
-1.8171e-08
-0.00076623
-3.33375e-07
-2.00503e-08
-1.97987e-08
1.44164e-07
-0.0329152
-1.97479e-07
-0.000240053
5.95891e-08
-1.40419e-08
-5.68681e-08
0.00966976
1.39319e-05
1.369e-05
3.51731e-07
-0.000850603
4.15161e-07
2.11099e-07
5.75169e-08
2.33762e-07
-3.72209e-06
2.49321e-07
1.64685e-07
2.34993e-08
2.37847e-06
3.57586e-07
1.56661e-08
4.68324e-08
-2.42381e-07
-2.94335e-06
6.46948e-06
2.32664e-06
-2.02651e-07
6.93977e-08
-3.49814e-08
-1.06448e-06
2.25922e-08
-3.78811e-05
-3.90147e-08
-3.72479e-05
-2.53957e-06
-6.30731e-08
-0.00255025
-3.04303e-05
-1.14974e-07
4.96916e-06
0.00118295
-0.0155428
-1.62883e-05
2.96431e-07
-1.03612e-06
-1.32829e-06
1.00254e-05
1.32195e-05
0.000159203
-3.1479e-08
8.62529e-08
-3.60436e-08
-5.6099e-06
-2.68601e-08
-5.07025e-06
-1.44085e-05
-2.45645e-06
-3.66896e-07
0.0133656
-5.31125e-08
-1.6533e-06
-4.62134e-05
0.000382791
1.37461e-08
-1.54678e-06
-2.12072e-06
-3.26514e-08
6.08188e-08
0.013793
5.63467e-07
0.0122668
6.03137e-06
6.70907e-06
0.00024927
-4.97459e-07
-2.57232e-05
3.9978e-07
-9.65598e-08
0.000884853
3.80608e-08
0.0112029
1.61459e-08
-8.02334e-07
-6.81065e-06
8.71998e-05
-1.25289e-07
-1.08086e-08
0.0126481
8.06876e-08
-3.76864e-06
-1.30912e-05
0.00475313
-8.42504e-05
9.00734e-09
-3.75149e-05
-5.64139e-07
3.52274e-07
-5.8509e-05
0.00530276
-0.000223446
-5.42328e-05
-9.82142e-09
2.83239e-05
-3.86088e-07
2.39866e-08
-1.0737e-07
0.0089542
-2.38011e-05
-0.011749
-0.000530248
-2.71437e-08
-3.55632e-06
-5.60086e-07
-3.59387e-08
4.05339e-07
-3.23471e-08
1.81873e-06
0.00283503
-3.22583e-06
4.71577e-06
0.0118503
-3.7145e-08
5.35338e-09
-1.59501e-08
-2.41139e-07
2.28645e-06
-8.55902e-07
-1.19603e-07
-3.74534e-08
-2.98047e-05
-0.00442274
1.90684e-07
1.85633e-07
-4.8435e-05
-5.77681e-07
1.64068e-06
-7.51414e-06
-5.37649e-08
1.04625e-07
0.00143555
-7.52773e-06
-6.2766e-08
-1.09165e-05
0.000595491
-3.88869e-08
1.63696e-07
-6.81162e-07
-3.45237e-08
1.17188e-05
-1.12182e-05
-0.00027004
2.88506e-07
5.15192e-07
-6.04713e-06
-3.99281e-08
-2.57259e-07
-9.88516e-06
-6.07107e-05
-2.2561e-05
-3.4257e-05
-1.3643e-06
-2.29205e-05
-1.55335e-05
2.90665e-06
0.0108083
-3.15901e-07
-1.15658e-07
8.91157e-08
-2.77652e-08
9.79226e-06
-1.24223e-05
1.29795e-06
-7.60534e-07
8.0624e-08
0.000355219
-6.0013e-08
1.12878e-06
2.1195e-08
-1.08665e-06
-0.000400012
5.5636e-06
1.22821e-08
2.41856e-07
-4.47415e-09
3.67873e-09
-7.73396e-08
-1.7802e-05
-4.71374e-07
3.85978e-09
-1.40866e-06
0.00547801
1.53565e-06
-3.72301e-06
-2.15391e-08
-0.00801568
-7.30981e-08
3.914e-07
0.000158037
-0.0068071
6.76788e-08
-1.87259e-07
-7.50461e-06
1.56447e-09
-5.65596e-10
1.6512e-06
2.80658e-05
1.15621e-06
4.56257e-07
2.04288e-05
0.000279803
-1.824e-09
-2.50974e-09
-8.15567e-07
-6.83932e-07
-0.000399409
-3.78065e-07
0.00223161
-3.29223e-08
-3.14232e-06
6.28236e-09
4.97369e-07
1.13539e-07
-0.00425197
6.99537e-06
8.08177e-07
-0.000107444
-8.99401e-06
-6.2082e-06
0.0034405
9.95468e-07
0.000109235
1.10566e-07
1.29522e-06
1.2022e-06
-1.27946e-07
-0.00741052
2.16172e-08
-1.13272e-06
-6.05207e-06
-0.000677272
0.000903258
-0.000156641
-9.49199e-07
-1.75905e-05
-9.73885e-06
-1.0084e-07
1.66813e-07
-0.00176341
0.00170318
-5.59391e-07
7.43563e-09
-1.70952e-07
6.80445e-09
1.14395e-08
-1.39721e-05
-4.14832e-06
1.65542e-08
8.26901e-06
-1.20134e-06
-9.81115e-08
0.00169378
4.90983e-08
-4.26277e-07
-1.07916e-07
1.55971e-05
-0.000876936
2.65891e-08
3.05655e-07
1.30781e-05
-4.15166e-06
-8.32867e-06
-5.738e-09
6.24684e-08
4.06455e-08
1.82848e-07
-0.00257703
-4.87306e-06
-3.65016e-09
1.48419e-07
6.75444e-08
-9.70805e-06
-1.90547e-07
-1.94914e-07
2.20937e-05
-3.78485e-08
0.000382528
-4.41076e-08
-3.16754e-08
0.010955
4.28984e-07
0.00743817
0.0101763
0.00108337
-5.05024e-11
3.84858e-10
-1.74667e-07
0.000338963
-1.10849e-07
2.77508e-07
-8.15282e-08
-0.00381218
1.55298e-08
1.90258e-07
9.95373e-08
-1.36017e-05
0.0350525
9.64212e-06
8.59651e-07
-7.9202e-07
0.00594575
0.0259039
1.34303e-08
0.000914366
2.04117e-08
0.00932213
-9.06748e-08
-2.0233e-05
-1.74602e-08
-0.00482816
1.05806e-08
2.29318e-07
6.81353e-07
0.00715138
9.17311e-08
-4.56648e-06
1.90361e-07
0.0136256
-1.11276e-06
5.25635e-06
1.15344e-06
1.39227e-05
-6.0872e-08
-0.0790015
7.4789e-07
8.78311e-08
-8.05946e-08
-1.85156e-07
-1.87847e-08
-2.281e-08
3.76521e-08
1.4455e-06
-1.13114e-07
6.42486e-08
1.80883e-09
-4.17718e-06
-0.0109732
-1.7666e-07
1.21277e-05
-2.78467e-08
0.0133894
0.0009901
-7.19553e-09
-8.60424e-06
1.06505e-06
0.00962358
9.30301e-08
-0.000944515
-1.68415e-08
-1.43569e-07
0.0124773
6.10088e-06
1.4281e-06
-0.0281167
1.47862e-06
-3.55535e-06
1.37364e-08
0.0131156
4.695e-08
-1.73772e-05
4.09164e-07
-1.85743e-05
-1.17716e-07
-6.51674e-06
8.91213e-06
-6.10096e-08
2.48779e-08
-2.30363e-08
3.49096e-06
5.82419e-07
-1.63302e-07
-3.25061e-08
0.00200828
0.00328527
0.00112657
9.47383e-06
-0.000190959
-2.1366e-05
2.06747e-05
6.01927e-08
-8.13474e-05
-1.18491e-07
-4.71791e-05
3.03754e-08
-1.71897e-07
8.45044e-08
6.65551e-08
2.37084e-07
-1.07974e-05
-3.80196e-06
2.26657e-08
-0.000110144
-0.0693032
-0.000105563
5.96379e-08
-2.00372e-05
-1.5329e-07
8.36165e-07
-3.47249e-09
2.38015e-06
-3.07598e-08
0.00518346
3.7422e-06
-1.5834e-08
0.0128164
5.61438e-07
-8.58495e-06
-1.29671e-05
-1.68864e-08
5.91343e-06
7.14269e-05
-7.79893e-05
3.73353e-07
-1.07012e-05
-2.58921e-08
1.55643e-09
-1.76343e-07
-0.000631722
-2.30477e-05
-0.0012257
-3.08489e-08
7.4183e-07
0.0198635
7.04144e-09
0.00563476
-0.00575576
-4.18476e-05
-7.98094e-08
2.93518e-08
1.20437e-07
-1.43658e-08
-4.08503e-05
-0.00865065
-4.21419e-06
-1.67607e-05
0.000332574
9.27918e-06
1.05564e-05
-2.63163e-06
-4.09993e-05
-3.17449e-07
5.71703e-07
-2.14124e-05
-0.000777577
3.25598e-06
-1.86206e-05
-5.32969e-08
1.27375e-06
3.02065e-05
-0.0026396
-1.43915e-05
7.32485e-08
5.10678e-07
-0.000991581
-2.70687e-06
-0.00894337
4.17319e-06
-9.27098e-06
8.93652e-08
-2.32598e-06
4.76513e-08
-7.15373e-06
-3.65959e-05
-4.63323e-08
-1.01405e-07
-2.18926e-08
2.25915e-05
4.15257e-07
2.53301e-06
2.30876e-05
7.47958e-06
-5.60472e-07
-1.35989e-07
4.66191e-06
-2.94387e-05
2.74875e-05
5.58714e-08
-5.17723e-08
-2.38996e-07
-0.00551415
1.36754e-07
2.29761e-06
-0.00115787
4.47913e-08
-4.43352e-08
-1.08245e-07
4.4727e-06
4.91683e-08
7.35818e-07
4.73173e-06
2.39687e-08
-2.25504e-05
2.15458e-06
-1.14766e-06
-2.50761e-07
0.0127184
-3.6511e-06
6.27853e-08
2.80741e-06
-7.46749e-05
5.81523e-08
1.0426e-08
-0.0150556
-5.81967e-06
1.4835e-06
1.33339e-08
1.79746e-08
0.000915929
1.88866e-06
-0.00251469
-1.82637e-06
-2.3547e-07
-9.64951e-06
1.93738e-06
-4.09707e-06
-1.23793e-05
4.06506e-06
-4.85418e-08
9.20294e-07
3.77782e-06
-3.29421e-06
-8.43532e-07
-2.46889e-08
0.0134044
-6.52424e-08
-1.97094e-06
3.33101e-07
9.99959e-08
-0.000324619
5.04977e-06
0.0137507
-3.05304e-05
2.05631e-05
2.09083e-07
-2.25741e-06
-2.22753e-07
2.63905e-06
-1.67335e-05
-2.71581e-08
3.57298e-07
-2.2268e-06
9.6592e-07
-1.14089e-07
0.00166764
-9.07842e-07
-1.48386e-06
-1.76924e-06
0.000259302
-1.73507e-07
-9.68599e-06
0.000799686
-4.04485e-06
7.24208e-05
-0.0158245
0.0348584
-2.4845e-07
0.000178284
1.25119e-05
0.00263205
1.76685e-06
1.98005e-06
-3.64257e-05
-2.10675e-08
0.0136898
0.014118
1.66816e-09
-1.35453e-05
1.36432e-05
0.000626948
2.21591e-08
-9.86701e-08
-4.58524e-07
0.0136993
1.43838e-08
-1.29206e-06
-1.44508e-05
-1.36485e-06
3.02535e-08
-5.03238e-06
5.88528e-06
4.57954e-06
0.000811613
-1.72926e-09
-1.58076e-06
-6.59074e-08
-4.42706e-05
-8.21313e-06
-2.84143e-05
-1.5525e-08
-5.81691e-05
-2.04432e-06
-8.88927e-06
-1.90316e-06
-1.73433e-07
-0.00578645
1.10059e-07
0.000318581
-4.15898e-08
-1.11211e-07
-2.20626e-05
-1.07984e-05
1.03991e-07
-2.44659e-06
4.28581e-06
-1.38888e-07
6.66948e-08
-1.27727e-05
2.56662e-05
-0.00063873
-1.66934e-05
-4.09204e-06
-3.56399e-07
-2.6935e-08
4.22449e-08
-2.74974e-05
1.9918e-05
1.40626e-06
-2.86129e-08
1.79429e-08
8.21968e-06
7.56335e-07
0.0113125
-0.00345354
-1.30765e-06
-1.87028e-05
1.30828e-06
0.0167477
1.91026e-08
1.15694e-07
-5.15394e-07
4.53941e-07
7.16681e-07
-8.54578e-07
2.89483e-07
0.00271792
-5.16855e-08
-1.01765e-06
-1.89954e-06
-1.86944e-07
-2.35282e-08
-1.63099e-07
-3.98828e-08
5.4718e-06
-8.04197e-08
3.61979e-06
-1.15862e-05
0.00424768
-1.80666e-05
-1.32476e-07
-1.46025e-05
-5.69485e-07
-2.5102e-07
-2.89827e-08
1.13398e-07
-1.33184e-05
0.00285976
0.00364026
-0.00054422
-1.68389e-07
-1.65804e-07
-6.70588e-07
-6.5735e-08
3.09727e-06
-1.89095e-07
-0.000397743
-1.3863e-05
0.0195015
5.9703e-07
1.02821e-06
4.9679e-05
-1.56179e-06
-0.00125661
-1.24451e-06
0.00142336
-3.45229e-06
-1.44403e-07
0.00181438
-2.70966e-08
-1.30852e-05
4.39158e-07
-1.25491e-05
-2.61308e-05
-4.2804e-07
-6.20056e-08
-2.77825e-07
8.15917e-08
-2.57079e-06
0.000211815
2.39873e-05
-4.96365e-06
-5.79213e-08
-3.36836e-08
-0.0019093
-0.0373223
-1.12493e-08
5.90338e-07
0.00059098
-0.00107722
-1.93906e-05
3.5909e-07
-7.84173e-05
1.55545e-06
-1.07915e-05
1.19275e-07
3.86109e-08
-2.16071e-06
-1.24735e-07
2.24764e-05
2.14432e-07
3.28987e-06
2.00138e-06
1.87708e-06
0.00051667
1.40868e-06
-5.35642e-08
2.08229e-09
-4.7701e-08
1.01093e-07
-1.24579e-08
3.25129e-06
3.06057e-08
-3.31889e-05
0.012563
0.00203305
-1.33621e-07
0.0139358
-4.54799e-06
0.000259022
-7.80303e-08
-5.23406e-05
0.00157866
5.98047e-07
2.33284e-07
-2.91001e-06
-1.90292e-05
5.81677e-06
4.87939e-06
1.08791e-05
-0.0040725
9.41525e-08
8.0828e-07
8.45607e-07
1.16039e-07
6.55166e-08
1.18124e-07
0.00017419
-3.82631e-06
2.30436e-06
-1.52235e-07
-1.68013e-07
1.33639e-06
-0.000323948
-2.17804e-08
-2.90274e-07
-0.00223991
4.84385e-08
-0.0363898
-1.75946e-06
3.41743e-08
0.0188524
4.43842e-08
-9.06673e-06
-6.06933e-05
-2.32507e-08
-2.80678e-09
-2.16668e-08
-1.69074e-05
0.00187938
0.000114991
-6.0325e-05
2.27412e-06
-1.46403e-08
-1.08491e-07
0.000765845
1.17979e-06
7.17805e-08
2.04852e-08
-6.50221e-06
1.53482e-08
-0.000101809
0.0190017
-0.0277767
-6.21414e-07
-0.00251365
-3.58932e-05
-0.00270451
3.06766e-07
-1.37204e-05
2.61291e-09
-0.00169739
-1.012e-07
1.36064e-08
0.000251963
-4.48182e-06
1.30571e-07
-7.84503e-06
3.19774e-08
-1.45258e-05
-2.73372e-07
4.86453e-07
3.87339e-08
-4.98459e-07
1.18894e-06
0.0127348
6.29721e-09
-2.17229e-05
7.93893e-07
-2.36327e-08
1.92514e-08
-1.06647e-07
-5.2033e-08
-0.000103173
-3.33248e-08
0.0129936
-1.39653e-07
-0.000804796
1.34521e-07
-1.55592e-06
-2.16742e-06
1.8832e-07
1.80254e-08
-3.0747e-07
4.86915e-06
4.33754e-06
2.73757e-09
6.63021e-05
7.77664e-06
-3.10489e-05
0.00612664
3.87364e-08
-2.07602e-07
2.8666e-09
8.21666e-07
1.98664e-06
1.55529e-06
0.00858518
2.81944e-08
4.45345e-07
1.79109e-07
0.00140572
0.000458027
-0.000204852
5.93836e-08
-1.50766e-06
3.02967e-08
-2.62161e-05
-7.48665e-09
1.06208e-07
0.00221543
-3.32834e-05
-4.94902e-08
-1.39212e-05
0.00213803
2.81484e-09
-4.12116e-07
0.00035981
-1.38389e-07
4.72273e-08
-4.34674e-06
0.001545
-6.54947e-09
-0.00369797
-7.29393e-07
1.22865e-07
2.24605e-06
9.43594e-09
0.0288467
5.86115e-07
-1.78069e-08
-0.00176613
-1.1784e-07
1.78605e-06
7.4055e-07
4.32325e-08
-2.36997e-08
1.19283e-06
6.25913e-06
-1.47512e-05
-5.82406e-08
-0.0126219
-8.25738e-09
-1.05716e-05
2.25032e-05
1.47289e-06
-0.00496503
-4.82816e-08
0.00026551
-1.68023e-08
0.00176251
-2.6948e-08
0.0108895
-0.000157488
-0.0025671
-8.23016e-07
0.0139137
-0.000222119
-0.0341548
4.18421e-07
-1.53332e-06
-0.000117166
-1.12414e-05
0.000615796
-1.57526e-06
-7.16977e-06
-3.47734e-05
6.05859e-09
-0.00218158
-1.07898e-07
-1.06442e-05
0.000572508
-1.21029e-08
2.33645e-08
2.75132e-07
2.43531e-08
-2.54154e-08
-0.000183711
1.72835e-08
-2.70921e-05
-5.81244e-08
0.0196966
-0.00414658
-6.83183e-08
-1.50032e-07
8.92388e-07
1.47361e-06
-9.06132e-05
7.95862e-06
0.00169346
7.46386e-06
-0.00612388
-8.91631e-08
9.32919e-07
6.24655e-09
1.11786e-07
-2.15853e-08
-0.0163732
7.18499e-08
-7.40914e-08
-2.84621e-08
0.00450644
-7.67049e-07
-6.24744e-07
0.000379162
-2.8615e-06
-4.00199e-08
-2.40307e-05
3.54472e-08
1.768e-08
6.83458e-08
-2.41521e-05
-1.0491e-07
0.0123005
7.89888e-09
-5.52011e-08
3.36753e-05
-4.61096e-08
3.25026e-08
-0.000745344
-2.59575e-05
-1.01089e-05
0.000431786
4.74431e-07
-8.73159e-08
-4.97528e-07
2.10267e-07
-5.2101e-05
0.00174683
0.000489222
-3.70637e-08
3.39985e-05
0.0340981
1.16537e-08
4.24481e-08
-9.03337e-07
-1.34543e-05
1.08128e-05
8.72226e-08
-6.26522e-07
7.38808e-09
2.37275e-06
-4.37123e-08
-2.12255e-05
2.93557e-07
-2.7292e-05
1.84577e-08
-7.96286e-08
0.00206748
-7.92477e-06
9.50084e-07
-0.00295105
8.73462e-08
-3.97187e-05
5.99638e-08
7.96232e-08
0.00412149
6.7637e-07
-7.74317e-08
-0.00260118
6.47995e-08
-4.06821e-07
3.21143e-08
1.58531e-06
8.55272e-08
-2.40126e-05
1.98061e-07
1.16486e-06
-1.73682e-05
8.44006e-07
3.59268e-08
-1.91836e-07
-1.12011e-07
3.62005e-08
4.12265e-07
-0.00291405
2.69821e-06
-9.50396e-09
-1.26782e-07
0.00222133
-1.03696e-07
-1.65201e-05
3.20672e-07
1.83789e-06
-4.58534e-07
6.21535e-08
-7.27094e-08
-2.28814e-05
-8.35998e-05
0.00194323
0.000534688
-1.41415e-05
-5.76198e-07
-0.000234399
-1.65532e-07
-3.7691e-06
3.4511e-09
-6.33897e-08
-1.4972e-08
1.71683e-07
-0.000246634
-5.91291e-09
-3.8266e-05
-2.69136e-07
3.11325e-08
-6.338e-07
-2.31332e-08
0.00405249
2.21319e-08
-0.00192773
2.95499e-07
-3.20578e-06
4.95593e-06
-2.21671e-06
-0.00355276
1.40294e-07
-0.00373255
5.37923e-07
-1.6866e-07
-2.05568e-05
-6.8001e-08
0.000777483
-1.20041e-08
1.62586e-06
9.62879e-08
1.51157e-07
1.00749e-07
0.00297825
-7.10814e-08
-9.20398e-08
2.45967e-07
1.0147e-05
-0.000663038
1.65956e-07
-5.87634e-06
7.19448e-08
6.54997e-08
-3.62906e-07
-1.85982e-07
2.54224e-08
-1.99667e-08
-8.23518e-08
5.47073e-08
-3.71713e-05
-8.37347e-07
9.3098e-08
7.72736e-08
-6.5392e-07
0.0129366
-0.00255081
2.11452e-05
2.64908e-07
0.000423555
2.91334e-06
-2.30748e-05
-2.27255e-07
-6.99472e-06
0.0136985
-7.19539e-08
-1.29914e-08
3.96126e-08
-3.24197e-06
0.000185543
1.12e-08
-3.35751e-08
1.44431e-06
1.51353e-07
-0.00103006
0.0090233
-2.56798e-09
-4.72195e-05
-7.40414e-08
0.0137439
0.00529822
2.5911e-08
7.8697e-07
6.46555e-06
-1.01575e-07
-2.4866e-06
-0.0165266
-2.87666e-05
3.14287e-07
0.000374246
-4.86596e-06
-4.87763e-07
-2.53056e-05
1.98472e-08
4.69864e-06
3.30333e-08
6.84273e-07
-0.00686899
8.78186e-07
3.39402e-07
-1.28512e-05
0.00131571
4.84777e-09
0.00204397
-1.80929e-07
-2.02547e-05
1.80739e-08
-4.55223e-07
-2.70875e-06
9.30201e-07
-2.76479e-05
1.01352e-06
8.84065e-07
-0.0011996
3.32094e-07
1.95209e-06
2.77287e-06
5.97517e-07
4.05598e-07
0.02842
-3.40257e-08
-3.34393e-08
0.00439499
-1.81124e-09
-0.0303808
-1.12154e-07
-2.21544e-05
2.05816e-07
-2.52207e-08
0.000476069
3.38946e-07
-1.65175e-05
-1.58768e-06
5.70922e-08
0.00794213
-7.68148e-05
2.35534e-07
-2.15714e-08
-1.25434e-05
-2.94325e-05
1.24017e-06
0.0026528
-1.78896e-06
-9.64185e-07
-0.00059132
-0.00826978
-2.89492e-07
-0.00597362
0.000535916
-2.87618e-08
-1.05116e-07
-3.62876e-05
-9.32058e-06
8.8509e-07
-1.20984e-05
-0.000456576
-0.000600043
4.77625e-07
5.88165e-07
-1.54895e-07
-1.12692e-07
-1.23808e-08
-5.31692e-05
0.000883126
1.92408e-07
0.013736
5.61142e-08
3.82566e-09
-0.0008553
0.00161425
4.56442e-08
-5.4208e-08
-2.04657e-05
0.00263795
8.82185e-07
2.17613e-07
-7.46897e-08
-0.00080383
0.00682587
2.02787e-06
1.02056e-07
0.000436728
9.57352e-07
0.00208974
2.41555e-08
-1.62173e-07
-7.27984e-07
-4.91411e-08
3.61603e-07
1.00745e-07
-4.34793e-07
0.000350259
0.0063191
-6.73274e-09
0.00128948
-8.41993e-06
0.00765311
-4.02536e-06
0.0334267
-8.20678e-06
3.81027e-07
-1.95767e-08
-6.79667e-08
-3.58562e-09
-1.09553e-06
-9.88808e-07
3.64423e-07
-0.000976439
-1.91273e-05
0.0134501
9.05768e-06
0.00190758
2.99813e-07
-2.96726e-06
-0.000285175
-5.13275e-06
-1.27414e-06
-2.39814e-06
-1.54579e-07
0.022239
-2.38106e-07
-1.83378e-05
2.87514e-05
1.72475e-07
0.00233137
0.0130318
-0.0107938
3.32607e-06
-0.0352273
-0.00332007
0.000565734
-1.94253e-07
0.000128295
-0.00525739
0.00259227
-0.00163991
5.03244e-08
0.000705708
-6.58959e-08
1.13481e-06
-3.19802e-05
-4.92981e-05
0.000981662
8.56931e-05
-5.17981e-06
0.000428292
0.0150575
0.0061466
-2.64723e-08
-1.77114e-07
1.16102e-07
-0.00258349
-1.38584e-05
-0.0102561
2.73838e-06
0.000244615
0.00605554
-0.0193204
-1.31201e-05
0.0350508
1.85687e-06
-9.19124e-07
3.23453e-06
0.00132445
-4.00936e-07
-7.07458e-07
-2.34256e-07
0.00831914
2.47141e-06
4.96871e-06
-4.89325e-07
-0.0123477
-0.00528692
-3.33521e-05
-4.8019e-05
0.00285794
2.05357e-07
1.17198e-06
-8.17201e-06
-4.90029e-05
-0.0307747
-0.000333708
1.11451e-07
-2.338e-05
2.20913e-06
-2.68673e-07
0.000420439
9.66578e-09
-1.21245e-07
-1.75899e-05
-0.000787833
-1.6862e-08
-0.0010867
0.000305692
-1.47874e-05
2.59409e-06
-0.00274411
0.013776
1.90791e-05
-0.0031321
8.10283e-07
-4.18699e-06
-1.61614e-05
-7.44797e-06
3.01967e-06
-4.21737e-06
2.86994e-05
-6.75028e-06
7.41437e-07
5.42346e-05
-4.78319e-06
0.000583928
9.71586e-08
-1.79254e-06
0.00262754
-0.000171203
0.000415581
-3.34276e-07
0.0128123
7.96995e-08
0.00123209
4.37636e-07
-4.73174e-08
0.0223505
0.00226082
1.05097e-06
1.03973e-06
9.32122e-08
0.0208411
3.24417e-05
7.97755e-07
8.54292e-06
-4.8094e-09
-0.000599186
-0.0291841
3.18989e-06
3.73203e-08
0.0353144
0.00188812
0.0170956
-3.29828e-05
3.75128e-07
2.42117e-06
-7.99421e-08
7.73923e-07
-9.32451e-08
-0.00620807
-2.5686e-05
-5.0793e-08
-3.15249e-08
7.32625e-07
2.56685e-06
-0.00101418
7.68254e-06
2.04294e-05
5.39023e-08
-2.50615e-06
-6.042e-08
-5.83069e-05
-2.21138e-08
3.89149e-07
-1.04059e-05
3.51181e-05
-2.62652e-08
1.81217e-06
0.0139446
0.0136013
8.18922e-06
-2.37732e-09
-0.0305416
0.0142781
1.13421e-07
-0.000967432
-5.86905e-07
-5.60593e-07
0.00796518
3.56053e-06
-0.00516665
-3.13641e-08
-2.05262e-05
1.89001e-06
-0.000411596
-1.03968e-07
-1.0294e-07
-6.59484e-07
3.69782e-06
-7.28552e-06
2.09418e-06
6.66766e-08
-1.40295e-07
5.02655e-07
-1.49866e-05
-1.21796e-08
0.00350338
-9.15031e-09
3.96459e-05
1.20569e-06
-4.47907e-07
-7.32618e-07
3.06435e-06
6.81402e-09
6.88204e-07
0.00016653
-1.75216e-05
0.00245692
-6.58853e-05
3.75123e-08
0.0139505
-8.01975e-07
0.0140065
6.09614e-06
-1.5692e-07
0.00955907
3.21843e-08
0.00231146
3.55866e-06
2.18382e-08
1.5506e-06
-4.80858e-08
-1.36839e-07
-1.15516e-07
-4.88776e-05
-5.44058e-08
-1.68025e-06
-0.00604833
-1.26643e-07
-0.00286559
1.35617e-07
9.32547e-06
-4.69676e-08
-1.13495e-06
-2.38021e-05
-5.00967e-05
5.47138e-07
-7.4549e-07
1.98619e-08
-1.85526e-07
-5.5134e-08
-4.73851e-08
0.012231
0.00159501
2.95154e-06
-2.14926e-07
5.40689e-06
9.80209e-05
-1.49115e-05
0.0140576
-1.32053e-07
-3.3242e-07
-0.00074723
0.000180953
-0.000954413
-1.09252e-05
0.00135626
0.00934201
-2.68248e-06
-2.72704e-07
-0.000148576
-0.000129248
6.17586e-07
-6.56024e-07
-1.7097e-07
4.77468e-08
6.90067e-07
-9.74184e-06
-0.00044069
-1.24981e-08
-9.86285e-10
-5.0452e-05
1.08838e-06
0.000936851
-0.000777217
-1.386e-07
-2.02806e-05
0.00119526
1.78845e-06
-0.00425772
-1.33989e-07
-6.24708e-08
1.00923e-06
-0.00033829
5.06468e-06
-1.66486e-05
7.23755e-06
0.000786893
3.91156e-05
6.49438e-05
0.0129722
-6.15604e-06
8.74771e-07
-9.74869e-06
2.83611e-07
-2.25481e-08
-7.70984e-08
-0.00522371
2.78323e-08
-2.26202e-07
0.0229486
1.99005e-08
-1.2485e-06
0.00191085
1.20516e-08
-9.88817e-08
0.0107041
-0.000119235
0.0138649
0.000625143
-2.78917e-07
8.12757e-07
-4.21963e-05
0.00949942
-1.85547e-06
-6.53593e-05
-3.98884e-05
-0.00281222
0.005936
-3.98436e-05
-6.47743e-08
-3.74967e-05
-7.19869e-07
0.000816682
-1.49543e-05
-6.09214e-07
-0.00177363
-9.45913e-07
-0.000213855
-1.06176e-07
-1.90111e-05
0.000623352
6.0767e-07
-3.16432e-06
-2.43743e-07
-7.39961e-06
2.3935e-08
-0.00598359
0.00547417
-0.00126052
0.00655663
9.4804e-07
8.84175e-07
-5.29677e-08
-9.99193e-07
-1.44642e-08
-2.02787e-07
2.02419e-08
-0.000186772
-4.62319e-08
-6.5533e-08
-1.87048e-07
1.44103e-06
9.20243e-08
-0.00052689
-0.000588066
-4.00452e-08
6.97288e-08
-5.34039e-05
-1.68879e-06
-2.07505e-08
0.019175
-2.84882e-07
-7.19887e-09
1.88899e-07
-1.78374e-06
0.000120577
-1.30863e-05
-0.00191003
0.018975
6.31578e-06
-0.00411871
0.000793344
0.00310047
1.43163e-07
0.00182818
3.00221e-09
-6.50572e-06
7.76274e-06
-0.000321196
3.6065e-08
-2.11003e-07
-2.63832e-05
-0.0035118
-0.00322209
3.16247e-06
-6.83096e-07
-1.88107e-09
-1.12894e-07
0.0113541
0.000192112
-2.48066e-07
9.57759e-08
-1.35164e-05
-3.39752e-09
-0.00436036
-0.00548253
-4.84638e-05
-2.38218e-06
-1.26472e-05
-2.11359e-05
-1.38419e-07
6.33481e-06
-6.06671e-07
-1.61621e-07
-1.34142e-07
-0.00381149
4.30051e-05
8.90882e-07
0.000132304
-5.83115e-07
-1.04066e-07
-8.53993e-07
-3.14151e-08
-5.81937e-07
0.00285445
-7.68191e-08
1.35494e-05
-5.61747e-08
-4.90162e-05
-3.49458e-05
-4.31085e-07
0.000477627
0.0141583
-3.22929e-05
-0.000687738
1.82742e-06
0.000736845
3.80791e-06
-9.62336e-05
-0.00844256
-0.0763937
-1.74945e-07
3.78656e-08
4.48464e-06
-8.00073e-08
-0.00677302
-2.87011e-05
-1.14771e-07
2.71634e-08
-3.49892e-06
-0.000287046
-4.82485e-05
1.06191e-08
1.18043e-06
0.000105648
4.02117e-07
0.000753869
-0.0108699
0.0020922
-1.50131e-08
1.91863e-06
-6.59653e-07
1.56492e-05
-0.000173464
1.42828e-08
4.44614e-07
2.38781e-05
1.34426e-05
4.81956e-08
0.00317655
-0.00227233
-9.967e-07
-9.30057e-06
7.61741e-07
1.06267e-07
-9.83798e-06
-1.7816e-08
-0.00830384
-0.00169427
2.57382e-07
0.0138162
1.73984e-08
0.000617703
7.82568e-08
-3.83255e-06
-2.69468e-07
0.0128951
-1.65467e-06
0.0348963
-8.83533e-06
1.59434e-08
1.97217e-07
0.000121497
-0.000575123
0.000112717
0.000430325
1.79173e-09
3.28212e-08
-3.24529e-07
0.000893119
-8.82706e-07
7.72602e-07
-9.64675e-08
-0.000259368
4.56703e-08
1.16648e-06
4.22289e-07
-0.00136442
-2.16209e-07
-0.00123841
2.35593e-06
-2.01742e-06
3.71259e-08
0.000109478
9.92497e-07
4.25593e-06
5.40641e-07
1.39079e-08
5.15975e-09
4.92926e-07
-3.7059e-08
-1.10333e-07
-0.000971615
2.58405e-08
-8.75538e-06
0.00129359
1.02832e-06
2.04397e-09
6.98768e-08
6.15381e-08
-0.000313721
-1.16515e-07
-2.04401e-09
9.55255e-05
-2.87171e-06
3.78929e-07
-4.37743e-08
1.14051e-06
-4.89724e-09
-5.31777e-07
0.000539263
-3.99354e-06
0.00023184
-1.41694e-05
-1.87579e-07
-1.85607e-07
-1.28496e-07
-1.78135e-05
3.12e-07
1.08364e-07
0.014554
-0.00260299
-8.79983e-07
-1.10642e-07
7.84967e-05
8.04037e-08
-0.000450299
9.9959e-06
-2.09641e-06
2.4416e-05
7.90869e-05
3.22028e-07
-5.12341e-07
-4.13198e-08
5.96661e-07
-3.59554e-08
-2.87686e-08
0.0138586
2.51625e-09
4.494e-07
0.0113561
2.13109e-06
0.00971117
2.23342e-06
2.87314e-07
0.0152625
1.41965e-05
-2.86453e-07
0.00190795
0.0120745
-0.000133646
-4.15078e-08
-0.00264865
-8.57401e-08
-0.000177732
0.0138246
-2.65822e-08
-0.000179741
-2.38698e-06
-2.57999e-06
2.07803e-07
-0.000271736
-1.31738e-07
-3.12123e-08
-3.70986e-06
0.0135962
-3.09673e-07
3.23444e-06
-2.14426e-08
-5.91794e-08
-0.000119877
3.27057e-07
-0.000300322
-0.0153068
0.0120307
9.68503e-08
8.99075e-07
1.4472e-07
-1.12173e-07
-9.30265e-07
0.000158613
-2.03903e-05
-8.41913e-07
0.000489214
-4.0703e-05
6.11211e-08
-1.62227e-07
2.23683e-06
0.0131456
7.30987e-08
-0.00152357
-4.93549e-05
-2.997e-05
-1.1101e-06
-5.26173e-07
4.22098e-05
-9.80295e-07
0.0131543
0.000327146
4.69927e-06
-0.00187762
7.25413e-08
0.00194293
-3.21361e-09
-1.16501e-07
5.57998e-08
-2.70595e-07
-9.10084e-08
-7.72135e-08
-8.51835e-09
-1.49604e-07
-5.58952e-06
-2.53015e-07
-3.11935e-06
7.70029e-08
3.83462e-05
-3.91537e-08
-8.33113e-09
-9.78457e-07
-6.4716e-06
-1.27074e-07
-1.43843e-07
-9.00189e-07
2.00057e-05
0.00762541
6.57254e-05
4.2669e-06
-2.4611e-08
-8.14878e-08
1.38972e-07
-9.06987e-08
-2.06137e-05
0.000120237
-0.0232673
6.09431e-05
-1.53029e-07
0.000547898
-0.00715203
-3.10552e-05
-1.06614e-07
-2.25627e-05
0.000416821
-0.000104447
-1.42512e-06
4.16103e-08
-2.95484e-08
-4.10203e-08
-2.31728e-05
2.60914e-05
-8.65268e-07
-0.000370391
3.93221e-06
-1.72588e-06
4.98422e-07
-1.031e-08
6.54359e-08
-1.62961e-06
-1.06265e-05
-1.99127e-05
-2.866e-07
-5.3276e-06
-0.0260048
-0.0113679
-1.66165e-06
-3.87323e-08
2.86413e-06
2.01786e-08
-1.7356e-07
-5.27692e-08
-1.13057e-06
-1.68481e-07
3.90957e-08
5.59367e-07
-1.38246e-08
0.00930892
-5.2508e-07
3.85254e-07
0.0026802
-2.81586e-05
3.43946e-05
3.03582e-08
-2.67853e-06
-8.6893e-08
9.05752e-05
-9.30126e-07
-3.73496e-05
-5.0253e-08
-1.94495e-06
4.04051e-07
-6.35192e-08
-2.48032e-06
0.00166071
0.0137448
-2.96308e-06
5.01524e-06
6.36503e-08
8.06777e-07
0.00944447
-1.59864e-07
0.00010631
-0.00300141
2.54419e-05
-3.65196e-08
-6.96153e-08
8.48552e-08
0.0289111
-0.00424178
-9.24926e-05
0.000133038
-2.76072e-08
-6.34429e-05
-0.0227389
-1.09396e-06
2.44774e-08
-0.000563488
-2.2669e-06
0.00325362
3.79405e-05
0.000825387
-1.24606e-07
0.0016539
2.62472e-08
3.81512e-07
-1.38265e-07
-5.70099e-05
-0.00146491
0.000535201
2.19265e-05
1.48974e-08
-2.54409e-07
2.65501e-07
-0.000487877
0.0123968
-5.84405e-08
0.00225306
4.05879e-07
-4.52899e-06
0.0161424
1.83987e-08
2.29565e-08
8.19098e-08
9.57774e-07
-5.66651e-08
1.66288e-06
1.01388e-06
0.00157101
3.61326e-06
0.0141504
-2.80926e-08
-3.35928e-05
-8.19355e-08
-3.80683e-08
4.61695e-08
2.51139e-07
8.43253e-06
-3.23316e-08
-0.000145039
-0.000222128
-6.61687e-06
-1.68982e-07
-1.97484e-08
-2.87998e-05
4.36019e-07
2.36889e-05
0.00964326
-8.78591e-08
3.40908e-08
-4.76005e-07
0.00104596
1.0304e-05
-2.09187e-07
-2.08085e-06
-6.40278e-08
0.0145663
-0.011596
-0.000117284
-7.61655e-05
0.000268445
-2.54613e-06
-0.0202014
-9.18211e-08
-0.00863813
-3.53026e-08
3.89842e-06
3.74493e-07
-3.28375e-05
-1.35537e-07
1.15882e-06
3.00237e-06
7.95478e-08
7.74216e-08
3.12057e-08
-1.40681e-05
-0.000677538
-4.74203e-08
4.06076e-07
-9.33132e-08
-1.72047e-07
-2.0335e-05
-0.000808365
-6.22473e-09
4.01836e-06
9.19229e-06
0.00147338
-6.14726e-06
0.00098
-0.00187448
-2.31379e-05
6.78521e-07
-4.55002e-08
4.15679e-08
-3.24295e-05
-7.02747e-06
-1.46119e-06
-2.00229e-07
-4.27537e-09
1.75811e-07
1.23003e-06
1.65856e-06
-0.000912967
0.0141057
4.5534e-07
5.20031e-07
1.67741e-08
0.0142237
1.86649e-06
1.30261e-06
1.88148e-08
-1.87323e-08
-0.00516437
-2.65687e-06
-4.72887e-06
-0.000910068
-2.97713e-06
-0.000156724
-1.7245e-06
-3.23598e-05
4.2759e-07
2.20054e-08
7.57414e-07
0.0141538
-4.86183e-06
-6.04886e-06
-2.1571e-05
0.00141786
-2.95043e-06
-2.16438e-07
0.000330719
5.22422e-05
-3.90707e-08
-7.88906e-05
9.39722e-07
-6.06986e-07
9.47729e-07
3.55933e-07
3.07607e-07
-3.513e-06
-4.37948e-05
-0.00558723
0.00247626
-1.21761e-08
1.38469e-07
-3.8849e-08
-1.19343e-07
-2.84596e-06
5.5656e-05
3.93554e-06
-1.03861e-05
1.0206e-06
7.98417e-07
1.39547e-06
1.57465e-06
2.51507e-06
2.09397e-07
-3.33881e-06
8.49391e-08
-3.72579e-08
1.56722e-06
-0.000214593
0.0018147
-5.39061e-07
0.0115308
-3.60277e-07
-0.00122798
-3.59053e-07
-3.33472e-08
2.76234e-07
2.12769e-06
0.00100999
-2.80179e-06
6.55542e-08
-1.09545e-08
-3.03923e-08
-5.94917e-08
0.00263017
0.000936266
1.39214e-07
0.00156227
-0.0047264
-4.30877e-07
2.46887e-07
8.0434e-08
3.06315e-06
-0.00331568
-2.80086e-06
-1.61515e-08
-0.00828004
2.03271e-05
-5.32669e-07
-3.13077e-06
-3.18745e-08
0.0326175
0.00070061
1.38824e-06
-1.09704e-05
-9.71731e-08
3.24278e-06
-1.70196e-07
-2.56604e-05
-8.27254e-06
0.00170729
-9.29871e-06
0.00200639
5.19788e-07
-1.59032e-07
-3.74753e-07
6.01408e-06
5.06521e-06
-1.6448e-05
2.37222e-08
3.64374e-06
-4.43544e-07
0.0204484
1.45128e-07
1.93023e-06
-3.13661e-07
-2.54463e-06
9.12911e-07
0.00130053
-1.22473e-06
-2.14413e-06
9.27997e-08
5.72356e-08
2.33798e-08
0.00345684
6.9322e-06
1.12598e-06
-9.30192e-06