/*--------------------------------*- C++ -*----------------------------------*\
| =========                 |                                                 |
| \\      /  F ield         | OpenFOAM: The Open Source CFD Toolbox           |
|  \\    /   O peration     | Version:  v2012                                 |
|   \\  /    A nd           | Website:  www.openfoam.com                      |
|    \\/     M anipulation  |                                                 |
\*---------------------------------------------------------------------------*/
FoamFile
{
    version     2.0;
    format      ascii;
    class       surfaceScalarField;
    location    "450";
    object      phi;
}
// * * * * * * * * * * * * * * * * * * * * * * * * * * * * * * * * * * * * * //

dimensions      [0 3 -1 0 0 0 0];
oriented        oriented;


internalField   nonuniform List<scalar> 
27087
(
0.52033
-0.134444
-0.385886
-0.261952
0.362036
-0.100083
0.018995
-0.0194593
0.00046436
-0.0465365
-0.137561
0.184097
-0.40362
0.0661795
0.337441
-0.146091
0.06692
0.0791714
0.290356
0.0647234
-0.355079
-0.476905
0.477386
-0.000481046
0.248147
-0.52897
0.280823
-0.0918585
0.382214
0.454886
-0.33638
-0.118506
-0.185762
0.37355
-0.187789
0.280816
-0.479781
0.198966
-0.363499
0.0626084
0.300891
0.286335
-0.167574
-0.118762
0.0618636
-0.162246
0.100382
0.147552
0.0452288
-0.192781
-0.218179
0.1335
0.0846792
0.500487
-0.0847659
-0.415721
0.265957
-0.120833
-0.145124
-0.0364919
-0.0823945
0.118886
-0.298776
0.511453
-0.230638
0.363155
-0.268826
-0.094329
0.383718
0.136612
0.415478
-0.225298
-0.190179
0.346431
-0.228561
-0.11787
-0.441115
0.0950211
0.346094
-0.524253
0.242911
0.281342
-0.311649
0.0496968
0.214194
0.201284
0.0668432
0.199114
0.312904
-0.520552
0.207649
0.167938
-0.327903
0.159965
0.141208
-0.187745
-0.0953655
-0.38154
-0.136933
0.100441
0.0207842
0.156335
0.331627
-0.291563
-0.0400645
0.326499
0.110094
-0.436592
0.242336
-0.338167
0.0958308
-0.316339
0.492772
-0.176434
-0.00724412
0.0262391
0.102082
0.261073
0.294713
-0.0523772
-0.0362116
0.221827
-0.185615
0.110606
-0.0084184
-0.102187
0.452744
-0.13984
0.133222
0.153114
-0.0794924
-0.0665989
-0.0515471
0.199099
0.000740508
-0.168314
-0.412084
0.551159
-0.139075
0.127104
0.336568
-0.463672
0.311842
0.123216
-0.435058
-0.251917
0.500064
0.169143
-0.107279
-0.0274796
0.138085
0.177325
0.148923
-0.326248
-0.206773
0.207513
-0.00540394
0.140789
-0.135385
-0.0537535
-0.127462
0.181215
0.391643
-0.086912
-0.304731
0.259311
-0.35117
0.440562
-0.0773208
-0.363241
0.502244
-0.135879
-0.366365
-0.0243934
0.356021
-0.218186
0.181974
0.448087
-0.320943
-0.127144
0.347644
-0.170319
0.382179
-0.408857
0.0266783
-0.164477
-0.320775
-0.489431
0.306217
0.183214
-0.471224
0.154885
-0.136545
0.131141
0.323824
0.168949
0.207598
-0.32251
0.114913
-0.186431
-0.144388
0.330819
0.120597
0.271046
-0.464468
0.332913
0.131555
0.176011
-0.0850532
-0.0909578
-0.124318
0.181518
-0.0572003
0.136005
-0.034065
-0.10194
0.473651
-0.0998348
-0.373816
0.244252
0.259536
-0.503789
-0.226633
0.245947
-0.0193146
0.0512658
0.500487
-0.167685
-0.234981
0.402666
-0.0125785
-0.025203
0.0377815
0.189101
-0.213104
0.0240026
0.238768
-0.387103
0.148335
-0.0245256
-0.112019
-0.0871094
-0.0534048
0.140514
0.346603
0.0939589
0.0842616
0.389389
0.48154
-0.350688
-0.130851
0.414751
-0.175982
0.327341
0.154198
0.153313
0.0570885
-0.210401
-0.0669405
-0.0339957
0.100936
0.109185
-0.162939
0.371118
-0.501461
0.130343
-0.308295
-0.179457
0.487751
0.344709
0.0374697
-0.0986685
-0.342447
-0.141241
-0.149031
0.290271
0.352937
-0.290329
-0.0790656
-0.139113
-0.150478
-0.231861
0.382339
-0.136133
-0.287411
0.423544
0.315736
-0.108139
-0.150672
0.126146
-0.0411877
0.154357
-0.113169
0.189073
-0.497367
0.111216
-0.272189
0.160973
-0.0818512
0.235164
-0.418535
-0.0708968
0.260724
-0.00842429
-0.2523
0.365883
0.136362
0.560417
-0.316164
0.298851
-0.473962
0.175111
0.455502
-0.471658
0.0161559
0.184655
-0.0802561
-0.104399
0.442216
-0.118392
0.363104
-0.513419
0.150315
0.298228
-0.197521
-0.100706
-0.0268064
0.0142279
-0.228654
0.0978772
0.130777
-0.359991
0.224142
0.135848
0.253126
-0.393289
0.140163
0.182833
-0.0416253
0.329699
0.117181
-0.44688
-0.294791
0.447984
-0.153193
-0.0736309
-0.144555
0.20015
-0.530171
0.330021
0.0319833
-0.169544
-0.218699
0.119172
0.099527
0.0463369
-0.149747
0.10341
0.0940807
-0.0271607
-0.324103
0.000473176
0.027481
-0.0279542
0.0101441
-0.0173882
-0.0178225
0.153827
-0.508574
0.365062
0.143513
-0.084861
0.23638
-0.151519
0.169629
0.128599
-0.175862
0.144181
0.0316816
0.419009
-0.312704
-0.106305
0.135641
-0.472021
0.133877
0.0323274
-0.166204
-0.112092
0.441791
0.0474023
-0.114343
-0.123518
-0.0796733
0.203191
-0.110974
0.200116
-0.136124
-0.0639924
-0.0119233
0.0220674
0.103493
-0.173013
0.0695199
0.339484
-0.0863581
-0.0363811
0.0368543
-0.215801
0.356283
-0.140482
0.0268859
-0.154348
-0.110143
-0.000830704
0.0311148
-0.257748
-0.385321
0.234843
-0.29809
0.448988
-0.150898
0.221713
-0.152507
-0.0692058
0.178792
-0.158008
-0.313119
0.433712
-0.120593
0.0929439
0.107173
-0.0569169
-0.24587
0.302787
0.0346207
-0.134846
0.100225
-0.108594
-0.12006
-0.331296
-0.139928
-0.337426
0.524122
-0.186696
-0.476831
0.347786
0.129045
-0.325548
-0.055737
0.381285
-0.0397809
0.236988
-0.197207
-0.281078
-0.128057
0.409135
-0.128062
-0.348768
-0.318175
-0.1273
0.445475
0.0248109
0.235913
0.297152
-0.127523
-0.390081
0.0645325
0.554076
-0.398292
-0.155784
0.166132
-0.437391
0.271259
0.522149
-0.252788
-0.269361
-0.0905964
0.0481463
0.185092
-0.233238
-0.133983
-0.051942
0.185925
-0.231318
0.157687
-0.233988
0.0229842
0.211004
0.531829
-0.203194
-0.328635
0.497584
-0.186471
-0.311114
-0.292628
0.235711
0.362113
-0.509801
0.147688
0.132053
0.0896597
-0.259931
0.17507
0.134005
0.163146
0.104204
0.338012
-0.272249
-0.169043
0.441292
-0.100514
0.382247
-0.281732
0.352678
-0.28213
-0.070548
-0.367402
0.533747
-0.166345
0.196599
-0.292155
-0.101135
-0.198267
0.246413
-0.145337
-0.383633
0.232483
0.0455177
-0.278
0.352781
-0.502796
0.150015
-0.511293
0.357829
0.153464
0.501253
-0.376353
-0.124901
0.125003
-0.427344
0.302341
-0.282358
-0.111691
0.394049
0.202113
0.150566
0.0694984
-0.158923
0.0894244
0.200188
0.115548
0.0854278
-0.398546
-0.142759
-0.241827
0.384586
0.108533
0.0674783
-0.20958
0.0860619
-0.382193
-0.334101
0.504008
-0.169907
-0.103506
0.138126
0.477473
-0.336491
-0.140982
-0.416883
0.316369
-0.464831
0.199843
0.264988
0.466565
-0.335388
-0.131177
0.0726308
-0.218921
0.14629
-0.174674
0.0503562
0.330468
-0.386205
-0.33137
-0.179923
-0.502955
0.165529
-0.29415
0.466826
-0.172675
0.435381
-0.377883
-0.0574973
-0.460534
0.364156
0.0712243
-0.0399322
-0.115481
0.155413
0.0128875
0.21032
-0.223208
-0.332196
0.453884
-0.121688
0.00836431
0.020074
-0.0284383
-0.53634
0.118852
0.417488
0.318948
0.147618
0.151578
-0.453123
0.301545
-0.114589
0.418305
-0.399197
-0.0191083
-0.106981
0.20183
-0.0948492
-0.220223
0.23311
-0.453035
0.0409512
-0.533589
0.166188
0.0358453
-0.148508
-0.0627027
0.211211
-0.175565
0.0906441
0.0849205
-0.0532865
0.15678
0.0488501
0.401096
-0.0706279
-0.340505
0.167212
0.173293
-0.0799157
0.149414
0.17358
0.358249
0.149234
-0.447324
0.252243
-0.395002
0.134696
-0.433852
0.299155
-0.0353868
0.0152944
0.0200924
-0.0106475
0.401781
-0.391133
-0.375299
0.159569
0.21573
-0.156002
0.116069
-0.289753
0.434048
-0.144295
0.11589
-0.152623
-0.0162652
-0.0191217
0.00737607
-0.389866
0.38249
0.495866
-0.13171
0.190943
-0.0570665
0.0483394
-0.158804
0.110464
-0.0507942
0.121421
-0.0706272
0.459544
-0.239843
-0.2197
0.0718411
-0.163459
0.0916178
-0.261488
-0.113811
0.030235
0.352012
0.085676
-0.13647
0.164807
-0.351238
-0.0201847
0.129009
-0.234137
0.299941
-0.0658037
-0.344365
0.508754
-0.164389
-0.401444
-0.303737
-0.125493
0.42923
-0.521945
0.34433
0.177615
0.327458
-0.326564
-0.000894233
-0.00469111
-0.0335005
0.0381916
0.0960331
0.0682331
-0.164266
0.0185594
0.00668112
-0.0252405
0.0808663
-0.17886
-0.351311
0.314602
0.136793
-0.451395
0.329963
0.123921
0.0598805
-0.485312
0.425432
0.36098
-0.330745
-0.500786
0.169416
-0.184497
0.455639
-0.271142
-0.361664
-0.0568706
-0.13769
0.452292
0.122988
-0.157053
-0.0705003
-0.105064
-0.427195
0.133045
-0.528555
0.18419
0.352774
0.0500513
-0.402825
-0.162891
-0.0991679
0.262059
0.269624
-0.18214
-0.0874842
0.50448
-0.368565
-0.135916
0.329085
0.142244
-0.471329
0.070262
0.38524
0.222651
-0.119514
-0.103138
0.223843
-0.391528
0.426816
-0.114974
-0.45716
0.317611
0.139549
0.0266249
0.0947965
-0.363387
0.147586
0.136122
-0.440371
0.304248
-0.294688
0.378949
-0.150476
0.487836
-0.33736
-0.259549
0.401601
-0.142052
0.249326
-0.118374
-0.130953
0.216716
-0.0759277
0.154197
0.114057
-0.123125
0.150011
0.140352
-0.326114
0.159461
0.153792
0.398933
-0.0461589
-0.269972
-0.25058
-0.056121
0.180514
-0.124393
0.11774
-0.0911147
0.246573
-0.0786344
0.0254908
-0.173999
0.101361
0.115355
-0.0884988
0.459617
-0.203386
-0.112195
0.315581
0.236043
-0.357589
0.121545
-0.303851
0.430955
-0.00821376
0.134626
-0.126412
-0.0745893
0.170622
0.149135
0.197296
-0.140914
0.1327
-0.409492
0.114804
0.170176
0.0994488
0.00579359
-0.0570098
0.0512163
-0.303774
-0.119073
0.422847
-0.339757
0.130302
0.209455
0.125841
0.387767
-0.513607
0.306883
-0.411429
0.104546
-0.13918
0.223877
-0.0846976
-0.266467
0.386777
-0.12031
-0.310165
0.452027
-0.141862
0.107965
-0.2569
0.148935
0.478621
0.0142917
0.164501
0.0607472
0.399314
-0.278748
0.356395
-0.0776472
-0.142829
-0.148092
0.290921
0.132689
0.0187074
-0.127172
0.108464
0.230571
-0.10391
-0.126662
0.352785
-0.489941
0.137156
0.149527
0.252074
0.403633
-0.264995
-0.138639
-0.138298
-0.31419
0.452488
-0.114561
0.261364
-0.146803
-0.169935
-0.190055
-0.479215
0.175478
0.399975
0.0183302
-0.173375
0.0360451
-0.0302515
0.318175
-0.502672
0.338497
0.157369
0.154874
-0.398572
0.243698
0.0278342
-0.00927482
0.246443
-0.509929
0.263486
0.47558
-0.326098
-0.149482
-0.177644
0.0140581
0.163586
-0.0417385
-0.333007
0.374745
0.314967
-0.0266676
-0.2883
-0.102769
-0.0912698
-0.127429
0.0267552
0.333636
-0.360391
0.34929
-0.322535
-0.285058
0.132877
0.152182
0.162644
0.2901
0.280053
-0.155773
-0.124281
0.405019
0.070561
0.122797
-0.429805
0.307009
-0.131098
0.429949
-0.293908
0.46004
0.376393
0.145756
0.478804
-0.148841
0.264833
-0.115076
-0.149757
0.0954884
0.254509
-0.349998
-0.429267
0.138169
0.111158
-0.0487149
-0.148807
-0.214216
0.0834388
0.130777
-0.467848
0.36657
0.101278
-0.0942457
0.234927
-0.140682
-0.18872
0.140005
0.0727937
-0.194618
0.121825
0.0854364
0.145135
0.181469
-0.294945
0.113476
-0.112806
0.131514
0.0419825
0.119604
-0.161586
-0.313429
0.436225
-0.411063
0.197934
0.213129
0.129136
0.150918
-0.438613
0.497447
-0.0588347
0.141993
-0.284822
0.0734977
-0.352246
-0.268027
0.334207
-0.17579
0.237796
-0.0620059
0.22847
0.405288
0.0288903
-0.434179
0.143416
0.132547
-0.430707
0.298159
-0.048086
-0.185902
-0.381125
0.244992
-0.301824
-0.152327
0.214842
-0.0625153
0.409301
-0.133323
-0.275978
0.242858
-0.110805
-0.381361
0.441241
0.140009
0.159605
-0.299614
-0.0148458
-0.0205279
0.0353737
0.131265
-0.291297
0.160033
-0.118678
-0.262653
0.501171
-0.258351
-0.24282
-0.131468
-0.336379
-0.37288
0.525088
-0.152208
0.0132648
0.117151
-0.130416
-0.117653
-0.0813285
0.198981
0.468412
-0.0631238
-0.134142
-0.492045
0.115692
-0.300014
-0.20856
-0.147917
0.454134
-0.418149
0.407501
0.102569
0.201237
-0.303806
0.145898
-0.287139
-0.294032
0.136027
0.158005
-0.142743
0.30777
-0.165026
0.415874
-0.290871
0.092173
-0.255064
-0.115668
0.12996
-0.438658
0.295398
0.14326
0.121764
0.121094
0.435006
-0.20712
-0.227886
-0.518499
0.344093
0.174406
-0.184146
-0.334353
0.395253
-0.245725
0.33192
0.0367642
-0.368685
0.308407
-0.129984
-0.178423
0.152512
0.282494
0.262217
0.111333
0.0523616
-0.429547
0.377185
0.122095
-0.429797
0.307702
0.348928
-0.138585
-0.210343
-0.0677153
0.202915
-0.1352
-0.30771
0.37655
0.400743
-0.1485
-0.409374
0.244897
0.239642
0.0396727
-0.0100135
-0.0296593
0.14508
-0.212796
-0.0298941
0.00476907
-0.25853
0.556503
-0.312498
-0.244005
0.253642
0.302861
0.0143584
0.261305
-0.275664
-0.467796
0.0291837
0.442723
-0.113638
0.484227
-0.172362
-0.311864
-0.344121
0.456038
-0.111917
-0.17357
0.240413
0.391798
-0.469942
0.0781441
0.108641
0.446124
-0.328943
-0.121089
0.134354
-0.329069
0.0415246
0.287544
-0.156896
0.0498581
0.107038
-0.143908
0.255125
-0.280984
0.0524225
0.0933111
0.00901901
-0.10233
-0.0423122
0.0243288
0.0179834
-0.459069
0.471384
-0.0123144
0.521814
-0.239242
-0.282571
0.11128
0.19987
-0.31115
0.0207391
0.3564
-0.159945
-0.196456
-0.29725
-0.486368
0.206161
0.280207
-0.446556
0.211575
-0.52458
0.180012
0.344568
0.29439
-0.411023
0.140015
0.271008
-0.101408
-0.0993898
0.487157
0.132035
0.176372
-0.169934
0.532048
0.0764244
-0.0107832
-0.0656413
-0.126162
0.067946
-0.217786
0.14984
0.310769
-0.562686
0.472867
-0.33487
-0.137997
-0.457007
0.0590468
0.397961
0.0559165
-0.12533
-0.238154
-0.386416
0.393792
0.0102322
-0.354353
0.283542
-0.269184
-0.0967436
-0.257929
0.354673
-0.348887
0.503999
-0.155112
0.443806
-0.473992
0.0301861
0.302184
-0.452607
0.150423
0.142475
0.213925
0.362323
-0.0473556
0.253815
-0.393306
0.139491
-0.0429184
-0.116476
0.159394
0.180644
-0.119147
0.269084
0.166172
-0.435256
-0.16081
0.14486
-0.401733
0.256873
-0.0469275
0.0740428
-0.0271153
0.237444
0.284369
-0.436548
0.324456
0.160745
-0.135552
-0.0251927
-0.0984349
0.262228
-0.163793
-0.0498386
0.318824
-0.370475
0.128648
-0.486115
0.31479
0.171325
0.273142
-0.430565
0.157422
0.0658533
-0.0261806
-0.328005
0.469748
-0.141744
-0.170797
-0.114262
0.240664
0.00528321
-0.273564
-0.205477
0.479041
-0.353274
0.494705
-0.141431
-0.115353
-0.343717
-0.0520078
0.0413952
0.0106126
0.417939
-0.283243
0.213027
-0.364956
0.151929
-0.28092
0.123981
0.156939
-0.100714
0.156128
-0.055414
-0.416172
0.163384
-0.116339
0.0334592
-0.24005
0.206591
-0.350061
0.516648
-0.166588
-0.112868
0.440326
-0.111885
0.418769
-0.261473
0.137637
0.123837
-0.25188
0.126244
0.125636
0.315986
0.1134
-0.429386
0.334421
0.150007
-0.484428
-0.236518
-0.0387782
-0.0568876
0.0956658
-0.328316
-0.1069
0.435217
0.218563
-0.185104
-0.0650979
0.398011
-0.0870818
-0.529337
0.20188
0.327457
-0.0551959
0.422539
-0.367343
-0.0390388
0.172538
0.426866
-0.153724
0.451918
-0.300341
-0.422592
0.367396
0.032342
-0.489349
-0.350078
0.500644
-0.150566
-0.0891088
0.459209
-0.370101
0.181233
0.302993
-0.135686
-0.0265605
-0.299341
-0.139317
-0.25122
-0.273359
0.113668
-0.154856
-0.0664532
0.355198
-0.191735
-0.163463
-0.122767
-0.282693
0.40546
-0.0616338
0.148848
-0.0872143
-0.127761
0.323001
-0.195241
-0.291356
0.125986
0.16537
-0.238796
-0.246037
-0.4189
-0.161465
0.519294
-0.0807888
0.0420105
0.0822871
-0.326184
0.243897
-0.345474
0.482777
-0.137303
0.0850869
-0.00866244
0.179343
0.225675
0.155758
0.042922
-0.19868
-0.166834
0.0711085
0.0957253
-0.509792
0.191741
0.318051
0.0753857
-0.252316
0.17693
0.0929531
0.315809
-0.408762
0.091623
0.0775198
0.241701
0.153551
0.463466
-0.166051
-0.297415
0.23979
0.311369
-0.411329
0.365094
0.0462353
0.302548
0.120777
-0.423325
0.204989
-0.132321
-0.0726675
-0.458579
0.310155
0.148425
-0.313775
0.124405
0.18937
0.218935
-0.346695
0.165085
-0.26352
-0.333991
0.189603
0.0204983
-0.431827
-0.0206591
0.11397
0.127821
0.0771674
-0.462303
0.321148
0.141155
0.452159
-0.124818
-0.307781
-0.17396
-0.522989
0.368661
0.154328
-0.34802
0.251276
0.505427
-0.168859
-0.0510455
-0.174556
0.225602
-0.222751
0.345096
-0.122345
0.063433
-0.184892
0.121459
-0.325142
0.474818
-0.149676
-0.222606
0.0834267
-0.344056
0.145789
-0.102983
0.303171
-0.514471
0.211442
0.303028
-0.210694
-0.117209
0.397821
-0.218477
-0.179606
0.327612
-0.148006
-0.331775
-0.0707394
0.402514
-0.000477928
0.170654
-0.120331
0.344474
0.31509
-0.475355
0.160265
-0.156484
0.458668
-0.203044
0.50236
-0.299316
-0.231128
0.214317
0.0168115
-0.302657
-0.211813
0.216516
0.33756
-0.169322
0.0536813
-0.385456
0.270872
0.0322857
-0.303158
-0.0665562
0.380697
-0.31414
0.318859
-0.236572
0.274429
-0.156095
-0.34686
0.0627101
-0.180363
-0.444733
0.0464408
0.127946
-0.170864
-0.0934635
0.0164163
0.266738
-0.283154
-0.331166
0.495143
-0.163977
-0.0839432
0.447048
-0.317894
-0.449425
0.281649
0.167776
0.144287
-0.416536
0.297828
-0.161801
0.243804
-0.168418
0.29665
-0.194081
-0.492423
0.161257
-0.149807
0.217753
-0.114906
-0.0609564
0.120752
0.177076
-0.103962
0.257766
-0.153804
-0.46664
0.52286
-0.388524
-0.134336
0.0129884
0.126061
0.100479
-0.338428
0.237949
-0.405819
0.11789
0.287928
0.165945
0.237689
0.498062
-0.22963
-0.268432
0.0408921
0.148209
-0.173059
-0.0843558
0.257415
-0.478803
0.0562111
0.380631
-0.240616
-0.129869
-0.310842
0.440711
0.455857
-0.140767
-0.13625
0.168578
0.384534
-0.11545
-0.444514
0.306824
0.336452
-0.103969
0.0473244
-0.0763273
0.0290029
-0.476826
0.123552
0.282002
-0.331545
-0.125045
0.45659
-0.321922
-0.105021
0.426943
0.135451
0.289547
-0.424998
0.304609
0.142297
-0.0482143
-0.0940823
0.449821
-0.0685215
-0.381299
-0.294584
0.448866
0.000525771
-0.449392
0.365589
-0.0724232
-0.293166
-0.459415
-0.262729
0.102606
0.160123
0.385602
0.435887
-0.116939
-0.314356
0.110971
0.344142
0.119324
-0.0682335
-0.116659
-0.297083
0.433876
0.0872142
-0.187929
0.157569
-0.158047
-0.277867
0.294283
-0.168012
-0.104177
-0.461414
-0.138329
0.306174
-0.121089
-0.185085
0.408283
-0.253408
0.0716743
-0.137802
0.0661278
0.261067
-0.107423
-0.153644
0.0916977
0.358123
-0.221698
0.114717
0.28561
0.121689
-0.407299
0.0450067
-0.159371
0.114364
0.0845305
-0.257589
-0.0725224
0.060092
0.0124304
0.445192
-0.291788
-0.153404
0.307238
0.195122
-0.216136
0.112174
-0.221092
0.334183
-0.113092
0.235086
0.113842
-0.225705
0.101153
0.0620065
-0.163159
-0.337423
-0.163363
-0.194785
0.306854
-0.112069
0.313951
0.131242
0.148639
-0.395269
0.24663
-0.0196352
0.292488
-0.272853
-0.482018
-0.139418
0.247384
-0.0592826
0.330155
-0.441167
0.1078
0.333367
-0.251485
0.346974
-0.266633
0.0319708
0.234662
0.0281538
0.120362
0.264766
0.195364
-0.300309
0.475247
-0.174938
0.0711439
0.0711528
-0.239638
-0.0894313
0.219712
-0.174194
-0.469452
0.169143
-0.125494
-0.200664
0.135311
0.0653534
-0.119384
0.261279
-0.141895
0.286596
0.124082
0.194012
-0.318095
0.128248
-0.0177633
-0.112076
0.139152
-0.0674778
0.446394
-0.0808051
-0.189274
0.100305
0.0889684
0.162176
0.310691
0.0191593
0.135197
-0.0767509
0.429536
0.145082
-0.127666
0.160936
-0.0332694
0.00327005
0.0368397
-0.0401097
0.360407
-0.475866
0.115459
0.000513115
0.216987
-0.217501
-0.310826
-0.154005
0.355766
0.120175
-0.475941
-0.427085
0.355641
0.0714437
0.0331968
-0.161162
0.127965
0.0267028
0.379089
-0.405792
0.00357156
-0.144597
0.398411
-0.350085
0.129862
-0.156744
-0.279376
0.43612
-0.36868
0.395383
0.142405
-0.00566578
-0.0983418
0.166575
0.0508844
-0.256015
0.205131
-0.15446
0.0639788
0.0904809
0.295673
0.140214
0.344523
-0.131496
-0.145494
-0.032874
-0.233759
0.311199
-0.11588
0.26025
-0.14437
0.445422
-0.309404
-0.136018
-0.267226
-0.200056
0.467282
-0.42331
-0.0267262
0.450036
-0.147435
0.0858015
-0.1907
0.134579
-0.477219
0.155888
0.321331
-0.317581
-0.0120107
0.329591
0.031646
0.287213
0.44503
-0.129044
-0.28628
-0.221996
0.34904
-0.127045
-0.0510968
0.430186
-0.366213
-0.156729
0.522943
-0.108689
0.154742
-0.448601
0.293859
-0.0621269
-0.150977
0.523535
-0.258249
-0.265286
-0.208959
0.0566322
-0.300127
-0.433778
-0.135191
-0.127538
0.302391
-0.459136
0.420688
0.186792
-0.348695
0.161903
0.139134
-0.301675
0.16254
-0.0398459
-0.0121619
0.0665304
-0.187363
0.447978
-0.192576
-0.255402
-0.387588
-0.382709
0.145832
0.236877
0.119176
-0.13694
-0.460823
0.322525
0.345057
-0.484901
0.139844
0.361773
0.0560854
-0.417858
-0.282642
0.169546
0.113096
-0.327332
0.491594
-0.164262
0.0330785
-0.293667
0.141526
-0.411244
0.269718
0.078462
0.221036
-0.220523
-0.129049
0.424481
-0.0900598
-0.523222
0.209927
0.313295
-0.262489
0.242854
0.199449
-0.466675
0.0814756
-0.223713
0.142238
0.0464619
-0.469772
-0.252305
0.153455
0.0988501
0.161785
0.018729
0.0207895
-0.0150725
-0.00571697
-0.0214704
0.134934
-0.113463
-0.306129
0.446006
-0.139877
0.156075
-0.335681
0.15159
0.0407564
-0.192346
0.190234
0.146218
-0.485312
0.0912631
0.156701
-0.247964
-0.11947
-0.0698034
-0.220138
-0.0728426
-0.121765
0.381077
0.138901
0.312352
-0.122118
0.167111
0.0378659
-0.204977
-0.239623
-0.11516
-0.146313
-0.293276
-0.220143
0.164378
-0.307121
-0.482345
0.300177
0.182168
0.0172458
0.0978019
-0.115048
-0.110758
0.292227
-0.23407
0.085778
0.213905
-0.299683
-0.257317
0.153616
-0.10861
0.200512
0.247466
-0.467739
0.243607
0.224133
0.00585762
-0.323438
-0.128017
0.452355
-0.172454
-0.279901
0.22913
0.294405
0.0295598
-0.296027
-0.127472
-0.15517
-0.268017
-0.211919
0.479936
0.118347
-0.139818
-0.0899969
0.455059
-0.209044
0.259928
-0.347223
0.497377
-0.150154
0.281133
-0.370242
0.224668
-0.32884
0.104172
0.18774
-0.0778901
-0.10985
0.18549
-0.102051
0.0397077
-0.161223
0.121516
-0.330704
0.0179995
0.44236
-0.369224
0.128442
0.240782
-0.270283
0.245878
0.0244052
-0.124144
-0.117874
-0.448345
0.160934
-0.0898367
-0.0769971
-0.13929
-0.225666
0.336405
-0.496844
0.16044
-0.452153
0.13023
0.164127
-0.283511
0.337364
-0.101321
-0.296626
0.184673
0.111953
-0.41551
0.292743
-0.0946329
0.319301
-0.332785
0.0250509
0.307734
0.112577
0.0729132
0.509603
-0.173198
0.167052
-0.458322
0.29127
0.439026
-0.270073
-0.168953
0.265922
0.173104
-0.0648186
0.174004
0.12074
-0.430905
-0.487768
0.162638
0.32513
-0.479659
-0.0137234
0.493382
0.286864
-0.48692
0.421743
-0.136133
-0.255053
0.399913
0.0450233
-0.196079
0.151056
0.124506
0.298033
0.124134
-0.166401
0.0422664
0.155897
-0.0652531
0.234265
-0.340238
-0.304052
-0.0287333
0.0246816
-0.0786325
0.053951
0.129306
0.0316295
0.120279
-0.291886
-0.230059
-0.329744
0.180343
0.149401
0.342099
-0.107834
0.441427
-0.0436066
0.249279
-0.109646
-0.139633
0.0247992
0.270599
-0.152719
-0.30586
-0.130277
0.163474
-0.13631
0.468071
-0.301018
0.396112
-0.300356
-0.0957562
-0.135375
-0.274273
0.409648
0.453251
-0.129006
-0.151914
-0.462588
0.16494
0.297648
-0.291004
-0.165389
-0.297199
0.3292
-0.439793
0.110593
0.471133
-0.141933
-0.121454
-0.321529
0.209333
0.353325
0.147846
0.134432
0.317596
0.119367
0.248527
-0.367894
0.314599
0.123095
-0.437694
-0.421273
0.162922
-0.448896
0.16704
0.281856
0.436639
-0.138799
-0.29784
-0.245046
-0.0252369
0.301829
-0.27703
0.108054
-0.480934
0.105507
-0.14308
0.0375728
-0.566204
0.221621
0.344583
-0.211702
-0.114166
0.325868
0.0211473
-0.0207704
-0.000376951
-0.0134421
0.455929
0.388569
0.0602974
-0.345545
0.496635
-0.15109
-0.206426
0.0938487
0.112577
0.0118731
0.274341
-0.286214
-0.0880299
-0.26314
0.138624
0.216574
-0.137117
-0.189081
-0.297287
0.444069
-0.339946
-0.104123
-0.339515
-0.2587
0.123509
0.204582
0.31954
-0.228169
-0.146279
0.374448
-0.216261
-0.161622
-0.0478702
-0.370004
0.417874
-0.333009
0.177777
0.155232
-0.038288
0.143795
0.0457011
0.117593
-0.163294
-0.0575626
0.224674
0.285393
0.11072
0.118046
0.0261352
-0.474026
0.144615
0.329411
-0.202265
-0.023886
0.226151
0.316439
-0.42146
0.306327
-0.486701
0.180374
-0.0896214
-0.301465
0.391087
-0.473757
0.314943
0.158813
-0.317214
0.114949
-0.308341
-0.138728
0.447069
0.11056
-0.397743
0.262368
0.131577
0.212946
0.2378
0.295947
0.216841
0.249129
-0.167028
-0.0821014
-0.305543
0.102581
0.186086
-0.288666
-0.117442
0.0468615
0.188066
0.0797536
0.0761435
0.133799
0.305374
-0.439174
-0.231011
0.107883
0.123129
0.249634
-0.174113
-0.0755212
0.300459
-0.385225
-0.305465
0.449507
-0.144042
0.335479
0.108589
-0.105945
0.450275
-0.184526
0.0631897
0.121336
0.245594
-0.423358
0.177764
-0.0404776
0.0261544
0.0328486
0.170066
0.0475875
-0.413801
0.275712
0.116375
-0.392087
-0.12805
-0.0585672
0.186617
0.460639
-0.305897
0.126787
-0.434567
-0.559127
0.217384
0.341743
-0.510374
0.163151
0.2432
-0.211554
0.0843691
-0.228872
0.144503
-0.332479
-0.147179
0.126991
0.28231
0.0635575
0.180246
-0.0402857
0.154395
-0.11411
-0.019184
0.055229
-0.358784
0.411145
0.119225
0.202565
-0.32179
0.262863
-0.39092
0.264267
-0.125133
0.115601
0.242607
-0.358208
-0.237383
0.383215
-0.11367
-0.274672
0.384766
-0.131631
-0.372898
0.212587
0.160311
0.272894
-0.141629
0.390698
-0.297745
0.425196
-0.271096
-0.1541
-0.13178
-0.267166
0.398946
-0.224128
-0.108197
0.332325
-0.321327
0.120891
-0.161177
0.400016
-0.154422
0.280176
0.141567
0.30317
-0.407959
0.104789
-0.107512
-0.0631957
0.170708
-0.186457
-0.301311
-0.49834
0.351835
0.146505
0.437608
-0.134438
-0.193281
0.304561
-0.0655075
-0.149984
0.164042
0.0890429
-0.360488
0.13232
0.275103
-0.189325
-0.461364
0.124868
0.336496
0.282155
0.164407
-0.446562
-0.13129
-0.134348
0.265639
-0.139532
-0.0882863
0.227818
-0.0919873
0.3677
0.146772
-0.244863
0.0980918
0.507366
-0.324808
-0.182558
-0.027528
-0.0147842
0.191934
-0.21582
-0.312243
-0.131177
0.44342
-0.367135
0.135275
0.0508323
0.211163
-0.261996
-0.133949
-0.232319
0.366268
0.380704
0.060723
0.0630935
0.414293
0.178548
0.330206
0.219813
0.0179824
-0.433472
0.122629
-0.109247
0.401427
0.0811496
-0.146843
0.428998
0.161044
-0.0608781
-0.100166
-0.162718
0.0794016
0.0833163
0.0747889
-0.206355
0.131566
-0.396666
0.219451
0.177215
-0.0784611
0.365325
0.397197
-0.252217
-0.14498
0.447743
-0.133143
0.245773
-0.512858
0.21249
0.300368
0.00184894
-0.0463889
0.04454
0.256008
0.141189
0.302021
-0.391642
0.0432973
0.161408
-0.204705
0.0595921
-0.00548589
-0.0541062
-0.101342
-0.0831832
-0.00438217
-0.22279
0.140938
-0.318761
0.25703
-0.390353
0.41386
-0.157853
-0.303417
0.111681
0.1732
0.0759287
0.181299
-0.29836
0.11706
-0.00945297
0.130601
-0.121148
0.406304
0.00851398
-0.414818
-0.248746
-0.154117
0.402863
-0.478333
0.162368
0.315965
0.463212
-0.153057
0.245955
0.265498
-0.33431
0.501799
-0.238936
0.170798
0.11589
-0.286688
0.305201
0.133065
-0.438266
-0.510352
-0.148443
-0.184566
0.287326
0.214473
-0.154615
0.0567779
0.0978375
0.142646
-0.403298
0.260652
0.0329949
-0.00866617
-0.320441
0.357205
-0.431969
0.283784
0.148185
0.0269127
0.208173
-0.450761
0.123429
-0.371332
0.179378
-0.0681989
-0.111179
0.123306
-0.451311
-0.112476
0.15348
0.302807
-0.456287
-0.224615
-0.212925
0.263757
-0.278077
-0.116433
0.394511
0.127095
0.380271
0.258713
-0.390493
0.325139
0.0114212
-0.329007
0.048892
0.213079
-0.261971
0.1355
0.107191
-0.159496
-0.282663
0.0823868
0.200277
0.0819363
0.144312
-0.226249
0.149895
0.325353
0.197877
-0.327211
0.129334
0.412589
-0.117777
-0.294812
0.0381334
0.116262
-0.546299
0.243625
0.302674
-0.312267
0.423076
-0.1429
0.125481
-0.300966
-0.177367
0.218128
0.30696
-0.474545
0.323202
0.151343
0.317706
-0.119857
-0.19785
0.337626
0.0749631
-0.311298
-0.235001
-0.472106
0.155149
0.316957
-0.199316
0.0750574
0.124258
-0.306031
-0.163421
-0.416304
0.146016
-0.261895
0.125265
0.21847
-0.343734
-0.262915
0.438393
-0.304074
0.130721
0.173353
-0.186522
0.310604
0.0839978
0.258101
-0.0240199
0.173453
-0.149433
-0.433973
-0.227551
-0.0862238
0.050875
0.023044
-0.073919
0.108735
-0.322578
-0.254494
-0.322212
0.342866
0.510012
-0.228879
0.0954801
0.266227
0.133789
0.317029
0.0849259
-0.264135
0.179209
0.0834311
-0.335033
0.485496
-0.150463
0.156118
-0.311171
-0.20885
-0.292611
0.315215
0.299273
-0.117974
0.24417
0.136461
-0.476805
0.167135
0.309671
-0.449468
-0.170918
-0.555641
0.222669
0.332971
-0.485085
0.29598
0.189105
-0.231389
-0.179674
0.139532
0.309915
-0.449446
-0.0711151
-0.321656
-0.337512
-0.207033
0.399477
-0.13325
0.199188
-0.124399
0.344549
0.0446093
-0.166777
0.122167
-0.492506
0.186213
0.306293
0.170453
0.0791814
0.346454
-0.249413
-0.0970412
-0.170324
0.481093
-0.0172555
0.397171
-0.174171
-0.223
-0.507799
0.210714
0.297085
-0.176436
0.261362
-0.110264
-0.186362
0.260224
0.108083
-0.368306
0.0881643
-0.229535
0.14137
0.225796
-0.372075
0.220326
0.136426
-0.356752
0.245284
-0.363756
0.151706
0.246467
-0.106121
-0.428102
0.181502
0.2466
-0.437449
0.166307
-0.194385
0.306129
-0.111745
-0.306252
0.440415
-0.134164
0.0568209
0.331984
-0.200407
0.23741
0.37766
-0.132376
-0.1173
-0.263825
0.322927
0.140285
-0.0643969
-0.100114
0.164511
0.125097
-0.433438
0.242803
0.154368
0.485561
-0.162634
0.185108
0.297668
-0.114487
-0.484197
0.245401
-0.530906
0.183404
0.347503
0.128402
-0.420913
0.29251
-0.470912
0.224875
-0.0628367
-0.119835
0.304509
-0.00529067
-0.389671
0.394962
0.194887
0.426963
0.0381393
-0.465102
0.00455821
-0.0328257
0.0282674
0.533325
-0.284897
-0.248427
0.151997
0.217572
-0.409589
0.192017
0.447411
-0.292223
-0.155188
-0.139344
-0.324075
0.377848
-0.117624
-0.171608
-0.256494
-0.138226
-0.230998
-0.11214
-0.245043
0.135978
0.109066
-0.105467
-0.209692
-0.107522
0.145255
0.325878
-0.498365
0.309254
0.189111
-0.356056
-0.0813932
-0.301368
-0.276053
-0.262415
0.0122879
0.0085016
0.351837
-0.481075
0.129238
-0.230027
0.278919
0.196589
0.100312
-0.32068
-0.119113
0.159852
-0.267959
0.108107
0.115465
0.0582113
-0.173676
-0.299959
-0.129289
0.429248
-0.4355
0.13554
-0.419353
-0.00703012
0.426383
-0.206013
0.332265
-0.126252
-0.0349599
0.395367
-0.145664
0.37146
-0.208028
-0.299772
0.00293967
-0.396731
0.393791
0.0650273
-0.178408
0.113381
-0.218263
0.0787315
0.476715
0.0810989
-0.335279
0.25418
-0.196789
0.279176
-0.0204037
0.0169804
0.0134967
-0.0304772
0.21897
0.0987368
0.282956
-0.112158
-0.16182
0.0463393
0.11548
0.265487
-0.164743
-0.100744
0.142362
0.185249
0.182542
-0.30597
0.123428
0.189945
-0.304995
0.11505
0.0810302
-0.0214381
0.156895
-0.436271
-0.218844
-0.290948
0.236152
-0.492475
0.256322
0.334981
0.15058
-0.188342
-0.0427868
0.20533
0.139172
-0.344503
-0.256985
-0.33985
-0.137369
-0.277416
-0.0385864
0.0404354
0.345589
-0.140259
0.31932
-0.182839
-0.13648
0.0451266
-0.173177
-0.0524134
-0.19271
0.129107
0.063603
0.3835
-0.147347
0.428374
-0.428374
-0.240691
0.136781
-0.480571
0.0992107
0.149737
0.297675
-0.124815
0.0445585
0.490878
-0.173344
-0.317534
-0.11461
0.274462
0.167478
0.30734
-0.210693
0.133623
0.0770704
0.207427
0.315433
0.339431
0.00566331
-0.345094
-0.404191
0.3989
-0.151599
-0.100707
-0.00139847
-0.428149
0.462667
-0.181335
-0.281332
-0.356885
-0.33683
0.491019
-0.154188
-0.504245
0.169212
-0.100642
0.417081
-0.260006
0.182925
0.0770805