/*--------------------------------*- C++ -*----------------------------------*\
| =========                 |                                                 |
| \\      /  F ield         | OpenFOAM: The Open Source CFD Toolbox           |
|  \\    /   O peration     | Version:  v2012                                 |
|   \\  /    A nd           | Website:  www.openfoam.com                      |
|    \\/     M anipulation  |                                                 |
\*---------------------------------------------------------------------------*/
FoamFile
{
    version     2.0;
    format      ascii;
    class       volScalarField;
    location    "50";
    object      p;
}
// * * * * * * * * * * * * * * * * * * * * * * * * * * * * * * * * * * * * * //

dimensions      [0 2 -2 0 0 0 0];


internalField   nonuniform List<scalar> 
18649
(
0.00526105
0.00668618
0.00532924
-0.119409
0.00551594
-0.0571101
0.00590233
-0.000280268
-0.00691584
-0.100594
0.00546016
0.00710563
0.00522966
-0.00668716
-0.434507
0.00465414
0.00801302
0.00609969
-0.114403
0.00677146
0.00715222
-0.3164
-0.00705874
-0.109437
-0.114191
-0.00714851
-0.00492443
-0.0035867
0.00556229
-0.289405
0.007772
0.00741747
0.00827526
-0.0531261
0.00719385
0.000889611
-0.284965
0.0132368
0.00556607
-0.00623599
-0.00144991
-0.0162135
-0.216309
-0.00246892
-0.000247519
-0.312071
-0.00604862
-0.0652872
0.00721307
-0.0627465
-0.115852
-0.00807181
0.00856953
0.00187533
0.000306048
-0.178906
0.0564745
0.00740319
-8.2752e-05
0.00268346
0.00387528
-0.178884
0.00736998
0.0453836
-0.291493
0.00846256
0.0024211
-0.0307566
-0.000202297
-0.31495
-0.00467684
-0.053859
0.00604436
0.00709284
0.0069863
-0.00264547
-0.0567173
0.00712906
-0.301642
-0.000209094
0.00682484
0.0136433
-0.0190731
-0.106915
-0.000378041
-0.186648
0.00100778
0.00424278
-0.000238364
-0.0402633
-0.435131
-0.186018
-0.110815
0.0182902
0.00635515
0.00843249
-0.000263887
0.011218
0.00832965
0.00395306
-0.0604561
0.00486466
0.0067368
-0.000319845
-0.00698997
-0.00640488
-0.0218287
-0.240664
-0.167518
0.00622692
0.00723718
-0.0690818
0.00492179
0.00746244
0.00638387
0.010365
-0.0296766
-0.0709026
0.00638
0.0015672
0.00363216
-0.101441
-0.0241064
0.00744712
-0.000179516
-0.0184151
-0.0610255
0.0101138
0.00542759
-0.00157643
0.00168033
0.0412337
-0.200041
-0.210651
0.00718943
-0.3223
-0.00301616
-0.248307
-0.00312747
-0.000288794
-0.0623775
0.00662992
-3.66802e-05
0.00976917
-0.0043481
0.00324096
-0.00715003
-0.211828
-0.00606989
-0.00203947
-0.093824
0.0187306
0.00665494
0.00659204
-0.0940786
0.00900235
-0.00214554
0.00812471
0.00711673
0.00133856
-0.0584116
-0.0625811
-0.00154456
-0.00218595
-0.0635036
0.00663174
-0.00470279
-0.00613024
0.00117491
0.00363674
0.00105333
0.00724616
0.00711516
0.00801932
-0.0608952
-6.89637e-05
-0.00455105
-0.00192962
-0.00663416
-0.0623075
0.00745148
-0.000246606
-0.000127387
0.0081044
0.00851402
0.00016795
0.000351262
-0.097742
0.0036423
-0.00094746
-0.0233396
-0.0952423
0.0206723
0.00281709
0.00555849
0.00708358
-0.000586962
-0.000576529
-0.0595948
-0.0668397
-0.00102532
0.0058797
0.000155171
0.00644021
0.00987782
0.0072863
-0.214673
-0.000346352
-0.0228066
0.00835592
0.00373315
-0.00361034
0.00149092
-0.014378
-0.296027
-0.0140558
0.00788787
-0.0218933
0.00802396
-0.0059333
0.0192817
-0.00317155
-0.323919
0.0149976
-0.0569179
-0.00459303
0.00436098
-0.0713877
0.00724395
0.0189778
-0.000873991
0.0072736
-0.0671352
0.00690462
0.00103881
0.0074983
-0.0165249
0.00871617
0.00162938
6.31391e-05
0.0058797
0.00604019
-0.00554866
-0.306342
-0.0565096
0.0143479
0.00326168
0.00702694
-0.317946
-0.0985982
0.014713
-0.0834338
0.00985795
0.0071685
-0.0468337
0.0066622
0.00830939
0.00379749
0.0177346
0.00146053
-0.312242
0.000244877
-0.00125304
0.00544122
0.001085
0.00524584
-0.000262602
-0.00530784
0.00354264
0.00482583
0.0388509
-0.288368
-0.0149893
0.00486942
-0.383511
-0.10523
-0.00430948
-0.04075
0.00575179
-0.180411
-0.203019
-0.0188822
-0.00510622
0.00785523
-0.00160098
-0.181158
0.00804668
0.00727409
-0.00305277
-0.000257023
0.00737432
-0.0550205
0.00128203
0.00951164
-0.0834967
-0.318956
0.0561078
-0.321116
-0.0616103
0.00795858
0.00625015
-0.00140107
0.0139522
0.0401366
-0.239002
-0.00437444
-0.00568732
-0.14893
-0.0655912
-0.0718984
0.00732568
0.00685375
-3.63886e-05
-0.000656879
-0.0060816
0.00670675
-0.023798
-0.0372541
-0.0520275
-0.000520025
-0.307634
0.00489151
0.00373472
0.00735326
-0.318785
0.0104836
-0.0909991
0.000274689
0.008053
0.00764796
-0.0086285
-0.00209492
-0.230444
0.00366631
-0.0253958
0.00752597
0.007875
-0.00425572
-0.0689923
-0.214188
0.0160133
0.00201446
-0.042492
-0.00241849
-0.147072
-0.125047
-0.112982
0.0059559
-0.324487
-0.102265
-0.0155447
-0.00722719
0.00032603
0.0133008
-0.0448886
0.0115742
0.0103473
-0.0170005
0.00618454
0.000179415
0.00423554
-0.0300495
0.00428678
0.0083967
0.00938482
0.00329619
0.00619925
-0.000436198
-0.000384178
0.00149696
-0.0888489
-0.00750972
-0.00313447
0.00715004
-0.373495
0.000539671
-0.00777434
-0.00201634
-0.018456
-0.222769
-0.221333
-0.000430867
0.0129466
-0.291991
-0.018599
-0.00480319
0.0165767
0.00740447
-0.008045
0.00731125
-0.232427
0.00731088
-0.00403023
-0.00563471
-0.00245861
0.00716528
0.00553149
-0.00119108
0.00400015
0.00494291
-0.239493
-0.0927496
-0.0216592
0.00419032
-0.000192554
-0.000583212
0.0073885
0.00867201
-0.000445014
-0.111469
0.00651937
-0.00105051
-0.188472
0.0018629
-0.218037
-0.0450914
-0.00248092
0.00507372
-0.00709518
-0.0166139
-0.0563126
-0.00389037
-0.0689468
-0.0185397
0.000718322
-3.96457e-05
0.00346168
0.00318788
-0.0391186
-0.359423
-0.157702
0.00317741
0.00458124
0.00450358
-0.418083
0.00516776
0.00855198
-0.0450892
0.00579968
0.00561994
0.00304778
-6.91055e-06
0.000984111
-0.0748044
0.00104303
0.00988459
-0.00654152
-0.187126
-0.0687809
0.0125029
-0.00197311
-0.0722033
-0.00146209
-2.76191e-05
-0.0565215
0.00653484
0.00691901
0.00495153
-0.0503502
-0.197655
0.00739816
-0.496251
0.00532602
-0.00494738
-0.0402746
0.0082775
4.05593e-05
-5.84045e-05
0.00992638
-0.00365689
0.0164207
-0.00113017
-0.0121802
0.00954371
0.011468
-0.149416
0.0053984
0.0101357
-0.0435212
-0.0583456
-0.0615321
-0.300216
0.00159265
0.00390539
-0.00300367
-0.0970366
0.00781179
0.00140816
-0.311193
0.00735306
0.0162532
-0.0494002
-4.00625e-05
0.00988518
0.00707075
0.00791699
-0.00683894
0.00695248
0.000281115
0.00924032
0.0146355
-0.0169107
-0.00544713
0.0106808
-0.00801797
0.00908889
-0.0328
-0.000813865
0.00742329
-0.116197
0.0050613
0.00211844
-0.000418587
-0.211553
-0.204554
0.00474424
-0.00302506
0.00718274
-0.0339465
0.00736764
0.00726372
0.00412155
0.00950656
-0.31884
0.00723285
-0.00302049
-0.276714
-0.204816
-0.00298144
0.00629072
0.00420078
-0.249194
0.00300159
0.00429112
-0.158973
-0.00487861
3.05145e-05
0.0160811
-0.199059
0.00929566
-0.0117118
0.00737713
-0.326895
0.00768576
-0.11416
0.0447001
-0.0171674
0.0110215
0.00627268
0.00703002
0.00778181
0.00701911
0.00632527
-0.0331408
0.00227936
0.0197413
-0.000185912
0.000248842
0.0076348
0.00958164
-0.0461967
0.0178444
-0.210748
-0.0411401
0.00493868
0.00828986
-0.417007
-0.0785351
-0.011846
-0.113601
-0.0166853
-0.114666
-9.45581e-05
0.0067085
-0.159236
-0.00032347
-0.00306345
-0.00323019
-0.151541
0.00719599
0.00921167
0.00748935
-0.492578
-0.00365561
0.000756106
-0.0178164
0.0074317
-0.250149
-0.31003
0.00723335
0.00779357
0.00575516
-0.247757
0.000735607
0.00169474
0.00736114
0.00956708
-0.262181
0.00481021
-0.00358019
-0.00168361
-0.361962
0.00445728
-0.00131578
0.00703855
0.0184753
-5.46779e-05
0.00778806
0.00912329
-0.00418467
0.00164508
-0.308866
-0.00350386
0.00745583
-0.199046
0.00109914
0.00666625
0.00469533
-0.0088852
0.00652958
0.00726821
-0.00520779
-0.0248587
0.0097395
0.00601407
-0.0524667
-0.0756212
-0.31864
-0.0350668
-0.2172
0.00727969
-0.0644781
0.0097757
0.00725685
0.0168789
-0.0791747
0.00475389
0.0447921
0.00723977
-0.0784092
0.00740497
-0.178666
-0.00446839
0.00864567
-0.00428366
0.00491503
0.00449591
0.0028495
-0.00324033
-0.0567854
-0.00153661
-0.00328916
-0.00203311
0.0253144
0.00423432
-0.303253
0.0124783
0.010509
-0.0826789
0.00964141
0.00692596
-0.00254048
-0.000140614
0.00612869
0.0224903
0.00705343
0.00596479
0.00557525
-0.0203558
0.00486738
-0.000963795
-0.0499063
0.00764465
0.00699455
-0.000312727
-0.0467644
0.00566096
-0.148203
-0.0635106
-0.00233047
0.00469766
-0.0797003
-0.0790306
0.00575803
-0.152411
0.0069419
-0.0637011
0.00439793
0.00636448
0.0077672
0.00659145
0.00812033
-0.0642398
-0.382441
-0.0453459
-0.0113654
0.000550063
-0.0234668
0.000505988
-0.00675301
0.0144111
-0.00382656
-0.0270486
-0.0350398
0.00505995
-0.086255
0.00577839
-0.00784611
0.00964274
-0.315388
-0.0886248
-0.0112451
-0.457138
0.00405224
-0.332449
-0.000531838
-0.00237159
0.0142083
0.00371842
-0.00116395
0.00731774
-0.000421523
-0.022032
-0.291989
0.00668914
0.0197376
-0.0399131
-0.131456
0.00655317
0.0284493
0.00369506
0.00669489
-0.0716417
-0.00468055
-0.0620131
-0.0119336
-0.0225457
-0.0832384
0.00351499
0.00722607
0.00911838
-0.226943
-0.00147967
0.00955329
-0.173541
0.00822818
0.00734954
-0.000474856
-0.0440004
-0.0930503
0.00110057
0.00645226
-0.30735
0.00111822
-0.0115316
-0.00581426
-0.0281833
-0.150656
-0.0066498
0.00132929
-0.00112386
0.00569654
-0.135312
0.00967977
0.00280118
0.00447589
0.0163764
0.00719272
-0.137528
-0.186984
0.00472319
-0.0033272
-0.0807763
0.00861391
0.00036851
0.000737261
-0.000298323
0.0117318
0.000829293
-0.327414
0.0153423
0.0151775
-0.000307741
0.00596667
-0.0263885
-0.000240727
-0.00509996
-0.276458
-0.063345
-0.0564693
-0.298753
0.0154497
0.00626142
0.00667025
-0.115273
-0.0858385
-0.259596
-0.00208381
-0.128085
-0.00219726
-0.107343
-0.00708789
0.0203425
0.000974984
0.00191553
-0.0178935
0.00757763
-0.393935
0.0346664
-0.00218436
0.00215888
-0.058722
0.00620718
0.00550726
0.00401546
-0.380198
0.00723353
-0.295488
0.00668732
-0.00534109
-0.0365299
-0.00119366
0.00810001
0.00550862
0.00770556
-0.145783
0.00220885
0.00726369
0.00152594
-0.00284183
-0.00960419
-0.0418155
-0.00253405
-0.0372101
-0.0148697
-0.150701
0.0213892
-0.196562
0.00844215
-0.0177899
2.32543e-05
-0.00262569
-0.015989
0.00354693
-0.00146987
-0.00205469
-0.000291861
-0.0775214
0.0058638
-0.00233852
0.0144983
0.0071811
0.015921
0.00394946
0.00604833
0.00472388
-0.00160503
0.00745765
-0.000813211
0.00585535
-0.461023
-0.00154228
0.00583973
0.000292296
0.0023207
0.00722042
0.00662983
0.00410671
-0.00045946
-0.000926763
-0.143716
-0.0753229
-0.00223801
-0.315806
-0.0593672
0.00747515
0.00466873
-0.297054
-0.000398108
-0.085641
0.0341387
-0.532238
0.000990236
0.000193024
-0.154572
0.0013234
0.0113593
-0.00244552
-0.306041
0.00732016
-0.0648052
0.00821782
-0.0358038
-0.314441
-0.00239744
-0.0324105
-0.0250175
0.00489532
0.00818561
0.00720753
0.00664347
-0.00040508
0.00728814
0.0119967
-0.000847791
0.00658874
0.00739675
0.0128104
0.00689008
-0.304476
-0.0546907
-0.16748
-0.000509167
-0.000743128
-6.96311e-05
-0.318418
-0.0446958
-0.257785
-0.0110055
0.000533296
-0.0266283
-0.084043
-0.253639
-0.00060097
-0.00147098
0.0349273
-0.0039671
-0.321962
0.00776732
0.000900746
0.00140056
-0.0649277
0.0125128
-0.00126464
0.00615016
0.0049056
0.00554672
0.0171972
0.0164391
-0.00643321
-0.152945
-0.0052523
0.0072468
-0.14797
0.0194293
-0.000495261
0.00629094
-0.00237358
-0.00578753
-0.321349
-0.206836
0.00931146
-0.00138392
0.00562993
-0.0164525
-0.031861
0.0160989
0.000648045
-0.000536385
-0.0313774
0.00148893
0.0144793
0.00698593
-0.337868
-0.322092
-0.19991
-0.000108446
0.00738469
0.00945209
-0.00140516
-0.0195693
-0.000565864
0.00489602
-0.00530058
0.00349047
0.0074859
0.000429369
0.00742783
-0.205584
-0.43797
0.00218887
0.00470527
0.0154913
-0.00291825
0.00644417
4.68646e-07
0.00743681
-0.0175915
-0.00123075
0.00238733
-0.381478
-0.299574
0.00753444
0.00903835
0.00927792
-0.0107073
-0.000203098
0.0134356
-0.0888445
-0.0714944
-0.0753938
-0.000396637
0.00520948
-0.315361
0.00730171
-0.00145363
-0.329937
0.0401197
0.00185683
0.00475294
-0.00484002
-0.00207472
-0.0114834
-0.0173809
0.0249138
-0.00554836
0.0144891
-0.0181733
0.0176731
-0.147567
-0.299574
-0.00688451
0.0112894
-0.313209
-0.0193463
-0.0930495
-0.240921
-0.338487
0.000836783
0.00643285
-0.318696
-0.178543
0.0100377
-0.0182333
0.000861405
-0.00542035
0.0011401
-0.0930193
0.0043316
-0.0784391
0.00663252
-0.00878883
0.00654993
0.00572114
0.0107527
-0.0140165
-0.0273052
-0.103607
0.00159859
-0.0817228
-0.294526
-0.0151916
0.00717052
-0.0911208
0.00526334
0.00530377
0.00676592
-0.0042727
0.0108389
-0.00179227
0.00737008
-0.00577862
0.00263457
0.00035888
0.00492221
-0.0179581
0.0163251
0.00804015
0.00751129
-0.00311598
-0.06384
-0.0359362
-0.00537871
-0.0610576
-0.0960674
-0.302185
0.00729177
0.000264452
-0.460318
-0.000685501
-0.00332326
-0.0382062
0.00862289
-0.000181858
-0.00221783
-0.0295152
0.0537319
-0.062099
-0.000422423
0.00871217
-0.0230213
-0.0695214
-0.00192495
-0.306204
-0.276742
0.00569405
0.00966433
-0.436116
-0.00604853
-0.000373441
-0.000650831
0.00807055
-0.271651
0.0106454
-0.0172967
0.0057452
-0.324462
0.00367546
-5.282e-05
0.00493485
-0.00871216
-0.0124603
0.00259599
0.00666622
0.0159729
0.000909045
-0.279446
0.0178184
-0.0736831
0.00309172
-0.0066498
-0.196392
-0.00590603
-0.0140968
0.00545093
0.00550593
0.00111687
0.00765447
-0.00311723
-0.057929
0.00310234
-0.250232
0.00492856
-0.0229858
-0.00223668
0.00823484
0.0096492
-0.52662
0.00450941
-0.271033
-0.266531
-0.0023961
0.00259094
-0.111275
-0.141983
0.0193702
0.00694643
0.00532955
0.00747549
0.00508748
0.00767888
-0.0999233
0.00150537
-0.0262864
-0.259874
-0.0413822
0.00449077
-0.00078493
-0.0435551
-0.0016771
-0.0694978
-0.038725
-0.0886148
0.00662035
0.0185237
0.00751252
-0.00311775
-6.73197e-05
0.0062511
0.0117066
0.00560915
-0.00032369
0.00664504
-0.00032852
0.00348447
0.00649099
0.00689937
-0.168916
0.0485206
0.00716719
-0.00232022
-0.000110756
0.00830132
-0.0456457
0.00761708
-0.00038951
-0.242461
0.00754332
-0.0550531
-0.0180251
0.0149045
-0.000125871
-0.426542
0.00753655
-0.108742
-0.00106177
-0.162189
-0.534953
-0.0044343
-0.00101391
0.00751358
-0.00101276
2.86647e-05
0.0034111
-0.113924
-0.00152024
-7.78125e-05
-0.309127
0.0076133
-0.0741328
0.0547201
-0.0275221
0.00815356
0.00103393
0.00780771
0.00902081
0.00917836
0.00575429
-0.000941456
-0.0968373
0.0073876
0.00744797
0.00800024
0.00698738
-0.00421537
-0.000124244
-0.081676
-0.000107856
-0.00260523
-0.138703
-0.267256
-0.0374598
-0.294485
0.0077583
0.00351012
0.00139209
-0.0445037
-0.00380672
0.00170711
-0.00180667
0.00755867
0.0173168
0.00766766
0.000956931
0.00105465
0.0114324
0.00425564
0.0207532
0.00426173
0.00116279
0.00698282
-0.00756749
-0.00513107
-0.0241414
-0.0779039
0.0656212
0.000562742
0.00941282
0.0016513
-0.138229
0.00536182
0.00782838
-0.0918782
0.00931645
-0.00370102
0.000526225
0.0135061
-0.310111
-0.0287013
-0.0010521
-0.00669743
0.0043885
-0.326533
0.00558601
0.00783721
0.00775324
0.00384922
-0.0725489
-0.00369715
-0.0136182
-0.00857845
-0.00207028
0.00767114
-0.0013016
0.00445677
-0.00189189
0.00680646
-0.0042609
0.00116695
-0.00443428
-0.0605259
-0.055316
0.000702766
-0.0717171
-0.0928219
-0.015612
-0.00430382
0.00678737
0.00728039
0.00704084
0.00267595
0.00452356
-0.0162333
-0.274227
0.00853479
-0.000103854
0.00759604
0.00708532
-0.115953
-0.00490162
0.0074729
0.00176763
0.00648248
0.00768635
0.00761013
0.00429756
0.00468316
0.0103877
-0.10445
0.00775357
-0.00709762
-0.00057176
-0.00237076
-0.0073679
-0.00668009
0.00725729
-0.0495377
0.00524373
-0.316879
-0.0273136
-0.12102
-0.00034104
-0.286397
0.00742761
0.00419717
-0.0779981
-9.36433e-05
-0.365021
0.00112773
-0.396475
0.00119657
-0.0011901
-0.00142687
0.0667231
0.0538083
0.00481885
-0.478025
0.00490368
-0.000329329
-0.0547161
0.0052138
0.00757713
0.0288126
-0.0710797
0.00844928
0.000421126
-7.01032e-05
0.00701226
-0.00539512
0.00741787
-0.00131614
-0.327374
0.00786174
-0.000202872
0.0054422
0.00157341
0.00505085
0.00640608
-0.133015
-0.116463
-0.132571
-0.00262184
-0.044917
0.00740749
0.00498493
0.00676069
0.0027488
0.0125404
0.00737211
0.00450069
0.00542995
-0.167633
-0.312942
0.0049713
-0.0720239
0.00773614
0.00673102
-0.00109918
0.00678945
0.0192639
-0.0197868
0.00871877
-0.00445622
-0.119259
0.0146364
0.00594981
-0.0300725
-0.313067
-7.21841e-05
0.0250433
0.00133692
-0.0732028
-0.00665234
0.0231682
-0.181523
-0.0820623
0.00614271
-0.149335
0.00694284
0.00673424
-0.0471032
0.00858439
0.00459503
-0.002295
-0.0104735
0.010558
0.00713692
0.0122826
0.00673912
-0.14259
0.00686727
0.00981062
0.00228787
0.00503848
-0.0404037
-0.0756162
0.00660438
0.00695504
-0.0662004
-0.0252795
-0.00395085
-0.000860326
-0.0845208
0.0121302
-0.00560605
0.0623079
-0.000106857
-0.00827481
0.010483
0.00693819
0.00724374
-0.530471
0.00757872
-0.0153181
0.00810811
0.00548429
-0.00237268
-0.00223571
-0.283369
-0.0156516
-0.321488
-0.0130128
-0.0730444
0.00145062
-0.0453753
-0.000363379
-0.00444803
-0.00340247
0.00710922
-0.117534
-0.0151097
0.00848476
-0.000255281
-0.000340754
-0.301736
0.00744399
0.00544281
-0.0665806
-0.000289093
0.0138273
0.00473045
0.00836982
-0.29992
-0.00806176
-0.00212868
-0.0989022
-0.000891133
-0.00783389
0.00804527
0.00656418
0.0105332
0.00416881
0.00597403
-0.0423973
-0.194794
0.0030669
-0.139516
-0.160963
-0.215535
-0.324489
0.00686609
0.00767174
0.00929718
0.00726873
-0.000799597
-0.215428
0.00682026
-0.0192857
-0.00352073
0.0230681
0.00899213
0.00196284
0.00471656
-0.00244718
-0.00529877
0.00500639
0.00702082
0.00825247
0.00448855
0.00259868
0.00495311
0.00670538
0.0074329
0.00786528
0.00593837
0.00437061
-0.0145902
-0.00458164
-0.172571
-0.100661
0.0023392
-0.00423746
0.0033526
0.0450777
0.00454557
-0.0670514
8.79277e-05
0.00705021
0.000446782
0.00780531
-0.00498667
0.00335476
0.0203648
0.00401061
-0.185725
-0.00740582
-0.071338
0.00455984
-0.00273916
-0.00179995
5.14435e-05
-0.00922883
0.00763801
0.0077453
-0.00371148
0.00667063
-0.177002
-0.00853225
0.0150586
-0.32385
-0.00304494
0.00669986
0.00689936
-0.125367
-0.387186
-0.0114595
0.00422002
0.00671046
-0.151857
-0.0180072
0.00168572
0.00771212
0.00959755
-0.000586548
-0.0013753
-0.0383849
-0.00452067
0.00482396
0.0276087
-0.00106029
0.00727863
-0.00454567
-0.00139741
0.00597498
-0.0777655
-0.0193217
-0.00713514
0.000616808
-0.000415959
-0.0161121
-0.01282
-0.0139594
-0.00023685
0.00855765
0.0102957
0.00872332
0.00713354
-0.0396911
-0.00796709
-0.000360284
-0.28765
0.00282133
-0.0784224
-0.0241553
-0.00529296
0.00441752
0.00637016
0.00713878
0.00133209
-0.15753
-0.0459742
0.00910082
0.00037752
0.00891923
0.00480828
-0.000962973
-0.148445
0.00460185
-0.00218222
-0.281191
-0.10896
-0.00480874
-0.000950961
-0.0396361
0.00772685
-0.0133876
0.00219445
0.000332302
-0.261333
-0.0060331
-0.0143615
-0.00718684
0.00681597
-0.00183884
-0.000351112
0.00755213
0.00366781
0.00231958
-0.000358742
0.00160884
0.00794183
0.00772258
0.00696587
0.018172
-0.00532392
0.00150159
-0.0110496
0.00939249
-0.318462
-0.0928198
-0.0666161
0.00455869
0.00587227
0.00384917
0.00275348
0.0047455
-0.00809392
-0.00124197
-0.00363477
-0.00110688
-0.0747305
-2.95771e-05
-0.00377173
-0.00548925
0.0128631
-0.372502
-0.00270788
-2.6302e-05
-0.0524544
0.0459899
0.00666431
0.00325062
-0.000358706
-0.047344
-0.00483792
0.00729007
-0.0292729
-0.194934
-0.000523783
-0.00550592
-0.240077
0.0054793
0.00232829
0.00697519
-0.00726393
-0.00553324
0.00278863
0.00744407
0.0149728
0.00113377
-0.142832
-0.263467
0.0117644
0.00230806
-0.00282579
-0.000456837
-0.00277729
0.0121415
-0.00476938
-0.0504061
-0.126851
0.00893718
0.00645388
-0.291036
-0.00536519
-0.000985367
0.00477461
0.066969
-0.04351
-0.0928926
0.0135171
0.0021501
-0.0706585
0.000443067
-0.0384187
-0.0058796
-0.00507297
0.00242717
-0.00217838
0.00564748
0.000551046
-0.304387
0.00319904
-0.00301597
-0.222053
-0.0813276
-0.00547434
-0.011179
-0.0249189
-0.0534945
-0.00470206
0.00206519
-0.166573
-0.000503021
0.00289001
-0.324146
-0.0564517
-0.00373825
0.00785419
0.00728464
0.0153069
0.0163358
0.00181606
0.00886297
0.00193967
-0.299396
-0.000582211
-0.00750486
-0.045971
-0.12009
-0.142268
-0.314254
-0.0918553
-0.273985
-0.0115964
0.00583946
-0.00519383
-0.469969
0.00454841
-0.004175
0.00301784
-0.00166605
0.00760382
-0.00200765
-0.00211484
-0.00170637
-0.0282381
0.00421602
-0.00640816
-0.31781
-0.00679757
0.00215785
0.000295306
-0.0142079
-0.00101396
0.00471506
0.00499203
-0.000919452
0.0156832
0.00894263
-0.0164067
-0.000257872
0.00728734
-0.00688268
-0.205513
0.0161279
0.0575372
0.00718517
0.0163295
0.0022664
-0.000308812
-0.00738842
-0.0149023
0.00450256
-0.0070772
-0.000860306
-0.000122118
0.0121911
-0.0361448
0.00392095
0.000833083
0.00636515
-0.0554778
-0.308035
-0.13532
0.00462168
-0.00519992
-0.311588
-0.0188481
-0.147906
-0.0652386
0.00271672
-0.00504719
0.00826127
-0.00262811
0.00515768
-0.00483393
0.0041523
-0.0353773
-0.00014252
0.0153196
-0.316468
-0.0408425
-0.334622
-0.229714
-0.310843
0.0628457
-0.000622324
-0.0292995
0.00215315
-0.00171459
0.000675649
0.00497679
0.00765207
-0.233538
0.00869981
-0.283022
-0.0120414
-0.285195
0.0391686
-0.00156956
-0.0181723
-0.00238839
0.00170559
0.00810746
0.00119415
-0.00537518
-0.0496569
0.00209926
-0.045966
0.00679949
0.00124686
-0.0105458
0.00710901
-0.000379833
0.00203464
-0.146772
0.00601792
-0.0736325
-0.0103325
-0.000756014
-0.0476929
0.00688046
0.00616932
-0.0831648
0.00731302
-0.536482
-0.00426221
-0.000566646
0.00467843
-0.00226559
-0.00496668
-0.0394272
-0.014076
0.00577073
-0.00546044
0.00743189
0.0102705
-0.00453452
-0.30166
-3.28323e-06
0.00632895
-0.00112526
-0.00401257
0.00237226
-0.00577921
-0.00546849
-0.0478544
0.000664857
0.00930226
-0.00449475
-0.0406328
-0.312152
0.00564021
-0.0148406
-0.000630402
0.00218341
-0.323674
-0.519029
-0.292787
-0.00340198
0.00650889
0.000535815
-0.000168508
-0.000392404
-0.322832
-0.0558424
0.00439464
-0.145526
-0.469303
0.00645445
0.000671033
0.00567798
0.00691331
0.00720537
0.00450824
0.0120083
0.00755908
-0.0494511
-0.000945663
0.0101838
-0.0437941
-0.147681
0.00464809
-0.0175043
-0.0592704
-0.019835
-0.315119
-0.323196
0.00866003
-2.16677e-05
0.00809604
-0.097225
-0.00202187
0.00857762
-0.217966
-0.320221
0.00331414
0.00679987
0.0071169
-0.00201221
0.0072975
-0.284628
-0.000849875
0.0091814
-0.310173
0.00887273
-0.000139439
-0.0894918
0.00246059
-0.470361
-0.31516
0.0125582
-0.220245
-0.283283
-0.00246221
0.0076421
0.00830931
-0.333878
0.0196447
0.0448264
-0.000288874
0.00746669
-0.308921
-0.211614
0.00677404
-0.00110414
-0.000225247
-0.0619148
-0.185999
0.00640413
-0.0413206
-0.0913003
-0.31984
0.00254881
0.0313336
0.00344739
-0.124963
-0.273182
0.00103338
-0.322027
0.00733381
-0.0452413
0.00161152
0.00556059
0.034626
0.007059
0.0031786
0.00484903
-0.0304313
0.00625668
0.00455821
0.00315506
0.00670556
0.0156999
-0.0402447
-0.00557775
0.012005
-0.0205369
-0.0760914
0.0401566
0.00883935
-0.331259
-0.009516
0.00983368
0.00456818
0.00107762
0.00703024
-0.304444
0.00451498
-0.00445309
-0.000505717
-0.102048
0.0103663
-0.0872694
-0.0258877
0.00837542
-0.00407639
0.00841329
-0.00211235
0.0066218
-0.245235
-0.0906039
-0.252037
0.00982295
0.0023206
-0.00410504
-0.0417049
-0.153604
-0.00223743
-0.127241
-0.226743
-0.00545076
0.00741488
-0.00420633
0.00386479
-0.0439629
-0.320549
-0.002129
-0.119309
-0.20073
0.00489122
-0.528198
-0.0726092
-0.326659
-0.0246526
0.0048318
-0.0966131
-0.00846649
0.00572787
-0.169388
-0.0547859
0.00433587
-0.0707148
-0.00211496
-0.321692
-0.00878757
-0.325152
-0.0546905
0.00551666
0.00467203
-0.281977
-9.5018e-06
-0.0262399
0.0170405
-0.0199223
0.00488957
-0.189984
-0.00393446
-0.0667199
0.00562915
-0.224722
-0.213214
0.00450318
-0.0383367
-0.0589388
-0.0122599
-0.116803
-0.00187191
0.00475697
-0.00973952
0.00952939
-0.0130528
0.00760012
0.000417546
-0.00454702
-0.0647483
-0.00325291
0.00748392
0.00845773
-0.156481
-0.357399
0.00462261
-0.315441
-0.022763
-0.00538562
-0.000304943
-0.0527051
-0.31715
0.00254046
-0.320706
-0.0057861
0.0021069
0.00822509
-0.00340294
-0.0223022
0.0059102
-0.00069787
-0.00442839
-0.0377979
-0.024426
-0.00834504
-0.142495
0.00687354
-0.116623
-0.173344
-5.41532e-05
-0.0473204
0.00728141
-0.188249
-0.262855
-0.00439285
-0.0738711
0.00918377
-0.17642
-0.00494583
-0.000613466
-0.117664
0.0118895
-0.00010405
-0.0420541
0.00667113
-0.012329
0.00853251
-0.00709426
-0.00533872
-0.147873
-0.138126
0.00806066
-0.0756898
0.00770741
-0.0575798
-0.189378
0.00916745
-0.000365077
-0.00311204
0.00680744
0.00267522
-0.0402339
-0.0974632
0.0178006
-0.018552
0.00421305
0.00463155
-0.0692824
0.0093551
-0.109625
-0.0357957
-0.000400325
0.00837442
-0.32043
-0.053257
0.00159689
-0.32694
-0.0101225
0.000420063
-0.00418504
-0.10092
0.00802957
-0.000974489
-0.0153939
-0.0603131
0.00648008
-0.023384
-0.00186925
-0.00534891
0.0189212
0.00490298
-0.0252043
0.00677774
-0.000453438
-0.112399
0.00673306
-0.00285921
0.0107131
-0.000516571
-0.520395
0.00730955
-0.0397616
-0.184292
-0.308097
-0.16624
0.00429063
-0.0102047
-0.00608379
-0.00611431
-0.0210257
-0.0242459
-0.00394672
-0.528586
0.00217612
0.0199455
0.00697411
0.00445771
0.00588466
-0.415731
-0.327054
-0.105724
-0.0229383
0.00472042
-0.00424785
-0.0470732
0.00434695
-0.000138035
-0.139691
-0.317465
-9.30256e-05
0.00450934
-0.00163233
-6.70778e-05
-0.0575771
-0.157716
-0.000403934
-0.00302659
-0.000135611
-0.0368206
0.0074629
-0.0361635
0.0344503
-0.000754619
0.036257
0.00610377
-0.0431071
-0.0155993
0.00438719
0.00718676
0.00467323
-0.0470361
0.0134315
-0.00010838
0.00277169
0.0136716
-0.0848071
-0.000898515
-0.152532
0.0253036
0.00215947
0.00758178
0.00835923
-0.000593616
0.00491814
0.0121217
-0.030312
-0.0457081
-8.54981e-05
-0.0422168
-0.253372
-0.0584956
-0.0148963
-0.00511208
0.00564585
-0.0375902
-0.28119
0.00829882
0.0133493
0.00753334
0.0073271
0.00722874
-0.0291946
0.000556889
-0.013532
-0.0166219
-0.360699
0.0643537
-0.335834
-0.00454818
-0.04236
-0.0378088
-0.0150683
-0.536395
0.00901838
0.00860834
-0.000685903
-0.00110524
0.00610126
0.00526727
-0.0403045
0.000207177
-0.105819
-0.0308229
-0.00342956
-0.0515224
0.008769
-0.134377
-0.00122811
0.00440662
-0.00745626
-0.0705518
0.0362285
0.00519019
0.00752416
-0.148127
0.00607572
-0.00382903
-0.331825
-0.0443245
-0.0895496
-0.0401143
-0.0104157
-0.272908
0.00879344
-0.0129213
-0.183411
-0.348854
-0.0151363
-0.00239149
-0.309317
0.00532241
-0.00145744
-0.360047
-0.0125518
-0.000323576
0.00441699
0.00428821
0.00490803
-0.00626659
0.00436946
-0.101914
0.00367522
-0.0111052
-0.000480141
0.000486355
0.00955618
0.00740781
0.00459893
0.0584105
0.00783394
-0.0149864
-0.00368987
-0.0075821
-0.0128736
-0.359285
0.00736631
-0.00417408
0.0181637
-0.327135
0.00206529
-0.0513825
-0.000380761
0.00865113
-0.0575455
-0.00161413
0.00430085
0.00496764
-0.00454476
-0.31663
0.0184048
-6.77852e-06
-0.000377743
-0.00389315
0.0106405
0.00479584
-0.273183
-0.00542888
-0.325373
-0.00148919
-0.133462
-0.0601118
-0.0276584
-0.310333
0.0093276
0.00758448
-0.00283632
0.0085118
0.00930804
0.000878758
0.002887
0.00817393
0.00699874
-0.316991
-0.403864
-0.0577476
-0.274145
0.0046088
0.00131536
0.00630421
0.00862663
-0.010219
-0.248397
-0.0810343
-0.0867491
0.00664311
-0.00449807
0.00471185
0.000262207
-0.0641623
0.0421514
-0.30386
0.00752671
-0.0117203
1.66096e-05
-0.127869
-0.340339
0.0080628
-0.292212
-0.000133612
0.00527047
0.00244155
-0.000606187
-0.0197111
-0.00548056
-0.0157643
0.00662101
-0.0639828
-0.00165432
-0.00211244
-0.017461
-0.00487502
-0.00420516
-0.00514859
0.00416388
0.00361299
-0.044425
0.00490494
-0.00639352
-0.00321709
-0.00053753
-0.0552725
-0.00542471
-0.317434
-0.00807307
0.0075091
0.00731555
-0.27197
0.00653704
0.00738918
-0.000937172
0.057371
-0.00220592
-0.000287378
0.0147574
-0.0667418
-0.000158475
-0.00495425
-0.0033147
-0.00396495
-0.0373185
0.00502161
0.00762488
-0.0323404
-0.0421896
-0.295428
-0.00520126
0.00684406
-0.317512
0.00539894
0.061471
-0.0536491
0.00690063
0.00713633
-0.216968
-0.00320624
-0.000640418
-0.00538448
-0.0115713
0.00507132
0.00720743
0.00263807
0.0113481
0.00291634
-0.478518
0.00462631
0.00480316
-0.0185459
0.00859908
-0.149209
-0.336131
0.00903592
0.00397276
-0.309638
-0.353508
0.00172053
-0.131855
-0.0599556
0.00213798
-0.00879205
-0.274191
-0.000382571
0.0011422
-0.00184462
-0.00269723
-0.140261
-0.290452
-0.0834233
-0.157218
-0.30684
0.00591
0.00202628
0.00604435
0.00575837
0.00423951
-0.00359797
-0.0462135
0.0034276
0.000440577
-0.0134062
0.00395818
0.0613716
0.0068666
0.00390504
-0.0118185
-0.0134464
0.00459074
0.00593866
0.00763494
-4.61358e-05
0.0021104
-0.0640604
-0.00746133
0.00739466
0.00720135
-0.00506671
-0.000303721
0.00929128
0.00459587
-0.000157032
-0.00534277
0.00689802
-0.278671
0.00704959
-0.0513803
-0.136593
-0.334673
-0.0503549
-0.000166196
-0.137728
-0.404015
-0.349661
-0.0108385
-0.328332
-0.0111735
-0.0102594
-0.000129432
0.00531324
0.00790597
-2.46695e-05
-0.11244
0.00729072
-0.0128306
0.00176432
0.00222486
-0.161108
0.0038292
-0.307348
-0.323742
0.0176847
-0.115718
-0.00197347
-0.282029
-0.321926
-0.00493377
0.00352827
-0.108054
-0.0170558
-0.0490476
-0.317028
-0.326095
-0.00275581
0.00526256
-0.309473
-0.00355069
-0.327554
0.00747902
0.0064919
0.00462058
-0.0455971
-0.324057
-0.329448
0.00165889
-0.316974
0.00929849
0.00748831
0.00373788
-0.0673127
-0.108815
-0.13174
0.0106023
0.00822947
-0.305157
-0.514831
0.00196772
0.0109192
-0.3167
-0.330737
-0.325215
-0.3086
0.00650588
-0.0510331
0.00573039
-0.139186
-0.120166
-0.0206169
-0.105771
0.00041018
-0.0146462
-0.31644
-0.0479892
-0.172839
-0.317829
-0.302021
-0.330458
-0.356966
-0.151387
-0.00577837
-0.061872
0.00698383
-0.000129228
0.00139869
0.0628863
-0.0451892
-0.0626247
-0.0031699
-0.015888
-0.0151847
-0.00448163
-0.0121942
-0.016428
-0.303219
0.00747337
0.00928891
-0.306708
-0.000361697
-0.0359171
-0.00489178
0.00378636
0.00790212
0.00648471
-0.0581502
-0.214083
-0.365342
-0.124275
-0.000996254
-0.0411594
0.0060499
-0.0843021
-0.367259
-0.0147585
-0.14001
0.0112941
-0.0540963
-0.103142
-0.337681
-0.316862
-0.00475113
0.00722952
-0.317277
-0.0490078
-0.00523258
-0.509153
0.0195857
0.00354728
-0.00521463
-0.00568931
0.00273263
-0.00642552
-0.0118904
0.0453548
-0.00104227
-0.330915