/*--------------------------------*- C++ -*----------------------------------*\
| =========                 |                                                 |
| \\      /  F ield         | OpenFOAM: The Open Source CFD Toolbox           |
|  \\    /   O peration     | Version:  v2012                                 |
|   \\  /    A nd           | Website:  www.openfoam.com                      |
|    \\/     M anipulation  |                                                 |
\*---------------------------------------------------------------------------*/
FoamFile
{
    version     2.0;
    format      ascii;
    class       volScalarField;
    location    "50";
    object      nut;
}
// * * * * * * * * * * * * * * * * * * * * * * * * * * * * * * * * * * * * * //

dimensions      [0 2 -1 0 0 0 0];


internalField   nonuniform List<scalar> 
18540
(
0.02116
0.00672611
0.00603929
0.0169868
0.00173479
0.000864215
0.00130776
0.000439144
6.39934e-05
0.00127251
0.000820619
0.0058432
0.0122442
0.00591596
0.0206967
0.000135962
9.35913e-05
0.000302131
5.83446e-05
0.0116575
9.59003e-05
0.000277603
0.0067239
0.0024347
0.000442363
0.000248023
0.000522986
0.000541431
0.000771658
0.00901536
0.00672604
0.00672844
0.000785529
0.0194461
0.000652909
0.0158381
0.000255332
0.0067267
0.00678145
5.05064e-05
0.00672556
0.00672654
0.0013813
0.0235901
0.000452605
0.000361129
0.000155667
0.00675017
0.000162944
0.00063801
0.0054427
5.93707e-05
0.0139633
0.00672516
0.00051994
0.000777926
0.0111308
0.0107606
0.00264568
0.00682098
0.0024018
0.000946183
0.00040137
0.000109235
0.0180399
0.0057309
6.37876e-05
0.00672255
0.00201325
0.00677862
0.000869734
0.000168502
0.00099941
0.010977
0.000623694
0.000122804
0.000142943
0.00672165
0.000340103
0.000146887
0.000845714
0.00830047
0.00672577
0.000533679
0.00302939
0.0188669
0.00281154
0.0067239
0.000607873
0.0183985
0.000298017
0.000247566
0.000133193
0.0067625
0.00115544
0.00200405
0.000731293
0.000765632
2.06509e-05
0.00182929
0.00275093
0.00672841
0.000134586
0.000325229
0.00354996
0.000575147
0.00262216
0.00510638
0.000404841
0.000736167
0.000355254
0.00393649
0.00672189
0.000612087
0.0130491
0.000238464
0.000217337
0.000585354
0.000350795
0.000924022
5.47103e-05
0.00850829
0.00234499
0.0120191
0.00672348
0.00084225
0.00074825
0.000230051
0.000829918
0.000104656
0.000267816
0.000295446
0.000518192
0.0210731
0.00674879
0.00672655
0.000667173
0.000509819
0.00124902
0.00551784
0.0183601
0.000556667
0.000615913
0.00261757
0.00677592
0.00674391
0.000681489
0.018153
0.000809516
0.00895894
0.00673507
0.00126805
0.00676322
0.0136669
2.58197e-05
5.6525e-05
0.0095169
0.00677587
0.00525934
0.00461441
0.000513191
0.000728428
0.00672637
0.00674712
1.19649e-05
0.00499304
0.0198549
0.000190087
0.0215089
0.0028715
0.00672412
0.00101341
0.000823716
0.000928754
0.00268112
0.0116496
0.000813051
0.019166
2.99003e-05
7.18532e-05
0.000694535
0.00016486
0.000598787
0.000399447
0.000488504
0.00345782
0.00153458
0.00138672
0.000325086
0.000306129
0.000746416
0.000747116
0.000485265
0.0067233
7.69658e-05
0.00670068
0.000761414
0.00040834
0.000558074
0.000613487
0.000280554
0.000366284
0.000184013
0.000696241
0.0217899
0.00584946
0.00375402
0.0153966
0.016385
0.000602218
0.00672741
0.00493324
0.0183035
0.00672541
0.000225814
0.000480713
0.0118859
8.13165e-05
0.00138162
0.0123897
0.00376515
0.000162028
0.0130322
6.07167e-05
0.000176291
6.34248e-06
0.000536444
0.000887893
0.00292501
0.000527282
0.000599149
0.00065334
0.000694899
0.000766387
0.00672613
0.00115566
0.00672731
0.000203319
0.000482706
0.000337876
3.22992e-05
0.000120225
0.000207204
0.000693908
0.0210506
0.0145507
0.00672561
0.006745
0.000620421
0.00176016
0.000153642
0.0158692
0.0025492
0.00103
0.000348557
0.000124779
0.000566933
3.2025e-05
0.00585039
0.00847098
0.000121344
0.0217617
0.00174098
0.00012573
0.00206341
0.000892066
0.0118684
0.0122004
0.0067264
0.00672516
0.00137422
0.00444689
0.000362036
0.00137886
0.000649954
0.0236059
0.00676128
0.000478481
0.000399699
0.00674646
0.00672788
0.0253004
0.00107993
0.00672713
3.40374e-05
0.00678288
3.28158e-05
0.000551509
0.016559
0.00112197
0.013551
0.0102113
0.000181623
0.00672572
0.00891338
0.000469863
0.000587232
0.000237785
0.00732027
6.60638e-05
0.00229822
0.00263664
0.000630618
9.98654e-05
9.04087e-05
0.00672826
4.45021e-05
0.00673489
2.96664e-05
0.00672786
0.0056122
0.00253837
0.0220282
0.000762895
0.000287608
3.77512e-05
0.0221051
0.00673018
0.010936
0.00507173
0.00391579
3.09943e-05
0.00189291
0.00144588
0.000928969
0.00442023
0.000660921
0.00043536
0.00673158
0.00673051
0.00674566
0.000420392
5.70191e-05
0.00027685
0.000279261
5.877e-05
0.00301262
0.00672579
0.00354935
0.000105106
0.000503289
0.000699848
0.00148424
7.31261e-05
0.000480929
4.24131e-05
0.00546412
0.000176234
0.0013922
1.30184e-05
2.21051e-05
0.00672565
0.00821367
0.00184882
0.00672742
0.0112873
0.0067253
0.00676398
0.00349351
0.00832115
0.000475926
0.0067463
0.00672779
0.000506091
0.0129251
0.000270876
0.00680492
0.00672671
0.00276814
0.00672351
0.0165342
0.00674002
0.000266737
0.000526521
0.00672566
6.48743e-05
0.00672698
0.00244737
0.00118119
0.000708676
0.0064588
0.0067339
0.000132119
0.000510859
0.000286125
0.00674428
4.43761e-05
0.00966605
0.00672373
0.00324734
0.0111802
0.00673351
0.000605261
0.00334589
0.0162407
0.00672661
0.014213
0.0159218
0.00672388
2.2116e-05
0.00223485
0.0193912
0.00122282
0.00672605
0.00105751
0.00676727
0.0205824
0.00129306
0.00210834
0.000490661
0.00172401
0.00388849
0.000203709
0.00674472
0.000596585
6.7269e-05
0.00672601
0.000814943
0.000220395
3.86361e-05
2.71885e-05
0.0193853
0.00672379
3.00919e-05
0.00673295
0.000534352
0.00673333
2.16024e-05
0.000468524
0.000235344
0.00672962
0.0220879
0.000797041
0.011308
0.00111682
3.71411e-06
0.00672397
0.00673771
0.00925385
0.0051429
4.684e-05
0.000518206
0.000103023
0.0068415
0.00512344
0.00347025
0.00257524
0.00524827
0.00555901
0.0067897
0.00990739
0.0144004
0.00673427
0.00674266
0.0042919
0.00252726
0.000678588
0.00628654
0.00301768
0.000309129
0.00136794
0.00208497
0.000589034
0.000572219
0.00672456
0.000219842
0.0102994
0.00136713
0.00079712
0.000659679
1.24149e-05
9.37392e-05
0.00657913
0.00817974
3.29705e-05
0.00676977
0.0211708
0.00672017
0.00411355
0.00675498
0.000438431
0.00675869
0.0127422
0.00201632
0.0010452
0.000553099
0.000662588
0.0052681
0.00496616
0.00125987
2.3412e-05
0.000501414
3.85201e-05
0.00182091
0.00535742
4.15494e-05
0.000525735
0.0215267
0.000613955
0.000612928
4.78629e-05
9.99112e-05
0.00680952
6.8016e-05
0.00672619
0.00100006
4.75627e-05
0.00289622
5.33378e-05
0.0199759
0.00394959
0.00245025
0.00672673
0.000361591
0.0179311
0.000684004
0.00116295
0.00672562
0.00612804
0.00672249
0.000339837
0.00672692
0.000134149
0.00884362
0.000591876
0.00676665
0.00672613
0.0152388
0.00672534
0.00312577
0.00923758
0.000112489
8.80262e-05
0.00672391
0.00672546
0.00247666
0.0167934
7.77968e-05
0.000293619
0.00364286
0.00672532
0.00022097
0.00029126
0.000218475
0.00113928
0.00676499
0.00767339
0.0140407
0.000662331
0.000720291
0.000295848
0.00674389
0.00114723
0.0131824
0.00675681
0.00068177
0.000634191
0.00601149
0.00997142
0.00674947
0.000858399
0.000790641
0.00673438
0.000521337
0.00157815
0.0168304
0.00674219
6.23713e-05
0.000457168
0.000245355
0.00676385
0.00672606
6.72736e-05
0.00276795
2.31372e-05
0.0084452
0.00565636
0.00041261
0.00447407
0.00510721
0.000298864
0.00672527
0.00929528
0.00798258
0.0077624
0.000264183
0.00414835
0.00509096
0.00135178
0.000610351
0.000785809
0.00674181
0.00672667
0.0016985
0.00201726
0.00673107
0.00501808
0.00158146
0.00170094
0.00678205
0.00784986
0.000489968
0.00433344
0.000134403
0.00434076
0.000294018
0.000517407
0.00672592
0.00672556
0.000523936
0.00136716
0.0043541
0.0039847
0.00247083
0.00368155
0.00774504
0.00218082
0.00672611
0.021167
0.00387412
0.0163067
0.00872969
0.00677525
0.00930345
0.000136036
0.00549785
0.000216202
0.00144597
3.3601e-05
0.00656049
0.000885084
0.0140965
0.00509466
0.014816
0.00672538
0.0026672
0.000581401
0.000324669
0.00676529
0.00107889
0.0172885
0.017951
0.00224327
0.000659523
0.00269868
2.98938e-05
0.000872393
0.000408881
0.00672511
0.000681898
0.017938
0.00672718
0.00672554
0.00479055
0.000167685
0.0182034
0.00556637
0.000503074
0.00436938
0.00852687
0.00672673
0.00836394
3.52846e-05
0.00116187
0.0106352
0.000236293
0.00271371
0.0238311
0.0188291
0.000144626
0.000642305
2.14425e-05
0.0136372
5.37541e-05
0.00146444
0.00127331
0.00586626
0.00876998
0.00308244
0.00252506
0.0016455
0.00625126
0.0087655
0.00106794
0.000874576
0.000835975
0.0176906
0.000528227
0.0011584
0.000902036
0.0067923
0.000515927
2.39528e-05
0.01064
0.000733356
0.0155899
0.00674149
0.000253867
0.00139797
0.00195328
0.000255339
0.00677752
0.0016718
0.00232048
0.00673893
0.00673548
3.70554e-05
0.000550522
8.21624e-05
0.00316803
0.00679224
0.0030102
0.00638456
0.00620072
0.019229
0.00672809
0.006725
0.000242754
0.00672825
0.000109233
0.000733581
0.000590599
0.00672585
0.00672429
0.000207245
0.000300919
0.000110994
0.00672587
0.00672639
0.000799283
7.6531e-05
0.00056276
0.00106857
0.000232099
0.00947785
0.00672517
0.00671266
0.0114471
0.000371584
0.000488694
0.00673656
0.000344024
6.72668e-05
0.000603827
0.000607644
0.000701175
0.0111558
0.00403465
0.00270179
0.00101916
0.00712961
0.00672968
0.00672485
0.00676599
0.00672682
0.000352637
0.00142655
0.000177862
0.00673252
0.0026765
0.00573027
0.00672475
0.00673983
0.00673952
3.95704e-05
0.000353511
0.00674478
0.000270702
0.000311448
0.000649372
0.000190725
7.33084e-05
0.000389125
0.000134405
0.00114409
0.000338298
0.00672458
0.000209374
0.000124731
0.00672752
0.000386584
0.0208446
0.00321199
0.000204227
0.000203322
0.000153322
0.00201573
0.000717158
0.00034544
0.000125606
0.000872684
0.000718327
0.000945816
0.00672916
0.00137704
0.0175646
0.000915346
0.000399361
2.87425e-05
0.000489457
0.000995188
0.00102308
0.0180571
0.000664034
0.0019505
0.00247383
0.00201177
0.00673819
3.01225e-05
0.00672579
0.000618233
0.00672868
0.000490789
0.00251754
0.004082
0.00130714
0.00687998
0.00674115
0.00186522
0.00478241
0.0143301
0.00672766
0.00178642
0.00176518
0.0192011
0.000329707
0.00016655
0.000352918
0.000145053
0.00676515
0.000843294
0.0222492
0.000293779
0.00197889
2.68032e-05
0.00078587
0.000121328
0.00744309
0.0056596
0.00382328
0.00397034
0.00298491
0.000439183
0.00673147
0.00673872
0.00643273
0.000521952
0.000651509
0.00177628
8.5448e-05
0.00360701
0.00184479
0.000510794
2.92668e-05
0.00132354
0.0064235
0.0167355
0.00672495
0.00129104
0.0169467
0.000316851
0.00188859
0.0065193
0.000551415
0.00157307
0.00142253
0.00673153
0.00245226
0.000498103
8.78809e-05
0.00624479
0.00173897
0.00145028
0.000152389
0.011567
0.00672382
8.34608e-05
3.87885e-05
0.00114407
0.004751
0.00672522
0.000463801
0.00223662
0.0118731
0.000456412
0.0067249
0.00232997
0.0014451
0.000670281
0.013416
0.00672261
0.00181927
0.00271066
0.000361793
3.66466e-05
0.00672748
0.00245836
0.000395386
0.0173102
0.000617033
0.00945533
0.00672611
0.00672763
0.000428989
0.00672665
7.84846e-05
0.0209933
0.00196263
0.0208601
0.0195842
0.00672642
0.00607762
0.00464578
0.00051477
0.000173847
0.000378051
0.0102711
0.0067263
0.0106456
0.000262486
0.0145706
5.31716e-05
0.00207046
0.0102573
0.00559677
0.0208039
0.0089411
0.00672904
0.00669623
0.00124567
0.00025377
0.0187647
0.00151201
0.00480479
0.000546401
0.00672329
0.0013613
0.000722237
0.00672338
0.0195314
0.0010529
0.000633165
4.21588e-05
9.4205e-05
0.00675674
0.00518369
0.000189157
0.0184839
0.000605825
0.000141775
0.0093537
0.0153838
0.00166404
0.00856249
0.00457675
0.000996118
0.00672747
0.00565651
0.00760725
0.00718331
0.00310188
0.00610348
0.00673382
0.000517378
0.00673069
0.0156459
0.00674149
0.00191608
0.00139559
0.000236832
0.00674179
0.00673959
0.00225457
0.00923187
0.00673057
0.00673214
0.00575661
0.00672571
0.00020629
0.000917194
0.00375785
0.00795001
0.00499999
0.00675128
0.00392357
0.00813718
0.000866041
0.0169786
0.0171338
0.000167293
0.00449186
0.00173383
0.0205085
0.00326859
0.000876047
0.00886967
0.000779069
0.0109405
0.00674652
0.00781357
0.000939065
9.04164e-05
0.00672232
0.00204298
0.00311209
0.000929148
0.00910027
0.00672829
0.00970537
0.00114668
0.000463383
4.19578e-05
0.00928355
0.000617939
2.09694e-05
3.8732e-05
0.00136995
3.44894e-05
0.0125941
0.00134128
0.00679492
0.000130441
0.000972859
0.0019259
0.000172007
0.00545527
0.00533378
0.0210187
0.0179474
0.00672585
0.0193159
0.00672718
0.000161487
0.00205558
0.0020791
0.00489363
0.00326144
0.00672783
0.000844718
0.00672574
0.0067445
0.000387807
0.00206522
0.00262133
0.000499746
0.00665099
0.0067261
0.0013275
0.000365953
0.00922743
0.00289795
0.000648801
0.000451921
3.8167e-05
0.000915415
0.00673964
0.000627568
0.0067469
0.000476303
0.00357751
0.0067337
0.00677845
0.00086816
0.0111709
0.0182711
0.000530128
0.000153172
0.00672355
0.000316597
0.0223672
0.00508344
0.00429638
0.000518014
0.010494
0.00094178
0.000835369
0.00102765
0.000170647
4.47512e-05
0.0187426
5.30436e-05
0.000704054
0.00290144
0.00674164
0.0012841
0.00311196
7.30398e-05
0.00315953
4.47599e-05
0.018552
0.00268416
0.00102412
0.0156442
0.016919
0.000446608
0.000208685
0.000381553
0.00675111
0.0160301
0.00677625
0.000104497
0.000785095
0.00673797
0.00146348
0.0129906
0.00027469
0.0015525
0.00081937
0.0215612
0.0107678
0.000225328
0.0067306
0.00296169
0.000383343
0.000271435
0.0133686
0.00672585
0.00163911
0.00261743
0.00527825
9.41798e-05
0.00672388
0.00253416
0.018147
0.00809918
0.000108087
0.00196218
0.00672727
0.0178888
0.000137431
0.00672435
0.000554821
0.00483681
0.00100602
0.00672782
0.0172772
0.00667579
0.000620006
0.0240053
0.00321649
0.000138884
0.000651253
0.0085813
0.000867183
0.00674447
0.00019242
0.00672716
0.00412
0.000722314
0.00019646
0.0067488
0.000280424
0.00673943
0.00672594
0.00255828
0.00110345
0.00175248
0.00350809
0.000107644
0.000164627
0.000428006
0.00611898
0.000478664
0.000210623
0.000544252
0.00672573
0.000199137
0.00672476
0.00672971
0.00672617
0.00673521
0.00492136
6.33438e-05
0.0067264
0.00672626
0.0117068
0.00589493
0.000615105
0.00449817
0.00674409
0.00551366
0.00332274
0.0195966
0.00337586
0.00149025
0.0154541
2.07608e-05
0.000569025
0.00672598
0.00672579
7.35807e-05
0.00672721
0.00672777
1.95496e-05
0.00672604
0.00273653
7.57826e-05
0.00024753
0.00482608
0.00173792
0.00100151
0.000589
0.0161497
0.00672547
0.0044948
5.01473e-05
0.00614811
0.000295172
0.000250891
0.000184159
0.000613343
0.00405267
0.00521185
0.00028485
0.00565222
0.00715834
0.00677792
0.00188423
0.000794669
0.00979833
0.00673151
0.00672628
0.0055662
0.000725918
0.0067342
0.00524392
0.0191728
0.00384949
0.00299326
0.0169935
6.15339e-05
8.43099e-05
0.00605839
0.00676774
0.00186193
0.0119062
3.43519e-05
0.00672636
0.00390938
0.00672535
0.000893591
0.00192104
0.0176007
0.000651145
0.0123312
0.000217876
0.00128219
3.47187e-05
0.00674255
0.0035718
0.00190848
0.000262087
2.2679e-05
0.000651214
0.00233176
0.000498534
0.00672481
0.0181655
0.000619552
0.0159114
0.0146543
0.00673321
5.50469e-05
0.00117749
0.00411062
0.00450819
0.00672655
0.000498302
0.00674746
0.000211866
0.000291386
0.00038164
0.00523101
0.000395117
0.00203938
0.00674037
0.0151673
0.00672574
0.000570749
0.00673314
0.00672535
3.9406e-05
0.0132255
0.00674996
7.0743e-05
0.00673077
0.0034775
0.0014411
0.00468846
0.000164539
0.000676044
0.0144679
0.00210285
0.00615035
0.0202592
0.00194549
0.000783281
0.00835857
0.00599442
0.00674765
0.000260651
0.00192863
0.000634699
0.00391671
0.00672288
0.000170223
3.43689e-05
0.000713162
0.00672641
0.0118943
0.0100654
0.00702143
0.000543753
0.000724092
6.81037e-05
0.00674584
1.88446e-05
0.000757482
0.00674633
0.00617768
0.00715667
0.000198407
0.0067254
0.000215515
0.00672548
0.00643287
0.0155898
0.00147779
0.000933615
0.00442376
0.0067395
0.0187006
0.0123385
0.00730347
0.000328998
0.00351593
0.00216308
0.00742613
0.00379809
0.00674915
3.71184e-05
0.00688609
0.000499349
0.00798387
0.000822865
0.0214208
0.0033171
0.00672578
0.0128176
0.00222787
0.00672554
0.017683
0.0179762
0.000361095
0.000238867
5.4995e-05
0.00230109
0.00153241
0.000388571
3.35432e-05
0.00112194
0.00672646
0.000939092
0.0170734
0.00674082
0.0117126
8.35159e-05
0.00392246
0.000562084
0.0123199
0.00673926
0.00343536
0.0181869
0.000101116
0.0101688
0.00185599
0.00674183
0.00672525
0.00672296
0.00161626
0.00209429
0.00107292
0.00256379
0.000233387
0.00674798
0.0171234
0.00678402
0.000295149
5.72132e-05
0.00099762
0.00122963
0.00472811
0.00115335
0.00191596
0.000499568
0.0160379
0.000211921
0.00264394
0.00673351
0.000302109
0.00067878
0.00436785
0.0205009
0.00672687
0.000716389
0.00882388
0.000682586
0.000217487
0.000261137
0.00202764
0.00675602
0.00982809
0.0111875
0.0127871
0.00673777
0.00672737
0.0035672
3.8797e-05
3.21462e-05
0.00673107
0.00673949
0.00106299
0.00270925
0.000124167
0.000509183
0.000126557
0.000637644
0.00021245
0.000415338
0.00551143
0.00672554
8.47719e-05
0.000930749
0.0041123
0.00675243
0.000102873
0.00946582
0.00608696
0.00657042
0.000197796
0.00673572
0.00674074
0.000600525
6.73177e-05
0.000243797
0.0103301
0.000190186
0.00189031
0.00411003
0.0177968
0.000119523
0.00348128
0.000348303
0.00173544
0.00672512
0.00511711
0.000487438
0.00179025
0.000101719
0.00569523
0.0168835
0.000193788
0.00674774
0.00649269
0.000449554
0.00272197
0.00303433
0.0067237
0.00054928
4.90852e-05
8.18104e-05
0.00245945
0.00672621
0.00265246
0.0119446
0.00672553
0.000250733
0.00672609
0.000660672
0.00672556
0.00423087
0.00122468
0.00872284
0.00225738
0.00142329
0.000267853
7.07027e-05
0.0189268
0.0194442
0.000260423
4.09237e-05
0.00362357
0.00488439
0.000617751
0.00458411
0.000267358
0.0213758
0.00321621
0.010932
0.0116829
0.0017443
0.000215861
0.00241272
0.0140466
0.000338379
7.56347e-05
0.0238924
0.000301609
0.000419937
0.0163291
0.000593447
0.00357015
0.00672489
0.00203866
0.00121778
0.000385597
0.000186294
3.27575e-05
0.00911453
3.03796e-05
0.0107222
0.000117093
0.00640394
0.0164004
0.00579116
0.000147163
0.00122696
0.0097322
0.00592019
0.000342725
0.00253804
0.0182301
0.00144528
0.00122552
0.00672782
0.00443869
0.00672452
6.61025e-05
0.000536386
0.00238709
0.0169573
0.000416302
9.7475e-05
0.00162196
0.00674008
0.0218328
0.0116095
0.00672655
0.00316003
0.000848527
7.78567e-05
0.00394963
0.0067259
0.00672614
0.000295721
0.000140459
0.00140323
0.00672774
0.00567713
0.00404966
0.00707039
0.000250089
0.0112512
0.000946507
0.00185336
0.00286527
0.0129957
0.00672446
0.00325666
0.000245315
0.000157108
0.00327458
0.000214255
0.00146392
0.00220079
3.34031e-05
5.85893e-05
0.00195325
0.000763829
0.0187117
0.00673531
0.00134296
0.0128369
0.00672855
0.000144144
0.000969785
0.00672913
0.000784552
0.00744337
0.00672734
0.000156459
0.00360298
0.0017859
0.00605506
0.0169636
0.00672855
0.0193302
0.000575292
0.00676115
0.000250718
0.000503938
0.00673002
9.63291e-05
0.00855998
0.00672615
0.000695435
0.0211233
8.00867e-05
0.0073641
0.00458093
0.00376628
0.00117757
0.00071166
7.96501e-05
0.00672328
4.17614e-05
7.52438e-05
0.00277255
0.00675561
0.00675503
0.00380394
0.00672524
0.000219692
0.00103445
0.00102185
0.000550106
0.000393622
0.0170143
0.0203329
0.00305312
0.00326236
3.00144e-05
0.0161644
0.0130635
0.00055271
0.00672602
0.000824789
0.000106688
0.0101997
7.96675e-05
0.00385338
5.01481e-05
3.86125e-05
0.000904434
0.000187835
0.00398699
0.000313367
3.17149e-05
0.00622636
0.00679299
0.0067262
0.00606204
0.000349974
0.0039025
9.40562e-05
0.000508266
0.00303338
0.00565586
0.00673803
0.00673085
0.00504398
0.0067369
0.000137533
0.00136124
0.00355659
0.000170439
0.00023237
0.0179462
0.00613777
0.00270597
0.00673646
0.0139916
0.00191615
0.00155755
0.000580663
0.000378701
0.000135559
0.00011051
0.00241423
0.00198591
0.00286457
0.000616028
0.000348184
0.00136741
0.0187996
0.00170699
0.000706619
0.00279666
0.0171952
5.14248e-05
0.00303983
0.00673633
0.00166882
0.00672638
0.00150907
0.000673856
0.00208264
0.00295788
0.0067231
0.00429504
0.00127412
0.0185347
0.0034193
0.00784781
0.000800503
0.000133128
0.000207966
0.000509068
0.000234739
0.00186026
0.000566504
0.012513
0.000472712
0.000329738
0.00461
8.63062e-05
0.000188008
0.000376518
0.000636423
5.9924e-05
0.0191303
0.00672987
0.0192686
0.000503752
0.00533178
0.0200826
0.000611018
0.000152255
0.00947392
0.000211117
0.000569539
0.000718108
0.000423296
0.000936594
7.61685e-05
0.00672721
0.00317436
0.000202654
0.00571719
0.000206054
0.0047521
0.000235531
0.00673839
0.00900057
0.0198597
2.89227e-05
0.00218482
0.000690901
0.000153777
0.000171847
0.00286349
0.00287
0.00136689
0.00125558
0.00679291
3.65365e-05
7.81204e-05
0.00672861
0.000193123
0.00224671
0.0117293
5.73336e-05
0.00312522
0.000962608
0.00012836
0.00354444
0.000321996
0.000430179
0.00796795
0.000104349
0.00679006
0.00672682
0.0115937
0.0196202
0.00659542
0.0114567
0.0061648
0.00678739
0.000130058
0.0102172
0.000387802
0.00554659
0.00675299
0.00318404
0.00451432
0.00675334
0.00675587
6.9937e-05
0.00352808
0.0170185
0.00115528
0.0012259
0.00360274
0.00672777
0.0037089
0.000587501
0.000981022
0.0104844
0.00904938
0.000645465
0.0166466
0.0025778
0.00832486
0.0178281
0.00425514
0.000849615
0.000322214
0.0133227
0.00641039
0.00675409
0.00675618
0.000355419
0.00240862
0.000420989
0.00672353
0.00672772
0.00648353
0.00378329
0.00792382
0.00117962
0.000144925
0.000398307
0.0034443
3.45477e-05
0.00677217
0.000480694
0.00120688
0.00877481
4.19842e-05
0.000859628
0.00718919
0.0183935
0.00614145
0.00100545
4.59458e-05
0.0067226
0.00673673
0.00284302
6.57736e-05
0.00672629
0.00673687
0.0104992
0.00708833
0.00672472
0.000164239
0.000484986
0.01256
0.00672776
0.00119036
0.000299092
0.00788542
0.0077143
0.0125162
3.5393e-05
0.0025752
0.00396044
0.00672685
0.00675373
3.33801e-05
0.00672752
0.000471843
0.0075063
0.0180996
4.43244e-05
0.00412969
0.00117592
0.010743
0.00317469
0.000524901
0.0194518
0.000707024
0.00227803
0.00672635
0.0115252
0.00672634
3.33159e-05
0.000262566
9.12913e-05
0.00183315
0.000557684
0.0179214
0.00676209
0.00674145
0.000360516
0.00672625
0.0177394
0.00169587
3.4839e-05
2.22552e-05
0.000143359
0.00039017
0.00674658
0.000107467
0.00672966
0.00027489
0.00674127
0.00091762
8.75268e-05
0.0039563
0.00238361
0.00672638
0.00132434
0.0137809
4.86778e-05
0.00682333
0.0121446
0.00829434
0.00544959
0.00957958
0.0067252
0.00723811
0.00684075
0.00672285
0.000822601
0.000137362
0.000389265
0.000925093
0.000162236
0.00441973
3.40576e-05
0.000358418
0.00108232
0.0094944
0.00490859
0.00140031
0.000287358
0.0203734
5.96989e-05
2.2863e-05
1.02489e-06
0.000627754
0.00449149
0.00254119
0.0117187
0.00672761
0.00672614
0.000567864
0.00260083
0.00451313
0.00857963
0.00672704
0.00444177
0.0211598
0.0011321
0.000214327
0.018742
0.00668676
0.0002546
8.0129e-05
0.00682079
3.14471e-05
0.000598511
0.00674109
0.00181171
0.000140821
0.00672288
0.00165035
0.000300913
0.00409157
0.00674337
0.000536612
0.000578404
0.000383194
0.000181466
0.000314314
0.000873948
0.000542442
0.00205627
0.00857384
0.0188605
0.00672631
0.000280327
8.05957e-05
0.000111729
0.00609356
4.89411e-05
0.00208793
0.000591345
0.00160027
0.00208129
0.00672565
0.000516769
0.0223547
0.00672644
0.00529513
0.00199501
0.00672556
0.000100492
0.00673096
0.000874136
0.000104151
0.0063714
0.000434525
0.00214277
0.00226936
0.000802158
5.61084e-05
0.000432837
0.00541182
0.00674994
0.0067561
0.000220434
0.00672353
0.00673108
3.10731e-05
0.0182888
0.0067375
0.00388
4.57562e-05
0.00672502
0.00677444
0.00672163
0.00391248
0.000637292
0.0177372
0.000184374
0.0125641
0.00112936
0.00121428
3.78318e-05
0.00672457
0.00106415
0.000855025
0.0187035
0.0143601
0.00100589
0.00115102
0.00678858
0.000772099
0.0176287
0.00672741
0.00042484
0.00672947
0.00672627
0.00576058
0.0194482
0.00580161
0.00672364
0.00672844
0.0210374
0.0160214
0.00085169
0.00672559
0.000853224
9.1278e-05
0.0144121
0.021509
0.00672578
0.00393322
0.00672672
0.000447155
0.00642127
0.000379574
4.59146e-05
0.000960864
0.000627513
0.00313845
0.00672581
5.1107e-05
0.00672457
0.00982012
0.00436506
0.00672724
8.2503e-05
0.0024281
0.000221921
0.0015246
0.00676552
0.0105655
0.00673647
0.000676431
0.00672999
0.0018541
0.00672242
4.13911e-05
0.00675202
0.00549967
0.00672753
0.000667899
0.00464322
0.00322082
0.00375286
0.000685116
0.0189483
0.00716314
0.000574582
0.0119348
0.000386
0.000348705
0.000481724
0.0080398
0.0165675
0.00672953
0.00676581
0.00672642
0.00499841
0.00910363
4.78966e-05
0.00915328
0.00354071
0.000535612
0.0191325
0.000187227
0.000850469
0.00217615
1.39111e-05
0.00114731
0.000258636
0.000368365
0.000652367
0.000800317
0.00440191
0.00141771
0.00187153
0.00602385
0.00673468
0.0060661
0.000131467
0.00672567
0.00672725
0.00172964
0.00294273
0.00672629
0.00183246
0.00730899
0.000452058
0.00974403
6.79343e-05
4.8681e-05
0.0067362
0.00128269
5.76256e-05
4.32006e-05
2.11096e-05
0.000491089
0.000134551
0.000192983
0.00677776
5.26175e-05
0.00672588
1.0831e-05
0.00673621
0.00673514
0.000427584
0.000193289
0.00223328
0.00036042
8.6107e-05
0.000576615
0.00508183
0.00672625
0.000479065
5.91891e-05
0.00672698
4.03325e-05
0.0157407
0.0131937
0.000327527
0.00526934
0.000887098
0.0152048
0.000217725
0.0168615
0.01079
0.00231205
3.07342e-05
0.00672566
0.00828703
0.00415476
0.0155531
0.0176049
0.000717502
0.0125803
0.0127115
0.00116457
0.00677158
0.000481008
0.00674054
0.0106934
0.00861645
0.000582618
0.000245715
0.00672633
0.00129734
0.00120794
0.00876197
0.00856857
0.000545761
0.00062163
0.0218378
4.7367e-05
0.000554152
0.00038012
0.000142064
3.66219e-05
0.00603974
0.000193163
0.00672587
0.00677761
0.00696713
0.0162894
0.000526327
0.0001163
0.000753299
0.0014373
0.0067685
0.00546369
0.000270148
2.90268e-05
0.000186587
6.09399e-05
0.00673956
0.00304303
0.00495899
0.00416699
0.00206012
0.00345046
0.000749955
0.000143364
9.27101e-05
0.000362628
0.000379828
0.000467315
6.76889e-05
0.00675105
4.25193e-05
0.0208704
0.000680746
3.96732e-05
0.00672717
0.0081076
0.00993287
0.00673599
0.00305178
0.000565304
0.0158844
0.0001223
0.00463276
0.000142492
0.000761515
0.000436617
0.0111962
0.00160772
5.48026e-05
0.00150727
0.000900865
0.00268369
0.00500588
0.0165803
0.00393286
0.0038999
0.00106115
0.00672476
0.00106195
0.00672282
0.00604968
0.0135557
0.00672295
0.00112762
0.00677049
0.0226336
0.00481537
0.00673418
0.00672626
0.00638907
0.000589627
0.00662439
8.09288e-05
0.00102444
0.00104009
0.000174718
0.000102734
0.00678425
0.000454753
0.0005069
0.0115752
0.00935505
0.000230884
0.00133771
0.0134373
0.000801932
0.0187996
0.00675837
0.00672873
0.00673658
3.84574e-05
0.000818211
0.000897882
0.000790962
0.000142548
0.00672595
0.000239529
0.0197324
0.0182937
0.00672617
0.000656106
3.37477e-05
0.00673544
0.0178594
0.0171878
0.00459231
0.0146487
0.00429848
0.00673907
0.00551025
0.00672292
4.46157e-05
0.0121445
0.0183707
0.000298199
0.00674077
0.000434624
0.00291653
0.0011113
5.51164e-05
0.0130368
0.00130347
0.00784857
0.0137958
0.00741668
0.000455994
0.0218537
0.000160763
0.0199282
0.00672622
5.18437e-05
0.00711965
0.00102924
0.000705304
9.46785e-05
0.00527046
0.000712386
0.00737253
3.54881e-05
0.00127356
0.00674637
0.000588241
0.0124295
0.000445165
0.00193612
0.0133947
6.6874e-05
0.00331406
0.00238534
0.0169852
0.0039498
0.000564814
0.000325288
0.00035647
0.0195169
0.000686222
0.0123803
0.00672446
0.0133855
0.00614651
0.00672587
0.000639355
0.0033475
0.000125514
0.000473467
0.00674912
0.000426674
0.00950991
0.00045563
0.00186206
0.00346659
0.000309772
0.0067218
0.00673526
0.000211559
0.00673303
0.000126554
0.000525288
0.00074773
0.00163
0.000422864
0.0126375
0.0197634
0.00673548
0.0116022
0.000236777
0.00530761
0.000121054
0.000521827
0.0123053
0.00344987
0.00100118
3.13744e-05
0.0067359
0.00672466
0.00057925
0.00277379
9.5509e-05
0.00885813
0.000582977
0.00171477
0.0105179
0.00672545
0.00787944
0.0168698
0.00166212
0.019785
0.0113921
0.00672255
5.64545e-05
0.000659284
0.00130027
0.000455434
0.000493279
0.00672915
4.12276e-05
0.00227727
0.00836858
0.00106781
0.0132034
0.000843285
0.000597927
0.000167432
0.00694978
0.00672781
0.000268002
7.01475e-05
3.31038e-05
0.000349331
0.00657982
0.000322888
7.11694e-05
0.0200286
0.00307942
0.00946902
0.000414349
0.00672654
0.00672585
0.00672417
0.000202288
0.020641
0.000587767
0.0134398
0.0107713
0.00332213
0.000402606
0.00672528
7.79587e-05
0.00680251
0.00909012
0.00672605
0.000910942
0.0164797
0.00151023
1.38569e-05
0.000105399
0.00162493
0.00736617
2.96577e-05
0.0011501
0.0200079
0.000455916
0.00578168
4.46993e-05
0.000151078
0.000221654
0.0211149
0.00115359
0.0020197
0.00672657
0.000378893
0.00941806
0.00307279
0.00246368
0.0178996
0.0194208
0.00673561
4.17873e-05
0.0113852
0.000296461
0.000622767
0.00517035
0.0243942
0.00116814
0.0189203
0.00463066
0.00672552
0.0166985
0.00194028
0.00453936
0.00605759
0.00673436
0.00673255
0.000722155
0.000106534
0.00672608
0.00688537
0.00826857
0.0037423
0.0107693
0.00101083
0.000157228
0.00120853
0.0028493
0.00137263
0.00104913
0.00185241
5.83736e-05
0.000673685
0.00446052
0.00040781
0.00190638
0.00676623
0.0174368
1.69364e-05
3.77683e-05
0.000332236
0.000474229
0.000153761
5.10555e-05
0.000166576
0.00672268
0.00905889
4.53756e-05
0.0110498
0.00672624
0.000276116
0.000191449
0.00234208
0.000621142
0.000431544
0.000693263
0.00672612
0.0159179
0.00013953
0.000394764
0.00134235
0.0154921
0.000670075
0.000366735
0.000502793
0.0169694
0.00672763
0.00928171
0.00616001
0.000256802
0.000652428
0.000732148
0.000738457
0.00674648
0.00255509
0.0102688
0.00526093
0.00136358
0.00638063
0.00950283
0.0173717
0.000830225
0.00328363
0.00182091
0.0167812
7.38024e-05
0.000734744
0.000494613
0.00111092
0.000261289
0.00672404
0.000475484
0.00734383
7.85798e-05
0.00846229
1.93874e-05
0.00402907
7.75491e-05
0.00127146
0.0190442
0.00672986
0.00672953
0.017986
0.00027519
0.000901553
0.00673671
0.00882181
0.000545329
0.0195618
0.00198578
8.16787e-05
0.000332102
0.0051449
0.0187933
0.00672585
0.00676981
0.00127975
0.00672609
0.000297815
0.00089938
0.000958918
0.000779432
0.000433259
0.00121656
0.0049479
0.000483736
6.32299e-05
0.00672684
0.011104
0.00785338
0.00672594
0.00672669
0.00672956
0.000659357
0.000275361
0.0054656
0.00157878
0.000401419
5.19859e-05
0.00773991
0.0246897
0.000792488
0.000262822
0.00673687