/*--------------------------------*- C++ -*----------------------------------*\
| =========                 |                                                 |
| \\      /  F ield         | OpenFOAM: The Open Source CFD Toolbox           |
|  \\    /   O peration     | Version:  v2012                                 |
|   \\  /    A nd           | Website:  www.openfoam.com                      |
|    \\/     M anipulation  |                                                 |
\*---------------------------------------------------------------------------*/
FoamFile
{
    version     2.0;
    format      ascii;
    class       volScalarField;
    location    "300";
    object      ddt0(omega);
}
// * * * * * * * * * * * * * * * * * * * * * * * * * * * * * * * * * * * * * //

dimensions      [0 0 -2 0 0 0 0];


internalField   nonuniform List<scalar> 
18758
(
0.00180496
0.206774
-2.92502e-06
0.00207886
0.000265403
3.80765e-06
-1.9843e-06
-1.29632e-06
0.000327715
0.000321315
0.119693
-0.0224143
-0.228042
-8.19901e-06
-3.17406e-06
-3.43805e-07
0.0479572
-8.9761e-07
-2.51909e-06
-0.000222945
0.426107
0.436334
4.35854e-06
-1.6364e-06
1.43991
-0.136485
-0.12484
-0.00606874
0.00126125
0.23155
-0.246915
0.189534
-1.26578e-05
1.99362
-0.000490731
0.257426
-0.269116
-3.61823e-05
-0.566583
-2.28101e-05
-0.0126596
0.000525032
0.0108972
1.5867e-05
1.82751e-06
-0.501232
0.000385244
0.00462341
-1.08826
-0.00263238
0.0133424
1.06474
-0.00432694
7.61545e-05
-0.095528
-0.166841
-6.6732e-06
-0.00018215
-0.00089123
-3.86439e-06
-2.27255e-06
1.78736e-05
0.147327
0.0253041
4.91388e-07
0.338239
2.02774e-06
-9.11348e-07
-0.00753738
-3.37778e-07
0.892075
-0.253175
3.06616e-07
-0.000238574
0.00918781
-0.285505
2.68105
0.232746
0.000398081
0.0358865
0.0126631
-0.468409
0.185069
0.000226291
-0.000355095
-0.0216674
0.000314266
-0.000275883
0.0463893
-0.0271163
0.0152538
-6.40923e-07
0.008701
-1.25023
-3.8708e-08
9.92171e-07
1.97365e-06
0.00415217
0.250509
2.31707e-06
-0.33222
-0.000625904
-1.21112e-06
9.93858e-07
0.395724
0.484996
-0.00104251
0.0354206
0.0310753
-0.124254
-9.25533e-07
-0.0609464
0.000382437
1.8582e-06
-0.000780727
-0.302744
0.00343501
-2.39445e-06
-1.55828
-0.000872992
-1.45875e-06
2.3675
-0.000345139
-1.26637e-06
0.752826
2.44044e-05
2.84343e-05
-8.00471e-07
-0.00790439
0.837723
0.0010841
-2.1738e-06
0.000344236
0.134076
-1.30823e-06
-1.40268e-06
0.540239
7.43416e-05
-0.00950294
-0.0145761
-0.00264867
-0.0907654
0.000872165
1.59432
0.885951
0.00409737
0.269768
-0.00521033
0.146117
0.310573
0.0992699
0.389394
2.44869e-06
-0.00100425
-0.0131819
-0.0496795
0.018552
-0.00445607
0.00162019
0.197415
0.327565
-1.77914e-06
-0.84535
0.266481
-0.621299
-1.13264e-05
-1.72985e-06
-0.0558293
0.676209
-0.0516774
-0.192119
-3.22778e-06
-0.0105953
-0.0377427
0.0136718
-4.31369e-06
-1.45323e-06
0.0975922
2.24828
5.90705e-05
-1.54555e-06
8.46003e-05
-0.044863
9.04304e-06
-6.08476
1.0737e-06
0.187318
-0.000256699
-1.48943
-0.359926
0.279005
1.15235e-06
-0.00245593
3.55807
-5.80671e-07
-4.04885e-05
-0.0233463
5.97032e-07
-1.42864
2.50583e-06
-0.000978846
0.0102563
1.1919
-3.71497e-07
-7.33383e-07
-1.11755
-4.87903e-06
-0.00130103
0.335916
0.952382
2.97703e-06
-0.00463314
-0.00148929
-7.24227e-06
-0.00013111
2.89254e-06
-6.60795e-06
0.00108477
2.85021e-06
-0.121162
2.34691
2.73882e-05
-0.000384924
0.0206323
1.52131
0.0173891
0.0125752
0.0167095
0.304085
-4.35563e-06
-0.147577
0.0054595
0.0134823
-1.29771e-06
3.96597e-07
4.30285e-05
0.0112638
-0.788329
-0.0311105
-1.10932e-05
-1.21313e-06
0.0108554
0.0024737
-1.23723e-06
-0.294841
-0.0211242
5.33911e-07
-8.77076e-07
-0.000138744
1.29362e-06
-0.314627
3.07765e-05
-0.0180845
3.3181e-05
2.55963e-06
-0.0281523
1.17399e-05
-0.00335537
-7.59659e-07
-0.167692
0.000990527
-1.79182e-06
5.81949e-07
-0.000934655
0.187329
-0.128632
-1.38765e-06
-0.00717731
-7.92138e-08
5.57775e-06
-3.37161
1.99238
4.99873e-06
-5.62802e-06
-0.000880095
-0.000119379
0.000568183
2.47483e-06
-5.1219e-05
-1.48963e-05
-6.611e-07
-2.13159e-06
-1.1999e-06
0.241796
-2.08803e-06
-5.31601e-06
-1.45328e-07
-0.00213907
1.00602e-06
9.63793e-07
-9.08544e-07
-6.11289e-05
-5.32323e-06
-2.28511e-06
-2.20629e-06
-0.000336432
0.0250883
-1.23605e-06
-1.96815e-06
0.883323
0.000193936
-1.84679e-06
-1.89689e-06
-1.07421
-0.148989
-1.6734e-06
-0.00174496
0.533485
3.04582e-05
-0.0957477
-1.06517e-06
-1.07062
-0.0134172
0.0044521
0.00694789
1.86741
-1.64546e-06
-0.07311
-0.00421556
1.97884e-06
0.00601605
0.00252644
0.484838
-2.6098e-07
-1.4144e-06
1.00404
-0.0140957
-9.17278e-07
0.264799
0.00687513
0.00330758
0.123171
-3.28477e-07
7.59071e-06
-2.80115e-06
1.90677e-06
1.05038e-05
0.000731109
-2.08498e-05
-4.22934e-06
8.09072e-06
-3.15176e-05
2.69511
-1.08845
0.000271682
-0.479864
0.229306
-9.81435e-07
-0.00294667
-0.124793
1.11855
-0.0770912
-0.00139392
1.17885e-06
-0.145527
-0.219232
-0.00151971
-2.15194e-05
0.00294931
-7.65275e-06
3.05849e-05
-0.0219771
3.47689
-0.0739011
0.0142113
2.36236
5.85236e-07
0.000431168
4.79375e-05
0.00025678
-0.904373
0.0785156
0.0740839
-0.0972272
-0.0469041
-0.0218523
2.12512e-06
0.504043
-0.00498078
-0.1082
-0.0622721
8.0516e-07
-1.50358e-06
0.756339
-0.0574246
-0.0220653
-2.26508
0.522078
-3.45953e-05
-0.0476018
-0.390524
-7.8245e-07
1.3979e-07
-4.42052e-05
2.66484e-05
-1.25259e-06
6.58904e-06
1.89334e-06
-4.69765e-06
4.22456e-07
0.000217878
-0.000299102
-0.401943
0.00205732
-0.299512
-0.325475
0.600641
-0.374362
0.000811981
-0.000151622
-3.19797e-07
-0.00162178
1.28624e-05
2.60813e-05
1.14165
-0.00299917
-0.355469
7.46694e-06
3.00207
1.71538e-06
0.000196509
-1.7399e-06
-1.1004
-0.435437
-0.064529
-2.60206e-06
0.14496
-0.0150605
-8.82616e-06
-0.000112059
2.99688e-06
0.0167231
1.84611e-06
-1.93914e-06
-0.63406
0.00108981
1.61185e-05
-8.83033e-07
-3.82579e-05
-4.56617e-05
-0.827177
-0.049041
1.72049e-06
0.434456
-1.64402e-06
0.00355141
0.00542802
1.22523e-06
-0.358851
1.57105e-06
-0.000161251
-2.13339e-06
-0.0473585
-0.000724914
2.08922e-06
-0.521212
-0.153811
3.70962e-08
0.000486283
-9.50755e-05
1.50961e-08
7.02247e-07
-1.4674e-05
0.0810372
-0.0113815
1.23269e-06
0.00135061
1.134
0.0614871
0.0922913
-0.00585589
0.090475
-1.58265e-06
-0.00144296
0.00515597
-0.000466789
-8.76167e-06
-0.101451
-0.183888
-0.00294293
-9.82102e-07
-3.49411e-06
1.16369e-06
1.22749e-06
1.09142e-06
1.34764e-06
0.0270678
1.2163e-06
-8.98248e-07
-0.00333445
-2.93482e-06
-4.07433e-07
-3.03195e-06
-0.000113283
-0.165947
0.128128
-3.99393e-06
-0.0647405
1.41076e-06
0.000563039
-0.00437171
-0.0735498
-0.220535
-1.15357e-06
1.44886e-06
-0.0383297
0.145078
-0.0559172
-6.44295e-06
0.14287
0.234114
-2.43206e-07
9.92025e-07
0.28938
-0.000137186
-0.0316834
-0.0550277
-0.000163621
0.000373227
-8.64868e-07
-3.60282e-06
-4.40557e-06
1.62684e-06
-5.23368e-06
3.94466e-06
-0.141645
-2.6805e-07
-0.388336
2.0931
-1.78905e-07
-2.86754e-07
1.11675e-06
0.000504836
-0.000381028
-0.0298372
2.26307e-06
-0.29208
0.000685425
-0.000439697
4.01561e-06
0.000137654
-0.000135696
-7.7596e-06
-6.08156e-06
0.472325
-5.59511
-7.4445e-07
-4.67853e-06
-5.24277e-05
0.0115566
-1.87535e-06
-5.4833e-07
4.12611e-06
-1.10823e-06
-5.56024e-06
2.834e-06
-1.23311e-05
-4.18287e-08
-0.000926437
2.34134e-06
1.48352e-06
0.00938909
-0.0665711
-0.00115372
2.90482e-05
-1.15526e-06
-9.22319e-07
-1.44734e-06
-3.27558e-05
0.0759511
-0.153244
6.13264e-07
0.207101
-1.52655e-06
-0.00229567
2.75587e-05
-2.09146e-06
0.00266736
-3.05925e-08
8.8747e-07
-0.427116
-3.24357e-06
-4.88965e-05
0.0159336
-2.39211e-06
3.7738e-07
-1.5379
-1.86665e-06
0.0384907
-0.0961529
1.45502e-06
-1.50944e-06
0.00021717
-7.52158e-05
-0.000302057
-3.91116e-06
-0.238785
0.14276
0.0446199
-6.64366e-07
0.90545
-2.0232e-07
3.21027e-06
1.54079e-06
-0.00142231
-0.463289
0.00597603
0.000156489
-7.96012e-06
-0.000939544
1.83426
0.0498154
9.04442e-07
-0.00145789
5.6922e-05
-0.635042
0.00069166
-0.0124316
1.00507e-06
0.000866877
0.00206995
1.56922e-06
5.94691e-07
-1.86533e-06
-1.05904e-06
0.000296418
-0.00192375
-0.0089436
-0.316049
-0.000994879
2.29199e-05
1.88691e-06
-9.54285e-07
-0.359199
1.26339
-2.32387e-05
0.000864575
0.571697
0.529756
2.98141e-06
2.43235e-06
0.0027108
-0.0324276
-7.4361e-08
-0.10446
1.22545e-06
-5.11689e-06
-0.00126355
-1.06208e-05
-3.28239e-06
3.21338e-05
1.07432e-07
0.00011662
-0.000126059
-0.00258137
-0.0262526
3.86654e-05
-5.90785e-06
-0.47817
4.34053e-07
-3.27869
-0.19702
3.41173e-07
0.782572
0.000328305
3.89559e-05
0.591043
-0.034408
-0.0321011
0.221874
-7.17859e-05
0.210003
3.67539e-08
0.643159
0.712492
-0.000775328
6.05797e-05
-0.0406415
3.29899e-05
0.00265107
0.0561753
-0.0316098
4.46333e-06
0.269354
2.56331e-06
0.0022092
-0.00182253
-1.3908e-06
8.72128e-06
2.89606
-0.022264
-0.000431139
-3.42903e-05
-8.37217e-07
-1.56729e-06
-0.000129226
0.000248308
0.00552356
-8.05449e-06
-1.05818
-1.28073e-05
3.13461e-06
0.000262915
-9.50505e-07
0.0452391
-1.29525e-06
-1.0824e-06
-3.19249
-8.67064e-07
-6.38703e-05
0.00742933
-0.0143561
0.0206165
1.67947e-06
4.39191e-06
-0.000480233
7.81221e-06
-0.0135753
-3.68123e-06
-0.000167672
1.92098e-05
-3.01354e-06
-3.69788e-07
0.19824
-1.06842e-06
-0.0335616
0.00441068
3.52799e-05
0.470594
3.17262e-07
-0.000740432
-0.000440874
-0.480237
-5.87253e-05
-0.174773
0.0257468
-9.67077e-07
0.0473197
-4.3472e-07
0.0152958
8.45877e-06
1.10198e-05
0.91999
-0.0659935
-8.02796e-07
-4.80188e-06
-2.8281e-05
1.56862e-06
1.69841e-06
-0.0887798
-0.126034
-1.01956e-05
1.66187e-06
-5.21546e-07
-0.973501
0.0244851
-0.0683224
-1.19323e-07
-0.0171654
7.88968e-06
5.1042e-06
0.00178295
0.200451
8.5583e-07
-8.84568e-05
-0.086434
-0.000413302
-0.159046
2.03057e-06
-7.03953e-05
1.21403e-06
-1.55491e-05
0.00027374
1.54086e-06
-0.00195345
1.43947e-06
0.157162
8.4318e-08
0.000209688
-0.00376699
-0.0257196
0.00166175
4.32928e-08
-3.49334e-06
0.00172403
-0.00495161
0.000490285
-2.85458e-07
6.43601e-07
-0.000458728
-0.340294
-0.00343348
-8.61005e-06
-8.18059e-07
-5.67418e-05
-4.26005e-06
0.000116754
1.12745e-07
-2.58836e-06
0.092799
-9.3546e-07
5.22908e-07
-0.00310992
-1.12625e-06
-0.0233792
-0.000763051
2.60912
0.226934
-0.0553121
-0.156946
-8.51562e-07
1.13649e-06
-6.74775e-05
-1.21284e-05
8.55157e-07
-1.24213e-06
1.10409e-06
2.02832e-06
0.156191
0.024712
-0.0588624
1.00897e-05
1.19564e-06
0.0011635
-0.000322389
-0.00237279
2.80935e-06
0.000120362
-1.74029e-05
-0.349744
0.573928
-0.450649
7.01593e-07
-0.00772867
-0.0100421
-0.146932
-0.303698
0.600927
-7.34372e-05
-0.00112039
6.40251e-05
2.46053
-5.24535e-06
1.7526e-06
0.00640454
0.0978556
-4.61644e-08
-0.0196201
0.0592634
-7.17618e-07
2.06883e-06
-1.11815e-06
-5.33429e-06
-2.23866e-06
-6.11983e-05
0.00117816
-3.00386e-06
-1.44239e-06
-0.310097
-0.428834
-2.92246e-06
-0.107619
-0.00989019
1.96777e-05
-0.000113613
-1.15662e-05
1.04202e-06
-1.85189e-05
2.28453e-05
2.01398e-06
-2.23921e-06
-5.48879e-05
1.6044e-06
1.29821
0.000268946
1.85168e-06
-4.05301e-06
-0.429444
3.74768e-06
1.48324e-06
-0.771942
1.1438e-06
-0.000811352
2.24765e-05
5.85769e-07
3.95948e-07
2.82323e-06
-0.000203969
0.00195575
3.85249e-07
-0.0550394
-0.00112404
0.0133847
0.735
-4.81269e-05
0.0138365
-1.58752e-08
-0.017939
-4.53447e-05
-3.86721e-06
-0.00992651
-0.0379656
1.45644e-05
0.0500096
-0.0794256
1.43894e-06
-0.000592779
1.46341e-06
-1.67407e-05
0.000176667
5.21463e-05
8.22284e-07
-0.0667747
7.67278e-07
-7.25874e-06
0.0930919
3.04229e-06
7.94635e-07
4.39322e-07
1.7515
-2.82348e-06
1.43582e-05
0.00148594
1.67643
0.00646324
-0.0254989
-0.0284454
-3.91663e-06
-1.272e-06
1.07113e-06
0.126323
2.56423e-06
8.74395e-07
2.3327e-05
-1.16477e-05
0.0142445
-2.08876e-06
-3.2742e-06
0.0135464
1.34893e-06
-0.0132448
-0.248162
-1.23903e-06
-3.24861e-06
0.945759
-9.35228e-05
0.0328965
-0.525786
-8.38926e-07
1.53825e-06
-0.107527
2.77967e-07
6.12165e-05
-0.0215132
-8.22882e-07
-0.0460148
-8.89056e-07
-4.68391e-06
-2.41389e-06
0.000231324
6.04188e-05
0.152351
-8.40811e-06
1.48043e-07
0.00317745
0.0277406
0.00182894
-0.000691754
-0.063272
-0.503893
1.84925
1.1185e-07
-0.401028
-1.95491e-06
0.276543
-0.117678
1.39841e-07
0.000757456
-8.39971e-06
0.0173315
1.89553e-06
-0.790971
2.16205e-06
0.467126
-0.0405502
8.37385e-07
5.21615e-08
-1.04691e-06
0.0519773
-0.0119757
-7.17872e-07
-0.0911701
-6.14407e-07
7.2056e-07
0.0707985
-5.62846e-07
-0.0745741
2.24283e-06
6.53774e-05
-5.28359e-07
2.33407e-06
3.44175e-07
1.95048e-06
-0.00012954
-0.00170722
-0.000502331
0.00209299
1.52172e-05
-2.09775e-06
-0.0404979
-1.21169e-06
0.241902
-1.83538e-05
0.122821
0.00036838
0.230748
-3.0396e-06
-7.24693e-06
7.55097e-07
0.0298456
2.67413e-06
-0.200286
0.00581182
1.22913e-06
-7.27312e-05
-4.19823e-07
-7.06862e-07
-4.09821e-05
-6.03369e-06
-0.0299295
-1.16757e-06
-7.50136e-05
3.87916e-06
4.06351e-06
-0.287954
-0.0301133
7.09736e-06
1.00992e-07
0.000381821
1.04614e-05
2.00056e-06
-0.000912513
-2.35076e-05
-6.71754e-07
-2.30375e-06
1.82966e-06
-0.153262
-0.020426
7.15014e-07
-3.94093e-06
-0.686905
-7.84264e-05
-0.128123
2.33078
-3.86366e-06
-1.30616
2.48239e-06
-1.67479e-05
-0.000113368
-7.37577e-05
-0.00830033
-1.10694e-06
-0.000965687
0.0110076
0.00358331
-0.550174
-0.0956172
0.68339
-0.00059718
-3.10156e-08
9.38859e-07
-0.0760123
-9.69298e-06
1.92809e-06
0.000843473
-0.0880684
1.94572e-06
-1.11302e-06
0.0518231
0.000185876
0.000234449
0.000256674
3.29108e-05
0.00542103
8.31807e-07
-0.00017498
3.98201e-06
-0.000258319
0.000422628
-6.68758e-07
1.85961e-05
-0.28126
2.00572e-06
-1.22997e-06
-0.0138314
3.25669e-07
1.70844e-06
-1.14078e-06
3.69854e-05
0.00010354
0.885667
-0.0146385
-0.0565544
-0.0151841
-0.535286
-0.0017764
0.000162742
0.177324
-0.0452613
6.12151e-06
-3.90574e-05
-1.77693e-07
7.25632e-07
3.48213e-05
-6.52608e-05
0.00458084
0.00618088
1.92095e-06
-2.78538e-07
-0.000813927
0.000250222
0.0285866
-1.25575e-06
-9.31461e-06
1.51912e-06
-0.0258479
0.0509418
-0.000315073
0.18101
2.18445e-06
1.9571e-06
0.00457441
-0.00132412
1.9057e-06
0.0123642
2.19643e-05
0.00286127
0.00649257
0.00337209
-3.51518e-05
1.67946e-06
2.29891e-06
1.05872e-05
-2.44684e-06
-0.0100192
0.00108933
0.0284424
0.0660084
0.246297
2.047e-05
-0.81388
0.0482557
-0.0719417
0.0232911
-0.147099
0.000334127
-0.174599
-0.0103307
-0.000292521
-5.71337e-07
1.17984e-06
6.13821e-06
-0.00108552
2.18386e-07
1.19035e-06
-0.0728467
0.347101
0.368499
-0.0933875
0.00821373
-0.0248194
-0.00036054
4.08231e-05
-1.90062e-06
0.329265
-0.00574323
2.46475e-06
0.00115799
-0.426684
-0.32896
0.65554
0.000288016
0.00179069
-1.07552e-06
0.261202
2.99062e-06
-0.0152517
0.0248341
-0.00054366
0.00489698
0.00906724
1.64567e-06
-6.47119e-07
0.263056
-0.0611532
-0.21647
1.87113e-05
8.9834e-05
-6.48759e-05
-0.00260877
1.53301e-05
-0.0382724
-3.93271e-06
0.0277932
-0.153907
-0.000209837
-0.356666
0.00586458
0.772962
-1.22791e-06
-0.000506224
0.08831
-9.43101e-05
-8.45187e-07
-0.525486
-0.154595
2.75343e-06
-1.32192e-06
0.0727569
-0.00110822
0.00027387
0.0611436
-0.264382
5.29068e-05
0.000536231
-0.260923
0.00181943
-7.1762e-05
-8.70372e-05
-0.0732592
-0.000211907
-1.68079e-06
-2.02299e-06
0.117435
8.43077e-07
-1.00288
1.29393e-06
1.20507e-08
-0.0655659
4.12867e-05
2.49317e-06
-0.102689
-4.69652e-07
6.79403e-05
1.78578e-06
-6.06975e-07
1.26722e-06
0.0239301
-8.15689e-06
-0.00706404
-0.108738
-0.022524
-0.335197
6.06247e-05
-9.46353e-07
7.42849e-07
0.114776
0.000374062
9.80896e-05
0.00336681
-0.000294836
0.206206
2.67675e-07
9.83266e-07
-6.73321e-07
-5.30286e-06
1.05226e-05
-1.85946e-06
-5.44465e-05
3.13375e-06
-4.24064e-07
-0.163097
-0.00034722
-0.072667
0.000451541
1.486e-06
-0.00233793
0.496147
0.0993663
0.249336
0.307728
-0.165376
0.00429466
0.0604334
0.000203388
-0.00149841
8.18947e-05
-0.219057
-1.88694e-06
-0.24691
-0.0419321
-0.0175009
7.32724e-08
0.0204405
1.67956e-06
-9.95173e-07
3.59143e-06
-0.00168962
-0.451906
-0.0221316
1.17394e-06
3.03673e-07
-9.9488e-07
1.9159e-07
0.000844726
1.09303e-06
0.0254165
0.00533976
0.00276886
2.16649e-05
1.87096e-06
-5.37557e-07
0.00164761
-0.00813494
-7.96336e-07
-2.86709e-05
0.0379652
2.36663e-07
1.18882e-06
-1.26586e-06
8.30837e-06
1.82916e-06
1.54787e-06
2.62109e-06
0.114253
6.95228e-05
-0.00662654
1.48285e-05
2.07236e-06
-0.258109
-1.75998e-05
1.58059
1.97415e-06
-0.0059592
0.0483713
-0.0209403
-6.03698e-07
-0.00224995
0.640277
0.000387046
-0.000525816
-5.98236e-06
-3.60684e-07
-4.43883e-06
-7.23731e-07
0.00832234
0.000639769
9.98494e-05
0.00592485
-3.95786e-06
-1.40006e-05
0.0017869
-0.190684
1.24497e-07
0.00272915
0.0314713
0.00805442
0.016726
-3.92569e-06
-9.27105e-06
0.844294
0.000368843
-7.88897e-07
2.15169e-06
-0.00534061
-5.6111e-07
-6.66324e-07
0.656059
0.00561529
0.000107673
-5.46895e-05
-0.000291175
0.2493
0.000105377
0.762735
-0.858026
-2.04411e-06
-3.20795e-06
-0.00431717
0.000374735
0.000597787
4.38428e-05
-0.00169353
-0.00289456
-1.66398e-07
-0.000126893
-0.0100736
0.000858411
-0.342035
-0.0327268
0.000835825
-0.109904
-0.0101762
1.2497e-06
0.113868
-0.907684
-0.00156899
0.0251014
8.31841e-07
0.0701252
-0.00394337
-0.101486
0.000131804
-0.0432266
-0.00039753
0.0148187
1.40274e-06
1.75466e-06
-0.185624
-2.46782e-05
1.54513e-06
-9.73682e-07
5.13925e-06
-1.30987e-05
-1.72816e-05
-1.83516e-06
-4.80043e-07
0.173342
2.07198
-3.924e-08
4.11045e-05
-0.423969
-0.0340079
-1.11291e-06
-0.0114767
-0.0288811
0.000171913
7.81525e-06
-2.59788e-08
0.0213358
-3.26978e-06
0.00213639
-0.00818243
-9.4473e-07
0.00115464
0.154776
-2.56042e-06
0.0132126
0.725016
0.00292942
-5.60281e-06
-2.69383e-06
-4.24599e-07
-2.63332e-07
-1.13872e-06
-0.0156239
0.01087
1.32411e-06
-0.330267
1.29383
1.58132e-06
-2.59352e-06
-8.11093e-07
0.175798
0.356655
-0.00415333
0.00354967
1.43955e-05
0.139299
-0.108189
-1.24356e-06
-2.36774e-06
0.000520981
0.00232729
0.143822
0.0101758
-1.69599e-06
-0.0665936
-0.104982
-0.00169239
-8.60406e-07
2.5091e-06
-0.000113866
-2.47001e-06
-2.80207e-05
-1.10116e-06
-0.0562847
-0.0386568
4.60732e-07
-1.53528e-05
0.000665005
-4.11415e-07
-2.03461e-06
0.000347874
0.0647653
-8.84085e-07
0.000262864
-0.0626906
-0.00510202
0.00152335
-0.00536275
0.000302577
-0.000161515
5.86766e-05
-2.91106e-06
1.10646e-06
1.4436e-05
-0.15972
0.00157077
-1.61157e-05
-0.00325855
-4.93672e-06
0.0656705
0.00861212
2.69667e-06
-3.6055
-2.08933e-06
-9.84591e-06
0.0204597
-0.602283
9.42836e-05
7.87297e-05
0.000204295
-0.01578
-1.84322e-07
-0.0328395
1.02231
-6.17376e-07
-0.00173428
0.0331346
1.73906e-06
-2.34296e-05
0.0371649
0.00381694
9.14513e-07
-0.0471375
0.000131209
-1.24485e-06
0.733868
-0.0438727
0.0591921
-1.11239e-06
0.610572
-0.00083804
-3.4713e-07
-0.000401065
0.000169365
-0.000306514
0.000596669
-0.149534
-0.013972
0.00277006
0.000884944
-7.69035e-07
2.27596
-0.0618012
0.00236973
-0.00828869
4.8693e-06
0.0892625
7.41759e-06
-1.96591e-06
-4.9284e-05
4.36932e-07
-0.0177579
-0.00978534
4.10897e-06
0.758585
-0.532406
-0.0817215
-0.00021633
0.00449059
6.40529e-08
0.000180107
-3.92434e-06
5.33223e-07
-0.103703
-0.680627
0.175972
-0.295136
0.00475938
0.186501
-1.32021
-2.1526e-06
-0.000778381
-0.854081
0.00499006
6.53239e-06
1.80741e-06
-0.128865
0.00158213
8.72823e-05
-1.96817e-06
-1.9529e-06
0.0222506
2.70969e-06
0.0150403
-0.0693825
1.29869e-07
-1.42688
-1.11906e-06
0.0993898
-0.0401052
1.23354
4.42719e-05
-0.150295
0.000301947
-4.13914e-06
-4.47515e-06
-0.0158652
0.000500457
-0.138612
-1.60813e-06
1.66688e-06
0.0172527
2.18925
4.1379e-06
-0.0338232
-0.00459331
0.847342
0.528849
1.76091e-07
6.51301e-06
0.00454032
2.85711e-07
-1.49574e-07
0.000162595
3.04528e-06
6.11681e-07
1.53773e-06
1.96861e-06
0.000248876
-7.73663e-07
-0.000534218
-0.000643327
0.000176702
-0.0196388
-0.204456
-0.000125072
-3.58534e-07
-2.51014e-07
-0.00564546
1.41592e-06
-1.83985e-06
-9.59328e-07
-0.0254188
-4.31746e-06
1.42387e-06
-9.06294e-05
0.0352387
0.266886
2.67569e-07
0.00653195
-0.0154877
0.000170809
-0.000301375
-0.0389568
5.87742e-06
-1.29039e-06
-0.029482
-0.0130548
-6.75257e-06
-0.0337385
1.14554
-4.0114e-07
0.207143
1.04822e-05
0.00385024
-0.12798
0.0920193
-1.08042
-2.27695e-05
8.16151e-07
0.607793
7.31719e-05
-0.579479
-0.00639223
-0.163812
0.053668
1.21629e-05
0.000411236
1.78225e-06
0.0252019
-0.00535616
-0.158496
-2.01972e-06
3.97673e-07
0.0110445
2.10222e-05
0.114607
-1.86026e-05
-0.0336153
-0.387908
0.000667439
1.50855
0.0241173
-3.37785e-06
2.41954e-07
-3.03716e-07
-0.090953
0.260334
-6.87935e-06
-9.19324e-06
7.71355e-06
-4.62989e-07
-0.00209714
-4.10131e-06
2.0151e-07
-0.317063
-1.62386e-06
-8.47319e-07
0.000127532
-0.65407
-0.663558
-0.171327
2.09401e-06
-0.00515992
0.000941738
0.000250871
-0.00385663
-0.0498762
-0.0106129
1.27789e-05
0.000613693
-1.12097e-06
-0.000346173
-0.00417965
0.00552997
-0.302306
2.43511e-06
0.00523307
8.31821e-06
0.0877946
-0.0349681
7.96474e-08
-1.77596e-05
2.45074e-06
2.64776e-06
0.880829
-2.56207e-07
-3.73912e-06
-3.1251e-05
2.00795e-05
1.9548e-06
-3.40085e-05
-1.71598e-07
2.07782e-06
1.1176e-06
7.33124e-07
-0.770021
0.216026
2.02063
2.63759e-06
-4.47971e-07
-1.12686e-07
1.04684e-06
4.6577e-07
-0.00122057
4.8358e-07
-8.70862e-07
-1.76511e-06
-8.17774e-07
-0.0010637
-1.42493e-07
-0.363599
0.277783
0.000387231
-0.999253
2.35028e-06
-0.405298
-0.00513517
-0.0508663
8.20807e-06
1.21613
-6.68638e-05
-5.27417e-06
3.15709e-06
-0.00206412
0.0011517
-1.32114e-06
0.00401054
-0.000237381
1.89906e-06
-0.00322058
0.181624
-0.000729243
-2.00661e-07
-8.24603e-05
0.0421709
-0.0012398
-0.648608
-1.39106e-06
-3.39005e-05
-3.09861e-06
-0.00117278
0.00140157
-0.0164601
-0.000631373
-2.35901e-06
2.03492
0.00735324
-0.0113332
6.92388e-07
-0.000171396
0.0557258
-5.14147e-06
-1.91366e-06
6.67954e-05
-0.118116
-9.11309e-06
6.05107e-06
-3.68087e-06
-0.00057391
4.37606e-05
-0.0887989
6.82805e-06
0.000250708
-0.000133568
0.172456
-2.37248e-06
1.05168e-06
-1.32387e-06
0.00207144
-3.90436e-07
0.257222
-0.153279
-0.00112319
-0.0127303
-8.34007e-07
1.15118
3.56314e-07
-7.43086e-07
0.00324006
0.0029644
-0.014232
0.00854805
-0.0379657
0.0455769
-0.000558338
0.00136862
-3.51563e-05
-0.319059
7.74263e-08
0.000450882
-0.355805
3.02819e-06
0.0391113
0.0321634
0.0200747
-0.0660837
0.0138835
-0.127944
0.436453
0.0129854
-0.000450406
-0.00271373
-7.10342e-07
-2.48441e-06
1.06761e-06
0.147972
0.775708
0.384205
-0.000159288
-0.000167416
-0.0440876
-1.07673e-06
-0.00133371
8.8119e-07
0.00204983
-6.4536e-07
5.28529e-07
0.000423569
-0.00104418
-0.0661017
-0.000632027
0.000621836
-3.16693e-06
-0.000531285
-0.40548
-7.18989e-06
0.00948895
2.41828
3.88755e-07
-0.0106283
-6.37011e-07
0.105792
0.000142891
1.66516
-1.11423e-05
6.32357e-07
0.000360806
-0.000243599
0.0071837
0.00190964
0.0190431
2.13436e-07
1.02413e-07
9.34261e-07
-3.71694e-05
-2.26567e-06
3.6228e-07
0.238429
-1.05504
-0.00135328
-4.78944e-05
0.00011138
4.66674e-05
-3.23806e-06
-2.12937e-06
-0.00455443
0.406224
0.0545124
2.62067e-07
-0.0287911
-8.046e-07
-0.00827394
1.60362e-05
0.00125448
-0.0231552
0.0453386
0.0739874
2.48808e-07
-4.43125e-07
-5.52413e-07
1.40566e-06
-4.22466e-06
1.43776e-06
0.0686229
-1.91705e-06
3.03029e-05
-3.20102e-05
-0.000981721
-5.29667e-07
0.777398
-0.241138
-0.0109482
8.02137e-06
-0.00903983
-2.14987e-06
0.118717
0.0155741
0.000224108
0.00727958
0.000149326
0.00505433
5.41408e-06
0.000360117
0.000760365
0.00530749
0.00820957
-0.261877
-0.011769
-0.028382
0.00228642
2.35509e-05
3.30798e-06
-0.489365
-8.24431e-06
0.208059
1.95317e-05
0.775758
-0.213262
-0.0405497
-1.64892e-05
-0.0814305
-7.66856e-05
2.98916e-06
-1.93676e-07
-5.91504e-05
-0.0064567
-1.02332e-06
0.00883918
-0.000541952
0.00262779
5.71875e-07
0.000126127
-0.0393482
-0.00348469
0.0558749
4.18828e-05
-0.00148889
0.857776
-0.0805941
3.97405e-06
0.000608395
0.052929
-0.0025766
-0.240642
0.000110408
-0.000155695
-0.0301415
-8.17946e-07
-0.0177788
0.00312011
2.01742e-07
-0.171216
-0.0890607
-0.705841
-0.00229524
-0.00322106
0.00324028
1.0916e-06
0.00207988
-9.54513e-07
-0.0527493
5.01063e-05
-0.100184
-0.316111
0.561784
-0.0501844
-0.0312116
-0.320902
0.000215375
-0.0328578
-0.0145771
0.127109
5.24399e-05
-1.28968e-05
-3.00742e-06
0.000202623
2.35836e-07
1.30029e-06
-0.552195
1.28555e-06
-1.68017e-06
-0.000409393
-8.03155e-06
6.35819e-07
0.00783181
0.788497
0.00983819
-1.85901e-06
-2.73941e-06
-0.0007574
-3.10391e-05
1.56413e-06
-6.33783e-07
6.23486e-07
0.152521
9.34917e-05
0.00627506
-0.000444828
2.90238e-06
6.30371e-07
-0.0228343
-0.0135041
-0.119146
-0.000384729
5.2168e-06
0.000765703
-9.22049e-07
-0.000519291
0.00333897
-0.000299938
-0.00407647
0.000115691
6.59108e-06
-4.06199e-05
-0.0483395
-0.0921854
-0.145267
-6.3332e-05
5.34841e-06
-9.76581e-07
-3.99914e-05
0.00398756
-0.798342
-3.4565e-06
-0.0471633
7.58473e-07
-2.73636e-06
0.00121547
4.76487e-07
0.343241
-0.00751019
-0.0548562
-3.94938e-07
-8.4591e-06
7.52399e-05
0.534908
1.26342e-05
1.71327e-05
-0.0133164
0.321269
1.56661
-0.313835
0.252378
-9.46811e-05
-0.0279861
0.000190295
0.000955781
0.105325
-0.0019334
-2.29515e-06
-2.13535e-06
-4.27127e-07
-1.11371
0.370155
-0.000209305
0.677493
2.43699e-07
-2.43021e-06
5.20825e-06
-0.00453137
-0.0172295
0.787935
1.32139e-06
-8.16484e-06
0.000169372
-1.8227
-2.03562e-06
0.238803
0.000138376
-0.00143933
-0.070421
-8.94809e-07
0.00670982
0.121829
0.171516
1.04414
-8.6721e-05
-7.52793e-05
-0.000812116
-0.366225
-0.00285794
5.81993e-07
-0.0451457
-0.117256
4.97712e-07
4.73751e-05
-0.518706
1.09875e-06
0.889262
0.336327
0.000240034
-1.49486e-06
-9.73336e-05
0.000201162
0.204644
-9.2929e-07
-0.000161946
7.11606e-05
-0.155617
0.0181343
-9.88286e-07
-4.0105e-07
-0.00245856
-0.000295759
2.23391e-06
5.88354e-06
-9.80972e-07
0.00441735
1.76131e-05
0.0019988
6.71518e-07
2.65455e-06
0.000228051
-6.81664e-05
0.000722207
7.50164e-06
0.062227
-0.00289732
-0.015873
-7.52567e-06
-1.9119e-06
-0.0519722
0.000287934
-2.80059e-05
-0.627454
-0.00298822
-0.0671262
0.321441
-1.38114e-06
-0.48538
0.00597659
4.56125e-06
1.80468e-06
1.45012e-06
1.24419e-06
0.124034
-0.00886775
-3.72316e-06
0.0387406
-0.0290761
-1.72832
-3.9544e-07
9.22825e-07
-1.41676
-1.00593e-06
-3.75428e-06
-7.85177e-06
-2.29982e-06
-0.0396726
-7.56647e-08
0.115987
-0.0462494
-2.46179e-05
-0.110866
-0.00147907
-0.0965832
-0.0765381
-6.82389e-07
-0.000115899
0.000303516
2.30453
-0.856398
-0.0849717
-2.39553e-06
1.47727e-06
0.00291753
1.16991e-06
-0.0271786
1.05013
-1.29647e-06
-1.21465
-2.54745e-06
-0.22603
4.12217e-06
-0.000795571
-2.65271e-07
-0.454163
-0.464812
-0.140611
0.20486
-1.22604e-07
0.214137
-1.13232
1.03481e-05
-0.0275837
-1.2983e-05
-7.33904e-07
3.29396e-06
0.000307139
-0.000131734
4.40768e-06
-1.12485e-06
-0.00165622
0.00114103
0.000181825
0.126822
0.00190606
-0.000305804
-1.25209e-05
0.00320578
9.68916e-07
-0.0425732
-1.44947
-0.011543
-0.0194296
8.89545e-05
0.000112986
-3.36562e-05
0.00351964
-4.87254e-05
1.13459e-06
0.930348
0.366099
-0.680349
-0.00117893
2.51367e-06
0.00300225
-0.0353609
-2.61256e-05
7.45143e-07
6.13162e-05
-3.57385e-05
0.00155884
-8.92471e-07
-0.0522968
-5.92729e-06
0.168305
8.64266e-07
-0.117626
0.133407
-0.59779
2.18372e-06
0.0270478
2.11533e-07
-2.77026e-06
0.00259799
0.3267
-2.33942e-06
2.96513e-05
-0.124465
-6.27487e-07
0.00353816
-0.292179
-0.000534681
0.850098
-3.76848e-06
1.2148
8.11075e-05
-0.150251
-1.75283e-06
6.26483e-07
2.22192
1.99963e-06
0.0134522
-7.13513e-05
6.38034e-05
-0.176533
1.09322e-06
1.51747e-06
-4.44385e-05
1.15991e-06
-0.257878
-0.0609184
-2.71201e-06
-0.0371657
0.0127188
-0.670516
2.62427e-06
-0.0506885
-0.180831
-5.0744e-05
0.00190359
1.39724e-06
0.0315624
-9.83732e-07
0.0731581
-1.58302e-06
9.83235e-05
-1.58555e-07
-2.47988e-06
1.59585e-07
0.00543172
6.84678e-05
-1.89842e-06
-0.0380565
-3.37617e-06
0.00192262
0.000242649
-0.294932
-0.000137843
1.03992e-05
-0.000151934
-1.67248e-06
-3.65723e-07
-5.88886e-05
0.146055
0.12244
-0.0465075
0.971909
4.63412e-07
-8.51486e-08
3.96763e-06
-1.33019e-06
1.66377e-06
-0.0324047
-1.84653e-06
-7.81113e-05
0.00488753
2.26288e-05
-0.00858944
-3.73735e-06
6.00099e-07
-0.284624
-0.0630753
-2.84901e-06
0.00159438
-6.06903e-06
-0.222068
1.72744e-06
-8.1905e-05
0.160106
-6.47615e-06
0.0895328
-0.0113406
-8.85525e-06
3.98405e-06
2.03688
-0.0001529
0.00458447
0.127742
-0.192559
1.86448e-05
-0.000653829
0.000620588
1.66698
-2.55797e-05
0.888311
-0.131714
-0.127529
-0.0716896
-2.72159e-05
1.90537e-06
-9.84316e-07
-0.155383
-0.0387675
-2.4886
0.383774
1.53592e-06
0.0091745
5.07931e-05
0.00584233
2.5013e-06
0.000657487
-0.00181829
5.95578e-05
-2.44631e-05
0.0403542
0.000213654
-2.99336e-06
-2.53044e-05
0.00356769
-2.38675e-05
-2.08286e-06
0.00982143
-2.28281e-05
-2.52101e-06
1.64255e-06
-0.565327
-0.00411198
-0.0156619
3.21706e-05
5.43521e-05
-0.0945765
-0.000104007
0.000866613
-2.57068e-06
-8.73928e-07
0.308127
0.52388
0.0489602
-0.000113826
-0.000130344
0.116127
-0.00505788
-0.00668972
0.0523596
-0.00616879
0.060197
1.34848e-07
-0.171701
-8.93905e-06
0.00333447
-0.295604
-0.0226504
-0.0414074
5.83679e-06
-1.12701
-0.00431656
0.0243808
0.0260159
1.771e-06
1.04078e-06
-4.52635e-06
-0.352863
-3.77764e-09
-0.231387
0.000998484
0.0722792
1.91029e-06
-1.27292
0.578145
0.00645581
-0.0785853
-6.545e-06
-6.27443e-06
8.04299e-07
8.73884e-05
2.0899e-06
-0.000168199
0.0713536
2.92479e-06
-9.5096e-06
0.196547
0.0135635
-0.0217495
-0.000277204
2.17397e-05
2.00709e-06
-0.664346
-0.000171918
0.188129
0.00120087
0.00682509
-0.000507208
0.0337557
0.0295075
-7.48225e-07
-3.68635e-07
0.472575
0.111801
-0.0946565
0.00593876
0.00273964
3.21354e-06
0.0118783
1.08844e-06
-0.0530517
1.2139e-06
2.07055e-05
-0.0920577
-2.4921e-05
0.0148025
-4.21419e-07
0.334269
-0.652597
-0.00368014
0.000882528
0.0547962
0.000345328
-1.33684e-06
-0.0181097
0.535533
-0.540208
-9.25795e-07
-4.81173e-06
0.0456941
0.782475
-0.428915
-3.69818e-06
-0.0001526
-3.88851e-06
0.00018733
-1.50669e-06
6.51462e-08
0.414768
-2.14522e-06
0.890694
-0.000140984
-0.0297096
7.56785e-07
1.02804
-0.941215
-0.0235651
1.39849
-0.00380947
-1.86138e-06
0.00153799
0.404163
-5.60332e-07
-6.85164e-07
4.94629e-06
-0.205175
0.756691
8.1743e-07
0.756995
0.00213989
-9.33282e-07
0.126044
1.30399e-05
0.00615522
-0.291254
-1.21763
1.47617e-06
0.0464836
-0.00179813
-3.10106e-06
0.240798
0.000769215
0.0456247
-0.0663856
0.000993569
0.255939
0.108377
-0.000127536
0.0200932
1.07442
-0.042623
6.71272e-05
1.76887e-07
1.28549e-06
-3.58292e-05
-0.0192162
-0.196466
0.473317
-0.735241
0.000345262
7.09719e-07
1.07707e-06