/*--------------------------------*- C++ -*----------------------------------*\
| =========                 |                                                 |
| \\      /  F ield         | OpenFOAM: The Open Source CFD Toolbox           |
|  \\    /   O peration     | Version:  v2012                                 |
|   \\  /    A nd           | Website:  www.openfoam.com                      |
|    \\/     M anipulation  |                                                 |
\*---------------------------------------------------------------------------*/
FoamFile
{
    version     2.0;
    format      ascii;
    class       surfaceScalarField;
    location    "300";
    object      ddtCorrDdt0(phi);
}
// * * * * * * * * * * * * * * * * * * * * * * * * * * * * * * * * * * * * * //

dimensions      [0 3 -2 0 0 0 0];
oriented        oriented;


internalField   nonuniform List<scalar> 
27882
(
0.00338004
-0.00260368
-0.000776362
0.0130436
-0.00397366
-0.00906992
-1.55656e-07
3.82899e-06
-3.68295e-06
0.000550929
0.0028291
0.00173535
-0.00226512
0.000529795
-6.80433e-06
3.55496e-07
6.45085e-06
-3.29852e-05
5.23955e-05
-1.94273e-05
-0.000274362
0.000470581
-0.000196212
0.00207312
-0.000337772
-0.0018619
0.00223766
-0.000375746
0.0133269
-0.0110768
-0.00225007
-0.0141121
0.0441536
-0.0300416
0.0206073
-0.0132437
-0.00736363
0.000169067
0.000124705
-0.000293758
-3.68769e-05
-2.54012e-05
6.22488e-05
-3.71311e-05
2.0432e-05
1.67312e-05
-0.0848767
0.0707646
4.05607e-05
-4.47489e-05
2.16148e-05
-5.84842e-05
0.00123868
-0.00082438
-0.000414315
-0.0268719
0.02657
0.000301938
-0.00604603
-0.00360811
0.00965411
2.81138e-07
-7.07577e-06
2.89192e-06
-1.75233e-06
-1.13793e-06
0.00100004
-0.0070461
0.0160608
-0.00700507
-0.00905574
0.00288343
-0.00149337
-0.00139008
-0.00596259
-0.00389151
0.00985417
-0.00538811
0.00276091
0.00262717
0.0191501
-0.0122164
-0.00693372
-0.002089
0.0153207
-0.0132317
-0.00108855
0.00397196
-0.000350311
7.59219e-05
0.0126676
-0.000655751
-0.0120118
0.00114243
-0.00340837
0.00226595
0.00429039
0.0148597
0.00500493
0.0156024
-0.00112271
0.0293083
-0.00598222
-0.0233261
-0.000114275
-7.60054e-05
0.000190282
0.00332773
-0.0394733
0.0361456
0.0009436
0.00144519
-0.00238877
-0.0213442
0.0567009
-0.0353567
-0.000599521
0.000308658
0.00029087
5.49663e-05
-3.76432e-05
-1.73246e-05
0.00213347
0.0382975
-0.040431
0.00196823
-0.0010246
-0.00435556
-0.00126375
0.00561934
0.0231906
-0.0111004
-0.0120902
0.00381491
-0.00203489
-0.00178003
0.0104838
0.00284308
0.00627921
-0.00749406
0.00121482
0.00397433
-0.000159413
-0.00127842
-0.000168805
0.00144722
0.0055577
-0.00528678
-0.000270948
-0.0217836
0.00853979
-0.000109225
0.000341895
-0.000232672
0.000498945
0.0007397
-0.00335604
0.0062167
-0.00286066
-0.000285832
0.000176602
4.88492e-05
-4.14122e-06
-4.46838e-05
-0.000352505
-0.000247023
-0.014216
0.0128849
0.0457271
-0.0419105
-0.00381672
-6.35772e-07
4.94726e-05
-0.0140732
0.0192697
-0.00519644
6.65288e-06
2.02974e-05
-2.69502e-05
4.52498e-05
-4.71326e-05
1.89937e-06
-0.0104145
0.0044519
-7.4556e-06
4.80132e-05
-0.0031917
0.00947084
0.010572
0.00382044
-0.0143925
4.16359e-05
-5.98262e-05
1.81756e-05
-0.00193062
0.00124295
0.00068774
-0.0137944
0.00350269
0.0102917
0.00682908
-0.00891809
-0.00601445
0.0132275
-0.00721305
-0.048704
0.073777
-0.0250729
0.000211226
0.0229392
-0.0442834
0.00523078
-0.00338723
-0.00184357
0.0084821
0.0208262
0.0140572
-0.0627613
0.00721766
-0.00814872
0.000931084
0.000976295
-0.00109257
0.000116278
-0.00117874
-0.00378402
0.00496273
0.000400477
0.000353961
-0.00119167
-0.000738916
-0.00745427
-0.00676173
-0.00551605
0.00433731
0.0146948
-0.00234024
-0.0123546
-2.86252e-05
5.01206e-05
-2.14862e-05
0.00396512
-0.00336705
-0.000598154
0.0133091
0.00988154
-1.05459e-05
5.21688e-05
3.83109e-05
-1.61553e-05
-2.21482e-05
-5.01906e-06
-2.19708e-05
2.69856e-05
0.00209645
-0.00323136
0.00113496
-0.0162486
-0.0496948
0.0659434
5.11149e-05
-2.65781e-05
-2.45507e-05
-0.0107653
0.0128987
0.00149039
-0.00244971
0.000959346
-7.47276e-06
5.27275e-05
2.41603e-05
1.41567e-05
-0.0182056
0.00413239
-0.0106609
-0.016211
-0.00558708
0.00123153
0.00390983
0.010785
0.0121197
0.0180309
-0.0301507
0.0236826
-0.00392595
-0.0197566
5.63221e-06
2.48775e-05
-3.04994e-05
0.0428043
0.00292281
0.00244945
-0.000777209
-0.00167224
1.56361e-05
-1.32009e-05
-2.43279e-06
-0.00120702
0.00269741
-0.0134656
0.0224561
-0.00899052
0.00340506
-0.00130862
7.10486e-05
-0.000109793
3.87533e-05
-0.0221164
0.0208266
0.00128969
-0.00139537
-0.000346963
0.00174234
9.06326e-06
-4.20627e-06
-4.85929e-06
0.00796849
-0.013983
0.00193903
-0.000962739
-2.47605e-05
3.08605e-05
-6.11066e-06
-0.00841793
0.00905943
-0.000641488
-0.000485217
-0.000793179
0.000394514
-0.000148346
-0.000246178
1.12237e-05
-3.59902e-05
-0.00197657
-0.00579932
0.00777595
0.00344227
0.00231506
-0.0046198
-2.53755e-05
1.29976e-05
1.2367e-05
0.000142768
-0.00140588
0.00126316
-0.0190509
0.0121565
0.00689439
-0.000355586
0.000241312
-1.11636e-05
7.92984e-06
3.23806e-06
-0.111306
0.102229
0.00907685
-0.000891373
0.00132541
-0.000434032
-0.0120305
0.0110485
0.0009821
0.00356273
0.00166808
-0.000230488
0.00267994
-0.00403552
0.0431214
-0.0390858
0.00210068
-0.00230004
0.000199417
-0.0216354
0.033755
-0.0069242
-0.00149373
0.00255222
-0.00169632
-0.000855902
-0.0147828
-0.0034228
-0.000215369
0.00647999
-0.00626458
-0.000708128
-0.0103687
0.0215167
-0.00261209
-0.0189047
-0.00257823
0.00695205
-0.00437385
0.00299338
-0.00275373
-0.000239707
6.33043e-05
-7.88461e-05
1.55444e-05
0.00205128
0.00338192
-0.0054332
0.0272764
-0.0239486
0.0172833
0.0014292
0.00277621
0.0011889
0.00463612
-0.00661271
0.004181
-0.00461145
0.000430414
0.0123355
-0.0176537
0.0235871
-0.00593346
7.24986e-07
-3.89209e-05
3.82001e-05
-0.000373888
-0.00761653
0.00799039
-0.0186143
0.00383157
0.0230141
0.0637063
-0.0867205
-7.44073e-05
0.000447508
-0.000373101
-1.28074e-05
1.35231e-05
-0.0309516
0.0255045
0.00544704
-0.00375908
0.00720134
-0.00168507
-0.040968
0.0426531
-0.00094701
0.00353059
-0.0025836
-5.46697e-07
3.86445e-07
-0.00619399
0.0052872
0.000906799
0.000812741
-0.000964811
-0.0114147
0.0294457
-2.03309e-05
-2.08715e-05
4.12019e-05
3.78786e-05
-4.84308e-05
0.00652453
-0.0107721
0.00424755
0.00372442
0.00894321
0.000160095
5.84421e-05
1.23702e-05
1.97272e-05
-3.20922e-05
-0.000373058
-0.000648716
0.00102179
0.00177053
0.00378716
9.832e-05
0.000193224
-0.0291436
-0.00741083
0.0365544
6.8794e-05
-3.58353e-05
-3.29677e-05
-0.011008
-0.00120843
0.00396071
-0.00434654
0.000385822
-0.00134455
0.0146536
0.0958786
-0.0606082
-0.0352704
0.00117498
0.00181841
3.63765e-05
3.24089e-05
-0.00987765
0.00560363
0.00427402
0.0311978
-0.0131568
-0.018041
-1.49323e-06
1.58535e-05
-1.43488e-05
0.000265962
-0.000315722
4.97591e-05
-0.0117108
0.0130529
-0.00134203
7.38118e-05
-1.05306e-05
0.0193988
-0.0207434
-1.10687e-05
5.43058e-06
5.63355e-06
0.00121365
-0.000895167
-0.000318475
0.0113538
-0.00671763
-0.0302902
0.0242333
0.00605679
-1.10817e-05
3.17323e-05
-2.06466e-05
-2.35522e-05
2.91839e-05
0.0115887
-0.0119626
5.64717e-05
1.72553e-05
-7.37171e-05
-0.00135709
-0.000230577
0.00261726
1.18511e-05
-7.04342e-06
-4.81191e-06
-0.00114048
0.00293861
-0.00179821
-0.000226337
0.00143998
0.000539757
0.000382947
-0.000922715
0.000672976
-0.000482304
-0.000190689
8.35869e-06
-1.33815e-05
5.71375e-06
2.4351e-05
-3.0073e-05
0.00163575
6.68247e-06
-6.33043e-06
0.0313202
-0.00200914
-0.029311
-0.00925835
0.0404562
5.41893e-05
-0.000296309
0.000242119
0.00261903
-0.000518323
0.00556412
0.00578961
-0.0337519
0.00346175
-0.0343108
0.00064881
0.033662
6.55791e-05
-0.01386
0.00327428
0.000954176
-0.00422845
0.00914416
-0.0267978
1.30886e-05
4.33774e-05
0.00717279
0.00888797
0.00146981
0.00108243
0.0157391
-0.0271538
-2.1702e-06
-8.99552e-06
-4.19849e-05
-4.27849e-06
4.62664e-05
0.000414846
-0.00036066
0.00202411
0.0124697
-0.0144938
0.0189573
-0.0089602
-0.00999707
-0.0131206
0.0141505
-0.00102986
6.17201e-05
-3.87964e-05
-2.29467e-05
5.01439e-06
2.33611e-05
-2.83694e-05
0.0104151
-0.00839094
0.0106093
-0.00983126
-0.000778001
-2.62778e-06
2.98394e-06
-3.61474e-07
0.0193567
0.00216
0.00974534
0.00250228
-0.0122476
-4.92878e-05
4.64271e-05
2.86888e-06
-4.05609e-05
3.83459e-05
2.21979e-06
-0.00147845
0.000791753
0.000686693
3.48223e-05
1.6301e-05
0.00372054
-0.00466754
-0.000537048
0.00072433
-0.000187281
0.0148377
-0.0153861
0.000548474
0.000126051
0.000288798
-4.98445e-08
2.45301e-06
-2.39909e-06
0.0159617
-0.0145497
-0.00141194
-0.000166727
5.86475e-05
0.000108077
0.017614
-0.007042
-2.41857e-05
-9.46088e-06
3.36503e-05
-0.00792212
-0.121016
-0.00216237
0.00138514
2.05327e-05
1.03173e-05
-1.45155e-05
-3.47754e-05
-0.00514874
-0.00472889
-0.000683397
-0.0111247
0.0118081
0.00832884
-0.00901222
1.23216e-05
8.20215e-06
-0.00142124
-2.36301e-05
-5.52068e-05
3.5727e-05
-0.000119131
8.33956e-05
0.0250245
-0.0144181
-0.0106065
-0.00883644
0.00127374
0.00756275
0.00011238
-7.66539e-05
-9.67092e-06
-1.86622e-05
2.83207e-05
0.00100187
-0.0014905
0.000488633
0.000514109
0.000158843
0.00051663
-0.00104568
0.000529116
6.33054e-06
3.53627e-07
-0.000861339
0.0014011
-0.000121075
0.000290138
-3.27325e-05
-7.83041e-06
-1.36195e-05
-7.79216e-06
2.1403e-05
-2.87422e-05
3.37085e-05
-4.98037e-06
0.0133472
0.00521303
-0.0185602
-5.8394e-05
1.95726e-05
-2.92465e-05
2.59488e-05
2.43367e-06
-2.83815e-05
-0.000780292
-0.00905093
-5.59384e-06
2.19696e-05
-1.63748e-05
1.85697e-05
-2.33143e-06
-2.94906e-07
8.40811e-05
-0.000143977
5.99036e-05
0.000207641
0.000134264
6.30796e-06
-3.07008e-06
-3.2425e-06
3.24358e-06
1.67796e-08
-3.2678e-06
0.00249962
-0.00188284
-0.000616766
0.00546961
-0.0397804
-3.96217e-05
1.10116e-05
2.40454e-06
4.88266e-07
-0.0102167
-9.43712e-05
0.010311
0.00051675
-0.000226898
-0.000289846
5.46505e-06
-6.6365e-06
1.16076e-06
6.13869e-06
-6.69256e-07
0.016327
-0.0138386
-0.00248848
0.0133719
0.000930967
-0.0143029
-8.29284e-06
2.06612e-05
-0.00293194
-0.00244889
0.00538083
-0.0191146
0.00845371
0.000326258
-0.000678757
-0.00227588
-0.0195077
-3.88008e-05
1.00655e-05
-0.00540385
0.00409468
0.0013092
-0.000662294
-0.00736956
0.000133705
0.00723581
-0.00315334
-0.00223477
-0.00730447
0.00664872
-3.9577e-05
5.04631e-05
-1.08859e-05
0.00641125
-0.00215926
-0.00425201
-0.0118194
0.00760387
0.0042155
6.94689e-06
-3.04344e-05
2.34733e-05
-0.00701432
-0.000355239
-0.000895123
0.00507613
-0.0219823
0.0193702
-1.92825e-05
-3.08321e-05
5.01271e-05
-4.70447e-05
0.00281053
-0.00286674
0.0261741
-5.44299e-05
5.39889e-05
4.49191e-07
-0.00725453
0.010821
-0.00356647
-0.00239798
-0.00653462
0.00893268
-0.00437108
-0.00181166
0.00618276
-0.0191965
0.0132765
0.00592
3.10162e-05
-5.03104e-05
-0.000241145
-2.94918e-05
5.30674e-06
2.49869e-06
1.31371e-05
-0.000239626
0.000327784
-8.81514e-05
0.00268765
-0.0017149
-0.000972743
0.00030476
0.000165843
4.22546e-05
7.73007e-05
-0.000119561
-0.000247819
8.21323e-06
-1.27893e-05
-7.02723e-05
8.30708e-05
0.000174548
-0.00168076
0.0227932
-0.00646623
-0.00097714
8.57691e-05
-0.00742738
0.0309388
-0.0471875
-4.0717e-05
-1.37e-05
-0.00029371
0.00128939
-0.000995718
-0.00609198
0.0194639
0.000617827
-0.00691486
0.00629697
0.000392572
0.035558
-0.0359505
0.00867346
0.0017352
-0.0104086
-7.02472e-05
3.441e-05
-0.00942729
0.00578505
0.00364225
0.103018
0.0128695
-0.115888
-0.00249287
-0.00338917
0.00588203
5.14383e-05
-6.42418e-05
-0.00111809
-0.00325301
-0.00100806
0.000856325
0.000151735
-0.000289128
0.000597786
-6.76833e-05
-0.0484874
0.0353305
0.00714559
0.0244636
-0.0316092
0.00140835
0.0121671
-0.0135754
-0.0412269
-0.00726039
4.4477e-06
0.000392432
0.00021114
-0.000603589
0.000822036
-0.00119509
0.00221873
0.00118636
0.00785687
-0.0203951
0.00692956
-0.0125093
0.0282485
0.0247142
-0.013131
-0.0115831
-0.0417253
0.00225202
0.0134939
-0.0048204
-1.04135e-06
9.8889e-07
-0.0182211
0.0153743
0.00284686
-0.0060147
0.0136639
-0.00477357
-0.00889036
-0.0258984
0.0330439
3.07612e-05
-2.41129e-05
-2.5218e-06
7.72161e-07
-0.00811276
0.00450461
0.0248562
-0.0463647
-0.00133541
0.0477002
0.0286128
-0.00358829
0.00180489
-8.53562e-06
0.0424686
-0.00160588
0.0252885
-2.39435e-05
-1.31783e-05
4.56909e-05
8.50385e-05
-0.000130713
-0.000819829
0.000626861
0.000192948
-0.00142607
0.000513986
0.000912087
2.02063e-06
7.03226e-06
-0.000746461
-0.000261594
7.36236e-05
-5.50407e-05
-1.8582e-05
-1.89308e-05
5.30383e-06
-4.12834e-06
4.62107e-07
3.65518e-06
0.000636215
-0.00113444
0.000498229
-0.00291444
0.00224963
0.000664832
0.0777488
-0.0267906
-0.0509582
-0.000794603
0.0011747
-0.000380081
0.0525311
-0.0180703
-0.0344608
0.0468054
0.00572561
0.00971212
-0.00916825
-0.000543874
0.00262846
-0.00326536
-0.00593076
0.00919616
0.00128786
0.00121176
2.03855e-06
-3.37546e-06
1.34248e-06
0.00660955
0.0500914
0.000129638
-8.39457e-05
0.000121527
-3.69231e-05
-8.45929e-05
0.02341
0.0347992
0.00418546
-0.00196673
0.00900172
-0.022205
0.0132033
0.000219566
-0.000160922
0.00883549
-0.00866098
3.15004e-05
2.34752e-05
0.000444129
7.25991e-05
5.97934e-07
4.87617e-06
-5.47183e-06
-0.00223776
-0.0204435
0.0226812
0.00292501
0.0315225
2.23242e-07
3.01792e-06
-0.0162969
-0.00289961
0.000535945
-0.00295226
0.0024163
-5.32957e-05
2.52947e-05
2.79983e-05
-0.00221863
0.000792555
-5.3449e-06
9.27557e-06
-3.93499e-06
0.0107815
-0.0232908
4.58892e-06
-7.58469e-06
2.99519e-06
2.34559e-06
3.97016e-06
0.0607428
-0.0377287
-0.000456765
-0.00033782
8.27436e-05
4.41347e-05
-6.26499e-06
0.00036215
-0.000219102
-0.000143056
-0.000275409
-0.000446693
0.000722058
0.0510129
-0.00436649
-0.0466464
0.00621738
-0.0167226
0.0105052
-3.65741e-06
2.25312e-06
1.40394e-06
0.0010486
-9.12877e-07
1.51231e-06
0.00249887
0.000188778
0.00467673
3.78451e-05
1.94253e-06
-3.98032e-05
-0.0308965
0.0462172
-2.22327e-06
-1.42396e-06
-0.000816226
0.000540774
8.82035e-07
-1.9334e-06
1.0487e-06
-0.0127611
-0.007634
0.00347501
-0.00200482
-0.00147018
4.89524e-05
2.46681e-05
0.0149364
-0.00764969
-0.0072868
0.0102869
-0.00935593
-2.90473e-05
2.90365e-05
7.76786e-09
0.000592539
-0.000200094
0.00112721
-0.000241582
-0.000885613
1.88523e-05
-2.9925e-05
-4.00273e-06
-2.3697e-06
6.36498e-06
4.63962e-05
-3.30388e-05
-1.33634e-05
0.026486
-0.019968
-0.0065179
-0.00780234
-0.0117828
0.0195851
1.50039e-05
2.07565e-05
-3.57584e-05
0.0011235
0.000599088
-0.00172258
-0.0207932
-0.0204337
0.0109372
-0.00441266
-0.0254013
-0.00621591
0.0316172
-0.00646351
0.0162089
-0.0388896
0.0134883
-8.99228e-05
3.68126e-05
5.31142e-05
0.00428434
-0.00754972
0.00801707
-0.00120456
-0.00120427
0.00240883
-0.000171641
-0.000178675
-0.00327586
0.0345961
-0.0113963
-0.00385253
0.0152488
-0.00423054
0.00400007
2.50585e-06
4.2188e-06
-6.74072e-06
3.99065e-05
1.24993e-05
2.5742e-05
-4.32666e-07
-2.53012e-05
4.29795e-05
-5.14329e-06
-5.78576e-06
3.15246e-05
1.64803e-05
1.39525e-05
-0.0267045
0.0276842
-0.000979639
-9.05771e-06
-1.22613e-06
1.02827e-05
-4.10886e-08
-8.83157e-06
8.88018e-06
0.000903874
-0.00243083
0.00152699
-4.46346e-06
-2.09063e-05
-1.70329e-07
3.67758e-06
-3.5099e-06
-0.000137586
8.73532e-05
5.02372e-05
0.000554809
0.000572413
-0.0106109
-0.000785398
0.000239855
0.0263301
5.95112e-05
-0.00947205
0.0199559
9.88361e-07
-2.9063e-06
1.91637e-06
-0.000885817
-0.000205247
0.00109106
-0.00709669
0.00585424
0.00124244
-0.0182097
0.000274692
0.017935
0.0134336
0.0112805
3.10242e-05
-2.53086e-05
-3.86127e-05
-3.16165e-05
-0.0170199
0.00921762
-0.0057744
-0.0040035
0.00695332
-0.00294982
-7.43519e-05
-0.000211475
-0.0174909
-0.00493638
0.0224273
-0.00526712
-3.09865e-06
5.98278e-06
-4.99093e-06
-0.0326005
0.0257878
0.00681272
-0.000789157
0.000306834
0.00467473
-0.00111198
-0.00319964
-0.000803867
-0.00122172
-0.000996915
-0.000671114
0.00179463
-3.34977e-06
4.16947e-05
1.99464e-05
-4.9212e-05
2.92725e-05
-4.69109e-05
2.50716e-05
2.18489e-05
-1.89176e-06
2.17525e-06
-2.81942e-07
1.50838e-05
-1.99399e-06
9.1797e-06
-4.68108e-05
0.00251897
0.000817625
-0.00333659
2.58194e-05
-8.78336e-06
-1.70414e-05
0.0213527
-0.012351
0.0140107
-0.0348039
-2.40082e-06
3.14344e-05
1.70722e-05
8.73754e-06
-1.28303e-05
3.77178e-06
-0.000497676
0.000991762
-0.000494057
0.00289949
-0.00181788
-0.00108162
0.0166893
-0.010472
-3.79133e-05
1.13344e-05
0.0494048
0.0464739
0.00209072
-0.00182039
-0.000270371
-0.00240278
0.00119823
-0.000142725
-1.38652e-05
0.000156587
0.000739993
-0.000103773
-0.000190585
-1.84012e-05
3.05039e-05
-1.20804e-05
-3.58017e-05
1.74027e-05
0.00142673
-0.0152452
0.0138185
-0.00441154
-0.0247321
-3.85516e-05
5.81885e-06
-3.57774e-06
0.000187949
-0.000103885
-0.0222802
-0.00867142
-6.0183e-06
1.08942e-05
-3.39172e-05
4.22787e-05
3.01605e-05
-1.36889e-05
3.47734e-06
-3.51253e-06
1.48981e-05
-4.64763e-05
3.15734e-05
-0.000164148
2.14236e-05
-0.00044218
-1.11849e-05
0.00045334
3.92978e-05
0.00424627
0.00197047
-2.67961e-05
-1.11142e-05
-0.000235299
-0.000120288
-0.0112626
0.0190199
-0.00775725
-0.0249768
0.00676715
0.00168752
0.00197199
-0.00365952
0.000426391
-3.18751e-05
6.21174e-06
-4.62221e-05
4.00386e-05
-2.33876e-06
2.16404e-06
8.03053e-06
3.07127e-05
-3.87442e-05
-6.99589e-05
-0.00705349
0.0191054
-0.0120519
-0.000325989
-0.0155159
0.0158419
-0.000134382
0.000113385
2.09704e-05
0.0293811
-0.0202061
-0.00917498
4.77197e-05
-4.15049e-05
0.00106369
-0.0013574
-0.00043746
5.48049e-06
-5.72722e-06
2.48205e-07
0.00225808
-0.000788275
3.69803e-05
-4.44347e-05
-2.26943e-06
3.7816e-07
-0.0103652
0.00304894
0.00731621
-5.85014e-08
3.89363e-06
3.59838e-05
0.000229989
0.0134058
-0.0119975
-6.08019e-06
1.31939e-06
4.7755e-06
-1.26259e-05
6.1439e-05
-4.88123e-05
0.0171611
9.48972e-05
-2.38442e-05
0.0286929
-0.0287414
4.84487e-05
-0.00566263
0.0118878
-0.00622517
-5.43503e-06
-9.80352e-07
6.41631e-06
-1.42028e-06
2.29665e-06
0.00677885
0.000438801
1.46827e-05
0.000474063
-0.000488725
0.00181776
0.00108174
2.54394e-05
-4.57676e-05
0.0085205
0.0208606
0.0300158
0.00745679
-4.05696e-05
4.52107e-05
-4.6377e-06
0.000512634
-0.0107293
9.84294e-07
-1.33505e-05
1.23761e-05
6.26887e-06
5.57692e-06
2.40627e-05
-3.62242e-05
1.2152e-05
0.0014211
0.00117448
-0.00259557
-0.0946791
0.0340709
-0.0208491
0.0057058
0.0151433
0.000761835
-0.000116157
-0.00064568
-0.000217396
0.00159207
0.016483
-0.0500148
0.0335318
0.00471695
-0.0222079
-1.44054e-05
-3.15671e-05
4.59985e-05
0.00331678
-0.00624872
-0.000127666
-0.000306488
0.000434143
0.00597627
-0.000740507
0.000883287
-0.00660805
0.00214889
0.00445917
5.04391e-05
-2.42105e-05
-2.62196e-05
-0.00169714
0.00311824
-0.00222479
0.00359558
-0.0013708
-6.77045e-06
1.34184e-06
2.60493e-05
2.43931e-05
6.61235e-06
-1.26344e-05
5.43254e-05
-5.0845e-05
-3.46893e-06
0.00113931
-0.000453635
-0.000685683
0.00769986
-0.0138766
0.00617678
0.0140942
0.000743435
-0.000459225
-0.00551639
-0.00109167
0.00149541
-0.0014022
-9.32061e-05
3.13101e-05
-7.23797e-06
-1.60154e-05
-2.63702e-07
1.62899e-05
0.00673077
0.0146219
-0.00749494
-0.00021359
0.00275513
-0.0020938
-0.000661292
-0.00136879
-0.00138494
0.0116344
-0.0102077
-7.57194e-06
2.22621e-06
-3.92396e-06
4.04523e-06
-1.11184e-07
-0.00904384
-0.0371297
0.000117893
0.0370118
1.53627e-05
-1.43775e-05
-0.014404
0.00831206
2.6223e-05
1.29828e-05
-3.92062e-05
-5.93441e-06
3.50134e-05
-0.00104848
0.00101346
-9.21079e-06
-4.40962e-05
-2.08016e-05
-0.000604547
0.000930804
-1.06814e-05
3.67079e-05
-2.60254e-05
0.00121761
-0.000703626
-0.0090228
0.00171292
0.000545165
-0.0536305
0.0592977
-0.00566723
0.00100377
-0.000620824
3.44678e-05
-0.00620906
-0.0159073
-2.8391e-05
-5.5303e-06
0.00640855
0.00699682
-0.00447785
-1.81853e-05
4.44117e-05
0.000823915
-0.00128884
0.00046492
-0.000110655
0.0219935
0.0802357
0.00164963
-0.000836886
0.0153613
-0.000334714
0.00034939
-0.0128771
0.0117886
2.78496e-05
-1.81363e-05
-9.70937e-06
-0.0162583
0.00280244
0.0134559
0.0109815
-0.00126935
0.001619
-0.00411189
-0.000390861
0.000516912
0.0127781
-0.0537461
0.000320775
-0.000448442
0.00434569
-0.0132685
0.0089228
-0.00691468
-0.0143727
0.0212874
0.0398145
0.000215097
-0.0400295
-7.77253e-05
1.00691e-05
6.76384e-05
-0.024655
-0.00144707
0.0261021
-3.31309e-06
-7.75864e-06
0.0016708
0.00108435
-0.00343306
3.66148e-06
-5.81007e-06
2.13243e-06
-0.00118872
-0.000258884
0.0014475
-0.00840791
0.00198843
0.00166765
-0.00108413
-0.00058352
-2.12631e-05
-0.000420929
-1.03197e-05
-4.47623e-05
9.62263e-05
0.00159217
0.00316451
0.000796183
-0.0105195
0.016491
-0.0059715
3.94295e-05
-7.64069e-05
3.69854e-05
0.0162471
0.00125383
-9.32185e-05
-2.59309e-05
2.99717e-05
0.00055024
-0.000580199
1.67734e-05
-1.46781e-05
-2.09587e-06
0.00536539
-0.000741088
-0.0046243
4.08365e-05
-7.13105e-06
1.79338e-05
3.64046e-05
0.0119458
3.25628e-06
-2.90081e-05
2.57536e-05
-5.00511e-06
-0.0179762
0.053229
-0.0352528
-0.00283113
0.00232435
-0.00201432
5.53367e-05
-4.37397e-05
-1.16151e-05
6.19727e-05
3.71904e-05
-9.91701e-05
0.00608116
-0.00492031
-0.00116088
6.52364e-05
-1.7473e-05
-4.7782e-05
-0.0426626
0.00553291
0.000501622
-0.00083573
0.000334144
-0.000290222
5.74674e-05
6.21562e-05
-0.000119635
-8.50788e-05
5.86714e-05
2.64224e-05
1.36907e-05
2.16711e-06
0.0346487
1.70897e-06
1.50639e-05
0.0138113
-0.00625524
2.57239e-05
0.00177913
0.00268473
-0.00446391
9.64382e-08
5.38228e-06
-0.00479743
0.00298578
0.000850412
0.000817253
-0.0158755
0.0976987
-0.0818232
0.000370291
-0.000186889
-0.000183425
-0.0124506
-0.00975444
0.0558999
-0.0200883
-0.0358116
3.08268e-06
-4.11246e-07
-2.68008e-06
-0.0417069
0.0237307
8.73736e-06
-2.7958e-06
-5.94344e-06
0.00980502
-0.0167197
-3.6362e-05
0.000101599
-1.20959e-05
-5.29046e-05
6.50231e-05
0.00546416
-0.0116234
0.00615921
-0.00412661
-0.0217717
-1.85301e-05
7.45721e-05
-0.000131824
5.72521e-05
0.000190522
2.42936e-05
-7.0045e-06
-1.72869e-05
4.22689e-05
1.30776e-05
0.0348109
-0.03682
-0.00141337
0.0170295
-0.0156161
-6.45074e-05
0.000323552
-0.000259059
1.658e-05
7.7102e-06
1.02422e-05
-1.49951e-06
0.0940511
-0.0430382
-0.012413
-0.00843608
-0.0134933
0.00844226
0.00505106
-1.49262e-05
-2.57876e-05
4.07053e-05
0.00565847
-0.00711129
0.00145282
-5.05173e-06
-7.04995e-06
0.000174351
0.000288905
0.0240821
2.95461e-05
-4.39593e-05
0.000525243
-0.0100287
-0.0112327
0.0212613
0.000589021
0.000412849
-0.000638041
-0.00944662
0.0100847
-1.54776e-05
-3.07701e-05
4.62447e-05
-0.00138899
-1.69062e-05
-1.68151e-05
4.63746e-05
0.000251256
-5.58636e-05
-0.000195396
0.000388204
0.000204354
4.25788e-05
-0.000135807
0.00196067
-3.70375e-05
3.87255e-05
-1.69019e-06
-0.0191848
0.0123567
0.00682812
2.94342e-05
-1.59453e-05
-1.34887e-05
0.00027472
-0.00295993
0.00659075
0.0210934
0.00289879
-0.00122796
8.13167e-07
1.22737e-06
-6.62484e-05
-1.88273e-05
-0.0471228
0.0328925
0.0142303
0.000631239
0.00502723
0.0100342
-0.00568852
1.438e-06
1.75293e-05
-1.8958e-05
2.45503e-06
4.04309e-05
-4.28942e-05
0.000939306
0.000303678
-0.000991442
-0.00199782
0.0491024
0.000154906
-0.000219429
-2.18319e-05
1.07568e-06
2.07705e-05
7.94121e-05
4.58049e-05
-0.000125213
0.000118104
-4.35372e-05
0.000366884
-0.000971433
-4.01937e-05
-6.1128e-06
4.63039e-05
-0.00887382
3.69016e-05
3.93457e-06
-6.38407e-05
5.12127e-05
-0.0198464
-5.10063e-06
-3.53873e-05
4.0487e-05
0.0119261
-0.00942381
-0.0132324
0.013016
0.000216398
-0.0190846
-0.00289772
0.0466409
-0.0415013
-0.0051396
-0.0181344
0.0167211
-1.15943e-05
4.50632e-05
-3.34855e-05
3.72895e-05
5.30561e-05
-0.000872919
0.00024253
8.10135e-05
1.04507e-05
-4.44106e-05
3.39648e-05
-5.46844e-06
5.18363e-06
2.9741e-07
-9.16877e-06
6.6424e-06
2.52364e-06
8.92376e-06
-5.36719e-05
-0.0114771
-0.0304334
-0.001805
-0.00529171
0.003283
-0.0133117
0.00182491
-0.0011074
-0.000717508
3.37279e-05
-5.40168e-05
2.02901e-05
0.00165447
0.000436254
-0.00208798
-0.000826449
0.00845414
-0.00342393
-0.00503014
-8.01891e-06
9.80708e-07
-0.000170082
-0.000474096
0.000644171
8.25905e-05
0.00016867
-0.00720473
-0.0159379
0.0231426
-0.00813839
-0.0258373
0.0339758
0.0127051
1.79632e-05
-1.34529e-05
-4.51542e-06
0.00651876
-0.00699935
0.00106858
-0.0111399
0.0105019
-0.00426927
-0.0897753
-0.00480087
0.0945761
-7.24231e-05
-0.000264656
0.000337048
-1.0804e-05
-0.0014797
0.000323795
-0.000559094
-0.00532379
0.0090482
3.09626e-05
-4.19753e-06
-2.6745e-05
5.81034e-07
9.95067e-06
-1.05145e-05
0.00665822
-0.00595858
-0.000699621
-0.116373
-3.03879e-05
-4.42202e-06
3.48123e-05
-0.0197532
0.00436712
0.00651841
0.0117797
-0.0182981
-5.95576e-05
2.07647e-05
-3.65885e-05
-5.58011e-06
4.21903e-05
3.12157e-05
-6.13556e-05
3.015e-05
5.63764e-05
-0.00012327
6.68988e-05
-2.1851e-05
6.31738e-05
-4.13354e-05
0.000715393
0.000589936
-0.00130533
-0.000492687
-0.0013884
0.00188104
3.25665e-05
-4.02174e-05
7.66287e-06
1.8053e-06
2.91662e-05
-0.00705529
-0.00966149
0.0167168
0.0137481
-0.0209528
-3.13792e-05
5.29899e-05
0.025492
-0.0287678
-0.00222358
0.0100901
-0.00786651
0.000239964
-0.000296746
5.68283e-05
-0.000537751
0.000542867
-5.11492e-06
0.000309784
-6.72585e-05
3.49983e-06
2.48106e-06
-0.000395267
0.000623351
-0.000228072
-0.000101878
0.000341874
-8.59453e-06
9.79358e-06
-1.18632e-06
2.70441e-05
3.4654e-06
-0.000264159
0.000979548
1.92113e-05
9.07366e-06
-2.82727e-05
0.00794682
-0.00248264
0.00112782
-0.000611142
-1.01009e-05
6.74285e-06
3.36195e-06
0.00010682
1.85302e-05
-0.000125346
-0.00866955
-0.00334275
0.0120123
-3.91035e-06
9.38039e-06
-1.20451e-05
2.66337e-06
-0.0781095
-0.0097491
8.98377e-06
3.32449e-05
-4.22231e-05
-0.00204745
0.00137635
0.000558923
-0.000170706
-4.80468e-05
5.25635e-05
-4.512e-06
-5.67724e-06
-1.9971e-05
2.56611e-05
-2.16103e-06
4.7262e-06
-2.56326e-06
0.000373759
-0.00119818
0.000436057
0.00111921
-0.00155525
1.8989e-06
-5.90181e-06
0.0459976
0.000643284
0.00330539
0.00719449
-0.00291013
-0.0105569
-0.0792183
-3.41526e-05
0.000113549
0.0157263
-0.0113546
-0.00437166
1.90629e-05
-0.0199723
0.0150359
-3.05956e-05
-4.43687e-05
8.93331e-05
-4.49699e-05
0.00549668
0.00215776
-0.00765442
0.0129686
0.0029932
1.42377e-05
0.00030965
-0.000323902
-0.024128
0.0213213
0.00280669
0.0109932
-2.52489e-06
-5.22915e-06
7.75439e-06
0.000891923
-0.000856924
-3.96624e-06
1.33475e-05
3.71745e-05
0.000562161
0.000577169
2.73918e-05
0.000433119
-0.000460489
-1.6684e-05
2.36232e-05
-0.00526385
0.00354457
0.00171929
-2.93003e-05
4.18051e-05
-1.25177e-05
7.52362e-05
-3.5802e-05
0.0872727
-0.00617834
-0.000253749
0.000239883
-3.21087e-05
4.25896e-05
-2.84915e-05
2.28261e-05
-0.00088964
0.000124389
-1.75536e-05
0.000846922
-0.000139753
-0.000707167
0.00090782
-0.00140052
-0.0288455
-0.00490642
0.0711012
4.73954e-05
-0.0711486
0.00171215
-0.0162617
0.0188026
-0.0179849
4.53904e-05
-5.86802e-06
-1.77107e-06
7.63722e-06
-4.06602e-05
-7.40224e-06
0.026775
0.0130395
6.46409e-06
-1.57671e-05
9.30345e-06
-2.93155e-06
3.58557e-05
-3.29101e-05
-4.16575e-05
0.000230379
-0.000188724
0.000182181
-9.96086e-05
0.0267456
-0.0169406
2.74703e-05
-1.65873e-05
-1.08633e-05
1.06297e-05
2.46398e-05
-3.52202e-05
-0.0218674
-0.0108291
0.0326965
3.76686e-07
4.87806e-05
-4.9143e-05
-0.0020484
-0.00393621
-1.50269e-06
-4.35765e-06
2.71582e-05
5.39431e-06
-0.00575986
-0.0189581
0.0247179
0.000567158
-0.000296307
0.0102738
-0.0120806
0.00341103
-1.70414e-05
1.03225e-06
-4.37513e-05
5.49982e-05
-1.12399e-05
0.0145288
-0.0292942
0.0147654
-3.17972e-05
2.11218e-05
0.000206997
-0.000248632
-0.0523588
0.00599402
4.61448e-06
-3.30038e-06
-1.31366e-06
-0.03335
0.0426382
-0.00928819
-2.86065e-05
-3.09412e-05
-4.27541e-05
9.91321e-05
4.03946e-05
-0.000280263
0.00252989
-0.000480044
0.00050744
-0.0188764
0.0139524
0.00492402
1.07129e-05
-4.3753e-05
-3.33141e-05
5.19595e-05
-1.8655e-05
0.0292729
-0.0164586
-0.0128142
0.0360535
0.00160042
-0.00116442
0.00253857
-7.5501e-05
-0.00246306
-0.00283737
-0.0024265
0.000575431
-0.00519784
0.00462241
-0.0515679
0.0227224
-1.23763e-05
1.25395e-06
1.11263e-05
0.00429596
1.28961e-06
-5.48518e-06
-0.0056422
-0.0269583
-0.00400636
1.34687e-05
0.000323744
-0.00202089
9.72341e-06
1.77472e-05
-0.0280307
-0.0146319
2.69704e-05
-2.03282e-05
-6.6435e-06
-0.0881677
0.0722922
-0.000183204
-7.05517e-05
-0.0300058
0.00301394
-0.00679799
-4.54798e-06
-4.6239e-06
-1.89304e-05
1.96345e-05
-7.00791e-07
3.69172e-05
-2.8901e-05
-0.0133466
0.0114119
0.0153338
2.21862e-05
-4.03851e-05
-0.0362369
0.0664987
2.00419e-05
-1.68662e-05
-3.1536e-06
-4.35463e-05
1.19844e-05
0.00656317
-0.0399132
1.9088e-05
-5.06426e-05
3.15594e-05
-0.0102324
0.00800885
-1.60894e-06
-2.13817e-05
2.29974e-05
7.00743e-05
-0.000353631
0.000283576
-2.01662e-05
5.1189e-05
1.63429e-05
-1.79481e-05
1.63338e-05
-4.96449e-05
2.01142e-05
6.85427e-06
-0.0105078
-0.00272468
0.00261631
-7.77254e-05
-0.00361885
0.00319868
0.000420188
0.000795701
-0.00201926
0.00122357
-0.000185773
0.000373457
-0.000187662
5.7161e-05
-2.97551e-05
-2.7384e-05
-0.00620405
-0.0427599
0.048964
-3.71723e-05
5.63847e-05
-1.92143e-05
-0.00627498
-0.0126015
7.16777e-06
-4.34228e-05
3.62497e-05
-0.0708195
-0.000806089
0.000308429
0.012952
-0.0169256
0.000145213
-8.46131e-05
0.000402905
-0.000318285
-4.62688e-05
1.69811e-05
-0.0158535
0.00308875
0.0127648
-1.85314e-06
-2.06867e-06
0.0232307
-0.0162339
-0.0110955
0.00946417
0.00163139
5.95207e-06
-0.000488972
0.000518938
-5.65927e-05
1.94234e-05
2.57301e-05
8.24737e-06
-3.39805e-05
-0.000532302
-0.000276835
0.000809137
9.619e-06
8.09029e-05
-9.05047e-05
-0.0362456
-1.21417e-05
3.4345e-05
0.000403065
-0.000475502
2.83869e-05
-6.65154e-06
-2.17464e-05
0.000268169
-0.000143444
0.0142336
0.0834651
0.0190493
2.29369e-05
-5.92811e-05
-6.39912e-06
-1.90239e-05
2.5441e-05
0.00137153
-0.000582903
-0.000788632
-0.000281979
9.61993e-05
-4.31513e-05
-1.84236e-07
4.33377e-05
9.05572e-05
-0.00209538
6.84069e-05
-0.000212574
0.000144174
2.53255e-05
4.97255e-06
-0.000217234
0.000217584
-3.44692e-07
-0.00492604
0.00664243
-0.00171643
0.000982035
0.00369272
-5.10779e-06
-0.000109971
0.000146785
-0.0251513
0.01203
0.0131213
0.00084498
-0.000423806
-0.000421179
-0.0182437
0.00932366
0.00892
-0.0350957
-4.32852e-05
2.92697e-05
1.40008e-05
0.0124026
-0.000813924
-2.02777e-05
-1.05541e-05
3.08356e-05
0.000230274
-0.000583819
0.00137557
0.000189752
0.000284332
-0.00575374
0.00534181
0.00041194
-0.000100523
-9.2606e-06
-0.000836961
-0.00121049
0.00725778
-0.0635578
0.0563001
0.00561647
0.003012
-0.00862846