/*--------------------------------*- C++ -*----------------------------------*\
| =========                 |                                                 |
| \\      /  F ield         | OpenFOAM: The Open Source CFD Toolbox           |
|  \\    /   O peration     | Version:  v2012                                 |
|   \\  /    A nd           | Website:  www.openfoam.com                      |
|    \\/     M anipulation  |                                                 |
\*---------------------------------------------------------------------------*/
FoamFile
{
    version     2.0;
    format      ascii;
    class       volScalarField;
    location    "300";
    object      omega;
}
// * * * * * * * * * * * * * * * * * * * * * * * * * * * * * * * * * * * * * //

dimensions      [0 0 -1 0 0 0 0];


internalField   nonuniform List<scalar> 
18758
(
0.0248897
0.1592
0.021634
0.0249067
0.0250725
0.0205156
0.0212827
0.0226206
0.0246914
0.0244452
0.0486724
0.523896
0.574931
0.0224916
0.021263
0.0211452
0.515428
0.0195369
0.021253
0.0237052
0.140105
0.197134
0.0206624
0.0205603
0.754953
0.267629
0.123842
0.106035
0.0759509
0.271578
1.2655
0.158998
0.0225096
2.73216
0.0253936
0.215162
0.543173
0.0251308
0.876385
0.0198899
0.368055
0.025372
0.36574
0.0214331
0.0213523
1.31899
0.0247339
0.0757175
2.71588
0.0247752
0.0408637
2.24923
0.024845
0.0238014
0.140407
0.361662
0.0205433
0.0235188
0.0685786
0.0205106
0.0215169
0.0213725
0.303922
1.95686
0.0216715
4.23645
0.0214035
0.0198551
0.106278
0.0195543
2.34608
0.265326
0.0212175
0.0256806
0.0608334
1.2555
0.878381
0.420371
0.0248545
0.359214
0.085632
0.927511
0.442185
0.0384749
0.0222449
0.121264
0.0246708
0.0261891
0.293798
0.116762
2.83876
0.0223264
0.0664956
2.82554
0.021206
0.0207473
0.0196722
0.0515861
0.435976
0.0210932
1.27772
0.0277202
0.0198484
0.0207418
4.17622
0.231906
0.0775858
2.89766
0.178424
0.0397203
0.0211697
1.92023
0.0254341
0.0213784
0.0278184
0.286677
0.050047
0.0203558
0.33776
0.02289
0.0212182
0.820737
0.0223384
0.0204742
2.32361
0.0238575
0.0211256
0.0204767
0.131879
3.03234
0.0702509
0.022211
0.0263484
3.7016
0.0199316
0.0213263
1.45474
0.0220504
0.139075
0.0833653
0.0272764
0.385844
0.0420891
0.359565
2.48274
0.0482018
4.1922
0.11498
0.0837879
0.37049
3.44554
2.08547
0.0215823
0.0258537
0.367934
0.308053
0.0647081
0.137666
0.0392452
0.108182
2.26772
0.0205771
2.57863
4.13585
1.56651
0.0205966
0.0205649
2.53281
3.15243
0.532126
2.01784
0.02179
0.0846872
0.252215
0.168154
0.0210613
0.0212046
0.255703
1.9232
0.0219817
0.0197831
0.0238586
0.137904
0.0224109
1.34859
0.0213563
0.301406
0.0312302
3.0903
1.74589
2.03745
0.0213481
0.0642255
0.955542
0.019694
0.0223208
0.16064
0.0215693
3.30533
0.0207282
0.0220017
0.15056
0.276914
0.0211417
0.0211718
2.74233
0.0209449
0.0260391
3.35486
2.52985
0.0212443
0.065054
0.022346
0.0221677
0.0230278
0.0196902
0.0212984
0.0640419
0.0201957
0.311102
0.449114
0.0208575
0.0413444
0.150908
0.521776
0.253649
0.0641297
0.120389
2.37417
0.0209191
0.281854
0.0469721
0.161428
0.0215564
0.0209906
0.0209382
0.0748748
2.42083
0.186807
0.0218739
0.0211841
0.0664576
0.118701
0.0214464
0.216061
0.207874
0.021004
0.0206252
0.0211953
0.0210939
2.05289
0.0213126
0.260133
0.0210004
0.0210465
0.219044
0.020566
0.276451
0.0211841
1.19941
0.025922
0.0204952
0.0210122
0.0618457
1.35144
1.22602
0.0205071
0.131936
0.021594
0.0213814
1.26242
2.09201
0.021358
0.0208536
0.0200749
0.022857
0.0253415
0.0200332
0.0223806
0.0224876
0.020629
0.0223392
0.0212137
4.0591
0.0212734
0.0208357
0.0195214
0.11363
0.0207271
0.0207304
0.0216483
0.0220365
0.0205205
0.0208904
0.0213106
0.0221499
0.258874
0.0228637
0.0207757
2.50816
0.0237094
0.0208645
0.0208709
0.361994
0.143161
0.0197777
0.0283936
0.319021
0.0215015
0.356611
0.0212192
0.806709
0.150619
0.0830585
0.0747434
2.78502
0.0198254
0.203674
0.166691
0.0214205
0.0785271
0.0381579
0.23536
0.020966
0.0198319
2.73072
0.237567
0.0207268
2.12039
0.054901
0.028937
3.57013
0.0209595
0.0206226
0.0211609
0.0212851
0.0219814
0.0239803
0.0226529
0.020993
0.0219228
0.0218576
1.30239
0.315262
0.0219244
0.200811
0.374485
0.0207148
0.0316334
0.207303
0.761049
0.39136
0.162884
0.0213585
2.06431
1.16636
0.033016
0.0218501
0.0294801
0.0222475
0.021324
0.173609
0.931597
0.398969
0.0782575
1.39731
0.0209984
0.0251592
0.0241722
0.051499
2.50496
0.201883
0.147417
0.113523
0.360125
0.175842
0.0211884
4.14216
0.122414
0.0436918
0.412684
0.0210098
0.0205307
0.378834
0.406335
0.441974
1.79335
2.1983
0.0218949
0.541613
0.0917922
0.0211545
0.0224222
0.0229404
0.0226529
0.0212279
0.0223349
0.0214176
0.0227927
0.0214043
0.0213018
0.0285575
1.03385
0.0275601
1.3422
1.3383
3.17886
1.0582
0.116538
0.0218302
0.0206025
0.370023
0.0224207
0.0218916
1.17797
0.0505926
0.136744
0.0205932
1.13263
0.0212326
0.0238145
0.0197421
3.7513
0.906808
0.402115
0.0212911
3.54037
0.0630969
0.0212402
0.0225326
0.0212857
0.144555
0.021319
0.0208666
1.49389
0.0278963
0.0219127
0.0211933
0.0225348
0.0237639
2.0175
0.0753064
0.0217351
4.2179
0.019735
0.0253621
0.113431
0.0214099
1.29573
0.0217453
0.0239321
0.0215875
0.21589
0.0224867
0.0214108
2.21373
0.106344
0.0195346
0.0250707
0.0230549
0.0211489
0.0210305
0.0220972
1.54935
2.3462
0.0216512
0.0330056
1.48457
0.232204
0.323455
0.204967
0.303128
0.0202905
0.107792
0.0600616
0.0277059
0.0224747
0.317986
0.150592
0.0276201
0.0206283
0.0212806
0.0207234
0.0214053
0.0207172
0.0213889
0.683687
0.0218183
0.0197036
0.0606012
0.0221941
0.0216354
0.0198752
0.0228656
0.172525
0.0756315
0.0209651
0.0407656
0.0208397
0.0274324
0.130801
2.17441
0.252316
0.0211517
0.0213676
2.29968
3.65209
0.0549447
0.0205642
0.0899355
4.12259
0.0195201
0.0206439
2.34383
0.0230621
0.0880101
0.0610338
0.0230172
0.0329289
0.0206317
0.0210182
0.0222517
0.0209925
0.0208946
0.0215604
0.326528
0.0197907
0.206258
1.39428
0.0195319
0.0197906
0.0220382
0.0251586
0.0274077
0.0772514
0.0211037
1.77173
0.0272549
0.0276136
0.0207508
0.0210784
0.0214082
0.0216725
0.0216584
2.20103
0.885741
0.0206243
0.0208731
0.0219859
2.56227
0.0197508
0.0197074
0.0213896
0.0197121
0.0208036
0.0207227
0.0225195
0.0211429
0.0718563
0.0211002
0.0200209
0.0996273
2.11283
0.025823
0.0211633
0.0210837
0.0217868
0.0211895
0.022279
0.0271722
0.230533
0.0219984
0.089364
0.0210731
0.0323817
0.0212007
0.0207661
0.0480208
0.0195608
0.0210345
0.228272
0.0215835
0.0223752
0.0735786
0.0210238
0.02131
3.56
0.020341
0.775656
0.111969
0.02099
0.0216095
0.0362685
0.0228629
0.0274455
0.0210448
1.1855
0.0572162
0.283975
0.0206491
2.66866
0.0196731
0.0212577
0.0211165
0.0265544
1.67038
0.121667
0.0213021
0.0223316
0.0228779
1.95223
0.0951093
0.0210549
0.0294689
0.0238388
2.28402
0.0261914
0.0305202
0.0207461
0.0272796
0.0513107
0.0209512
0.0207492
0.019757
0.0206809
0.0252287
0.0635276
0.255973
0.218977
0.0197749
0.0234227
0.02112
0.0205883
0.334039
0.615381
0.019917
0.0419026
2.16292
2.22693
0.0214795
0.0212709
0.0399301
0.358267
0.0196648
0.235596
0.0211874
0.022644
0.0288543
0.0213743
0.0216658
0.021768
0.0206688
0.0221579
0.0659515
0.0470489
0.462913
0.022109
0.0208223
0.3245
0.0197282
0.820433
0.341097
0.0211987
1.37554
0.0231245
0.0212817
1.43844
0.239437
0.243657
1.486
0.0227119
0.178095
0.0197995
4.05004
3.11803
0.0315216
0.0211
0.520927
0.0236335
0.0484781
0.106352
2.20304
0.0215463
0.355867
0.0208306
0.0431493
0.0815409
0.0207431
0.0284946
0.691246
0.779698
0.0253058
0.0226359
0.0197027
0.0218516
0.0224161
0.0308305
0.0729714
0.0208699
0.273477
0.0232192
0.0213668
0.0254273
0.0197377
0.107239
0.0212023
0.0206855
0.609085
0.0206112
0.0224489
0.408455
0.065052
0.0677592
0.0213888
0.0213563
0.0473082
0.0213457
0.357399
0.0235898
0.0232308
0.0221937
0.0213426
0.0196854
2.46718
0.0197395
2.06511
0.163927
0.0220165
2.80159
0.0205551
0.0301925
0.025011
2.45104
0.0234138
0.0360944
0.364934
0.0212972
0.403108
0.020217
0.106584
0.0213641
0.0217434
3.17086
0.409321
0.0211824
0.0215436
0.0225642
0.0205394
0.0213824
0.338013
2.46218
0.0207869
0.0205283
0.0202332
2.17075
0.111921
0.168688
0.0206576
0.0367569
0.0217329
0.021375
0.0277056
0.466077
0.0210565
0.0426833
0.0930016
0.0203508
0.143375
0.0213857
0.0261598
0.0210329
0.020391
0.025131
0.0213928
0.0524016
0.0213861
3.83428
0.0214296
0.0237212
0.0730242
0.694501
0.042158
0.0207352
0.0213305
0.37072
0.0427064
0.0454003
0.0208278
0.0210832
0.0256563
2.16848
0.417867
0.0207372
0.021171
0.0219591
0.0215142
0.0220322
0.0211724
0.0211246
0.301361
0.0211988
0.0213171
0.371515
0.0206377
0.221016
0.0848026
1.67338
0.41099
0.420315
2.39296
0.0211814
0.0210947
0.0229666
0.0207685
0.0210637
0.0205253
0.0207042
0.0218176
2.01447
0.130544
0.0902844
0.0211405
0.0210557
0.0277434
0.0283307
0.0538056
0.0214952
0.0221994
0.0203741
2.66506
0.183593
0.393432
0.0215603
0.0840132
0.119137
0.173783
2.13022
0.924943
0.0223238
0.0206431
0.02008
1.80225
0.0215253
0.0198708
0.0688114
1.20682
0.0211627
0.255298
0.033459
0.0212267
0.021132
0.0212446
0.0211897
0.0212712
0.0227455
0.0281909
0.0212552
0.0215398
0.15308
2.54008
0.0212435
0.291303
0.255187
0.0220549
0.0213694
0.0208241
0.0203024
0.0227244
0.0220331
0.0211359
0.0216702
0.0225702
0.0215258
2.90754
0.0254883
0.0209475
0.0212005
0.692336
0.0215599
0.019859
2.40276
0.0210782
0.0316927
0.0251237
0.0213272
0.0208007
0.0205108
0.023988
0.0384821
0.0211362
0.424207
0.0559767
0.104872
0.837806
0.021907
0.17411
0.0197991
0.111661
0.0220441
0.0211109
0.147511
0.234618
0.0216466
0.128328
0.293782
0.0204218
0.0282074
0.0198593
0.021885
0.0256151
0.0221946
0.0210662
0.0989806
0.021032
0.0208437
0.487842
0.0208033
0.0210599
0.0207992
2.60859
0.0212283
0.0213929
0.0277423
1.01991
0.442775
0.204922
0.299977
0.0210339
0.0197284
0.0213356
2.15173
0.0218071
0.0209163
0.0229359
0.0203265
0.102255
0.0215557
0.0215075
0.119194
0.0211416
0.0627984
1.26062
0.0197217
0.0212471
0.325633
0.0228115
3.45362
0.648081
0.0205835
0.0214033
0.813099
0.0206784
0.0229782
0.446488
0.0200899
0.606931
0.02123
0.0211577
0.0212615
0.0281383
0.0222815
0.286288
0.0225477
0.020978
0.513581
0.364111
0.0388875
0.0258359
0.106975
2.16878
1.10205
0.0196218
2.10154
0.0215057
2.35931
0.168626
0.0208065
0.0257365
0.0215718
0.360054
0.0207645
2.36487
0.0208009
0.15403
0.12742
0.0206049
0.0196888
0.02119
0.139607
0.0975632
0.0211872
0.912157
0.0214273
0.0210632
0.607674
0.021283
0.234143
0.0208102
0.0230826
0.0209497
0.0208124
0.0209871
0.0207668
0.0756219
0.0266978
0.0290653
0.0302833
0.0217195
0.0212278
0.493576
0.0212587
0.312553
0.0214876
0.487957
0.0252652
0.199485
0.0205329
0.0207101
0.0210363
3.11833
0.0210946
0.390871
0.0492677
0.021396
0.0250831
0.0212534
0.0206256
0.0230696
0.0208356
0.492044
0.0211971
0.0224305
0.021194
0.0225653
2.51037
0.925025
0.0213489
0.020814
0.021387
0.021644
0.0211132
0.0225264
0.021827
0.0211806
0.0203049
0.0204766
0.195981
0.0878079
0.0213948
0.0203131
1.38848
0.0221727
0.343018
0.441313
0.0217617
2.87811
0.0222792
0.0205411
0.0211509
0.0228986
0.0228627
0.0203914
0.0308486
0.43083
0.031694
1.35396
4.72932
2.32712
0.0283284
0.0215091
0.021419
0.503644
0.0203131
0.021427
0.0283917
0.130281
0.0210297
0.0206338
2.07151
0.0233035
0.0232263
0.0209712
0.023125
0.0306941
0.0214106
0.0235988
0.0212037
0.0291868
0.023234
0.0216812
0.0216129
0.220824
0.0217113
0.0212374
0.477553
0.0196875
0.0209679
0.0213626
0.0220775
0.0214628
0.212943
0.112632
0.524125
0.369491
1.96349
0.235204
0.0225193
2.04933
0.481626
0.0213439
0.0219788
0.0215814
0.0214201
0.0221398
0.0220808
0.0717949
0.0991951
0.0214217
0.020204
0.0373234
0.0232615
0.237458
0.0209528
0.0218819
0.0210691
0.19901
0.526927
0.0279779
3.73627
0.0211092
0.0210794
0.0727796
0.026023
0.0210633
0.0989895
0.0217152
0.0258712
0.357866
0.0810535
0.0287347
0.0215431
0.0215898
0.0217694
0.020644
0.45816
0.0725907
3.07191
0.0496159
0.338786
0.0216863
2.48174
2.78059
4.70059
0.112429
0.317779
0.0248017
0.19102
0.105272
0.0304268
0.0195395
0.0211645
0.0213705
0.0359399
0.0208114
0.0212859
0.0628325
2.24248
0.333015
0.333524
0.0797756
0.604243
0.027638
0.0230659
0.0212471
2.26105
0.187786
0.0206592
0.0280248
1.31186
2.10329
2.22095
0.0318268
0.0461512
0.0197321
3.36812
0.0217064
0.442631
0.0178231
0.0282491
0.132077
0.108473
0.0213933
0.0212282
0.110212
0.0319534
0.188323
0.021677
0.0214241
0.0232601
0.427551
0.0240953
0.324118
0.0217397
0.272562
0.201327
0.0243032
0.0810245
0.0634667
2.3845
0.0197328
0.0316723
2.65904
0.0267524
0.0211604
0.152856
0.118049
0.0211334
0.0212502
0.228618
0.0221264
0.0223993
0.268095
0.390784
0.021412
0.0280058
0.983229
0.028718
0.022792
0.022688
0.349368
0.0242685
0.020738
0.0209877
0.0653642
0.02077
0.381171
0.0204391
0.0206661
0.289144
0.0215494
0.0211125
0.0854738
0.0196862
0.0230085
0.020479
0.0210772
0.021491
0.0850387
0.0213217
0.310106
0.136749
0.616675
4.4801
0.0235727
0.0205692
0.0207734
2.63746
0.0250412
0.021162
0.315186
0.0300976
0.356547
0.0201253
0.0204319
0.0205711
0.0208097
0.0212014
0.0198969
0.0220008
0.0222424
0.0212953
0.0971536
0.0250678
0.304877
0.0222885
0.0204818
0.0224487
4.18445
2.84553
0.393932
3.68768
0.419954
0.0974502
2.81549
0.022588
0.0332664
0.0426515
2.11489
0.0209747
0.773761
0.0306628
0.163305
0.0211831
0.316351
0.0210522
0.0212403
0.0210974
0.0289622
1.9426
0.302264
0.0215406
0.0195744
0.0204421
0.0200768
0.0277735
0.0213389
2.80212
0.0610058
0.0258837
0.0217492
0.0211428
0.0198589
2.08872
0.0898271
0.0211677
0.0207993
0.119806
0.0200501
0.0213376
0.0203133
0.0211779
0.021475
0.0212333
0.0204988
0.0412275
0.0228727
0.188648
0.0238922
0.0216136
0.159782
0.0215319
2.19102
0.0216217
0.0485451
0.116836
0.372782
0.0321144
0.0877508
2.29888
0.0229514
0.0295846
0.0222386
0.0211708
0.0204884
0.0209376
0.0656148
0.0341033
0.0235826
0.0634165
0.0204663
0.021387
0.0337155
0.0475073
0.0196467
0.041113
0.269735
0.112676
0.0889255
0.0218757
0.0214964
2.35559
0.0267689
0.0208553
0.0211252
0.121274
0.0205536
0.0206423
0.30034
0.0561477
0.0222868
0.022
0.0216342
2.78742
0.023454
3.07296
2.26639
0.0212261
0.0210128
0.880973
0.0305015
0.0201757
0.022187
0.0209747
0.0221018
0.0208248
0.0234916
0.16492
0.0368041
3.54651
0.362538
0.0327666
0.45001
0.889239
0.0206647
0.312901
2.25832
0.0225133
4.691
0.0214703
0.180601
0.0797374
0.385063
0.0192317
0.164144
0.0277258
0.292589
0.021053
0.0198695
4.57056
0.0228793
0.0211417
0.0211806
0.0216201
0.0198469
0.0218931
0.0209857
0.0211717
4.01355
0.581457
0.021088
0.0216355
0.641316
0.436093
0.0197143
0.189046
0.212829
0.0434655
0.0213622
0.0209751
2.08866
0.0216491
0.0499633
0.0850361
0.0206476
0.0192693
3.77843
0.020943
0.436708
1.43118
2.71192
0.0218413
0.0209298
0.0212906
0.0211637
0.0211943
0.310364
0.104053
0.0203264
0.338136
1.17243
0.021973
0.0215161
0.0211991
0.392284
2.16354
0.0283571
0.0213198
0.0228582
3.68341
0.299046
0.0205118
0.0210684
0.0253798
0.0333617
2.11921
0.309876
0.0206866
0.068655
0.307505
0.0209473
0.0208682
0.021532
0.0232369
0.0210177
0.0219207
0.0206297
0.0777427
0.365147
0.0213406
0.0215133
0.0308095
0.0206592
0.0210785
0.0218553
0.284712
0.020603
0.0229844
2.18788
0.167548
0.0656433
0.0819516
0.0219078
0.0216523
0.0218398
0.02041
0.0210733
0.0218932
0.473592
0.0262395
0.022104
0.0247089
0.0203524
0.119193
0.34741
0.0212023
0.512842
0.0207594
0.0224794
0.172147
0.943867
0.0234382
0.0231587
0.0233609
0.0512956
0.0197175
0.276276
3.74458
0.0206298
0.0764521
0.499452
0.0213409
0.0222545
0.31681
0.0697376
0.0215489
0.435777
0.0239153
0.0211807
0.305039
0.124563
0.0651984
0.0207234
1.46302
0.0311274
0.0198315
0.0464675
0.0277236
0.021395
0.0363628
1.0366
0.447348
0.0363395
0.0379979
0.0206176
2.29369
0.313386
0.182159
0.238815
0.0213417
0.827465
0.0213411
0.021023
0.0440128
0.0219394
0.017571
0.26701
0.0215739
3.53653
1.65111
2.64686
0.0269248
0.0648269
0.0196391
0.0218001
0.023006
0.0196049
0.201299
1.48583
3.9074
0.40264
0.102775
0.423177
0.92287
0.0211893
0.0222723
2.31213
0.0580928
0.021342
0.0211316
0.747915
0.0386628
0.0255775
0.0212369
0.0214702
0.0552605
0.0211358
0.077844
0.286102
0.019831
4.10404
0.0202505
2.13987
0.210657
0.781125
0.0222316
0.0811197
0.0215194
0.0210721
0.022123
2.11124
0.0335099
0.392614
0.0215673
0.0211276
0.0905057
2.40673
0.0215664
0.126368
0.233621
3.86687
0.231334
0.0208602
0.0213588
0.438245
0.0196092
0.02035
0.023736
0.0212108
0.021436
0.0208289
0.0211216
0.0236644
0.0211669
0.0284074
0.027135
0.0209809
2.5187
2.098
0.0242872
0.0202085
0.0212844
0.0316849
0.0213461
0.02124
0.0213428
0.10566
0.021137
0.0226452
0.0228193
0.0178312
0.391172
0.020912
0.0580312
0.0947878
0.025369
0.0607595
0.00978523
0.020724
0.0211917
0.0397771
0.0320169
0.0230703
0.842745
0.621107
0.0212887
0.322932
0.0219483
0.066281
0.87538
0.825808
2.81771
0.0227965
0.0210734
0.383323
0.0227315
0.18935
0.0274013
0.0549399
2.09503
0.0206825
0.0399644
0.0210642
0.0358528
0.0863322
2.94409
0.0209993
0.0213402
0.0817217
0.0216355
0.895132
0.0206385
0.429421
1.61343
0.0431605
0.786515
2.08475
0.020771
0.0208974
0.0213363
0.508929
0.169435
0.0217419
0.0226052
0.0217649
0.020223
0.0207379
0.0207956
0.0203933
0.376249
0.021695
0.0203633
0.0234065
0.555269
1.55961
2.64675
0.0215165
0.0576735
0.0203026
0.0247537
0.117397
0.842295
2.10176
0.0203599
0.0354596
0.0197136
0.0345118
0.0302461
0.0526088
0.106569
0.0217687
0.0843671
0.020272
0.341827
0.369244
0.0203933
0.022298
0.0220783
0.0220804
2.91551
0.0213191
0.0213532
0.0219362
0.0216423
0.0204738
0.0223202
0.0212937
0.0216751
0.0213429
0.0210233
0.275272
0.339882
1.29246
0.0200593
0.0197161
0.0197729
0.0201264
0.0198144
0.0333346
0.0198296
0.0206137
0.0212468
0.0208527
0.0281537
0.0212571
1.65914
2.05953
0.0389221
2.20111
0.0215156
0.66864
0.0699816
0.190952
0.0205393
0.423026
0.0220181
0.0213412
0.0213553
0.061274
0.101784
0.0209129
0.0281119
0.0273792
0.0211672
0.0759424
0.347864
0.02941
0.0208958
0.0228364
0.103668
0.0219418
1.40169
0.0209204
0.0220643
0.0213449
0.0234616
0.0283525
0.269469
0.0308188
0.0203636
0.68321
0.0308014
0.0420271
0.021059
0.0240128
4.50157
0.0206619
0.0217339
0.0266743
0.142958
0.0198197
0.0210166
0.0204545
0.0299538
0.021438
0.162293
0.0213558
0.0248348
0.0270707
3.93373
0.020635
0.0204148
0.0197205
0.0292822
0.0202172
0.504824
0.508711
0.0291751
0.42686
0.0212735
0.426826
0.0213873
0.0205878
0.0466087
0.0500245
0.170766
0.305075
0.272202
0.2599
0.0263575
0.0339084
0.0221582
0.407707
0.0213518
0.0214906
0.462133
0.0216459
0.45665
0.258007
0.23796
0.455788
0.297891
0.899401
0.436105
0.0822287
0.0220391
0.0275663
0.0213476
0.0203769
0.0210313
3.2437
1.83089
0.308768
0.0244774
0.0233948
0.44855
0.0209313
0.0282812
0.0204225
0.0343578
0.0212051
0.0198605
0.0221312
0.040652
0.315045
0.0290266
0.0271738
0.0204274
0.0266341
0.981798
0.0202753
0.052814
1.09572
0.0196168
0.0605028
0.0205641
2.11995
0.0217454
2.67319
0.0218066
0.0214867
0.024604
0.0297499
2.41954
0.0291766
0.35008
0.0224775
0.0213392
0.0213536
0.0213721
0.0203531
0.021301
2.38171
4.25429
0.0293673
0.0210773
0.0248414
0.0229168
0.0215615
0.021525
0.0898469
0.240005
0.344064
0.0212139
0.438723
0.0205596
0.0659508
0.0224705
0.0396692
0.240913
0.434592
0.315281
0.0198964
0.0213078
0.0209446
0.0211534
0.0213456
0.0211322
2.7024
0.0214634
0.021614
0.0218009
0.033711
0.0211331
2.39799
4.10035
0.286995
0.0213574
0.278456
0.0203411
0.373886
0.0985049
0.02233
0.287954
0.0235235
0.0669272
0.0206978
0.0213457
0.0274625
0.0429073
0.110592
0.0825839
0.160976
0.142727
0.0310708
0.0220623
0.0211916
0.135158
0.0230348
0.134171
0.0219728
3.47496
1.62629
0.433028
0.0222136
0.0965629
0.0232947
0.0211787
0.0201518
0.0226635
0.0699824
0.0212421
0.457897
0.0341774
0.113972
0.0210252
0.0246983
0.261593
0.447446
0.299439
0.0241662
0.0210835
0.97738
0.0894509
0.0216847
0.0422143
0.302009
0.067339
1.64356
0.0246227
0.0256451
0.206973
0.0198699
0.254254
0.0496039
0.0213331
0.135372
0.396275
2.43229
0.0238
0.129669
0.0259124
0.0204155
0.0511244
0.0217966
0.197508
0.0204173
1.99129
2.33563
0.256898
0.276357
0.11375
1.67743
0.0237391
0.0439869
0.270118
3.42753
0.0223754
0.0218465
0.0210231
0.0249495
0.019908
0.02105
1.62764
0.0210417
0.0206075
0.0281877
0.0218759
0.01983
0.034374
0.477306
0.0620759
0.0212587
0.0213541
0.0276972
0.0222529
0.0210416
0.0209472
0.020407
0.973414
0.0246812
0.0482427
0.0256368
0.0212073
0.019858
0.233593
0.155408
0.0702106
0.0239535
0.0216332
0.0336304
0.0209406
0.0269989
0.0888714
1.86601
0.0358286
0.0230725
0.0202892
0.0264421
0.308462
0.331167
0.173564
0.0243902
0.0203503
0.0205973
0.0239332
0.0670623
3.73964
0.0204565
0.423825
0.0198661
0.0210557
0.0909484
0.0208609
0.864422
0.0935277
0.396089
0.0198222
0.0324629
0.0402073
2.75182
0.0203312
0.0214251
0.176988
0.4979
1.0937
0.147134
2.1431
0.0222406
0.198412
0.0245525
0.0283285
3.19907
0.0204756
0.0209377
0.0215409
0.0200855
0.408483
3.70085
0.0239719
4.05902
0.02014
0.0209486
0.0214891
0.134326
0.0457735
3.9118
0.0213882
0.0218271
0.0308332
0.878815
0.0203309
0.162034
0.020648
0.0210116
1.97917
0.0208649
0.112033
0.690902
0.333953
3.5842
0.021224
0.0232329
0.0235826
2.13031
0.0261183
0.0213755
3.48555
0.142553
0.0195919
0.0224541
1.64009
0.0204364
2.50642
2.14981
0.024233
0.0197283
0.0235537
0.0242714
3.80334
0.0205734
0.0312032
0.0220565
0.297851
2.95601
0.0212298
0.020189
0.160179
0.0249945
0.0214823
0.0210288
0.0208916
0.052756
0.0227522
0.0911427
0.0217677
0.0216331
0.0207205
0.0224478
0.0201141
0.0224726
0.69207
0.289053
0.44032
0.0217592
0.0203198
0.60937
0.0252156
0.0683112
1.55846
0.116372
0.289722
2.16044
0.0203108
0.425795
0.0210791
0.0221625
0.0208301
0.0213922
0.0213756
2.37274
0.281032
0.0213536
4.64282
0.2051
3.56984
0.0197685
0.0205859
0.416935
0.0208953
0.0214559
0.024034
0.0210276
0.238908
0.0226018
3.15967
0.0992276
0.0208217
1.79652
0.0598687
0.350815
2.11858
0.0212795
0.0236494
0.0317469
1.57884
2.06085
0.0405615
0.0217015
0.0213941
0.0879668
0.0204327
0.344113
0.412857
0.0209296
0.439641
0.0203876
2.1349
0.0215382
0.304079
0.0220868
2.36558
0.215302
2.29897
3.39929
0.0200744
0.196174
2.81906
0.0218105
3.05941
0.0217373
0.0199634
0.0211987
0.0257659
0.0233652
0.0215094
0.0209824
0.063511
0.0406762
0.0438057
4.65715
0.0544996
0.0272129
0.0220606
0.0565068
0.020177
0.105232
1.02035
1.7675
0.298145
0.0222819
0.0232264
0.0221669
0.0318033
0.0226401
0.021023
2.69018
0.281451
4.06161
0.0205448
0.0215258
0.0434411
1.85745
0.0218045
0.0204159
0.022159
0.0224259
0.0398828
0.0212543
0.434072
0.0216852
2.85143
0.0205738
0.0514689
0.237952
1.44093
0.0200682
0.102651
0.0213519
0.0203991
0.0696741
0.246131
0.0210038
0.022017
2.28777
0.0212894
0.0554054
0.249342
0.0256682
0.512521
0.0214361
1.24303
0.0278317
0.352687
0.0203098
0.0206778
1.62368
0.0208196
0.299546
0.0236862
0.0274931
2.54311
0.0221899
0.0213921
0.0220168
0.0210313
1.74767
2.73706
0.0204025
0.429112
0.0493812
1.94522
0.0212012
0.0859268
0.123445
0.0256905
0.0279349
0.0213583
4.57206
0.019996
2.65714
0.0202991
0.0206306
0.0232609
0.0215484
0.0206725
0.0566198
0.0229029
0.0210099
0.279025
0.0204361
0.0410324
0.0249317
0.735124
0.0282836
0.0205927
0.0301727
0.0209735
0.0209488
0.0235168
2.06336
0.123711
0.268968
0.444994
0.0203892
0.0211245
0.0212462
0.0209037
0.02022
0.339252
0.0198448
0.0231405
0.213858
0.0220232
0.22938
0.0213494
0.0203938
3.8174
1.77057
0.0215649
0.0472098
0.0241068
2.04436
0.0210526
0.0225533
0.083122
0.0214384
0.0940278
0.182686
0.0220313
0.0220681
1.22465
0.0237771
0.0535771
0.182966
1.7093
0.0231004
0.0205208
0.0324294
1.1029
0.0218045
0.244108
0.912602
1.74405
2.52134
0.0204643
0.0213616
0.0211635
0.0880584
0.445988
0.817949
2.16723
0.0200543
0.0938789
0.0205116
4.62888
0.0211904
0.0357964
0.10901
0.0219053
0.0219058
0.119727
0.02447
0.0217001
0.0219011
0.0620993
0.0229059
0.0209265
0.0852726
0.0217551
0.0217487
0.0211105
1.4356
0.0247535
0.278429
0.0268324
0.0227695
2.39702
0.0242006
0.094002
0.0203829
0.0211738
3.92103
2.20987
0.397076
0.0214977
0.0235621
4.68905
0.0954472
0.0974135
0.0322448
0.048574
0.0598186
0.0203736
0.587461
0.0206423
0.0655927
0.494945
0.110453
0.110156
0.0221415
3.079
0.0675649
0.30972
0.031436
0.0210515
0.0213362
0.0213191
0.514753
0.0205212
0.307912
0.0691699
0.389638
0.0202216
2.97488
3.74283
0.289162
0.281172
0.0221063
0.0216655
0.0210709
0.0251256
0.0213719
0.0245272
4.49476
0.0211909
0.022188
2.1199
0.292854
0.294352
0.0248457
0.0289248
0.0207746
2.36211
0.0219873
3.59404
0.0409028
0.0212875
0.0284187
0.106917
0.137691
0.0212761
0.021184
3.24717
0.156579
0.564141
0.148619
0.0445255
0.0208129
0.0638439
0.0214151
0.0802056
0.0213792
0.0224879
0.309436
0.0219659
0.102804
0.0205331
3.9833
1.48061
0.0238577
0.0277163
3.20171
0.0254295
0.0202892
2.78004
3.7967
2.24521
0.0208966
0.0217486
0.142324
3.88079
3.53281
0.0214794
0.0227398
0.0215715
0.0250895
0.0217019
0.0206678
0.88979
0.0209362
2.29117
0.0231756
0.0895466
0.0200664
3.72389
0.60077
0.11265
0.744888
0.395415
0.0206177
0.0757053
2.31796
0.0208516
0.0216653
0.0213151
2.77539
3.07953
0.0214763
2.33983
0.0362122
0.0212359
3.25736
0.0226894
0.0664175
2.62694
3.30946
0.0212053
2.70975
0.0221509
0.0202628
2.13601
0.0398711
0.322781
0.294204
0.0269297
3.18871
0.0523049
0.0255653
1.01664
3.49664
2.10594
0.0220305
0.0200291
0.0211143
0.0224037
0.322343
1.81394
1.86595
2.05393
0.024376
0.0200182
0.02094
0.0234509
0.290624
0.0211968
0.321808
0.279918
0.02038
0.0221552
2.2165
0.0591333
1.32022
0.303174
0.0213257
2.87319
0.294273
1.5071
0.0223975
0.0243583
0.0700015
0.0213285
0.0227001
0.109136
0.0238018
0.0312969
2.05504
0.0216212
0.102473
0.135928
0.0489712
0.0381416
0.290118
0.247345
1.94566
0.0213539
0.55586
4.02382
0.041746
0.0220124
0.0205341
0.0217192
0.0220486
1.39476
0.0225298
2.11266
0.0226121
0.021242
2.03734
0.158594
0.0202791
0.0211249
0.430477
0.155234
0.021376
0.0204507
0.0230478
0.024973
0.193145
0.0607865
0.0205612
0.106047
0.0219718
0.291872
0.0546513
0.340719
0.0212649
0.0268304
2.07164
0.381206
0.0219334
0.591484
0.153059
0.146873
0.0202259
0.022417
2.38814
0.143512
0.0605931
2.52541
0.0214198
0.0589914
0.0227264
0.0530138
0.0722107
0.343063
0.139846
0.0198007
0.0209626
0.0139467
0.271015
0.0213403
0.0212115
0.290691
0.0642019
0.0206662
1.45922
1.79946
0.0635621
0.0224696
0.0215405
0.0215054
0.0242365
0.0371431
2.03037
0.10321
0.0204345
0.0212901
0.304947
0.201031
0.021441
0.297095
0.0497354
0.0224031
2.53439
3.43346
0.0202697
4.00288
1.5413
3.08672
2.75733
0.0207493
0.267492
0.130263
0.0220092
0.0229322
0.913445
0.295582
3.14014
0.0217278
0.021291
0.0245534
2.64805
0.0188986
0.378069
0.0197538
0.0215596
2.26869
0.279404
0.0329455
0.0911265
0.0599624
0.0227434
1.38604
0.45355
0.201156
0.148879
0.0581428
0.0644005
0.0213154
0.0213049
0.055616
0.318753
2.63572
0.619742
0.12061
0.286528
0.173761
0.0288749
0.0209706
0.0217325
0.0669382
1.37421
0.0204658
0.0606284
0.577654
0.105058
0.322866
0.0820568
3.01064
0.0216921
0.022649
0.421162
0.0296258
0.0217529
0.0223078
0.280061
0.0297292
0.0570651
0.0204043
0.0212988
0.30463
0.299872
0.0221686
0.322345
0.271406
0.0841507
0.0222222
0.0706998
0.0210419
2.29404
0.10747
3.12884
0.0215285
0.17489
0.0200535
0.0212971
0.217699
0.352302
0.0842392
0.0204029
0.209685
0.51699
1.40737
0.675626
0.0386781
0.0223085
0.83369
0.173951
0.0212206
0.0209455
0.319797
0.832927
0.315523
0.0252758
3.52658
0.0203633
0.0217515
0.0864991
0.0684484
0.0211769
0.443396
0.0213046
0.0215078
0.0220538
0.0222076
0.589957
0.154497
0.019579
0.090268
0.0208929
0.0330295
1.07703
0.0218631
0.374036
3.49749
0.228358
0.219954
0.02146
2.64789
0.0224122
0.143592
0.0207377
0.135115
0.0343347
0.0245264
0.0214613
0.115969
0.062551
0.185295
0.0367723
0.0217811
0.0202691
0.31861
0.137425
0.0311409
0.659076
0.0237761
3.52949
0.0214692
0.181807
0.127324
0.393893
0.020263
0.0541538
0.0532244
0.151232
0.0224284
0.0238657
0.0241831
0.0237046
0.0241567
0.0241785
0.0240226
0.0210434
0.0946143
3.09863
0.47725
0.0243928
0.0212036
2.22635
0.653917
0.0212013
0.0639875
0.0237458
0.0228007
0.220092
0.292218
0.0202385
3.20104
0.021411
0.524426
0.193182
0.170444
0.0235554
0.021795
0.0230111
0.0204379
0.0223266
0.357912
0.262563
0.0315081
0.345323
0.148266
0.0213551
0.0429879
1.58914
0.0214953
0.024314
0.182977
0.0236258
0.0566329
0.0235277
0.0238916
0.0488931
0.150369
0.0984589
3.35977
0.0247265
0.218412
0.0669386
0.440367
0.0666447
0.0265046
0.0209915
0.0241583
0.155157
0.308221
1.36961
0.0209729
2.45974
0.348078
0.304548
0.137481
0.227348
3.20078
3.52081
0.0197526
0.100972
0.0237505
0.187361
0.245457
0.348683
0.0211168
0.311243
0.0513268
0.126587
0.0210397
0.549699
0.0234498
0.166958
0.0227811
0.105136
0.166818
0.0248062
0.0208511
0.0217058
3.01601
0.0207735
0.736767
0.06313
0.249516
0.0272516
0.413896
0.0727713
0.0212119
0.0207009
2.69034
0.0232116
0.0208565
0.0211449
0.271776
4.55518
0.116913
0.0213865
0.0371151
0.355123
0.440684
0.0446709
0.0209586
0.144225
0.189274
0.0259356
0.0232619
0.020809
3.87059
0.0207051
3.55643
0.301587
0.042699
0.266115
0.0365471
0.0202862
0.0225708
0.453775
0.0231448
0.0253126
0.0210927
0.021806
0.605254
0.106334
0.0769296
0.0205124
3.89763
0.0613035
0.292982
0.0212072
0.0283123
0.0242445
0.14506
0.0212544
0.0548415
0.280302
0.0975035
0.0243508
0.0208209
0.0258246
0.0257982
0.0474461
0.0202169
0.0228392
0.0214946
0.021493
2.21117
2.00147
0.317072
0.0370049
0.0219962
0.019676
0.361774
0.901362
2.05337
0.0238142
0.099081
0.0212966
0.0217121
0.07896
0.0207245
1.68883
0.0217111
3.24144
0.0201844
2.38713
0.0214384
0.313709
0.302643
0.0684376
0.181501
0.0196653
0.34199
0.0203148
0.122655
1.57601
0.154407
0.0206068
0.0316913
0.13845
0.0655288
0.106041
0.0361466
0.111563
0.0200693
0.0348812
0.0204037
0.304817
0.245498
2.18408
3.75738
0.021695
0.314591
0.0209331
0.0214753
0.185911
0.0201234
0.0210219
0.0210836
0.0210117
0.206764
0.0223244
0.0230588
0.0219483
0.0212477
0.0210798
0.0224029
0.0240458
0.0214533
0.0312261
0.0361679
0.0192282
0.35842
0.0231265
0.0585047
0.530843
0.0357423
0.0437328
0.0945954
0.206959
0.0531774
2.11107
0.363796
0.312924
0.0203567
0.0208963
0.0234855
0.0198363
0.10289
0.0194327
0.0202027
2.84675
1.06654
2.26128
0.0348665
0.0590778
0.0413106
0.0213757
0.832451
0.116411
0.0222498
1.97588
1.94988
0.0215414
0.298118
1.04668
0.300366
0.0912527
0.0639102
0.0473082
0.020657
0.0198557
0.115711
0.350022
0.890626
0.0232804
0.0211024
2.31564
0.041987
0.0230285
0.0198147
1.59809
0.0202594
0.0241034
0.0263135