/*--------------------------------*- C++ -*----------------------------------*\
| =========                 |                                                 |
| \\      /  F ield         | OpenFOAM: The Open Source CFD Toolbox           |
|  \\    /   O peration     | Version:  v2012                                 |
|   \\  /    A nd           | Website:  www.openfoam.com                      |
|    \\/     M anipulation  |                                                 |
\*---------------------------------------------------------------------------*/
FoamFile
{
    version     2.0;
    format      ascii;
    class       surfaceScalarField;
    location    "300";
    object      phi;
}
// * * * * * * * * * * * * * * * * * * * * * * * * * * * * * * * * * * * * * //

dimensions      [0 3 -1 0 0 0 0];
oriented        oriented;


internalField   nonuniform List<scalar> 
27882
(
0.51195
-0.363154
-0.148796
0.472768
-0.19111
-0.281658
0.27189
-0.533061
0.26117
0.16577
0.34618
-0.222184
0.351434
-0.129251
-0.426087
-0.102037
0.528124
0.185824
0.187494
-0.373318
0.120109
-0.330655
0.210546
-0.341844
0.11966
0.246197
-0.374266
0.12807
0.368787
-0.518868
0.150081
0.475245
-0.202239
-0.273005
-0.381779
0.137455
0.244323
0.331468
-0.164951
-0.166518
0.105492
-0.430474
0.324982
-0.428518
0.148253
0.280265
0.191992
0.283253
-0.313134
-0.168457
0.381912
-0.27642
0.175645
0.139104
-0.314749
-0.437654
0.318744
0.11891
0.0492198
-0.116187
0.0669675
0.0867644
-0.512852
-0.333867
0.540416
-0.206548
0.114203
-0.064983
0.154945
-0.0978673
-0.0570773
-0.217171
-0.0771374
0.294309
0.229101
-0.131543
-0.0975581
-0.17962
0.0396559
0.139964
0.470637
-0.321125
-0.149511
-0.143745
0.236714
-0.0929687
0.0394621
-0.256633
0.307136
-0.187027
0.0671745
-0.135428
0.0682531
-0.166824
0.339818
-0.172995
0.18588
0.284757
-0.254643
-0.127136
0.184611
0.203398
0.0422631
-0.245661
0.395851
-0.476583
0.0807311
0.463041
-0.305769
-0.157272
-0.182266
-0.169347
0.351613
0.465543
-0.237476
-0.228066
0.469421
-0.334504
-0.134917
0.520252
-0.361453
-0.1588
-0.2123
0.139349
0.0729506
-0.333527
0.151261
-0.177569
0.023096
0.154473
0.00540874
-0.0134846
0.00807589
0.504785
-0.353751
-0.151034
0.522981
-0.154194
0.0986955
-0.109342
0.0106465
0.185808
0.318977
-0.390406
0.168504
0.221902
0.0564015
-0.128527
0.0721257
0.381729
-0.244274
0.485773
-0.462714
-0.0230587
-0.156702
0.332347
-0.177054
0.160286
0.0167684
0.366452
0.119321
0.488828
-0.0788999
-0.409928
0.333137
0.136284
-0.0596679
-0.146425
-0.00162917
-0.0949924
0.0966216
0.0242203
0.464608
0.106046
-0.0759058
-0.0301398
-0.0180879
0.401927
-0.383839
0.625994
-0.299397
-0.326597
0.0727236
0.156377
-0.544738
0.231604
-0.0185663
0.117262
0.0811087
0.0408579
-0.121967
0.145228
-0.398902
0.253674
0.166132
-0.285185
0.119053
0.259231
-0.302723
0.0434927
0.0491285
-0.192874
0.168392
0.0612579
-0.229649
-0.237882
-0.16083
0.398712
-0.0956469
0.29799
0.167552
0.134294
-0.147645
0.0133509
-0.0398893
0.243287
-0.308647
0.0707651
0.00943055
0.219353
-0.228784
-0.540763
0.26271
0.278053
-0.133263
0.0334834
0.0997793
0.196272
0.0529883
-0.140892
0.307024
-0.231155
0.171487
-0.131494
-0.00176869
-0.0736993
0.0841444
-0.0104451
-0.349853
0.508874
-0.159021
0.134354
-0.156283
0.0219283
0.0114971
-0.00608839
-0.248473
0.393701
0.523195
-0.101461
-0.421734
-0.33884
-0.135198
0.474038
0.172344
-0.165043
-0.00730076
0.400594
-0.247228
-0.153367
0.178284
-0.380375
0.202091
-0.171717
-0.0405827
0.329068
-0.225679
-0.103389
0.316189
0.309805
0.428678
0.0945171
0.0605285
0.045517
-0.253069
-0.184585
-0.149391
-0.0281779
-0.0700634
-0.00363593
-0.00340842
0.221521
-0.218113
0.387801
-0.153871
-0.23393
-0.138536
0.441625
-0.303089
0.0757403
-0.0773694
0.276324
-0.464554
0.18823
0.476792
-0.47325
-0.00354222
0.123435
0.205633
-0.128415
-0.00528384
0.133699
0.17583
-0.0034864
0.555803
-0.264411
-0.291391
0.0044065
0.115462
-0.119868
-0.341622
0.490889
-0.149266
0.550936
-0.387085
-0.163851
0.22913
-0.0607379
-0.210626
-0.330137
-0.508116
0.0740905
0.434026
-0.00980297
0.0192176
-0.00941467
-0.220559
-0.169847
-0.503825
0.341366
0.16246
-0.422188
-0.0859281
-0.0449358
-0.0985394
0.143475
-0.0197505
0.0148412
-0.153958
-0.526454
0.274684
0.25177
-0.2298
0.24228
-0.0124794
0.0291399
-0.0672215
0.0380816
-0.140737
0.536589
-0.352204
0.481428
-0.129224
0.215542
-0.036305
-0.179237
-0.401769
-0.0645993
0.466368
-0.163352
0.0183952
0.144957
0.137894
-0.00359994
0.42903
-0.152705
0.46062
-0.178875
-0.281745
0.193068
-0.182721
-0.0103476
-0.259925
0.256517
-0.0190333
0.00923035
0.16776
-0.162456
-0.0053043
0.0967561
-0.0362276
-0.0187182
0.139505
-0.120787
-0.18881
-0.330058
0.0198984
0.0927945
-0.112693
0.017358
-0.00173554
-0.0156224
0.0185374
-0.015832
-0.00270544
0.0539091
-0.258392
0.204483
-0.381515
0.10395
0.277565
0.193115
0.269926
0.177009
-0.0375557
0.156287
-0.0219329
0.0741831
-0.119119
-0.246286
-0.0334612
0.279748
0.283959
-0.0899512
0.0415029
0.0484483
0.355757
0.0301926
-0.38595
0.0182882
-0.0146989
-0.00358924
0.0507269
0.0460291
-0.214422
0.119297
0.0951245
-0.548763
0.247823
0.30094
0.41429
-0.0585322
-0.0525824
0.0906322
-0.0380498
-0.014262
-0.00548855
0.425974
-0.349356
-0.0766179
0.00853345
0.00584686
-0.0143803
0.408338
-0.136448
-0.164577
0.160917
0.00365925
-0.244936
-0.176163
0.00312274
0.218399
0.135919
-0.392035
0.256116
0.142398
-0.390872
0.0434257
-0.119148
0.0757224
0.127216
-0.0600415
0.229134
0.0468249
0.520624
-0.245026
-0.275598
-0.129816
-0.176119
0.305934
-0.071018
0.127419
0.141295
0.164827
-0.0961631
-0.0130832
0.109246
0.421272
-0.316571
-0.104701
-0.322964
0.00183888
0.343696
-0.289035
-0.0546607
0.0231499
-0.0116528
-0.122757
-0.116586
0.239343
0.00591591
0.0126215
0.277581
0.14369
0.071636
-0.169173
0.0975373
0.115501
0.141015
-0.256517
-0.539449
0.219507
0.319942
0.23532
-0.313844
0.0785242
-0.140268
0.0079228
0.132345
0.317007
-0.263098
0.00547769
0.0176722
-0.494321
0.0769819
0.417339
-0.193604
-0.25398
0.447584
0.184341
-0.110158
-0.171768
-0.076714
0.248482
-0.148038
0.427412
-0.279374
-0.401565
0.263029
0.00856816
0.00972001
0.094034
-0.364622
0.270588
-0.0416965
-0.0159434
0.00611959
0.554843
-0.375731
-0.179112
-0.114802
0.149356
-0.0345543
-0.463638
0.270034
-0.135115
0.424182
-0.289067
0.106789
-0.326857
0.220068
0.164503
-0.503343
0.00227834
0.389905
-0.392183
0.041485
0.341937
-0.443973
-0.0740318
0.395564
-0.321532
-0.178264
0.293765
-0.171611
-0.280514
0.452125
0.177036
0.0160328
0.0628612
0.12148
0.0736613
-0.24543
-0.263431
0.402672
-0.139242
0.277861
-0.0186302
-0.0775626
0.132903
-0.0553401
-0.0378705
-0.0520807
0.345743
-0.25171
0.0797613
0.0751833
0.156921
0.0108391
0.216716
-0.213593
0.0620276
-0.414232
-0.482898
0.147733
0.335164
0.275931
-0.447542
0.0757749
-0.224539
0.148764
0.0112184
-0.0123959
0.00117751
-0.13356
-0.00341318
0.136973
-0.34285
0.26192
0.0809301
0.102413
0.32257
-0.424983
-0.141475
0.217249
0.0160574
-0.183734
0.167677
-0.342326
-0.170114
0.51244
0.107467
-0.0875686
0.147177
-0.0290887
-0.118089
-0.477483
0.341817
0.135666
-0.261681
-0.199852
0.461533
-0.204574
0.497327
-0.292754
0.37048
-0.192196
0.0143332
-0.00579972
0.515403
-0.253303
-0.2621
0.299162
-0.554935
0.255772
-0.171133
0.447064
0.462958
-0.0731157
-0.389842
0.120419
-0.00119551
-0.119223
0.380753
-0.574352
0.193599
0.13935
-0.0582408
-0.39629
-0.0276606
0.423951
-0.253411
0.105903
-0.229946
-0.234608
-0.363508
0.437599
-0.102341
-0.375142
-0.106836
0.178472
0.135485
-0.0131714
-0.122314
-0.0392999
0.174785
0.028489
-0.391997
-0.147295
0.0671299
-0.325522
-0.226148
0.357044
-0.130896
0.0987169
-0.128267
0.0295502
-0.0542417
-0.0593086
0.11355
-0.353859
0.127711
0.08841
-0.332389
0.243979
0.121212
0.353653
-0.474865
0.316723
-0.209933
0.214492
-0.0284509
-0.186041
0.492718
-0.150782
-0.418508
0.283393
0.160804
0.170664
0.200476
-0.462157
-0.31167
-0.176137
0.487806
-0.434209
0.37917
0.0550396
-0.0802052
0.0398059
0.0403993
-0.24465
0.356187
-0.267777
0.397504
-0.435721
0.0382171
-0.137338
-0.0463958
-0.151895
0.378668
-0.226773
0.276783
-0.439284
0.0969581
0.0945891
-0.292203
0.197614
-0.1217
-0.341014
-0.534716
0.258982
0.275734
-0.558739
0.263136
0.295602
0.207363
0.253643
-0.461006
-0.454123
0.190693
-0.437917
0.0880642
-0.4544
0.120532
-0.0203979
0.0096839
0.0107139
0.115123
-0.232346
0.117223
-0.59796
0.33853
0.25943
-0.393053
-0.204907
-0.0845041
-0.128089
0.212593
0.277307
-0.463502
0.186196
0.280692
0.239932
-0.1493
-0.245016
0.394316
-0.322185
0.0691157
-0.0958284
0.428965
0.155867
0.225862
-0.405136
-0.0290731
-0.123339
0.173401
-0.0500623
-0.121873
0.0555304
-0.147516
0.0919853
-0.085493
-0.0941272
-0.0502978
-0.0851299
-0.616842
0.300176
0.316666
0.293456
-0.146257
-0.1472
-0.171598
0.133397
0.0382015
0.0403287
-0.424618
0.384289
-0.105829
0.16136
-0.226269
-0.0200178
-0.0152667
0.108061
0.161233
-0.458826
0.297593
-0.300653
-0.0110354
0.443991
-0.23575
0.0628629
0.340324
-0.403187
-0.00970292
0.0185089
-0.00880595
-0.0514448
0.207619
-0.156174
0.415347
-0.281207
-0.13414
0.017504
-0.0585524
0.0410484
0.448266
-0.287033
-0.16801
-0.365555
-0.0307357
0.120876
0.355916
-0.197657
0.316089
-0.118432
0.040214
0.328456
-0.36867
-0.0854501
-0.245204
0.156321
-0.411219
0.254898
-0.298212
0.100555
-0.171946
0.269231
-0.097285
0.190805
-0.153531
0.155556
-0.24006
-0.0782881
-0.32348
0.165367
0.210444
0.19015
-0.267162
0.330024
-0.0262042
0.171759
-0.145555
0.469408
-0.192101
0.118398
-0.0732776
-0.0451208
0.477227
-0.186443
-0.290784
0.140447
-0.138063
-0.00238345
-0.417178
0.100608
-0.0183093
0.0112914
0.00701794
0.191078
-0.250188
0.0591099
0.10153
-0.317676
0.216146
-0.272867
0.10092
0.286482
0.128866
-0.408092
0.300013
0.108079
0.140652
-0.475156
-0.125637
-0.139814
0.280829
0.492145
-0.234634
-0.257512
0.253498
-0.213359
-0.0401388
0.122594
-0.262407
-0.141081
0.227343
-0.0200288
-0.207314
0.153712
-0.283527
0.179
-0.00316978
-0.00226621
-0.00565783
-0.122757
-0.0494491
0.266165
-0.209839
0.171367
0.0384717
0.12459
-0.430358
0.000567463
0.139879
-0.014585
0.477543
0.028259
-0.0762467
0.0479877
-0.117258
0.32645
-0.479253
0.152802
0.242527
0.249619
0.377877
-0.395964
0.223334
0.317081
-0.0641785
-0.0520087
0.242593
-0.271947
0.463103
-0.191156
0.128466
-0.0297487
0.00951472
-0.0736187
0.223735
0.138669
0.249132
-0.281504
-0.147014
0.300332
-0.19704
-0.103292
-0.35561
0.158109
0.197501
0.463883
-0.296253
-0.16763
0.284938
0.265997
-0.373536
-0.0345562
0.266943
-0.40742
0.140477
-0.421319
0.109649
-0.534496
0.29489
0.239605
0.157438
-0.488513
0.331075
0.26347
-0.249454
-0.0140159
0.20225
-0.252966
0.0507164
-0.209259
0.187022
0.0222369
0.0330587
0.101105
-0.134164
0.142281
-0.109222
-0.00023308
-0.0160717
0.0163048
0.254471
0.00582473
-0.140618
0.134793
-0.269376
0.476738
0.430702
-0.035655
-0.395047
-0.363648
0.126172
0.157888
0.142444
-0.345147
0.211689
0.133458
-0.225374
0.022023
0.170991
0.00800861
0.362319
-0.262284
-0.100035
-0.373989
-0.200363
0.146547
0.0442579
0.284467
0.235785
0.210731
-0.0956082
0.559208
-0.288481
-0.270727
-0.024161
0.0284277
-0.00426673
-0.162639
0.274177
-0.206454
-0.352284
0.0480634
-0.0305593
0.137222
-0.145962
0.00873923
-0.50378
0.402095
0.101686
0.317297
0.146586
-0.252318
0.469652
-0.217334
0.160508
-0.209957
0.221809
-0.513424
0.291616
-0.35686
-0.177856
-0.0972045
-0.117218
-0.0123936
-0.196866
-0.0832274
0.384099
-0.241701
-0.310113
0.208169
0.101944
0.162474
0.0788178
-0.241292
0.0853788
-0.0886841
0.00330532
-0.151266
-0.159661
0.310927
-0.608023
0.359908
0.248116
-0.0476468
0.225924
0.333284
-0.314125
0.354339
0.0360613
0.121855
0.294062
-0.415917
0.0936866
0.143027
-0.241961
-0.366062
0.257793
-0.0953196
0.526865
-0.229155
-0.29771
-0.144606
0.138948
0.196408
-0.498872
0.302465
0.353384
-0.0864408
0.0143509
-0.011513
-0.00283787
-0.153026
-0.310477
0.127327
0.373548
-0.500874
0.190821
0.0365222
-0.00533068
-0.296146
0.301476
0.285448
-0.433487
-0.465336
0.0823259
0.38301
0.502862
-0.32382
-0.179043
-0.103275
0.173287
-0.0700126
-0.0202152
0.0344895
-0.0142744
0.213672
0.0751624
-0.288835
0.232612
-0.112689
-0.119923
0.342904
-0.220311
0.117298
-0.0738724
0.44829
-0.332931
-0.115358
0.00294215
0.144235
0.0724693
0.37582
-0.510364
0.331362
0.179002
0.140994
-0.135169
-0.192919
0.250883
0.00936396
-0.260247
0.219303
0.0878333
-0.409906
0.335874
0.391554
-0.357891
-0.0336627
0.140247
0.288782
-0.514659
0.218134
0.296525
0.310061
-0.122567
0.457581
-0.120769
-0.336812
0.430932
-0.309077
0.0802011
0.37738
0.0111177
0.334141
0.248261
-0.396695
0.148433
-0.317385
-0.158501
0.475886
-0.544181
0.365407
0.178774
0.130232
-0.139701
0.00946921
-0.152351
-0.374103
-0.259603
0.455717
-0.196114
0.359106
0.125396
-0.484501
0.241014
-0.246345
0.0434922
0.348061
-0.0882892
0.407034
-0.208301
0.155649
0.367331
0.347019
0.035221
-0.38224
-0.197751
0.0231012
0.17465
-0.149062
0.0897501
0.0593116
-0.00244709
0.0202396
-0.0177925
-0.200077
-0.00976231
0.385461
-0.383183
-0.356181
-0.0609975
0.00664882
-0.026864
-0.0294125
0.502215
-0.31793
-0.184285
0.509377
-0.142924
0.0813661
-0.287015
0.205649
-0.0294783
0.524831
-0.137004
0.484024
-0.0486175
0.0899268
-0.0413092
-0.140339
-0.186519
0.135328
0.00256551
0.203889
0.298326
0.494825
-0.177527
0.107358
0.125254
-0.457662
0.25781
-0.133517
-0.255201
0.388718
-0.504588
0.216922
0.287666
-0.530469
0.309385
0.221084
0.0467156
0.299028
0.0805185
-0.441971
0.175071
-0.405103
0.230033
0.266741
-0.439638
0.172897
0.280756
0.0815638
0.215445
0.127459
0.492972
-0.119425
-0.16384
0.43058
-0.42387
0.106485
-0.248439
0.183782
0.0646567
0.340273
-0.138887
-0.201387
0.0778034
-0.229069
-0.24814
-0.132235
0.0344931
-0.15725
-0.184194
0.225448
-0.0412535
0.236975
0.0139081
0.296883
0.100213
-0.397096
0.469557
-0.312119
-0.473949
-0.187541
0.272358
-0.0848177
-0.29055
0.10301
0.00180622
-0.0117395
0.00993333
0.0295223
-0.125685
-0.246894
0.44737
-0.285674
0.285032
-0.190443
-0.0859942
0.0334118
-0.533451
0.24497
-0.283876
0.44838
0.356917
-0.345799
-0.430035
-0.114146
-0.135689
-0.254409
0.390098
0.452282
-0.155398
-0.124001
-0.18786
0.311861
0.433701
0.00310286
0.157183
-0.376477
0.128337
0.337046
-0.477783
0.180113
-0.220044
0.0399304
0.0143387
-0.0167858
-0.421496
0.285116
0.13638
-0.218028
-0.285797
0.428109
-0.269346
-0.158762
-0.394165
0.134562
0.269815
0.119868
-0.389682
-0.406222
-0.397471
0.278367
0.119104
-0.458952
0.167369
0.291584
-0.306604
0.220251
0.0863529
0.249849
-0.287768
0.0379192
0.292745
0.135363
0.13891
-0.165114
0.482018
0.0571622
-0.40172
0.344558
0.155726
0.00119475
-0.209736
-0.335002
-0.232888
-0.29758
-0.0239894
-0.284368
0.308358
-0.110449
-0.422612
-0.0133498
0.248669
0.0410816
0.212417
0.503502
-0.133583
-0.369919
-0.125538
0.389583
-0.264046
-0.0186833
0.223269
0.332533
-0.394644
0.230816
0.163827
0.476767
-0.200854
-0.275913
-0.51928
0.165837
0.353443
0.249715
0.27715
-0.19897
0.208401
0.0838001
-0.293908
0.210108
0.208001
0.132272
0.388326
-0.252408
-0.035229
0.285078
-0.447854
0.40402
0.1599
0.302352
-0.462253
-0.00798523
-0.0124126
0.490871
-0.216699
-0.274172
0.276119
0.278724
0.245587
-0.382694
0.137107
0.494977
-0.347578
-0.1474
0.126708
-0.243294
0.240944
-0.146295
-0.094649
0.285239
0.161714
-0.446953
-0.172548
0.280263
0.0623813
0.111338
-0.173719
0.289617
-0.208251
-0.27209
-0.160811
0.432901
0.257705
-0.407005
0.0550337
-0.226251
0.171217
0.00195493
-0.0671559
-0.162644
0.435244
-0.297035
-0.138208
0.0825568
-0.350084
0.267527
0.249245
0.245733
-0.166678
0.160665
0.00601314
-0.338031
-0.181248
0.340036
-0.257479
-0.360405
-0.173046
-0.0464231
-0.34061
0.387034
-0.0739355
-0.152344
0.226279
-0.114633
-0.16887
0.283503
0.502437
-0.203274
-0.307375
0.290419
0.144825
0.124125
0.219821
-0.343946
0.385035
-0.139448
0.18425
-0.483022
0.298772
0.389413
-0.108658
0.0542198
-0.117477
0.169666
-0.187229
0.0175627
-0.0124922
-0.00333984
0.010031
-0.0082248
-0.39075
0.138432
-0.434388
0.484125
-0.049737
-0.00691521
-0.267528
0.37932
-0.111792
0.195176
0.295696
0.183626
0.285782
0.240739
-0.367077
0.126338
-0.146635
0.0166495
-0.184095
0.167446
-0.13071
-0.37307
-0.0768779
0.366104
-0.461932
-0.445394
0.315542
0.129852
-0.466843
0.17059
-0.274294
0.153329
0.00239741
0.133832
0.296032
-0.429864
0.269247
0.154935
0.220497
0.128522
-0.124116
-0.469969
0.186093
-0.0128052
0.417927
-0.242856
0.368258
-0.127519
-0.328899
0.486559
-0.157661
0.297375
0.157294
-0.193598
0.158178
-0.403113
-0.116446
0.300167
-0.216367
0.262284
-0.222822
0.289555
0.159477
-0.449033
0.0331999
0.054399
-0.0875989
0.0148404
-0.0150735
0.310445
-0.208915
-0.444407
0.273274
-0.232045
-0.117312
0.253321
-0.198287
-0.214878
-0.0682131
0.283092
-0.0150176
-0.193471
0.208489
0.0980062
0.00861596
-0.106622
-0.106197
-0.225105
0.331302
-0.198567
0.407026
-0.208459
-0.0880019
-0.406319
0.178638
-0.00897178
-0.124921
-0.494994
0.204914
0.290079
0.0754949
-0.190445
0.11495
-0.198667
-0.146382
-0.074264
-0.165995
0.240259
0.141909
-0.26591
-0.174042
-0.13436
-0.138507
0.450051
0.23484
0.108855
0.301341
-0.196987
-0.104354
0.153407
-0.402936
0.249529
0.123238
-0.172021
0.215929
0.141114
0.0233058
0.161669
-0.184974
0.298765
0.135474
-0.434239
0.371679
0.0873637
-0.459043
0.149605
0.229565
-0.316501
0.270077
0.0943838
0.487115
-0.310873
-0.176242
-0.118495
0.490047
-0.265402
-0.224645
-0.0190602
0.147115
-0.00554343
0.208597
-0.326649
0.118052
0.233079
-0.356468
0.123389
-0.0479429
0.202386
-0.154443
0.237854
-0.36177
0.123916
0.121375
-0.388903
0.165509
-0.242342
0.0768326
-0.29704
0.290715
-0.124226
-0.166489
0.338597
-0.345819
0.00722226
-0.26316
0.482666
0.0527617
0.433822
-0.135057
-0.0331717
-0.108737
-0.0774702
0.104276
-0.0766377
-0.0276381
-0.290237
0.347399
0.138837
-0.420044
0.167159
-0.241423
-0.0937705
-0.0112023
0.104973
0.170082
-0.242108
0.072026
0.102992
-0.365276
0.0192695
-0.319815
0.300545
-0.445635
0.000976909
0.444658
0.244652
0.245395
-0.473826
0.312062
0.161764
0.186512
-0.20153
0.354512
-0.116658
0.319163
-0.232562
-0.0866009
0.0707724
0.0184366
-0.089209
0.497866
-0.255339
-0.299152
0.148481
-0.33566
0.187179
-0.0908106
0.131093
-0.409255
0.278162
0.374198
-0.165601
0.321516
0.0740474
-0.0167834
-0.00341973
0.0202031
-0.292411
0.458468
-0.166058
-0.271494
0.402588
-0.161393
-0.312433
0.00875502
0.0766237
0.0716968
0.169248
0.419768
-0.267068
-0.1527
-0.458573
0.140912
0.31766
0.254044
-0.390089
0.136045
0.231591
0.0875714
-0.12078
-0.0107293
-0.408058
0.162723
-0.434813
-0.010193
-0.0252023
-0.215529
0.240731
-0.331083
0.452295
0.451597
-0.274039
-0.177557
-0.102422
-0.233382
0.335803
0.0503153
0.191964
-0.284701
0.447423
0.497347
-0.33187
-0.165477
0.20944
-0.0186191
-0.133251
0.34918
0.00431345
-0.130631
0.431585
-0.300953
0.0335189
-0.0721394
0.0386205
0.507626
-0.35588
-0.151746
-0.0668372
-0.00942653
-0.150535
-0.246159
0.164942
0.0136953
0.482872
-0.0521694
0.349832
-0.0112351
0.0954557
0.255647
-0.351102
-0.131503
0.385548
0.0537159
-0.268594
0.286394
0.152589
-0.438983
-0.43109
0.291254
0.139836
-0.00943299
-0.275752
-0.0116629
0.0117555
0.232464
0.177149
-0.46956
-0.449754
0.173359
0.276395
0.105847
-0.31551
0.209663
0.318437
-0.169956
-0.0897689
0.455873
-0.135124
-0.256727
0.391851
-0.375384
0.373744
-0.224139
-0.390463
0.264925
0.28857
-0.464988
0.181789
0.283199
0.0791321
-0.108221
0.0251005
-0.184751
0.15965
-0.112047
0.0967805
-0.173951
-0.219532
0.393483
-0.00133742
-0.015446
-0.249883
0.393879
-0.143996
-0.06061
-0.241196
-0.114414
0.291085
0.167383
0.264985
-0.439971
0.174986
0.502467
-0.323726
-0.178741
-0.415286
0.454104
-0.0388176
-0.261665
0.127305
-0.0797284
-0.015264
-0.0944475
-0.0546142
0.157745
-0.182948
-0.480965
0.310699
0.170266
-0.153162
-0.252971
0.406133
-0.22886
0.0446654
0.20049
0.0629801
-0.067135
-0.121388
0.188523
-0.445254
0.0695229
-0.415551
0.145061
0.27049
0.180809
0.316539
-0.012954
0.0141059
-0.00115186
-0.172993
-0.100539
0.273532
0.0112422
0.444205
-0.458428
0.0142226
0.132739
-0.135643
-0.00497557
0.203223
0.248374
-0.00188797
0.264557
-0.195205
-0.0693519
0.190099
-0.296469
0.106369
0.526861
-0.173208
0.498316
-0.16127
0.0663085
0.0609076
0.196276
0.0976725
-0.293948
0.324863
0.157634
-0.482496
-0.0463086
-0.123704
0.170013
0.187958
-0.134115
-0.261526
0.395641
-0.198121
-0.356814
-0.13646
0.376399
-0.239939
-0.241685
-0.163451
-0.136474
-0.254477
0.390951
0.236357
-0.398303
0.161946
0.159765
-0.38767
0.227905
0.0965895
0.250857
-0.347446
0.145698
-0.343835
0.198137
0.208223
-0.196614
-0.0116093
0.338608
-0.354707
0.0160991
-0.0879777
0.284253
-0.016316
-0.29174
0.308056
-0.006946
-0.00600804
0.0126389
0.369273
-0.106162
-0.303744
0.0582771
0.0588592
-0.117136
0.320615
-0.295078
-0.0255376
-0.447186
0.269361
0.177825
0.45157
-0.160485
0.322107
-0.459111
-0.122113
0.306581
-0.184468
0.0212439
0.299371
-0.418153
0.453754
-0.0356012
0.123923
0.148435
0.339314
-0.193616
-0.110334
0.294433
-0.184098
-0.0480918
0.118864
-0.0232114
0.237704
-0.521912
0.299502
0.222411
0.233985
0.132565
-0.36655
-0.202441
-0.102248
0.304689
0.21081
0.285374
-0.462231
0.176857
0.0910632
-0.0908788
0.285169
0.143632
-0.428801
-0.0837265
0.191085
0.196054
0.013386
-0.398377
0.258086
0.14029
0.270728
-0.429051
0.158322
0.215196
-0.431409
0.216212
0.31233
-0.173226
0.14461
0.00499437
-0.149605
-0.0458991
-0.419437
0.144125
-0.318076
-0.173971
0.133691
0.00730258
0.188614
0.0759432
0.308368
-0.202521
-0.353699
0.21773
0.135968
-0.150083
-0.235549
-0.0514666
-0.0719512
-0.160978
0.380773
-0.219794
0.0627722
0.0721146
-0.134887
-0.000912455
0.121331
0.265549
-0.394191
0.128642
-0.268575
0.20813
0.0604447
0.120619
-0.425588
-0.0337682
0.459357
0.193178
-0.176529
-0.163105
0.448478
0.372152
-0.221274
0.147339
0.0958005
-0.291965
0.196164
-0.282656
0.322985
0.478332
-0.198274
-0.280058
-0.319494
0.454893
-0.135399
0.386195
-0.232788
-0.294861
0.360941
0.491911
-0.391698
-0.153196
0.41818
-0.159594
0.430322
-0.102334
0.367642
-0.133658
0.282971
0.153417
-0.436388
0.185505
0.0227185
0.285995
-0.212334
0.183096
-0.43239
0.249294
0.130188
-0.131383
-0.208837
-0.196267
0.254809
0.497431
-0.429037
-0.0683949
-0.288152
-0.110225
0.0830096
0.0149966
0.277993
-0.518352
0.240359
-0.314814
0.440301
-0.125487
-0.254987
0.195286
0.0597011
0.501397
-0.320589
0.336296
-0.149783
0.206834
0.106259
-0.313093
0.212317
0.111003
-0.32332
-0.0912086
-0.188073
0.279282
0.268666
0.125005
-0.393672
-0.0157301
-0.122589
0.412381
0.0850502
0.3408
-0.00219174
-0.199114
-0.0233266
0.22244
0.0755263
0.0147916
0.00249416
-0.291842
0.0894014
-0.291523
0.475773
-0.0894773
0.324497
-0.235019
-0.225606
0.369014
-0.143408
-0.405786
-0.0396083
-0.0675352
-0.187452
0.109025
-0.380973
0.198746
0.27487
-0.473615
0.301194
0.00116582
-0.30236
-0.381202
0.139517
-0.211028
0.370793
0.421572
-0.0291355
-0.220318
0.286484
-0.190683
-0.0553498
0.324075
-0.268726
0.109019
-0.432839
-0.468289
0.329533
0.138756
-0.141411
-0.223694
0.365106
0.30784
0.141398
0.00321198
0.23502
0.0695815
-0.304602
0.295809
0.182522
-0.0114699
-0.00224829
0.0137181
0.00976838
0.276227
-0.195824
0.491473
-0.295649
0.00286331
0.0766759
-0.463761
0.0442342
-0.0928518
-0.300684
0.171056
0.491928
-0.242683
-0.0844963
0.29133
0.446957
-0.325582
0.115125
-0.35288
0.237756
-0.0120275
-0.081743
0.361221
0.13069
-0.264202
0.139912
-0.106429
-0.384467
-0.0308197
0.306969
0.138693
-0.445662
0.404921
-0.135106
-0.108066
0.177918
0.158378
0.230359
0.1379
0.277549
-0.0641957
0.454062
-0.311458
-0.142604
-0.418959
0.258148
0.319815
-0.0186208
-0.122708
-0.268291
0.390999
-0.0574349
0.115712
0.205685
-0.388777
0.183092
-0.255433
0.0797584
0.175675
0.158129
0.290137
0.35489
-0.149205
-0.141233
-0.327056
0.348868
-0.233743
0.188514
-0.163413
0.331487
-0.0964667
0.245915
-0.0648634
-0.181052
-0.203852
0.0282383
0.175614
0.137724
-0.391619
0.253895
0.22123
-0.375848
0.154618
0.403101
-0.238621
-0.16448
0.179058
0.245766
-0.424824
-0.329484
0.274134
-0.0253723
-0.426311
0.451683
-0.116655
-0.124066
-0.124373
0.285549
-0.476659
0.135387
0.501034
-0.340836
-0.160197
-0.411029
0.0915344
0.00740922
0.0383235
-0.0457328
-0.383524
-0.0508648
0.237907
0.18002
0.216684
0.0312742
-0.247958
0.300301
-0.150621
0.173927
-0.248386
0.427443
-0.20166
0.488293
-0.286633
-0.143557
-0.172912
0.31647
0.126744
0.263418
-0.390163
0.130096
0.345418
-0.11506
0.296769
-0.106669
0.240169
-0.369465
0.129295
0.0579768
-0.222927
0.104097
-0.115299
0.224721
0.217664
0.136848
0.271382
-0.437031
0.165649
0.270032
-0.439353
0.169321
0.384955
-0.247231
-0.139843
-0.261734
0.401577
-0.318176
-0.180696
0.199817
-0.311396
0.111578
0.155038
-0.287095
0.190582
0.289829
-0.480412
-0.120778
0.0538223
0.066956
-0.000252223
0.135581
-0.368659
-0.151181
0.482543
0.193155
-0.154322
-0.0388327
0.0238473
-0.289071
0.265224
-0.211603
0.109602
0.102001
-0.278802
-0.122578
-0.141807
0.264386
-0.0125936
0.0211618
-0.338315
-0.157055
0.495369
0.438405
0.323622
0.173705
-0.0928793
-0.201029
0.279058
-0.434458
0.155401
0.16797
-0.432382
0.101771
-0.185498
0.460089
-0.190569
-0.26952
0.437383
-0.293553
-0.14383
0.15749
0.0356646
0.0355811
-0.000602966
-0.0349781
-0.00089597
-0.0108436
-0.325199
0.186312
-0.316242
0.172114
0.144128
0.0898994
0.193378
-0.283277
0.238703
0.0461298
-0.284833
0.206284
0.295114
0.529643
-0.219563
-0.310081
0.173047
-0.187302
0.0142552
0.278494
-0.376309
-0.0418439
-0.176129
-0.0079241
-0.0103852
0.164065
-0.237479
0.0734143
0.0407816
-0.334113
0.293332
-0.167011
-0.313953
-0.179057
-0.0763761
0.355078
0.082305
0.247911
-0.337389
-0.0722595
0.372648
-0.132479
0.251528
0.0426384
-0.294167
0.528447
-0.199991
0.258637
-0.134714
0.230259
0.107123
-0.337382
-0.340745
0.371762
-0.0310165
0.256662
-0.246331
-0.010331
0.251286
-0.399824
0.148537
-0.247954
0.381786
0.41764
-0.110671
-0.217452
-0.30446
-0.285941
-0.202726
0.488668
3.20469e-05
-0.220747
0.220715
0.432866
-0.162834
-0.0840076
0.335672
-0.251665
0.00386274
0.00665845
-0.286699
0.401271
-0.114572
-0.0621152
-0.0265689
-0.414225
0.178474
-0.300877
0.341658
-0.0978829
0.0181545
-0.391694
0.143739
0.236402
-0.362827
0.126425
0.0947684
0.190264
-0.144394
-0.197051
0.286951
-0.172623
0.172655
0.272297
-0.248449
0.107203
0.194138
0.212118
-0.0320045
0.29516
0.234483
-0.510439
0.186225
0.324213
-0.265234
0.310972
-0.0457386
0.194334
-0.365711
-0.0485141
-0.291445
0.50958
0.315
-0.115183
-0.422432
0.26927
0.126775
0.212774
-0.354185
0.230092
-0.154597
0.0422501
0.0374618
-0.0797119
0.248653
0.136382
-0.220341
-0.152138
-0.281249
0.146743
0.252143
-0.398886
-0.148347
0.413856
-0.148307
0.177802
0.152114
0.294843
0.164543
-0.190617
0.026074
-0.0742723
0.325801
-0.15625
0.378058
0.447238
-0.045311
-0.209959
-0.0975354
0.307494
0.158075
0.248972
-0.407047
0.405057
0.0287466
0.159767
-0.0327148
0.040124
-0.155394
-0.242077
0.0143246
-0.101893
0.2691
0.144756
-0.00447993
-0.010219
-0.0867669
0.0392794
0.0474876
-0.00522754
0.0408086
0.143822
-0.0782128
-0.0656093
-0.0990006
-0.0100962
-0.323431
-0.32986
-0.129092
-0.133786
0.136139
-0.00235239
-0.246397
-0.415579
0.247122
0.250028
0.136666
-0.386694
-0.138804
-0.0344755
-0.230758
-0.157669
-0.137125
-0.376299
0.038548
-0.356478
0.0460447
0.043882
-0.214265
0.105333
0.108931
-0.405447
0.0993359
0.306111
-0.139919
0.130771
0.00914814
0.198133
0.109196
-0.307329
0.423953
0.149163
-0.410097
0.260934
0.12759
0.267215
-0.394806
0.0857371
-0.119541
0.122484
0.374267
-0.447383
0.218911
-0.0334065
0.201634
-0.107947
-0.00542074
0.0167121
-0.0158039
0.00331172
-0.0446908
-0.1473
0.191991
-0.039033
0.211706
-0.172673
0.201502
0.232319
-0.00128017
0.25477
0.00189249
0.241278
0.221825
0.219019
-0.355479
-0.219532
-0.105667
-0.00456574
0.123606
-0.11904
-9.53951e-05
0.222075
-0.0645091
-0.334393
0.33972
-0.428009
0.381359
-0.0577934
-0.0629848
-0.277308
-0.116882
-0.164891
-0.313483
0.169926
0.282016
0.178073
0.43527
-0.41927
-0.0160001
-0.433998
0.216014
0.217984
-0.282613
0.160034
-0.436181
0.21748
0.2187
-0.319523
0.486892
0.304127
-0.154991
-0.149136
-0.281682
0.0923991
0.189283
-0.195521
-0.00715919
0.0125718
-0.00541264
-0.227534
0.232621
-0.324657
0.0920367
-0.0343673
-0.0379493
0.0723166
-0.208695
0.177924
0.0307713
0.16012
-0.166714
-0.189919
0.356633
-0.0304267
0.370147
0.250495
0.136034
-0.386529
-0.160135
0.425748
-0.265613
-0.238883
-0.241959
-0.18646
-0.277177
0.506572
-0.208727
-0.297845
0.100592
0.038758
0.231529
0.139223
-0.370752
-0.161946
0.024706
0.168472
0.166913
-0.205867
0.0389538
0.19363
-0.0205831
-0.304635
0.10072
0.203915
0.194641
0.105526
0.283308
0.113589
-0.396896
0.108728
0.195399
-0.140374
-0.250452
0.390826
-0.258182
-0.151637
0.409819
0.192832
0.0967849
-0.331863
0.481422
-0.149559
-0.00354719
0.106651
-0.103104
0.180176
0.278593
-0.458769
-0.143031
-0.081825
-0.323668
0.405493
-0.254909
-0.173879
0.428788
-0.127823
0.306201
-0.267653
-0.479858
-0.0810598
-0.174493
0.255552
0.25615
0.127075
-0.383225
-0.411872
0.142525
0.329019
-0.0697654
-0.0778794
0.269959
0.100241
-0.3702
0.237312
-0.45255
0.215238
-0.0316393
-0.0968878
-0.0880664
0.286199
-0.0359183
-0.00670445
0.0426227
0.163176
0.0811759
-0.244352
0.452534
-0.291291
-0.161243
-0.427913
0.0960498
-0.0690668
0.0346995
-0.170118
0.141667
-0.282693
0.448148
-0.210836
0.230991
-0.167954
-0.0630377
-0.104663
0.485353
-0.163247
0.472868
-0.185666
-0.287201
-0.169077
0.46154
-0.292463
0.383263
-0.256519
-0.275692
0.360521
-0.0848296
0.314929
0.132019
-0.446948
0.420367
-0.148071
-0.201803
-0.171733
0.131782
0.267045
-0.398827
0.472549
-0.146098
-0.214089
0.46228
-0.248191
0.218418
-0.438827
0.220409
0.241063
0.26551
0.403505
-0.147355
-0.431493
-0.00862722
0.44012
-0.0430468
0.043005
-0.0981089
0.055104
0.205245
-0.403813
-0.0486732
0.0909233
0.426632
-0.188725
0.175017
0.037101
-0.043762
-0.418667
-0.0850549
-0.17633
0.164123
0.0122069
0.00634895
-0.0163558
0.0100069
-0.146554
-0.264155
0.41071
-0.181721
-0.101697
0.283418
-0.323604
0.134548
-0.00115146
0.248975
0.183741
-0.406174
0.222433
0.4069
-0.260158
-0.144845
0.448067
-0.361302
-0.0153557
-0.16874
-0.00727587
0.0830161
-0.0291866
0.124188
-0.0950016
0.110247
-0.335352
-0.48724
0.277504
0.4578
0.49725
-0.345021
-0.152229
0.100276
-0.331817
0.231542
-0.276667
0.393908
-0.117241
0.0403824
-0.0332268
0.174479
-0.141252
-0.102712