/*--------------------------------*- C++ -*----------------------------------*\
| =========                 |                                                 |
| \\      /  F ield         | OpenFOAM: The Open Source CFD Toolbox           |
|  \\    /   O peration     | Version:  v2012                                 |
|   \\  /    A nd           | Website:  www.openfoam.com                      |
|    \\/     M anipulation  |                                                 |
\*---------------------------------------------------------------------------*/
FoamFile
{
    version     2.0;
    format      ascii;
    class       volScalarField;
    location    "300";
    object      ReThetat;
}
// * * * * * * * * * * * * * * * * * * * * * * * * * * * * * * * * * * * * * //

dimensions      [0 0 0 0 0 0 0];


internalField   nonuniform List<scalar> 
18758
(
497.083
206.258
592.148
488.129
585.766
611.103
591.342
556.377
587.028
586.305
276.399
93.6215
125.22
542.333
590.288
597.771
95.1758
630.39
592.099
555.096
227.61
551.862
606.797
610.401
460.079
334.77
417.012
392.414
395.467
160.308
63.6236
259.553
560.561
108.643
586.986
176.995
131.34
587.217
85.0446
623.525
99.9336
578.839
106.168
603.112
594.356
60.4173
582.006
390.803
29.4801
494.318
303.922
100.913
494.957
532.982
419.81
237.103
614.325
555.622
394.578
614.386
593.163
604.089
223.153
36.5641
587.832
49.0642
595.947
624.377
405.406
630.191
91.6171
350.924
591.798
585.131
560.535
66.5295
156.016
112.374
584.707
108.089
415.871
81.1943
108.499
580.61
592.896
418.922
510.642
584.536
229.387
421.618
46.9816
582.031
427.374
29.6428
592.81
608.075
627.501
418.457
108.604
599.383
62.9451
523.304
624.56
607.672
50.8953
192.886
390.723
49.9071
283.633
349.189
597.786
36.6249
536.734
595.629
513.014
271.378
417.445
615.201
224.265
577.769
600.503
155.154
590.711
614.328
26.4497
535.489
605.756
614.265
372.121
27.0191
395.307
578.205
527.961
44.7025
621.437
599.373
71.6596
585.948
314.384
413.549
524.064
113.388
438.303
262.369
26.4019
443.852
47.2381
380.842
246.656
275.959
27.7101
26.5842
583.048
585.171
98.9016
238.537
424.913
370.347
576.937
227.986
39.6575
612.443
28.4538
48.3697
54.7978
610.973
612.573
56.3196
27.119
90.6298
26.9576
587.696
388.499
124.139
272.001
601.353
592.555
357.551
203.516
565.377
626.039
531.034
417.971
558.259
161.74
594.578
150.579
460.784
30.325
55.1555
26.6248
595.379
454.506
162.374
627.663
555.044
301.817
586.989
31.254
606.997
591.844
365.293
408.712
598.566
598.232
28.9506
606.479
585.214
27.5312
26.7154
597.779
425.513
581.734
567.313
556.258
627.282
594.099
426.609
616.405
127.222
264.253
597.53
435.801
360.784
243.688
126.367
555.387
442.791
43.022
606.711
322.984
441.775
277.807
593.147
601.349
593.871
521.023
28.6218
287.304
564.744
597.406
536.901
329.513
595.329
272.513
304.888
600.498
611.301
596.057
599.722
27.1003
602.7
150.278
593.39
600.197
276.644
613.294
406.938
597.628
63.8171
527.741
613.543
599.005
459.987
92.2806
109.838
613.721
320.863
581.446
599.492
125.036
129.25
599.011
607.451
608.888
557.253
512.59
619.908
558.315
537.654
611.523
582.754
594.953
46.8664
591.055
607.775
630.806
336.75
608.438
608.212
590.844
564.825
614.833
604.653
596.025
570.215
122.368
572.731
605.489
26.4837
526.355
603.207
606.294
222.669
275.639
626.207
437.742
164.566
602.994
189.89
595.785
207.053
308.631
369.09
398.606
107.303
624.999
289.421
351.217
594.204
376.086
579.756
261.271
601.874
624.892
26.8249
135.615
609.861
26.7131
551.393
490.984
43.8701
602.427
612.813
599.703
598.952
566.283
559.918
553.144
606.131
568.504
572.285
143.802
254.034
579.922
284.801
123.321
610.222
467.17
196.22
468.63
111.06
302.016
594.752
26.9637
65.3168
451.923
571.366
490.329
559.044
604.015
295.162
165.789
108.673
542.866
103.926
601.05
499.336
526.036
415.371
28.8172
344.512
275.979
387.399
104.048
293.506
597.267
55.6825
379.375
472.336
104.119
602.544
607.987
576.939
105.643
105.097
80.9176
26.5403
565.333
89.3479
341.638
597.741
553.008
550.836
593.257
597.189
559.64
594.433
573.54
595.345
575.607
579.611
74.6668
525.417
56.0074
56.4379
26.7731
73.1634
370.629
576.599
608.308
103.825
547.313
569.238
97.8814
416.476
322.473
612.967
159.846
592.985
525.773
626.801
33.6658
220.613
107.196
597.088
42.4604
436.15
595.394
594.122
596.939
278.467
596.315
605.109
55.9174
535.807
566.106
593.588
567.034
566.991
37.5198
315.225
586.926
51.3077
626.938
530.842
445.026
603.96
60.7336
589.716
571.868
592.432
282.37
549.242
593.655
27.8437
353.999
630.56
497.783
592.503
598.246
602.776
587.161
56.8292
33.307
577.761
456.849
89.3291
366.568
120.861
302.167
129.037
614.568
374.097
542.464
587.922
566.385
122.487
317.303
529.461
608.069
592.223
609.039
603.716
608.429
605.408
109.239
589.669
627.523
444.855
584.459
591.636
624.33
592.456
260.135
297.912
606.252
386.237
603.769
492.4
398.105
30.0116
342.257
596.28
595.606
32.1444
43.4118
491.893
613.576
301.461
45.7556
630.856
607.91
44.0781
559.781
410.457
460.798
583.865
451.464
611.508
602.08
577.911
597.57
606.977
589.628
140.686
625.952
244.304
104.764
630.558
625.923
584.742
498.595
493.163
314.417
598.553
55.3796
579.171
589.228
610.318
581.392
594.695
575.698
575.188
27.1106
195.031
611.339
607.155
567.674
54.0464
626.629
626.666
605.431
627.324
607.934
610.704
557.499
597.93
390.25
597.945
619.409
455.717
29.0196
553.014
605.094
600.455
586.576
595.346
577.412
371.103
178.143
565.058
250.623
600.434
463.811
605.202
606.097
440.491
630.003
601.761
256.515
593.134
555.476
546.711
602.996
593.217
32.183
614.593
99.8615
335.08
600.93
592.344
583.066
569.578
492.956
601.61
63.923
302.618
136.734
611.021
26.4977
628.031
597.297
597.276
504.367
54.0226
405.325
581.834
555.618
583.33
90.4546
300.324
599.413
420.834
516.354
28.0793
528.986
737.304
609.641
495.98
415.402
603.887
609.828
626.463
610.493
536.458
346.686
157.869
270.399
761.081
591.996
597.384
612.584
161.353
515.505
623.632
434.328
26.5484
27.0131
592.312
596.311
579.004
112.709
628.217
173.902
598.837
575.286
477.223
593.891
575.728
600.524
609.983
600.302
335.896
440.794
96.9124
573.304
607.88
255.406
626.321
161.461
136.459
599.137
78.7219
585.642
603.7
73.606
134.079
129.361
66.474
568.895
243.628
625.777
61.4741
26.697
468.392
589.461
94.8063
522.166
458.53
291.645
44.1937
588.119
126.102
604.842
431.408
392.418
607.506
483.583
201.739
96.1568
570.027
557.317
627.465
569.876
556.331
464.906
543.277
604.598
244.455
592.176
599.904
506.762
626.904
286.114
597.551
610.902
194.669
611.747
556.633
108.419
431.848
448.87
597.106
596.593
470.955
592.236
109.241
523.295
561.041
552.63
600.391
627.771
49.1331
626.892
30.4993
356.784
562.289
67.3637
610.362
500.366
561.707
42.9358
530.946
461.842
99.9402
596.05
109.767
618.581
291.158
593.857
569.767
71.4876
106.79
597.453
577.81
567.328
613.453
597.179
115.51
31.2789
598.372
613.662
618.451
39.6633
428.904
347.731
610.326
381.77
568.96
597.96
503.691
103.856
599.557
433.768
296.618
609.178
281.021
590.931
542.253
600.186
607.966
501.011
599.866
413.386
603.204
45.2776
595.667
524.04
394.841
104.288
432.987
605.807
599.438
97.1003
348.353
482.125
606.418
599.622
586.848
27.4225
104.57
601.552
597.723
570.065
579.02
598.656
594.382
600.924
128.312
597.845
592.881
97.8284
611.476
301.256
457.185
109.377
222.927
101.035
30.5617
594.365
599.222
551.865
597.954
598.875
612.525
608.159
569.398
36.5358
400.192
303.073
590.477
600.015
573.801
582.71
464.343
593.273
579.344
607.697
30.8313
332.418
145.311
592.515
386.676
372.454
235.861
27.3352
93.3668
562.952
604.185
614.812
198.479
577.81
624.498
387.013
68.9482
595.225
147.76
341.471
597.594
596.455
597.341
596.138
588.618
597.14
488.019
589.835
576.999
359.94
30.1579
591.761
136.31
372.167
564.754
581.589
596.502
613.853
551.272
566.104
599.987
574.215
597.145
578.426
82.3379
508.257
601.59
595.767
98.7488
587.847
624.706
39.0534
598.859
463.693
501.104
593.767
607.011
613.932
549.142
461.129
600.464
99.9119
448.699
372.714
105.105
571.718
354.989
625.771
271.845
566.269
598.802
395.202
266.309
596.605
281.597
319.292
612.41
482.942
624.673
585.206
528.61
594.89
601.265
375.389
599.308
605.205
91.7011
609.848
599.053
607.24
96.2385
595.218
578.107
498.703
146.854
98.6646
282.26
146.165
601.855
627.206
594.028
39.8207
587.831
604.997
534.279
610.293
297.505
576.714
583.189
355.132
595.947
440.876
65.3952
627.224
589.59
245.126
555.419
27.3987
104.057
612.7
590.525
90.1882
609.407
534.878
102.846
618.654
90.4882
597.841
597.134
590.085
579.104
594.664
168.103
578.703
601.043
118.883
99.7172
459.409
492.319
357.515
27.4576
129.036
628.875
27.2646
594.289
44.2419
346.065
598.19
527.366
576.772
107.661
608.952
39.7765
610.116
353.853
420.107
610.088
627.712
594.593
280.525
292.994
599.172
74.0273
595.105
599.372
93.7987
593.798
385.337
607.643
536.089
602.319
607.932
600.417
609.11
474.873
481.828
588.401
480.616
597.634
594.045
101.528
597.875
157.864
598.121
100.425
504.209
188.452
613.786
611.997
599.32
43.344
598.745
122.456
569.617
603.266
511.824
597.955
611.303
544.995
604.504
100.508
599.336
560.212
596.76
545.91
44.8978
74.843
595.147
606.706
582.775
597.976
596.783
556.04
569.685
594.544
615.36
613.91
415.466
409.308
595.585
612.53
94.1432
586.668
218.667
271.626
570.825
29.3096
582.694
609.76
589.762
568.92
642.184
615.033
469.638
114.591
468.773
98.7716
35.9971
26.9491
487.53
581.746
592.102
100.702
610.476
595.861
478.364
297.356
602.045
609.736
26.8049
533.693
582.059
588.795
534.477
459.319
589.047
524.8
597.313
474.221
573.22
574.802
589.584
202.71
575.499
594.087
91.8003
627.705
604.325
596.201
560.863
584.242
247.023
378.465
95.2123
126.441
36.4819
138.443
590.459
36.7766
93.3759
590.837
565.177
591.345
591.922
558.663
585.984
547.919
472.25
593.031
618.98
490.976
574.12
137.466
603.877
568.428
599.061
281.645
118.097
486.04
49.3405
597.611
599.063
380.886
547.53
598.992
448.149
596.756
524.132
110.65
456.131
481.685
590.65
592.212
573.011
611.687
97.0255
484.104
41.0524
312.23
298.11
597.264
28.2342
51.8302
35.6153
419.259
224.939
581.475
215.447
366.526
465.431
630.366
594.952
595.406
517.036
606.752
597.127
483.32
40.3107
217.008
115.066
409.795
80.6416
530.153
579.243
594.395
40.0973
307.568
606.998
502.45
59.1084
27.2593
26.5129
542.943
555.536
627.009
27.1116
572.019
103.16
379.245
497.6
389.54
367.533
590.869
591.681
298.037
441.383
423.315
595.687
577.514
541.558
115.404
566.275
108.112
570.043
132.238
203.419
585.879
401.694
557.123
26.7514
626.975
461.713
48.9329
492.146
597.952
264.295
305.553
596.263
597.862
173.637
572.704
592.673
403.434
141.545
581.33
484.829
72.6101
477.104
572.891
569.737
111.954
584.957
607.98
602.332
321.85
607.258
228.223
615.144
610.115
136.31
600.106
597.854
394.441
627.8
539.274
614.477
600.469
601.812
419.309
586.879
112.207
422.975
78.9373
34.5797
552.091
612.989
607.039
44.9754
520.986
586.856
108.375
555.579
217.931
617.841
615.166
612.758
605.59
598.213
621.618
583.677
564.044
594.573
371.086
534.264
117.653
594.414
614.426
577.251
55.748
59.7885
118.478
53.567
115.223
468.453
52.9452
592.539
450.629
430.558
27.3296
602.664
93.6238
394.945
348.528
593.852
144.473
599.567
597.411
599.336
474.384
38.0863
281.866
588.758
629.744
613.518
620.863
485.35
597.175
47.2349
398.632
532.268
597.046
595.708
623.63
28.052
521.573
598.484
600.528
291.458
620.664
594.785
617.276
597.056
600.692
599.585
614.151
311.129
528.969
286.39
562.615
577.312
483.022
605.631
175.551
581.43
437.887
271.545
123.719
462.697
447.319
27.0174
590.352
586.796
581.854
595.002
612.371
602.597
416.716
553.647
524.457
407.571
613.22
586.145
497.809
321.775
628.513
446.387
340.841
415.372
382.795
588.067
580.244
26.5057
496.368
605.565
596.672
392.218
613.356
611.079
252.659
403.997
575.076
580.99
574.153
68.33
531.983
26.6535
40.3529
594.524
602.189
83.5363
557.88
580.614
549.962
579.622
580.534
606.242
549.167
319.876
550.514
28.2362
124.617
457.313
105.116
83.4508
612.803
138.881
38.682
557.577
39.6144
593.322
382.008
381.738
177.747
587.746
304.605
588.999
122.443
599.809
624.521
34.5752
548.127
596.005
597.053
598.485
624.004
571.45
602.386
594.448
41.3205
199.187
599.751
598.083
109.856
94.7448
627.248
339.425
337.019
428.804
590.934
601.204
27.9632
598.88
455.536
378.259
611.165
585.774
43.9271
601.762
104.096
80.9076
55.6725
570.922
604.344
593.86
601.022
596.889
114.199
367.773
614.34
162.741
309.932
585.029
582.61
597.773
117.336
27.1429
635.028
589.109
532.602
47.3269
132.459
610.532
600.85
500.604
456.334
38.6141
108.903
608.343
319.063
127.082
597.594
605.225
582.417
550.928
602.027
569.524
611.639
629.215
125.166
585.97
579.342
477.374
610.652
600.371
595.74
127.46
612.001
584.542
30.4952
336.728
393.088
410.818
599.025
566.455
593.053
615.163
598.686
568.627
123.827
485.863
562.783
640.194
611.016
292.952
216.074
595.21
242.249
607.135
555.451
383.947
241.752
574.471
535.98
533.284
678.07
627.098
355.122
70.3903
611.367
386.558
88.4376
587.139
559.97
117.217
391.043
577.333
119.131
519.636
595.129
203.251
556.911
297.14
609.003
74.3776
514.89
624.455
484.388
504.202
591.543
538.17
72.3791
117.614
523.71
653.111
611.504
132.749
114.063
347.562
290.897
587.888
90.6413
588.972
601.635
428.784
569.53
503.48
134.679
575.732
64.4411
54.1422
32.7794
489.909
391.083
628.634
600.545
534.149
629.191
243.72
54.6875
44.3988
138.562
498.532
126.292
249.318
600.275
574.284
39.872
403.059
589.556
596.396
98.736
648.262
561.553
594.206
579.905
548.942
596.317
525.581
126.509
624.85
32.4272
614.48
33.1266
327.126
332.187
590.85
309.34
576.286
601.165
562.077
27.2058
550.778
168.207
591.833
596.816
517.628
133.159
574.881
395.753
296.114
69.8109
266.372
606.233
589.844
108.142
629.075
613.49
553.49
595.321
595.725
606.974
596.697
524.48
598.054
589.382
486.384
582.56
49.8089
27.1933
587.428
618.82
593.782
614.912
595.095
594.817
585.515
433.035
597.898
574.005
571.552
506.499
135.041
604.944
518.673
472.744
576.431
397.776
719.326
609.792
593.806
575.83
582.192
570.389
91.4239
444.919
594.899
260.984
568.184
497.159
83.7836
90.2876
29.9895
554.103
599.024
183.5
584.94
266.128
589.284
374.325
31.7596
612.158
448.01
599.343
364.522
365.388
32.7003
602.088
586.628
525.146
592.974
81.0917
613.008
110.048
54.1723
428.399
353.319
26.8827
606.754
605.286
588.542
119.618
191.767
571.36
577.592
572.082
618.669
612.393
605.571
615.93
192.958
573.097
616.428
568.254
271.812
54.7829
61.5863
583.618
358.781
583.102
514.762
426.622
90.4389
27.0853
614.653
517.952
627.292
449.354
590.221
409.693
320.021
590.056
444.503
612.818
143.866
104.818
615.926
563.024
585.834
580.26
26.5271
587.637
585.932
566.082
589.438
611.539
559.667
593.9
598.449
597.351
599.627
246.054
130.927
230.178
621.059
627.167
625.889
617.625
624.626
508.596
625.167
611.791
593.674
605.572
480.393
597.916
72.8944
36.3114
441.397
38.8237
582.135
104.291
534.484
453.142
613.759
178.283
591.159
588.57
587.124
347.19
363.022
603.915
446.627
487.664
594.733
588.558
127.244
545.354
605.333
579.034
520.034
551.746
56.0979
603.781
569.492
586.107
572.107
563.073
147.6
525.395
616.192
218.892
470.767
631.956
599.071
579.234
36.5862
613.458
575.79
586.523
272.579
624.441
604.677
613.95
582.876
600.543
261.451
588.039
515.004
508.503
42.1535
611.741
615.553
627.137
485.632
618.8
286.443
130.456
581.36
110.606
595.121
260.353
584.238
612.575
662.827
547.718
339.87
112.614
277.789
356.629
496.313
451.949
566.021
136.743
585.258
559.408
261.087
575.64
117.211
159.825
175.982
102.629
119.034
83.8051
141.398
407.366
584.945
540.77
586.96
615.915
600.047
54.826
123.055
155.142
588.155
567.827
114.767
603.327
461.807
615.391
491.359
598.028
624.677
588.794
445.317
251.262
540.968
493.2
614.763
478.046
78.121
612.546
567.256
304.943
628.997
434.881
612.916
27.4497
597.731
128.903
571.503
580.031
584.612
724.511
50.5003
488.212
137.758
547.943
586.621
586.476
602.36
616.39
593.216
54.3553
33.4985
502.752
604.186
517.952
574.427
589.571
592.341
372.563
172.885
111.14
595.633
118.301
613.254
422.252
547.899
442.226
282.47
93.9179
115.252
624.16
588.098
602.183
595.456
586.064
596.28
46.3944
591.662
603.884
570.681
526.583
598.576
26.8022
36.8715
125.741
588.87
289.969
616.639
108.726
376.396
597.567
122.231
524.775
417.532
610.298
570.87
488.131
575.774
350.962
390.815
317.51
393.979
555.609
555.927
597.85
284.297
532.722
361.669
567.448
66.7145
54.5278
95.7461
564.515
291.075
549.485
596.024
618.62
571.32
406.701
594.781
95.8457
539.614
351.782
599.373
525.446
277.127
98.2161
132.106
516.036
610.006
242.911
297.2
572.439
471.738
122.722
407.663
78.0179
532.802
583.501
322.989
623.364
142.393
433.175
588.061
295.871
110.021
39.9992
550.021
369.095
482.055
615.532
410.971
588.617
368.387
606.555
33.5672
29.5189
215.559
130.562
408.796
55.4474
522.508
542.161
134.093
42.8418
547.501
598.915
602.08
532.028
621.177
598.907
54.4476
599.905
612.347
589.368
598.461
625.145
458.011
158.117
444.615
597.373
585.393
482.833
565.1
599.616
602.435
615.68
82.6083
509.058
526.974
574.088
594.436
624.756
281.949
342.475
392.588
607.329
577.539
480.661
603.003
494.542
364.124
44.1269
585.574
537.415
611.953
580.235
147.474
116.521
215.325
514.598
608.919
612.168
520.162
397.833
34.0958
614.181
126.516
624.631
600.933
363.471
606.317
86.8456
360.742
138.905
624.642
480.365
439.138
74.2206
609.711
604.585
315.193
124.297
109.427
287.06
35.8918
590.456
396.189
512.671
515.638
51.8233
602.799
604.045
591.48
620.34
189.635
57.1707
576.79
61.711
618.967
603.714
582.257
315.796
531.98
62.9347
600.694
568.66
540.907
127.529
616.833
218.221
603.817
590.514
34.0123
605.163
365.528
107.813
135.088
82.8211
586.284
536.769
573.423
27.4156
659.432
584.889
27.7419
270.273
629.339
543.725
54.1815
615.177
26.4372
37.8216
518.977
627.039
574.809
578.381
48.3363
612.989
475.799
595.616
230.501
40.5629
594.27
616.901
381.663
585.887
600.849
604.075
604.311
413.386
536.831
346.749
588.037
590.783
598.035
569.473
586.217
586.608
107.143
128.4
92.8807
572.887
617.052
100.306
539.465
419.437
53.891
395.59
136.085
37.7444
617.314
132.888
431.088
558.196
607.045
601.192
599.333
51.8392
110.637
585.755
39.8079
326.001
31.1674
625.976
612.523
212.592
604.224
581.236
560.594
601.774
350.357
580.53
53.2787
288.37
604.871
68.7341
394.571
242.852
42.6503
595.097
585.439
584.166
227.24
61.0399
507.618
573.087
599.634
378.594
615.204
260.039
148.8
603.436
191.381
615.734
27.6305
602.978
118.398
560.448
43.8516
273.946
30.2493
27.4816
620.6
227.096
29.0109
572.769
34.1137
567.76
623.123
595.936
575.627
570.569
584.824
602.183
382.084
436.917
489.939
42.1146
407.975
498.62
567.113
513.213
617.491
428.19
102.473
46.5021
136.109
593.135
536.406
562.067
479.415
567.393
599.409
26.4184
207.954
35.41
592.816
589.393
426.596
44.841
603.569
615.484
593.063
569.716
438.753
591.138
112.776
586.408
60.5508
612.78
506.738
256.923
55.1083
620.961
445.049
586.246
615.338
387.174
212.455
602.145
560.857
30.4076
588.998
405.733
187.339
570.351
150.795
582.231
97.349
485.857
235.699
617.24
607.047
174.087
607.197
114.802
584.579
581.301
71.9527
566.739
598.69
560.254
599.89
57.1863
33.3629
615.401
117.733
424.585
60.1377
598.489
307.578
310.166
545.471
482.612
590.363
38.4401
622.576
42.6113
617.445
601.588
552.622
588.447
609.633
439.618
540.024
601.717
113.474
614.461
562.845
509.453
94.8281
460.816
613.092
584.555
602.559
602.08
580.412
34.0267
232.764
119.126
454.781
615.955
598.725
594.261
604.22
618.75
258.561
624.398
577.087
393.431
566.018
289.908
601.606
615.88
35.9457
46.8684
585.335
451.311
560.585
50.9837
598.907
569.942
334.196
603.033
257.735
306.239
561.73
562.141
290.019
579.07
414.651
488.871
57.322
554.252
593.614
581.862
305.756
598.79
198.964
75.4672
61.2984
32.7621
616.06
588.556
594.939
348.187
147.908
163.515
27.2812
621.245
352.189
615.415
38.024
595
549.143
358.573
596.582
598.912
438.585
527.149
570.085
570.681
502.384
548.128
604.119
379.415
571.61
569.69
598.553
55.4304
484.173
142.664
585.103
544.453
31.6345
585.842
426.135
615.716
596.129
52.4135
26.6307
161.466
601.501
574.661
42.0062
421.678
368.154
322.74
374.179
362.674
616.235
147.82
606.112
406.244
115.735
422.725
424.673
584.758
30.8859
393.172
124.409
459.61
599.411
597.357
587.091
111.109
613.939
155.743
397.034
105.261
618.71
28.7604
60.0358
130.296
141.496
560.133
586.772
599.824
523.83
587.622
544.771
37.6207
598.421
560.56
27.4487
126.917
143.842
587.042
582.321
608.745
28.6307
596.469
51.9329
437.231
409.26
582.703
444.025
321.423
595.688
596.122
27.1073
219.369
124.084
387.257
425.1
604.916
556.526
601.944
315.163
600.27
555.486
125.6
562.147
439.575
613.554
51.1524
54.7312
588.651
567.954
35.4026
533.542
617.619
35.476
58.5235
28.0737
604.204
572.081
259.061
64.1301
28.5666
581.253
590.33
586.397
569.49
572.299
609.893
95.21
603.965
94.7918
570.397
300.121
621.059
71.3884
123.35
406.094
443.887
169.906
612.115
376.776
56.5778
605.604
572.851
592.042
31.8358
26.9267
601.699
26.4806
561.69
594.98
37.4178
543.423
389.839
30.9172
31.5158
597.463
43.104
565.767
612.796
26.9801
567.409
113.059
410.265
475.85
60.7826
276.973
585.272
76.9376
68.6328
27.9858
559.325
621.624
596.655
555.393
108.036
64.0165
117.484
42.0321
518.504
621.846
602.855
582.342
134.298
598.49
123.841
112.876
616.141
558.728
26.709
399.432
93.3087
309.457
592.996
26.6803
123.262
56.5867
547.602
556.51
271.472
587.183
577.703
401.315
557.756
335.33
31.3041
568.3
356.547
314.967
415.288
451.281
137.196
339.554
136.102
596.329
179.023
44.9856
429.169
562.923
613.746
571.837
592.985
58.0905
585.431
27.5515
582.596
590.976
26.6777
269.876
617.799
596.577
123.732
224.865
592.097
614.569
519.529
512.694
326.697
447.857
613.246
407.431
568.444
136.57
277.42
118.49
590.54
398.048
35.8717
109.235
598.879
101.124
468.423
486.064
618.466
556.5
42.491
386.145
354.908
79.5587
602.169
388.24
574.438
408.944
387.362
168.109
344.317
605.648
602.5
700.945
132.813
590.98
580.8
125.13
386.107
609.822
161.041
62.7522
341.931
559.132
589.51
579.459
514.302
557.825
63.0449
412.588
614.936
590.352
128.898
442.639
604.618
121.208
378.163
578.483
39.0505
71.1785
617.558
57.6754
215.913
46.3054
36.0875
609.65
166.439
337.901
568.621
527.894
311.577
127.196
63.5293
630.956
590.682
536.24
104.902
614.154
277.268
626.338
590.669
90.2667
129.777
458.474
369.922
429.417
591.726
81.0417
158.553
335.445
238.5
401.532
395.23
589.871
591.067
451.959
498.784
34.5748
114.507
327.949
112.959
508.063
479.668
602.966
572.012
421.723
57.2118
613.747
425.482
105.739
416.567
257.634
325.781
43.8063
584.618
557.377
125.266
607.335
570.563
552.853
267.065
557.168
452.747
615.732
590.513
126.134
133.219
591.641
167.308
118.377
369.082
576.459
331.458
599.402
27.8277
339.58
59.0895
592.251
328.166
621.266
591.749
253.19
251.312
353.14
615.728
359.765
127.26
55.1091
128.567
466.304
546.916
138.785
375.558
594.818
602.099
152.516
95.4913
267.031
581.169
33.2805
616.428
573.4
460.024
402.218
595.861
91.6526
596.254
583.64
559.647
583.955
102.666
488.388
629.518
368.078
604.243
461.394
370.462
568.271
239.36
47.2511
402.722
389.051
582.774
29.6197
559.182
359.873
610.09
362.795
534.06
508.365
578.084
343.95
394.571
285.712
327.756
598.524
617.969
109.652
353.834
497.592
377.836
573.735
53.6397
601.482
370.217
347.925
135.229
615.987
353.129
407.553
339.54
567.716
569.01
558.938
571.409
558.316
554.284
554.851
599.146
374.967
31.2402
129.018
530.548
595.995
28.991
135.59
600.512
411.41
558.85
570.864
217.677
127.137
614.748
30.3627
597
210.327
298.991
310.738
561.334
592.243
544.835
614.61
579.611
105.753
123.282
568.089
118.726
382.486
586.109
439.362
54.1746
585.602
556.961
412.405
533.972
402.431
542.623
520.747
417.464
499.233
362.461
41.2876
541.866
286.69
398.459
125.992
400.446
589.187
600.357
521.847
328.029
126.287
226.21
602.318
38.0807
119.422
115.273
341.643
279.478
37.9234
61.1544
626.369
349.4
522.594
323.893
304.618
113.323
596.95
132.211
413.267
336.385
601.09
128.213
563.618
297.029
593.112
422.868
375.91
539.79
605.65
572.479
34.4571
607.417
182.13
397.015
273.248
588.524
123.029
389.864
593.454
609.966
29.946
534.657
605.636
596.371
174.815
37.1706
331.998
591.375
461.877
110.737
107.307
423.049
603.379
503.431
507.179
585.666
562.789
606.657
69.862
606.952
46.2525
120.401
515.958
257.9
768.21
616.957
569.864
98.7505
570.778
523.624
597.247
597.694
408.496
294.003
316.164
614.094
37.2203
546.598
140.99
596.222
517.182
527.741
332.328
590.397
499.175
140.442
356.768
516.776
607.321
586.655
535.088
417.853
618.421
580.512
593.663
584.639
94.8354
33.7804
242.106
423.025
560.636
627.982
238.469
73.6553
37.6556
522.263
431.51
591.417
573.217
375.904
609.569
82.0413
598.785
26.8799
616.886
28.8804
580.862
133.597
127.835
334.197
288.262
628.173
307.247
616.526
332.871
54.3712
393.147
612.4
373.865
272.643
445.82
344.094
499.277
360.078
620.933
482.083
615.694
128.882
278.614
29.145
36.407
583.316
110.11
602.75
605.333
306.04
618.657
600.108
597.851
604.587
293.442
569.834
556.041
570.427
607.114
599.631
567.711
520.582
581.319
481.951
466.98
616.249
113.262
575.943
423.048
109.161
459.209
570.864
435.495
407.291
462.949
48.6207
244.944
257.481
616.135
604.386
523.024
624.695
386.853
627.711
618.045
38.577
280.675
46.0533
579.662
418.467
432.684
603.009
84.5878
400.638
568.419
37.2466
43.3471
581.612
150.74
79.4827
124.735
628.389
398.93
408.412
607.185
624.256
306.456
248.556
84.4157
565.586
597.202
44.7136
435.164
537.218
624.931
86.9054
618.133
519.67
513.613
595.975
472.106
32.0274
607.019
622.41
524.167
26.7382
178.009
615.158
428.687
587.812
312.262
207.827
482.569
62.3642
115.888
126.28
267.295
81.0758
460.075
343.606
39.253
586.227
340.672
157.161
397.064
440.661
311.126
551.398
509.336
474.699
523.052
575.214
55.4494
50.2806
559.19
377.359
33.122
348.203
516.571
624.605
614.655
47.1544
402.999
55.065
562.662
603.5
514.521
431.601
478.604
114.206
585.942
307.644
589.44
394.503
624.744
586.032
130.554
115.89
40.7359
105.938
570.665
591.058
118.728
194.415
622.183
30.3991
365.721
216.815
413.709
217.68
515.494
538.569
50.9462
154.131
329.347
409.441
475.374
604.665
386.923
593.408
579.651
268.83
404.519
601.529
531.747
624.576
573.95
616.631
572.857
63.5343
549.7
46.1766
315.892
26.7866
538.2
595.392
557.218
593.398
437.425
136.528
419.845
595.066
441.981
592.732
29.1036
464.01
580.371
559.985
430.168
34.0448
49.7648
181.477
572.887
562.967
564.909
41.9822
510.771
300.995
29.3254
83.4085
605.038
124.724
68.5667
70.5264
579.271
73.4691
555.198
588.994
592.532
587.086
589.073
615.751
117.963
404.984
40.114
434.727
119.944
566.99
26.7048
609.696
112.132
575.096
354.31
316.354
519.758
32.591
68.5465
597.344
54.2374
597.155
464.192
559.098
547.756
613.941
540.32
28.0762
501.076
450.95
184.457
540.946
483.431
584.236
421.006
160.261
600.988
550.805
169.188
465.105
44.8337
544.771
60.5367
597.864
83.0518
573.817
588.138
42.6738
411.619
59.2943
616.74
587.098
362.732
341.568
572.498
599.564
421.324
28.4003
68.133
412.473
517.157
571.684
441.788
585.153
39.5262
27.1017
75.9202
32.4965
615.517
425.938
488.547
285.601
688.984
479.947
586.038
599.288
449.102
624.032
489.919
585.82
110.03
244.312
453.954
553.982
582.878
45.4227
522.563
545.266
112.695
580.926
577.475
85.0441
27.3483
77.757
558.162
34.656
554.633
385.151
431.468
603.02
78.4892
46.7407
567.795
436.72
396.824
506.725
446.77
205.46
451.271
322.04
576.737
450.763
578.321
123.892
597.342
136.835
284.854
61.9747
604.431
49.958
36.587
105.711
37.472
591.518
516.687
495.034
585.543
26.8531
28.9543
335.677
570.287
107.369
579.557
57.8154
597.29
613.064
571.344
221.32
559.434
552.494
130.294
319.673
594.273
552.246
479.964
595.807
369.499
604.768
125.695
534.918
593.029
190.713
108.301
540.223
406.826
527.926
526.726
495.118
586.729
213.627
598.954
121.407
109.676
598.983
106.548
587.237
586.922
474.607
391.154
126.821
572.563
581.615
617.218
604.419
244.263
577.342
108.047
575.428
596.357
523.108
136.2
270.96
352.198
458.601
594.18
553.339
589.14
493.44
581.363
566.728
562.011
393.284
580.009
611.771
545.826
44.0171
568.797
597.798
595.878
547.459
579.068
590.873
610.794
307.475
619.566
49.5191
568.163
614.944
101.287
460.565
584.488
249.533
591.59
500.356
159.652
601.007
544.728
485.934
202.094
49.8315
444.796
346.619
91.086
414.372
448.05
557.724
595.259
26.8186
433.102
560.09
585.649
593.244
265.974
111.384
310.673
571.956
444.971
607.696
570.682
590.173
574.8
385.676
332.152
481.53
83.0184
26.9515
153.142
594.587
348.195
582.093
550.079
615.452
585.663
595.25
594.182
594.43
91.6873
607.509
28.6946
565.287
301.885
605.912
27.7872
578.493
590.068
588.593
573.439
42.2019
52.6111
439.588
201.42
542.821
480.955
134.872
598.206
591.964
46.0232
239.724
371.123
592.559
598.73
597.138
611.981
251.297
331.83
383.741
602.552
121.338
592.327
601.091
569.137
458.201
368.557
562.12
247.517
486.158
60.7328
94.2022
89.7144
330.802
449.188
56.2105
396.183
612.148
570.385
582.96
363.933
209.771
590.219
585.997
386.851
360.749
602.282
592.178
304.607
563.384
596.388
600.118
574.069
588.922
589.615
537.655
26.7856
585.454
596.912
580.249
597.827
393.178
573.301
380.342
572.945
162.761
604.702
544.97
598.985
327.414
49.0298
592.861
120.47
564.554
345.112
119.999
610.46
404.744
582.584
424.766
505.017
607.692
591.789
269.728
388.138
483.963
571.633
605.021
601.163
543.74
573.381
571.098
82.0745
458.525
226.99
604.028
550.91
120.961
596.326
610.644
573.354
572.679
604.485
550.519
397.118
26.9098
596.345
267.501
602.241
579.807
597.651
568.625
542.59
294.192
410.247
585.414
593.934
572.786
578.851
570.625
86.2792
595.408
45.2066
571.711
37.3234
328.345
586.903
103.071
597.872
592.107
28.2498
574.229
554.021
56.8627
302.925
585.539
599.786
579.047
576.53
570.581
587.237
343.348
597.492
601.632
568.469
372.604
594.11
533.669
612.919
592.953
604.181
161.522
597.379
593.594
584.906
555.885
585.734
26.6822
419.826
351.014
591.047
378.214
399.821
86.6773
583.371
605.518
55.127
561.699
110.138
126.69
157.306
368.365
51.4917
357.344
554.579
410.424
184.916
150.225
100.137
595.438
584.556
288.891
562.294
591.232
407.173
157.392
571.301
570.091
601.247
605.766
595.514
604.481
530.932
384.518
600.55
586.518
581.446
128.75
575.192
241.469