/*--------------------------------*- C++ -*----------------------------------*\
| =========                 |                                                 |
| \\      /  F ield         | OpenFOAM: The Open Source CFD Toolbox           |
|  \\    /   O peration     | Version:  v2012                                 |
|   \\  /    A nd           | Website:  www.openfoam.com                      |
|    \\/     M anipulation  |                                                 |
\*---------------------------------------------------------------------------*/
FoamFile
{
    version     2.0;
    format      ascii;
    class       volScalarField;
    location    "300";
    object      ddt0(epsilon);
}
// * * * * * * * * * * * * * * * * * * * * * * * * * * * * * * * * * * * * * //

dimensions      [0 2 -4 0 0 0 0];


internalField   nonuniform List<scalar> 
18618
(
7.30828e-11
3.49387e-09
8.55745e-10
-2.30636e-10
4.10364e-10
4.58675e-12
6.90087e-06
3.4986e-06
-9.0168e-09
1.21317e-09
-2.34272e-10
1.30106e-10
4.18544e-11
3.20702e-10
5.66339e-10
3.64471e-09
-6.75005e-10
2.25708e-10
2.90021e-10
1.52585e-05
-1.14322e-10
-3.38384e-05
1.88636e-10
-1.4411e-10
2.87367e-07
-8.71527e-09
-1.20488e-09
-5.23917e-05
7.24242e-10
8.42437e-10
-7.33871e-10
-2.96385e-10
-3.32309e-10
-7.42093e-10
3.74733e-10
-2.16492e-05
-2.98258e-09
3.89532e-07
2.954e-06
-3.02662e-10
-1.23863e-05
-2.93533e-05
2.67851e-06
1.79923e-05
4.15071e-10
1.40774e-09
3.18915e-06
-6.93565e-10
9.89171e-10
4.48805e-06
-6.55294e-10
6.42942e-10
-3.05253e-10
-2.52418e-09
1.68533e-05
6.95062e-08
-1.05701e-09
-1.69484e-09
-1.26974e-05
-6.34429e-07
-1.99112e-06
1.93201e-06
4.05043e-10
1.01407e-10
-6.55411e-08
2.70344e-10
-7.86246e-07
-2.6137e-10
-9.58424e-11
-1.28835e-05
2.52302e-09
-5.40384e-10
2.27562e-10
9.02889e-06
1.08461e-05
-2.26542e-05
1.24981e-09
3.68178e-10
1.7619e-09
1.04495e-09
-2.41056e-10
-3.34281e-09
-1.09497e-10
3.76446e-11
-3.39161e-05
-1.90608e-09
-8.70972e-08
-1.28693e-05
2.6222e-06
5.07874e-06
-6.56286e-10
-2.4033e-06
6.64612e-07
3.18626e-11
2.13712e-07
2.7284e-06
1.74499e-10
-1.91335e-08
3.80746e-11
3.07528e-06
4.35042e-06
-1.38257e-06
2.52749e-10
1.88337e-07
8.20874e-10
-3.02983e-09
1.61695e-06
-1.27763e-10
1.65602e-06
6.76387e-06
-1.16459e-05
7.55371e-11
3.27957e-06
2.69614e-05
5.01976e-10
3.52802e-10
6.4507e-06
7.46661e-10
2.73652e-10
1.42386e-05
1.06486e-11
-9.77129e-10
2.0256e-10
5.18208e-10
-2.41895e-09
-8.60453e-09
-1.98659e-11
-1.09335e-07
1.16945e-07
-1.44767e-09
3.12718e-06
2.32074e-06
1.62775e-05
-6.78589e-10
8.29139e-10
-3.27962e-10
-3.50939e-10
-1.26473e-05
-3.26447e-05
-7.7074e-11
2.02377e-06
5.94479e-06
7.24014e-10
-2.98446e-10
1.7445e-11
5.12474e-10
-3.98202e-10
-4.84052e-10
4.98547e-10
-4.69638e-10
7.59402e-06
1.00166e-09
2.12108e-10
4.61351e-10
2.69997e-11
1.31858e-06
9.44856e-06
-2.86647e-10
-2.01166e-10
-3.56755e-06
-2.96615e-09
-8.47459e-10
4.15256e-06
5.24887e-06
1.51771e-10
1.66241e-09
5.21398e-10
-2.41692e-05
-2.42605e-09
-1.65013e-08
1.1662e-09
-3.47792e-10
-2.48173e-09
2.98458e-08
2.50058e-06
9.17731e-10
-1.19646e-06
5.97487e-10
2.2863e-10
5.30722e-10
5.9892e-06
3.07124e-10
-4.26264e-05
-6.96843e-11
3.42328e-11
-1.70395e-09
4.0047e-06
-2.67026e-08
-7.40002e-08
6.71456e-10
-3.15085e-10
1.59016e-09
1.49365e-09
-1.06187e-09
-4.70654e-10
1.73068e-06
3.39186e-10
-3.69004e-10
2.36329e-06
9.07172e-11
-9.58685e-09
-5.68283e-06
1.04086e-05
2.71282e-06
-1.29497e-06
-5.23119e-10
2.00484e-06
-2.59828e-06
6.60575e-11
-2.01486e-10
-3.22014e-09
1.48444e-08
-4.21567e-10
-1.78695e-11
5.12848e-10
6.41397e-10
6.00329e-06
-4.90544e-07
-2.02288e-09
-5.22996e-10
-8.72009e-10
-1.20005e-10
2.19585e-06
-1.98728e-09
-1.28461e-05
-5.98131e-10
-1.57628e-10
5.71974e-09
4.11283e-08
-5.88731e-10
2.40776e-11
-4.52329e-10
-1.07362e-10
2.24238e-06
5.38797e-10
1.91967e-11
-1.29469e-10
-9.57371e-09
1.2134e-05
-8.02265e-10
-6.68092e-09
1.15879e-09
-1.64912e-10
2.89716e-06
-1.97306e-09
8.06401e-10
1.80928e-06
5.28216e-10
-1.31909e-05
1.73865e-09
-1.91781e-10
-3.20516e-05
-7.28368e-10
2.15184e-06
-5.28334e-10
-4.54149e-10
-1.9061e-08
-8.47368e-10
4.41139e-11
-5.56854e-10
1.04919e-10
6.45312e-06
-1.77933e-06
2.2744e-10
-3.32238e-05
8.1858e-07
-1.40683e-08
-7.77926e-10
-6.15066e-09
-1.02104e-11
6.18871e-09
7.12061e-10
3.57e-11
-1.48776e-09
-1.39972e-09
-1.11528e-09
-1.38256e-10
4.7065e-10
8.72746e-10
2.37846e-06
-1.41247e-09
-2.62666e-11
-1.4994e-10
8.85973e-11
2.96609e-06
1.08458e-09
3.13368e-10
-1.24155e-09
-3.06763e-09
1.49511e-09
-5.48923e-10
6.90478e-10
4.18062e-12
5.47595e-10
-2.77144e-05
3.2749e-08
-5.60172e-07
3.78514e-06
4.1414e-06
2.51936e-09
-1.52194e-09
-8.51915e-11
-4.38938e-10
-7.37493e-10
-2.0923e-09
-5.27094e-11
-3.42516e-10
2.61338e-06
-1.69481e-09
1.09161e-05
2.7075e-06
-2.28492e-11
-1.03844e-07
-7.52704e-10
5.55405e-10
2.07321e-09
1.14235e-10
3.81374e-10
-1.09099e-09
6.77328e-06
1.89732e-10
3.30527e-06
-1.35388e-09
-7.27695e-06
1.48126e-09
6.78845e-07
2.68163e-06
4.95006e-11
2.23875e-10
-4.20204e-05
-4.3908e-10
-8.49013e-06
9.93631e-11
5.91553e-10
-5.3791e-10
-4.5588e-10
-8.42129e-07
-5.98964e-10
-6.62272e-10
1.16113e-05
1.87339e-09
-1.99327e-10
-2.80929e-05
-4.70467e-09
-1.3133e-09
-9.79272e-10
1.75881e-10
-4.42431e-09
1.13614e-09
-4.61939e-12
4.01803e-10
-1.91727e-10
3.38918e-06
1.98624e-10
-1.93946e-10
1.04413e-10
7.36608e-10
1.61467e-09
7.31901e-10
-5.49615e-10
5.60832e-10
2.88501e-06
-2.88653e-05
-1.8607e-09
2.74808e-06
-3.22697e-05
4.16235e-10
-2.58375e-10
-1.33749e-10
-1.29471e-08
-1.44257e-09
4.03615e-10
1.30192e-09
6.26584e-10
3.74429e-10
5.30449e-11
6.28462e-09
1.53136e-09
-8.85307e-10
-1.56847e-09
-7.5368e-09
6.22779e-10
1.57352e-10
4.87027e-10
-2.29699e-09
-1.69783e-09
-2.43315e-09
-2.20093e-05
-2.94909e-10
8.83651e-10
8.33996e-10
2.21091e-10
7.23818e-06
-1.27655e-05
1.14137e-09
9.03197e-09
-2.40721e-06
4.65595e-06
-4.19808e-10
2.75777e-06
7.59235e-10
-1.58463e-10
3.08004e-11
9.53623e-06
5.2814e-10
4.76021e-06
-6.72231e-11
-2.96248e-10
5.4528e-10
7.66868e-10
6.64155e-10
-6.89442e-11
6.18956e-10
-3.04668e-10
5.78299e-10
2.49661e-10
1.18783e-10
-3.21916e-11
-1.08774e-10
6.75803e-10
3.15524e-10
1.76361e-06
-7.31291e-11
4.3893e-10
1.52625e-10
-2.80776e-05
6.22804e-10
2.00246e-10
-1.02313e-06
3.93061e-06
5.22926e-10
-7.96189e-10
5.07438e-10
1.40594e-10
-7.6929e-10
5.12571e-11
1.0315e-09
2.21181e-09
-1.17608e-08
-3.6029e-09
-9.29478e-10
-1.49826e-06
1.6291e-09
-8.77993e-10
3.09249e-06
-3.14585e-09
2.58783e-10
8.25682e-06
-9.25803e-11
2.73159e-10
1.95075e-09
-1.51594e-09
-1.20132e-09
-3.43598e-10
-6.76318e-10
-6.86241e-08
1.26256e-10
-5.35403e-10
-1.70248e-10
-2.63206e-05
1.02515e-05
-6.78975e-11
4.95654e-10
3.09706e-10
-1.36217e-09
-1.63213e-10
-3.89616e-10
-7.33695e-11
1.01194e-08
1.11147e-09
-1.35704e-10
-3.85961e-10
4.44856e-10
7.47131e-06
3.70714e-10
1.83949e-10
8.1809e-07
-2.49577e-10
3.3685e-06
-3.50374e-10
8.16924e-09
-2.69292e-09
1.18212e-05
-3.09219e-12
-2.06538e-08
4.49237e-10
-5.11583e-09
-1.17128e-10
-8.89856e-10
-8.63348e-10
-1.42072e-08
-1.64069e-05
1.20997e-10
6.76476e-10
3.45e-06
1.37838e-05
-5.11388e-09
-3.50357e-05
-2.27347e-09
4.84502e-10
3.85066e-10
-1.03709e-09
-9.95959e-07
-5.09961e-10
-1.47723e-10
-4.16827e-09
-5.12631e-10
-2.54136e-10
6.6589e-06
-3.07416e-08
-2.53929e-05
-2.79483e-11
-2.90147e-10
-2.10626e-10
-1.40317e-09
3.28076e-11
8.81184e-10
1.09452e-09
8.09164e-10
2.62148e-06
-3.96898e-10
-2.8378e-11
3.50002e-08
1.00323e-09
9.41953e-10
-9.56419e-10
3.33299e-06
-5.81106e-10
1.15985e-05
-2.50806e-10
7.19255e-06
5.33742e-06
7.79781e-12
1.25323e-09
1.77223e-09
-2.02496e-10
-2.01766e-06
-1.34694e-10
-5.32954e-10
-3.62486e-10
4.30463e-10
-2.35434e-10
-1.49267e-09
-4.33492e-10
-4.75075e-10
-6.69178e-10
3.70978e-06
6.02647e-06
8.33999e-11
-9.75966e-11
-4.26233e-10
3.36517e-10
-4.79587e-09
-2.12403e-09
4.71144e-08
1.1411e-09
1.95095e-05
-8.16763e-10
-4.40135e-09
2.02173e-09
-3.10146e-05
-1.38171e-10
6.60166e-06
-6.77616e-10
2.45295e-10
3.74827e-10
7.19963e-06
-8.36618e-10
-6.02077e-09
9.41552e-10
6.26713e-11
3.27266e-06
5.32432e-11
-2.01892e-06
-3.06246e-05
2.49546e-06
7.48857e-06
-5.49863e-11
8.06577e-06
-1.68513e-10
-9.19201e-10
-7.98713e-10
-1.89602e-10
2.93836e-10
5.04425e-09
-4.17209e-10
-8.33214e-11
7.21332e-10
4.77465e-06
3.69365e-09
4.24284e-11
-2.28714e-10
-4.65161e-11
4.1173e-09
-4.91133e-10
-1.03725e-09
1.53686e-07
7.11091e-06
-3.82683e-10
-2.58394e-09
-8.80897e-11
9.98386e-07
-4.12173e-10
8.91085e-10
-2.19606e-09
-1.48539e-10
4.10686e-11
5.20098e-10
3.62707e-10
-9.74485e-10
-2.33205e-06
2.11385e-06
2.77163e-06
5.28549e-06
3.41597e-07
-5.47672e-11
-3.08909e-10
8.74105e-06
-6.82164e-10
-5.7298e-10
8.25135e-10
-1.24073e-09
1.30776e-05
-3.38635e-10
-1.07534e-10
-1.57455e-08
-3.35866e-10
-3.86788e-10
-3.59655e-08
-6.82422e-10
4.05275e-10
2.91627e-10
4.8305e-06
2.99463e-10
-5.04179e-08
-6.71035e-09
4.93968e-06
-4.74817e-10
5.38487e-06
-2.08901e-09
5.41765e-10
1.48336e-11
2.67414e-07
8.61106e-09
4.94532e-10
3.19997e-07
-5.3139e-10
8.01405e-11
-3.21451e-10
-2.43168e-09
5.51921e-06
-5.31044e-11
3.96488e-10
7.23365e-10
-1.06214e-09
3.56994e-10
4.40789e-11
6.36922e-06
-7.78361e-10
1.19246e-10
-6.98286e-06
-5.2995e-09
8.46633e-11
4.37595e-10
-1.25151e-09
5.02592e-11
5.28549e-10
2.90764e-11
6.9763e-09
-2.46877e-10
3.50708e-06
-7.35196e-11
-3.62197e-10
6.55245e-10
-6.99994e-10
1.077e-08
-2.74238e-05
5.43668e-09
-2.61275e-05
-2.02326e-11
-1.22624e-05
-2.88615e-10
-1.11172e-09
-8.70232e-11
3.25106e-09
3.01028e-06
2.37204e-06
1.17472e-09
-5.12495e-11
-3.3014e-10
5.64767e-06
-1.86094e-10
-7.10569e-10
-7.15319e-11
-1.44625e-09
-2.13403e-07
1.53494e-10
-6.63882e-10
-5.04781e-10
4.16654e-06
1.86616e-06
-1.05043e-10
-8.52554e-10
-1.35631e-08
1.12859e-09
-3.52422e-10
-2.60384e-10
3.21958e-06
6.77865e-10
-1.34152e-11
-8.83574e-10
-1.08936e-10
3.96433e-10
1.41102e-05
1.00103e-05
7.12921e-06
-6.36953e-10
6.29904e-07
-2.18924e-10
-8.22602e-11
-2.69731e-10
2.12129e-10
5.59221e-06
3.43284e-06
3.45753e-06
2.23437e-10
3.16931e-06
-1.16886e-09
7.45974e-10
-1.16485e-09
2.09184e-09
3.6652e-06
7.56078e-10
-1.03116e-09
1.352e-05
8.95322e-10
3.85949e-06
4.11068e-06
-5.88348e-10
-1.77606e-10
1.54025e-09
-1.7531e-09
3.42708e-10
5.53031e-06
3.98919e-06
-8.78885e-06
5.52949e-09
2.42376e-09
-1.85741e-09
3.15972e-06
4.54426e-10
-9.77762e-10
-7.89848e-10
-5.33411e-10
3.50189e-06
-2.3965e-10
-5.26386e-05
1.89653e-09
1.85683e-10
7.01804e-06
-3.28046e-08
1.57891e-09
-1.8756e-10
-6.09403e-10
1.30305e-09
1.79811e-08
-1.27374e-07
-1.50392e-09
9.30191e-11
2.60915e-06
-9.94154e-11
-1.35907e-09
-1.63908e-10
-7.4639e-11
-2.55917e-10
-1.51648e-09
2.32378e-06
-2.17431e-08
-1.61353e-09
1.53788e-09
5.9917e-10
-7.767e-06
-6.29441e-12
4.37523e-10
-1.70923e-05
-3.69474e-10
2.76631e-10
4.5071e-06
2.83753e-06
2.26571e-06
1.01208e-11
1.72449e-09
-1.43704e-09
-7.08046e-10
-5.21681e-10
3.25627e-06
2.30459e-09
-1.75062e-08
1.55762e-05
1.23381e-09
-7.50439e-10
-1.07089e-09
1.31702e-10
-3.53209e-10
2.08152e-09
-4.22974e-11
6.37804e-06
3.22913e-11
-4.11749e-10
5.96767e-06
2.42645e-08
9.80425e-10
-4.81466e-10
6.49762e-10
-3.74806e-11
-2.00798e-10
6.93305e-10
-1.19535e-10
8.12531e-10
1.01653e-09
9.96065e-11
-7.81299e-10
3.34918e-11
1.13324e-05
8.09447e-10
2.93879e-06
4.32439e-06
-4.20011e-10
4.13553e-09
1.05273e-09
-6.73912e-11
-1.51933e-09
1.17973e-06
6.46835e-06
-2.57793e-10
-3.7907e-10
6.24526e-06
8.00545e-10
-1.6389e-09
-5.61736e-10
1.1095e-06
6.50176e-10
-1.88082e-05
2.16139e-09
2.53017e-10
2.97563e-06
-4.08088e-10
-6.1788e-10
-1.66494e-10
-4.75102e-10
3.28408e-06
1.67866e-05
-1.00915e-05
3.64579e-10
-1.02641e-05
2.74383e-06
-3.14729e-05
2.92017e-06
8.88149e-10
3.74281e-06
1.99309e-09
1.55828e-09
8.27149e-10
1.56179e-09
2.41415e-06
1.31308e-09
5.18529e-10
-4.76236e-10
9.83994e-10
-6.92076e-10
6.9479e-10
6.7373e-06
1.00497e-09
-1.9846e-10
9.20374e-06
-1.34829e-09
3.47879e-10
4.94215e-07
-1.19654e-09
-1.88907e-09
-9.11364e-10
5.74871e-10
8.10162e-10
-2.36295e-10
1.64754e-11
2.30633e-06
8.80248e-06
-8.60226e-09
-1.94904e-10
4.71995e-06
4.73743e-06
-6.56704e-10
6.85685e-10
7.09092e-10
8.86848e-08
7.83747e-10
-2.10786e-10
-1.62443e-09
-3.27256e-10
-1.27183e-09
-4.25834e-10
3.50486e-10
-6.29115e-09
7.19692e-12
-9.90865e-11
4.10131e-10
-1.32952e-08
-1.25868e-09
-4.38771e-10
-2.64233e-10
-9.69654e-10
-1.1763e-09
-2.10628e-10
4.02044e-10
1.37305e-10
9.29918e-06
-1.58474e-09
3.01069e-08
6.11502e-10
-8.33637e-10
5.60305e-12
3.51134e-10
-5.58343e-10
-1.46474e-09
-2.55705e-05
9.31727e-06
3.67567e-06
1.165e-10
-2.96841e-10
1.66259e-08
-1.67978e-09
2.23542e-10
4.80436e-11
-5.64933e-10
6.51449e-10
-8.56266e-10
-8.14356e-08
-1.17902e-06
8.48346e-10
-2.51127e-09
3.83012e-06
-6.5375e-06
-2.88477e-09
-2.7206e-09
-3.94773e-06
-1.08261e-05
-4.22271e-10
-1.51888e-10
-9.28093e-10
-1.02003e-09
1.58962e-08
-4.97063e-10
5.89589e-10
-1.90057e-07
-1.11105e-10
-4.46398e-10
-3.00772e-10
-9.80586e-10
-2.42372e-10
-3.48809e-10
-2.99962e-05
4.07538e-10
-7.20941e-10
5.24595e-10
-3.52771e-09
7.93641e-10
4.35791e-10
3.8395e-06
3.56394e-06
9.45731e-10
1.0511e-09
4.98615e-06
-1.43251e-10
7.46381e-10
1.82882e-10
8.16304e-10
3.97229e-06
1.01667e-09
6.65193e-10
8.47271e-10
-7.39254e-06
-4.77036e-10
-8.18428e-10
-3.14506e-05
1.34055e-10
2.30041e-08
3.51319e-11
2.86484e-06
1.33403e-10
2.45762e-09
-1.28223e-05
-9.90573e-12
-1.62019e-06
-1.39476e-09
3.70377e-06
-2.90735e-05
-1.29101e-10
7.38719e-09
-2.31682e-05
-4.11634e-09
2.63625e-06
-1.3816e-09
-6.49675e-10
1.87401e-09
8.22705e-11
2.11275e-09
1.34981e-09
2.97543e-10
-2.86347e-05
6.04395e-10
-1.48769e-09
8.40295e-10
3.35873e-10
2.14662e-10
9.30975e-11
-2.72659e-09
3.44751e-10
5.34145e-11
9.55006e-10
-7.82757e-10
7.42023e-10
8.08187e-07
-2.7775e-11
-1.11349e-10
-1.91675e-11
6.42334e-09
-1.59942e-10
8.18752e-06
-1.09226e-08
2.81405e-06
-2.12432e-09
8.11861e-11
5.33713e-06
-2.4164e-05
-7.99384e-10
-1.06134e-05
4.95524e-10
1.14081e-05
-4.5411e-10
-3.92648e-10
-1.49201e-09
-9.16541e-10
-3.89913e-06
-9.00074e-10
-1.91751e-10
7.27645e-10
3.1209e-10
-2.72244e-10
5.97625e-09
3.93494e-10
-4.18146e-09
1.01482e-09
-4.75911e-10
-1.25594e-05
-2.29725e-09
1.81296e-10
6.237e-06
1.08638e-09
-9.73811e-10
-2.29741e-05
7.09707e-10
2.03258e-09
-5.7067e-09
-9.87824e-11
-6.85906e-11
1.81421e-09
-5.56494e-11
-6.7468e-10
-5.30332e-10
3.29563e-10
-3.09706e-09
-3.32734e-05
1.37029e-09
6.35368e-06
1.23651e-10
-2.26775e-10
7.36696e-11
-5.73546e-11
-6.73632e-11
5.65689e-08
3.6743e-06
1.88721e-11
-5.38846e-11
4.07337e-06
1.26884e-05
-2.58694e-05
2.27391e-11
2.03432e-09
1.56358e-09
7.1246e-11
-5.82178e-10
-2.04665e-10
2.87036e-12
4.94172e-10
-5.66244e-10
-3.70747e-10
1.21837e-09
-3.49216e-10
7.57228e-10
-6.01058e-10
2.52564e-10
2.07807e-09
5.24622e-06
-6.82129e-09
-3.43472e-05
-1.93594e-10
-1.37399e-09
2.27356e-10
-9.86152e-06
-7.99209e-08
3.88978e-10
-4.91676e-10
-7.90023e-10
-9.80632e-06
1.08953e-07
-5.4303e-10
-4.13867e-10
-9.52578e-06
-1.14524e-05
-7.29505e-08
-5.50067e-10
1.31442e-08
-7.25946e-10
-3.73198e-10
5.18776e-10
-1.25775e-09
1.4668e-10
-6.63028e-10
-9.18547e-11
2.66428e-11
1.01909e-05
-1.11473e-06
-6.08273e-10
6.95655e-10
5.03896e-10
-4.07941e-10
2.65391e-08
-2.54772e-10
1.80008e-09
5.31196e-10
-4.72658e-10
-7.37194e-10
3.50003e-11
5.10179e-09
-3.21765e-08
4.46811e-10
-3.5225e-10
-4.70245e-10
1.58971e-09
-6.74081e-10
-2.04389e-09
-1.06434e-05
-1.7549e-10
-9.76739e-10
5.35713e-06
3.28493e-10
-1.42678e-09
-4.46562e-10
1.59703e-10
-2.3686e-05
1.75227e-10
-2.19117e-09
1.91719e-09
1.31997e-09
1.27618e-09
3.02118e-06
3.71217e-10
1.35762e-10
-3.05825e-10
6.50824e-10
5.57931e-10
1.09511e-09
4.65501e-06
-2.48456e-10
-8.48701e-11
-1.71326e-10
2.27341e-09
-1.96572e-09
2.98818e-06
-5.46439e-05
8.01555e-11
1.60491e-09
1.23101e-05
-1.78192e-09
-8.25941e-06
-8.77446e-11
-2.11895e-10
-2.80236e-09
9.88493e-06
1.08243e-09
-3.27222e-10
-5.15755e-10
-4.12622e-11
-1.48616e-09
-1.33096e-05
4.21467e-07
5.09203e-11
5.07634e-06
4.79247e-10
4.54417e-10
-6.80101e-10
-1.16836e-10
-6.26582e-10
-6.43715e-10
-5.4222e-11
9.61939e-11
1.26593e-05
3.78296e-06
5.3e-10
1.36697e-10
6.59247e-10
2.83994e-06
9.39485e-10
-5.65232e-10
-2.20979e-09
1.76771e-05
6.14187e-12
1.2372e-10
-4.60884e-10
6.8826e-09
6.2003e-09
-5.19972e-10
2.10464e-10
6.93923e-10
1.84363e-11
-1.50402e-09
5.01395e-10
9.9002e-10
1.73659e-09
-1.89581e-09
2.34368e-09
2.87095e-10
-1.5602e-09
-1.65553e-09
-7.12069e-10
1.03167e-05
1.27236e-10
1.84947e-10
9.8028e-06
1.00833e-05
8.37594e-10
8.88556e-10
-3.61295e-09
3.44036e-10
2.34947e-10
-2.63928e-10
-4.47784e-06
8.81414e-06
-1.20757e-09
-3.67621e-10
-4.36191e-10
-1.60951e-09
4.38137e-06
-5.47049e-08
-1.22059e-09
-2.68569e-10
-6.50933e-10
1.67203e-05
-8.60364e-10
-1.03502e-05
2.97374e-10
1.83531e-05
8.31167e-10
-9.1408e-10
-1.26967e-10
6.34021e-11
1.19087e-09
3.92293e-10
5.28273e-06
-2.9936e-05
4.47e-10
-6.0615e-10
-1.11478e-10
2.4123e-08
-5.05629e-09
1.3643e-09
5.95295e-10
8.18581e-10
1.41576e-11
-3.62052e-10
-7.62067e-09
-7.212e-10
2.34135e-06
-6.45481e-10
5.48193e-06
-1.73113e-10
7.63509e-10
2.52963e-10
-1.09721e-10
7.27382e-06
3.43859e-06
6.19919e-11
-3.20444e-10
4.50058e-10
5.09083e-10
-1.49104e-09
-2.80409e-10
-1.05888e-09
2.31328e-10
3.61468e-10
-5.02889e-10
-3.03737e-10
1.04683e-09
4.21664e-09
-7.8638e-10
-1.92864e-10
1.72647e-09
7.32186e-09
4.40664e-10
-4.04426e-10
-3.62129e-11
2.35548e-09
-1.52774e-09
-3.85071e-10
1.73138e-09
6.46156e-10
-5.55567e-11
2.95867e-06
-3.95248e-10
-4.03541e-10
2.97748e-08
-4.96964e-10
3.59152e-11
-2.47952e-10
-3.10608e-10
6.42312e-06
-3.26076e-10
1.12124e-09
2.98814e-09
8.67027e-10
2.3651e-10
-6.85279e-10
-8.88375e-10
1.40511e-09
-1.00406e-10
-2.41921e-08
1.12511e-09
3.63025e-08
5.30792e-06
-2.65541e-05
-9.24462e-09
-6.85821e-10
2.32098e-10
-5.8963e-10
8.7108e-09
-2.98249e-10
1.518e-09
6.25936e-11
3.18171e-06
-2.96323e-10
-1.48298e-05
2.52022e-10
-3.59584e-06
-3.97596e-11
-2.43515e-09
-1.29229e-10
-5.25648e-10
-1.20781e-09
-3.55188e-10
-1.43246e-09
-9.82536e-10
8.55123e-10
2.33745e-08
6.29485e-06
-2.70692e-08
7.70209e-06
-1.53873e-08
4.64516e-10
6.21939e-10
8.00099e-10
-5.9491e-10
1.19357e-06
-7.9595e-11
-7.52399e-09
5.03187e-09
-3.10163e-05
5.35743e-06
6.68777e-06
2.37186e-09
-1.44629e-05
-4.93937e-06
2.48033e-06
8.05313e-11
8.00143e-10
-3.98564e-10
-8.00556e-10
-3.10507e-05
5.85674e-06
-1.17417e-10
-6.91718e-09
-4.66529e-10
-4.1038e-10
7.89636e-10
-1.30947e-09
7.90181e-07
4.38317e-10
2.97631e-06
-1.36636e-05
-3.04405e-10
-5.70481e-06
4.2492e-10
3.49547e-06
5.68992e-06
2.09415e-10
-4.74015e-10
2.12636e-09
9.10523e-10
-1.71399e-10
-5.38379e-10
2.33098e-10
8.42647e-10
7.07434e-10
-5.78383e-11
1.44689e-06
1.7144e-10
1.06509e-05
1.14893e-09
7.86118e-10
-3.35569e-09
-4.59662e-09
-2.75671e-10
-3.91183e-10
-2.97128e-10
-9.88151e-10
-1.195e-11
-3.27863e-09
2.18345e-11
5.34576e-10
2.62148e-06
8.05952e-09
1.08481e-10
2.12722e-09
-2.11916e-10
1.60744e-10
-2.22775e-10
1.64394e-10
-9.44294e-11
-8.60124e-10
-4.73101e-08
-4.85001e-10
8.65196e-06
1.06118e-11
-1.2737e-05
3.48528e-10
1.10824e-10
-2.79687e-10
9.23702e-10
-3.07925e-10
-4.02403e-10
2.24504e-10
5.63344e-10
1.05382e-10
-1.05124e-05
-1.81764e-09
-1.91817e-05
3.11893e-06
-1.39911e-10
8.07733e-10
-3.45865e-05
-5.08114e-10
-2.52496e-09
1.93618e-07
-3.24425e-05
7.28583e-10
-1.17187e-05
2.82683e-06
6.973e-10
1.00173e-05
2.56379e-06
4.24077e-10
-8.96248e-10
3.57272e-09
-6.91586e-10
6.90735e-10
-1.9034e-09
8.81143e-06
1.25804e-10
4.00147e-10
4.27689e-10
5.61164e-10
1.34639e-09
9.8998e-10
-2.47531e-10
-4.33568e-06
-2.52587e-10
3.12942e-06
-3.45452e-10
-7.13599e-06
-1.22734e-05
7.11415e-06
-6.46028e-10
-5.6738e-10
8.77873e-11
3.43911e-06
-3.30346e-10
9.35556e-10
6.035e-06
1.39817e-06
5.35372e-11
8.20204e-10
-1.40729e-09
7.08691e-10
-9.9694e-11
-1.6067e-06
-7.61042e-10
5.67133e-06
5.48121e-06
-1.20928e-09
-2.32831e-06
-3.48572e-10
-4.5632e-10
-3e-12
-8.65384e-09
2.08536e-10
-1.52285e-06
-2.67003e-09
3.29483e-10
8.7427e-11
-1.33773e-08
1.23777e-09
1.23802e-10
-8.72627e-09
-1.13109e-09
-2.42076e-06
6.47344e-10
-8.75556e-09
6.29794e-12
-8.82506e-08
5.51448e-09
-8.26049e-06
4.12201e-06
-2.94001e-10
2.89852e-06
6.72406e-09
-5.7151e-10
3.02281e-10
-3.60886e-11
1.55976e-09
-2.38971e-10
2.40767e-09
-1.06714e-09
-4.30602e-10
-9.17648e-11
-6.13672e-10
-1.32203e-05
9.21279e-09
1.31667e-09
2.34847e-09
-3.21274e-05
2.25221e-11
-4.70854e-10
7.47801e-10
-1.06245e-10
3.1017e-06
1.36711e-11
-7.6458e-12
1.28582e-08
1.30371e-10
-2.17149e-09
-3.26546e-05
3.37499e-06
-1.95447e-10
3.03133e-06
-1.82587e-09
1.82034e-09
-2.29855e-11
-2.98678e-10
-1.15257e-08
-4.43014e-11
-6.59503e-10
-1.16523e-09
1.3368e-05
4.93683e-10
1.15501e-09
7.7153e-10
-2.39994e-11
9.44869e-06
-1.15768e-11
3.1007e-10
-1.09794e-09
6.97799e-11
-3.37335e-05
-5.09469e-10
-4.53292e-10
1.59123e-05
-3.71114e-10
3.61494e-06
-1.67605e-09
-2.75763e-10
2.60541e-10
1.54115e-07
-1.1885e-05
1.01858e-09
1.37622e-10
-7.17859e-10
-2.71121e-09
2.20669e-10
8.40392e-10
-2.02066e-06
-1.94578e-05
2.24921e-06
2.66776e-06
-5.26552e-09
2.59144e-10
-5.60874e-06
-2.66694e-10
-5.64659e-08
3.21347e-10
-1.15911e-09
-4.65693e-10
-2.05747e-10
1.17793e-10
-6.11779e-10
-6.34981e-09
-1.4472e-10
1.11554e-05
-3.22622e-10
4.32365e-10
1.16819e-09
-1.96573e-10
3.82138e-10
2.55255e-06
9.18428e-10
5.21479e-10
6.31873e-10
1.12834e-10
4.19349e-10
2.01155e-11
5.65716e-11
-1.39514e-10
1.07309e-05
1.29458e-05
1.33713e-09
-6.19922e-11
-1.07767e-09
-7.92345e-10
-2.76993e-10
-3.22595e-10
8.77134e-10
-6.8721e-10
-2.11704e-09
1.46759e-10
2.78895e-09
3.78626e-06
3.70618e-10
7.44542e-11
1.06571e-09
1.89927e-06
-7.75984e-08
1.90605e-10
1.91144e-11
-1.68724e-10
1.03841e-09
3.87492e-06
1.49475e-05
1.66556e-05
-9.68304e-06
-2.17479e-10
-9.11819e-10
5.71452e-10
-4.24477e-10
2.21923e-09
-3.8713e-10
5.21794e-10
3.98656e-06
-7.34207e-11
2.73134e-10
-2.05341e-05
3.49682e-06
4.43287e-10
2.71399e-10
1.34118e-09
-1.04153e-10
1.27211e-09
-2.8686e-06
-1.39999e-09
-9.54847e-11
-1.7927e-09
-4.56279e-10
-1.07586e-10
-1.10372e-05
-3.82268e-10
1.19883e-05
1.04262e-05
1.07791e-06
1.27653e-09
-8.5825e-10
-1.21558e-09
-1.18335e-09
1.31277e-05
-1.38594e-10
-4.18049e-05
5.96293e-10
-1.25168e-11
3.87611e-06
2.25163e-10
-7.4635e-10
4.8654e-09
3.34654e-11
-1.90815e-10
-2.19658e-06
-1.43979e-06
6.00637e-11
-2.16719e-10
-3.8774e-06
2.66896e-09
7.12779e-12
6.2239e-10
2.02935e-09
9.04081e-07
6.52183e-10
2.30201e-09
-2.67905e-10
3.56943e-10
1.78253e-09
5.97624e-10
-6.1376e-10
7.12644e-07
-8.12496e-10
-6.24916e-10
-4.2691e-10
1.23888e-05
4.22367e-07
-3.10884e-05
1.52015e-05
-1.52349e-10
8.84216e-07
3.14551e-06
-6.20466e-10
-2.90215e-10
-2.7135e-10
-2.26891e-11
1.2692e-09
-5.22941e-09
6.84455e-10
-3.42097e-10
8.03215e-10
3.9482e-10
4.49138e-10
-5.77979e-10
-1.10009e-09
-7.1086e-10
-1.47082e-09
8.5159e-06
-4.43841e-10
-9.25191e-06
-1.61349e-10
1.6915e-09
3.34707e-10
-8.81359e-10
3.24172e-06
1.75187e-09
-1.73858e-10
-4.90743e-06
3.25473e-09
2.3501e-09
-3.21195e-10
4.13966e-10
-2.39459e-11
8.66961e-10
4.19689e-10
-1.66739e-09
5.1834e-08
2.53568e-07
-1.28937e-05
2.76817e-10
-5.64574e-09
1.28939e-05
3.71456e-11
-1.15039e-09
2.08381e-09
-1.29337e-10
-6.41165e-11
5.98955e-06
9.80367e-06
1.03928e-05
9.07529e-09
-1.61253e-10
4.34889e-09
-9.85923e-10
1.66013e-10
2.05855e-10
-1.04708e-09
6.83995e-10
2.65989e-10
-2.93482e-05
-1.26391e-08
-9.31298e-06
5.62216e-08
-4.03316e-08
1.40944e-09
-3.67429e-06
1.88895e-09
-2.62892e-05
1.19133e-10
8.35832e-09
-2.87523e-05
1.18407e-07
6.23327e-10
-4.02327e-06
1.63587e-10
-1.42291e-08
9.94271e-13
-1.56992e-09
-3.78507e-10
-1.97166e-09
1.79573e-09
-3.36142e-12
-1.40735e-09
4.91549e-11
-1.61119e-10
2.11834e-10
9.47777e-10
1.20701e-10
-4.81569e-10
-1.31188e-09
6.06207e-06
-8.87071e-10
2.7759e-10
1.2009e-09
-2.25541e-11
2.94059e-06
-2.26276e-10
-2.76342e-05
1.81457e-06
-1.37801e-08
-1.40636e-05
2.64003e-09
2.9312e-09
2.38028e-10
-4.80139e-10
-9.48679e-06
2.3351e-10
-1.12029e-09
3.85011e-10
-2.17307e-05
1.39603e-05
3.65049e-06
-1.43832e-09
-6.02516e-09
-3.42951e-10
2.74569e-10
5.29737e-06
-2.01464e-08
-3.26416e-11
-1.19073e-09
-6.19765e-10
1.28597e-10
3.79359e-09
-9.55028e-11
2.34882e-10
1.75127e-10
2.9407e-11
-3.73626e-10
6.17786e-06
-2.07917e-09
2.13895e-06
4.94393e-06
-1.11271e-09
3.54448e-06
-6.7184e-10
-1.21998e-05
-1.58221e-10
-1.18964e-09
-3.03999e-11
-4.26424e-09
-9.87307e-10
-6.66433e-10
-2.61063e-06
-1.21352e-05
-5.15644e-11
2.83043e-09
-1.65251e-10
-1.92184e-10
8.98041e-06
-2.18877e-09
7.17924e-10
1.62558e-09
4.51213e-10
6.70858e-11
1.75846e-09
2.61243e-10
2.07017e-10
2.7899e-09
-5.18567e-08
2.82265e-08
-3.21474e-08
-3.43348e-06
-2.58944e-10
1.3112e-08
-1.99877e-09
-1.23807e-09
8.42389e-10
-8.25312e-10
-5.58932e-10
-5.12225e-10
-5.15598e-06
-1.30008e-10
6.92437e-10
-1.91955e-10
1.83746e-10
1.08906e-09
4.94264e-10
2.7394e-09
1.13458e-10
7.50443e-06
-1.12735e-09
-1.01995e-09
3.32213e-10
4.43889e-09
-1.23139e-09
-4.04611e-10
-6.67298e-11
-9.19786e-06
5.51503e-11
-3.608e-10
-2.34297e-05
2.90867e-10
-5.90373e-10
-3.92651e-06
-1.33989e-09
8.35613e-06
-2.08842e-08
-1.43545e-10
5.21281e-06
-2.56701e-10
-2.80255e-08
1.01772e-09
-5.01167e-10
-3.00849e-10
-5.02356e-10
-3.22334e-09
6.25816e-12
3.91924e-06
1.83301e-06
1.09326e-09
-2.66072e-10
9.76144e-10
1.57432e-09
-1.52831e-08
4.78166e-10
1.29864e-09
2.97698e-09
1.21077e-05
1.75472e-10
-1.26908e-09
8.05279e-10
-4.95805e-10
-2.80082e-08
-1.92493e-10
-1.75682e-09
1.14949e-09
-2.35087e-09
-7.79182e-10
-1.71086e-06
1.16594e-05
5.44183e-10
2.85743e-09
-1.60729e-10
-4.55485e-10
4.60583e-06
-7.45231e-10
-1.01701e-05
-6.34017e-08
1.02059e-09
-2.29234e-10
8.02444e-10
-1.06483e-09
-3.83911e-05
4.20734e-07
-2.73892e-09
-7.47387e-06
-4.68074e-10
-2.67192e-09
7.32443e-09
1.05782e-09
2.33466e-10
9.97269e-10
-4.01105e-10
1.29695e-09
-3.14222e-05
-1.12863e-09
6.00455e-11
2.56677e-09
1.30942e-09
-1.77083e-09
1.50805e-09
3.11441e-06
1.27423e-07
-1.09198e-08
5.44765e-10
1.93486e-10
2.99355e-06
-2.02779e-10
-3.92072e-05
3.19191e-06
1.8773e-06
-9.94598e-06
-5.57263e-09
-4.8809e-11
-1.64956e-09
-2.03876e-08
-5.3023e-10
1.31247e-10
-4.42424e-08
-1.13944e-08
-4.12979e-10
5.77199e-06
6.32893e-11
-2.75837e-10
-1.41555e-10
1.72153e-09
-1.89474e-06
-5.94364e-10
1.35649e-10
2.69285e-06
-3.3308e-06
-5.06737e-12
3.83406e-06
2.83857e-06
1.10629e-05
4.08642e-06
1.17482e-09
2.60389e-10
-1.37211e-05
1.49361e-09
-1.34456e-09
-3.34895e-09
1.04964e-05
-3.05556e-11
-7.6152e-11
-5.84321e-10
1.31352e-09
-1.45348e-09
7.36705e-06
8.13025e-11
1.45248e-05
-2.07916e-10
2.97053e-06
5.29748e-10
3.0341e-06
2.10765e-09
8.11804e-10
-6.22781e-11
1.36571e-09
1.24461e-05
6.16946e-07
-8.23199e-10
4.95708e-06
-7.89192e-10
-4.26699e-09
3.64229e-11
1.05788e-09
2.86016e-06
1.25992e-08
-2.949e-06
6.98415e-06
3.31777e-11
-9.78855e-10
-4.03785e-10
2.1592e-09
2.76766e-06
1.52686e-10
-3.33416e-10
-7.17011e-10
-3.34502e-09
7.95949e-11
-4.73942e-10
-1.25396e-11
-3.58197e-05
3.38632e-06
-4.48092e-12
1.31372e-09
-4.06156e-09
1.71851e-05
-3.69476e-05
-7.86086e-11
-1.04107e-09
-1.79202e-05
-1.78144e-06
8.78038e-10
3.33669e-10
3.91616e-10
1.54375e-05
-1.02458e-09
-5.30338e-08
2.18287e-11
-1.04708e-09
3.02585e-09
1.15836e-10
1.11586e-11
-5.93054e-10
1.54513e-09
1.15103e-05
-1.52215e-09
-1.66555e-05
8.76972e-10
-1.11123e-09
-3.05307e-05
-2.5572e-10
3.42413e-10
-2.01797e-09
1.56824e-09
-2.18452e-10
-9.83162e-11
-1.70201e-09
-3.08845e-06
6.01563e-06
1.58686e-09
1.70851e-11
-1.22233e-10
9.02533e-10
4.66389e-10
3.18001e-11
7.00035e-10
-1.43721e-10
2.43457e-10
-1.52913e-11
-2.56567e-10
-2.24806e-05
-2.89623e-11
2.62406e-06
-3.25042e-09
-5.49689e-10
-9.63364e-09
-1.84135e-09
-1.00749e-05
9.69324e-09
1.1699e-09
-4.14565e-05
-1.87886e-11
6.08399e-11
-1.06189e-09
5.84077e-10
-2.66008e-10
1.79196e-09
4.35437e-10
-6.79384e-09
-7.90427e-10
1.5373e-10
6.35352e-10
-5.24547e-09
-5.42176e-10
1.72699e-08
-3.48456e-09
-6.6305e-10
-2.75435e-08
-3.06328e-09
-6.66951e-10
-1.25239e-09
5.05877e-06
1.31776e-09
4.93761e-09
1.54431e-09
-2.24651e-09
-1.44984e-10
-1.15679e-08
2.4475e-10
5.3569e-11
-1.95857e-09
-1.6275e-09
1.97582e-06
-1.57121e-05
4.90522e-10
4.36455e-06
5.06529e-10
-2.95787e-10
-7.14975e-10
-1.61785e-10
1.55799e-07
6.81384e-10
1.31872e-10
-1.34928e-05
-3.19374e-06
6.55937e-10
4.4949e-11
2.0918e-10
-1.48588e-09
-5.83242e-11
7.5899e-09
-1.49891e-09
-5.53927e-10
5.629e-10
5.75993e-11
-2.6481e-05
1.37758e-08
-8.42187e-10
1.39936e-05
8.9266e-11
-1.58751e-08
1.25196e-06
-5.65782e-10
-1.13475e-09
2.73006e-06
9.91528e-10
-4.06341e-10
8.02083e-06
-6.13903e-06
-6.35745e-10
5.15172e-10
9.82892e-10
-1.36337e-09
9.26938e-07
-6.06136e-10
-1.1013e-09
3.5711e-07
-1.2873e-10
-1.56827e-10
4.88462e-05
4.91922e-10
1.17568e-07
2.17324e-10
5.85056e-10
-2.1816e-08
4.40969e-10
-2.48134e-10
5.14131e-11
2.91109e-10
7.6091e-10
6.9244e-07
-5.69448e-12
-3.37016e-11
-7.85442e-09
7.71172e-06
-1.47245e-05
5.33078e-11
2.39263e-07
-3.07226e-08
-1.99236e-05
2.47774e-06
-3.33071e-06
-5.4948e-10
3.08706e-10
-9.93833e-09
-4.45159e-10
-6.11901e-10
-1.66977e-09
1.09303e-10
3.38821e-06
-3.80985e-09
-1.16168e-09
-1.27185e-09
-1.00195e-06
5.68422e-06
-4.78469e-06
-2.8167e-09
-2.54675e-05
-1.12512e-09
-1.54041e-09
-7.00474e-10
2.01491e-06
-6.57439e-09
-5.64169e-10
2.86747e-09
-4.19739e-11
2.60391e-06
4.31887e-10
7.44297e-06
-7.7314e-07
-1.09746e-08
9.67784e-10
2.07618e-09
-3.95843e-09
-4.26035e-09
7.32009e-12
-1.01737e-09
-7.08796e-11
1.41083e-09
1.17101e-09
-3.09248e-10
-3.65838e-08
6.83105e-11
-1.6201e-09
4.82293e-07
-4.07862e-12
-8.47606e-10
-1.78891e-10
5.45054e-05
-1.26593e-08
1.29973e-10
1.4382e-10
4.99208e-10
2.44636e-09
-3.17509e-10
2.86426e-06
-6.07951e-10
1.84184e-06
1.40408e-09
1.53481e-09
-2.22056e-09
1.88422e-10
-5.22251e-10
6.15926e-06
8.50932e-09
2.13325e-10
3.2887e-08
2.73759e-06
2.8683e-08
5.73926e-11
-2.76066e-05
3.02841e-09
-1.44626e-05
3.25222e-06
-2.87079e-10
-7.278e-10
-1.56919e-05
8.43009e-11
-5.67037e-06
7.66836e-11
-1.14812e-05
2.70484e-10
-6.77783e-10
-6.37338e-09
-4.09695e-10
2.76691e-06
-2.26781e-11
-3.1892e-10
2.01046e-06
-1.95034e-09
-2.21756e-10
-5.37016e-11
3.81606e-10
4.71683e-06
-5.40601e-09
2.21041e-10
-5.48445e-06
-2.08736e-10
1.86914e-06
2.32974e-09
1.88883e-10
-5.54041e-10
9.59036e-06
-1.48281e-05
-1.30015e-09
1.95171e-10
9.55249e-10
7.66112e-10
1.16016e-09
5.3493e-10
-1.36677e-09
-2.1117e-06
3.19109e-10
-1.1414e-09
-1.54356e-08
3.35014e-09
-2.62545e-08
6.72342e-09
-3.68215e-05
4.28712e-09
-1.40863e-09