/*--------------------------------*- C++ -*----------------------------------*\
| =========                 |                                                 |
| \\      /  F ield         | OpenFOAM: The Open Source CFD Toolbox           |
|  \\    /   O peration     | Version:  v2012                                 |
|   \\  /    A nd           | Website:  www.openfoam.com                      |
|    \\/     M anipulation  |                                                 |
\*---------------------------------------------------------------------------*/
FoamFile
{
    version     2.0;
    format      ascii;
    class       volVectorField;
    location    "300";
    object      ddtCorrDdt0(U);
}
// * * * * * * * * * * * * * * * * * * * * * * * * * * * * * * * * * * * * * //

dimensions      [0 1 -2 0 0 0 0];


internalField   nonuniform List<vector> 
18618
(
(7.23906e-06 -1.56417e-06 -3.55984e-25)
(8.75412e-05 6.18319e-05 0)
(-2.98503e-06 2.96294e-06 -1.48073e-21)
(2.39602e-06 1.19406e-05 -4.67381e-22)
(5.6538e-06 -1.69334e-06 -9.3291e-22)
(2.74718e-06 1.43692e-05 3.50098e-22)
(2.83239e-05 1.00777e-05 6.03745e-23)
(-4.45857e-06 5.11058e-06 0)
(0.000192752 6.34708e-06 0)
(0.000217441 -0.000266084 -6.72042e-22)
(5.38532e-06 -1.87446e-06 0)
(7.18689e-06 1.72394e-06 3.33362e-22)
(1.91065e-06 -1.6391e-07 4.81579e-22)
(7.62711e-06 -4.22748e-07 1.34916e-21)
(3.4521e-06 1.41204e-06 3.69773e-22)
(2.20593e-06 1.73248e-05 -4.93219e-23)
(-4.99144e-06 5.56346e-06 -1.62312e-22)
(7.09386e-06 -9.26501e-07 -1.01565e-21)
(4.5129e-06 2.20858e-06 0)
(8.85206e-05 2.23662e-05 4.00921e-22)
(3.14303e-06 1.74097e-06 0)
(0.000265536 2.87273e-05 -8.43778e-23)
(3.19347e-06 2.22606e-06 0)
(7.02696e-06 1.89898e-06 -7.63645e-22)
(5.62998e-05 -3.12671e-05 0)
(0.000193605 1.48243e-05 -3.80311e-22)
(4.05575e-05 1.05818e-06 0)
(0.000411478 0.000133874 -7.71736e-22)
(6.54008e-05 1.51969e-05 -5.12074e-22)
(-2.76136e-06 2.85699e-06 1.37651e-21)
(1.24031e-05 -4.31261e-06 -9.13326e-22)
(6.30543e-06 -8.63221e-06 6.32531e-22)
(-6.42767e-05 -0.000323671 -3.68435e-22)
(2.88098e-06 -2.20351e-08 4.36128e-22)
(1.04039e-05 1.60222e-05 6.91238e-22)
(0.000125141 3.25155e-05 0)
(3.98271e-07 -6.69238e-07 4.54428e-22)
(0.000326275 -0.0002292 8.66693e-22)
(-5.62233e-06 9.11233e-06 4.69608e-23)
(3.08489e-06 2.31436e-06 9.08052e-22)
(0.00034694 2.88029e-05 2.42311e-22)
(0.00023098 2.90669e-05 -9.29755e-24)
(0.000114729 -3.64256e-05 -6.35054e-22)
(0.000360851 6.87809e-05 2.68481e-22)
(3.54574e-05 -4.07232e-05 -4.23702e-22)
(1.52895e-05 2.20671e-05 -4.48967e-22)
(-2.3984e-05 -8.24742e-06 0)
(3.1886e-05 1.50578e-06 1.16947e-21)
(5.66278e-05 7.10234e-06 1.10881e-22)
(0.00014277 -0.000107973 1.12723e-21)
(4.13042e-05 -5.59401e-07 4.06621e-22)
(2.85931e-06 -8.44339e-06 0)
(4.32748e-05 -4.25334e-06 7.75203e-22)
(5.82115e-05 1.70741e-05 0)
(1.5816e-05 0.000102165 -9.04445e-23)
(0.000318818 -0.00023378 0)
(4.56456e-05 9.59728e-07 0)
(0.000166851 -0.000197489 2.53964e-22)
(0.00034798 2.80302e-05 -2.1086e-22)
(0.000368898 -0.000132658 0)
(0.000172947 3.29232e-05 -7.27069e-22)
(5.66728e-05 2.42384e-05 8.75311e-23)
(5.59207e-05 7.02358e-06 9.09843e-23)
(1.93701e-06 7.86372e-07 0)
(1.89909e-05 6.30864e-06 0)
(4.78724e-05 1.22985e-05 -1.64927e-22)
(0.000359837 -0.000143054 0)
(3.53551e-05 -4.92838e-05 4.17527e-22)
(1.73997e-06 -1.80148e-07 9.92753e-22)
(0.000343396 2.6725e-05 1.58128e-22)
(0.000174487 -6.84786e-05 2.51112e-22)
(4.32111e-06 2.32982e-06 -1.90465e-22)
(6.774e-07 6.53043e-06 8.34927e-22)
(0.00015923 6.39517e-05 0)
(1.69008e-05 3.89551e-06 0)
(0.000135531 3.49628e-05 0)
(6.78894e-07 3.59884e-06 0)
(4.73848e-06 8.2786e-06 9.00542e-22)
(1.69685e-06 -3.57393e-07 -1.77722e-21)
(4.60053e-05 1.19048e-05 9.14892e-23)
(2.70925e-06 -3.90356e-05 3.95531e-22)
(2.78116e-06 -1.45253e-07 -8.66071e-22)
(9.24061e-07 1.34557e-05 -5.56967e-22)
(1.63277e-05 -1.02121e-06 -7.29298e-22)
(0.000279121 2.8402e-05 9.35141e-23)
(6.01694e-07 -1.29524e-06 0)
(2.59748e-05 1.58149e-05 -7.72989e-23)
(0.000345883 2.80701e-05 -1.40547e-22)
(5.26668e-05 2.45672e-05 -4.50188e-23)
(0.00021378 0.000257735 -5.35208e-22)
(2.15549e-06 -3.54761e-06 0)
(0.000164005 3.63102e-05 6.32055e-22)
(0.000308561 -0.00010765 0)
(2.17691e-06 2.35891e-06 9.05658e-22)
(9.56956e-05 2.89784e-05 -6.89711e-22)
(6.02826e-05 2.36237e-05 0)
(1.22605e-05 -3.21303e-06 0)
(0.000232892 -4.93095e-05 -6.43329e-22)
(2.01579e-06 1.86774e-07 0)
(-1.88259e-07 -2.30211e-05 0)
(0.000152855 -0.000115159 -1.00536e-21)
(0.00109601 0.000732611 0)
(5.80934e-06 -8.55935e-06 0)
(0.000304281 -0.000104598 3.60996e-22)
(6.56497e-05 1.26607e-05 -4.00428e-22)
(0.000119791 1.38656e-05 4.42892e-22)
(3.92922e-05 -3.07404e-05 5.86033e-22)
(2.57062e-06 -5.01511e-08 6.31958e-26)
(6.0535e-05 2.37681e-05 1.88817e-22)
(4.05212e-05 1.99525e-05 -8.48123e-23)
(0.000345059 3.4671e-05 1.70165e-22)
(-8.94778e-05 -6.13047e-05 0)
(-2.14808e-05 -8.47252e-06 0)
(0.000246178 4.52215e-05 -2.93769e-22)
(3.06214e-06 7.51151e-06 -3.76341e-22)
(2.87437e-06 2.57043e-06 2.77798e-22)
(3.07291e-05 9.70841e-06 2.22184e-23)
(2.6054e-06 1.23215e-05 0)
(4.3563e-05 -4.89564e-06 2.62628e-22)
(-4.81951e-06 -1.53538e-06 0)
(2.16002e-06 1.60723e-05 9.22899e-22)
(4.97271e-06 -1.21431e-05 -4.83268e-22)
(2.77921e-06 -4.55024e-05 4.78319e-22)
(3.45448e-06 1.44414e-05 0)
(9.79668e-05 -3.31729e-06 -6.7829e-22)
(6.6474e-05 1.84938e-05 1.07512e-22)
(2.53764e-05 -1.82065e-05 0)
(1.46609e-05 2.43592e-06 0)
(2.66915e-05 5.41198e-06 1.33172e-23)
(0.000196531 -0.000215679 -1.09845e-21)
(0.000222343 -3.83494e-06 0)
(0.00026082 -0.000172302 3.05861e-22)
(7.51885e-05 1.60139e-05 -1.08099e-22)
(4.39219e-05 5.76005e-07 -4.08059e-22)
(2.83671e-06 -2.24733e-06 -4.2057e-22)
(5.95622e-05 -9.50297e-05 6.13867e-22)
(1.77195e-06 1.68476e-06 -4.2068e-22)
(0.000339703 3.41314e-05 -7.2213e-23)
(0.000330484 -5.602e-06 1.85294e-23)
(6.07446e-06 2.69092e-06 0)
(6.41726e-05 1.91179e-05 -1.65585e-22)
(4.17831e-05 1.76473e-05 -8.1873e-23)
(1.71615e-06 -4.99463e-07 9.25882e-22)
(2.57792e-06 1.75933e-07 -5.66735e-25)
(-8.5757e-05 -5.53196e-05 3.61254e-22)
(2.93168e-06 7.20541e-06 7.61436e-22)
(2.51981e-06 8.12948e-07 -2.58475e-22)
(7.56275e-07 1.33107e-05 4.62044e-25)
(2.25378e-06 2.30054e-07 6.5357e-22)
(9.09717e-06 3.89768e-06 6.94197e-22)
(8.90419e-05 0.000107208 -1.8088e-24)
(5.91231e-06 -2.00046e-06 -2.39139e-22)
(-0.000112449 -0.000370869 -3.55867e-22)
(7.58573e-06 1.07612e-05 0)
(1.5807e-06 -4.30891e-05 -1.52725e-22)
(5.83738e-05 2.43526e-05 -1.58342e-22)
(1.83203e-05 -3.68802e-05 0)
(4.16516e-05 -8.0348e-06 -2.94013e-22)
(9.06473e-07 -6.93589e-06 0)
(0.000355939 0.000203586 -4.23074e-22)
(9.50329e-05 -9.97522e-06 8.71655e-22)
(3.16483e-05 3.65526e-07 2.77791e-22)
(0.000474367 5.62567e-05 6.69138e-22)
(2.99263e-05 0.000104443 -3.17981e-22)
(1.71485e-06 4.16724e-06 0)
(2.68195e-05 2.52011e-06 2.27379e-22)
(1.59042e-05 -5.8062e-07 1.47374e-22)
(0.000262922 3.08446e-05 -1.95202e-22)
(4.81202e-06 1.02921e-05 0)
(0.000240356 -5.19614e-05 7.93308e-22)
(-1.22106e-07 1.20018e-06 1.73675e-21)
(-8.3991e-05 -0.00031862 -7.51056e-22)
(5.12146e-05 1.23666e-05 -6.17484e-22)
(3.05285e-05 -6.4793e-06 7.69433e-22)
(0.000118522 -2.64855e-05 -1.00179e-22)
(6.22263e-07 1.12069e-05 -1.17964e-22)
(0.000115398 -1.14469e-05 -6.47974e-22)
(8.41102e-06 1.00052e-05 -3.91256e-22)
(9.34706e-07 1.04544e-08 3.06096e-22)
(4.23451e-05 -3.63887e-05 5.38334e-22)
(0.00011807 0.000103215 8.54423e-22)
(9.75425e-06 1.60827e-05 0)
(0.000441949 0.00013807 0)
(1.43878e-06 6.66986e-06 8.2266e-22)
(1.08291e-06 -1.35157e-07 7.68236e-22)
(3.48459e-05 8.02304e-06 -3.49713e-22)
(4.66672e-05 0.000103923 -3.00689e-22)
(0.000110439 5.09398e-05 0)
(2.12263e-05 1.24083e-05 7.57864e-23)
(7.41859e-06 -6.88583e-07 -5.83909e-22)
(2.00098e-06 2.79502e-06 -9.07442e-22)
(2.47176e-05 1.70871e-05 9.94104e-22)
(2.59751e-05 2.92264e-06 -2.16007e-22)
(-5.15238e-06 4.96317e-06 2.42247e-22)
(1.71105e-06 -2.96609e-07 0)
(0.00030063 -0.000206317 5.44581e-22)
(5.78974e-06 3.34588e-06 -4.25449e-22)
(1.24891e-05 -4.01368e-06 -5.69477e-23)
(2.06763e-06 -1.11485e-05 0)
(3.78446e-05 -4.17154e-05 7.92583e-22)
(6.97338e-05 2.16174e-05 1.84143e-23)
(0.000103831 9.18952e-05 0)
(0.000152935 3.33534e-05 0)
(5.46234e-06 -7.68208e-06 0)
(0.000109958 -1.62589e-05 -6.22593e-22)
(1.69917e-05 1.79749e-06 -8.70361e-23)
(4.38587e-05 2.21334e-05 6.53254e-22)
(0.00119256 0.000816719 6.80474e-22)
(1.49611e-06 4.9946e-08 1.21473e-21)
(2.80146e-06 3.08278e-06 6.4038e-23)
(1.94003e-05 1.27733e-06 0)
(2.66545e-05 4.62755e-06 1.55341e-22)
(1.63282e-05 -1.0287e-05 -6.16991e-22)
(2.50352e-06 6.04073e-07 0)
(8.8949e-06 -4.929e-06 -1.28907e-21)
(-2.26286e-08 6.55129e-06 3.19933e-22)
(0.000102227 -9.55234e-05 0)
(6.85211e-05 -2.4398e-05 1.68284e-22)
(2.96724e-06 1.44254e-05 -6.03443e-23)
(-5.17902e-06 -6.71926e-06 -7.35279e-22)
(9.00635e-06 3.23995e-06 0)
(3.60635e-06 -4.07232e-05 1.84104e-22)
(1.04721e-05 2.67625e-05 0)
(-7.38192e-09 8.19995e-06 0)
(0.000345941 2.84157e-05 -2.17183e-22)
(1.75366e-06 4.84476e-06 -1.03037e-25)
(4.67709e-06 -1.1654e-05 0)
(4.56334e-05 1.06901e-05 0)
(3.01004e-05 8.05067e-06 3.07523e-22)
(3.79882e-05 -5.05348e-05 -3.0569e-23)
(1.73335e-05 -1.52064e-07 1.11297e-21)
(4.40784e-05 -4.44788e-05 -2.5901e-22)
(2.3969e-06 -2.50986e-08 6.63019e-22)
(4.94759e-05 1.88193e-05 -8.24984e-22)
(4.253e-05 -3.52225e-05 0)
(1.50292e-06 -6.43986e-07 -7.73341e-22)
(9.20412e-07 4.41465e-06 8.36881e-22)
(0.00024589 -8.04956e-05 -6.76038e-22)
(0.000136177 2.42317e-05 7.53371e-22)
(-3.89335e-05 -6.75927e-06 -1.05435e-21)
(8.93837e-05 5.85204e-05 -2.95212e-22)
(2.16177e-06 -8.07018e-06 0)
(1.73993e-06 -7.67522e-07 3.74067e-22)
(-8.28535e-07 -1.95701e-05 -2.34471e-24)
(0.000171908 -0.000206477 0)
(3.57597e-05 -0.00046059 -1.07396e-22)
(0.000306263 -0.000209162 -2.57645e-22)
(1.47363e-06 -6.80726e-07 0)
(0.000343244 3.17825e-05 0)
(2.63289e-06 1.31897e-05 6.43223e-23)
(2.11726e-06 2.18691e-06 1.73627e-21)
(0.000241817 2.63245e-05 0)
(3.22847e-05 1.04994e-06 5.82168e-22)
(0.000268479 -0.000177872 8.79403e-22)
(7.91756e-05 -9.45481e-05 3.62566e-22)
(2.65394e-05 -1.78888e-05 0)
(0.000224653 -3.79344e-05 0)
(1.74456e-06 -3.78277e-08 1.50882e-25)
(3.10247e-06 1.07378e-06 8.05644e-22)
(-4.5414e-06 -7.57806e-06 -8.15505e-22)
(3.29859e-06 8.06155e-06 -5.04139e-26)
(9.96564e-05 -9.76438e-05 0)
(7.48586e-05 -2.87945e-05 -1.66351e-22)
(8.52528e-06 1.56785e-05 6.69103e-22)
(0.000255726 2.68821e-05 0)
(0.000317866 -0.000218145 0)
(0.000208802 -1.55379e-05 0)
(3.23773e-05 1.98137e-06 -2.95811e-22)
(5.57701e-05 1.49664e-05 4.07286e-22)
(1.93348e-05 2.07381e-05 5.14272e-22)
(4.66394e-05 1.10755e-05 3.42849e-22)
(1.72876e-06 1.09357e-06 -5.81882e-22)
(1.11129e-05 -1.27665e-05 0)
(3.32565e-06 8.27349e-06 -8.30634e-22)
(-8.13065e-08 2.35227e-06 -7.57794e-22)
(1.8649e-05 1.35764e-05 -5.95048e-22)
(6.04199e-05 -4.02937e-05 -6.21162e-22)
(1.09417e-05 1.93813e-07 3.95752e-22)
(-1.02983e-05 -7.04091e-07 4.09138e-22)
(6.75642e-06 2.41796e-05 6.05226e-22)
(1.77399e-06 2.29339e-06 0)
(0.000166537 -0.000152752 4.86078e-22)
(3.56795e-06 1.06347e-05 0)
(1.34955e-05 -6.82437e-06 0)
(-1.5036e-05 6.17445e-06 0)
(2.19703e-06 1.29013e-05 -1.56363e-23)
(1.59042e-06 -3.22014e-06 7.76402e-22)
(4.842e-05 1.63518e-05 4.93865e-22)
(9.75456e-05 -1.26741e-05 2.15734e-22)
(0.00018329 -5.23143e-05 1.21584e-21)
(1.37508e-06 8.02825e-06 -5.00869e-22)
(0.000133689 -6.24315e-05 5.53197e-23)
(2.57137e-06 1.09321e-05 -1.314e-21)
(-0.000105683 -0.000389234 0)
(0.000386816 -5.60239e-05 5.3108e-22)
(3.05283e-05 -8.43454e-06 -7.61053e-22)
(9.39509e-05 3.79394e-05 0)
(0.000171024 -0.000118483 0)
(0.000457952 5.16214e-05 -8.49157e-22)
(4.83956e-06 -7.79839e-06 -1.22327e-21)
(3.49645e-05 7.0498e-06 4.05171e-22)
(2.04628e-06 7.64097e-07 -3.05117e-22)
(4.81727e-05 -7.86962e-06 -6.11016e-22)
(1.63877e-05 2.11199e-06 7.50886e-23)
(1.46806e-06 -1.06987e-07 0)
(1.64407e-06 7.02607e-08 -1.0958e-21)
(6.58302e-06 6.19413e-06 -6.39976e-22)
(0.000196869 -2.16467e-05 0)
(4.67616e-05 1.29002e-05 7.52516e-22)
(2.10155e-05 -4.06756e-05 0)
(0.00024658 4.91713e-05 7.79591e-25)
(3.16606e-06 1.05215e-06 -4.72084e-22)
(0.000119531 4.66192e-05 4.84025e-22)
(6.97719e-08 7.83233e-06 0)
(9.70607e-07 6.65728e-06 5.4753e-23)
(5.6329e-06 4.14079e-06 2.14499e-22)
(1.30179e-05 -7.23363e-06 -4.19158e-22)
(-8.53166e-05 -0.000237129 2.55414e-24)
(0.000140261 -0.000206285 4.8007e-22)
(4.30861e-05 2.95334e-05 -1.27737e-23)
(2.52776e-06 4.82014e-07 1.59763e-21)
(0.000146015 9.94176e-05 -1.62319e-24)
(1.82949e-06 -1.62678e-06 0)
(0.000120045 8.81021e-05 4.53255e-23)
(1.33945e-06 8.44853e-06 -8.14049e-22)
(0.000310714 -0.000215033 1.34357e-21)
(6.48306e-05 9.97277e-05 2.68777e-22)
(5.721e-06 4.16154e-06 -1.14057e-21)
(-3.09485e-05 2.06242e-05 1.39544e-22)
(0.000440145 -8.0977e-05 5.30562e-22)
(3.79711e-05 -4.25895e-06 0)
(0.000402488 -6.30486e-05 -3.01411e-22)
(6.19698e-06 5.71563e-06 -1.11897e-25)
(8.29575e-07 5.85288e-06 -5.47894e-23)
(6.36725e-05 -9.40737e-05 -3.5957e-22)
(1.84866e-06 1.95326e-06 1.68359e-21)
(0.000393882 -0.000125745 1.07176e-21)
(1.65846e-05 -9.92242e-06 4.23392e-22)
(-3.63227e-05 -5.57185e-06 1.08236e-21)
(5.04695e-05 -6.73531e-05 -7.7275e-22)
(0.000138358 -7.46565e-05 -1.33778e-23)
(5.39568e-05 7.16326e-06 -1.97702e-22)
(0.000342031 -3.17379e-06 6.27805e-22)
(3.96023e-05 4.75613e-06 0)
(1.47012e-06 -4.40034e-07 0)
(7.99695e-05 -2.20796e-06 -1.86275e-22)
(2.25067e-05 -9.97803e-06 7.17143e-22)
(5.35412e-05 1.26698e-05 -1.97992e-22)
(0.000139555 -6.53085e-05 0)
(3.01469e-06 2.52882e-06 -9.04279e-22)
(1.04866e-06 -5.92173e-07 -7.45644e-22)
(3.21595e-06 8.23524e-06 -2.07892e-23)
(0.000193591 -0.000129978 0)
(1.84723e-06 -6.53133e-07 6.04079e-22)
(3.90451e-06 8.6882e-06 7.75036e-22)
(1.27341e-06 -6.31739e-08 0)
(1.8203e-06 -1.20663e-06 9.53963e-23)
(0.000141466 -7.0689e-05 4.74286e-22)
(3.34826e-06 1.46725e-05 5.31396e-22)
(1.00722e-05 -1.27722e-05 2.38133e-22)
(2.54439e-06 -1.02691e-06 -1.66097e-21)
(-1.27498e-05 7.80547e-06 -4.05038e-22)
(0.000240339 2.87281e-05 -4.10914e-23)
(0.000170284 -0.000225486 0)
(0.000142 -1.0151e-05 -9.4947e-22)
(0.000273091 2.67101e-05 5.42956e-24)
(1.74521e-06 -9.43829e-07 -5.36303e-22)
(4.1272e-07 6.16549e-06 -5.28074e-22)
(0.000204506 -0.000267592 -1.02419e-21)
(0.00025048 -7.4212e-05 8.73077e-22)
(1.96986e-06 -3.40332e-06 8.03286e-22)
(2.41657e-06 1.04389e-05 8.63978e-22)
(2.77426e-06 1.83868e-05 -3.09361e-22)
(3.93007e-05 -3.34249e-05 1.34517e-21)
(2.41506e-06 5.97798e-07 -1.62471e-21)
(5.40582e-06 8.2468e-06 -1.03874e-21)
(4.62843e-05 1.14842e-05 0)
(4.01841e-06 1.47444e-05 -4.88205e-24)
(1.61689e-06 2.08056e-06 0)
(6.36758e-05 -0.000742125 -6.46519e-24)
(3.86143e-05 3.18566e-06 0)
(-1.04874e-07 9.74296e-07 0)
(1.67245e-06 -3.525e-06 -4.05517e-22)
(-2.8053e-05 1.9778e-05 9.66212e-22)
(5.78327e-05 1.97133e-05 0)
(1.8884e-06 -1.30848e-06 0)
(4.57589e-05 3.51589e-06 0)
(0.00044078 -8.64527e-05 2.5386e-23)
(1.74768e-06 -3.19655e-07 -3.8063e-22)
(0.000169746 -0.000146436 0)
(7.76863e-06 1.0382e-05 9.64087e-22)
(1.67192e-06 -2.13466e-06 -1.12607e-21)
(8.71885e-05 0.00010714 3.82205e-22)
(0.000348507 3.25266e-05 2.16714e-22)
(1.18687e-06 -7.35769e-07 1.62608e-21)
(7.90587e-05 5.45715e-05 -7.56604e-22)
(0.000182388 3.72096e-05 -3.10174e-22)
(0.000171481 -0.000131274 0)
(1.34038e-06 -6.83576e-07 0)
(0.000191829 -3.35271e-05 3.93269e-22)
(2.21424e-06 1.0397e-05 2.26726e-22)
(-4.66733e-05 -0.000278189 -6.10045e-22)
(-2.20228e-05 -0.000116123 0)
(-6.82329e-06 8.38995e-06 0)
(2.02278e-06 -1.59075e-06 0)
(2.92662e-05 0.000100071 6.71913e-22)
(1.67652e-06 7.95043e-07 4.98603e-22)
(1.67597e-05 -8.56977e-07 -4.83783e-22)
(-7.34513e-05 -0.000233317 7.75107e-22)
(2.8571e-06 6.8953e-06 -8.29949e-22)
(-1.58317e-06 -6.79546e-06 -2.03578e-22)
(-5.04225e-08 4.43308e-07 0)
(2.06264e-06 -1.73481e-06 0)
(3.72598e-06 7.70944e-06 0)
(1.53758e-05 -7.77665e-07 -1.47047e-22)
(0.00015299 -0.000159826 0)
(2.98545e-06 1.28046e-06 9.37452e-22)
(-5.19214e-05 -8.90074e-06 1.34054e-21)
(4.24155e-05 -8.50298e-06 -3.09775e-22)
(4.12508e-05 -3.39704e-05 -6.35465e-22)
(2.67637e-06 2.80736e-06 0)
(7.32261e-05 2.05357e-05 0)
(-1.78701e-05 -0.000105363 -1.00404e-21)
(3.34347e-05 -4.19621e-05 4.54412e-22)
(1.8211e-06 -1.19687e-06 5.02293e-22)
(0.000370732 -4.18176e-05 -1.12436e-21)
(0.000157582 -0.000152782 -4.78723e-22)
(-7.77916e-05 -5.57063e-05 -3.89288e-22)
(0.00045925 -0.000242643 0)
(0.000159155 -0.000111747 0)
(1.75804e-06 -2.12094e-06 9.57506e-22)
(1.75113e-06 4.66897e-07 0)
(1.51457e-05 2.04346e-05 -9.7625e-22)
(1.7551e-06 5.9838e-07 0)
(1.0465e-06 -7.78731e-07 -3.33579e-22)
(2.11202e-05 2.0882e-05 -6.76567e-22)
(7.0114e-07 4.49731e-06 7.83134e-22)
(2.02669e-06 1.32729e-05 -9.79444e-22)
(5.06373e-05 3.93618e-05 -5.44456e-22)
(0.000118336 2.74635e-05 2.3683e-22)
(1.70726e-05 9.65449e-06 4.23879e-22)
(0.000456914 -0.000228377 -2.705e-22)
(7.19188e-07 1.15824e-05 1.62136e-22)
(3.66785e-05 -7.51611e-06 7.91885e-23)
(-1.52653e-05 6.64946e-06 3.56308e-22)
(9.60316e-05 -9.61052e-06 0)
(1.9779e-05 4.46764e-06 9.06932e-22)
(0.000400285 4.69613e-05 0)
(0.000134673 1.84141e-05 6.15283e-22)
(1.39235e-06 -1.16382e-06 0)
(2.6319e-05 3.95328e-06 -5.0418e-22)
(2.35621e-08 6.16314e-06 -6.58023e-22)
(0.000120061 -0.000661649 -5.42697e-22)
(3.48585e-05 1.77067e-06 -1.49967e-22)
(1.33532e-06 -4.68907e-07 -8.38565e-22)
(2.30304e-05 1.2132e-05 1.65214e-22)
(2.63378e-06 6.42505e-06 -8.11315e-26)
(8.65644e-07 -7.35738e-06 0)
(1.26064e-05 -7.80317e-06 2.4806e-22)
(0.00027811 2.489e-05 0)
(-7.11304e-06 1.10828e-05 -1.3525e-22)
(-3.38974e-05 -6.72773e-05 -9.90523e-22)
(4.35225e-05 6.36757e-05 6.38286e-22)
(1.33949e-06 -9.92444e-07 -8.14545e-22)
(4.08978e-05 6.90181e-06 0)
(1.17962e-05 -4.03697e-06 6.49675e-22)
(1.34912e-06 -2.51459e-07 0)
(-1.79535e-08 3.57868e-07 6.11657e-22)
(5.52422e-05 4.5246e-05 3.86846e-22)
(1.83174e-06 -1.51091e-06 5.84427e-22)
(-2.96994e-05 -6.79695e-05 7.88144e-22)
(4.15858e-05 -7.37556e-06 2.91803e-22)
(-7.46373e-05 -5.09059e-05 0)
(1.58089e-05 0.000109323 9.74058e-23)
(-5.57603e-06 -8.38972e-05 0)
(2.48823e-05 -9.14362e-06 -7.93221e-22)
(7.90129e-05 2.6683e-05 3.06132e-22)
(-4.48511e-05 -0.000126226 1.0628e-21)
(0.000229857 5.79448e-05 -6.03157e-22)
(3.75991e-05 -4.35071e-06 -3.5795e-22)
(7.72635e-05 5.00692e-05 7.13612e-22)
(3.39069e-06 1.42148e-05 -8.7621e-22)
(6.37381e-05 -7.60383e-05 2.69273e-22)
(-6.11764e-05 4.16555e-05 -6.72794e-22)
(9.67472e-05 6.00211e-06 -5.7444e-22)
(2.08393e-06 1.31261e-05 0)
(4.0179e-05 5.78354e-06 -1.13597e-22)
(7.31411e-06 -2.75201e-05 1.40771e-21)
(4.64235e-05 2.47819e-09 0)
(4.38326e-05 -5.03883e-05 4.89032e-22)
(0.000218199 7.15768e-06 -1.68111e-22)
(0.00038873 -4.87184e-05 1.21278e-21)
(8.75409e-06 -4.55622e-06 6.21027e-22)
(8.07045e-07 7.08584e-06 0)
(0.000367446 -6.61385e-06 0)
(6.28503e-05 -6.19231e-05 1.08161e-22)
(0.000188697 1.87078e-05 2.37983e-24)
(0.000244147 4.48303e-05 8.50934e-22)
(1.94541e-06 1.48699e-05 1.25117e-21)
(6.75946e-07 8.37123e-06 8.28419e-22)
(1.91926e-07 1.23985e-06 1.25768e-21)
(3.13445e-06 -2.42565e-06 6.97466e-22)
(0.000383989 -0.00013743 -1.08832e-21)
(1.34676e-06 -1.04237e-06 0)
(-2.01725e-05 -0.000122842 2.37292e-22)
(5.36518e-05 1.44103e-05 4.14995e-22)
(1.7543e-05 6.66278e-07 0)
(1.96124e-05 5.4121e-06 -9.68541e-22)
(0.000191842 5.76775e-05 1.71073e-22)
(8.7675e-05 -1.3086e-05 -8.45518e-22)
(0.000148811 3.0347e-05 0)
(2.40376e-06 -1.48176e-06 6.89205e-22)
(-4.87261e-05 -0.000129759 -1.52747e-21)
(-3.26855e-05 -0.000124452 2.68805e-22)
(8.28304e-05 -1.9833e-06 -3.77933e-22)
(1.72226e-06 2.03327e-06 -8.47329e-22)
(-3.80429e-05 3.51101e-05 -7.4134e-23)
(7.45634e-07 7.67513e-06 0)
(4.14535e-05 -6.483e-06 6.93803e-23)
(0.000123415 -1.12992e-05 0)
(-2.32755e-06 -5.87537e-06 0)
(1.89969e-06 1.97904e-06 0)
(0.000292876 -0.00021507 -4.47935e-22)
(7.15017e-05 1.61577e-06 -7.80738e-22)
(-6.03651e-06 4.34107e-06 6.93183e-22)
(1.34813e-06 -7.33385e-07 8.23112e-22)
(0.000275193 1.72509e-06 -4.99041e-22)
(1.32348e-06 -2.48059e-06 0)
(-7.73393e-06 -3.47456e-06 2.16227e-22)
(1.54591e-06 1.57642e-06 0)
(0.000205168 -0.00014658 -1.13821e-22)
(0.000484393 0.000256927 0)
(1.68891e-05 1.05828e-06 0)
(2.55257e-05 4.37043e-06 1.33368e-21)
(0.000170886 -0.000132577 0)
(4.49618e-07 4.79697e-06 5.91169e-22)
(0.000189598 3.11593e-05 0)
(1.10568e-07 5.42595e-07 -1.33472e-21)
(2.59381e-06 -1.40381e-06 -9.53777e-22)
(5.23016e-06 -7.92973e-06 6.37372e-22)
(0.00010891 -0.000133721 7.36473e-22)
(8.24053e-06 1.61363e-05 -1.01183e-21)
(0.000106802 -0.000740413 -2.95252e-22)
(4.66335e-05 1.50141e-05 -4.45764e-22)
(1.79665e-06 -1.71915e-06 -2.444e-22)
(1.90656e-06 8.10917e-07 4.1261e-22)
(0.000214561 7.12687e-05 0)
(3.02379e-05 2.34955e-05 -2.3622e-23)
(2.90416e-06 3.03304e-06 -5.90108e-22)
(3.37202e-06 1.02577e-05 0)
(1.88438e-06 2.03803e-06 0)
(0.000192743 -7.57658e-05 -5.54616e-22)
(8.55376e-05 -6.71898e-06 0)
(5.46823e-07 -9.61214e-07 0)
(3.07332e-05 7.58425e-06 -7.17867e-22)
(1.58243e-06 -1.54995e-06 7.60546e-22)
(0.000246753 1.78597e-05 7.03219e-22)
(1.36865e-06 -1.12956e-06 7.20088e-22)
(3.60492e-05 -1.13214e-05 -2.81154e-22)
(0.000169238 -0.000127222 -6.22453e-22)
(0.00034229 -1.59316e-05 2.86189e-22)
(-3.35706e-05 -7.70599e-06 1.02333e-21)
(0.000397457 5.21354e-05 0)
(1.98075e-05 5.49797e-06 -1.37952e-24)
(3.98403e-06 7.37659e-06 1.98672e-22)
(0.000273369 -0.000348423 -5.09633e-22)
(1.62543e-05 0.000106423 2.70992e-22)
(5.77015e-06 7.95448e-07 0)
(5.24925e-05 1.5022e-05 -4.23684e-22)
(6.5392e-06 5.96331e-06 4.53845e-22)
(1.35985e-06 -2.22055e-07 0)
(-1.23173e-05 1.01769e-05 0)
(5.67549e-07 7.09159e-07 1.37961e-21)
(7.89887e-05 9.70139e-05 4.09427e-22)
(0.000210866 4.35251e-05 -1.02292e-21)
(0.000132097 -2.09891e-05 0)
(3.24783e-05 2.6889e-05 2.58261e-23)
(3.74037e-05 -2.17921e-06 -1.99168e-22)
(0.000162607 6.98429e-05 4.464e-22)
(6.89274e-07 1.83166e-06 0)
(3.71357e-05 -8.18472e-06 2.70381e-22)
(1.79772e-05 9.84721e-06 8.44407e-22)
(5.86006e-05 -3.82839e-05 0)
(1.94861e-06 1.43522e-06 -4.77293e-22)
(2.9594e-07 -2.13774e-06 -6.67713e-22)
(7.60997e-07 2.00775e-06 0)
(1.86858e-06 1.29647e-07 -4.69411e-22)
(1.78842e-06 -8.83207e-07 0)
(0.000330407 0.000292349 5.09285e-22)
(5.52149e-05 6.69596e-05 7.82317e-22)
(1.37106e-06 1.17805e-06 0)
(2.52534e-06 -1.14909e-06 1.27454e-21)
(9.00262e-06 -4.95e-06 5.78068e-22)
(4.07624e-07 1.41154e-07 5.78814e-22)
(1.298e-05 -7.62398e-06 1.56098e-21)
(3.82249e-05 -7.97901e-06 7.28267e-22)
(2.75177e-05 6.09362e-06 0)
(8.45867e-05 -8.94864e-05 1.34695e-22)
(4.24899e-05 8.7384e-06 4.90679e-23)
(2.81445e-06 1.17953e-06 9.0523e-22)
(1.78947e-06 -2.35756e-06 0)
(0.000312331 -0.000216956 -7.78927e-22)
(4.31908e-05 1.26255e-06 4.40329e-22)
(9.25762e-06 2.37631e-06 7.62171e-22)
(3.33155e-06 8.54681e-06 0)
(3.82181e-05 -3.71746e-06 6.57719e-22)
(1.37808e-06 -2.26e-07 0)
(-2.60721e-05 2.12642e-05 -1.30339e-21)
(1.1376e-06 1.71607e-08 -3.57382e-22)
(3.40705e-05 1.92261e-06 2.56827e-22)
(0.000848445 -0.000127606 5.1916e-22)
(3.18148e-05 2.0198e-05 -3.46489e-22)
(0.000123526 -4.15389e-05 7.56725e-22)
(3.42087e-05 7.49202e-06 -4.56447e-23)
(0.00128369 0.00109118 -7.12159e-22)
(2.18149e-06 -1.8978e-07 0)
(-3.68958e-05 -0.000128443 9.00985e-22)
(4.53798e-05 -6.29092e-05 -3.20848e-22)
(3.58716e-06 1.05037e-05 0)
(1.88856e-05 5.81132e-06 6.60714e-22)
(-3.57676e-05 3.31563e-05 0)
(1.73709e-06 -7.87738e-07 -4.60012e-22)
(0.000118041 3.9532e-05 9.79322e-25)
(3.91845e-05 -1.1703e-06 -4.35236e-22)
(3.31652e-07 4.33361e-06 0)
(0.000235902 -1.53161e-05 0)
(2.39157e-06 -7.43801e-06 7.54062e-22)
(3.63765e-06 1.00722e-05 0)
(2.57087e-05 8.6855e-06 -5.16042e-22)
(1.01777e-06 -2.32313e-06 0)
(2.01665e-05 3.29581e-06 7.29993e-22)
(3.1558e-06 6.39623e-06 -9.04184e-22)
(0.000483452 0.000137944 7.17545e-22)
(-2.3663e-05 2.03508e-05 0)
(0.000105171 2.26275e-06 1.21485e-21)
(5.2798e-05 3.96565e-05 3.14118e-22)
(0.000246009 1.52033e-05 0)
(1.64263e-05 -1.12898e-05 3.3116e-22)
(0.000527622 0.000246446 0)
(0.000186384 -0.000215715 0)
(6.11664e-06 -8.80571e-06 6.28839e-22)
(5.83361e-06 -1.90037e-07 5.09259e-22)
(0.000440557 -8.73557e-05 -1.39055e-22)
(8.03452e-05 4.48713e-05 0)
(1.81473e-06 -1.35214e-06 -5.58356e-22)
(0.000307806 -0.00021752 0)
(3.85778e-05 4.11133e-05 1.93431e-21)
(1.77991e-06 1.55223e-05 0)
(8.81822e-06 -1.28596e-05 5.71416e-22)
(6.76703e-06 1.31037e-05 -3.00517e-22)
(0.000377433 2.07312e-05 -1.44985e-21)
(1.76418e-06 -1.98897e-06 2.39997e-22)
(1.5755e-06 -1.31884e-06 -1.57946e-21)
(4.20473e-05 -5.6016e-06 -2.22251e-22)
(-3.38288e-05 1.47256e-05 0)
(2.36758e-05 -3.76853e-06 -1.02785e-21)
(1.32766e-06 9.59525e-07 5.27088e-23)
(0.000221714 -0.000152457 -4.24653e-22)
(2.79998e-06 1.07653e-06 5.053e-22)
(2.15356e-06 3.70083e-06 6.4246e-22)
(0.000310174 1.81724e-05 0)
(0.000249474 -9.38015e-05 -1.70713e-22)
(1.76871e-06 1.31592e-07 -9.6674e-22)
(2.78037e-06 -9.50903e-07 5.11765e-22)
(0.000156348 -0.000198025 -2.41944e-22)
(7.038e-06 -1.99303e-06 5.31403e-22)
(6.70244e-05 -6.29742e-05 3.47968e-22)
(1.69879e-06 -1.98853e-07 -1.07892e-21)
(7.72369e-05 4.11075e-05 -7.11672e-22)
(1.99742e-05 4.46019e-06 -8.31771e-22)
(0.000291007 3.59737e-06 -3.75031e-22)
(-3.65884e-07 1.17945e-06 -6.28409e-22)
(8.80909e-07 7.01481e-06 0)
(1.05519e-05 7.59294e-07 0)
(2.47258e-06 2.28143e-07 -8.10828e-22)
(5.50815e-05 4.45889e-05 -3.33209e-22)
(0.000288875 2.3863e-05 -8.16193e-23)
(8.13219e-05 6.05204e-05 2.02236e-22)
(0.000353269 -1.20188e-05 -8.70781e-22)
(0.000101939 -0.000192441 1.03707e-21)
(0.00034998 2.87973e-05 2.39944e-22)
(6.96634e-05 -8.55427e-05 -1.45933e-21)
(0.000171657 -0.000173835 0)
(1.70754e-06 5.1782e-08 -3.64569e-22)
(8.28739e-07 3.13275e-06 -5.1214e-22)
(0.000296585 -5.57222e-05 0)
(0.000165087 9.3621e-05 -1.81167e-22)
(8.61412e-07 1.37565e-06 -1.36797e-21)
(-1.67091e-05 -0.000111924 1.03212e-21)
(2.01471e-06 5.04769e-07 0)
(0.000234575 -0.000103707 -2.54203e-22)
(1.88733e-06 1.57634e-06 -2.02323e-21)
(2.15444e-06 3.64668e-06 -2.55516e-22)
(4.85561e-06 7.72403e-06 0)
(0.000145817 5.23608e-05 9.35857e-22)
(0.000121772 3.23199e-06 0)
(5.68363e-07 1.46561e-05 1.61163e-21)
(1.53191e-06 -1.32446e-06 -8.02096e-22)
(1.52959e-06 -1.11233e-06 -1.23852e-22)
(0.000176522 -0.000128609 0)
(8.07003e-05 9.90936e-05 3.18549e-22)
(2.49758e-05 -1.11961e-05 3.86049e-22)
(3.20604e-05 -1.14394e-07 -3.27313e-22)
(5.91511e-05 2.42988e-05 0)
(-4.51313e-05 3.63043e-05 0)
(1.74209e-06 -3.93175e-07 2.30942e-22)
(6.46477e-05 -8.78098e-05 -8.30463e-25)
(5.39993e-06 -2.70509e-05 0)
(2.98235e-05 -3.71314e-05 -1.79708e-24)
(2.74541e-06 9.37895e-07 -9.83604e-22)
(2.96581e-06 9.85435e-07 -5.66465e-22)
(7.13385e-07 1.36237e-05 -7.66236e-22)
(-9.9325e-06 -8.61751e-05 4.51565e-22)
(4.97669e-05 -5.29138e-05 6.66596e-24)
(0.000216964 0.000747309 -1.66493e-22)
(0.000200621 3.60345e-05 7.65007e-22)
(4.08403e-05 -4.91247e-05 -9.72302e-22)
(0.000319357 -0.000222336 -4.95352e-22)
(1.51532e-06 -2.49216e-06 -9.3903e-23)
(2.01514e-06 1.11479e-08 -7.61307e-22)
(-5.79458e-05 -0.000340581 7.74175e-22)
(3.03285e-06 1.33352e-06 0)
(-0.00105609 -0.000726376 0)
(0.000369312 -1.32479e-05 8.05285e-22)
(-1.87954e-05 -1.11915e-05 -9.71499e-23)
(0.000131557 -0.000321677 -2.28988e-22)
(0.000202275 -0.000130951 3.13919e-22)
(-1.97648e-06 7.84835e-06 0)
(3.08584e-06 6.63756e-06 0)
(5.77415e-05 -2.96373e-06 -3.31646e-22)
(0.00018068 -7.25258e-05 0)
(0.000225129 2.34425e-06 1.26884e-22)
(1.76462e-06 -1.29283e-06 0)
(3.74928e-05 -7.11979e-06 -6.19878e-22)
(-1.38565e-05 5.89068e-05 0)
(1.90394e-06 -6.94756e-06 0)
(0.000189668 -0.000134798 0)
(0.000307756 1.10054e-05 5.30353e-22)
(1.88603e-06 1.39148e-06 4.09572e-25)
(1.00112e-06 -1.40065e-09 -7.33972e-23)
(2.64861e-05 1.65266e-05 -6.60499e-22)
(5.30944e-07 6.2454e-06 -1.8731e-21)
(2.51656e-06 1.52885e-05 -8.1146e-22)
(0.000567117 0.000264209 0)
(0.000437312 2.98621e-05 -6.0317e-22)
(0.000277595 4.34239e-05 0)
(4.75856e-05 -1.31534e-05 5.1994e-22)
(4.37063e-05 1.01647e-05 1.85408e-22)
(0.000165591 -0.000216276 4.64597e-22)
(0.000194984 -1.28413e-06 -2.48462e-22)
(2.37272e-06 -3.70803e-06 -7.47084e-22)
(9.94925e-05 -0.000276971 -4.51316e-22)
(1.81217e-06 -2.3003e-06 0)
(1.55594e-05 -1.10282e-05 0)
(9.4333e-05 -4.63379e-06 -7.04248e-22)
(2.97118e-06 8.54342e-07 -1.11935e-22)
(0.000302169 0.000174795 8.23113e-24)
(7.11677e-06 -2.62736e-06 6.95177e-22)
(1.89196e-06 -4.7055e-05 1.42093e-24)
(2.75411e-05 2.49948e-05 0)
(0.000101165 6.78659e-06 -5.17285e-22)
(5.01259e-06 -1.1038e-05 5.32011e-22)
(3.61174e-07 4.22411e-07 0)
(8.1704e-05 -9.82306e-05 2.19335e-22)
(4.54696e-06 1.04381e-05 0)
(3.1958e-05 6.69679e-06 -4.22165e-22)
(0.000454183 -9.32959e-05 0)
(2.50131e-06 -7.80719e-06 -1.32752e-21)
(9.93277e-05 -0.000186866 -1.4503e-21)
(-0.00139451 0.00110211 -1.66742e-20)
(1.54398e-06 -6.36684e-07 -7.29056e-22)
(2.01275e-05 1.14106e-05 -9.15863e-22)
(3.78833e-05 -3.54383e-06 -6.62927e-22)
(1.30758e-06 -3.148e-07 9.15703e-22)
(1.80783e-06 7.26931e-06 7.13147e-22)
(6.64875e-06 -6.46499e-06 3.33882e-22)
(3.68667e-05 1.74497e-05 6.12921e-22)
(0.000106785 4.44605e-05 -4.85009e-22)
(2.79376e-06 8.99111e-07 5.42483e-22)
(1.40204e-06 -1.16741e-06 7.94469e-22)
(2.32702e-05 -4.10473e-06 4.42913e-22)
(0.000323228 1.8264e-05 -7.53298e-23)
(3.09145e-06 1.36529e-07 0)
(2.02637e-06 9.78761e-06 -2.22625e-22)
(0.000249953 2.37603e-05 0)
(2.61577e-06 -1.21681e-06 -1.01877e-21)
(1.98978e-06 1.8153e-06 0)
(0.000250492 -0.000151111 4.39544e-22)
(0.000178492 -8.71292e-06 2.17455e-22)
(0.000290053 -0.000109565 7.93923e-22)
(1.32113e-06 -4.58097e-07 -8.54831e-22)
(1.76445e-06 -6.45783e-07 -2.18958e-22)
(0.000128931 -0.000689063 3.51339e-22)
(1.8254e-06 1.57845e-05 -4.43326e-25)
(1.3776e-06 5.10785e-06 0)
(5.47819e-05 -4.50369e-05 -3.73724e-22)
(0.0001396 -8.63742e-05 0)
(0.000233147 -4.00149e-05 0)
(2.27091e-05 0.000104625 0)
(2.60578e-05 1.37172e-06 0)
(9.03856e-07 1.44487e-05 -1.55423e-21)
(3.18274e-05 -1.01088e-06 -2.67923e-22)
(2.83696e-06 -5.15949e-06 9.88302e-22)
(4.12455e-05 -4.59127e-05 4.64026e-22)
(0.000142223 -8.06599e-05 -2.22128e-22)
(1.38911e-06 -2.22107e-06 7.96435e-22)
(2.41875e-05 8.17154e-06 1.82278e-22)
(5.11317e-05 -1.84029e-05 -6.64812e-22)
(1.49007e-05 -1.16979e-05 0)