/*--------------------------------*- C++ -*----------------------------------*\
| =========                 |                                                 |
| \\      /  F ield         | OpenFOAM: The Open Source CFD Toolbox           |
|  \\    /   O peration     | Version:  v2012                                 |
|   \\  /    A nd           | Website:  www.openfoam.com                      |
|    \\/     M anipulation  |                                                 |
\*---------------------------------------------------------------------------*/
FoamFile
{
    version     2.0;
    format      ascii;
    class       volScalarField;
    location    "300";
    object      epsilon;
}
// * * * * * * * * * * * * * * * * * * * * * * * * * * * * * * * * * * * * * //

dimensions      [0 2 -3 0 0 0 0];


internalField   nonuniform List<scalar> 
18618
(
2.21558e-06
2.12712e-05
1.80598e-06
2.56486e-06
2.21049e-06
2.34888e-06
0.00676043
0.0161943
1.00761e-05
3.39422e-06
2.19672e-06
2.25623e-06
1.97579e-06
2.21716e-06
2.31155e-06
2.33954e-06
1.76492e-06
2.22377e-06
1.64221e-06
0.00352667
2.30419e-06
0.0485564
1.70054e-06
2.2684e-06
0.00587228
1.09414e-05
3.36031e-06
0.0381119
4.82762e-06
1.81009e-06
2.11974e-06
1.9956e-06
1.94834e-06
2.23164e-06
2.22133e-06
0.0251933
1.89918e-06
0.000127794
0.0144921
1.71249e-06
0.0320501
0.038784
0.00888349
0.0164104
1.94239e-06
2.26494e-06
0.0117319
2.19141e-06
3.3898e-06
0.00879412
3.32317e-06
1.90247e-06
3.04202e-06
3.75338e-06
0.00588686
4.86863e-05
2.89827e-06
2.76687e-06
0.032093
0.00476964
0.0190793
0.0136674
3.3735e-06
2.46132e-06
6.92528e-05
5.54506e-06
0.00442648
1.93093e-06
1.93875e-06
0.0316503
3.6553e-06
1.64949e-06
3.57734e-06
0.00127578
0.038511
0.0263423
3.40661e-06
2.43628e-06
1.93165e-06
5.71113e-06
1.83775e-06
2.23098e-06
2.54582e-06
2.12163e-06
0.050441
1.90546e-06
4.98919e-05
0.0305882
0.0127882
0.00219601
2.01475e-06
0.0179255
0.000105095
1.79255e-06
0.0163697
0.0138441
2.1316e-06
8.36715e-06
2.35396e-06
0.0104287
0.0084261
0.00250093
2.00524e-06
3.70436e-05
4.81422e-06
4.33036e-06
0.003852
2.17832e-06
0.0141711
0.0081475
0.0272538
1.7361e-06
0.0113984
0.0271499
2.61216e-06
1.7307e-06
0.00460967
2.55021e-06
3.26462e-06
0.0355492
2.26561e-06
1.89055e-06
1.83476e-06
2.38369e-06
3.00232e-06
4.96125e-06
1.95082e-06
4.82823e-05
6.86758e-05
3.14572e-06
0.00983398
0.00365085
0.00393757
2.76488e-06
2.14825e-06
2.00265e-06
2.70966e-06
0.026353
0.0931965
2.30522e-06
0.0169919
0.00858015
1.94588e-06
2.2879e-06
1.73526e-06
2.6184e-06
1.74035e-06
2.56046e-06
2.33812e-06
2.24535e-06
0.00166572
2.20763e-06
1.94712e-06
2.28341e-06
1.83458e-06
0.0156033
0.0113373
2.23505e-06
1.89623e-06
0.142709
2.97892e-06
2.17766e-06
0.00627077
0.00249285
2.74154e-06
2.14764e-06
2.12772e-06
0.0366595
2.45316e-06
9.02193e-06
4.23816e-06
1.93059e-06
5.46173e-06
3.55339e-05
0.00907655
2.61224e-06
0.000219011
2.27603e-06
2.7322e-06
1.97883e-06
0.00126623
2.22286e-06
0.0578314
3.55031e-06
2.92617e-06
2.31564e-06
0.00183964
3.41442e-05
2.57303e-05
2.22088e-06
2.64496e-06
2.27246e-06
2.1469e-06
1.76937e-06
1.93238e-06
0.000621759
2.30932e-06
2.12731e-06
0.0130055
1.952e-06
5.01843e-06
0.0226859
0.00178541
0.0147516
0.000251078
2.14171e-06
0.0153366
0.00260358
3.27926e-06
1.73784e-06
2.5977e-05
1.81986e-05
1.99044e-06
1.7513e-06
2.13643e-06
3.98272e-06
0.0093387
0.00868096
2.26776e-06
1.82854e-06
2.24875e-06
1.83775e-06
0.0136051
3.87119e-06
0.0293766
2.72628e-06
1.89663e-06
5.87694e-06
3.61647e-05
1.93731e-06
2.12259e-06
1.96767e-06
2.1766e-06
0.016373
1.98432e-06
3.0631e-06
3.46629e-06
7.82176e-06
0.00206299
1.72126e-06
1.47984e-05
1.90169e-06
2.85129e-06
0.0106005
2.77021e-06
2.22777e-06
0.000517904
3.07569e-06
0.0271471
2.53574e-06
1.80025e-06
0.0420576
2.18988e-06
0.00305839
2.08835e-06
1.95598e-06
8.41689e-06
2.81002e-06
1.66676e-06
1.83001e-06
2.58557e-06
0.00925745
0.0090501
2.22759e-06
0.0462367
0.000214423
9.22401e-06
2.2056e-06
5.14068e-06
2.26354e-06
5.89675e-06
2.73931e-06
1.93316e-06
2.58435e-06
4.18702e-06
2.19952e-06
2.06991e-06
2.19026e-06
1.78065e-06
0.0133857
2.59197e-06
2.85883e-06
2.54379e-06
2.06378e-06
0.0124881
2.54631e-06
1.96459e-06
3.00871e-06
2.93013e-06
4.29703e-06
1.69459e-06
2.70175e-06
2.58507e-06
1.97432e-06
0.110318
3.88352e-05
0.015487
0.00819194
0.00632453
1.9976e-06
2.30441e-06
2.43252e-06
2.32256e-06
2.14409e-06
2.79663e-06
3.25586e-06
2.35818e-06
0.0083723
5.59016e-06
0.0107075
0.00032145
1.6511e-06
5.6377e-05
3.9036e-06
3.55403e-06
2.32581e-06
2.06579e-06
1.86264e-06
2.45811e-06
0.0032669
1.73757e-06
0.000605153
3.12806e-06
0.0234023
3.6839e-06
0.000119842
0.000985335
2.32375e-06
1.67117e-06
0.0768874
2.36536e-06
0.13281
2.34752e-06
3.52088e-06
2.01803e-06
2.69828e-06
0.00465469
1.99902e-06
1.72122e-06
0.00886704
2.66778e-06
3.38913e-06
0.0988959
6.44292e-06
2.81973e-06
3.0452e-06
2.00732e-06
5.27964e-06
2.73876e-06
1.71828e-06
2.88464e-06
1.65629e-06
0.00733559
3.20458e-06
2.55644e-06
2.91488e-06
3.1597e-06
2.72614e-06
2.37456e-06
1.93252e-06
2.15898e-06
0.0127309
0.0387525
2.72368e-06
0.0106575
0.0482039
2.86766e-06
3.54986e-06
3.08985e-06
8.27238e-06
2.01047e-06
2.59817e-06
2.24218e-06
1.97416e-06
1.74794e-06
2.42906e-06
5.93751e-06
2.26216e-06
2.61008e-06
2.62603e-06
6.2699e-06
4.2395e-06
1.97509e-06
1.67289e-06
3.78448e-06
1.98252e-06
3.20969e-06
0.115959
2.8299e-06
2.88827e-06
2.26708e-06
2.95082e-06
0.00178612
0.0278462
2.89065e-06
9.84464e-06
0.0185447
0.00725314
3.01959e-06
0.00821713
2.60591e-06
1.93045e-06
1.82961e-06
0.013042
2.0067e-06
0.00259688
2.75118e-06
2.11928e-06
1.87021e-06
2.63751e-06
1.858e-06
4.27165e-06
2.02688e-06
1.65133e-06
2.13052e-06
2.65559e-06
1.6852e-06
1.71333e-06
2.23696e-06
1.97986e-06
1.74955e-06
0.0173618
1.82645e-06
1.93082e-06
1.98278e-06
0.106558
2.68892e-06
1.73898e-06
0.000324397
0.00857242
2.98847e-06
2.78876e-06
2.25774e-06
2.49186e-06
1.91056e-06
2.26465e-06
3.43393e-06
2.53162e-06
3.60011e-05
5.17777e-06
2.18415e-06
0.000474218
2.59939e-06
2.15946e-06
0.012348
2.97719e-06
2.14778e-06
0.0103801
4.93311e-06
2.95412e-06
2.15588e-06
4.01803e-06
2.7171e-06
2.25788e-06
2.82449e-06
2.36097e-05
2.64874e-06
1.89055e-06
2.05433e-06
0.0411923
0.0129432
1.78693e-06
6.07591e-06
2.90451e-06
6.49899e-06
2.13318e-06
2.80869e-06
4.28143e-06
3.23865e-05
1.98799e-06
1.78911e-06
2.25719e-06
1.73803e-06
0.00452294
1.83039e-06
2.02067e-06
0.016047
1.81137e-06
0.000374351
2.32694e-06
9.1819e-06
2.27658e-06
0.00803723
1.64863e-06
2.31339e-05
2.54111e-06
6.26206e-06
1.86072e-06
2.9454e-06
1.96138e-06
1.52483e-05
0.121208
2.13164e-06
3.57971e-06
0.00686646
0.0067074
1.17333e-05
0.0577988
2.28075e-06
3.70892e-06
4.23627e-06
2.15866e-06
0.00437068
2.92246e-06
1.8364e-06
5.48597e-06
2.13264e-06
2.14972e-06
0.000960617
2.05968e-05
0.0288027
2.12279e-06
1.80985e-06
1.82351e-06
3.04269e-06
3.37131e-06
1.64852e-06
3.61551e-06
3.35777e-06
0.010806
1.85373e-06
3.34544e-06
2.06894e-05
3.1126e-06
1.77162e-06
3.02102e-06
0.0092
3.08678e-06
0.0314456
3.45352e-06
0.00191759
0.00587813
2.13385e-06
2.15492e-06
2.93907e-06
3.9306e-06
0.0203803
4.28073e-06
2.14548e-06
2.00282e-06
2.2391e-06
2.22745e-06
2.72955e-06
2.89804e-06
2.92598e-06
3.29699e-06
0.000421542
0.00822626
1.7183e-06
2.56287e-06
2.69566e-06
4.12276e-06
1.5683e-05
1.89929e-06
2.87563e-05
1.96051e-06
0.0242062
2.92383e-06
5.46963e-06
2.96351e-06
0.096995
1.72978e-06
0.00909005
2.15434e-06
2.49506e-06
4.03443e-06
0.00453105
2.26453e-06
5.32864e-06
2.33873e-06
3.05609e-06
0.0125753
3.28163e-06
0.0210186
0.049065
0.00918625
0.00471092
3.32961e-06
0.0012727
1.85374e-06
2.15432e-06
2.18533e-06
2.07187e-06
3.34742e-06
3.03492e-06
1.85362e-06
3.2449e-06
1.95826e-06
0.00215756
7.54681e-06
2.67219e-06
2.15271e-06
2.12528e-06
1.89143e-06
2.05607e-06
2.15223e-06
8.55426e-05
0.00954419
6.17426e-06
2.31703e-06
3.0257e-06
0.000235096
2.70181e-06
2.23454e-06
2.55945e-06
2.40325e-06
3.08609e-06
1.6689e-06
2.74125e-06
2.23337e-06
0.00286909
0.0146006
0.00879319
0.003607
0.00238599
2.06344e-06
1.82197e-06
0.0104619
2.54671e-06
2.15575e-06
1.65087e-06
1.95692e-06
0.00238067
3.33539e-06
3.96651e-06
1.36033e-05
1.91945e-06
2.55573e-06
1.57304e-05
3.10558e-06
2.13945e-06
2.59426e-06
0.00603459
1.67138e-06
3.26544e-05
4.41916e-05
0.000573223
1.98245e-06
0.00582822
2.96963e-06
1.97654e-06
2.24501e-06
0.00543504
8.83474e-06
1.97794e-06
6.3514e-05
3.29925e-06
2.40627e-06
1.92097e-06
2.24643e-06
0.00996908
2.95026e-06
1.95345e-06
3.31214e-06
1.68456e-06
2.07408e-06
2.6894e-06
0.00151672
2.30904e-06
2.6009e-06
0.043322
7.58696e-06
3.23765e-06
2.18344e-06
2.61406e-06
2.2035e-06
2.06055e-06
3.24216e-06
7.97217e-06
2.14279e-06
0.00913768
4.28489e-06
3.57646e-06
2.20045e-06
2.30381e-06
3.66398e-05
0.0447719
2.30291e-05
0.104015
2.19687e-06
0.0307
2.04208e-06
2.81708e-06
3.26885e-06
3.37351e-06
0.00764984
0.000451436
3.29923e-06
1.83375e-06
2.81064e-06
0.00102493
1.83705e-06
2.61491e-06
2.47782e-06
1.48601e-05
7.27935e-05
2.50832e-06
2.90052e-06
2.87944e-06
0.00750069
0.000752867
1.99669e-06
2.17699e-06
6.10092e-06
1.65081e-06
1.93911e-06
2.02254e-06
0.0103127
1.91986e-06
2.30282e-06
1.68185e-06
2.53757e-06
1.82386e-06
0.00751733
0.00245199
0.000883138
1.9499e-06
0.000143468
1.95916e-06
2.04121e-06
1.97394e-06
1.68473e-06
0.0541365
0.00690591
0.0112763
2.43701e-06
0.00734827
1.73738e-06
2.58332e-06
2.55154e-06
3.65811e-06
0.0112566
2.89138e-06
2.18138e-06
0.012995
1.91492e-06
0.00704826
0.0100416
1.84358e-06
2.68685e-06
2.27282e-06
3.51853e-06
2.26277e-06
0.00573985
0.00643419
0.0205006
5.37911e-06
6.15523e-06
2.72169e-06
0.0109497
2.0316e-06
2.25195e-06
3.04064e-06
1.98382e-06
0.0141859
1.67437e-06
0.0267172
2.19816e-06
1.83305e-06
0.0059932
2.78231e-05
1.9065e-06
3.91967e-06
2.09405e-06
2.46384e-06
1.6921e-05
0.00511222
1.91814e-06
2.19506e-06
0.0530303
3.13046e-06
2.19369e-06
2.40272e-06
2.78481e-06
2.68071e-06
2.10998e-06
0.0155668
2.86027e-05
2.3033e-06
2.97288e-06
2.07163e-06
0.0423992
1.6328e-06
2.62159e-06
0.0578945
2.15992e-06
1.82171e-06
0.000859168
0.0101616
0.000355551
2.82421e-06
1.95693e-06
2.71638e-06
2.41385e-06
3.60579e-06
0.00967358
2.64351e-06
9.10812e-06
0.00533471
2.13606e-06
2.51579e-06
2.16294e-06
2.03906e-06
1.95658e-06
2.66687e-06
1.95158e-06
0.0263638
2.14386e-06
1.97315e-06
0.00935766
1.06329e-05
2.1902e-06
3.22221e-06
2.51657e-06
2.08141e-06
2.63965e-06
1.70781e-06
1.96309e-06
2.29142e-06
1.65321e-06
1.89255e-06
2.19975e-06
1.7955e-06
0.0140033
2.38388e-06
0.00955743
0.00238765
2.19785e-06
1.26076e-05
3.43864e-06
3.15832e-06
1.84258e-06
0.000207882
0.00970411
1.82979e-06
2.28707e-06
0.0163807
2.84082e-06
2.12364e-06
2.14155e-06
0.00036718
1.84906e-06
0.00245974
2.38899e-06
2.02207e-06
0.0089244
1.93691e-06
2.84605e-06
1.72499e-06
3.23155e-06
0.00218119
0.00534228
0.0209832
2.7522e-06
0.0219465
0.00952669
0.0439599
0.0119679
2.17576e-06
0.00856285
2.70575e-06
2.26606e-06
2.17775e-06
3.15867e-06
0.000252586
2.39296e-06
2.06561e-06
2.08277e-06
4.73934e-06
2.76894e-06
1.9563e-06
0.0163483
2.31616e-06
2.13069e-06
0.00596235
2.31332e-06
2.81845e-06
0.00230465
2.31849e-06
2.07106e-06
2.06893e-06
2.04881e-06
2.22313e-06
2.18335e-06
3.42909e-06
0.000936284
0.0142801
6.14866e-06
1.73411e-06
0.00903723
0.0060903
1.86092e-06
2.20259e-06
1.68702e-06
5.22333e-05
2.71222e-06
2.64316e-06
2.01558e-06
1.80311e-06
2.68785e-06
4.23965e-06
3.61454e-06
5.26199e-06
2.84075e-06
1.94984e-06
6.28121e-06
9.68539e-06
2.28384e-06
2.15418e-06
3.21552e-06
2.26531e-06
2.76695e-06
2.2071e-06
1.83742e-06
1.97763e-06
0.0142603
2.5796e-06
3.49858e-05
3.64452e-06
1.6807e-06
1.83132e-06
1.73045e-06
1.86731e-06
2.19507e-06
0.0307557
0.034408
0.0105249
2.99225e-06
2.24711e-06
2.70342e-05
3.20204e-06
3.40699e-06
2.3376e-06
2.22217e-06
1.74144e-06
2.66891e-06
4.48677e-05
0.0156785
2.52999e-06
2.77948e-06
0.0114928
0.0214644
2.93518e-06
4.32095e-06
0.0218209
0.00412103
3.03006e-06
1.93423e-06
2.45706e-06
2.54299e-06
8.44778e-06
1.85554e-06
1.95025e-06
6.82915e-05
2.42779e-06
1.90231e-06
3.15208e-06
1.77126e-06
3.18375e-06
1.85692e-06
0.0401942
2.08485e-06
1.87374e-06
1.74286e-06
2.61567e-06
2.69659e-06
1.7164e-06
0.00649579
0.00892017
2.01962e-06
1.73866e-06
0.000896286
2.12524e-06
1.73924e-06
2.12978e-06
2.03283e-06
0.00956668
1.787e-06
1.87331e-06
2.29265e-06
0.045761
2.56607e-06
2.3184e-06
0.0419487
1.93766e-06
3.25664e-05
1.87588e-06
0.012263
3.6288e-06
2.8624e-06
0.0235444
2.15942e-06
0.016078
2.64624e-06
0.000638023
0.102474
2.30083e-06
5.98005e-06
0.026077
4.42932e-06
0.00845621
3.68167e-06
3.01503e-06
2.63161e-06
2.72966e-06
2.98857e-06
3.30733e-06
1.90461e-06
0.0423651
3.12014e-06
2.2701e-06
1.92329e-06
2.0621e-06
3.5539e-06
4.01358e-06
2.1136e-06
3.18948e-06
1.70828e-06
2.17713e-06
1.98957e-06
2.75322e-06
0.000616461
1.90418e-06
2.83607e-06
2.02879e-06
9.1771e-06
1.99278e-06
0.0152763
1.00268e-05
0.00765449
2.79175e-06
1.98359e-06
0.000673914
0.0361209
2.21795e-06
0.0385291
2.93528e-06
0.0020721
6.50975e-06
2.07074e-06
2.69456e-06
1.90382e-06
0.0218649
1.84915e-06
1.91509e-06
3.12673e-06
2.66552e-06
1.8475e-06
9.03198e-06
3.49849e-06
6.03287e-06
1.73802e-06
3.51805e-06
0.0339487
2.28848e-06
2.36763e-06
0.000678627
2.34506e-06
2.06185e-06
0.110547
2.28991e-06
2.57746e-06
6.34017e-06
2.35054e-06
1.65303e-06
3.63184e-06
1.98427e-06
2.0633e-06
2.20429e-06
1.82714e-06
2.85833e-06
0.0542898
3.23174e-06
0.000748534
1.86792e-06
3.52773e-06
2.31907e-06
1.80864e-06
1.74878e-06
4.01149e-05
0.00131801
1.93876e-06
3.46369e-06
0.0103163
0.00675406
0.0376081
2.14985e-06
3.01696e-06
2.14106e-06
1.76214e-06
3.94576e-06
1.6612e-06
1.81187e-06
1.933e-06
1.81658e-06
2.61388e-06
1.8644e-06
3.49356e-06
1.92825e-06
2.6581e-06
2.07593e-06
3.72231e-06
0.00632861
5.31646e-06
0.0545381
2.3196e-06
2.77717e-06
3.48265e-06
0.024759
6.64619e-05
2.04459e-06
1.86331e-06
3.3716e-06
0.0247307
0.00135171
2.90687e-06
2.19857e-06
0.0398592
0.0220493
5.71709e-05
2.32446e-06
1.92761e-05
1.85964e-06
2.24205e-06
2.77307e-06
2.80434e-06
2.01178e-06
2.13661e-06
1.74765e-06
2.12124e-06
0.00231481
0.000296166
2.47707e-06
1.78308e-06
3.64309e-06
2.68105e-06
1.75124e-05
1.98591e-06
3.19983e-06
2.01695e-06
1.99155e-06
2.35532e-06
1.97308e-06
2.44456e-06
3.658e-05
1.866e-06
3.76192e-06
2.5303e-06
2.77475e-06
2.26473e-06
3.33207e-06
0.0215854
3.82497e-06
2.48415e-06
0.00576176
2.46458e-06
2.54681e-06
1.92302e-06
3.71566e-06
0.0332947
1.79528e-06
3.23514e-06
1.30597e-05
2.0013e-06
3.16739e-06
0.00744849
2.85991e-06
3.35675e-06
2.16594e-06
1.91479e-06
3.32976e-06
1.64324e-06
0.0103144
2.56532e-06
2.96667e-06
2.15496e-06
6.31763e-06
3.26506e-06
0.00211267
0.021322
2.08873e-06
4.28272e-06
0.00594184
2.90215e-06
0.00430622
3.2925e-06
2.28255e-06
2.99329e-06
0.00624854
2.83821e-06
1.83151e-06
2.00581e-06
1.73177e-06
2.01113e-06
0.0284189
0.000170553
2.00206e-06
0.0100779
4.23971e-06
1.87345e-06
2.5098e-06
1.97587e-06
1.69946e-06
2.30839e-06
3.87662e-06
3.32635e-06
0.00674718
0.0121669
1.99576e-06
2.06844e-06
1.91649e-06
0.00814404
4.19777e-06
2.10264e-06
3.2766e-06
0.00984973
2.14006e-06
2.48085e-06
2.79911e-06
2.3241e-05
2.4537e-06
2.86379e-06
2.60736e-06
3.4564e-06
2.00177e-06
2.97015e-06
1.87139e-06
2.78543e-06
2.64506e-06
1.86711e-06
2.61785e-06
2.09888e-06
3.20738e-06
3.18909e-06
1.79639e-06
0.011985
1.66551e-06
3.29692e-06
0.0146376
0.0147044
1.95693e-06
1.77598e-06
2.55505e-06
2.60447e-06
2.3094e-06
1.78076e-06
0.0210565
0.0147561
2.15006e-06
2.14214e-06
2.17857e-06
2.89421e-06
0.00619318
3.62154e-05
2.46035e-06
1.9993e-06
1.99458e-06
0.0109694
2.52124e-06
0.0224656
5.89484e-06
0.00793798
2.15772e-06
3.61593e-05
2.14226e-06
1.77304e-06
3.64812e-06
2.00104e-06
0.00225637
0.0472094
2.22347e-06
2.67861e-06
1.61996e-06
1.10835e-05
1.13366e-05
2.216e-06
2.27761e-06
1.63991e-06
2.01208e-06
1.87157e-06
6.43165e-06
2.66539e-06
0.000359942
2.84804e-06
0.00253223
2.03824e-06
1.97471e-06
2.20606e-06
2.08876e-06
0.00513931
0.00698658
2.31652e-06
1.97444e-06
1.81573e-06
1.85291e-06
3.2988e-06
2.87355e-06
2.09368e-06
2.00545e-06
1.78713e-06
2.23479e-06
2.04263e-06
3.43113e-06
6.88597e-06
2.01356e-06
2.04772e-06
3.22092e-06
6.80531e-06
2.17437e-06
1.87035e-06
4.05523e-06
2.1752e-06
1.98385e-06
1.8597e-06
2.21467e-06
1.93986e-06
2.1927e-06
0.00825202
2.32969e-06
2.16473e-06
2.78409e-05
3.13415e-06
1.91476e-06
1.685e-06
1.90415e-06
0.00312597
1.92695e-06
1.97021e-06
1.68056e-05
2.24146e-06
1.11407e-05
2.34344e-06
2.49212e-06
3.39135e-06
2.54167e-06
2.17653e-05
2.86134e-06
1.38405e-05
0.00257055
0.00569361
7.79824e-06
2.06095e-06
2.71532e-06
1.75931e-06
6.96454e-06
4.09866e-06
2.57669e-06
3.2669e-06
0.00932249
2.17069e-06
0.030177
2.10039e-06
0.052384
3.17458e-06
3.01646e-06
1.99915e-06
2.13702e-06
1.62366e-06
1.91222e-06
2.29361e-06
1.94539e-06
1.8917e-06
1.85884e-05
0.00320327
1.53105e-05
0.0160977
9.41302e-06
1.74665e-06
2.24895e-06
1.9016e-06
1.85905e-06
0.000608311
2.77525e-06
5.18982e-06
4.9732e-06
0.0372751
0.00569543
0.0228982
4.49201e-06
0.0347973
0.0577227
0.00415788
1.81862e-06
2.12698e-06
1.76343e-06
4.09768e-06
0.0360025
0.00384307
1.99922e-06
1.42048e-05
2.16029e-06
2.16325e-06
2.93247e-06
2.8548e-06
0.000109572
2.06342e-06
0.000329894
0.0245076
3.44923e-06
0.0440204
1.92061e-06
0.00831964
0.00968291
1.92116e-06
2.32022e-06
4.30532e-06
2.30225e-06
2.66678e-06
2.31656e-06
1.8299e-06
1.71121e-06
2.01241e-06
1.77584e-06
0.000217987
1.81565e-06
0.0141772
3.30499e-06
2.24228e-06
2.90525e-06
5.16774e-06
4.44529e-06
2.67044e-06
1.9646e-06
1.94473e-06
2.25477e-06
3.0527e-06
2.00981e-06
2.08986e-06
0.00949103
9.0161e-06
1.76043e-06
3.15753e-06
1.89556e-06
1.79312e-06
1.80576e-06
2.02575e-06
1.66113e-06
2.38999e-06
2.63635e-05
4.95645e-06
0.0043692
1.6402e-06
0.0328505
2.51358e-06
1.80925e-06
1.99088e-06
2.21401e-06
4.14821e-06
2.94257e-06
1.91519e-06
1.93454e-06
2.70558e-06
0.00636374
2.81857e-06
0.116279
0.00956724
2.23898e-06
1.88359e-06
0.0578172
1.88443e-06
5.06782e-06
4.25466e-05
0.0522096
2.71248e-06
0.0222533
0.0074686
2.32655e-06
0.0132502
0.0039042
1.74514e-06
2.81001e-06
1.1791e-05
2.13437e-06
9.86675e-06
3.15986e-06
0.00414928
2.22488e-06
2.11636e-06
4.93033e-06
1.74649e-06
2.13259e-06
2.17408e-06
1.03562e-05
0.018849
3.20714e-06
0.0138256
1.83396e-06
0.0206877
0.0334021
0.0019697
1.83372e-06
2.23225e-06
3.32909e-06
0.00655715
1.94743e-06
2.18571e-06
0.00256345
0.0176351
2.33509e-06
1.92216e-06
5.93912e-06
1.70671e-06
3.18903e-06
0.00041107
1.76348e-06
0.0103479
0.00458686
1.99611e-06
0.00196387
2.85752e-06
1.77167e-06
1.88713e-06
5.08074e-06
5.79278e-06
0.00344105
3.53717e-06
2.24276e-06
2.05233e-06
1.36622e-05
3.3574e-06
4.16107e-06
1.52472e-05
2.24338e-06
0.0165177
3.04619e-06
1.40421e-05
3.43335e-06
3.8346e-05
5.95467e-06
0.0414753
0.00871623
2.24259e-06
0.00786384
2.57944e-06
2.03334e-06
1.98312e-06
1.70477e-06
2.7316e-06
1.7746e-06
2.5304e-06
4.43217e-06
2.34876e-06
3.49546e-06
2.82258e-06
0.0284893
7.81789e-06
2.28504e-06
2.60659e-06
0.0460251
2.01466e-06
4.12202e-06
1.84877e-06
3.08814e-06
0.00892048
1.70847e-06
3.29331e-06
1.05194e-05
1.93455e-06
4.14756e-06
0.0575675
0.00965497
1.88176e-06
0.000363673
2.88031e-06
2.2767e-06
2.14621e-06
2.18224e-06
1.4436e-05
2.24664e-06
1.90441e-06
2.83465e-06
0.00720059
2.05759e-06
2.37113e-06
2.16249e-06
1.70889e-06
0.0120524
1.70751e-06
2.23214e-06
2.24235e-06
2.87674e-06
0.0550769
3.33616e-06
3.30305e-06
0.0204538
2.35306e-06
0.00657929
1.98733e-06
2.09493e-06
2.5142e-06
3.21173e-05
0.0257869
2.84811e-06
2.36146e-06
2.47302e-06
2.9585e-06
1.8086e-06
2.90654e-06
0.00107398
0.0302289
0.0140131
0.0112391
1.30038e-05
1.965e-06
0.0226081
2.94803e-06
4.77787e-05
1.78113e-06
2.15472e-06
1.9726e-06
1.91476e-06
3.55425e-06
1.66124e-06
4.3571e-06
2.65747e-06
0.065236
1.81244e-06
2.38507e-06
3.49291e-06
2.48358e-06
4.12927e-06
0.0086101
2.5904e-06
1.97011e-06
3.52622e-06
2.30579e-06
2.21676e-06
1.71317e-06
3.4589e-06
1.71062e-06
0.00178774
0.00624644
1.76769e-06
2.00443e-06
2.46641e-06
2.51813e-06
4.06227e-06
2.19704e-06
2.79143e-06
2.3608e-06
3.12763e-06
1.82386e-06
2.75983e-06
0.0105366
1.78008e-06
3.70559e-06
2.25556e-06
0.00020189
0.0047107
3.38828e-06
3.42069e-06
1.90137e-06
3.20032e-06
0.0104066
0.00765983
0.0208965
0.0209825
1.98819e-06
4.02208e-06
2.12135e-06
2.69587e-06
6.92129e-06
2.64079e-06
2.09631e-06
0.01151
2.17026e-06
3.17341e-06
0.031225
0.012619
3.16959e-06
2.02797e-06
2.18142e-06
3.19796e-06
2.1011e-06
0.0025766
1.8277e-06
2.06858e-06
4.88845e-06
1.98235e-06
4.19972e-06
0.0259085
2.29363e-06
0.0715381
0.00728402
0.000937426
2.8449e-06
3.35751e-06
2.20224e-06
2.25229e-06
0.00334784
4.08914e-06
0.0794788
2.25093e-06
3.56991e-06
0.0181337
4.16454e-06
2.23355e-06
4.39319e-06
4.20919e-06
4.17293e-06
0.00166122
0.0161311
6.23721e-06
1.689e-06
0.0029163
7.25311e-06
2.00892e-06
1.94242e-06
2.33015e-06
0.00016589
2.13949e-06
2.73533e-06
2.22859e-06
2.02878e-06
3.25598e-06
1.80472e-06
2.0031e-06
0.000287577
1.84147e-06
1.79942e-06
4.24748e-06
0.00650527
0.00256938
0.00446896
0.0115329
1.86008e-06
0.000130006
0.00192191
2.18309e-06
2.39389e-06
2.4357e-06
2.53371e-06
2.40269e-06
3.15994e-06
1.85655e-06
1.99936e-06
2.8557e-06
2.90594e-06
1.96547e-06
2.18674e-06
2.00027e-06
2.34386e-06
4.14777e-06
0.0163171
1.87764e-06
0.0423971
2.03599e-06
2.15866e-06
2.44416e-06
2.81754e-06
0.00700619
3.64019e-06
1.91909e-06
0.0177999
1.88237e-06
3.18215e-06
1.84566e-06
2.7665e-06
5.66197e-06
1.74589e-06
2.09121e-06
2.63466e-06
3.85281e-05
4.2448e-05
0.0296228
4.05318e-06
1.16404e-05
0.00888978
3.35691e-06
2.13372e-06
2.48562e-06
2.71379e-06
4.20629e-06
0.00551294
0.00987406
0.00802863
2.1066e-05
1.99408e-06
6.07363e-06
2.14998e-06
3.07705e-06
1.81987e-06
2.36904e-06
1.98767e-06
3.83583e-06
0.0462461
6.06015e-06
0.0204597
4.01366e-05
1.38485e-05
2.9626e-06
0.0201636
2.89479e-06
0.116358
3.33112e-06
7.10661e-06
0.0442869
2.57648e-05
2.73395e-06
0.0197445
3.21715e-06
1.12894e-05
2.86142e-06
2.1009e-06
2.22082e-06
2.88499e-06
2.25863e-06
1.94355e-06
3.83439e-06
1.67717e-06
2.91722e-06
2.12688e-06
3.16486e-06
1.72084e-06
2.28256e-06
2.79046e-06
0.00623306
2.15938e-06
4.09215e-06
8.08879e-06
2.79348e-06
0.00101913
1.7295e-06
0.0307454
0.00027956
5.95486e-06
0.0260092
2.74148e-06
2.68878e-06
1.68951e-06
2.01713e-06
0.0397056
1.82757e-06
2.09582e-06
2.02922e-06
0.118706
0.0124769
0.0105172
3.23696e-06
6.13972e-06
2.92934e-06
3.10389e-06
0.0077558
1.36404e-05
2.12486e-06
3.25196e-06
2.82721e-06
4.19544e-06
7.50852e-06
2.52681e-06
2.21118e-06
1.63567e-06
1.71567e-06
1.72374e-06
0.017467
2.20315e-06
0.000836454
0.00791461
2.48187e-06
0.0107423
4.35897e-06
0.0161397
2.11602e-06
2.1616e-06
1.75948e-06
4.42949e-05
1.82008e-06
3.46358e-06
0.00273633
0.129104
4.28596e-06
5.04561e-06
2.27938e-06
3.99068e-06
0.0136849
3.6625e-06
2.63117e-06
2.16344e-06
1.91217e-06
1.79435e-06
2.67163e-06
2.5687e-06
4.16637e-06
3.57488e-06
2.96073e-05
3.62551e-05
1.10617e-05
0.00313541
2.25697e-06
8.00607e-06
3.27885e-06
1.95812e-06
2.28832e-06
2.24369e-06
2.62997e-06
2.10232e-06
0.0187397
2.08772e-06
3.17538e-06
2.30117e-06
1.68219e-06
2.31522e-06
2.09451e-06
3.68355e-06
3.33317e-06
0.00848739
2.23017e-06
2.83562e-06
2.27161e-06
8.3666e-06
1.7392e-05
2.16759e-06
2.00173e-06
0.0203118
2.31767e-06
1.85256e-06
0.0987107
2.49944e-06
1.93172e-06
0.0192819
2.51246e-06
0.010875
1.92064e-05
3.5205e-06
0.00264349
2.02699e-06
1.0172e-05
2.01424e-06
2.22977e-06
1.88379e-06
2.18431e-06
2.89454e-06
2.16963e-06
0.00863307
0.00572151
6.30411e-06
2.66219e-06
2.40763e-06
2.26303e-06
8.56744e-06
1.80958e-06
2.15444e-06
2.48012e-06
0.0867483
3.22032e-06
2.19329e-06
2.62722e-06
2.54715e-06
1.49731e-05
1.99056e-06
3.77887e-06
2.45741e-06
2.47784e-06
2.16278e-06
0.0127279
0.00382888
1.87612e-06
1.07965e-05
2.65378e-06
1.77685e-06
0.000506659
1.64735e-06
0.0211007
3.46846e-05
3.06108e-06
1.67982e-06
1.76852e-06
1.94365e-06
0.06151
0.00505252
2.96268e-06
0.00062704
1.91989e-06
3.12632e-06
2.02589e-05
2.50685e-06
3.19334e-06
3.38928e-06
1.85761e-06
4.03943e-06
0.0950378
3.9314e-06
1.93805e-06
2.42956e-06
2.28344e-06
2.81545e-06
2.60761e-06
0.0089599
2.78362e-05
6.23532e-06
2.3781e-06
1.88486e-06
0.00823602
1.80022e-06
0.0410931
0.0150326
0.000294081
0.0425893
4.69402e-06
2.04395e-06
2.91709e-06
1.67851e-05
2.234e-06
1.94548e-06
2.90694e-05
1.31682e-05
3.86309e-06
0.00560952
3.78508e-06
1.77881e-06
2.95173e-06
3.04661e-06
0.0160794
1.84886e-06
1.83745e-06
0.000402774
0.0214518
1.96998e-06
0.0098908
0.0139237
0.00609534
0.00146552
2.71346e-06
3.21547e-06
0.0267566
2.5098e-06
2.38363e-06
2.93991e-06
0.00172706
3.21295e-06
2.19281e-06
1.77763e-06
2.30796e-06
1.91087e-06
0.00145641
2.06061e-06
0.012539
3.54904e-06
0.012916
1.89491e-06
0.0139475
2.42129e-06
2.77349e-06
1.91628e-06
3.08947e-06
0.014015
0.00120691
2.18718e-06
0.00563319
1.92277e-06
3.14432e-06
1.79845e-06
3.27005e-06
0.00802112
8.09425e-06
0.0207448
0.00998349
1.79034e-06
3.17655e-06
3.14452e-06
2.95822e-06
0.00782433
2.24343e-06
2.53957e-06
2.15095e-06
3.14374e-06
3.55057e-06
2.19891e-06
2.28429e-06
0.0482069
0.00813001
1.71603e-06
2.28641e-06
2.08519e-05
0.0100183
0.0668848
3.75047e-06
2.45504e-06
0.0337476
0.000808005
2.15524e-06
2.33592e-06
2.13753e-06
0.00288624
2.28737e-06
3.65594e-05
2.18349e-06
2.28394e-06
3.03927e-06
1.74909e-06
2.85585e-06
3.82255e-06
2.26038e-06
0.0144034
2.18029e-06
0.0285855
3.49579e-06
6.16944e-06
0.0418795
2.2792e-06
2.94901e-06
2.01784e-06
3.58102e-06
2.36973e-06
1.94223e-06
2.2504e-06
0.0170226
0.0165546
3.08339e-06
3.23165e-06
1.82636e-06
3.27909e-06
6.01863e-06
1.63834e-06
2.13015e-06
4.071e-06
1.79642e-06
2.23786e-06
2.02768e-06
0.101522
2.06591e-06
0.0130419
3.05431e-06
1.76566e-06
6.28124e-06
1.9278e-06
0.0215582
7.85938e-06
2.24588e-06
0.0614312
2.3841e-06
1.66703e-06
2.14896e-06
2.13922e-06
2.03025e-06
3.10584e-06
2.57042e-06
5.65215e-06
2.78354e-06
1.62945e-06
3.03555e-06
4.43642e-06
2.2358e-06
2.43563e-05
3.02155e-06
2.49598e-06
9.87962e-06
2.87177e-06
2.26166e-06
3.00216e-06
0.00851935
2.74046e-06
6.55098e-06
2.90626e-06
2.87731e-06
2.86989e-06
8.3272e-06
3.13226e-06
4.1123e-06
2.1535e-06
2.68734e-06
0.000976381
0.031505
2.29638e-06
0.0178822
1.99219e-06
3.18905e-06
2.42661e-06
2.2822e-06
3.35054e-05
2.69262e-06
2.87816e-06
0.0242499
0.00209347
2.36958e-06
3.46063e-06
2.38171e-06
2.73417e-06
2.03658e-06
6.09639e-06
2.43497e-06
3.75328e-06
3.64728e-06
2.14793e-06
0.0295865
1.99586e-05
2.1878e-06
0.00890649
2.10893e-06
1.57871e-05
0.019322
3.16083e-06
2.09274e-06
0.00166441
1.83079e-06
2.62402e-06
0.00155807
0.0425635
2.13351e-06
1.95426e-06
1.95258e-06
2.71592e-06
0.000146738
2.26071e-06
2.60834e-06
0.00533892
1.75455e-06
1.9706e-06
0.0982791
2.27414e-06
0.00245099
1.85186e-06
1.8735e-06
1.76645e-05
1.94746e-06
3.11651e-06
1.90196e-06
1.95443e-06
4.31831e-06
0.000256353
2.12649e-06
2.28341e-06
4.72508e-06
0.00982847
0.0266062
2.42891e-06
0.0120214
1.28246e-05
0.0241432
0.00933878
0.0177555
2.10978e-06
1.85914e-06
6.66671e-06
3.27001e-06
2.19662e-06
2.90612e-06
1.63104e-06
0.00691558
3.09705e-06
2.12672e-06
2.06723e-06
0.017182
0.00553635
0.017885
2.57102e-06
0.0285603
2.18826e-06
3.04577e-06
1.92448e-06
0.00313435
1.04627e-05
1.93298e-06
2.65675e-06
1.99979e-06
0.00732648
1.91904e-06
0.00789785
0.00090429
6.78695e-06
2.11955e-06
1.7791e-06
1.87466e-06
2.50365e-06
3.28576e-06
2.27916e-06
1.62336e-06
2.28845e-06
2.38928e-06
1.68823e-06
1.31294e-05
2.99486e-06
2.15015e-06
0.0115088
2.18018e-06
2.88061e-06
1.67506e-06
0.113411
1.05281e-05
2.12798e-06
2.35633e-06
1.71386e-06
2.6422e-06
2.08489e-06
0.0105728
1.84729e-06
0.000742365
2.24093e-06
2.27508e-06
2.4906e-06
3.64527e-06
2.27784e-06
0.00419276
8.12677e-06
2.94412e-06
1.29335e-05
0.0109439
1.89783e-05
1.72477e-06
0.0407148
2.33026e-06
0.0254022
0.00288945
3.62623e-06
2.10826e-06
0.0278744
4.20401e-06
0.0194061
2.13452e-06
0.0431743
1.7503e-06
3.2982e-06
5.79311e-06
1.70785e-06
0.00146855
2.27796e-06
1.7426e-06
0.00505509
4.18375e-06
4.28374e-06
2.38889e-06
1.97642e-06
0.000868524
5.73359e-06
4.28261e-06
0.0223888
3.51265e-06
0.00425366
2.62171e-06
1.87871e-06
1.88994e-06
0.00185779
0.0324214
2.78318e-06
3.45397e-06
2.22864e-06
2.27722e-06
2.33956e-06
1.83719e-06
2.81687e-06
0.0209936
2.20225e-06
2.1531e-06
1.75646e-05
1.75115e-06
9.95165e-06
6.20198e-06
0.0798132
7.11855e-06
2.12913e-06
2.99527e-06
8.38362e-06
2.10315e-06
1.65677e-06
1.82594e-06
1.7836e-06
2.14258e-06
1.94718e-06
2.09897e-06
2.32073e-06
2.92089e-06
2.1161e-06
1.91674e-06
1.98617e-06
3.39863e-06
2.9513e-06
1.76253e-06
2.03051e-06
2.5373e-06
3.04243e-06
7.86636e-06
0.00640178
3.00879e-06
0.0131588
0.00864102
0.0472529
0.0372398
0.00494374
3.0327e-06
6.27157e-06
0.0185924
2.8894e-06
3.35368e-06
1.90462e-06
0.0074709
4.18391e-06
2.87246e-06
2.07659e-06
0.0122471
1.65554e-06
1.90372e-05
0.00643795
2.95554e-05
0.0263956
0.0033559
1.70087e-06
2.33307e-06
2.35947e-06
1.82156e-06
2.21328e-06
3.01842e-06
1.77488e-06
2.80245e-06
5.88134e-06
2.08071e-06
3.00868e-06
2.16346e-06
1.95479e-06
3.53872e-06
2.37111e-06
1.76973e-06
0.00204727
2.0175e-06
2.00893e-06
3.24281e-06
0.0773838
2.13434e-06
2.15171e-06
1.70172e-06
2.18258e-06
3.61853e-06
2.141e-06
7.06103e-06
2.00184e-06
2.10962e-06
1.82219e-06
1.75697e-06
2.61529e-06
5.96962e-06
2.72799e-06
3.90092e-06
0.0168527
1.50867e-05
3.33049e-06
3.85461e-06
2.57968e-06
0.0105518
0.00756258
2.3693e-06
2.58921e-06
1.25934e-05
0.0117724
3.81964e-06
2.12853e-05
3.10348e-06
5.01757e-06
1.75747e-06
2.24598e-06
0.00723817
1.81742e-06
2.32927e-06
0.000264038
3.47803e-06
0.0152508
0.0319325
0.00884725
0.00769021
0.0060371
2.12641e-06
0.057224
2.46393e-06
2.82095e-06
1.94865e-06
1.87639e-06
0.040225
3.2992e-06
2.61788e-06
0.0201519
0.00349664
0.00247557
1.33352e-05
2.87425e-06
1.81054e-06
0.00613034
1.77624e-06
0.000369134
2.04777e-06
2.13761e-06
2.14811e-06
2.04544e-06
2.21232e-06
2.87724e-06
1.82015e-06
1.79336e-06
2.13382e-06
0.0257757
1.79815e-06
1.93387e-06
1.35558e-05
2.15087e-06
2.79282e-06
1.92838e-06
8.39328e-06
0.0149085
2.25474e-06
1.88288e-06
3.0268e-06
1.54659e-05
9.51371e-06
0.0203601
3.92096e-06
2.01115e-06
3.2457e-06
1.95963e-06
3.80608e-06
0.02691
2.2769e-06
2.08195e-06
3.61958e-06
2.25325e-06
2.26698e-06
1.14803e-05
1.73018e-06
6.76276e-06
0.0203229
1.36161e-05
4.53813e-06
2.63335e-06
3.78063e-06
1.79053e-06
0.0193635
9.24107e-06
0.000249621
0.041894
2.83069e-06