/*--------------------------------*- C++ -*----------------------------------*\
| =========                 |                                                 |
| \\      /  F ield         | OpenFOAM: The Open Source CFD Toolbox           |
|  \\    /   O peration     | Version:  v2012                                 |
|   \\  /    A nd           | Website:  www.openfoam.com                      |
|    \\/     M anipulation  |                                                 |
\*---------------------------------------------------------------------------*/
FoamFile
{
    version     2.0;
    format      ascii;
    class       volScalarField;
    location    "300";
    object      k;
}
// * * * * * * * * * * * * * * * * * * * * * * * * * * * * * * * * * * * * * //

dimensions      [0 2 -2 0 0 0 0];


internalField   nonuniform List<scalar> 
18618
(
0.000106074
0.000539222
9.53828e-05
0.000114477
0.000105928
0.000109415
0.0192503
0.0197418
0.000326416
0.000151241
0.000105591
0.000107084
0.000100061
0.000106122
0.000108437
0.000109198
9.42853e-05
0.000106275
9.07461e-05
0.0134406
0.000108261
0.0714859
9.23925e-05
0.000107384
0.0190544
0.000348047
0.000146419
0.0612564
0.000186878
9.54962e-05
0.000103776
0.000100513
0.000102404
0.000106424
0.000106876
0.0465234
9.79119e-05
0.00155318
0.0224702
9.27318e-05
0.0351977
0.0633616
0.0235159
0.0103264
0.000100514
0.000108824
0.0239409
0.00010744
0.00014799
0.0277838
0.000145125
9.80827e-05
0.000136092
0.000156634
0.0188574
0.000915261
0.000131126
0.000130487
0.0375362
0.0183903
0.0245014
0.0296151
0.000147403
0.000111991
0.00113502
0.000208605
0.0173051
0.000100246
9.89305e-05
0.0414705
0.000158006
9.0936e-05
0.000136082
0.00692003
0.0122093
0.0483981
0.00013269
0.000111423
9.87561e-05
0.000213917
9.68576e-05
0.000106452
0.000113997
0.000103987
0.0731376
9.8067e-05
0.000914786
0.0403131
0.0284678
0.00704402
0.00010095
0.0269517
0.00137479
9.49651e-05
0.0254743
0.0298714
0.000104068
0.000287662
0.000109486
0.0252255
0.0269675
0.0131771
0.000100753
0.000782633
0.000186602
0.000177247
0.0146881
0.000105111
0.0298726
0.0217104
0.0331468
9.41636e-05
0.0264199
0.00953416
0.00011554
9.32579e-05
0.0154522
0.000114123
0.000142756
0.0120063
0.000107585
9.78639e-05
9.68889e-05
0.000110232
0.00013681
0.000194013
0.000100113
0.000949215
0.00113527
0.000143032
0.0169174
0.0148293
0.0146859
0.000126739
0.00010433
0.000103373
0.00011775
0.0381071
0.0890914
0.000108274
0.021745
0.0220266
9.91153e-05
0.000107826
9.40747e-05
0.000115669
9.35028e-05
0.000114357
0.000109085
0.000106867
0.00826159
0.00010586
0.000102496
0.000107889
9.6808e-05
0.025148
0.0321832
0.000110165
9.78762e-05
0.0971172
0.000135933
0.000107007
0.0221577
0.0106087
0.000118504
0.000105512
0.000104139
0.0620567
0.000111845
0.000303965
0.000148665
0.000101773
0.000206469
0.000761821
0.0214823
0.000115503
0.00293401
0.000107711
0.000118281
0.000101772
0.0066536
0.000106884
0.069247
0.000135545
0.000122558
0.000111456
0.00848947
0.000735985
0.000621944
0.00010622
0.000116283
0.000109491
0.000105471
9.44178e-05
9.87438e-05
0.00430328
0.000108371
0.000103967
0.0189096
0.000100875
0.00019577
0.047708
0.00838166
0.0169958
0.00297308
0.000104587
0.0245395
0.0139402
0.000130039
9.34684e-05
0.000623001
0.00048964
0.000100667
9.38098e-05
0.000104112
0.000143929
0.0287867
0.0234908
0.000107659
9.61123e-05
0.000106948
9.69005e-05
0.0317788
0.000141778
0.039503
0.00011814
9.80047e-05
0.000217576
0.000777141
0.000100514
0.000104087
0.000101518
0.000105097
0.0219826
0.000101951
0.00012551
0.000133877
0.000274211
0.00946278
9.32739e-05
0.000428187
9.80599e-05
0.000120912
0.0231964
0.000130819
0.000112724
0.00381555
0.000125833
0.0383671
0.000113801
9.51655e-05
0.0660445
0.000107394
0.0129728
0.000106525
0.000100285
0.000288221
0.000120008
9.14458e-05
9.61531e-05
0.000114908
0.0284887
0.0237584
0.000106872
0.069476
0.00226579
0.000305331
0.000107892
0.000198484
0.000108945
0.000217935
0.000118435
9.90476e-05
0.000114908
0.00014769
0.000106679
0.000105252
0.000105526
9.47572e-05
0.0312244
0.000115047
0.000133404
0.000113962
0.000102386
0.0260971
0.00011405
9.96116e-05
0.000134045
0.000134397
0.000177234
9.22619e-05
0.000127535
0.000114895
0.000103556
0.0921783
0.000814011
0.0298103
0.0264969
0.0220322
0.000100546
0.000111129
0.000111304
0.00011346
0.000104627
0.0001197
0.000129597
0.000109569
0.0207937
0.000210862
0.0308663
0.00276224
9.09882e-05
0.00103142
0.000142386
0.000135627
0.000108773
0.000102437
9.90805e-05
0.000120035
0.0124414
9.34383e-05
0.00432562
0.000126902
0.0486302
0.000138201
0.00157219
0.00583917
0.000108726
9.17855e-05
0.0711394
0.000114182
0.10335
0.000109312
0.000134966
0.000103944
0.000117489
0.0181406
0.000100876
9.3272e-05
0.026989
0.000126564
0.000147783
0.0942392
0.000230842
0.00012022
0.000138019
0.000101385
0.000201946
0.000128832
9.28863e-05
0.000121668
9.11902e-05
0.0245315
0.000128552
0.000114241
0.000122374
0.000127574
0.00012842
0.000109981
9.90124e-05
0.000104637
0.0263583
0.0636756
0.000129318
0.0174783
0.071365
0.000121288
0.000135549
0.000141602
0.000286415
0.000100846
0.000115212
0.000107508
0.000101542
9.3737e-05
0.00011126
0.000218685
0.000107507
0.00011546
0.000126963
0.000226224
0.000148685
9.98751e-05
9.1813e-05
0.000157432
0.000100083
0.000142001
0.0867824
0.00012044
0.000134436
0.000107526
0.000123099
0.0084114
0.0334622
0.000121778
0.000307422
0.0271423
0.0241209
0.000124602
0.0227786
0.000115383
0.000101626
9.73442e-05
0.0349688
0.000100718
0.0106828
0.00011869
0.000103964
9.93265e-05
0.000116121
9.68948e-05
0.000149245
0.000101249
9.10418e-05
0.000104173
0.000126501
9.19659e-05
9.3135e-05
0.000110245
0.000101744
9.37823e-05
0.0227625
9.71481e-05
0.000100116
0.000100095
0.0918984
0.000127736
9.41915e-05
0.00278531
0.0273721
0.000123911
0.000119529
0.000108633
0.000112703
9.82024e-05
0.000109004
0.00013324
0.000113741
0.000747954
0.000201083
0.000106106
0.00368133
0.000115217
0.000107244
0.0281373
0.000136115
0.000105007
0.0129344
0.000194733
0.000123187
0.000105729
0.000144564
0.000129926
0.000109845
0.00012032
0.000576532
0.000116362
9.77314e-05
0.000102134
0.0661446
0.034722
9.56146e-05
0.000218371
0.000122111
0.000232299
0.000104091
0.000119971
0.000149413
0.000700551
0.000100223
9.56792e-05
0.000110886
9.41057e-05
0.0153493
9.71315e-05
0.000101869
0.0249626
9.68416e-05
0.00321879
0.000112811
0.000291847
0.000107843
0.0251395
9.12504e-05
0.000555611
0.000113943
0.000226342
9.7365e-05
0.000132441
0.00010138
0.000443317
0.0995727
0.000103993
0.000136123
0.0217487
0.0217964
0.00036258
0.0727876
0.000107927
0.000138677
0.000148636
0.000104636
0.0171999
0.000122487
9.76299e-05
0.000208138
0.00010434
0.000105159
0.00554677
0.000515879
0.0511017
0.00010367
9.67907e-05
9.72165e-05
0.000137997
0.000131945
9.11783e-05
0.000136848
0.000145632
0.0177791
9.67729e-05
0.000131417
0.000543278
0.000139882
9.44586e-05
0.000124594
0.0165677
0.000125994
0.0114059
0.000133625
0.00921652
0.0185901
0.000104379
0.000105687
0.000135973
0.000142924
0.0232219
0.000149404
0.000104301
0.000100694
0.000112151
0.000106944
0.000130407
0.00013058
0.000122559
0.000130421
0.00348107
0.0218941
9.29048e-05
0.00011441
0.000117437
0.000172433
0.000431045
9.78915e-05
0.000658418
9.94917e-05
0.00879776
0.000122483
0.000205621
0.000136639
0.089782
9.34975e-05
0.0137962
0.000105165
0.000112806
0.000171747
0.0152881
0.000107262
0.000204039
0.000109094
0.000125369
0.0308872
0.000130051
0.0455957
0.0653326
0.0201463
0.0154629
0.00014523
0.00662757
9.66559e-05
0.000107135
0.000106099
0.000105306
0.000131468
0.000124907
9.6654e-05
0.000129339
9.94292e-05
0.00820232
0.000254216
0.000116917
0.000104458
0.000103849
9.76816e-05
0.000102186
0.000107081
0.00134033
0.0290399
0.000223609
0.000108509
0.000124718
0.0022659
0.000124715
0.000106589
0.000114328
0.000115397
0.000126007
9.16878e-05
0.000118513
0.000108922
0.0131103
0.0250364
0.0243117
0.0131721
0.0151773
0.000102251
9.7187e-05
0.0306769
0.000114046
0.000105201
9.12336e-05
9.93789e-05
0.0103746
0.000145602
0.000143604
0.000409175
9.85054e-05
0.000114231
0.000441809
0.000126438
0.000104787
0.000115123
0.0204945
9.17341e-05
0.000712424
0.000879678
0.00408148
0.000100435
0.0194305
0.000137416
0.00010002
0.000106793
0.0205033
0.000286197
9.99712e-05
0.0010738
0.000142637
0.000110735
9.86946e-05
0.000107124
0.0139393
0.000123093
9.9326e-05
0.000144309
9.21844e-05
0.000103168
0.000117288
0.00777339
0.000108324
0.000115277
0.0426583
0.000267769
0.000129195
0.00010523
0.000125413
0.000105769
0.000105206
0.00012929
0.000264971
0.000104935
0.0163409
0.00014949
0.000136068
0.000105764
0.000108227
0.000780064
0.0690668
0.000568399
0.0954643
0.000110915
0.0350411
0.000104741
0.000132247
0.000129839
0.000132044
0.0251626
0.00346467
0.000130412
9.74515e-05
0.000120036
0.00596848
9.61873e-05
0.000115594
0.000112404
0.000430638
0.00125443
0.000113165
0.000122002
0.000121528
0.0248173
0.00476322
0.000101249
0.000106983
0.000224628
9.12644e-05
9.89314e-05
0.000104034
0.0261496
9.9643e-05
0.000108188
9.18558e-05
0.000113782
9.69253e-05
0.0237002
0.00762462
0.00554308
0.000100934
0.00166484
9.9486e-05
0.000102314
0.000103388
9.19559e-05
0.0584795
0.0225885
0.0274558
0.000119707
0.024585
9.34814e-05
0.000114867
0.000121391
0.000158217
0.0152686
0.000121802
0.000108021
0.0339656
9.83556e-05
0.0237109
0.0147148
9.63421e-05
0.000117269
0.000109514
0.000134927
0.00010759
0.0197097
0.0222653
0.0335979
0.000202468
0.000223312
0.000129096
0.0162745
0.00010136
0.000113203
0.00012505
0.000100463
0.0155635
9.16451e-05
0.0535619
0.000105637
9.6824e-05
0.017984
0.000635355
9.82494e-05
0.000142724
0.000106711
0.000112092
0.000461387
0.019598
9.84773e-05
0.000110838
0.0587166
0.000126952
0.000106589
0.000115342
0.000119445
0.000117102
0.000103414
0.0223786
0.000649449
0.000108176
0.00012357
0.00010308
0.0493602
9.04785e-05
0.000115743
0.0155123
0.000104659
9.57543e-05
0.00538005
0.0170677
0.00294223
0.000120317
9.94134e-05
0.00012998
0.000110922
0.000136649
0.0269494
0.000125802
0.000305995
0.0174499
0.000105183
0.000113303
0.000106561
0.00010156
0.000101123
0.000126567
9.92931e-05
0.0135808
0.000107473
0.000100163
0.0135484
0.000351106
0.00010781
0.000140256
0.000122525
0.000103381
0.000116163
9.27407e-05
9.95573e-05
0.000108032
9.13294e-05
0.000100638
0.000106739
9.5038e-05
0.0359579
0.000114401
0.0253841
0.0103753
0.000107792
0.000367903
0.000133338
0.00012754
9.639e-05
0.0022317
0.029455
9.61442e-05
0.000107825
0.0398712
0.000120687
0.000103761
0.000104312
0.00313894
9.66577e-05
0.0137444
0.000110336
0.000101833
0.0259314
9.88742e-05
0.000120783
9.30747e-05
0.000129049
0.00982619
0.0176158
0.040079
0.000118736
0.0317728
0.0242701
0.0679223
0.0175139
0.000107379
0.0162224
0.000117656
0.00010882
0.0001057
0.000141191
0.00250878
0.000110435
0.000102927
0.000103385
0.000184487
0.000119105
9.93999e-05
0.0397393
0.000108517
0.0001039
0.0185391
0.000108511
0.000127604
0.0143641
0.000108631
0.000102744
0.000102694
0.00010181
0.00011252
0.000107025
0.000133116
0.00572927
0.0368787
0.000222117
9.36932e-05
0.0150839
0.0202081
9.93569e-05
0.00010573
9.20348e-05
0.000960698
0.0001178
0.000116264
0.000101003
9.52579e-05
0.000117271
0.000148707
0.000136827
0.000208108
0.000120706
9.94738e-05
0.000223984
0.000319754
0.000107758
0.000104477
0.000128723
0.000107293
0.00011906
0.000105936
9.62378e-05
9.99399e-05
0.0367764
0.000124166
0.000760701
0.000137422
9.20656e-05
9.72859e-05
9.35124e-05
9.96036e-05
0.000106467
0.0542103
0.0113272
0.0282213
0.000124008
0.000106848
0.000644534
0.000144737
0.000148469
0.00010904
0.000106238
9.4162e-05
0.000116825
0.000890605
0.0318855
0.000113616
0.000119326
0.0295413
0.0282848
0.000133516
0.000177079
0.0467288
0.0132477
0.000124799
0.000100321
0.000119898
0.000121002
0.0002939
9.68233e-05
9.93385e-05
0.00118178
0.000116176
9.79853e-05
0.000127405
9.45194e-05
0.000128069
9.72275e-05
0.0648947
0.00010532
9.71947e-05
9.42582e-05
0.00011568
0.000117448
9.29789e-05
0.0223868
0.0162739
0.000101114
9.37268e-05
0.00542355
0.000104125
9.35432e-05
0.000103897
0.000101395
0.0148909
9.49325e-05
9.86723e-05
0.000108043
0.0579759
0.000114487
0.000108601
0.0662664
0.000100811
0.00073934
9.735e-05
0.0161518
0.000137094
0.000121121
0.0459607
0.000104638
0.035078
0.000116293
0.00434233
0.0914228
0.000113815
0.000220044
0.0474118
0.000180083
0.019637
0.000138168
0.000124489
0.000115983
0.00012552
0.000123942
0.000144162
9.82147e-05
0.0670056
0.000140205
0.00010771
9.84983e-05
0.000102824
0.000135613
0.000144494
0.000103528
0.000128194
9.29751e-05
0.00010562
0.00010028
0.000118745
0.00437373
9.81584e-05
0.000133285
0.000101307
0.000302919
0.000100346
0.0382798
0.000328048
0.0254863
0.000130291
0.000100107
0.00447129
0.0616975
0.000108256
0.0466
0.000122765
0.00926038
0.000233416
0.000102379
0.000128394
9.80806e-05
0.0466765
9.8824e-05
9.83133e-05
0.000126888
0.000123461
9.69214e-05
0.00030016
0.000134523
0.000219312
9.37225e-05
0.000134903
0.0429424
0.000108093
0.000109782
0.00488
0.000113075
0.000102558
0.0975238
0.000110166
0.000114742
0.000226845
0.000109332
9.1039e-05
0.000157448
0.000100541
0.00010219
0.000107827
9.69831e-05
0.000132277
0.0756616
0.000129038
0.00498139
9.70046e-05
0.000135118
0.000108685
9.56764e-05
9.40742e-05
0.000775286
0.00734794
0.00010084
0.000133815
0.0147874
0.0164025
0.0629687
0.000104417
0.000124643
0.000105337
9.41926e-05
0.000143199
9.17477e-05
9.57221e-05
9.93862e-05
9.56099e-05
0.000115597
9.70374e-05
0.00013443
9.99435e-05
0.000116585
0.000102521
0.000160177
0.0217941
0.00020965
0.0754693
0.000114477
0.000129907
0.000134203
0.0499885
0.00113174
0.000104591
9.8073e-05
0.00014468
0.0501006
0.00742851
0.000122127
0.000108845
0.042291
0.0402233
0.000988622
0.000108731
0.000505897
9.9251e-05
0.000107375
0.00011917
0.000129101
0.000101526
0.000106601
9.40435e-05
0.000106184
0.00856147
0.00264611
0.000112406
9.47093e-05
0.000137381
0.000117107
0.000470559
0.000100331
0.00014234
0.000101049
0.000100671
0.000109481
9.99948e-05
0.000111626
0.000766287
9.84026e-05
0.000158867
0.000113639
0.000119235
0.00011364
0.000145799
0.0356404
0.000140928
0.000112567
0.0206485
0.00011209
0.000114019
9.87617e-05
0.000138774
0.0588022
9.50317e-05
0.000142676
0.000391656
0.000100632
0.000141572
0.0247426
0.000121105
0.000131641
0.000107334
9.83245e-05
0.000145153
9.08518e-05
0.0249591
0.000120451
0.000123464
0.000104585
0.000228609
0.00012975
0.0105196
0.0485488
0.000102858
0.000176443
0.0201595
0.000135098
0.0166475
0.000130305
0.000112442
0.000135402
0.0164815
0.000120623
9.66285e-05
0.000100989
9.35894e-05
0.000100847
0.0392486
0.00195544
0.00010124
0.0142077
0.000148693
9.76363e-05
0.000113148
0.000101766
9.23977e-05
0.000108356
0.000141904
0.000131029
0.02212
0.0276472
0.000100526
0.000102391
9.83993e-05
0.0234823
0.000173919
0.000103554
0.000144259
0.0276566
0.00010684
0.000112455
0.000119773
0.000584601
0.000111801
0.000121165
0.000115457
0.000133671
0.0001009
0.000123495
9.75747e-05
0.00011946
0.000116333
9.7074e-05
0.000124934
0.000105456
0.000145174
0.000141754
9.5571e-05
0.0331905
9.15683e-05
0.000130422
0.0352238
0.0371546
0.000102162
9.4618e-05
0.000114274
0.000115358
0.000108444
9.47148e-05
0.0459079
0.0375167
0.000104432
0.000104338
0.000108189
0.000121904
0.0217653
0.000767995
0.00011201
0.000102228
0.000103204
0.0298533
0.000113419
0.0321384
0.000214539
0.0156972
0.00010679
0.000729666
0.000107434
9.44187e-05
0.000137519
0.000100554
0.0064653
0.064269
0.000106777
0.000117053
9.01347e-05
0.000351969
0.000356788
0.000106574
0.000107563
9.07555e-05
0.000101865
9.98413e-05
0.000237251
0.00011676
0.00308492
0.000120854
0.0104328
0.000101829
0.000102834
0.00010583
0.000102887
0.0166968
0.0197205
0.0001143
0.000100228
9.57243e-05
9.70615e-05
0.000148067
0.000121385
0.000103034
0.000101818
9.48146e-05
0.000106609
0.000101823
0.000133141
0.000239323
0.000103891
0.000101964
0.000143117
0.000245109
0.000105636
9.82346e-05
0.000145268
0.00010503
0.000100156
9.79802e-05
0.000106585
9.8958e-05
0.000107297
0.0249097
0.000113646
0.000105136
0.000647385
0.000137454
0.000101015
9.1984e-05
9.8029e-05
0.0120954
0.000101517
9.97556e-05
0.000469768
0.000107958
0.000348361
0.000109302
0.000112767
0.000151214
0.000113905
0.000540992
0.000133398
0.000416926
0.010841
0.0146505
0.000274636
0.000105476
0.000117858
9.51435e-05
0.000249138
0.000146072
0.000114735
0.000129804
0.0167628
0.000104904
0.0468478
0.000105933
0.0647506
0.000127881
0.000136057
0.000101237
0.00010412
9.02577e-05
0.000101083
0.000108188
9.92269e-05
9.93571e-05
0.000497483
0.0126194
0.000426392
0.0377239
0.000313159
9.39372e-05
0.000113359
9.81861e-05
9.67842e-05
0.00412378
0.000119245
0.000200385
0.000191397
0.0608076
0.0208099
0.0132727
0.000177767
0.0506701
0.0726917
0.0142668
9.62427e-05
0.00010495
9.42961e-05
0.000146057
0.0589369
0.0137788
0.000101612
0.000402324
0.000105049
0.000105367
0.000122697
0.000133633
0.0014749
0.000102664
0.00295559
0.0477369
0.000133531
0.0491323
9.84622e-05
0.0268937
0.013679
9.84665e-05
0.000108628
0.000172599
0.000108285
0.000116797
0.000108515
9.71658e-05
9.28657e-05
0.000100918
9.44875e-05
0.00216003
9.61283e-05
0.0363737
0.000143999
0.000108002
0.000133911
0.000200409
0.000180186
0.000116857
9.96511e-05
0.000100874
0.000110929
0.000138804
0.000101724
0.000102933
0.0176502
0.000298891
9.43972e-05
0.000127573
9.7796e-05
9.50137e-05
9.58461e-05
0.000101999
9.12617e-05
0.000110438
0.000611943
0.000194998
0.0149778
9.0835e-05
0.0421576
0.000113283
9.59574e-05
0.000100688
0.000112269
0.00014699
0.000122948
9.83147e-05
9.94897e-05
0.000123989
0.0204889
0.00013127
0.0989217
0.0168379
0.000106603
9.90391e-05
0.07265
9.74787e-05
0.000197739
0.000830265
0.0687383
0.000117814
0.0422906
0.0251412
0.000108802
0.035218
0.0137161
9.42288e-05
0.000131052
0.00036373
0.000106542
0.000325755
0.000127574
0.0146454
0.000106359
0.000106069
0.00019408
9.43157e-05
0.000105132
0.000107354
0.000341861
0.0363594
0.00012856
0.0211208
9.7579e-05
0.0289748
0.0369997
0.0130628
9.61282e-05
0.000108882
0.00013109
0.023202
9.91689e-05
0.000105408
0.0106233
0.0222292
0.000114946
9.97888e-05
0.000216746
9.27401e-05
0.0001282
0.0033491
9.52547e-05
0.0139379
0.0172479
0.000100448
0.00971689
0.000121066
9.5325e-05
9.7562e-05
0.000197458
0.00022443
0.0150046
0.000149908
0.00011222
0.000101985
0.000404963
0.000145931
0.000147248
0.000433708
0.000107083
0.0356668
0.000140224
0.000396282
0.000133205
0.000800325
0.000218935
0.0495186
0.0157406
0.000112634
0.0258864
0.000114745
0.000101744
0.000100279
9.28262e-05
0.000118243
9.5418e-05
0.000113613
0.000184035
0.000109337
0.000134457
0.000130865
0.0345306
0.000262337
0.000109465
0.000115423
0.0695731
0.000101683
0.000172449
9.66542e-05
0.000139282
0.0264605
9.30282e-05
0.000130342
0.000322227
9.88106e-05
0.000172617
0.0775875
0.0275016
0.000100168
0.00302234
0.000121609
0.000109585
0.000106229
0.000107002
0.000418929
0.000107312
9.84265e-05
0.000130168
0.0230922
0.000105118
0.000117666
0.000105902
9.30295e-05
0.0334237
9.29384e-05
0.000106489
0.000107326
0.000121516
0.0694207
0.000143738
0.000142673
0.00954419
0.000109439
0.0229518
0.000100257
0.000102989
0.000118864
0.000683349
0.0511025
0.000120932
0.000109648
0.000112314
0.000134382
9.54253e-05
0.000122153
0.00628271
0.0558662
0.0336702
0.0177022
0.000389975
9.9618e-05
0.0476804
0.000123065
0.00091664
9.4653e-05
0.000104885
9.98587e-05
9.88521e-05
0.000135632
9.12649e-05
0.000181926
0.00012673
0.0714881
9.55347e-05
0.000114124
0.000154535
0.000112537
0.000172143
0.0198487
0.000115045
9.98747e-05
0.000135082
0.000110282
0.000106165
9.31362e-05
0.000133721
9.27022e-05
0.00851478
0.0193592
9.43495e-05
0.000101387
0.000112164
0.000113357
0.000145401
0.000105756
0.000126862
0.000109701
0.000139723
9.69893e-05
0.000118842
0.02891
9.47017e-05
0.000138601
0.000107082
0.00207763
0.0186414
0.000132304
0.000132956
9.83328e-05
0.000128432
0.0149571
0.0238959
0.00930957
0.0353575
0.000100209
0.000164431
0.000104315
0.000117464
0.000240351
0.000116201
0.000103111
0.0303138
0.000105522
0.000127865
0.0569747
0.0318955
0.000143251
0.000102001
0.000105708
0.000128363
0.000103159
0.012114
9.60612e-05
0.00010263
0.000188768
0.000100079
0.000147928
0.0342694
0.000111707
0.0797836
0.0235921
0.00554705
0.000128585
0.000131666
0.000106764
0.000107237
0.0128506
0.000170774
0.0735059
0.000108203
0.00013593
0.0420776
0.000147324
0.000108834
0.000175337
0.000148118
0.000147452
0.00859102
0.0362027
0.000237142
9.20992e-05
0.0128138
0.000246307
0.000102607
9.90249e-05
0.000108975
0.0018448
0.000106202
0.000118346
0.000106576
0.000102535
0.000144117
9.53302e-05
0.000100651
0.00257889
9.68182e-05
9.51635e-05
0.000148826
0.019792
0.0113916
0.0217339
0.0313472
9.73822e-05
0.0016592
0.00891428
0.000105224
0.000110429
0.000111398
0.000113716
0.000118718
0.000127598
9.67226e-05
0.000100605
0.000121123
0.000122124
9.96466e-05
0.000108076
0.000100644
0.000109203
0.000146978
0.0386153
9.85242e-05
0.0200007
0.000101649
0.000104604
0.000111573
0.000132073
0.0238938
0.000157604
9.89747e-05
0.0367683
9.74107e-05
0.000128057
9.69855e-05
0.000119062
0.000207827
9.39306e-05
0.000102912
0.000116026
0.000807431
0.000840362
0.034856
0.000145252
0.000353503
0.0267412
0.00013166
0.000105724
0.000112603
0.000117842
0.000148066
0.0174237
0.0293766
0.0253158
0.000520489
0.000100475
0.000221595
0.000104451
0.000138884
9.58297e-05
0.000109928
0.000100254
0.000141151
0.0701389
0.000222565
0.0408205
0.00081927
0.000404019
0.000123378
0.0249242
0.000121877
0.0905439
0.000131131
0.000252725
0.0685933
0.000597208
0.000118307
0.0273639
0.000128779
0.000350222
0.00012118
0.000103543
0.000106463
0.000121636
0.000108501
9.99731e-05
0.000141089
9.21695e-05
0.000122373
0.00010603
0.000127604
9.39134e-05
0.000110627
0.000131214
0.0171134
0.000106503
0.000145948
0.000277967
0.000127037
0.00613077
9.32248e-05
0.0525994
0.00261583
0.000219861
0.0440214
0.000118434
0.000117325
9.20993e-05
0.000103457
0.0472382
9.60723e-05
0.000103462
0.000102547
0.0934584
0.033156
0.015128
0.000129166
0.000228348
0.000122629
0.000141177
0.0152929
0.000389489
0.000104165
0.000129442
0.000132807
0.000147853
0.000253105
0.000113546
0.000111347
9.05384e-05
9.37366e-05
9.30619e-05
0.0405325
0.000105738
0.0052745
0.0148257
0.00011252
0.0153103
0.00017414
0.0153576
0.00010368
0.000105358
9.40367e-05
0.000862363
9.58725e-05
0.000133784
0.0156724
0.100486
0.000149518
0.000195688
0.000112359
0.00016985
0.0360248
0.000153728
0.000116011
0.000105929
9.93654e-05
9.53105e-05
0.000116918
0.000114528
0.000147336
0.000155722
0.000660325
0.000754653
0.000360159
0.0133851
0.000107307
0.000281526
0.000130053
0.000101292
0.000107922
0.000107314
0.000115953
0.000106229
0.0408846
0.000105523
0.000127891
0.000110076
9.18865e-05
0.000112128
0.000103067
0.000138173
0.000131161
0.0222087
0.000106579
0.000120601
0.000109326
0.000284817
0.000482545
0.000105497
0.000101393
0.0393475
0.000113712
9.66097e-05
0.0978118
0.00011289
9.87203e-05
0.0365597
0.000113256
0.0314874
0.000495805
0.000134941
0.0111238
0.000102332
0.000322722
0.000100981
0.000112196
9.7483e-05
0.000107352
0.00013335
0.000106101
0.0236328
0.020566
0.000224284
0.000116628
0.000115171
0.000107434
0.000287591
9.54869e-05
0.000104502
0.000112472
0.0927668
0.000128827
0.000105485
0.000115864
0.000114021
0.000414619
0.000101048
0.000163747
0.000116796
0.00011242
0.000104758
0.0285122
0.0138449
9.73481e-05
0.000340911
0.000116465
9.46765e-05
0.00387423
9.0909e-05
0.0415376
0.000768658
0.000125472
9.1843e-05
9.44397e-05
0.000100836
0.064387
0.0196204
0.000134283
0.00609425
9.99884e-05
0.000126846
0.000521473
0.00012224
0.000128257
0.000146823
9.90102e-05
0.000165018
0.0920302
0.000168796
9.9794e-05
0.00011132
0.000107808
0.000129642
0.000125743
0.0240847
0.00062497
0.000224883
0.000110093
9.74971e-05
0.0253622
9.56953e-05
0.0548354
0.01904
0.00269791
0.020745
0.000188087
0.000101691
0.000122407
0.000449379
0.000106647
9.99589e-05
0.000661497
0.000395799
0.000141634
0.0202434
0.000159703
9.46047e-05
0.000123127
0.000137695
0.0323681
9.65749e-05
9.61928e-05
0.0033145
0.0455925
9.99624e-05
0.0288476
0.0192813
0.0207134
0.00751304
0.000117881
0.000128732
0.0521743
0.000121286
0.000110279
0.000134975
0.0083296
0.000128695
0.000105672
9.49202e-05
0.000108467
9.82851e-05
0.00760964
0.000102198
0.0329492
0.000135519
0.0160209
9.9543e-05
0.021824
0.000111114
0.000119198
9.84582e-05
0.000138895
0.0354764
0.00674366
0.000105312
0.02004
9.8525e-05
0.000141554
9.51321e-05
0.000129905
0.0191799
0.000286125
0.045579
0.0299504
9.49778e-05
0.000138663
0.000127245
0.000123235
0.025829
0.000107893
0.000113904
0.000104814
0.000127243
0.000135552
0.000107823
0.000107829
0.0695407
0.0264142
9.28608e-05
0.000107902
0.00053235
0.0282579
0.0675269
0.000139486
0.000111861
0.0555678
0.00522842
0.000106765
0.000114914
0.000104343
0.00854401
0.000107827
0.000773261
0.000105306
0.000110238
0.000125024
9.43056e-05
0.000131355
0.000140857
0.000109173
0.0352179
0.000106164
0.0509938
0.00013448
0.000222724
0.0533673
0.000107625
0.000123056
0.000101029
0.000157667
0.000109844
9.90008e-05
0.000106934
0.037326
0.038222
0.000137814
0.000129065
9.60208e-05
0.000130062
0.000217204
9.06368e-05
0.000104549
0.000145572
9.51316e-05
0.000107642
0.000102336
0.0990783
0.000105143
0.0271732
0.000138796
9.43685e-05
0.000226238
9.8726e-05
0.04402
0.000272108
0.000106851
0.0639424
0.000113364
9.16065e-05
0.000104501
0.000104173
0.000101356
0.000126405
0.000114581
0.000216032
0.000119399
9.03768e-05
0.000124939
0.000180196
0.00010716
0.000600847
0.000124248
0.000118377
0.000316395
0.000132881
0.000110644
0.000124219
0.0146588
0.000118438
0.000239086
0.000132007
0.000131849
0.000121332
0.000282041
0.000126989
0.000146311
0.000104531
0.000128003
0.00601322
0.0503651
0.000110397
0.0417093
0.000100353
0.000128169
0.000111195
0.000112063
0.000733321
0.000124244
0.000129711
0.0465486
0.010694
0.000115893
0.000133761
0.000110088
0.000118266
0.000101526
0.00022306
0.000111397
0.000139517
0.000153805
0.000106706
0.0516058
0.000522861
0.000106512
0.0266987
0.000103885
0.000445213
0.0436627
0.000139184
0.000103646
0.00790908
9.60249e-05
0.000115816
0.00782563
0.0427666
0.000103942
9.96823e-05
0.000102113
0.00011788
0.00171612
0.000107225
0.000125048
0.0203043
9.51197e-05
9.97856e-05
0.0919646
0.000114239
0.011947
9.65782e-05
9.71746e-05
0.000493669
9.97427e-05
0.000126655
9.79433e-05
9.93634e-05
0.000175396
0.00240841
0.000104075
0.000107747
0.000192152
0.029557
0.0514711
0.000114923
0.0274658
0.000382375
0.0458461
0.0205221
0.0397811
0.000103411
9.67935e-05
0.00024313
0.000129871
0.000111185
0.000132844
9.04963e-05
0.021066
0.000140005
0.000103811
0.00010261
0.02615
0.0204358
0.0381384
0.000114611
0.0496516
0.000106305
0.00013523
0.00010019
0.0128118
0.000331941
9.87963e-05
0.000116556
0.000101415
0.0249894
0.000100196
0.0210853
0.00618846
0.000245621
0.000104204
9.46571e-05
9.72883e-05
0.000113087
0.000130196
0.000110111
9.01976e-05
0.000109573
0.000110322
9.25862e-05
0.000383913
0.000124169
0.000104363
0.0267791
0.000105137
0.000132089
9.19009e-05
0.102582
0.00032994
0.000108218
0.000115616
9.27934e-05
0.000125826
0.000102738
0.0171831
9.69432e-05
0.00472227
0.00010692
0.000109146
0.000112713
0.000137435
0.00010762
0.016097
0.000277554
0.000122963
0.000387965
0.022161
0.000504969
9.34161e-05
0.0656973
0.000108815
0.0487492
0.0122465
0.000137042
0.00010369
0.0534087
0.000148022
0.0423087
0.000104637
0.0593692
9.43825e-05
0.000130416
0.000219674
9.2634e-05
0.00805375
0.00010912
9.35799e-05
0.018737
0.000173155
0.000149477
0.000110299
0.000100106
0.00534679
0.000216877
0.00017374
0.0466805
0.000134801
0.0165651
0.000115687
9.75106e-05
9.83573e-05
0.00898415
0.0489111
0.000119429
0.000153926
0.000106387
0.000109124
0.000109156
9.61757e-05
0.000120166
0.0457053
0.000107587
0.000104591
0.000461576
9.38508e-05
0.000314116
0.000225744
0.0841566
0.000251967
0.000104115
0.000136047
0.000280532
0.000106237
9.11753e-05
9.59461e-05
9.47448e-05
0.00010688
0.000100754
0.000105911
0.000116086
0.000122437
0.000103945
9.8375e-05
0.000100198
0.000148936
0.000123137
9.41423e-05
0.00010151
0.000113796
0.000136113
0.000262328
0.0225643
0.000124394
0.0281666
0.0224713
0.0662956
0.0524634
0.016193
0.000137106
0.000227478
0.0416713
0.000121734
0.000146103
9.8283e-05
0.020372
0.000175254
0.000121392
0.000102599
0.0224347
9.11554e-05
0.000489426
0.0214632
0.000679306
0.0496123
0.014254
9.2487e-05
0.00011401
0.000114727
9.59777e-05
0.000106454
0.000124558
9.61376e-05
0.000119847
0.00021488
0.000102705
0.000124358
0.000107324
9.93674e-05
0.000156446
0.000109831
9.58849e-05
0.0110802
0.000103493
0.000102442
0.000129308
0.0847638
0.000104703
0.000104523
9.24253e-05
0.000105951
0.000136923
0.000104217
0.000252937
0.000100598
0.000105408
9.5914e-05
9.41395e-05
0.000124568
0.000216425
0.000118167
0.000142382
0.025741
0.00041676
0.000131117
0.000141483
0.000114799
0.0291795
0.0165027
0.000109809
0.00011499
0.000364797
0.0155562
0.000140793
0.000529935
0.000141809
0.000195645
9.43144e-05
0.00010804
0.0246397
9.56464e-05
0.000108848
0.00245002
0.000150518
0.0364945
0.0569088
0.0147219
0.025709
0.0182648
0.000103815
0.0777174
0.0001121
0.000120247
9.98356e-05
9.74846e-05
0.0644233
0.000130458
0.000121844
0.0210668
0.0131629
0.0104931
0.000386806
0.000121427
9.55111e-05
0.0219214
9.45477e-05
0.00310914
0.000102633
0.000104181
0.00010445
0.000101806
0.000106461
0.000121494
9.57433e-05
9.53314e-05
0.000104117
0.0512499
9.51443e-05
0.000100428
0.000385913
0.000107173
0.000119632
9.88105e-05
0.000274869
0.0355414
0.000107102
9.76999e-05
0.000135897
0.000423817
0.000320878
0.0449671
0.000161727
0.000100858
0.000129357
0.000102218
0.000140566
0.0466352
0.000110763
0.000102856
0.000136931
0.000107218
0.000112781
0.000343386
9.44402e-05
0.000244496
0.0361132
0.000402087
0.000181208
0.000116053
0.000140062
9.49078e-05
0.0436834
0.000309126
0.0029776
0.0545056
0.000120481
0.000125787
0.000118888
0.0255122
0.0184775
0.000133909
0.0307778
0.000100271
9.5491e-05
0.022406
9.12728e-05
0.000104361
0.00426842
0.000106053
0.000147917
0.000103079
0.000131704
0.000257018
0.000147412
0.000105732
0.000354779
0.000459935
0.000101601