/*--------------------------------*- C++ -*----------------------------------*\
| =========                 |                                                 |
| \\      /  F ield         | OpenFOAM: The Open Source CFD Toolbox           |
|  \\    /   O peration     | Version:  v2012                                 |
|   \\  /    A nd           | Website:  www.openfoam.com                      |
|    \\/     M anipulation  |                                                 |
\*---------------------------------------------------------------------------*/
FoamFile
{
    version     2.0;
    format      ascii;
    class       volScalarField;
    location    "300";
    object      k_0;
}
// * * * * * * * * * * * * * * * * * * * * * * * * * * * * * * * * * * * * * //

dimensions      [0 2 -2 0 0 0 0];


internalField   nonuniform List<scalar> 
18618
(
0.000106074
0.00053922
9.53829e-05
0.000114476
0.000105928
0.000109414
0.0192501
0.0197417
0.000326417
0.00015124
0.000105591
0.000107084
0.000100061
0.000106123
0.000108437
0.000109196
9.42858e-05
0.000106274
9.07461e-05
0.0134401
0.000108262
0.0714862
9.23924e-05
0.000107384
0.0190544
0.000348048
0.000146421
0.0612572
0.000186877
9.54958e-05
0.000103776
0.000100513
0.000102404
0.000106424
0.000106876
0.0465237
9.79122e-05
0.00155316
0.0224702
9.2732e-05
0.0351979
0.0633619
0.0235158
0.0103263
0.000100514
0.000108824
0.0239408
0.00010744
0.000147989
0.0277836
0.000145126
9.80821e-05
0.000136091
0.000156636
0.0188569
0.000915267
0.000131128
0.000130489
0.0375364
0.0183903
0.0245014
0.029615
0.000147402
0.000111991
0.00113503
0.000208604
0.0173051
0.000100247
9.89305e-05
0.0414707
0.000158004
9.09358e-05
0.000136082
0.00691966
0.0122093
0.0483984
0.00013269
0.000111423
9.87553e-05
0.000213915
9.68576e-05
0.000106451
0.000113995
0.000103987
0.0731379
9.80669e-05
0.000914809
0.0403133
0.0284676
0.00704397
0.00010095
0.0269517
0.00137473
9.49656e-05
0.0254743
0.0298712
0.000104068
0.000287669
0.000109486
0.0252254
0.0269673
0.0131768
0.000100754
0.000782606
0.000186601
0.000177248
0.014688
0.000105111
0.0298725
0.0217102
0.0331469
9.41631e-05
0.0264198
0.00953409
0.00011554
9.32574e-05
0.015452
0.000114123
0.000142755
0.0120062
0.000107584
9.7864e-05
9.68885e-05
0.00011023
0.000136812
0.000194017
0.000100113
0.000949232
0.00113525
0.000143034
0.0169173
0.0148292
0.0146854
0.00012674
0.000104331
0.000103374
0.00011775
0.0381072
0.0890915
0.000108274
0.0217449
0.0220264
9.91151e-05
0.000107826
9.40742e-05
0.000115669
9.35031e-05
0.000114356
0.000109085
0.000106868
0.00826129
0.000105859
0.000102496
0.000107889
9.68076e-05
0.0251479
0.0321828
0.000110165
9.78757e-05
0.0971175
0.000135935
0.000107007
0.0221576
0.0106085
0.000118503
0.000105511
0.000104139
0.062057
0.000111843
0.000303972
0.000148665
0.000101773
0.00020647
0.000761814
0.0214822
0.000115505
0.00293415
0.000107711
0.000118282
0.000101772
0.00665334
0.000106884
0.0692477
0.000135546
0.000122558
0.000111456
0.00848932
0.000735989
0.000621962
0.00010622
0.000116284
0.000109491
0.00010547
9.44189e-05
9.87439e-05
0.00430319
0.000108371
0.000103967
0.0189095
0.000100874
0.000195776
0.047708
0.00838125
0.0169957
0.00297322
0.000104587
0.0245395
0.0139399
0.000130039
9.34685e-05
0.000622999
0.000489632
0.000100668
9.38096e-05
0.000104112
0.000143928
0.0287864
0.0234907
0.000107659
9.61131e-05
0.000106948
9.69002e-05
0.0317787
0.000141779
0.0395032
0.000118139
9.80049e-05
0.000217571
0.000777128
0.000100514
0.000104087
0.000101519
0.000105097
0.0219825
0.000101951
0.00012551
0.000133878
0.000274216
0.00946233
9.32742e-05
0.000428188
9.80605e-05
0.000120912
0.0231963
0.000130821
0.000112723
0.00381545
0.000125832
0.0383672
0.000113802
9.5166e-05
0.0660448
0.000107394
0.0129727
0.000106526
0.000100285
0.000288228
0.000120008
9.14458e-05
9.61532e-05
0.000114909
0.0284884
0.0237584
0.000106873
0.0694764
0.00226575
0.000305336
0.000107892
0.000198487
0.000108945
0.00021793
0.000118435
9.90476e-05
0.000114908
0.00014769
0.000106679
0.000105251
0.000105527
9.47577e-05
0.0312243
0.000115048
0.000133404
0.000113961
0.000102387
0.026097
0.000114049
9.96128e-05
0.000134046
0.0001344
0.000177233
9.22618e-05
0.000127534
0.000114895
0.000103556
0.0921784
0.000814004
0.0298103
0.0264967
0.0220321
0.000100546
0.00011113
0.000111304
0.000113461
0.000104627
0.000119701
0.000129597
0.00010957
0.0207937
0.000210861
0.030866
0.00276209
9.09882e-05
0.00103144
0.000142386
0.000135627
0.000108772
0.000102437
9.90805e-05
0.000120036
0.0124412
9.34379e-05
0.00432545
0.000126901
0.0486302
0.000138201
0.00157214
0.00583905
0.000108726
9.17855e-05
0.0711398
0.000114182
0.10335
0.000109312
0.000134966
0.000103945
0.000117489
0.0181406
0.000100877
9.32722e-05
0.0269887
0.000126562
0.000147782
0.0942393
0.000230844
0.00012022
0.00013802
0.000101385
0.000201947
0.000128831
9.28858e-05
0.000121668
9.11898e-05
0.0245313
0.000128551
0.000114241
0.000122374
0.000127574
0.000128418
0.000109979
9.90126e-05
0.000104638
0.0263582
0.0636759
0.00012932
0.0174783
0.0713653
0.000121288
0.000135549
0.000141602
0.00028642
0.000100846
0.000115211
0.000107506
0.000101541
9.37367e-05
0.00011126
0.000218681
0.000107504
0.00011546
0.000126964
0.000226228
0.000148685
9.98757e-05
9.1813e-05
0.000157434
0.000100083
0.000142004
0.0867826
0.00012044
0.000134436
0.000107527
0.000123099
0.00841112
0.0334623
0.000121777
0.000307418
0.0271423
0.0241207
0.000124602
0.0227785
0.000115383
0.000101626
9.73448e-05
0.0349685
0.000100718
0.0106826
0.00011869
0.000103964
9.93263e-05
0.000116121
9.6894e-05
0.000149245
0.000101249
9.10413e-05
0.000104174
0.000126501
9.19663e-05
9.31349e-05
0.000110245
0.000101744
9.37824e-05
0.0227624
9.71483e-05
0.000100116
0.000100094
0.0918985
0.000127736
9.4191e-05
0.00278538
0.027372
0.000123911
0.000119529
0.000108632
0.000112703
9.82027e-05
0.000109004
0.00013324
0.000113742
0.000747961
0.000201084
0.000106107
0.00368141
0.000115219
0.000107244
0.0281372
0.000136117
0.000105007
0.0129343
0.000194733
0.000123187
0.000105728
0.000144565
0.000129927
0.000109845
0.00012032
0.000576549
0.000116362
9.77318e-05
0.000102134
0.0661449
0.0347216
9.5615e-05
0.000218371
0.000122111
0.000232299
0.00010409
0.000119971
0.000149413
0.000700553
0.000100223
9.56795e-05
0.000110886
9.41051e-05
0.015349
9.71309e-05
0.00010187
0.0249626
9.6842e-05
0.00321859
0.000112811
0.000291843
0.000107843
0.0251392
9.12504e-05
0.000555615
0.000113942
0.000226345
9.73651e-05
0.000132443
0.00010138
0.000443322
0.0995727
0.000103994
0.000136123
0.0217486
0.021796
0.000362581
0.0727878
0.000107927
0.000138677
0.000148636
0.000104635
0.0171999
0.000122487
9.76306e-05
0.000208139
0.00010434
0.000105159
0.00554647
0.000515888
0.0511019
0.000103671
9.67911e-05
9.72171e-05
0.000137998
0.000131945
9.1178e-05
0.000136847
0.000145631
0.0177791
9.67725e-05
0.000131417
0.000543279
0.000139881
9.44581e-05
0.000124594
0.0165676
0.000125993
0.0114059
0.000133625
0.00921623
0.01859
0.000104379
0.000105687
0.000135972
0.000142925
0.0232219
0.000149404
0.000104301
0.000100694
0.000112151
0.000106945
0.000130408
0.00013058
0.000122559
0.000130421
0.00348086
0.0218939
9.29048e-05
0.00011441
0.000117437
0.000172433
0.000431046
9.78908e-05
0.000658404
9.94928e-05
0.00879771
0.000122482
0.000205624
0.000136638
0.0897821
9.34974e-05
0.0137961
0.000105166
0.000112806
0.000171747
0.0152879
0.000107262
0.000204041
0.000109094
0.000125369
0.0308871
0.000130051
0.0455956
0.0653327
0.0201462
0.0154627
0.00014523
0.00662723
9.66564e-05
0.000107135
0.000106099
0.000105306
0.000131468
0.000124906
9.66543e-05
0.000129339
9.94283e-05
0.00820221
0.000254215
0.000116917
0.000104458
0.00010385
9.7678e-05
0.000102186
0.000107081
0.0013403
0.0290396
0.000223609
0.00010851
0.000124717
0.00226585
0.000124717
0.000106589
0.000114328
0.000115397
0.000126007
9.16879e-05
0.000118514
0.000108922
0.0131104
0.0250364
0.0243116
0.0131719
0.015177
0.000102251
9.71876e-05
0.0306766
0.000114046
0.000105201
9.12332e-05
9.93798e-05
0.0103742
0.000145602
0.000143605
0.000409181
9.8505e-05
0.000114231
0.000441819
0.000126436
0.000104787
0.000115123
0.0204943
9.17339e-05
0.000712434
0.000879683
0.00408123
0.000100435
0.0194304
0.000137418
0.00010002
0.000106793
0.0205033
0.000286192
9.99707e-05
0.00107378
0.000142638
0.000110734
9.86945e-05
0.000107125
0.0139393
0.000123093
9.93273e-05
0.000144308
9.21845e-05
0.000103168
0.000117289
0.00777312
0.000108323
0.000115277
0.0426584
0.000267773
0.000129195
0.000105229
0.000125415
0.000105769
0.000105206
0.00012929
0.000264966
0.000104936
0.0163408
0.00014949
0.000136068
0.000105763
0.000108227
0.000780067
0.0690671
0.000568397
0.0954643
0.000110916
0.0350413
0.000104742
0.000132249
0.000129839
0.000132044
0.0251625
0.00346454
0.000130412
9.7452e-05
0.000120036
0.00596822
9.61872e-05
0.000115593
0.000112404
0.000430637
0.00125447
0.000113168
0.000122002
0.000121527
0.0248172
0.00476313
0.00010125
0.000106983
0.000224634
9.12642e-05
9.89311e-05
0.000104034
0.0261495
9.96426e-05
0.000108188
9.18561e-05
0.00011378
9.69247e-05
0.0236998
0.00762458
0.00554275
0.000100935
0.0016648
9.94868e-05
0.000102314
0.000103388
9.1956e-05
0.0584796
0.0225883
0.0274556
0.000119707
0.0245848
9.34822e-05
0.000114867
0.000121391
0.000158215
0.0152686
0.000121802
0.000108021
0.0339652
9.83561e-05
0.0237107
0.0147147
9.63422e-05
0.000117269
0.000109513
0.000134928
0.00010759
0.0197095
0.0222652
0.033598
0.000202465
0.00022331
0.000129098
0.0162744
0.00010136
0.000113203
0.00012505
0.000100463
0.0155635
9.1645e-05
0.053563
0.000105637
9.68233e-05
0.0179838
0.000635362
9.82494e-05
0.000142724
0.000106711
0.000112091
0.000461376
0.019598
9.84773e-05
0.000110838
0.0587166
0.000126952
0.000106588
0.000115342
0.000119445
0.000117103
0.000103413
0.0223786
0.000649452
0.000108177
0.00012357
0.000103079
0.0493603
9.04787e-05
0.000115743
0.0155123
0.000104659
9.57539e-05
0.00537984
0.0170677
0.00294209
0.000120317
9.94129e-05
0.000129981
0.00011092
0.00013665
0.0269492
0.000125799
0.000306002
0.0174494
0.000105182
0.000113306
0.000106562
0.00010156
0.000101123
0.000126564
9.92928e-05
0.0135808
0.000107473
0.000100162
0.0135484
0.000351097
0.00010781
0.000140257
0.000122524
0.000103382
0.000116163
9.27404e-05
9.95574e-05
0.000108033
9.13294e-05
0.000100638
0.000106739
9.50381e-05
0.0359575
0.000114401
0.025384
0.0103752
0.000107792
0.0003679
0.000133338
0.00012754
9.63906e-05
0.00223162
0.0294548
9.61455e-05
0.000107825
0.039871
0.000120688
0.000103761
0.000104311
0.00313888
9.66573e-05
0.0137453
0.000110335
0.000101833
0.0259313
9.88752e-05
0.000120784
9.30752e-05
0.00012905
0.00982601
0.0176153
0.0400791
0.000118736
0.031773
0.02427
0.0679226
0.0175138
0.000107379
0.0162223
0.000117657
0.000108819
0.000105699
0.000141189
0.00250861
0.000110433
0.000102926
0.000103385
0.000184486
0.000119105
9.93993e-05
0.0397391
0.000108518
0.0001039
0.0185389
0.000108511
0.000127602
0.0143638
0.000108632
0.000102744
0.000102694
0.00010181
0.000112519
0.000107025
0.000133116
0.00572916
0.0368784
0.000222122
9.36933e-05
0.0150839
0.020208
9.93572e-05
0.000105729
9.20353e-05
0.000960683
0.000117799
0.000116264
0.000101002
9.52572e-05
0.000117273
0.000148707
0.000136827
0.000208111
0.000120706
9.94738e-05
0.000223984
0.000319758
0.000107759
0.000104477
0.000128723
0.000107293
0.000119061
0.000105936
9.62365e-05
9.99394e-05
0.0367761
0.000124168
0.000760689
0.000137421
9.20655e-05
9.72857e-05
9.35119e-05
9.96039e-05
0.000106468
0.0542105
0.0113272
0.0282211
0.000124009
0.000106849
0.00064453
0.000144738
0.000148468
0.000109041
0.000106237
9.41614e-05
0.000116825
0.00089062
0.0318855
0.000113616
0.000119326
0.0295411
0.0282849
0.000133519
0.00017708
0.0467288
0.0132475
0.0001248
0.000100322
0.000119899
0.000121002
0.000293893
9.68241e-05
9.93388e-05
0.00118182
0.000116176
9.79849e-05
0.000127405
9.45194e-05
0.000128068
9.72277e-05
0.064895
0.00010532
9.71951e-05
9.42577e-05
0.000115681
0.000117448
9.29786e-05
0.0223867
0.0162739
0.000101114
9.37261e-05
0.00542331
0.000104126
9.35441e-05
0.000103898
0.000101396
0.0148909
9.49326e-05
9.86716e-05
0.000108042
0.057976
0.000114487
0.000108601
0.0662668
0.000100811
0.000739333
9.73501e-05
0.0161518
0.000137094
0.000121122
0.0459608
0.000104639
0.035078
0.000116294
0.00434214
0.0914229
0.000113815
0.000220038
0.047412
0.000180085
0.0196369
0.000138168
0.000124489
0.000115984
0.000125521
0.000123942
0.00014416
9.8215e-05
0.0670059
0.000140204
0.000107709
9.84983e-05
0.000102823
0.000135613
0.000144494
0.000103527
0.000128194
9.2975e-05
0.00010562
0.000100279
0.000118745
0.00437368
9.81585e-05
0.000133286
0.000101307
0.000302915
0.000100346
0.0382795
0.000328051
0.0254862
0.000130292
0.000100107
0.00447103
0.0616978
0.000108256
0.0466001
0.000122765
0.00925996
0.000233415
0.00010238
0.000128396
9.80804e-05
0.0466764
9.88244e-05
9.83134e-05
0.000126888
0.000123461
9.69215e-05
0.000300156
0.000134523
0.000219314
9.37221e-05
0.000134904
0.0429425
0.000108094
0.000109783
0.00487971
0.000113075
0.000102558
0.0975239
0.000110166
0.000114744
0.000226848
0.000109332
9.10391e-05
0.000157447
0.00010054
0.000102191
0.000107828
9.69826e-05
0.00013228
0.0756619
0.000129039
0.00498109
9.70045e-05
0.000135118
0.000108685
9.56768e-05
9.40746e-05
0.000775291
0.00734778
0.00010084
0.000133815
0.0147874
0.0164023
0.062969
0.000104417
0.000124642
0.000105336
9.41923e-05
0.000143198
9.17475e-05
9.57225e-05
9.93863e-05
9.561e-05
0.000115597
9.70382e-05
0.00013443
9.9943e-05
0.000116586
0.000102521
0.000160175
0.0217939
0.000209653
0.0754696
0.000114477
0.000129908
0.000134202
0.0499886
0.00113176
0.000104591
9.80734e-05
0.000144681
0.0501007
0.00742849
0.000122128
0.000108844
0.0422912
0.0402234
0.000988643
0.000108731
0.000505897
9.92514e-05
0.000107376
0.000119171
0.000129103
0.000101526
0.000106601
9.40439e-05
0.000106184
0.0085614
0.00264618
0.000112406
9.47095e-05
0.00013738
0.000117107
0.000470547
0.000100331
0.000142338
0.000101049
0.000100671
0.000109481
9.99947e-05
0.000111628
0.00076629
9.84017e-05
0.000158866
0.00011364
0.000119235
0.000113641
0.000145801
0.0356405
0.000140928
0.000112567
0.0206483
0.000112089
0.000114019
9.87617e-05
0.000138774
0.0588024
9.50312e-05
0.000142678
0.000391653
0.000100632
0.00014157
0.0247425
0.000121105
0.000131641
0.000107335
9.8324e-05
0.000145153
9.08511e-05
0.0249589
0.000120452
0.000123464
0.000104584
0.000228607
0.000129751
0.0105194
0.0485499
0.000102858
0.000176442
0.0201591
0.0001351
0.0166477
0.000130305
0.000112443
0.000135405
0.0164813
0.000120623
9.66286e-05
0.000100989
9.35895e-05
0.000100847
0.0392487
0.00195542
0.000101239
0.0142077
0.000148693
9.76359e-05
0.000113148
0.000101766
9.2398e-05
0.000108356
0.000141904
0.000131029
0.0221196
0.027647
0.000100526
0.000102391
9.8399e-05
0.0234822
0.000173918
0.000103554
0.000144261
0.0276561
0.00010684
0.000112455
0.000119774
0.000584598
0.000111802
0.000121165
0.000115458
0.00013367
0.0001009
0.000123496
9.75743e-05
0.000119459
0.000116332
9.70751e-05
0.000124932
0.000105455
0.000145176
0.000141755
9.55713e-05
0.0331901
9.15682e-05
0.000130422
0.0352235
0.0371542
0.000102162
9.46191e-05
0.000114275
0.000115357
0.000108443
9.47144e-05
0.0459078
0.0375164
0.000104431
0.000104338
0.000108189
0.000121903
0.0217652
0.000768006
0.000112009
0.000102228
0.000103204
0.0298529
0.000113419
0.0321385
0.00021454
0.015697
0.00010679
0.000729677
0.000107435
9.44179e-05
0.000137516
0.000100555
0.00646529
0.0642692
0.000106777
0.000117053
9.01348e-05
0.000351961
0.000356788
0.000106571
0.000107563
9.0755e-05
0.000101865
9.98414e-05
0.000237254
0.00011676
0.00308478
0.000120855
0.0104326
0.000101829
0.000102834
0.00010583
0.000102887
0.0166966
0.0197204
0.0001143
0.000100228
9.57239e-05
9.70615e-05
0.000148068
0.000121385
0.000103033
0.000101818
9.48149e-05
0.000106609
0.000101823
0.000133141
0.00023932
0.000103891
0.000101964
0.000143115
0.000245104
0.000105636
9.8235e-05
0.000145268
0.00010503
0.000100156
9.79803e-05
0.000106584
9.89572e-05
0.000107297
0.0249096
0.000113647
0.000105137
0.000647374
0.000137455
0.000101015
9.19843e-05
9.80286e-05
0.0120951
0.000101517
9.97562e-05
0.000469767
0.000107957
0.000348359
0.000109301
0.000112768
0.000151212
0.000113905
0.000540998
0.000133397
0.000416914
0.0108408
0.0146504
0.00027464
0.000105477
0.00011786
9.5144e-05
0.000249133
0.000146072
0.000114737
0.000129804
0.0167627
0.000104903
0.0468479
0.000105934
0.0647507
0.000127881
0.00013606
0.000101238
0.00010412
9.02566e-05
0.000101083
0.000108189
9.92268e-05
9.93567e-05
0.000497473
0.0126192
0.000426398
0.0377237
0.000313165
9.3937e-05
0.000113359
9.81859e-05
9.67842e-05
0.00412372
0.000119245
0.000200388
0.000191393
0.0608079
0.0208098
0.0132726
0.000177765
0.0506703
0.0726917
0.0142667
9.62425e-05
0.000104949
9.4297e-05
0.000146058
0.0589372
0.0137786
0.000101611
0.000402327
0.000105049
0.000105367
0.000122697
0.000133635
0.00147483
0.000102664
0.0029554
0.047737
0.000133531
0.0491324
9.84628e-05
0.0268936
0.0136789
9.84665e-05
0.000108628
0.000172597
0.000108284
0.000116798
0.000108515
9.71653e-05
9.28658e-05
0.000100918
9.44875e-05
0.00215992
9.61283e-05
0.0363733
0.000143998
0.000108001
0.000133914
0.000200411
0.000180185
0.000116858
9.96514e-05
0.000100875
0.000110929
0.000138806
0.000101724
0.000102933
0.0176502
0.000298887
9.43972e-05
0.000127571
9.77971e-05
9.50135e-05
9.58465e-05
0.000101999
9.12618e-05
0.000110439
0.000611955
0.000194997
0.0149775
9.08351e-05
0.0421577
0.000113283
9.59575e-05
0.000100688
0.000112268
0.00014699
0.000122948
9.83147e-05
9.94897e-05
0.000123987
0.0204891
0.000131271
0.0989217
0.0168379
0.000106603
9.90385e-05
0.0726502
9.74787e-05
0.000197739
0.00083025
0.0687385
0.000117814
0.0422907
0.0251411
0.000108802
0.0352177
0.013716
9.42283e-05
0.000131053
0.000363727
0.000106542
0.000325754
0.000127572
0.0146451
0.000106359
0.000106068
0.000194079
9.43152e-05
0.000105131
0.000107354
0.00034186
0.0363593
0.000128561
0.0211207
9.75796e-05
0.0289749
0.0369999
0.0130626
9.61286e-05
0.000108882
0.00013109
0.0232019
9.91681e-05
0.000105407
0.0106231
0.0222292
0.000114946
9.97883e-05
0.000216747
9.27401e-05
0.000128201
0.00334919
9.52554e-05
0.0139378
0.0172476
0.000100448
0.00971697
0.000121066
9.53253e-05
9.75615e-05
0.000197462
0.000224428
0.0150046
0.000149912
0.000112219
0.000101985
0.000404968
0.000145929
0.000147249
0.000433712
0.000107084
0.0356667
0.000140224
0.000396285
0.000133205
0.000800346
0.000218931
0.0495187
0.0157406
0.000112634
0.0258863
0.000114745
0.000101744
0.000100279
9.28263e-05
0.000118243
9.54182e-05
0.000113614
0.000184035
0.000109337
0.000134457
0.000130865
0.0345308
0.000262332
0.000109466
0.000115423
0.0695734
0.000101683
0.000172449
9.66538e-05
0.000139282
0.0264604
9.3028e-05
0.000130342
0.00032222
9.881e-05
0.000172618
0.0775877
0.0275015
0.000100168
0.00302218
0.000121611
0.000109584
0.000106229
0.000107002
0.000418934
0.000107312
9.84262e-05
0.000130169
0.0230918
0.000105118
0.000117665
0.000105902
9.30296e-05
0.0334234
9.29383e-05
0.000106489
0.000107326
0.000121516
0.0694209
0.000143739
0.000142674
0.00954414
0.000109439
0.0229516
0.000100257
0.00010299
0.000118864
0.000683324
0.0511026
0.000120932
0.000109648
0.000112315
0.000134385
9.54245e-05
0.000122152
0.00628279
0.0558664
0.0336701
0.0177022
0.000389973
9.96175e-05
0.0476803
0.000123065
0.000916656
9.46531e-05
0.000104886
9.98588e-05
9.88521e-05
0.000135631
9.12653e-05
0.000181929
0.00012673
0.071488
9.55353e-05
0.000114123
0.000154535
0.000112538
0.000172143
0.0198486
0.000115045
9.98752e-05
0.000135083
0.000110284
0.000106165
9.3136e-05
0.000133721
9.2702e-05
0.00851436
0.0193589
9.43491e-05
0.000101387
0.000112164
0.000113358
0.000145401
0.000105756
0.000126861
0.000109701
0.000139725
9.6989e-05
0.000118843
0.0289098
9.47011e-05
0.000138601
0.000107082
0.0020775
0.0186414
0.000132304
0.000132956
9.83328e-05
0.000128432
0.0149571
0.0238955
0.00930952
0.0353576
0.00010021
0.000164432
0.000104314
0.000117465
0.000240351
0.000116202
0.000103111
0.0303137
0.000105522
0.000127865
0.0569749
0.0318953
0.000143251
0.000102001
0.000105707
0.000128363
0.00010316
0.0121141
9.60617e-05
0.000102629
0.00018877
0.000100079
0.000147929
0.0342695
0.000111708
0.0797835
0.0235917
0.00554699
0.000128584
0.000131666
0.000106764
0.000107239
0.0128502
0.000170774
0.0735062
0.000108201
0.00013593
0.0420774
0.000147324
0.000108834
0.000175333
0.000148118
0.000147453
0.00859109
0.0362027
0.000237141
9.20991e-05
0.0128136
0.000246306
0.000102607
9.90244e-05
0.000108974
0.00184474
0.000106201
0.000118346
0.000106576
0.000102535
0.000144115
9.533e-05
0.000100652
0.00257885
9.68187e-05
9.5163e-05
0.000148826
0.0197916
0.0113913
0.0217351
0.0313467
9.73823e-05
0.00165913
0.00891414
0.000105224
0.000110429
0.000111397
0.000113716
0.000118717
0.000127601
9.67224e-05
0.000100605
0.000121123
0.000122124
9.96458e-05
0.000108076
0.000100644
0.000109203
0.000146978
0.038615
9.85246e-05
0.0200008
0.000101649
0.000104604
0.000111573
0.000132074
0.0238937
0.000157603
9.89747e-05
0.0367683
9.74089e-05
0.000128057
9.69858e-05
0.000119061
0.000207827
9.39301e-05
0.000102912
0.000116026
0.000807419
0.00084033
0.0348561
0.000145252
0.000353503
0.0267407
0.00013166
0.000105725
0.000112603
0.000117842
0.000148066
0.0174235
0.0293763
0.0253155
0.000520484
0.000100475
0.000221592
0.00010445
0.000138884
9.58284e-05
0.000109927
0.000100254
0.000141151
0.0701392
0.000222571
0.0408206
0.000819258
0.000404033
0.000123378
0.0249242
0.000121877
0.0905441
0.000131132
0.00025272
0.0685937
0.000597186
0.000118305
0.0273639
0.000128778
0.000350227
0.000121179
0.000103543
0.000106464
0.000121635
0.000108499
9.99731e-05
0.00014109
9.21695e-05
0.000122373
0.00010603
0.000127603
9.39134e-05
0.000110627
0.000131215
0.0171133
0.000106504
0.000145948
0.000277965
0.000127038
0.00613063
9.32249e-05
0.0525997
0.00261571
0.000219867
0.0440216
0.000118435
0.000117325
9.20988e-05
0.000103457
0.0472384
9.60719e-05
0.000103462
0.000102546
0.0934585
0.0331556
0.015128
0.000129165
0.000228351
0.000122629
0.000141178
0.0152928
0.000389497
0.000104164
0.000129442
0.000132808
0.000147853
0.000253103
0.000113546
0.000111347
9.05383e-05
9.37366e-05
9.30616e-05
0.0405323
0.000105737
0.00527439
0.0148256
0.000112521
0.0153102
0.00017414
0.0153575
0.000103679
0.000105358
9.40369e-05
0.000862377
9.58729e-05
0.000133784
0.0156721
0.100486
0.000149518
0.000195685
0.000112359
0.00016985
0.0360245
0.00015373
0.000116014
0.000105929
9.9365e-05
9.53105e-05
0.000116919
0.000114528
0.000147336
0.000155721
0.000660337
0.000754648
0.000360168
0.0133852
0.000107308
0.00028152
0.000130052
0.000101293
0.000107922
0.000107314
0.000115953
0.000106229
0.0408846
0.000105523
0.00012789
0.00011008
9.1886e-05
0.000112128
0.000103067
0.000138173
0.000131161
0.0222085
0.00010658
0.000120601
0.000109326
0.000284814
0.000482545
0.000105498
0.000101393
0.0393476
0.000113712
9.66098e-05
0.0978119
0.00011289
9.87205e-05
0.0365596
0.000113258
0.0314871
0.000495811
0.000134942
0.0111237
0.000102332
0.000322732
0.000100981
0.000112196
9.74827e-05
0.000107352
0.000133353
0.000106101
0.0236326
0.0205659
0.000224284
0.000116625
0.000115171
0.000107435
0.000287597
9.54865e-05
0.000104502
0.000112473
0.0927667
0.000128826
0.000105484
0.000115863
0.000114022
0.000414629
0.000101049
0.000163748
0.000116796
0.00011242
0.000104758
0.0285122
0.0138446
9.73486e-05
0.000340908
0.000116465
9.46764e-05
0.00387398
9.09087e-05
0.0415377
0.000768674
0.000125473
9.18436e-05
9.4441e-05
0.000100837
0.0643874
0.0196204
0.000134285
0.00609482
9.9989e-05
0.000126845
0.000521471
0.000122239
0.000128257
0.000146821
9.90106e-05
0.000165017
0.0920303
0.000168797
9.97939e-05
0.000111318
0.000107807
0.000129644
0.000125742
0.0240845
0.000624947
0.000224889
0.000110092
9.74966e-05
0.0253621
9.56956e-05
0.054836
0.0190399
0.00269778
0.0207451
0.00018809
0.000101691
0.000122409
0.000449386
0.000106648
9.99587e-05
0.000661509
0.000395804
0.000141635
0.0202432
0.000159702
9.46047e-05
0.000123128
0.000137693
0.0323681
9.6575e-05
9.61932e-05
0.00331434
0.0455924
9.99625e-05
0.0288475
0.0192813
0.0207131
0.00751288
0.000117881
0.000128733
0.0521744
0.000121284
0.00011028
0.000134978
0.00832918
0.000128695
0.000105671
9.49204e-05
0.000108467
9.82852e-05
0.00760934
0.000102199
0.0329487
0.000135519
0.0160209
9.9543e-05
0.021824
0.000111112
0.000119198
9.84583e-05
0.000138893
0.0354761
0.00674362
0.000105313
0.0200398
9.85252e-05
0.000141558
9.51324e-05
0.000129905
0.0191798
0.000286118
0.045579
0.0299502
9.49777e-05
0.000138664
0.000127245
0.000123234
0.0258289
0.000107891
0.000113904
0.000104814
0.000127244
0.000135552
0.000107823
0.000107829
0.069541
0.0264141
9.28607e-05
0.000107901
0.00053235
0.0282574
0.0675271
0.000139487
0.000111862
0.0555681
0.0052285
0.000106764
0.000114914
0.000104344
0.00854392
0.000107826
0.000773273
0.000105306
0.000110238
0.000125025
9.43052e-05
0.000131354
0.000140857
0.000109173
0.0352176
0.000106165
0.050994
0.000134479
0.000222724
0.0533675
0.000107625
0.000123056
0.000101029
0.000157665
0.000109844
9.90002e-05
0.000106933
0.037326
0.0382217
0.000137813
0.000129065
9.60196e-05
0.000130062
0.000217204
9.06366e-05
0.000104549
0.000145572
9.51313e-05
0.000107641
0.000102336
0.0990784
0.000105143
0.0271731
0.000138798
9.4369e-05
0.000226243
9.87257e-05
0.0440201
0.000272103
0.000106851
0.0639428
0.000113364
9.16063e-05
0.000104501
0.000104173
0.000101356
0.000126405
0.000114581
0.000216036
0.000119399
9.03765e-05
0.000124939
0.000180199
0.000107162
0.000600844
0.000124249
0.000118377
0.000316406
0.000132884
0.000110644
0.000124219
0.0146587
0.000118437
0.000239083
0.000132005
0.000131851
0.000121331
0.000282046
0.000126989
0.000146311
0.000104531
0.000128005
0.00601313
0.0503653
0.000110397
0.0417091
0.000100354
0.000128167
0.000111194
0.000112064
0.000733296
0.000124244
0.000129711
0.0465488
0.0106941
0.000115893
0.000133761
0.000110088
0.000118267
0.000101526
0.000223055
0.000111397
0.000139517
0.000153804
0.000106707
0.051606
0.000522856
0.000106512
0.0266983
0.000103885
0.000445222
0.0436625
0.000139185
0.000103646
0.00790895
9.60244e-05
0.000115816
0.00782531
0.0427667
0.000103943
9.96822e-05
0.000102112
0.000117881
0.00171605
0.000107225
0.000125049
0.0203043
9.51197e-05
9.97849e-05
0.0919643
0.000114239
0.0119468
9.6578e-05
9.71745e-05
0.000493679
9.97427e-05
0.000126655
9.79433e-05
9.93618e-05
0.000175395
0.00240837
0.000104076
0.000107746
0.000192156
0.0295568
0.0514712
0.000114923
0.0274657
0.000382386
0.0458463
0.020522
0.0397811
0.000103411
9.6793e-05
0.000243135
0.000129871
0.000111186
0.000132844
9.04963e-05
0.0210658
0.000140008
0.000103811
0.00010261
0.02615
0.0204357
0.0381384
0.000114611
0.0496518
0.000106305
0.000135232
0.000100191
0.0128117
0.000331942
9.87964e-05
0.000116555
0.000101415
0.0249893
0.000100195
0.021085
0.00618847
0.000245627
0.000104203
9.46576e-05
9.72882e-05
0.00011309
0.000130195
0.000110112
9.01973e-05
0.000109574
0.000110322
9.25867e-05
0.000383926
0.000124168
0.000104363
0.026779
0.000105138
0.000132089
9.19008e-05
0.102582
0.000329944
0.000108219
0.000115616
9.27925e-05
0.000125824
0.000102739
0.017183
9.69435e-05
0.00472217
0.000106919
0.000109146
0.000112714
0.000137435
0.000107621
0.0160968
0.000277549
0.000122962
0.000387955
0.0221609
0.000504958
9.34161e-05
0.0656976
0.000108814
0.0487493
0.0122463
0.000137042
0.00010369
0.0534089
0.000148021
0.0423087
0.000104637
0.0593693
9.43821e-05
0.000130417
0.000219677
9.2634e-05
0.00805361
0.000109121
9.358e-05
0.0187368
0.000173155
0.000149477
0.0001103
0.000100106
0.00534657
0.000216879
0.00017374
0.0466805
0.000134801
0.016565
0.00011569
9.75103e-05
9.83577e-05
0.00898378
0.0489113
0.00011943
0.000153926
0.000106386
0.000109125
0.000109155
9.6176e-05
0.000120166
0.0457053
0.000107587
0.000104591
0.000461581
9.38507e-05
0.000314126
0.000225739
0.0841567
0.000251964
0.000104115
0.000136045
0.000280539
0.000106237
9.11752e-05
9.59455e-05
9.47446e-05
0.00010688
0.000100754
0.000105911
0.000116086
0.000122437
0.000103945
9.8375e-05
0.000100198
0.000148937
0.000123137
9.41427e-05
0.000101511
0.000113797
0.00013611
0.000262326
0.0225641
0.000124393
0.0281666
0.022471
0.0662958
0.0524636
0.0161928
0.000137105
0.000227474
0.0416711
0.000121734
0.000146103
9.82831e-05
0.0203719
0.000175254
0.000121392
0.000102599
0.0224346
9.11554e-05
0.000489429
0.0214628
0.000679301
0.0496132
0.0142541
9.24873e-05
0.000114011
0.000114728
9.5978e-05
0.000106452
0.000124558
9.61378e-05
0.000119847
0.00021488
0.000102705
0.000124358
0.000107325
9.93667e-05
0.000156445
0.000109832
9.58851e-05
0.0110801
0.000103493
0.000102442
0.000129308
0.0847637
0.000104703
0.000104524
9.24254e-05
0.000105951
0.000136923
0.000104218
0.000252943
0.000100598
0.000105408
9.59139e-05
9.41396e-05
0.000124569
0.000216425
0.000118166
0.000142383
0.025741
0.000416753
0.000131117
0.000141482
0.000114799
0.029179
0.0165025
0.000109809
0.000114989
0.000364801
0.0155562
0.000140793
0.000529935
0.00014181
0.000195651
9.43148e-05
0.000108038
0.0246396
9.56472e-05
0.000108847
0.00244988
0.000150519
0.0364942
0.056909
0.0147218
0.0257089
0.0182645
0.000103816
0.0777176
0.0001121
0.000120245
9.98356e-05
9.74844e-05
0.0644237
0.000130458
0.000121843
0.021067
0.0131624
0.0104929
0.000386797
0.000121427
9.55105e-05
0.0219213
9.45464e-05
0.00310894
0.000102634
0.000104181
0.00010445
0.000101806
0.00010646
0.000121494
9.57427e-05
9.53313e-05
0.000104116
0.05125
9.51442e-05
0.000100429
0.000385921
0.000107173
0.000119633
9.88108e-05
0.000274867
0.0355412
0.000107102
9.77001e-05
0.000135896
0.000423827
0.000320876
0.044967
0.000161725
0.000100858
0.000129356
0.000102217
0.000140566
0.0466354
0.000110762
0.000102856
0.00013693
0.000107215
0.000112781
0.000343391
9.44401e-05
0.000244491
0.0361133
0.000402077
0.00018121
0.000116053
0.000140062
9.49083e-05
0.0436832
0.000309132
0.00297771
0.054506
0.000120481
0.000125787
0.000118888
0.025512
0.0184774
0.000133909
0.0307779
0.000100271
9.54912e-05
0.0224058
9.12733e-05
0.000104361
0.00426824
0.000106052
0.000147916
0.000103079
0.000131704
0.000257023
0.000147412
0.000105732
0.000354788