/*--------------------------------*- C++ -*----------------------------------*\
| =========                 |                                                 |
| \\      /  F ield         | OpenFOAM: The Open Source CFD Toolbox           |
|  \\    /   O peration     | Version:  v2012                                 |
|   \\  /    A nd           | Website:  www.openfoam.com                      |
|    \\/     M anipulation  |                                                 |
\*---------------------------------------------------------------------------*/
FoamFile
{
    version     2.0;
    format      ascii;
    class       volScalarField;
    location    "300";
    object      k;
}
// * * * * * * * * * * * * * * * * * * * * * * * * * * * * * * * * * * * * * //

dimensions      [0 2 -2 0 0 0 0];


internalField   nonuniform List<scalar> 
18540
(
0.0918758
0.000149846
0.000147309
0.0514666
0.000157184
0.000166448
0.00015721
0.000179333
0.000167827
0.000149786
0.000154137
0.000148359
0.0415595
0.000148236
0.0871277
0.000116302
0.000171906
0.000156456
0.000279858
0.092158
0.000161802
0.000184579
0.000148628
0.0330325
0.000178656
0.000162526
0.0131926
0.000183417
0.000163793
0.0572215
0.0001498
0.000148207
0.000201061
0.0559076
0.000157203
0.0487295
0.000185624
0.000147655
0.000147069
0.000172742
0.000149655
0.00014851
0.00616659
0.0967776
0.000182266
0.000162373
0.000289244
0.000147268
0.000161384
0.000168386
0.000148285
0.000561756
0.0912099
0.000149614
0.000160005
0.000169274
0.0391635
0.0310125
0.0163835
0.000147568
0.0178261
0.000158258
0.000158979
0.000189255
0.0928316
0.00014795
0.000168812
0.000148702
0.0144062
0.000146839
0.000168131
0.000160106
0.000201819
0.0330634
0.000182676
0.000181495
0.000170759
0.000148376
0.00015634
0.000189887
0.000153729
0.079327
0.000147652
0.000223979
0.0190907
0.106032
0.000148893
0.000148825
0.000157267
0.106663
0.000219554
0.000200051
0.000164882
0.000146289
0.000158225
0.000149981
0.000154089
0.000168545
0.000400842
0.0191786
0.000150205
0.000148213
0.000185705
8.12275e-05
0.0227388
0.000200126
0.000150332
0.0214374
0.000158769
0.000153493
0.0102556
0.0452397
0.000148449
0.00015758
0.0644144
0.000161365
0.00016207
0.000168093
0.000156748
0.000166332
0.00381115
0.0865812
0.016653
0.0949266
0.00014812
0.000163376
0.000171514
0.000159843
0.00509319
0.00018133
0.00022452
0.000161678
0.000182008
0.0888495
0.000147286
0.000145791
0.000153915
0.000159539
0.000149967
0.000147922
0.09265
0.000192438
0.000170733
0.0228714
0.000147524
0.000146746
0.00017179
0.0913659
0.00015966
0.0883655
0.000146864
0.000150481
0.000147366
0.0598231
0.000193665
0.000167169
0.0900212
0.000147525
0.000148138
0.0240108
0.000189513
0.000177079
0.000149673
0.000147251
0.000193042
0.000148333
0.0931169
0.000159575
0.0894914
0.00014945
0.000148845
0.00016569
0.000154551
0.000156965
0.000149629
0.0904383
0.000157938
0.054547
0.000191616
0.000222329
0.000156239
0.000161986
0.000177442
0.000197042
0.000153639
0.0309396
0.000150501
0.000156088
0.000176643
0.000161673
0.000165
0.000153289
0.0124207
0.000148148
0.000165616
0.000148106
0.000173701
0.000155148
0.000224735
0.000157749
0.000162425
0.000197445
0.000159673
0.000167663
0.103668
0.0536209
0.000148463
0.0475639
0.0462012
0.000169429
0.000148227
0.0188545
0.0520138
0.000149125
0.000164449
0.000166643
0.093974
0.000180897
0.0252673
0.0602977
0.0166371
0.000174594
0.0698328
0.000166078
0.000262163
3.96117e-05
0.000164404
0.000169176
0.0160975
0.000180605
0.000154753
0.000271541
0.000205676
0.000154385
0.000149732
0.000158937
0.000148325
0.000156912
0.000188064
0.000159835
0.000216101
0.000209648
0.000207951
0.000164486
0.103052
0.0398687
0.000149666
0.000146844
0.000163985
0.000149495
0.000172976
0.0436703
0.0108701
0.000150687
0.000153869
0.000190356
0.000261323
0.000183375
0.000148302
0.043773
0.000185209
0.0685427
0.000149466
0.00197911
0.0172626
0.000164205
0.0875148
0.0906916
0.000147625
0.000149072
0.00943819
0.0339871
0.017509
0.000151763
0.000201266
0.081872
0.000147255
0.000173304
0.000214622
0.000148122
0.000149115
0.0899626
0.00015588
0.000148314
0.000334062
0.000146971
0.000208652
0.000179491
0.0497687
0.000206383
0.0595312
0.0506027
0.00016468
0.000147612
0.0890394
0.000185317
0.000197105
0.000162722
0.0612169
0.000166098
0.000149194
0.0169163
8.92155e-05
0.00016392
0.000169866
0.000148168
0.000215336
0.000146908
0.000183922
0.000148264
0.0374316
0.000151598
0.079621
0.000173464
0.00101643
0.00028084
0.0845917
0.000148113
0.0610889
0.0153414
0.0207189
0.000203415
0.000149366
0.0124659
0.000155807
0.000150417
0.000175446
0.000157314
0.000148118
0.000147845
0.000146816
0.000190638
0.000176696
0.000156617
0.000219096
0.00017877
0.000149544
0.000149115
0.0260869
0.000164129
0.00016658
0.000169895
0.000155361
0.000169455
0.000230852
0.000179007
0.000148102
0.00017517
0.000157186
2.92952e-05
0.000203432
0.000149139
0.0873732
0.000149874
0.000149112
0.0871379
0.00014902
0.000147369
0.000148673
0.0468367
0.000185987
0.000147278
0.000148197
0.000155954
0.0629234
0.000164341
0.000146973
0.000148451
0.000149535
0.000148016
0.0512408
0.000146746
0.000207808
0.00015344
0.000149087
0.000531841
0.000148284
0.00787604
0.000155612
0.0224845
0.0816995
0.000146923
0.000173503
0.000282788
0.000158097
0.000146714
0.000172133
0.0604194
0.000149207
0.0268417
0.0912545
0.000146961
0.000157171
0.0177507
0.0505654
0.000148474
0.0416668
0.0486514
0.000149256
0.000210837
0.0363381
0.0935383
0.000156735
0.000149058
0.000173348
0.00014743
0.0878658
0.0125377
0.000149682
0.000192558
0.0315167
0.0133506
0.000184174
0.000147238
0.000173727
0.000444339
0.00014907
0.000169511
0.000207915
0.000176869
0.000195372
0.0915874
0.000148054
0.000508236
0.000146412
0.000178655
0.000146373
0.000194699
0.000156768
0.000161541
0.000147864
0.0702323
0.000174643
0.0865533
0.000153924
0.000640804
0.000148693
0.000146031
0.0900827
0.000148369
0.000173462
0.000153314
0.000166883
0.0287824
0.000148335
0.000150222
0.000149159
0.0248766
0.000148313
0.000147124
0.08511
0.0421656
0.000146338
0.000146141
0.000150281
0.000148898
0.00017442
0.000148348
0.0190432
0.00973378
0.000158531
0.000149542
0.000174958
0.00015713
0.000149036
0.000164038
0.0862014
0.000160769
0.000245426
0.000200433
0.000583891
0.000169262
0.0194824
0.033718
0.000182138
0.000145918
0.0709496
0.000147955
0.0241646
0.000145533
0.000173994
0.000145935
0.0920874
0.000149578
0.000160785
0.000156625
0.000181591
0.015876
0.000148382
0.000151996
0.000229646
0.000187171
0.00017149
0.0150231
0.0454308
0.000459123
0.00015714
0.0715861
0.00021541
0.000153497
0.000186351
0.000170002
0.000147168
0.000176849
0.000149825
0.000156006
0.000194034
0.000152045
0.000169593
0.0573754
0.000149156
0.000148894
0.000148524
0.000191687
0.0881993
0.000153612
0.000158813
0.000147384
0.0509595
0.000148645
0.0144121
0.000148461
0.000178172
0.0740685
0.00018022
0.000145839
0.000148674
0.0467944
0.000147406
0.000148901
0.0686517
0.00020989
0.000164862
0.000148748
0.00014968
0.000151359
0.083144
0.000214834
0.000160364
0.000148786
0.000149196
0.000158745
0.00020871
0.000171201
0.000162812
0.000145845
0.0217507
0.0856003
0.000153768
0.000166435
0.000154672
0.000147262
0.000203314
0.0929294
0.000145837
0.00017431
0.000225472
0.0813479
0.0358005
0.000148361
0.000154438
0.000156729
0.000146208
0.000154472
0.000153251
0.0519163
0.000147231
0.000169973
0.000154385
0.000162523
0.00014632
0.000149774
0.000185401
0.000152095
0.000192922
0.0303488
0.000148923
0.00015735
0.000150286
0.000147783
0.00019062
0.000149107
0.0745508
0.0400354
0.0254663
0.000157669
0.000148421
0.000148351
0.000158183
0.000252462
0.000169172
0.000144633
0.00014844
0.000149577
0.0101284
0.000148124
0.000149015
0.0129023
0.000152938
0.000147042
0.084537
0.000187394
0.000149942
0.000163905
0.0239448
0.000158157
0.000163587
0.000149012
0.000148353
0.000187821
0.000161653
0.0438513
0.0278942
0.0150962
0.000148592
0.0274878
0.00014882
0.000149782
0.0846517
0.00015096
0.080809
0.0339314
0.000153251
0.0281786
0.000195891
0.0479037
0.000170235
0.000158124
0.000197142
0.0273784
0.000160979
0.0465483
0.0176399
0.0413762
0.000149682
0.000151136
0.00015191
0.000202338
0.000145894
0.000164586
0.0839185
0.0560166
0.000149877
0.000174866
0.0538851
0.000179317
0.000152934
0.00016045
0.000148418
0.000153266
0.050003
0.000147922
0.000148454
0.00014909
0.000159722
0.0953161
0.000149908
0.0160929
0.000150439
0.0309758
0.000147947
0.06416
0.000184132
0.000158546
0.0321546
0.00017093
0.00014921
0.0959929
0.083888
0.000161096
0.000154804
0.000253156
0.0455296
0.000169705
0.0178863
0.000150406
0.0311853
0.0539762
0.000148984
0.00014889
0.000149799
0.000147768
0.0531714
0.00016016
0.000153756
0.000161229
0.0498448
0.000160437
0.000156308
0.000151734
0.000153956
0.0184058
0.000196818
0.0343741
0.000160482
0.048896
0.00014601
0.000168486
0.000155943
0.0104269
0.000162395
0.000146953
0.000152551
0.000150201
0.000146032
0.00014615
0.000194878
0.000156439
0.000165775
0.0172974
0.000147301
0.000150865
0.0571766
0.0243115
0.0791539
0.000148873
0.000149034
0.000157479
0.000146806
0.000173699
0.000221094
0.000152907
0.000149827
0.000148916
0.00016062
0.000159032
0.000162548
0.00014833
0.000149793
0.000160545
0.000187777
0.000154035
0.000160378
0.000170217
0.0330858
0.000149093
0.000157151
0.0446243
0.000194224
0.000186612
0.000148015
0.000183754
0.00214072
0.000187423
0.000160689
0.000161204
0.0304225
0.000148557
0.0638157
0.000212082
0.0304539
0.000147678
0.000147809
0.000150375
0.000147182
0.000185096
0.000155699
0.000159534
0.000146441
0.000150345
0.0280524
0.00014901
0.00014679
0.000147238
0.000368119
0.00017204
0.00014666
0.000158692
0.0001924
0.000167083
0.000162739
0.00016497
0.000207322
0.000179435
0.000151677
0.000189225
0.000147773
0.000261522
0.000160418
0.000146821
0.00020486
0.0974847
0.00014883
0.00235399
0.000169031
0.00017755
0.000149927
0.0135433
0.000190606
0.0001621
0.000153634
0.000174589
0.0105144
0.000148115
0.000153925
0.0493326
0.000158459
0.000159968
0.000190708
0.000168909
0.000162673
0.0001585
0.0729816
0.000153303
0.000150488
0.0219013
0.000151675
0.000146776
0.00019576
0.000147182
0.000158407
0.000147688
0.000179925
0.0103867
0.000150765
0.000155984
0.0209815
0.00014726
0.0146229
0.00014863
0.048202
0.000146671
0.000150564
0.000155684
0.0547909
0.000159532
0.000161323
0.000156395
0.000157474
0.00014737
0.000156774
0.0820148
0.000188949
0.000149583
0.000511888
0.00019762
0.000157673
0.0349081
0.000148316
0.000150977
0.000148503
0.0616055
0.000192089
0.000147648
0.000145568
0.000147693
0.0140761
0.000154782
0.000150599
0.000168943
0.000148513
0.000150626
0.000231784
0.000298772
0.000158343
0.000147705
0.0513843
0.000149549
0.000158969
0.0840988
0.000194281
0.0166025
0.000148557
0.0108668
0.000150175
0.000157956
0.000146977
0.000148953
0.00677974
0.000165514
0.000148745
0.00949812
0.000149442
0.000163313
0.0907145
0.000148588
0.000165716
0.000193784
0.000163422
0.0477377
0.000149071
0.00713788
0.000149262
0.0874955
0.000187824
0.000149552
0.0159227
0.000155465
0.000158275
0.0487898
0.000148749
0.000150082
0.0174537
0.000159413
0.000554897
0.00014907
0.000149315
0.000204452
0.0721795
0.000154608
0.0894554
0.00014865
0.000149069
0.000153812
0.000147765
0.00053281
0.0893287
0.000149747
0.0982431
0.0529653
0.000147811
0.000148509
0.000148505
0.000211604
0.000162008
0.000166255
0.0282313
0.000149927
0.0305408
0.000167902
0.0649242
0.000379803
0.000149548
0.0768465
0.0822062
0.0962061
0.0459836
0.000148152
0.000147651
0.0131655
0.000159433
0.108004
0.0133672
0.000148097
0.000159825
0.000148077
0.000156059
0.000196214
0.000148033
0.0956393
0.000159343
0.000180622
0.000174418
0.00930016
0.000147136
0.000148383
0.000160476
0.0644546
0.000157876
0.000169564
0.0281832
0.0484511
0.000152755
0.0276865
0.000148277
0.000215829
0.000148994
0.000148219
0.0368344
0.0330278
0.0198583
0.0335256
0.000146289
0.000186384
0.000147663
0.0824566
0.00014576
0.0103683
0.000158369
0.000163444
0.000145832
0.000145695
0.0576452
0.0437127
0.00014812
0.000146484
0.000148358
0.000149787
0.000339605
0.000220342
0.000148571
0.0314649
0.03011
0.000148495
0.000148655
0.0339278
0.000203292
0.0534137
0.0474116
0.000168624
0.000148083
0.000149236
0.0511115
0.0119727
0.000231102
0.0332864
0.000166911
0.0300263
0.00014524
0.0495866
0.000152609
0.000171322
0.000147925
0.000150675
0.0150891
0.000153722
0.0754753
0.00014593
0.0924538
0.000161647
0.000164792
0.000313519
0.0384583
0.000172903
0.000248896
0.000192073
0.000153553
0.000186905
0.0727851
0.0145133
0.0379195
0.000164652
0.000159627
0.00014964
0.000160104
0.000148427
0.000148244
0.092557
0.0752934
0.000149109
0.0913868
0.000148781
0.000434188
0.000149307
0.000149224
0.00014844
0.0106222
0.000149074
0.00142019
0.000148842
0.000145208
0.000195804
0.000153347
0.0353362
0.000190556
0.000148378
0.0001487
0.0305402
0.000165019
0.0526
0.00014946
0.000179102
0.000152711
0.00017496
0.000154681
0.000145619
0.000178448
0.00014671
0.000257365
0.000148937
0.000146338
0.00014752
0.000153694
0.0445061
0.0516566
0.00017826
0.000163843
0.000147954
0.000160778
0.0996844
0.000148397
0.00014861
0.000187291
0.0587653
0.000151491
0.000153799
0.000158649
0.000164067
0.000172622
0.0578376
0.000199777
0.000154727
0.000148878
0.000145851
0.000150604
0.000151551
0.000166058
0.000148914
0.000324705
0.105459
0.022384
0.000161688
0.0487771
0.0622799
0.000157211
0.000161786
0.000163995
0.000146499
0.076327
0.000147436
0.00016472
0.000164348
0.000146817
0.000157939
0.0379155
0.000204687
0.000150075
0.000153637
0.0979145
0.0679739
0.00031044
0.000146678
0.0178806
0.000196477
0.000158067
0.064145
0.000148867
0.000149238
0.0161144
0.0312012
0.000174456
0.00014792
0.00894167
0.0983421
0.030765
0.000161792
0.0183518
0.000148836
0.0507011
0.000162255
0.000148964
0.000164723
0.0753633
0.0047283
0.0001489
0.0460321
0.000151476
0.000154706
0.0993356
0.000150375
0.000163921
0.000160985
0.050047
0.000166388
0.000145005
0.000163827
0.000148262
0.029844
0.000194974
0.000517081
0.000146446
0.000159515
0.000146216
0.000149721
0.000149958
0.000206787
0.0185106
0.000150227
0.000195357
0.000160054
0.0112044
0.000149447
0.000109134
0.000192245
0.000188048
0.000149728
0.000243124
0.000149059
0.000146682
0.000149839
0.000146193
0.023678
0.000515823
0.000149848
0.000149819
0.0714029
0.000148182
0.000172074
0.000148137
0.000146678
0.000147675
0.000149026
0.0575969
0.000148998
0.000151575
0.0700028
0.000339858
0.000158863
0.000148418
0.000149679
0.000500375
0.000149027
0.000148305
0.000456621
0.00014978
0.000150571
0.000172214
0.000162472
0.000148299
0.000152715
0.00642996
0.000188127
0.0929989
0.000148429
0.0350325
0.000171041
0.080525
0.00334217
0.0037206
0.000257591
0.000178942
0.013293
0.0316067
0.000202628
0.0176998
0.0375325
0.000146869
0.000149658
0.00015139
0.0537658
0.000146612
0.000148665
0.000148092
0.000154014
0.000146256
0.000148214
0.108588
0.0246166
0.000149303
0.0472001
0.000170108
0.000174563
0.039181
0.000147507
0.000150118
0.0391445
0.000197005
0.000149773
0.0225554
0.000149168
0.000164835
0.000149327
0.0942182
0.000258398
0.0656419
0.00262088
0.000150947
0.000190752
0.000146088
0.0138946
0.000155997
0.00234757
0.000380838
0.000252415
0.000149837
0.000169723
0.000149344
0.0460461
0.000157242
0.0789476
0.0794617
0.00014759
0.000338756
0.00518833
0.000148358
0.00014845
0.000147778
0.000196409
0.000146464
9.57362e-05
0.000158545
0.000163285
0.0241418
0.000189721
0.00437796
0.000145453
0.0844526
0.00014697
0.000179154
0.000147573
0.000149146
0.000245413
0.0830282
0.000147578
0.000165782
0.000148126
0.00014844
0.00015488
0.000148228
0.000163335
0.000175702
0.067917
0.0534982
0.000147993
0.0491189
0.0176363
0.00434109
0.0234354
0.000148173
0.0001465
0.000156276
0.00015634
0.000177533
0.0611364
0.000147367
0.000184611
0.000232383
0.000155152
0.000149781
0.0483979
0.0358936
0.0456813
0.000166421
0.000153859
0.000186036
0.000145026
0.000375205
0.000156413
0.000144967
0.000147959
0.0813297
0.000159669
0.000148381
0.000189296
0.000149042
0.000147847
0.0619054
0.000151607
0.000151948
0.000148486
0.000146163
0.0588387
0.0347098
0.0407686
0.000158754
0.000150232
0.0121176
0.0350613
0.0281295
0.000144992
0.000170155
0.0653711
0.000191974
0.0439894
0.000151919
0.0996039
0.000150362
0.000146958
0.0945081
0.000149555
0.000147325
0.0538353
0.0953925
0.00016367
0.000159
0.000169684
0.0205361
0.00015033
0.000159098
0.000225723
0.000159447
0.000149174
0.000159372
0.0471578
0.000146113
0.0323002
0.000164624
0.0258563
0.000154597
0.0729742
0.000145397
0.000148935
0.104727
0.000161464
0.0526572
0.000162706
0.000145981
0.000149608
0.000147344
0.0118558
0.00755835
0.000209165
0.0146892
0.000159384
0.000147534
0.0842775
0.000146956
0.000158184
0.000165195
0.000158999
0.000155127
0.000148077
0.000159932
0.000154887
0.000173514
0.0976796
0.000161926
0.0267501
0.000148164
0.000158418
0.000166946
0.000148494
0.0510924
0.000149483
0.000201837
0.0879963
0.000210385
0.000159132
0.000163935
0.000149723
0.000147173
0.0537154
0.0638782
0.0458954
0.000146098
0.000149075
0.034826
0.000186429
0.000171302
0.000146633
0.000148011
0.000152
0.0166697
0.00111165
0.000242617
0.000203589
0.000177635
0.000163267
0.00632557
0.0311531
0.000148696
0.000184824
0.000161143
0.00014859
0.000147095
0.000163806
0.0912661
0.0366542
0.0400592
0.000185132
0.000146049
0.000147994
0.000186805
0.000198182
0.000169638
0.0334977
0.000162419
0.00014941
0.0139261
0.10703
0.000161635
0.000148483
0.0066186
0.000149478
0.000149629
0.0234174
0.000182899
0.000155055
0.0001747
0.0257575
0.0492553
0.000163967
0.000144982
0.000148131
0.000163093
0.000150617
0.000148933
0.000148884
0.000160052
0.000345664
0.000170702
0.000152139
0.00014769
0.0105953
0.0636723
0.000148585
0.000157439
0.000148355
0.000155981
0.000149117
0.000148529
0.000155099
0.0806669
0.000150385
0.000159018
0.000186758
0.000173843
0.0892176
0.107766
0.000165829
0.000174915
0.0131372
0.0320569
0.000266548
0.000148119
0.000162196
0.09812
0.0168197
0.0866763
0.0599783
0.000161842
0.000279411
0.0172531
0.0445795
0.000158684
0.000166245
0.0989585
0.000825315
0.000190425
0.0857597
0.00192635
0.000148554
0.000147341
0.000154448
0.000202201
0.000187724
0.000159238
0.000296634
0.0807367
0.000192617
0.0415801
0.000163367
0.000160108
0.0915089
0.0401277
0.000200294
0.000152504
0.0693088
0.000147548
0.000179807
0.000149332
0.0962042
0.00015052
0.000150617
0.00014608
0.0226677
0.000147104
0.000171354
0.000153191
0.00871487
0.0878569
0.000162143
0.000242562
0.000157101
0.000147981
0.0975547
0.0415102
0.000148404
0.000151366
0.00021677
0.000164369
0.000148431
0.000148933
0.000149857
0.000180155
0.000161356
0.000149714
0.000148829
0.0300274
0.0331923
0.0213964
0.000165631
0.0330319
0.000152339
0.000150642
0.000150697
0.0605253
0.000147123
0.000148827
0.000219105
0.000164858
0.000150225
8.8657e-05
0.000157364
0.000149422
0.000193489
0.000171005
0.000150692
0.000166046
0.0527223
0.00014819
0.000151554
0.0922305
0.000148209
0.000176881
0.00016345
0.000147945
0.000165392
0.0539672
0.000147729
0.00016037
0.0253985
0.000150622
0.000148274
0.0698966
0.000148186
0.0927898
0.000202383
0.000146261
0.000207219
0.000186044
0.000148098
0.000700829
0.0513708
0.000149032
0.000164537
0.09571
0.000166947
0.0422091
0.000148198
0.0147031
0.000159326
0.000158206
0.000173317
0.000149049
0.00017202
0.000467124
0.000148863
0.000146085
0.000146471
0.000148561
0.000148443
0.000179825
0.000162123
0.0015034
0.000159816
0.000155789
0.0708854
0.0490764
0.000148763
0.000151173
0.000204395
0.0921423
0.0401307
0.000177138
0.000148962
0.000155186
0.000167184
0.055242
0.000165015
0.0151332
0.0003414
0.000186099
0.000160848
0.000181695
0.000148165
0.000176459
0.000352791
0.000149263
0.000147284
0.000149828
0.019376
0.000192829
0.0216528
0.000167198
0.000181822
0.000149142
0.00014966
0.000144569
0.000148101
0.000148995
0.000147265
0.000163326
0.00964015
0.000148594
0.000161125
0.000203117
0.0643302
0.000148223
0.000150239
0.000146094
0.0675618
0.000149352
0.000156069
0.00017667
0.000154875
0.00016184
0.000164011
0.000152586
0.000154828
0.0198781
0.000282526
0.000749332
0.000150881
0.0826355
0.000156248
0.000158407
0.000150062
0.0527893
0.000173942
0.000150616
0.000147985
0.0149733
0.000148444
0.000155788
0.000154359
0.000150262
0.000148771
0.000148919
0.0300943
0.000153055
0.0673567
0.000148952
0.0319466
0.000164101
0.000191044
0.000159249
0.000163131
0.000160417
0.000149042
0.000155236
0.0935256
0.000165846
0.000196242
0.000148478
0.000193162
0.000160793
0.000213385
0.000197132
0.00049579
0.0924729
0.000146936
0.0898389
0.000179862
0.000148747
0.0949825
0.000165375
0.000159641
0.0424807
0.000156878
0.000189875
0.000154766
0.000153392
0.000236764
0.000176534
0.000149181
0.00014882
0.000130506
0.0202992
0.000181707
0.0153377
0.000174879
0.000147277
0.034328
0.0974702
0.000203716
0.00802061
0.00108136
0.000186362
0.000162184
0.000149096
0.000149548
0.0001548
0.000152793
0.00014684
0.000478223
0.000173801
0.000146989
0.000256675
0.00015163
0.052889
0.000182884
0.0167252
0.00727623
0.000163739
0.022574
0.00016196
0.000165648
0.0276956
0.0001984
0.000147094
0.000149189
0.0627092
0.108335
0.000147661
0.0915834
0.000148351
0.000147161
0.000176174
0.0281114
0.000532034
0.0582982
0.00014761
0.000149111
0.000148565
0.000145681
0.000147651
0.000166647
0.0292992
0.0521389
0.000159972
0.000150839
0.0192849
0.000147716
0.000148428
0.000178158
0.00016256
0.0513499
0.0481562
0.000179107
0.0512429
0.000149255
0.0511823
0.056186
0.000150568
0.000166423
0.000157635
0.0916626
0.000148242
0.000148597
0.000148718
0.000166302
0.0242713
0.000171894
0.00014858
0.000149029
0.000148347
0.00014845
0.0336331
0.0101481
0.000349623
0.00020557
0.0117481
0.000238589
0.000145962
0.000190639
0.00015193
0.0283351
0.000166244
0.000160248
0.0470816
0.101679
0.000149599
0.000158018
0.000174288
0.000147922
0.000146813
0.016449
0.00017324
0.000149835
0.000145527
0.0833951
0.0450089
0.000149289
0.000161915
0.000204575
0.0861996
0.000148941
0.010467
0.000158035
0.0318707
0.0478298
0.0352347
0.000342053
0.000149022
0.000148359
0.000148155
0.0250544
0.000441694
0.000148137
0.000266726
0.0306713
0.090877
0.000322633
0.000148378
0.0129583
0.0892913
0.000148848
0.000156753
0.108121
0.000176684
0.0532703
0.000149861
0.0353576
0.000149771
0.000192586
0.00036257
0.000185576
0.00015073
0.000155059
0.0517851
0.000150822
0.000146756
0.000183766
0.00014985
0.0664169
0.0178439
0.00026838
0.000382955
0.000163685
0.000186629
0.00014675
0.000190229
0.000146999
0.000157856
0.000148015
0.000218874
0.000265066
0.000148459
0.0215652
0.000149874
0.0118044
0.0448723
0.000487653
0.000148389
0.0939384
0.0281271
0.0312047
0.0360053
0.000148719
0.0245996
0.0812779
0.000147882
0.00887958
0.000162471
0.000203831
0.000223899
0.000159797
0.0214589
0.00017451
0.000157274
0.000162143
0.03534
0.0210894
0.000150168
0.00018205
0.0847719
0.000387106
0.000193123
0.000171726
0.000159574
0.000148144
0.000149613
0.0324842
0.000148899
0.000148418
0.000183675
0.000152322
0.000148335
0.052727
0.000149379
0.0236701
0.0837659
0.000158602
0.000184741
0.0903656
0.000156191
0.000187883
0.000170652
0.000148185
0.000178941
0.000269573
0.000144774
0.0213418
0.000161739
0.000147397
0.000152313
0.00016076
0.000148111
0.000146824
0.000165369
0.000153843
0.000200883
0.000173631
0.000167769
0.00015943
0.000188272
0.000154788
0.0814454
0.0898206
0.000148335
0.000161474
0.000165503
0.000410525
0.0180899
0.000173931
0.00742992
0.000176194
0.000157968
0.0147446
0.000149772
0.000187123
0.0971204
0.000149795
0.0783502
0.000150491
0.00014851
0.000164282
0.000146945
0.000163559
0.000166806
0.0838011
0.000199515
0.0149037
0.00926973
0.000153218
0.000169529
0.000156026
0.000149331
0.000147105
0.000145023
0.000186964
0.000149097
0.000147864
0.000197767
0.0461848
0.000145577
0.000148245
0.000185452
0.000148662
0.000147293
0.000148155
0.000148467
0.00017566
0.0508078
0.000159417
0.0935747
0.000203078
0.000150569
0.000172157
0.000149281
0.000152094
0.0001598
0.0569956
0.091397
0.000162964
0.000158101
0.000146666
0.00015253
0.0881826
0.000148847
0.000164003
0.000148148
0.000148498
0.0411392
0.0460973
0.000148891
0.000148537
0.000146037
0.0780483
0.0498987
0.000152945
0.000149719
0.000165003
0.000418251
0.0731183
0.0718176
0.000149256
0.0001483
0.000148377
0.000172587
0.000159789
0.0001981
0.000171557
0.000221128
0.000161983
0.000150393
0.00014932
0.000171348
0.000148283
0.0396356
0.000148224
0.00014911
0.000165869
0.000149111
0.000158313
0.000158011
0.000146036
0.030247
0.000146858
0.000162592
0.000148105
0.0145518
0.000147418
0.000173496
0.000147137
0.000149242
0.000149108
0.000157433
0.000148301
0.000148727
0.0140492
0.000158476
0.0845319
0.0660408
0.000186048
0.091867
0.000185414
0.000184836
0.000122155
0.0382747
0.0460698
0.000148106
0.000148647
0.000148539
0.0326649
0.0541393
0.000365213
0.0480254
0.0183141
0.000153177
0.107546
0.000263296
0.00128178
0.0598656
0.000341547
0.0053645
0.000159514
0.000158741
0.000193081
0.000199228
0.0224293
0.000150263
0.00015159
0.0411454
0.000147291
0.0214662
0.000250615
0.000148615
0.000148791
0.000150091
0.0101995
0.000147791
0.000150869
0.030304
0.000160963
0.0670623
0.000522404
0.000850421
0.000148201
0.00015527
0.000169577
0.000573238
0.000885388
0.000172348
0.000238624
0.000174569
0.000147411
0.000375279
0.000148448
0.000327149
0.000146822
0.000146767
0.00018962
0.000159158
0.000149025
0.000212167
0.00016555
0.000124214
0.0188834
0.000149733
0.000156124
0.000616997
0.000149402
0.00019692
0.0966249
0.0432659
0.000162848
0.0371825
0.00573528
0.0808005
0.00016238
0.0799361
0.0651861
0.0139352
0.000307817
0.00014978
0.072235
0.021301
0.0495279
0.0523914
0.000152902
0.0733315
0.0929909
0.000151792
0.0001459
0.000163556
0.000148011
0.0635957
0.0243112
0.000198495
0.000158033
0.000149862
0.000150055
0.000151445
0.0340916
0.0513296
0.000214101
0.000158999
0.0963715
0.000427551
0.000158509
0.000166804
0.000160193
0.000184974
0.000148384
0.000159771
0.000149835
0.000146038
0.0362184
0.0460713
0.000169347
0.000173792
0.000177151
0.000150924
0.000148749
0.000147497
0.000157197
0.000358325
0.000161151
0.000170319
0.000144773
0.000150766
0.000148869
0.000150268
0.000151778
0.0115132
0.000194576
0.000162507
0.000164329
0.000213263
0.000170128
0.000172969
0.00017054
0.000147562
0.000266608
0.081561
0.000163176
0.000197537
0.000149445
0.0227643
0.0311792
0.0001473
0.027481
0.000159449
0.0912571
0.000162974
0.000148079
0.000190156
0.0074782
0.000156359
0.0389655
0.00879164
0.000170328
0.000152844
0.00105236
0.0146154
0.0159947
0.0486222
0.0123509
0.0121642
0.000151712
0.000148489
0.00225727
0.000147964
0.0177144
0.0381076
0.000147984
0.000152121
0.000150459
0.0879807
0.0209252
0.000147981
0.000149095
0.00016052
0.000168705
0.0567653
0.00032123
0.000212937
0.000153682
0.00682512
0.000160099
0.000146544
0.000168339
0.000162549
0.0319593
0.0509319
0.00032844
0.000150971
0.0910979
0.000167571
0.0566257
0.000146143
0.000148171
0.000146151
0.000191141
0.0001586
0.00730763
0.00025192
0.000173032
0.000148299
0.000164144
0.0615856
0.103992
0.000149818
0.000160352
0.00018506
0.00014469
0.0501023
0.0506978
0.0681714
0.0452024
0.000148546
0.000145111
0.000148246
0.000148047
0.000171585
0.0860168
0.0546049
0.000175964
0.000145282
0.000155781
0.000148651
0.000151077
0.000225959
0.0524805
0.000155435
0.051031
0.040343
0.029697
0.000188173
0.0681259
0.000263102
0.0770679
0.000149513
0.000174919
0.0246914
0.000153767
0.000153754
0.000169849
0.0184896
0.000192853
0.0233864
0.000183095
0.000158543
0.000147078
0.000191875
0.0727942
0.000128336
0.000152249
0.0893687
0.00016959
0.0110685
0.0202419
0.0836238
0.000148522
0.000217523
0.000205609
0.000156318
0.0936942
0.000163664
0.0808299
0.000149229
0.0708373
0.000148274
0.00014942
0.00018212
0.0468556
0.000162196
0.000192268
0.000147133
0.000189349
0.0287744
0.000160049
0.00686419
0.000151008
0.000206004
0.000148331
0.000146851
0.000204429
0.000147321
0.000179774
0.000175681
0.000192366
0.000154422
0.000208364
0.0340941
0.0598945
0.000145765
0.0919121
0.00198894
0.0451569
0.000167167
0.000224759
0.0446656
0.0133905
0.000152536
0.000190112
0.000145538
0.000148509
0.000245274
0.000148914
0.00018268
0.054364
0.00023645
0.000158157
0.0841452
0.000148526
0.0351596
0.0523798
0.000161576
0.0570011
0.0451651
0.000147382
0.000345791
0.000155293
0.000156757
0.000170514
0.000160574
0.000148116
0.000306143
0.000149074
0.0356117
0.0223437
0.0426394
0.000202403
0.000157563
0.000158884
0.0244682
0.000148992
0.000170962
0.000163497
0.000260044
0.0001804
0.0407686
0.000182367
0.000175927
0.0748654
0.0258648
0.0369087
0.000167806
0.00014793
0.000147924
0.00014916
0.000162546
0.0867446
0.000154789
0.0362388
0.0815148
0.0472182
0.000479074
0.000147693
0.000164481
0.00014707
0.0567514
0.000149808
0.000151907
0.0800728
0.000153281
0.000199643
0.000167395
0.000149402
0.0238202
0.000261673
0.0119698
0.0573818
0.000166379
0.020709
0.000181674
0.000161286
0.000177142
0.102166
0.000153382
0.000152102
0.000148503
0.000204053
0.0538627
0.0102005
0.0609162
0.0936413
0.0557235
0.000145984
0.000308652
0.0405635
0.00020458
0.000171702
0.000148251
0.0808262
0.00015171
0.0543574
0.0163627
0.000148745
0.100588
0.0204846
0.044247
0.000148194
0.000146194
0.000145977
0.00858605
0.000353718
0.00014786
0.0574036
0.0298374
0.000148472
0.0502141
0.00015125
0.000164779
0.000159671
0.000149083
0.000151094
0.0126877
0.00748595
0.000165371
0.000240581
0.000148595
0.00018917
0.0155639
0.000146427
0.0851212
0.000459439
0.000186694
0.00018278
0.00018905
0.000187782
0.000182511
0.000162819
0.000147354
0.0676739
0.000307256
0.0924963
0.000148338
0.000188665
0.000160571
0.000149276
0.000192533
0.000160021
0.000151926
0.000149705
0.0478036
0.00016211
0.00020251
0.000157232
0.051551
0.000165301
0.000217342
0.000200979
0.0522528
0.000149071
0.0264326
0.000148145
0.000156928
0.000154304
0.000252453
0.000167808
0.00014668
0.000149193
0.0392432
0.000149334
0.000158946
0.034899
0.0337905
0.0862301
0.000419782
0.0124341
0.0196291
0.0473112
0.00146019
0.000199065
0.000156266
0.000159285
0.000161764
0.000147413
0.000171404
0.0514696
0.000172284
0.0539901
0.000191001
0.000150777
0.000368244
0.000157239
0.0577299