/*--------------------------------*- C++ -*----------------------------------*\
| =========                 |                                                 |
| \\      /  F ield         | OpenFOAM: The Open Source CFD Toolbox           |
|  \\    /   O peration     | Version:  v2012                                 |
|   \\  /    A nd           | Website:  www.openfoam.com                      |
|    \\/     M anipulation  |                                                 |
\*---------------------------------------------------------------------------*/
FoamFile
{
    version     2.0;
    format      ascii;
    class       volVectorField;
    location    "300";
    object      U_0;
}
// * * * * * * * * * * * * * * * * * * * * * * * * * * * * * * * * * * * * * //

dimensions      [0 1 -1 0 0 0 0];


internalField   nonuniform List<vector> 
18540
(
(0.334757 0.0268224 0)
(1.00001 -0.000593844 2.97472e-21)
(1.02152 -0.0160207 7.85029e-22)
(-0.114803 -0.0105088 0)
(1.09092 0.00402405 -7.15311e-21)
(1.10733 0.041186 1.02028e-20)
(1.09097 0.00355303 1.79388e-20)
(1.20859 -0.0106332 0)
(0.627895 -0.139901 6.85949e-20)
(1.00018 -0.0565517 -2.01409e-22)
(0.960134 -0.101441 -9.99657e-21)
(0.98913 -0.0194162 1.14363e-20)
(-0.213132 -0.0197234 -8.21503e-20)
(0.995785 -0.0218521 -7.22288e-21)
(0.198084 -0.00283643 -5.45248e-22)
(1.27721 0.0268895 0)
(1.11481 -0.294902 0)
(0.89982 -0.0910323 0)
(-0.0184111 0.0526751 0)
(0.377546 0.080287 3.88343e-20)
(0.756698 -0.0282523 -3.48635e-20)
(1.24944 -0.0748278 0)
(1.00227 -0.00637314 7.00936e-22)
(-0.295382 -0.268925 0)
(1.20301 -0.00559281 0)
(1.06224 -0.187818 0)
(0.105005 0.0251895 1.23142e-19)
(1.20682 0.0251002 2.31049e-20)
(1.11473 0.0216975 -2.01895e-20)
(0.934865 0.059461 3.12237e-20)
(1.00011 -0.00109546 -5.29226e-21)
(0.995033 -0.0150299 0)
(1.26202 0.048533 -2.51343e-20)
(-0.0853145 -0.252013 -3.10884e-20)
(1.01641 -0.140327 0)
(-0.132152 -0.0125584 0)
(1.25568 -0.0836408 4.63277e-20)
(1.00815 -0.0101778 1.0203e-21)
(1.03304 -0.00585675 -2.37789e-21)
(0.718572 -0.383114 0)
(1.0002 -0.00150924 1.28117e-21)
(0.998842 -0.0132478 1.52899e-20)
(-0.187872 -0.0253949 0)
(0.600077 0.0250955 2.60902e-20)
(1.20451 0.0181836 -1.90917e-20)
(1.06284 -0.187263 0)
(1.10983 -0.663792 -5.18239e-20)
(1.02082 -0.0155214 -4.37168e-22)
(0.766267 -0.0389605 -6.73271e-20)
(1.13545 0.023814 -1.45306e-20)
(0.995169 -0.0213221 -6.39139e-21)
(0.0648554 0.18606 0)
(0.316697 0.0748862 0)
(1.00018 -0.000650287 0)
(1.06258 -0.158076 1.58726e-21)
(1.11002 0.0509737 0)
(-0.222922 -0.0206987 8.03507e-20)
(-0.180348 -0.0475445 -8.93415e-20)
(-0.352241 -0.028699 0)
(1.03474 0.00311349 0)
(-0.279845 -0.0247916 5.35379e-20)
(1.10616 -0.0317046 0)
(1.06032 -0.13918 6.76266e-21)
(1.20828 -0.371633 0)
(0.390767 0.0364303 9.53846e-20)
(1.02822 -0.0218699 1.71462e-21)
(0.861775 -0.354752 -2.18277e-20)
(1.0018 -0.00132647 1.63947e-21)
(-0.360471 -0.0301787 -3.81315e-20)
(1.03246 -0.00459489 3.11901e-21)
(1.10621 0.0483642 0)
(0.847874 -0.14613 2.0295e-20)
(1.26275 0.0317292 0)
(-0.161178 -0.0498136 1.42386e-19)
(1.15211 0.0805656 2.66076e-20)
(1.16881 -0.365282 8.70907e-20)
(1.10423 -0.288515 0)
(1.00283 -0.000989655 3.50306e-22)
(0.905462 -0.0981147 5.99758e-21)
(1.26801 -0.246064 2.02901e-20)
(1.02143 -0.101924 -6.11857e-22)
(0.893061 -0.0933476 0)
(1.00804 -0.00935911 0)
(1.27685 0.107222 -2.10538e-20)
(-0.276106 -0.0240665 0)
(0.15312 -0.0241074 -5.74907e-20)
(1.00114 -0.0392165 0)
(1.00159 -0.00548217 0)
(1.07471 -0.104471 0)
(0.14141 -0.0302649 8.83011e-20)
(1.33074 -0.216755 1.38553e-20)
(1.28214 -0.0388381 1.16412e-19)
(1.07098 -0.21888 -5.14591e-21)
(1.02117 -0.00101262 -5.23362e-23)
(1.09974 -0.00565621 -4.87964e-22)
(0.999428 -0.0610583 1.06214e-20)
(1.04907 -0.0972429 8.42954e-21)
(1.16202 -0.0341804 6.06198e-20)
(0.0854864 0.159736 -5.06401e-20)
(-0.183679 -0.0152719 -2.30526e-20)
(1.05233 -0.0119106 3.33475e-21)
(1.0046 -0.000767327 -1.3362e-21)
(1.254 -0.239042 -6.49326e-20)
(1.27539 0.0287434 0)
(-0.287556 -0.0237573 -2.18002e-20)
(1.25862 0.0472052 0)
(1.05371 -0.0138609 8.23568e-21)
(-0.106801 -0.0424596 1.95702e-19)
(1.05558 -0.140334 -5.39636e-21)
(0.927849 -0.0627734 0)
(-0.22996 -0.0156024 -1.046e-20)
(-0.305562 -0.129511 6.97722e-20)
(1.00254 -0.000962768 0)
(1.04744 -0.128293 -2.92068e-21)
(0.0180847 -0.0366129 -7.37882e-20)
(1.04292 -0.184145 1.9476e-21)
(1.02998 -0.199692 1.95097e-21)
(1.16071 -0.0374649 -8.44675e-22)
(1.01594 -0.139873 0)
(1.11031 0.0390478 1.2545e-20)
(-0.0347969 0.0240915 -8.3566e-20)
(0.743867 -0.097622 3.22903e-20)
(-0.28529 -0.0235392 5.51931e-20)
(0.506933 -0.00423832 -2.71089e-20)
(1.00468 -0.00823809 4.896e-21)
(1.11118 0.0226069 2.07311e-20)
(1.13153 0.0459992 1.52508e-20)
(0.921593 -0.179837 8.35595e-21)
(-0.189754 -0.025016 0)
(1.15928 -0.36922 -8.59306e-20)
(1.28765 -0.416575 7.34131e-20)
(1.05063 -0.181428 1.78499e-21)
(1.15092 0.0743323 0)
(0.749025 0.0394529 -1.31404e-20)
(1.01994 -0.015973 0)
(1.01683 -0.00170702 -1.57692e-21)
(0.962705 -0.0972893 1.98995e-20)
(1.09282 -0.113894 0)
(0.970842 -0.0388771 5.35059e-21)
(1.02872 -0.021467 -8.30085e-22)
(0.393357 0.0395913 3.08621e-20)
(1.25709 -0.00440815 -5.25928e-20)
(1.15026 0.0121284 -2.14991e-20)
(-0.158487 -0.0127507 -2.17165e-20)
(1.03116 -0.0132987 2.74063e-21)
(1.02174 -0.0103189 2.97341e-21)
(1.12921 0.0466868 1.32504e-20)
(0.714399 0.0394477 0)
(1.09175 -0.117229 0)
(0.701777 -0.0966693 -3.64396e-20)
(1.01672 -0.0094763 0)
(0.964836 -0.0479096 4.83839e-22)
(1.0257 -0.0149989 6.10755e-22)
(-0.0322188 -0.0320668 -1.36716e-19)
(0.61099 -0.472796 0)
(0.646507 -0.114138 0)
(0.749585 -0.0782949 0)
(1.03155 -0.0137766 1.03912e-21)
(1.01018 -0.0271777 -5.11764e-21)
(-0.0780359 -0.0467701 -1.90445e-19)
(1.20995 0.0717881 0)
(1.15438 0.0466368 -3.59047e-21)
(0.999765 -0.00192764 6.15309e-21)
(1.01952 -0.015065 0)
(-0.027649 0.0203158 0)
(0.989329 -0.0192566 -9.41302e-21)
(0.670641 0.0302403 4.96213e-20)
(0.919825 -0.168528 -8.47571e-21)
(0.238095 0.001874 -3.47585e-20)
(1.04565 -0.0270386 0)
(1.00157 -0.00556982 0)
(1.11533 0.0320822 0)
(1.06329 -0.0855264 0)
(1.07454 -0.105888 -7.25912e-21)
(1.01563 -0.0557396 -1.70551e-21)
(0.322433 -0.0214419 6.34806e-20)
(1.10329 -0.0338884 0)
(-0.107666 0.0149855 0)
(0.595944 -0.525548 0)
(1.05243 -0.582127 6.61947e-20)
(1.07049 -0.10307 0)
(0.945559 -0.221623 1.71021e-20)
(1.15608 0.0493404 -6.32623e-21)
(1.2766 -0.0311223 -1.54314e-19)
(0.921096 -0.0620701 -1.66998e-20)
(-0.132749 0.0303736 0)
(0.976853 -0.0632224 0)
(1.09168 -0.0117291 -6.991e-21)
(1.36689 -0.0465468 7.86773e-20)
(1.02718 -0.190833 -1.97896e-21)
(1.11461 0.0264967 -1.01787e-20)
(1.02091 -0.0971673 1.99779e-21)
(-0.0749671 -0.143021 0)
(1.00425 -0.00819725 -3.89103e-21)
(0.716102 0.122323 0)
(1.00974 -0.0270386 0)
(1.12748 0.0546753 -1.40429e-20)
(1.30091 0.0237162 6.4847e-20)
(1.27721 0.107728 -5.13539e-20)
(1.05411 -0.127807 2.04142e-21)
(1.07044 -0.182451 -6.65968e-21)
(1.29006 -0.0534289 1.18425e-19)
(0.943237 -0.179073 -2.33725e-20)
(1.13145 0.0247211 7.54501e-21)
(0.248988 -0.00410579 -6.64503e-20)
(-0.28494 -0.119855 7.6793e-20)
(0.987314 -0.0207228 -5.1542e-21)
(-0.138027 -0.0122572 0)
(-0.204859 -0.00631327 -3.73697e-20)
(1.15115 -0.00505264 6.12336e-21)
(0.995321 -0.0145903 0)
(-0.324053 -0.035562 -9.57032e-20)
(-0.124683 0.0112004 1.75996e-22)
(1.00083 -0.00470231 0)
(1.06947 -0.217228 0)
(1.15568 -0.0398235 0)
(0.41391 -0.00888964 2.74779e-20)
(1.03394 -0.466679 0)
(-0.307183 -0.269084 -5.60251e-20)
(1.0317 0.0559495 -8.82564e-20)
(-0.334182 -0.034447 1.92288e-19)
(1.19521 -0.218231 2.00879e-20)
(0.894559 0.0398589 0)
(0.653157 -0.0572271 1.08424e-19)
(1.11093 -0.662966 9.58214e-20)
(0.00541091 0.0127603 2.7683e-20)
(1.14357 -0.0566333 0)
(1.14992 -0.000795299 -2.03595e-20)
(-0.356158 -0.030061 -4.501e-20)
(1.18336 0.039278 0)
(1.0542 -0.0921755 -2.74661e-21)
(1.33225 -0.0254997 -6.56902e-20)
(1.26521 0.0366055 4.63807e-22)
(1.049 -0.0963579 -3.81707e-21)
(0.999826 -0.00195584 0)
(1.10153 0.000293521 -1.16209e-20)
(0.996186 -0.0145628 0)
(0.865704 -0.027329 0)
(1.2075 0.0595764 0)
(0.935293 -0.191081 3.28032e-22)
(0.340228 -0.137045 0)
(1.19495 -0.47454 1.16941e-19)
(1.29847 -0.261816 -5.77238e-20)
(1.14256 -0.0551409 -2.51169e-20)
(0.27134 -0.00249192 7.5396e-20)
(-0.229625 -0.0247862 9.26492e-20)
(1.00019 -0.00143497 3.13392e-21)
(1.02139 -0.0111654 0)
(1.13764 -0.0720119 0)
(0.987145 -0.0420672 1.29353e-20)
(1.10336 -0.329936 1.10294e-20)
(-0.221686 -0.007569 8.62052e-20)
(-0.241895 -0.0334623 6.89384e-20)
(0.962127 -0.0506447 -1.6769e-20)
(0.917295 -0.0608934 0)
(1.20331 -0.354394 7.25138e-20)
(1.34043 -0.061319 0)
(0.497276 -0.289326 7.05012e-20)
(0.989951 -0.0181751 -9.2505e-23)
(-0.0783553 0.0629988 0)
(1.18647 -0.363002 -3.19993e-20)
(-0.000584498 0.0336111 -2.47028e-20)
(0.970422 -0.026203 -3.39961e-20)
(0.996467 0.637069 -2.04966e-20)
(-0.291138 -0.0257701 0)
(1.13861 -0.0711509 2.20352e-20)
(0.706156 0.0363326 -1.48948e-19)
(0.253223 0.0464977 0)
(1.00835 -0.0102116 8.11918e-22)
(1.00096 -0.00518377 -1.70397e-21)
(-0.291662 -0.0327995 8.77368e-20)
(-0.155869 0.0328304 0)
(0.502205 0.286362 8.64706e-20)
(1.06461 -0.0403449 -1.18348e-20)
(1.26377 0.0145472 -1.01421e-19)
(0.129133 -0.00737357 0)
(1.02538 -0.0142303 2.19656e-21)
(1.18444 -0.0381261 3.6259e-20)
(1.33318 -0.211288 7.01727e-20)
(1.00774 -0.0255946 8.43652e-21)
(1.00006 -0.00785005 5.30921e-21)
(0.240516 0.00117278 4.43585e-20)
(1.0895 -0.0440201 -1.90438e-21)
(0.996522 -0.0142681 -1.01038e-20)
(0.298555 -0.564355 -8.23111e-20)
(1.03315 -0.00429088 -7.09377e-21)
(0.375311 0.298495 -1.80904e-19)
(1.18099 0.0327425 2.03109e-20)
(-0.125046 -0.00690849 0)
(1.26548 0.0294083 0)
(-0.0309081 -0.0323635 0)
(1.09576 0.061434 8.15856e-20)
(1.01629 -0.253057 6.93937e-23)
(1.00822 -0.00942097 0)
(0.620047 -0.0961721 1.38619e-19)
(1.15279 0.0908816 -1.32889e-20)
(1.29626 0.018536 -5.73639e-20)
(1.07124 -0.181062 1.43617e-20)
(1.07163 -0.0411216 -1.02988e-19)
(0.704186 0.108871 0)
(0.986201 -0.0368597 0)
(-0.342694 -0.0268096 0)
(1.33299 0.171924 -7.54573e-20)
(0.800151 -0.205887 5.07539e-20)
(0.892621 -0.367404 -1.92109e-20)
(1.00098 -0.0174947 0)
(0.325626 -0.147986 0)
(1.01632 -0.00957119 -1.85567e-22)
(0.518047 -0.308375 6.49654e-20)
(0.995771 -0.0147738 0)
(-0.049298 -3.10557e-05 -4.95029e-20)
(1.06179 -0.007071 0)
(0.103442 -0.00886884 0)
(1.13031 0.0519517 0)
(1.38923 -0.339746 9.97216e-20)
(0.247085 0.329152 -6.42084e-20)
(0.156084 -0.00612945 -1.70147e-20)
(0.991728 -0.0125183 -9.56565e-21)
(0.963106 0.0380642 0)
(-0.194195 -0.0384265 -1.50654e-19)
(-0.271121 -0.0211692 -2.36722e-20)
(0.545788 -0.483088 -5.36667e-20)
(0.988837 -0.0414275 0)
(-0.362289 -0.0293093 0)
(1.08767 -0.0491841 3.25248e-21)
(1.04758 0.00493234 3.27933e-21)
(1.15489 0.0368508 0)
(1.04374 -0.129898 0)
(1.00115 -0.0200885 8.36122e-21)
(1.00752 -0.0166315 -1.62288e-21)
(1.0219 -0.0109412 -1.56457e-21)
(1.25438 -0.0108209 4.34631e-20)
(0.594832 -0.358524 -6.42907e-20)
(0.87145 -0.0340126 -6.74368e-20)
(1.27667 -0.436627 -7.05135e-20)
(1.14101 -0.354435 1.66737e-20)
(1.04662 -0.0262277 -5.74003e-21)
(1.00081 -0.00599837 -1.9558e-21)
(-0.279312 -0.0157532 4.5234e-20)
(0.802705 -0.229984 0)
(1.15325 -0.0457159 0)
(1.1524 0.0105579 -2.55229e-20)
(1.08605 -0.0136905 1.27911e-20)
(0.871062 -0.354106 0)
(1.34402 -0.125444 4.85531e-20)
(0.607787 -0.398128 3.45647e-20)
(1.00777 -0.0245703 -3.4946e-21)
(1.19478 -0.235312 -4.70417e-20)
(1.09322 -0.00178705 -1.55204e-20)
(0.424513 -1.219 0)
(0.858037 -0.609993 -2.68007e-21)
(1.00073 -0.00561137 -1.91551e-21)
(0.748893 -0.113127 -2.36e-19)
(1.00533 -0.0583461 -1.94439e-21)
(1.00018 -0.00764363 -3.43666e-22)
(0.22889 -0.00445113 5.45823e-20)
(1.001 -0.00610848 3.5571e-21)
(1.02651 -0.0154428 0)
(1.01624 -0.0380305 0)
(-0.0941064 0.0423211 -2.50891e-20)
(1.15704 0.0888856 4.03516e-20)
(1.01876 -0.0155717 -3.37919e-22)
(1.00085 -0.0170495 8.54085e-21)
(1.0669 -0.101096 0)
(0.0115144 -0.0395435 0)
(1.00097 -0.252944 -9.03559e-22)
(1.03298 0.00273988 -5.57673e-23)
(0.998838 -0.0137455 -4.18395e-21)
(1.04599 -0.0283761 -2.95233e-21)
(1.00509 -0.00905402 -3.80039e-21)
(-0.150234 -0.0181334 -6.16434e-24)
(1.01999 -0.00992813 -1.80991e-21)
(1.32769 -0.149412 0)
(0.996142 -0.101803 1.56717e-20)
(1.00083 -0.0061167 -1.99754e-21)
(1.33302 0.159525 0)
(0.995886 -0.0142125 0)
(1.3262 0.156809 0)
(1.0884 -0.0416517 1.51148e-21)
(-0.16976 -0.467996 4.05086e-20)
(0.473544 -0.13392 -7.59423e-20)
(1.01575 -0.00920077 -2.36528e-22)
(1.11968 -0.307382 4.31096e-21)
(1.33774 -0.0260417 3.67697e-20)
(0.952134 -0.152682 1.18464e-21)
(1.0222 -0.0100812 -1.91985e-21)
(0.570586 0.0894821 -1.51519e-21)
(0.914439 0.0574394 5.68243e-20)
(1.00064 -0.000596041 -4.2508e-21)
(1.29652 -0.230799 -1.15171e-19)
(0.316539 -0.00409786 -1.4842e-19)
(1.01536 -0.00927186 1.65707e-22)
(1.07853 -0.0990605 6.98223e-21)
(-0.343703 -0.0256468 -1.35788e-19)
(-0.157907 -0.0178972 -1.08722e-19)
(1.00133 -0.0133675 4.47606e-21)
(-0.184791 -0.0355336 0)
(-0.132148 -0.0100828 0)
(1.00053 -0.000408632 4.40659e-21)
(0.382453 0.317064 9.53657e-20)
(0.0867769 -0.0970058 0)
(0.669814 0.0298179 -3.41544e-22)
(1.09164 -0.00428193 1.4962e-20)
(0.99867 -0.00552016 -1.1942e-20)
(1.1569 0.0225959 7.50332e-21)
(1.02806 -0.0150854 7.37116e-22)
(0.781774 0.0660909 3.82069e-22)
(-0.297035 -0.0242753 0)
(0.986481 -0.0497524 0)
(1.17602 0.111654 1.85315e-20)
(-0.196504 -0.407949 9.16185e-20)
(-0.228974 -0.0354907 -1.4123e-19)
(1.18509 -0.368341 -3.1247e-20)
(1.01832 -0.0146659 3.38516e-22)
(1.15856 0.0191281 2.43141e-20)
(0.109408 -0.398088 0)
(1.00086 -0.00653833 3.87923e-21)
(1.11307 0.0486733 0)
(1.31057 -0.256152 -6.97932e-20)
(0.589253 -0.325277 0)
(0.710661 -0.57831 2.32702e-20)
(0.332579 0.0287656 -3.08992e-20)
(1.005 -0.0088133 2.44456e-21)
(0.0709548 0.231698 0)
(1.01829 -0.00552027 -6.18626e-22)
(1.16246 0.0528047 5.06227e-20)
(1.01857 -0.00545185 -3.93909e-23)
(0.5114 0.404866 5.78816e-20)
(0.965822 -0.139505 -2.63622e-20)
(1.03028 -0.194568 8.97951e-22)
(1.00687 -0.0158916 0)
(0.0215079 0.0312066 -5.05589e-20)
(1.16257 0.032601 -2.49182e-20)
(0.174822 0.0410632 0)
(1.04225 -0.0995272 5.52419e-22)
(0.546682 0.628903 0)
(1.00198 -0.00636281 -6.54655e-22)
(1.02273 -0.00485687 1.02013e-21)
(0.594448 -0.0889587 0)
(0.993253 -0.0228579 3.8242e-21)
(0.550155 0.118205 -6.40246e-22)
(0.933095 -0.0591385 0)
(0.63588 -0.0257349 -1.44644e-19)
(-0.241181 -0.0222428 -4.03791e-20)
(0.994249 -0.0221423 1.01772e-22)
(1.05375 -0.0157547 -1.19001e-20)
(0.979186 -0.0317223 0)
(-0.256933 -0.0235705 5.18286e-20)
(0.989877 -0.0179418 8.89284e-21)
(1.03393 -0.00330948 3.67775e-21)
(0.343256 -0.0620536 0)
(-0.185831 -0.0343255 -9.82087e-20)
(1.01628 -0.00176629 8.9267e-23)
(1.02416 -0.00548448 -1.15643e-21)
(1.04759 0.00331772 0)
(0.974246 -0.0165617 1.09632e-20)
(1.12353 0.0657125 8.16685e-21)
(0.994871 -0.022649 6.98144e-21)
(-0.282194 -0.0252136 0)
(0.130243 0.0532749 -1.39548e-19)
(1.08629 0.0190542 -3.43333e-22)
(1.0153 -0.0537817 0)
(1.15628 0.0368869 -2.2619e-20)
(1.07828 -0.102048 1.6525e-20)
(1.00107 -0.00455382 6.60107e-24)
(1.06047 -0.22201 1.35392e-20)
(0.235917 -0.022485 0)
(1.09239 0.0266429 1.48668e-20)
(1.28923 0.0185904 6.13041e-20)
(1.26044 0.0178604 1.18477e-19)
(0.580453 -0.964382 0)
(0.875205 -0.373182 -1.55184e-20)
(-0.240926 -0.0409248 -6.39633e-20)
(-0.0848177 -0.0551366 0)
(0.607348 -0.403413 0)
(1.02959 0.000559663 4.38242e-21)
(0.0241984 0.0349602 8.42667e-20)
(1.0043 -0.000686512 2.58966e-21)
(1.18081 0.0284497 0)
(1.02101 -0.000865869 8.53308e-22)
(1.18858 -0.043555 -4.98424e-20)
(1.02856 -0.00234742 -1.88257e-21)
(0.605219 0.0361487 1.37735e-19)
(0.986825 -0.0440915 0)
(1.09326 0.0252238 -1.52668e-20)
(1.01298 -0.13359 -3.57314e-21)
(1.15322 0.0705376 0)
(-0.196554 -0.0395566 -1.07039e-19)
(0.991288 -0.022784 0)
(1.06638 -0.0412138 0)
(0.367803 0.29556 0)
(1.20594 0.0543677 9.17204e-20)
(0.73983 -0.362109 0)
(-0.287909 -0.0247196 0)
(-0.26941 -0.241349 8.26968e-20)
(0.218177 -0.667353 -4.80732e-20)
(1.04386 -0.127668 3.59873e-21)
(0.0252861 0.038221 4.9317e-20)
(1.28747 -0.00266459 0)
(0.962956 -0.0945962 -1.8498e-20)
(0.554743 -0.463752 0)
(0.926171 -0.378185 1.17996e-20)
(1.03362 0.00256283 4.61194e-21)
(1.02613 -0.436427 0)
(0.999959 -0.000960866 -3.50352e-21)
(1.08947 -0.0460208 -4.41612e-21)
(0.877255 -0.55407 -1.11278e-23)
(1.0591 0.00403648 -5.51645e-21)
(0.758704 -0.336082 0)
(-0.0861245 0.0168186 0)
(0.986181 -0.0373108 7.54819e-21)
(0.974685 -0.0170839 -3.57281e-20)
(0.99867 -0.013184 -8.34543e-21)
(1.1747 0.103773 -1.73889e-20)
(0.0953477 -0.143475 0)
(1.00041 -0.100991 -8.85641e-21)
(1.10956 -0.0240092 -1.08544e-20)
(1.00959 -0.00885496 -7.64877e-23)
(-0.254387 0.0366331 6.76847e-20)
(1.00206 -0.00108617 1.9122e-21)
(0.417903 0.254501 4.47714e-20)
(0.99737 -0.0129364 0)
(1.13736 -0.340406 0)
(0.942829 -0.0217624 0)
(1.15148 0.065986 -1.66758e-20)
(1.02912 0.000233468 -8.65414e-23)
(1.00125 -0.0111188 0)
(-0.143549 -0.00954875 0)
(1.00927 -0.00838078 0)
(1.00221 -0.0381062 5.41574e-21)
(0.086983 -0.046038 8.50234e-20)
(1.19667 -0.46971 -2.98572e-20)
(1.02486 -0.246401 0)
(1.00184 -0.00576278 0)
(1.00017 -0.000953643 -1.77578e-23)
(1.06017 -0.00893719 -2.36876e-21)
(0.128074 0.0621331 -2.11441e-20)
(1.05248 -0.58454 4.71874e-20)
(1.01973 -0.174199 1.29058e-21)
(1.00024 -0.0368555 -5.50291e-21)
(1.00062 -0.00468928 0)
(0.837052 -0.0602152 -2.61238e-20)
(1.33359 -0.163911 -6.04829e-20)
(1.17804 -0.176946 -3.52045e-20)
(1.08989 0.0370985 0)
(1.02898 -0.000215328 0)
(-0.227924 -0.042625 0)
(0.158586 0.0674602 0)
(0.940289 -0.0868405 2.45527e-20)
(1.13844 -0.0069225 0)
(0.898954 -0.0197002 3.99374e-20)
(1.01762 -0.0151494 0)
(1.26555 0.0285612 0)
(0.326855 0.0441587 0)
(1.02814 -0.00175389 0)
(1.12572 0.0602316 -2.17491e-20)
(1.29222 0.0214262 5.72386e-20)
(0.648165 -0.168931 1.48676e-19)
(-0.207311 -0.0194608 0)
(1.00786 -0.000984487 1.44356e-21)
(1.05532 -0.0917823 3.03742e-21)
(1.03746 -0.128316 -3.37351e-21)
(1.0203 -0.00548368 -7.55191e-22)
(0.903495 -0.0157885 -2.50769e-20)
(1.07375 -0.0412556 3.13424e-22)
(-0.138556 -0.0192848 -5.73231e-20)
(1.01714 -0.0142745 0)
(0.93032 -0.402101 -1.73359e-20)
(0.903901 -0.0141798 0)
(0.946222 -0.226621 -3.5605e-20)
(1.02952 -0.00366037 3.9768e-21)
(0.999942 -0.00129805 0)
(1.05571 -0.476217 4.15981e-20)
(1.05965 0.00276957 -2.99281e-21)
(0.686649 -0.537631 -2.30293e-21)
(-0.11429 -0.0536764 -1.08173e-19)
(1.04136 -0.00162657 -2.16067e-21)
(1.0492 -0.130719 -5.3961e-21)
(1.0481 0.00294683 -2.8115e-21)
(1.02564 -0.0217381 2.36577e-21)
(1.27906 -0.0722857 -3.15141e-20)
(1.00093 -0.00473175 -3.13721e-21)
(0.156281 -0.0481391 -7.80988e-20)
(-0.1296 0.119232 4.35942e-20)
(-0.320536 -0.0246237 2.24734e-24)
(0.849463 -0.0300887 2.76964e-20)
(0.999384 -0.0288353 -2.7918e-21)
(0.991245 -0.0221996 5.21228e-21)
(1.08371 0.0193767 -5.90388e-21)
(1.34644 -0.044014 0)
(1.13727 0.0307216 2.62175e-20)
(1.02333 0.000108819 -2.50837e-22)
(0.99765 -0.0134758 0)
(0.987741 -0.0471673 0)
(-0.270994 -0.0317926 0)
(0.990998 -0.0123734 2.42646e-21)
(1.04292 -0.00676019 0)
(-0.362987 -0.0325455 1.28433e-20)
(1.07014 -0.0424037 0)
(1.0331 -0.00571029 0)
(0.764028 -0.124368 -2.29269e-19)
(1.21247 0.049305 4.98064e-20)
(1.04573 0.00147691 0)
(0.90167 -0.249738 0)
(-0.0744025 -0.0453877 0)
(0.959236 -0.152634 2.41847e-20)
(1.0597 -0.210907 -6.30704e-21)
(0.998506 -0.00554802 -8.43811e-21)
(0.995814 -0.0114216 -9.01828e-21)
(1.21711 0.0437232 1.37162e-20)
(1.09137 0.0312504 1.27457e-20)
(-0.247832 0.0454487 -4.01626e-20)
(-0.0318758 -0.0529491 0)
(-0.357631 -0.0321463 1.03881e-19)
(1.01622 -0.0377194 0)
(-0.279074 -0.0140968 0)
(1.01685 -0.0393947 0)
(1.00002 -0.00143564 -1.85111e-21)
(0.819197 0.0884828 3.05803e-23)
(1.05001 0.0070598 0)
(0.135728 0.040995 4.68592e-20)
(-0.23927 -0.0230942 -3.58276e-20)
(1.01223 -0.000590028 0)
(-0.308519 -0.0229464 -5.65412e-20)
(1.24862 -0.342013 0)
(-0.274957 -0.207466 -3.74529e-20)
(1.15528 -0.21443 0)
(1.08807 0.0145464 -1.41561e-20)
(0.368574 -0.160359 1.5819e-22)
(-0.243424 -0.0189685 0)
(1.11429 -0.0017688 0)
(-0.147599 -0.332182 5.4693e-20)
(-0.286299 -0.0375066 -8.3845e-20)
(-0.218079 -0.0257041 -1.38473e-19)
(1.00009 -0.000629635 -2.10486e-21)
(1.05883 -0.00730618 4.50442e-21)
(0.939544 -0.044625 0)
(1.33768 -0.00457758 -1.91489e-20)
(1.02916 -0.000454253 -5.09218e-22)
(1.1163 0.0247057 0)
(0.177465 0.0479744 0)
(-0.152307 -0.00749067 -1.32288e-20)
(0.97134 -0.0425523 -1.14569e-20)
(1.12884 0.0593645 -2.40513e-20)
(0.258983 -0.147464 -4.67804e-20)
(0.599745 -0.344883 1.13535e-19)
(1.01752 -0.0960637 3.30648e-21)
(1.06755 -0.15219 -8.05431e-21)
(0.996215 -0.0105837 -1.77664e-20)
(0.965654 -0.091638 1.87921e-20)
(-0.163971 0.0153274 6.78517e-20)
(1.00625 -0.0154391 4.62688e-21)
(0.996662 -0.0113165 0)
(1.04245 -0.00213729 -6.1726e-21)
(0.858271 -0.131921 0)
(0.639264 0.0317469 -6.52767e-20)
(1.04528 0.00238048 0)
(0.0727484 0.0601024 -8.62484e-20)
(1.04822 0.00453719 -3.40242e-21)
(-0.232837 -0.0137913 -6.45115e-20)
(1.00561 -0.0149627 -6.62313e-21)
(-0.261834 -0.0790253 0)
(0.865859 -0.496764 0)
(1.10221 -0.00642463 1.78833e-20)
(-0.159232 -0.0497574 2.50044e-20)
(1.17589 -0.171463 3.36235e-20)
(0.979001 -0.0317988 7.93777e-21)
(0.656578 0.0555689 4.79583e-20)
(0.835019 0.0719819 0)
(0.780423 -0.0760017 0)
(1.02559 -0.106697 1.78314e-21)
(0.244757 0.361416 -2.24155e-21)
(-0.155621 -0.35888 -6.67357e-20)
(0.789555 -0.335638 0)
(0.0340664 0.0374037 0)
(0.978789 -0.0590115 -4.74385e-21)
(-0.268882 -0.0110263 -8.5316e-20)
(-0.232889 0.0515254 4.86969e-20)
(1.04226 -0.024786 0)
(0.997239 -0.0357794 2.66954e-22)
(1.00218 -0.0570443 -3.86639e-21)
(1.02486 -0.021638 -1.65968e-21)
(-0.275934 -0.111945 1.37497e-19)
(1.10934 -0.00351696 0)
(1.06097 -0.079924 -3.5886e-21)
(1.11642 -0.00381373 0)
(-0.181356 0.0119832 1.32273e-19)
(1.07074 -0.151092 8.74296e-21)
(1.09129 -0.006048 -2.67235e-20)
(0.942421 -0.0460225 1.26541e-20)
(1.01262 -0.000341951 9.98424e-22)
(-0.111444 -0.193357 0)
(0.526861 0.391835 0)
(-0.137216 -0.0514172 0)
(1.11852 -0.0575244 2.84275e-20)
(-0.160057 -0.0198295 0)
(1.0242 -0.00486221 -2.23994e-21)
(1.14561 -0.186682 0)
(1.08938 -0.00795014 1.17868e-20)
(-0.28565 -0.0327306 0)
(0.973158 -0.221154 0)
(1.03226 -0.0062151 -3.22909e-22)
(1.06887 -0.041123 0)
(1.05275 -0.0276517 0)
(1.02329 -0.00507619 -2.20793e-21)
(1.02111 -0.00530464 8.74778e-22)
(0.421191 -0.273694 1.37158e-19)
(1.01284 -0.131542 1.56917e-21)
(0.683496 0.0747235 0)
(-0.314914 -0.0224048 0)
(1.03462 -0.00443678 1.36613e-21)
(1.0576 -0.00891925 -6.86885e-23)
(-0.28128 -0.0846348 -6.57572e-20)
(-0.28997 -0.0168288 -6.69278e-20)
(0.88831 0.0746479 -5.73562e-20)
(0.999316 -0.00991767 0)
(1.00109 -0.00504844 1.00439e-20)
(0.862039 -0.0678499 4.22567e-20)
(1.0138 -0.00527461 1.09101e-22)
(1.08372 -0.358272 0)
(1.29182 -0.00166071 -8.81375e-20)
(0.966556 -0.0895134 0)
(1.00002 -0.000181061 4.58565e-21)
(1.00137 -0.00536542 -2.96274e-21)
(1.08171 -0.142037 0)
(0.923414 -0.169978 3.29453e-20)
(0.758564 0.0181273 3.15422e-20)
(0.995347 -0.0116898 4.07688e-21)
(0.999951 -0.00143936 5.29993e-21)
(1.07814 -0.141314 0)
(1.05738 -0.476158 -3.30596e-20)
(0.934267 -0.0767297 1.74138e-20)
(1.11171 -0.00693831 0)
(1.15574 -0.213473 0)
(-0.224122 -0.0125205 7.43221e-20)
(1.00086 -0.00512314 1.64569e-21)
(1.01674 -0.00015752 9.8897e-22)
(-0.152784 -0.375117 3.57804e-20)
(1.28492 -0.0637904 -1.28944e-19)
(1.15296 0.0946049 1.34586e-20)
(1.00735 -0.000928004 -1.33843e-21)
(1.24389 -0.0671185 -7.88421e-20)
(-0.213153 -0.00851322 9.01928e-20)
(1.21912 0.0430616 4.7323e-20)
(1.11821 -0.0629465 3.41614e-20)
(1.12033 -0.0673269 -9.5765e-21)
(-0.239357 -0.0407029 0)
(1.03856 -0.0196661 0)
(0.613046 -0.284251 -5.09806e-20)
(1.26731 0.026307 -5.02318e-20)
(-0.255375 -0.0230864 0)
(1.0088 -0.0147851 -3.83716e-21)
(1.00645 -0.00961743 -6.19899e-22)
(1.01849 -0.000561895 -9.84801e-22)
(1.01116 -0.00745286 3.9305e-22)
(1.24863 -0.0727349 9.11985e-20)
(1.08767 -0.0120349 -2.0228e-20)
(0.830891 -0.0976002 0)
(1.01774 -0.00530403 0)
(1.05446 -0.0174653 -5.22244e-21)
(-0.272827 -0.0225308 -2.42104e-20)
(1.00115 -0.00507799 -6.52492e-21)
(1.01955 -0.0103113 1.03645e-21)
(1.01598 -0.0138147 2.0509e-22)
(0.198464 -0.533619 1.33926e-19)
(1.34005 0.0054888 0)
(1.0225 -0.00903226 -1.03355e-21)
(0.931071 -0.151153 -8.70579e-22)
(1.26493 -0.0280075 -4.81372e-20)
(1.14151 -0.000123586 0)
(1.0158 -0.219018 4.73065e-23)
(0.695726 -0.0943487 0)
(1.26575 0.0869505 -5.54153e-21)
(1.20027 -0.284249 5.70979e-20)
(1.0276 -0.079173 -1.32139e-21)
(1.27416 -0.0640532 2.9847e-20)
(1.00697 -0.0100059 0)
(1.20466 -0.483946 -3.91734e-20)
(0.790658 -0.0258749 8.51116e-20)
(1.01342 -0.00485971 -1.10154e-22)
(1.21778 0.131164 -2.72751e-20)
(0.294695 0.00254793 3.09514e-20)
(0.9962 -0.0353102 -4.69112e-21)
(-0.219533 -0.0110334 -9.68855e-20)
(1.08907 -0.27272 2.15368e-20)
(1.19025 -0.285842 -5.10505e-20)
(1.00345 -0.0596664 1.72042e-21)
(-0.222185 -0.0200448 4.69564e-20)
(1.25925 -0.0240701 -5.2898e-20)
(0.75262 -0.0494167 -6.59439e-22)
(0.92642 -0.0621566 3.72328e-20)
(1.12665 0.0643946 3.42972e-20)
(-0.170545 -0.00696611 -1.77748e-20)
(1.00108 -0.0186774 0)
(1.07832 -0.0204134 0)
(-0.185481 0.0109666 -6.54117e-20)
(1.09931 -0.00321217 -7.02288e-21)
(1.02023 -0.17136 2.45833e-22)
(0.579956 -0.44552 -1.15809e-19)
(1.16091 -0.023247 0)
(1.10961 0.0199436 -2.623e-21)
(1.10843 -0.0268559 1.1731e-20)
(0.948277 0.0853694 9.12222e-20)
(0.944728 -0.0792049 -3.85173e-20)
(1.05298 -0.0382219 0)
(-0.159875 -0.0113329 8.92739e-20)
(1.04095 -0.0752849 0)
(1.01889 -0.00985244 -1.05605e-21)
(0.407338 0.146055 1.2019e-19)
(1.0108 -0.00702152 -1.05195e-21)
(1.05407 -0.137109 9.69094e-21)
(1.00854 -0.0140665 3.92128e-21)
(1.20091 0.00503907 0)
(-0.236481 -0.0313154 0)
(1.04803 0.00763464 -6.17984e-21)
(1.08977 -0.0147621 1.00064e-20)
(-0.154708 -0.0456402 0)
(1.01646 -0.0146793 -1.7525e-22)
(-0.314362 -0.0240538 6.65351e-20)
(1.00201 -0.0327694 -1.19471e-23)
(-0.165201 -0.290545 1.48211e-20)
(1.01282 -0.00152861 1.74441e-23)
(1.05413 -0.0346524 0)
(1.0703 0.0174979 -1.48179e-20)
(-0.104535 0.0137768 0)
(1.06155 -0.147617 -7.36799e-21)
(0.772322 -0.051296 0)
(0.963945 -0.12965 1.22675e-20)
(0.855486 -0.0419557 -1.47585e-20)
(1.02719 -0.0151702 1.25196e-21)
(1.0802 -0.088958 -3.45028e-21)
(0.121711 -0.00758512 -1.99559e-20)
(1.36257 -0.042324 -1.68316e-19)
(0.993615 -0.0511396 -1.10377e-20)
(0.0514641 0.425797 -2.36343e-20)
(1.25458 0.0292288 -6.75609e-21)
(0.852708 -0.0534864 0)
(-0.259036 -0.00500311 4.19633e-20)
(0.99311 -0.0222216 0)
(1.04937 0.00740831 6.30229e-21)
(0.98395 -0.018457 -1.49622e-20)
(0.391429 -0.189908 0)
(1.26369 -0.0251739 0)
(1.00966 -0.0153419 -5.88681e-22)
(1.02433 -0.00251412 0)
(1.02394 -0.0210729 7.15598e-22)
(-0.118325 -0.159402 -1.64371e-19)
(1.0231 -0.114308 -1.46923e-21)
(1.0542 -0.0371285 4.74975e-21)
(0.846433 -0.345938 -1.48906e-20)
(0.986402 -0.0210736 1.1845e-22)
(1.05541 -0.0348387 0)
(1.34405 -0.123643 -9.52454e-20)
(0.233206 0.319161 7.19439e-20)
(1.08769 0.0176469 1.25739e-20)
(1.02337 -0.0212889 -5.40407e-22)
(-0.120573 -0.0146705 -1.42238e-20)
(1.00019 -0.000902162 0)
(1.10165 0.000105853 -1.88676e-20)
(0.753714 0.0364844 0)
(1.27089 -0.0350704 1.86045e-19)
(-0.152363 -0.00498173 -5.62266e-20)
(1.03982 -0.00189097 4.06751e-21)
(-0.229066 -0.0260939 -5.22462e-20)
(1.0216 -0.0633325 6.61981e-22)
(1.08675 0.0158196 0)
(1.013 -0.00183006 3.79768e-23)
(0.974654 -0.0190516 9.99657e-21)
(-0.0223121 -0.0961506 -6.97793e-20)
(0.667607 -0.0867967 0)
(1.04068 -0.00233267 2.16002e-21)
(-0.255781 -0.0317829 0)
(1.02227 -0.0490376 -9.49542e-22)
(0.904128 -0.241104 0)
(0.315002 -0.0147033 0)
(1.00244 -0.00668652 0)
(0.669454 -0.0757861 4.31426e-20)
(0.372979 0.0290774 5.98908e-20)
(1.09536 0.0376956 -8.08333e-21)
(1.15376 -0.195698 7.87146e-20)
(1.00089 -0.00558359 -1.78832e-21)
(0.0389808 0.0628561 0)
(0.980067 -0.0339924 8.36423e-21)
(0.198667 0.0275172 1.31227e-19)
(1.18134 0.0774736 0)
(1.00021 -0.00014813 -2.04508e-21)
(-0.287058 -0.0235812 8.67033e-20)
(1.0716 0.0148912 1.76614e-20)
(1.056 -0.13596 -4.85807e-21)
(-0.1725 -0.280883 0)
(1.0016 -0.000911367 4.33526e-22)
(1.05096 -0.0270747 7.83867e-22)
(-0.279859 -0.0238287 -1.34568e-20)
(1.06279 -0.144123 -7.41623e-21)
(0.69384 -0.975823 2.35476e-20)
(0.999893 -0.00848035 -6.17146e-21)
(1.02888 -0.0471857 -1.73384e-22)
(1.21185 0.130744 4.67734e-20)
(0.0396387 0.0317961 0)
(1.04439 -0.0980372 0)
(0.72863 -0.0782563 4.64386e-20)
(1.00137 -0.0108708 0)
(1.00029 -0.00840925 1.80146e-21)
(0.938165 -0.0808512 -3.83612e-21)
(1.00727 -0.0139332 -2.70526e-21)
(0.109889 -0.384754 0)
(0.759802 0.072686 -1.0717e-19)
(0.986776 -0.0500721 0)
(0.572414 0.0239605 0)
(-0.102983 -0.26292 7.78721e-20)
(1.00697 -0.0125424 2.65404e-21)
(1.01488 -0.0359464 2.22837e-21)
(1.00478 -0.0304612 2.25163e-21)
(1.27048 0.0939024 7.36824e-20)
(0.958264 -0.214336 9.04843e-21)
(1.14471 -0.121996 0)
(-0.25278 -0.0409243 -5.30312e-20)
(1.00001 -0.000288055 6.97447e-21)
(-0.296993 -0.0223925 0)
(1.14066 -0.183785 -2.35008e-20)
(-0.0173698 -0.214223 0)
(0.196035 -0.518491 -1.11126e-19)
(1.00498 -0.0543669 3.78467e-21)
(0.154744 -0.0372194 -5.33545e-20)
(0.6625 -0.179945 0)
(0.607658 0.0251901 -2.49256e-20)
(-0.141745 -0.347513 6.96952e-20)
(1.00093 -0.0182767 0)
(1.02239 -0.0204642 5.05599e-22)
(-0.17456 -0.00755196 0)
(0.909484 -0.162373 -2.35889e-20)
(0.176453 -0.0354819 0)
(-0.150367 -0.00596203 0)
(1.0321 -0.0212653 -5.14759e-21)
(1.09736 -0.110031 0)
(1.00469 -0.00727394 0)
(1.0913 -0.0122282 1.53853e-20)
(1.25162 0.0335503 -5.01268e-20)
(1.00496 -0.00775601 -1.12576e-21)
(0.610943 0.0251745 -8.50258e-20)
(1.11355 -0.026098 -1.59213e-20)
(1.20509 0.00253441 -4.89776e-20)
(0.655037 0.254506 0)
(0.293135 0.158432 0)
(1.02457 -0.0137667 -2.22299e-21)
(0.988592 -0.0205364 -1.37993e-20)
(0.798665 0.00860014 2.63236e-21)
(-0.157603 0.0190154 0)
(1.08994 -0.0937294 -4.91695e-21)
(1.08926 -0.289873 -2.17357e-20)
(-0.308673 -0.0236252 6.20843e-20)
(-0.166402 -0.0192264 6.19656e-20)
(1.07366 -0.0307556 0)
(-0.304825 -0.0169826 -1.56433e-22)
(0.990392 -0.0168276 1.00786e-20)