/*--------------------------------*- C++ -*----------------------------------*\
| =========                 |                                                 |
| \\      /  F ield         | OpenFOAM: The Open Source CFD Toolbox           |
|  \\    /   O peration     | Version:  v2012                                 |
|   \\  /    A nd           | Website:  www.openfoam.com                      |
|    \\/     M anipulation  |                                                 |
\*---------------------------------------------------------------------------*/
FoamFile
{
    version     2.0;
    format      ascii;
    class       volScalarField;
    location    "150";
    object      k_0;
}
// * * * * * * * * * * * * * * * * * * * * * * * * * * * * * * * * * * * * * //

dimensions      [0 2 -2 0 0 0 0];


internalField   nonuniform List<scalar> 
18649
(
0.00288467
0.000155079
0.000154474
0.00691584
0.000182645
0.00016123
0.0715542
0.000206925
0.000190975
0.000151465
0.000195009
0.0166389
0.0636915
0.000154264
0.000148965
0.000175774
0.000147222
0.000175734
0.000186413
0.0461894
0.027655
0.000152245
0.0111075
0.000325447
0.000147919
0.0451586
0.00015065
0.0184059
0.000275744
0.000146047
0.000151761
0.0001728
0.00014822
0.000154628
0.00015121
0.0112746
0.000157399
0.00014981
0.000148199
0.000204182
0.000192715
0.00031103
0.000198422
0.0268932
0.000155332
0.000145976
0.0185545
0.00773349
0.0254448
0.000148607
0.050358
0.000164251
0.0695106
0.0733063
0.000148252
0.0304754
0.0363637
0.000197442
0.00678948
0.000151202
0.00290518
0.000148612
0.000197842
0.00963942
0.000149803
0.0107258
0.000150535
0.0378194
0.00888822
0.000258737
0.0220595
0.000148745
0.000173265
0.000159949
0.00015375
0.0261833
0.000162482
0.000160992
0.000159466
0.00019218
0.000147498
0.0167286
0.00893559
0.0725051
0.000167571
0.000148073
0.000159081
0.0001633
0.000170753
0.000160958
0.000168128
0.000150107
0.000149528
0.0637541
0.000151988
0.000191916
0.000151087
0.000184406
0.0087162
0.000150483
0.0112033
0.000164667
0.000147235
0.0511968
0.00829736
0.000164484
0.00014925
0.00015223
0.000164909
0.000153349
0.0130497
0.000170684
0.000149531
0.000153337
0.000226121
0.000156067
0.000148302
0.0493792
0.0262014
0.000149257
0.00693672
0.000150826
0.000172691
0.000148747
0.0299538
0.000147918
0.000149965
0.0520202
0.000150724
0.0509447
0.000149539
0.00965058
0.000148869
0.00758835
0.000157647
0.000149463
0.0222104
0.0374406
0.000167893
0.000160334
0.000247611
0.000149589
0.000148012
0.000148165
0.000149125
0.03761
0.000147941
0.000148589
0.00911363
0.00843204
0.000279769
0.000149524
0.0119033
0.000151669
0.000150366
0.000148132
0.000177124
0.000188563
0.000148188
0.000149663
0.000148713
0.000280186
0.00749436
0.000151647
0.0309539
0.000224946
0.000149216
0.000148802
0.000150457
0.000155654
0.000149584
0.000429824
0.000196282
0.000182446
0.00014979
0.0799311
0.00766464
0.000155903
0.000148225
0.000296045
0.000222041
0.000146633
0.000149741
0.0682166
0.000160257
0.000178561
0.000149167
0.000149551
0.000177022
0.000162429
0.000446812
0.000149995
0.00196013
0.000150913
0.00014723
0.000149376
0.000158761
0.000169172
0.000154
0.000149782
0.000148584
0.000210253
0.0375989
0.000157058
0.000171713
0.000168437
0.00022201
0.0197105
0.000152084
0.00211704
0.000149827
0.000153588
0.000150577
0.00144932
0.0102171
0.00014955
0.000165865
0.000148936
0.0292472
0.000149824
0.000218002
0.000149342
0.000470339
0.000383883
0.0442104
0.0627261
0.000149607
0.000149817
0.0678968
0.0791204
0.000177537
0.000148699
0.00703547
0.000174942
0.0458936
0.000267648
0.000175576
0.000182727
0.0001488
0.000338888
0.00014696
0.0312777
0.000177367
0.000146627
0.000153446
0.000162408
0.0539115
0.000149707
0.0530261
0.000168717
0.00335891
0.070233
0.000178094
0.000151293
0.000160861
0.0287115
0.000149245
0.000149766
0.000153442
0.000153416
0.000149045
0.000170072
0.00228397
0.000149698
0.00014726
0.0159013
0.0814161
0.000149381
0.0675365
0.000147438
0.0356295
0.000177445
0.0654802
0.0604347
0.000189237
0.0001509
0.000147259
0.0582227
0.0626626
0.0293159
0.00014912
0.000148909
0.0130363
0.000159763
0.054883
0.00749012
0.000151907
0.000162731
0.000149576
0.000146761
0.000214993
0.00447607
0.0773723
0.000224249
0.00043865
0.00015163
0.00014055
0.000238916
0.000147213
0.0818346
0.000148018
0.00015492
0.00015088
0.000148188
0.000149125
0.000182726
0.000149494
0.00018267
0.000182975
0.000154315
0.045471
0.000151096
7.0938e-05
0.000148947
0.000151908
0.000148746
0.000153425
0.00014982
0.0095518
0.0316263
0.000149356
0.000148709
0.000193763
0.000149565
0.000148169
0.000150135
0.000149169
0.00016061
0.0512591
0.000168308
0.0035184
0.000148756
0.000148753
0.000199292
0.000148106
0.000145553
0.066341
0.000158943
0.0135486
0.000157268
0.000250323
0.000148125
0.00015787
0.000150726
0.000155197
0.000148712
0.000149473
0.000146983
0.000168071
0.000174783
0.000148845
0.0604639
0.000148892
0.000150011
0.00387569
0.0730742
0.000153635
0.0386994
0.000273107
0.0281819
0.0751985
0.000154809
0.0734413
0.000148915
0.0382667
0.000510631
0.000151011
0.000155255
0.00015847
0.000151539
0.00015005
0.000147929
0.000148633
0.0375228
0.000160817
0.0444427
0.00315955
0.000279378
0.0493432
0.000155949
0.000149935
0.000177768
0.000148739
0.000451764
0.000149791
0.000149559
0.000519634
0.0786185
0.000152822
0.000148787
0.000174028
0.000170234
0.000149819
0.0551675
0.000153791
0.000155108
0.0105606
0.000156743
0.000149588
0.0660157
0.0375696
0.000178261
0.00014922
0.00014879
0.0345177
0.066427
0.00014896
0.000217372
0.000147529
0.000149504
0.0699185
0.000148358
0.0525429
0.000156926
0.000279667
0.0441346
0.0648659
0.0806512
0.000148593
0.0152257
0.000148957
0.0570724
0.000177273
0.0365664
0.0653075
0.000147822
0.00014672
0.00023928
0.0267987
0.000158113
0.0618605
0.000152665
0.000153969
0.000147285
0.0519308
0.0615708
0.00730921
0.000151937
0.000150143
0.000474421
0.0161001
0.000155122
0.000151493
0.000148793
0.000147549
0.028091
0.0507093
0.000148324
0.00015085
0.0129257
0.000148903
0.00609541
0.000148656
0.00139618
0.000169746
0.0372122
0.000158052
0.0742091
0.00250826
0.000157047
0.000189346
0.000153656
0.0001852
0.000155751
0.000149641
0.000160343
0.000417514
0.000146856
0.000154205
0.0151867
0.000147607
0.000149463
0.0492507
0.000147945
0.0292772
0.000152173
0.000153428
0.000150657
0.000162599
0.000153634
0.000149954
0.000225973
0.000149508
0.000162833
0.00014874
0.000161996
0.0260518
0.000149891
0.0792585
0.000158558
0.0724004
0.0620418
0.0609417
0.00490426
0.000163205
0.000180682
0.000177948
0.00738976
0.000149805
0.000183975
0.000153293
0.000175715
0.000213685
0.000171483
0.000149526
0.000220694
0.000247087
0.0708378
0.000150305
0.0131177
0.00015337
0.000215794
0.000148666
0.000178567
0.0230695
0.000149415
0.000150699
0.0609944
0.000149116
0.000183606
0.000149053
0.00016179
0.000150711
0.000169774
0.000147905
0.000188691
0.000149822
0.0720011
0.000150453
0.00482421
0.0232454
0.0636087
0.0200189
0.000153905
0.0714385
0.000184152
0.0598895
0.00284356
0.000149243
0.000162954
0.000274328
0.000153851
0.000768879
0.00015043
0.000149306
0.0001537
0.000148529
0.000149862
0.000150459
0.0624361
0.000147494
0.000149059
0.00016157
0.000154675
0.000225168
0.0635276
0.000149835
0.000199521
0.000235417
0.00017159
0.000148756
0.026178
0.0777782
0.040119
0.000148008
0.000177517
0.000153815
0.00016333
0.000168387
0.000152457
0.000282536
0.00014922
0.000152465
0.000147394
0.0624566
0.0357287
0.0474294
0.000159657
0.000149141
0.0341198
0.0114086
0.000532804
0.000162435
0.000163425
0.0625231
0.000148426
0.0596916
0.0001543
0.000152234
0.000150798
0.000237064
0.00854688
0.000152173
0.000187187
0.000158449
0.000151342
0.00114644
0.000210418
0.000149318
0.0613657
0.000167836
0.0537226
0.000150333
0.077703
0.000169333
0.00016624
0.00015279
0.0363639
0.000176164
0.00018781
0.000204675
0.0249437
0.00015794
0.048595
0.000151719
0.000160082
0.0690598
0.000160998
0.000148201
0.000163901
0.000153561
0.000198729
0.000148962
0.000149566
0.000242537
0.000306176
0.022704
0.000149752
0.0285657
0.000148665
0.000196496
0.000178866
0.000147461
0.000150126
0.000151185
0.0377954
0.000150865
0.000180948
0.000216529
0.000164621
0.000149546
0.000148861
0.000153182
0.0728406
0.000148551
0.000159387
0.000147209
0.0460744
0.000149817
0.000152466
0.000153295
0.000147562
0.0109112
0.000240049
0.000355581
0.000155706
0.0778391
0.000167527
0.000148181
0.000168361
0.00824657
0.000156886
0.000150386
0.073736
0.0826714
0.000148593
0.0131257
0.0377323
0.000151814
0.000152581
0.000176996
0.000150698
0.000149296
0.000576093
0.022236
0.00119168
0.0732427
0.000149207
0.0584596
0.000148876
0.000148445
0.000148014
0.00890717
0.000150149
0.00014986
0.0618856
0.0170526
0.00015409
0.00202434
0.000162568
0.000148335
0.0775608
0.000160358
0.000229715
0.000151278
0.000213074
0.000145708
0.000158383
0.000149913
0.000199678
0.00014957
0.00895653
0.0629298
0.000206307
0.00770933
0.0269481
0.00015706
0.0213396
0.00488923
0.000218562
0.000150867
0.000150021
0.0187141
0.0821343
0.00121003
0.000191512
0.000172572
0.000148712
0.000156703
0.0702807
0.00319973
0.00014911
0.000155126
0.0409995
0.07055
0.0351157
0.000208259
0.000151373
0.000152169
0.0269339
0.0249957
0.000147339
0.000163716
0.000147294
0.000577809
0.000148682
0.034624
0.000172784
0.000148587
0.00015227
0.0236217
0.00014894
0.000157899
0.000149546
0.000149735
0.000149378
0.000562429
0.000173944
0.000287575
0.0756103
0.0198406
0.062447
0.000149898
0.0265078
0.000155005
0.000158536
6.64041e-05
0.00014875
0.000149661
0.000149147
0.000495379
0.0619911
0.000425639
0.000149274
0.000158182
0.000148109
0.000148014
0.000145982
0.000153215
0.000164204
0.0460159
0.000159311
0.000148437
0.000186574
0.00059348
0.0001654
0.000148393
0.0607186
0.021942
0.000149063
0.00891093
0.000218559
0.000180139
0.00015786
0.000149033
0.000153297
0.000181973
0.00812555
0.0557492
0.000150516
0.0525184
0.0516358
0.00816768
0.000152617
0.0116979
0.000208341
0.0201193
0.000167188
0.0486331
0.000149359
0.0161278
0.0737661
0.0453031
0.000149936
0.000150802
0.000158209
0.000267738
0.000150439
0.000205545
0.000151311
0.000220248
0.000162892
0.0207955
0.0629062
0.000148822
0.000232442
0.000170624
0.000205428
0.00018603
0.0618109
0.000149102
0.000188664
0.000171579
0.00025068
0.0353205
0.000149664
0.0476624
0.0693843
0.000149357
0.0526538
0.000200417
0.000147394
0.0709746
0.0659232
0.000151243
0.000168033
0.046957
0.000149389
0.0402927
0.000149876
0.00014938
0.000149647
0.000167919
0.000148456
0.000146012
0.0626697
0.000149962
0.000157159
0.000151781
0.0821622
0.000162947
0.000149084
0.000149105
0.040034
0.000150348
0.000256954
0.000446314
0.000159714
0.0785089
0.000153081
0.000164647
0.0745107
0.000521247
0.000157322
0.000149267
0.000159415
0.000161417
0.000274558
0.000154063
0.000148502
0.000182145
0.000149453
0.0265647
0.000170754
0.000150276
0.000148598
0.00016079
0.000158984
0.00039408
0.000149529
0.000147499
0.000326157
0.000149452
0.00111148
0.0179476
0.000157355
0.0613702
0.00014906
0.030844
0.000148841
0.000185762
0.000249209
0.00193492
0.000171648
0.000147892
0.000185578
0.000153588
0.00913231
0.0588044
0.00712574
0.00021075
0.000176564
0.000151443
0.000153959
0.0178563
0.0214032
0.000149248
0.0750426
0.0608607
0.00014754
0.000169023
0.000458775
0.0206917
0.000149143
0.0232397
0.073764
0.0309013
0.0245018
0.0725442
0.0325209
0.000176829
0.000148281
0.000155185
0.000167741
0.00014912
0.000151222
0.0350178
0.00015374
0.000178036
0.0211267
0.00022367
0.0556738
0.00016261
0.0429001
0.00019645
0.000181988
0.000149866
0.00850478
0.000148927
0.0664943
0.0425403
0.00014934
0.000214192
0.000149705
0.0723308
0.0592883
0.000210398
0.00303387
0.000146799
0.00015051
0.0190133
0.000176183
0.00335449
0.000146711
0.000148532
0.000148453
0.000153957
0.000171099
0.000148637
0.0001485
0.000155232
0.000153596
0.000149687
0.000206301
0.00014934
0.000160679
0.000149405
0.000153583
0.000935226
0.0771652
0.00056531
0.0237866
0.0726356
0.000225171
0.000238365
0.00015346
0.000166993
0.0228741
0.000153857
0.000148515
0.000148586
0.000152094
0.000278242
0.000174368
0.000289818
0.000170973
0.000156269
0.0293212
0.0229593
0.0227141
0.000171011
0.0220564
0.000151676
0.000149079
0.000148714
0.000149959
0.000149033
0.000177675
0.0168323
0.000186583
0.000371971
0.0086424
0.0531114
0.000158499
0.000149136
0.000172161
0.000158206
0.000169018
0.000163054
0.000165547
0.0746237
0.0500175
0.000187106
0.00034702
0.000145944
0.00014895
0.000160317
0.0207323
0.000153799
0.000148845
0.000150535
0.000155351
0.000149029
0.0206995
0.000155301
0.000149859
0.00014876
0.000197026
0.000153611
0.00015852
0.0083432
0.000147287
0.000210063
0.000158198
0.000182351
0.000149039
0.023888
0.000149897
0.000208907
0.000273494
0.0731103
0.000148843
0.0617123
0.000161143
0.000154178
0.000160053
0.000153652
0.000171355
0.00015468
0.000148994
0.0317917
0.000241986
0.000154226
0.0278173
0.0198935
0.000149416
0.000149518
0.000174572
0.000151628
0.000150761
0.0729712
0.000145544
0.000148888
0.000149787
0.0787037
0.0418893
0.000163833
0.0736604
0.000169634
0.000264355
0.0632002
0.000154122
0.000149212
0.000197013
0.000154065
0.0728618
0.0582976
0.0342584
0.000148891
0.000169488
0.0332265
0.000149271
0.0112878
0.0277941
0.0552308
0.000149674
0.000148427
0.0794488
0.00015642
0.000146786
0.000166629
0.000150586
0.000150386
0.000152407
0.000149628
0.0309874
0.000170278
0.000148302
0.000268078
0.000148376
0.0476404
0.000176012
0.0673963
0.000153427
0.00138489
0.000278613
0.000148585
0.000248211
0.000149143
0.0508032
0.0623777
0.000155598
0.018546
0.00015049
0.000148843
0.00642743
0.000149518
0.00132531
0.000171654
0.000149253
0.0393116
0.000149001
0.000170724
0.000148569
0.000151895
0.000153174
0.00016308
0.00014862
0.000148927
0.000148881
0.000151193
0.00015149
0.0711704
0.000148559
0.00198843
0.00719501
0.000155752
0.0223933
0.000148724
0.000147722
0.0261369
0.0506459
0.000198195
0.0627768
0.000153907
0.000151445
0.000169019
0.000149306
0.000159238
0.000152487
0.000200915
0.0688082
0.000216815
0.000159627
0.000157376
1.39066e-05
0.030941
0.00016095
0.000368851
0.000159085
0.000198401
0.0248774
0.00928668
0.0444008
0.0659393
0.000177216
0.0247929
0.00170629
0.00016876
0.000149437
0.000148021
0.0768385
0.00015721
0.000200347
0.044633
0.000170068
0.000153236
0.00014871
0.0664785
0.0407662
0.00016247
0.0219601
0.000153309
0.000153683
0.00791438
0.000151137
0.000148831
0.00344462
0.000151025
0.000167646
0.0374435
0.0781745
0.000151066
0.000149871
0.0247881
0.000213167
0.00873903
0.000148651
0.0630751
0.000202921
0.00808298
0.000149171
0.0252242
0.000148307
0.00015335
0.000151739
0.00014837
0.000196312
0.000148151
0.000149683
0.000149922
0.000152277
0.0591623
0.0673979
0.000149142
0.0710416
0.000172734
0.0760767
0.0602329
0.0604446
0.000147466
0.000149299
0.00020096
0.000152116
0.000149938
0.000148766
0.00015345
0.0002435
0.00014896
0.0254952
0.00856151
0.000149826
0.000153217
0.000149203
0.000148407
0.000290203
0.0229265
0.000148786
0.0484602
0.0373353
0.000149214
0.0809124
0.000151686
0.0362829
0.000149167
0.000145781
0.0235389
0.0608103
0.000149332
0.0359028
0.000152244
0.0231424
0.000152491
0.000177357
0.0440481
0.000159198
0.000216557
0.039856
0.000153909
0.000180268
0.000163295
0.0429628
0.0801676
0.000153824
0.0647598
0.000150746
0.000166731
0.000148679
0.000167562
0.011496
0.000153825
0.00354441
0.0278826
0.000165311
0.0776307
0.00014961
0.0317817
0.00014944
0.000269722
0.000150887
0.000148232
0.000205782
0.0275408
0.0488
0.000165712
0.000210615
0.0485924
0.00015689
0.000203309
0.0633004
0.00477562
0.0383606
0.0399616
0.000205443
0.000172772
0.000149042
0.000148664
0.068019
0.0461663
0.0001513
0.000181753
0.0418658
0.000171008
0.0786367
0.000185301
0.0646481
0.0390805
0.000159143
0.0431038
0.000165692
0.000172069
0.039926
0.0635831
0.0596007
0.00017342
0.0240036
0.0199719
0.000154796
0.000151311
0.00015227
0.000158553
0.000147914
0.000147255
0.000212026
0.0174146
0.00882229
0.000149263
0.060315
0.0387612
0.000172648
0.000195268
0.000166564
0.0601996
0.000327555
0.00014902
0.00194489
0.000174177
0.00014886
0.000146425
0.0315717
0.00014875
0.0652229
0.000151311
0.000148885
0.000151254
0.0370878
0.000237354
0.000181141
0.000209327
0.010246
0.0580305
0.07267
0.000151432
0.000248292
0.0548306
0.00166935
0.000149662
0.000182171
0.0386769
0.00155298
0.000148658
0.000149841
0.0525817
0.000204235
0.000165323
0.0765935
0.0570715
0.0292936
0.000148589
0.00014923
0.000148633
0.000214406
0.000251434
0.000151126
0.000149708
0.000180248
0.00019271
0.00017257
0.000148626
0.000150042
0.000149246
0.000167637
0.000146866
0.000173221
0.000149931
0.000148683
0.00857494
0.0434906
0.071618
0.000151271
0.000168366
0.0506253
0.000151889
0.000153571
0.000147162
0.000151517
0.00228643
0.00014826
0.000149256
0.000150001
0.000149196
0.000148423
0.00701651
0.000146757
0.00017141
0.00256927
0.000149049
0.000149963
0.000151135
0.000257451
0.000244107
0.000149857
0.000148521
0.000166113
0.000203052
0.000152189
0.000173382
0.000160168
0.00173939
0.000156009
0.00016873
0.000149008
0.00152297
0.0305422
0.000198438
0.000149794
0.0327058
0.000164059
0.000149524
0.000170361
0.000149856
0.000148253
0.000212038
0.000180082
0.000164999
0.000149754
0.000148887
0.000148141
0.000189443
0.000146352
0.00364414
0.0549537
0.000163862
0.000157224
0.000151854
0.000201338
0.000149527
0.00014893
0.000150066
0.000176618
0.000160754
0.000158011
0.0826015
0.000148599
0.000179092
0.000146721
0.000151196
0.000153117
0.000171279
0.000148772
0.00014842
0.000155105
0.000156665
0.000149563
0.0609792
0.000149643
0.0267795
0.00025491
0.00014855
0.0525235
0.000358792
0.000482302
0.00842583
0.000157856
0.000148952
0.000227378
0.00018694
0.000159062
0.000148692
0.000168053
0.0016152
0.00014926
0.000148445
0.000149563
0.000149868
0.00018497
0.00014938
0.000152688
0.000148641
0.000147921
0.000159091
0.000165964
0.000154993
0.000260126
0.000188871
0.000148829
0.000153736
0.000148831
0.000180588
0.000153717
0.0101166
0.000148879
0.00014942
0.0535515
0.000177264
0.000150798
0.000148773
0.000147216
0.0001483
0.00016314
0.000146815
0.000149677
0.00120587
0.000167362
0.0412731
0.000186276
0.000148528
0.000149137
0.000166793
0.000153158
0.000256574
0.000149318
0.0660959
0.00014843
0.000148926
0.000156847
0.000293723
0.0628456
0.00828895
0.0622872
0.000148295
0.000151907
0.075689
0.0520137
0.0407705
0.00597629
0.00014603
0.000169639
0.000152571
0.00015155
0.000148471
0.000159346
0.000148911
0.00015148
0.0515737
0.000147855
0.000149018
0.000299037
0.000158078
0.000149176
0.000148642
0.0378261
0.000173828
0.000147478
0.000198462
0.000159552
0.000202081
0.000219281
0.000149858
0.000198863
0.000147931
0.00017961
0.00016512
0.000370014
0.00014939
0.0468143
0.000148333
0.000154093
0.00015146
0.000149868
0.000149447
0.000148949
0.0245944
0.0650421
0.000149822
0.0528682
0.0118411
0.000148331
0.000147797
0.0636275
0.000182457
0.000172146
0.00845967
0.000165772
0.000148898
0.000149167
0.0622885
0.000149644
0.000193719
0.0235539
0.0662395
0.000150629
0.000155316
0.000211706
0.000204144
0.000175915
0.000166448
0.000159005
0.0561707
0.00014979
0.00463923
0.00789056
0.0598578
0.000148584
0.000397412
0.00015336
0.000149996
0.0001498
0.000178858
0.000147812
0.000200982
0.000205296
0.000153395
0.00159007
0.0250055
0.000151728
0.00938755
0.000148699
0.00015241
0.000149511
0.000223185
0.000149219
0.0790102
0.000231166
0.0408585
0.000149842
0.000148715
0.000166165
0.0621055
0.000158014
0.000202479
0.000149224
0.00134631
0.000154558
0.000209796
0.0122624
0.000149601
0.0442867
0.000182936
0.000203813
0.000148404
0.000155473
0.000159831
0.000152053
0.000165412
0.000149474
0.000150736
0.000196888
0.000148681
0.00238911
0.000180757
0.000186374
0.0256563
0.000158933
0.0207648
0.0160599
0.061357
0.0564524
0.000150611
0.000202368
0.060299
0.000157886
0.000149963
0.00015241
0.000149574
0.000154002
0.000197154
0.000163455
0.000186697
0.000180653
0.0519151
0.000146766
0.000168813
0.00232964
0.0772155
0.0245387
0.000150672
0.00014958
0.000146833
0.0493345
0.000173358
0.000210362
0.00563323
0.000175184
0.000166765
0.000148793
0.000166914
0.000152698
0.0590047
0.00016446
0.000147288
0.0501832
0.000166914
0.000216092
0.000171687
0.0805276
0.000152324
0.000146605
0.000148651
0.000153734
0.0822515
0.000147256
0.000149507
0.000221901
0.000162805
0.00014793
0.000146482
0.000161882
0.000184499
0.00017122
0.000243015
0.000150695
0.000149086
0.000161641
0.000206807
0.0224844
0.000214273
0.000215874
0.000149531
0.000146689
0.0241633
0.000148962
0.000147462
0.000147918
0.000153244
0.000167467
0.00016131
0.0016306
0.000439925
0.000172933
0.0522164
0.0237669
0.000148769
0.0074209
0.00020508
0.000196025
0.000149507
0.000147175
0.0795514
0.000164071
0.000154764
0.000366206
0.000148908
0.000149062
0.0655781
0.000250148
0.000186332
0.000149503
0.000146841
0.0107599
0.000288733
0.000149508
0.000159908
0.000149098
0.0646349
0.000291551
0.000164779
0.000148649
0.000148924
0.0385811
0.000476101
0.000157906
0.000147948
0.000153123
0.000154059
0.000175153
0.00769566
0.0169978
0.000148677
0.000148651
0.0664066
0.000164257
0.000152302
0.000157376
0.000155171
0.000150602
0.0329766
0.000149025
0.000204962
0.0437543
0.000148573
0.000148543
0.000148906
0.0149485
0.000147408
0.0433619
0.00386412
0.00020432
0.000149877
0.000195126
0.0183345
0.000146163
0.0386436
0.000268563
0.0800251
0.000150182
0.000149554
0.00019545
0.00015015
0.0622307
0.000288578
0.0705385
0.000149274
0.000158031
0.0651588
0.0561459
0.000164853
0.000148715
0.000171744
0.000148718
0.000302899
0.0226992
0.0734266
0.000181274
0.000154236
0.000149834
0.0434754
0.00518407
0.000149438
0.000359366
0.000185737
0.063867
0.000159094
0.000148807
0.0155393
0.0141274
0.000163773
0.000213202
0.000153084
0.000188857
0.000167671
0.00017094
0.000149628
0.000148976
0.000161034
0.032532
0.0592376
0.0551328
0.000162584
0.074297
0.000149928
0.00246157
0.00014888
0.0444156
0.0135339
0.000148338
0.000159447
0.000148615
0.000149375
0.000149277
0.000209671
0.00767434
0.000151209
0.00318607
0.000148581
0.000160151
0.041955
0.00966735
0.00017071
0.00016637
0.000254589
0.00143132
0.000203064
0.000148886
0.000149704
0.00014865
0.00014795
0.00014858
0.0582893
0.000146628
0.000150993
0.000146478
0.000154687
0.000153285
0.000182495
0.000158606
0.000148663
0.0106764
0.000148523
0.000154207
0.000167657
0.0152745
0.000147083
0.000149781
0.000152444
0.000151163
0.0258229
0.00019271
0.000149465
0.000149515
0.000187023
0.000147972
0.000149441
0.0624708
0.000336268
0.00784605
0.000156226
0.0307513
0.00663064
0.00016236
0.000151739
0.0161575
0.000145776
0.00014856
0.000148757
0.000280564
0.00311026
0.000152965
0.00019484
0.061106
0.000157352
0.000148961
0.000154262
0.054016
0.000148681
0.0344771
0.000149864
0.000193996
0.000373935
0.000154311
0.0180244
0.000206967
0.000222878
0.000174637
0.000148555
0.000151461
0.000170758
0.000149411
0.0463039
0.00926282
0.000151399
0.000149926
0.000174246
0.000155408
0.000221547
0.000232703
0.0552147
0.000149481
0.000149114
0.0244641
0.000149249
0.000163256
0.000161037
0.000223301
0.0178866
0.000251902
0.000158977
0.000201133
0.000322101
0.000179035
0.00017552
0.000151158
0.000170439
0.00014997
0.0183075
0.000154215
0.0661873
0.000183273
0.000148985
0.000244826
0.000151705
0.000148956
0.000173098
0.000161779
0.00797744
0.000148847
0.000152636
0.00014944
0.0797366
0.000147362
0.053185
0.0273186
0.000149265
0.000147369
0.0378448
0.000153254
0.0351754
0.049769
0.0508133
0.000170707
0.0318846
0.000319605
0.000151413
0.000149176
0.000166608
0.000148572
0.0639563
0.000150191
0.00020895
0.000164435
0.000175497
0.0512348
0.00017687
0.000149388
0.00014889
0.01671
0.00464609
0.018572
0.046667
0.000164734
0.0458381
0.000148821
0.045963
0.000489572
0.00021073
0.000172866
0.000243648
3.34341e-05
0.0319847
0.00014943
0.000167521
0.000153397
0.000149505
0.000151655
0.000147522
0.000150848
0.0553395
0.000148873
0.000209323
0.000252163
0.00904164
0.000210174
0.000162593
0.000163257
0.00015275
0.000149072
0.00252726
0.0158034
0.000189247
0.000149673
0.0736993
0.000218038
0.000166345
0.000468969
0.0211949
0.000148378
0.000149967
0.000572094
0.0630937
0.000149482
0.000148823
0.000173383
0.000147232
0.05519
0.000280901
0.000162318
0.000150058
0.0702566
0.000147959
0.000153677
0.000155714
0.000148488
0.000176469
0.000168287
0.000159035
0.000185214
0.000194551
0.000150944
0.0387534
0.000174308
0.026085
0.000166092
0.0538174
0.00967396
0.0441455
0.000430987
0.000154541
0.000164844
0.0331884
0.0693783
0.0259289
0.000168578
0.000150262
0.000151352
0.000182419
0.000149451
0.0109438
0.00167681
0.00192836
0.00015115
0.000155447
0.000149311
0.000155549
0.0265852
0.0639874
0.000147487
0.0702691
0.0636462
0.0477811
0.000175462
0.0708727
0.000151227
0.000148629
0.0649912
0.000148493
0.000151979
0.000150548
0.0642748
0.00865871
0.000166033
0.000166993
0.0746061
0.000149818
0.000171825
0.000162631
0.000152983
0.0391781
0.0583385
0.000148626
0.0399807
0.0120958
0.000149254
0.0532822
0.049992
0.000195445
0.00016119
0.00015505
0.0613743
0.000154618
0.000147876
0.000149469
0.000204777
0.000166155
0.0304914
0.0100284
0.000150118
0.000152602
0.0660446
0.0733022
0.0613272
0.000149239
0.000171023
0.000147432
0.00269586
0.000345166
0.00913525
0.000173824
0.00014978
0.000146686
0.000148495
0.0584208
0.000150777
0.000148842
0.0084775
0.000148921
0.000147331
0.000168705
0.0592329
0.0650081
0.000229036
0.000148856
0.0692721
0.000146989
0.000145261
0.000313497
0.0812258
0.0638995
0.0303964
0.000154666
0.0257988
0.0225105
0.000147876
0.000202007
0.000149298
0.000149272
0.000148566
0.000148609
0.000149496
0.000147517
0.000173896
0.0106286
0.000148964
0.00014889
0.000155685
0.000167456
0.000190821
0.000148532
0.000148783
0.000149062
0.0429324
0.000147942
0.000148795
0.000158085
0.000149891
0.000191401
0.000149554
0.0661554
0.0600064
0.000162802
0.0145428
0.000147996
0.00019497
0.0477257
0.000148512
0.000259017
0.000284253
0.000172298
0.000149939
0.000147946
0.00406322
0.0716896
0.00018449
0.000148091
0.000152595
0.031385
0.000149874
0.0794049
0.000148822
0.000149529
0.000149547
0.0115338
0.000156299
0.000148093
0.000148888
0.000172458
0.000181642
0.000158833
0.000154025
0.0669109
0.000149144
0.0613997
0.000148736
0.000200064
0.0466336
0.000158059
0.0571168
0.000358191
0.000161907
0.000149977
0.000149045
0.000380562
0.0668577
0.000153239
0.00653609
0.0453226
0.000149492
0.000148995
0.00028166
0.000197767
0.0537761
0.0111786
0.00015195
0.00956997
0.00014985
0.000148979
0.000150162
0.000155426
0.000148616
0.000152367
0.000148954
0.000149075
0.000154468
0.000148314
0.0266811
0.000149603
0.000172854
0.000148939
0.000150206
0.0492464
0.0035338
0.065961
0.000159249
0.000184426
0.000164969
0.000150027
0.000149635
0.000159906
0.000168482
0.000195356
0.01026
0.00163054
0.000180311
0.00240929
0.000151195
0.00152829
0.000149369
0.000159287
0.0121762
0.000157546
0.0546788
0.000148676
0.00803356
0.00366675
0.000194393
0.0626156
0.000183794
0.00306951
0.000146984
0.000145686
0.000148185
0.0487375
0.000274074
0.000159404
0.000149206
0.000152939
0.000148633
0.000150195
0.0564929
0.000253786
0.000151782
0.000208678
0.000148317
0.000188136
0.000195254
0.0638597
0.000147406
0.00952371
0.00014741
0.0638775
0.0554123
0.000164325
0.000186161
0.000157682
0.000191385
0.00355834
0.0768895
0.000152882
0.000159394
0.00015242
0.000161927
0.000159884
0.000334107
0.000166787
0.00019757
0.000148855
0.000149876
0.000163973
0.00015093
0.000147912
0.000168365
0.0108078
0.000146031
0.00017434
0.000205172
0.000247195
0.000240026
0.0394581
0.000197952
0.000161427
0.000149203
0.0108783
0.000149055
0.000149884
0.000148785
0.000149816
0.00016306
0.000158863
0.000151852
0.000176623
0.000159281
0.000192311
0.0670788
0.00016687
0.010653
0.000148919
0.0385905
0.000176642
0.000155993
0.000150189
0.000172824
0.0653102
0.000148681
0.000157515
0.0661566
0.000165
0.000152479
0.000217353
0.0547977
0.000149276
0.000148682
0.0542691
0.0448276
0.0635886
0.000162213
0.000148698
0.0373784
0.000148536
0.000149288
0.000149585
0.000151886
0.0001663
0.000149548
0.0584343
0.000161798
0.000168702
0.000148512
0.000149064
0.00015166
0.0395368
0.00734238
0.0681978
0.000152648
0.0100069
0.000255333
0.0188711
0.000149443
0.000153757
0.0410577
0.000150032
0.0245424
0.017102
0.0113627
0.000150951
0.000146295
0.000148841
0.000152926
0.000150136
0.0121684
0.0661989
0.000158916
0.0565848
0.000151332
0.0378793
0.000147776
0.000149484
0.059806
0.064361
0.00014657
0.000159084
0.000196657
0.00014973
0.0428767
0.000165681
0.0712778
0.000148632
0.0108877
0.0252273
0.000156781
0.000290184
0.0312347
0.0618758
0.000215803
0.000187746
0.000173852
0.000174232
0.000149405
0.000150979
0.000149331
0.0501304
0.000148972
0.000150279
0.00014935
0.000183725
0.000149305
0.00014654
0.0639907
0.0658362
0.000271599
0.0158891
0.0616605
0.000149909
0.00022892
0.0142487
0.000169511
0.000147741
0.000148508
0.000157449
0.0128318
0.0715091
0.0816163
0.000148694
0.0388281
0.042365
0.00869216
0.0281012
0.000150264
0.000260719
0.000147225
0.00014951
0.0312698
0.000213386
0.000168986
0.000148834
0.000148761
0.00016291
0.00436976
0.00408638
0.081329
0.000150535
0.00951385
0.000151105
0.000209148
0.000308836
0.000323398
0.000150726
0.000149611
0.00768644
0.000147706
0.00343023
0.000148753
0.0510023
0.000149584
0.000193068
0.0599951
0.000154862
0.0485602
0.000172422
0.00177033
0.000149175
0.0573605
0.000153553
0.051226
0.00694685
0.063108
0.0109124
0.000149532
0.00917809
0.000187429
0.000175743
0.000237029
0.0669558
0.000156364
0.000147701
0.057441
0.000151979
0.0001529
0.0453654
0.000149853
0.000149871
0.0746828
0.0577391
0.0708637
0.000148642
0.0111167
0.000149494
0.000157331
0.0107272
0.000155779
0.00015094
0.0088786
0.0191008
0.000188803
0.0759445
0.000148504
0.000180419
0.000239777
0.00485552
0.00016595
0.00018123
0.0609931
0.0704436
0.000917468
0.00014705
0.000152236
0.000157307
0.000153521
0.000149431
0.000160743
0.00014957
0.00186941
0.0258774
0.000161629
0.000148192
0.000150292
0.000159933
0.00014855
0.0635216
0.000193128
0.000188965
0.00017862
0.000151058
0.000149544
0.00020483
0.000150551
0.0066282
0.000149305
0.0092166
0.000208828
0.0274444
0.000186866