/*--------------------------------*- C++ -*----------------------------------*\
| =========                 |                                                 |
| \\      /  F ield         | OpenFOAM: The Open Source CFD Toolbox           |
|  \\    /   O peration     | Version:  v2012                                 |
|   \\  /    A nd           | Website:  www.openfoam.com                      |
|    \\/     M anipulation  |                                                 |
\*---------------------------------------------------------------------------*/
FoamFile
{
    version     2.0;
    format      ascii;
    class       surfaceScalarField;
    location    "150";
    object      phi;
}
// * * * * * * * * * * * * * * * * * * * * * * * * * * * * * * * * * * * * * //

dimensions      [0 3 -1 0 0 0 0];
oriented        oriented;


internalField   nonuniform List<scalar> 
27740
(
0.00768921
-0.00451809
-0.00317112
0.182601
-0.212766
0.0301641
-0.0885215
-0.164674
0.253195
0.00499261
-0.00734492
0.00235232
0.0224214
-0.0373906
0.0149692
0.121594
-0.236998
0.115404
-0.0236258
0.00960441
0.0140214
-0.128743
0.135866
-0.00712225
0.0429649
-0.180692
0.137727
-0.166524
0.18468
-0.0181566
0.00110387
0.102897
-0.104001
0.0051282
0.00819554
-0.0133237
-0.0355542
0.115645
-0.0800907
-0.26959
0.181068
-0.338754
0.233676
0.105078
0.2179
-0.159892
-0.0580082
0.317724
-0.490942
0.173218
0.0566203
0.16128
0.123148
-0.0662623
-0.056886
-0.00281453
-0.00237754
0.00519207
0.00165548
0.000174522
-0.00183
-0.0921249
0.248407
-0.156282
0.00856727
-0.00446578
-0.00410149
-0.144762
0.00590375
0.138858
0.162668
-0.385485
0.222817
3.56085e-05
-0.00285014
-0.119436
-0.14743
0.266866
0.0128714
-0.00774316
0.0199926
0.102474
-0.122467
0.556517
-0.342103
-0.214414
-0.15345
0.303378
-0.149928
-0.107554
0.100062
0.00749111
-0.21738
0.437653
-0.220273
0.1042
-0.188282
0.0840821
0.240515
-0.0786708
-0.161844
-0.00926702
0.000171105
0.00909591
0.124284
-0.104866
-0.0194181
0.205647
0.0376354
-0.243282
0.214519
-0.448898
0.234379
-0.000937455
-0.127806
0.190388
-0.147423
-0.00817357
-0.136588
0.132248
0.0366396
-0.168888
-0.00695926
0.00756059
-0.000601332
0.197142
-0.0145404
0.366328
0.190189
0.000236804
0.00373108
-0.00396789
-0.00188783
0.00688044
-0.110029
0.0655313
0.0444979
-0.239683
0.413031
-0.173347
-0.0231249
0.0168018
0.00632313
-0.00101556
0.153226
-0.15221
0.0325867
-0.0293306
-0.00325609
0.03965
-0.0108014
-0.0288486
-0.473733
0.256353
-0.0301074
-0.0799218
-0.00390748
0.0116346
-0.00772716
-0.0515492
-0.0971637
0.148713
-0.00580877
0.00501657
0.000792199
0.0450806
-0.211604
0.00388935
0.00379986
-0.202216
-0.169432
0.371648
0.169373
-0.037125
-0.00123096
-0.00567046
0.00690142
0.322986
-0.11734
0.00624596
-0.00747691
-0.349766
0.215601
0.134165
-0.0147773
0.00340841
0.0113689
0.00650165
-0.00707684
0.000575194
-0.00209145
-0.11448
0.116572
-0.00901241
0.00724228
0.00177014
-0.2403
-0.0790651
0.319365
0.0393338
0.0464199
-0.0857537
-0.078082
0.21235
-0.134268
0.186659
-0.0520432
-0.134615
0.00359847
-0.00194299
0.0970972
-0.00570922
-0.091388
-0.176378
0.00929339
0.167084
-0.241537
0.163455
-0.0122238
0.0707662
-0.0585424
0.443741
-0.126016
-0.00466729
0.00490409
-0.00685406
0.00812756
-0.0012735
0.0226233
0.00996342
-0.106136
0.0600905
0.0460455
0.400456
-0.185936
-0.12903
0.0111345
0.117896
0.180114
-0.18113
0.0164808
0.130958
-0.147439
0.119309
0.106257
-0.225566
0.155451
-0.209759
0.0543087
-0.0966744
0.222636
-0.125962
-0.320534
0.22049
0.100044
-0.00748908
-0.000825351
0.00831443
-0.270524
0.178399
-0.103106
0.10421
-0.209193
0.125585
0.0836079
0.0519358
0.0248045
-0.0767403
-0.00660449
0.00682077
-0.000216284
0.162196
-0.281632
0.00551124
0.00305603
0.120819
-0.101914
-0.0189047
0.469105
-0.200882
-0.268223
-0.00658856
-0.0165363
-0.0075738
0.000969313
0.166188
-0.0129625
0.385008
-0.450539
0.0655318
-0.191359
-0.0711364
0.262495
0.0903826
0.0304365
0.00181915
0.180853
-0.182672
-0.00831756
-0.00094946
-0.0732668
0.0254077
0.0478591
-0.230642
-0.0898913
0.146432
0.0116757
-0.158108
-0.179549
0.111558
0.0679912
-0.0913965
0.270172
-0.178776
-0.274108
-0.199626
0.0131359
-0.0145252
0.00138938
-0.00891902
0.00195976
-0.233252
-0.114981
0.348234
-0.00494508
-0.000863691
-0.279706
0.230498
0.0492078
-0.0682198
-0.400869
0.16057
-0.00183514
0.00257409
-0.000738954
0.369555
-0.206887
0.182492
0.293698
-0.00527511
0.00128721
0.0039879
-0.183263
-0.096443
0.0138118
-0.000675919
-0.123599
-0.138392
0.261991
-0.00734081
0.000486752
-0.23443
-0.100807
0.335237
0.00578431
-0.000767738
0.11365
0.0106346
-0.211399
0.434126
-0.222728
0.00833684
-0.00151115
-0.00682569
-0.0138404
0.00993291
0.20319
-0.0477391
-0.161969
-0.014409
0.00515329
0.0361264
-0.0412797
0.114994
-0.274931
0.159937
0.429119
-0.3133
-0.115818
-0.457656
0.333647
0.124009
-0.383555
0.405937
-0.0223819
-0.00492786
-0.0132253
0.0181532
0.112041
0.317077
-0.42699
0.28253
0.14446
-0.00652142
-0.000798463
0.00731988
-0.00107215
0.0122404
0.110543
-0.122783
-0.2558
0.506965
-0.251164
-2.52742e-05
-0.00701294
0.00703822
-0.387875
0.249762
0.138113
0.316429
-0.249566
-0.0668626
-0.300471
-0.157185
-0.0520797
0.0312414
0.0208383
-0.0734173
0.0611935
-0.547892
0.327224
0.220668
-0.274631
0.0311515
0.243479
-0.136967
-0.2213
0.358267
-0.120116
0.0646103
0.0555053
-0.0061772
0.00123213
-0.178399
-0.209476
0.00130023
-0.00313537
-0.0693873
-0.110162
0.303156
0.0818515
-0.375732
0.304343
0.0713885
0.236079
0.0803504
-0.292993
0.201596
-0.258144
0.134545
0.0211701
-0.025264
0.00409388
-0.180141
0.128592
-0.00875026
0.0311717
0.284091
-0.165835
-0.118256
-0.0183319
-0.0444527
0.0627845
0.000101891
-0.00662331
-0.158035
0.192009
-0.0339744
-0.235602
-0.312291
0.102648
-0.10474
0.01595
0.104535
-0.120485
-0.386768
0.437089
-0.050321
-0.14076
-0.256967
0.397727
-0.00311654
0.213218
-0.0509648
-0.162253
0.12472
-0.181159
0.056439
0.0581006
-0.441656
-0.147573
0.262568
0.193938
-0.0340994
-0.159838
0.0314158
0.0697029
-0.101119
-0.0615955
0.0585438
0.00305168
0.300228
-0.151925
-0.148303
0.00029094
-0.00605542
0.00576448
0.262671
0.0653017
-0.327973
-0.45465
0.239926
0.214725
-0.142973
0.42978
-0.286807
-0.0115106
-0.11752
-0.00702338
-0.0730186
0.0800419
0.0536591
0.132999
0.284835
-0.425595
-0.21796
-0.20903
0.04127
-0.162169
0.120899
-0.000957037
-0.0138202
0.134836
-0.0403467
-0.0944894
-0.130354
0.146835
-0.0341502
0.0758346
-0.0416844
-0.0921059
-0.00984733
0.101953
0.00373202
-9.41122e-07
0.116288
-0.307647
-0.00733868
0.000316993
0.00702169
-0.292752
0.211076
0.0816763
-0.210857
0.197712
0.0131448
0.27939
-0.18386
-0.0955294
0.00598314
-0.0056922
0.00732717
-6.46197e-05
-0.00726255
0.209866
-0.375204
0.165338
-0.0626318
0.101438
-0.0388065
-0.322954
0.167363
0.155591
0.00258288
-8.78842e-06
-0.275609
0.216656
0.0589532
-0.0345363
-0.125979
0.160515
-0.109383
0.294114
-0.184731
0.04456
-0.0199663
-0.0245937
0.0245442
-0.0033741
0.0031055
-0.00649106
0.00338556
0.0137375
-0.0095811
-0.0041564
-0.0880341
0.2979
-0.17112
-0.104489
-0.0276279
0.0186177
0.0090102
0.0609984
-0.0793303
-0.180186
0.192389
-0.0122027
0.196778
-0.376133
0.179355
-0.0068657
0.000341403
0.0065243
-0.242551
0.140988
0.101563
-0.00561409
0.00323655
-0.0727769
0.107243
-0.0344659
-0.0284787
-0.023601
0.0299295
-0.0079985
-0.021931
0.155084
-0.389514
-0.105825
0.0603103
0.0455151
-0.228683
-0.170988
0.399671
-0.00842475
0.0104926
-0.00206782
-0.168016
-0.0121702
-0.489359
0.102591
0.148251
0.121662
-0.0902466
0.00957094
0.00375157
-0.0133225
-0.0365118
-0.238119
-0.0413932
0.0458358
-0.00444258
-0.0978944
0.0908711
-0.0102407
0.0126168
-0.00237612
-0.0160189
-0.00760699
0.179704
-0.0549841
0.0773308
0.163184
0.194473
0.0187445
0.00825809
-0.000902334
-0.00735575
-0.332562
0.223179
-0.207988
-0.0847647
-0.136872
0.148548
0.000995419
0.179857
-0.356527
0.195928
0.1606
-0.0505028
-0.022764
-0.00636996
-0.000968722
0.196124
-0.30376
0.107636
-0.236502
-0.218148
-0.00470993
4.26371e-05
-0.00272261
0.0406907
-0.0379681
-0.424005
0.281031
-0.0296973
0.0265808
0.235833
-0.441135
0.205302
-0.0181967
0.0132689
-0.113471
0.117206
-0.00373485
-0.00500462
-0.00739415
-0.033999
0.0882983
0.03485
-0.0971408
0.359812
-0.457935
0.221433
-0.113684
0.0781293
0.00275306
0.0109844
0.00193437
0.000648514
-0.354566
0.412667
-0.195026
-0.127928
0.00691699
-0.00694226
0.00451834
-0.159903
0.155385
-0.0580091
0.0769273
-0.0189182
-0.00627407
-0.000591629
-0.421757
0.234888
0.186869
-0.00769027
0.104787
0.391062
-0.167629
-0.223434
-0.228522
-0.188615
0.417137
0.128855
-0.163392
-0.0147441
0.00450342
0.0328862
-0.00908691
-0.0237993
-0.0151008
0.0159843
0.100614
0.000299247
-0.100913
-0.203924
0.072014
0.13191
-0.109312
0.121553
0.111421
-0.0914281
0.397757
-0.157832
-0.0445665
0.0418439
-0.441313
0.0910412
0.350272
0.127139
-0.0229388
-0.105968
-0.103225
-0.49359
0.193119
-0.421018
0.187766
0.000677961
0.0292516
0.179664
0.159162
-0.213873
0.0547106
0.0227838
-0.0307823
-0.134623
-0.00223984
0.00227545
-0.141999
0.18708
-0.00113381
-0.039182
0.0403158
-0.198382
-0.140372
-0.171995
0.351862
-0.118556
0.301076
-0.182521
0.49253
-0.450193
-0.0423363
-1.36374e-05
0.00755865
-0.00689742
-0.000661221
-0.538146
0.32539
0.212756
-0.350628
0.213661
0.169332
0.0210564
0.234102
-0.501377
0.267275
-0.297626
-0.195964
0.0705282
-0.247004
0.176476
-0.458503
0.103937
0.0149818
-0.109156
0.0941744
0.00583007
0.00459338
-0.0104234
0.032179
-0.0663292
-0.0063438
0.00693122
-0.000587422
-0.273783
-0.101949
-0.487955
0.357519
0.130436
-0.130642
-0.0387509
0.169393
-0.501254
0.38526
0.115993
-0.000666054
-0.454907
0.455573
0.0295729
0.00268092
-0.0322538
-0.13865
0.156187
-0.0175374
-0.0823748
-0.0133672
0.095742
0.0594615
0.0753746
-0.0813628
-0.0387528
-0.174029
-0.130381
0.240279
-0.109898
0.0961269
-0.0806111
-0.142037
0.222648
-0.370081
0.286669
0.0834126
-0.120809
-0.303195
0.178798
-0.407482
-0.165456
0.201751
-0.0362959
-0.129972
-0.112579
0.362461
-0.218631
-0.14383
-0.0925046
0.114908
-0.0224035
0.221818
0.140643
0.273203
-0.202675
-0.00727366
0.007631
-0.000357334
-0.0782644
0.00688421
0.0713802
-0.263118
0.144562
0.00226136
-0.000771888
-0.00148947
-0.0995161
0.0267392
0.00267666
-0.000742288
-0.0100316
-0.0171484
0.02718
-0.240256
0.159645
0.0129574
-0.022989
0.375829
-0.154011
0.00514048
-0.00710947
0.00196899
-0.044684
0.0435502
0.0657049
-0.207704
-0.164952
0.0506152
0.114337
-0.153255
0.0146049
0.143258
-0.296708
0.104645
0.195582
-0.115579
-0.197721
0.239611
0.143549
-0.38316
0.00841894
-0.00932777
0.000908828
0.102691
-0.0877096
-0.00250859
-0.00688199
0.00706838
-0.000186388
-0.110438
0.00151209
0.108925
0.00840139
-0.0116241
0.00322273
0.137391
-0.285176
0.147785
0.426904
-0.244412
-0.132646
-0.0648056
0.197452
0.383185
-0.195849
-0.187336
-0.00643537
-0.0551601
-0.465619
0.0517717
0.413847
-0.465532
0.209731
0.00506899
0.00395673
-0.00902572
0.0049814
0.0279048
-0.26921
0.23558
0.0336297
-0.267324
-0.114786
0.38211
0.0411428
0.0527321
-0.0938749
-0.134416
0.132114
0.0023023
0.165094
-0.269412
0.104318
-0.00513993
-0.0159117
0.0210516
0.196327
0.135824
-0.332151
-0.0220989
-0.142853
-0.000938631
0.00694137
-0.00600274
-0.130983
0.228111
-0.0971273
-0.385825
0.218197
-0.0290734
0.000407109
0.0286662
0.00657113
0.00184781
-0.150029
-0.0312556
0.181284
-0.173291
0.330605
-0.157313
-0.341588
-0.146367
0.00725016
-0.0105352
0.00328508
0.0305943
-0.00102141
-0.160303
0.327666
0.0917343
0.0119135
-0.103648
0.428243
-0.214347
-0.213896
0.182715
0.168494
-0.351209
-0.00600434
-0.0138377
0.0198421
-0.39894
0.22822
0.17072
-0.00641993
0.01225
0.085691
-0.216674
-0.00462265
-0.116205
0.120828
-0.000928335
0.00932972
0.0231403
-0.0619616
0.017509
0.176724
0.16546
-0.342184
-0.000453322
-0.00116236
0.00161568
0.121556
0.254272
-0.0348921
-0.0787914
0.000553289
-0.116601
0.116048
0.00373657
-0.00580793
0.00207136
0.00234248
-0.026503
0.0241606
0.271417
-0.386996
-0.00710855
-0.453196
-0.0785608
-0.0272645
-0.00254561
0.000965003
0.00158061
-0.220312
0.0899312
0.00704246
0.0387933
-0.0506786
-0.218531
0.089593
-0.20089
0.111297
0.221006
-0.455623
0.234618
0.00430907
0.0095027
0.107194
0.00771445
-0.00423383
0.00378051
0.15431
0.149068
-0.201827
0.105152
0.0110113
-0.00594234
0.00785853
-0.00774626
-0.000112274
-0.231767
0.185655
0.0461119
0.131881
-0.399205
0.242943
0.1853
0.00174778
0.000928872
-0.00201981
-0.0032553
0.284728
-0.4897
0.204972
0.160212
-0.326186
0.165975
0.00851824
-0.000945637
-0.00757261
-0.376203
0.181731
0.194472
-0.00823688
-0.000120356
0.00835724
-0.354469
0.00709969
-0.00709969
-0.118592
-0.0158241
-0.00624718
0.00459873
0.00164845
0.154943
-0.0164806
-0.138463
0.00607853
0.0335715
0.000318471
-0.00720047
-0.193667
0.0984372
0.0952301
-0.132509
-0.0481823
0.212145
-0.122552
-0.199935
0.148344
0.051591
0.275237
-0.137847
-0.156672
0.272028
-0.115356
0.133522
-0.129004
-0.00483588
0.0311562
-0.0263203
-0.433
0.204479
-0.112277
-0.151651
0.263928
7.34239e-05
0.00778511
-0.201395
0.412811
-0.211416
0.258673
-0.379482
-0.13114
0.0962477
-0.15833
-0.21076
0.36909
0.00862431
-0.00205107
-0.00657323
0.232609
-0.405491
0.172881
-0.172364
0.295322
-0.122958
-0.212852
0.374661
-0.161809
0.0955628
0.1241
-0.219662
0.325221
-0.128894
0.48762
-0.188155
-0.299465
-0.0453302
0.0503605
-0.00503032
-0.111724
0.294439
0.00563471
0.0738331
-0.0794678
-0.147021
-0.203608
0.0515954
-0.196682
0.145087
0.00612742
0.00143317
0.211852
0.275768
0.0546699
-0.0580497
0.00337973
-0.203081
0.203689
-0.000608358
-0.0233266
0.0175782
0.00574843
0.0262362
-0.0255891
-0.000647123
-0.0263737
0.022199
0.00417474
0.00923782
-0.0051781
-0.00405971
0.204829
-0.109266
-0.105935
0.127394
-0.0214588
0.0597427
-0.00852002
0.000283133
0.126734
-0.219805
0.0930708
-0.00414456
-0.0988614
0.103006
0.193509
-0.164522
-0.028987
0.0249604
-0.105067
0.146336
-0.114905
0.122444
-0.00753913
0.389747
-0.155645
-0.013508
-0.0158664
0.0293744
-0.00812309
0.113452
-0.105329
-0.0185966
0.0125922
0.314911
-0.229186
-0.0857247
-0.00738221
0.00644358
0.118547
0.0147718
-0.133318
-0.106559
0.157769
-0.0512104
-0.427261
0.267156
0.160106
0.114072
-0.113519
-0.00797446
0.00615859
0.00181587
-0.305195
-0.232951
0.370591
-0.21038
-0.000137544
0.374187
-0.170402
-0.203785
-0.0341474
0.0860832
0.206025
-0.381767
0.175742
-0.0484548
0.170049
0.119793
-0.267224
0.079873
-0.150309
0.070436
0.219931
-0.378261
-0.062506
0.0586884
0.00381768
-0.313104
-0.150449
0.463553
0.00790959
0.00840249
-0.0163121
0.260178
0.0547322
0.00495597
0.00428185
-0.0797841
0.10167
-0.0218862
-0.00888452
0.00139544
-0.0068524
0.00683899
1.34149e-05
-0.262028
0.149751
-0.0773293
-0.000935043
-0.0481214
-0.151813
0.00107667
-0.012593
0.0115163
0.000724587
-0.173032
-0.185246
0.358278
0.0631618
-0.0575271
-0.120266
0.115644
-0.295989
0.0954439
0.200546
-0.168155
0.0709551
0.0972004
0.118586
-0.272682
0.154096
-0.125149
-0.215399
-0.0805904
-0.456661
0.484278
-0.0276169
0.200996
-0.514099
0.274946
-0.156361
0.0139647
0.00656938
-0.020534
-0.196376
0.432209
-0.204691
-0.116865
0.321556
-0.130996
0.250304
-0.241261
0.127312
0.113949
-0.0401769
0.00858772
-0.00941307
0.219262
-0.0925276
0.0387312
0.00157964
-0.106631
0.105052
-0.132081
0.0171757
0.210498
0.000974525
-0.00183215
0.000857621
0.0747372
-0.0137388
-0.00499914
-0.00286568
0.00786482
-0.0833162
-0.0848393
0.0259217
-0.127693
-0.0933688
0.221062
-0.223855
0.0335893
0.190265
0.0377342
0.348282
-0.115672
0.000612801
0.100001
-0.144313
-0.15365
0.297963
0.232275
0.116006
-0.209126
-0.16082
0.369946
-0.0012351
0.0166751
-0.01544
-0.00110669
0.00932441
-0.0203867
0.0110623
0.17131
-0.159054
-0.0122565
-0.353139
0.197407
0.155732
-0.00286327
0.0101134
0.00649419
-0.000248238
0.0673937
-0.0088499
-0.0880368
0.139632
0.0968858
-0.0320222
-0.0648636
0.0207345
-0.0157379
-0.0049966
-0.467143
0.0258293
0.026525
-0.00432597
-0.0882589
-0.153002
-0.00827662
0.147116
-0.138839
-0.228006
0.149667
0.0783396
-0.0429533
-0.00136291
0.0443162
-0.00706263
0.00667482
0.000387801
-0.170603
-0.0518621
-0.010644
0.0168719
0.138071
-0.00302086
-0.200903
0.0052535
-0.00677728
0.00152379
-0.0872161
0.0542535
0.0329626
-0.128051
0.28114
-0.153089
-0.0116288
0.0127055
-0.177458
-0.0323017
0.0199317
-0.00651183
-0.0134198
-0.168978
-0.0805882
0.0193726
0.0263846
-0.0457572
0.154237
-0.0743644
-0.154355
0.223239
-0.0688835
0.0493573
-0.420301
0.370944
-0.00667259
-0.000436877
-0.0118072
0.144573
-0.132766
0.174468
-0.0429111
-0.131557
-0.125958
-0.0391794
0.165138
-0.00604287
0.00603235
1.05207e-05
-0.0645082
-0.155804
-0.0125653
0.0218897
-0.166144
0.296793
-0.130649
0.00934171
-0.00441285
-0.0147107
0.0191236
-0.0872841
-0.149713
0.32501
0.112644
0.0573139
0.0395719
-0.151483
0.323823
-0.17234
0.0353425
0.134752
-0.170094
0.107843
-0.312534
-0.129084
0.250568
-0.121485
0.0345553
0.00157109
-0.0388798
-0.0502064
0.0890862
-0.000648545
0.00297428
-0.00232574
0.27076
0.22177
0.00226747
0.00635683
0.235449
0.177581
0.0792483
-0.0292654
-0.0499829
0.0296751
0.152438
-0.361563
-0.351938
0.257602
0.0943363
0.19129
0.0938136
-0.094326
0.000512397
0.112308
-0.224312
0.112004
-0.132751
0.0268153
-0.135488
0.0289289
-0.0843996
0.113219
-0.0288197
0.326062
-0.0888815
-0.23718
-0.351174
0.156148
-0.161736
0.0248636
0.0166628
-0.0232076
0.00654483
-0.371707
0.169492
-0.00918643
-0.104686
0.113873
0.196396
0.272709
-0.0277486
0.0193192
0.00842945
-0.25368
-0.200232
0.453912
-0.144943
-0.0180834
0.163026
-0.17911
0.310627
-0.131517
-0.397771
0.000200685
0.110231
-0.118354
0.000619283
0.0188643
-0.0194836
0.039107
0.0184076
-0.0371862
0.0187787
-0.211092
0.0336344
-0.246252
-0.202646
-0.102658
-0.104517
0.207175
-0.000241855
-0.125003
0.245303
-0.1203
-0.21302
-0.136745
-0.0116492
0.028312
0.0494007
-0.00231456
-0.0470862
-0.287846
0.352642
-0.0647965
0.000390697
0.00652629
-0.00220196
-0.00365879
0.00586074
-0.285335
0.119191
0.271304
-0.0206052
-0.250699
-0.0117511
0.145605
-0.133854
-0.0916969
-0.13631
0.138324
-0.266376
-0.0670713
0.0606359
-0.00443881
-0.0045736
-0.00153065
0.00678415
0.0137909
-0.0254401
-0.302573
0.158576
0.143997
-0.0360054
-0.0194872
0.0554926
0.217419
0.0869242
-0.382476
0.304794
0.0776821
-0.419954
0.173702
-0.00692415
0.00125368
-0.475006
0.466459
0.00854682
0.132117
0.151974
0.00877311
0.0119614
0.00772238
-0.00750488
-0.000217499
0.145655
0.0956796
-0.241335
0.113576
-0.113276
-0.159897
0.0718603
0.187557
-0.461664
0.0334321
-0.00412058
-0.0293116
0.224039
-0.011689
-0.0899174
0.0510376
0.142255
0.0631905
-0.205445
0.0393022
0.0435372
-0.0828394
-0.457438
0.452326
0.00511147
0.135344
-0.199852
-0.476853
0.275487
0.201366
0.0966097
-0.012035
-0.0845747
0.0511303
0.000176372
-0.00715424
0.00697787
-0.0220029
0.0142757
0.00772718
-0.114865
0.129225
-0.0143605
0.00595901
-0.00628213
0.000323123
-0.000797831
0.113471
-0.113254
-0.000217177
0.000579416
0.00775743
0.115524
-0.0753876
-0.0401363
0.0317904
-0.0354505
0.185117
-0.0787352
0.00381052
-7.8494e-05
-0.00190892
-0.0426576
0.0052961
-0.097402
0.000675351
-0.103782
0.125007
-0.00256212
-0.13047
-0.0501168
-0.143551
0.0165126
-0.0209254
-0.000698846
-0.00657482
-0.162796
-0.190343
-0.0969921
-0.124947
0.221939
-0.0132006
0.00303582
0.0101648
0.0182568
-0.0192722
0.00101538
0.00512111
-0.00138454
-0.0121911
0.12935
-0.117159
-0.0159509
0.390805
-0.374854
-0.119926
0.111649
-0.00665154
0.000310742
-0.000909314
0.000598572
-0.506625
0.300133
0.206492
-0.0286596
0.202852
-0.174192
-0.236929
-0.0530561
0.0683203
-0.0152641
-0.238906
-0.188355
0.021197
-0.100981
0.120457
0.0045498
-0.066235
0.348765
0.134461
-0.331902
0.197441
-0.00457821
-0.00339625
-0.378294
0.174948
0.203346
-0.0453467
-0.157734
-0.253909
0.124826
0.364693
-0.315335
0.239853
-0.304722
0.0648694
-0.0168111
-0.0521595
0.0689706
0.0855883
-0.0571347
-0.0284536
0.108901
-0.00642616
-0.0262353
-0.00757663
0.000724222
-0.0174977
-0.00321124
0.0207089
-0.020823
0.447727
-0.0962689
0.00401179
0.0922571
0.0747371
0.0681242
-0.142861
0.135723
0.0768356
-0.212559
-0.00153549
0.0932697
0.217047
0.0696214
-0.271636
0.114964
0.194815
-0.367846
0.0377611
0.00679884
0.0126988
-0.00994578
0.00827024
-0.0282365
-0.324232
0.155914
0.168318
-0.156356
0.00310076
0.159785
0.240671
-0.327916
-0.0920377
-0.421003
0.420337
-0.134992
-0.0518462
0.186839
0.0233787
-0.107778
-0.00200104
-0.0257476
-0.119646
0.11046
-0.299141
-0.0833351
-0.0486128
-0.0488198
-0.00423633
0.0266093
-0.0892411
0.040222
-0.262416
0.222194
0.0129279
-0.00984734
-0.00308051
0.00296618
-0.00361472
-0.338292
0.175496
0.00724038
-0.00705784
-0.00018254
0.103954
-0.0628111
-0.142918
-0.0370784
0.179997
-0.139409
-0.0169462
-0.159594
-0.204237
0.36383
-0.0425128
-0.168344
-0.108151
0.104006
-0.00623904
0.00585054
0.0003885
-0.0678619
-0.0474249
0.115287
-0.0895563
0.305157
0.0133431
-0.00634886
-0.0127516
0.0191005
0.00796288
0.000172641
-0.00813552
0.0279198
0.243384
3.00045e-05
-0.00704295
-0.0708303
0.134314
-0.0634842
0.0131376
-0.00641767
-0.00671996
-0.0627117
-0.0434242
0.006435
-0.0114341
-0.297134
0.182152
-2.38847e-05
-0.0183378
0.0321287
0.0907254
0.00308821
0.171061
0.157739
-0.0108978
-0.126077
0.136975
0.118598
0.2765
-0.114304
-0.122156
0.0072918
0.203606
-0.0613517
0.0394281
0.0525472
-0.0919753
-0.0564671
-0.167387
0.00576384
0.0073738
-0.0158168
0.0145817
0.443337
-0.207888
0.0965292
-0.0980646
0.110935
-0.121437
0.0105022
-0.138052
0.125861
-0.129581
0.107178
0.022403
-0.00099615
0.013695
-0.134158
-0.158555
0.292713
0.107269
-0.106593
0.0572089
-0.0619013
0.00469235
0.113388
-0.112795
-0.000593095
-0.0012092
0.262384
-0.146162
-0.116222
-0.00205318
0.0263244
-0.0434085
0.0170841
-0.0901885
0.24137
-0.151181
0.00689532
-0.0123061
0.00541078
-0.118732
0.00588888
0.112843
-0.20663
-0.299995
0.0151763
-0.00726666
0.00152091
-0.124833
-0.122972
0.247804
-0.0213327
0.158348
-0.137015
-0.00644471
0.00277623
0.00366847
-0.229635
0.139446
-0.00620082
0.000251558
0.00594926
-0.0934741
0.258568
-0.304867
0.130841
0.174026
-0.150078
-0.121558
0.192176
-0.0233993
-0.168777
-0.258919
0.287296
0.155351
-0.442647
-0.022726
0.00522834
-0.297787
-0.179066
0.103108
-0.165038
0.300821
-0.135783
-0.0506473
0.0487384
-0.100359
0.0037436
0.0966154
-0.294219
0.16006
-0.221078
-0.199941
-0.00223742
-0.00396339
-0.153011
-0.119671
0.0349349
-0.0470763
0.0121414
0.022776
0.00176817
-0.168313
0.00925909
0.0640621
-0.0093922
-0.183296
0.0483041
-0.146029
0.230061
-0.0840323
-0.0109231
0.0417452
-0.140678
0.123655
-0.0101838
0.0490898
-0.239293
0.190204
-0.152362
-0.0159509
-0.0261084
-0.170574
-0.00153693
-0.104731
-0.164859
0.37642
-0.190669
-0.185751
0.190726
-0.0315639
0.20177
-0.00697262
0.0151341
-0.00816149
0.122182
0.00993177
0.262801
-0.164804
-0.0979965
0.175924
-0.393884
-0.0776668
-0.114482
0.192149
-0.0246592
-0.135244
0.0263336
-0.00355762
0.181246
-0.314701
0.133455
0.198921
-0.432801
0.23388
0.0129811
-0.0123618
-0.298474
0.131228
0.167246
0.000227519
0.107629
-0.107857
0.0420156
0.0431609
-0.0851765
0.147588
-0.0491506
0.00664787
0.00627998
-0.343838
0.184244
0.00550757
-0.0634347
-0.278153
-0.133515
0.00393416
-0.0128261
0.047761
-0.094731
-0.160843
-0.00180995
0.162653
-0.193174
-0.21913
0.412303
-0.11962
-0.0138954
0.128712
-0.00693067
0.00733455
-0.000403883
0.0245845
0.00194049
-0.0527185
-0.0360731
0.0887916
0.0620439
0.0256003
-0.0876441
-0.136043
0.160588
-0.0245449
0.0959784
0.148459
-0.244437
-0.144468
-0.0432513
0.187719
-9.97534e-05
0.0072472
-0.00714744
0.0103552
-0.00638355
-0.00397161
-0.1979
0.323966
-0.126066
0.038434
0.0126675
-0.0511016
0.0393318
0.423928
-0.225006
0.0253318
0.106601
-0.128346
0.0217446
-0.0926519
0.0102771
0.153109
-0.000856862
0.00809914
-0.034861
0.00840168
0.0264593
-0.0092162
0.00272158
0.00649462
0.00196881
-0.00225061
0.000281806
0.0255655
-0.0123641
-0.0132013
0.022523
-0.0205141
-0.153643
0.0175998
-0.51392
0.22
0.293919
0.0543436
0.0901934
-0.144537
0.137366
-0.158699
0.14892
0.147613
-0.296534
0.109527
-0.23436
-0.00378735
0.000279519
0.00350783
0.190913
0.134308
0.103089
-0.11484
0.0070082
-0.0152542
0.00824596
0.0447537
-0.0575798
-0.0172574
0.00517296
0.0120844
0.0834616
-0.0891708
0.0145075
-0.0725166
-0.107655
-0.00105986
0.108714
-0.128999
0.00177011
0.127229
0.0282164
-0.47841
0.000163534
-0.350729
0.334778
-0.0281482
0.0304907
0.0295071
-0.0655126
0.0632203
0.36656
0.163131
-0.0342752
0.227275
-0.0524072
0.00924541
0.0431618
0.0229931
0.00159138
-0.0479139
-0.0493629
-0.0470998
0.0964627
0.210155
0.201401
-0.411556
0.0910858
0.00673924
0.00193429
-0.115406
-0.00109249
-0.00627431
0.0073668
0.420091
-0.209936
0.19224
0.18418
0.470438
-0.253378
-0.21706
0.047275
-0.191743
0.142238
-0.0200552
-0.157232
0.333956
-0.128117
-0.346889
0.125352
-0.0231586
0.141705
-0.297267
0.154563
0.142704
0.0309176
-0.101748
0.226955
-0.177865
-0.187497
0.161389
-0.11335
0.248503
-0.135153
0.320022
-0.129109
-0.17753
0.130403
0.0471271
-0.0676058
0.0384916
0.0291142
0.00124902
0.0072008
-0.00871196
0.0147846
-0.0405999
0.0258153
-0.0293709
0.0158629
-0.10415
0.104763
-0.103352
0.118124
0.0900051
-0.0097098
-0.0802953
0.00729224
-0.000688767
-0.00660348
0.193161
-0.297892
0.427369
-0.445992
0.0186225
-0.354081
0.270597
0.0176609
0.0556793
-0.0733401
0.101997
-0.0532102
-0.0165806
0.0697908
-0.0211459
0.141893
0.000316931
0.00794116
-0.00821769
0.0152259
-0.0532661
0.0827732
0.00975684
-0.0471876
0.00616657
0.00418859
0.167992
-0.190653
0.254813
-0.0641604
0.180543
0.168662
-0.349205
0.240152
0.236038
0.158352
-0.301333
0.142981
-0.00549595
0.0367374
-0.000257681
-0.0220538
0.129232
0.118028
-0.0114271
-0.00553279
0.00510037
0.00043242
0.0104963
-0.00360097
-0.175161
0.150502
-0.168804
-0.13377
0.000873662
0.0563352
0.119396
-0.130294
-0.00832291
0.0405019
-0.0687995
0.080713
0.180045
-0.0168088
-0.163236
-0.0249342
-0.00992679
-0.0123977
0.0101957
-0.0655893
0.0137272
-0.00541476
0.0242791
-0.129191
0.416487
-0.24061
-0.115917
-0.1962
0.118533
-0.00344838
0.00205324
0.00139513
0.0844517
-0.313509
0.250074
0.217272
-0.128529
-0.0887431
0.122468
0.108346
-0.298998
-0.00148313
-0.00196525
0.111807
0.169376
-0.281183
-0.0187855
-0.446834
0.21903
0.164155
0.00443825
0.0921715
0.141466
-0.0725134
0.208237
-0.00665541
0.00619691
0.000458495
0.481479
-0.268384
-0.213094
0.120008
-0.00986983
-0.110138
-0.0117206
0.121167
-0.109447
-0.0731129
-0.14076
-0.140423
0.298776
0.00169695
-0.000722429
0.159354
0.0517221
-0.14669
-0.0154798
-0.0695191
0.052708
0.0225618
-0.20318
-0.173023
0.00357871
0.00452034
-0.00809906
-0.151945
0.0899628
0.0619822
0.0924372
0.153785
-0.246222
-0.0891294
0.108686
-0.0195566
0.338833
-0.223886
-0.114947
-0.0693348
0.101464
-0.032129
0.129744
-0.226736
0.327808
-0.011288
0.021234
0.0921538
0.142251
-0.243849
0.101597
-0.00130975
0.000430728
0.000879023
0.000121284
0.00368923
0.128019
-0.133774
0.269352
-0.135578
0.150243
-0.182424
0.0321813
-0.16902
-0.116315
0.108732
-0.214699
-0.0291392
-0.0486355
-0.406272
-0.172231
-0.206063
-0.283174
-0.0654383
0.066045
-0.000606722
0.0764086
0.0143168
-0.0617468
0.170496
-0.10875
0.0114426
0.0141229
0.145271
0.00896616
0.101573
-0.0196074
0.00386946
0.254055
-0.111804
-0.407028
0.367999
0.0390287
-0.107149
-0.0115828
-0.0981935
-0.0258166
0.0226339
0.00318269
-0.0163037
0.0111842
0.00511955
0.095375
-0.0104389
-0.084936
-0.346511
0.158643
0.187868
0.119483
-0.114927
-0.00455671
0.00185005
0.00864251
-0.163271
-0.160961
-0.00476799
0.000976619
0.00379137
-0.000344748
-0.0115331
-0.00572428
-0.158143
-0.145617
0.526681
-0.302885
-0.223796
-0.00137613
0.138009
-0.0265805
-0.111428
-0.363225
0.49682
-0.133594
-0.216412
0.0620567
-0.158853
-0.112446
0.271299
0.10979
-0.181777
0.132089
0.0496885
-0.302286
0.181102
0.121184
-0.00658049
-0.00195387
0.472285
-0.0349058
0.271951
0.25473
-0.00595675
0.0121787
-0.00622193
-0.106036
-0.0476062
0.0251689
-0.0305017
0.128239
-0.307348
-0.102393
0.0496743
0.0441506
-0.14896
0.10481
0.382703
-0.213922
-0.168781
0.100966
-0.0993865
0.15982
-0.304133
-0.0189141
0.00552765
-0.00194893
0.288373
-0.121886
-0.166487
0.00224692
0.00648582
-0.00873273
0.142002
0.21152
-0.353522
-0.210528
-0.135983
-0.000557139
0.338397
-0.148941
-0.189456
0.00694454
-0.00694454
-0.157369
-0.0034741
-0.379878
-0.0271498
-0.00117451
-0.00348473
0.00465924
-0.217408
0.399139
0.0125592
-0.081894
-0.518252
0.291292
0.226961
-0.13697
0.24304
-0.10607
0.443296
-0.439528
-0.00376779
-0.140463
0.0787163
-0.288027
-0.230225
-0.352658
0.21166
0.140998
0.211478
0.23186
-0.216375
0.360857
-0.144482
-0.141332
0.28459
-0.00930515
0.214074
-0.38381
0.169736
0.0066479
-0.00590603
-0.00074187
-0.000218192
-0.159509
0.271316
0.00236398
-0.157102
-0.200611
-0.234498
0.435109
-0.00110086
0.000191547
0.00493316
-0.0113531
0.086275
-0.050279
-0.035996
3.87816e-05
0.0261107
-0.0261495
0.13146
-0.138694
0.00723402
0.211649
-0.176763
0.10054
0.0762228
-0.15918
-0.145687
0.0962314
0.059956
0.327642
-0.193181
0.169834
-0.134491
-0.0128537
0.0391781
-0.174454
-0.208725
0.157761
-0.224864
0.0229398
0.201924
-0.0672563
0.0140461
-0.00525673
0.00521466
4.20732e-05
-0.093341
-0.058604
-0.0304798
0.0256439
-0.0151562
-0.0924785
0.107635
0.110591
-0.095015
-0.015576
-0.0151903
-0.0726315
0.0365584
0.0275788
-0.0293204
0.00174163
-0.0254697
0.0249858
0.000483906
-0.144051
-0.00928792
0.153339
0.000975927
-0.00701879
0.000277943
-0.0840611
-0.0927016
-0.148082
-0.150391
-0.308523
0.399564
-0.0243598
-0.043246
-0.0337528
-0.191111
0.0584088
0.0208396
0.0255777
0.153734
-0.00846287
0.0785441
0.050982
-0.129526
-0.143899
0.324442
0.0358905
-0.0219259
-0.00236258
0.0043214
-0.00195882
-0.00604616
-0.0943128
0.00120339
0.00608885
-0.293273
0.14179
-0.115666
-0.146362
0.0057012
-0.00604228
0.000341077
-0.214474
0.373879
-0.159405
-0.358979
0.140348
0.00085399
0.00677701
-0.127563
-0.0740604
0.201623
-0.0183968
0.0784874
0.00568658
-0.00663163
0.000945051
0.00490303
0.0285291
0.0643721
-0.191935
0.331077
-0.481526
-0.0127577
0.0109934
0.00176424
-0.142846
0.146192
-0.00334555
0.0158248
0.0736341
-0.0894589
-0.353081
-0.0707919
0.0698134
0.000978484
-0.0489979
-0.0476982
0.0966961
1.94181e-05
0.0524676
0.273266
-0.325734
-0.0022362
0.00168589
0.000550318
-0.239155
-0.202607
0.160094