/*--------------------------------*- C++ -*----------------------------------*\
| =========                 |                                                 |
| \\      /  F ield         | OpenFOAM: The Open Source CFD Toolbox           |
|  \\    /   O peration     | Version:  v2012                                 |
|   \\  /    A nd           | Website:  www.openfoam.com                      |
|    \\/     M anipulation  |                                                 |
\*---------------------------------------------------------------------------*/
FoamFile
{
    version     2.0;
    format      ascii;
    class       volVectorField;
    location    "150";
    object      U;
}
// * * * * * * * * * * * * * * * * * * * * * * * * * * * * * * * * * * * * * //

dimensions      [0 1 -1 0 0 0 0];


internalField   nonuniform List<vector> 
18649
(
(-0.157638 -0.030216 2.8137e-23)
(1.02612 -0.12562 -3.28076e-21)
(1.07339 0.00441865 0)
(-0.163364 -0.0247354 -1.92953e-19)
(0.490772 -0.213081 1.27809e-19)
(1.12725 -0.0672492 -4.91604e-20)
(0.286714 -0.112831 -1.64134e-19)
(1.30363 -0.232888 -2.55207e-20)
(1.2574 0.0196665 3.88524e-20)
(0.961475 -0.0657102 -8.67066e-22)
(1.25938 -0.304264 1.24763e-19)
(-0.273265 -0.153565 -5.29774e-20)
(1.11901 0.210228 -2.77428e-19)
(1.07234 0.00322606 0)
(0.992629 -0.0230933 0)
(1.20804 -0.0439294 5.68595e-20)
(1.01646 -0.00245351 1.20802e-21)
(1.20726 -0.0475645 2.43077e-20)
(1.16622 -0.417081 7.80117e-20)
(0.06913 -0.0336757 -1.91542e-19)
(0.02589 -0.0438571 -1.57607e-20)
(1.05538 -0.0663726 0)
(-0.164475 -0.0210121 0)
(1.36383 0.292504 0)
(1.01799 -0.0169091 0)
(0.0432444 -0.0334782 -4.12857e-20)
(1.04297 -0.0597504 -1.58931e-21)
(-0.265987 -0.160662 -1.51697e-19)
(1.3436 -0.200169 0)
(1.03095 -0.00168738 -1.71682e-20)
(1.06174 -0.0461644 7.28403e-21)
(1.08271 -0.342455 2.09124e-20)
(1.00568 -0.0101856 -1.04713e-22)
(0.970027 -0.11418 -1.81359e-20)
(0.986176 -0.081487 3.62294e-21)
(-0.198328 -0.0293139 -5.10283e-20)
(0.883386 -0.0877026 6.48351e-20)
(1.01963 -0.0574609 -7.45211e-22)
(1.03659 -0.0132843 1.03648e-20)
(1.29587 -0.242173 -8.07226e-20)
(1.26766 0.0177197 -1.18543e-19)
(1.36115 0.291039 -6.68965e-21)
(1.26563 0.0652723 -5.78069e-21)
(-0.159731 -0.0231475 -3.60453e-23)
(1.03072 -0.123899 -2.16516e-21)
(1.03127 -0.0013739 -1.51518e-20)
(-0.0758402 -0.0153744 -1.76471e-19)
(-0.159038 -0.0247717 1.3862e-19)
(1.23545 -0.314894 -1.18073e-21)
(1.03504 -0.0198101 1.98211e-20)
(-0.226643 0.227553 1.24258e-19)
(1.13203 -0.11216 -8.03305e-21)
(0.405327 -0.0472823 4.0963e-20)
(0.489353 -0.0919406 0)
(1.00546 -0.0093438 1.44358e-21)
(1.18884 -0.309709 1.57266e-19)
(-0.139313 -0.18926 0)
(1.30473 -0.00760254 0)
(-0.126395 -0.0266953 -1.84544e-19)
(0.964605 -0.0671934 9.50799e-22)
(-0.157454 -0.0298822 -1.30235e-19)
(1.00499 -0.0226761 1.52783e-21)
(1.25752 0.0720659 0)
(-0.14714 -0.0239614 -7.6344e-20)
(1.02117 -0.0570856 0)
(-0.140007 -0.0235814 2.68426e-19)
(1.05142 -0.0365969 0)
(-0.133071 -0.21478 0)
(-0.144418 -0.0308709 -1.36841e-19)
(1.3996 -0.105136 1.47057e-19)
(-0.190239 -0.0199997 1.9401e-20)
(1.00621 -0.0255885 1.54064e-22)
(1.06876 -0.343596 6.07631e-21)
(1.1211 -0.0322516 -6.49575e-23)
(0.974483 -0.110723 1.48888e-20)
(0.0182577 -0.04611 1.73269e-20)
(0.875051 -0.193126 1.08133e-20)
(1.05942 -0.167737 1.80033e-20)
(1.11715 -0.0314271 -1.49984e-20)
(1.01013 -0.534926 0)
(1.0166 -0.00237388 0)
(-0.0902328 -0.0193643 0)
(-0.156089 -0.0386136 3.362e-19)
(0.440416 -0.0506513 -3.87078e-20)
(0.856595 -0.302671 0)
(1.0362 -0.0123982 -1.45247e-20)
(0.893705 -0.144954 5.26786e-20)
(1.12954 -0.109178 6.0526e-20)
(1.17181 -0.156038 3.17861e-20)
(1.12613 -0.0387211 0)
(1.15979 -0.00999224 -6.25627e-20)
(0.967298 -0.0442476 0)
(1.00942 -0.0507094 -7.88596e-22)
(-0.0391059 -0.139463 -2.30154e-19)
(1.05432 -0.0649518 0)
(1.25434 -0.289868 1.78121e-19)
(0.970403 -0.0688342 0)
(0.993018 -0.490019 6.62018e-21)
(-0.140707 -0.0331999 -6.90973e-20)
(1.04216 -0.0562762 1.46739e-21)
(-0.164482 -0.0215037 -1.82201e-19)
(0.94121 -0.269036 0)
(1.02132 -0.00767461 8.55794e-24)
(-0.191337 0.247203 0)
(-0.145349 -0.0323248 7.54428e-20)
(1.13636 -0.112046 -1.3325e-21)
(0.999201 -0.00756138 -5.54682e-21)
(1.06716 -0.0477652 -1.61943e-21)
(0.944799 -0.266841 -9.39261e-21)
(0.972134 -0.100534 1.30592e-20)
(-0.198255 -0.0275988 -9.24371e-20)
(0.693893 -0.26616 -1.44424e-19)
(1.00902 -0.0517937 -6.91034e-22)
(0.968108 -0.10075 -4.47938e-21)
(1.38693 -0.0587673 1.23738e-19)
(1.08346 0.00507511 -1.56963e-20)
(1.00498 -0.00908686 2.38929e-23)
(-0.0329308 -0.234793 0)
(-0.166425 -0.0226872 0)
(1.04408 -0.0169238 0)
(-0.126969 -0.0280876 1.84057e-19)
(1.03065 -0.069477 0)
(1.07324 -0.342651 -5.89668e-21)
(1.00538 -0.0260053 2.06316e-23)
(-0.0495103 -0.0242361 5.65181e-20)
(1.01843 -0.0177942 0)
(1.00002 -0.000313515 -3.48493e-21)
(0.0580069 -0.0543411 3.69233e-20)
(1.02949 -0.0695733 3.90426e-21)
(-0.0108751 -0.231968 1.0815e-19)
(1.00186 -0.0421919 3.03727e-22)
(-0.151381 -0.037701 -2.13827e-19)
(1.02081 -0.0335189 -5.64492e-21)
(-0.118204 -0.0263119 1.48001e-19)
(0.878002 -0.0953288 -2.35387e-20)
(0.999882 -0.00679635 -1.15701e-20)
(-0.183903 -0.0251877 2.98634e-24)
(-0.132023 -0.197315 0)
(1.15631 -0.00545983 5.68607e-20)
(1.0534 -0.170378 0)
(0.495255 -0.637897 -2.56316e-20)
(1.03125 -0.046665 0)
(1.03181 -0.0151275 0)
(1.00963 -0.0155384 -1.61801e-21)
(1.00068 -0.00990089 -8.90407e-21)
(-0.341693 -0.217223 0)
(1.03223 -0.0154212 0)
(1.00281 -0.0178518 -5.30276e-21)
(-0.160637 -0.0243815 0)
(-0.146347 -0.0314134 1.51889e-19)
(1.4391 -0.0842062 -9.15503e-20)
(0.999569 -0.005153 0)
(-0.165441 -0.0414481 0)
(1.06227 -0.0181993 -1.84558e-20)
(1.03147 -0.0605712 0)
(1.00919 -0.0154202 0)
(0.606839 -0.291005 0)
(1.01032 -0.521675 -1.88134e-20)
(1.00548 -0.00490679 1.27462e-21)
(0.991018 -0.0494181 3.33206e-21)
(1.00155 -0.0160825 4.79012e-21)
(1.32331 -0.311664 1.85779e-19)
(-0.123097 -0.0286205 -1.5233e-19)
(1.06173 -0.0183598 -1.76205e-20)
(-0.0424865 -0.0237641 0)
(1.38098 -0.0635717 -1.19901e-19)
(0.999284 -0.00783659 0)
(1.0077 -0.0275401 -2.42803e-22)
(1.03308 -0.0612455 -4.35917e-21)
(1.08123 0.00310127 -2.4503e-20)
(1.00093 -0.0426644 0)
(0.170818 -0.52035 1.39258e-19)
(1.29578 -0.00619587 0)
(0.488133 -0.26269 0)
(1.02274 -0.0546647 -4.3976e-21)
(0.756973 0.115515 -2.90267e-19)
(-0.15085 -0.0234915 1.11607e-22)
(1.03537 -0.12809 7.63142e-21)
(1.00515 -0.00497916 1.0508e-21)
(1.40202 -0.118493 0)
(1.42377 -0.122587 0)
(1.02947 -0.00458403 0)
(1.00003 -0.000978398 -6.4241e-22)
(-0.684331 -0.140605 -1.59856e-19)
(1.11091 -0.0997007 0)
(1.20967 -0.00870436 0)
(1.00075 -0.00943557 6.77339e-21)
(1.03152 -0.0462324 0)
(1.16578 0.044759 0)
(0.991942 -0.218033 0)
(0.952094 -0.87079 -4.62065e-20)
(1.02331 -0.0604464 0)
(-0.160868 -0.0156011 -1.0379e-19)
(1.05622 -0.0172539 0)
(1.0198 -0.00633662 5.75297e-21)
(1.00062 -0.00659947 0)
(0.898087 -0.138664 -1.89707e-20)
(1.01499 -0.324596 -2.03211e-21)
(0.974137 -0.109647 7.48775e-21)
(1.00003 -0.00083 0)
(1.00266 -0.0171269 0)
(1.36145 -0.0483951 0)
(-0.14176 -0.22255 -1.34684e-20)
(0.895149 -0.102665 -1.68649e-20)
(1.17481 -0.168871 1.59008e-20)
(0.715362 -0.235649 1.95277e-20)
(1.3545 -0.196546 4.53174e-20)
(-0.0676356 -0.0130834 1.13903e-19)
(1.06589 -0.0477059 0)
(-0.1638 -0.0184035 -2.30837e-19)
(0.991113 -0.0528141 -3.26608e-21)
(1.03054 -0.107709 -1.86654e-21)
(1.02636 -0.0689332 0)
(-0.163712 -0.0176981 2.3218e-19)
(-0.150858 -0.0393182 2.79541e-19)
(1.04221 -0.031033 -9.46446e-21)
(0.845947 -0.271418 0)
(1.02669 -0.0326674 6.09245e-21)
(-0.0460823 -0.0235868 -1.14552e-23)
(1.00366 -0.0570375 4.9465e-21)
(1.29277 0.12319 2.73564e-20)
(1.02478 -0.0448976 2.69073e-21)
(0.338955 -0.914324 1.05698e-21)
(0.210091 -0.520827 -1.3402e-21)
(0.0932677 -0.0271702 1.44212e-19)
(-0.0331051 -0.182246 1.12228e-19)
(1.0434 -0.031911 1.11324e-20)
(1.0032 -0.0561041 -2.28648e-21)
(0.365342 -0.0339258 0)
(0.8089 0.121328 3.77989e-19)
(1.16143 0.051354 9.50629e-21)
(1.0205 -0.0306142 -2.69256e-21)
(-0.157635 -0.028497 0)
(1.20692 -0.0580802 -5.33949e-20)
(0.0867617 -0.0314452 1.51186e-19)
(1.33035 -0.281192 2.77433e-20)
(0.607327 -0.291478 7.02429e-20)
(0.480139 -0.190522 6.56403e-20)
(1.02042 -0.0328912 6.52353e-21)
(1.28267 -0.470282 -1.50543e-19)
(1.0229 -0.0048284 0)
(-0.181976 -0.0908863 -6.41114e-20)
(1.16126 0.0503321 2.07861e-21)
(1.02894 -0.00450682 4.84989e-22)
(0.969134 -0.101663 9.00516e-21)
(0.999859 -0.209607 -2.99662e-21)
(0.218926 -0.00405149 1.73046e-19)
(0.991571 -0.0490686 0)
(0.808317 -0.356702 3.51729e-20)
(1.01556 -0.311614 1.9982e-20)
(-0.276062 -0.113248 1.41013e-19)
(0.261171 -0.125252 2.13526e-19)
(1.20522 -0.00565326 0)
(0.986272 -0.080332 4.0177e-21)
(1.11669 -0.0933583 5.58692e-20)
(-0.164618 -0.020518 0)
(1.02444 -0.0435756 -3.49514e-21)
(0.990825 -0.0520462 0)
(0.964549 -0.0988459 4.67764e-21)
(0.97362 -0.104852 -1.37326e-20)
(1.03733 -0.0232452 -3.84881e-21)
(0.698891 -0.246715 8.17047e-20)
(-0.164926 -0.0186912 2.19199e-19)
(0.989464 -0.0478904 1.13721e-20)
(1.01904 -0.00652923 -5.94981e-21)
(-0.0959878 -0.0220466 6.25778e-20)
(0.59651 0.01513 -1.46875e-19)
(1.00054 -0.00684701 0)
(-0.656426 -0.139417 -8.15045e-20)
(1.0243 -0.0114499 0)
(-0.355596 -0.21174 4.62131e-20)
(1.11689 -0.35771 -2.87522e-20)
(0.344208 -0.0327065 4.39365e-20)
(0.669871 -0.31464 0)
(1.18161 -0.399851 0)
(1.05564 -0.0164853 2.91754e-21)
(1.0187 -0.00579835 0)
(1.18334 0.220479 -1.70457e-19)
(-0.00979208 -0.183192 0)
(-0.0358518 -0.0229956 -3.098e-21)
(1.00075 -0.00974095 9.78918e-22)
(1.02539 -0.0332228 1.59096e-20)
(-0.156911 -0.0402128 4.15323e-20)
(1.07851 -0.132896 -3.40676e-20)
(0.975795 -0.119888 1.25472e-19)
(-0.167073 -0.0326943 0)
(1.06452 -0.0174344 0)
(0.87831 -0.205865 0)
(0.999821 -0.00586789 0)
(1.03208 -0.00548274 0)
(1.28599 0.105907 -2.68647e-20)
(-0.319445 -0.133291 5.86508e-20)
(0.425114 -0.10359 -1.58782e-19)
(0.294359 -0.153961 -2.17278e-19)
(1.35998 -0.182584 -2.10839e-22)
(1.01023 -0.0901945 -7.30374e-22)
(1.44592 -0.0953591 0)
(1.35204 -0.196998 0)
(1.02021 -0.00695567 0)
(0.639208 0.0243945 0)
(1.00575 -0.00092342 3.90088e-21)
(0.968262 -0.121341 2.48951e-20)
(0.970747 -0.0683615 0)
(1.00874 -0.0152411 2.67736e-22)
(1.04278 -0.0171262 1.02005e-20)
(0.476913 -0.192606 4.32823e-20)
(0.999829 -0.0061669 1.33007e-20)
(1.23467 -0.0117368 6.38726e-20)
(0.472607 -0.151042 -5.98756e-20)
(0.970182 -0.114984 -1.61468e-20)
(0.0269877 -0.035123 0)
(0.965237 -0.0683077 3.34916e-20)
(0.533848 -1.27194 -7.54661e-20)
(0.993059 -0.0220746 1.09613e-20)
(1.06415 -0.0175748 1.73603e-20)
(1.02081 -0.0319053 0)
(1.0756 -0.0172515 4.42592e-20)
(1.00006 -0.000401932 2.14014e-21)
(-0.155474 -0.0401105 -1.68542e-19)
(-0.142028 -0.0223256 -1.1182e-19)
(0.999402 -0.00671922 0)
(1.00126 -0.0155267 -2.73309e-21)
(1.26859 0.0278406 9.16967e-20)
(1.0003 -0.000529726 -1.68384e-21)
(1.00829 -0.0151096 1.75606e-21)
(1.04631 -0.0384855 0)
(1.00077 -0.00939162 0)
(0.93673 -0.182336 -2.32259e-20)
(-7.93073e-05 -0.186685 0)
(0.71034 -0.207726 6.78877e-20)
(-0.170094 -0.025217 5.80984e-20)
(1.00692 -0.0263239 0)
(1.00068 -0.013939 2.77433e-21)
(1.25011 0.0837957 2.06632e-20)
(1.006 -0.00475935 -1.42556e-21)
(1.03263 -0.000146062 0)
(-0.65485 -0.154274 -1.61565e-19)
(1.00919 -0.166447 0)
(1.28184 -0.161293 9.29342e-20)
(0.891581 -0.108331 0)
(1.32527 -0.309058 -9.06495e-20)
(1.00567 -0.00488302 0)
(1.09977 -0.00244142 0)
(1.02762 -0.0705785 -4.54795e-21)
(1.08285 -0.068681 2.01871e-20)
(1.00031 -0.022263 2.39026e-21)
(1.00046 -0.00598552 -2.39087e-21)
(1.0225 -0.00432395 -8.19585e-21)
(1.154 -0.000693018 -3.18986e-20)
(1.20547 -0.0581147 0)
(0.997114 -0.0241359 6.47067e-21)
(1.13699 0.254317 -1.66165e-19)
(0.996953 -0.0246437 0)
(1.04596 -0.0393323 0)
(-0.170285 -0.0284842 -1.9996e-19)
(0.941784 -0.0400648 0)
(1.07709 -0.018104 0)
(0.0247886 -0.0237931 0)
(1.32215 -0.293219 0)
(-0.0411621 -0.0229174 -2.5109e-20)
(0.37324 -0.10522 0)
(1.08128 -0.067546 -1.78407e-20)
(0.334646 -0.114384 0)
(0.997209 -0.0260176 0)
(0.112399 -8.06512e-05 1.58027e-19)
(0.600639 -1.02734 6.38408e-20)
(0.967069 -0.0668705 -2.3852e-20)
(0.905461 -0.064553 -4.36486e-20)
(1.00715 -0.164723 -1.42018e-21)
(1.06021 -0.0430249 0)
(1.02489 -0.061226 2.96786e-21)
(1.03072 -0.0150066 0)
(1.00047 -0.0204034 3.65633e-21)
(-0.148734 -0.083409 -6.12682e-20)
(0.929182 -0.190782 0)
(0.0758238 -0.0294964 -1.49492e-19)
(-0.169105 -0.0234174 2.51357e-20)
(1.34469 -0.188845 0)
(0.18181 -0.000498817 -1.08538e-19)
(1.09477 -0.0302137 -1.78916e-20)
(0.999992 -0.00105063 2.6044e-21)
(1.15313 0.0552475 0)
(1.01793 -0.0306824 0)
(0.933758 -0.893747 0)
(1.00009 -0.000139594 -3.31391e-21)
(0.999664 -0.00522573 -8.76663e-21)
(0.0866424 -0.279836 0)
(0.456724 -0.0890537 0)
(1.07198 -0.048988 -8.45316e-21)
(1.03602 -0.0212379 0)
(1.35944 -0.275924 1.22988e-19)
(1.13366 -0.231151 -1.88687e-20)
(0.999799 -0.0546791 6.78532e-21)
(-0.40988 -0.0354879 -1.47075e-19)
(1.06902 0.00278211 1.9854e-20)
(0.906754 -0.0645782 5.50112e-20)
(-0.20766 -0.0330508 2.72144e-19)
(1.09621 -0.0679016 -1.33544e-20)
(0.99992 -0.00533791 -3.99977e-21)
(-0.617222 -0.162939 0)
(-0.14829 -0.0749269 0)
(1.20381 0.00264796 -2.82122e-20)
(1.00646 -0.0365098 0)
(1.00071 -0.0136242 0)
(-0.163597 -0.117108 0)
(-0.6372 -0.157707 2.03915e-19)
(1.02717 -0.0345475 0)
(1.3629 -0.247797 1.00077e-19)
(1.02618 -0.0126184 0)
(1.03314 -0.0425238 2.25229e-22)
(0.27834 -0.152222 0)
(1.03845 -0.0119038 4.89016e-22)
(0.015984 -0.190504 0)
(1.09683 -0.068255 0)
(1.41472 0.18021 0)
(0.14423 0.00440811 1.71486e-19)
(1.09692 0.219796 2.12226e-19)
(0.72088 0.0960448 4.06306e-19)
(1.01766 -0.0279869 0)
(-0.0269169 -0.0444695 8.45846e-20)
(0.997236 -0.0261174 0)
(1.20246 0.201703 2.42619e-19)
(1.18519 -0.259771 0)
(0.0945921 -0.00413375 9.19036e-20)
(0.374004 -0.0681433 1.51709e-19)
(1.03023 -0.0145447 -5.17528e-21)
(1.03194 0.000246365 -2.39655e-22)
(1.28774 -0.475216 0)
(-0.0332619 -0.0207489 -4.98936e-20)
(1.10139 -0.00409028 1.27381e-20)
(0.687283 -0.295542 -1.03616e-19)
(1.06957 -0.0497061 7.48851e-21)
(1.0586 -0.0863219 3.47644e-20)
(1.01769 -0.0052879 -7.65773e-21)
(0.0122102 -0.226497 -1.0641e-21)
(1.12136 0.261597 1.81687e-19)
(-0.107801 -0.0278128 -5.09797e-20)
(1.06366 -0.0435304 1.27019e-20)
(0.967014 -0.0446677 -7.79025e-21)
(0.116364 -0.289104 0)
(-0.157672 -0.0383852 -1.36183e-19)
(0.906737 -0.0575728 -6.43117e-20)
(1.00492 -0.0874153 -2.86319e-21)
(1.03613 -0.0219471 0)
(1.02689 -0.0123395 -1.08086e-20)
(-0.033472 -0.0216884 0)
(0.0474602 -0.0496676 7.01772e-20)
(1.00484 -0.0078466 9.6633e-23)
(1.05369 -0.00730974 -1.41173e-20)
(-0.194513 -0.0260361 0)
(1.03871 -0.0167103 1.03119e-21)
(-0.204563 -0.0402008 2.76234e-19)
(1.03499 -0.0201183 -1.45165e-20)
(-0.165461 -0.0286299 0)
(1.12719 -0.229117 -5.90162e-20)
(0.10261 -0.00166225 8.34449e-20)
(0.957633 -0.158829 -1.02207e-20)
(0.523255 -0.0912748 -7.25487e-20)
(-0.167432 -0.0230717 1.43073e-20)
(1.04165 -0.137047 1.12882e-20)
(1.25644 0.0119303 -4.33128e-20)
(1.05907 -0.0885698 -1.5206e-20)
(1.24155 0.00296498 3.64202e-20)
(1.0928 -0.0267165 0)
(0.991317 -0.0451534 0)
(1.07838 -0.139984 1.12275e-21)
(0.241295 -0.643867 -7.07155e-20)
(1.03231 -0.00597588 0)
(1.08308 -0.0402877 0)
(-0.161192 -0.0394023 3.83761e-20)
(1.02531 -0.0135489 1.90491e-20)
(1.00045 -0.0062089 0)
(1.27601 0.213713 0)
(1.01598 -0.0171212 8.38045e-21)
(-0.15406 -0.0217433 -5.87384e-20)
(1.06689 -0.0164798 0)
(1.07476 -0.014757 0)
(1.05188 -0.00511346 0)
(1.13696 -0.0436252 -4.73751e-20)
(1.06747 0.00356951 1.73085e-20)
(1.00007 -0.00122091 1.71816e-22)
(0.564714 -0.617169 0)
(1.03384 -0.0436206 -5.70674e-22)
(0.84032 -0.177185 0)
(1.0013 -0.0152324 -2.52483e-21)
(1.11229 -0.12236 7.09048e-20)
(-0.162227 -0.0241814 -1.37203e-19)
(1.00003 -0.00140094 -1.91368e-22)
(0.76292 -0.0606493 3.27202e-20)
(1.09557 -0.0991734 0)
(0.29886 -0.0874069 0)
(-0.566079 -0.178087 1.60364e-19)
(-0.546498 -0.181485 0)
(-0.193335 -0.0418044 0)
(1.1404 -0.0446383 5.32737e-20)
(1.21509 -0.247839 1.30256e-21)
(1.15902 0.0528313 1.09667e-20)
(-0.205228 -0.0401437 -1.39091e-19)
(0.980561 -0.0467965 0)
(1.19162 -0.332535 -9.47254e-20)
(0.978923 -0.105195 1.21946e-20)
(0.528675 -0.095636 1.11372e-19)
(1.37062 -0.0558738 -1.00867e-19)
(1.11019 -0.284814 0)
(1.00039 -0.000632313 1.37691e-21)
(0.388687 -0.42665 -8.45849e-20)
(1.40611 -0.0102125 1.37793e-19)
(0.296425 -0.151425 2.25179e-20)
(1.05049 -0.0324349 0)
(-0.206323 -0.0317882 -3.53656e-19)
(0.929342 -0.0645578 -6.34149e-22)
(1.3006 0.108759 -2.9159e-20)
(0.997308 -0.0143407 6.41183e-21)
(1.18892 -0.263657 -6.48901e-20)
(-0.150492 -0.0307639 1.06947e-19)
(0.999496 -0.0060918 -9.02079e-21)
(1.05259 -0.00664011 0)
(-0.569325 -0.177406 0)
(1.04132 -0.0191104 0)
(0.991036 -0.506002 -6.48442e-21)
(1.0396 -0.019906 0)
(1.13113 -0.0695371 4.53877e-20)
(1.04219 -0.058947 6.34498e-21)
(1.17539 -0.096209 2.63008e-20)
(1.01562 -0.0159343 -2.7848e-21)
(0.764969 -0.520584 -1.63394e-20)
(1.00009 -0.00131876 9.83085e-23)
(0.273003 -0.0123835 -5.35074e-20)
(1.05244 -0.0331818 0)
(-0.192824 -0.0424805 -2.01982e-19)
(1.24175 -0.142029 0)
(-0.0556586 -0.131686 1.46137e-19)
(-0.148103 -0.0344901 -1.39086e-19)
(1.08057 -0.0382853 0)
(0.967982 -0.0426237 1.42288e-20)
(1.23969 0.000320853 6.99612e-20)
(0.103232 -0.18348 1.75777e-19)
(-0.169031 -0.0243806 -3.21053e-20)
(1.04414 -0.0156756 1.17186e-21)
(0.830652 -0.178738 2.5758e-20)
(1.39926 0.177248 -1.11424e-19)
(1.07972 -0.0216977 2.33142e-20)
(1.50976 0.186756 2.27171e-20)
(1.02364 -0.0668979 0)
(0.999359 -0.00701522 5.10261e-21)
(1.07863 -0.0235104 -8.6724e-21)
(1.00383 -0.000755323 -2.01219e-21)
(1.0001 -0.000990697 4.67992e-22)
(1.0236 -0.0678274 -2.62302e-21)
(0.331332 -0.137926 1.86877e-19)
(1.02487 -0.0122272 0)
(1.03211 -0.0332292 0)
(1.13042 -0.0381961 -1.77236e-20)
(1.06215 -0.0970971 2.88112e-22)
(0.538575 -0.586984 4.602e-20)
(-0.0600053 -0.150499 1.09336e-19)
(0.979377 -0.0460444 -7.20493e-22)
(1.25696 0.0781685 2.56823e-20)
(1.33432 -0.186874 0)
(1.10679 -0.282883 0)
(1.00107 -0.014593 5.63948e-21)
(-0.0183081 -0.0137525 0)
(0.846951 0.144319 -1.31929e-19)
(0.11886 -0.0483028 0)
(1.50813 0.164835 -2.67794e-20)
(1.16545 0.0448314 0)
(1.06174 -0.0869259 4.49517e-21)
(1.14322 -0.0527777 1.3925e-20)
(1.15638 -0.00202281 0)
(1.06891 -0.0147974 -1.02189e-20)
(1.36285 -0.178098 4.38407e-20)
(1.01316 -0.0396161 0)
(1.06915 -0.0152524 -1.17286e-20)
(1.03303 -0.00939881 6.58676e-21)
(-0.290365 -0.147306 0)
(0.0888202 -0.00230073 -2.63576e-19)
(-0.38923 -0.209724 -7.6348e-20)
(1.04551 -0.167746 -1.12274e-20)
(1.00769 -0.0343078 -8.9958e-22)
(-0.166718 -0.105862 0)
(-0.134355 -0.023637 -1.43177e-19)
(0.989514 -0.906406 3.92862e-20)
(1.11495 -0.122394 -3.34993e-20)
(0.764287 -0.0806575 -1.70805e-21)
(-0.32293 -0.211028 -1.83537e-20)
(1.00516 -0.000759914 -2.50992e-21)
(-0.550828 -0.179305 0)
(1.05854 -0.0977416 -2.40449e-22)
(0.960725 -0.078932 0)
(0.959916 -0.054645 0)
(0.596475 -0.688818 -2.35289e-20)
(-0.137514 -0.0344283 3.68181e-20)
(1.06652 -0.0163762 0)
(0.751624 -0.519075 0)
(0.958282 -0.159399 -6.03475e-21)
(1.00804 -0.0860368 1.13039e-21)
(-0.170373 -0.0172962 -1.38733e-19)
(1.10453 -0.602735 -6.98e-20)
(0.998145 -0.0349812 3.71336e-21)
(0.11314 -0.174358 -1.62543e-19)
(1.16042 -0.0114596 1.65712e-20)
(-0.128836 0.246392 -2.28471e-19)
(1.02966 -0.062111 -5.51907e-21)
(0.687251 -0.115614 -1.13391e-19)
(1.17373 -0.0981499 4.76657e-20)
(1.12031 0.0298312 -1.78875e-20)
(1.00991 -0.000490639 -3.57106e-21)
(0.0961104 -0.000398184 -1.07786e-19)
(1.21085 -0.139403 4.01616e-20)
(1.25984 -0.00096588 0)
(1.24568 0.106397 2.27495e-20)
(-0.121671 -0.0296912 0)
(1.10161 -0.00463755 1.86622e-22)
(-0.369322 -0.214471 1.39309e-19)
(1.0635 -0.0288818 0)
(1.04925 -0.16665 0)
(0.267535 -0.176642 -1.68513e-19)
(1.12404 -0.072428 2.55459e-20)
(1.00618 -0.0100663 0)
(0.752569 -0.102139 -1.85321e-21)
(1.07872 -0.028949 -2.54083e-20)
(1.23633 0.0830742 1.07958e-19)
(1.03143 -0.0321249 1.22302e-22)
(0.995929 -0.0420459 4.83191e-21)
(0.542222 -0.6138 -4.12774e-20)
(1.24359 -0.519742 0)
(-0.0607121 -0.0237677 -1.22631e-19)
(1.00011 -0.000529325 0)
(-0.155222 -0.0219462 6.14213e-20)
(1.03586 -0.0192948 0)
(0.952982 -0.580028 -4.71727e-21)
(1.2061 0.000541172 1.72772e-20)
(1.03313 -0.00987338 -6.94154e-21)
(1.04802 -0.0378881 -1.39476e-20)
(0.967595 -0.0713932 -8.18611e-21)
(1.1936 -0.110625 0)
(0.975937 -0.0680995 -1.24598e-20)
(1.21545 -0.248044 2.52773e-22)
(1.31048 0.0951536 2.34671e-20)
(0.991989 -0.246803 -4.46999e-21)
(1.02861 -0.0473481 0)
(1.02494 -0.0313935 -9.55272e-21)
(0.96243 -0.0977222 0)
(0.327206 -0.128941 7.06763e-20)
(1.00484 -0.0219498 1.26428e-21)
(0.923082 -0.161651 -1.2185e-20)
(1.02201 -0.00710772 -8.43143e-21)
(-0.30455 0.273367 6.97742e-20)
(1.00011 -0.00207141 0)
(0.956983 -0.080171 2.28724e-20)
(1.06753 0.000133469 -5.02475e-21)
(1.02471 -0.0127823 -9.87745e-21)
(-0.194569 -0.0277588 1.63929e-19)
(1.39712 -0.00742484 -6.26154e-20)
(0.185993 -0.462364 0)
(1.03202 -0.129273 -1.24479e-20)
(0.559493 -0.0830055 -2.47611e-21)
(1.15822 -0.0170151 0)
(1.0361 -0.0136311 3.71478e-21)
(1.1254 0.0368791 4.3999e-20)
(-0.141971 -0.033776 0)
(1.09854 -0.0628055 2.2885e-20)
(1.04993 -0.0374612 7.84144e-21)
(0.362748 -0.122396 6.83941e-20)
(0.693908 -0.0113313 0)
(1.00229 -0.0187013 5.98134e-21)
(-0.151643 -0.0396407 0)
(0.112419 -0.069599 0)
(1.06389 -0.0297421 1.02416e-20)
(1.06878 -0.0118777 0)
(1.20825 -0.184748 4.20545e-20)
(0.961138 -0.0508793 -1.4307e-20)
(0.998917 -0.0338302 0)
(0.902097 -1.00243 0)
(-0.190772 -0.0212908 -2.391e-20)
(-0.173182 -0.0185868 0)
(0.380616 -0.112418 -1.40489e-19)
(0.998578 -0.029863 -1.43622e-20)
(0.870397 -0.312032 0)
(1.00759 -0.0279656 0)
(1.00948 -0.0214455 6.39234e-22)
(1.03505 -0.0131587 -6.85452e-21)
(-0.151842 -0.0238296 0)
(1.02094 -0.0016085 -1.16232e-20)
(1.02414 -0.0567075 5.32364e-21)
(-0.299941 -0.214815 -6.63076e-22)
(-0.160117 -0.0374771 -2.15112e-19)
(1.08068 -0.0477934 3.74478e-20)
(1.35367 -0.17892 1.6983e-19)
(1.11374 -0.128208 -2.08143e-20)
(1.00485 -0.00855233 0)
(0.441618 -0.00264841 0)
(1.12266 -0.0298126 -2.27394e-22)
(1.22479 -0.509566 0)
(1.01534 -0.0848411 0)
(1.06182 -0.586646 -1.10743e-21)
(1.03287 -0.000858084 -8.31271e-21)
(1.1042 -0.00724191 -1.41693e-20)
(0.999931 -0.0016801 8.43962e-21)
(1.24354 -0.364162 1.0689e-19)
(1.02995 -0.0464704 0)
(-0.152198 -0.0329525 3.64165e-20)
(0.305744 -0.0217209 0)
(1.33199 -0.138541 -1.21443e-19)
(-0.125096 -0.0316369 -3.05106e-23)
(-0.0412157 -0.0222488 0)
(0.919041 -0.1235 3.61368e-20)
(-0.186011 -0.0260572 -1.66956e-19)
(1.34259 -0.246295 0)
(1.30159 0.111579 3.16592e-20)
(0.960016 -0.0539755 4.89859e-21)
(1.04655 -0.0375616 1.35279e-20)
(-0.076723 -0.0148406 -5.8562e-20)
(0.653097 0.014394 0)
(1.35435 -0.200224 -5.16663e-20)
(1.24453 -0.300411 -1.56469e-19)
(1.11945 -0.285305 -6.3557e-20)
(1.00026 -0.0219054 4.17392e-21)
(1.03799 -0.13348 -1.84748e-21)
(0.282188 -0.172159 1.89965e-19)
(-0.170556 -0.0277824 3.0128e-19)
(1.00721 -0.0332562 2.2805e-22)
(1.07383 -0.0899716 0)
(-0.0984312 -0.202441 -5.22912e-20)
(0.251167 0.0748372 -2.94769e-19)
(0.0764684 -0.0067991 -1.38181e-19)
(1.34868 -0.0753597 1.01512e-19)
(1.00731 -0.000294996 -3.12921e-21)
(0.962673 -0.0832167 2.4716e-20)
(-0.164884 -0.0219828 1.28622e-19)
(-0.019824 -0.00488414 0)
(1.01486 -0.00319091 4.93688e-21)
(1.13687 -0.0141688 -5.64139e-20)
(1.01804 -0.00594582 6.46355e-21)
(0.775949 -1.02935 -1.25043e-21)
(0.997554 -0.0134745 0)
(1.16606 -0.128823 -9.43128e-20)
(1.12513 -0.284924 7.26194e-20)
(1.00263 -0.0185164 4.75122e-21)
(1.05862 0.00191467 0)
(-0.150675 -0.030489 3.9682e-20)
(0.998042 -0.0261747 0)
(1.09024 -0.102819 1.6265e-20)
(0.995498 -0.0402167 -4.99957e-21)
(1.01093 -0.00073049 1.28231e-22)
(1.00591 -0.0433412 5.54694e-23)
(1.14377 -0.699161 -4.16978e-20)
(0.89938 -0.419777 -9.13918e-21)
(1.34228 -0.19517 -4.32515e-20)
(0.38529 -0.111972 -1.75654e-19)
(-0.155129 -0.0346749 1.07238e-19)
(-0.407569 -0.141093 0)
(1.00015 -0.00123321 -5.28134e-21)
(1.23008 -0.136065 0)
(0.908978 -0.0733798 5.50056e-20)
(1.10447 -0.0812367 -5.17806e-20)
(1.36284 -0.243063 -1.00315e-19)
(0.999988 -0.0228933 0)
(0.990728 -0.0439464 -1.52003e-21)
(1.043 -0.0153162 0)
(0.434732 -0.954043 -8.42147e-22)
(-0.0251327 -0.193271 -2.42651e-19)
(0.392339 -0.844911 1.40736e-20)
(0.999884 -0.033525 -1.07613e-20)
(1.00201 -0.157378 1.46243e-21)
(1.03672 -0.0118821 -5.56182e-23)
(1.03454 -0.013499 1.4241e-22)
(1.03224 -4.65955e-05 -1.75129e-20)
(1.00727 -0.106859 -3.85926e-22)
(0.99026 -0.243231 4.81159e-21)
(-0.286292 0.304089 -3.24992e-21)
(0.931959 -0.15952 1.02598e-20)
(1.00918 -0.0217537 0)
(0.982461 -0.528957 -7.8083e-21)
(0.783916 -1.00812 -4.49353e-20)
(0.855891 -0.253681 9.41922e-22)
(1.00852 -0.0217546 -5.17598e-22)
(0.00928193 -0.206138 -2.9096e-19)
(-0.0734132 -0.0260515 0)
(1.00732 -0.0325713 2.1323e-21)
(-0.146881 -0.0289057 -1.47339e-19)
(1.34853 -0.26691 -1.13851e-19)
(1.2082 0.0156152 0)
(1.00198 -0.158132 0)
(1.00024 -0.0113402 0)
(1.0285 -0.104658 3.22615e-21)
(1.1912 -0.313745 0)
(-0.131006 -0.0346698 -1.67084e-19)
(1.16581 0.313199 -5.03509e-20)
(1.05146 -0.0362007 -1.74992e-21)
(-0.164545 0.230811 -1.23268e-19)
(-0.345835 -0.21997 1.57763e-19)
(-0.207158 -0.0397038 -1.07786e-19)
(1.06829 -0.0110803 3.00591e-21)
(-0.170313 -0.0417213 0)
(1.30745 -0.221216 -4.31196e-21)
(-0.21923 -0.0739671 0)
(0.854417 -0.295178 0)
(0.18474 -0.0615956 -1.0821e-19)
(1.04485 -0.0174661 0)
(-0.164214 -0.0384763 2.36433e-19)
(0.42002 -0.105584 0)
(1.14975 -0.104365 0)
(1.02291 -0.0588253 0)
(1.05285 -0.00562781 0)
(1.05122 -0.14323 6.53363e-21)
(1.4155 -0.109262 0)
(1.04279 -0.056422 6.82904e-21)
(1.32767 -0.140852 1.75764e-19)
(1.0171 -0.0840511 0)
(1.19222 -0.520259 4.50288e-20)
(1.13933 -0.0597897 0)
(-0.215543 -0.0668596 0)
(-0.328783 -0.152687 2.10861e-19)
(1.03693 -0.0199601 -1.83216e-21)
(1.35542 -0.244864 0)
(1.09164 -0.280989 2.75739e-20)
(1.34184 -0.0607141 -1.93686e-19)
(1.26252 -0.165873 0)
(-0.000396219 -0.194704 1.05616e-19)
(1.00203 -0.0285194 -4.12444e-21)
(1.23972 -0.287992 0)
(0.706143 -0.291487 2.75332e-20)
(1.3195 -0.274969 -1.78307e-19)
(0.0831558 -0.00435368 0)
(1.00034 -0.0518443 0)
(0.167981 0.000344115 -1.40193e-19)
(0.366109 0.309462 -8.68533e-20)
(0.994944 -0.0358112 -9.17436e-21)
(0.157013 -0.0431791 -1.29354e-19)
(1.27627 -0.284774 -6.92754e-20)
(1.01411 -0.00354839 3.79396e-23)
(0.247655 -0.00925376 0)
(-0.637507 -0.160015 -4.44262e-20)
(1.03561 -0.0744556 -6.80288e-21)
(1.14837 -0.16555 0)
(-0.0742301 -0.0724279 -1.31913e-22)
(0.994363 -0.0346394 -5.88972e-21)
(0.0956315 -0.0195439 -1.37894e-19)
(1.00095 -0.0562867 -6.89004e-21)
(1.00145 -0.0372231 -5.37061e-21)
(0.990839 -0.0428306 1.53707e-21)
(1.1636 -0.0393554 -7.40697e-20)
(1.00862 -0.0213033 0)
(1.03313 -0.00152443 1.23286e-20)
(-0.437344 -0.139023 1.59043e-19)
(0.999939 -0.00108308 -1.1092e-20)
(1.09917 -0.0644196 -3.91128e-20)
(1.06413 -0.0267062 1.98094e-20)
(0.700286 0.0257616 1.57965e-19)
(0.888605 -0.213622 0)
(1.00158 -0.0282567 5.85598e-22)
(1.04182 -0.0174865 -1.93839e-21)
(0.0989001 -0.0168083 -9.47086e-20)
(1.02272 -0.0648331 0)
(0.66562 -0.737447 1.7719e-20)
(0.166916 -0.577523 0)
(1.04107 -0.164883 1.19594e-20)
(0.805835 -0.051326 -6.4411e-20)
(1.00818 -0.104254 7.17345e-22)
(1.13736 -0.00236867 6.50628e-20)
(0.464873 -0.0596844 -4.2845e-20)
(1.3945 0.449645 0)
(0.915842 -0.128865 -3.35271e-20)
(1.00868 -0.0398948 0)
(1.03788 -0.166139 -4.9747e-21)
(1.10668 -0.123264 0)
(1.34619 -0.193274 0)
(1.07192 0.00180393 0)
(1.00632 -0.0199467 0)
(1.2302 -0.00668606 -6.80242e-20)
(0.999539 -0.00582545 9.53106e-21)
(-0.253449 -0.212377 -3.91384e-22)
(1.13931 -0.223899 -6.51931e-20)
(1.0201 -0.0639545 0)
(1.00259 -0.0168584 -2.93097e-23)
(1.11873 -0.0871808 6.30637e-20)
(1.07388 -0.134192 -1.65803e-20)
(0.224119 -0.574952 0)
(0.984555 -0.0386131 -1.94609e-20)
(1.02211 -0.0116147 -2.01459e-21)
(0.18197 -0.468189 0)
(1.00356 -0.040462 -2.59525e-22)
(1.37344 -0.166231 -8.19501e-20)
(1.27525 -0.409258 -2.95629e-19)
(1.04177 -0.13815 -1.67958e-20)
(0.0457377 -0.200618 1.74327e-19)
(1.00037 -0.0106602 0)
(-0.143826 -0.0220697 0)
(1.0008 -0.0133779 -5.23813e-21)
(1.2615 -0.173649 -2.0499e-20)
(0.65975 -0.759562 -2.32867e-21)
(1.39679 0.473049 1.47503e-19)
(1.18459 -0.0783837 0)
(1.00787 -0.00607885 2.79281e-21)
(1.25645 -0.17394 7.27008e-20)
(1.07611 -0.0154772 1.38734e-20)
(-0.151944 -0.0357344 -2.24989e-19)
(-0.541364 -0.179742 -2.70224e-19)
(1.28479 -0.560879 -8.89862e-20)
(1.26789 -0.386419 1.17634e-19)
(1.2186 -0.110989 0)
(1.01234 -0.0875533 -2.1267e-22)
(1.03722 -0.104332 -4.01385e-21)
(-0.162383 -0.0365255 -1.58441e-19)
(-0.201177 -0.0388444 9.15507e-20)
(1.00775 -0.0383133 0)
(0.583359 0.253566 7.87562e-20)
(1.11513 0.287928 -7.02878e-20)
(1.02265 -0.0124836 2.14458e-21)
(0.714424 -0.227217 0)
(1.43512 -0.115417 -2.34707e-20)
(1.24337 -0.156093 7.96604e-20)
(1.04218 -0.0185798 -8.18007e-21)
(-0.188589 -0.0199037 0)
(0.445137 0.215315 -5.508e-20)
(-0.161495 -0.0229985 1.67875e-19)
(-0.0325195 -0.00942507 0)
(0.313661 -0.160766 -8.54302e-20)
(-0.563256 -0.150386 2.54723e-19)
(1.21969 -0.11144 2.10637e-20)
(1.00493 -0.00553208 -2.20957e-21)
(0.911376 -0.0813436 2.6341e-20)
(1.14559 -0.1552 2.10892e-20)
(1.00296 -0.0295871 3.44196e-21)
(1.03441 -0.0731791 0)
(-0.0661844 -0.0248904 -1.95603e-19)
(1.0672 0.00459852 -1.89057e-20)
(1.21272 -0.191986 -6.10784e-20)
(-0.279938 -0.194841 0)
(0.757213 -0.634825 0)
(-0.301431 -0.017018 -1.50067e-19)
(0.863715 -0.193351 1.28578e-20)
(1.07944 -0.148469 -1.26542e-19)
(1.27905 -0.253082 -1.5726e-19)
(1.22053 -0.239551 0)
(1.00003 -0.000324177 -2.09039e-21)
(-0.148813 -0.0296357 0)
(1.00819 -0.000696669 -3.49183e-21)
(0.430659 -0.0640591 -3.22455e-20)
(1.08001 -0.408693 -1.15645e-19)
(1.00084 -0.00720474 0)
(1.27606 0.114249 2.68368e-20)
(0.989972 -0.0503974 -1.92518e-20)
(0.734558 -0.0614214 1.97645e-19)
(-0.52042 -0.184766 2.22837e-19)
(1.08243 -0.604579 0)
(1.3465 -0.40936 3.96925e-21)
(1.0336 -0.0050242 0)
(1.02448 -0.0699425 -3.31124e-21)
(-0.152189 -0.0355702 0)
(1.10021 -0.36447 2.031e-20)
(-0.169828 -0.030124 -1.20285e-19)
(1.03333 -0.00463711 0)