/*--------------------------------*- C++ -*----------------------------------*\
| =========                 |                                                 |
| \\      /  F ield         | OpenFOAM: The Open Source CFD Toolbox           |
|  \\    /   O peration     | Version:  v2012                                 |
|   \\  /    A nd           | Website:  www.openfoam.com                      |
|    \\/     M anipulation  |                                                 |
\*---------------------------------------------------------------------------*/
FoamFile
{
    version     2.0;
    format      ascii;
    class       volScalarField;
    location    "250";
    object      ddt0(k);
}
// * * * * * * * * * * * * * * * * * * * * * * * * * * * * * * * * * * * * * //

dimensions      [0 2 -3 0 0 0 0];


internalField   nonuniform List<scalar> 
18649
(
0.000731006
-1.59838e-06
2.05818e-07
-0.00190235
4.03591e-06
1.02817e-07
-0.00908808
-1.28574e-05
6.02165e-07
1.18867e-07
-1.82935e-05
-0.0116262
0.0315092
3.39765e-07
-1.19308e-07
2.23945e-06
3.60413e-08
3.88633e-06
-5.06709e-06
0.00140889
0.00320256
7.40399e-07
-0.00420203
-1.42582e-05
6.22094e-08
0.0018775
-5.67618e-07
-0.0113332
2.076e-06
-2.16978e-08
-1.89674e-07
-2.19382e-06
-3.29524e-08
-9.37518e-07
2.25029e-07
0.000383983
-1.3389e-06
2.35234e-07
-7.88159e-08
5.33982e-06
-1.06098e-06
2.53803e-05
9.17585e-06
0.00109895
-5.92533e-07
-6.69713e-09
-0.00248771
-0.00178041
-0.0109989
-1.74983e-07
-0.0114932
-5.42122e-07
0.00578947
-0.00674458
-1.96419e-08
-0.00815335
-0.00664175
9.89488e-06
0.000690897
1.59761e-07
0.00081266
2.41559e-07
2.59674e-06
-0.0012169
3.49344e-08
-0.0012002
-2.12223e-07
-0.00793563
-0.00013041
-2.57816e-05
-0.00310832
2.24624e-08
5.99801e-06
8.30775e-07
3.63317e-07
0.00263933
-5.12746e-07
2.51272e-07
8.02854e-07
-1.12053e-05
6.93688e-08
-0.00264218
-0.00141169
0.005705
-1.83849e-07
-9.83712e-08
-3.00411e-07
-7.88091e-07
-1.02723e-06
-5.69455e-08
5.41136e-07
-9.49653e-08
-2.53086e-08
-0.00709616
5.19928e-07
1.04497e-05
4.28308e-09
-9.27761e-06
7.95352e-05
-9.76548e-08
-0.00374587
1.1942e-07
7.24913e-08
-0.0154099
1.99027e-05
-2.89394e-07
-4.15814e-08
-5.3359e-07
-6.14359e-07
-6.74023e-07
0.000314266
-1.16137e-06
3.45495e-08
-8.74668e-07
-2.87595e-05
6.95561e-07
-1.48046e-08
-0.0095093
0.000754564
-3.11918e-07
0.000698958
-7.68751e-07
2.80322e-06
8.58044e-08
0.00176252
7.43311e-08
1.83081e-09
0.00248544
-6.25819e-07
-0.00928183
3.24844e-07
-0.000877939
-1.09962e-08
0.000734669
-1.38568e-06
1.12188e-08
0.000804091
-0.0067931
6.44922e-07
-5.06259e-07
-4.43908e-05
-2.36845e-07
2.86472e-08
3.52871e-09
-1.15449e-08
-0.00740321
5.23474e-08
-7.9226e-08
-0.00614925
-7.46535e-05
3.1519e-05
-7.82933e-10
0.00173029
-2.9959e-07
7.17029e-09
-1.49153e-08
-3.03357e-06
2.53881e-06
-2.39122e-08
1.293e-07
-1.32357e-07
-0.000161264
0.000725056
-3.33293e-07
0.00179168
5.78222e-06
-6.61774e-08
1.20511e-07
-7.58305e-08
1.42625e-07
2.67879e-07
9.44108e-05
4.95186e-06
-1.04229e-05
1.04679e-07
0.00271193
-0.00595158
6.05246e-07
-1.91377e-08
0.00090237
0.0038509
-5.44869e-08
2.25328e-09
0.0164172
-5.16337e-07
-2.10321e-07
-2.56419e-08
-1.95736e-07
1.63721e-06
9.567e-09
0.00135535
-9.25253e-08
-0.000345692
2.66024e-08
3.88789e-08
3.51142e-09
-4.42563e-07
-2.18025e-06
-7.88793e-07
2.0426e-09
-7.06418e-08
-1.97624e-05
-0.00863189
-1.04792e-06
3.31719e-06
1.04314e-06
-0.0108544
-0.00225812
-3.86651e-07
-0.00063823
4.42168e-08
-3.31908e-07
7.14475e-08
-0.000314792
0.00104111
-8.59908e-08
-1.07408e-06
3.98156e-08
0.00172287
-3.19704e-08
1.24574e-06
-4.54043e-07
-0.000286204
4.03177e-05
0.000527929
-0.00821929
-2.43433e-07
3.89319e-08
0.00458657
0.00483062
9.12417e-07
9.8535e-08
-0.00713006
-1.24978e-06
0.000950154
-0.000114517
-1.94501e-06
1.43033e-05
4.72568e-08
0.000808984
3.85756e-08
-0.00502407
2.25378e-07
-4.47199e-08
-1.28873e-06
-3.20537e-07
0.00089889
1.2042e-07
-0.00136196
1.56149e-06
-0.0108792
-0.00945346
-1.15817e-06
3.03738e-07
-4.56062e-07
-0.000185265
1.99177e-07
-3.83523e-09
-6.66418e-07
-1.882e-07
-2.01745e-07
-7.52204e-07
-0.000821293
1.50354e-07
3.26852e-08
-0.00265582
-0.00354922
-2.22633e-09
0.0155461
3.55504e-08
-0.00805554
-5.03646e-06
0.00463841
-0.00123758
-3.1304e-05
-5.94107e-08
3.53882e-08
0.0353512
-0.00898658
0.00161917
-1.29187e-08
1.48986e-08
0.00178823
-3.06139e-06
-0.00306194
-0.0079894
-5.22113e-08
-9.52203e-07
-8.01279e-10
-8.00903e-08
5.80457e-07
-0.0121722
-0.00674347
-2.97691e-05
-0.0090208
-2.21825e-06
0.00971767
-0.00216503
5.50146e-08
-0.00264755
-2.56461e-08
-8.10815e-07
8.62874e-08
-3.20528e-08
-2.10562e-07
9.2588e-06
-1.94481e-09
8.81219e-07
8.8206e-06
-6.98375e-07
0.00230189
2.61425e-07
-0.0204033
-1.27436e-08
-1.54974e-07
8.53369e-08
5.13074e-07
-2.05197e-10
0.000635684
0.000791926
2.05872e-08
-1.43697e-07
5.65737e-07
1.70704e-10
-2.65999e-08
-6.11172e-08
-1.74833e-08
-1.22172e-06
-0.00263797
7.3894e-07
-0.000240286
6.19607e-08
-8.32566e-08
-6.43752e-07
-2.87956e-08
6.19436e-08
0.0144343
7.1031e-07
-0.0105929
-8.48003e-07
0.00027316
-2.4637e-08
3.94905e-07
-2.73641e-07
-4.43243e-07
-4.07728e-08
-1.58636e-08
4.32581e-08
3.38343e-07
-2.8745e-06
-1.07708e-07
0.0319785
-1.05457e-07
-1.45568e-07
-2.98247e-05
-0.000263739
1.23727e-07
0.00164967
-0.000162515
0.00161533
-0.00781746
9.17714e-08
-0.00842701
2.34269e-08
-0.00109408
0.000164396
3.03061e-07
-1.0593e-06
-5.06553e-07
-2.53877e-07
-1.51949e-07
4.39774e-09
7.78247e-08
-0.00232336
-1.51031e-06
0.00097909
-0.000359497
0.00133432
-0.000102392
3.74271e-07
1.99057e-09
-1.38182e-07
1.99928e-07
0.000650662
-7.45117e-12
1.01532e-08
-7.41494e-05
-0.00625597
-2.46384e-07
-1.72532e-07
-0.0010679
3.07574e-06
5.28804e-08
0.0021557
2.7044e-07
-2.99892e-07
0.0011753
1.62398e-06
1.34806e-08
0.0128453
-0.00197427
1.71761e-06
1.92944e-07
-1.27824e-07
-0.00457638
0.0137394
8.48706e-08
-0.00626117
6.57308e-08
1.05468e-07
-0.00884474
-7.88799e-09
-0.00296361
1.1373e-06
-6.17783e-05
-0.000731467
0.0307067
0.000803261
5.26332e-08
0.000558823
1.08311e-07
0.0332262
4.93688e-06
-0.000712848
-0.0055732
1.48969e-08
7.07613e-08
-0.000857985
0.00147751
6.16908e-07
-0.00192158
-1.87808e-07
-5.6197e-07
4.51121e-08
-0.00834605
0.0319883
6.83743e-05
-1.39885e-07
2.6416e-07
-7.99247e-05
0.00156758
-3.5427e-07
-1.53028e-06
-1.76137e-07
4.01288e-08
0.00153762
0.00287908
-3.50202e-08
-3.67628e-08
-9.77509e-05
5.60006e-08
0.000580449
-1.81871e-07
4.47151e-05
3.07329e-06
-0.000901533
-7.9484e-07
-0.00701092
-0.000319321
-5.89073e-07
5.21072e-06
-5.93532e-07
4.06884e-06
4.61345e-08
2.55601e-07
-2.51475e-06
-8.51444e-07
-5.81108e-08
1.21428e-07
0.00152234
6.32593e-08
-2.28758e-08
0.0290123
3.06055e-08
0.000596926
2.82105e-07
4.35107e-07
-1.81336e-08
8.82769e-07
2.57468e-07
2.63573e-09
-3.29135e-05
-5.57788e-08
3.91255e-07
-1.05366e-07
1.92917e-06
0.00120828
2.93656e-09
-0.00522251
-3.97392e-08
-0.00864651
0.00969723
0.00836198
0.00160178
1.1426e-06
-3.99152e-06
-2.41691e-07
0.000867576
2.27344e-07
-2.15462e-05
8.09494e-07
2.66133e-06
-3.25651e-05
-5.8557e-07
1.82859e-10
6.94861e-05
4.91068e-05
-0.00837985
-8.73859e-08
0.00121157
-5.10288e-07
-1.38688e-05
-1.43562e-07
6.00326e-06
0.00187639
1.9979e-08
-3.41006e-08
0.00910731
6.38234e-08
-1.91871e-05
4.2009e-09
-1.47568e-07
9.64324e-08
5.40566e-07
3.02303e-08
-2.54931e-05
-5.56239e-09
-0.00775721
-7.01334e-08
0.00147829
-0.00699557
-0.00654427
0.00172643
-1.16838e-07
0.000330394
1.3563e-06
-0.00208183
-0.000200335
-3.24428e-07
4.61088e-07
-8.17762e-06
4.02254e-07
-0.000585387
4.04338e-08
-1.31242e-08
2.52017e-07
-1.58974e-08
-1.30836e-08
-9.90543e-08
0.00512646
6.90595e-08
-1.38874e-07
-3.14331e-07
-7.60727e-07
-5.55288e-05
-0.00641798
1.98836e-07
-4.22124e-07
-8.18044e-05
2.01275e-06
-1.27698e-07
-0.000188268
0.00752799
0.00467232
0.000231054
4.24533e-07
-4.45079e-07
6.75353e-07
6.90134e-07
3.86841e-07
-0.00697253
7.80807e-08
4.39846e-07
-6.04766e-08
0.00231685
-0.000895593
-0.00362632
-2.68142e-06
1.9945e-07
-0.00439667
-0.00102717
-0.00308872
2.04423e-09
3.15965e-06
0.00219376
-3.50198e-08
0.00776447
-8.22691e-08
-7.29579e-07
-8.6634e-09
-0.000114925
0.000227731
1.25028e-07
-1.87992e-07
-6.14362e-07
-2.43077e-06
-0.000279785
0.000122068
1.41616e-07
-0.000900609
9.21077e-07
-0.0223062
-1.76415e-07
0.0045181
1.0357e-07
4.85684e-07
-1.31066e-07
-0.00114795
6.9237e-07
5.42078e-06
2.90504e-06
0.00190898
5.53698e-07
-0.00315777
-2.29994e-07
-2.09908e-06
-0.00582651
8.95664e-08
-3.82503e-08
5.19767e-06
1.37338e-07
9.2915e-06
-3.50177e-08
3.8444e-07
-4.99655e-05
-0.00145444
0.00160611
2.27019e-10
0.000597445
-1.8134e-07
6.72861e-05
6.73597e-07
-4.83489e-08
-1.7598e-07
-2.10382e-07
-0.00167098
4.39858e-08
-6.72286e-06
-2.15136e-06
-5.54099e-07
3.84012e-07
-9.34495e-09
-3.71254e-07
-0.00209995
1.96124e-07
3.44627e-07
5.98259e-08
0.00696774
4.62829e-09
-5.014e-07
-1.57108e-07
6.10066e-08
0.000167671
2.63337e-05
-4.84558e-05
4.5347e-07
0.00628764
9.34076e-07
-1.06419e-07
1.6204e-07
0.000162983
4.61965e-07
-2.93638e-07
-0.00317659
-0.00286166
-2.18484e-07
0.00191518
0.00560788
-5.33412e-08
2.30808e-08
-4.96956e-06
6.54174e-09
8.49894e-08
0.00166168
-0.00343541
-0.00021966
-0.00384552
2.09999e-07
-0.00961552
1.62462e-07
8.21469e-08
-1.05412e-07
-0.00135601
1.06157e-07
8.4473e-08
0.000950245
0.00157664
1.77716e-07
-0.0139811
-1.64374e-07
-2.33775e-08
-0.00605585
4.81328e-07
-0.000189781
-2.77352e-07
5.12749e-06
3.96023e-08
-2.97162e-07
9.6373e-09
-2.96899e-05
2.09161e-07
-0.00321987
0.00327505
1.06384e-05
0.000709781
0.00155729
-5.51596e-07
0.000964417
-0.0112686
-9.07541e-06
1.58653e-07
-1.37664e-07
-0.00220593
-0.00271177
-0.0126907
-1.97936e-05
-1.56616e-06
-6.55949e-08
-6.38113e-07
-0.0050149
-3.4514e-05
2.70725e-07
-7.71581e-07
-0.00627089
-0.0083387
-0.000374669
5.95939e-06
-1.86469e-07
-1.61037e-06
0.000555016
-0.00211177
2.36008e-08
-3.39465e-07
3.88624e-08
-0.00150055
-1.88549e-07
-0.00692829
-4.28008e-07
-1.60381e-07
3.61891e-08
0.00186324
2.14176e-07
1.90512e-08
9.58291e-08
-4.37557e-08
4.58447e-07
0.000203642
-3.60118e-06
-0.00710255
-0.00751503
0.0017322
0.00687535
3.27742e-10
-0.00593539
-6.81572e-07
8.4849e-07
-0.00345466
-1.68165e-08
4.08257e-07
-2.47486e-07
-0.000245021
-0.00892796
8.86917e-05
9.32888e-08
-1.3434e-06
-8.37587e-08
-9.96924e-08
7.15741e-08
-1.30849e-06
-3.46636e-07
0.00728496
-1.15656e-07
8.05167e-08
9.25514e-06
0.00257131
-1.33031e-06
8.91173e-08
-0.0101771
0.00172516
2.72462e-07
-0.00039386
-0.00102572
9.48034e-07
-1.26139e-06
-8.50839e-08
-2.24713e-07
-7.23219e-06
0.000489266
0.0280706
-2.50856e-09
-0.0185365
-0.00211858
0.000925264
-1.53145e-07
0.00162791
3.23538e-05
-0.00856003
-2.06086e-08
0.00618575
-2.77238e-07
0.00154107
-0.00498243
-0.00252955
-5.88453e-08
-2.25524e-08
3.60949e-07
3.5006e-05
3.91476e-09
5.61112e-06
-9.16077e-07
-0.00010733
6.50102e-07
-0.00803765
0.00405989
-1.65836e-07
-0.000497573
6.22077e-07
-2.30987e-05
-1.83542e-06
-0.00962773
2.82299e-07
1.94192e-06
1.30383e-06
0.00012331
-0.000627298
2.33605e-07
-8.28746e-05
-0.0129036
2.85674e-07
0.00016177
-2.42691e-06
2.55901e-08
-0.0081879
0.0134959
-2.07761e-08
6.13552e-06
0.00165826
1.99404e-07
9.1165e-05
-5.87887e-08
2.96335e-07
2.97172e-07
-2.76593e-07
8.16152e-08
2.27989e-08
0.008053
6.128e-09
6.37694e-07
-4.01816e-07
-0.00178031
-7.15541e-07
3.04541e-07
-1.09413e-07
-7.44488e-05
-5.73334e-08
0.000163624
1.6701e-05
-6.21652e-07
-0.00409996
-1.59251e-06
2.75862e-07
0.00662459
0.000238759
-5.34458e-07
1.04687e-07
1.06193e-06
2.48579e-06
-0.00226916
4.99641e-07
1.91681e-07
5.77915e-07
4.20399e-09
-0.010579
2.77592e-06
-4.97778e-07
-1.30683e-07
8.83392e-07
-1.64997e-06
-4.43343e-05
1.89985e-07
4.48746e-08
-4.71864e-06
2.18027e-07
-0.00661369
-0.0107191
-1.13375e-06
-0.0105592
-9.0415e-08
0.000737774
-9.80712e-08
-6.46793e-06
0.000107884
-0.000266837
3.36042e-06
-4.43596e-09
-5.73579e-06
5.11416e-07
-0.00303846
0.00668339
0.0123943
0.000344073
3.69426e-06
-2.2628e-06
-1.38031e-06
0.00162588
-0.0060569
1.38819e-07
0.000177503
0.0312353
2.86336e-08
3.00226e-07
0.00853177
-0.00958797
-9.35939e-08
-0.00270563
-0.00495503
-0.000631198
-0.00112344
-0.00352048
-0.0110304
4.82697e-06
-2.13651e-08
-5.00199e-07
6.03857e-06
2.44534e-07
-6.99979e-09
0.00213862
2.75282e-07
-3.64793e-06
-0.0113801
-6.54343e-06
-0.00316154
-3.36999e-07
-0.00562852
1.71587e-05
3.18532e-06
1.24323e-10
-0.000357275
-9.39357e-08
-0.00706093
-0.0184251
-8.74423e-09
6.64402e-06
1.4749e-07
-0.000241703
0.00593368
2.7263e-05
-0.010584
-2.87146e-08
-5.42173e-08
0.00167811
-9.79714e-06
9.74673e-05
-3.06027e-08
8.49281e-08
-3.87157e-08
-9.94024e-07
1.71e-07
1.72838e-07
9.98694e-08
-3.68608e-07
-3.9906e-07
7.5225e-08
-2.20167e-05
1.26876e-07
1.23722e-06
2.62715e-07
1.90241e-07
-0.00306956
-0.00632405
0.000470709
0.000860416
-0.00164971
-7.08773e-06
-0.00213772
3.63945e-07
7.22712e-07
0.00185821
2.92416e-07
-6.67816e-08
-1.22583e-07
-2.74198e-07
0.000100948
-3.11017e-06
0.0156304
2.07744e-06
5.12518e-07
0.00017892
-0.0110673
-0.0241013
3.84201e-06
-0.00582719
-1.88703e-06
3.22102e-07
5.4989e-08
6.31527e-10
-3.16454e-08
-3.42074e-06
0.00157047
1.39089e-06
0.00257501
0.0008412
0.000839804
-1.79846e-06
2.39861e-07
2.14864e-06
-4.58524e-07
5.13622e-07
-0.0104748
8.14142e-07
-0.0041
0.00618444
-1.46035e-06
-4.10054e-05
2.54596e-08
-2.04632e-07
1.17094e-07
-0.00217452
-7.56236e-08
-5.47851e-08
-2.59409e-07
-2.32777e-07
2.0401e-07
-0.00197616
1.00868e-07
4.61448e-11
1.29815e-07
-1.02026e-05
5.62271e-07
6.61523e-07
0.00035647
5.52293e-08
0.0024702
-5.27361e-07
3.2798e-07
-4.79327e-08
-0.000343915
9.61627e-08
-2.47636e-05
-0.000353432
-0.00855713
1.88974e-08
-0.0058797
2.80321e-07
9.78624e-08
-3.64359e-07
3.42407e-07
4.68595e-06
-3.51568e-07
-1.72042e-07
-0.00517453
9.50666e-05
3.64182e-07
0.00116637
-0.0018562
3.09764e-07
-1.83787e-07
1.37422e-06
1.18633e-09
1.12518e-07
-0.00572312
5.95004e-08
1.70486e-07
1.32374e-07
-0.00267303
-0.000765085
-1.92481e-07
-0.00384562
-5.90786e-07
-0.00345651
0.00251304
1.67246e-07
1.27234e-08
-9.31191e-06
2.63523e-07
-0.00665066
0.00204007
-0.00267258
2.22809e-07
-2.64747e-06
-0.00405628
-5.5623e-09
0.00109486
0.00133951
-0.00469853
8.84002e-08
-1.58096e-08
-0.00402495
-1.12453e-06
2.54375e-08
3.59013e-07
-1.40765e-07
-1.8047e-07
-4.82834e-07
7.46021e-09
0.00049125
-9.29063e-07
-1.83687e-08
-0.000276903
-1.65956e-08
0.00680879
6.54483e-06
0.015936
-2.9278e-07
-0.0855606
9.31497e-07
-1.0503e-07
0.00012643
1.00891e-07
-0.00215358
-0.00708027
-3.17975e-07
-0.00808436
-2.6158e-08
2.25835e-07
0.000678909
5.98243e-08
2.04486e-06
2.66619e-06
-7.4569e-09
0.000653772
8.99442e-08
4.63446e-06
-2.14953e-08
-3.24306e-07
2.61953e-08
-1.80593e-07
-2.32969e-08
8.71747e-08
-1.31499e-07
1.80882e-08
-1.73851e-07
-0.00903937
-1.37924e-07
-0.00108809
0.000705952
2.25806e-07
-0.00220865
1.47777e-07
-5.63873e-09
-0.00202431
-0.00425282
1.52315e-06
0.0106773
-3.43697e-07
-2.29139e-06
1.5861e-06
3.93167e-07
1.20381e-06
-9.29028e-08
5.41698e-06
-0.0138169
-7.54778e-06
1.02792e-07
-1.05509e-07
-0.0421583
0.00197037
7.42332e-08
-6.128e-05
7.0298e-07
-2.29404e-05
-0.0108635
0.00217692
0.0177477
0.011201
-1.94481e-06
0.00191697
-0.000736623
-2.76607e-07
1.27031e-07
-2.01676e-08
-0.00666312
-1.16303e-07
9.54882e-06
0.0164019
-3.03255e-07
-1.09117e-07
-1.24746e-07
0.00108619
0.00100958
-6.60426e-07
0.00180757
2.047e-07
-2.38276e-07
0.000624731
7.37155e-08
-3.78051e-08
3.03502e-05
-2.52905e-07
5.41645e-07
-0.000393096
-0.00551037
-1.01006e-06
-8.73618e-09
-0.00728168
1.98798e-05
-0.0123295
1.90937e-07
-0.00459994
-1.02553e-05
0.000295081
-2.5441e-08
-0.00067088
-1.45382e-08
-1.95505e-07
-1.50303e-07
-4.33572e-08
2.3096e-06
-5.25651e-08
2.94382e-08
-1.14366e-10
-7.37076e-07
-0.00422315
0.0154242
-4.44207e-08
-0.00805096
1.02864e-06
0.0107073
-0.000590568
-0.000457091
2.44827e-08
-3.36946e-07
4.76423e-05
-2.59443e-07
1.1699e-09
1.2832e-08
-1.5385e-07
2.53118e-05
-1.4867e-07
-0.00155382
-0.00246976
-7.11747e-09
-2.84514e-07
1.79224e-07
-1.06721e-08
-1.23366e-05
-0.00110556
7.32738e-08
0.000286021
-0.00567068
8.6756e-08
0.000430406
-1.60666e-07
-0.00784142
2.41146e-07
3.20578e-08
0.00190282
0.0033697
-3.2552e-08
0.00218088
1.02613e-07
-0.00804875
3.7066e-07
2.2208e-07
0.00157759
-3.1796e-08
-6.48409e-05
0.00163426
1.79355e-07
1.36316e-06
-8.11458e-07
0.000548758
-0.00546347
1.98701e-07
0.00499999
4.77709e-08
7.27253e-08
-1.68122e-07
-5.66263e-08
0.00211792
-6.04624e-07
-0.0122596
-0.00139178
2.25156e-07
0.00754383
-8.72248e-08
0.00201175
1.65709e-07
1.60262e-05
1.24121e-07
-4.66184e-09
2.34842e-06
-0.00175024
-0.00178104
7.36409e-07
2.03204e-05
0.000837954
7.28455e-07
6.22149e-08
-0.00552667
-0.0134732
0.00130299
-0.00726474
-8.78491e-06
-4.66639e-06
8.66703e-08
1.10247e-07
-0.00829518
0.00108997
-2.35894e-08
7.34473e-06
0.000964732
-5.52935e-06
-0.00106912
-1.79792e-06
0.00510187
0.00046381
1.62566e-07
0.00108743
6.88668e-07
-1.17275e-06
-0.00592199
-0.030102
-0.00532508
-1.54286e-07
0.00187501
-0.00783768
-3.34061e-07
2.12663e-07
3.75451e-08
-5.93732e-08
-2.88523e-09
7.26205e-08
1.25869e-05
-0.000649927
-0.000586051
3.18705e-07
0.00630675
-0.00422033
5.03703e-07
2.52497e-05
1.26675e-08
-0.0016629
-4.98552e-05
4.03966e-07
-0.000306235
-5.03918e-06
1.11817e-07
7.26184e-08
-0.000773775
-3.2553e-08
0.000769366
-6.63559e-07
1.05425e-08
-1.7494e-07
0.00223261
-6.49141e-05
1.13418e-07
0.000198798
0.00150716
0.00429362
-0.0068509
2.94952e-09
-4.50927e-05
0.000486828
4.41749e-05
7.12886e-08
5.56925e-07
0.00017048
8.97198e-05
2.16073e-07
1.36241e-08
0.00292516
4.4101e-05
-9.90477e-07
0.00618349
0.00171487
-0.000920814
-9.3954e-08
1.4863e-07
-1.59661e-07
1.52374e-05
0.000354056
1.89253e-07
2.59286e-07
1.05665e-05
-9.35703e-06
-3.87467e-06
-1.20807e-07
7.08371e-08
1.29125e-07
1.27267e-06
5.59872e-08
1.00673e-06
4.99016e-08
-2.55216e-07
-0.0125737
-0.00114111
-0.00753288
1.46466e-07
-5.03932e-07
0.00213805
-2.93543e-07
-1.61755e-08
-6.06599e-08
-9.61494e-08
-0.000314118
-3.0278e-08
1.87756e-07
3.33728e-07
5.13247e-10
2.96952e-08
0.00064904
2.86939e-08
-1.43815e-06
-0.00167207
2.76003e-07
-1.21997e-09
-8.72678e-08
2.24064e-05
1.4432e-05
-6.78875e-10
-1.99378e-08
-6.17968e-07
4.64651e-05
4.31235e-08
-9.32333e-07
2.27661e-08
7.12888e-05
3.09937e-08
1.884e-06
5.89415e-08
-0.00186163
0.002891
-8.00096e-06
-1.06282e-11
-0.00654502
-7.06163e-07
-5.86024e-09
6.3664e-07
1.59213e-08
-3.92927e-08
2.15009e-05
5.23199e-07
-8.73183e-07
1.79953e-07
-5.80163e-08
1.6967e-08
7.83028e-06
5.71239e-08
-0.0141286
0.00345299
-6.69279e-07
3.64447e-07
-3.58873e-07
-2.50913e-05
4.28307e-09
-7.58806e-09
-2.68295e-07
7.5386e-06
3.20457e-07
8.52906e-07
-0.00278247
-2.15982e-09
-3.8877e-06
5.84817e-08
3.38835e-07
2.84136e-08
1.85389e-06
-7.61558e-08
3.17173e-08
1.039e-08
-7.70564e-07
-1.11694e-07
-0.00259169
5.58925e-08
-0.00128142
-0.000241026
-2.8079e-08
0.00315134
-0.000140553
0.000341562
-0.000485234
-7.71014e-07
2.14705e-07
2.24258e-05
2.73601e-05
5.73673e-07
1.42447e-08
6.53749e-07
-0.00707663
1.54442e-07
-1.45014e-08
-4.15714e-08
4.52568e-09
-3.6898e-07
2.39097e-07
2.86059e-07
-9.44088e-08
2.08463e-08
6.13977e-07
1.54366e-06
-7.69399e-07
-0.00211444
-7.29513e-06
8.73426e-08
2.56155e-07
-2.2927e-07
1.27407e-06
-1.51008e-08
-0.00311387
1.3703e-07
-6.72144e-07
0.00322473
2.47706e-06
-3.39658e-08
-8.4797e-08
7.76223e-08
-4.56663e-08
1.09345e-08
-7.01497e-08
8.11097e-08
-0.00121294
-6.97459e-07
-0.000564443
-2.13516e-06
-1.36362e-07
1.876e-07
-1.70399e-06
2.1099e-07
-4.00302e-05
2.70804e-07
0.0119161
1.25143e-07
-5.94359e-08
-7.13832e-08
2.23218e-05
-0.00924255
-0.000693293
-0.0341654
-3.30039e-08
1.24112e-06
-0.00274522
0.00195994
-0.0021624
-0.0213882
1.26605e-09
-1.51734e-07
-7.06631e-08
-7.97216e-07
-1.68052e-08
1.3839e-07
8.25688e-09
-2.3117e-06
-0.00458378
-1.04197e-07
-8.60719e-08
6.25181e-06
5.88223e-07
5.57984e-07
1.49673e-08
-0.00991585
-1.6521e-06
-4.73776e-08
1.04273e-05
7.32879e-07
-3.48099e-06
-4.98209e-05
7.61123e-09
4.45963e-06
4.56788e-08
-7.94817e-06
4.75016e-07
0.000109691
2.10937e-07
-0.00174445
-1.72838e-08
3.65362e-07
3.46493e-07
-6.54213e-10
1.75488e-07
-2.56569e-08
0.00118026
-0.00962903
3.24714e-09
0.00342549
-0.00173194
-9.78006e-08
2.03227e-08
-0.0115394
4.87336e-06
-1.71965e-06
-0.00325547
7.73158e-07
2.45235e-08
1.62523e-07
0.000494867
-7.28451e-08
-2.95482e-06
-0.000695446
0.0123838
2.20151e-07
-5.7627e-07
-3.01921e-05
-1.85844e-06
1.60953e-06
-2.37281e-06
4.20616e-07
0.00205235
-7.15302e-11
-0.011395
0.000394394
-0.0054342
-2.40171e-07
-0.00482468
-5.88966e-08
1.55998e-05
8.0561e-08
-6.23558e-06
3.54337e-08
1.1215e-05
6.29132e-05
3.36251e-08
-0.00181024
-0.00252539
6.06039e-08
0.0014068
1.00927e-07
-9.69165e-07
-9.199e-10
5.19501e-06
1.0908e-07
-0.0044448
-6.97946e-05
-0.00672687
3.95004e-09
-2.33464e-07
7.4512e-07
0.00174009
8.90546e-08
2.72075e-06
3.19977e-07
-0.00138244
2.24893e-07
-1.14816e-05
0.00207552
1.90134e-07
-0.00153536
2.72941e-07
-3.52169e-06
-4.30499e-08
-3.63416e-07
-1.20956e-07
-1.04049e-07
-1.03885e-06
3.1544e-07
-2.86185e-08
5.63387e-06
1.58523e-08
0.0169178
4.60035e-06
2.04693e-06
0.0015135
-2.46895e-07
0.00178481
0.00173779
-0.0134752
0.00249325
3.36684e-07
7.50333e-06
-0.0443643
-7.21624e-08
-6.32074e-08
-1.54601e-06
-5.13912e-09
-5.77064e-08
-1.66401e-05
-9.41003e-07
3.65024e-06
-6.92943e-06
0.000968936
-4.88432e-08
-6.74237e-07
-0.00243234
-0.00398611
0.00140801
-6.79699e-08
-1.42549e-07
-4.08058e-08
0.00294435
-6.96571e-06
-1.21647e-05
-0.00920719
1.80057e-06
5.18706e-08
-5.77496e-08
-1.37966e-06
-1.06002e-06
-0.00670973
-1.11909e-06
2.89853e-08
0.00568583
1.01511e-06
1.31255e-05
1.15273e-06
0.000644886
-4.97242e-07
-2.18711e-08
-3.64309e-08
7.63307e-07
-0.00207469
6.37974e-08
3.27514e-08
-5.11344e-05
-6.45267e-07
1.67106e-08
1.22343e-08
-1.00554e-06
-2.75634e-05
-5.00098e-06
6.06324e-06
-1.17783e-07
-2.23307e-07
-1.54705e-06
-5.50045e-06
-0.00153347
2.04467e-05
-8.68039e-06
4.1097e-09
-3.86461e-08
-0.00628105
-1.00417e-08
2.20428e-08
3.65544e-08
-1.10521e-06
1.14414e-06
-6.43984e-07
-0.000222019
0.00585033
-3.54034e-07
-0.00656797
0.0041863
2.49897e-08
0.000638119
7.38275e-06
2.67832e-05
-4.3417e-08
-1.21388e-08
-0.00269021
5.58867e-08
-1.75208e-07
3.63173e-05
-1.33884e-08
2.5043e-07
-0.00962049
1.09533e-05
-2.17656e-06
-1.99707e-08
6.51901e-08
-0.0126959
-0.000262236
4.02535e-07
3.07528e-07
3.63902e-07
0.0049255
-2.95942e-05
2.39415e-08
9.26338e-10
-5.80059e-09
-0.000789385
-8.46295e-05
3.08008e-07
3.47542e-08
-2.16879e-08
1.73893e-07
2.16856e-06
0.000651755
-0.000554024
-1.35671e-07
-1.20499e-07
-0.00754737
1.09506e-06
-3.32194e-07
-2.28951e-07
1.34807e-07
-1.25757e-07
0.00204489
-8.12259e-08
-4.05699e-05
0.0319044
-1.04361e-07
-1.62085e-07
5.63901e-09
-0.0107929
-3.03921e-08
-0.00180218
-0.000152141
-4.66955e-05
-6.88527e-11
4.84435e-06
-0.000267012
3.10861e-08
-0.000898362
-0.000852415
-0.00532368
-2.27036e-07
2.37697e-07
1.77354e-05
-2.21593e-07
-0.00120823
-0.000362421
-0.00522718
6.73722e-08
-1.7351e-07
0.0111301
0.00196835
4.69771e-07
-2.18657e-07
-3.57055e-06
-2.07385e-08
3.80785e-05
-0.00695425
-0.00171817
7.36423e-06
-1.04721e-06
-4.97747e-10
-0.00347963
-0.00780442
2.17873e-07
0.000677999
2.0131e-05
-0.00448103
5.06578e-07
5.86206e-09
-0.000468356
0.00198445
-7.51563e-08
2.22528e-05
-7.19163e-07
6.05789e-06
4.97389e-06
1.00967e-06
-1.46652e-08
-1.05092e-07
6.70296e-08
-0.00559226
-0.00302449
-0.00642232
-8.84317e-07
0.00160649
9.54109e-10
-0.000123414
1.56438e-07
0.000517157
-0.0127679
-1.22658e-08
1.34327e-07
9.74418e-08
1.50436e-07
2.8233e-07
-2.45239e-05
0.000520256
9.40862e-08
-0.000124032
-2.28388e-07
-4.79153e-07
-0.00662578
-0.00622178
1.71561e-06
-2.76109e-06
-0.000154706
-0.0011787
7.97076e-05
2.51694e-08
5.71175e-08
1.81301e-07
3.74075e-08
-7.10569e-08
0.00679098
6.74282e-08
-1.47989e-07
4.87852e-08
-1.83899e-06
-2.16731e-07
7.9656e-06
-2.06494e-07
-2.49863e-08
-0.0029046
-1.04423e-08
-1.34877e-06
-1.18361e-07
0.00168031
8.62958e-09
-1.23995e-07
-8.36368e-07
-2.55252e-07
0.000949013
-2.37258e-06
1.74336e-07
9.37633e-08
-6.93581e-06
3.04264e-08
8.10923e-09
-0.0112139
7.322e-05
-0.0266831
7.14299e-07
0.00198378
0.00112324
3.34413e-07
-5.29134e-07
-0.0109659
3.08368e-08
-3.77985e-07
-2.09922e-07
0.00189871
0.000140145
-3.7543e-07
-3.19595e-07
0.00771433
-5.44944e-07
-6.11887e-08
1.94128e-07
-0.000838427
2.2159e-08
-0.0108726
2.92431e-09
9.48837e-06
0.000428496
-1.21128e-07
0.00178174
-1.46502e-05
-6.98285e-05
-5.04818e-06
1.33691e-07
-4.74038e-07
2.66397e-06
2.90651e-07
-0.0067304
-0.0525465
-2.45734e-07
-1.79828e-09
1.97717e-06
2.54522e-07
-0.000108714
0.000615117
0.00327766
2.65529e-07
-2.45045e-08
-0.00195056
-1.44701e-08
2.32741e-06
-2.40305e-06
5.1504e-05
-0.0095242
-3.73259e-05
2.33213e-07
-3.45701e-06
3.86611e-05
5.08396e-06
1.66385e-06
-1.68619e-07
2.34742e-06
2.75421e-07
-0.00239603
6.29798e-07
-0.00400507
4.70672e-06
1.03889e-07
0.000108625
-4.2035e-07
-6.69788e-09
-7.14609e-07
1.44875e-07
0.00124302
1.45931e-07
3.71229e-07
2.75077e-07
-0.00413031
-2.30098e-08
0.00197109
-0.000336157
2.45052e-07
-2.65729e-08
0.00228352
2.61732e-07
0.00510438
-0.000461168
0.00122192
-2.83225e-06
0.00197138
0.00448655
2.04777e-07
1.22937e-07
-5.94659e-07
-2.74693e-08
-0.00473327
-3.07754e-07
1.03744e-05
2.4442e-06
-3.36243e-06
0.000212201
3.27046e-06
1.67668e-07
1.9449e-08
-0.0110997
8.97054e-06
-0.009615
-0.00084856
8.73119e-07
0.00204714
-9.7619e-09
0.00164234
-1.58793e-05
0.000371942
-1.20482e-06
0.000274002
0.00290084
0.000616771
3.2361e-07
-1.01178e-06
-1.08766e-06
1.40671e-08
-1.76097e-06
2.88721e-08
-1.92815e-07
-0.00346062
-3.05375e-09
-4.74793e-05
0.000112742
0.00130209
-4.2063e-06
-5.18263e-07
-6.95366e-07
1.9265e-07
3.50209e-07
0.000146165
0.00146648
-7.06171e-06
-3.25291e-08
-0.00889853
-6.88663e-05
6.47543e-07
5.21473e-06
-0.00858934
-4.04447e-08
-5.63979e-08
-0.0038844
-0.00560473
1.16161e-07
-1.5391e-07
-4.10383e-06
-5.82149e-08
0.00140206
0.000456608
-4.67079e-07
1.97585e-08
-0.00784933
4.25933e-08
1.05128e-07
-7.47247e-07
-0.0123649
4.0605e-06
-3.4651e-07
1.69391e-07
4.36958e-06
-1.99032e-05
-5.10117e-08
0.00181107
-3.35846e-07
-0.00582797
-3.54757e-06
0.00196402
-0.000126374
-0.0066397
0.000225699
7.36334e-07
8.95975e-08
0.00390203
-0.00053255
-0.00175623
-1.89806e-06
1.49836e-07
9.86628e-08
-3.78454e-08
2.16142e-07
-0.000906424
-0.00159357
0.000138225
7.45221e-08
-3.01894e-07
2.65684e-08
1.61594e-07
0.00141825
-0.00856944
9.81343e-09
-0.00901742
0.00372171
-0.000960269
1.19193e-07
-0.00800133
2.81335e-07
-2.05013e-07
0.00618007
2.32088e-08
-1.96574e-07
-1.29205e-07
-0.00902626
-0.000812562
4.9376e-08
-9.18013e-07
-0.00615186
1.90487e-08
1.9263e-06
2.81847e-07
1.10691e-07
-0.00728077
0.000743871
-8.19274e-08
-0.00111243
0.000314432
3.16125e-10
0.00223404
0.00126619
3.54031e-06
3.23979e-07
-1.09783e-06
-0.0104108
-2.36778e-07
2.20172e-08
1.95183e-07
-5.85267e-06
-4.47169e-07
-0.00131848
-0.0014781
-2.71213e-07
-5.57981e-07
0.0111263
-0.00708021
0.0070696
-1.88314e-09
2.48388e-06
3.93055e-08
-0.000797028
-0.000141504
-0.0199056
4.39904e-08
2.66713e-11
-3.36702e-08
-3.33898e-08
-0.00955135
-1.13524e-07
1.21576e-07
0.0012258
-1.04822e-08
8.80671e-08
2.61218e-07
-0.0102728
0.011781
0.000108337
-6.59853e-08
-0.00865557
1.73133e-08
5.27648e-08
-1.63351e-07
-0.00187702
0.0100411
0.00117756
-1.08088e-06
-0.00208715
0.00753141
-3.89588e-08
4.37193e-05
-1.52511e-08
2.60947e-07
5.40627e-08
8.01752e-08
2.01575e-07
6.73677e-08
2.65608e-06
-0.00554151
1.03695e-07
-2.62392e-09
-2.60148e-07
4.65536e-06
1.70333e-05
-5.65142e-08
-1.23075e-07
1.91677e-07
0.0366993
2.96448e-08
2.76253e-08
2.58214e-07
1.97102e-07
3.87669e-06
4.73105e-07
0.0116814
-0.00409563
-2.03552e-07
-0.00188831
3.77149e-08
-3.23618e-06
0.00191118
-1.39423e-07
-0.000101508
0.000194538
-1.15441e-06
-1.16322e-07
-6.44898e-08
5.48159e-05
-0.00841234
1.52634e-07
-6.71748e-08
-5.70336e-07
-0.00139442
-1.17256e-07
-0.00477941
8.80419e-08
1.39232e-07
1.01262e-07
-0.000757248
3.08037e-07
1.41505e-08
6.94015e-08
1.45321e-06
-3.56206e-06
-1.69568e-07
-0.000117482
-0.00457726
-4.47244e-08
-0.00573202
2.36846e-07
6.48849e-06
0.0297359
-3.29274e-06
-0.00574778
5.04868e-05
9.56291e-07
-1.57591e-07
-4.51795e-09
5.82575e-05
-0.00498349
-1.122e-06
0.000188114
-0.00161424
2.11751e-07
6.03148e-08
0.00125861
5.91509e-05
0.0341153
0.000442093
2.01691e-07
0.00144065
8.53816e-09
2.87451e-07
7.83354e-08
-9.80288e-07
-6.43241e-08
-1.31719e-06
5.70993e-08
-1.36119e-09
4.83876e-07
-4.95608e-08
0.00120889
1.26594e-07
-3.28489e-07
1.92167e-07
-2.5437e-07
0.0222153
-0.000866551
0.0114857
-3.14798e-08
-5.4567e-06
-1.50293e-06
-1.88435e-07
5.38219e-09
-2.36006e-06
2.73777e-06
7.50884e-06
-0.00241068
-0.000920486
-1.7271e-07
0.000180407
5.45364e-08
-0.00096384
1.95392e-07
3.68779e-07
-0.00124997
1.64406e-06
0.000736261
-2.80528e-07
-0.00198133
0.000747927
3.18523e-07
-0.00480464
-4.13512e-07
-0.0113395
3.96464e-08
3.76748e-08
-4.87314e-08
0.00695959
2.07169e-05
-2.23792e-07
2.0148e-07
-1.71699e-07
1.92369e-07
-4.18397e-07
0.00252687
-0.000237708
-1.55384e-07
-3.99814e-05
-4.97683e-08
4.63192e-06
1.2894e-05
-0.00907029
6.98199e-08
6.46227e-05
4.61287e-08
-0.00820294
0.00298826
9.05467e-07
-3.70421e-06
1.32317e-06
-5.17244e-06
0.000143294
-0.00500805
1.99606e-07
5.52359e-07
-8.52343e-07
8.04076e-07
-3.89124e-07
-0.00258584
8.72407e-07
3.37074e-06
4.81527e-08
-9.62122e-08
6.31059e-07
3.10512e-08
4.04827e-08
-2.3198e-07
0.00186396
-2.94813e-08
-1.52912e-06
4.898e-06
-5.3554e-05
5.84887e-05
-0.00908244
-1.98781e-06
-3.05217e-07
3.98674e-07
0.00140128
-2.69775e-07
-3.01257e-09
1.58683e-08
3.96309e-08
4.23745e-07
-1.62606e-07
2.00971e-07
-6.67946e-06
9.06082e-07
-2.18463e-06
0.0148111
-3.86786e-07
0.00215685
1.07536e-07
-0.00286923
6.49256e-06
-4.45848e-07
-1.99968e-07
-1.66037e-06
-0.00875858
-1.99141e-08
-9.40495e-07
-0.00691806
-2.16105e-06
-1.03228e-06
2.88129e-05
0.0038026
2.0437e-08
-1.66719e-07
0.00175967
-0.00120095
-0.00695898
-1.0837e-06
9.48933e-08
-0.0013319
-1.15756e-07
1.22141e-07
2.97216e-07
-8.75724e-07
-9.01766e-07
-1.83597e-07
0.00170658
8.63551e-07
1.67919e-07
1.85051e-07
-2.44541e-08
1.01907e-06
-0.00915285
-0.00228542
-0.0123274
1.28119e-09
-2.09088e-05
-0.000519201
-0.00228319
9.57019e-08
3.87215e-07
-0.00250424
-2.06718e-07
-0.00697439
0.00172208
0.00210408