/*--------------------------------*- C++ -*----------------------------------*\
| =========                 |                                                 |
| \\      /  F ield         | OpenFOAM: The Open Source CFD Toolbox           |
|  \\    /   O peration     | Version:  v2012                                 |
|   \\  /    A nd           | Website:  www.openfoam.com                      |
|    \\/     M anipulation  |                                                 |
\*---------------------------------------------------------------------------*/
FoamFile
{
    version     2.0;
    format      ascii;
    class       volScalarField;
    location    "250";
    object      nut;
}
// * * * * * * * * * * * * * * * * * * * * * * * * * * * * * * * * * * * * * //

dimensions      [0 2 -1 0 0 0 0];


internalField   nonuniform List<scalar> 
18649
(
0.000555511
0.000605747
0.00247487
0.00563593
3.28696e-05
0.000694668
0.0254561
0.000320345
0.000353917
0.000809614
0.000229974
0.0114594
0.010066
0.00213286
0.00651907
0.000494396
0.00673433
0.000474386
0.000114306
0.0176094
0.0036469
0.0013963
0.00308306
0.000679634
0.00674647
0.0157304
0.00249712
0.0122463
0.000171987
0.00675276
0.00189748
0.000112354
0.00672756
0.0005772
0.00143303
0.00155469
0.000322078
0.0021122
0.00679142
0.000356322
0.000332774
0.000785152
0.000439149
0.0115371
0.00059529
0.00675076
0.00904179
0.00616874
0.00326486
0.00661598
0.0251721
0.000490875
0.00702152
0.0185892
0.00672715
0.00339262
0.0191729
0.000325978
0.00264831
0.00107342
0.000536389
0.00674515
0.000427907
0.0072388
0.00226702
0.00786932
0.00241909
0.0192334
0.00571112
0.000689511
0.0106878
0.00674835
0.000169289
0.000833461
0.000879849
0.00394732
0.000183962
0.000307313
0.000892965
5.00898e-05
0.00674194
0.00827011
0.00263636
0.00726823
8.25939e-05
0.00678908
0.000323067
0.000708739
0.000340133
0.000705653
0.000711428
0.00248222
0.00336634
0.0229198
0.002078
0.000214127
0.00128679
6.0534e-05
0.00531586
0.00213989
0.00321656
0.000160744
0.00674188
0.0252375
0.00505712
0.000409651
0.00672483
0.0018995
0.000218815
0.000820518
0.00247915
8.16948e-05
0.00324876
0.000894273
0.000644579
0.00194042
0.00672641
0.0220006
0.0112242
0.00498982
0.00293683
0.00154519
0.000134602
0.00641728
0.0131793
0.006747
0.00672648
0.0200279
0.00282649
0.0221229
0.00348033
0.00282294
0.00622476
0.00224352
0.000383019
0.00672536
0.00839055
0.0194552
0.000598572
0.000498587
3.7135e-05
0.00302877
0.00677547
0.00673634
0.00672636
0.00978386
0.00677521
0.0067372
0.00291665
0.00527337
5.63134e-05
0.00672522
0.00318152
0.00313497
0.00167866
0.0067351
4.95826e-05
0.00011067
0.00672411
0.00289867
0.00673505
0.000476205
0.00306454
0.00332432
0.0136805
0.00066584
0.006725
0.00675047
0.002014
0.00164035
0.00442298
4.26278e-05
0.000367806
2.98222e-05
0.0023318
0.0216813
0.00203225
0.000612817
0.00672381
0.000309178
0.000883669
0.0067524
0.00672568
0.017528
0.000608071
0.0005537
0.00672613
0.00256646
0.00082283
0.000351796
8.64303e-05
0.00234678
0.00113982
0.0036344
0.00673945
0.00672602
0.000210665
0.000187204
0.000676316
0.00672582
0.00673574
0.00041042
0.0187922
0.000381033
0.000297635
0.000106272
0.0024938
0.00956777
0.00190524
0.000993107
0.00264505
0.00074382
0.00203961
0.000894097
0.00268518
0.00348039
0.000209457
0.00418785
0.0126833
0.00222941
0.00045954
0.00378191
2.33619e-05
6.19284e-05
0.0157985
0.0227683
0.0041473
0.00306665
0.00769507
0.0207252
0.000832366
0.00568642
0.0022148
0.000552379
0.016603
0.000493826
5.83289e-05
5.01854e-05
0.00582251
0.0002899
0.00674056
0.017389
0.000657308
0.00675064
0.000720254
0.000201387
0.00876322
0.00348158
0.00218532
0.000180776
0.00203012
0.0253284
0.000413893
0.00136069
0.000583669
0.0134736
0.00362731
0.00341981
0.000659392
0.000797757
0.00476935
8.99776e-05
0.00148547
0.00259918
0.00673839
0.00747568
0.0249224
0.00672588
0.0185543
0.00674984
0.00908031
0.000104832
0.00747307
0.00229735
0.000116578
0.00355699
0.00673756
0.007484
0.0230125
0.0128601
0.00672648
0.00444481
0.00385055
0.00066731
0.00862111
0.00309292
0.0030177
0.000163961
0.00672556
0.00676156
0.000512314
0.00329441
0.0255897
3.81245e-05
0.00223974
0.000880568
0.00111337
0.000500735
0.00674003
0.0245313
0.00672267
0.000516184
0.00153957
0.00673558
0.00507424
7.49337e-05
0.0067256
0.000447238
3.40798e-05
0.000811874
0.0156239
0.00141883
8.43668e-06
0.00619219
0.00333672
0.0045852
0.00211996
0.00672583
0.00238987
0.0147296
0.00672465
0.00673442
0.000536956
0.00672493
0.00673424
0.00296632
0.00672614
0.000295542
0.0228342
7.41656e-05
0.00148776
0.0060417
0.00673054
0.000488365
0.00672447
0.00675473
0.0152045
0.000580059
0.00812519
0.000396558
0.000455558
0.00672397
0.0014808
0.00206784
0.000906551
0.00674805
0.0067259
0.00674017
0.000889498
0.000504483
0.00668412
0.00838716
0.00591889
0.00450429
0.0012877
0.0184261
0.00236481
0.0148614
0.000517159
0.012301
0.0259423
0.00142473
0.0258912
0.00665042
0.0117176
1.82012e-05
0.00119531
0.000405311
0.000458613
0.00182746
0.00192678
0.00677177
0.00674425
0.0190375
0.000267849
0.0171327
0.00144326
0.000180818
0.0096303
0.00142236
0.00672643
0.000619778
0.00556042
6.27749e-05
0.0067257
0.00672536
6.09289e-05
0.0263111
0.00105104
0.00529312
0.000168214
0.000231012
0.00256109
0.0237478
0.00279319
0.000669405
0.00138489
0.00107113
0.0067256
0.0151748
0.0189671
0.000553018
0.00578521
0.0067307
0.0185099
0.0156764
0.00377314
0.00118269
0.00675452
0.00310734
0.0257424
0.00680015
0.0217361
0.00091507
0.000685324
0.010459
0.0105149
0.0225804
0.00653343
0.00100589
0.00560575
0.00750604
0.000294031
0.0124859
0.0176549
0.00676853
0.00674727
0.000255255
0.0116052
0.00158753
0.00249568
0.00139974
0.000926197
0.00673614
0.01897
0.0086446
0.000832267
0.00188912
0.00181967
5.93101e-05
0.00515442
0.000519663
0.00103568
0.00498908
0.00675613
0.0122547
0.0156655
0.00672571
0.00528509
0.00255834
0.0061388
0.000592196
0.00574399
6.30658e-05
0.000275258
0.0122216
0.000390269
0.020664
0.000897167
0.000693345
0.000391209
0.00158074
0.000418359
0.00121902
0.00372484
0.000661896
4.17675e-05
0.00676288
0.00141058
0.00469489
0.00675425
0.00672587
0.00479871
0.00674347
0.0133494
0.00267932
0.00225572
0.0053639
0.000758539
0.00276038
0.00672654
3.10289e-05
0.0041203
0.000171868
0.00673276
0.000620409
0.0109067
0.00672647
0.0224866
0.000612619
0.0252622
0.0113021
0.0107583
0.000334725
0.000815487
0.00027561
0.000599892
0.00085119
0.00248176
0.000159612
0.000884572
6.92122e-05
0.000382835
0.000214373
0.00672479
4.3633e-05
0.000541217
0.024874
0.00267709
0.00244815
0.00054875
0.000409253
0.00673399
0.000274966
0.00869939
0.00672496
0.00451953
0.0105182
0.00548979
6.19964e-05
0.00527385
0.000541678
0.00203365
0.00038694
0.00674262
2.55014e-05
0.00672615
0.0239858
0.00213416
0.000307416
0.00978915
0.0228503
0.00709868
0.00149878
0.0177031
0.000411481
0.0201384
0.000942937
0.00573548
0.000142969
0.000486812
0.00215176
0.000390102
0.0018319
0.00672478
0.00186069
0.00672617
0.00672617
0.00185096
0.00335259
0.00675174
0.00422246
0.000788901
0.00123449
3.05747e-05
0.0227337
0.00260908
0.000467371
0.000595055
0.0002199
0.00673295
0.00826983
0.019508
0.00428146
0.000654746
0.000812018
0.00113387
0.000786307
0.000806712
0.00292623
0.00133612
0.00399852
0.00318425
0.00677075
0.0216704
0.0123545
0.00934577
0.000562594
0.00489406
0.0183186
0.00812464
9.63357e-05
0.000528579
0.000137152
0.0170616
0.00672989
0.0100364
0.000733179
0.000817896
0.00166066
2.23183e-05
0.0050215
0.00317924
6.66743e-05
0.000465799
0.00120842
0.000736573
8.14722e-05
0.00509526
0.0213719
0.000607343
0.0249381
0.00166614
0.00655815
0.000598339
0.00104853
0.00681873
0.0120221
0.000341206
0.000404422
0.000493316
0.0100481
0.00116565
0.0102268
0.0024699
0.000386193
0.0256944
0.000831042
0.00672815
0.000121024
0.00177548
0.000543078
0.00458875
0.00338716
2.45822e-05
0.000243433
0.00950434
0.0067256
0.01282
0.00618647
6.24704e-05
0.000589979
0.00677148
0.00204756
0.00131888
0.0116181
0.00125979
0.000263696
0.000413248
0.000328063
0.00304639
0.00461951
0.000750844
0.018762
0.00674495
0.000364421
0.00674243
0.0241177
0.00672621
0.000842105
0.00278776
0.00675264
0.00143833
0.000519516
3.96362e-05
0.000824137
0.0068735
0.000642592
0.00678986
0.000821034
0.00486471
0.00113262
0.0021481
0.0181921
0.0244158
0.00673864
0.00397
0.00265669
0.00216647
0.00340528
0.000309229
0.00142726
0.00377996
6.19045e-05
0.0110938
0.000644416
0.0179776
0.00470053
0.00313799
0.00675141
0.00674286
0.00678336
0.00683389
0.00674908
0.0023819
0.0173754
0.00546029
0.00135172
0.00422998
0.000476957
0.00672621
0.0250419
0.00107094
0.000166575
0.00179839
7.66962e-05
0.00675151
0.00105613
0.00672632
0.00020774
0.0033123
0.00460728
0.00823614
0.000429954
0.0036162
0.011699
0.000352651
0.0077381
0.00277458
0.000564723
0.00145817
0.00273654
0.00952251
0.0245784
0.00332904
0.000193538
0.000250333
0.00674697
0.000557303
0.0225679
0.000821896
0.00567049
0.00103393
0.0204978
0.0226491
0.0121094
0.000395021
0.00680429
0.000803306
0.0118028
0.0101037
0.00673177
0.000779297
0.00673683
3.60055e-05
0.00673276
0.0109954
0.00016964
0.00673826
0.00418905
0.00904859
0.00561195
0.000675074
0.00334321
0.00677417
0.00394476
0.000100184
6.88186e-05
6.24427e-05
0.0262193
0.00688934
0.0213583
0.00672642
0.0103296
0.000497606
0.000800187
0.000421766
0.00620177
0.00312485
0.0057462
2.49806e-05
0.0228098
1.93311e-05
0.00460944
0.000380701
0.00679198
0.00678232
0.00677301
0.000926185
0.000285511
0.0241105
0.000257367
0.00674249
4.94605e-05
4.11823e-05
9.00834e-05
0.00674126
0.0231266
0.00909339
0.00586563
0.00597646
0.000272279
0.000538673
0.00054773
0.00672735
0.000948616
0.000156843
0.00439715
0.00605124
0.00304176
0.025066
0.0117646
0.00103301
0.00289238
0.00299025
0.000473553
0.0132746
0.000167671
0.00418877
0.0048939
0.00495596
0.0180104
0.0126254
0.00232726
0.0049288
0.000534203
0.000214571
0.00210033
0.00036288
0.00148326
0.000174515
0.000628189
0.0134182
0.021322
0.00601544
0.000387885
0.000211038
0.000399688
0.000236353
0.0230625
0.00649087
0.000214969
6.39659e-05
0.00053194
0.0122697
0.00316987
0.00978931
0.0195201
0.00381392
0.0176547
0.000281553
0.00673182
0.0237324
0.0148058
0.0019483
0.000408255
0.0211511
0.00442532
0.0155649
0.00210141
0.0044536
0.00328834
0.00065971
0.00674261
0.00675517
0.0212367
0.00672638
0.000842441
0.00244176
0.0239644
0.000149036
0.00675513
0.00547223
0.0163847
0.00208744
4.58043e-05
4.3149e-05
0.000470603
0.0217303
0.000804703
0.000924362
0.00685785
0.000568827
0.000349833
0.00452422
0.000720009
0.000516939
0.000484674
0.00251075
0.00674193
0.000447752
0.00672509
0.013595
0.000252889
0.0021098
0.006735
0.000672246
0.000583467
5.0649e-05
0.00275446
0.00674621
7.63264e-05
0.00470431
0.00390136
0.00202741
0.000667541
0.0235618
0.00672712
0.0142108
0.00672977
0.000212918
2.33331e-05
0.000436216
0.000585612
0.00672651
0.00027518
0.00232552
0.00359228
0.00954785
0.000942294
0.000227837
0.000402594
0.00129988
0.00150574
0.00578412
0.0126372
0.00628823
0.0199456
0.00814062
0.00674806
9.02235e-05
0.00202019
0.00893832
0.00548553
0.0112766
0.0209972
0.0151713
0.00947507
0.0228256
0.00350254
0.000354513
0.00672399
0.000515082
0.000351066
0.00626679
0.00179128
0.0157548
0.00306082
0.000214455
0.0119508
3.03257e-05
0.0237912
0.000168772
0.00787364
0.000339566
0.000231886
0.00672599
0.00557314
0.0067551
0.0163215
0.00247519
0.00672609
0.000539707
0.00249568
0.0107492
0.01003
8.30629e-05
0.00121075
0.0067672
0.00172954
0.00654666
0.000155355
0.000787375
0.00676544
0.00674237
0.00672494
0.00154649
0.000197153
0.00645447
0.00676584
0.000430925
0.000591071
0.00270077
0.000469165
0.00287136
0.000671558
0.00421628
0.00318305
0.000386159
0.0216664
4.72551e-05
0.00948145
0.0122428
3.46984e-05
0.00087889
0.0010837
0.000203598
0.00870997
0.00251678
0.00674797
0.00673751
0.00156458
9.31367e-05
0.000144155
0.000114394
0.000165757
0.000671724
0.0136534
0.0127039
0.00183718
5.02791e-05
0.0127208
0.000924401
0.00539905
0.00674654
0.0067264
0.00412898
4.78499e-05
0.00524367
0.000214246
0.00124767
0.00171915
0.0161892
0.000603031
0.00589938
6.78527e-05
0.000474878
7.08875e-05
0.00202496
0.000887539
0.0212499
0.0030633
3.60179e-05
3.95003e-05
0.00675414
0.00421889
0.000821721
0.00910402
0.00115114
0.00673012
0.00154524
0.000435135
0.0051572
0.00893703
0.00155471
0.00672595
0.00563509
0.000171646
0.000785844
0.00087102
0.00471733
0.00674101
0.000837556
0.000386197
0.000463433
0.00402404
0.00835389
0.00242432
0.000456838
0.000171579
0.0257346
0.0057531
0.0229011
0.000338989
0.00138453
0.000224024
0.00204382
0.00020654
0.00104183
0.00547869
0.0176294
0.00053039
0.00166448
0.0119085
0.00978729
0.00428495
0.00359526
0.000870971
0.00231249
0.00138733
0.0182422
0.00675114
0.0067536
0.00249176
0.0215154
0.0120403
0.000544811
0.0221453
0.000449411
0.00128255
0.0176044
0.00129797
0.0067256
0.000259234
0.00156821
0.0222559
0.00862051
0.0112705
0.00578072
0.000191858
0.0178909
0.00560752
0.00143939
0.0120272
0.023933
0.0028133
0.00672375
0.0222436
0.000456598
0.00673989
0.00117814
0.00207758
0.00195914
0.000723047
0.00255586
0.0145283
0.000177824
0.00672614
0.000511015
0.00672401
0.00328769
0.000368999
0.0216846
0.00270544
0.000554881
0.000521065
0.00674129
0.000533087
0.00475005
0.0107439
0.0229508
0.00182799
0.0118673
0.00449882
0.00620719
0.000610098
0.00357944
6.50703e-05
0.000454832
0.00672558
0.014922
0.00547506
0.000250646
0.00672378
0.00130346
0.00659867
0.000523685
0.0067236
0.00549003
0.00605462
0.00469099
0.00213332
0.0251816
0.00673422
0.00149537
0.00342251
0.00153023
0.00961978
0.00610627
0.00672932
0.0102127
0.0221969
7.73127e-05
0.011738
0.000653368
0.00114411
0.000351212
0.00478497
0.000339555
0.00370014
0.000557863
0.0189413
0.000509508
0.000751833
0.00114408
9.3985e-05
0.0136002
0.000333952
4.4348e-05
0.000335645
0.000277972
0.0128246
0.0009505
0.0229851
0.0180893
0.000371941
0.00989527
0.000849771
0.000270188
0.00468701
0.00672277
0.021563
0.00108346
3.64799e-05
0.023186
0.000321918
0.000512757
0.00674739
0.00333229
0.0154064
0.000211591
0.00820905
0.00189554
0.00160743
0.00405591
0.00520646
0.00675036
0.000949313
0.00163358
9.95142e-05
0.0184164
0.0248546
0.00124047
0.00672608
0.0152676
0.000501197
0.00716863
0.00596819
0.0120456
0.000187775
0.00461208
0.00672535
0.00895011
0.00679749
0.000808314
0.00203602
0.00672524
0.000320958
0.00674236
0.00247539
0.00672635
0.00144712
0.0191125
0.0192616
0.00672513
0.0224505
0.000107446
0.0181606
0.017099
0.0198154
0.00674877
0.00533708
4.15546e-05
0.00143456
0.00672651
0.00532989
0.000668794
0.000534873
0.00672601
0.0121283
0.00288513
0.00672606
0.000782605
0.00449336
0.00672264
0.000533966
0.0094387
0.00674893
0.0154125
0.0195218
0.00404708
0.022823
0.00513271
0.0188558
0.00626598
0.00675192
0.00904623
0.0079918
0.0067446
0.0162073
0.000906466
0.014731
0.00104782
0.000379836
0.0202145
0.000601897
4.06498e-05
0.014107
0.00234581
5.33224e-05
0.000516476
0.0163516
0.0262567
0.00183575
0.0184648
0.00155904
0.00139402
0.0067324
6.61758e-05
0.0031867
0.000578638
0.00283268
0.0136905
0.000317595
0.0194879
0.00673737
0.0140759
0.00511307
0.000499761
0.00139333
0.00679817
0.000524909
0.0136999
0.0130777
0.00111882
0.000492223
0.0175106
0.00147047
0.000378468
0.0226744
0.005609
0.0136702
0.0200575
0.000431643
0.000316489
0.00567094
0.00674496
0.0174297
0.0207437
0.00452151
7.01773e-05
0.0164555
0.000379013
0.021149
5.57826e-05
0.0179145
0.0143889
0.00095868
0.0200743
0.000864692
0.000109627
0.0202486
0.0213228
0.0163079
9.69692e-05
0.0094892
0.0127279
0.000835429
0.00539365
0.00295442
0.00115603
0.0067265
0.00673895
3.28908e-05
0.00123377
0.00613772
0.00450046
0.022267
0.019854
7.00157e-05
3.28557e-05
0.000661323
0.0179667
4.1788e-05
0.00601404
0.000466708
4.98988e-05
0.00590011
0.00677353
0.0156444
0.00544769
0.00623701
0.00151192
0.00493178
0.00223863
0.016695
3.85657e-05
0.000471311
0.000398265
0.00135505
0.00977421
0.0225388
0.00458996
0.00080226
0.0238668
0.000184355
0.0024517
0.000271424
0.0187149
0.000163904
0.00674555
0.00672674
0.0158688
0.000101009
0.000118781
0.00669674
0.0191171
0.0143082
0.00674211
0.00494814
0.00673386
0.000542013
0.000190361
0.0012271
0.00277001
8.36904e-05
0.000358936
0.000310547
0.00673712
0.0066389
0.00569451
9.67636e-05
0.00678517
7.58946e-05
0.00671761
0.00673158
0.00283224
0.0133766
0.0229535
0.00472029
0.000623486
0.0243572
0.0016017
0.00308294
0.00675911
0.00672384
0.000237608
0.00673582
0.00559208
0.00358234
0.00672368
0.00674844
0.00202948
0.00673888
7.26379e-05
0.000621151
0.00586747
0.0067264
0.00199193
0.000507662
0.000534513
0.0067263
0.00672363
0.000166779
4.01437e-05
0.00326273
0.000164775
0.000709558
0.00022276
0.00153679
0.000126408
0.00570074
0.00108777
0.00444371
0.000291716
0.00672573
0.0109219
0.000482902
0.00312468
7.54317e-05
0.00672616
0.00673612
0.000457315
0.000469545
0.000187225
0.00298936
0.00672718
0.00673667
0.00039851
0.00676992
0.0050214
0.0208021
0.000519893
0.000357472
0.00236435
0.000301896
0.00672628
0.00672384
0.00260592
0.000361135
0.00112268
0.00104638
0.0245087
0.00672269
0.000210531
0.00678101
0.00171443
0.000889548
8.59462e-05
0.00674879
0.00674882
0.000697246
0.000422688
0.00330273
0.0150144
0.00307143
0.0128698
0.000373727
0.00672503
0.0195468
7.47754e-05
2.91166e-05
0.00570922
0.000524717
0.00661178
2.69746e-05
0.000220096
0.00102616
0.00553997
0.000380534
0.00646596
0.00483262
0.00674879
0.00672614
0.00672666
4.06962e-05
0.00410443
0.00110121
0.00673755
0.00673746
0.000653995
0.000303092
0.000813419
0.000268828
0.000321996
0.00675201
0.00189281
0.00675091
0.000456807
0.0032745
0.0052859
0.00635751
0.00208198
0.0175896
0.00015755
0.00511656
0.00674691
0.00674121
0.00673579
0.000737034
0.00678765
0.00244898
0.000318769
8.83953e-05
0.0118967
9.87082e-05
0.00673625
0.00537506
0.000102112
0.00131881
0.000729023
0.00528585
0.0179352
0.00674962
0.00478211
0.000433749
0.00049009
0.0229718
0.0058479
0.0218229
0.00673694
0.000703399
0.0199937
0.0242622
0.0201379
0.00140631
0.00675771
6.12707e-05
0.00088296
0.00113752
0.00672393
0.000959339
0.00472756
0.00141236
0.0229855
0.00678588
0.00576519
4.44803e-05
0.00118777
0.00366432
0.00674416
0.00304468
6.38786e-05
0.0067613
0.000575931
0.000452966
0.000471766
3.88814e-05
0.00672658
0.000538373
0.00674171
0.000175441
0.000202028
4.11747e-05
0.00322389
0.0124998
0.00672385
0.00265217
0.00479553
0.00672614
0.00340876
0.00439372
0.0103829
0.0237528
0.00672601
0.0241081
0.00255646
0.00681008
0.00673633
0.0227434
3.93842e-05
7.28941e-05
0.00383188
0.000304261
0.0047944
0.00336459
0.0187571
0.00277534
0.0003449
0.0089201
0.0162788
0.0016659
0.000913493
0.000139192
0.000695798
0.000687071
0.000106795
0.000408581
0.00861698
0.00672573
0.00206454
0.00434686
0.0203129
0.00673813
0.00287911
0.00174265
0.000783444
0.0024482
0.000191091
0.00673753
5.03008e-05
7.20268e-05
0.00320786
0.00123148
0.0124663
0.00565102
0.00122711
0.00529345
0.00127213
0.00225327
0.000617981
0.00440254
0.0222267
0.000178414
0.00434568
0.00672663
0.00673183
0.00108262
0.00927171
0.000385165
0.000563628
0.00460984
0.000771225
0.00109987
0.00044461
0.00356101
0.00230286
0.0125853
0.000434918
0.000386994
0.00672533
0.00056063
0.000327367
0.00164122
0.000108981
0.00366995
0.0042192
0.000157764
0.00578651
0.000410497
7.16e-05
0.000443786
0.0104871
0.00065251
0.007398
0.00543005
0.0229421
0.0181811
0.00151002
3.07159e-05
0.0223747
0.0007008
0.00208916
0.00141979
0.00672606
0.000692175
0.000232627
0.00037524
0.000378924
0.000192751
0.00924347
0.0067579
0.000123754
0.00135831
0.0207241
0.0104353
0.00407668
0.00272434
0.00675998
0.0243262
4.06607e-05
0.000444514
0.00286882
0.000451271
0.000925567
0.00544092
0.000250175
0.00119932
0.0206515
0.000243425
0.0067535
0.00304786
0.000520427
0.000539594
0.00075949
0.0218995
0.000867387
0.00676484
0.00673781
0.000752524
0.0236496
0.00674145
0.00319693
4.96613e-05
0.000375509
0.00674986
0.00676369
0.000245816
0.000158263
0.000349531
0.000586324
0.00126961
0.00591421
0.00024705
0.000404696
0.00979041
0.000540842
2.89826e-05
0.00338318
0.00677749
0.0144666
0.00672357
0.00675558
0.00675324
0.000955214
0.00062093
0.000533164
0.000305203
0.00187125
0.000140209
0.00565391
0.000184145
0.00674802
0.00375756
0.000338395
3.69502e-05
0.00346902
0.0067624
0.0219767
0.00613207
0.00106153
5.39755e-05
0.00421598
0.00536114
0.0238384
0.000647403
0.00031493
0.00325633
0.00676512
0.00254553
0.00107192
0.00396181
0.00092485
0.00631707
0.0194116
0.000575468
0.000248122
0.00673681
0.00672362
0.0140816
8.39616e-05
0.00159757
0.00673236
0.00187365
0.00202891
0.000741803
0.00152198
0.0086073
0.00678644
0.00673918
0.0162022
0.000302266
0.0014654
0.000629671
0.00155894
0.00184599
0.014729
0.00672516
0.000464939
0.0201749
0.00673518
0.00673457
0.00672774
0.00821348
0.0067601
0.0208472
0.00162457
0.00021834
0.00672605
3.81493e-05
0.00799505
0.00677362
0.0126094
0.000167571
0.0234769
0.00254058
0.00345161
4.36022e-05
0.00268277
0.0194431
0.000956346
0.0177084
0.00486283
0.000337816
0.0142169
0.0189364
0.000702343
0.00672976
0.000291729
0.00672357
5.42375e-05
0.0139598
0.0120793
0.000335228
0.000441002
0.0067259
0.012417
0.00182619
0.00352042
0.000156294
0.000215531
0.0156726
0.000960725
0.00674856
0.00419684
0.00457892
0.000286262
3.42885e-05
0.000865167
0.000349906
0.000399134
0.000397686
0.00672605
0.0053779
0.000897666
0.0179898
0.0182839
0.0125203
0.000821524
0.0191256
0.00672634
0.000568607
0.00589743
0.0181535
0.00413458
0.00672351
0.000742995
0.00584665
0.00418197
0.0045343
7.37103e-05
0.00406081
0.00480727
0.00101978
0.00674049
0.000578009
0.0101997
0.00807202
0.000498831
0.000111173
4.01481e-05
0.000822713
8.54471e-05
0.0057122
0.00234399
0.00674544
0.00673165
0.00674378
0.00490727
0.00678089
0.00146286
0.00677356
0.000797036
0.00105897
0.000316076
0.000352157
0.00672372
0.00614722
0.00674415
0.000626263
0.00104667
0.00490197
0.00677211
0.00188675
0.0011019
0.00120177
0.0108527
0.000379216
0.00340643
0.0043293
9.02248e-05
0.00675384
0.00339499
0.0228975
0.000597478
0.000883543
0.00133507
0.0135146
0.000754491
0.00086838
0.00124131
0.011635
0.00675134
0.00674082
0.00672983
0.000236441
0.000203446
0.00101635
0.000399153
0.0219575
0.000458274
0.00417637
0.00134143
0.0109805
0.00674762
0.00407123
0.00672642
0.000568136
2.86318e-05
0.00103832
0.00658788
0.000332227
3.43775e-05
0.000384487
0.00622256
0.00102996
0.000397449
0.0034188
0.0116291
0.000282284
0.0019983
0.0067263
0.000741477
0.000693343
0.000622517
0.000141851
0.0225234
0.0033921
0.00672542
0.0100041
0.00672435
0.000121224
0.000489184
4.2134e-05
0.0123342
0.000765971
0.000809091
0.000376568
5.46276e-05
0.000304943
0.000167043
0.0031715
0.000476982
0.00140083
0.00839553
0.00118532
0.0121404
0.00032288
0.00449428
2.66096e-05
0.00121677
0.00672343
0.000558222
0.000789306
0.000781593
0.00675164
0.00213561
0.00345731
0.024586
0.00678783
0.0224916
0.0127031
0.00464569
0.00678746
0.0170521
0.00119581
0.00292206
0.0157336
0.0204342
0.000136745
0.0141584
0.0017379
0.00449558
0.00452054
0.000124959
0.00673037
0.0170075
0.00154338
0.000428482
0.000325162
0.000277104
0.0162164
0.000325338
0.00403836
0.0045177
0.0119082
0.00100926
0.0128022
0.0111257
0.00105073
0.020588
0.00672364
0.0202517
3.15661e-05
0.00106725
0.000106325
0.000462948
0.0005366
0.00771529
0.00359885
9.72702e-05
0.00123046
0.00427546
0.00122465
0.00674935
0.00134455
0.00879634
0.00400107
0.000530721
0.00033318
0.00116749
3.71593e-05
0.000303865
0.000574126
0.00151606
0.00551125
0.000260532
0.00393471
0.000281432
0.00674497
0.0210011
0.000647614
0.00120537
3.81866e-05
0.0139161
0.00673076
0.00250834
0.000139109
0.0227369
0.00290228
0.00469411
0.000456054
0.00676308
0.0176044
0.000123228
0.000225612
0.00349748
0.0238238
0.00675187
0.000877379
0.000563183
0.000226759
0.000115741
0.000314645
0.000896614
0.000477425
0.000334604
0.00149096
0.0181169
5.83435e-05
0.0153111
9.67001e-05
0.0240138
0.00623849
0.00426154
3.76187e-05
0.00122058
0.000913427
0.00389949
0.0102911
0.00988321
0.000253311
0.00303576
0.00226851
0.000288376
0.00374176
0.00781027
0.00135659
0.000168316
0.00114484
0.00189319
0.00672452
0.00125243
0.0111574
0.0230497
0.00675714
0.0219577
0.0171615
0.0108083
0.000415323
0.0230945
0.00175584
0.00673989
0.0188158
0.00665235
0.00166875
0.000978353
0.0234285
0.00626
0.00137245
9.95359e-05
0.0237358
0.00672602
0.000442515
0.000405049
0.000787702
0.00819111
0.0201017
0.00673775
0.0130239
0.00104865
0.00672392
0.0224629
0.0179275
0.000303625
0.00111486
0.000765405
0.0243185
0.00130505
0.00673703
0.0038479
0.000399855
0.000374586
0.0153144
0.00150405
0.00189605
0.00102657
0.0174499
0.0240892
0.021862
0.00672586
7.36674e-05
0.00673462
0.000657401
4.14235e-05
0.00152704
0.000735861
0.00672567
0.0067663
0.00672542
0.0238726
0.00146713
0.0067512
0.000810784
0.00672347
0.00674251
0.000852055
0.0240232
0.013879
0.000530456
0.00672764
0.0184079
0.00677072
0.00674993
0.000873992
0.0236062
0.0129082
0.00157299
0.000611823
0.0127211
0.000974898
0.00672644
4.72939e-05
0.00672574
0.00427685
0.00642007
0.0067368
0.00337443
0.00674526
0.00087349
0.0037276
0.00414505
0.00522988
0.00195444
0.000415293
0.000362428
0.00672897
0.00672923
0.00630087
0.0196155
0.00674151
0.00520844
0.00161072
0.00240318
9.06916e-05
0.00426335
0.0165338
0.0195687
0.000579081
0.00418998
0.006752
0.000414703
0.017023
0.00673707
3.75338e-05
0.000954644
6.83892e-05
0.00205601
0.00679807
0.00143453
0.0246366
0.000403691
0.00680083
0.000937341
0.0158993
0.00263432
0.0248657
0.00605685
0.00367064
0.00578703
0.0079626
0.00120146
0.00674297
0.00645286
0.000241497
0.000295761
0.000521676
0.000582471
0.0126202
0.00672517
0.0138355
0.00674762
0.000515892
0.0048587
0.000454466
0.0190617
5.08993e-05
0.000455576
0.00239426
0.00676125
8.56141e-05
0.0140449
0.000836299
0.000935285
0.0127204
0.00320098
0.00523451
0.000409
0.000165434
0.00759516
0.00328788
0.00392473
0.00116512
0.00672618
0.00578189
0.00169987
0.000738099
0.00674368
0.00176561
0.00672774
0.00672396
0.00124402
0.00673476
0.0113913
0.00310251
5.56281e-05
0.00675378
0.00232535
0.00420802
0.00245145
0.0158063
0.000904881
0.000284227
0.000273872
0.00262151
0.00672553
0.000579543
0.000110564
0.000424445
0.00183076
0.0006023
0.000165279
4.31595e-05
0.00185239
0.000855648
0.00443977
0.00112761
0.00250828
0.000742279
0.0169886
0.00673417
0.000926734
0.000957886
0.000445094
0.0226456
0.000449902
0.00261753
0.00674061
0.00675159
0.00672894
0.00346993
0.000539815
0.000412509
0.00535678
0.00146999
0.00673701
0.00212947
0.00952373
0.000465054
0.00186355
0.000450652
0.00673577
0.000328325
3.52172e-05
0.0233361
0.00679502
0.00588158
0.00673525
0.0231712
0.0138821
0.000184024
0.000355093
0.00139727
0.000334097
0.000990567
0.0232515
0.000745969
0.000822568
0.000761657
0.000444021
0.000707398
0.000170909
0.000586946
0.00042006
0.00573945
0.00167101
0.000234943
0.00272313
0.00673832
0.000226039
0.00287009
0.00675233
0.000209049
0.000733321
2.60644e-05
0.00060368
0.00497993
0.000277384
0.000290628
0.00361061
0.00155769
0.00631927
0.00672633
0.00672606
0.00229724
0.000459955
0.000327507
0.00368359
4.30074e-05
0.000782457
0.000137355
0.0179937
0.000146143
0.00274702
0.0060535
0.0195674
0.000166895
0.000537651
0.00245595
7.51403e-05
0.0232427
0.00562506
0.000420657
0.014253
0.000351244
0.00128877
0.00065117
0.0237929
0.00676431
0.00524958
0.0179416
0.0111842
0.0228375
0.000342134
0.00674613
0.0105604
0.00681685
0.00484513
0.00315722
0.0011253
9.88935e-05
0.00262952
0.0179913
0.000975177
5.01161e-05
0.00594911
0.00672524
0.000929847
0.0187815
0.00568039
0.0177905
0.00267735
0.00627145
0.000105919
0.00832268
0.00424751
0.000976298
0.020296
0.00264781
0.0150337
0.005973
0.003071
0.00134642
0.00677408
0.00519539
0.00290235
0.00172767
0.00345132
0.0200511
0.000299266
0.0242289
0.00234386
0.018839
0.00672836
0.00402538
0.0178964
0.0231249
0.00676557
0.000878776
4.22009e-05
0.00339702
0.0115469
0.00126751
0.0081797
0.00672241
0.00146457
0.00102655
0.00156061
0.000186708
0.0149775
0.00457971
0.000378045
0.000370088
0.000195772
0.000137868
0.0036082
0.00534814
0.00498734
0.0242333
0.00635399
0.00191935
0.00672562
0.000324193
0.00455571
0.00677683
0.0231297
0.0161609
0.000588192
0.00418384
0.0109075
0.00672647
0.000278617
0.00493121
0.000550033
0.00672903
0.00677013
0.000415309
0.00273593
0.00365043
0.0229075
0.0055683
0.00862547
0.0198543
0.00350868
0.00733815
0.00234283
0.000548306
0.00674993
0.00370374
0.00644769
0.00066305
0.000149179
0.00657631
0.00672371
0.000220343
0.00140832
0.00117371
0.0236417
0.00269049
0.00118733
0.00399336
3.85239e-05
3.98483e-05
3.59334e-05
0.00511335
0.00310066
0.000672288
0.00672885
0.00104083
0.00542283
0.00631566
0.0029627
0.000403033
0.0183504
0.00120759
0.0155765
0.000517539
0.0014009
0.00508433
0.0239071
0.0068013
0.0225116
0.00532939
0.00401323
0.00657068
0.00359909
0.00691276
5.07752e-05
0.000638398
0.000498484
0.0187458
0.00119731
0.00672774
0.0187502
0.00128151
0.00177031
0.0204017
0.00672623
0.00672632
0.011127
0.00931397
0.0243723
0.00673788
0.00216066
0.00364435
0.000799503
0.00731524
0.00110869
0.00259427
0.00467315
0.00673153
6.94858e-05
0.00796743
0.00674226
0.000180353
3.70662e-05
0.00183064
0.000369499
0.00017783
0.0228568
0.0094758
0.000654394
0.00675873
0.000954159
0.000428133
0.00193311
0.00448271
0.000781125
0.00343052
0.000356529
0.0115419
0.000272879
0.00680116
0.00191622
0.00030352
0.00673354
0.0220196
0.000203725
0.000160541
0.000114891
0.00313272
0.00345015
0.000250653
0.0020893
0.00314948
0.00482249
0.000990432
0.000508023
0.00966587
0.000337369
0.00274484
0.000267975
0.00551159
0.000290371
0.00675454
0.00500954
0.00673557
0.00062047
0.000521618
0.000415488
0.00018465
0.00207341
0.000126297
0.0244652
0.0107498
0.000526039
0.00953679
0.000178506
0.0236112
0.000138228
0.00675298
0.0195019
0.00974184
0.000527486
0.00423954
0.00014556
0.000324156
0.000194217
0.000923936
0.00359762
0.00397273
0.00679732
0.00350353
0.000602338
0.0152167
0.0163959
0.00673604
0.0232857
0.000329337
0.0133544
0.00422325
0.000931246
0.00672824
0.000420823
0.000892177
0.00224658
0.000135574
0.00368763
0.00123445
0.00267899
0.000196062
0.0104917
0.00103443
0.00467132
0.00496073
0.00453307
0.000686647
0.00068878
0.017696
0.000548867
0.00270628
0.0203501
0.00617552