/*--------------------------------*- C++ -*----------------------------------*\
| =========                 |                                                 |
| \\      /  F ield         | OpenFOAM: The Open Source CFD Toolbox           |
|  \\    /   O peration     | Version:  v2012                                 |
|   \\  /    A nd           | Website:  www.openfoam.com                      |
|    \\/     M anipulation  |                                                 |
\*---------------------------------------------------------------------------*/
FoamFile
{
    version     2.0;
    format      ascii;
    class       volScalarField;
    location    "250";
    object      omega_0;
}
// * * * * * * * * * * * * * * * * * * * * * * * * * * * * * * * * * * * * * //

dimensions      [0 0 -1 0 0 0 0];


internalField   nonuniform List<scalar> 
18649
(
3.27638
0.0263251
0.0230941
1.70973
0.299009
0.0292042
3.45807
0.256777
0.0788597
0.0230818
0.203108
2.93323
4.42452
0.023012
0.0220726
0.0508336
0.0218568
0.0505829
0.199784
2.34639
5.09637
0.0230354
6.6411
0.255508
0.0219163
2.32743
0.022451
2.85038
1.24274
0.0216462
0.0226972
0.0835862
0.022046
0.0255987
0.0228798
8.57307
0.0298277
0.0221802
0.0218427
0.238764
0.0836515
0.254924
0.0904647
2.61797
0.0266102
0.0216407
2.04571
1.67837
13.8184
0.0218977
3.81666
0.0349385
7.07081
3.47311
0.0220503
13.6089
2.73961
0.110532
1.97286
0.0228743
3.12474
0.0220554
0.0879892
1.61846
0.0221865
1.60578
0.0223099
2.77783
1.67581
0.495409
2.9458
0.0220393
0.0886495
0.0271579
0.0246316
4.56011
0.0397372
0.0333598
0.026823
0.295767
0.0218722
2.03496
2.47271
7.31541
0.0639473
0.0218324
0.0326186
0.0331919
0.0528621
0.0280849
0.0352487
0.0223609
0.0220907
2.99759
0.0231194
0.195572
0.0227856
0.197813
1.681
0.0224272
6.24766
0.0468763
0.0218297
3.82039
1.71675
0.0355216
0.0221902
0.0229553
0.0490877
0.024483
6.33521
0.0903773
0.0220893
0.0244056
0.246543
0.0238846
0.0220584
2.94149
2.67023
0.0219496
1.85566
0.0225706
0.0834766
0.0220423
2.24059
0.0219121
0.0222939
2.44596
0.0225184
2.98097
0.0220595
2.47779
0.02198
2.56212
0.0306835
0.0222167
3.03843
2.76034
0.0348275
0.0325084
1.25345
0.0221122
0.0218516
0.0219999
0.0221688
3.21743
0.0218463
0.0220864
7.11053
1.70879
0.969245
0.0222274
2.89347
0.022372
0.0223781
0.022002
0.164539
0.256702
0.0220431
0.0221065
0.0221099
0.531925
1.93905
0.0223736
2.23393
0.244365
0.022186
0.0220313
0.022405
0.0237438
0.0220638
2.97678
0.10569
0.300982
0.0221688
3.98189
9.07336
0.0267657
0.0220492
0.474842
3.38055
0.0217289
0.022264
3.82665
0.029491
0.0524765
0.0221751
0.0221276
0.0435587
0.0371114
4.84906
0.0222501
1.65519
0.0221672
0.021839
0.0222046
0.031815
0.0592695
0.0249591
0.0222694
0.0220913
0.187943
2.77227
0.029523
0.0535653
0.0741263
6.97253
2.05512
0.0228573
4.06299
0.0221552
0.0245424
0.0224928
1.7557
2.56457
0.0220527
0.0559137
0.0219716
2.23108
0.0221536
0.128373
0.0220401
3.61091
2.14685
2.33808
2.94224
0.0220806
0.022132
6.28554
4.04234
0.0440859
0.0219612
8.69465
0.0500499
2.35104
0.550058
0.145655
0.233252
0.0219786
1.08207
0.0217937
2.57833
0.0437662
0.0217306
0.0245662
0.0377066
4.14989
0.0221122
24.7842
0.0586636
9.06688
3.41874
0.0514754
0.0229073
0.0302298
2.55087
0.0220201
0.022143
0.0247702
0.0246057
0.0219498
0.086239
3.08295
0.0221225
0.0218471
2.08157
3.77747
0.0222063
3.64616
0.0218344
3.33464
0.117912
6.14989
25.2871
0.216304
0.022156
0.021849
4.39638
2.97726
2.21047
0.0221706
0.0219669
2.6973
0.0303791
8.39918
6.87564
0.0224634
0.042149
0.0222311
0.021725
0.120744
6.28279
3.6063
0.797458
5.68555
0.0233484
3.0671
3.08922
0.0218363
3.81282
0.0220232
0.0258456
0.0226995
0.0220098
0.0219255
0.2182
0.0222206
0.0630953
0.227207
0.0252516
2.32598
0.0228764
5.00319
0.0220735
0.0224646
0.0219716
0.0229897
0.0222751
2.59702
2.43305
0.0222038
0.022111
0.0846281
0.0222402
0.0220138
0.0222482
0.0221753
0.0347752
2.90987
0.0762821
3.16591
0.0220344
0.0221238
0.0880229
0.0220304
0.0215458
3.74583
0.030577
7.46104
0.0298515
0.546733
0.0220347
0.0249887
0.0225152
0.0245955
0.0220839
0.0222181
0.0217988
0.0347823
0.0498795
0.0220806
4.30081
0.0220811
0.0222147
3.46802
4.47262
0.0230822
2.25876
0.529641
2.20566
3.56143
0.0242746
3.51789
0.0220802
2.60128
6.51247
0.0228561
0.0262969
0.0305731
0.0226231
0.0222705
0.0218475
0.0220858
2.54095
0.0356873
2.32792
3.23849
0.770029
3.63886
0.0242321
0.0222892
0.0437731
0.0219703
4.53824
0.0222714
0.0222315
2.01458
3.6345
0.0232808
0.0219166
1.70921
0.054692
0.0221377
3.34918
0.0228462
0.0258185
7.8
0.025422
0.0222338
3.555
2.51857
0.0514817
0.0220328
0.0221286
2.61618
3.61792
0.021981
5.03889
0.0218315
0.0220748
3.42779
0.0218419
2.94221
0.0256427
0.250804
3.25781
4.42347
3.92942
0.0219682
13.7754
0.0220772
4.34534
0.0796392
2.36174
3.12453
0.0218422
0.0217384
1.11697
2.16399
0.0251594
23.9536
0.023174
0.0245031
0.0218583
3.01551
4.277
8.45186
0.0227401
0.0223882
2.77825
2.74574
0.026238
0.0230881
0.0219209
0.0218287
2.18754
2.42132
0.022061
0.0220759
6.36247
0.0218997
7.35765
0.0219043
12.5766
0.0538572
2.46134
0.0301332
3.53964
4.34116
0.0278515
0.0768147
0.024301
0.0675827
0.0241547
0.0220712
0.0307088
2.6106
0.0217326
0.023633
2.80044
0.0218446
0.0222174
4.10443
0.0219295
2.51266
0.0225495
0.0229214
0.0220225
0.029811
0.0227782
0.022291
0.955182
0.0220931
0.0419262
0.0221178
0.0315648
2.66098
0.0222818
3.98035
0.0280017
3.48149
3.65718
3.6519
7.01543
0.0305403
0.0991417
0.0443958
6.20049
0.0221837
0.148357
0.0243368
0.157907
0.203617
0.0636668
0.0222348
0.82185
0.248292
3.4537
0.0222247
5.72982
0.0247339
0.127608
0.022113
0.0863658
2.67922
0.0222122
0.0220431
3.7647
0.0219302
0.189711
0.0219269
0.0299685
0.0224757
0.0434253
0.0219316
0.301724
0.022275
3.48723
0.0222577
6.82392
6.70857
2.98873
2.66329
0.0234892
4.56859
0.066653
3.06828
4.17456
0.0219432
0.0419966
0.239743
0.0231756
0.307692
0.0224286
0.0221976
0.0231504
0.0220813
0.0222801
0.0224589
15.7096
0.0218359
0.0219888
0.0285745
0.0249321
0.940868
2.95636
0.0221821
0.0898983
0.453238
0.0634797
0.0221202
2.70016
4.10266
6.05442
0.343126
0.0439588
0.0243105
0.0314541
0.0353588
0.0226368
4.94045
0.0220258
0.0226202
0.021783
2.8967
2.43018
3.40732
0.0313739
0.0220279
2.59591
1.6068
3.21169
0.0323302
0.0487001
2.7899
0.0220575
3.74903
0.0247883
0.0235718
0.0227042
1.18875
1.68076
0.0225536
0.250309
0.0305795
0.0230834
1.97727
0.690912
0.0220611
3.05107
0.034934
3.75402
0.0223797
10.4185
0.0426136
0.0310137
0.0224584
2.54358
0.062265
0.0788086
0.0943771
2.4617
0.0251383
3.25819
0.0225213
0.032577
3.35777
0.0290073
0.0220413
0.0502497
0.0231394
0.0839913
0.0219748
0.0220715
1.28056
1.13244
2.14946
0.0222659
2.53829
0.0218992
0.390854
0.0526742
0.0217897
0.022233
0.0228332
5.86435
0.0226783
0.102593
0.131646
0.0443473
0.0221004
0.0219588
0.024477
3.23079
0.0220596
0.0323534
0.0218231
4.04184
0.0222706
0.0238936
0.0227116
0.0218434
9.20901
0.235537
2.70989
0.0266884
8.99535
0.0344541
0.021845
0.0331977
1.70711
0.0254198
0.0222768
3.28713
3.84614
0.0220872
2.60797
10.0513
0.0225637
0.0226263
0.0728165
0.0226627
0.0220616
1.82884
2.90352
2.43914
3.29551
0.0220581
19.2575
0.0220282
0.0220092
0.0218324
1.63669
0.0222257
0.022185
2.76366
2.80558
0.0236702
7.59563
0.0328073
0.0220625
3.65565
0.0273718
0.647288
0.0227956
0.625155
0.0215857
0.0254312
0.0222834
0.288187
0.0220916
2.04249
5.39315
0.219015
1.77437
2.18272
0.0291185
3.13626
8.77193
0.131538
0.0227701
0.0221998
2.00086
3.81877
7.67475
0.182788
0.0674158
0.0220875
0.0274632
3.36665
4.57623
0.0220266
0.0249882
2.81223
3.52457
2.28623
0.174724
0.0222807
0.0234782
2.63116
2.29187
0.0218859
0.0298377
0.0218567
5.87096
0.0221161
6.51835
0.068774
0.0220858
0.022299
2.66613
0.0220715
0.0274761
0.0220692
0.0221347
0.0220433
2.83812
0.108023
0.578197
3.57066
2.74824
3.00817
0.0222831
6.49276
0.0266716
0.0273499
3.80176
0.0220834
0.0220881
0.0219214
4.99177
2.94541
3.99542
0.0220581
0.0303764
0.0218324
0.0218364
0.0215518
0.0243312
0.0438243
4.07802
0.0324764
0.0220127
0.254057
7.33906
0.0535792
0.022015
2.99105
2.17414
0.0220267
1.67365
1.17166
0.0541312
0.0292853
0.0221581
0.0243847
0.126023
1.68715
3.94945
0.0222866
3.74907
3.07593
5.9222
0.0226347
3.03461
0.270088
2.75665
0.060319
7.62018
0.0219723
2.87317
3.36398
5.67223
0.0222211
0.0220524
0.0292705
1.36154
0.0224109
0.21313
0.0228449
0.604989
0.031102
2.73908
2.9018
0.0219118
1.93089
0.0628278
0.163161
0.108526
2.98143
0.0220589
0.169488
0.0983158
0.473255
2.34
0.0221125
3.64313
3.91219
0.0220655
2.51503
0.228013
0.021894
3.45305
3.67203
0.0227396
0.0415695
2.47711
0.0220642
2.31183
0.022155
0.0220488
0.0220843
0.0358119
0.0220191
0.021624
3.04678
0.0222912
0.0255676
0.0225349
3.86886
0.0430671
0.0220631
0.0219219
2.31697
0.0223889
1.42003
2.94981
0.0310926
4.07427
0.0241825
0.0308801
8.00352
0.363974
0.0295221
0.0220254
0.0304021
0.0315013
1.43813
0.022963
0.0220471
0.0619958
0.0222183
2.77426
0.0545657
0.0223537
0.0220923
0.0296917
0.029604
2.20523
0.022087
0.0218509
3.85217
0.0220441
6.45963
15.0414
0.0280738
3.05675
0.0221609
2.45104
0.0221331
0.107224
1.15655
0.30407
0.0446699
0.0219945
0.102611
0.0229887
2.25461
3.79787
10.7953
0.4563
0.058408
0.0231047
0.0247838
2.85102
2.79353
0.02203
3.94435
4.27074
0.0218521
0.0758082
4.42802
7.40727
0.0219323
2.85371
3.83453
2.47236
2.39255
3.36593
5.82516
0.0598595
0.0220572
0.0268988
0.0415877
0.0220543
0.022822
2.28287
0.0227896
0.077291
2.87908
0.94475
3.24656
0.0413598
8.98494
0.207922
0.100229
0.0222815
1.70524
0.0220708
3.28683
19.9492
0.0221994
0.116745
0.0221282
6.42999
3.66759
0.669129
7.52344
0.0217168
0.0225063
2.70443
0.103507
4.47832
0.0217086
0.0220409
0.0220817
0.0246039
0.0563299
0.0219669
0.0219297
0.0268823
0.0250536
0.0221397
0.250992
0.022043
0.0306595
0.0220597
0.0227142
0.303199
4.03189
10.807
2.86284
5.02684
0.901219
2.49436
0.0245381
0.059071
2.57268
0.0229088
0.0220304
0.0220888
0.0228272
1.20783
0.0931396
10.4284
0.0626931
0.0270364
2.52098
2.81883
15.4542
0.0991255
2.7728
0.0234382
0.0220728
0.0220834
0.0222937
0.0219943
0.1787
2.92501
0.11223
3.28776
3.78417
2.50457
0.0286581
0.0220589
0.0980422
0.0289651
0.0808654
7.88558
0.0312935
3.83635
12.5094
0.268023
2.45559
0.0216165
0.021942
0.0291575
2.12834
0.0243864
0.0221345
0.0225317
0.0271043
0.0220735
2.13167
0.0238811
0.0222807
0.0219677
0.280709
0.024474
0.0270815
1.68143
0.0218425
3.12784
0.0302945
0.0622094
0.0219914
2.52277
0.0221547
0.180304
1.56091
3.50613
0.0218998
3.03303
0.0350391
0.0241016
0.0347485
0.0231286
0.074409
0.0246967
0.0219402
2.59311
0.478116
0.023639
2.14382
2.04142
0.022065
0.0220846
0.0394704
0.022525
0.0226661
3.37893
0.021557
0.0220755
0.0221589
4.10339
5.7118
0.0348322
3.40722
0.0430522
4.34242
2.78076
0.0236013
0.0221824
0.213553
0.0236077
3.66914
4.70067
6.01427
0.0220747
0.0591874
2.55787
0.022057
6.28208
2.15413
3.27868
0.0221082
0.0220779
4.02284
0.0280877
0.0217713
0.0315042
0.0224328
0.0224092
0.0236458
0.0221154
2.46032
0.0627083
0.0220574
0.496932
0.0220705
10.137
0.0584749
3.81381
0.0227684
4.2763
0.213418
0.0220818
0.494905
0.0220174
3.20836
3.06255
0.0236504
2.89533
0.022043
0.0220777
7.63978
0.0220452
12.9606
0.0452319
0.0221876
2.27996
0.0219093
0.0739373
0.0220982
0.023145
0.0232315
0.0337839
0.0221053
0.0219787
0.0219118
0.0220888
0.0225872
3.44046
0.0220901
2.90862
1.73721
0.0241333
2.17068
0.0219643
0.0219591
2.33091
2.94879
0.412663
3.69253
0.0248281
0.0232068
0.0493228
0.0220507
0.0304316
0.0223557
0.087101
3.9719
0.213102
0.028538
0.0252067
11.3223
2.36496
0.03517
3.15719
0.0321156
0.20264
2.81563
18.3654
4.20486
3.17021
0.0596231
2.51179
4.30916
0.0493429
0.0220476
0.0220225
4.03152
0.0250749
0.429591
4.15839
0.0439424
0.0244734
0.0220807
18.5633
2.28645
0.0402906
2.59586
0.0230727
0.02338
1.70679
0.0220611
0.0220809
4.02651
0.0228587
0.0673388
2.42565
3.68595
0.0229073
0.0222806
2.63441
0.130521
7.82783
0.0219698
6.19439
0.393477
1.70093
0.0221749
2.52035
0.0218427
0.0242487
0.0225949
0.022069
0.145748
0.0219932
0.0221511
0.0222879
0.023214
2.72031
3.61799
0.0221732
3.56853
0.0997181
4.14297
2.75571
3.00887
0.0218408
0.0219567
0.498953
0.0231746
0.0222886
0.0219479
0.0245831
0.192791
0.0221513
2.71835
2.37452
0.0222747
0.0243737
0.0220324
0.0220763
0.22904
2.29569
0.0220835
2.42012
2.73142
0.0220195
3.91912
0.0221381
2.75812
0.02205
0.0215972
2.60589
5.31157
0.0221271
2.2799
0.0235266
2.66495
0.0230925
0.0603321
2.40091
0.0288505
0.628236
2.27062
0.0229909
0.193901
0.0331837
2.31981
3.66581
0.0231698
2.82539
0.0227054
0.0276862
0.0221148
0.0690266
2.59631
0.0248543
9.02488
2.58182
0.0433555
4.08616
0.022228
2.28915
0.0220548
0.227796
0.0226922
0.0218328
0.0977617
2.59312
5.52512
0.0313873
0.132321
2.40167
0.024559
0.131169
2.95936
7.55023
2.26125
2.80781
0.210324
0.0628726
0.0219175
0.022086
3.55115
2.50336
0.0221192
0.204037
2.29638
0.0532957
4.1388
0.236156
2.83565
2.28432
0.0266571
2.42121
0.0312437
0.0970699
2.78675
3.8205
3.14912
0.105165
2.48295
2.80043
0.0255327
0.0220688
0.0224873
0.0279238
0.0219978
0.0218422
0.757502
18.1722
1.67066
0.0220548
3.13954
2.69526
0.101442
0.454907
0.0335902
2.72998
1.96702
0.0220687
2.97598
0.121734
0.0220044
0.021621
2.45977
0.0219255
11.2767
0.0228688
0.021955
0.0225232
2.26553
1.08883
0.0587696
0.511629
7.04001
3.63672
3.6299
0.0220817
0.392459
3.32537
9.86285
0.0221358
0.103084
2.40708
9.40985
0.0220594
0.0222716
2.46613
0.386452
0.0517482
9.28477
2.57396
2.52786
0.0220792
0.0220289
0.0221104
0.113848
0.671737
0.022808
0.0221218
0.217844
0.137207
0.0617928
0.0221097
0.0225978
0.0220251
0.0621514
0.021651
0.102938
0.0223296
0.0221178
6.81853
2.45498
3.54255
0.0220965
0.0365385
3.6601
0.0231334
0.0226687
0.0217865
0.0225539
7.75456
0.0220222
0.0220565
0.0222429
0.0221894
0.0219898
2.61296
0.0217703
0.0918832
0.477464
0.022031
0.0222942
0.0225915
0.214709
0.156935
0.0222769
0.0220916
0.055377
0.468997
0.0224541
0.0719245
0.0284417
8.17921
0.0242667
0.0607749
0.0219185
2.42311
4.63197
0.216761
0.0222718
6.41877
0.0407353
0.022075
0.0908655
0.0222779
0.0220186
0.131326
0.0553644
0.0431763
0.0221222
0.0221374
0.0219943
0.0802393
0.0216235
7.6582
2.54636
0.0338454
0.0294431
0.022563
0.207066
0.0222251
0.0221492
0.0222403
0.0609395
0.0278944
0.0254855
3.83636
0.0221033
0.0911635
0.0216429
0.0228385
0.0240472
0.0954431
0.0220818
0.0219831
0.025512
0.0285473
0.0220978
5.13091
0.0220839
2.64374
0.593336
0.0220955
2.46905
2.36448
4.25664
1.70486
0.0290277
0.0220271
0.988042
0.1602
0.0266477
0.0219373
0.0390576
6.96017
0.0220546
0.0219941
0.0222298
0.0222759
0.239587
0.0220426
0.0236056
0.0221111
0.0219542
0.0301748
0.0448671
0.026131
2.39737
0.108203
0.0220805
0.0231883
0.0220819
0.058241
0.0227321
2.01945
0.0220073
0.0220812
2.49605
0.118404
0.0220762
0.0220881
0.0218302
0.0220292
0.0293254
0.0216555
0.0220935
3.51306
0.0682718
2.36602
0.187909
0.0220834
0.0220218
0.0654765
0.0243174
0.462269
0.0220395
3.24414
0.0219817
0.0219848
0.0288062
0.237603
3.17327
1.69971
3.85068
0.0220241
0.023451
4.27671
3.56197
2.62118
11.3304
0.0216255
0.0852291
0.0235573
0.023088
0.0220842
0.0268346
0.0219634
0.0228836
2.97642
0.0218152
0.021925
2.49018
0.025546
0.0220215
0.022093
16.3636
0.110116
0.0218107
0.0805982
0.0306719
0.192631
0.800717
0.0222745
0.0792723
0.0219411
0.096282
0.0454468
3.22524
0.0220437
2.79505
0.0220646
0.0229393
0.0221136
0.0222809
0.0220726
0.0219704
2.12027
3.13688
0.0222743
3.55465
6.90978
0.0218203
0.0219396
3.29744
0.225984
0.100952
2.15179
0.0451894
0.0219589
0.0220354
2.99818
0.0221193
0.141255
2.41037
3.40265
0.0225627
0.0251312
0.341826
0.0828729
0.0422754
0.0622484
0.0316613
4.61272
0.0222711
8.7764
1.69546
2.74342
0.0220897
5.9136
0.023214
0.393734
0.0221348
0.102317
0.0219371
0.503682
0.507979
0.0227364
2.58824
2.71822
0.0221378
6.3554
0.0219494
0.0233566
0.0220807
0.374326
0.0220225
3.56223
0.513259
13.6815
0.0222723
0.0221175
0.0313978
4.85125
0.0300223
0.0884809
0.022055
3.73413
0.0242003
0.132059
2.59799
0.0221083
2.62194
0.0630767
0.155712
0.0220737
0.0263958
0.0338881
0.0231739
0.0549661
0.0220671
0.0220684
0.249474
0.0219195
6.48502
0.157863
0.0667941
2.65806
0.0284597
2.71221
2.54949
3.31476
2.57083
0.0225878
0.603447
4.03987
0.0278207
0.0222242
0.0231542
0.02223
0.0249295
0.224788
0.0395954
0.0742847
0.11325
4.07418
0.0217323
0.0743253
2.24609
3.47734
2.13389
0.0220737
0.0221067
0.0217381
3.75585
0.128283
0.183567
7.14136
0.0491945
0.0336084
0.0219432
0.0436561
0.02356
2.76281
0.0414087
0.0217972
12.9903
0.0373258
0.118902
0.0363362
4.04229
0.0237702
0.0216939
0.0221075
0.0248306
3.9074
0.0218355
0.0220702
0.619127
0.0382228
0.021927
0.0216781
0.0388436
0.144723
0.0537059
0.184872
0.0226785
0.0219086
0.0386138
0.123545
2.21583
0.129761
0.614875
0.0220425
0.021668
2.64943
0.0221542
0.0218185
0.021891
0.0240832
0.0380244
0.0322878
3.87443
3.96554
0.0973063
12.1519
1.29589
0.0220838
1.7066
0.186812
0.420891
0.0220662
0.0217599
4.05675
0.0267707
0.024721
3.03589
0.0219815
0.0220754
3.1699
0.166894
0.0824658
0.0220702
0.0217078
7.2302
0.387678
0.0220562
0.028163
0.022062
2.82484
0.235128
0.0449214
0.0221077
0.022149
2.37193
2.66103
0.0249214
0.0219806
0.0230243
0.0230589
0.0416676
3.84504
1.94453
0.0219162
0.0220969
3.35677
0.0379204
0.0232634
0.0284146
0.0237745
0.0224464
2.31556
0.0221579
0.200854
4.27249
0.0220885
0.0220874
0.0221418
7.62774
0.0218034
2.66625
2.93968
0.352851
0.0222829
0.511916
2.14993
0.0215868
2.39738
1.58338
3.65329
0.0222657
0.0220641
0.438731
0.0222305
2.72642
0.391283
4.62432
0.0220579
0.0300723
3.4566
2.55085
0.0311762
0.0221202
0.0583514
0.0221192
2.14234
2.69001
5.47648
0.0708683
0.0252869
0.0222769
5.78059
9.85667
0.0220477
2.28868
0.139901
5.02807
0.0265896
0.0220859
4.75352
2.47955
0.0405577
0.787749
0.0240126
0.110482
0.0406278
0.0449248
0.022237
0.0220756
0.0278036
2.6289
2.72264
6.0817
0.0296001
3.98221
0.0222885
2.17688
0.0220774
2.50739
5.36704
0.0220637
0.0281627
0.0219363
0.0220405
0.0220544
0.43249
1.69453
0.0220675
3.96406
0.0220858
0.030315
7.1654
6.80457
0.0444588
0.0634084
1.97913
3.90996
0.48667
0.0219817
0.0221451
0.0220482
0.0219854
0.0220475
7.97907
0.0216261
0.0227436
0.0216296
0.0259151
0.023965
0.0739815
0.0311135
0.0221114
1.9225
0.0220652
0.0252119
0.0324396
2.65106
0.0217357
0.0221717
0.0234164
0.0228658
2.12079
0.0950681
0.0220707
0.0220602
0.207887
0.0218956
0.0220601
3.25536
0.310771
11.7777
0.0248671
2.30061
4.55075
0.0293902
0.0231382
2.91984
0.0215988
0.0220932
0.0221203
1.12274
6.39131
0.0237563
0.103097
3.13097
0.0288572
0.0219904
0.0238494
3.53832
0.0220397
5.37341
0.0222775
0.0702191
3.66764
0.0250903
2.42709
0.195934
0.809735
0.0580981
0.0219595
0.0229894
0.0513559
0.0220624
6.42104
30.4533
0.0225019
0.0222879
0.0405489
0.026542
0.393601
1.1914
2.56755
0.0220714
0.022174
2.22912
0.0221901
0.048355
0.0317778
0.812376
2.84669
0.441924
0.0278193
0.143092
2.03272
0.0774854
0.0811743
0.0224044
0.0427398
0.0223508
2.09552
0.0240459
6.05186
0.0739557
0.0219908
1.49698
0.0230751
0.0221538
0.0463071
0.0287661
8.33224
0.0220166
0.0226666
0.02206
3.75124
0.0217397
2.63328
2.61875
0.0220506
0.0217434
2.26759
0.0236469
8.10902
2.48036
2.42625
0.0747072
2.34985
3.93592
0.0221121
0.0220133
0.0585783
0.0220751
3.03804
0.0223154
0.144554
0.0377869
0.0603868
2.48287
0.0634814
0.0220636
0.0219803
2.88758
3.73237
2.80071
3.13774
0.0308598
2.40237
0.0221338
2.44895
3.58255
0.485193
0.0956111
0.573328
1.79249
3.2098
0.0220495
0.0725138
0.0242062
0.0220426
0.0232283
0.021847
0.0226771
8.27286
0.0219807
0.287298
0.680749
6.21112
0.635764
0.0372604
0.0328405
0.0236625
0.0220721
4.7184
4.2246
0.123894
0.0222174
3.88135
0.3533
0.0315121
3.35728
2.71077
0.0220673
0.0221951
7.96949
2.97582
0.0220704
0.0219294
0.0548393
0.0217797
2.5353
0.802304
0.0399414
0.0221432
3.43218
0.0218993
0.0243846
0.0267607
2.44601
0.0994912
0.0478923
0.027328
0.0657964
0.130598
0.0227187
2.32641
0.131774
2.60364
0.0612889
3.44196
1.64123
13.7549
2.77806
0.0240752
0.030465
5.56878
6.91157
2.27385
0.0504332
0.0221716
0.022622
0.0916771
0.0220647
1.60436
2.69303
6.14059
0.0228207
0.0236388
0.0221987
0.0246448
2.61137
3.1465
0.0218187
3.5996
2.81714
3.15154
0.0498615
3.4952
0.022782
0.0220938
2.85939
0.0219573
0.0228159
0.0226397
3.06969
1.66621
0.027444
0.0691101
3.51026
0.0222726
0.0490686
0.0340344
0.0242368
3.57255
2.87836
0.0220888
2.53038
10.8701
0.0221971
2.60635
2.41349
0.146283
0.0279104
0.0262231
3.16925
0.023995
0.021949
0.0220673
0.135756
0.0427921
2.49144
9.94514
0.0222668
0.0235387
3.19234
3.53817
3.07846
0.022186
0.0989209
0.0218907
2.6899
2.82321
10.8275
0.0388395
0.0222699
0.0217018
0.0220874
3.13787
0.0226959
0.0220195
9.60771
0.0221487
0.0218436
0.0336729
3.12653
3.56384
0.458182
0.0221336
3.65936
0.0217223
0.0215149
0.275117
3.84696
3.49333
17.328
0.025685
2.68089
1.3341
0.0219943
0.4915
0.0221941
0.022055
0.0219651
0.0221062
0.0220793
0.0218567
0.0390944
5.78494
0.0219834
0.0219792
0.0237425
0.0410558
0.123268
0.0220894
0.0221231
0.0220533
4.31948
0.0219397
0.0219549
0.0250391
0.0221909
0.314471
0.022065
3.30662
2.7244
0.0322639
5.03197
0.0219032
0.133812
2.3673
0.0220813
1.6501
0.37778
0.109191
0.0222265
0.0217959
3.07813
3.45743
0.0683119
0.0218076
0.0238424
2.4722
0.0221967
3.72335
0.0219994
0.0221
0.0221037
1.61204
0.0243867
0.0219557
0.0220785
0.0680093
0.0824692
0.0306253
0.342297
5.84612
0.0221773
3.31429
0.0220898
0.0821313
3.95974
0.0301687
2.72557
2.47784
0.0330321
0.0222121
0.0220632
2.32223
3.93317
0.0241518
6.08104
2.56952
0.0220799
0.0219893
1.12894
0.232133
4.57299
2.44511
0.0222733
7.31326
0.0222772
0.0220712
0.0223409
0.0263359
0.0220732
0.0230901
0.0221491
0.02217
0.0239796
0.0220387
2.13413
0.022084
0.115494
0.0220342
0.0223012
3.43651
2.42287
3.34523
0.0276068
0.0931018
0.0404048
0.0222068
0.0222424
0.0295067
0.0669868
0.101249
9.21601
2.67424
0.114498
16.9922
0.0226417
4.06076
0.0220629
0.0267792
6.89404
0.027804
2.54331
0.0221188
14.2636
2.73056
0.0842137
2.95995
0.0665042
7.48097
0.0217968
0.021582
0.0220366
9.74683
0.20905
0.0318445
0.0220598
0.0236405
0.0220995
0.0223291
3.61302
0.576354
0.0227254
0.278975
0.0220332
0.112326
0.436364
3.04326
0.0217133
1.64888
0.0218836
3.02309
2.55308
0.0455271
0.0813341
0.0251232
0.135217
3.68704
3.53615
0.0242361
0.0275325
0.023801
0.0331049
0.0288155
1.73485
0.0368667
0.114787
0.0220823
0.02231
0.044538
0.0223587
0.0219511
0.053158
2.59122
0.0216454
0.0749705
0.0837158
1.33495
0.256746
4.85282
0.153056
0.035008
0.0220312
6.89081
0.0218993
0.0222797
0.0221279
0.0221766
0.0344383
0.0313782
0.0223524
0.172451
0.0283355
0.21176
3.56773
0.054904
2.67892
0.0220785
2.611
0.0794819
0.0272933
0.0222861
0.0964303
3.18102
0.0219191
0.0290311
5.35884
0.0410288
0.0234867
0.215076
3.40781
0.0220828
0.0219134
2.50169
2.89148
2.96763
0.0361187
0.0220448
2.6832
0.0218357
0.0220573
0.0221414
0.0232328
0.0583802
0.0221098
2.61508
0.0281877
0.0829776
0.0219338
0.0221631
0.0233647
2.77986
1.72952
4.06866
0.022645
1.64391
1.17096
2.11333
0.0220575
0.0244078
2.65322
0.0221949
2.63359
2.51917
2.68375
0.0226221
0.0216087
0.0219537
0.0226379
0.0223797
2.68569
3.48846
0.032802
3.69665
0.0227289
2.4763
0.0219705
0.0220597
2.86566
3.12461
0.0216867
0.0280261
0.470567
0.0221801
2.71208
0.0312334
6.41796
0.0221099
9.36189
25.4049
0.0245219
5.46056
2.45854
9.52268
0.370875
0.0823648
0.0831699
2.32649
0.0220457
0.0221076
0.0220453
3.73017
0.0220773
0.0223788
0.0222014
0.0749734
0.0220568
0.0216265
3.0283
4.88942
0.217888
4.53603
3.79732
0.0222838
0.383518
4.80013
0.0406332
0.021963
0.0219154
0.0289942
6.16684
18.0627
3.96259
0.0219472
3.46378
2.82027
2.0194
3.03107
0.0223226
0.20266
0.0217975
0.022022
3.54177
0.272393
0.060264
0.0220829
0.0221252
0.0388189
2.34938
2.25199
3.86647
0.022262
6.86392
0.0221416
0.579561
2.23828
2.2584
0.0220271
0.0220802
10.048
0.0219584
1.95791
0.0219449
4.35741
0.022141
0.082364
2.79768
0.0242107
2.485
0.0448348
2.85253
0.0220569
3.11362
0.0226151
2.79321
4.62759
11.9327
1.67342
0.0220948
1.67216
0.265198
0.0443065
0.167439
3.53384
0.0256068
0.0219617
3.0447
0.0231021
0.0230484
2.36339
0.0222788
0.022278
5.80423
3.76255
3.42653
0.022108
8.00733
0.0220581
0.0270119
3.77047
0.024791
0.0223607
1.7149
2.61923
0.242226
7.41058
0.0220361
0.112045
1.17763
2.32425
0.0424623
0.122459
2.95265
5.58612
2.5518
0.0217677
0.0236442
0.0290332
0.0230527
0.0220269
0.0287682
0.0220689
2.45966
2.70884
0.0350194
0.0218209
0.0223752
0.0346531
0.0220894
3.53275
0.222723
2.78698
0.193993
0.0221397
0.0220415
0.402225
0.0224149
6.68415
0.0220634
8.89823
0.235671
2.53587
0.0823683
0.0222951
0.0589684
4.58198
0.0871994
0.0220572
4.31754
0.0218662
0.026345
0.0436673
0.0472248
7.45485
2.38682
0.0466654
3.6973
2.1263
0.0339575
2.11555
0.103054
3.50596
0.0623436
0.0215913
2.73947
3.85868
0.0267964
5.20927
0.052605
0.0438661
0.0528826
0.0297302
2.41369
0.0220992
0.0217235
0.0220711
0.188501
2.30867
3.66102
0.0219344
3.09413
0.191145
2.75969
2.41002
3.60582
0.0221287
4.44865
4.1534
0.0222589
0.0562802
0.0222834
0.0233829
0.0221158
0.0355496
3.94791
0.0344811
12.026
0.021934
0.0220495
0.268385
0.285415
4.03734
0.0267734
0.022835
3.91639
3.6323
3.4999
2.36688
2.4375
8.61429
0.0639161
0.022328
4.60589
0.0220353
4.90266
2.51212
0.661969
4.18103
6.56455
0.0220333
0.0222148
11.5556
0.274611
0.0904364
0.0222095
0.0223083
1.40895
3.55368
3.95425
0.0545464
0.0297431
0.0219448
0.0220426
0.0219621
0.0221602
0.0449868
0.022128
1.71047
9.6858
0.022138
0.0220496
0.0219529
0.785903
0.0522194
3.59857
0.0220514
0.0225424
0.3149
0.0219964
0.358778
0.0801202
0.0915717
0.148885
3.8197
0.0220531
3.69825
0.0443582
0.0220924
0.0441026
0.0225231
2.46524
0.0242861
1.9045
2.90459
0.0220065
2.75349
0.0238507
0.187545
0.0722136
0.229011
0.0757657
2.47409
0.0217304
2.25732
0.0297652
3.99568
0.0240253
9.1292
0.120497
0.0289795
2.46235
0.522862
0.0219874
0.0258275
9.21138
0.0536125
2.34423
0.0443972
2.84133
7.93101
3.29039
3.43797
1.66629
0.0221493
0.0220325
2.34853
2.54263
2.44719
0.0220518
0.0220731
0.0734634
2.67195
3.34805
4.755
2.30749
3.93049
0.0496508
0.0218769
0.0226268
0.0387187
0.0478455
0.0216832
4.48318
0.1991
3.64748
3.76997
0.0219824
0.021805
3.36235
0.0747536
0.0221062
3.16049
2.13601
1.32812
0.0239467
2.5578
2.52984
2.11861
2.79175
0.0221123
0.0356182
2.57236
0.0337667
0.0278769
0.260602
1.58802
0.0386007
0.0679134
0.0217708
2.81698
3.6182
2.67933
0.022094
0.0487329
2.59226
0.412854
3.41482
2.36755
8.34379
0.0220735
0.0371607
0.125753
4.01559
0.0249067
0.0346885
0.0222578
0.0220112
0.0223166
2.66606
3.66911
3.21941
0.0702592
2.42267
0.0221332
0.0247249
0.0235499
0.0368851
0.0230606
0.0950056
0.0280587
0.0280041
0.0221895
0.0241572
1.07195
2.98991
0.0220643
0.0222305
2.76886
4.87743
0.0236183
0.0391387
0.0255826
0.021844
0.022197
2.41413
4.84194
0.442701
0.249528
4.41376
0.070113
2.33424
5.60557
4.38055
3.41582
0.0221178
0.446115
3.73144
0.0221541
3.08085
0.0220657
4.0841
0.0221399
2.13297
2.5196
0.0219151
2.81862
0.0530993
2.87408
0.0408054
0.0221268
25.1205
0.022055
0.0219738
2.32431
3.62798
0.021809
0.594457
0.0622747
0.0229911
0.0231315
0.0307377
2.38448
0.0242909
2.35035
0.151454
0.0221086
3.08958
3.17776
2.38174
0.0244428
0.0221891
0.0221999
4.68496
0.023073
0.0272864
11.1211
2.38949
0.024861
2.7542
0.0309699
0.0237697
2.95426
0.022071
0.775115
2.51495
14.1162
3.83769
0.323768
0.0222332
0.0223518
2.23429
0.0302374
0.0236253
3.40648
5.20037
2.85796
0.021963
0.0220618
0.0297296
0.49817
0.0296869
0.024444
0.0294257
0.0220452
0.0495761
3.82296
3.19112
2.92877
0.0221845
0.0416724
0.022055
9.96776
0.342434
0.0222413
0.0224769
0.0294654
2.74858
0.0614688
0.0229356
0.0317413
3.21615
0.0320876
3.77335
0.0336774
0.0221386
0.0218548
3.73566
0.0746764
4.11576
3.13567
2.77989
2.28786
0.0300776
2.24923
2.74199
2.24273
4.72174
12.4659
2.5325
0.866793
0.0226947
0.022885
2.94204
0.0217886
0.0879603
4.10392
3.0571
0.0222244
3.27339
0.0886315
0.029876
0.26131
0.157728
2.55824
0.0221713
2.82752
4.57603
3.89332
3.15539
0.0229139
0.0222985
2.71671
0.0835152
2.43269
4.45689
0.0220687
0.0222306
3.23025
2.52783
3.26396
3.57501
2.30652
3.61671
0.0221085
3.88147
0.0330298
0.0219964
0.0236033
4.34401
0.0221093
2.73597
0.0270108
3.73475
3.68906
0.257861
3.20727
0.22431
1.65705
2.76831
2.60891
0.148088
0.504639
0.0300927
0.0222893
10.1936
4.36947
1.90734
0.0220551
2.4905
0.0236893
2.08268
2.54727
0.0217105
3.15785
0.0236572
2.53135
3.75281
5.25841
4.12344
3.58448
0.083748
3.92008
0.0238481
0.0277576
0.383726
0.0220558
0.0222696
0.143992
0.022274
2.71392
0.206094
3.09266
2.65008
2.93414
0.0336733
3.26722
0.741052
0.121368
2.50082
0.0220164
0.428567
3.94436
2.75139
0.111147
0.0215901
0.0955397
0.0222508
0.0469451
0.305407
3.04419
0.0218098
3.21695
2.14058
4.84882
4.84267
0.0270675
0.651446
3.54961
0.0335276
0.0238743
0.0221968
2.80628
0.0620558
3.19592
0.0268184
3.73721
0.0257977
3.84833
2.12939
0.0400142
2.41306
2.36317
0.0319565
0.02208
15.7595
3.58931
4.09453
0.0270812
3.14981
0.0221338
0.0221968
3.15025
4.24212
2.60491
3.76248
0.533341
0.259336
0.0221031
0.128135
3.72608
2.8205
0.0220504
0.0312471
0.0903497
3.69598
3.57117
1.93864
0.0440608
3.65623
2.7753
0.0221108
0.0238039
6.34138
3.50013
0.0243504
0.0231568
3.13522
0.0219281
0.0220745
0.0436982
2.72781
0.0221203
2.6746
0.0219796
0.0220935
0.0221223
0.022233
0.022065
1.72883
0.0275443
1.46661
2.3838
2.7921
2.72652
0.0231635
3.71875
0.0218795
0.0490504
9.72883
0.0401689
0.0227629
0.0263101
0.0217767
0.108267
0.0220892
0.0287848
4.08494
5.22069
3.69441
0.0557057
2.2704
0.620248
3.16138
0.0220452
3.63882
0.022063
0.46791
0.321926
0.15344
0.0220918
0.38148
0.0430097
0.0221344
0.751477
0.0219711
0.0497032
0.0222633
0.179244
6.39784
0.0224532
0.0275492
0.515049
1.04832
0.0996728
3.99631
0.0266059
7.50003
2.75397
0.0226761
0.0218567
0.0353996
2.78503
0.553353
0.206105
0.0221648
0.0221629
0.071325
3.69428
2.27492
3.73008
3.1087
0.0220517
3.68787
0.0221761
0.0264938
0.0219908
0.0417078
0.0311658
0.0284075
0.0327087
0.380684
0.0219284
0.0246781
2.38618
0.0220796
2.66849
3.13918
2.53522
0.0390596
1.99305
0.0218533
0.0220564
0.0220742
0.0529123
3.42209
3.71834
2.1092
0.0299327
0.0222947
3.72603
0.0220441
2.73412
0.0264261
0.0219866
0.0221471
7.34939
3.78322
0.660525
0.0272134
0.0221649
0.0223914
0.021566
2.58793
0.0294439
0.0618277
0.0890191
0.596231
0.207968