/*--------------------------------*- C++ -*----------------------------------*\
| =========                 |                                                 |
| \\      /  F ield         | OpenFOAM: The Open Source CFD Toolbox           |
|  \\    /   O peration     | Version:  v2012                                 |
|   \\  /    A nd           | Website:  www.openfoam.com                      |
|    \\/     M anipulation  |                                                 |
\*---------------------------------------------------------------------------*/
FoamFile
{
    version     2.0;
    format      ascii;
    class       surfaceScalarField;
    location    "250";
    object      phi_0;
}
// * * * * * * * * * * * * * * * * * * * * * * * * * * * * * * * * * * * * * //

dimensions      [0 3 -1 0 0 0 0];
oriented        oriented;


internalField   nonuniform List<scalar> 
27740
(
0.00652648
-0.00366622
-0.00286026
0.181481
-0.210991
0.0295108
-0.0882187
-0.165814
0.254033
0.00454183
-0.00638596
0.00184414
0.0194177
-0.034897
0.0154793
0.119695
-0.236846
0.117152
-0.00199222
0.00123725
0.000754975
-0.121988
0.135824
-0.0138353
0.04193
-0.181259
0.13933
-0.167267
0.184012
-0.0167452
0.00597335
0.0974167
-0.10339
-0.000532524
0.0159696
-0.0154371
-0.0516693
0.130655
-0.0789854
-0.270488
0.182269
-0.338477
0.233408
0.105069
0.220117
-0.159704
-0.0604136
0.317783
-0.490981
0.173198
0.0593051
0.160812
0.117973
-0.0619869
-0.0559861
-0.00825087
0.00618326
0.00206761
-0.000586931
0.00125357
-0.000666639
-0.0909116
0.247431
-0.156519
0.020862
-0.00997529
-0.0108867
-0.133634
0.00517136
0.128463
0.162475
-0.385341
0.222866
-0.00822495
-2.59137e-05
-0.118603
-0.147536
0.266139
0.0159217
-0.0164542
0.0106491
0.109467
-0.120116
0.557127
-0.342331
-0.214796
-0.152175
0.302936
-0.150761
-0.105013
0.0963102
0.0087023
-0.217165
0.437374
-0.22021
0.103943
-0.186811
0.0828675
0.239441
-0.0790398
-0.160401
-0.017029
-0.00020731
0.0172363
0.123892
-0.103147
-0.0207452
0.205019
0.0376123
-0.242632
0.215077
-0.449134
0.234057
0.005521
-0.127509
0.190663
-0.148734
-0.00642682
-0.127208
0.133432
0.0352697
-0.168702
-0.0145009
0.0124389
0.00206203
0.195462
-0.0139816
0.366862
0.190265
-0.00146469
0.00530407
-0.00383938
-0.00136067
0.0059025
-0.0911989
0.0496948
0.0415041
-0.24
0.413004
-0.173004
-0.0492619
0.0332816
0.0159802
0.00179751
0.150985
-0.152782
0.0198612
-0.0162147
-0.00364654
0.0363955
-0.0135284
-0.0228672
-0.473447
0.256283
-0.0252625
-0.0659364
-0.0203638
0.0211267
-0.000762838
-0.0513888
-0.0986644
0.150053
-0.00518135
0.00437496
0.000806385
0.0435475
-0.210814
0.00353445
0.00299203
-0.201734
-0.169449
0.371183
0.168629
-0.0351963
-0.000523341
-0.0051087
0.00563204
0.322131
-0.117112
0.00551014
-0.00603348
-0.349587
0.216271
0.133316
-0.0242355
0.0193718
0.00486362
0.00519687
-0.0059626
0.000765734
-0.00254209
-0.120344
0.122886
-0.0174574
0.0156401
0.00181734
-0.24025
-0.0786894
0.31894
0.0396133
0.0435539
-0.0831671
-0.0762325
0.211959
-0.135726
0.185339
-0.0523859
-0.132953
0.00150759
-0.00209452
0.094072
-0.0037345
-0.0903375
-0.173415
0.00810039
0.165315
-0.241674
0.165441
-0.0116853
0.0674573
-0.055772
0.44379
-0.126007
-0.00614768
0.00468299
-0.0072762
0.00860319
-0.00132699
0.0116105
0.00825073
-0.10249
0.0575981
0.044892
0.400667
-0.185589
-0.128665
0.0123241
0.116341
0.181059
-0.179262
0.0130126
0.13265
-0.145662
0.117419
0.108431
-0.22585
0.158179
-0.211124
0.0529444
-0.0951597
0.221868
-0.126708
-0.319784
0.219706
0.100079
-0.0173889
0.017632
-0.000243093
-0.269719
0.178807
-0.0978823
0.103856
-0.208416
0.126145
0.082271
0.0495947
0.0234124
-0.0730071
-0.00565146
0.00562889
2.25723e-05
0.162291
-0.280893
0.0136827
0.00717928
0.117587
-0.0989235
-0.0186631
0.469134
-0.200819
-0.268315
-0.0108991
-0.0383627
-0.00630291
0.000651451
0.166121
-0.0151359
0.384178
-0.450721
0.0665428
-0.18996
-0.0722645
0.262224
0.0881711
0.0294155
0.00285683
0.17875
-0.181606
-0.0164463
-0.000582676
-0.0702289
0.0229289
0.0473
-0.229899
-0.0898851
0.144576
0.0127713
-0.157347
-0.186319
0.114324
0.071995
-0.0910824
0.271197
-0.180115
-0.273929
-0.199518
3.16081e-05
-0.0164427
0.016411
-0.015258
0.000757075
-0.232726
-0.115834
0.34856
-0.00444183
-0.000739523
-0.278558
0.229713
0.0488457
-0.0653993
-0.400404
0.160154
-0.00194079
0.00669332
-0.00475253
0.369391
-0.206916
0.182568
0.293623
-0.00320323
-0.00622188
0.00942511
-0.182634
-0.0959242
0.0147775
-0.0147459
-0.123229
-0.138225
0.261455
-0.00830812
0.00103192
-0.234089
-0.100727
0.334816
0.00545206
-0.0010771
0.111838
0.0120537
-0.210398
0.433811
-0.223413
0.0133177
-7.62502e-05
-0.0132415
-0.0220029
0.00163903
0.204207
-0.0460279
-0.160437
-0.0129782
0.00425552
0.033717
-0.0379725
0.115112
-0.2745
0.159387
0.429344
-0.313191
-0.116153
-0.45732
0.333625
0.123695
-0.384127
0.405638
-0.0215103
0.00230297
-0.020342
0.018039
0.112394
0.31695
-0.426532
0.2823
0.144232
-0.0162162
-0.0020303
0.0182465
-0.00110604
0.0159848
0.114489
-0.130473
-0.256701
0.507095
-0.250394
0.0017335
-0.0100727
0.00833915
-0.388682
0.249497
0.139185
0.315409
-0.248895
-0.0665137
-0.30052
-0.1568
-0.0495698
0.0308292
0.0187405
-0.0701959
0.0585106
-0.547635
0.327113
0.220522
-0.274294
0.0315798
0.242714
-0.136279
-0.221529
0.357808
-0.117501
0.068152
0.0493487
-0.00537087
0.000929044
-0.179599
-0.209083
0.00732304
-0.00926382
-0.0723096
-0.114009
0.303412
0.0807661
-0.375371
0.303796
0.071575
0.235458
0.0799506
-0.294181
0.203099
-0.257634
0.134405
0.0192452
-0.0229169
0.00367175
-0.181615
0.130227
-0.0102584
0.0296761
0.283293
-0.165334
-0.11796
-0.0280901
-0.0288674
0.0569575
0.00020678
-0.016423
-0.157132
0.19016
-0.0330278
-0.23547
-0.312165
0.109292
-0.111835
0.0158712
0.110722
-0.126594
-0.38675
0.437387
-0.0506376
-0.14086
-0.256893
0.397754
-0.00611429
0.211653
-0.0486567
-0.162996
0.127403
-0.182543
0.05514
0.0572571
-0.441384
-0.147185
0.262297
0.1944
-0.0322102
-0.16219
0.031054
0.0683226
-0.0993766
-0.0575426
0.0548328
0.00270984
0.299289
-0.151515
-0.147774
0.000593651
-0.00572127
0.00512762
0.263989
0.0643229
-0.328312
-0.454675
0.239862
0.214813
-0.142251
0.429356
-0.287105
-0.0127845
-0.11588
-0.00588307
-0.0712401
0.0771232
0.0538897
0.131449
0.284781
-0.425641
-0.217901
-0.208631
0.0427886
-0.166446
0.123657
-0.0158467
-0.00838873
0.133863
-0.0414699
-0.0923932
-0.132004
0.145017
-0.0312359
0.0733232
-0.0420872
-0.0891887
-0.00169303
0.0908817
0.00327651
0.00202756
0.117326
-0.307285
-0.00672385
7.65792e-05
0.00664727
-0.29182
0.210831
0.0809885
-0.209325
0.196614
0.0127111
0.278372
-0.183289
-0.0950834
0.00550395
-0.0049103
0.00797903
0.000832416
-0.00881144
0.209225
-0.374912
0.165688
-0.0616635
0.0986884
-0.037025
-0.322582
0.167043
0.155539
0.00980584
-0.00311252
-0.274769
0.215641
0.0591285
-0.0328597
-0.12518
0.158039
-0.109206
0.293541
-0.184334
0.0415576
-0.0191261
-0.0224314
0.0225258
-0.00328059
-0.00551012
-0.00437805
0.00988817
0.0199558
-0.00155639
-0.0183995
-0.0885729
0.297797
-0.170274
-0.104496
-0.0161642
0.00870209
0.0074621
0.0478708
-0.0759609
-0.179993
0.193929
-0.0139359
0.196449
-0.375729
0.17928
-0.0166967
0.000998915
0.0156978
-0.243751
0.143368
0.100383
-0.00370172
0.00988498
-0.0651638
0.104157
-0.0389928
-0.0288379
-0.0207319
0.0270902
-0.00495576
-0.0221344
0.155052
-0.389141
-0.101232
0.0548052
0.0464264
-0.228659
-0.171105
0.399765
-0.0175378
0.017472
6.57812e-05
-0.170254
-0.00973834
-0.489625
0.102875
0.147433
0.11972
-0.0886659
0.00219376
0.00536044
-0.0075542
-0.0368781
-0.237416
-0.0356862
0.0385445
-0.00285822
-0.0946917
0.0888086
-0.0138777
0.0145312
-0.000653511
0.00016932
-0.00216154
0.18063
-0.0532271
0.077597
0.161844
0.195085
0.0165678
0.0172715
-0.00470145
-0.01257
-0.332035
0.222829
-0.207775
-0.0840446
-0.134872
0.147643
0.000165742
0.178584
-0.356493
0.196388
0.160105
-0.0499872
-0.0202417
-0.00613789
-0.000585954
0.195202
-0.303126
0.107924
-0.236454
-0.218221
-0.00472574
-0.00142194
-0.0127806
0.0343467
-0.0215661
-0.423661
0.281409
-0.0248947
0.0187804
0.23569
-0.441131
0.20544
-0.0164599
0.0187628
-0.108621
0.114408
-0.00578665
-0.00455373
-0.00673835
-0.0289479
0.0869752
0.0309978
-0.0961876
0.360176
-0.457954
0.221501
-0.128177
0.0765075
0.0174018
0.00255402
0.00470442
0.00510142
-0.355169
0.412426
-0.194709
-0.127873
0.0101727
-0.00843923
0.00261317
-0.157951
0.155338
-0.0360802
0.0518685
-0.0157884
-0.0143981
-0.00229862
-0.422712
0.234577
0.188134
-0.0086713
0.102743
0.390799
-0.166608
-0.224191
-0.229078
-0.188446
0.417524
0.128679
-0.161538
-0.0139041
2.64797e-05
0.0154378
-0.00181573
-0.0136221
-0.0158517
0.0142514
0.103964
-0.00740423
-0.0965598
-0.202493
0.0711965
0.131297
-0.112283
0.128268
0.10822
-0.0975708
0.397776
-0.157914
-0.0398928
0.0271122
-0.441151
0.0909971
0.350153
0.125928
-0.0219845
-0.106504
-0.101912
-0.493242
0.192722
-0.421227
0.188501
-0.00104811
0.0281383
0.180401
0.161332
-0.214687
0.053355
0.0235924
-0.0285482
-0.132921
-0.00740847
-0.000816484
-0.142632
0.18618
-0.000346213
-0.0365173
0.0368636
-0.198145
-0.140332
-0.173215
0.351501
-0.12024
0.302063
-0.181823
0.492513
-0.450212
-0.0423005
-0.000329093
0.0131406
-0.0151667
0.00202616
-0.538254
0.324525
0.213729
-0.35009
0.213811
0.170206
0.0204579
0.234044
-0.501343
0.267299
-0.297665
-0.195577
0.0712125
-0.247058
0.175846
-0.458277
0.103108
0.0157469
-0.107739
0.0919917
-0.00936113
0.0147997
-0.00543857
0.0333962
-0.0646322
-0.00588038
0.00614275
-0.000262361
-0.273287
-0.102084
-0.487839
0.356918
0.13092
-0.131404
-0.0370155
0.16842
-0.501018
0.38515
0.115868
-0.000610572
-0.455601
0.456212
0.0232432
0.00315596
-0.0263991
-0.136966
0.154201
-0.0172347
-0.0678347
-0.00445529
0.07229
0.0600918
0.0737713
-0.0747618
-0.0427389
-0.173905
-0.132385
0.241623
-0.109238
0.0957379
-0.0787155
-0.142985
0.221701
-0.369629
0.286324
0.0833046
-0.120028
-0.303633
0.178896
-0.407556
-0.16781
0.202574
-0.0347637
-0.128793
-0.114957
0.362051
-0.218343
-0.143708
-0.0953151
0.132089
-0.0367743
0.221564
0.140487
0.273268
-0.202056
-0.00649243
0.00661883
-0.000126396
-0.0790397
0.0103127
0.068727
-0.264225
0.143985
-7.39969e-05
0.00710568
-0.00703169
-0.0966207
0.031457
0.0094891
-0.00478468
-0.00178679
-0.00771023
0.00949702
-0.239294
0.160579
0.00363797
-0.00542476
0.375367
-0.153803
-0.0008585
-0.00675003
0.00760853
-0.0418415
0.0414953
0.064322
-0.206954
-0.163654
0.0488485
0.114805
-0.151748
0.0147821
0.144081
-0.296256
0.104308
0.194981
-0.115269
-0.197921
0.239414
0.143364
-0.382778
0.0172688
-0.0160139
-0.00125481
0.10133
-0.0855835
-0.00921184
-0.00654242
0.00638133
0.000161088
-0.118222
0.0102743
0.107948
0.000334406
-0.00635158
0.00601718
0.139398
-0.286006
0.146608
0.426927
-0.244359
-0.135309
-0.0635435
0.198852
0.382799
-0.195531
-0.187267
-0.00617227
-0.0513703
-0.465606
0.0517578
0.413848
-0.465555
0.208854
0.00384244
0.0037171
-0.00755954
-0.0012632
0.016701
-0.268253
0.23591
0.0323429
-0.267771
-0.114389
0.382161
0.0473346
0.0443744
-0.091709
-0.130404
0.130495
-9.11519e-05
0.164245
-0.268646
0.104401
-0.0205653
-0.00326208
0.0238274
0.197532
0.135958
-0.33349
-0.0205414
-0.143112
-0.000759719
0.0113836
-0.0106238
-0.133038
0.228458
-0.0954199
-0.385604
0.218996
-0.0238858
-0.00142237
0.0253081
0.0114978
0.0057709
-0.152321
-0.0295517
0.181873
-0.17291
0.330061
-0.157151
-0.340953
-0.146886
0.0163165
-0.0160376
-0.000278963
0.0259632
-0.00272006
-0.160226
0.327268
0.0929
0.0028549
-0.0957549
0.428232
-0.214191
-0.214041
0.182244
0.168403
-0.350646
0.00269245
-0.00484579
0.00215334
-0.399166
0.228885
0.170281
-0.0165567
0.00719554
0.0838385
-0.216877
-0.00808629
-0.109211
0.117298
-0.00426403
0.00459844
0.0353396
-0.0513749
0.0225074
0.176453
0.165445
-0.341898
0.000150718
-0.00192432
0.0017736
0.121347
0.25402
-0.0501964
-0.0779805
-0.00294873
-0.112516
0.115465
-0.00231902
-0.00506272
0.00738174
0.00947969
-0.0261819
0.0167022
0.271658
-0.386927
-0.00709625
-0.453898
-0.0729446
-0.0282871
-0.0087418
0.00624882
0.00249298
-0.221695
0.0893099
0.00517422
0.0333702
-0.0493945
-0.218858
0.090198
-0.200337
0.110139
0.220966
-0.455645
0.234679
0.0150575
-0.000280015
0.112408
0.0196813
-0.00365982
0.00381054
0.152993
0.149943
-0.201174
0.106014
0.00941791
-0.00557547
0.00922096
-0.0113329
0.00211196
-0.230504
0.184346
0.0461578
0.131354
-0.399125
0.243101
0.185131
0.00374382
0.00574528
0.00571003
-0.00891325
0.284549
-0.489441
0.204892
0.161215
-0.327071
0.165856
0.0162787
-0.000658655
-0.01562
-0.376271
0.18123
0.195042
-0.00946733
-0.000617525
0.0100849
-0.35439
0.00608899
-0.00608899
-0.117735
-0.0126695
-0.00571423
-0.00175325
0.00746748
0.15314
-0.0167954
-0.136344
0.0087974
0.0275981
0.000115764
-0.00665818
-0.191635
0.0967575
0.0948771
-0.134105
-0.0471545
0.211421
-0.121223
-0.200497
0.149967
0.05053
0.276001
-0.136603
-0.155949
0.27144
-0.11549
0.131459
-0.128846
-0.00469154
0.0288461
-0.0241545
-0.433415
0.204336
-0.110817
-0.15318
0.263997
-0.001653
0.010874
-0.20125
0.412793
-0.211543
0.259084
-0.379112
-0.14567
0.0954741
-0.158103
-0.210839
0.368942
0.0149402
-0.000707588
-0.0142326
0.232317
-0.406499
0.174182
-0.173997
0.296228
-0.122232
-0.21386
0.375526
-0.161666
0.093618
0.126093
-0.219711
0.326498
-0.128966
0.487607
-0.188255
-0.299352
-0.0421338
0.0474691
-0.0053353
-0.111711
0.293954
0.00747596
0.0713166
-0.0787926
-0.146168
-0.203923
0.0490752
-0.195033
0.145957
0.0127266
-0.000287672
0.211997
0.275611
0.048789
-0.0546332
0.00584418
-0.20142
0.203665
-0.00224465
-0.00121596
0.00260868
-0.00139273
0.0248869
-0.0234793
-0.00140761
-0.0249283
0.0217315
0.00319682
0.00929578
-0.00457243
-0.00472334
0.204809
-0.111191
-0.1084
0.125136
-0.0167358
0.0586196
-0.0108537
0.00138632
0.127253
-0.219354
0.0921011
-0.000589828
-0.0977925
0.0983823
0.192211
-0.162829
-0.0293822
0.0227487
-0.107863
0.150652
-0.114159
0.119392
-0.00523281
0.389714
-0.15567
-0.0116415
-0.0154763
0.0271178
-0.0117219
0.117005
-0.105283
-0.00267603
0.00536849
0.314506
-0.229736
-0.0847703
-0.0121766
0.0114168
0.119319
0.0129078
-0.132226
-0.105868
0.155931
-0.0500636
-0.427167
0.266528
0.16064
0.10987
-0.112819
-0.0129753
0.0120309
0.000944436
-0.30442
-0.233834
0.371402
-0.210186
-4.13998e-05
0.374235
-0.16989
-0.204345
-0.0327656
0.0823602
0.206573
-0.38177
0.175197
-0.050318
0.170013
0.11911
-0.266645
0.0832473
-0.151084
0.0678364
0.219997
-0.378099
-0.0598335
0.0560856
0.00374791
-0.312998
-0.150576
0.463573
0.00750143
-0.00689989
-0.000601536
0.260501
0.0540053
0.00386708
0.0054287
-0.0681604
0.0810912
-0.0129309
-0.00607197
-0.0113169
-0.0116924
0.00910484
0.00258759
-0.262123
0.151306
-0.0749068
-0.00413288
-0.0467369
-0.15376
0.0109767
-0.010385
-0.000591645
0.000500945
-0.172427
-0.186133
0.358561
0.0630303
-0.0555543
-0.117595
0.109508
-0.296371
0.0943675
0.202004
-0.159344
0.0740028
0.0853414
0.118153
-0.271657
0.153504
-0.126196
-0.216592
-0.0797796
-0.456477
0.484095
-0.0276184
0.201077
-0.514074
0.273899
-0.155746
0.0110756
0.00422449
-0.0153001
-0.196498
0.432188
-0.204287
-0.116939
0.321225
-0.133032
0.250451
-0.239998
0.125762
0.114237
-0.0378783
0.0190584
-0.00142646
0.21884
-0.091587
0.0372244
-0.00631251
-0.104461
0.110774
-0.129097
0.0149379
0.210751
0.000838852
-0.00280501
0.00196616
0.0726319
-0.0247611
-0.00146184
-0.00210487
0.00356671
-0.0844786
-0.0748657
0.0241454
-0.128184
-0.092093
0.220277
-0.223256
0.0315216
0.191735
0.0363968
0.349237
-0.11692
0.00865196
0.095312
-0.144036
-0.153392
0.297428
0.232121
0.117116
-0.20964
-0.160482
0.370122
0.00704787
0.017036
-0.0240839
-0.00657273
0.00408244
-0.0212524
0.01717
0.168476
-0.157341
-0.0111353
-0.352595
0.196973
0.155622
-0.000212132
0.0165287
0.00512701
0.000383127
0.0625534
-0.00772065
-0.089466
0.138541
0.0954951
-0.0298961
-0.065599
0.0240563
-0.0236631
-0.000393262
-0.46697
0.0258191
0.0255137
-0.00378224
-0.0869096
-0.153088
-0.00957744
0.146832
-0.137254
-0.227491
0.148072
0.0794191
-0.039216
-0.00247526
0.0416913
-0.00594721
0.00551314
0.000434072
-0.171922
-0.0487348
-0.0110987
0.0173476
0.135792
-0.00270056
-0.199793
0.0045354
-0.00603098
0.00149559
-0.0824787
0.0522239
0.0302548
-0.127865
0.280668
-0.152803
0.00221046
0.00876623
-0.176919
-0.0342045
0.0426209
-0.0048152
-0.0378057
-0.168411
-0.0804837
0.015091
0.0145646
-0.0296556
0.154886
-0.0716389
-0.156851
0.225163
-0.0683126
0.0493175
-0.420239
0.370922
-0.00125724
-0.00549278
-0.00790463
0.142837
-0.134932
0.175212
-0.0420366
-0.133175
-0.126859
-0.0364991
0.163358
-0.0119433
0.00884025
0.003103
-0.0663689
-0.155326
-0.019895
0.0239774
-0.167598
0.297149
-0.129551
0.00803947
0.00439495
-0.0081855
0.00379054
-0.085281
-0.151565
0.32491
0.112464
0.0582225
0.0372726
-0.150057
0.323667
-0.17361
0.03322
0.136149
-0.169369
0.107945
-0.312232
-0.128646
0.250097
-0.121451
0.0321572
0.00155976
-0.0341042
-0.0493302
0.0834344
-0.00446336
0.00697563
-0.00251227
0.270715
0.221798
0.00128654
0.0136536
0.235055
0.177949
0.0750702
-0.0272232
-0.0478471
0.028309
0.152132
-0.361772
-0.351332
0.257736
0.0935961
0.190467
0.0810561
-0.0837462
0.00269013
0.112832
-0.223522
0.11069
-0.131093
0.0226932
-0.134399
0.0285313
-0.0822827
0.110701
-0.0284188
0.325442
-0.0886471
-0.236795
-0.350809
0.1561
-0.160501
0.0256286
0.0159894
-0.0165201
0.000530631
-0.371335
0.169601
-0.00996184
-0.102709
0.112671
0.196336
0.272798
-0.0500034
0.0393432
0.0106602
-0.253865
-0.199995
0.45386
-0.14306
-0.019276
0.162336
-0.18029
0.311741
-0.131452
-0.397748
-0.000167633
0.109782
-0.121503
0.00116233
0.0163771
-0.0175394
0.0383303
0.00872591
-0.0225765
0.0138506
-0.212316
0.0353968
-0.245955
-0.20318
-0.102355
-0.106758
0.209113
-0.000318324
-0.12723
0.245815
-0.118585
-0.212313
-0.137275
-0.00562198
0.0216114
0.0447231
-0.00980882
-0.0349143
-0.287655
0.352285
-0.0646296
0.00255093
0.0076218
-0.00065105
-0.00227771
0.00292876
-0.285736
0.118139
0.272635
-0.0216515
-0.250984
-0.0160253
0.146977
-0.130951
-0.0902143
-0.137277
0.138143
-0.266008
-0.0626819
0.0565096
-0.00740839
-0.010049
-0.00174482
0.00628021
0.0151457
-0.0207676
-0.302083
0.158417
0.143666
-0.0282085
-0.0160986
0.044307
0.217275
0.0865213
-0.382003
0.304671
0.077333
-0.420171
0.174216
-0.00586794
0.00075924
-0.475121
0.466562
0.00855884
0.131714
0.151579
0.00342951
0.0206268
0.00954599
-0.0114635
0.00191748
0.147153
0.0942196
-0.241372
0.0962127
-0.103617
-0.159652
0.0701859
0.187469
-0.461398
0.0114191
0.00610724
-0.0175263
0.22523
-0.0132716
-0.0848149
0.0507107
0.141388
0.0630698
-0.204458
0.0363693
0.0426185
-0.0789877
-0.458137
0.45291
0.00522715
0.135043
-0.201411
-0.476858
0.275672
0.201186
0.0952058
-0.0161008
-0.079105
0.0509426
0.000256138
-0.00693609
0.00667995
-0.0126149
0.00561318
0.00700171
-0.114032
0.132985
-0.0189533
0.00516895
-0.00536583
0.000196884
-0.00499798
0.113086
-0.111663
-0.00142338
-0.000809109
0.0141268
0.102017
-0.0633084
-0.0387089
0.0307516
-0.0368047
0.184876
-0.0780636
0.00489519
-0.00161869
-0.010538
-0.0293548
-0.00146049
-0.0877282
0.0056236
-0.103506
0.123887
-0.00449525
-0.130215
-0.0490911
-0.142544
0.0101072
-0.00571224
-0.00075051
-0.00574192
-0.162399
-0.190196
-0.0954055
-0.12563
0.221035
-0.0210073
0.0177953
0.00321202
-0.009623
-0.00635786
0.0159809
0.0044391
-0.00675813
-0.0115725
0.132687
-0.121114
-0.0159731
0.390715
-0.374741
-0.120042
0.110464
-0.0139715
-0.00240915
-0.000993099
0.00340225
-0.506638
0.300184
0.206455
-0.0267147
0.202667
-0.175953
-0.236988
-0.0494559
0.0642396
-0.0147836
-0.238122
-0.189045
0.0111243
-0.0792846
0.116957
0.00693035
-0.0660779
0.348378
0.134546
-0.332832
0.198286
-0.00568277
-0.00729255
-0.377797
0.174783
0.203014
-0.0431802
-0.15824
-0.253384
0.124738
0.364661
-0.315344
0.239117
-0.303964
0.0648469
-0.0146467
-0.0501194
0.0647661
0.0824927
-0.0543288
-0.0281638
0.107719
0.00174804
-0.00952596
-0.0106316
-0.00106086
-0.0115921
-0.0102625
0.0218545
-0.020687
0.447614
-0.0820641
0.00823785
0.0738262
0.0761578
0.0663751
-0.142533
0.137062
0.0748634
-0.211926
0.00661113
0.0862889
0.216827
0.0694968
-0.271113
0.115164
0.1956
-0.368027
0.0350268
0.00653075
0.0193314
-0.00192957
0.00711863
-0.0262448
-0.323767
0.155674
0.168093
-0.154388
0.00264008
0.159355
0.241311
-0.327774
-0.0923967
-0.421586
0.420975
-0.134218
-0.0512006
0.185418
0.0233378
-0.10562
-0.00141055
-0.0485929
-0.118401
0.108439
-0.299044
-0.0829591
-0.0467835
-0.0456986
-0.00375731
0.0249264
-0.0865899
0.0405855
-0.262384
0.221798
0.00373146
-0.0175677
0.0138363
0.0031774
-0.00764076
-0.337817
0.175419
0.00583618
-0.00602968
0.000193504
0.104136
-0.0568017
-0.144833
-0.0355611
0.180395
-0.137577
-0.0168116
-0.16044
-0.203267
0.363706
-0.0419726
-0.167352
-0.103643
0.103053
-0.00523982
0.00489634
0.000343483
-0.0612187
-0.0615358
0.122754
-0.0886573
0.304929
0.0317218
-0.00121079
-0.0210005
0.0222113
0.00976374
0.00108972
-0.0108535
0.0288961
0.243739
-0.00164138
-0.00843127
-0.0649074
0.132738
-0.0678311
0.02325
-0.014066
-0.00918399
-0.0614473
-0.0410428
0.00457406
-0.0060359
-0.297643
0.181809
-0.00178694
-0.0123748
0.0275204
0.0816742
-0.000618124
0.170616
0.157542
-0.00964261
-0.125792
0.135435
0.125164
0.275832
-0.113542
-0.126174
0.0121424
0.202523
-0.0611346
0.0356489
0.0518864
-0.0875353
-0.0542852
-0.168971
0.0119508
0.0112991
-0.0134109
0.0204588
0.443431
-0.208375
0.0994854
-0.0928743
0.10673
-0.118814
0.0120845
-0.141013
0.129441
-0.130989
0.103722
0.0272674
0.0150632
0.0042682
-0.134178
-0.15815
0.292328
0.107396
-0.101772
0.0539057
-0.0599266
0.00602086
0.113865
-0.10738
-0.00648425
-0.00681597
0.261681
-0.145475
-0.116206
-0.00415783
-0.00328025
-0.0280366
0.0313169
-0.0898777
0.240944
-0.151066
-0.00240098
-0.00916851
0.0115695
-0.113189
0.000998039
0.112191
-0.206679
-0.29996
-0.00039725
0.00789868
0.00207748
-0.124564
-0.122185
0.246749
-0.0181044
0.156269
-0.138165
-0.0143039
0.00867462
0.00562927
-0.229249
0.139371
-0.000781305
-0.00617456
0.00695586
-0.0935873
0.257832
-0.304366
0.130634
0.173732
-0.149436
-0.121677
0.192034
-0.0214521
-0.170581
-0.258459
0.287845
0.155404
-0.443249
-0.0220732
0.0104812
-0.297899
-0.178959
0.101228
-0.166325
0.301115
-0.13479
-0.0466647
0.0361267
-0.0991319
0.00526698
0.0938649
-0.293879
0.159701
-0.221816
-0.199411
0.00512244
-0.00590375
-0.152389
-0.119268
0.0330438
-0.044834
0.0117902
0.0206592
0.00186654
-0.165784
0.00844348
0.0612177
-0.0124288
-0.182016
0.0477982
-0.148393
0.231357
-0.0829637
-0.00748874
0.0328566
-0.121178
0.122208
-0.00912175
0.0490249
-0.238871
0.189846
-0.150868
-0.0149161
-0.0238396
-0.171193
-0.010503
-0.104538
-0.165949
0.376016
-0.190228
-0.185789
0.191316
-0.0299836
0.202675
0.00120287
0.0173964
-0.0185993
0.117957
0.0125386
0.261857
-0.164101
-0.0977564
0.175585
-0.393486
-0.075027
-0.11619
0.191217
-0.0228337
-0.135117
0.0241382
-0.00347897
0.181386
-0.314144
0.132758
0.198811
-0.432778
0.233967
0.0119501
-0.0107878
-0.297884
0.131057
0.166828
-0.00519717
0.10798
-0.102783
0.0327881
0.0411859
-0.073974
0.146088
-0.04933
0.0150654
-0.0113339
-0.343918
0.183478
0.012433
-0.0624023
-0.27855
-0.130321
-0.000667405
-0.0117207
0.0447645
-0.0824253
-0.163754
0.00121822
0.162536
-0.193251
-0.218948
0.412199
-0.121349
-0.00897258
0.128066
-0.00712816
0.00738518
-0.000257025
0.0233596
0.0021541
-0.0474791
-0.0348641
0.0823432
0.0560378
0.0291323
-0.0851701
-0.139281
0.160932
-0.0216514
0.0958123
0.147339
-0.243151
-0.14315
-0.0432947
0.186445
0.00198293
0.00937778
-0.0113607
0.0198887
-0.0123705
-0.00751814
-0.197619
0.323364
-0.125746
0.0147796
0.026204
-0.0409836
0.0511895
0.4239
-0.225089
0.0233359
0.109846
-0.13375
0.0239045
-0.0708597
0.00302494
0.152419
0.00048302
0.0151571
-0.0273965
0.0211414
0.0062551
-0.0166526
0.00242719
0.0142254
0.00175534
-0.00364096
0.00188562
0.0124947
-0.00873526
-0.00375946
0.0164439
-0.0155011
-0.153924
0.0146427
-0.513665
0.219873
0.293793
0.0558849
0.0885414
-0.144426
0.13825
-0.156354
0.14853
0.147608
-0.296137
0.108985
-0.233548
-0.0080612
-0.00275507
0.0108163
0.191948
0.13455
0.0996454
-0.115671
-0.000404086
-0.0162766
0.0166807
0.042533
-0.0542537
-0.0272291
0.0192078
0.00802133
0.0828467
-0.0865812
0.0150156
-0.0510957
-0.109375
0.004456
0.104919
-0.13063
0.0063208
0.124309
0.0281899
-0.478402
-0.000126423
-0.350666
0.334693
-0.0206724
0.0301521
0.0270376
-0.0552461
0.0627018
0.366655
0.160951
-0.032272
0.226782
-0.0318563
0.000480111
0.0313762
0.0231409
0.000218746
-0.0461095
-0.042685
-0.0465975
0.0892826
0.210721
0.201252
-0.411973
0.0906102
0.0110878
0.00370009
-0.112321
-0.00100676
-0.00537383
0.0063806
0.420584
-0.209863
0.192289
0.183727
0.470188
-0.253167
-0.217021
0.0473096
-0.19046
0.14019
-0.0222338
-0.157209
0.333661
-0.128168
-0.346952
0.125006
-0.0218377
0.141156
-0.296498
0.154262
0.142236
0.0363214
-0.101229
0.226579
-0.177554
-0.185739
0.1619
-0.113008
0.248051
-0.135043
0.321287
-0.129338
-0.171204
0.117707
0.053497
-0.0632337
0.0352981
0.0279355
0.00155772
0.0144058
-0.0144821
0.016143
-0.0292037
0.0130607
-0.0269051
0.0152636
-0.103598
0.11225
-0.104079
0.116987
0.0877936
-0.0099409
-0.0778527
0.01054
0.00163982
-0.0121798
0.194412
-0.29895
0.42728
-0.445918
0.0186378
-0.353733
0.270319
0.0157151
0.0534411
-0.0691563
0.10001
-0.0502597
-0.0146152
0.0648749
-0.0223673
0.141069
0.00374705
0.0135244
-0.0174057
0.0170017
-0.045922
0.0729596
0.00706832
-0.0458426
0.011701
0.00818772
0.167009
-0.190473
0.254453
-0.0639796
0.18032
0.168495
-0.348815
0.240081
0.236109
0.1584
-0.301018
0.142618
-0.00387784
0.0347071
-0.00208569
-0.0263419
0.130063
0.124222
-0.0143764
-0.00497487
0.00517408
-0.000199214
0.00837608
-0.0107771
-0.173125
0.150291
-0.168435
-0.133648
-0.000381802
0.0542875
0.119039
-0.128682
-0.00662826
0.0400245
-0.0671497
0.0700046
0.17991
-0.0151395
-0.164771
-0.00635065
-0.0210458
-0.00831465
0.0076636
-0.0624933
0.0137585
-0.00562282
0.0219999
-0.129235
0.41708
-0.240316
-0.116176
-0.195108
0.120081
-0.00470907
0.00452129
0.000187778
0.0832375
-0.312863
0.250461
0.21654
-0.127207
-0.0893325
0.12226
0.108202
-0.298675
-0.00384226
-0.000866806
0.110617
0.171157
-0.281773
-0.0187713
-0.446835
0.218875
0.163924
0.00819053
0.0870153
0.139825
-0.0704511
0.207513
-0.00557955
0.00514208
0.000437471
0.481506
-0.268325
-0.213181
0.125884
-0.0095883
-0.116295
-0.0124907
0.120076
-0.107585
-0.0719113
-0.142776
-0.140062
0.298463
0.0023071
-0.00146825
0.158643
0.0521885
-0.150845
-0.0156007
-0.0654213
0.0507746
0.00487521
-0.20371
-0.172561
-0.00717668
0.0174739
-0.0102972
-0.149524
0.0884677
0.0610568
0.0906059
0.154906
-0.245512
-0.08688
0.107792
-0.0209119
0.338691
-0.224732
-0.113959
-0.0663542
0.0977262
-0.031372
0.130462
-0.225868
0.327742
-0.0177499
0.0262478
0.0876168
0.14394
-0.244111
0.100171
-0.00717201
0.00106833
0.00610368
0.0018153
0.00307989
0.127936
-0.133635
0.268702
-0.135066
0.153088
-0.183745
0.0306566
-0.17046
-0.115276
0.107327
-0.21383
-0.0259031
-0.0487849
-0.406816
-0.171938
-0.205859
-0.282445
-0.058379
0.0638972
-0.00551826
0.067012
0.0146622
-0.0587446
0.168691
-0.109946
0.002835
0.00965972
0.142885
0.0120016
0.106527
-0.0208421
-0.002821
0.254123
-0.110182
-0.406336
0.368212
0.0381238
-0.105855
-0.00733392
-0.0969585
0.00128041
0.0133185
-0.0145989
-0.00916234
0.003492
0.00567034
0.0809919
-0.0060396
-0.0749523
-0.346244
0.158583
0.187661
0.115483
-0.112626
-0.00285784
-0.000313415
0.0177854
-0.163001
-0.160766
-0.00445583
0.000138248
0.00431758
-0.000923191
-0.00636701
-0.0208621
-0.158292
-0.144833
0.526415
-0.30267
-0.223745
0.00283877
0.13745
-0.0276559
-0.109794
-0.36327
0.496959
-0.133689
-0.218217
0.0613663
-0.159023
-0.111643
0.270666
0.109468
-0.180843
0.132472
0.0483713
-0.301521
0.180512
0.121008
-0.0114197
-0.00333079
0.472017
-0.0284688
0.271791
0.254624
-0.00384832
0.00726249
-0.00341417
-0.109449
-0.0444745
0.010557
-0.0226593
0.128091
-0.308381
-0.0959452
0.0484661
0.0389177
-0.140349
0.101431
0.382285
-0.213704
-0.168582
0.0988798
-0.105192
0.159615
-0.303651
-0.0211058
0.00987693
-0.0170536
0.289619
-0.121617
-0.168002
0.00228925
0.0127934
-0.0150826
0.141546
0.212489
-0.354035
-0.210284
-0.13596
-0.00108991
0.33806
-0.148436
-0.189625
0.00618414
-0.00618414
-0.157551
-0.00620306
-0.380044
-0.0262921
-0.00806515
0.00407174
0.00399341
-0.21801
0.39924
0.0139739
-0.0803281
-0.518024
0.29107
0.226954
-0.136816
0.241969
-0.105153
0.443913
-0.440163
-0.00374966
-0.13884
0.0800953
-0.287772
-0.230251
-0.352252
0.211332
0.14092
0.211043
0.232387
-0.217329
0.3618
-0.144472
-0.140237
0.284318
-0.000460982
0.213987
-0.383423
0.169436
0.00621604
-0.00578289
-0.000433156
-0.00020192
-0.161431
0.272048
0.00211214
-0.156854
-0.200712
-0.234322
0.435034
-0.00440466
0.00341156
-0.011096
-0.00546067
0.0819391
-0.0488255
-0.0331136
-0.000519056
0.0239333
-0.0234142
0.129807
-0.138184
0.00837642
0.210408
-0.17485
0.097486
0.0773644
-0.158851
-0.145514
0.0952475
0.0589535
0.328631
-0.194085
0.168728
-0.135508
-0.0311295
0.0278493
-0.180173
-0.207605
0.158948
-0.224294
0.0213957
0.202899
-0.0621101
0.0118504
-0.00891857
0.0122506
-0.003332
-0.0918258
-0.0576986
-0.0282138
0.0235223
-0.0160711
-0.0906408
0.106712
0.106827
-0.097306
-0.00952061
-0.0162029
-0.0663234
0.0314593
0.0490386
-0.0506683
0.00162967
-0.0222127
0.0249559
-0.00274314
-0.147317
-0.00584171
0.153159
-0.00124929
-0.010694
7.81498e-05
-0.0850877
-0.0897627
-0.147803
-0.150082
-0.308432
0.399429
-0.0234424
-0.0397913
-0.0321984
-0.192096
0.0550872
0.019983
0.0476281
0.154354
-0.0114691
0.0794947
0.0493141
-0.128809
-0.143737
0.324056
0.0279243
-0.0168488
-0.00708925
0.00215337
0.00493588
-0.00717351
-0.0919583
-0.000545479
0.0110855
-0.293463
0.143406
-0.114141
-0.147982
0.0048372
-0.00510627
0.000269078
-0.215348
0.374842
-0.159494
-0.358557
0.140214
0.000655358
0.00596347
-0.126858
-0.0738174
0.200676
-0.0187633
0.0763614
0.0123398
-0.0133744
0.00103466
-0.00591407
0.0173332
0.0641435
-0.191002
0.330931
-0.481507
-0.0199921
0.020898
-0.000905883
-0.141664
0.144999
-0.00333469
0.0194096
0.0525321
-0.0719417
-0.35274
-0.0545527
0.0486768
0.00587586
-0.0442105
-0.0478454
0.0920558
-6.6413e-05
0.0530173
0.272898
-0.325916
-0.00334606
0.00155824
0.00178782
-0.239811
-0.201412
0.15944
0.128727
-0.299186
-0.245051
-0.24439
-0.125031
0.0248152
0.100215