/*--------------------------------*- C++ -*----------------------------------*\
| =========                 |                                                 |
| \\      /  F ield         | OpenFOAM: The Open Source CFD Toolbox           |
|  \\    /   O peration     | Version:  v2012                                 |
|   \\  /    A nd           | Website:  www.openfoam.com                      |
|    \\/     M anipulation  |                                                 |
\*---------------------------------------------------------------------------*/
FoamFile
{
    version     2.0;
    format      ascii;
    class       volVectorField;
    location    "250";
    object      U;
}
// * * * * * * * * * * * * * * * * * * * * * * * * * * * * * * * * * * * * * //

dimensions      [0 1 -1 0 0 0 0];


internalField   nonuniform List<vector> 
18649
(
(-0.131656 -0.0306923 1.26185e-23)
(1.01706 -0.126042 1.8297e-21)
(1.07801 0.00271822 0)
(-0.140086 -0.0255867 -1.29285e-19)
(0.481389 -0.167903 1.27979e-19)
(1.12665 -0.0792284 -3.21234e-20)
(0.0273656 -0.0179362 -1.41573e-19)
(1.27908 -0.298075 -2.07193e-20)
(1.2637 0.0113727 3.03178e-20)
(0.958089 -0.0594406 -9.98907e-22)
(1.21522 -0.343349 8.53518e-20)
(-0.422249 -0.064496 -3.97028e-20)
(1.18085 0.353406 -2.21531e-19)
(1.0765 0.00102483 0)
(0.991847 -0.0227641 0)
(1.21414 -0.0602028 4.25748e-20)
(1.01651 -0.00253641 5.564e-23)
(1.21391 -0.0637702 1.82867e-20)
(1.11401 -0.426788 4.74182e-20)
(0.00684955 -0.143837 -1.77667e-19)
(-0.00821423 -0.0331168 -1.07326e-20)
(1.05237 -0.0702297 0)
(-0.397816 -0.065759 0)
(1.26375 0.258305 0)
(1.0177 -0.0172544 0)
(-0.0245429 -0.141923 -3.92979e-20)
(1.03995 -0.0613392 -4.19812e-22)
(-0.423758 -0.0679492 -1.18235e-19)
(1.34587 -0.294279 0)
(1.03202 -0.00204655 -6.55921e-21)
(1.06067 -0.0504314 3.44993e-21)
(1.04985 -0.345206 9.59227e-21)
(1.00506 -0.0104213 -8.4328e-23)
(0.962154 -0.108807 -2.7652e-20)
(0.981067 -0.0773442 5.94915e-21)
(-0.37271 -0.0746995 -4.01853e-20)
(0.878522 -0.0745768 6.77951e-20)
(1.01682 -0.0570225 1.1302e-21)
(1.03698 -0.0147261 4.04501e-21)
(1.26982 -0.300497 -5.66034e-20)
(1.27345 0.0137712 -9.27317e-20)
(1.26822 0.260897 -4.52445e-21)
(1.26282 0.0546981 -4.44898e-21)
(-0.277753 -0.101364 1.69556e-22)
(1.02191 -0.125 5.49961e-22)
(1.03241 -0.00167661 -5.92408e-21)
(-0.0784303 -0.0508361 -1.24246e-19)
(-0.135721 -0.0267221 9.199e-20)
(0.984742 -0.30375 -2.71983e-22)
(1.0349 -0.0208616 6.5626e-21)
(-0.451963 0.503972 7.56454e-20)
(1.12747 -0.127177 -5.07416e-21)
(0.22495 -0.0569799 2.8423e-20)
(0.415233 -0.128895 0)
(1.00485 -0.00950393 -2.74738e-21)
(0.964209 -0.298975 1.06474e-19)
(-0.34764 -0.112275 0)
(1.31746 -0.0101127 0)
(-0.113915 -0.021232 -1.29903e-19)
(0.960994 -0.0601432 1.1172e-21)
(-0.132335 -0.0312511 -9.24811e-20)
(1.00365 -0.0233354 4.62791e-21)
(1.2551 0.0600149 0)
(-0.122 -0.0291944 -5.14807e-20)
(1.01835 -0.0565574 0)
(-0.11501 -0.0296271 1.81389e-19)
(1.05055 -0.0394417 0)
(-0.36027 -0.120805 0)
(-0.118805 -0.0306599 -9.4534e-20)
(1.47634 -0.110508 1.26972e-19)
(-0.369882 -0.0783474 1.69615e-20)
(1.005 -0.0263366 6.28216e-22)
(1.03229 -0.350104 2.64679e-21)
(1.12383 -0.0415062 -1.76105e-22)
(0.966953 -0.104929 2.27903e-20)
(-0.0136911 -0.0348206 1.18023e-20)
(0.861084 -0.177359 1.31472e-20)
(1.04615 -0.173472 6.04374e-21)
(1.1204 -0.0402275 -9.95255e-21)
(0.964688 -0.50766 0)
(1.0167 -0.00242616 0)
(-0.0925428 -0.0503672 0)
(-0.167702 -0.0447697 2.48503e-19)
(0.248539 -0.0623291 -2.69023e-20)
(0.834274 -0.285477 0)
(1.03677 -0.0139356 -5.6465e-21)
(0.883601 -0.136324 6.00844e-20)
(1.12454 -0.123121 3.82479e-20)
(1.16323 -0.17938 2.133e-20)
(1.12873 -0.0488779 0)
(1.16578 -0.0203554 -4.51666e-20)
(0.965775 -0.0387398 0)
(1.00694 -0.0499553 -3.88004e-21)
(-0.278373 -0.0415621 -1.81637e-19)
(1.05126 -0.0687695 0)
(1.21316 -0.336401 1.21867e-19)
(0.966274 -0.0633627 0)
(0.943446 -0.471122 1.46874e-21)
(-0.115643 -0.0306875 -4.77812e-20)
(1.03956 -0.0582147 3.26444e-22)
(-0.397979 -0.0666884 -1.63224e-19)
(0.916986 -0.257087 0)
(1.02143 -0.00786703 1.44675e-23)
(-0.447039 0.503704 0)
(-0.120056 -0.0305051 5.25901e-20)
(1.13125 -0.127059 -8.54432e-22)
(0.999045 -0.004644 -6.33079e-21)
(1.06599 -0.0525291 -8.2034e-22)
(0.920749 -0.258103 -2.14095e-20)
(0.96555 -0.0941472 1.93666e-20)
(-0.37578 -0.0752763 -7.51765e-20)
(0.679828 -0.230967 -1.40427e-19)
(1.0066 -0.0504504 -3.53638e-21)
(0.960836 -0.0936744 -6.11164e-21)
(1.43325 -0.0576759 1.09203e-19)
(1.0886 0.00217547 -9.92112e-21)
(1.00438 -0.00915219 -4.78734e-23)
(-0.292179 -0.149474 0)
(-0.290609 -0.0987967 0)
(1.04459 -0.0193089 0)
(-0.11292 -0.0234411 1.29667e-19)
(1.02642 -0.0697826 0)
(1.03613 -0.347593 -2.53472e-21)
(1.0043 -0.0263695 6.95234e-23)
(-0.111275 -0.120675 4.78312e-20)
(1.01814 -0.0182056 0)
(1.00001 -0.000235771 -9.47349e-21)
(-0.0203097 -0.14778 3.53186e-20)
(1.02554 -0.0707033 -1.26011e-21)
(-0.271009 -0.149219 9.26573e-20)
(0.99979 -0.0415447 6.06128e-22)
(-0.166722 -0.0489288 -1.5869e-19)
(1.0196 -0.0336941 1.78705e-21)
(-0.109772 -0.0190077 1.01864e-19)
(0.87227 -0.0821379 -2.46252e-20)
(0.999684 -0.00440894 -1.47482e-20)
(-0.314754 -0.0917637 -1.82511e-22)
(-0.345357 -0.11707 0)
(1.16275 -0.0165665 4.0938e-20)
(1.03963 -0.175895 0)
(0.466943 -0.588873 -3.00937e-20)
(1.02886 -0.0477391 0)
(1.03187 -0.0160575 0)
(1.00899 -0.0163473 1.8675e-21)
(1.00008 -0.00809768 -1.59526e-20)
(-0.471419 -0.109696 0)
(1.03242 -0.0163807 0)
(1.0017 -0.0175316 -1.22083e-20)
(-0.391446 -0.0607688 0)
(-0.121078 -0.0307317 1.05732e-19)
(1.52037 -0.0602953 -7.94825e-20)
(0.99952 -0.00294777 0)
(-0.204968 -0.0895773 0)
(1.06372 -0.0217912 -9.9991e-21)
(1.02832 -0.0609369 0)
(1.00858 -0.0161668 0)
(0.588841 -0.25664 0)
(0.964975 -0.496453 -7.37156e-21)
(1.00501 -0.00503948 -1.21983e-21)
(0.988653 -0.0470668 4.68588e-21)
(1.00068 -0.014695 8.84247e-21)
(1.27016 -0.365994 1.31115e-19)
(-0.108603 -0.0230361 -1.0497e-19)
(1.0632 -0.0221648 -9.43254e-21)
(-0.105571 -0.122715 0)
(1.42882 -0.0513281 -1.05264e-19)
(0.999068 -0.00484451 0)
(1.00635 -0.0283735 -2.04178e-21)
(1.02979 -0.0618252 1.60406e-22)
(1.08635 0.000406875 -1.56445e-20)
(0.998975 -0.0420463 0)
(0.15277 -0.472146 1.45696e-19)
(1.30767 -0.0133225 0)
(0.479729 -0.22827 0)
(1.01999 -0.0546894 3.01359e-21)
(0.642999 0.233224 -2.43496e-19)
(-0.386099 -0.0608906 1.91755e-22)
(1.0264 -0.129687 -1.38461e-21)
(1.0047 -0.00505123 -1.13233e-21)
(1.49408 -0.134993 0)
(1.49872 -0.116784 0)
(1.03006 -0.00515389 0)
(1.00003 -0.000821893 3.14109e-21)
(-0.533622 -0.046188 -1.07865e-19)
(1.10691 -0.109681 0)
(1.21649 -0.0220268 0)
(1.00016 -0.00719797 1.2037e-20)
(1.02961 -0.0471873 0)
(1.17547 0.0320433 0)
(0.972842 -0.214924 0)
(0.904282 -0.817924 -2.95244e-20)
(1.02018 -0.0594539 0)
(-0.147704 -0.00856301 -7.22347e-20)
(1.05745 -0.0206626 0)
(1.0199 -0.00649932 8.60524e-22)
(1.00034 -0.00523016 0)
(0.888828 -0.123831 -2.1632e-20)
(0.983953 -0.315873 -1.42699e-21)
(0.966424 -0.104479 1.2086e-20)
(1.00003 -0.000698658 0)
(1.00153 -0.0166763 0)
(1.39526 -0.0480671 0)
(-0.374698 -0.121555 -1.1748e-20)
(0.88895 -0.0900833 -1.88826e-20)
(1.16533 -0.190447 1.06395e-20)
(0.701614 -0.209305 2.03358e-20)
(1.26928 -0.273623 4.26387e-20)
(-0.0693537 -0.047245 7.90992e-20)
(1.06462 -0.0522034 0)
(-0.154254 -0.0258094 -1.56034e-19)
(0.988259 -0.049932 -4.83553e-21)
(1.02301 -0.109242 6.26042e-22)
(1.02274 -0.0691838 0)
(-0.147652 -0.00892851 1.58001e-19)
(-0.173101 -0.0604666 2.14151e-19)
(1.04139 -0.0327136 -3.48478e-21)
(0.825138 -0.259206 0)
(1.02556 -0.0330989 2.77912e-22)
(-0.104914 -0.118504 -3.05936e-22)
(1.00038 -0.0542523 1.26071e-20)
(1.278 0.109397 2.19713e-20)
(1.02268 -0.0445934 -8.43502e-22)
(0.328524 -0.8382 4.08247e-20)
(0.195239 -0.47549 -1.09152e-21)
(0.0381477 -0.142782 1.30906e-19)
(-0.286719 -0.104587 9.01055e-20)
(1.04267 -0.0338454 4.08787e-21)
(1.00021 -0.0543517 -5.52268e-21)
(0.196869 -0.0550603 0)
(0.720808 0.240375 3.13985e-19)
(1.17194 0.0391897 7.00051e-21)
(1.01943 -0.0309036 6.05887e-22)
(-0.380291 -0.0595478 0)
(1.21244 -0.0733585 -3.99715e-20)
(0.0273094 -0.144194 1.38543e-19)
(1.28144 -0.351568 1.94492e-20)
(0.591897 -0.255208 7.38437e-20)
(0.471713 -0.149075 6.71948e-20)
(1.01935 -0.0332937 -2.09928e-21)
(1.20752 -0.488279 -9.61936e-20)
(1.02311 -0.00501598 0)
(-0.350585 -0.0887617 -5.38894e-20)
(1.17202 0.0362111 1.53322e-21)
(1.02953 -0.00489397 1.62902e-22)
(0.961826 -0.095768 1.2753e-20)
(0.978746 -0.210135 1.12447e-20)
(0.110332 -0.0548011 1.24766e-19)
(0.989216 -0.0466904 0)
(0.685868 -0.324383 2.40273e-20)
(0.983311 -0.313616 -1.68543e-21)
(-0.346787 -0.0528999 1.22899e-19)
(-0.000802598 -0.032646 1.84451e-19)
(1.21199 -0.0176087 0)
(0.981058 -0.0763526 6.92637e-21)
(1.11278 -0.10508 3.45416e-20)
(-0.301354 -0.097125 0)
(1.02269 -0.0437877 9.26583e-22)
(0.988217 -0.049966 0)
(0.958213 -0.0930715 6.38369e-21)
(0.96665 -0.0987889 -2.04462e-20)
(1.03701 -0.024803 -1.29228e-21)
(0.681467 -0.229345 8.16863e-20)
(-0.154543 -0.025238 1.47582e-19)
(0.987199 -0.0457798 1.61474e-20)
(1.01912 -0.00667766 -6.8502e-22)
(-0.101251 -0.0540031 4.54913e-20)
(0.421746 0.120971 -1.27993e-19)
(1.00029 -0.00545811 0)
(-0.526014 -0.0380865 -5.4928e-20)
(1.02433 -0.0118111 0)
(-0.464368 -0.102687 4.16338e-20)
(1.07142 -0.363479 -1.5149e-20)
(0.181267 -0.0523147 3.08628e-20)
(0.562596 -0.279965 0)
(1.12757 -0.417089 0)
(1.05713 -0.0198435 1.50074e-21)
(1.01878 -0.00594426 0)
(1.26898 0.367913 -1.37198e-19)
(-0.270257 -0.10521 0)
(-0.0912647 -0.118866 -2.55425e-21)
(1.00024 -0.00813054 1.80119e-21)
(1.02429 -0.0334162 -4.07702e-22)
(-0.197105 -0.0907768 3.27493e-20)
(1.06908 -0.14285 -1.59334e-20)
(0.646195 -0.133236 9.36799e-20)
(-0.382603 -0.0586339 0)
(1.06629 -0.0212784 0)
(0.863958 -0.189044 0)
(0.999821 -0.00343704 0)
(1.0329 -0.00635079 0)
(1.27221 0.0996942 -2.15291e-20)
(-0.356389 -0.054837 5.05125e-20)
(0.21413 -0.0184044 -1.45152e-19)
(0.288173 -0.105719 -2.10564e-19)
(1.32817 -0.263146 -1.03131e-21)
(1.00438 -0.0881888 -1.03311e-20)
(1.51618 -0.0679194 0)
(1.33854 -0.290066 0)
(1.02031 -0.00714674 0)
(0.482834 0.130273 0)
(1.00537 -0.00095419 -2.59417e-21)
(0.959709 -0.115981 3.77694e-20)
(0.967207 -0.0628384 0)
(1.00805 -0.0160482 -4.10324e-22)
(1.04323 -0.0191572 4.35684e-21)
(0.461953 -0.150972 4.5123e-20)
(0.999756 -0.0042015 1.67642e-20)
(1.24256 -0.0249447 4.91119e-20)
(0.472332 -0.111518 -5.84637e-20)
(0.962358 -0.109806 -2.41284e-20)
(-0.0482241 -0.140354 0)
(0.961041 -0.0621375 4.01044e-20)
(0.487465 -1.1914 -3.48881e-20)
(0.99226 -0.0217157 1.30605e-20)
(1.06582 -0.0215109 9.40711e-21)
(1.01978 -0.0322622 0)
(1.07836 -0.022056 2.57337e-20)
(1.00004 -0.000317779 -6.37099e-21)
(-0.174676 -0.0559432 -1.29466e-19)
(-0.261958 -0.106743 -9.73673e-20)
(0.999287 -0.00393911 0)
(1.00042 -0.0143087 -4.88897e-21)
(1.27372 0.0229391 7.17828e-20)
(1.00024 -0.000434031 4.06349e-21)
(1.00764 -0.0158416 -2.81058e-21)
(1.04506 -0.0408122 0)
(1.00034 -0.00729434 0)
(0.922888 -0.173108 -3.46218e-20)
(-0.205255 -0.138825 0)
(0.697535 -0.182161 6.77257e-20)
(-0.152134 -0.0281265 3.88934e-20)
(1.00568 -0.0272353 0)
(0.999869 -0.0122854 4.48764e-21)
(1.24757 0.0712747 1.66632e-20)
(1.00555 -0.00497487 1.19756e-21)
(1.03416 -0.0003126 0)
(-0.547734 -0.100492 -1.24362e-19)
(0.996945 -0.165109 0)
(1.00578 -0.191697 7.78012e-20)
(0.884499 -0.0959162 0)
(1.27009 -0.368038 -6.3901e-20)
(1.00524 -0.005037 0)
(1.10497 -0.00736242 0)
(1.02372 -0.0693665 1.48545e-21)
(1.0806 -0.0759738 1.08513e-20)
(0.998993 -0.0223049 3.92324e-21)
(1.00025 -0.00448804 -5.45398e-21)
(1.0227 -0.00448068 -1.83798e-21)
(1.16045 -0.0116903 -2.29713e-20)
(1.21091 -0.0746405 0)
(0.995933 -0.0239356 8.90098e-21)
(1.19853 0.391313 -1.26393e-19)
(0.995838 -0.0246526 0)
(1.04479 -0.041482 0)
(-0.148825 -0.0286486 -1.3664e-19)
(0.928664 -0.00166429 0)
(1.07934 -0.0228321 0)
(-0.0379876 -0.135265 0)
(1.27101 -0.352083 0)
(-0.0938975 -0.116317 -2.06584e-20)
(0.139631 -0.0151344 0)
(1.07879 -0.0739754 -9.57092e-21)
(0.0893199 -0.0238193 0)
(0.995972 -0.0259573 0)
(0.0692895 -0.0975474 1.20822e-19)
(0.544749 -0.978098 2.88695e-20)
(0.963472 -0.0612906 -2.84403e-20)
(0.903258 -0.0517077 -4.53882e-20)
(0.995249 -0.164891 7.50628e-21)
(1.05912 -0.0470685 0)
(1.02175 -0.0610549 -1.72893e-21)
(1.03069 -0.0158901 0)
(0.999342 -0.0201903 5.87574e-21)
(-0.304558 -0.100956 -5.4457e-20)
(0.916216 -0.179648 0)
(0.0172225 -0.142925 -1.34582e-19)
(-0.153267 -0.0275712 1.68164e-20)
(1.36428 -0.280327 0)
(0.092894 -0.0615183 -7.8786e-20)
(1.09698 -0.0371086 -1.11871e-20)
(0.999981 -0.000806203 6.4843e-21)
(1.16443 0.0445925 0)
(1.01698 -0.0309469 0)
(0.854025 -0.865897 0)
(1.00007 -0.000110752 8.25277e-21)
(0.999649 -0.00304478 -1.00585e-20)
(0.0833596 -0.240241 0)
(0.253776 -0.000909542 0)
(1.07108 -0.054642 -4.46412e-21)
(1.03593 -0.0224582 0)
(1.29994 -0.350007 7.98674e-20)
(1.11093 -0.247099 -1.10543e-20)
(0.996927 -0.0526635 1.31478e-20)
(-0.426489 0.198704 -8.46894e-20)
(1.07314 0.00137062 1.19055e-20)
(0.905645 -0.0509535 5.64285e-20)
(-0.351612 -0.0722733 2.23669e-19)
(1.09504 -0.0766615 -7.90121e-21)
(0.999827 -0.00349738 -5.02295e-21)
(-0.543963 -0.116164 0)
(-0.300974 -0.100822 0)
(1.21015 -0.0102802 -2.12305e-20)
(1.0049 -0.0367832 0)
(0.999865 -0.0120724 0)
(-0.336593 -0.0974158 0)
(-0.544408 -0.102171 1.55584e-19)
(1.026 -0.0348181 0)
(1.2897 -0.333838 7.76187e-20)
(1.02624 -0.0131172 0)
(1.03137 -0.0430679 2.53962e-23)
(0.0257604 -0.0727557 0)
(1.03917 -0.0136909 1.9981e-22)
(-0.194109 -0.141114 0)
(1.0955 -0.077421 0)
(1.35313 0.207686 0)
(0.0717011 -0.0628914 1.23582e-19)
(1.15396 0.36145 1.7167e-19)
(0.589651 0.211764 3.46926e-19)
(1.01682 -0.0284363 0)
(-0.0394313 -0.0331623 5.82751e-20)
(0.995953 -0.0262681 0)
(1.28285 0.342618 1.93944e-19)
(1.15813 -0.284414 0)
(0.0576028 -0.110687 7.35684e-20)
(0.299363 -0.151009 1.48382e-19)
(1.03025 -0.015141 -1.50537e-21)
(1.03353 0.000160989 -1.0016e-22)
(1.20935 -0.490394 0)
(-0.0779384 -0.111848 -4.05831e-20)
(1.10655 -0.00982365 8.27157e-21)
(0.563461 -0.25805 -7.07465e-20)
(1.06857 -0.0551345 3.85583e-21)
(1.05311 -0.0907538 1.22382e-20)
(1.01776 -0.00541774 -6.70718e-22)
(-0.246149 -0.148224 -3.32213e-22)
(1.17872 0.408377 1.30189e-19)
(-0.105003 -0.0167908 -3.50606e-20)
(1.06261 -0.0478253 6.14467e-21)
(0.965722 -0.0391207 -8.37497e-21)
(0.109859 -0.242165 0)
(-0.209557 -0.0955144 -1.09601e-19)
(0.903688 -0.0486833 -6.5302e-20)
(0.998827 -0.0851309 -1.27954e-20)
(1.03594 -0.0231845 0)
(1.02693 -0.012812 -2.82412e-21)
(-0.0832891 -0.115569 0)
(-0.0326301 -0.145191 6.80163e-20)
(1.00431 -0.00789715 -1.79122e-22)
(1.05587 -0.00945823 -7.25145e-21)
(-0.381465 -0.0743588 0)
(1.039 -0.0184561 3.98118e-22)
(-0.238822 -0.0653494 2.23074e-19)
(1.03481 -0.0211987 -4.81947e-21)
(-0.140789 -0.0260336 0)
(1.10528 -0.246012 -3.36747e-20)
(0.0638475 -0.104346 6.48309e-20)
(0.945203 -0.153127 -1.60315e-20)
(0.450414 -0.12277 -7.15492e-20)
(-0.153555 -0.0271298 9.83123e-21)
(1.03142 -0.139328 4.00069e-22)
(1.26299 0.00526112 -3.40462e-20)
(1.05381 -0.0921986 -5.55544e-21)
(1.2483 -0.00747853 2.812e-20)
(1.09523 -0.0335202 0)
(0.989106 -0.0431995 0)
(1.06821 -0.147237 9.62555e-22)
(0.231532 -0.590115 -8.01993e-20)
(1.03309 -0.00693624 0)
(1.08342 -0.0469556 0)
(-0.210378 -0.0943374 3.10335e-20)
(1.0253 -0.0139787 4.09319e-21)
(1.00024 -0.00474231 0)
(1.36603 0.356777 0)
(1.01566 -0.0175041 -1.43668e-21)
(-0.277238 -0.10296 -5.18775e-20)
(1.06893 -0.0204454 0)
(1.07764 -0.0194218 0)
(1.05432 -0.00684419 0)
(1.13928 -0.0544574 -3.23885e-20)
(1.07149 0.00219997 1.01358e-20)
(1.00004 -0.000781907 1.29879e-22)
(0.532682 -0.569396 0)
(1.03214 -0.0443415 -8.96715e-23)
(0.830079 -0.161138 0)
(1.00041 -0.0139051 -4.59587e-21)
(1.10538 -0.133097 4.19891e-20)
(-0.277989 -0.100924 -1.16787e-19)
(0.999968 -0.00125378 -1.25418e-22)
(0.707082 -0.0220635 3.22152e-20)
(1.08974 -0.108432 0)
(0.0384851 0.0135577 0)
(-0.535523 -0.158258 1.3327e-19)
(-0.531029 -0.162619 0)
(-0.188979 -0.0733607 0)
(1.14292 -0.0563792 3.64246e-20)
(1.18804 -0.280191 8.21984e-22)
(1.16898 0.0393614 8.07962e-21)
(-0.252128 -0.0676662 -1.11888e-19)
(0.978453 -0.0433042 0)
(1.14767 -0.359361 -6.01499e-20)
(0.971447 -0.101172 1.92758e-20)
(0.525182 -0.061815 1.08757e-19)
(1.40781 -0.0514982 -8.81393e-20)
(1.08085 -0.296022 0)
(1.00032 -0.000525755 -3.31569e-21)
(0.372925 -0.381155 -8.8397e-20)
(1.43595 0.0203623 1.20125e-19)
(0.0511872 -0.0738294 2.04894e-20)
(1.04988 -0.0357923 0)
(-0.348044 -0.0761714 -3.15969e-19)
(0.926603 -0.0546002 -6.70864e-22)
(1.28927 0.100072 -2.31261e-20)
(0.996697 -0.0120992 7.78796e-21)
(1.1595 -0.28832 -4.20012e-20)
(-0.234967 -0.102374 9.28788e-20)
(0.999374 -0.0036997 -1.0314e-20)
(1.05485 -0.00865822 0)
(-0.533773 -0.15896 0)
(1.04147 -0.0208127 0)
(0.94498 -0.481629 -1.43814e-21)
(1.03957 -0.0214436 0)
(1.13048 -0.0810853 2.96583e-20)
(1.03942 -0.0601572 1.2883e-21)
(1.17506 -0.115001 1.84271e-20)
(1.01532 -0.0164051 4.46775e-22)
(0.732623 -0.482857 -2.51407e-20)
(1.00011 -0.00101802 2.03139e-21)
(-0.00349631 0.106834 -4.41328e-20)
(1.05175 -0.0363981 0)
(-0.190487 -0.073321 -1.54159e-19)
(1.00018 -0.173149 0)
(-0.288668 -0.0315979 1.12589e-19)
(-0.213725 -0.100112 -1.15002e-19)
(1.08096 -0.0445977 0)
(0.956724 -0.00872274 1.37899e-20)
(1.24649 -0.0103755 5.3929e-20)
(-0.0993639 -0.144606 1.67889e-19)
(-0.152932 -0.0276207 -2.1327e-20)
(1.04478 -0.0179132 5.22249e-22)
(0.820651 -0.159229 2.76487e-20)
(1.34638 0.195376 -8.58805e-20)
(1.08216 -0.0271585 1.38427e-20)
(1.42079 0.248964 1.73126e-20)
(1.0199 -0.0663599 0)
(0.999282 -0.00424659 5.85688e-21)
(1.08114 -0.0286673 -5.13653e-21)
(1.00344 -0.000699087 2.0851e-21)
(1.00006 -0.00084107 4.87247e-21)
(1.0195 -0.0678912 2.50727e-21)
(0.244068 -0.11014 1.27732e-19)
(1.02489 -0.012607 0)
(1.03104 -0.0338664 0)
(1.13284 -0.0482221 -1.2008e-20)
(1.05627 -0.102236 1.0798e-22)
(0.510155 -0.540153 5.40681e-20)
(-0.295174 -0.0570238 8.55209e-20)
(0.977399 -0.04228 -8.52829e-22)
(1.2534 0.066903 1.96352e-20)
(1.34431 -0.267155 0)
(1.07723 -0.293434 0)
(1.00024 -0.0129146 9.56238e-21)
(-0.0310649 -0.032817 0)
(0.777213 0.267084 -1.11427e-19)
(0.0441293 -0.0389197 0)
(1.43543 0.242027 -2.1229e-20)
(1.17536 0.0317641 0)
(1.05715 -0.0917931 1.84923e-21)
(1.14464 -0.0651841 9.48602e-21)
(1.16282 -0.012534 0)
(1.0711 -0.0186319 -5.80135e-21)
(1.35622 -0.259811 3.95648e-20)
(1.01148 -0.039519 0)
(1.0714 -0.0190768 -6.65944e-21)
(1.03361 -0.0105536 2.40383e-21)
(-0.416585 -0.0440231 0)
(0.0529289 -0.102153 -2.03791e-19)
(-0.492708 -0.139353 -7.36581e-20)
(1.03121 -0.171016 -1.2618e-21)
(1.00616 -0.0348521 -4.71538e-21)
(-0.336373 -0.0955544 0)
(-0.108796 -0.0299723 -9.67495e-20)
(0.929672 -0.848441 2.58503e-20)
(1.10824 -0.134507 -1.98115e-20)
(0.758482 -0.0594375 -2.08286e-21)
(-0.477503 -0.165299 -1.58924e-20)
(1.00478 -0.000764206 1.95667e-21)
(-0.528661 -0.161897 0)
(1.05272 -0.10228 -9.01681e-23)
(0.95583 -0.072053 0)
(0.957321 -0.0479773 0)
(0.57194 -0.626448 -3.63991e-20)
(-0.113426 -0.0305621 2.54998e-20)
(1.06856 -0.0206035 0)
(0.719899 -0.481878 0)
(0.945141 -0.154233 -9.50466e-21)
(1.00211 -0.0849913 1.17805e-20)
(-0.153557 -0.00920452 -9.45977e-20)
(1.04039 -0.574365 -4.22535e-20)
(0.996728 -0.0350641 5.6581e-21)
(-0.0752867 -0.145775 -1.55124e-19)
(1.1661 -0.0221607 1.2e-20)
(-0.413017 0.478414 -1.39997e-19)
(1.02658 -0.0622196 1.03308e-21)
(0.438106 -0.104265 -8.12151e-20)
(1.17364 -0.115745 3.36045e-20)
(1.1308 0.0234463 -1.26191e-20)
(1.0098 -0.000523124 4.82595e-22)
(0.0577475 -0.095364 -8.1321e-20)
(1.20937 -0.16671 3.06087e-20)
(1.26814 -0.00494902 0)
(1.24121 0.088326 1.69146e-20)
(-0.195174 -0.108799 0)
(1.10671 -0.0104932 1.36301e-22)
(-0.495196 -0.143641 1.32213e-19)
(1.06397 -0.0332631 0)
(1.03496 -0.172641 0)
(0.0415724 -0.118711 -1.54785e-19)
(1.12289 -0.0834795 1.64078e-20)
(1.00555 -0.0104126 0)
(0.74649 -0.0784901 -1.58514e-21)
(1.08004 -0.034607 -1.46374e-20)
(1.2352 0.0700067 8.61392e-20)
(1.03043 -0.0328211 2.03258e-23)
(0.994137 -0.041048 7.20201e-21)
(0.501104 -0.579286 -5.18601e-20)
(1.16471 -0.522171 0)
(-0.0982562 -0.102832 -9.8301e-20)
(1.00009 -0.00043081 0)
(-0.276446 -0.102619 5.44538e-20)
(1.03572 -0.0204482 0)
(0.901718 -0.561192 1.04902e-21)
(1.2129 -0.0120862 1.30212e-20)
(1.03364 -0.0110193 -2.56672e-21)
(1.04687 -0.0404034 -5.38051e-21)
(0.964006 -0.0650527 -9.94704e-21)
(1.05526 -0.131047 0)
(0.972254 -0.0636289 -1.63364e-20)
(1.18811 -0.281272 1.09944e-22)
(1.29782 0.095367 1.83233e-20)
(0.969961 -0.243716 1.50162e-20)
(1.02691 -0.0474206 0)
(1.02389 -0.0317916 1.86014e-22)
(0.956395 -0.0906856 0)
(0.202103 -0.139302 7.01248e-20)
(1.0037 -0.0228354 4.47302e-21)
(0.910517 -0.151384 -1.62345e-20)
(1.02214 -0.00732648 -1.65127e-21)
(-0.49871 0.581212 4.21014e-20)
(1.00007 -0.00166385 0)
(0.951292 -0.0734849 2.73371e-20)
(1.07136 -0.00182297 -2.94167e-21)
(1.02469 -0.0131517 -2.12417e-21)
(-0.379146 -0.0742269 1.31287e-19)
(1.42466 0.0127012 -5.39848e-20)
(0.175988 -0.408757 0)
(1.02306 -0.131135 1.77097e-21)
(0.337463 -0.080999 -1.72939e-21)
(1.16366 -0.0277926 0)
(1.03645 -0.0149851 1.42769e-21)
(1.13674 0.0298232 3.15493e-20)
(-0.117532 -0.0305942 0)
(1.09777 -0.0713541 1.36459e-20)
(1.04896 -0.0405488 3.21066e-21)
(0.248872 -0.135565 6.86512e-20)
(0.576966 0.0812739 0)
(1.00118 -0.0183383 1.25384e-20)
(-0.190439 -0.0896142 0)
(0.0576268 -0.0502964 0)
(1.06434 -0.0342618 5.38788e-21)
(1.07135 -0.015536 0)
(1.19682 -0.212981 3.08219e-20)
(0.959089 -0.0444015 -1.6076e-20)
(0.997303 -0.0337046 0)
(0.859016 -0.920978 0)
(-0.370989 -0.0783006 -2.08434e-20)
(-0.159761 -0.00923402 0)
(0.279773 -0.136309 -1.41469e-19)
(0.99732 -0.0303003 -2.22331e-20)
(0.697684 -0.275064 0)
(1.00626 -0.028768 0)
(1.00858 -0.0223841 -1.50024e-21)
(1.0353 -0.0145043 -2.51351e-21)
(-0.126958 -0.0284237 0)
(1.02116 -0.00163357 -2.45952e-21)
(1.0214 -0.0564425 -2.45315e-21)
(-0.469481 -0.165826 -3.514e-22)
(-0.217757 -0.095476 -1.74489e-19)
(1.0804 -0.0538597 2.10686e-20)
(1.21137 -0.237033 1.41469e-19)
(1.10595 -0.140425 -1.23237e-20)
(1.00427 -0.00855414 0)
(0.205021 0.107965 0)
(1.12586 -0.0394484 -3.38721e-22)
(1.15202 -0.511064 0)
(1.01014 -0.0836081 0)
(1.0036 -0.570385 -5.80624e-22)
(1.03433 -0.00114637 -3.43728e-21)
(1.10914 -0.0132774 -9.27565e-21)
(0.999969 -0.000809581 1.11779e-20)
(1.18379 -0.396925 7.2161e-20)
(1.02747 -0.0464352 0)
(-0.14796 -0.031008 2.60282e-20)
(0.159006 -0.0522216 0)
(1.36604 -0.188548 -1.11957e-19)
(-0.107667 -0.0262858 -2.48043e-23)
(-0.0892717 -0.113005 0)
(0.910851 -0.11286 4.12966e-20)
(-0.314651 -0.0905188 -1.42082e-19)
(1.16916 -0.29917 0)
(1.28615 0.11047 2.51669e-20)
(0.957383 -0.0468408 5.29835e-21)
(1.0456 -0.0398752 5.22435e-21)
(-0.0750842 -0.0439173 -4.04507e-20)
(0.506688 0.117413 0)
(1.21103 -0.26472 -4.76984e-20)
(1.20405 -0.339821 -1.1397e-19)
(1.08981 -0.296745 -3.53622e-20)
(0.998976 -0.0215631 6.53478e-21)
(1.02746 -0.137075 -5.20628e-23)
(0.0677337 -0.119803 1.78082e-19)
(-0.150031 -0.0283946 2.0628e-19)
(1.00572 -0.0336709 1.88174e-22)
(1.06912 -0.0961145 0)
(-0.31745 -0.125441 -4.5324e-20)
(-0.0433874 0.210269 -2.21249e-19)
(0.0408338 -0.114096 -1.12287e-19)
(1.38488 -0.0836007 9.28187e-20)
(1.00705 -0.000326201 1.05578e-21)
(0.957798 -0.0764533 3.09157e-20)
(-0.291195 -0.0991546 1.1043e-19)
(-0.0343569 -0.0579275 0)
(1.01486 -0.00330975 1.18071e-23)
(1.14192 -0.0241445 -3.92863e-20)
(1.0181 -0.00607705 5.84388e-22)
(0.730958 -0.960614 -7.88634e-22)
(0.996996 -0.0115168 0)
(0.915427 -0.1662 -8.29863e-20)
(1.09357 -0.298704 4.03251e-20)
(1.00151 -0.0182374 1.07525e-20)
(1.06189 0.000881761 0)
(-0.237449 -0.103521 3.50494e-20)
(0.996721 -0.0265169 0)
(1.08488 -0.112482 8.59608e-21)
(0.993537 -0.039336 -7.26509e-21)
(1.01086 -0.000812421 1.0316e-22)
(1.00354 -0.0440687 5.51988e-23)
(1.0785 -0.675451 -2.68274e-20)
(0.87349 -0.380645 -3.19063e-20)
(1.35563 -0.287686 -3.20288e-20)
(0.159189 -0.0265036 -1.58312e-19)
(-0.224523 -0.0989318 8.67876e-20)
(-0.45848 -0.0293551 0)
(1.00007 -0.000927858 -1.32271e-20)
(1.00604 -0.166456 0)
(0.905081 -0.0607992 5.73892e-20)
(1.10184 -0.0910769 -3.17995e-20)
(1.30237 -0.32926 -8.41096e-20)
(0.998761 -0.0228331 0)
(0.988543 -0.0422803 -2.04315e-21)
(1.04356 -0.0173903 0)
(0.412543 -0.881707 -3.27305e-20)
(-0.284212 -0.116891 -2.01598e-19)
(0.376315 -0.786496 2.30594e-20)
(0.998296 -0.0334458 -1.78632e-20)
(0.99036 -0.157376 -7.56275e-21)
(1.03736 -0.0134848 -2.1849e-23)
(1.0348 -0.0146803 1.25752e-22)
(1.03375 -0.000127199 -7.27607e-21)
(0.99939 -0.104794 -7.80064e-21)
(0.969479 -0.24274 -1.60259e-20)
(-0.507353 0.593087 3.67858e-22)
(0.919355 -0.152427 1.432e-20)
(1.0083 -0.0225905 0)
(0.939503 -0.508696 -1.83681e-21)
(0.715164 -0.964797 -2.50689e-20)
(0.835394 -0.235623 1.18193e-21)
(1.00763 -0.0226661 3.57429e-21)
(-0.261044 -0.128726 -2.47635e-19)
(-0.11333 -0.102539 0)
(1.00592 -0.0330867 9.88698e-21)
(-0.121057 -0.0306018 -1.01622e-19)
(1.29975 -0.347648 -7.65603e-20)
(1.21455 0.00417277 0)
(0.98918 -0.156424 0)
(0.999741 -0.00882376 0)
(1.02123 -0.104993 -1.24059e-21)
(1.14873 -0.338332 0)
(-0.109489 -0.0295721 -1.1582e-19)
(1.2138 0.442774 -3.57991e-20)
(1.05091 -0.0391575 -7.68497e-22)
(-0.426347 0.478905 -7.54493e-20)
(-0.496886 -0.15422 1.46135e-19)
(-0.265327 -0.0681958 -8.78511e-20)
(1.07092 -0.0151741 1.71594e-21)
(-0.210259 -0.0900403 0)
(1.29217 -0.284354 -3.23729e-21)
(-0.397576 -0.0677363 0)
(0.831409 -0.267496 0)
(0.0904664 -0.0476125 -7.47728e-20)
(1.04533 -0.0199123 0)
(-0.219127 -0.0942332 1.91552e-19)
(0.329375 -0.131105 0)
(1.01467 -0.127386 0)
(1.01993 -0.0587364 0)
(1.05518 -0.00756289 0)
(1.04134 -0.147907 1.58787e-21)
(1.5016 -0.110245 0)
(1.0402 -0.0583459 1.73325e-21)
(1.35832 -0.189705 1.47043e-19)
(1.01181 -0.0829366 0)
(1.12896 -0.512186 2.83968e-20)
(1.14094 -0.0719825 0)
(-0.394549 -0.0683777 0)
(-0.433624 -0.0540114 1.47481e-19)
(1.03679 -0.0213282 -6.60578e-22)
(1.30954 -0.333286 0)
(1.06216 -0.288785 1.23555e-20)
(1.37486 -0.0722946 -1.63939e-19)
(1.26318 -0.206731 0)
(-0.26595 -0.117814 8.65175e-20)
(1.00071 -0.0291208 -7.96913e-21)
(1.20241 -0.328259 0)
(0.687463 -0.266309 2.89727e-20)
(1.27722 -0.338725 -1.24582e-19)
(0.0481957 -0.108311 0)
(0.997818 -0.0503536 0)
(0.0813254 -0.0571293 -1.00589e-19)
(0.0319605 0.421535 -5.55097e-20)
(0.993136 -0.034993 -1.29532e-20)
(0.0943756 -0.150872 -1.21833e-19)
(1.23889 -0.325923 -4.83943e-20)
(1.01413 -0.00366408 -7.87474e-25)
(-0.0311211 0.112211 0)
(-0.547183 -0.112845 -3.43147e-20)
(1.03129 -0.0740288 4.12567e-23)
(1.13827 -0.184164 0)
(-0.201199 -0.123433 -4.46914e-22)
(0.992719 -0.0342117 -7.90748e-21)
(0.0500879 -0.136409 -1.20648e-19)
(0.998086 -0.0546698 -1.33522e-20)
(0.999749 -0.0372099 -1.00409e-20)
(0.988928 -0.0410894 2.06668e-21)
(1.16759 -0.0519952 -5.29514e-20)
(1.0077 -0.0221788 0)
(1.0345 -0.00192562 5.07071e-21)
(-0.466017 -0.0272669 1.11093e-19)
(0.999979 -0.000755892 -1.45039e-20)
(1.09768 -0.0733081 -2.35147e-20)
(1.06474 -0.0310519 1.03908e-20)
(0.574163 0.129584 1.40667e-19)
(0.874036 -0.201814 0)
(1.00032 -0.0289937 1.0659e-21)
(1.04227 -0.0196029 -8.20685e-22)
(0.0543158 -0.133635 -8.14062e-20)
(1.01913 -0.0644038 0)
(0.629664 -0.703967 4.85262e-20)
(0.163852 -0.522749 0)
(1.02746 -0.167848 1.34851e-21)
(0.761179 -0.00717113 -6.22359e-20)
(1.00038 -0.102223 1.28956e-20)
(1.14357 -0.011384 4.6368e-20)
(0.264027 -0.0615175 -2.97203e-20)
(1.20435 0.364806 0)
(0.907079 -0.119228 -3.95944e-20)
(1.00696 -0.0400368 0)
(1.02519 -0.16919 -2.12389e-22)
(1.09992 -0.134461 0)
(1.35478 -0.287751 0)
(1.07614 -0.000297428 0)
(1.00531 -0.0207717 0)
(1.23814 -0.0188721 -5.22923e-20)
(0.999453 -0.0033695 1.08711e-20)
(-0.438315 -0.0882972 -1.8423e-22)
(1.11841 -0.241145 -3.93728e-20)
(1.01646 -0.0636125 0)
(1.00155 -0.0162084 -6.7729e-23)
(1.11647 -0.0988892 4.0312e-20)
(1.06464 -0.141813 -7.06163e-21)
(0.205116 -0.526989 0)
(0.982958 -0.0363598 -2.29151e-20)
(1.02208 -0.0118991 -3.13741e-22)
(0.173814 -0.415263 0)
(1.00153 -0.0403173 -5.6922e-22)
(1.3092 -0.216035 -7.97794e-20)
(1.08915 -0.402043 -1.95813e-19)
(1.03149 -0.140889 -1.30168e-21)
(-0.227956 -0.122042 1.49236e-19)
(0.999888 -0.00847749 0)
(-0.262167 -0.106268 0)
(0.999945 -0.0115379 -8.64786e-21)
(1.2588 -0.216568 -1.66173e-20)
(0.624778 -0.70984 -1.11224e-20)
(1.20514 0.387537 8.31444e-20)
(1.18766 -0.0957754 0)
(1.00753 -0.00642024 -1.66255e-21)
(1.2523 -0.216924 5.15161e-20)
(1.0789 -0.0203518 8.20538e-21)
(-0.156049 -0.0364382 -1.63451e-19)
(-0.525922 -0.162956 -2.36929e-19)
(1.17598 -0.546425 -6.32207e-20)
(1.20507 -0.421159 7.84226e-20)
(1.22112 -0.134323 0)
(1.00674 -0.0850914 4.66016e-21)
(1.02934 -0.105393 2.74315e-22)
(-0.226252 -0.0956455 -1.30615e-19)
(-0.38493 -0.0709621 7.62466e-20)
(1.0061 -0.038576 0)
(0.359804 0.367812 5.64773e-20)
(1.17035 0.424416 -4.86591e-20)
(1.02262 -0.0127713 3.63982e-22)
(0.698321 -0.200726 0)
(1.49595 -0.104597 -2.44132e-20)
(0.938685 -0.182627 6.52749e-20)
(1.04243 -0.0204821 -3.42896e-21)
(-0.362136 -0.0808931 0)
(0.16218 0.335724 -3.98824e-20)
(-0.301687 -0.0972254 1.49584e-19)
(-0.0401447 -0.0383819 0)
(0.127261 -0.122288 -8.34478e-20)
(-0.415589 -0.0987877 2.22165e-19)
(1.22197 -0.135303 1.56443e-20)
(1.00442 -0.0055641 2.5984e-21)
(0.907053 -0.0707755 2.80186e-20)
(1.13601 -0.172401 1.33578e-20)
(1.00162 -0.0302333 7.42664e-21)
(1.03055 -0.0746914 0)
(-0.149825 -0.12452 -1.72232e-19)
(1.07125 0.0033905 -1.11915e-20)
(1.19978 -0.222609 -4.30265e-20)
(-0.434656 -0.0741476 0)
(0.705025 -0.605997 0)
(-0.401612 0.19653 -9.25168e-20)
(0.849291 -0.174381 1.50038e-20)
(0.73557 -0.156986 -9.13837e-20)
(1.24851 -0.305458 -1.0414e-19)
(1.19715 -0.274984 0)
(1.00002 -0.000260693 6.21769e-21)
(-0.123277 -0.0307046 0)
(1.00799 -0.000760011 1.21713e-21)
(0.356441 -0.148139 -3.16516e-20)
(0.882541 -0.361035 -7.0997e-20)
(1.00055 -0.00577179 0)
(1.26449 0.101428 2.02529e-20)
(0.987607 -0.0478523 -2.67006e-20)
(0.472652 -0.10778 1.50859e-19)
(-0.524603 -0.165266 2.02327e-19)
(1.01593 -0.594309 0)
(1.2311 -0.431179 2.51565e-21)
(1.0346 -0.00596315 0)
(1.02061 -0.0696739 2.28774e-21)
(-0.215055 -0.0985319 0)
(1.05632 -0.361315 9.78025e-21)
(-0.146377 -0.0284709 -8.20283e-20)