/*--------------------------------*- C++ -*----------------------------------*\
| =========                 |                                                 |
| \\      /  F ield         | OpenFOAM: The Open Source CFD Toolbox           |
|  \\    /   O peration     | Version:  v2012                                 |
|   \\  /    A nd           | Website:  www.openfoam.com                      |
|    \\/     M anipulation  |                                                 |
\*---------------------------------------------------------------------------*/
FoamFile
{
    version     2.0;
    format      ascii;
    class       volVectorField;
    location    "250";
    object      U_0;
}
// * * * * * * * * * * * * * * * * * * * * * * * * * * * * * * * * * * * * * //

dimensions      [0 1 -1 0 0 0 0];


internalField   nonuniform List<vector> 
18649
(
(-0.131565 -0.0307423 1.30721e-23)
(1.01706 -0.126068 1.84941e-21)
(1.07802 0.00273295 0)
(-0.140187 -0.0257612 -1.28964e-19)
(0.481115 -0.168336 1.28093e-19)
(1.12667 -0.0792674 -3.2017e-20)
(0.0264195 -0.017025 -1.41469e-19)
(1.2793 -0.298278 -2.06716e-20)
(1.26364 0.0112734 3.02347e-20)
(0.958083 -0.0594363 -9.99272e-22)
(1.21536 -0.342915 8.50303e-20)
(-0.42327 -0.0643027 -3.95729e-20)
(1.18202 0.354166 -2.20838e-19)
(1.07651 0.00104035 0)
(0.991848 -0.0227723 0)
(1.21415 -0.0601162 4.23014e-20)
(1.01651 -0.00253628 5.06026e-23)
(1.21393 -0.0637236 1.82755e-20)
(1.11331 -0.428065 4.70349e-20)
(0.00648706 -0.144299 -1.77511e-19)
(-0.00837025 -0.0331996 -1.0706e-20)
(1.05236 -0.0702315 0)
(-0.399349 -0.0661015 0)
(1.26337 0.257425 0)
(1.0177 -0.0172538 0)
(-0.0249575 -0.142391 -3.92741e-20)
(1.03994 -0.0613607 -4.13984e-22)
(-0.424736 -0.0677234 -1.17979e-19)
(1.34601 -0.294731 0)
(1.03202 -0.00204682 -6.50054e-21)
(1.06068 -0.0504428 3.42775e-21)
(1.04987 -0.345573 9.49794e-21)
(1.00506 -0.0104257 -8.40528e-23)
(0.962135 -0.10887 -2.76692e-20)
(0.981056 -0.0773225 5.94981e-21)
(-0.373745 -0.0749827 -4.01261e-20)
(0.878452 -0.0746035 6.77143e-20)
(1.01682 -0.0570226 1.13619e-21)
(1.03699 -0.0147311 4.01036e-21)
(1.27007 -0.300543 -5.67744e-20)
(1.27336 0.0142264 -9.24817e-20)
(1.26748 0.260667 -4.50859e-21)
(1.26271 0.0544826 -4.43921e-21)
(-0.278462 -0.101809 1.70421e-22)
(1.02191 -0.125028 5.6005e-22)
(1.03241 -0.00167694 -5.87258e-21)
(-0.0786105 -0.0510191 -1.23951e-19)
(-0.135812 -0.0268975 9.17645e-20)
(0.983594 -0.303547 -2.7189e-22)
(1.0349 -0.0208625 6.49547e-21)
(-0.452158 0.503842 7.5443e-20)
(1.12749 -0.127203 -5.05573e-21)
(0.224345 -0.0571608 2.83608e-20)
(0.415286 -0.128574 0)
(1.00485 -0.00950774 -2.75971e-21)
(0.963178 -0.29886 1.06202e-19)
(-0.348362 -0.111861 0)
(1.31738 -0.00989964 0)
(-0.113889 -0.0212485 -1.296e-19)
(0.96098 -0.0601382 1.11641e-21)
(-0.132255 -0.0312974 -9.22897e-20)
(1.00365 -0.0233433 4.6319e-21)
(1.25498 0.0600326 0)
(-0.12206 -0.0293578 -5.13606e-20)
(1.01834 -0.0565593 0)
(-0.11506 -0.029799 1.80965e-19)
(1.05056 -0.039441 0)
(-0.361037 -0.120178 0)
(-0.118815 -0.0307532 -9.43221e-20)
(1.47671 -0.110108 1.26828e-19)
(-0.370942 -0.078771 1.69412e-20)
(1.005 -0.0263454 6.29019e-22)
(1.03232 -0.349704 2.62626e-21)
(1.12384 -0.0415289 -1.7424e-22)
(0.96694 -0.104871 2.27991e-20)
(-0.0138381 -0.0349053 1.17733e-20)
(0.861212 -0.176983 1.31462e-20)
(1.04617 -0.173302 5.98524e-21)
(1.1204 -0.040215 -9.92025e-21)
(0.963391 -0.508845 0)
(1.0167 -0.00242622 0)
(-0.0927244 -0.0505244 0)
(-0.167882 -0.0446866 2.47937e-19)
(0.247909 -0.0625011 -2.68442e-20)
(0.834108 -0.28639 0)
(1.03677 -0.0139411 -5.59786e-21)
(0.883581 -0.136501 6.01e-20)
(1.12455 -0.123179 3.81062e-20)
(1.16324 -0.179466 2.12568e-20)
(1.12875 -0.0488616 0)
(1.16581 -0.0203159 -4.50333e-20)
(0.965779 -0.0387521 0)
(1.00693 -0.0499549 -3.88753e-21)
(-0.279298 -0.040798 -1.81104e-19)
(1.05127 -0.068775 0)
(1.21329 -0.335771 1.21413e-19)
(0.966262 -0.0633461 0)
(0.944422 -0.470765 1.43621e-21)
(-0.115636 -0.0307669 -4.76737e-20)
(1.03956 -0.0582062 3.20936e-22)
(-0.399495 -0.067027 -1.63013e-19)
(0.91701 -0.257437 0)
(1.02144 -0.00786657 1.44458e-23)
(-0.447258 0.503472 0)
(-0.120056 -0.0305829 5.24728e-20)
(1.13127 -0.127117 -8.51381e-22)
(0.999045 -0.0046358 -6.31847e-21)
(1.06601 -0.0525495 -8.15556e-22)
(0.921121 -0.258412 -2.13701e-20)
(0.965547 -0.0941288 1.93678e-20)
(-0.376842 -0.0755718 -7.50722e-20)
(0.679518 -0.231479 -1.40132e-19)
(1.00661 -0.0504472 -3.54223e-21)
(0.960828 -0.0936629 -6.11e-21)
(1.43335 -0.0579298 1.09054e-19)
(1.08861 0.0021939 -9.88212e-21)
(1.00438 -0.00915589 -4.8083e-23)
(-0.293066 -0.148517 0)
(-0.291349 -0.0992407 0)
(1.0446 -0.0193147 0)
(-0.112895 -0.0234771 1.29369e-19)
(1.02643 -0.0697937 0)
(1.03655 -0.347727 -2.52223e-21)
(1.0043 -0.0263766 6.9593e-23)
(-0.111782 -0.121115 4.7772e-20)
(1.01814 -0.0182048 0)
(1.00001 -0.000235296 -9.47651e-21)
(-0.020735 -0.148151 3.52748e-20)
(1.02554 -0.0707082 -1.27834e-21)
(-0.271903 -0.148269 9.24879e-20)
(0.999793 -0.0415419 6.0633e-22)
(-0.166938 -0.0489033 -1.58344e-19)
(1.0196 -0.0336933 1.81545e-21)
(-0.109758 -0.0190158 1.01621e-19)
(0.872205 -0.082192 -2.45983e-20)
(0.999684 -0.00440163 -1.47247e-20)
(-0.315536 -0.0921521 -1.83232e-22)
(-0.346079 -0.116597 0)
(1.16277 -0.016541 4.08175e-20)
(1.03967 -0.175788 0)
(0.467302 -0.589697 -2.99395e-20)
(1.02886 -0.0477384 0)
(1.03187 -0.0160582 0)
(1.00899 -0.0163521 1.87866e-21)
(1.00008 -0.0080906 -1.59461e-20)
(-0.472018 -0.108554 0)
(1.03242 -0.0163826 0)
(1.0017 -0.0175375 -1.22125e-20)
(-0.39306 -0.0610661 0)
(-0.121084 -0.0308176 1.05496e-19)
(1.52056 -0.059654 -7.93783e-20)
(0.999519 -0.0029407 0)
(-0.20542 -0.0897714 0)
(1.06373 -0.0217985 -9.94819e-21)
(1.02831 -0.0609419 0)
(1.00858 -0.0161717 0)
(0.588124 -0.256826 0)
(0.964069 -0.496742 -7.3125e-21)
(1.00501 -0.0050418 -1.22802e-21)
(0.988651 -0.0470677 4.68304e-21)
(1.00068 -0.0147231 8.84069e-21)
(1.27006 -0.366432 1.30757e-19)
(-0.108575 -0.0230773 -1.04725e-19)
(1.06321 -0.0221689 -9.3835e-21)
(-0.106078 -0.123163 0)
(1.42934 -0.0509583 -1.05149e-19)
(0.999067 -0.00483704 0)
(1.00635 -0.0283815 -2.04548e-21)
(1.02979 -0.061821 1.7966e-22)
(1.08636 0.000430789 -1.55788e-20)
(0.998973 -0.0420591 0)
(0.153338 -0.471673 1.45056e-19)
(1.30767 -0.0131315 0)
(0.479412 -0.228477 0)
(1.01999 -0.0546864 3.03949e-21)
(0.643096 0.233967 -2.42844e-19)
(-0.387762 -0.0611941 1.9109e-22)
(1.02638 -0.129657 -1.41841e-21)
(1.0047 -0.00505328 -1.13932e-21)
(1.49437 -0.134505 0)
(1.49947 -0.116247 0)
(1.03007 -0.00515479 0)
(1.00003 -0.000819319 3.13747e-21)
(-0.532432 -0.045905 -1.07458e-19)
(1.10694 -0.10972 0)
(1.21648 -0.0221456 0)
(1.00015 -0.00719671 1.2032e-20)
(1.02962 -0.0471855 0)
(1.17547 0.0320013 0)
(0.972744 -0.214937 0)
(0.902687 -0.817025 -2.91407e-20)
(1.02018 -0.0594489 0)
(-0.147666 -0.00869192 -7.22712e-20)
(1.05746 -0.0206674 0)
(1.0199 -0.00649898 8.37939e-22)
(1.00034 -0.00522816 0)
(0.888835 -0.123857 -2.16173e-20)
(0.983695 -0.315923 -1.39461e-21)
(0.966415 -0.104513 1.20933e-20)
(1.00003 -0.000699746 0)
(1.00153 -0.0166834 0)
(1.3952 -0.0475513 0)
(-0.375501 -0.120846 -1.1732e-20)
(0.888941 -0.090175 -1.89023e-20)
(1.16542 -0.190334 1.06037e-20)
(0.701651 -0.20959 2.05112e-20)
(1.26892 -0.273841 4.25832e-20)
(-0.069512 -0.0474432 7.89122e-20)
(1.06462 -0.0522141 0)
(-0.154454 -0.025922 -1.55699e-19)
(0.988257 -0.0499417 -4.83373e-21)
(1.02301 -0.109279 6.36061e-22)
(1.02274 -0.0691608 0)
(-0.14754 -0.00909882 1.58332e-19)
(-0.173398 -0.0603867 2.1375e-19)
(1.04139 -0.032718 -3.45319e-21)
(0.825175 -0.258837 0)
(1.02556 -0.033098 2.52674e-22)
(-0.105417 -0.118929 -3.06998e-22)
(1.00038 -0.0542589 1.26281e-20)
(1.2777 0.109261 2.19059e-20)
(1.02268 -0.0445796 -8.56312e-22)
(0.328833 -0.838221 3.96034e-20)
(0.19528 -0.47545 -1.09023e-21)
(0.0377811 -0.143258 1.30779e-19)
(-0.287814 -0.103695 8.98804e-20)
(1.04267 -0.0338471 4.0505e-21)
(1.00021 -0.0543359 -5.53031e-21)
(0.196353 -0.0552723 0)
(0.7211 0.241141 3.13113e-19)
(1.17198 0.0391359 6.98011e-21)
(1.01943 -0.0309023 6.18841e-22)
(-0.381935 -0.0598318 0)
(1.2125 -0.0733925 -3.98361e-20)
(0.0269314 -0.144657 1.38405e-19)
(1.28149 -0.351964 1.94035e-20)
(0.591606 -0.255137 7.36384e-20)
(0.471511 -0.148831 6.70283e-20)
(1.01935 -0.0332915 -2.13208e-21)
(1.2075 -0.488959 -9.60773e-20)
(1.02311 -0.00501602 0)
(-0.351353 -0.0889034 -5.38163e-20)
(1.17204 0.036299 1.52873e-21)
(1.02953 -0.00489483 1.61198e-22)
(0.961834 -0.0958172 1.27521e-20)
(0.978781 -0.210246 1.12767e-20)
(0.110026 -0.0551129 1.24518e-19)
(0.989216 -0.0466868 0)
(0.685039 -0.324157 2.39582e-20)
(0.983332 -0.312977 -1.75396e-21)
(-0.347928 -0.052915 1.22655e-19)
(-0.00187264 -0.0317469 1.84388e-19)
(1.21204 -0.0174548 0)
(0.98106 -0.0763362 6.9259e-21)
(1.11279 -0.105163 3.44158e-20)
(-0.302135 -0.0975982 0)
(1.02268 -0.0437794 9.43206e-22)
(0.988216 -0.0499578 0)
(0.958183 -0.0931079 6.38196e-21)
(0.966631 -0.0988313 -2.04475e-20)
(1.03702 -0.024808 -1.27901e-21)
(0.681307 -0.229363 8.15222e-20)
(-0.154747 -0.0253566 1.47263e-19)
(0.987198 -0.0457729 1.61365e-20)
(1.01912 -0.0066772 -6.61189e-22)
(-0.101455 -0.0541429 4.53845e-20)
(0.421357 0.121786 -1.27705e-19)
(1.00029 -0.00546158 0)
(-0.525011 -0.0379145 -5.4283e-20)
(1.02433 -0.0118111 0)
(-0.464916 -0.10161 4.1531e-20)
(1.07153 -0.364118 -1.50144e-20)
(0.180757 -0.0525284 3.07973e-20)
(0.561925 -0.279665 0)
(1.1275 -0.416845 0)
(1.05714 -0.019846 1.49233e-21)
(1.01878 -0.00594382 0)
(1.27017 0.368622 -1.3677e-19)
(-0.271371 -0.104295 0)
(-0.0917496 -0.119294 -2.55082e-21)
(1.00024 -0.00812574 1.80108e-21)
(1.02429 -0.0334148 -4.76312e-22)
(-0.197554 -0.0909901 3.2696e-20)
(1.06907 -0.142892 -1.5827e-20)
(0.645383 -0.133386 9.35031e-20)
(-0.384219 -0.0588903 0)
(1.0663 -0.0212837 0)
(0.863877 -0.189566 0)
(0.99982 -0.00342999 0)
(1.0329 -0.00635257 0)
(1.27205 0.0994734 -2.14648e-20)
(-0.357432 -0.0547399 5.04039e-20)
(0.2135 -0.0175024 -1.44943e-19)
(0.288362 -0.105559 -2.09926e-19)
(1.3282 -0.263253 -1.03498e-21)
(1.0044 -0.088269 -1.03476e-20)
(1.5166 -0.0672564 0)
(1.33861 -0.290397 0)
(1.02031 -0.00714623 0)
(0.482575 0.131091 0)
(1.00537 -0.000954596 -2.61664e-21)
(0.959674 -0.115992 3.77863e-20)
(0.9672 -0.0628328 0)
(1.00806 -0.0160536 -4.12403e-22)
(1.04324 -0.0191601 4.32454e-21)
(0.462099 -0.150704 4.5015e-20)
(0.999756 -0.00419594 1.67384e-20)
(1.24254 -0.0250408 4.89769e-20)
(0.472055 -0.111453 -5.82933e-20)
(0.962344 -0.109836 -2.41373e-20)
(-0.0486661 -0.140815 0)
(0.961046 -0.0621427 4.00845e-20)
(0.487484 -1.19021 -3.63764e-20)
(0.992261 -0.0217257 1.30412e-20)
(1.06583 -0.0215185 9.35923e-21)
(1.01978 -0.0322609 0)
(1.07838 -0.02207 2.56098e-20)
(1.00004 -0.000317532 -6.3949e-21)
(-0.174917 -0.0559865 -1.29216e-19)
(-0.262643 -0.107234 -9.72625e-20)
(0.999288 -0.00393091 0)
(1.00042 -0.014301 -4.88817e-21)
(1.27367 0.0228254 7.15896e-20)
(1.00024 -0.000433667 4.08002e-21)
(1.00764 -0.0158467 -2.82448e-21)
(1.04507 -0.0408144 0)
(1.00034 -0.00729138 0)
(0.922873 -0.173081 -3.46603e-20)
(-0.205876 -0.13834 0)
(0.697659 -0.181929 7.04786e-20)
(-0.152234 -0.0281879 3.88077e-20)
(1.00568 -0.0272452 0)
(0.999868 -0.012285 4.48523e-21)
(1.24751 0.071391 1.66162e-20)
(1.00555 -0.00497728 1.20635e-21)
(1.03416 -0.000312229 0)
(-0.546653 -0.100272 -1.24008e-19)
(0.996885 -0.165008 0)
(1.00549 -0.191896 7.77241e-20)
(0.884513 -0.0959438 0)
(1.26999 -0.368497 -6.3736e-20)
(1.00524 -0.00503916 0)
(1.10498 -0.00735037 0)
(1.02372 -0.069378 1.50694e-21)
(1.08062 -0.0760023 1.07966e-20)
(0.998993 -0.0223221 3.92347e-21)
(1.00025 -0.00448152 -5.4577e-21)
(1.0227 -0.00448052 -1.80718e-21)
(1.16048 -0.0117138 -2.29027e-20)
(1.211 -0.0745979 0)
(0.995934 -0.0239471 8.89543e-21)
(1.19962 0.391806 -1.25906e-19)
(0.99584 -0.0246661 0)
(1.0448 -0.0414873 0)
(-0.14888 -0.028692 -1.36337e-19)
(0.929548 -0.000864288 0)
(1.07935 -0.0227948 0)
(-0.0385282 -0.135748 0)
(1.27101 -0.352366 0)
(-0.0943794 -0.116734 -2.06288e-20)
(0.138831 -0.0142296 0)
(1.07881 -0.0739803 -9.52142e-21)
(0.0884289 -0.0229114 0)
(0.995971 -0.0259716 0)
(0.0690019 -0.0980077 1.20611e-19)
(0.542976 -0.978139 2.99765e-20)
(0.963452 -0.0612571 -2.84264e-20)
(0.903218 -0.0518713 -4.53232e-20)
(0.995332 -0.164948 7.5219e-21)
(1.05913 -0.0470728 0)
(1.02174 -0.0610472 -1.74699e-21)
(1.0307 -0.0158897 0)
(0.999335 -0.0201973 5.78584e-21)
(-0.305232 -0.101145 -5.43943e-20)
(0.916165 -0.179763 0)
(0.0168544 -0.143413 -1.34464e-19)
(-0.153391 -0.0276435 1.67793e-20)
(1.36456 -0.280514 0)
(0.0925768 -0.0618658 -7.86285e-20)
(1.09699 -0.0371128 -1.11512e-20)
(0.999981 -0.000805245 6.48437e-21)
(1.16446 0.0445879 0)
(1.01699 -0.0309462 0)
(0.851342 -0.865567 0)
(1.00007 -0.000110678 8.28581e-21)
(0.999647 -0.00303708 -1.00407e-20)
(0.0835279 -0.240305 0)
(0.253193 -1.90685e-05 0)
(1.07109 -0.0546524 -4.44016e-21)
(1.03593 -0.022463 0)
(1.29995 -0.350262 7.96828e-20)
(1.11092 -0.246946 -1.09997e-20)
(0.996923 -0.0526598 1.31568e-20)
(-0.426179 0.199161 -8.42176e-20)
(1.07314 0.00138042 1.18534e-20)
(0.905666 -0.0507896 5.63454e-20)
(-0.35247 -0.0725071 2.23378e-19)
(1.09503 -0.0766441 -7.86859e-21)
(0.999827 -0.00348953 -5.01596e-21)
(-0.543164 -0.115901 0)
(-0.301651 -0.101047 0)
(1.21014 -0.0103302 -2.11699e-20)
(1.0049 -0.0367828 0)
(0.999863 -0.0120717 0)
(-0.337304 -0.0974166 0)
(-0.543487 -0.101927 1.55115e-19)
(1.02601 -0.034816 0)
(1.2895 -0.334063 7.74895e-20)
(1.02624 -0.0131177 0)
(1.03138 -0.0430639 2.45036e-23)
(0.0248499 -0.0718148 0)
(1.03917 -0.0136949 1.98206e-22)
(-0.194738 -0.140595 0)
(1.09552 -0.077423 0)
(1.35246 0.207557 0)
(0.071409 -0.0632429 1.23329e-19)
(1.15518 0.362165 1.71153e-19)
(0.58962 0.212513 3.46011e-19)
(1.01682 -0.028436 0)
(-0.0395722 -0.0330209 5.81296e-20)
(0.995951 -0.0262816 0)
(1.28388 0.343274 1.93278e-19)
(1.15813 -0.284405 0)
(0.0572796 -0.111177 7.34511e-20)
(0.299235 -0.151075 1.48309e-19)
(1.03025 -0.0151421 -1.48298e-21)
(1.03353 0.000161368 -9.93306e-23)
(1.2094 -0.491197 0)
(-0.0783841 -0.112257 -4.05237e-20)
(1.10655 -0.00981511 8.24353e-21)
(0.562758 -0.25781 -7.05553e-20)
(1.06858 -0.0551585 3.83365e-21)
(1.05312 -0.0907365 1.21255e-20)
(1.01776 -0.00541728 -6.39551e-22)
(-0.247046 -0.14731 -3.25097e-22)
(1.1798 0.408765 1.29718e-19)
(-0.105129 -0.016678 -3.49806e-20)
(1.06261 -0.0478375 6.10736e-21)
(0.965725 -0.0391125 -8.35868e-21)
(0.110133 -0.241982 0)
(-0.210035 -0.0957897 -1.09423e-19)
(0.903699 -0.0485857 -6.52026e-20)
(0.998849 -0.0851579 -1.28199e-20)
(1.03595 -0.023183 0)
(1.02693 -0.0128117 -2.78519e-21)
(-0.0837576 -0.115987 0)
(-0.0331047 -0.145576 6.79905e-20)
(1.00431 -0.0079009 -1.79935e-22)
(1.05587 -0.00945639 -7.21136e-21)
(-0.382592 -0.0746648 0)
(1.039 -0.0184613 3.94739e-22)
(-0.239105 -0.0654982 2.22703e-19)
(1.03481 -0.0212007 -4.77035e-21)
(-0.140796 -0.0260455 0)
(1.10522 -0.245912 -3.35061e-20)
(0.0635428 -0.10482 6.47197e-20)
(0.945147 -0.153159 -1.60399e-20)
(0.450465 -0.122409 -7.14821e-20)
(-0.153687 -0.0272009 9.82387e-21)
(1.03144 -0.139305 3.5411e-22)
(1.26302 0.00546619 -3.39614e-20)
(1.05382 -0.0922143 -5.50822e-21)
(1.2483 -0.00741074 2.80365e-20)
(1.09525 -0.0335188 0)
(0.989105 -0.0431921 0)
(1.0682 -0.147305 9.58853e-22)
(0.230699 -0.590368 -7.96645e-20)
(1.03309 -0.00693968 0)
(1.08343 -0.0469551 0)
(-0.210845 -0.0946056 3.09839e-20)
(1.0253 -0.0139783 4.0221e-21)
(1.00024 -0.00473653 0)
(1.36647 0.357324 0)
(1.01566 -0.017504 -1.47582e-21)
(-0.277955 -0.103433 -5.18222e-20)
(1.06894 -0.0204303 0)
(1.07764 -0.0194203 0)
(1.05432 -0.00684169 0)
(1.1393 -0.0544502 -3.22934e-20)
(1.07149 0.00220766 1.00915e-20)
(1.00004 -0.000781707 1.291e-22)
(0.533014 -0.569365 0)
(1.03214 -0.0443428 -8.74896e-23)
(0.830115 -0.160965 0)
(1.00041 -0.0139153 -4.59445e-21)
(1.10538 -0.133092 4.18075e-20)
(-0.278692 -0.101358 -1.16649e-19)
(0.999968 -0.00125279 -1.24704e-22)
(0.707453 -0.0212803 3.2186e-20)
(1.08974 -0.108377 0)
(0.037499 0.0144448 0)
(-0.535021 -0.157662 1.32791e-19)
(-0.530665 -0.161939 0)
(-0.189253 -0.0733906 0)
(1.14295 -0.0564341 3.63177e-20)
(1.18804 -0.280365 8.18562e-22)
(1.16901 0.0393316 8.05558e-21)
(-0.252492 -0.0678282 -1.11699e-19)
(0.97845 -0.043293 0)
(1.14806 -0.359585 -5.98787e-20)
(0.971444 -0.101162 1.92808e-20)
(0.525112 -0.0617118 1.08436e-19)
(1.40773 -0.0509609 -8.79675e-20)
(1.08077 -0.296163 0)
(1.00032 -0.00052548 -3.32913e-21)
(0.373294 -0.381037 -8.80125e-20)
(1.43584 0.0210497 1.19914e-19)
(0.050338 -0.0728983 2.04586e-20)
(1.04989 -0.035822 0)
(-0.34889 -0.0764376 -3.15589e-19)
(0.926573 -0.0545874 -6.70056e-22)
(1.2892 0.100159 -2.30599e-20)
(0.996696 -0.0121062 7.77506e-21)
(1.15933 -0.288357 -4.18202e-20)
(-0.23555 -0.102741 9.27579e-20)
(0.999374 -0.00369111 -1.02942e-20)
(1.05486 -0.00865598 0)
(-0.533143 -0.158406 0)
(1.04148 -0.0208166 0)
(0.945087 -0.482084 -1.4063e-21)
(1.03957 -0.0214479 0)
(1.13049 -0.0811031 2.95645e-20)
(1.03939 -0.060143 1.26304e-21)
(1.17512 -0.115079 1.83746e-20)
(1.01533 -0.0164052 4.59741e-22)
(0.732283 -0.484298 -2.54325e-20)
(1.00011 -0.00102339 2.03576e-21)
(-0.00446035 0.107597 -4.40117e-20)
(1.05176 -0.0363942 0)
(-0.19074 -0.0733133 -1.53897e-19)
(1.00028 -0.173291 0)
(-0.289543 -0.0308684 1.12256e-19)
(-0.21425 -0.100427 -1.14829e-19)
(1.08098 -0.0446102 0)
(0.957666 -0.00794356 1.37771e-20)
(1.24647 -0.0101848 5.37864e-20)
(-0.0999309 -0.144048 1.6773e-19)
(-0.153045 -0.0276826 -2.128e-20)
(1.04479 -0.0179186 5.18597e-22)
(0.820713 -0.159213 2.76502e-20)
(1.34576 0.195318 -8.56851e-20)
(1.08219 -0.027183 1.37845e-20)
(1.41952 0.249109 1.72552e-20)
(1.01989 -0.0663583 0)
(0.999283 -0.00423558 5.84548e-21)
(1.08115 -0.0286618 -5.11467e-21)
(1.00344 -0.000699259 2.09843e-21)
(1.00006 -0.000840803 4.88124e-21)
(1.01949 -0.0679032 2.52502e-21)
(0.24351 -0.110107 1.27414e-19)
(1.0249 -0.0126065 0)
(1.03104 -0.0338659 0)
(1.13287 -0.048239 -1.19718e-20)
(1.05628 -0.102253 1.07075e-22)
(0.510108 -0.540055 5.37042e-20)
(-0.296108 -0.0562613 8.52756e-20)
(0.977402 -0.0422715 -8.51692e-22)
(1.25338 0.0670967 1.95831e-20)
(1.34467 -0.267383 0)
(1.07694 -0.293724 0)
(1.00024 -0.012912 9.55951e-21)
(-0.0311608 -0.0330527 0)
(0.777641 0.267835 -1.11136e-19)
(0.0438127 -0.0390303 0)
(1.43456 0.241616 -2.1162e-20)
(1.17537 0.0317016 0)
(1.05715 -0.0918394 1.835e-21)
(1.14467 -0.0652171 9.45787e-21)
(1.16283 -0.0125947 0)
(1.07111 -0.0186335 -5.7741e-21)
(1.35643 -0.259921 3.9525e-20)
(1.01148 -0.0395242 0)
(1.07141 -0.019082 -6.62803e-21)
(1.03361 -0.0105563 2.3811e-21)
(-0.417016 -0.0435337 0)
(0.0526474 -0.102611 -2.03444e-19)
(-0.493149 -0.138072 -7.35051e-20)
(1.03118 -0.171119 -1.21352e-21)
(1.00616 -0.0348564 -4.72239e-21)
(-0.337097 -0.0956197 0)
(-0.108837 -0.0301433 -9.65248e-20)
(0.927559 -0.847778 2.55154e-20)
(1.10826 -0.134553 -1.97257e-20)
(0.758519 -0.0591948 -2.09136e-21)
(-0.478335 -0.164425 -1.58565e-20)
(1.00478 -0.000764635 1.97182e-21)
(-0.528191 -0.16121 0)
(1.05271 -0.102318 -8.94128e-23)
(0.955836 -0.0720515 0)
(0.957321 -0.0479878 0)
(0.571277 -0.628247 -3.63133e-20)
(-0.113408 -0.0306353 2.54422e-20)
(1.06857 -0.0206043 0)
(0.718775 -0.481166 0)
(0.945098 -0.154166 -9.50442e-21)
(1.00217 -0.0850644 1.1799e-20)
(-0.15333 -0.0090692 -9.47647e-20)
(1.04018 -0.572974 -4.20028e-20)
(0.996727 -0.0350735 5.656e-21)
(-0.0758096 -0.14528 -1.54977e-19)
(1.16611 -0.022152 1.1964e-20)
(-0.413234 0.478161 -1.39444e-19)
(1.02658 -0.062216 1.05881e-21)
(0.437165 -0.104345 -8.10313e-20)
(1.17367 -0.115774 3.35101e-20)
(1.13084 0.0234422 -1.25792e-20)
(1.0098 -0.000523224 4.98912e-22)
(0.0574787 -0.0958079 -8.11779e-20)
(1.2094 -0.166859 3.05208e-20)
(1.26808 -0.00485202 0)
(1.2411 0.0883472 1.68681e-20)
(-0.195723 -0.109183 0)
(1.10672 -0.0104874 1.35937e-22)
(-0.495771 -0.14236 1.3194e-19)
(1.06397 -0.0332752 0)
(1.03502 -0.17283 0)
(0.040875 -0.117847 -1.54616e-19)
(1.12291 -0.0835151 1.63531e-20)
(1.00555 -0.010417 0)
(0.746458 -0.0781895 -1.59793e-21)
(1.08005 -0.0345963 -1.45692e-20)
(1.23516 0.069807 8.59034e-20)
(1.03043 -0.0328188 1.98543e-23)
(0.994143 -0.0410465 7.19758e-21)
(0.500661 -0.579229 -5.15534e-20)
(1.16462 -0.522151 0)
(-0.0986682 -0.103194 -9.81481e-20)
(1.00009 -0.000430532 0)
(-0.277158 -0.103086 5.43968e-20)
(1.03572 -0.020451 0)
(0.902526 -0.556474 1.03179e-21)
(1.21298 -0.0120609 1.29846e-20)
(1.03365 -0.0110233 -2.5429e-21)
(1.04687 -0.0404088 -5.33375e-21)
(0.963989 -0.0650416 -9.9421e-21)
(1.05598 -0.130861 0)
(0.972237 -0.0636398 -1.63298e-20)
(1.1881 -0.281482 1.13701e-22)
(1.29764 0.0955302 1.83029e-20)
(0.969802 -0.243809 1.50573e-20)
(1.02691 -0.0474106 0)
(1.02389 -0.0317909 2.2707e-22)
(0.95638 -0.0906791 0)
(0.201872 -0.138891 7.0072e-20)
(1.0037 -0.0228461 4.47806e-21)
(0.910457 -0.151423 -1.6245e-20)
(1.02214 -0.00732592 -1.6192e-21)
(-0.499145 0.581031 4.20382e-20)
(1.00007 -0.00166457 0)
(0.951281 -0.0734864 2.73198e-20)
(1.07137 -0.00179894 -2.92862e-21)
(1.0247 -0.0131512 -2.08732e-21)
(-0.380248 -0.0745219 1.31096e-19)
(1.42439 0.0133201 -5.38851e-20)
(0.176102 -0.408895 0)
(1.02304 -0.131173 1.82732e-21)
(0.336665 -0.0811139 -1.72556e-21)
(1.16368 -0.0277861 0)
(1.03645 -0.014988 1.41518e-21)
(1.13678 0.0298407 3.14476e-20)
(-0.11752 -0.0306664 0)
(1.09779 -0.0713722 1.35907e-20)
(1.04897 -0.0405559 3.18494e-21)
(0.248721 -0.135152 6.86109e-20)
(0.576957 0.0821485 0)
(1.00117 -0.0183456 1.25415e-20)
(-0.190876 -0.0898166 0)
(0.0572424 -0.0502679 0)
(1.06434 -0.0342752 5.35874e-21)
(1.07136 -0.0155397 0)
(1.19688 -0.213023 3.07103e-20)
(0.959084 -0.0444113 -1.60453e-20)
(0.997305 -0.0337204 0)
(0.857692 -0.919141 0)
(-0.372052 -0.0787228 -2.08173e-20)
(-0.159421 -0.0091343 0)
(0.279679 -0.135949 -1.41392e-19)
(0.99732 -0.0303148 -2.22282e-20)
(0.696516 -0.274847 0)
(1.00626 -0.0287755 0)
(1.00858 -0.0223901 -1.50639e-21)
(1.0353 -0.0145089 -2.48998e-21)
(-0.127027 -0.028587 0)
(1.02117 -0.00163353 -2.4156e-21)
(1.02139 -0.0564384 -2.48098e-21)
(-0.470379 -0.164905 -3.48407e-22)
(-0.218249 -0.095757 -1.74209e-19)
(1.08043 -0.0538914 2.09662e-20)
(1.21105 -0.237121 1.41311e-19)
(1.10597 -0.140443 -1.22703e-20)
(1.00427 -0.00855799 0)
(0.204201 0.108766 0)
(1.12588 -0.0394475 -3.37668e-22)
(1.15142 -0.511132 0)
(1.0101 -0.083583 0)
(1.00342 -0.569257 -5.73885e-22)
(1.03434 -0.00114569 -3.40934e-21)
(1.10915 -0.0132592 -9.24434e-21)
(0.999969 -0.000807814 1.11607e-20)
(1.1837 -0.396706 7.149e-20)
(1.02746 -0.0464191 0)
(-0.148053 -0.0310888 2.59591e-20)
(0.15858 -0.0524719 0)
(1.36613 -0.188248 -1.11801e-19)
(-0.10764 -0.0263402 -2.42542e-23)
(-0.0897319 -0.11341 0)
(0.91088 -0.113042 4.14281e-20)
(-0.315423 -0.0908917 -1.41916e-19)
(1.16854 -0.299289 0)
(1.286 0.110229 2.50952e-20)
(0.957383 -0.0467973 5.28559e-21)
(1.0456 -0.0398806 5.17892e-21)
(-0.0752199 -0.0441059 -4.03541e-20)
(0.506493 0.11825 0)
(1.21041 -0.264896 -4.763e-20)
(1.20428 -0.339363 -1.13467e-19)
(1.08982 -0.296785 -3.51419e-20)
(0.998971 -0.0215804 6.53494e-21)
(1.02748 -0.137111 -4.44119e-23)
(0.0671441 -0.118993 1.77866e-19)
(-0.150096 -0.0284394 2.05819e-19)
(1.00572 -0.0336735 1.87597e-22)
(1.06913 -0.0961272 0)
(-0.318153 -0.124906 -4.52703e-20)
(-0.0442573 0.210869 -2.20557e-19)
(0.0405056 -0.114576 -1.12096e-19)
(1.38493 -0.0831678 9.26496e-20)
(1.00706 -0.000326386 1.07149e-21)
(0.957788 -0.076479 3.08979e-20)
(-0.291937 -0.0996085 1.10303e-19)
(-0.0345763 -0.0581848 0)
(1.01487 -0.00330979 -9.18843e-24)
(1.14193 -0.0241519 -3.91662e-20)
(1.0181 -0.00607654 5.58122e-22)
(0.734777 -0.958211 -7.90504e-22)
(0.996996 -0.011519 0)
(0.915456 -0.166402 -8.29289e-20)
(1.09359 -0.298694 4.00716e-20)
(1.00151 -0.0182446 1.0756e-20)
(1.0619 0.000876335 0)
(-0.238038 -0.103898 3.50065e-20)
(0.996719 -0.0265284 0)
(1.08487 -0.112446 8.55183e-21)
(0.993538 -0.0393485 -7.26067e-21)
(1.01087 -0.000812516 1.02856e-22)
(1.00354 -0.0440668 5.53173e-23)
(1.07775 -0.674323 -2.67046e-20)
(0.872378 -0.382982 -3.19283e-20)
(1.35581 -0.288 -3.19633e-20)
(0.158454 -0.025594 -1.58069e-19)
(-0.225058 -0.0992415 8.67524e-20)
(-0.458557 -0.0289982 0)
(1.00007 -0.000926809 -1.32272e-20)
(1.00627 -0.166551 0)
(0.905047 -0.0607973 5.7339e-20)
(1.10184 -0.0910238 -3.16663e-20)
(1.30228 -0.329521 -8.39383e-20)
(0.998766 -0.0228423 0)
(0.988541 -0.0422733 -2.04149e-21)
(1.04356 -0.0173952 0)
(0.412005 -0.883499 -3.16575e-20)
(-0.285337 -0.115948 -2.01138e-19)
(0.378665 -0.783933 2.2725e-20)
(0.998294 -0.0334536 -1.78477e-20)
(0.990466 -0.157608 -7.60512e-21)
(1.03737 -0.013488 -2.16634e-23)
(1.0348 -0.0146824 1.25621e-22)
(1.03375 -0.000126396 -7.21629e-21)
(0.999383 -0.104814 -7.82329e-21)
(0.969327 -0.242782 -1.60673e-20)
(-0.507874 0.592724 3.99675e-22)
(0.919376 -0.15237 1.43206e-20)
(1.0083 -0.022596 0)
(0.93935 -0.507166 -1.78199e-21)
(0.719372 -0.9629 -2.53576e-20)
(0.835417 -0.236165 1.18228e-21)
(1.00763 -0.0226737 3.58455e-21)
(-0.262188 -0.127719 -2.47104e-19)
(-0.113756 -0.102888 0)
(1.00592 -0.0330921 9.90056e-21)
(-0.121081 -0.0307063 -1.01395e-19)
(1.29977 -0.347922 -7.63366e-20)
(1.21456 0.00425755 0)
(0.989134 -0.156425 0)
(0.999739 -0.00882268 0)
(1.02122 -0.105017 -1.25874e-21)
(1.14885 -0.338778 0)
(-0.10946 -0.0296373 -1.15559e-19)
(1.21427 0.442661 -3.56432e-20)
(1.05092 -0.0391833 -7.62753e-22)
(-0.426531 0.478743 -7.51772e-20)
(-0.497629 -0.152978 1.45865e-19)
(-0.265758 -0.0683532 -8.77053e-20)
(1.07094 -0.0151736 1.70799e-21)
(-0.210716 -0.0902533 0)
(1.29244 -0.284462 -3.23048e-21)
(-0.398632 -0.0679024 0)
(0.831433 -0.26735 0)
(0.0900396 -0.0476784 -7.45959e-20)
(1.04533 -0.0199178 0)
(-0.219608 -0.0945068 1.91243e-19)
(0.329359 -0.130734 0)
(1.01539 -0.127198 0)
(1.01993 -0.0587345 0)
(1.05518 -0.00755976 0)
(1.04136 -0.147927 1.56305e-21)
(1.50182 -0.10986 0)
(1.04019 -0.0583433 1.70805e-21)
(1.35854 -0.189583 1.46851e-19)
(1.01181 -0.0829426 0)
(1.12844 -0.513024 2.82739e-20)
(1.14097 -0.0720019 0)
(-0.395603 -0.0685701 0)
(-0.433995 -0.0535536 1.47018e-19)
(1.0368 -0.0213338 -6.54486e-22)
(1.30953 -0.333574 0)
(1.06222 -0.288539 1.22795e-20)
(1.37512 -0.0722918 -1.63652e-19)
(1.26345 -0.206797 0)
(-0.267082 -0.116852 8.63127e-20)
(1.00071 -0.0291288 -7.96991e-21)
(1.20259 -0.328116 0)
(0.687388 -0.266141 2.89256e-20)
(1.27731 -0.338955 -1.23984e-19)
(0.047897 -0.108781 0)
(0.997812 -0.0503543 0)
(0.0810332 -0.0574409 -1.00378e-19)
(0.0309414 0.421216 -5.5209e-20)
(0.993138 -0.0350001 -1.29438e-20)
(0.0940639 -0.151239 -1.21716e-19)
(1.23907 -0.327014 -4.82045e-20)
(1.01413 -0.003664 -9.51142e-25)
(-0.0320597 0.112954 0)
(-0.546205 -0.112599 -3.42134e-20)
(1.03128 -0.0740192 6.68973e-23)
(1.13822 -0.183992 0)
(-0.201707 -0.123702 -4.46955e-22)
(0.992718 -0.0342168 -7.90115e-21)
(0.0497448 -0.136896 -1.20467e-19)
(0.998083 -0.0546672 -1.33614e-20)
(0.999747 -0.0372086 -1.00387e-20)
(0.988924 -0.0410923 2.06498e-21)
(1.16761 -0.052014 -5.28079e-20)
(1.0077 -0.0221851 0)
(1.0345 -0.00192499 5.02958e-21)
(-0.465998 -0.0269387 1.10724e-19)
(0.999979 -0.000753728 -1.44834e-20)
(1.09769 -0.0733154 -2.34227e-20)
(1.06475 -0.0310642 1.03353e-20)
(0.574117 0.130432 1.40375e-19)
(0.874086 -0.201959 0)
(1.00032 -0.0290001 1.06585e-21)
(1.04228 -0.0196064 -8.14536e-22)
(0.0539642 -0.134127 -8.12867e-20)
(1.01912 -0.0644001 0)
(0.629754 -0.702427 4.83748e-20)
(0.16308 -0.522726 0)
(1.02739 -0.167742 1.29624e-21)
(0.761671 -0.0063581 -6.21657e-20)
(1.00038 -0.102262 1.2935e-20)
(1.14359 -0.0113832 4.6207e-20)
(0.263326 -0.0616662 -2.96557e-20)
(1.20359 0.363844 0)
(0.90703 -0.119268 -3.9555e-20)
(1.00696 -0.0400376 0)
(1.02516 -0.169195 -1.9184e-22)
(1.09993 -0.134428 0)
(1.35496 -0.288043 0)
(1.07614 -0.000300899 0)
(1.00531 -0.0207788 0)
(1.2382 -0.0188645 -5.21487e-20)
(0.999453 -0.00336416 1.08499e-20)
(-0.439159 -0.0876888 -1.8413e-22)
(1.11848 -0.241049 -3.91942e-20)
(1.01647 -0.0636233 0)
(1.00155 -0.0162205 -6.77508e-23)
(1.1165 -0.0989208 4.01559e-20)
(1.06464 -0.141843 -7.00769e-21)
(0.204457 -0.527298 0)
(0.982956 -0.0363624 -2.28809e-20)
(1.02208 -0.0118985 -3.05888e-22)
(0.173646 -0.415758 0)
(1.00153 -0.0403166 -5.69411e-22)
(1.30946 -0.215996 -7.97281e-20)
(1.08838 -0.402098 -1.95425e-19)
(1.03149 -0.140901 -1.23779e-21)
(-0.229096 -0.121047 1.48942e-19)
(0.999887 -0.00847334 0)
(-0.262854 -0.106752 0)
(0.999944 -0.0115367 -8.64319e-21)
(1.25902 -0.216666 -1.65783e-20)
(0.62474 -0.707034 -1.10799e-20)
(1.20436 0.38609 8.27093e-20)
(1.18768 -0.09576 0)
(1.00753 -0.00642224 -1.67829e-21)
(1.2526 -0.216615 5.21447e-20)
(1.0789 -0.0203569 8.16885e-21)
(-0.156171 -0.0364499 -1.63078e-19)
(-0.525554 -0.16223 -2.36556e-19)
(1.17571 -0.546248 -6.30939e-20)
(1.20472 -0.420949 7.81288e-20)
(1.22119 -0.134377 0)
(1.00674 -0.0850991 4.67777e-21)
(1.02934 -0.105393 2.91205e-22)
(-0.226762 -0.0959321 -1.30415e-19)
(-0.386017 -0.0712899 7.61318e-20)
(1.0061 -0.0385805 0)
(0.359204 0.367976 5.6239e-20)
(1.17145 0.424723 -4.84657e-20)
(1.02262 -0.0127707 3.5572e-22)
(0.69848 -0.200676 0)
(1.49672 -0.104023 -2.43884e-20)
(0.938335 -0.182857 6.52035e-20)
(1.04244 -0.02049 -3.40318e-21)
(-0.363148 -0.081324 0)
(0.161245 0.335946 -3.9715e-20)
(-0.302457 -0.097702 1.49427e-19)
(-0.0402645 -0.0386187 0)
(0.1268 -0.121579 -8.33682e-20)
(-0.414448 -0.0979349 2.21535e-19)
(1.222 -0.135323 1.56044e-20)
(1.00442 -0.00556646 2.61363e-21)
(0.907008 -0.070811 2.79889e-20)
(1.136 -0.17224 1.33072e-20)
(1.00162 -0.0302422 7.42906e-21)
(1.03054 -0.0746366 0)
(-0.15036 -0.125019 -1.72055e-19)
(1.07126 0.00339816 -1.11434e-20)
(1.19987 -0.222722 -4.28786e-20)
(-0.435553 -0.0737023 0)
(0.706579 -0.604828 0)
(-0.401527 0.196959 -9.2151e-20)
(0.84915 -0.174386 1.50044e-20)
(0.734678 -0.15708 -9.12063e-20)
(1.24868 -0.305052 -1.03812e-19)
(1.19721 -0.275008 0)
(1.00002 -0.000260382 6.241e-21)
(-0.123298 -0.0308011 0)
(1.00799 -0.000760333 1.23478e-21)
(0.356385 -0.148196 -3.16337e-20)
(0.881236 -0.360882 -7.08274e-20)
(1.00055 -0.00576985 0)
(1.26438 0.101255 2.01966e-20)
(0.987604 -0.0478475 -2.66829e-20)
(0.472138 -0.108139 1.50604e-19)
(-0.524369 -0.164518 2.01973e-19)
(1.01692 -0.592143 0)
(1.23066 -0.431478 2.50904e-21)
(1.0346 -0.00596386 0)
(1.02061 -0.0696782 2.30709e-21)
(-0.215568 -0.0988335 0)
(1.05659 -0.361355 9.68322e-21)
(-0.146401 -0.0285043 -8.18446e-20)
(1.0344 -0.00549617 0)