/*--------------------------------*- C++ -*----------------------------------*\
| =========                 |                                                 |
| \\      /  F ield         | OpenFOAM: The Open Source CFD Toolbox           |
|  \\    /   O peration     | Version:  v2012                                 |
|   \\  /    A nd           | Website:  www.openfoam.com                      |
|    \\/     M anipulation  |                                                 |
\*---------------------------------------------------------------------------*/
FoamFile
{
    version     2.0;
    format      ascii;
    class       volScalarField;
    location    "250";
    object      ddt0(omega);
}
// * * * * * * * * * * * * * * * * * * * * * * * * * * * * * * * * * * * * * //

dimensions      [0 0 -2 0 0 0 0];


internalField   nonuniform List<scalar> 
18598
(
0.00351275
0.102425
2.14293e-08
-0.0114607
1.85734e-06
-0.000474827
0.0129708
-1.02385e-08
0.0468211
-0.161374
-5.34414e-06
-0.0867878
-8.27343e-07
-0.0847044
-2.54816e-08
-0.0754333
0.337077
-0.00232567
-0.000303611
-0.512484
1.04176e-05
5.21361e-06
-0.139243
-8.91131e-06
9.78267e-07
0.319877
0.103612
1.08565e-06
0.118356
0.00710387
-0.345006
-9.70448e-08
6.82971e-05
0.0418489
-0.0183334
-0.0264491
1.42551e-06
-5.26387e-06
1.67683e-06
0.237089
0.0150512
-1.93349
0.0497102
-0.116188
0.000551475
5.68124e-05
7.14292e-07
-0.163673
-6.98015e-07
8.7316e-07
-7.11262e-07
-66.6029
0.0238647
-0.000276817
4.06514e-06
-6.63222e-07
1.55523e-06
-6.38565e-08
-1.92439e-06
0.00284704
-0.255044
0.0786271
-9.54477e-07
-1.41271e-06
0.0508327
1.2826
-2.17975e-06
-7.85254e-05
-3.5324
3.27744e-07
0.000202646
0.00979385
0.759898
-0.0122357
1.10364e-06
0.00439682
2.50947e-07
-7.29527e-07
-0.0401938
-0.000358948
-0.550159
0.000200832
-2.71711e-06
0.274117
3.44992e-05
-0.301834
3.65266e-07
-0.0694168
1.2003e-06
0.00139681
4.93072e-05
-0.0194763
0.000195773
0.0394673
-5.50637
-8.20375e-06
0.350117
-7.52219e-06
-0.528684
0.0337981
1.76731e-07
-6.46747e-08
-0.00011879
-0.00256606
-0.00724417
-1.47171e-05
-0.0124863
-0.370493
-1.59134e-06
0.105755
0.00127146
-0.239963
3.34489e-07
-0.000313396
0.00397102
-9.56198e-06
-0.529829
-0.0137819
-0.00136548
9.85576e-07
-0.0280951
5.21585e-06
1.69051e-05
0.000586895
0.433193
1.00987e-05
-5.10406e-05
0.0126872
-0.0164249
-4.09014e-07
-3.24642e-06
-0.00575363
0.159424
0.000998171
-1.65679
-2.44247e-07
0.00348219
-7.6916e-08
1.07748e-06
-0.00743264
0.0714974
1.44046e-05
-3.90882e-07
0.0305693
-5.62844e-06
0.000348245
-0.461605
0.00810866
3.47743e-06
-0.00227052
2.8856e-05
-0.000785751
-5.4885e-06
0.23407
7.62371e-06
-5.30282e-06
0.357269
6.40924e-05
-1.16441e-06
0.000638679
0.00580272
0.0145724
-4.18822e-06
1.10822e-06
-1.5094e-06
0.13604
0.0137041
-2.47852e-07
0.0119114
-0.0330918
5.86638e-07
0.00609397
0.0373808
0.0310092
-2.09162e-06
4.54225e-06
-0.0614694
7.3331e-05
-0.000760394
0.226582
-0.0166171
0.0730536
-0.00503912
-5.44239e-05
-0.106442
0.00114724
-0.0757529
0.384125
8.40426e-07
0.0121443
-5.4185e-06
1.00576e-06
-0.0402798
0.0487606
-0.00275061
-1.69385e-06
-0.143437
-0.374709
0.00532296
-0.00139136
-0.171066
-9.90949e-07
-6.54646e-07
-4.7204e-08
-0.000120521
-0.433701
-0.0658206
-6.85464e-06
-0.000129038
0.000145887
0.00710247
0.278395
7.11564e-07
0.0116958
-0.0229383
-0.00958261
0.0182296
1.34834e-05
4.55652e-08
0.0495446
-1.01585e-06
-5.13579e-06
0.000674108
6.98259e-07
0.0164043
2.28074e-05
1.29529e-05
-1.59648e-06
-0.077372
9.98909e-08
0.074228
0.246582
-6.40201e-06
3.32909e-05
-0.223735
-0.587854
-0.000162543
0.00185731
-2.25416e-06
9.59738e-05
-6.03908e-05
-0.0222022
-0.25443
-5.92813e-07
0.0199904
0.000411584
-0.00102394
1.03051e-06
-0.0165876
-9.78537e-07
0.321462
-0.37915
-0.0803004
0.175545
0.0130009
-0.151457
0.000120544
0.273285
1.0791e-07
0.25836
-0.00172484
-0.00945104
1.17758
-10.8328
-0.461446
0.000255668
-8.11453e-07
-0.144528
0.00519899
-2.42339e-05
8.01677e-07
-1.73661e-06
0.0231922
3.70204e-06
0.708576
-0.429446
0.307464
0.356556
-4.94024e-05
-0.0126333
-0.0245466
-0.62978
-0.000237891
0.724471
0.436847
0.00218109
0.00520077
0.0365564
2.85553e-06
-0.0808286
0.0493746
-0.199701
-0.109831
0.158191
10.8082
-0.00359273
5.07122e-07
0.0247782
0.00219032
0.0191817
-0.511779
-0.155629
-0.0144936
0.422639
-6.28272e-05
-0.00564922
0.249436
-0.00104599
-0.222372
0.318912
0.642815
1.03745e-05
-0.112699
-0.167596
-0.0176229
-0.00989294
-0.0318245
1.52703e-05
6.88694e-07
2.0014
-4.62568e-05
0.151933
-7.38899e-06
-0.000267262
0.000540246
0.227878
7.35383e-08
-0.130981
-0.0119559
0.000398636
-0.000112105
2.59366e-05
1.386
0.224689
6.96666e-07
0.0651786
0.000140939
-0.288204
-0.000231864
6.6816e-07
0.015283
0.0387704
0.0777475
0.0817185
5.42762e-06
2.32061
0.309188
-0.199039
-0.116324
0.150561
6.78051e-05
-0.00123667
-0.000498645
0.0285889
-0.00639328
-4.30231e-05
0.00776161
0.323339
0.0600468
1.91453e-07
-1.14791e-06
0.192487
1.12211e-06
8.37679e-07
7.47155e-06
4.49903e-06
1.47794
-0.667132
-0.011527
-0.0561437
0.00166563
-1.58233
-0.000313204
0.34025
5.69817e-09
0.258091
-0.100979
0.000127144
-1.03135e-08
0.33545
-0.475465
1.51026e-06
-0.0018344
-0.0182207
-0.000163039
-1.18472
-2.60158e-06
-8.90102e-09
-9.88905e-07
0.0012932
0.249683
0.000268951
-7.32054e-07
9.66684e-05
-6.21338
1.01292e-05
0.000125714
-1.88173e-06
0.00960522
3.46012e-05
-0.000291623
9.46587e-07
-1.87e-07
2.0477e-08
0.670756
0.295071
-0.0842506
0.41021
0.221822
-0.031292
9.13854e-07
1.86744
-5.71601e-06
0.000616571
-0.0540344
-0.00854769
0.000819514
-0.000598397
-0.783887
-0.00575955
3.80028e-05
-2.4791e-06
-5.08377e-07
14.3056
-8.38685e-05
9.46757e-05
-0.000264691
-6.07965e-05
0.0172925
-0.061826
9.36741e-07
-0.558659
-1.59588e-05
0.0206263
-0.0733795
-0.451715
-1.14947e-06
7.9937e-07
0.0998707
-6.36973e-07
3.64136
-0.842738
-1.05364e-07
-1.58896e-06
3.0166e-06
-0.792227
-0.176712
0.121897
-0.00270723
0.0669388
-1.58214e-06
0.366858
-0.803579
-3.60031e-08
-6.48019
0.00162167
-0.000431207
-1.96386e-07
-0.000338119
-3.92501e-07
-0.0149116
-1.43632e-07
9.12438e-09
-0.0830338
-0.0296457
-2.12283e-06
0.0543346
5.951e-07
-0.0322359
-5.83627e-05
-3.08711e-06
5.43779e-05
1.95429e-06
-0.209657
-2.71471e-06
-7.67835e-07
-0.0415254
0.000202239
-0.334258
-0.0109843
-1.60224e-06
3.93088
0.00603295
0.00427556
-3.66946e-07
-6.71824e-05
1.82754e-07
5.85429e-08
0.00718838
7.25007e-06
-0.000815038
-0.00991062
-0.00133852
-0.0217702
-0.487599
-0.0013768
0.0251603
0.0801524
-0.522446
8.71422e-07
0.213564
0.0898634
2.27341e-06
-0.459683
-5.11604e-05
1.69069e-05
0.108212
-6.10251e-06
-2.68318e-06
-0.321846
0.00649454
-8.27915e-05
-1.91648e-05
2.237e-06
-7.93014e-05
1.21919e-06
7.70227e-06
0.189543
-0.0306693
-0.000180791
-0.000103252
0.293076
-0.000517037
-5.62091e-05
-1.60529e-05
-11.0661
2.18095e-05
-1.79952e-06
-4.44996
0.22422
3.65558e-07
-0.0336167
-5.87513e-06
5.99099e-05
0.0114339
0.167499
-0.0589324
-3.47989e-06
-2.71423e-05
-1.78865
6.49633e-05
-0.344946
1.15541e-05
-4.9734e-06
6.84648e-07
0.0851662
2.03499e-05
0.0144849
2.93028e-07
1.24485
-0.17569
-0.46447
-0.0548186
-3.27798e-06
-3.25335
-1.7284e-05
0.319616
-0.340693
3.24502e-07
-4.66751e-08
-0.434624
-0.0237402
0.00497489
-0.00129331
2.19458e-07
-0.327385
-3.75507e-06
1.87505
4.78334e-05
-0.000258167
-7.47337e-06
-0.038798
3.40617e-07
-0.0164915
0.510976
-0.28368
-4.85275e-06
-0.0426877
-2.62575e-06
-1.46843e-05
0.0772272
-0.00244548
0.0926331
-1.35505e-06
-0.71452
0.119111
-1.12473e-05
-0.10906
1.10489e-06
0.898018
-0.0173989
1.70508e-05
-0.343964
-2.51107e-07
0.0231144
0.038162
-0.0368216
-1.00349e-07
3.87877e-08
3.35695e-06
0.000347162
-4.13416e-06
0.000289355
-4.04349e-05
4.76187e-06
0.0261759
-1.45904e-06
-0.011809
-1.78176e-09
-9.02123e-07
-0.0220991
0.114284
-1.84052
-9.24327e-07
-0.416175
2.2313e-06
-1.99469e-05
4.15227e-07
-1.5006e-05
2.03412
-0.200076
4.60297e-06
6.64544e-07
-0.028497
-1.09308e-06
1.82148e-05
0.0150754
2.73315e-07
4.54506e-08
-1.10209e-06
-7.12543e-07
6.01345e-05
-2.42654e-06
0.289946
-0.000106223
-5.22637e-06
0.00600214
-3.44985e-05
-0.0813214
-0.316783
-0.000218092
1.00528e-06
-7.04679e-05
0.039226
-1.16211e-06
0.00593951
-9.66129e-07
1.75169e-08
0.0184698
0.0555684
8.58932e-06
1.00857e-07
-9.41685e-05
5.96517e-07
-6.42935e-05
0.0202915
0.185007
-0.009174
-0.000429432
0.175948
-1.74345e-05
-0.0212721
-0.000429332
0.00314916
-0.000620573
0.187299
-2.38459e-06
1.14669e-06
-0.049155
-3.31717e-06
8.45851e-07
0.000705032
9.82389e-06
0.0908488
-0.000915386
-3.15104e-08
1.07406e-06
-3.06446e-08
-0.00624119
-0.382568
-0.0164717
2.74812e-07
3.04822e-05
1.32196e-06
-0.000420642
-0.0645763
-0.00015241
0.503803
-4.20509e-07
-3.48729e-06
4.85158e-05
4.62317e-05
5.3717e-07
0.0276496
2.38275e-05
-0.171012
2.69038
0.0120202
-0.000102143
-9.9922e-07
-3.79906e-08
0.0154147
3.1206e-07
0.11326
7.70452e-05
-2.40112e-05
0.0301231
0.0118272
0.420792
1.11901e-06
0.117307
3.87722e-07
0.441058
0.000882215
-0.138653
0.0272133
-0.141811
0.00567765
-2.83004e-08
-0.00111403
0.00151465
7.08202e-07
0.150443
-0.0969244
-0.00163877
0.000100151
4.55696e-07
0.117595
-3.13852e-05
1.18061e-06
0.570667
1.21515e-05
0.0224871
-0.146868
1.25688e-06
0.0641739
-2.54669e-08
8.91123e-07
-0.273584
-0.0134224
-1.72042e-08
0.0732138
3.52346e-07
-0.024918
0.617106
0.0639995
-0.292312
0.0418696
0.438514
-0.00618752
0.0569843
1.35405e-07
-0.00201665
-1.81051
1.80869
0.00114466
-0.0159163
0.0144195
0.344243
0.441686
-0.216613
-0.258167
1.3452e-05
-1.9913e-06
-0.0132722
-2.71743e-06
0.399904
0.00612862
-1.89339e-05
0.951723
0.0015743
4.23203e-05
-0.000350151
1.29022e-06
-2.42527e-08
2.84167e-06
0.00758601
-4.4418e-05
-3.55945e-07
0.179072
1.59295e-06
-0.0295874
-0.0175963
-0.362444
2.43508e-05
-0.115562
-2.61525e-05
1.65741e-07
-0.00019983
0.00819194
-0.00429658
-2.99238e-07
7.72745e-07
2.19119e-08
-0.00602116
-2.42327e-07
-0.402883
-0.0175647
-0.103343
0.0346223
-2.40659e-05
0.119284
-0.0165756
-9.5832e-07
-2.29919e-05
-1.02877e-06
-3.33762e-06
-0.455238
4.34978e-07
1.24561e-06
0.000457755
0.065557
7.79151e-06
0.135933
-0.596117
0.000986846
0.000610354
1.76395e-07
4.41522e-07
2.50338
4.10796e-09
-2.326e-05
2.55061e-05
-2.06276e-07
-9.09361e-07
7.35759e-07
-0.422744
-0.197896
1.01307e-05
0.000263059
-0.0456408
0.638714
-6.63733e-07
9.40158e-07
-2.48588e-06
0.00249763
-0.0841952
0.0236003
0.0284001
0.172335
1.87489e-05
-0.0143591
1.61813e-07
-0.00440803
-0.000163241
1.72428
-0.333649
-6.3879e-06
-0.173434
-8.57446e-07
-0.000221369
0.00244304
-6.41571e-06
-7.644e-07
-0.0294168
-0.0154057
4.87235e-07
-0.00923167
0.353739
-0.0114391
-0.165256
-0.0692413
1.00302e-06
3.67057e-05
3.42759e-06
7.73589e-08
0.0119201
-0.313034
-0.0145102
0.000905501
-8.90748e-07
-0.0142889
-9.11834e-08
-0.0484603
7.78247e-07
1.90234e-07
-0.0610578
6.89482e-07
-0.000472354
0.0324819
-1.59698e-05
-6.64915e-08
-1.55604e-06
1.85296e-06
0.00728773
-0.451213
-0.315393
5.58361e-06
8.407e-05
1.13299e-06
-1.21481
0.00234633
-1.60184e-06
2.13591e-05
-6.90905e-06
7.88372e-05
-0.00459327
1.53646e-06
0.493905
0.00453264
7.92677e-09
-0.252474
-0.0118002
-2.40409e-06
0.399589
-8.81648e-08
-5.03479e-07
-0.102627
23.0748
-7.32034e-05
0.265221
4.61531e-07
0.292058
-3.13373e-07
1.9378e-08
-3.83187e-06
-1.81461e-06
-0.00203955
-9.75693e-07
0.00491845
-6.9629e-06
12.6201
-0.0522243
-0.00182812
-8.18728e-08
-0.354608
0.0217322
0.0114884
2.82927e-07
-0.000117823
-0.292238
7.09227e-06
3.29013e-06
0.00769704
0.0290832
-7.681e-07
2.3985e-05
7.59382e-08
-0.0051498
0.299033
6.26069e-07
1.4425e-06
3.96277e-06
-0.0803836
-2.73367e-07
-2.48377e-07
-1.88788e-07
0.00141003
-3.17339e-06
7.52561e-06
-1.03195e-06
-0.00198372
-3.79698e-05
1.10179e-07
0.242931
-2.0803e-06
0.110889
0.000431962
5.88011e-08
0.597249
-1.49424
-0.0139772
-0.49656
-1.457e-06
-0.0336882
-6.26167e-08
-0.154364
-0.051906
8.35328e-07
0.000299227
-0.932343
-0.399346
-0.00385699
-2.04787e-06
-0.25185
-0.000291855
0.00283739
0.319198
-0.00823112
-1.38064e-06
-3.34616e-08
8.26747e-05
-7.18283e-09
3.17178e-05
-0.000116103
0.240461
-0.0101096
-0.0267164
-0.96195
0.00165302
-0.0565254
-0.518608
-4.11056e-08
-0.303541
-0.0280341
-0.000482783
-1.40499
0.600776
-0.377538
-0.116774
0.00946854
-0.000807687
7.4464e-07
0.000890655
2.70906e-08
-0.0182644
0.161891
-0.000333348
-9.79851e-07
-0.000884169
-8.79709e-05
-0.0283191
8.70674e-07
2.00286e-06
1.95184e-05
-1.278e-06
0.107541
-0.0405813
-0.197336
-4.29334e-05
-3.51274e-06
-0.0147266
-1.6852e-06
-2.57856e-07
1.86532e-05
1.6937e-06
-0.44736
0.00689665
1.22819e-06
-0.105647
-0.00010288
0.464145
0.442331
-3.53309e-06
0.0892738
-0.000284697
-3.04737e-05
-2.22734e-07
-0.0020756
-1.89648e-07
0.0477385
-0.612769
7.63662e-06
-0.0328753
-0.003108
-0.000622418
0.137807
-9.61773e-08
-7.3281e-08
2.55613e-06
0.00163869
-0.00627893
4.63798e-05
-0.489849
-0.000106497
6.25105e-06
1.65612
-0.000219797
-0.0113467
-2.57032e-05
2.06151e-05
-0.390969
-0.00625184
0.00288684
-0.140953
-0.00873733
-0.000444119
0.0291877
-2.37454e-06
-0.147682
-2.59151e-06
0.331157
-1.3825e-07
-0.2742
-2.49707e-05
-0.497282
2.06596e-05
-0.534459
3.61823e-06
-0.0280844
-1.00279e-05
-3.04802e-06
0.00906009
-7.0238e-08
-0.0366135
-0.422608
-5.4882e-07
-0.179243
0.00846132
0.133103
7.81525e-06
-0.00279543
5.59429e-06
0.00904964
-0.108966
-3.09689e-06
0.431719
0.417129
0.0319474
5.98157e-07
0.0957216
-0.000152455
-2.80545e-06
-4.57057e-06
0.10207
0.00589893
1.82689e-06
0.0807144
0.258275
6.17829e-07
-0.17229
0.356824
-0.00392879
-3.03118e-05
-0.00166819
-0.284071
-0.00514656
-0.0180108
-0.00400505
5.96778e-05
5.47427e-05
-3.45499e-06
-0.13912
-6.66931e-10
9.59625e-07
-3.43873e-06
-4.70535e-07
-2.10815e-07
-2.19666e-05
0.252662
-0.00561867
2.64238e-07
0.206586
-0.00675425
-1.43496
8.26085e-06
-0.000380758
0.00321191
0.00358377
0.000680623
-0.217105
-5.92243e-09
-9.8824e-06
0.000122746
-1.98767e-07
-1.42895e-05
4.41983e-06
-0.0657808
0.0152018
-0.000973461
-1.06975e-06
1.67635e-05
6.41505e-07
-2.14292e-07
-1.14132e-05
0.0386462
0.234173
-0.230065
1.43621e-06
5.74922e-06
-0.000245385
-0.0452466
6.23225e-05
0.434457
-3.19978e-06
-0.403246
-0.000699579
-6.00106e-05
2.9237e-08
9.07859e-06
-1.68956e-08
0.0303982
-0.00448274
-3.82736e-05
-0.00418587
-0.368405
5.00523
0.0150874
0.00284501
-0.00166883
0.00545772
-2.97396e-06
-0.0951074
-0.218977
-7.91768e-06
-0.0325075
-0.00420555
-1.74708e-05
-1.65867e-05
-0.0126528
-4.43103e-06
-0.000322759
-1.6932e-05
-0.517256
-6.03036e-06
-0.00115882
-0.000445079
0.125484
-0.0178292
7.21692
-3.21998e-06
-9.01499e-07
-2.22154e-06
-0.189318
6.54639e-07
-6.61922e-06
-0.00265779
0.00863512
0.0251364
-0.0235365
-0.005352
0.273804
-2.0845e-06
-7.45231e-08
4.18659e-06
-0.00802913
2.60005e-05
0.0158357
2.08326e-08
-6.15702e-08
0.00596748
0.00404715
2.82118e-07
-0.00615917
-0.0226925
-1.09593
1.0037e-06
0.1575
3.77075e-06
0.884815
2.30341e-05
0.118129
-0.015111
-0.0192835
-4.13484e-07
-0.00196004
-0.431852
0.0020067
-5.74175e-06
-0.000162914
-0.0727782
0.246119
2.78677e-06
0.177447
-0.00235183
-1.27401
0.0228535
0.0837242
0.395705
-2.58392e-06
2.71007e-07
-4.11326e-07
-5.49837e-06
-4.38364e-05
-2.68128e-07
-1.81577e-05
-4.56584e-06
-3.38304e-07
-0.517003
-0.119215
-1.52708e-06
-0.155843
1.43414e-06
0.297365
3.01803e-07
-1.35417
2.65585e-07
-5.31923e-07
-0.0124976
-7.01298e-05
-0.849591
-2.18902e-06
3.22325e-06
-8.44555e-07
0.110858
-1.19291e-09
8.76929e-09
-0.010624
0.8772
-1.01026
-5.94656e-07
0.000254962
0.00326571
-3.7912e-06
-4.45731e-06
3.62541e-06
-8.57956e-07
8.46777e-07
-0.437635
-0.443801
-0.0405531
-7.93145e-06
-9.64383e-05
-2.12709e-05
5.27362e-12
0.404528
-0.0258559
2.17999e-07
4.36135e-06
0.925798
-0.0200095
7.50225e-08
0.00370736
-0.00199051
-0.105626
-3.98223e-05
-0.00981771
0.00820182
-0.00145838
0.365265
-4.03089e-07
-0.00369257
-0.000881097
-5.47063e-06
-4.79276e-07
-1.40305e-07
-0.000120653
-9.47824e-06
-0.0667276
-3.56071e-05
0.00043752
-0.302462
-0.897729
0.101903
-4.55529e-05
5.83415e-05
1.48302e-08
2.21855e-07
-3.80644e-07
-4.01015e-06
0.00453296
-7.08097e-10
1.07457e-07
-4.3949e-08
0.32112
0.116427
0.0112473
0.00618262
1.01933e-06
1.15803e-05
0.211414
-0.000392355
0.000763136
0.268412
0.0867602
-2.82099
-0.000442472
-1.20113e-06
5.63072e-07
-0.0707296
6.88024e-05
9.83505e-07
-0.00495437
0.0292652
-2.20488e-06
-1.87291
0.0128315
-3.21384e-07
0.310085
-7.83698e-05
-0.0102435
-0.190882
-0.0144784
5.68416e-06
0.000257339
0.00463531
-7.51012e-07
1.37829e-06
2.41619e-05
-3.61159e-05
0.00776989
0.0291367
0.279908
4.99174e-06
-0.00807027
-5.94962e-08
-0.00591606
0.290455
1.48359e-05
0.0939325
-0.0317936
-2.66436e-06
-3.97199e-05
-0.000184982
-3.14963e-05
-5.73236e-06
0.0103462
-9.92563e-07
4.2871e-07
-0.102394
0.0057687
-0.000628949
0.000589167
1.52821e-06
0.00572238
0.0587128
0.0161166
0.00275503
-1.00109e-06
0.0251309
0.189284
-0.0480444
3.80093e-05
0.326629
6.06544e-07
-2.96639
-0.310091
-0.95757
6.82544e-05
6.70945e-05
4.06568e-07
-9.03203e-07
-0.154271
-0.0188226
-0.0451539
1.57048e-07
0.0107358
-9.52008e-07
1.27857e-06
0.41029
-0.113573
0.470228
-7.27235e-06
0.203444
9.16498e-07
-0.0268065
-2.74027e-06
-0.0650196
1.63353e-06
-1.44689e-05
-0.473463
-0.0161877
-2.12262e-06
0.0432781
-0.0346623
-0.00684739
-2.21101e-05
-0.154964
0.059418
-3.23663e-05
-2.43499e-06
-0.000674868
3.81379e-05
-3.66684e-08
0.0236969
-0.000384055
-0.0149992
-23.2404
1.56569e-06
0.0950887
-1.87214
2.3633e-07
3.89002e-06
-0.221638
-5.32359e-06
-0.000281188
0.0917258
-0.00901598
1.55619e-06
-0.313981
-7.87473e-07
2.25984e-07
0.934676
2.62031e-07
-0.00711187
0.000936894
-4.42836e-07
-3.49731e-07
1.19366e-05
0.0522802
-0.313007
1.51635e-06
6.39098e-07
-1.13932e-07
-0.00561939
4.19509e-05
0.358922
-3.68329e-05
-5.39935e-06
-0.0295203
-0.00247088
0.0281533
-0.0149519
2.68189e-05
0.00390949
-3.34988e-05
-0.000543748
-1.05151e-06
-0.00900655
-0.326977
-1.20448e-05
-5.22138e-08
4.43388e-07
2.42725e-07
-0.5642
-0.318539
-3.12665e-05
-2.85451e-06
-1.0846e-05
0.000101402
-8.03092e-05
-0.260855
-3.11892
-1.57392e-07
0.00583949
3.90696e-05
0.00099902
1.16233e-08
9.71448e-07
0.012794
-0.0379064
-0.0199455
4.61686e-07
-6.56026e-09
-0.00811197
4.05666e-07
0.426009
-1.85977e-06
0.00818414
0.0113967
2.05528e-05
-0.0163134
-2.55074e-06
0.0575127
-2.15553e-06
0.00593295
4.81221e-07
-4.13595e-05
0.00389059
2.7413e-08
-0.00144023
-0.00839013
-0.258511
-0.501062
-0.529717
-6.27825e-06
-4.35985e-06
3.8662e-07
0.000214738
-7.51745e-05
1.68096e-05
-1.66742e-06
1.09384e-05
0.0236104
-2.59346e-06
0.00388566
-0.00350488
-0.4451
-0.53037
-7.9538e-05
0.00285213
0.0856611
7.0098
-3.49054e-06
-0.040802
-0.507892
6.5522e-06
-0.493825
2.14392e-06
-9.82669e-06
-0.0826144
0.008482
3.59016e-06
0.198665
-0.00295422
-0.0123469
4.66182e-07
-0.136205
-0.00939577
0.0248881
-0.250954
0.0563644
-0.0661149
-2.57722e-05
6.27353e-05
-0.0131203
4.05371e-07
0.0381372
1.6547e-06
-7.85394e-06
0.332823
1.9626e-06
1.22368
5.3814
2.44218e-07
1.19123e-06
-0.000746785
0.241228
-0.00352249
-4.44365e-06
0.000120155
-0.00772085
-0.00765062
-0.0978095
-0.000518439
9.14657e-05
0.380402
-2.71088
-0.0711516
0.0192655
0.00205154
0.0409794
0.0324895
1.36125e-06
-0.393884
0.316958
-0.0460909
0.000220803
8.17412e-07
-4.77688e-07
8.46328e-07
-4.55265e-06
-0.609471
2.33641e-08
0.0580753
-1.11181e-05
1.19314e-06
0.000326845
6.59911e-07
-0.0525271
-0.0197463
4.45567e-05
6.50906e-07
7.90883e-07
0.00120936
0.00652412
-1.08084e-05
0.000748982
-3.10333e-07
-3.72743e-05
-0.00279738
-31.0732
-5.4714e-06
0.319658
0.000170523
0.103089
-0.000219014
-0.230334
-3.36209e-07
-9.27279e-06
-0.000439923
1.00183e-06
-0.0389569
4.78357e-07
0.00157824
4.84032e-08
-1.8385e-05
0.0299571
0.0348132
-0.000487468
3.61231e-08
-0.00429047
9.16098e-08
2.09856e-06
2.80645e-05
-3.16175e-06
2.57609e-05
0.0176687
0.000261981
7.34261e-07
-1.00077e-05
0.0157417
0.110573
-3.76145e-06
0.00039878
-0.427812
-0.991517
-0.0183903
8.64107e-05
0.00374339
-5.56064e-08
9.45456e-07
-0.0316836
-5.44168e-06
0.374576
0.00344532
3.80088e-07
-2.15451e-06
-0.00578998
0.315324
-0.0368337
-1.29084e-08
-9.9004e-09
4.46887e-05
-0.0735053
-0.0346199
-6.29367e-05
-0.0145257
0.307435
-0.0182697
0.00019863
-0.035694
0.0833113
0.125531
0.584844
-0.0175416
-3.08611e-08
-5.69537e-08
-0.015538
-1.62737
6.5277e-07
0.00916384
-0.0744077
-0.530207
-2.22792e-06
0.00435472
3.11964e-07
-0.994113
-1.98365e-07
-0.0397107
-6.5332e-08
0.000694768
-0.247949
-3.20235e-06
-0.00460654
-1.83727
-4.61572e-07
-0.00814557
-2.73056e-06
-0.0170528
1.5375e-06
0.269906
-8.73147e-07
2.056e-05
-1.25275e-05
-0.567329
0.330695
-2.77375e-08
-0.0104209
0.362072
7.38442e-07
0.000284455
0.350133
-1.08313e-06
1.58042e-06
1.04721e-06
-6.5237e-06
-0.0524006
-0.000570713
-2.09238e-06
-6.77114e-06
0.0173184
3.30457e-07
-0.0466951
-0.000972887
-2.48585e-05
-0.00508187
-3.34069e-09
-4.29523e-06
-1.38797e-08
-5.38171e-05
-5.35844e-08
6.09293e-07
-0.00140167
0.230712
-0.490884
-3.58045e-06
0.0338402
-0.00147462
-6.80045
0.342272
-0.123796
1.62177e-06
-4.24005e-07
-6.22598e-06
-1.94237e-06
-0.0309134
-4.12141e-06
0.0480701
1.79897e-05
0.0212609
4.04721e-07
2.09435e-06
-0.411251
2.65111e-06
-0.0213471
0.481801
0.147321
-7.22945e-06
5.74641e-05
-0.000536834
0.0382487
-6.28695e-05
-0.0734104
0.764732
0.000147736
0.94086
5.61482e-07
0.00378029
6.65477e-06
-0.116089
0.000163831
0.00786701
0.286753
9.28214e-07
-1.38455e-05
-0.00509408
1.02395e-07
7.21061e-06
0.2046
-0.000100413
-5.09797e-05
-2.1496e-08
6.16414e-06
-0.000324011
-0.0442474
0.000734594
-0.260312
-0.949555
-0.0108143
-0.188592
2.82741e-09
9.48843e-06
-6.65232e-07
2.81549e-07
-0.000107377
-0.0144419
-1.22151e-06
0.274265
-0.0365818
0.0402493
0.123631
0.00762001
-0.0065819
-0.70812
-6.51946e-09
0.00343733
0.0138863
-0.00473056
0.114548
-1.43795
0.38669
0.265452
-0.254832
-0.0497567
0.00834504
-1.48921e-08
0.0882591
-0.0191655
-4.78618e-07
-0.00549379
-0.000628875
-0.0356027
0.397631
-0.00134344
-2.69869e-05
1.79718e-06
0.0192768
0.120747
-7.53052e-05
8.97902e-08
-0.00052971
-1.60567
-7.09952e-06
5.86739
-1.23429e-06
-1.96064e-06
0.0161101
3.57744e-06
-1.13637e-06
-1.83679e-07
0.339846
6.1144e-06
-0.169792
-0.00949395
-3.56878e-07
0.0186202
-1.26246e-07
1.45435e-06
-0.329576
-0.0936622
7.71431e-07
1.4897e-07
1.06146
-0.0160687
-3.99193e-05
7.96215e-08
-0.00700295
0.019857
-28.1018
0.00105257
-0.00166163
-2.28197e-08
0.213187
-1.6296
1.06028e-06
0.0322823
-0.293671
-0.000264802
0.243487
0.232859
0.488717
8.72579e-07
0.0158833
-0.000158616
2.49395e-07
-0.140026
-0.377996
-0.0393588
4.6469e-07
-0.020687
5.05957e-07
-1.90511e-06
-0.0552199
-7.1562e-06
-0.00219239
-3.28818e-06
-9.95386e-09
-0.471287
-0.154687
-1.05066e-06
-6.91238e-06
-1.6513e-06
-0.107988
-0.17708
-0.0378337
-0.00922395
2.84921e-06
5.55923e-05
-1.73668e-05
-4.86599e-06
0.0132977
-2.49357e-05
-2.7787
0.00596042
-1.65323
-4.83626e-06
0.000672775
-0.000533471
9.24522e-06
-1.2589e-07
-4.60781e-05
-4.3711e-06
-9.2764e-05
-4.24714e-06
3.25139e-05
7.96895e-07
0.0693934
-3.47525e-06
-1.13658e-06
-0.0304062
-0.00522454
-0.0188492
-2.49995e-06
0.0110239
-4.89459e-06
0.00015848
-2.2185e-08
2.26004e-06
0.335781
-0.0927645
-0.000417201
-0.0622246
-0.14232
8.41713e-08
0.000285566
-2.79193e-06
-0.000144639
0.00394237
0.000148062
-5.94805e-06
-0.0132004
-1.81304
-0.0584741
-0.0282594
-9.98786e-07
2.87151e-06
0.00711055
-0.000334025
-0.0301172
-0.000138265
-0.0791701
0.270307
-1.47439e-05
8.61098e-05
0.112054
2.09508e-07
-0.0198618
0.22604
-0.419337
-0.000557193
0.13262
-0.530999
0.0741248
1.90663e-08
7.82648e-07
8.60205e-08
-3.00193e-06
-0.21171
0.0660727
-0.0774706
0.00276387
1.5515e-07
2.67973e-06
9.64988e-07
-0.0618708
-4.93301e-07
-1.38195e-06
-0.0186155
-0.542001
-9.13434e-06
1.02222e-06
-1.81122e-08
0.0364261
5.8279e-07
-0.000488155
2.64698e-05
-9.06688e-06
7.69958e-07
-0.0823312
7.22081e-07
-1.62164e-06
-9.95937e-08
-0.00904381
-0.000907591
-0.0726213
0.00611249
-3.96733e-06
-2.59032
-6.73531e-08
0.329569
-1.49243e-07
0.369635
-3.31779e-06
-1.24253e-06
-6.63091e-06
0.000575804
0.015636
-6.75316e-07
-2.52536e-07
-8.20758e-08
0.0246562
-0.000493017
-1.1361
-0.000979151
-1.32308e-06
-0.219837
-0.000614056
6.13952e-07
5.52269e-07
0.000664938
-2.05288e-07
-0.708799
-9.66059e-06
7.89456e-09
0.00160353
-0.404042
0.00436648
-1.11055e-05
-0.00692759
4.64207e-05
-4.66137e-06
0.0210864
-4.77269e-07
0.0107113
1.14199e-06
-0.0354048
-0.0264148
-0.00431361
-6.91965e-07
-7.51088e-07
-0.461589
-3.87753e-06
0.000415094
0.00221647
-2.01111
-0.204823
0.000720335
-0.248099
1.62517e-07
-3.13994e-07
-0.553913
-0.0191577
-1.89577e-06
-0.0715099
1.59687e-06
-1.56147e-05
4.32038e-08
0.027745
-3.18944e-07
0.00214682
0.297668
0.0084517
6.14113e-07
0.00147689
-0.0280146
-1.66866e-05
0.000520468
-0.000662741
-4.09626e-10
-0.0551907
0.0777771
-8.00943e-05
-0.202647
0.000147838
1.12973
-0.0108383
3.93323e-07
8.46699e-07
0.0102659
-1.24078e-05
-6.17297
-0.0758113
7.44297e-05
8.28847e-05
-4.55668e-05
0.00389712
5.99396e-05
0.246468
0.0264348
0.323926
3.24484e-07
0.000393554
-0.0946003
1.57892e-05
0.0329887
4.6495e-07
6.62012e-07
0.0101783
-0.00013456
-0.000381414
0.214169
-0.0527759
0.033489
0.00354077
-8.97462e-08
-7.39354e-07
-2.9082e-07
-0.00203675
0.164641
-0.0467938
-0.0551958
0.14564
-1.22258e-08
-0.00744391
0.00729323
9.28012e-07
2.77271e-05
0.000519643
-0.651577
-0.000346089
0.0627407
-4.00053e-08
0.0436568
-2.26248e-08
-0.171496
0.00693685
0.00754689
-0.00699363
-0.753193
-0.0553597
-0.0125841
-0.0244562
0.00484379
4.89757e-08
0.234588
-0.00837745
6.40372e-06
0.00829098
9.41654e-07
5.00213e-07
3.19406e-06
0.150831
0.0113731
6.23555e-06
0.00910703
0.0339605
4.93227e-06
-9.62607e-07
-0.466531
-0.000644592
0.00516338
0.108254
-7.1386e-05
-0.000125255
1.57315e-06
-2.48393e-06
6.4352
-7.35123e-07
3.50916e-06
0.478803
5.44162e-07
-0.0129862
-0.204382
-0.02687
-0.510458
-0.0252459
0.000408956
1.08006
1.08789e-05
0.00643245
-0.00307865
-0.0026051
-8.34948e-05
1.03501e-06
-0.00188084
0.187096
-2.74865e-06
2.04503e-06
0.818856
-1.53266e-06
-0.0187886
0.0154802
4.9781e-06
-4.08073e-05
-5.02808e-06
6.02141e-07
-0.214801
-7.13353e-07
-1.07693e-05
-1.17384
-7.05765e-07
0.01068
1.02451
1.20188e-06
-0.00168248
0.0977048
0.450946
-1.28138e-06
7.19209e-07
-0.0816275
3.7984e-07
-0.622941
0.00115103
0.0747373
8.71302e-07
0.0222707
-1.85642e-06
-7.0772e-08
2.25653e-07
-3.51766e-07
-2.5332e-07
0.113911
3.80234e-06
-1.93051
9.13089e-07
0.226096
-2.34979e-07
-0.111334
0.00437805
-0.00576754
7.84946e-07
2.04165e-05
0.0050453
-2.33229e-05
0.20906
0.0267734
0.0559567
5.58676e-05
-2.01335e-05
2.47e-05
-3.42156e-05
-0.00919494
-8.30732e-05
-0.000437781
1.76053e-08
-0.236976
-0.00107085
-0.00274065
0.00134919
9.65424e-05
1.32498e-07
1.08363e-06
1.58017e-05
-6.08038e-06
0.00914524
-2.30457e-07
-0.000161256
-0.504703
1.60987e-06
0.101685
-2.3668e-06
-0.0537301
-0.00549838
-0.0719586
-8.3538e-10
-0.163443
0.00471871
3.13267e-06
0.0020024
0.106033
-7.76884e-07
-0.283928
3.19966e-07
-1.99515e-05
-1.31967e-06
-0.0474226
-0.0548246
0.410516
0.00443755
-0.0104133
0.00124273
2.31695
-0.0471896
0.000150231
0.00632912
-0.00311149
0.0488501
-0.347579
0.000759189
-0.416516
5.67472e-05
0.0056321
0.000300292
1.67287e-08
-0.0389447
-2.86546e-07
-1.19178
0.00035312
-2.0226e-09
-3.92464e-06
3.02318e-06
1.33011e-06
4.21082e-07
-2.03231e-07
-6.11557e-07
0.118827
-0.0678299
8.78278e-07
3.67963
-0.0494771
0.00118853
-0.000196051
-0.00863286
3.51272e-06
1.9146e-07
-1.85947e-06
-0.00617102
-0.244634
0.0187792
0.0271033
4.64958e-07
0.163537
3.44142e-07
-2.92562e-06
-6.00221e-05
-0.0344755
1.39866e-06
-7.14001e-05
-0.000769838
-0.12939
-2.82072e-07
0.000715753
0.0109263
0.020373
-0.0190145
-0.209501
-0.0982911
-0.0705945
-8.21884e-06
0.000274747
-1.06617e-05
4.5466e-07
0.0143075
0.267682
-0.22459
0.509141
0.0761765
-2.08741
-2.00278e-05
3.70529e-06
-0.000246458
3.04948e-07
8.65115e-06
0.00538805
0.382362
-0.0271733
-2.61052e-07
0.181652
0.00327287
-0.000455142
-0.00425829
0.0375496
-7.12551e-08
-5.09629e-05
0.00847764
6.45501e-06
0.00519529
-0.356091
-0.353781
0.000354226
-4.92332e-08
1.43645e-07
-0.00645852
-0.0486959
0.252319
0.388264
-5.91318e-07
0.27384
0.0260173
1.36264e-07
1.1567e-06
-0.338421
9.42966e-06
0.229058
2.6287
0.0306914
0.0237886
-0.485277
-0.355427
-0.000276596
-0.00471553
0.065042
0.28719
0.001049
1.02709e-06
7.20008e-07
-0.289822
0.316458
0.00492868
0.354939
2.09887e-06
-0.00233462
0.0675923
9.75123e-05
0.00145703
-2.45077e-07
-0.0461687
-1.29242
-0.11734
7.9309e-08
2.85895e-09
-0.091098
-0.0316231
3.6407e-07
-0.12247
-1.06035e-06
-8.37463e-07
5.21154e-07
0.0382622
5.14151e-07
0.00832972
-0.24218
-0.789076
1.37726e-07
8.7711e-07
-1.38666
-0.000139525
-1.03793
-0.00330755
-3.21799e-07
0.834689
0.00183735
-0.0029498
-9.66531e-06
7.44926e-06
-0.00509603
-0.0309567
0.143636
0.144978
0.420624
2.96478e-06
0.0941539
-0.115721
-0.0422159
0.00239052
5.37602e-06
0.232459
-2.17768e-06
-0.103658
-0.00218765
-1.85727e-06
2.80505e-08
-0.000156908
-0.0699511
0.80648
-0.734754
-0.0179809
0.00423238
-0.000252208
-2.25194e-07
-0.14709
-0.00059264
-1.02466e-06
-0.30828
0.00855976
-1.32798e-06
0.00674965
-0.0969555
9.06393e-07
-3.55094e-07
-4.79078e-07
0.384346
-0.0340713
-1.01387e-07
0.0907267
2.92058e-07
-8.86809e-06
3.51221e-07
5.11476e-07
0.00725159
-4.42773e-06
0.000819031
-2.22686e-07
-0.00033338
0.428275
-0.0214739
0.249032
0.40435
0.239173
-0.00153914
0.00270758
-0.511232
-0.0194413
0.00561832
-0.0334551
3.6824e-08
-3.7455e-06
-1.9415
-0.104358
0.101085
-0.310351
-0.00814995
3.03942e-06
0.00127647
-0.00158978
0.261473
-9.47721e-07
0.0473514
3.12765
2.46808
-0.113145
0.0484451
-7.37506e-10
7.56718
-2.33131e-06
-1.13543e-07
-0.0281424
0.00159938
-0.0350934
-0.0183835
2.17642e-06
0.0646629
-2.77359e-10
-0.00512729
-8.14516e-06
-0.0466529
-0.0131553
-0.135157
4.59492e-07
-0.00218074
5.78049e-06
-2.47257e-06
0.193381
0.204678
-5.28061e-08
0.372129
4.02486e-07
0.00239904
0.327751
0.153432
-0.100048
-0.0610806
0.145854
0.00176764
-1.11168e-06
0.0131145
-0.124532
0.00039208
-2.66604e-07
0.27178
-0.0481403
-0.275841
-4.79536e-07
-1.06569e-07
0.0711157
0.0327349
0.0727299
0.0868097
-0.016203
-1.43305e-06
0.00559774
-0.00166626
0.126367
-0.000190236
-0.284088
0.00609381
-6.36726e-07
-0.10465
-2.88586
0.00949884
0.318
0.0171417
7.38495e-07
-0.00930432
7.79077e-06
1.26845e-07
-0.0438267