/*--------------------------------*- C++ -*----------------------------------*\
| =========                 |                                                 |
| \\      /  F ield         | OpenFOAM: The Open Source CFD Toolbox           |
|  \\    /   O peration     | Version:  v2012                                 |
|   \\  /    A nd           | Website:  www.openfoam.com                      |
|    \\/     M anipulation  |                                                 |
\*---------------------------------------------------------------------------*/
FoamFile
{
    version     2.0;
    format      ascii;
    class       volScalarField;
    location    "250";
    object      k;
}
// * * * * * * * * * * * * * * * * * * * * * * * * * * * * * * * * * * * * * //

dimensions      [0 2 -2 0 0 0 0];


internalField   nonuniform List<scalar> 
18598
(
0.000176725
0.000212048
0.000149946
0.000169005
0.000145872
0.00016494
0.000165511
0.000148993
0.000217021
0.0330582
0.000147802
0.019184
0.000144632
0.0181419
0.00014881
0.000177899
0.0477074
0.000164108
0.000151902
0.0787766
0.000147944
0.000146679
0.0731581
0.000146973
0.000145261
0.0477359
0.0002278
0.000147861
0.000228859
0.000176195
0.00906066
0.000149044
0.000150727
0.000179259
0.000165113
0.000202682
0.00014554
0.000147799
0.000145847
0.0343408
0.000187627
0.000189122
0.000186545
0.0174128
0.000153526
0.000149468
0.000145331
8.34875e-05
0.000146177
0.000145261
0.000146357
0.000113789
0.00018247
0.000192566
0.000146676
0.000146619
0.00014775
0.000148825
0.00014573
0.000160157
0.0202107
0.000207043
0.000147888
0.000146886
0.00019749
0.000841081
0.000145694
0.000151571
0.000248554
0.000144865
0.000157621
0.000163456
0.000202844
0.000181937
0.000148391
0.000186534
0.000148569
0.000146604
0.000166042
0.000157549
0.0834437
0.000149647
0.000148058
0.0470247
0.000150624
0.0111989
0.000144845
0.0301449
0.000147613
0.000157431
0.000153636
0.000191758
0.000153281
0.000167664
0.0162929
0.000147565
0.0481327
0.000147588
0.0814266
0.000180128
0.000147644
0.000148758
0.000158201
0.000168109
0.000165296
0.000151941
0.00018151
0.0224993
0.000147812
0.000198262
0.000158437
0.0229628
0.000148662
0.000158131
0.000191563
0.000149582
0.0836623
0.0001596
0.000160216
0.000145574
0.023759
0.000147033
0.000147843
0.000158602
0.0536878
0.00015406
0.000154488
0.00017505
0.000204903
0.000145518
0.000145013
0.000166645
0.0638655
0.000153184
0.000241041
0.000146442
0.000172366
0.000147834
0.000145325
0.000166865
0.00022996
0.000147191
0.000147696
0.0225783
0.00014726
0.000150981
0.000180442
0.000190289
0.000147494
0.000157806
0.000151849
0.00016114
0.000147302
0.0366387
0.000147541
0.000147269
0.0364839
0.000154233
0.000144597
0.000157179
0.000176138
0.000167759
0.000146323
0.000145429
0.000145564
0.0392511
0.000212213
0.000149072
0.000166175
0.000172317
0.000148348
0.000162429
0.0291519
0.000183948
0.000155596
0.000146606
0.0249022
0.000149693
0.000157338
0.0490984
0.000176898
0.000180574
0.000166497
0.00015064
0.0224421
0.000157625
0.031595
0.0540558
0.000147938
0.000185039
0.000150685
0.000146935
0.000166813
0.0380615
0.000158331
0.000146216
0.0789435
0.0193467
0.00017518
0.000187117
0.0356078
0.000146582
0.000162203
0.000149888
0.000153188
0.0678017
0.000210945
0.000147332
0.00015412
0.000152833
0.000177455
0.0453256
0.000145892
0.000173738
0.000182308
0.00015924
0.000181947
0.000147791
0.000148765
0.000168492
0.000144273
0.000147508
0.000151004
0.000147991
0.00016312
0.000147733
0.000147827
0.000147327
0.0205363
0.000145363
0.060002
0.0418886
0.000147586
0.000147991
0.000200055
0.0800539
0.000150429
0.000157729
0.000146811
0.000153364
0.000154457
0.000175135
0.0191064
0.00014553
0.000167565
0.000150197
0.000162193
0.000147168
0.000160255
0.000146301
0.0347643
0.000200017
0.030834
0.0680301
0.000166471
0.0770515
0.000159937
0.00737744
0.000147936
0.046093
0.000157262
0.000171997
0.00393201
0.00873069
0.000268049
0.000149541
0.00014427
0.0244895
0.000186267
0.000155102
0.000145753
0.0001491
0.00017371
0.00014687
0.00759307
0.0731576
0.0347541
0.0484789
0.000186855
0.000172566
0.000175001
0.0495091
0.000151627
0.00780436
0.0552093
0.000157379
0.000185335
0.000175758
0.000146246
0.0310594
0.000178146
0.000143208
0.0254805
0.000208228
0.00131587
0.000163752
0.000145515
0.000213208
0.000160238
0.000175494
0.082994
0.0318862
0.000161885
0.052321
0.000155349
0.000182264
0.0549334
0.000157911
0.0222766
0.000197587
0.0152584
0.000153826
0.000215939
0.0267164
0.000174508
0.000171101
0.000176045
0.000153965
0.00014796
0.00425961
0.000151325
0.0680564
0.000148364
0.000152641
0.000150909
0.0517463
0.000148602
0.000167954
0.000158987
0.000150069
0.000154785
0.00015152
0.0188646
0.0438326
0.000145701
0.00016862
0.000151028
0.0221611
0.000186413
0.000152398
0.000173149
0.000204079
0.000180551
0.0384062
0.000148663
0.0243188
0.0462697
0.0345624
5.96302e-05
0.0466023
0.000152236
0.000160787
0.00016305
0.000168426
0.000186451
0.000147718
0.000163436
0.0361643
0.000177667
0.000146211
0.000147827
0.0433877
0.000148341
0.000145725
0.000144777
0.000146598
0.0117517
0.0304821
0.000173662
0.0285383
0.000175631
0.000197445
0.000153366
0.0361743
0.000148771
5.73427e-05
0.041797
0.000150835
0.000147694
0.0349652
0.0778669
0.000148275
0.000163027
0.000177701
0.000157187
0.00759541
0.000147587
0.000149783
0.000144323
0.000157543
0.000205074
0.000154324
0.000146813
0.000148603
0.0219365
0.000148428
0.000153271
0.00014785
0.000197398
0.000150932
0.000157093
0.000147753
0.000146236
0.000149737
0.0309598
0.0469997
0.00519532
0.0578366
0.0428416
0.000166336
0.000148246
0.0253952
0.000148077
0.00015413
0.000177239
0.000160444
0.000166242
0.000155944
0.0101389
0.000156974
0.000149678
0.00014721
0.000148445
0.000191153
0.000154557
0.000155339
0.000154841
0.000150652
0.000167109
0.0105316
0.000146712
0.000195181
0.000149685
0.00019638
0.000167694
0.0118215
0.000145229
0.000148303
0.000172986
0.000146847
0.0229632
0.0190202
0.000149009
0.000148292
0.000148559
0.0100908
0.0351743
0.0456778
0.00015518
0.00022957
0.000145218
0.0487172
0.0170302
0.000149824
0.000746133
0.000155628
0.000150802
0.000148302
0.000154331
0.000148278
0.000204075
0.000149052
0.000149734
0.0328921
0.000183224
0.000147594
0.000203741
0.000147787
0.0277281
0.000154414
0.000147387
0.00014779
0.000146261
0.053492
0.00014721
0.000146315
0.000171123
0.000155064
0.0187414
0.000176627
0.000145093
0.00587841
0.000184857
0.000169813
0.000149056
0.000151726
0.000148776
0.000148783
0.00015869
0.000147473
0.000151719
0.000185751
0.000160178
0.000178785
0.00948846
0.000153319
0.000176555
0.000179358
0.0822156
0.000146673
0.0676889
0.000174519
0.000148634
0.0323548
0.000151741
0.000147786
0.038032
0.000148866
0.000148024
0.0224821
0.000169591
0.000154295
0.000152065
0.000146244
0.000157751
0.000147047
0.000149859
0.0377545
0.0239801
0.000149273
0.000149523
0.0460232
0.000154602
0.000149885
0.000154297
0.000380408
0.000150774
0.000147161
0.00067043
0.0436574
0.000145882
0.000184502
0.000147974
0.000151945
0.000202601
0.0660876
0.000127991
0.000147263
0.000147759
0.000341279
0.000150939
0.00023494
0.000151883
0.000146955
0.000148498
0.0460649
0.000148511
0.000189252
0.000145043
0.000188777
0.0357223
0.0299639
0.000216004
0.000147508
0.000356756
0.000150551
0.046258
0.0195726
0.000146175
0.000149774
0.0143881
0.000179007
0.000157396
0.00015696
0.000146264
0.0834871
0.000147778
0.00438161
0.000148654
0.000154891
0.000147311
0.000176555
0.000147774
0.000174466
0.0301156
0.0808098
0.000147297
0.000171219
0.0001473
0.000154529
0.000178834
0.000189182
0.0319879
0.000145052
0.0439319
0.0361634
0.000146733
0.000202957
0.000147743
0.00239863
0.000217585
0.0001516
0.0840352
0.000148306
0.000169223
0.0377657
0.000172376
0.000146283
0.000148947
0.000148734
0.000153738
0.000146637
0.000156678
0.000148852
0.000147384
0.0285918
0.000146687
0.000175325
0.000149819
0.000146748
0.0247141
0.0527363
0.00233638
0.000146659
0.0859159
0.000146863
0.000153818
0.000146241
0.000150779
0.0053132
0.0327151
0.000147367
0.000145773
0.000178127
0.000145152
0.000151144
0.000194216
0.000147854
0.000149075
0.000145207
0.000147847
0.000154294
0.000147295
0.000210632
0.000151749
0.000147552
0.000163088
0.00015043
0.0213468
0.000241795
0.000150557
0.000148291
0.000153657
0.000168179
0.000147104
0.000164874
0.000144328
0.000149798
0.0363567
0.0678688
0.000147974
0.00014867
0.000150899
0.000145884
0.000154401
0.0279323
0.0434586
0.000197863
0.000155476
0.000187097
0.000149507
0.000173975
0.000157433
0.000182011
0.000159746
0.0410482
0.000147178
0.000148021
0.0242509
0.000147036
0.000145484
0.051824
0.000147274
0.033056
0.000151582
0.000149634
0.000145478
0.000148283
0.00018039
0.0742145
0.000172393
0.000146699
0.000150238
0.00014778
0.000167376
0.0329299
0.000151243
0.000299108
0.000149025
0.000147554
0.000150866
0.000148375
0.00014583
0.000162706
0.000148472
0.000230167
0.0146256
0.000177339
0.000149155
0.000144891
0.000149839
0.000176215
0.000147803
0.0319908
0.000157456
0.000151815
0.000167738
0.0001775
0.0287703
0.000145626
0.0427176
0.000148662
0.0346682
0.000152495
0.0259736
0.000162577
0.0266833
0.000158671
0.000149763
0.000162853
0.000158886
0.000147866
0.0417911
0.078073
0.000159999
0.000152562
0.000145846
0.00019952
0.000148889
0.000145725
0.000187077
0.000150411
0.00019786
0.0282049
0.000145671
0.000203629
0.00014898
0.000148101
0.000108085
0.000176134
0.000149778
0.000191959
0.000148706
0.000173471
0.000289289
0.0429965
0.0223075
0.0281402
0.0544279
0.000168444
0.000189122
0.000148498
0.000162158
0.000237312
0.0184334
0.000155928
0.000172644
0.0360117
0.0496074
0.0655207
0.000271493
0.0372898
0.000147953
0.000147538
0.000168002
0.000147081
0.0301533
0.000165438
0.000150347
0.000183102
0.000167555
0.000151275
0.000150727
0.000145685
0.00014979
0.000146846
0.000197261
0.000155038
0.000146716
0.0370519
0.000147743
0.000164973
0.000173279
0.0125311
0.000150065
0.0280429
0.000150307
0.000146777
0.000152331
0.0630039
0.000166835
0.000146764
0.000148123
0.000149794
0.000171161
0.000147978
0.0616273
0.000176548
0.0378843
0.0214933
0.000150626
0.000185864
0.000243468
0.000147506
0.000151996
0.000147351
0.000148597
0.0666116
0.000148689
0.000145402
0.000154035
0.000168486
0.000149716
0.0359861
0.012906
0.000159618
0.000155205
0.000146486
0.000147747
0.000321175
0.000149827
0.000150278
0.000151532
0.000148002
0.000145248
0.000148064
0.0729336
0.0751007
0.000148544
0.000150156
0.000194801
0.00853751
0.00014494
0.000146199
0.000148309
0.000158177
0.038642
0.00021141
0.00017369
0.037994
0.000147839
0.000164566
0.000148078
0.000160763
0.000152894
0.000270749
0.0156546
0.000147802
0.0285328
0.000147206
0.00015078
0.000157218
0.000147524
0.000146575
0.000164899
0.0001735
0.000146633
0.000176283
0.0541753
0.000204987
0.000202977
0.000176421
0.000148188
0.000147878
0.00014596
0.00014806
0.0720791
0.0194388
0.000175697
0.000153412
0.000148049
0.000207509
0.000148648
0.0238975
0.000148032
0.000146454
0.000222795
0.000145583
0.000161431
0.00018823
0.000147714
0.000149738
0.000147315
0.000155108
0.000192503
0.083908
0.0314062
0.000146153
0.000154353
0.000148094
0.00331449
0.000179677
0.000146321
0.000153659
0.000148433
0.000153999
0.000181127
0.000147147
0.0330092
0.000184013
0.000149776
0.0222704
0.000186807
0.0001477
0.0553782
0.000148627
0.000145317
0.0364438
0.000300309
0.000154625
0.000256255
0.0001462
0.000263077
0.000149016
0.000146084
0.00015104
0.000144694
0.000155304
0.000146671
0.00015907
0.000147176
0.000529176
0.000151895
0.000183087
0.0001477
0.012038
0.000172955
0.000184835
0.000148701
0.000149427
0.00022043
0.000147098
0.000146242
0.000166704
0.000189656
0.00014506
0.000153867
0.000147692
0.000170271
0.0500769
0.000148295
0.000145667
0.000145635
0.000178159
0.000147085
0.000149578
0.000149549
0.000185474
0.000147031
0.000146752
0.000146704
0.000170196
0.000150636
0.000148122
0.000255087
0.00014802
0.0251397
0.000151839
0.000147742
0.0291534
0.00112777
0.000175181
0.0852273
0.000145789
0.0271614
0.000145877
0.0259773
0.000165231
0.000148241
0.000151685
0.000232807
0.000240491
0.000182979
0.000148688
0.0780545
0.000150676
0.000165052
0.000182522
0.000165095
0.00014488
0.000145142
0.000155024
0.000149567
0.000147878
0.000150246
0.000267553
0.000176679
0.000177609
0.000214735
0.000157056
0.039072
0.085504
0.000148972
0.078239
0.000165068
0.00014938
0.000187438
0.0303085
0.0717309
0.0212836
0.000162515
0.000161134
0.000145473
0.00015765
0.000149647
0.000191936
0.000219902
0.000150574
0.000153285
0.000178602
0.000151011
0.000185449
0.000148219
0.000145823
0.000147843
0.000147336
0.000200101
0.0758646
0.0266284
0.000150738
0.00014972
0.000173961
0.000146169
0.000143939
0.000148503
0.000145439
0.0169399
0.000155939
0.000148529
0.000178017
0.000151492
0.0272761
0.0303935
0.000147103
0.000204029
0.000156067
0.000154236
0.000143976
0.000163236
0.000149131
0.0370156
0.0241678
0.0001468
0.0766951
0.000169713
0.000164552
0.0412851
0.000147463
0.000146323
0.000145718
0.00016007
0.000173281
0.000152127
0.0119215
0.000152753
0.0001493
0.000256726
0.0001512
0.000232366
0.000147882
0.000149699
0.0303871
0.000165889
0.000156932
0.0711723
0.000168727
0.000152026
0.0545785
0.000144815
0.0378343
0.00014694
0.0469439
0.000146562
0.0219804
0.000150653
0.0864694
0.00014804
0.0853976
0.000146749
0.0244248
0.000149566
0.000147245
0.000164203
0.000147934
0.000169342
0.000219989
0.000147407
0.0789616
0.000164663
0.0408936
0.000148456
0.000154625
0.000147096
0.000167303
0.0252526
0.000147724
0.000234063
0.0618586
0.0550784
0.000145214
0.0468844
0.000150491
0.000147268
0.000147531
0.0418932
0.000170769
0.000145538
0.000192591
0.000249342
0.000148207
0.0381685
0.0340155
0.000161676
0.00015015
0.000173548
0.0190767
0.000183551
0.000174023
0.000159812
0.000150083
0.000148694
0.00015354
0.000186916
0.00014972
0.000148055
0.00014756
0.000146588
0.000147729
0.000147882
0.0581442
0.066025
0.000145628
0.0417937
0.000170922
0.000289575
0.000146736
0.000155498
0.000171138
0.000165663
0.000161482
0.000145522
0.000149899
0.000147762
0.000149291
0.00014916
0.000147553
0.000150307
0.000278755
0.000131911
0.000186299
0.00014672
0.00014943
0.000145859
0.000149092
0.000147776
0.0232596
0.000239008
0.0186836
0.000148207
0.000146824
0.000153466
0.0312839
0.00015108
0.0544064
0.000147719
0.00018428
0.0486231
0.000152108
0.000147385
0.000148416
0.000149263
0.000165995
0.000160621
0.00015521
0.000159934
0.000206911
0.000259602
0.000192283
0.000153598
0.000153614
0.000229633
0.000147728
0.000279583
0.0378924
0.000149726
0.000169978
0.00015708
0.000147954
0.000149031
0.00017183
0.000147418
0.000162013
0.000149656
0.0847049
0.000147795
0.000163663
0.000154762
0.042375
0.000181062
0.00560732
0.000147101
0.000144105
0.000148782
0.0761318
0.00014528
0.000147678
0.000158485
0.00016007
0.000178184
0.000183047
0.000187331
0.0456524
0.000146186
0.000148935
0.000147055
0.000173366
0.00014803
0.000188032
0.000149715
0.00014621
0.000186108
0.000167944
0.000146408
0.000163897
0.000163088
0.000218206
0.000145526
0.00159968
0.000146154
0.00879094
0.000151241
0.0241556
0.000191487
0.000167281
0.00014656
0.000157572
0.0277338
0.000157403
0.000148687
0.000189585
0.0273138
0.0447733
0.000145605
0.0430964
0.000190908
9.51433e-05
0.000188234
0.0263604
0.0507346
0.000147254
0.000148296
0.000146699
0.000147553
0.000150041
0.00014772
0.000153386
0.000147745
0.000147852
0.0147894
0.000173241
0.000145814
0.000218073
0.000146874
0.000253507
0.000147788
0.00013819
0.000147703
0.000146682
0.000162801
0.000152191
0.00386963
0.000156886
0.000145773
0.000147131
0.0157875
0.00014983
0.000149696
0.000195893
0.0105838
0.027742
0.000147095
0.000156491
0.000178151
0.00014722
0.00014704
0.000149993
0.000144748
0.000148271
0.0131458
0.00328208
0.000177947
0.000147986
0.000150616
0.000150448
0.000149889
0.0623593
0.000169831
0.000146383
0.000147038
0.0277085
0.000167112
0.000148089
0.000192233
0.000159187
0.000123796
0.000151053
0.000175698
0.000170436
0.000183558
0.0503363
0.000147062
0.000177238
0.000173964
0.000147503
0.000146454
0.000147741
0.000149384
0.000147872
0.0268648
0.00015496
0.000173137
0.0365253
0.0335734
0.000191333
0.00015373
0.000147872
0.000149128
0.000148692
0.000147979
0.000150407
0.000161605
0.000149893
0.000149433
0.000149831
0.0530624
0.0548085
0.000172845
0.000185458
0.00014669
0.000154441
0.0659201
0.000149765
0.000155836
0.0595179
0.000215192
0.000502415
0.000161735
0.000146112
0.000146308
0.0189
0.000154909
0.000147781
0.000161571
0.000194965
0.00014474
0.000224528
0.000210165
0.000146918
0.0364995
0.000152727
0.0741319
9.34087e-05
0.000174527
0.00015054
0.000159916
0.000172935
0.000147343
0.000147369
0.000148669
0.000148427
0.000181987
0.000180991
0.044585
0.000146286
0.000181423
0.000148894
0.000160581
0.000249472
0.000148357
0.058586
0.000177056
0.000148035
0.000155189
0.000185321
0.000149338
0.000152318
0.000168475
0.000146645
0.000145179
0.0335652
0.000167895
0.000162797
0.000153296
0.000146316
0.000187529
0.000181124
0.000162684
0.000166375
0.000145115
0.000178062
0.0430314
0.0281566
0.000155767
0.032559
0.000147844
0.000318361
0.0678348
3.08896e-05
0.000150736
0.000149464
0.000147757
0.000147527
0.000204046
0.000176445
0.000179425
0.000146564
0.000182133
0.000144692
0.000147199
0.0514789
0.0205061
0.000247671
0.000148301
0.0438165
0.000145171
0.000171281
0.00014755
0.000170117
0.000146007
0.000148269
0.0764978
0.00016568
0.000148773
0.000580432
0.000166929
0.0365468
0.000149583
0.0291654
0.000169052
0.000148396
0.000147043
0.000227387
0.00015266
0.000147264
0.00021748
0.00015499
0.000173704
0.0242567
0.000146888
0.000171409
0.000261048
0.000147918
0.00014615
0.000212481
0.000147532
0.000159257
0.0484095
0.000190066
0.000147943
0.0817395
0.000148082
0.000147702
0.00216843
0.000147614
0.000168556
0.000161986
0.000147534
0.000146601
0.00014721
0.000193609
0.00021224
0.00014658
0.000148582
0.000149774
0.000166734
0.000150104
0.0494483
0.000148871
0.0001475
0.00019158
0.000160468
0.000179874
0.000174869
0.000151692
0.000173154
0.000150097
0.000160656
0.000147314
0.000162731
0.000215628
0.000148576
0.00014892
0.000147694
0.000147518
0.0821046
0.0172834
0.000151336
0.000147171
0.000148333
0.000149437
0.000150957
0.0737647
0.00454372
0.000147346
0.000184467
0.000151099
0.000168727
0.000149222
0.000148019
0.000172477
0.000233031
0.000173922
0.000147933
0.000149702
0.000164875
0.000146329
0.0595631
0.000145889
0.000183045
0.00017868
0.00015368
0.000205211
0.000147715
0.000218189
0.000147038
0.000163732
0.000147968
0.000147946
0.000167353
0.000149789
0.000160692
0.000161925
0.0793618
0.0792426
0.074256
0.000146901
0.00014757
0.000149084
0.000156582
0.000155236
0.000153888
0.000146962
0.000147118
0.0285609
0.000147717
0.000168023
0.000161849
0.0679178
0.0823472
0.000151126
0.000159673
0.0571213
0.000341555
0.000146934
0.0282315
0.0835098
0.000153536
0.0842631
0.000147354
0.000149494
0.000194369
0.00016246
0.00014581
0.0568132
0.000163416
0.000185827
0.000145435
0.0268791
0.000162784
0.000170738
0.0184535
0.000195185
0.000254169
0.000148931
0.000151137
0.000160224
0.000147265
0.000180719
0.000147167
0.000147313
0.0302034
0.000146135
0.00273175
0.0103864
0.000147544
0.000148809
0.000168265
0.0610353
0.000162868
0.000148011
0.00015094
0.00016241
0.000160556
0.0251452
0.000159315
0.000150976
0.0341765
0.0127647
0.000194895
0.000164325
0.000154998
0.0182236
0.0563702
0.000145515
0.0818775
0.000234341
0.0273618
0.000156253
0.000147939
0.000148934
0.000146852
0.00014753
0.00022806
0.000147783
0.00018803
0.000147962
0.000146057
0.000152588
0.000148344
0.0560776
0.000173561
0.000149131
0.000147879
0.000145794
0.000155001
0.000171957
0.000149071
0.000154589
0.000146857
0.000149918
0.000162874
0.00422381
0.000147161
0.0587455
0.000152745
0.0403555
0.000157262
0.0224271
0.000146298
0.000148327
0.000149925
0.000145217
0.031836
0.000145078
0.000160165
0.00014982
0.00017103
0.000182041
0.00019368
0.000151293
0.000149257
0.00017724
0.000148675
0.000146282
0.000147351
0.000148795
0.000147977
0.000182812
0.000179548
0.000145535
0.000147859
0.000165972
0.000186482
0.000147171
0.000153817
0.0155366
0.00247744
0.000168805
0.000149983
0.000186275
0.000149865
0.000146963
0.000165382
0.000147395
0.0501551
0.000170118
0.000145903
0.00014714
0.000179095
0.034401
0.000169416
0.000148274
0.000148308
0.000149047
0.0241952
0.000180821
0.000152208
0.000180283
0.000200858
0.000215437
0.000148975
0.000178451
0.0304859
0.0421726
0.0284061
0.000210284
0.000149049
0.000148901
0.0604452
0.00992138
0.000145363
0.000184749
0.0360104
0.0844135
0.000147498
0.0573509
0.000147784
0.000901147
0.00014731
0.000195099
0.000149004
0.000149051
0.0623941
0.000147242
0.00015232
0.000414271
0.000147764
0.000190245
0.000147724
0.000179018
0.000148307
0.058627
0.000146053
0.00015534
0.000150327
0.0757061
0.0599417
0.000149831
0.000162541
0.012036
0.000146061
0.000152639
0.0487638
0.000150752
0.000148732
0.000148124
0.000148567
0.000196278
0.000159692
0.000147449
0.00014833
0.000165733
0.000148271
0.0410524
0.000152902
0.000153945
0.000166196
0.000149787
0.000147988
0.000147644
0.000149496
0.00014828
0.000148483
0.0478941
0.0445391
0.0867669
0.000147059
0.0643076
0.000156572
0.00122818
0.0477408
0.0104075
0.000145491
0.000146542
0.000148175
0.000147113
0.0311834
0.00014768
0.000199301
0.000149695
0.000171821
0.000145919
0.000146509
0.0353734
0.000146518
0.000174686
0.0247787
0.0286093
0.000147395
0.000152909
0.000154075
0.000193452
0.000150042
0.000168018
0.000963203
0.0001531
0.000206562
0.000146092
0.000169572
0.000147511
0.0392828
0.000156549
0.000172233
0.046031
0.000156939
0.000148412
0.000154484
0.000149724
0.000147964
0.0438809
0.000157015
0.000153884
0.000149827
0.000148374
0.00016629
0.0219386
0.000165244
0.062178
0.00161064
0.000164965
0.0190873
0.000149922
0.000148903
0.00014649
0.000146478
0.00015371
0.00019062
0.000144595
0.0417651
0.000166341
0.000192341
0.0485263
0.000232133
0.000169362
0.00327281
0.00014953
0.000187759
0.0422496
0.000159385
0.0321374
0.000248513
0.0636625
0.000216857
0.0183117
0.000195762
0.000168629
0.000148283
0.000238636
0.000189095
0.000147434
0.000175415
0.000154303
0.000171087
0.0629362
0.000157152
0.000148963
0.000147351
0.000190003
0.0338671
0.000151696
0.000149382
0.000159557
0.00021171
0.000147252
0.000130739
0.000146944
0.000155845
0.000173007
0.000148581
0.000147553
0.000148866
0.0578929
0.000147094
0.0381507
0.000168906
0.000149037
0.000176657
0.000149356
0.00014749
0.000133733
0.0355606
0.000145618
0.000148707
0.000154595
0.000196
0.000148735
0.00014788
0.000154824
0.000163907
0.0106795
0.000159239
0.000154932
0.000143862
0.04399
0.0261551
0.00014791
0.000196252
0.014447
0.000149553
0.0571451
0.0441644
0.0303261
0.000148419
0.000166426
0.000151543
0.000144912
0.000211215
0.00476851
0.000170945
0.000148212
0.0300592
0.00014507
0.000146855
0.000208597
0.000148215
0.000195625
0.000147493
0.000149658
0.0864237
0.000215603
0.000144142
0.000147363
0.000148238
0.000210559
0.0213359
0.000216637
0.000198276
0.000152964
0.000151244
0.000147261
0.000151031
0.0125339
0.0755146
0.00685001
0.000171962
0.00220086
0.000147717
0.000152924
0.000162026
0.00015398
0.000148852
0.000158299
0.000147497
0.000148658
0.000147719
0.000149227
0.000147287
0.0212261
0.000151322
0.000147351
0.000187441
0.000154236
0.000174453
0.000146838
0.000173109
0.000147812
0.000151023
0.000149653
0.00014596
0.0482202
0.00627993
0.000156014
0.0213549
0.000218393
0.000147324
0.000162025
0.000147021
0.000149704
0.000155215
0.00015083
0.000147913
0.000171964
0.0195453
0.0584951
0.000198744
0.0001466
0.000146852
0.000155624
0.000154459
0.000165442
0.000149391
0.0382364
0.000218127
0.000147046
0.000154552
0.0359289
0.000146316
0.00022257
0.0406901
0.0867181
0.00015899
0.0120719
0.0339033
0.000179533
0.000144995
0.00014825
0.000146167
0.000146985
0.0214362
0.0505866
0.00018193
0.000169766
0.000145881
0.000146334
0.000147963
0.0191853
0.000146512
0.000147198
0.0391919
0.084294
0.000150325
0.000147777
0.000148663
0.000212618
0.000146315
0.000153427
0.000151431
0.000148391
0.000147898
0.000217904
0.000148037
0.00014556
0.000149013
0.0584733
0.00015468
0.000182529
0.000168312
0.000147011
0.0224456
0.000149435
0.0378515
0.000149039
0.000324093
0.000148237
0.000148015
0.000147227
0.000154201
0.000173111
0.000147661
0.000145095
0.000148896
0.0740248
0.000152169
0.000354251
0.000164033
0.000146968
0.000201568
0.000153535
0.000145395
0.000148476
0.000183546
0.000149169
0.00945024
0.000148442
0.000149849
0.000184432
0.0877553
0.000168954
0.000149916
0.000166055
0.000150176
0.000148145
0.000166164
0.000147384
0.00017074
0.000146335
0.0405119
0.0399627
0.000169225
0.000147669
0.00014458
0.0818214
0.000147251
0.00015798
0.000167424
0.0374402
0.0582905
0.000167386
0.0776794
0.000147855
0.000146798
0.0765126
0.000216365
0.000148052
0.000177291
0.000152495
0.00014931
0.000149813
0.000180533
0.000147472
0.000163868
0.000205549
0.0677182
0.000146009
0.000158144
8.09604e-05
0.000148482
0.000153968
0.00015218
0.000149665
0.0235514
0.00019447
0.000150654
0.000209766
0.000155422
0.000437749
0.000208911
0.000146631
0.00014836
0.000161361
0.000149817
0.000556099
0.000207036
0.000149158
0.000152693
0.00014967
0.000172919
0.000147934
0.0481137
0.000170944
0.0468489
0.000145678
0.000151939
0.0123825
0.00014888
0.0228749
0.00014531
0.000148367
0.000167057
0.000149408
0.000166775
0.000201049
0.0362528
0.0310363
0.000164909
0.000148806
0.000144372
0.000147268
0.000172247
0.000203748
0.000176598
0.000159719
0.0426314
0.000149324
0.000165893
0.0576843
0.000148276
0.000151329
0.000155292
0.000554609
0.000155479
0.00022659
0.000146742
0.000203973
0.000145048
0.0176093
0.000166264
0.000177198
0.000174664
0.0609751
0.00021058
0.000189074
0.000169072
0.000164273
0.000148781
0.0255777
0.0641227
0.000146797
0.000165567
0.00014796
0.000145267
0.000145926
0.000134351
0.00017356
0.000148233
0.000173012
0.000194554
0.000146074
0.000144379
0.066545
0.000154009
0.00016098
0.000189681
0.000149902
0.000149566
0.000147414
0.00014924
0.010022
0.000144931
0.00014678
0.000195989
0.000148134
0.00016002
0.000209625
0.000174393
0.026189
0.0462321
0.000153874
0.000574245
0.000148488
0.000172651
0.000156594
0.000154289
0.000149278
0.000148256
0.000157202
0.0462687
0.000146968
0.000147905
0.00056939
0.000147511
0.000176648
0.000200337
0.000146177
0.000156995
0.000147197
0.000145196
0.00685514
0.00014804
0.000149092
0.002865
0.000143924
0.000177996
7.37299e-05
0.000146692
0.000187671
0.000208497
0.000155213
0.000144974
0.000148501
0.0671035
0.000145894
0.0103382
0.000191936
0.0436269
0.000145543
0.000171572
0.000143708
0.000149483
0.000148181
0.000146763
0.000146525
0.0496643
0.000146147
0.00410604
0.000148244
0.0295503
0.000147708
0.000177066
0.000279456
0.000172793
0.000148177
0.000148795
0.000165829
0.000149369
0.000212918
0.000181897
0.0385996
0.000148764
0.00015062
0.00015043
0.000154009
0.000178116
0.000150902
0.000153517
0.000149838
0.0773042
0.000204442
0.000172542
0.000212505
0.000152971
0.000147726
0.000148443
0.000148856
0.000147684
0.000162571
0.000149084
0.00015449
0.0107598
0.000146899
0.000205455
0.000147382
0.0255077
0.000157756
0.0245043
0.00014983
0.0373833
0.000155617
0.000146027
0.000169127
0.000145839
0.000154579
0.0825334
0.000147628
0.000147966
0.000144769
0.00017466
0.0431997
0.0593736
0.0002314
0.000186649
0.000154
0.000202076
0.000173081
0.000150526
0.000179545
0.000161282
0.000178085
0.0157391
0.000161435
0.0877153
0.000155609
0.000184099
0.000150054
0.000148606
0.000169411
0.000147356
0.00158306
0.000150896
0.000149787
0.00014757
0.0001458
0.000148015
0.000145416
0.000147383
0.000146585
0.000178268
0.0458386
0.00014843
0.00255869
0.0280486
0.000154998
0.000154358
0.000191589
0.000147196
0.000148765
0.000147315
0.000171313
0.0267816
0.000173244
0.000220215
0.000148612
0.0002078
0.000147009
0.000147864
0.000150383
0.000176848
0.000148379
0.00016435
0.000153072
0.000182103
0.000147699
0.000154293
0.000174725
0.00017186
0.000192544
0.0264064
0.0297857
0.000187371
0.000148005
0.000151578
0.000154178
0.000145877
0.000186987
0.0411955
0.0175231
0.000789947
0.000193764
0.000260673
0.000148378
0.000146345
0.000153112
0.0001449
0.000147666
0.0327944
0.0511872
0.000204861
0.000146508
0.04222
0.000156135
0.000149571
0.000155458
0.000196906
0.000147775
0.000152566
0.000173949
0.000146885
0.000182025
0.0627741
0.0819871
0.000166621
0.000146527
0.000149673
0.000191158
0.0314939
0.0427804
0.0503379
0.000144583
0.0456903
0.00017159
0.000148819
0.000148167
0.0152576
0.000147458
0.0343393
0.0241553
0.000173045
0.000169622
0.087014
0.0863181
0.00015401
0.000160384
0.000207389
0.0611673
0.000162514
0.000148273
0.000145111
0.0172886
0.0140197
0.000170121
0.0512245
0.000146139
0.000168571
0.000206532
0.000153692
0.000164765
0.000149199
0.0518675
0.000269813
0.0412814
0.000148757
0.000149853
0.000183493
0.000178426
0.000147669
0.000212364
0.000147407
0.000144867
0.000148189
0.000165826
0.000145801
0.0447507
0.0787799
0.000198934
0.000148075
0.000145392
0.00359052
0.000161156
0.0048974
0.000169024
0.00014733
0.00494444
0.000158373
0.000160173
0.000147707
0.000146958
0.00017393
0.000190041
0.0420867
0.0578668
0.000208774
0.000146336
0.000202524
0.000205863
0.000177219
0.000206195
0.00014941
0.048152
0.000147495
0.0770525
0.00015724
0.000149513
0.000147105
0.000155093
0.0534283
0.00843321
0.0308056
0.0687477
0.000178154
0.000151955
0.000149246
0.0616233
0.000159846
0.000144722
0.0867725
0.00016874
0.000147471
0.000196217
0.000208389
0.000148303
0.000144893
0.000146514
0.000205131
0.0225889
0.000149662
0.05457
0.000147824
0.000148563
0.000148612
0.000148218
0.000186829
0.000147711
0.000151953
0.000149073
0.000175055
0.0267669
0.000175448
0.000215704
0.0524851
0.0627638
0.000159402
0.00017985
0.00018763
0.000229204
0.000159059
0.0614076
0.000148024
0.000147494
0.0128399
0.0660467
0.00025441
0.0849119
0.056747
0.000149457
0.000154009
0.050698
0.0633799
0.00014743
0.000209653
0.000314002
0.00715954
0.0623555
0.000229452
0.000149958
0.0111269
0.000145931
0.00014972
0.000165613
0.000160793
0.0418474
0.000179832
0.000146108
0.000209866
0.000149912
0.000155986
0.000147801
0.0503579
0.000163146
0.0774584