/*--------------------------------*- C++ -*----------------------------------*\
| =========                 |                                                 |
| \\      /  F ield         | OpenFOAM: The Open Source CFD Toolbox           |
|  \\    /   O peration     | Version:  v2012                                 |
|   \\  /    A nd           | Website:  www.openfoam.com                      |
|    \\/     M anipulation  |                                                 |
\*---------------------------------------------------------------------------*/
FoamFile
{
    version     2.0;
    format      ascii;
    class       volScalarField;
    location    "250";
    object      nut;
}
// * * * * * * * * * * * * * * * * * * * * * * * * * * * * * * * * * * * * * //

dimensions      [0 2 -1 0 0 0 0];


internalField   nonuniform List<scalar> 
18598
(
0.00127086
0.000459607
0.00672627
0.000214501
0.0067402
0.00129578
0.000262447
0.00672328
0.000796357
0.00710119
0.00580351
0.00221012
0.00672005
0.00242247
0.00672279
0.000266867
0.00832464
0.000944555
0.00106948
0.00825831
0.00332262
0.0060751
0.00642986
0.00527518
0.00671813
0.00794186
0.000655537
0.00672418
0.000664864
0.00151498
0.00231005
0.00672341
0.00119057
0.00117729
0.000340711
0.000778214
0.00672041
0.00523977
0.00674049
0.00428468
0.00168637
2.78403e-05
0.000146866
0.00206275
0.000453335
0.00171245
0.00671717
0.000147515
0.00676771
0.00671752
0.00671566
3.87083e-05
0.000173716
0.000577127
0.00674383
0.00671733
0.00671958
0.00672227
0.006759
0.000406039
0.00214218
0.000704428
0.00672474
0.00516276
0.00109432
0.000415598
0.00675725
0.00244701
7.07761e-05
0.00671401
0.00156529
0.00040816
0.000217351
0.000158867
0.00672176
0.00176045
0.00672223
0.00671746
0.000221461
0.00168956
0.00782189
0.00172791
0.00458187
0.00700376
0.00205669
0.00274761
0.00671105
0.00472527
0.0067202
0.000353473
0.000550195
0.000573522
0.000649406
6.45491e-05
0.00086734
0.00538657
0.00850829
0.00673243
0.00931371
0.00132498
0.00672025
0.00672203
0.000851294
0.00164208
0.000204467
0.00191111
0.00199025
0.00358197
0.00672477
0.00108328
0.000240646
0.0034479
0.00672243
0.000963023
0.000744727
0.00152745
0.00889438
0.000334848
0.00154915
0.00672081
0.00310143
0.00535311
0.00489724
0.00022818
0.00830916
0.0016072
0.0022838
0.00150642
0.000806576
0.0067301
0.00673161
0.00017471
0.00614218
0.000773085
6.28749e-05
0.00671852
0.000220317
0.00672497
0.00671749
7.36737e-05
0.000820652
0.00501594
0.00671942
0.00238745
0.00672558
0.00121031
0.000248674
0.000699397
0.00673027
0.000248727
0.002137
0.00162975
0.00643964
0.00493814
0.00596419
0.00672509
0.00464007
0.00157338
0.00672019
0.000879306
0.000568271
7.33873e-05
0.00677111
0.00673366
0.00673172
0.00553695
0.000733077
0.00672334
0.000196466
0.000427084
0.00672167
0.000165095
0.00393392
0.000166031
0.00115508
0.00618723
0.00365348
0.00146372
0.00132899
0.00775823
0.00178363
0.0005652
0.000226223
0.00130129
0.00260149
0.000265071
0.00599743
0.00873033
0.00672012
0.000151705
0.00357474
0.00583203
0.000141664
0.00797094
0.000697019
0.00674304
0.00773052
0.00208894
0.000463632
0.000147933
0.00813092
0.00671773
0.000219942
0.00672606
0.000607211
0.00647763
0.000142063
0.00636664
0.00183865
0.00129892
0.00142403
0.00842745
0.00671832
0.000286084
0.000313657
0.000604981
0.000310003
0.00352551
0.00672271
0.000159855
0.00671558
0.00672832
0.00127753
0.00672023
0.000480188
0.00406881
0.00526565
0.0067202
0.0021184
0.00673236
0.00593091
0.0072248
0.00507085
0.0038048
0.000182349
0.00640146
0.00211913
0.000311147
0.00536497
0.000740901
0.00180565
0.00226572
0.00196956
0.00675209
6.43958e-05
0.00101499
0.000147088
0.00609398
0.000497827
0.00674548
0.0046862
0.000164356
0.00485602
0.00823086
0.000377148
0.00691
0.000169939
0.00118751
0.0067243
0.00703433
0.00101278
0.000658008
0.00102269
0.000564295
0.000351865
0.00183203
0.0067161
0.005285
0.000677165
0.00137529
0.0067178
0.00677413
0.00112556
0.0067265
0.000164472
0.00665416
0.00420032
0.00820058
0.00173468
0.000586055
0.00181065
0.00184742
0.00108065
0.000307389
0.00824125
0.000230279
0.00039498
0.000315212
0.00674076
0.00587861
0.000212044
0.000372102
0.00372017
0.000229665
0.000128146
0.000973739
0.00675107
0.000209016
0.000168119
0.0023515
0.00675223
0.00681757
0.000239044
0.00850216
0.00133613
0.00216433
0.00861309
0.00028952
0.00303761
0.000126209
0.000834383
0.00153036
0.000220752
0.00464056
0.000619932
0.00112066
0.000424104
0.00219028
0.00672405
0.000909731
0.00208698
0.00796066
0.0033089
0.000736827
0.00124176
0.00620032
0.00672234
8.68112e-05
0.000705357
0.00165379
0.00170868
0.00344593
0.000936363
0.00668486
0.00671843
5.15101e-05
0.00167216
0.00319273
0.00176666
0.00682401
0.000705207
0.000581001
0.000162559
0.00794315
0.00244721
0.00470331
0.00808111
0.00792707
0.00034897
0.00705708
0.000628465
0.00153866
0.00128825
7.53811e-05
0.00164913
0.00367958
0.000167321
0.0047537
0.000208772
0.00674192
0.00672699
0.00843101
0.00672125
0.00671829
0.0067277
0.00618586
0.000347638
0.00672691
0.000580724
0.00464176
0.00149414
2.773e-05
0.000823658
0.00456478
0.00672269
0.000116057
0.0045662
0.00106605
0.00671967
0.00422953
0.00840875
0.0067216
0.0011627
0.00163993
0.00177895
0.00163347
0.00672585
0.0067257
0.00671497
0.000266518
0.000254965
0.000619028
0.0067179
0.00256035
0.0010514
0.00253729
0.000706615
0.00672686
0.0010515
0.00112255
0.00173795
0.00671956
0.00674549
0.00672552
0.00307411
0.00781658
0.00155641
0.00889223
0.00822784
0.00021857
0.00672191
0.00540293
0.00417481
0.00056858
0.000298737
0.000356107
0.000465826
0.000539215
0.000492982
0.000433568
0.00155059
0.00672134
0.00672222
7.56285e-05
0.00210565
0.0011922
0.00154527
0.000946948
0.000460165
0.00272729
0.00586701
0.000549313
0.00240602
0.00109594
0.00023307
0.00275601
0.00674348
0.0067216
0.000121051
0.00671785
0.0011323
0.00219192
0.00672333
0.00373585
0.00261667
0.00217869
0.00407729
0.00699789
0.0006448
0.00069172
0.00674257
0.00850762
0.00154854
0.00672583
4.36587e-05
0.000523657
0.00141812
0.00672238
0.0011275
0.00672247
0.000797598
0.00672343
0.00672549
0.00540107
0.000405239
0.00672512
0.000319393
0.00671963
0.00320026
0.00177121
0.00432111
0.00329099
0.00674011
0.00238905
0.00672124
0.0067468
0.000460267
0.00132496
0.0033476
0.000453893
0.00674016
0.000767228
0.000910151
0.00156377
0.00672343
0.00191198
0.0067227
0.0067227
0.000672731
0.00673082
0.00112091
0.00171674
0.00071471
0.000135599
0.00237826
0.000730243
0.000276195
0.000324783
0.00761343
0.00674116
0.00713096
9.74702e-05
0.00263615
0.00744105
0.00239108
0.00406836
0.00553796
0.00226075
0.00333057
0.00347506
0.00150332
0.00177072
0.00222446
0.00674659
0.000340662
0.00629852
0.00269142
0.0062644
0.00264025
0.0018771
0.00162618
0.00844781
0.000774645
0.00217466
0.00193409
0.0001242
0.00272704
0.00672172
3.9939e-05
0.00663041
0.006742
0.000368065
0.00380954
0.00205704
0.000193694
0.00667946
0.000300631
0.00676153
0.00371622
0.000290154
0.00153753
0.000679373
0.00204843
0.00672352
0.00276642
0.0071298
0.00302024
0.000925863
0.00672841
3.61021e-05
0.00698151
0.00147283
0.000718838
0.0049941
0.000122926
0.00255327
0.00835566
0.00225794
0.00676485
0.00672565
0.00272852
0.00167821
0.000381836
0.000722925
0.00672257
0.00635934
0.00509912
0.00103125
0.00251297
0.00171068
0.00500986
9.54184e-05
0.00672278
0.0015542
0.00343203
0.00669982
0.006725
0.000421359
0.00672418
0.0030282
6.09131e-05
0.00132152
0.00423415
0.0067386
0.00156579
0.00502979
0.00672711
0.000946325
0.00671981
0.000147977
0.00069221
0.00224196
0.00700867
0.00672257
6.84629e-05
0.00794254
0.000432469
0.00671852
0.00672307
0.00254438
0.000552084
0.00676408
0.00128855
0.00212462
0.00504685
0.00396074
0.00495165
0.00170295
0.00672581
0.00672744
0.00276438
0.00820359
0.000690849
0.00672163
0.00661778
0.00672585
0.00163739
0.00672232
0.00266799
0.000431381
0.00424522
0.00596731
0.0067176
0.00190709
0.00673065
0.00401268
0.00124413
0.00672688
0.00672334
0.0067317
0.00672731
0.00259535
0.00672038
0.00028419
0.00215139
0.00672896
0.000109134
0.00125984
0.00225046
0.000612072
0.001668
0.00672124
0.0016395
0.000159245
0.00671936
0.000398559
0.00671544
0.00672573
0.00761513
0.00622057
0.00412986
0.00672244
0.00234268
0.00671871
0.00242824
0.00366769
0.0083659
0.00100828
0.000477632
0.000203897
0.00286813
0.000881552
0.000632312
0.000602478
0.000194606
0.00798152
0.00672189
0.00672045
0.00302922
0.00672316
0.00673305
0.00816198
0.00519922
0.00539281
0.000908176
0.00672515
0.00673352
0.00672263
7.46105e-05
0.00578516
0.000751336
0.00673725
0.00143047
0.00671969
0.000697266
0.00465722
0.00100108
0.000377339
0.00672325
0.00561314
0.00267471
0.00362393
0.00671752
0.000399422
0.00279614
0.000629536
0.00178955
0.00100763
0.00131196
0.00673511
0.00672591
0.000462266
0.00672263
0.0044859
0.000274669
0.00273833
0.000177661
0.000800597
0.00255494
0.00672017
0.00649705
0.00672243
0.00419457
0.00061836
0.00486304
0.000225329
0.00555259
0.000675002
0.00672562
0.0010988
0.000660154
0.00672731
0.00840309
0.00849256
0.00152141
0.00101641
0.00671733
0.00102605
0.00232209
0.00671983
5.4022e-05
0.00141922
0.00102043
0.00590205
0.00672012
0.00053795
0.00672312
0.00672104
0.000118509
0.000472836
0.00672566
0.000119124
0.00672251
0.00100969
0.000391864
0.00662359
0.00334576
0.00386098
0.00837362
0.00138428
0.000118673
0.00672213
0.00118248
9.88496e-05
0.00114185
0.000559043
0.000883053
0.00758229
0.00758181
0.003414
0.00035285
0.0085432
0.00584083
0.00672762
7.74006e-05
0.00672329
0.0030747
0.000413267
0.00261931
5.87681e-05
0.00134191
0.00273017
0.00151469
0.00671985
0.0067257
0.00672681
0.000928303
0.00103729
0.00671621
0.0060078
0.00671956
0.00017233
0.000643262
0.00258708
0.00277157
0.00522387
0.00307095
0.00676549
0.00118554
0.005849
0.000607845
0.00671618
0.00672111
0.00672574
0.000640772
0.00672396
0.00427911
0.000137799
0.00842392
0.00202769
0.00325933
0.000166856
0.000652421
0.00671907
0.00234021
0.0067239
0.0024417
0.00388687
0.00672252
0.00672072
0.00141593
7.3155e-05
0.00234989
0.00633794
0.00253412
0.000425616
0.000521929
0.0067223
0.00671929
0.000319647
0.00672584
0.00126368
0.00302337
0.00672442
0.00673128
0.0067219
0.00428307
0.00669702
0.00330861
0.00167068
0.000102896
0.00140084
0.00673673
0.0067344
0.00677258
0.000859782
0.00849561
0.000722565
0.000218466
0.00514928
0.0041482
0.000331403
0.00456704
0.00173695
0.000649687
0.00026604
0.0034062
0.00432366
0.00554825
0.00561624
0.000976168
0.000313763
0.00620378
0.00671827
0.000102729
0.000939542
0.00672606
0.000637464
0.00679533
0.000235821
0.000947394
0.000296766
0.00672124
0.00426578
0.0067417
0.00671993
0.00687728
0.00222216
0.00027158
0.000648082
0.00492753
0.000758242
0.00672176
0.00370635
0.00672177
0.00672258
0.000672466
0.00672376
0.00141456
0.000110575
0.00429801
0.00672555
0.00629045
0.00190795
0.00131951
0.00587164
0.00715159
0.00674591
0.000748581
0.0067208
0.000848931
6.81662e-05
0.00676843
0.00232341
0.00281398
0.00060705
0.0020241
0.00678034
0.00358615
0.00100148
0.00672566
0.00312752
0.00176994
0.00543055
0.00772553
0.00672168
0.00673273
0.0058689
7.71387e-05
0.00160992
0.000361407
0.00673542
0.000562077
0.00672335
0.00671722
0.00289175
0.00672333
0.000600589
0.00671824
0.000665439
0.00678117
0.000511939
0.000450572
0.000425946
0.00672067
0.00285357
0.00016041
0.00190658
0.00672255
0.00168233
0.000104488
0.0058167
0.00673344
0.000411731
0.00139033
0.00673005
0.000476449
0.00672046
0.00157376
0.00809534
0.00672224
0.00672408
0.00672996
0.000246143
0.00671791
0.00672497
0.00672488
0.000424044
0.00672545
0.00674289
0.00671822
0.00133421
0.00301934
0.00394764
0.000571682
0.00453334
0.00265318
0.00179636
0.0067222
0.00279192
0.000446257
0.000875279
0.00807036
0.00675895
0.00409032
0.00673057
0.00546161
9.16058e-05
0.00672103
0.0022355
8.42861e-05
0.000122225
0.000311552
0.0023387
0.00649177
0.00105201
0.00155248
5.88511e-05
0.000247001
0.00673846
0.00671932
0.00214982
0.00672491
0.00345486
0.00209918
0.000396428
0.00195002
0.00028079
0.000224527
0.000498161
0.00849489
0.00772656
0.00672308
0.00536662
0.000221777
0.00191754
5.50806e-05
0.00308405
0.00463584
0.00222618
0.000399911
0.00144133
0.00672454
0.000694006
0.00672522
0.0011554
0.000553984
0.00142614
0.00416093
0.00048452
0.00163548
0.000454927
0.00672206
0.00672896
0.00280763
0.00672449
0.00101576
0.00748084
0.00477102
0.00340837
0.00305187
0.00167792
0.00676176
0.00670988
0.00344026
0.00672109
0.00307589
0.000620517
0.00672209
9.33102e-05
0.00198845
0.00291563
0.00287814
0.00672341
0.000821484
0.000387579
0.00246735
0.00670997
0.000178909
0.00672352
0.00770579
0.00411252
0.00595883
0.00793236
0.00148689
0.00130528
0.00614284
0.00672138
0.00671883
0.00672474
0.000168615
0.00173961
0.00199799
0.00239707
0.00142159
0.00283462
0.000274599
0.00154096
0.000620231
0.00319514
0.00157618
0.00680777
0.000267376
0.000820006
0.00625569
0.00136207
0.000942001
0.00851974
0.00673646
0.00465439
0.00672262
0.00839852
0.00672187
0.003153
0.00122156
0.00765969
0.00283742
0.00719428
0.0057405
0.00269757
0.00291437
0.00672073
0.00045729
0.00523178
0.000189217
0.000230322
0.00671977
0.00813414
0.000516979
0.00831166
0.00449949
0.000885322
0.00646256
0.000388662
0.00359355
0.00673104
0.000163825
0.00868429
0.00547344
0.00671274
0.00557897
0.00134835
0.00672064
0.00672572
0.00838259
0.000768511
0.00672781
0.000702531
0.000176781
0.00672088
0.0084254
0.00405335
0.000271412
0.00307365
0.000985305
0.0021019
0.000123699
0.00117599
0.000157261
0.00150632
0.00256463
0.00251603
0.00020315
0.00672544
0.00672089
0.00672767
0.00671816
0.00672189
0.00366302
0.00639029
0.00346211
0.0067244
0.00585578
0.000951625
0.000296496
0.00674963
0.000925418
0.000947138
0.000470109
0.000571296
0.000452557
0.00672608
0.0058427
0.00167436
0.0067236
0.00673426
0.00149992
0.000408897
0.000780267
0.00165898
0.00592331
0.00241207
0.00671813
0.0067234
0.00414412
0.00227427
0.000561206
0.00186639
0.00672139
0.00647713
0.00161884
0.00498098
0.00202515
0.00813397
0.00672754
0.000157871
0.00771176
0.00221352
0.0067198
0.00442586
0.00672389
0.000262097
0.00021231
0.00138938
0.000216193
0.000124561
0.000271579
0.000751519
0.000642669
0.000549727
0.000666879
0.0067286
0.000386128
0.00850042
0.00178439
0.000519474
0.000775772
0.00407666
0.00215111
0.000778362
0.00622412
0.000587125
0.0023684
0.00830368
0.00433428
0.00170721
0.00064375
0.00839559
0.00198038
0.000386011
0.00678178
0.00671275
0.00198344
0.00688636
0.00671673
0.00637164
0.000603323
0.000363795
0.002306
0.000354759
0.00156431
0.00769074
0.0067694
0.00672298
0.0049919
0.00168674
0.00308196
0.000765137
0.00672542
0.00677074
0.000843944
0.000916201
0.0067222
0.000303591
0.000184687
4.52335e-05
0.00672527
0.000696598
0.00674505
0.00153712
0.00214574
0.00205677
0.00134221
0.000164513
0.00671818
0.000893028
0.000707965
0.000323809
0.00238062
0.0010561
0.000634251
0.0083839
0.00672876
0.00842508
0.00101724
5.58338e-05
0.00148455
0.00330646
0.0085552
0.00540494
0.0067223
0.00671723
0.00648391
0.00229496
0.00672222
0.00244081
0.00360626
0.00672745
0.00274655
6.06271e-05
0.00674198
0.00040317
0.0063758
0.000595035
0.00671949
9.96854e-05
0.00671906
0.00671735
0.000205175
0.00215785
0.0012076
0.00676656
0.00672636
0.00671932
0.000761784
0.00672585
0.0067254
0.00101113
0.00176369
0.00566797
0.00678169
0.00149219
0.00043898
0.00673912
0.00672393
0.0024272
0.00672507
0.00672183
0.00296541
0.00118475
0.0016658
0.00350494
0.00266019
0.00350886
0.00672606
0.00877663
0.000522719
0.00672248
0.00513133
0.00237966
7.44895e-05
0.00672003
0.000568689
0.00151644
0.000227314
0.00208703
0.0018663
0.000622422
0.000659683
0.00768389
0.00671792
0.000516806
0.00115055
0.00672442
0.00671642
0.00672278
0.00171569
0.00357458
0.00429789
0.00131353
0.00125883
0.00841948
0.0011555
0.000678753
0.00211184
0.00335402
0.00672348
0.00672259
0.00324262
0.00108071
0.000749887
0.00672609
0.00672447
0.00672586
0.0085096
0.00851711
0.0016523
0.00184635
0.00676118
0.00186404
0.0073506
0.0022388
0.000348066
0.00647587
0.000319708
0.000503417
0.00158349
0.00671698
0.00674373
0.00290232
0.00170574
0.00671973
0.000270476
0.0011322
0.00672556
0.000102403
0.000867699
0.00673455
0.00471107
0.000574939
0.00725987
0.000297324
0.000840006
0.00275552
0.0016347
0.000190271
0.00672001
0.0059482
0.00274595
0.00229379
0.000408303
0.000284487
0.00707312
0.00673488
0.00208843
0.00672256
0.000202896
0.000694497
0.00277289
0.00896074
0.000265959
0.00464078
0.00187373
0.000948488
0.00182346
0.00520601
0.00012385
0.00672629
0.00671327
0.00724558
0.00106538
0.00131447
0.000987196
0.00674289
0.000997196
0.000363235
0.000359363
6.58592e-05
0.00673101
0.000723757
0.00754757
0.00428897
0.00115424
0.00366269
0.00671957
0.000429854
0.00369458
2.95699e-05
0.00267097
0.00172188
0.00671946
0.00671901
0.000852663
0.00066797
0.000219758
0.00672243
0.000439207
0.0067243
0.00672959
0.00858089
0.00211353
0.000340158
0.00325341
0.00836267
0.00671633
0.000268133
0.0045244
6.04726e-05
0.00672286
0.00351714
0.00937232
7.33348e-05
0.00232896
0.000391298
0.000181177
0.00582986
0.00160893
0.00600176
0.000135629
0.00301091
0.00671945
0.000836895
0.00154758
0.00671834
0.000850892
0.000680703
0.000745597
0.00037521
0.00672533
4.59099e-05
0.000267117
0.00673005
0.00673896
0.000692332
0.00582026
0.00170337
0.00752369
0.0008289
0.0051624
0.0071233
0.00429532
0.00671903
0.000828225
0.00671884
0.000614634
0.000162572
0.00575862
0.00672436
0.0055365
0.000348076
0.000126301
0.00672633
0.00672231
0.00672567
0.000914393
0.00204055
0.00797395
0.00256229
0.00564679
0.00118803
0.000165225
0.000369449
0.00282953
0.0018781
0.00171301
0.00125013
0.000474797
0.00554413
0.000527308
0.000125454
0.00277019
0.00672261
0.00671917
0.00671859
0.00749143
0.00316018
0.00226154
0.00598458
0.00325324
0.00216555
0.00108826
0.0045106
0.00049588
0.00671902
0.0004601
0.00287997
0.000952406
0.00672377
0.00672084
0.000289271
0.000630158
0.000170222
0.00671976
0.00672539
0.00076139
0.00672213
0.00882215
0.00674328
0.000348842
0.000219547
0.000697983
0.000792514
0.00672969
0.000345023
0.00671968
0.000194541
0.00671985
0.00380197
0.00094644
0.00672569
0.00017152
0.000293792
0.00530216
0.0061629
0.00660181
0.00563795
0.00655288
0.00243084
0.000519085
0.000449361
0.00257557
0.0067196
0.00673516
0.00359055
0.00672896
0.000362032
0.000184542
0.00374923
0.00788539
0.00180654
0.000144985
0.00879607
0.000319978
0.00672426
0.00327466
0.0091467
0.00242631
0.00875747
0.0046785
0.00308169
0.00113824
0.000671597
0.00672638
0.00250736
0.001487
0.00184012
0.00672479
0.00494953
0.000254228
7.10247e-05
0.00190416
0.00121676
0.000334385
0.00211531
0.00215374
0.000299897
0.00673965
0.000255456
0.00672092
0.00641041
0.00318955
0.00673961
0.000735845
0.00151171
0.00671868
0.00677482
0.00104275
0.00315294
0.000898709
0.00458749
0.00339051
0.00092666
0.000803748
0.00353541
0.00172716
0.00344242
0.00409246
0.00112544
0.00111309
0.0002029
0.000716064
0.00252204
0.00871593
0.00672681
0.00599273
0.000756818
0.00399404
0.00112371
0.00671986
0.00672314
0.0067313
0.00595064
0.000155052
0.00672616
0.000275903
0.00523966
0.00673488
0.000742614
0.00672224
0.00873299
0.00163877
0.00226797
0.00671966
0.00671797
0.000801127
0.000303399
0.00210201
0.000517356
0.00671741
0.00299029
0.00183219
0.000326098
0.0052005
0.00721931
0.00157224
0.00830226
0.00181564
0.00315469
0.00676515
0.0030606
0.00151623
0.00671673
0.00617478
0.00671253
0.000324658
0.00672583
0.000669426
0.000369859
0.000361296
0.000746725
0.00672386
0.00183847
0.00672214
0.00673129
0.00533731
0.00239785
0.00317197
0.000445044
0.0010678
0.00672931
0.00366579
0.000150229
0.000162266
0.00673076
0.00138415
0.00293483
0.000602846
0.000203258
0.00204959
0.0017744
0.00672599
0.00661354
0.000217493
0.00672341
0.00799062
0.00168666
0.00671728
0.00672929
0.00255923
0.00449406
0.000107021
0.00672237
0.0067207
0.00306918
0.00308895
0.000200412
0.00225884
0.00201438
0.000292894
0.000358471
0.00185393
0.00183812
0.00411734
0.00812971
0.00270564
0.000335354
0.00672324
0.00672257
0.00914406
0.000681328
0.00672539
0.000578395
0.00593145
0.00871063
0.00502885
0.00550291
0.00671939
0.000372551
0.00671899
0.00112795
0.00672308
0.0023848
0.00339863
0.00673125
0.000833399
0.000376481
0.00672526
0.00082459
0.0058182
0.00100702
0.00672142
0.00894449
0.00675956
0.000407406
0.00306364
0.00688537
0.0074554
0.00672588
0.000875279
0.00190562
0.00671899
0.00149849
0.00840571
0.0028185
0.00676979
0.00672102
0.00261068
0.00103983
0.00186211
0.00627844
0.00329244
0.000328893
0.00672231
0.00503484
0.000786872
0.00204955
0.000817339
0.00672569
0.00456259
0.00671854
0.00174613
0.00672054
0.00672202
0.00489914
0.00718911
0.00702515
0.0067256
0.00938508
0.000290715
0.00020169
0.00847802
0.000556321
0.0067204
0.00671838
0.00306195
0.00469188
0.00583083
0.00395215
0.00105498
0.00310956
9.5191e-05
0.00671712
0.0067381
0.00810248
0.00673724
0.00142041
0.00180468
0.00318506
0.00437955
0.00109988
0.000636963
0.00117188
0.00125938
6.69369e-05
0.000465749
0.00254994
0.000235854
0.00671917
0.0018258
0.0067317
0.00623573
0.00145948
0.00026881
0.00806621
0.00216389
0.00270218
0.000632843
0.0067255
0.00348621
0.00812285
0.0015215
0.00193803
0.00672584
0.00464968
8.69148e-05
0.00208509
0.00155055
0.00908975
0.000702963
0.000752419
0.00174673
0.00672618
0.00215718
0.00671725
0.00672866
0.00153963
0.00138478
0.00672375
0.00648766
5.41075e-05
0.000844842
0.00567409
0.000166324
0.00148393
0.00109698
0.00672478
0.00156146
0.0065966
0.0004089
0.0044524
0.000316038
0.0085068
0.000575034
0.00383076
0.000122162
0.00170304
0.00672061
0.000264281
0.00100523
0.00413427
0.00157695
0.00042549
0.000219675
0.00831397
0.000435805
0.00217266
0.00430873
0.000737427
0.00511235
0.00297358
0.00672429
0.000588118
0.000140673
0.00673237
9.04396e-05
0.00672498
0.00677559
0.00124501
0.00330269
0.00672057
0.00672298
0.00893309
0.00624254
0.00835086
0.000544773
0.0067233
0.000711521
0.00672417
0.00676268
0.000256194
0.00579827
0.0067207
0.00672226
0.000265468
0.00122241
0.00246262
0.00671924
0.00052063
0.000139174
0.000378693
0.000177562
0.000843378
0.00670966
0.00795747
0.00462298
0.00459623
0.00109074
0.00301242
0.0014109
0.00881895
0.00842562
0.00338518
0.00672185
0.000107331
0.00193417
0.0067179
0.000687457
0.00107871
0.000174148
0.00672092
0.00513362
0.00671594
0.00672006
0.00025246
0.00349408
0.00113626
0.00672395
0.00672523
0.00657628
0.000683384
0.00671314
0.00436686
0.00323945
0.000569159
0.00265338
0.000650637
0.00014417
0.00682332
0.00186039
0.00472288
0.00681307
0.000587532
0.00774049
0.000654781
0.000131145
0.000690116
0.00440939
0.000652033
0.0011368
0.00163347
0.00672282
0.000717061
0.00672468
0.00266682
0.00546046
0.00290664
0.00674791
0.00261664
0.00681909
0.00471476
0.000215314
0.000510143
0.00212652
0.00672032
0.000231463
0.00433675
0.00107558
0.00672522
0.00674049
0.00830982
0.00124192
0.000730756
0.00251828
0.000300191
0.00671811
0.00154468
0.00672462
0.00223213
0.000592549
0.00120884
0.00503462
0.000194089
0.00109053
0.00897936
0.00119838
0.00671799
0.00673583
0.000662091
0.000368469
7.88903e-05
0.0019369
0.00843937
0.000263919
0.00546144
0.00117279
0.00665414
0.00672244
0.000666166
0.0072695
0.00659307
0.0016946
0.0015744
0.0076513
0.000779385
0.0067196
0.00672101
0.00672246
0.00672355
0.00264685
0.007859
0.000124763
0.000624138
0.00673825
0.00674138
0.00672061
0.00298787
0.00672899
0.00672997
0.00631103
0.0073007
0.0014295
0.00671987
0.00672239
0.000798826
0.00673254
0.000471656
0.00190058
0.00295535
0.00673011
0.00069544
0.00672018
0.00673237
0.00672313
0.00897882
0.000510661
0.000185185
0.00154976
0.00672299
0.00125471
0.0067245
0.00213221
0.00672312
0.000287114
0.00330296
0.0042407
0.00536097
0.000797933
0.00155531
0.00671967
0.00671942
0.00672295
0.00765548
0.00198356
0.000226471
0.00123438
0.00672156
0.000247232
0.000555572
0.00671679
0.00672196
0.000833487
0.00672362
0.00193817
0.00297964
0.00672593
0.000945802
0.00734219
0.00182086
0.00151659
0.00133769
0.00149441
0.00294048
0.000289829
0.00671968
0.0007542
0.00674038
0.00662797
0.00844245
0.00110891
0.00671948
0.00671575
0.00567945
0.00657941
0.000620382
0.00149214
0.000875669
0.00886624
0.00110771
0.00676739
0.00672229
0.00671738
0.00652936
0.000554535
0.00391617
0.000145396
0.00681161
0.00229578
0.0067258
0.000112295
0.00672334
0.000446849
0.000229441
0.00950251
0.00672353
0.000868051
0.000146733
0.0020652
0.000681469
0.00113541
0.00672527
0.00319241
0.00032013
0.0030962
0.000763648
0.00144698
0.00045512
0.000395981
0.006724
0.00672148
0.000217645
0.00120335
0.000104757
0.000298787
0.00183171
0.00162488
0.00174185
0.00100168
0.00338061
0.00692954
0.000155033
0.0082806
0.00675554
0.00175639
0.000915587
0.00224605
0.00326548
0.00672151
0.00672218
0.000436331
0.00208974
0.00106364
0.000159043
0.00793105
0.00454176
0.000987432
0.00672226
0.00671304
0.00671893
0.000810647
0.000187451
0.000568029
0.000436229
0.00815042
0.00672401
0.00142189
0.00589025
0.00672181
0.00180228
0.000955889
0.000297621
0.000398565
0.000424605
0.00671675
0.000761351
0.00672028
0.00156575
0.000797884
0.00246272
0.00139511
0.00341626
0.000544649
0.000143853
0.00013324
0.000998871
0.00672265
0.00217154
0.00582779
0.00672647
0.000871426
0.00672052
0.00672118
0.00675019
0.000671786
0.00128804
0.00430732
0.00237661
0.0011258
0.00674487
0.00671497
0.00438375
0.000456998
0.000239775
0.000257606
0.00150666
0.00207215
0.00672943
0.00676172
0.000946574
0.00673494
0.00655645
0.0001946
0.00672049
0.000827255
0.000238776
5.0832e-05
0.00502856
0.00736767
0.000779915
0.000368946
0.00304714
0.00136953
0.000852806
0.000520505
0.00181861
0.00672102
0.000712574
0.00704481
0.006722
0.00672016
0.000388005
0.00503845
0.00165253
0.000815341
0.00676663
0.000355048
0.006726
0.00671474
0.00036373
0.00448871
0.00257168
0.000816923
0.00671249
0.00222997
0.000131249
0.00672116
0.00155346
0.000187352
0.000259659
0.0067313
0.00672205
0.00415184
0.00671677
0.00235578
0.0011237
0.00392359
0.00672393
0.000291385
0.00670983
0.00672466
0.00672045
0.0067173
0.00672155
0.00772351
0.00675454
0.00111372
0.00672179
0.00319195
0.0067214
0.000151221
0.000352287
0.00121763
0.00672197
0.00237562
0.000432185
0.00182445
0.000770301
0.000447844
0.000983636
0.00241845
0.00211269
0.00239311
0.00188164
0.00156151
0.00113317
0.00130505
0.00672587
0.00554456
0.000373856
0.00115234
0.000343459
0.0017194
0.00671913
0.00672172
0.00219534
0.00564413
0.000108082
0.00672337
0.000586481
0.00243051
0.00583673
0.000221199
0.00672409
0.00370111
0.00067585
0.00325236
0.00672585
0.0084484
0.000441552
0.00675313
0.0015077
0.000640086
0.00168069
0.00645132
0.00671886
0.00325242
0.0067223
8.93244e-05
0.00708922
0.00890705
0.00063826
0.000561563
0.000613422
0.000161067
0.00039853
0.00118036
0.000111885
0.000119069
0.000330272
0.00336287
0.00113531
0.00733764
0.00119585
0.0019107
0.0017224
0.00672234
0.000114045
0.00671889
0.000648255
0.00101926
0.00672569
0.00420658
0.00672565
0.00672061
0.00672618
0.00671976
0.0067173
7.8043e-05
0.00750428
0.00672195
0.000280236
0.00428128
0.00109375
0.00178968
0.0012767
0.00608619
0.00672274
0.00672257
0.000881122
0.00508949
0.00181696
0.000723494
0.00672238
0.000207425
0.00672123
0.00443254
0.00272856
0.0017702
0.00672164
0.00161536
0.000622658
0.000251449
0.00672173
0.000537155
0.00211136
0.00162076
0.0012121
0.00466742
0.00521114
0.000287824
0.00504968
0.000834124
0.000684269
0.00671692
0.00163913
0.00626891
0.0016927
0.000321465
0.00127089
0.000308467
0.00318425
0.00675027
0.00161599
0.00671404
0.00395871
0.00620475
0.00767657
0.000191612
0.00671689
0.00606921
0.000677763
0.00140582
0.000767989
0.000916449
0.00672015
0.00286495
0.00180198
0.00668749
0.000127485
0.0075253
0.00591091
7.66591e-05
0.00672103
0.00672531
0.00143065
0.00447739
0.00765297
0.00852864
0.00671529
0.00819605
0.000180599
0.00672283
0.00412639
0.00312717
0.00404512
0.00450258
0.00275811
0.000148455
0.000182706
0.00709095
0.00655963
0.000726917
0.000221957
0.000584315
0.00680284
0.000913528
0.00672164
0.00671626
0.00359977
0.00207549
0.000831402
0.00849353
0.00673455
0.00146467
0.000456207
0.000725741
0.00165657
0.00672371
0.00819993
0.000365737
0.00660064
0.00672262
0.00672592
0.000107471
0.000261624
0.00671906
0.000327491
0.00671969
0.00673297
0.00672117
0.000175339
0.00671707
0.00482413
0.00712115
0.000252445
0.0067201
0.00671717
0.000985174
0.00192224
0.00112099
0.00104749
0.00671847
0.00107484
0.000464928
0.000247225
0.00528012
0.00677531
9.0713e-05
0.000631838
0.00662888
0.0088832
0.000291074
0.0067491
0.00100623
0.000775918
0.000349864
0.000564988
0.00171433
0.00631626
0.00672283
0.00695161
0.000839769
0.00678483
0.00671731
0.000450261
0.00842666
0.00143753
0.00678858
0.00649968
0.000129954
0.001423
0.00672382
0.00927953
0.001635
0.00672179
0.00670004
0.00164297
0.00671945
0.00114093
0.000330863
0.00672117
0.00671907
0.00671714
0.000213711
0.00324657
0.00672524
0.00557466
0.00672249
0.00291202
0.00672237
0.0067209
0.00138708
0.00599318
0.00120465
0.00672324
0.00140247
0.00223993
0.000133592
9.2415e-05
0.00868542
0.00918696
0.00154408
0.0024422
0.000222728
0.000277366
0.000389246
0.00575156
0.00671978
0.00591448
0.00107702
0.00953798
0.00036843
0.00678975
0.00879908
0.00398045
0.000810071
0.00805046
0.00919336
0.00673038
0.000449698
0.000347207
0.00125646
0.00934068
0.000320109
0.00672631
0.000689333
0.0067563
0.00672546
8.38613e-05
0.000439816
0.00682422
0.00221485
0.0067365
0.00052921
0.00672614
0.000456399
0.0034883
0.00803122
0.000417014
0.00838567
0.00672223
0.00165653
0.0067421
0.00672162
0.00852004
0.00751011
0.00672253
0.00855511
0.0067159
0.000692513
0.00026144
0.00750519
0.00874246
0.00023735
0.00704499
0.000758746
0.00671539
0.00523853
0.000127918
0.00032453
0.0067235
0.00613707
0.00585775
0.000888179
0.00671721
0.00385078
0.00723738
0.000105189
0.00573147
0.00120669
0.00217365
0.00672382
0.00543329
0.000266356
0.00917787
0.00170267
0.00923868
0.000705853
0.00672335
0.000178772
8.47785e-05
0.000209232
0.00723158
0.000612602
0.0067205
0.00510028
0.00135545
0.00671897
0.00018399
0.00672569
0.00011628
0.00671822
0.00672503
0.00672155
0.00136165
0.00121931
0.00818316
0.000319054
0.00630756
0.00672622
0.00672636
0.00361122
0.000223501
0.00674262
0.00153089
0.00817149
0.00672226
0.00225101
0.000482056