/*--------------------------------*- C++ -*----------------------------------*\
| =========                 |                                                 |
| \\      /  F ield         | OpenFOAM: The Open Source CFD Toolbox           |
|  \\    /   O peration     | Version:  v2012                                 |
|   \\  /    A nd           | Website:  www.openfoam.com                      |
|    \\/     M anipulation  |                                                 |
\*---------------------------------------------------------------------------*/
FoamFile
{
    version     2.0;
    format      ascii;
    class       volVectorField;
    location    "100";
    object      U;
}
// * * * * * * * * * * * * * * * * * * * * * * * * * * * * * * * * * * * * * //

dimensions      [0 1 -1 0 0 0 0];


internalField   nonuniform List<vector> 
33474
(
(1.03124 0.00047591 -2.7907e-21)
(1.02676 -0.0116512 -8.47929e-23)
(1.02668 -0.0399515 0)
(1.0166 -0.0012701 -8.21818e-22)
(1.03915 -0.0227111 -2.50645e-21)
(1.02145 -0.00678498 -1.78908e-21)
(1.01102 -0.000652794 -3.43707e-22)
(1.02021 -5.69108e-05 1.68939e-21)
(1.00918 -8.43269e-05 0)
(0.976362 -0.0775337 2.39899e-21)
(1.01876 -0.00574624 2.88847e-22)
(1.02362 -0.00750508 1.13863e-21)
(1.01095 -0.000617217 8.47468e-23)
(1.04061 -0.0206965 -2.08906e-21)
(1.0388 0.000939779 -4.74558e-21)
(1.01291 -0.00101667 -7.42141e-23)
(1.00689 -4.46473e-05 0)
(1.05889 -0.0545634 0)
(1.03385 -0.00806512 0)
(1.01708 -0.00428943 0)
(1.06635 -0.0377734 -4.11988e-21)
(1.00047 0.0260989 0)
(1.01642 -0.000322269 0)
(1.03091 0.000637386 0)
(1.01635 -0.000370128 -2.07261e-21)
(1.02382 -0.00767546 -1.1752e-21)
(1.01527 -0.00249802 0)
(1.05434 -0.0302133 -5.04125e-21)
(1.00192 0.0297281 4.39683e-22)
(1.01061 -0.000422781 0)
(1.01184 -0.000166892 0)
(1.01767 -0.00246091 0)
(1.03901 -0.0131975 1.73454e-23)
(1.05783 -0.0544599 3.13358e-21)
(1.01403 -0.00109012 6.35718e-23)
(1.01775 -0.00543783 0)
(0.804758 -0.0331613 0)
(1.01951 0.0109904 -1.16032e-22)
(1.02323 -0.00738707 -1.12556e-21)
(1.04423 -0.0165522 -6.11972e-21)
(1.01888 -0.00676724 -4.4667e-22)
(1.01056 -0.000414749 -1.72807e-23)
(1.02008 0.0102585 0)
(1.00262 5.30711e-06 1.23279e-23)
(0.872459 -0.0743869 2.34906e-22)
(1.02522 -0.0665654 -2.32545e-21)
(0.952955 0.023631 4.03242e-23)
(1.05857 -0.0125285 0)
(1.03317 -0.0684054 0)
(1.01415 -0.00117371 2.78136e-23)
(1.03224 -0.00978196 -3.49605e-21)
(1.01608 -0.00124047 4.3582e-23)
(1.0297 -0.019624 -3.72512e-23)
(1.01104 -0.000675102 -2.81436e-22)
(1.01912 -0.00329144 -3.51905e-22)
(1.05359 -0.0301858 0)
(1.0193 -0.00337365 0)
(1.04688 -0.0411396 0)
(1.04387 -0.0162574 7.41906e-21)
(1.03367 -0.00776278 0)
(1.01987 -0.00338771 -1.11826e-22)
(0.961493 -0.0267032 0)
(0.833854 -0.041069 0)
(1.0199 0.0104016 3.55763e-23)
(1.01396 -0.00323233 0)
(1.02484 -0.00317798 -3.82613e-22)
(1.01051 -0.000361177 -2.3422e-23)
(0.731882 -0.0749598 0)
(1.01627 -0.00107998 -4.3798e-23)
(1.03763 -0.0156553 -3.6019e-21)
(0.936628 -0.0342533 3.02218e-23)
(0.961956 -0.0239984 0)
(1.01879 0.0108066 0)
(1.01358 -0.00312765 3.0051e-23)
(0.993586 0.0046712 0)
(1.01199 0.00360904 3.33717e-23)
(0.985175 0.0252129 -5.05896e-23)
(1.02601 -0.00271936 0)
(1.04055 -0.0211763 2.04257e-21)
(1.0263 -0.0207502 8.96155e-22)
(0.854128 -0.0464 -4.61287e-23)
(1.0238 -0.00725869 0)
(0.967487 0.016084 0)
(1.01419 -0.00114873 2.55989e-23)
(1.0588 -0.0131674 -5.10528e-21)
(1.01404 -0.00101448 3.43724e-23)
(1.06533 -0.0388072 3.05576e-21)
(0.604912 -0.0653124 -1.28318e-21)
(1.09606 -0.0559131 1.06328e-21)
(1.01009 -0.000266921 -5.19632e-25)
(1.01781 -0.00254107 9.62717e-22)
(1.01464 -0.00138177 0)
(1.02948 -0.0202999 3.32265e-23)
(1.01834 -0.00553009 -4.94953e-22)
(1.01107 -0.00068509 3.27473e-24)
(1.05825 -0.0135916 1.03162e-20)
(1.05531 -0.0193316 -8.7462e-21)
(1.03806 -0.0156739 1.88223e-22)
(1.01634 -0.0012193 2.79255e-23)
(1.01914 -0.00849925 -1.12755e-23)
(1.06516 -0.0395465 -4.53762e-21)
(0.979326 0.0112887 -3.62633e-22)
(1.02345 0.000200491 1.27197e-21)
(0.997616 -0.0498744 1.98099e-22)
(1.01286 0.000275901 -9.63416e-26)
(1.01047 -0.000360088 0)
(1.02575 -0.0026614 9.92696e-22)
(1.01714 -8.0764e-05 -9.15703e-22)
(1.01654 -0.00112342 0)
(1.01042 -0.000394867 0)
(1.03051 0.000500657 -2.36409e-21)
(1.01054 -0.000362523 1.92555e-23)
(1.03964 -0.0113507 -7.5748e-23)
(1.01918 -0.00591006 2.70914e-22)
(1.07022 -0.0331456 -3.66951e-21)
(1.07055 -0.0215887 -8.13457e-21)
(1.01969 -0.00335485 0)
(1.02537 -0.042666 1.28164e-21)
(1.02241 -0.0166288 -2.03045e-22)
(1.01092 -0.00058769 0)
(1.02688 -0.0171207 0)
(1.03757 -0.00840173 -2.15518e-23)
(1.01903 -0.00334168 3.49883e-22)
(1.01421 -0.00104472 3.22418e-23)
(1.05932 -0.0121053 0)
(1.0172 -0.00440781 0)
(1.0108 -0.000127353 3.52092e-22)
(1.04596 -0.0408716 0)
(1.02541 -0.0414863 1.22011e-21)
(1.0496 -0.0169114 0)
(1.01439 -0.00178878 -5.83458e-23)
(1.03748 -0.0159904 3.76593e-21)
(1.0402 -0.00747496 0)
(0.844496 -0.0486057 -3.54379e-22)
(1.03874 0.000558824 4.79183e-21)
(1.01851 0.00986065 -1.93985e-23)
(1.01513 -0.0468984 -1.9669e-23)
(0.902705 -0.0614901 -1.67275e-22)
(1.03175 0.00453415 5.92069e-22)
(1.02666 -0.0409831 -1.52601e-21)
(1.02469 -0.00246277 2.27127e-21)
(1.02346 -0.00161825 0)
(1.00928 -0.00016118 -4.38841e-25)
(1.01906 -0.00585318 -8.85152e-22)
(1.02026 -0.00119844 0)
(1.02451 0.00123986 -1.35878e-21)
(0.965171 -0.05221 -3.71977e-22)
(0.971166 0.0134193 -2.33755e-23)
(1.01455 0.00359502 0)
(1.01293 0.0037289 -4.15239e-23)
(1.01656 0.0059143 0)
(1.01874 -0.00574279 2.26221e-23)
(1.02215 -0.0163788 0)
(1.01772 -0.00543235 1.26237e-23)
(1.07035 -0.0210658 0)
(1.02115 -0.00750974 -7.96786e-22)
(1.05213 -0.0042654 -3.34029e-21)
(1.01884 -0.00325527 1.56153e-21)
(1.02956 0.000756196 -3.64458e-23)
(1.01494 0.00603111 1.10899e-22)
(1.04196 -0.0501087 1.12662e-22)
(1.0234 -0.00110845 -5.52196e-24)
(1.03789 -0.0133631 2.38492e-23)
(0.969769 -0.00464359 -1.54555e-21)
(1.05729 -0.0102515 -5.26186e-21)
(1.01555 -0.0536201 0)
(1.01408 -0.00176978 -1.03085e-22)
(1.03143 -0.0698968 -1.77982e-21)
(1.0323 -0.0100234 -4.00302e-21)
(1.05924 -0.0116376 -1.79726e-21)
(1.076 -0.0501577 8.29294e-21)
(1.01151 -0.00078355 1.25903e-22)
(1.10079 -0.0550367 -9.32822e-21)
(1.01041 -0.000394004 0)
(1.02511 -0.00229109 -2.74455e-21)
(0.96895 -0.0726368 4.35669e-21)
(1.02298 0.000562688 -2.33623e-21)
(1.02622 -0.0100056 8.52735e-23)
(0.95078 -0.0031459 0)
(1.01441 -0.0018633 6.20358e-23)
(1.01448 -0.00195205 -3.92642e-23)
(1.03023 0.0007118 2.37712e-21)
(1.01423 -0.00121304 0)
(1.00771 -0.00760024 1.64502e-22)
(1.0201 -0.00118001 -9.12425e-22)
(0.617873 -0.067522 1.17596e-21)
(0.85302 0.0459341 0)
(1.0194 -0.00332509 0)
(1.01764 -9.27304e-05 2.81154e-21)
(1.01865 -0.00566541 0)
(1.02131 -0.000420275 -9.85262e-22)
(1.02984 0.000575843 3.07867e-21)
(1.01229 0.0011847 3.35134e-23)
(0.994226 0.010553 -7.73925e-24)
(0.923944 -0.00630311 0)
(1.01569 -0.000358864 -3.68096e-22)
(0.973282 -0.00311823 1.03414e-21)
(1.03224 -0.0389234 0)
(1.01056 0.00113684 1.4816e-22)
(1.01347 -0.00185814 -3.8025e-24)
(1.01795 -0.0056223 0)
(1.00964 -0.00854515 0)
(1.00089 0.0143669 2.58796e-23)
(1.03086 -0.0257041 6.02558e-22)
(1.06865 -0.0377635 0)
(1.01513 -0.00242595 0)
(1.01405 -0.00174668 0)
(1.06629 -0.0385618 1.29279e-21)
(1.01922 -0.00574738 0)
(0.628853 -0.0651021 0)
(1.00162 0.0130973 1.33326e-23)
(1.01286 -0.000334811 0)
(1.02684 -0.0171177 6.91057e-22)
(1.07093 -0.0197444 -1.21741e-20)
(1.01282 -0.000369745 0)
(1.07521 -0.0503504 -7.38874e-21)
(1.01815 -0.0055087 8.37358e-22)
(0.938232 -0.00197989 2.03377e-21)
(0.865104 -0.0518269 0)
(1.0188 -0.00670361 1.243e-21)
(1.01925 -0.00582605 -5.80177e-22)
(1.01788 -0.00557662 -3.29755e-22)
(1.01842 -0.00614162 -1.2816e-23)
(1.06859 -0.0370284 0)
(1.00873 -0.000121335 9.83534e-27)
(1.05183 -0.0137509 0)
(0.974219 0.0140311 -1.5023e-23)
(1.02641 -0.0211603 1.66205e-22)
(1.0169 -0.001339 0)
(1.05135 -0.0139852 0)
(0.88593 -0.0550595 3.5078e-22)
(1.01313 -0.00166052 -3.03596e-22)
(1.01109 -0.000704844 4.18215e-22)
(1.01133 -0.000718413 1.80899e-22)
(1.01388 -0.000885532 -5.23743e-23)
(0.96714 -0.0334705 0)
(1.05782 -0.0104021 5.18094e-21)
(1.01444 -0.00021548 0)
(1.01009 -0.0001781 -5.93273e-22)
(1.04246 -0.0112796 0)
(1.02134 -0.00722092 9.33718e-22)
(1.06312 -0.0412543 0)
(1.01167 0.00707714 7.95881e-24)
(1.0268 -0.0170696 0)
(1.07266 -0.0331335 0)
(1.01294 -0.000998361 1.71584e-24)
(1.01764 -0.00534809 0)
(1.01845 -0.00443715 6.84543e-23)
(1.02612 -0.019062 3.58379e-22)
(1.02646 -0.0188166 -3.8647e-22)
(1.05751 -0.0156974 -1.08342e-20)
(1.02533 -0.00243223 0)
(1.07196 -0.0307562 5.05832e-21)
(1.01425 -0.00187284 1.76136e-22)
(1.02477 0.00115424 1.52005e-21)
(1.01687 -0.00143537 0)
(0.908858 -0.0604569 3.71148e-23)
(1.0166 -0.00127831 0)
(1.06235 -0.0412244 0)
(0.952588 -0.0782027 -3.01343e-21)
(0.937745 -0.0346131 0)
(1.01217 0.00764169 0)
(1.01817 -0.000109051 9.42694e-22)
(0.960732 -0.0386514 2.35941e-21)
(1.01241 -0.00016748 6.48166e-22)
(1.01384 -0.000907236 0)
(0.937821 -0.00771234 -1.12849e-21)
(0.932472 -0.000176865 0)
(0.928873 -0.000417014 0)
(1.01835 -0.00608365 -4.17597e-22)
(1.02628 -0.01762 -6.56581e-22)
(1.02553 -0.0132532 0)
(1.04975 -0.0174895 0)
(1.01612 -0.000391253 9.2429e-22)
(1.0137 -0.000936079 3.18352e-23)
(1.01932 -0.00566092 -1.26492e-21)
(1.02638 -0.0126662 1.64245e-21)
(1.01554 -0.00225974 -5.3769e-23)
(1.02962 0.00105223 0)
(1.01778 -0.000453707 -2.358e-21)
(1.04256 -0.0105134 4.49585e-21)
(1.00882 -6.23892e-05 0)
(1.04215 -0.0114862 3.96812e-21)
(1.01874 -0.00329122 9.19934e-22)
(1.01474 -0.00145636 0)
(1.01661 -0.00439896 -7.0157e-23)
(1.01676 -0.00122213 -2.07682e-23)
(1.00916 -6.93581e-05 6.10931e-24)
(1.07333 -0.0305702 1.61916e-20)
(0.916941 -0.0105557 9.05186e-24)
(0.997397 -0.0419061 -6.56573e-23)
(1.00824 -6.0328e-05 -7.42649e-23)
(0.968303 -0.0304483 0)
(1.02648 -0.017672 0)
(1.01923 0.000805383 3.48173e-22)
(1.01036 -0.0583898 0)
(0.967323 -0.0730542 6.01617e-21)
(1.06919 -0.0226146 -4.14515e-21)
(1.01779 -0.00319247 -6.09515e-24)
(1.04222 -0.0106929 0)
(1.02615 -0.0126073 -1.55336e-21)
(1.01915 0.00539002 0)
(1.0012 -0.0411267 -1.24901e-22)
(1.01559 -0.00214533 0)
(1.01229 -0.000152639 1.12333e-23)
(1.01347 -0.00183897 1.67749e-22)
(1.01212 -0.000165568 -2.18302e-24)
(1.07003 -0.0224491 1.2013e-20)
(1.03158 -0.0384246 -2.20805e-21)
(0.788736 -0.0649493 -2.88437e-21)
(1.02532 -0.0132438 0)
(1.0177 -0.00321448 -1.18346e-21)
(1.01001 -0.000254161 7.52963e-25)
(1.02503 -0.0689171 1.77181e-21)
(0.973013 0.0100377 -1.62278e-21)
(0.858475 0.0454818 -9.12852e-23)
(0.815376 -0.0666318 2.39287e-21)
(1.07259 -0.0303448 -6.14454e-21)
(1.02118 -0.000318796 1.86812e-21)
(1.0208 -0.07344 -2.46136e-21)
(1.01271 0.000635988 0)
(1.01321 -0.00165885 -2.62306e-22)
(0.647232 -0.0719328 2.38876e-21)
(1.01444 -0.00188968 0)
(1.03251 -0.00931014 -3.80195e-21)
(1.02421 0.00151702 -7.67733e-22)
(0.953145 0.0166814 0)
(1.01037 -0.0095593 0)
(1.02021 5.35826e-05 0)
(1.01219 -0.00145755 -1.41526e-23)
(1.01829 -0.000606417 1.15325e-24)
(1.02601 -0.0210293 3.02058e-22)
(1.05605 -0.0191483 -8.40047e-23)
(1.01058 -0.0585262 -2.33054e-22)
(1.01195 -0.000935296 0)
(1.01908 -0.00597739 9.09932e-22)
(0.992307 0.0125478 3.61723e-22)
(1.01183 -0.000153732 6.20637e-24)
(1.01168 -0.00016748 -5.82526e-24)
(1.0175 0.00403282 0)
(1.01814 -0.0024247 -9.81461e-22)
(1.03466 -0.0400115 5.80152e-21)
(1.0027 -0.00128654 -2.20074e-22)
(0.953815 0.0226659 -7.5898e-24)
(1.08887 -0.0449719 9.75838e-21)
(1.0099 -0.000296324 1.06749e-22)
(1.01537 -0.00311014 -1.54615e-22)
(1.02522 -0.019267 -8.04737e-22)
(1.03032 -0.0208993 -2.88295e-22)
(1.05766 -0.0163634 9.55192e-21)
(1.01826 -0.00576557 -1.07619e-22)
(1.00985 -0.000282188 3.30398e-25)
(1.07114 -0.0203667 0)
(1.06928 -0.023693 -8.8137e-21)
(1.0216 -0.00695563 2.93107e-21)
(1.00851 -4.65718e-05 1.47052e-24)
(1.01847 -0.00615194 0)
(1.01422 -0.0018471 -1.49627e-22)
(1.01082 -0.000391103 -4.06624e-24)
(0.938472 0.0234959 4.36127e-23)
(1.02 -0.00347199 -9.31129e-22)
(0.94387 0.0226745 0)
(1.02506 0.000823459 0)
(1.03027 -0.0135446 1.61619e-21)
(1.01855 -0.00562651 0)
(1.02641 -0.0195435 0)
(1.01133 -0.000712545 0)
(1.022 -0.0156629 0)
(1.01507 -0.00322658 -9.0328e-23)
(1.00494 -0.00158549 2.70313e-22)
(1.01143 -0.000179086 0)
(1.0113 -0.000189086 3.29405e-24)
(1.01277 -0.00113679 -6.0602e-23)
(1.01369 -0.0235797 0)
(1.02094 -0.000371382 0)
(1.06868 -0.0238721 1.30187e-20)
(1.01858 -0.00586064 -1.28332e-22)
(1.02599 -0.0127638 -1.9169e-22)
(1.01936 -0.00576123 0)
(0.886189 -0.073769 0)
(1.00764 -4.84603e-05 -5.35597e-24)
(0.991013 0.0103362 8.71643e-24)
(1.01272 -0.00112577 5.51029e-23)
(1.01804 -0.00234946 3.57428e-22)
(1.05335 -0.0310887 2.3528e-21)
(1.00778 -7.37902e-05 -7.92072e-24)
(1.03446 -0.0148191 5.12025e-23)
(1.01899 -0.00594254 -3.06391e-22)
(1.02386 -0.0191319 1.68875e-22)
(1.03374 -0.0072268 0)
(1.01556 -0.00364036 0)
(1.01807 -0.0495764 0)
(1.01512 -0.000482075 4.64288e-25)
(1.01571 -0.000533305 3.87456e-24)
(1.03005 -0.0132782 -2.06127e-24)
(1.02425 -0.023544 1.26949e-21)
(1.01967 0.00046629 0)
(1.01312 -0.00164369 -9.63303e-23)
(1.0115 -0.000776518 1.30377e-22)
(1.01941 -0.00313716 -1.6921e-21)
(1.02378 -0.00593923 0)
(1.02609 -0.0199358 0)
(1.01337 -0.00178806 -3.89105e-22)
(1.01671 -0.00132833 -9.37211e-22)
(1.05734 -0.0556423 3.42761e-21)
(1.00922 -0.000158843 2.78581e-25)
(1.03203 -0.0398213 0)
(1.03544 -0.0589576 0)
(0.79474 -0.0591567 0)
(1.01931 0.0046426 0)
(1.02457 -0.0112172 0)
(1.01355 -0.000332388 0)
(1.01882 -0.000699637 0)
(1.01523 -0.00336245 -1.89562e-22)
(1.02081 -0.000289906 6.59725e-22)
(1.01169 -0.000861489 -1.92533e-22)
(0.494294 -0.0382597 6.3555e-21)
(1.01775 -0.00193806 -8.12205e-24)
(1.00849 -5.17283e-05 1.86754e-24)
(1.05845 -0.014218 -4.23446e-21)
(1.01174 -0.000879278 3.10241e-22)
(1.02602 -0.0128817 1.86387e-21)
(1.01659 -0.00481217 -4.76487e-22)
(1.01726 -0.00213848 0)
(1.01881 -0.000776531 0)
(1.03255 -0.00962329 1.86366e-21)
(0.996351 -0.0160968 0)
(1.02696 -0.0174673 -7.91144e-22)
(1.01639 -0.00115387 -4.55592e-22)
(1.01518 -0.00331588 3.72972e-22)
(1.01112 -0.000642143 0)
(0.810464 -0.0205331 -1.15953e-21)
(1.01655 -0.00473483 -6.73039e-24)
(0.995366 -0.0170521 0)
(1.0356 -0.0133236 0)
(1.01315 -0.0104097 -6.6065e-23)
(1.01968 0.000570636 2.69569e-21)
(1.03001 -0.0216967 5.9916e-22)
(1.0375 -0.0147823 -1.60339e-22)
(1.01079 -0.000372963 0)
(1.01404 -0.00149621 -1.06097e-22)
(1.02031 -0.023268 -2.38876e-23)
(1.01108 -0.000604747 -1.72632e-22)
(1.00928 0.00526223 -9.42932e-24)
(1.01072 -0.000377796 -1.79846e-24)
(1.03393 -0.00749409 0)
(1.00879 -5.36569e-05 1.39919e-23)
(1.02343 -0.00753832 1.20117e-21)
(1.01744 -0.00452815 2.10425e-22)
(0.990913 -0.0192521 0)
(0.795903 -0.0555524 0)
(1.0145 -0.0127288 -9.55216e-23)
(1.00791 -6.99227e-05 0)
(1.01628 -0.00109387 0)
(1.02092 -0.00161932 -8.0137e-22)
(0.989805 -0.0197704 -7.18087e-23)
(0.986812 -0.0104692 -2.39592e-22)
(0.990155 -0.00898502 0)
(1.0249 -0.010142 -1.22583e-21)
(1.01108 -0.000210104 -5.1499e-24)
(1.02674 -0.0167867 1.55954e-21)
(1.03435 -0.0146389 -2.33125e-21)
(1.02322 -0.00586937 1.19528e-21)
(1.01487 -0.00274923 -1.44754e-22)
(0.966171 -0.0209036 -6.55828e-23)
(1.01568 -0.00275487 -6.79101e-22)
(1.01097 -0.000214454 0)
(1.02689 -0.00920911 -5.60954e-22)
(1.01362 0.00229563 8.13005e-22)
(1.01845 -0.00564804 4.98459e-22)
(0.631897 -0.0720684 -2.39717e-21)
(1.01082 -0.000457938 -3.91972e-23)
(1.03108 -0.00536979 0)
(1.01804 -0.00224283 -1.58788e-24)
(1.00872 -3.94984e-05 0)
(1.02498 -0.00191897 -1.24599e-21)
(1.01296 -0.00128405 0)
(1.01442 -0.00125713 -3.98824e-23)
(0.794056 -0.0471824 0)
(1.01478 -0.0132566 6.53564e-23)
(1.0183 -0.0161792 -1.32362e-22)
(0.923287 -0.034734 -3.87112e-23)
(0.923137 -0.0324287 0)
(1.01841 -0.00619354 5.08337e-22)
(1.01362 -0.0101479 0)
(1.01004 -0.000127641 -3.77254e-22)
(0.689751 -0.0540733 1.97356e-20)
(1.03524 -0.0133191 -2.39227e-21)
(1.01279 -0.00154487 0)
(1.01286 0.000244669 9.42469e-26)
(0.920537 -0.0279972 -8.71542e-23)
(0.920673 -0.0312992 -9.85579e-24)
(1.04295 -0.017995 -5.19735e-21)
(0.705201 -0.074232 2.0054e-21)
(1.01789 0.00519472 0)
(1.01815 -0.00223351 0)
(1.02259 0.00566861 3.87972e-24)
(1.01246 -0.00071354 3.59508e-23)
(1.01842 -0.00572902 0)
(1.01244 -0.000698078 0)
(1.03214 -0.0105112 2.73102e-21)
(1.06045 -0.0346448 -1.06266e-20)
(1.02712 -0.0188578 -9.82149e-25)
(1.01605 0.00685511 6.73485e-22)
(1.01534 -0.00345595 0)
(1.01895 -0.00474154 1.30322e-22)
(1.02442 -0.0105706 9.63873e-22)
(0.474252 -0.054312 3.82734e-21)
(1.01418 0.016215 -2.65596e-22)
(1.05261 -0.0310688 -4.52037e-21)
(1.04278 -0.00931826 -4.87295e-21)
(1.01486 -0.00270348 7.98248e-22)
(1.03953 -0.0223647 3.92515e-21)
(1.03901 -0.0499695 3.0554e-21)
(1.02218 0.00454158 0)
(1.02155 -0.00643829 -5.54554e-22)
(1.01649 -0.00100404 0)
(1.02709 -0.017282 -1.27338e-23)
(1.02325 -0.00542941 -6.40981e-22)
(0.688947 -0.061116 0)
(1.06066 -0.0339781 7.32147e-21)
(1.02024 -0.00657666 0)
(1.01396 -0.000950047 -5.31058e-23)
(1.00957 -0.0072194 0)
(1.01355 -0.011808 3.03258e-23)
(1.01838 -0.006121 -5.49215e-22)
(1.01425 -0.000792181 -1.35164e-22)
(1.01838 -0.00939211 -6.70133e-23)
(0.492538 -0.0551069 -6.02636e-21)
(1.03903 -0.0119542 0)
(1.03919 -0.0123117 7.15594e-21)
(0.998232 0.0060736 1.79771e-22)
(1.04246 -0.00977851 -1.01061e-21)
(1.03042 -0.0127118 1.78282e-24)
(1.01815 -0.0253754 -5.20953e-23)
(1.03456 0.00428183 -1.17422e-21)
(1.02493 -0.0204656 -9.74274e-22)
(1.00603 -6.28418e-05 -4.22145e-24)
(1.01308 -0.0114357 -3.02545e-23)
(1.01586 -0.00393461 0)
(1.01082 -0.000393424 6.79895e-24)
(1.01149 0.0112064 -1.94738e-22)
(1.01898 -0.00582837 -1.85014e-22)
(1.02129 -0.00769301 8.779e-22)
(1.00961 -0.000263235 -1.24683e-23)
(1.01581 -0.00388436 0)
(1.01401 -0.008146 -6.69036e-23)
(0.768981 -0.0649971 0)
(1.02664 -0.00911909 -8.99767e-22)
(1.01198 -0.000149049 -3.51383e-24)
(0.913678 -0.0239839 -1.2928e-22)
(1.00833 -0.00887092 -2.98413e-23)
(1.01013 -0.000194818 2.20075e-25)
(1.01284 -0.000800059 -7.62381e-24)
(0.874037 -0.0690024 -1.97645e-21)
(0.954828 -0.0415138 -1.80278e-21)
(1.0127 -0.000756679 1.10944e-23)
(1.01069 0.00402148 9.2429e-22)
(1.02322 0.000270757 0)
(1.02512 -0.00365453 -1.01774e-21)
(1.01827 -0.0247909 -5.68404e-23)
(1.04269 -0.0100551 -8.49279e-21)
(1.01841 -0.00572569 -1.90362e-22)
(0.996159 0.00529132 -1.26509e-22)
(1.04255 -0.00903609 -6.99264e-21)
(1.02665 -0.016696 -1.65588e-21)
(1.02694 -0.0171991 7.7613e-22)
(1.02242 0.006059 -1.08689e-22)
(1.01023 -0.000368048 0)
(1.01246 -0.000465295 0)
(1.02704 -0.0186788 9.51212e-22)
(1.01895 -0.0161402 0)
(1.01563 -0.00276942 1.95384e-22)
(1.07617 -0.04911 0)
(1.03858 -0.0226617 4.64884e-22)
(1.02001 0.000144088 7.37087e-22)
(1.02116 -0.00707653 -9.06724e-22)
(1.01631 -0.00198001 -8.39917e-22)
(1.04495 -0.0198546 -2.96242e-21)
(0.997259 -0.0518647 -2.50338e-22)
(1.02362 -0.0116684 7.15659e-24)
(1.01668 0.00498806 0)
(1.01856 -0.00419202 -2.99907e-22)
(1.02378 -0.00705437 1.11197e-21)
(0.969936 -0.048152 4.66544e-22)
(1.00884 -0.0654713 1.54412e-20)
(1.03068 -0.0123966 2.18414e-21)
(1.01112 -0.000727654 1.65874e-22)
(1.01386 -0.00033218 4.30011e-22)
(1.02512 -0.0101393 -3.22075e-21)
(1.07706 -0.0490022 0)
(0.950437 -0.0107817 0)
(1.00969 -0.0222696 0)
(1.01158 -0.000834204 2.77089e-23)
(1.01432 -0.000327527 7.81924e-22)
(1.03148 -0.00912601 0)
(0.949891 -0.00710647 0)
(1.03366 -0.0397951 -2.21567e-21)
(1.01247 5.49306e-05 0)
(1.02492 -0.00352913 -7.60434e-22)
(1.01095 -0.0011999 -1.34587e-22)
(1.01997 -0.00392224 -7.60305e-24)
(1.0139 -0.007597 7.58606e-23)
(1.0154 -0.00258459 6.84585e-23)
(0.94981 0.0203903 0)
(0.934246 -0.0781446 -3.24767e-21)
(1.0183 -0.0043128 0)
(1.01017 -0.000118695 0)
(1.01908 -0.00362404 -7.05931e-22)
(1.00837 -0.0115341 0)
(1.03101 -0.00438037 0)
(1.01195 -0.000670538 -1.27279e-22)
(0.992504 -0.027918 9.12471e-22)
(1.01468 -0.00824712 2.54559e-23)
(0.819861 0.0396115 0)
(1.0137 -0.00841738 0)
(1.01784 -0.00051368 7.69515e-22)
(1.02053 -0.00699332 0)
(1.01293 -0.000960535 1.1845e-22)
(1.01483 -0.00162059 8.30395e-24)
(1.01059 -0.000370946 1.07567e-23)
(1.01754 -0.003121 2.2762e-21)
(1.01289 0.000418601 7.11083e-23)
(1.00925 -0.0105263 0)
(1.02224 -0.0159355 0)
(1.01691 -0.00156031 1.37643e-22)
(1.02441 -0.00244951 -2.97355e-21)
(1.01993 -0.00772148 1.97846e-23)
(0.866112 -0.0513352 0)
(1.01868 -0.00420142 -1.05577e-21)
(1.01135 -0.000698561 1.35384e-22)
(1.03116 -0.00418041 0)
(1.03757 -0.0196134 4.019e-21)
(0.539344 -0.056946 -5.82725e-21)
(1.02716 -0.066207 -6.68592e-21)
(1.01869 -0.0212533 -1.19928e-22)
(0.989749 0.0107653 1.02738e-22)
(1.01645 -0.00488646 -2.45227e-22)
(1.01276 -0.0013832 0)
(0.896454 -0.0567398 7.99311e-22)
(1.01174 -0.000531984 0)
(1.02363 -0.0236576 0)
(1.01176 -0.00053022 0)
(1.01037 -0.000386338 1.89034e-23)
(1.01747 -0.00314543 -1.17917e-21)
(1.01298 0.000893671 -8.40261e-23)
(1.02411 0.00233543 -1.61266e-23)
(1.01635 -0.00480366 -2.32125e-22)
(1.02062 -0.0206555 1.75136e-22)
(1.03766 -0.0192315 0)
(0.704643 -0.0566905 -1.279e-20)
(0.967012 -0.0426442 0)
(0.817347 0.0438696 5.83731e-22)
(1.02406 0.00310439 0)
(1.01626 -0.00209404 0)
(1.01228 -0.000822314 0)
(1.0143 -0.000796511 1.00549e-22)
(1.01707 -0.00156689 -1.39572e-22)
(1.01207 0.00130549 3.08369e-23)
(1.02323 0.000467521 0)
(0.886421 -0.0747588 3.29515e-21)
(0.965783 0.00361454 0)
(1.01632 -0.0021851 -1.38642e-21)
(1.01281 -0.0013941 0)
(1.01515 -0.0016447 -1.99185e-23)
(1.01778 -0.0048679 1.06884e-23)
(1.01714 -0.00497689 3.25773e-23)
(1.02449 0.00146846 1.64728e-21)
(1.00442 -7.37015e-06 4.76626e-24)
(0.876763 0.00374195 8.5201e-23)
(1.01232 0.00350608 0)
(1.01002 -0.000191095 -2.71856e-25)
(1.03744 -0.0236602 -2.03338e-21)
(1.02366 -0.011122 1.20592e-21)
(1.01289 -0.000729591 1.45475e-25)
(1.01277 -0.000682127 -1.68505e-24)
(0.948411 -0.0379759 -1.05285e-21)
(1.01747 -0.000907743 1.97018e-24)
(1.03098 -0.0123848 8.97995e-22)
(1.02418 -0.003274 4.13827e-21)
(0.585641 -0.0663924 0)
(0.846882 0.00648492 8.02534e-23)
(1.00476 -0.050573 0)
(0.991882 -0.011993 0)
(1.01217 -0.000262133 2.49454e-22)
(1.01791 -0.0210488 -4.27742e-23)
(1.0123 -0.000817578 1.06299e-22)
(1.01057 -0.000486608 5.05991e-25)
(1.02272 0.000502661 0)
(1.02931 0.00122206 6.25629e-22)
(0.996619 -0.0117878 0)
(1.01058 -0.000486729 1.47576e-22)
(1.02413 -0.00196477 2.28629e-21)
(1.0194 0.000816407 -4.85414e-22)
(1.01605 -0.00116728 -2.57993e-24)
(0.743829 -0.0626286 0)
(1.02457 -0.00315131 0)
(0.93559 -0.0116994 0)
(1.02052 -0.0544137 -1.2124e-21)
(1.01616 -0.00123456 1.09983e-21)
(1.01161 -9.83348e-05 -3.25053e-22)
(0.995104 -0.0384986 3.04067e-22)
(1.01777 -0.000978277 0)
(1.00853 -5.64168e-05 1.30235e-24)
(1.01112 -0.000130787 0)
(1.01278 0.000447966 0)
(1.01402 0.0025393 -9.88077e-24)
(1.03091 -0.0224485 -6.45213e-22)
(0.993592 -0.0342002 -1.04819e-22)
(1.0165 -0.00429281 -2.83639e-22)
(0.952386 0.0129438 0)
(0.989934 0.000917941 0)
(0.763979 -0.0722429 0)
(1.02909 -0.0138424 3.56394e-21)
(1.02478 -0.00320383 0)
(1.01288 -0.0016048 0)
(0.997989 -0.0411096 3.15413e-22)
(1.0131 -0.000496147 2.17366e-24)
(1.02082 -0.00957724 7.74825e-22)
(1.01298 -0.00130919 -1.7762e-22)
(0.720238 -0.0738482 -3.44446e-22)
(0.946691 0.0139436 0)
(1.01395 -0.00129746 -2.71992e-23)
(1.02069 -0.00446606 -8.13506e-23)
(0.993098 -0.00127119 0)
(1.01065 -0.00051657 2.01816e-22)
(1.01278 -0.00134164 4.31324e-22)
(1.01283 -0.00135203 4.69293e-22)
(1.01657 -0.00118282 8.40947e-22)
(1.05624 -0.0555143 -3.45442e-21)
(1.0236 -0.0019156 0)
(1.01091 -0.000558144 0)
(1.01603 -0.00592606 -3.80131e-23)
(1.01709 -0.00173547 0)
(1.0231 -0.0114414 1.07885e-21)
(1.02481 -0.00228294 8.00088e-23)
(1.01096 0.000344919 6.15751e-23)
(1.01065 -0.000517484 -2.8104e-22)
(1.01381 -0.00114958 0)
(0.681602 -0.0533662 1.92495e-21)
(1.01537 -0.00302209 1.58794e-22)
(1.02401 -0.0110728 1.48512e-23)
(1.02077 -0.00971307 8.34022e-22)
(1.01575 -0.0256762 -3.24942e-22)
(0.974564 0.0183519 0)
(1.01919 -0.00469988 2.61919e-23)
(1.01154 -0.000815997 0)
(1.0236 -0.00728727 0)
(1.00953 -7.71923e-05 -2.66777e-23)
(0.806978 -0.0608713 9.70931e-21)
(1.0161 -0.00616343 2.45102e-23)
(1.01595 -0.00702829 5.76341e-24)
(1.0378 -0.0722518 2.64177e-21)
(1.00987 -0.000294141 6.29767e-23)
(1.01344 -0.00137684 0)
(1.0115 -0.0551643 2.05631e-22)
(1.02358 -0.00107297 0)
(0.995919 -0.00630869 4.89096e-23)
(1.01454 0.00265629 -7.52898e-24)
(1.01276 -0.00156068 -7.10487e-23)
(0.761821 -0.0485309 -7.65367e-22)
(1.03125 -0.00517271 0)
(1.02529 -0.020109 -5.09136e-22)
(1.01172 -0.000957487 0)
(1.01339 -0.00185321 5.56101e-22)
(1.02136 -0.00631908 0)
(0.667301 -0.0600446 -4.80236e-21)
(1.01563 -0.000391183 -4.40887e-22)
(0.498143 -0.0483797 0)
(1.01236 -0.000865383 0)
(1.01568 -0.000294007 -7.11525e-24)
(1.01999 0.000239724 2.00596e-21)
(0.505308 -0.0396495 0)
(1.01473 -0.0026031 -7.98676e-22)
(1.01694 -0.00180344 -7.58241e-23)
(1.03051 -0.0234371 6.47128e-22)
(1.01297 -0.00094564 -7.32004e-23)
(1.05517 -0.0199976 -4.69871e-21)
(1.02089 -0.00595154 0)
(1.03942 -0.0116207 -5.46356e-21)
(1.00868 -0.000116816 0)
(1.01394 -0.00136419 -9.8589e-23)
(1.02965 -0.00273121 -8.46688e-22)
(0.950138 -0.00474925 -1.19197e-21)
(1.01853 -0.00574469 -1.68331e-22)
(0.929733 -0.0267135 0)
(1.01046 -0.000449224 2.69371e-22)
(1.02389 -0.00602932 -1.82988e-21)
(1.01159 -0.000784771 0)
(1.01175 -0.000158559 0)
(1.02657 -0.00880972 4.70727e-22)
(1.07084 -0.0354629 1.17009e-20)
(0.944543 0.0212659 0)
(1.01582 0.00579799 2.41501e-22)
(1.01875 -0.00597554 0)
(0.978505 -0.0140466 -1.96371e-22)
(1.01383 -0.00180606 0)
(1.01587 -0.00091221 -3.34241e-24)
(1.02502 -0.00332565 0)
(0.969481 -0.0389364 -5.97186e-22)
(1.01851 -0.00576442 0)
(1.0429 -0.0495492 -5.71653e-21)
(0.981548 -0.0190469 -8.38523e-22)
(1.01366 -0.000963678 3.28696e-23)
(1.02393 -0.0109475 -6.05037e-22)
(1.01125 -0.000658567 7.41589e-23)
(1.01345 -0.00140742 -9.17312e-23)
(1.0104 -0.000423183 0)
(1.01829 -0.0033159 1.14492e-23)
(1.04534 -0.0417988 0)
(1.04897 -0.0617432 1.62579e-22)
(1.02143 -0.00664256 4.26372e-22)
(1.01052 -0.000363016 7.4187e-24)
(0.998588 -0.0442556 0)
(0.866418 -0.0686925 -4.51307e-21)
(1.02431 -0.00211428 -1.5673e-21)
(1.05119 -0.0630545 0)
(1.01403 -0.00142649 3.5612e-23)
(1.01021 -0.000393161 -5.55343e-23)
(1.00813 -1.12245e-05 0)
(1.01069 -0.00045692 0)
(1.01021 -0.00039309 0)
(1.01795 -0.00283931 0)
(1.05566 -0.0171535 2.51331e-21)
(1.02351 -0.00113285 0)
(1.01818 -0.000551178 9.22301e-24)
(1.01254 0.0319495 1.28471e-22)
(1.01626 -0.00479546 0)
(1.01322 -0.00177762 0)
(1.01323 -0.000257202 1.04814e-24)
(1.01928 0.0086248 0)
(1.00646 4.30377e-05 1.33429e-23)
(1.00879 -0.0275476 -4.29731e-22)
(1.03627 -0.00233651 0)
(0.964773 -0.0109334 -6.83237e-23)
(1.03927 -0.0113041 4.70688e-21)
(1.00866 -5.66903e-05 -2.02794e-23)
(0.983403 0.0211926 -1.98156e-22)
(1.02796 0.00231354 0)
(0.557977 -0.0578791 0)
(1.04209 -0.0027506 6.69197e-21)
(1.01403 -0.0012822 1.28237e-22)
(1.01471 -0.00255417 2.79878e-22)
(1.01676 -0.00195402 5.3677e-22)
(1.02691 -0.0170573 0)
(1.07782 -0.0482138 -8.10983e-21)
(0.909587 -0.00625015 8.429e-23)
(1.03141 -0.00881707 0)
(1.05641 -0.0648744 0)
(1.02936 -0.00277759 1.29437e-21)
(1.01448 -0.000700694 6.45477e-23)
(1.01033 -0.000382787 -1.2238e-23)
(1.04006 -0.0503982 -1.76794e-21)
(1.01336 -0.00177258 2.61738e-24)
(1.02005 -0.0151218 -1.31642e-22)
(1.01331 -0.00182724 -1.13613e-22)
(0.698302 -0.0750498 -7.72642e-23)
(1.0239 -0.0111643 4.07692e-24)
(1.07018 -0.0339395 0)
(1.00695 -0.0116373 2.37716e-22)
(0.995035 -0.0329875 -9.18776e-22)
(1.02445 -0.00331167 -2.77679e-21)
(1.02473 -0.019106 5.9152e-22)
(1.01855 -0.0062743 -2.11107e-22)
(1.02519 -0.00206053 3.31918e-21)
(1.02707 -0.0151471 2.64287e-21)
(1.01269 -0.00117561 -4.21709e-22)
(1.01023 -0.000367244 -2.77665e-23)
(1.01644 -0.00422497 8.29951e-22)
(0.909706 -0.00995823 9.0965e-23)
(1.02479 -0.00230275 1.58014e-21)
(1.07786 -0.047609 0)
(1.01639 -0.00036196 3.76306e-22)
(1.00408 -4.85817e-06 8.4528e-24)
(0.489878 -0.0494954 2.10763e-21)
(1.01056 -0.000366383 5.54476e-24)
(1.02713 -0.0150339 -1.369e-21)
(1.02116 -0.00738715 -3.71416e-22)
(1.01851 -0.00432073 -1.22129e-21)
(1.01918 0.00113541 -9.00473e-22)
(1.01124 -0.000652127 0)
(1.0243 -0.0194142 8.91011e-23)
(1.01773 -0.00543807 0)
(1.01811 -0.0423695 0)
(1.08378 -0.0570527 6.09272e-21)
(1.01951 -0.00129248 0)
(1.01567 -0.00373214 0)
(1.0163 -0.00489631 0)
(1.01402 -0.000850385 5.24797e-23)
(1.00947 -0.00024362 1.5739e-23)
(1.02503 -0.0209884 0)
(1.01767 -0.0153912 1.22476e-22)
(0.944183 -0.0025372 7.97266e-23)
(1.02463 -0.0241245 -1.76415e-21)
(1.02045 0.000253318 -3.58359e-21)
(0.949472 -0.031178 1.43602e-22)
(0.979122 -0.0293216 4.82882e-22)
(0.966487 -0.0108417 0)
(1.01666 -0.00405156 0)
(1.02033 -0.0039725 -8.4873e-24)
(1.02844 -0.0116969 -1.19305e-23)
(1.01775 -0.00572725 0)
(1.03069 -0.0117331 1.40489e-21)
(1.00852 -5.65235e-05 -1.77458e-24)
(1.01916 -0.00316193 0)
(1.0186 0.000268368 -2.51594e-21)
(1.07237 -0.0575709 -9.82997e-21)
(1.01276 -0.000308202 6.0146e-22)
(1.02634 -0.00869879 -4.51802e-22)
(1.01616 -0.00579315 -4.34085e-23)
(1.02946 -0.000635566 0)
(1.00862 -5.24958e-05 -3.57896e-24)
(1.01318 -0.000533124 0)
(1.00941 -0.000236192 -8.17104e-24)
(1.01117 -0.000491934 1.7216e-23)
(1.01575 -0.00200846 -6.13243e-23)
(1.0068 0.0157813 -1.98773e-24)
(1.01845 -0.00629161 -1.65093e-22)
(1.08841 -0.0454245 0)
(1.0107 -0.000379541 -1.24507e-23)
(0.949726 0.00311406 4.7035e-23)
(1.01247 -0.000702395 -1.24611e-23)
(0.782345 -0.0603365 1.02541e-20)
(1.01003 -0.000337013 0)
(1.00997 -0.000318923 8.31972e-23)
(1.04446 -0.0414998 0)
(0.983684 -0.0415286 -1.06338e-21)
(1.03274 -0.0105178 3.73812e-21)
(1.02627 -0.00843794 1.46342e-21)
(1.01274 -0.00118185 4.7807e-22)
(1.01107 -0.000637394 0)
(1.02653 -0.0153256 0)
(1.01329 -0.000308959 0)
(1.02775 -0.014686 0)
(1.01848 -0.00636176 1.64945e-22)
(1.01323 -0.000307753 0)
(1.02684 -0.0170086 5.80103e-22)
(1.01372 -0.00065585 9.84331e-24)
(0.617459 -0.0594658 6.39298e-21)
(1.01071 -0.000133975 2.4129e-22)
(1.02039 -0.00671187 -1.07048e-21)
(1.02288 -0.00654758 -1.20228e-21)
(1.01576 -0.00454234 -4.115e-22)
(0.71735 -0.0518503 -1.26359e-21)