/*--------------------------------*- C++ -*----------------------------------*\
| =========                 |                                                 |
| \\      /  F ield         | OpenFOAM: The Open Source CFD Toolbox           |
|  \\    /   O peration     | Version:  v2012                                 |
|   \\  /    A nd           | Website:  www.openfoam.com                      |
|    \\/     M anipulation  |                                                 |
\*---------------------------------------------------------------------------*/
FoamFile
{
    version     2.0;
    format      ascii;
    class       volScalarField;
    location    "300";
    object      ddt0(k);
}
// * * * * * * * * * * * * * * * * * * * * * * * * * * * * * * * * * * * * * //

dimensions      [0 2 -3 0 0 0 0];


internalField   nonuniform List<scalar> 
18355
(
1.63092e-05
-1.96655e-08
0.000170289
-1.73117e-09
2.95304e-06
-0.00236333
3.22175e-07
4.63908e-06
2.86383e-08
-6.14044e-05
8.60628e-07
1.39716e-05
1.14501e-05
0.000490215
-1.91263e-08
-3.1282e-08
-4.47963e-09
1.14672e-06
4.64765e-06
-1.45248e-06
-2.29989e-05
8.29374e-08
-1.16026e-08
-0.00173282
-1.01897e-08
6.07579e-07
1.25527e-07
-1.05698e-08
7.71248e-08
1.60145e-06
0.00586682
2.44814e-07
-3.31962e-08
1.54357e-08
1.25617e-07
4.5816e-08
-1.33469e-06
2.55081e-07
1.82846e-06
1.145e-07
2.10541e-08
1.33283e-06
7.89733e-09
-1.69988e-08
-1.94309e-08
9.18207e-05
1.01007e-08
1.42515e-08
0.00520866
-4.08755e-08
2.96831e-08
-2.58074e-05
-1.0989e-07
-6.66292e-06
1.36164e-08
-8.54164e-07
8.93137e-08
0.0110729
6.08799e-07
-0.0101798
1.32574e-08
4.7186e-06
2.74916e-06
-1.10757e-06
-3.83136e-06
2.47221e-08
3.12696e-07
-7.11797e-07
2.61907e-08
-0.00395287
1.27846e-07
1.1006e-08
7.97012e-07
1.25068e-06
0.000272692
2.87265e-08
0.0113422
2.92986e-08
1.20601e-07
0.000375404
3.82755e-07
-0.00190159
2.83891e-08
3.42992e-07
-2.42657e-06
-4.14482e-09
-1.65959e-07
-1.136e-06
-1.35744e-08
-1.5779e-06
0.000468044
-2.94941e-06
-0.00212132
5.11569e-08
-0.00489761
2.50208e-06
1.10285e-08
-6.22088e-07
-4.83883e-06
1.70492e-07
-1.51763e-06
9.73855e-08
8.95375e-08
2.09867e-09
-2.0347e-08
-3.20203e-08
-1.66755e-06
-0.00453191
-4.3251e-07
-2.10998e-08
6.41423e-08
-1.36045e-08
1.26029e-06
2.37911e-07
-0.000510913
6.36255e-07
9.30351e-08
-0.000793046
1.72703e-07
1.31791e-07
-0.00473143
0.000260217
-0.000337011
-4.35017e-06
-0.00157426
-6.21422e-05
2.53696e-07
2.77455e-09
-8.50771e-06
1.09926e-07
1.26367e-08
-9.86183e-05
3.26129e-08
-1.44715e-06
-3.23116e-06
-3.44096e-08
-8.37035e-06
-0.00668656
-6.94431e-09
-3.67183e-05
-4.41308e-07
-4.255e-05
3.02433e-08
-3.71684e-05
-8.28359e-06
-3.64097e-08
-0.0234199
-1.89013e-08
1.51407e-06
0.000747959
-7.89743e-09
1.28072e-07
-2.67695e-06
-6.09875e-06
4.8099e-09
1.32239e-09
3.08632e-09
-1.75473e-09
3.13484e-08
8.36136e-09
1.29295e-06
3.61442e-08
-2.39629e-08
-6.78493e-05
1.86231e-06
-0.000261417
-0.0220926
1.8972e-05
-0.0195353
-5.36966e-07
-2.52699e-08
-1.51137e-06
-1.02754e-08
0.00396737
2.97326e-08
3.92658e-09
-2.55662e-08
6.03325e-09
-9.81739e-08
-7.13515e-07
5.60419e-08
-6.29864e-06
1.27508e-07
-1.85857e-08
-0.000600538
1.37859e-07
-1.46832e-08
-8.97512e-07
-1.44292e-08
1.20654e-07
-2.65208e-05
-4.29348e-06
-2.64513e-08
1.78489e-09
-1.37525e-08
-0.000774717
2.2565e-08
-0.000333688
-2.19717e-08
6.74799e-05
1.4483e-07
-1.09496e-08
1.81479e-06
3.12005e-08
-0.000114801
4.51843e-08
-0.0163551
-1.70617e-08
-2.17447e-08
1.45214e-06
1.56421e-07
-0.00261013
-1.43631e-05
8.96804e-06
2.05504e-09
0.00310499
-9.60475e-07
-8.03478e-08
9.88209e-08
2.41017e-08
-9.75688e-07
-2.93567e-08
-2.77985e-06
8.41394e-06
0.000480303
3.9949e-06
-2.28849e-08
-0.00320437
-2.38373e-05
-4.30317e-07
-1.11993e-07
1.54317e-07
9.17894e-05
-2.79018e-08
-7.86183e-05
7.26089e-05
-7.49194e-08
0.000145959
-7.0053e-08
7.21748e-06
-2.44144e-08
-9.29945e-09
1.89175e-06
5.91163e-07
7.55157e-08
1.32601e-08
4.50053e-09
-0.00245007
-0.0038815
1.87185e-07
-3.17748e-06
-0.00396161
2.10408e-05
2.20747e-05
1.11539e-09
6.95587e-05
-2.33422e-07
-1.05135e-08
5.06561e-06
-7.99141e-09
0.000852808
0.000187211
-4.33187e-06
-6.4368e-07
2.06151e-06
3.31054e-07
-1.9375e-05
-3.92886e-06
-1.15611e-08
1.16634e-08
3.15012e-07
-1.48824e-08
-2.22979e-07
8.17685e-08
-5.84844e-10
9.81626e-08
-2.52715e-06
-3.54066e-08
-9.88722e-06
-0.00467965
2.21253e-07
1.73312e-07
4.39439e-07
-1.18613e-08
-2.66277e-06
-9.54667e-09
5.69692e-07
9.77991e-09
-1.23434e-07
9.01427e-06
-2.75429e-08
-2.60803e-06
1.76584e-07
1.13261e-05
7.33028e-06
-3.31463e-08
-2.49199e-09
-7.3513e-06
1.14783e-07
-0.000114247
-1.33325e-06
0.0043496
-2.7772e-06
-5.20097e-06
9.36873e-07
-2.4813e-06
-1.44701e-07
-1.82152e-07
-6.19099e-07
-2.51577e-06
-0.000227718
-0.0158107
-1.87638e-09
1.24225e-06
3.80154e-07
1.01055e-06
-3.46943e-09
1.94349e-08
-7.67171e-09
9.44225e-07
-0.00591507
0.00279172
0.000242873
-5.47401e-08
8.79714e-08
-0.00136398
-8.45694e-09
2.91879e-08
-1.28239e-07
1.46124e-08
-2.04337e-07
2.14558e-08
-0.00102213
-3.54761e-08
-0.00176346
7.79914e-09
9.80276e-08
7.46339e-07
5.62603e-06
-0.000122207
2.80393e-07
0.000124188
2.77534e-07
-1.108e-08
1.78774e-08
-1.26815e-06
-0.000358028
-7.4761e-10
6.00997e-09
-0.00137181
2.24742e-07
-1.40501e-08
7.43324e-06
-5.02376e-07
-2.20034e-09
1.59587e-07
1.19577e-06
-7.26507e-09
1.32918e-06
2.34449e-08
3.79821e-09
1.60737e-07
-0.00352639
-0.000789739
1.55133e-08
2.83045e-08
-7.41336e-06
-1.15721e-08
-7.79955e-08
-0.000329791
-0.000557744
-3.66083e-06
3.14912e-08
9.04789e-08
6.10013e-06
-6.21427e-07
-9.48896e-06
-4.40399e-07
-3.48622e-08
2.60648e-05
-1.19643e-06
1.32917e-07
4.96361e-09
1.03958e-06
-8.28675e-08
1.15779e-07
-7.14394e-09
-1.0668e-05
-1.70297e-06
1.14975e-07
3.28467e-08
-7.09962e-09
-3.94885e-07
4.19275e-07
2.57139e-06
-0.0134696
-0.00131905
3.87084e-06
2.32273e-05
-1.83325e-05
-1.08283e-08
1.19238e-07
-2.52829e-06
-1.5919e-08
-3.9689e-06
3.91055e-07
2.09944e-06
-0.00154172
0.00113059
-3.01745e-05
-6.90933e-06
4.19587e-09
-0.00664115
1.45267e-07
1.94143e-09
-4.05367e-05
-1.16193e-08
4.59751e-06
8.21467e-07
-2.52191e-06
5.18303e-09
-1.16257e-06
-0.00105428
-4.47317e-06
-5.03231e-08
-1.65305e-08
-4.44593e-06
8.58477e-08
3.86979e-08
0.000264896
2.00754e-05
4.97775e-09
-2.57467e-06
2.74046e-06
-1.76692e-08
3.5587e-07
-2.90766e-07
-8.82073e-05
-3.96141e-06
2.56163e-07
-2.0876e-07
-9.79443e-07
-2.12489e-09
3.01155e-08
1.00453e-07
0.000696522
-0.0178004
-3.1838e-08
3.14441e-08
-1.60462e-08
9.20261e-06
-3.6657e-06
-2.60348e-08
7.4214e-06
-3.65486e-06
-2.86927e-08
0.000752771
4.0805e-06
1.19753e-07
-9.55305e-08
-2.87364e-06
6.37726e-07
0.0248312
-2.14229e-08
0.014759
-1.25725e-09
-2.37073e-08
-4.51545e-06
6.12215e-08
-1.80898e-06
6.82143e-07
5.47282e-08
1.37658e-06
1.04079e-07
-1.54003e-06
2.95986e-07
-1.00136e-06
1.49402e-07
-1.21123e-08
-3.17529e-09
-1.38834e-08
5.85382e-06
-0.0129563
-4.6366e-06
1.59571e-06
-6.28706e-08
1.98106e-07
-5.68185e-07
1.04219e-06
-7.12171e-07
-1.74834e-07
-1.99049e-08
-4.37775e-06
-2.4686e-08
-7.13964e-07
0.0187901
-0.000538824
-2.24934e-06
1.02106e-07
9.983e-09
2.38516e-08
5.27852e-08
0.000151393
0.00118743
7.21969e-07
3.36224e-07
-3.41703e-07
1.41981e-07
-5.34079e-07
-0.0205994
-1.02909e-06
1.3031e-07
0.00025279
-4.35201e-08
-0.00053998
-0.00740726
2.29549e-08
2.77085e-07
-0.0190706
-1.81596e-09
-2.06955e-06
1.45342e-06
0.000198268
3.65622e-07
-6.91833e-09
-4.06138e-08
0.003151
0.0235894
0.000324149
-0.00140665
2.32641e-07
-3.51595e-08
1.13823e-07
3.39866e-09
-1.27586e-07
-2.16797e-05
0.0012374
-0.00849421
-0.00461056
1.15498e-06
9.34183e-07
1.75927e-06
3.82958e-09
7.49511e-10
2.66456e-06
-2.99652e-06
3.12886e-09
-1.46337e-09
-0.00285276
5.08019e-09
-0.000726502
1.10545e-06
4.15654e-06
7.14629e-06
5.78622e-09
3.55229e-07
-0.000493697
-2.33476e-08
0.000417686
1.52e-09
-1.52729e-05
-4.89741e-07
1.70303e-08
1.51021e-06
-5.34225e-06
-8.11082e-06
4.07265e-08
1.73587e-08
-1.37879e-06
-1.79022e-07
3.57064e-06
-1.65128e-08
3.77855e-06
9.64558e-10
-0.00128642
4.80129e-09
4.19119e-08
2.33267e-05
-3.53025e-05
-6.99523e-05
2.08072e-08
4.56302e-07
-2.04494e-06
-0.000786185
0.00186237
-2.80806e-07
-6.83153e-05
1.57836e-08
2.09055e-07
1.46766e-07
-5.69883e-07
-0.00771492
-1.54159e-08
-0.00155006
7.96925e-08
-2.86611e-08
-2.85387e-07
9.31519e-05
-1.3314e-06
-4.09073e-06
4.95515e-07
-9.82344e-07
-0.000599721
-2.13354e-08
-6.10727e-10
0.00343353
-1.09638e-06
0.0235737
-1.19548e-06
6.00772e-08
-3.70524e-09
1.51874e-07
1.31825e-06
2.75747e-07
-1.20514e-06
-1.41333e-05
0.000126287
1.95782e-08
0.00233324
0.000902087
8.13348e-07
7.18428e-05
2.92999e-08
5.30216e-05
0.000702812
-3.7612e-08
-0.00102694
-1.75844e-06
-0.0102086
-0.0005001
-3.78625e-08
1.61415e-07
-3.51423e-08
-0.000722303
9.36662e-07
-9.52549e-08
-7.9375e-09
-1.49444e-05
7.65642e-08
-2.11586e-06
1.92069e-07
-5.64492e-07
0.00194481
0.00301007
4.41722e-05
0.00272031
-1.50235e-06
0.00888917
2.97463e-07
2.73029e-08
4.76811e-07
-0.00029698
-2.49773e-05
2.03899e-07
-3.90347e-08
-1.77639e-05
-1.35319e-08
1.48959e-07
0.0176936
-5.87627e-08
6.15124e-07
-9.82453e-05
-6.14443e-06
-2.41404e-08
-1.64733e-09
-1.99375e-07
5.40837e-07
-3.80524e-08
-9.33141e-07
-3.636e-07
-5.40534e-06
2.40168e-08
4.95521e-08
-2.43947e-06
-0.000711616
-4.81878e-08
0.00200721
0.000366681
-3.77637e-08
0.0211299
-4.07504e-08
-1.6684e-05
-2.12484e-08
2.54244e-06
1.74282e-05
3.26305e-07
0.000130459
1.71125e-07
-2.64091e-09
0.0296568
-2.08778e-08
-1.3721e-08
-7.26659e-09
2.90307e-08
1.11892e-06
-1.9475e-06
4.81184e-05
-1.50699e-08
-0.00168955
1.79488e-06
0.00144825
-0.00445163
4.32213e-07
2.92998e-08
3.73825e-07
1.28687e-08
7.03116e-06
9.78765e-09
2.92298e-09
5.31765e-08
-6.01508e-08
-2.3814e-08
-9.44295e-05
1.43449e-06
-2.34001e-06
-2.08404e-06
1.26391e-06
1.17425e-06
-7.96068e-06
0.000116731
-2.83013e-08
4.07105e-06
-2.71538e-06
-2.04662e-08
-0.000564645
0.00023023
-3.08572e-08
1.19148e-05
8.17873e-08
-9.91891e-05
-7.16593e-07
-1.9205e-08
-8.42448e-07
-4.93868e-08
0.000735505
-3.74498e-08
-2.75801e-07
0.00226267
-6.15501e-06
-0.000741301
-2.29181e-08
0.000536587
3.64992e-06
1.79174e-05
-1.74024e-08
-9.30639e-08
-7.46913e-08
1.01914e-07
-2.77095e-10
-2.43481e-08
-1.57688e-08
0.000300174
4.7932e-07
1.65057e-08
1.87178e-08
-1.3914e-08
2.32442e-07
-8.98086e-06
2.63548e-06
-2.41706e-08
3.02346e-07
-5.79827e-09
-3.91271e-08
1.5443e-07
2.86612e-08
1.34363e-05
2.41877e-08
1.87233e-08
3.71124e-09
6.79807e-08
-1.38828e-06
4.7353e-06
-5.56353e-05
-2.71516e-05
2.10672e-07
1.32342e-08
1.46122e-06
6.89232e-09
2.1844e-08
8.53469e-06
-0.000562654
1.0246e-06
4.39034e-06
5.73904e-08
-2.45624e-08
1.81675e-06
2.4245e-08
1.92606e-06
8.00653e-09
1.20091e-07
-1.06793e-08
-1.76609e-07
6.74688e-05
2.67784e-08
1.37174e-07
2.16012e-08
-1.2286e-05
0.000263234
-1.04318e-06
2.55678e-07
-1.8946e-05
-2.74239e-07
5.3277e-05
-0.0236241
5.21719e-08
0.000463935
1.17663e-07
-0.00874889
-3.16111e-07
-1.85663e-08
3.25862e-07
-0.00698304
-2.10992e-07
-9.26844e-07
-9.0173e-05
2.10719e-05
5.23908e-07
-8.26267e-08
2.65031e-08
-5.33012e-08
-4.94684e-08
-9.21007e-07
-4.98405e-06
-0.00042829
-3.40376e-06
1.35952e-08
2.15319e-08
-1.19338e-07
-2.38193e-08
5.22426e-08
-1.05299e-07
-2.22189e-06
-9.01131e-06
-0.000557028
-8.20506e-09
-3.03745e-08
1.46084e-07
-9.316e-09
1.5827e-06
-4.54984e-06
-1.84725e-06
9.88887e-06
-0.0117849
1.39835e-06
1.95643e-08
2.48971e-08
-5.33486e-08
-1.56297e-09
-0.00303863
1.78704e-06
7.309e-06
-4.54171e-08
8.74454e-08
4.02305e-07
6.4479e-08
-0.0236817
2.52535e-05
2.76781e-08
-2.07177e-07
-8.81842e-10
-5.94864e-09
6.14289e-09
-1.22649e-08
1.18599e-05
-5.78958e-08
1.11245e-07
-4.5197e-08
1.86305e-08
-3.87947e-09
1.033e-07
3.27714e-07
1.87587e-08
-2.88775e-05
6.20177e-08
-0.00071414
6.88737e-05
9.35216e-07
-7.17341e-05
6.11028e-07
-1.62003e-07
2.66289e-06
-4.01038e-05
-1.08594e-08
-2.14925e-08
-8.38253e-09
5.3308e-06
-4.51418e-08
1.72765e-06
-0.000488787
1.18453e-07
-1.89404e-08
-2.75314e-08
-0.00697371
0.000272721
1.09822e-08
1.14413e-08
-2.49475e-06
-5.60491e-07
-1.89055e-08
-6.06275e-06
-1.44701e-08
-3.31229e-08
3.36491e-07
-5.31343e-05
-0.00219917
7.82794e-05
-2.833e-05
1.57749e-08
8.06277e-05
-4.86758e-06
-2.46282e-06
-6.40074e-08
-6.34059e-06
-1.26642e-06
1.81446e-05
-6.55246e-05
8.60571e-10
2.15517e-08
-3.03376e-08
-4.30267e-07
1.02804e-08
0.000453743
-9.93374e-05
-8.04749e-09
1.10125e-07
2.59348e-07
-3.46177e-07
-7.6315e-08
-1.29395e-07
0.000161569
4.35227e-07
1.15985e-07
-0.00039539
-4.09157e-06
2.58947e-06
1.32846e-08
-3.48087e-08
-1.0396e-08
-5.39024e-06
-1.84433e-05
-7.21951e-06
-2.84632e-08
-5.84461e-09
-5.41826e-07
0.000496222
-1.8168e-08
-9.01825e-09
-5.92415e-06
-5.17324e-09
-1.46452e-08
-1.52808e-08
0.000316316
-3.4498e-08
-2.18422e-08
-1.98245e-08
5.57223e-06
-3.05189e-08
-3.14433e-07
-9.32513e-07
-1.1937e-08
1.49145e-05
-6.96814e-07
3.59561e-05
-3.96247e-06
-4.46191e-09
-1.55701e-06
-4.10678e-08
-1.53037e-08
-5.32566e-09
-0.00108908
0.00141418
-6.58176e-05
-1.46535e-06
0.00199137
3.09693e-06
3.92774e-07
-4.35232e-06
4.63979e-05
-2.38962e-06
1.63527e-09
0.00181619
-4.36784e-09
1.71524e-08
2.5786e-08
-0.00151084
-0.000246424
-0.000319686
-1.62184e-08
6.42765e-06
0.000453376
-2.75286e-05
5.37323e-06
6.02586e-07
1.76763e-06
-2.31543e-07
-0.00103132
9.22106e-07
1.35875e-08
1.05603e-06
-0.00715778
0.000179867
-7.60579e-08
2.89184e-08
9.68636e-08
-0.0235699
3.96444e-07
1.56535e-07
0.0012163
-5.67661e-07
2.042e-06
4.91106e-07
0.00125412
-1.43496e-09
-0.00746672
9.94941e-08
1.78684e-07
2.86489e-08
5.16383e-08
8.47973e-08
-1.76238e-08
1.39229e-07
0.00138346
1.34027e-08
-0.00713008
-7.83823e-07
3.07349e-08
2.2233e-09
-3.57847e-06
-6.58092e-08
2.08963e-08
4.32471e-06
0.00693187
1.60751e-05
3.87956e-07
3.37743e-08
-0.013018
7.91825e-10
-5.70628e-06
1.83975e-08
-0.000133447
4.99123e-06
-0.000933851
1.11955e-06
-4.92432e-09
-6.00238e-06
0.00234189
3.76325e-06
1.24812e-08
-1.2365e-08
-1.41178e-06
-0.00738959
4.94535e-09
-3.47656e-06
3.35793e-06
1.63094e-06
-2.10843e-08
-1.98278e-08
6.55836e-07
1.82972e-07
1.24255e-08
-3.14571e-07
-3.56048e-07
-2.82229e-06
3.1463e-06
-0.00106969
8.07341e-08
0.000538573
5.5413e-08
5.74819e-06
-0.00977063
2.07744e-05
-2.74752e-08
2.56353e-07
3.04837e-08
0.0207812
5.27949e-09
1.0399e-08
7.90056e-06
1.26862e-07
2.77031e-09
-1.966e-08
1.05718e-07
2.65005e-08
-0.00845976
-0.00222636
-1.54181e-06
-1.54329e-08
4.44768e-09
-1.06929e-05
3.33477e-08
-0.000125889
-9.85821e-08
3.26479e-08
-1.54221e-07
-6.42708e-07
0.00010866
4.97917e-06
-3.89971e-08
0.0146239
9.57627e-08
-3.41658e-08
-1.3005e-06
-0.0241774
-0.00132669
-2.37197e-08
2.01347e-07
0.00189971
-0.000416863
9.12031e-05
3.61484e-06
-4.78427e-07
3.40365e-05
-3.80311e-08
-1.09964e-06
9.68325e-07
-0.00128067
5.00852e-07
3.54692e-08
-4.66478e-07
-1.79824e-07
-0.00519173
-3.9299e-08
7.61184e-08
0.000336049
-2.53807e-06
-0.000461245
2.23983e-07
2.90655e-07
-9.82992e-08
3.51049e-08
2.4553e-09
-7.70843e-07
1.83012e-08
2.27466e-07
-3.11914e-08
1.54275e-07
-2.95225e-06
2.26139e-06
5.59972e-06
-1.42277e-07
1.08641e-06
-2.23423e-08
0.00132638
-9.45735e-08
-5.22596e-07
6.14987e-10
1.43718e-07
2.52435e-07
-1.19099e-05
5.13112e-08
-6.76153e-10
7.73352e-08
-2.52837e-09
0.003295
0.000278877
6.06182e-08
-0.00818382
-1.76403e-06
4.15522e-08
-2.45043e-08
2.22557e-07
0.00806991
-4.75022e-07
-1.22638e-07
-2.96751e-09
-1.08038e-08
-0.000467687
-8.23012e-08
-2.83018e-08
-1.60593e-05
2.16821e-08
1.70828e-07
5.55441e-05
8.14622e-05
-5.69567e-06
1.67789e-05
0.0365557
3.54729e-09
-0.00352503
-4.93779e-07
2.12749e-08
-1.73506e-08
5.70038e-06
1.33664e-08
-6.24565e-07
-4.85103e-06
7.93821e-07
1.98988e-08
0.01695
-0.000213266
0.010372
0.00575059
6.68342e-05
-1.46109e-06
-5.76739e-08
0.000632122
-0.000859105
1.4512e-09
-0.00650817
-1.47977e-08
-5.2529e-08
1.41153e-06
-2.77693e-08
-1.85404e-05
1.0703e-07
1.31795e-07
6.01334e-07
7.69772e-05
-2.16892e-08
-0.00545901
3.12975e-08
6.07836e-08
0.00777286
3.98102e-07
-1.01596e-05
-7.33581e-08
-4.66801e-06
1.70263e-08
-7.05185e-09
7.31159e-08
7.61122e-05
6.67553e-08
-7.19505e-08
7.903e-08
-3.39843e-07
9.04079e-09
7.16597e-08
-0.000505435
4.06479e-08
-2.8466e-07
1.1323e-07
6.44136e-07
1.56246e-05
7.60624e-09
-1.6209e-07
7.05767e-06
-5.24934e-09
-2.10498e-07
-4.19528e-06
0.00052933
-2.50071e-09
-3.05137e-10
-1.56469e-08
-1.58427e-06
-6.68603e-06
5.0132e-07
-1.03201e-08
3.82697e-08
1.4485e-08
3.51305e-08
-8.21432e-08
6.43065e-07
-8.01762e-05
-4.6846e-06
1.01062e-07
0.00169989
-6.12511e-08
3.41791e-06
-0.0149334
3.17856e-07
-3.68771e-08
-6.4384e-06
2.68341e-06
-8.04461e-09
-0.000594708
1.42486e-07
-1.47147e-06
-1.84603e-08
3.78649e-06
2.22845e-07
-3.35369e-08
-2.74316e-08
-0.000528483
-1.26084e-05
3.14005e-08
-6.48164e-06
-3.20152e-08
-1.2465e-07
-1.54839e-08
1.17086e-05
-3.32107e-08
4.90142e-09
-1.8251e-07
9.08391e-08
1.5419e-08
7.51508e-08
8.90015e-09
-3.78057e-07
8.4354e-08
-3.82005e-08
9.69956e-07
2.01851e-07
-2.74949e-05
-1.51904e-06
3.96856e-08
-0.000159764
-9.27064e-07
2.93322e-08
-7.14713e-08
7.68543e-09
-4.48731e-08
-4.37593e-07
-1.88045e-07
-2.42831e-06
-2.63918e-06
4.0569e-08
2.86426e-06
1.19399e-06
1.90691e-08
3.20433e-07
3.55729e-06
-1.40983e-06
0.00102139
-3.09648e-08
2.1612e-06
-6.86267e-07
6.53984e-06
-8.33855e-06
1.02074e-07
6.97699e-09
-2.94795e-05
-7.49369e-08
-1.74277e-06
-2.67771e-07
1.40026e-05
-1.5226e-09
-2.11766e-08
-1.70903e-05
1.76738e-07
-0.00121966
0.00295408
-5.28543e-07
1.10228e-06
-4.76872e-07
-6.01411e-08
-3.53639e-06
7.85622e-08
-2.28698e-06
0.000883215
-0.000335962
2.0003e-05
-3.45412e-05
-2.45172e-06
-1.34991e-07
-1.12234e-06
1.15095e-08
-0.0167329
-4.71582e-05
-3.58681e-08
2.90277e-08
-0.000159917
-2.88689e-07
3.48617e-08
-3.89794e-09
-0.004622
-1.26411e-08
6.12472e-09
0.00347007
1.75141e-06
5.66949e-09
-4.87875e-06
2.47608e-08
0.000145427
1.37875e-06
1.98714e-08
-2.05474e-08
2.42795e-06
-5.06505e-05
-2.2676e-08
-3.42032e-07
-1.63433e-08
1.42509e-08
-1.76633e-09
7.94545e-05
8.86878e-09
3.87864e-07
-1.19077e-07
-1.09219e-05
-2.62175e-07
-2.79767e-08
2.20664e-09
8.19892e-06
6.64665e-09
-1.22707e-08
-1.28079e-05
-0.0278658
-6.69097e-08
0.000261007
1.62348e-06
1.54706e-06
-3.22091e-08
-1.35315e-06
-0.00129757
-9.98988e-06
4.60751e-06
-5.19349e-08
-1.99584e-07
1.69518e-08
0.00190941
-0.000365255
5.03254e-09
-2.87808e-07
3.02496e-08
2.58029e-07
0.0295459
1.85329e-08
4.85495e-07
-9.22146e-08
5.08557e-05
-8.21829e-09
1.18756e-07
-2.51379e-07
-0.000934158
-5.38847e-08
4.53069e-07
1.11842e-08
-6.70967e-09
-5.25201e-07
8.50421e-08
-1.31098e-07
-2.55366e-08
1.70254e-07
1.98107e-08
-5.27137e-08
-0.00612522
1.10312e-07
1.69569e-07
-2.65001e-08
1.94486e-06
9.175e-09
-1.20561e-08
-2.38834e-06
-1.6408e-07
-2.39576e-06
-6.05782e-08
-2.12821e-08
0.000500543
-0.0137329
9.51011e-05
0.000244302
9.40229e-07
5.76618e-07
0.00215383
-7.23468e-08
-1.92423e-07
-1.06051e-07
0.00437073
2.94486e-09
1.57379e-07
-3.00282e-10
-0.00399833
4.63508e-07
0.000196756
0.00369305
2.37689e-07
-1.98566e-06
4.13705e-08
2.84819e-07
0.00913634
-1.49279e-06
1.52296e-08
2.31735e-08
-4.96464e-07
-2.16858e-06
-1.06062e-08
1.85332e-07
-7.05321e-08
6.37759e-08
-4.17811e-05
0.00196759
5.89923e-08
7.9003e-07
-0.0326014
-4.28321e-05
-1.69682e-06
-1.22213e-05
5.53564e-08
-1.46745e-07
1.65626e-08
-7.76367e-08
0.000144047
1.75388e-08
2.84787e-08
2.12263e-08
0.000101931
-0.000421328
-7.10484e-07
8.91982e-08
3.95113e-07
4.53317e-07
-1.70245e-08
2.27425e-08
-1.94498e-06
-7.58179e-06
9.07716e-07
4.9108e-05
-1.16935e-08
3.6861e-08
-3.50176e-08
2.7255e-08
3.04954e-08
8.58433e-09
9.53759e-05
-9.14175e-09
-0.00174652
-1.76831e-06
1.13496e-10
-1.07642e-08
-5.04945e-05
3.1947e-07
9.64731e-07
-2.24797e-06
-2.10411e-08
0.027076
-9.76205e-06
8.06279e-09
-2.64263e-08
0.000439744
0.006712
-3.78124e-08
-2.05321e-08
-1.14561e-07
1.19309e-06
3.05877e-05
-1.86034e-05
-6.43384e-06
-4.2356e-07
9.76983e-07
0.00244637
1.35276e-07
-3.01617e-09
-0.00338872
-4.30518e-07
-0.00119811
1.09221e-06
-1.37775e-08
-8.22212e-07
-3.8292e-05
-0.0126029
-5.73065e-05
-1.35183e-05
1.06544e-08
-9.05109e-08
-7.73115e-09
3.76076e-08
-1.49926e-08
1.27174e-07
-1.90893e-09
-1.30906e-08
-3.41695e-07
-3.95393e-06
-1.19316e-05
4.93938e-07
3.57639e-07
2.9083e-07
-1.91917e-08
-2.69527e-07
4.91714e-06
5.71018e-06
1.75615e-08
-4.48713e-08
-2.76215e-05
6.33705e-06
-2.30917e-06
6.23525e-07
0.000103253
-1.07265e-08
2.17512e-07
-9.13557e-07
3.90662e-08
-1.21761e-07
0.00260216
-1.89093e-05
1.54212e-07
-1.05568e-05
5.80375e-07
-4.62301e-06
1.33712e-08
4.58645e-07
1.31951e-06
-1.12542e-08
-3.06783e-06
4.00547e-08
-1.31e-08
-5.54213e-06
-2.93195e-07
-2.57075e-07
-0.000204365
-0.00176634
6.86993e-06
2.75269e-08
-1.84618e-09
5.34574e-08
-2.83578e-05
1.5266e-08
0.00122088
-5.71711e-09
-2.41944e-08
-2.12316e-08
3.43219e-06
-7.04679e-08
-1.86185e-08
-6.45576e-08
4.26939e-06
-1.05208e-08
0.0328014
6.17985e-09
1.20673e-05
1.13303e-06
-9.82973e-07
-3.65483e-09
9.97257e-08
-6.46522e-05
3.5054e-05
3.57066e-08
-2.88427e-06
-3.83287e-08
-4.26019e-08
0.001229
-4.93807e-05
2.6797e-08
1.02014e-08
-2.51408e-06
-2.45017e-08
-1.5741e-07
-8.09091e-08
-6.25376e-09
8.15249e-06
7.81715e-07
1.42519e-09
-1.19865e-06
3.0254e-05
4.88803e-07
-6.10761e-09
1.41797e-08
1.48914e-05
-5.3317e-07
-5.70948e-09
-0.0101479
-1.40968e-07
0.00314302
1.45891e-07
-2.72389e-07
-6.20705e-09
-1.80321e-08
-0.000261427
-1.20783e-06
9.479e-07
7.80033e-08
2.21501e-06
-8.58167e-05
-1.20737e-06
-7.82012e-07
1.43847e-08
3.04625e-08
-3.48883e-08
1.23628e-08
-1.52052e-06
-1.63218e-08
6.28309e-06
2.31719e-08
2.59495e-07
-0.00234837
-2.91259e-05
0.00336629
-6.18156e-09
3.29945e-05
1.03585e-06
0.000467926
-5.44191e-06
0.00129197
4.58435e-07
-1.69186e-08
-7.11772e-07
-1.02346e-09
-0.00203869
-1.18769e-07
-1.20443e-06
2.74498e-07
0.00135443
0.00733199
3.10595e-07
1.29223e-06
-2.39264e-08
6.37817e-09
-9.71707e-08
1.62813e-08
-9.54041e-09
3.85389e-07
-1.56658e-08
-2.76852e-06
-1.20792e-05
0.000570339
-1.85089e-09
-0.00010069
-1.17929e-09
1.56681e-08
6.01714e-08
6.97007e-06
8.90483e-08
-0.000136879
4.61203e-08
-5.10189e-07
0.035714
1.67617e-08
9.64043e-07
5.11493e-08
-5.0867e-07
0.000869247
-6.85627e-07
-0.00857556
-1.88705e-06
-4.86627e-06
1.37051e-07
-2.27453e-09
-6.06641e-07
2.88239e-05
4.67753e-08
1.99469e-08
-2.76554e-07
-1.00034e-08
0.000584088
7.9118e-09
-0.0121262
-0.00278094
-5.93945e-06
2.57514e-07
-1.04457e-05
9.58949e-05
-1.81845e-08
0.0043143
2.09286e-08
-0.00632055
1.52271e-07
-1.06739e-07
-0.000989437
-0.000569756
-9.30984e-07
0.00654757
-1.66968e-08
0.000626211
2.47893e-09
0.000429439
-1.94038e-08
-1.37732e-05
-1.91804e-06
-1.73134e-06
-1.50105e-08
1.10707e-07
-9.21153e-08
5.09223e-06
0.000572441
-1.99639e-06
0.000500974
-6.95818e-09
0.000153104
-1.05048e-08
-4.70523e-07
-1.19653e-07
1.55743e-07
-0.00191908
-2.45844e-07
1.08879e-08
2.15947e-07
-6.14856e-08
0.000733276
-9.22001e-06
1.50843e-08
-8.45137e-06
-2.6273e-06
-4.16367e-08
-1.65886e-08
6.04817e-07
1.3207e-08
1.56761e-06
-4.46812e-07
6.7844e-07
-3.85374e-07
-2.16683e-08
-2.73756e-08
1.8199e-06
3.01302e-07
-2.77584e-08
-1.65047e-07
5.68518e-07
4.93963e-08
0.0243897
5.99195e-07
-0.00627225
-5.28496e-07
2.11145e-06
1.70525e-06
-2.53671e-08
2.22797e-06
1.63241e-06
-2.29522e-09
0.000321252
4.42841e-08
4.1802e-05
-3.79282e-06
-1.92117e-06
0.000128388
-0.00444286
-3.99799e-07
3.06272e-07
-2.2994e-05
-0.00152428
1.49061e-08
-3.88828e-07
5.43726e-07
-3.31442e-05
0.000387445
4.66629e-06
4.29632e-09
2.73406e-07
1.20911e-08
-4.61895e-07
-0.00151706
1.04205e-06
-1.51572e-05
-0.00185468
-1.50435e-08
1.63554e-06
5.58771e-07
-1.57494e-08
2.90128e-08
-2.66873e-07
1.19384e-06
-1.4297e-06
2.8997e-07
-6.36685e-07
0.000124497
-1.7001e-07
1.13533e-08
3.15239e-07
-1.22461e-08
-0.00130398
-0.000146303
-0.00150173
-5.04348e-06
-0.000191648
1.49819e-06
6.14726e-09
0.000137002
9.94466e-07
9.87464e-07
-1.3284e-07
-2.92071e-08
0.000429249
0.000217462
-1.28812e-08
-1.95115e-08
4.8718e-07
-6.04713e-05
3.58135e-07
8.80176e-09
-0.00762118
-4.24169e-07
-2.8612e-07
-1.83836e-08
1.34935e-06
5.04524e-10
-4.6965e-07
1.07599e-06
1.18238e-08
-0.00633357
1.1348e-07
-1.91483e-06
-4.82765e-06
0.00064274
-5.5722e-06
1.53146e-08
2.30748e-06
-6.97688e-07
1.86307e-06
7.72313e-07
-1.13628e-05
3.42173e-08
1.61838e-06
-1.60737e-05
-1.00311e-07
-0.00011868
-2.35907e-08
3.81489e-05
2.07114e-08
7.54542e-08
-0.00458893
7.58736e-08
3.29503e-05
1.72825e-05
-1.51213e-07
-0.0144286
-0.00665733
1.10574e-08
0.0297016
-1.76569e-07
-1.25266e-08
-1.40306e-08
-1.1899e-06
0.0311726
-8.88856e-08
-9.74474e-09
1.03252e-06
1.05219e-07
0.0039809
-4.27441e-05
3.51861e-09
-2.10761e-08
1.09803e-08
6.52343e-05
2.78003e-07
0.000228696
-4.92216e-09
-0.0117513
-1.26399e-07
-2.48419e-06
-0.00880069
2.06854e-08
1.72868e-08
-9.28077e-07
-0.000372839
2.88553e-08
-1.74036e-08
6.76041e-08
-1.66563e-06
-1.78499e-06
-0.0044466
-5.51438e-06
1.45305e-07
3.07387e-08
-2.76961e-07
-2.51486e-05
1.77117e-06
-2.432e-09
-1.46778e-07
1.3675e-05
8.84922e-07
-3.51204e-07
-0.00347435
9.43066e-07
2.55386e-07
0.0239658
-1.44558e-07
-1.05224e-07
-7.99919e-08
-0.00102976
6.62712e-08
1.1049e-07
0.000290379
-1.41729e-06
-1.10192e-08
-1.64566e-08
-4.67221e-09
2.39756e-06
-6.04425e-06
2.27628e-08
-6.34051e-09
4.07034e-07
1.07039e-06
1.00534e-05
-6.1821e-09
2.32909e-08
-8.48419e-10
7.52525e-06
-1.00195e-06
-1.83201e-07
4.3136e-09
0.00846585
-2.74573e-08
0.000772964
-2.00562e-06
-6.694e-07
5.27145e-07
8.97869e-08
-4.61666e-08
0.0166186
-5.94636e-06
2.49297e-06
-0.00339257
-2.32943e-06
1.39447e-08
0.000108931
1.73147e-08
2.33646e-06
0.00594117
5.55042e-06
5.71272e-10
-3.47894e-07
3.5779e-06
1.61652e-08
-8.65335e-08
0.0352183
1.3281e-08
-1.13434e-05
1.78054e-06
-3.61958e-07
-5.41443e-08
-1.41583e-06
2.62149e-07
5.68775e-09
-1.32737e-08
-0.00820608
1.61196e-08
-6.71317e-07
-4.78971e-09
-1.93286e-08
-9.95023e-05
-1.56293e-05
2.77862e-07
-3.05189e-08
5.57748e-08
-2.64508e-07
1.8351e-06
1.21983e-05
-1.29047e-06
-0.00115826
-8.55971e-06
3.95634e-07
-0.00275781
1.90929e-08
-3.69808e-10
-1.46241e-07
-3.9427e-08
1.32453e-07
-1.26885e-08
-6.99924e-07
0.0082774
-2.12639e-08
-2.44433e-08
1.01558e-08
1.65512e-08
0.000921184
-4.42224e-08
-0.0103021
-4.49644e-06
-3.15315e-05
-1.26084e-06
3.45905e-05
-2.36159e-06
-6.86373e-08
9.42416e-07
7.30843e-09
4.28155e-07
8.34498e-06
5.83194e-08
0.00184647
1.95655e-08
2.51228e-08
-3.8418e-06
-0.000624369
3.33141e-08
6.62363e-09
-2.67071e-05
6.48479e-07
-6.44447e-05
-4.91045e-09
8.39974e-09
-4.41198e-08
0.0239031
2.48461e-07
-4.86576e-05
-4.90944e-06
2.13389e-06
3.91203e-09
-2.6989e-07
1.01021e-07
0.000607619
2.11846e-08
3.54333e-06
-2.02589e-08
-0.00947033
4.42669e-05
-7.40078e-07
-4.49364e-06
-3.05625e-08
2.91725e-07
-2.21051e-06
-0.00164415
-2.06359e-05
1.36886e-06
-2.08515e-06
-0.000765575
1.55725e-08
2.609e-06
-3.47703e-08
-1.89061e-05
6.22093e-06
2.11935e-05
9.49163e-08
1.25082e-06
0.000632769
0.00533528
3.02722e-07
-4.65362e-08
0.000527272
0.000607208
-3.46259e-08
7.14804e-07
-7.22648e-08
7.68053e-07
7.47349e-08
1.67834e-08
5.24909e-09
0.0287639
3.25068e-09
-9.68855e-08
-1.72331e-06
-0.0013089
0.00791715
8.74235e-06
-0.00370433
-2.73992e-08
0.000769295
-2.54699e-06
5.0725e-08
-3.33299e-09
0.0017248
1.05428e-06
-2.2776e-08
1.79135e-08
-2.43591e-06
-8.73696e-09
1.12278e-08
-0.0295352
2.73849e-08
8.5675e-08
-1.39959e-08
-1.46083e-08
-4.16807e-08
1.49338e-07
0.00965418
-5.35332e-05
7.8414e-07
-1.52145e-07
1.00041e-06
0.00640996
1.12152e-07
2.20229e-08
0.000512028
1.5347e-06
-1.94534e-08
-3.41849e-07
-8.20576e-09
7.22175e-09
-1.0649e-05
-6.82011e-06
9.84135e-09
-2.12211e-07
0.000435707
-0.000179068
-0.000925262
2.87763e-05
-1.17084e-05
-6.5887e-05
-8.95938e-08
-6.70595e-07
-8.9249e-07
-1.50203e-07
0.0444846
-0.00490747
-2.29501e-06
1.79759e-05
-0.0112533
1.77563e-10
-2.77276e-08
8.98154e-07
-2.17637e-06
-0.00267528
3.06365e-08
-7.35738e-07
-0.00187246
-0.0286133
4.27176e-08
-3.89538e-08
0.000563578
-2.06895e-07
8.6436e-09
-0.00184296
2.1514e-08
8.73373e-09
-2.76584e-08
-6.15567e-05
-3.6394e-07
3.16352e-08
2.5796e-07
-1.36747e-05
1.11988e-06
0.000499007
-4.77926e-08
-2.12263e-08
1.95464e-06
-1.56865e-07
5.65065e-05
-7.69114e-07
8.36784e-06
8.38132e-06
-3.23408e-09
5.48795e-08
0.00241347
-0.0287743
0.000275947
-1.1045e-08
-1.53194e-08
6.3187e-08
-3.26344e-09
3.55099e-08
-1.32365e-08
-2.50887e-06
1.13262e-08
1.97892e-08
-2.15877e-08
-4.00688e-06
-8.12144e-07
8.59375e-06
0.000737736
-2.72497e-06
-6.74415e-07
6.81374e-07
4.10405e-06
6.45071e-09
-7.48366e-07
1.1601e-06
1.07104e-06
-3.55904e-08
0.0178752
-1.00803e-06
1.70985e-08
-1.36139e-07
-0.000966952
7.61371e-08
-0.000558615
2.14345e-07
-6.725e-09
1.62381e-06
-4.86373e-08
-9.32242e-09
-5.33936e-08
0.000114976
-8.20066e-05
-2.39081e-07
-9.77455e-08
1.91535e-08
-0.017547
-1.43882e-07
0.000441231
-1.54496e-07
1.77269e-06
-1.93938e-07
-5.39094e-08
4.30728e-08
-1.44647e-08
-1.57331e-08
1.69125e-05
-0.000164387
3.44954e-07
-1.24995e-08
5.89322e-06
-0.00902592
8.28255e-06
8.06472e-08
-4.76077e-06
-1.00732e-06
-0.00765564
-1.01693e-10
-2.66052e-07
5.31034e-06
-0.00013056
2.2689e-08
5.09221e-08
-1.38787e-08
3.18224e-08
1.60721e-06
-5.4068e-08
-5.10226e-06
-5.40016e-06
2.26539e-08
-5.39376e-05
-9.5499e-09
-0.00412426
1.91766e-08
3.50896e-06
-1.22192e-07
-7.97723e-08
-3.90347e-08
-1.9884e-06
0.00026024
1.59935e-08
1.36927e-06
-0.0285131
-3.58525e-09
1.24191e-07
1.74586e-07
2.23991e-08
0.0340319
9.11994e-07
1.53117e-07
1.6592e-07
-7.52052e-10
-7.04592e-06
1.68657e-07
6.50919e-09
2.35889e-08
7.06875e-08
-2.25815e-08
-1.08766e-08
7.187e-10
5.67717e-07
-1.49996e-06
-7.2819e-08
2.98004e-06
-2.97913e-08
2.21452e-08
-1.49841e-06
-4.6473e-06
1.93472e-07
1.39233e-08
2.91807e-08
-6.70876e-08
-2.4512e-06
-0.00140513
-1.03688e-06
8.50361e-09
-2.18806e-07
-2.3271e-08
-2.17527e-06
2.8343e-08
1.34352e-08
-0.0121171
6.83784e-05
-2.15877e-07
-1.66349e-08
6.51544e-07
1.6479e-07
1.36888e-08
1.45498e-05
-3.14358e-09
-1.26721e-05
-2.94011e-08
-9.83537e-06
-4.36672e-07
-0.00458183
-2.2171e-07
-4.58462e-06
0.0362581
-0.00101835
0.00126504
-7.39964e-07
0.00240542
-0.0276839
3.35803e-08
-3.51433e-07
-0.0183216
1.99056e-06
-1.25039e-08
2.45297e-08
-5.16923e-08
-0.000300745
9.61668e-08
-1.96414e-07
-0.0063788
1.62243e-09
-1.23923e-08
-0.00459419
0.0132587
1.2759e-05
0.0015535
-0.000980906
-9.59325e-08
-5.10007e-06
-1.00537e-06
-1.10461e-06
-0.00116005
1.26116e-07