/*--------------------------------*- C++ -*----------------------------------*\
| =========                 |                                                 |
| \\      /  F ield         | OpenFOAM: The Open Source CFD Toolbox           |
|  \\    /   O peration     | Version:  v2012                                 |
|   \\  /    A nd           | Website:  www.openfoam.com                      |
|    \\/     M anipulation  |                                                 |
\*---------------------------------------------------------------------------*/
FoamFile
{
    version     2.0;
    format      ascii;
    class       volScalarField;
    location    "300";
    object      k_0;
}
// * * * * * * * * * * * * * * * * * * * * * * * * * * * * * * * * * * * * * //

dimensions      [0 2 -2 0 0 0 0];


internalField   nonuniform List<scalar> 
18355
(
0.000289209
0.000137039
0.00021696
0.000140651
0.000214343
0.00534923
0.000146872
0.000215375
0.000150344
0.00329525
0.000159189
0.000194895
0.00019665
0.000355006
0.000141769
0.000135447
0.000140622
0.000154792
0.000212737
0.000152691
0.000313277
0.000149255
0.000136948
0.00556901
0.000136983
0.000149527
0.000147067
0.000141048
0.000152736
0.000160448
0.00344426
0.000184841
0.000137711
0.000134329
0.000146012
0.000150776
0.00015962
0.000151118
0.000161263
0.000148538
0.000150458
0.000160267
0.000134483
0.000136865
0.000136971
0.000238267
0.000141222
0.000141093
0.0025797
0.000145168
0.00014172
0.00046345
0.000145571
0.00020919
0.000143167
0.000153552
0.000145642
0.00369046
0.000150151
0.00363191
0.000134434
0.000183336
0.000208427
0.000142732
0.000194213
0.000139646
0.000154974
0.000159813
0.000134011
0.00477441
0.00014245
0.000143202
0.000177012
0.000156483
0.000349007
0.000134181
0.00415876
0.000134299
0.000142122
0.000212674
0.000154916
0.00104732
0.000134124
0.000157393
0.000180969
0.00014888
0.000151482
0.000172533
0.000140504
0.000172943
0.000597265
0.000281135
0.00126154
0.000145145
0.00962624
0.000148345
0.000140074
0.000143271
0.000182022
0.000148874
0.000179251
0.000141786
0.000144761
0.000130126
0.000155456
0.000135569
0.000194795
0.0100248
0.000166039
0.000135082
0.000142354
0.000147452
0.000169033
0.000156789
0.000200861
0.000162264
0.000141501
0.000440414
0.000152835
0.000154572
0.00671234
0.000205397
0.000705528
0.00017683
0.00053677
0.000247232
0.000147266
0.000140734
0.000300939
0.000147754
0.00014014
0.000496504
0.000143511
0.00017955
0.000204634
0.000140573
0.000215884
0.00781866
0.00014184
0.000297994
0.000157054
0.000307021
0.000140965
0.00050045
0.000206345
0.000146116
0.00798731
0.000131512
0.000168763
0.00418774
0.000140972
0.000154319
0.000146043
0.000175646
0.0001346
0.000137582
0.000140829
0.000148947
0.000141061
0.000138462
0.000155789
0.00014363
0.000135125
0.00020391
0.000157668
0.00312943
0.00940011
0.000320053
0.0149939
0.000157159
0.000146856
0.000178674
0.000148263
0.00164837
0.000146378
0.00014892
0.00014632
0.000130334
0.000151493
0.000163711
0.000149494
0.00287445
0.000148575
0.00014132
0.00124803
0.000144653
0.000148887
0.000172524
0.000143343
0.000148021
0.000235441
0.000181553
0.000137315
0.000134832
0.00014358
8.97263e-05
0.000138994
0.000144329
0.000137149
0.000333788
0.000144298
0.000151926
0.000161473
0.000148281
0.000301349
0.000146974
0.0163804
0.000141283
0.000137169
0.000145176
0.000146895
0.00112343
0.000151805
0.000147814
0.000131705
0.000951996
0.000163868
0.00015656
0.000147184
0.000141353
0.000165252
0.000134029
0.000170592
0.000167904
0.000233102
0.000166628
0.000134222
0.0085147
0.000239257
0.00017204
0.000144855
0.000155452
0.00356227
0.000134202
0.000229234
6.17777e-05
0.000149271
0.000239022
0.000155468
0.000151349
0.000137382
0.000151286
0.000150791
0.000169973
0.000146974
0.000143165
0.00014102
0.00106526
0.0035393
0.000143084
0.000148188
0.00361065
0.000203327
0.000175744
0.000130338
0.000275948
0.000155461
0.000146305
0.000164607
0.000139663
0.00406206
0.000329274
0.000179951
0.000160971
0.000162596
0.000237038
0.000204208
0.000184088
0.000139623
0.000143212
0.000149224
0.000135152
0.000152027
0.000156852
0.00014071
0.000146956
0.000165699
0.00014041
0.000194296
0.00304297
0.000162449
0.000147143
0.000163643
0.000135022
0.000172545
0.00014631
0.0001656
0.000147703
0.000164496
0.00238104
0.000137428
0.000170516
0.000152359
0.00016159
0.000205123
0.000144189
0.000134624
0.000191698
0.000146941
0.000279018
0.000159437
0.0194724
0.000172222
0.00018044
0.000153043
0.000167235
0.00014464
0.000154128
0.000160579
0.000170709
0.00273448
0.00670036
0.000142321
0.000159081
0.00020268
0.000164673
0.000142225
0.000141035
0.000141015
0.000171983
0.00431315
0.058587
0.0028752
0.000164177
0.000156514
0.00214758
0.000131383
0.000146737
0.000156514
0.00014424
0.000171765
0.000144793
0.0022086
0.00013587
0.00182439
0.000143224
0.000148317
0.000153756
0.000200042
0.000341593
0.000169969
0.00237571
0.000149102
0.000140639
0.000144113
0.000160973
0.00324514
0.000140869
0.000145165
0.000800548
0.00014883
0.000140987
0.00020329
0.000157938
0.000141019
0.000144347
0.000166643
0.000150094
0.000166434
0.000135594
0.000144079
0.000148645
0.000531117
0.000550677
0.00013529
0.000140775
0.000206453
0.000141074
0.000147201
0.0028776
0.00040908
0.000169975
0.000143951
0.000149484
0.000197132
0.000150076
0.000272284
0.000154288
0.000136621
0.000210562
0.000206327
0.000148162
0.000143526
0.000154919
0.000145751
0.000156765
0.000143585
0.000208946
0.00015061
0.000153777
0.000142349
0.000141071
0.000151627
0.00015113
0.000176804
0.0520957
0.00126198
0.00015275
0.000201058
0.000186717
0.000143435
0.00014471
0.000169199
0.000143355
0.000173355
0.000145865
0.000160023
0.00177137
0.00164676
0.000330847
0.000182912
0.000130229
0.0413627
0.000148875
0.000140647
0.000326811
0.000142896
0.000179026
0.000139133
0.000199851
0.000142846
0.000177982
0.00228975
0.00017797
0.000144223
0.000137555
0.000178598
0.000152812
0.000142794
0.00328461
0.0002593
0.000140581
0.000169762
0.000176694
0.000137466
0.000149711
0.000168046
0.000825689
0.000170397
0.000148823
0.000144955
0.000166465
0.000143563
0.000136081
0.000143768
0.000746628
0.0487982
0.0001364
0.000151971
0.000144562
0.000202388
0.000204366
0.000134812
0.000176953
0.0001711
0.000145313
0.000173658
0.000183527
0.000148806
0.000144505
0.000169436
0.000204185
0.0125394
0.000136185
0.00233209
0.000142288
0.000136398
0.000174772
0.000153187
0.000213317
0.000176708
0.000154142
0.000157439
0.000149261
0.000201892
0.000153285
0.000159736
0.000149109
0.000135951
0.000148009
0.000136155
0.000182759
0.0523907
0.000200618
0.000155592
0.000147117
0.000149106
0.000145852
0.00015317
0.000145451
0.000135539
0.000143746
0.00017273
0.000137487
0.000144967
0.0393765
0.000106109
0.000203874
0.000147574
0.000150887
0.000168068
0.000149048
0.00402357
0.000244337
0.000157429
0.000157553
0.000157116
0.000150646
0.000154603
0.0282857
0.00016792
0.000149632
0.00226351
0.00014612
0.000280303
0.0392857
0.000156118
0.000149439
0.0313554
0.000140779
0.000177239
0.000185637
0.00295007
0.000153323
0.000147876
0.000145209
0.00340576
0.0091549
0.00273691
0.000630995
0.000152388
0.000145064
0.000157336
0.000143219
0.000156892
0.000300193
0.000526193
0.0553085
0.0171724
0.000170277
0.000181889
0.00017101
0.000141281
0.000142256
0.000172113
0.000156343
0.000146508
0.000143168
0.00274405
0.000139969
0.0166372
0.000162141
0.000179927
0.000199007
0.000142298
0.000156849
0.000224509
0.000143708
0.0590111
0.000142713
0.000263386
0.000167925
0.000148093
0.00017058
0.000183414
0.00018426
0.000150101
0.000134013
0.000165653
0.00015648
0.00018017
0.00014352
0.00018421
0.000139923
0.000311733
0.000147097
0.000143747
0.000223374
0.000188742
0.000125461
0.000145014
0.000158333
0.000155114
0.0023807
0.059442
0.000155661
0.000199183
0.000145544
0.000163202
0.000148341
0.000155294
0.0502414
0.000136804
0.00171002
0.000146828
0.000145987
0.000155852
0.00389145
0.000153193
0.000199859
0.000149176
0.000165619
0.00282015
0.000131527
0.000141073
0.000169942
0.000172215
0.0400026
0.000177947
0.000147802
0.000143171
0.000142861
0.000156478
0.000149554
0.000137755
0.000224019
0.000538366
0.000143513
0.000535085
0.000780461
0.000157152
0.000229911
0.000136302
0.000256185
0.00272603
0.000132553
0.0031814
0.000167789
0.00246884
0.00257757
0.000143327
0.000142799
0.000147651
0.00194502
0.000171537
0.000144646
0.000149049
0.000220298
0.000148597
0.000168412
0.000143633
0.00016677
0.0543416
0.00242494
0.000225881
0.0020466
0.000173833
0.00288445
0.000157506
0.000140631
0.000161052
0.00259228
0.00017958
0.000170712
0.000144413
0.000233399
0.000144444
0.000148082
0.0546305
0.000149054
0.000162033
0.000192106
0.000195755
0.000144631
0.000142899
0.000155729
0.000159084
0.000134146
0.000146034
0.000173355
0.000214537
0.000153621
0.000144238
0.000175177
0.00257221
0.000143831
0.0012979
0.000121525
0.000145211
0.0038952
0.000134756
0.000181749
0.00014372
0.000138535
0.000221608
0.000153866
0.000796502
0.000153244
0.000142927
0.00718233
0.000143694
0.00013492
0.000145246
0.000140749
0.000162757
0.000171263
0.000344691
0.000151598
0.0583874
0.000153546
0.000925644
0.002756
0.000149863
0.000144073
0.00015827
0.000136855
0.000189617
0.000142526
0.000134802
0.000135679
0.000144443
0.000143628
0.000127504
0.000156645
0.000171465
0.000153103
0.00015889
0.000155069
0.000189017
0.000300541
0.000137411
0.000182571
0.000177471
0.000134399
0.000450242
0.0540728
0.000141549
0.000408855
0.000145958
0.00351016
0.000165509
0.000132367
0.000165916
0.000160168
0.00058657
0.000142789
0.00015488
0.00158599
0.000208544
0.000458324
0.000143599
0.00288876
0.000181326
0.000247951
0.000143526
0.000152316
0.000142912
0.000146219
0.000142097
0.000144856
0.000136808
0.000484963
0.000168588
0.000140466
0.000134267
0.000140466
0.000148532
0.000204542
0.000180579
0.000137424
0.000159162
0.000146716
0.000146917
0.000145451
0.000140895
0.000245385
0.000134277
0.000140285
0.000148971
0.000147349
0.000153056
0.000149987
0.000233007
0.000275434
0.000155903
0.000140127
0.000202432
0.000134682
0.000134336
0.000148041
0.000410831
0.000155718
0.000147265
0.000135944
0.000137192
0.000157583
0.000133949
0.000159101
0.000142438
0.00014838
0.000141996
0.000152104
0.000350894
0.000140583
0.000148932
0.00014248
0.000242446
0.00298038
0.000158757
0.000149574
0.000180248
0.00016362
0.00024337
0.0222188
0.00014864
0.00265765
0.000149067
0.0146983
0.000150548
0.000136895
0.000136036
0.00843445
0.000135611
0.000158972
0.000219055
0.000206496
0.000179716
0.000152422
0.000141665
0.000143921
0.000143649
0.000160177
0.00018622
0.0019394
0.000172496
0.000145487
0.000133968
0.000154136
0.000141922
0.00014097
0.000148519
0.000171544
0.000163762
0.00268876
0.000145401
0.000144407
0.000173423
0.000143218
0.000204452
0.000172641
0.000174918
0.000196099
0.00296499
0.000163955
0.000141255
0.000134027
0.000147645
0.000142505
0.00367967
0.000171234
0.000188225
0.000136875
0.000147167
0.000155137
0.000141226
0.0189244
0.000239781
0.000134351
0.000135869
0.000142718
0.000142115
0.000140931
0.00014437
0.000237236
0.00013505
0.000150008
0.000136889
0.00013796
0.000142223
0.00014599
0.000158078
0.000137909
0.000176585
0.000135917
0.000189391
0.000234852
0.00015373
0.00447121
0.000152327
0.000148823
0.000177419
0.00295704
0.00014386
0.00013928
0.000137059
0.000184083
0.000150597
0.000164074
0.00093398
0.000146423
0.000149849
0.000144675
0.0167605
0.00243575
0.000151552
0.000139101
0.000156812
0.000171791
0.000142329
0.000183046
0.000139533
0.000133996
0.000156147
0.00027921
0.00107981
0.00345353
0.000236579
0.000134677
0.000168996
0.00020876
0.000159276
0.00014363
0.000207287
0.000157804
0.00023144
0.000267977
0.000142124
0.00013473
0.00014473
0.000149724
0.000134865
0.00395798
0.00326614
0.00013462
0.000146638
0.000149228
0.000166814
0.000144171
0.00014191
0.00019275
0.000149381
0.000142932
0.00311096
0.000184168
0.000180962
0.000142442
0.000135902
0.000134809
0.000156819
0.000180928
0.000179743
0.000140607
0.000138223
0.000148902
0.00279807
0.000137081
0.000143965
0.000184153
0.000141015
0.000139229
0.000143647
0.000397772
0.000135721
0.000144506
0.000137136
0.000148827
0.000135725
0.000158714
0.00019991
0.000143994
0.000215989
0.000162609
0.000217832
0.000175988
0.000140883
0.000160691
0.000140513
0.000139109
0.000140889
0.00317635
0.00241087
0.000212443
0.000159765
0.000850773
0.000178192
0.000150928
0.000185175
0.000214064
0.000155209
0.000135611
0.000116263
0.00015015
0.000139767
0.000137504
0.000692714
0.000567771
0.000320587
0.000138936
0.000185324
0.00286268
0.000179836
0.000167407
0.000156115
0.000155259
0.000164843
0.00308516
0.000151939
0.000150317
0.000157745
0.0352643
0.000175302
0.000144109
0.000147376
0.000143183
0.00982838
0.000153083
0.000148861
0.000597683
0.000158538
0.00017703
0.000155997
0.00400244
0.000138647
0.0148014
0.000149952
0.000135902
0.00014133
0.000136035
0.000135977
0.000140812
0.000148136
0.000545209
0.000137252
0.0169941
0.000158922
0.00014755
0.000140565
0.000183316
0.000143419
0.000146522
0.00015258
0.00465599
0.000192527
0.000153826
0.000146521
0.0415927
0.000138617
0.000173861
0.000146306
0.000349095
0.000169369
0.0030517
0.000160096
0.000142823
0.000292781
0.00115119
0.000240517
0.000137729
0.000143581
0.000166466
0.0511507
0.000131048
0.000174102
0.000137415
0.00015865
0.000140457
0.000134822
0.000149761
0.00015015
0.000135255
0.000176785
0.000174139
0.000159906
0.000196397
6.35148e-05
0.000150446
0.00274673
0.000136212
0.000189281
0.0020931
0.000207018
0.000134604
0.000149304
0.000146092
0.0155689
0.000145026
0.000139521
0.000184111
0.000146446
0.000146315
0.000149993
0.000149739
0.000142988
0.0421766
0.00279692
0.000176051
0.000139195
0.000144848
0.000234625
0.000136458
0.000271968
0.000147128
0.000145887
0.000149248
0.000157963
0.000230521
0.000137357
0.000145171
0.00281968
0.000147064
0.000148555
0.000166586
0.0122557
0.00266863
0.000144429
0.000143508
0.0553254
0.00266424
0.000291706
0.000142283
0.000164629
0.000214496
0.000137705
0.000235513
0.000152098
0.00321932
0.000155001
0.000144975
0.000151302
0.00013548
0.0528302
0.000145048
0.000139599
0.00284853
0.000199583
0.00215839
0.000135268
0.00015213
0.000135601
0.000132116
0.000136104
0.000149952
0.000146668
0.000148771
0.00013549
0.000148359
0.000173832
0.00016001
0.000165329
0.000140384
0.000154183
0.000142025
0.00282528
0.000147343
0.000150474
0.000147227
0.000136084
0.000148571
0.00015922
0.000143908
0.00014337
0.000141223
0.000136143
0.0100528
0.000342369
0.000144473
0.0497718
0.000166006
0.000148575
0.000147811
0.000150402
0.00525116
0.000147709
0.000136167
0.000134574
0.000134608
0.000287609
0.000144639
0.000136888
0.00021468
0.000134069
0.00013343
8.18206e-05
5.256e-05
0.000216285
0.000197986
0.0305588
0.000135618
0.00627176
0.000157952
0.000143149
0.000136857
0.000166129
0.000143207
0.000164456
0.000176763
0.000152572
0.000150542
0.0549392
0.000210578
0.00103331
0.00661679
0.00301169
0.000228024
0.000139313
0.000283182
0.000563068
0.000135048
0.00534407
0.000138917
0.000151034
0.000199419
0.000140404
0.000248742
0.000158603
0.000152769
0.000148657
0.000247982
0.000143901
0.0165421
0.000142888
0.000136185
0.00408243
0.000133594
0.000161627
0.000148612
0.00017457
0.000142191
0.000143866
0.000153233
0.00279015
0.000144192
0.000144558
0.000136705
0.000155018
0.000142388
0.000151016
0.0022823
0.000141477
0.000157629
0.000148156
0.000157205
0.000179979
0.000140472
0.000148965
0.000186621
0.000146915
0.000148394
0.000161048
0.00434418
0.000150845
0.000141778
0.000143989
0.000161618
0.000219023
0.000151026
0.000140957
0.000141361
0.000137777
0.000131958
0.000135618
0.00015889
0.000221004
0.000175181
0.000146736
0.000515509
0.000139656
0.000148234
0.0469121
0.000171066
0.000134179
0.000184007
0.000151166
0.000140925
0.00290264
0.00014838
0.000174439
0.00013258
0.000199687
0.000140034
0.000134785
0.00013599
0.00190587
0.000233057
0.000146723
0.000246911
0.000135821
0.000142206
0.000139075
0.000200847
0.000145515
0.00013852
0.000155485
0.000152347
0.000143008
0.000145784
0.000140547
0.000148287
0.000146616
0.00014038
0.000153743
0.00013534
0.000293719
0.00017675
0.000136475
0.000254711
0.000158191
0.000140798
0.000139877
0.000150147
0.000140663
0.000161288
0.000155925
0.000196513
0.000198357
0.000147578
0.000180179
0.000201241
0.000143048
0.000147918
0.000181846
0.000153523
0.00422154
0.000135588
0.000151848
0.000152307
0.000151973
0.000142886
0.000157388
0.000140533
0.000154305
0.000144071
0.000154658
0.000139446
0.000194805
0.000143806
0.000154761
0.000238679
0.000142895
0.00354093
0.0016979
0.000154689
0.000157708
0.000162799
0.000134519
0.000195059
0.000145566
0.000166834
0.000635739
0.000539604
0.00025954
0.000158353
0.00016306
0.000142991
0.000165294
0.000138174
0.0364733
0.000225104
0.000147735
0.000140752
0.000254442
0.000175744
0.000142826
0.000143212
0.000539958
0.000146744
0.000138433
0.00556057
0.000173545
0.000134915
0.000242898
0.00013608
0.000222977
0.00017426
0.00014304
0.000144337
0.000156875
0.000332144
0.000140221
0.000159068
0.000144315
0.000143069
0.000139817
0.000349863
0.000147127
0.000144977
0.000144213
0.000230947
0.000159542
0.000140408
0.000133024
0.000188529
0.000142241
0.00013678
0.000256965
0.0140302
0.0001489
0.000224372
0.000157663
0.000171676
0.000150096
0.000174756
0.00409854
0.000146566
0.000145202
0.000137124
0.000155999
0.0001428
0.000945224
9.92168e-05
0.000137474
0.000150676
0.000136403
0.000135722
0.0466241
0.000142905
0.000151375
0.000152386
0.000216985
0.000144538
0.000147988
0.00015594
0.00437887
0.000145668
0.000145109
0.000136511
0.000137491
0.000155402
0.000171048
0.000147019
0.00014218
0.00014482
0.000143295
0.000137149
0.0389798
0.000147842
0.000143499
0.000141926
0.000175347
0.000135773
0.000136784
0.000168155
0.000142314
0.000184445
0.000144338
0.000144518
0.00281435
0.0409637
0.000330858
0.000209657
0.000160123
0.000148007
0.0600231
0.000139786
0.000155901
0.000135362
0.00483462
0.000130045
0.000155822
0.000144641
0.00115301
0.000178618
0.000176365
0.0601197
0.000151838
0.000197386
0.000148116
0.000149337
0.0542833
0.000165783
0.000142133
0.000136026
0.000154459
0.000164835
0.000144013
0.000144861
0.000139724
0.000135276
0.000244443
0.00309819
0.000148182
0.000176925
0.0189815
0.000287699
0.000153502
0.00015595
0.000153172
0.000155128
0.000142243
0.000151763
0.000533758
0.000140315
0.000136273
0.000146297
0.000557175
7.61934e-05
0.000157819
0.000146773
0.00014712
0.000160602
0.000143745
0.000159452
0.000175906
0.000220741
0.000154457
0.000317191
0.000134728
0.000142864
0.000148472
0.000135689
0.000146054
0.000140087
0.000161026
0.000140965
0.00190039
0.000145292
0.000138356
0.00013672
3.61422e-05
0.000151221
0.000170642
0.000184787
0.000136127
0.044042
0.000160993
0.000137151
0.000133503
0.00291592
0.000337022
0.000133752
0.000140592
0.000141235
0.000151955
0.000208273
0.000216083
0.000153619
0.000149872
0.000198444
0.0607666
0.000149578
0.000142074
0.00667967
0.000154642
0.00189446
0.000153399
0.000142366
0.000175604
0.000149382
0.0406744
0.000138032
0.00027605
0.000136072
0.000142147
0.000148959
0.000145019
0.000154616
0.000147964
0.000146242
0.000139521
0.000148221
0.000146936
0.00015432
0.000143383
0.000152837
0.000149159
0.00014368
0.000142211
0.00017416
0.000167944
0.000140405
0.000145295
0.000232362
0.000145202
0.000145964
0.000148654
0.000326021
0.00013669
0.000167437
0.000152866
0.000136038
0.000143791
0.0508455
0.000224489
0.000149712
0.000167311
0.000154534
0.000171626
0.000140063
0.000162354
0.000180584
0.000141222
0.000187627
0.00014099
0.000143246
0.000141265
0.000148702
0.000161032
0.000158946
0.0553622
0.00018587
0.00013623
0.000144513
0.000143359
0.000226721
0.000149168
0.00211033
0.00013977
0.000143878
0.000143526
0.000178892
0.000142478
0.000146675
0.000144355
0.000197067
0.000136672
0.0335531
0.000136221
0.000175366
0.000145451
0.000161331
0.000140834
0.000154162
0.000289309
0.000221832
0.00013628
0.000182302
0.000145296
0.000146858
0.0484438
0.000281743
0.000136197
0.000142772
0.000154535
0.000135878
0.000144142
0.000148569
0.000147729
0.000159996
0.000172684
0.000150293
0.000158613
0.000205356
0.00014759
0.000140695
0.000142124
0.00015106
0.00016238
0.000143792
0.0490666
0.000140822
0.0608017
0.000166578
0.000136791
0.000140191
0.00013993
0.000168528
0.000147237
0.000153292
0.000146315
0.000139849
0.000275702
0.000153412
0.000171252
0.000147377
0.000145682
0.000151692
0.00014328
0.000153032
0.000143459
0.000147103
0.000149489
0.000148715
0.0106402
0.000191791
0.00379608
0.000140939
6.24504e-05
0.000151882
0.00250353
0.00018255
0.00607392
0.000150551
0.000135047
0.000169087
0.000142012
0.00552992
0.00014984
0.000189802
0.000151212
0.0538051
0.0407282
0.000154357
0.000172603
0.000139444
0.000137514
0.000148714
0.000134859
0.000148077
0.000153169
0.000139482
0.000165265
0.000204561
0.00225399
0.000140674
0.000290358
0.000134643
0.000142438
0.000143638
0.000186528
0.000148016
0.000281797
0.000147252
0.000143769
0.0300093
0.000140238
0.000153034
0.000142308
0.000156327
0.00605615
0.000168217
0.0347702
0.000159413
0.000182184
0.000152877
0.000141745
0.000144225
0.000229213
0.000164556
0.000143149
0.000151891
0.000143202
0.0103521
0.000138387
0.00364371
0.000183912
0.000181785
0.000158502
0.000228766
8.88097e-05
0.000134896
0.00154479
0.00014239
0.0144816
0.00014884
0.000152108
0.00270841
0.0028592
0.000161185
0.0143289
0.000143572
0.00211308
0.000130634
0.000454401
0.000135192
0.000171625
0.000189186
0.000145996
0.000139174
0.000149559
0.000144602
0.000174219
0.00242622
0.000168856
0.00273362
0.000141407
0.000479702
0.000144374
0.00014715
0.000142956
0.000145376
0.00597224
0.000147374
0.000138009
0.000166219
0.000148279
0.00341036
0.000200188
0.000143014
0.000207274
0.000167534
0.000140543
0.000144898
0.000155662
0.000136513
0.000174327
0.000163258
0.000150992
0.000151127
0.000137249
0.000146585
0.000174984
0.000149324
0.000145048
0.000150506
0.000134829
0.000135631
0.00523673
0.00016208
0.0566954
0.000159826
0.000173365
0.000158728
0.000142072
0.000168614
0.000139953
0.000140801
0.00204607
0.000163218
0.000167535
0.000174514
0.00014744
0.000252744
0.0174099
0.00014393
0.000175999
0.000170776
0.0486285
0.000136378
0.00013928
0.000147535
0.000184673
0.00245271
0.000170376
0.000154488
0.000148407
0.000142049
0.00013618
0.00113989
0.000153366
0.000165606
0.00509648
0.000146843
0.000153968
0.000156533
0.000144926
0.000142835
0.000143461
0.000174221
0.000195961
0.000148676
0.000151788
0.000250267
0.000142345
0.000148451
0.000154414
0.000146882
0.00230586
0.00494555
0.000991648
0.000201507
0.000510492
0.000152796
0.000139817
0.000211174
0.000173033
0.000161469
0.000143379
0.000135319
0.00348143
0.000108362
0.000141428
0.000139612
0.000162834
0.000240939
0.000153706
0.000135008
0.0474745
0.000152668
0.000166491
0.00013496
0.000158872
0.000131183
0.000150806
0.000159726
0.000142054
0.0393247
0.000149298
0.000168786
0.000199578
0.00213014
0.000194375
0.00014222
0.000176087
0.000155542
0.000166616
0.000150943
0.000169726
0.000145469
0.000152913
0.00263058
0.00015197
0.00273513
0.000140053
0.000215451
0.000135919
0.000148976
0.00302623
0.000155898
0.000214595
0.000181388
0.000149691
0.047995
0.0504427
0.000140059
0.0342459
0.000174441
0.000138912
0.000134079
0.000343234
0.0268212
0.00013899
0.000136118
0.000151845
0.000136732
0.0606025
0.000249304
0.000130212
0.000133245
0.000139968
0.000235035
0.000171753
0.00267305
0.000135916
0.00356037
0.000147058
0.000186096
0.0363333
0.000161147
0.000138676
0.000139374
0.00250398
0.000136613
0.000141092
0.000136441
0.00016429
0.000153476
0.0468612
0.000163915
0.000148575
0.000142404
0.000158172
0.000214838
0.000185334
0.000141708
0.000141934
0.000201596
0.000172025
0.000150178
0.00288834
0.00016236
0.000153097
0.0512217
0.000151991
0.000160046
0.000148476
0.00274329
0.000145374
0.000148758
0.000123762
0.000159717
0.000141174
0.000143336
0.000131232
0.000176987
0.000196673
0.000141112
0.000135995
0.000149745
0.000179393
0.000175324
0.000135051
0.00014284
0.000138479
0.000165495
0.000169574
0.00014668
0.000143058
0.0503784
0.000142034
0.000960628
0.000164637
0.000168998
0.000152345
0.000151277
0.000145068
0.00539032
0.000194032
0.000179235
0.0446562
0.00016386
0.000140117
0.042172
0.00013634
0.00018084
0.0598275
0.000162682
0.000141799
0.000154747
0.000178881
0.000142699
0.000143539
0.0216888
0.000142914
0.000153585
0.000138635
0.000146792
0.000137388
0.000197184
0.000195882
0.000135839
0.000141105
0.00151199
0.000142599
0.000136332
0.000140907
0.000140814
0.000359632
0.000138289
0.000153436
0.000153405
0.000149324
0.000137776
0.000177717
0.000191366
0.000159011
0.000309026
0.000154452
0.000154923
0.0455589
0.000140139
0.0001363
0.000143714
0.000140617
0.000148757
0.000132782
0.000150357
0.0581141
0.000143458
0.000141857
0.000153392
0.000140769
0.00261024
0.000147797
0.042994
0.000227628
0.000157373
0.000161844
0.00291109
0.000163955
0.000143214
0.000153503
0.00014052
0.000151608
0.000163079
0.00014802
0.0368994
0.000135861
0.000143839
0.000171525
0.000132045
0.000147959
0.000139783
0.000214139
0.000150847
0.000125592
0.000143087
0.00013991
0.000144549
0.0047453
0.000146358
9.2048e-05
0.000173891
0.000151387
0.000139699
0.000143481
0.000162091
0.00253645
0.000135876
0.000180357
0.000141838
0.0400818
0.000233691
0.000149692
0.000207435
0.000146245
0.000153502
0.000154976
0.000444672
0.000143442
0.000157505
0.000159513
0.00397997
0.000147544
0.000177022
0.000144586
0.000210317
0.000199661
0.000236835
0.000143074
0.000165105
0.00224685
0.00232325
0.000154307
0.000155219
0.00310489
0.00315335
0.000140427
0.000174825
0.00014341
0.000156256
0.000146077
0.000150657
0.000150101
0.00987418
0.000147322
0.00014824
0.000174362
0.003976
0.00625885
0.000193431
0.00741114
0.000139935
0.00281946
0.000176221
0.000142268
0.000141772
0.00444026
0.000159876
0.00014518
0.000142303
0.000174436
0.000138693
0.000142859
0.0133111
0.000145672
0.000148361
0.000141095
0.000143875
0.000151484
0.0001397
0.0552075
0.000130538
0.000152044
0.000139407
0.000165362
0.0141944
0.000142597
0.000148427
0.00255796
0.000221305
0.000143498
0.000155057
0.000138697
0.000140449
0.000195959
0.000206634
0.000140482
0.000143379
0.0025891
0.000371494
0.000287683
0.000186
0.00015219
0.00317355
0.000140683
0.000156064
0.000155054
0.000139809
0.0248407
0.000470352
0.000167694
0.0001805
0.00192413
0.00013408
0.00013325
0.000151533
0.000169353
0.00327256
0.000136443
0.000172819
0.00779036
0.0112574
0.000147182
0.000151307
0.000191837
0.00014287
0.000155665
0.00327124
0.000140912
0.000142542
0.000139365
0.00024577
0.000142012
0.000162588
0.000148961
0.000219394
0.000163112
0.00400411
0.000143211
0.000142216
0.000161689
0.000147733
0.000153919
0.000149839
0.00018717
0.000193698
0.000140839
0.000144458
0.056054
0.0161714
0.000490345
0.000139106
0.0001434
0.000155248
0.000145119
0.000143171
0.000144038
0.000137302
0.00014776
0.000139504
0.000139753
0.000180445
0.000152388
0.000173043
0.000451554
0.000176953
0.000171809
0.00015717
0.000202013
0.00021155
0.000162153
0.000154896
0.000160513
0.000141787
0.00507269
0.000136746
0.000135762
0.000140732
0.00511357
0.000142596
0.00492226
0.000148187
0.000134979
0.000185153
0.000143036
0.000142285
0.000143021
0.000106239
0.000276417
0.000147353
0.000139871
0.000151812
0.0202671
0.000171591
0.00339854
0.000143311
0.000171419
0.000146907
0.00014571
0.000136198
0.000138947
0.000143406
0.000154953
0.000277645
0.00015268
0.000153726
0.00019191
0.00153014
0.000195564
0.000142142
0.000187078
0.000163626
0.00714828
0.00013729
0.000143511
0.000152996
0.000347375
0.000132494
0.000144666
0.000138891
0.000136554
0.000195131
0.000151445
0.000187697
0.000141639
0.000132291
0.000119144
0.000144012
0.00161571
0.000143215
0.000155523
0.000148072
0.000159501
0.000149483
0.000175637
0.00342161
0.0001423
0.000184804
0.0272113
0.000141695
0.000146672
0.000169387
0.000131946
0.0410182
0.000181131
0.000142602
0.000174496
0.000134272
0.000164608
0.000148561
0.000142199
0.000136516
0.000150081
0.000140381
0.000138829
0.000145078
0.000148013
0.000171493
0.00013602
0.000201306
0.000138467
0.0001404
0.000159477
0.000174251
0.000149897
0.000132051
0.000142444
0.000153738
0.000173124
0.017791
0.000163917
0.000149205
0.000149179
0.000139539
0.000161983
0.000140725
0.000151678
0.00234673
0.000240847
0.00017148
0.000141136
0.00014803
0.000150055
0.000132168
0.000179588
0.00013484
0.000231872
0.000149447
0.000223287
0.000158927
0.000699199
0.000147079
0.000180646
0.0376844
0.00240129
0.00130485
0.000157978
0.00341796
0.0125747
0.000148804
0.000164837
0.0456892
0.000139945
0.000139075
0.000143974
0.000156177
0.000164253
0.000145967
0.000160751
0.00679228
0.000130179
0.000144601
0.000784756
0.00330774
0.000190102
0.00179158
0.00624842
0.000150127
0.000191691
0.000152635
0.000153778
0.00638619
0.000153973
0.0511275
0.000102113
0.000154004
0.000145992
0.000151087
0.000160263
0.000139977
0.0374031
0.000132408
0.000142887
0.000142942
0.000472175
0.0459904
0.000222463
0.000144747
0.000150183
0.000138895
0.0600869
0.000143256
0.000149775
0.000154328
0.000227605
0.000138463
0.000179884
0.035738
0.00293911
0.000147335
0.00204208
0.000139415
0.00288767
0.000132809
0.000300907
0.000151198
0.00017889
0.000158807
0.000573562
0.00020145
0.000152629
0.000153078
0.000164651
0.000155527
0.000141897
0.000138772
0.000157307
0.000147958
0.00251869
0.00013107
0.000142871
0.000144228
0.000143793
0.00238601
0.000139326
0.000134475
0.000146721
0.00143145
0.000164742
0.000173698
0.000152482
0.000151374
0.000181924
0.000139318
0.000143222
0.000185363
0.000170297
0.000134433
0.000172525
0.000152584
0.00262665
0.00014274
0.000195512
0.000150053
0.000143181
0.000135175
0.000134897
0.0001423
0.000141381
0.0173672
0.000180265
0.000146866
0.000143134
0.000142343
0.00015148
0.000158807
0.0540717
0.000145851
0.000204901
0.000163352
0.00287867
0.000147311
0.000172686
0.00014309
0.000142765
0.000164112
0.000142608
0.000145745
0.000140445
0.000137242
0.0474359
0.000143577
0.000139284
0.000244616
0.00525607
0.000192903
0.000148011
0.000134878
0.000155346
0.0412881
0.00015357
0.000147976
0.000146962
0.0173545
0.000148613
0.000144026
0.00572164