/*--------------------------------*- C++ -*----------------------------------*\
| =========                 |                                                 |
| \\      /  F ield         | OpenFOAM: The Open Source CFD Toolbox           |
|  \\    /   O peration     | Version:  v2012                                 |
|   \\  /    A nd           | Website:  www.openfoam.com                      |
|    \\/     M anipulation  |                                                 |
\*---------------------------------------------------------------------------*/
FoamFile
{
    version     2.0;
    format      ascii;
    class       volScalarField;
    location    "300";
    object      ReThetat_0;
}
// * * * * * * * * * * * * * * * * * * * * * * * * * * * * * * * * * * * * * //

dimensions      [0 0 0 0 0 0 0];


internalField   nonuniform List<scalar> 
18355
(
347.141
615.706
515.734
602.011
406.206
97.5221
602.425
409.163
580.978
134.894
564.125
424.701
420.656
298.443
603.232
619.472
601.385
590.653
567.554
554.232
283.618
554.052
615.135
96.9433
614.887
594.821
600.146
600.621
578.638
570.063
113.095
412.252
614
621.606
595.535
568.141
530.816
564.585
567.336
582.851
586.122
564.308
621.324
615.943
615.776
356.841
601.774
602.349
126.345
588.545
604.889
245.954
585.528
508.811
594.843
551.968
596.471
111.706
592.503
159.098
621.47
523.002
477.96
611.528
390.646
609.278
519.503
529.016
622.366
115.952
605.25
595.297
433.213
591.625
306.178
622.05
104.317
621.903
606.244
362.899
516.825
207.779
622.203
507.651
436.93
584.73
578.511
476.042
606.689
471.108
235.125
296.728
184.378
590.021
92.1578
588.035
605.593
600.937
589.884
561.065
441.033
606.514
592.264
631.168
517.826
619.306
388.444
89.9293
505.741
620.262
603.446
591.682
475.397
510.693
385.415
491.018
607.501
294.778
532.095
527.224
102.443
521.305
227.031
468.699
244.086
342.217
600.913
602.048
347.21
567.472
605.674
239.546
590.592
587.064
400.384
606.746
561.047
99.5052
597.331
289.529
524.943
362.067
603.401
244.396
394.303
597.996
102.235
629.773
484.134
114.227
601.466
528.367
603.156
544.231
621.151
613.329
601.949
589.826
604.508
610.453
585.502
590.129
620.07
481.328
587.428
134.555
94.4026
318.71
60.9651
527.244
592.599
588.011
589.219
152.536
594.694
590.427
595.084
631.137
558.102
474.116
586.827
139.755
562.738
599.949
187.74
593.829
585.534
466.828
602.463
597.364
353.236
589.754
615.194
621.485
604.954
430.98
610.528
459.516
615.532
300.991
596.818
595.423
569.64
588.549
333.86
572.99
58.2289
599.143
616.364
601.462
575.591
255.872
596.086
603.273
629.508
201.092
468.025
542.829
571.856
601.452
506.003
622.894
484.149
504.841
573.149
571.894
622.519
96.5857
377.026
446.079
605.967
516.601
127.442
622.587
445.033
838.294
570.221
351.606
551.412
597.84
615.173
564.01
596.652
452.397
572.906
595.773
601.923
228.491
119.007
604.682
603.255
125.197
522.951
496.373
631.211
388.777
544.608
593.134
573.886
607.213
116.605
329.592
588.481
539.984
568.555
438.605
446.379
589.115
607.436
595.635
593.714
620.217
595.198
541.079
602.29
572.799
586.056
606.995
429.447
125.926
588.519
574.05
482.774
620.403
481.032
577.972
470.853
593.187
474.406
133.72
615.029
562.354
535.704
566.488
440.641
594.12
621.796
437.508
574.046
378.528
533.338
63.8861
498.463
589.17
594.684
584.254
591.13
550.985
535.424
562.241
142.384
130.481
599.96
526.691
462.946
477.891
599.58
602.601
600.634
506.399
214.136
34.9216
140.289
587.449
531.444
146.865
629.783
575.385
525.936
589.37
446.703
598.999
148.665
618.775
162.624
601.425
579.44
594.752
432.723
317.531
452.261
151.433
561.695
607.077
589.8
580.907
134.172
605.662
589.358
249.866
562.465
606.476
500.121
586.621
601.209
606.35
465.547
584.23
464.306
619.472
595.745
562.226
241.037
269.211
620.607
603.069
509.843
600.353
591.519
132.488
348.609
579.961
589.857
569.417
424.672
560.228
390.97
551.223
617.458
504.523
425.988
565.503
595.789
589.253
591.434
585.273
605.77
396.469
595.345
531.122
603.552
600.531
595.206
591.709
563.197
35.1227
189.312
598.872
530.124
476.518
600.611
598.564
558.369
601.644
575.657
603.265
587.438
156.713
179.886
305.06
585.597
630.914
29.5863
561.844
602.379
277.437
600.854
556.248
618.484
380.852
602.705
587.296
137.843
588.756
592.134
614.971
589.304
531.281
607.77
134.678
369.635
602.538
566.601
568.808
615.116
574.17
457.522
207.215
525.601
563.046
590.048
541.787
600.219
619.026
606.851
261.763
37.4425
617.92
580.456
598.84
430.195
432.105
621.472
561.019
488.918
587.398
378.456
531.411
559.957
597.506
530.079
409.146
78.5618
618.411
177.446
597.423
617.992
483.062
532.628
376.167
435.437
529.59
591.199
555.365
513.022
530.634
536.592
559.74
618.939
574.258
618.547
555.757
35.5367
379.355
590.358
587.306
560.284
601.284
594.136
605.861
621.627
601.539
487.89
615.022
604.518
44.0198
470.466
492.606
569.032
584.374
454.806
559.493
117.234
442.531
534.379
506.556
592.524
551.062
534.137
51.4597
473.351
573.662
137.261
590.526
352.513
30.2255
550.457
575.725
47.6372
601.923
587.25
409.897
140.381
530.757
574.491
586.093
132.315
89.6573
144.22
238.237
595.248
587.931
507.208
595.872
531.649
289.776
262.665
33.1973
61.4834
483.955
419.564
488.26
601.372
596.053
474.375
559.438
577.337
596.603
130.509
606.232
62.0475
512.257
577.376
420.902
594.777
509.952
404.061
600.669
29.621
594.277
305.673
465.925
592.678
492.488
589.449
584.143
585.42
622.63
536.879
539.085
579.158
603.939
517.634
606.577
463.146
592.833
596.029
480.95
528.754
695.485
597.59
502.551
557.824
145.993
33.8217
538.794
464.013
595.154
486.141
564.549
539.078
30.5401
615.921
163.983
577.333
595.687
530.328
119.833
549.584
399.564
596.278
518.962
125.677
629.614
601.302
364.419
469.669
45.6719
425.66
580.723
597.702
604.432
590.278
561.429
621.365
376.657
226.811
596.147
264.093
194.864
556.902
471.406
618.603
369.539
141.803
628.561
119.775
549.261
185.959
143.682
607.373
605.093
591.898
159.236
514.037
592.008
576.506
381.61
562.921
557.311
601.598
540.85
27.934
150.487
407.716
160.039
460.769
118.455
505.971
604.589
490.758
144.382
535.087
497.867
592.831
384.857
593.958
578.589
39.9504
588.059
484.679
552.51
403.727
601.421
601.023
524.797
499.022
622.783
579.67
497.209
538.462
531.764
597.636
468.225
130.881
593.631
191.328
402.477
585.204
123.818
621.675
542.237
593.557
619.822
481.848
528.433
208.218
535.444
601.125
105.211
591.399
620.532
592.577
604.426
483.082
479.955
298.94
581.949
30.3772
593.159
214.025
134.18
569.957
589.313
503.139
619.249
546.649
595.279
620.881
620.164
592.335
600.464
577.188
588.196
573.395
557.876
526.54
586.191
531.514
335.052
615.069
546.175
464.223
622.219
269.966
28.1016
605.821
289.992
595.631
126.584
523.593
628.786
538.936
493.665
255.094
602.091
550.914
172.693
379.521
486.864
600.28
142.091
475.223
372.024
603.46
552.04
607.628
578.934
599.689
598.282
616.006
269.356
571.775
605.187
621.772
607.504
565.858
384.229
486.341
615.281
498.177
584.714
585.968
605.259
603.216
435.731
621.857
605.033
589.222
570.174
574.835
593.539
363.536
297.772
536.219
605.37
415.363
621.076
621.691
598.892
400.458
586.803
602.258
619.741
615.397
588.198
622.53
590.244
594.288
563.605
599.628
552.079
289.312
604.7
563.222
597.987
526.06
140.191
537.484
560.187
479.226
503.591
452.119
58.8797
589.383
145.103
562.375
68.1338
563.447
617.008
620.974
96.4379
621.69
540.464
446.24
485.927
429.167
578.061
603.598
598.72
593.375
535.514
579.605
152.468
578.144
598.741
622.595
573.032
599.634
607.761
563.055
576.855
580.072
134.379
598.708
597.879
491.876
596.717
412.348
580.513
461.432
543.131
138.886
572.97
602.272
622.428
577.189
599.681
126.562
522.142
554.342
616.741
571.972
589.452
607.572
64.8819
387.494
621.762
620.909
602.126
600.139
605.344
606.3
381.045
622.715
572.691
616.816
612.173
600.224
579.644
592.069
612.295
548.897
619.822
544.422
459.025
594.313
116.571
588.081
573.814
575.415
141.354
596.696
609.307
615.019
504.708
583.559
574.898
217.922
577.996
576.607
603.107
64.6523
150.055
581.617
610.252
565.471
506.032
596.187
586.469
606.443
622.998
539.879
319.527
190.7
129.914
371.281
621.688
566.426
365.671
545.562
592.721
369.7
533.313
572.953
315.052
603.64
621.568
601.067
570.229
621.41
126.171
133.157
620.953
577.398
564.521
536.687
590.195
608.259
520.465
592.602
583.339
134.324
583.895
580.601
600.331
618.646
620.689
585.527
545.395
530.267
606.533
611.888
601.73
143.889
615.284
603.373
579.125
606.013
608.083
595.784
235.209
619.022
598.043
615.235
593.378
618.9
519.381
518.679
602.716
566.799
523.283
387.639
588.296
601.323
539.877
607.133
608.474
601.461
136.12
133.803
456.764
532.305
233.827
575.652
590.963
581.568
517.618
555.965
619.311
646.906
577.433
608.772
612.028
342.304
229.156
315.106
609.313
546.713
140.286
545.424
574.956
521.672
589.983
536.571
132.089
590.94
577.336
553.07
30.3228
568.23
592.983
591.449
607.213
95.254
595.097
580.285
250.262
520.257
519.216
524.616
115.5
610.037
69.4644
553.08
619.975
602.321
618.15
619.74
606.733
565.752
472.908
613.849
66.0277
538.397
580.912
607.411
585.096
594.353
583.478
594.374
99.6216
551.277
527.961
575.834
45.2627
610.707
494.727
576.982
297.87
570.435
123.819
501.67
607.905
377.113
172.486
392.666
612.723
594.501
517.08
30.6547
630.365
581.769
622.818
588.68
606.869
621.456
595.487
554.958
620.872
504.026
440.944
525.665
509.861
653.145
552.126
144.587
619.524
540.765
166.082
514.275
621.846
593.496
577.817
71.6059
598.236
608.139
556.391
578.079
577.487
581.294
555.86
593.762
30.4223
127.09
586.124
608.645
592.275
362.688
620.139
359.895
586.355
579.805
574.587
525.873
366.201
621.622
590.685
202.646
575.94
562.796
523.446
86.8219
138.457
595.631
603.226
28.5827
144.157
340.441
594.35
529.244
397.082
613.789
445.077
589.838
136.855
526.189
596.684
559.687
622.558
37.7626
590.469
614.189
142.776
463.702
155.215
622.586
540.095
620.355
629.078
618.861
589.6
593.836
565.901
622.502
564.434
577.508
588.962
530.349
598.013
589.326
599.919
126.055
587.571
566.094
592.539
620.834
565.16
582.586
603.667
592.589
607.771
618.728
90.0315
312.95
603.104
39.5924
539.945
589.856
576.271
549.91
115.374
591.881
619.861
621.088
621.848
368.186
591.274
616.79
561.827
622.482
627.328
768.922
862.727
355.013
537.096
53.1918
618.925
87.9774
523.623
592.263
615.872
566.206
593.405
492.032
588.322
591.667
585.447
39.778
557.473
251.04
119.934
140.287
339.674
609.794
390.526
232.06
620.534
94.1473
609.774
548.564
430.067
610.415
379.948
501.018
536.844
595.543
419.881
596.046
68.4063
593.767
619.379
124.976
627.065
577.52
577.042
587.634
599.218
605.366
529.956
143.933
603.28
590.089
618.661
534.297
595.217
543.393
150.663
604.522
540.641
567.466
532.661
548.621
603.209
574.547
549.949
586.022
579.484
523.482
110.32
578.2
598.068
604.452
530.708
350.977
572.418
600.566
604.457
612.742
629.274
620.026
549.882
462.931
588.109
572.513
266.564
611.357
573.368
34.5663
499.61
622.69
588.371
561.031
600.323
139.831
578.577
482.294
626.789
536.573
614.193
621.431
618.393
162.753
330.825
584.014
349.557
618.719
608.119
609.616
411.082
596.592
611.021
575.832
533.94
595.822
580.599
607.861
589.974
577.568
607.279
590.901
622.383
315.038
586.047
618.841
343.055
536.32
603.408
611.019
586.519
610.071
535.954
542.241
420.697
414.602
581.735
512.147
535.478
592.089
596.816
578.108
578.11
112.527
619.168
589.695
547.514
588.549
611.971
541.035
603.008
592.095
591.508
551.85
611.589
424.398
594.241
543.761
441.712
606.152
132.738
166.831
591.391
592.651
494.093
620.995
403.604
581.321
535.149
234.548
229.537
408.152
583.776
516.179
602.006
487.412
612.647
49.2613
459.833
590.761
607.687
361.904
431.774
590.281
593.794
265.658
590.106
611.05
91.12
517.659
620.761
356.202
617.672
431.529
548.328
595.175
599.43
586.16
267.154
607.975
517.903
600.938
593.867
606.801
291.873
586.672
605.716
593.812
369.562
518.639
607.515
625.906
557.083
594.386
615.518
311.734
77.1207
576.112
388.254
587.961
516.521
597.14
584.176
125.116
602.88
581.111
615.719
527.033
593.436
208.498
604.003
613.257
572.952
617.237
621.599
46.7114
593.34
570.813
541.004
491.857
598.937
568.685
539.965
122.207
593.385
605.418
615.472
612.152
532.28
505.256
588.039
596.834
601.441
607.383
615.804
29.4828
579.923
600.583
597.92
563.15
616.825
615.309
525.382
607.257
444.418
593.284
594.485
143.279
36.5949
244.273
496.66
583.832
595.698
30.8381
610.403
545.756
622.179
96.0096
631.384
522.389
598.881
194.723
426.334
549.052
33.6097
579.367
398.024
570.711
564.245
37.5841
543.269
597.415
617.811
535.162
504.241
603.844
601.163
609.668
620.213
512.131
123.826
568.07
553.886
65.8895
315.938
570.275
587.377
542.72
557.044
598.962
559.199
278.188
603.578
617.431
576.635
298.397
796.748
525.09
572.9
595.714
496.984
593.573
496.513
456.727
402.052
589.549
317.299
620.788
591.829
581.57
618.479
590.56
605.886
568.504
600.7
151.779
604.399
610.15
614.015
895.155
549.975
522.93
451.798
619.575
49.2563
538.962
614.048
625.024
141.714
692.215
624.472
607.182
597.87
557.827
510.316
410.655
569.85
567.465
514.653
32.036
555.268
597.926
126.585
542.398
159.357
586.802
595.66
584.909
538.368
36.3121
553.31
326.427
616.012
608.357
589.396
589.893
536.81
567.038
584.101
607.756
590.313
580.888
591.138
611.062
538.351
560.836
595.019
588.162
567.199
522.595
603.377
597.761
526.7
606.812
606.163
594.998
293.352
615.632
539.508
553.844
619.173
597.431
41.026
374.664
559.696
567.91
530.079
493.424
605.001
485.51
519.405
599.994
583.036
607.558
601.173
614.537
577.892
536.293
631.291
29.5096
495.494
619.049
602.687
604.287
485.683
569.612
159.188
606.944
595.578
599.92
577.067
608.14
580.041
592.417
542.877
615.398
50.8111
615.776
522.842
600.685
534.423
601.838
545.423
317.88
409.88
618.871
452.803
597.331
593.605
37.4209
327.19
617.505
596.372
563.824
618.562
595.364
586.309
579.097
562.116
540.466
553.227
536.77
418.126
595.291
602.87
597.76
586.181
521.105
604.081
31.5942
596.6
31.3089
513.679
619.076
610.626
611.016
618.061
581.571
591.381
582.728
616.4
321.585
553.234
494.966
580.758
580.91
564.358
590.837
557.371
603.363
599.363
558.664
567.503
87.949
526.124
126.719
601.496
813.652
585.145
148.229
578.057
88.2936
593.065
622.729
518.137
604.101
111.845
576.158
426.152
549.295
38.5354
40.4902
525.218
496.109
609.253
613.502
586.582
620.57
570.727
537.359
607.894
525.542
398.183
154.137
606.194
362.938
621.011
595.382
603.805
509.342
579.537
350.114
588.721
591.08
60.7631
605.203
590.015
601.743
584.32
88.717
523.21
31.7937
579.189
575.422
545.326
598.117
591.399
461.984
551.732
593.051
556.853
601.429
89.2021
609.62
176.431
627.242
587.39
501.243
348.058
756.486
619.913
154.974
595.645
71.4747
561.413
542.005
127.878
127.246
487.367
64.4364
604.997
155.213
629.937
242.583
620.092
558.616
428.49
581.87
609.778
553.46
592.328
559.24
150.875
488.443
145.147
606.004
254.209
600.193
595.561
607.412
597.18
107.515
590.262
613.169
515.338
584.53
119.252
392.414
594.25
403.047
526.361
606.972
588.569
523.928
617.441
518.771
498.073
591.684
595.508
615.402
593.765
550.258
564.241
588.591
567.056
624.549
620.25
128.382
491.456
32.5546
527.864
512.05
590.889
597.08
537.152
616.054
601.615
160.564
554.788
564.417
575.505
572.874
337.925
55.3122
587.938
554.246
506.663
27.9958
617.621
617.105
595.967
538.097
150.947
555.918
544.074
572.483
598.161
623.577
185.138
592.072
568.223
115.505
594.03
583.312
531.858
599.128
594.161
589.559
488.838
570.839
569.314
594.993
337.983
606.737
591.591
525.496
579.315
136.2
110.085
206.7
400.86
250.522
585.146
605.68
483.529
555.742
494.094
600.138
619.596
119.737
588.703
599.254
609.177
486.68
381.842
574.98
620.297
30.3715
546.207
538.719
620.441
591.126
630.229
595.278
505.809
597.992
30.0973
568.522
536.048
455.59
156.79
472.178
598.366
565.611
536.682
566.68
551.693
563.583
580.75
583.588
145.944
564.063
144.542
608.317
380.21
617.963
570.936
193.583
548.697
384.446
541.802
575.183
34.2632
31.084
605.347
56.4271
444.916
609.485
623.444
295.479
65.1967
610.027
618.117
592.7
618.522
32.1989
339.162
631.321
625.446
605.198
391.761
498.722
129.304
619.071
156.4
588.386
451.393
31.635
564.423
610.505
603.788
131.846
617.153
600.844
619.047
509.967
560.622
28.7645
517.74
563.693
595.78
532.352
404.275
512.908
598.2
607.961
530.449
536.95
565.545
138.245
574.985
534.398
43.2983
556.187
493.552
576.589
139.11
581.792
561.541
458.29
532.857
600.27
602.948
630.034
558.978
581.565
602.531
618.284
568.7
464.426
552.155
619.488
595.053
609.56
562.157
517.237
579.992
591.677
38.8628
597.343
190.518
509.958
466.086
595.089
552.98
592.704
201.37
452.625
505.966
28.3834
513.989
605.078
47.0827
618.466
499.036
34.496
567.794
597.927
535.029
575.419
592.926
588.596
74.4806
596.015
560.288
618.1
601.177
614.823
399.543
435.006
619.982
600.109
189.261
594.57
608.23
602.081
606.438
263.001
607.296
531.359
576.916
569.071
601.758
565.738
438.109
532.306
297.799
555.822
524.138
28.2674
604.529
616.788
598.878
607.022
560.873
626.385
576.927
36.6092
600.181
597.91
575.119
607.601
146.928
568.969
31.3496
497.981
531.689
540.974
141.99
574.208
595.151
586.122
602.785
550.533
565.126
581.396
51.7971
618.02
589.739
571.727
744.277
570.263
605.647
416.334
590.751
574.495
601.095
605.494
599.634
134.809
589.209
773.654
587.224
573.739
605.785
598.31
519.265
148.319
619.907
516.398
597.928
31.0309
409.771
587.558
432.807
583.374
531.079
568.471
352.574
590.54
592.434
588.288
124
583.058
558.698
596.663
393.564
541.133
525.248
593.317
473.866
152.636
159.685
586.864
530.993
133.33
130.898
607.387
484.475
594.892
522.317
583.58
581.087
581.538
112.639
584.877
586.944
585.632
122.471
106.552
549.163
98.8931
608.291
138.378
587.639
602.502
597.951
107.085
583.166
591.605
599.75
465.285
609.913
596.004
78.6128
579.982
566.064
600.747
601.736
560.617
613.486
37.3989
581.175
591.401
606.666
503.115
64.2343
596.731
577.007
147.78
505.631
601.185
542.97
609.642
603.15
418.179
506.964
603.117
600.182
146.827
299.283
646.833
477.777
595.874
134.041
609.845
544.69
540.533
603.337
65.8488
348.622
553.334
478.281
156.361
623.062
625.484
589.924
491.728
134.081
617.275
454.792
80.186
83.0636
582.637
557.179
445.51
603.215
517.663
121.05
602.773
595.548
609.091
338.89
591.263
557.35
566.809
407.871
500.215
124.51
594.615
596.721
589.037
591.017
596.346
585.281
561.57
504.306
601.847
586.863
28.5725
73.228
250.065
608.141
603.238
572.153
600.944
593.376
604.866
619.552
596.287
611.527
608.958
559.26
594.616
541.359
262.167
588.182
554.646
527.031
524.426
453.608
542.458
566.102
496.479
599.208
111.018
623.357
618.162
598.544
114.435
598.476
116.077
572.379
620.512
415.156
595.297
596.167
595.481
708.407
411.12
589.887
601.63
549.224
67.711
544.749
122.285
600.844
537.211
586.026
593.05
619.275
609.853
602.822
585.435
345.848
545.354
549.979
554.347
194.088
506.673
601.293
585.008
525.159
102.178
614.421
580.183
565.099
308.493
626.28
585.84
609.623
617.158
524.52
582.924
445.068
612.937
626.55
617.414
605.693
164.116
601.399
553.391
588.26
534.138
576.878
587.155
123.633
600.479
511.567
53.3732
598.41
576.378
523.093
627.478
51.4823
476.116
606.378
578.918
622.352
572.038
589.487
603.898
618.676
563.794
612.739
609.48
602.094
597.317
560.897
617.21
581.292
613.477
604.751
534.251
572.688
553.753
627.491
595.495
576.603
573.102
54.5565
519.071
562.081
572.665
609.146
536.127
603.533
583.624
171.144
350.874
509.046
600.431
595.303
562.012
627.336
559.721
620.734
346.743
559.24
546.818
527.408
250.704
589.684
585.49
51.304
135.008
188.678
511.131
118.628
83.4005
570.403
518.356
40.7398
599.529
608.529
589.026
513.948
512.34
579.569
546.179
103.625
631.344
601.187
223.187
132.915
441.844
167.215
105.101
560.548
411.638
593.883
591.486
103.454
576.273
27.9316
697.193
554.641
591.452
590.551
538.855
614.589
45.7668
626.373
594.228
599.358
261.668
28.8278
421.578
602.575
592.738
612.156
30.0405
601.084
574.649
533.267
449.345
610.409
589.015
30.9965
140.299
600.274
161.658
613.29
119.972
625.719
361.566
571.817
466.508
588.382
361.504
578.162
537.305
552.99
519.057
521.644
597.878
609.787
566.562
598.004
149.554
628.925
603.952
600.404
602.855
152.325
609.484
620.82
590.212
180.178
499.714
577.544
537.644
561.604
588.074
606.076
598.075
572.757
531.264
620.856
458.08
548.584
147.056
596.795
438.21
577.716
593.634
619.106
619.909
594.429
599.477
56.0009
583.92
575.866
601.229
596.785
582.112
538.418
39.1138
587.191
444.789
554.658
141.239
586.296
569.822
597.535
597.277
501.709
595.288
580.593
612.433
622.705
39.2226
604.163
609.687
430.937
113.24
424.307
590.614
626.288
529.885
31.8836
541.641
568.545
588.869
54.7485
582.979
599.057
126.493
591.537
544.337
570.825
576.032
619.542
585.207
510.674
612.053
593.117
594.957
604.273
134.814
572.198
601.609
626.695
555.813
619.768
590.645
532.987
611.721
555.647
530.296
356.342
627.116
539.857
573.446
531.556
551.357
607.465
585.637
180.53
604.006
620.123
141.136
581.842
48.8721
77.5734
472.219
332.283
599.681
482.125
116.749
591.685
622.267
105.709
133.33
604.149
620.391
537.092
590.136
460.033
369.315
74.3173
589.285
571.878
593.035
600.632
28.3715
120.125
29.4998
547.84
554.991
57.7525
590.689
604.151
547.239
603.341
578.357
655.739
627.327
123.45
575.241
579.854
602.843
532.151
594.231
29.4592
611.319
593.938
540.132
620.209
27.8607
520.497
578.025
28.7794
811.248
459.652
35.5007
597.715
27.1375
539.816
609.26
542.88
589.657
110.333
35.7896
586.003
590.553
144.304
599.573
613.288
557.012
35.5127
150.907
582.777
583.672
438.873
544.876
494.316
516.525
571.217
620.514
238.171
585.544
143.624
579.33
548.731
36.9901
51.39
28.1034
616.956
128.683
625.425
626.532
358.138
626.319
548.984
595.311
577.63
612.41
576.874
620.06
898.666
119.576
547.021
540.733
114.205
579.332
618.968
572.308
584.511
552.751
571.211
604.159
530.289
566.409
315.681
593.96
589.854
603.931
345.666
528.06
584.885
27.5194
604.348
597.705
575.339
108.939
601.894
39.6535
579.694
43.0563
581.875
535.717
601.802
570.317
605.593
561.38
545.901
616.632
604.044
574.628
47.8878
616.99
537.346
532.409
620.678
404.067
184.916
555.594
564.94
627.038
596.05
435.449
532.899
33.9882
544.404
149.688
563.567
143.339
613.885
463.453
440.067
573.057
315.447
540.23
27.1113
524.077
608.678
239.311
576.771
596.179
547.628
584.679
533.225
528.154
591.149
553.75
526.319
481.968
493.817
371.105
584.139
597.657
27.1659
27.1084
438.663
555.744
35.0372
160.677
562.244
582.722
593.971
69.6274
610.234
602.595
536.368
381.549
625.701
611.474
551.953
43.1596
614.333
552.84
625.677
570.606
552.282
96.8471
572.645
611.472
589.668
610.894
100.499
534.803
54.9982
598.219
538.145
619.339
399.075
427.902
511.277
608.096
477.606
604.359
576.635
46.6432
599.629
514.226
135.995
620.356
552.581
608.684
625.493
593.684
329.874
607.146
38.9161
377.049
266.85
124.798
609.701
182.433
495.552
30.6083
453.081
26.8809
500.473
577.513
449.893
568.19
531.979
575.706
567.134
598.318
534.457
202.374
42.2351
551.379
585.323
204.945
102.856
593.763
594.744
460.988
549.277
607.051
438.499
560.855
590.713
606.856
559.75
403.252
584.893
574.587
630.097
302.312
29.4967
337.081
593.354
600.962
603.758
592.827
585.742
545.027
578.283
592.101
29.4686
605.567
584.87
599.632
126.355
49.827
593.59
592.568
27.887
614.83
44.9955
599.519
590.205
627.46
589.778
612.701
574.641
601.474
728.61
576.243
236.604
603.643
304.793
603.92
544.429
289.554
491.943
596.316
601.028
455.918
627.51
196.985
132.982
580.776
608.27
595.099
615.011
368.988
199.328
452.886
131.908
433.632
582.997
597.298
613.341
349.785
78.014
561.394
596.849
607.787
541.995
604.181
31.8661
26.8707
499.751
618.295
26.927
566.124
602.162
170.755
589.875
165.432
521.868
515.243
567.097
215.015
536.821
29.1097
602.971
613.585
609.887
610.284
578.22
541.207
602.794
534.676
622.438
361.708
610.639
472.159
32.2618
563.717
626.077
533.999
40.5784
592.054
611.741
505.396
47.9526
84.1225
558.933
627.25
33.4336
541.815
516.624
579.681
590.005
518.605
587.829
440.44
611.398
576.813
122.837
616.014
570.663
51.3995
538.878
611.645
624.677
609.38
27.2956
521.21
541.952
605.841
608.712
548.536
552.528
596.083
598.254
627.359
593.761
609.689
572.568
490.593
29.6047
561.2
563.657
606.134
415.24
598.697
586.618
609.301
360.193
436.033
621.857
571.706
108.601
553.51
32.2991
561.262
592.059
608.664
506.226
565.809
37.083
607.908
28.0391
39.1517
603.995
555.258
61.8729
558.034
294.221
439.847
553.045
39.706
543.507
595.802
27.6031
33.1758
540.143
566.574
40.2941
71.178
600.153
437.982
41.9972
604.731
609.905
574.993
621.087
591.657
107.658
61.0002
599.956
574.259
31.454
27.4822
543.029
322.998
601.036
838.511
43.2989
420.561
27.1035
37.0504
596.847
583.715
599.462
604.538
39.7696
64.6095
583.486
546.082
112.529
203.559
395.353
596.896
579.004
577.974
473.655
595.856
549.544
473.457
576.588
118.917
547.455
307.901
529.244
52.915
595.803
593.955
573.954
469.027
431.245
105.676
578.729
32.3212
43.1834
453.254
534.58
34.2027
126.047
114.286
28.4783
591.49
258.289
72.4887
548.349
485.289
531.241
595.558
432.086
560.241
616.229
622.45
575.885
605.115
366.595
424.138
588.049
578.301
56.2963
570.872
586.209
599.516
595.023
459.205
621.685
622.072
612.459
609.735
539.139
377.506
579.29
538.426
89.8839
391.301
611.433
481.318
32.7941
193.815
557.011
568.277
572.309
555.362
445.33
518.731
27.1075
554.121
586.868
52.6392
553.407
30.3069
177.313
598.38
597.524
588.336
560.53
606.66
595.697
558.514
509.652
569.701
602.292
581.094
585.333
576.034
603.59
96.9742
493.789
524.773
584.692
341.494
621.287
573.362
581.416
589.824
611.739
196.498
433.128
414.852
431.542
554.76
607.816
561.304
550.126
552.415
568.118
256.955
592.29
594.928
451.757
519.798
625.234
485.465
173.802
299.942
38.2994
593.664
623.199
445.623
534.763
556.01
591.66
536.658
562.188
625.575
586.962
579.741
579.527
577.453
347.355
598.576
579.545
607.318
621.02
363.32
605.468
27.1297
572.714
32.3793
562.234
366.34
590.128
554.168
573.193
551.37
302.999
600.233
32.9205
589.729
468.499
47.6779
85.2114
587.52
583.386
370.298
439.533
579.782
559.427
508.839
512.952
562.677
587.647
596.146
579.811
538.313
568.58
602.771
582.034
504.125
434.708
142.695
535
605.614
553.973
626.619
611.263
57.9762
605.205
600.52
555.005
537.944
564.082
437.873
547.948
535.095
614.36
407.319
32.3541
584.737
502.374
585.98
498.745
57.9725
532.715
203.183
379.712
584.407
604.897
563.744
37.9064
108.753
574.862
573.177
567.955
584.15
616.659
579.327
573.341
604.036
326.753
578.017
595.616
514.975
142.481
567.663
412.531
560.134
611.669
554.264
548.818
519.061
556.363
540.427
610.082
519.569
301.994
339.331
564.063
607.442
508.315
387.154
40.988
354.773
602.083
598.685
42.4754
150.545
514.128
604.248
33.1254
539.331
329.714
603.407
601.649
546.886
333.668
597.064
584.25
606.9
26.8952
613.088
593.613
441.071
112.318
559.034
579.785
549.073
485.581
74.3102
558.558
563.017
142.957
522.401
569.708
552.381
618.499
584.772
529.943
603.031
499.346
491.479
246.638
572.788
134.427
536.212
568.467
609.356
603.403
586.908
620.653
382.671
574.604
369.645
575.033
580.03
398.3
563.617
493.264
579.989
610.428
66.5039
441.371
575.361
548.445
593.178
572.128
232.936
612.729
225.621
117.427
47.334
574.392
570.381
528.72
449.392
617.12
142.576
625.939
498.816
565.421
563.587
574.399
388.264
318.125
598.435
564.933
553.132
29.6197
589.334
567.933
580.929
602.512
623.391
426.059
602.992
579.665
569.705
541.048
563.337
340.312
528.577
582.936
478.74
580.546
522.754
598.857
522.461
576.86
588.715
34.9705
558.097
369.002
584.281
28.588
509.756
556.618
562.09
126.387
541.278
604.152
565.093
342.498
535.742
598.909
602.872
576.685
40.1363
566.191
529.916
588.933
572.573
116.937
138.882
620.669
578.246
580.716
202.512
552.393
598.148
598.533
405.029
522.198
71.7721
604.539
604.259
531.012
534.329
591.518
428.15
581.944
540.314
347.742
487.503
607.323
504.101
589.856
515.891
586.52
613.472
511.98
229.34
575.005
527.35
92.4785
541.407
417.18
215.586
605.033
111.463
605.772
599.798
424.145
568.417
38.1519
556.178
539.844
524.567
581.079
26.8793
506.572
288.454
575.095
302.475
586.704
590.316
556.897
600.406
479.86
119.473
165.027
503.688
548.237
626.65
478.544
485.807
539.096
582.144
543.792
573.141
601.993
534.222
536.566
577.287
520.621
530.841
395.222
601.354
436.753
582.761
616.409
578.679
604.685
548.346
534.691
574.593
558.966
596.639
592.942
622.225
548.399
229.833
551.713
530.795
593.548
167.498
501.487
356.723
602.466
578.709
573.522
562.996
553.303
589.491
559.812
572.164
562.017
546.716
607.385
587.887
588.923
596.57
43.4401
424.287
604.203
813.752
617.138
28.6241
568.36
513.973
625.543
439.337
533.924
587.449
443.531
484.202
492.182
535.485
581.645
540.969
607.493
612.986
585.002
558.833
574.047
204.12
473.504
432.639
610.338
590.885
587.763
529.77
531.49
580.588
527.639
459.8
591.724
562.122
618.628
497.086
45.4901
56.7375
579.274
493.838
577.536
554.232
598.843
568.048
512.488
432.219
602.616
561.506
618.815
596.347
547.188
579.619
523.517
595.658
418.02
602.645
611.58
584.416
602.705
571.968
622.164
551.888
570.478
191.711
594.299
414.418
573.749
26.9686
544.922
448.675
591.234
533.033
584.034
604.253
601.816
566.055
566.489
433.858
565.673
104.505
546.897
546.112
494.502
500.783
577.623
596.007
595.142
616.745
537.469
597.631
181.729
575.876
602.165
602.778
564.93
586.297
607.518
541.441
367.953
29.3819
312.1
597.326
596.591
548.819
543.723
103.649
567.077
630.616
597.512
594.052
603.889
596.533
601.646
591.423
462.702
559.649
545.382
591.183
611.077
528.976
242.028
481.927
538.956
611.832
438.985
566.475
525.024
525.086
569.99
612.067
598.622
585.605
112.242
522.284
248.951
546.543
589.515
477.309
552.53
319.152
462.56
601.956
581.457
530.559
598.556
371.44
612.024
541.812
559.598
631.223
564.097
588.973
575.012
357.886
603.777
445.93
36.9592
601.868
597.284
579.593
523.008
465.197
559.36
47.8749
543.416
36.706
520.218
530.216
473.892
596.572
584.193
111.243
26.842
578.36
595.749
490.721
544.911
343.137
32.7881
551.341
423.546
500.268
540.909
438.872
622.092
420.754
598.63
534.753
507.73
52.7872
574.816
525.455
564.169
509.717
579.545
594.6
581.29
452.793
566.769
27.8449
593.788
539.442
564.322
578.493
739.903
422.718
598.242
583.273
216.893
608.363
46.5686
46.9498