/*--------------------------------*- C++ -*----------------------------------*\
| =========                 |                                                 |
| \\      /  F ield         | OpenFOAM: The Open Source CFD Toolbox           |
|  \\    /   O peration     | Version:  v2012                                 |
|   \\  /    A nd           | Website:  www.openfoam.com                      |
|    \\/     M anipulation  |                                                 |
\*---------------------------------------------------------------------------*/
FoamFile
{
    version     2.0;
    format      ascii;
    class       volScalarField;
    location    "400";
    object      nut;
}
// * * * * * * * * * * * * * * * * * * * * * * * * * * * * * * * * * * * * * //

dimensions      [0 2 -1 0 0 0 0];


internalField   nonuniform List<scalar> 
18598
(
0.00181544
0.00238027
0.000456807
0.000536374
0.000457939
0.000477379
0.0221923
0.000434463
0.000439406
0.000453174
0.000426792
0.000441829
0.000452181
0.0171016
0.00157616
0.000440894
0.000456723
0.0196179
0.0199865
0.0231711
0.0195579
0.000436379
0.000557789
0.000434957
0.000443962
0.0200587
0.000432518
0.0172961
0.000448252
0.000429708
0.00174251
0.000439178
0.00243064
0.000426748
0.020024
0.000431831
0.000458749
0.000443937
0.000477732
7.81186e-05
0.0172048
0.000432954
0.00044229
0.000473602
0.000431656
0.0180142
0.000437344
0.000106431
0.00046727
0.00044608
0.000660068
0.000446257
0.000441783
0.000492989
0.000452449
0.000431752
0.0222793
0.0189788
0.0236706
0.018688
0.000448279
0.000446967
0.000441383
0.00140803
0.000467577
0.000445304
0.000460707
0.000444892
0.000446593
0.00103091
0.00044965
0.00044505
0.000452193
0.000448355
0.000447926
0.000436685
0.000448205
0.000441597
0.000441991
0.000460641
0.000446008
0.000446205
0.000442976
0.000447328
0.000450127
0.000452019
0.000436135
0.0199725
0.0227445
0.0232838
0.000458472
0.000447353
0.000446622
0.000451207
0.000445974
0.000452468
0.000465686
0.00084769
0.000452161
0.0004569
0.0208824
0.0224057
0.000562026
0.0202599
0.0234397
0.000489187
0.0006606
0.000662379
0.000426335
0.027028
0.000439605
0.000445934
0.000560104
0.000520123
0.000439223
0.0177479
0.000458258
0.00043631
0.000439172
0.000443033
0.01634
0.000433755
0.0203613
0.00044229
0.000445287
0.0224286
0.0197617
0.000442962
0.000432839
0.0199491
0.000434418
0.0149836
0.000496441
0.000463146
0.000473181
0.000491645
0.000432428
0.000429146
0.000429264
0.0241946
0.000454402
0.00042988
0.000453558
0.015485
0.000560895
0.000433443
0.0247484
0.000448579
0.0201778
0.000429743
0.000439026
0.00494249
0.000436509
0.00784617
0.000440719
0.000450819
0.00043648
0.000443523
0.000446526
0.000443799
0.000489307
0.00121759
0.000649408
0.000455171
0.0128558
0.00377839
0.000618137
0.000450496
0.000442942
0.000448128
0.000487806
0.000498057
0.000157615
0.000611118
0.000324126
0.00023595
0.000466681
0.000236006
0.000442848
0.000442676
0.0188117
0.000426708
0.000454618
0.0176708
0.000450454
0.000447141
0.0244156
0.000448432
0.0005269
0.00310101
0.000563609
0.000459011
0.000443169
0.0212804
0.000469477
0.000607931
0.000436216
0.000453995
0.000429936
0.0177202
0.000527351
0.000456893
0.000438277
0.000477853
0.000678898
0.0004504
0.000436217
0.000457476
0.000438293
0.0208137
0.000450449
0.000426645
0.000445966
0.000552735
0.0216686
0.000463768
0.00440691
0.000295649
0.000553657
0.0004317
0.000280537
0.000645139
0.0231005
0.000435909
0.000445757
0.000452285
0.000465138
0.0254865
0.000457851
0.000429829
0.000534603
0.00940873
0.000448609
0.000452488
0.000429806
0.000451441
0.000433404
0.000542679
0.00042672
0.000479
0.000442102
0.000450353
0.000526898
0.000454584
0.0004436
0.000451787
0.000450743
0.000448929
0.000443852
0.000426127
0.0188226
0.000441215
0.0161039
0.000499717
0.000446576
0.000447463
0.000442763
0.000332683
0.000439066
0.0216368
0.00042734
0.000429946
0.00064539
0.000440921
0.000442631
0.00333989
0.000429831
0.000441968
0.000431514
0.00318676
0.000429587
0.000449413
0.0249774
0.000429424
0.000462082
0.0207487
0.000443343
0.0203726
0.00169255
0.00097232
0.000645781
0.00472012
0.000441083
0.000487338
0.0204315
0.00128941
0.00222774
0.000450786
0.0219288
0.0255361
0.000431162
0.000901216
0.000426881
0.000456148
0.019782
0.000458287
0.00067641
0.000457615
0.000426088
0.0204726
0.000442317
0.000453712
0.00734756
0.000461757
0.000431377
0.000756591
0.000445963
0.00044065
0.000440835
0.000431292
0.000448797
0.000442971
0.00145686
0.000427345
0.000445163
0.0219171
0.000457024
0.000441617
0.0187955
0.000442834
0.000450056
0.000444299
0.000426434
0.000443388
0.019676
0.00426518
0.000468083
0.000486534
0.000445573
0.0204733
0.000426339
0.0253683
0.000446173
0.0171225
0.000434909
0.020102
0.000449137
0.000455792
0.00437015
0.000431244
0.000477823
0.000426438
0.0252633
0.000441349
0.000437121
0.000444465
0.000449285
0.0184898
0.0255651
0.0181442
0.000454733
0.000564158
0.000447266
0.0241551
0.0149397
0.000454031
0.023165
0.00328574
0.000768756
0.000452776
0.00048559
0.00285786
0.000437274
0.000453938
0.027125
0.000448031
0.0213276
0.000442584
0.0169945
0.000443203
0.000452087
0.000453137
0.000441923
0.000450535
0.0156393
0.000442226
0.0004692
0.000442734
0.000445908
0.000457514
0.000438015
0.000479869
0.000730293
0.00045011
0.000464859
0.000657816
0.000441901
0.000471154
0.000487842
0.000451064
0.000442466
0.0267366
0.000451143
0.000491349
0.0006046
0.000451038
0.000429579
0.0187825
0.000808878
0.000431427
0.000450546
0.000432254
0.000425479
0.000452794
0.00045151
0.00344474
0.000431988
0.0258905
0.00044914
0.0134108
0.000455197
0.000446245
0.019856
0.0239374
0.0256694
0.000458907
0.000907452
0.000473421
0.0201557
0.000484245
0.000426997
0.000449123
0.00044337
0.000431732
0.00806571
0.00188064
0.0212423
0.000449834
0.000449074
0.000452106
0.000433169
0.000451634
0.000442051
0.000456085
0.000484331
0.000454026
0.000441814
0.000431541
0.000437782
0.00043843
0.000455628
0.000429265
0.0128589
0.000473314
0.000448123
0.000452504
0.000432919
0.000443909
0.000477343
0.0167687
0.000448875
0.000432177
0.000450921
0.018232
0.000442496
0.000449916
0.000451671
0.000438868
0.000454013
0.000437137
0.0226009
0.000426713
0.000427579
0.000437802
0.000432457
0.000427566
0.000453216
0.0271347
0.00045066
0.000426622
0.000435954
0.000450302
0.000426611
0.000456054
0.00606642
0.000442573
0.00045381
0.000428974
0.000452018
0.000445469
0.000534726
0.000452534
0.00045981
0.000442658
0.00042805
0.00363344
0.000553516
0.000427155
0.000471822
0.00537145
0.0211251
0.0235173
0.000527263
0.000429401
0.0225181
0.0064665
0.000429243
0.000476576
0.00833354
0.000543479
0.00684153
0.00125709
0.000441894
0.0177407
0.000449901
0.000446119
0.000429868
0.000434814
0.00791459
0.000459675
0.0227844
0.000454877
0.000448937
0.0267885
0.0201019
0.00168781
0.00734367
0.00459545
0.000427629
0.000427314
0.0221481
0.000470479
0.0226655
0.000445354
0.000456711
0.00044461
0.00174258
0.000438397
0.000534119
0.000449974
0.000449337
0.00042668
0.000442027
0.000440613
0.000441771
0.000432311
0.0202609
0.000445881
0.000437318
0.0191874
0.000561283
0.00370302
0.000451102
0.000578672
0.0247009
0.000456093
0.000453766
0.000572618
0.0180676
0.019069
0.00273067
0.000436236
0.000451966
0.000446934
0.000568418
0.00042896
0.000461312
0.000435876
0.00042672
0.000426635
0.000426695
0.0184458
0.0239071
0.00047788
0.0202508
0.0204861
0.00045036
0.000810628
0.000450179
0.000429502
0.000492521
0.0267834
0.000447842
0.000459516
0.000446669
0.00042932
0.000447828
0.0265693
0.000455063
0.000452068
0.000436312
0.0200885
0.000345149
0.0249561
0.000453247
0.000448873
0.000443826
0.0185978
0.000488248
0.000446692
0.000436452
0.000426595
0.00043851
0.00045978
0.00045018
0.000456494
0.000563892
0.000438201
0.0133679
0.000435562
0.000458613
0.000445652
0.000436459
0.000437392
0.000438151
0.000442067
0.000340235
0.00047314
0.00056496
0.00044088
0.00048485
0.000440649
0.000377629
0.024287
0.000432108
0.000438328
0.000435279
0.00966026
0.000444726
0.000457511
0.000438382
0.000473712
0.0244305
0.000437335
0.0169917
0.000428511
0.0113424
0.0194078
0.000465336
0.000436378
0.000451144
0.000443595
0.000457624
0.000456345
0.000451796
0.0213626
0.00045284
0.000454277
0.000283012
0.00045361
0.000456095
0.000450324
0.000417823
0.000552075
0.020594
0.000440681
0.000451106
0.000540575
0.000445919
0.000445319
0.000453949
0.000446336
0.0190542
0.000450876
0.00866982
0.000543119
0.00027124
0.000438565
0.000424801
0.000442086
0.000450083
0.000429615
0.0190186
0.000447051
0.000442975
0.000457712
0.000442816
0.0181351
0.000454314
0.000477251
0.000436198
0.000432567
0.000430495
0.000291853
0.0120488
0.000450445
0.000437758
0.000429663
0.000409656
0.0255701
0.000453921
0.0264287
0.000450151
0.00947477
0.0192441
0.000444576
0.000426611
0.023161
0.000436639
0.000426391
0.0198733
0.0247306
0.000461549
0.000453722
0.000456407
0.000442923
0.000549234
0.0217758
0.00322567
0.000444501
0.00048719
0.000547946
0.000431241
0.0232396
0.000441332
0.000436512
0.0178018
0.000450578
0.0188782
0.000446402
0.000446203
0.000446955
0.000461215
0.0267613
0.00907155
0.000451494
0.0183261
0.000438853
0.000436428
0.000451572
0.000487428
0.00045043
0.0236869
0.0180091
0.000454524
0.000444119
0.000444094
0.0261689
0.000477311
0.0187302
0.0205926
0.000447879
0.000454065
0.0217799
0.0189777
0.000437202
0.0191117
0.000477033
0.000434554
0.00045631
0.00045407
0.000436271
0.000514786
0.00045153
0.000434579
0.000453053
0.0206584
0.022856
0.0124477
0.022676
0.000460751
0.00048845
0.000431088
0.0252387
0.0188432
0.000473524
0.000451186
0.000438492
0.00053383
0.0188322
0.000446481
0.00045601
0.00833001
0.000446402
0.00876918
0.000431847
0.0216684
0.0234685
0.000431716
0.000441352
0.000452124
0.000449315
0.000446
0.000440052
0.000435556
0.000436536
0.0180735
0.000429321
0.000436446
0.000431746
0.000439435
0.020455
0.000445126
0.000434352
0.000449996
0.000438474
0.0166574
0.000479718
0.0243091
0.000426912
0.000451897
0.00704826
0.000441247
0.000462811
0.000443901
0.000450325
0.000453114
0.000439154
0.000454202
0.00710927
0.000460039
0.00042891
0.000438316
0.000449026
0.000453149
7.5506e-05
0.00045853
0.000445838
0.000435525
0.00043098
0.000448011
0.000448296
0.000451377
0.000451843
0.0248741
0.000444665
0.000451274
0.00715722
0.0197376
0.021891
0.0120858
0.0250025
0.000450598
0.000532947
0.000429556
0.000433807
0.000446619
0.000436497
0.000456284
0.00042675
0.00399149
0.000452095
0.000440854
0.000427897
0.000445884
0.00047199
0.00045124
0.0258835
0.0253857
0.000455037
0.000443447
0.000429674
0.0218703
0.000442384
0.0174272
0.000432024
0.000641003
0.000239796
0.00044058
0.000466365
0.00341539
0.0251107
0.000446378
0.0191558
0.000454363
0.0205491
0.0218546
0.000441279
0.00140178
0.000441441
0.000438672
0.000450582
0.000445773
0.00043592
0.000426708
0.0264955
0.000436053
0.000454631
0.000430985
0.000298768
0.000450515
0.0172082
0.000453594
0.000441613
0.000441382
0.000441722
0.000438544
0.000426372
0.000445871
0.00043416
0.000461572
0.000430828
0.000471893
0.0234413
0.000448133
0.00195538
0.000462873
0.000426432
0.000431868
0.000450351
0.000441942
0.0237044
0.0242216
0.000534379
0.0225394
0.000437154
0.000467197
0.000443407
0.000449463
0.000447521
0.000448288
0.000450352
0.000446097
0.000475561
0.000451464
0.000438496
0.000478121
0.000449903
0.000439613
0.00045251
0.0183226
0.000434773
0.000440893
0.000461173
0.000510722
0.000435819
0.000441128
0.000470524
0.00043792
0.00100263
0.000449785
0.0272673
0.00045025
0.000443935
0.000451499
0.000453862
0.000436324
0.000469495
0.008614
0.00116689
0.000436853
0.000306705
0.000429802
0.000445127
0.000450343
0.00044217
0.000430494
0.0159439
0.000448382
0.00447826
0.000478527
0.000436887
0.000511399
0.0210381
0.000448002
0.00045138
0.021864
0.0224126
0.000560642
0.0199021
0.000445884
0.000437662
0.000434136
0.000436336
0.00549547
0.000439375
0.0197791
0.00744507
0.000450101
0.000432002
0.000456946
0.000430634
0.00921202
0.026659
0.00470368
0.000461524
0.000440918
0.016699
0.0257597
0.0272962
0.0004478
0.0256203
0.0207561
0.000451412
0.011634
0.000440404
0.0005353
0.000446094
0.000439451
0.000438341
0.000626049
0.0004293
0.0236698
0.000498665
0.000433032
0.00043239
0.000431726
0.000453357
0.0218012
0.020366
0.0198233
0.000461759
0.0252366
0.000460082
0.00045524
0.000463651
0.000454011
0.000427927
0.000446101
0.000436198
0.000437619
0.000445287
0.00045462
0.000912483
0.000427844
0.000452914
0.0218847
0.0217573
0.00288724
0.000448816
0.0258045
0.000546829
0.000540956
0.000447872
0.0205537
0.000452337
0.000460161
0.000565587
0.000716056
0.00174121
0.025457
0.0266197
0.00043824
0.0255329
0.00044395
0.000563519
0.000536068
0.000434224
0.000428834
0.000432129
0.000433153
0.00905816
0.000449435
0.00668922
0.000442445
0.000448762
0.000449749
0.000437801
0.000469611
0.00042704
0.00044134
0.000451707
0.00043585
0.000427035
0.000953396
0.000444677
0.000534843
0.000429668
0.000453375
0.00043636
0.0218602
0.00046544
0.000446641
0.000451447
0.000435659
0.00526465
0.000615737
0.000448053
0.000617772
0.0173829
0.000467408
0.000529169
0.000678298
0.000446048
0.000781638
0.000446594
0.000472196
0.000456535
0.0229506
0.0268411
0.000515231
0.0200512
0.000437357
0.000452275
0.0259394
0.000444815
0.0220342
0.0158034
0.000504278
0.000464959
0.0004433
0.000451645
0.0237161
0.000429706
0.000450417
0.000467004
0.000438135
0.000437295
0.000446797
0.000450008
0.000438148
0.0228042
0.000453957
0.0192558
0.000438179
0.021859
0.000452258
0.000461109
0.000433585
0.0214947
0.024054
0.000436502
0.000483138
0.0221696
0.000450618
0.0204024
0.00043624
0.000430162
0.00044473
0.000462452
0.000460961
0.000451802
0.000437519
0.0217036
0.000443896
0.000654973
0.0232077
0.000444701
0.000446078
0.00043998
0.0175239
0.000437173
0.000449595
0.020311
0.000535788
0.000467417
0.000434774
0.0270741
0.000446908
0.000447892
0.000450635
0.000876881
0.000453881
0.000447724
0.000429149
0.000444101
0.00046183
0.000451376
0.0228105
0.000455312
0.000446799
0.000446561
0.0177086
0.0248478
0.000439065
0.000440003
0.000505123
0.000428934
0.000449952
0.000432316
0.000441142
0.00421873
0.000442736
0.000429406
0.000446309
0.00045002
0.000433543
0.000439068
0.00043889
0.000446218
0.000429119
0.0192355
0.0221946
0.000448078
0.000446441
0.000450967
0.0198726
0.000503593
0.00042928
0.000447077
0.0006034
0.000565646
0.0174194
0.000434856
0.000488743
0.000560005
0.0220665
0.000433187
0.0201883
0.00044136
0.000457825
0.000428944
0.000449012
0.000571205
0.000443562
0.000524081
0.000350747
0.000442843
0.000441847
0.000451376
0.000432244
0.0234852
0.00043997
0.000448808
0.0186618
0.000449614
0.000438945
0.0244766
0.000439314
0.000452624
0.000434888
0.000437447
0.000810532
0.000444132
0.000441531
0.000453526
0.000628561
0.000446805
0.0220889
0.000720822
0.000660035
0.000443738
0.000446024
0.000472753
0.000456557
0.0218508
0.0201426
0.0251924
0.000447828
0.000491344
0.000448447
0.00034463
0.018922
0.000449078
0.000463524
0.000446465
0.000466816
0.000442049
0.000473916
0.000452126
0.000448171
0.0210057
0.000431125
0.000448274
0.0242371
0.000446225
0.000444964
0.000440036
0.000437918
0.0201037
0.000428227
0.000450063
0.000442153
0.000449795
0.000449816
0.000451295
0.000507538
0.023859
0.000435895
0.00044034
0.000576883
0.000782111
0.000449697
0.0262612
0.0239526
0.0199356
0.00043655
0.000456588
0.000445742
0.00747253
0.00045226
0.000455627
0.00044965
0.000461637
0.0248972
0.000450565
0.000448268
0.00126277
0.0107163
0.000444043
0.000427681
0.0238761
0.000441865
0.0201742
0.000447826
0.000430915
0.000441395
0.000435723
0.000441359
0.000450507
0.000452228
0.00043328
0.000442287
0.000444318
0.0214815
0.000448029
0.0248607
0.0211123
0.0237686
0.000437844
0.0205064
0.000477732
0.020631
0.0206726
0.00044299
0.000475823
0.000481497
0.000448548
0.0145189
0.000253025
0.000449133
0.000429318
0.00044713
0.00047365
0.000589976
0.0023494
0.00054983
0.00044371
0.0179417
0.000438175
0.000446624
0.000481446
0.000562449
0.000445974
0.000451347
0.000440261
0.000769517
0.0244785
0.000455194
0.00044843
0.00730177
0.000443527
0.000445733
0.000430086
0.000522974
0.000442877
0.000505298
0.000427706
0.00543045
0.000449465
0.000469985
0.000452381
0.00802477
0.00058332
0.000429975
0.000441633
0.000530599
0.000482903
0.000442817
0.000452705
0.000437167
0.000521614
0.000430893
0.00044716
0.000434377
0.000576219
0.000444854
0.0240052
0.000470269
0.000436706
0.000448519
0.000455041
0.000444735
0.0167959
0.0194926
0.0238465
0.0214163
0.000434233
0.000657941
0.0221813
0.000431469
0.000474308
0.000448414
0.000437179
0.000445696
0.000511708
0.000592425
0.000447842
0.000497809
0.000446121
0.0169696
0.000445155
0.000429987
0.0219672
0.000512939
0.000449745
0.000449149
0.00324502
0.000439435
0.000494191
0.000450104
0.000453354
0.00042878
0.000425581
0.00045158
0.0247606
0.000452589
0.0150773
0.000451383
0.000585229
0.00043647
0.000427704
0.000311331
0.0180504
0.000478827
0.000469689
0.00116927
0.000447995
0.000242264
0.000458595
0.000440439
0.0249683
0.0004332
0.00555246
0.000506815
0.000430113
0.000450541
0.000550908
0.0222294
0.000451219
0.000563229
0.000442758
0.000308118
0.000436166
0.000445882
0.000453012
0.000458023
0.000456403
0.0250157
0.0166663
0.000441809
0.000450437
0.000875927
0.000438302
0.0275786
0.0270462
0.000444283
0.000442026
0.000473619
0.000450445
0.022466
0.000451038
0.0182795
0.000451919
0.000451233
0.000449202
0.000436762
0.000457267
0.0265355
0.0263676
0.000426683
0.000448837
0.000547704
0.0224511
0.000434115
0.000871103
0.000477891
0.000458314
0.0233382
0.0204638
0.000442429
0.000429515
0.00313405
0.000438654
0.000455333
0.000782189
0.000431336
0.000435905
0.0198556
0.000426644
0.0206073
0.000478367
0.000427658
0.00523188
0.00043009
0.000509155
4.32482e-05
0.000432268
0.000433634
0.00043248
0.0168023
0.000440321
0.000434877
0.000482939
0.0186691
0.00151927
0.000448585
0.000683903
0.0233628
0.000445988
0.00204012
0.000428157
0.000551441
0.0161157
0.0243035
0.0257985
0.000475992
0.0226881
0.000435436
0.000459437
0.000450852
0.000441443
0.0251244
0.000446988
0.0196292
0.000436732
0.024938
0.000434926
0.000447428
0.0203294
0.00047149
0.000881584
0.0226213
0.000451179
0.000431143
0.0261076
0.000433315
0.000452436
0.0197516
0.000453639
0.000445373
0.000435147
0.0191582
0.000444691
0.000452327
0.0199784
0.000511839
0.000426718
0.0241453
0.000451457
0.0232968
0.000542464
0.000447335
0.000446052
0.000445841
0.0178278
0.0255071
0.000642808
0.000456758
0.000449449
0.000441444
0.000476467
0.0163324
0.000447799
0.0265193
0.000441182
0.000446484
0.000459464
0.000946311
0.000478678
0.00832334
0.000473887
0.000459525
0.0200792
0.00044351
0.00044171
0.000438707
0.000468661
0.000449265
0.000449676
0.0131667
0.000449088
0.000449575
0.000446757
0.000433332
0.000431884
0.0200792
0.000427154
0.0246292
0.000441273
0.000837129
0.000433664
0.000451138
0.000440026
0.000454627
0.000442283
0.000445803
0.000447278
0.000449537
0.00107001
0.000458893
0.0004939
0.000469695
0.00045582
0.000430354
0.0181833
0.000381973
0.000426784
0.000446309
0.000434436
0.000138385
0.000435846
0.000127279
0.0186353
0.00103499
0.000472162
0.0189826
0.000453612
0.000447705
0.000428697
0.000436571
0.000459824
0.000432028
0.00044352
0.000435868
0.00042682
0.0209324
0.000450814
0.000452038
0.000455622
0.0198423
0.000437956
0.000448457
0.000510655
0.000427037
0.000439206
0.000470554
0.00128849
0.000459445
0.00277276
0.00045301
0.000426927
0.00044833
0.000435194
0.000440043
0.0210759
0.000491411
0.000449401
0.0252336
0.0236396
0.000448062
0.000455079
0.000506048
0.000293291
0.000453073
0.00053649
0.000511219
0.000453988
0.00043621
0.000447947
0.000482273
0.000451886
0.00048266
0.000442481
0.0218393
0.000919463
0.000952216
0.000481412
0.0245805
0.000448316
0.00045102
0.0247606
5.79468e-05
0.000449845
0.000430112
0.0197483
0.000607609
0.0206879
0.000450525
0.000426211
0.000431651
0.000449079
0.00042732
0.0117956
0.01986
0.000455132
0.000435799
0.000447581
0.0267924
0.000780314
0.000450001
0.000436726
0.0259062
0.000430561
0.000449331
0.0276754
0.000445886
0.0169856
0.0201518
0.0109911
0.000459176
0.000453174
0.000442439
0.000474987
0.0175421
0.000449898
0.000414292
0.000430244
0.000448814
0.0273635
0.000438765
0.000364817
0.000456606
0.0204696
0.0221099
0.000449775
0.000547214
0.00044761
0.0149265
0.000441338
0.000696652
0.000462625
0.000929699
0.000450528
0.00045401
0.0274462
0.000444068
0.00044752
0.0107359
0.00045478
0.000435809
0.000442263
0.000558013
0.000443861
0.000440992
0.00044617
0.000427462
0.000427942
0.00054859
0.000446795
0.0271852
0.000479859
0.000498184
0.000444023
0.00275173
0.000434982
0.000436433
0.000449062
0.000445286
0.000427887
0.0165142
0.000655865
0.0248701
0.000451785
0.000625581
0.00042742
0.00201618
0.000536988
0.0261256
0.000538384
0.000435852
0.000439854
0.0177858
0.000446834
0.000453481
0.000447944
0.000430111
0.0244075
0.000447356
0.000771807
0.000454764
0.000442118
0.017637
0.0212284
0.000820375
0.000446997
0.000455448
0.000455284
0.00463105
0.000437817
0.000437916
0.000541648
0.023557
0.000439756
0.000440826
0.000432823
0.000436058
0.000446379
0.000457071
0.000443638
0.000441253
0.000765901
0.00986907
0.000426
0.000446969
0.000426699
0.00043981
0.0158771
0.0004498
0.000450648
0.0222533
0.0231006
0.000226008
0.000449662
0.0190069
0.000442115
0.000456682
0.000451552
0.000796452
0.0247428
0.000449191
0.00043913
0.0164574
0.00693249
0.000442636
0.000444639
0.000451295
0.000451185
0.000450669
0.0205744
0.021557
0.000484132
0.000448466
0.00074087
0.000434434
0.0144597
0.000450911
0.0214961
0.000556325
0.000432167
0.000436774
0.000437458
0.000559522
0.000281388
0.00043516
0.000450853
0.000445595
0.000446192
0.000449737
0.000499783
0.0249469
0.000436557
0.000453324
0.000449097
0.00045595
0.00795414
0.000446991
0.000450636
0.000439995
0.000435816
0.000451265
0.000517016
0.000447334
0.000469732
0.0197689
0.000441077
0.00044296
0.00210291
0.000435447
0.000443886
0.0246083
0.000440054
0.0170271
0.000442524
0.000458067
0.000447411
0.000430152
0.000450583
0.000452169
0.000435804
0.0230438
0.0175164
0.000439192
0.000433159
0.000521879
0.000446151
0.000433748
0.00503815
0.00042943
0.000534541
0.000455976
0.0250125
0.000903933
0.000437541
0.000496424
0.000456883
0.000449219
0.0167435
0.000450589
0.000427584
0.019674
0.000515121
0.000454309
0.000449709
0.000754042
0.000441506
0.000449241
0.000435167
0.000478989
0.0023576
0.000441884
0.00046344
0.01677
0.000470137
0.0209429
0.0212774
0.000434934
0.0184608
0.000450176
0.00044562
0.000458331
0.000938782
0.000450127
0.000428756
0.000462834
0.027968
0.000452406
0.000458091
0.00569221
0.000444373
0.000448048
0.0212693
0.00043101
0.000463227
0.000451183
0.000452602
0.000447253
0.000658902
0.000461696
0.000450418
0.000450766
0.0114332
0.000430673
0.000430781
9.81682e-05
0.000441822
0.0260233
0.000442028
0.000434815
0.0257466
0.000460489
0.000493343
0.000434969
0.000437453
0.000436005
0.000444854
0.0197608
0.000441251
0.0226244
0.000454039
0.000482402
0.000448283
0.0275119
0.0203471
0.000448959
0.0237362
0.000449996
0.000432799
0.000454167
0.000460195
0.0138371
0.021636
0.000436882
0.000482561
0.000453726
0.00044296
0.000446769
0.00052844
0.0269907
0.000440743
0.00301861
0.000457273
0.0148871
0.0226977
0.000486984
0.000431615
0.000466155
0.00651896
0.000457066
0.000427939
0.000451317
0.0185132
0.00656812
0.000199893
0.025956
0.000461456
0.0252308
0.000437297
0.0004517
0.000449691
0.0107278
0.000434409
0.00043583
0.00045182
0.000431322
0.000433985
0.000610687
0.000431263
0.000634822
0.000482647
0.000455966
0.000456443
0.0208091
0.000462891
0.000448841
0.000449973
0.000453095
0.000617332
0.0203592
0.000446959
0.000444329
0.000443828
0.0184438
0.000436148
0.000433869
0.000450636
0.0178812
0.0167334
0.00044697
0.0246281
0.000435883
0.000436531
0.000599808
0.0264881
0.000457733
0.00137695
0.000453886
0.0200583
0.000456463
0.000445558
0.000334039
0.0228741
0.000447236
0.000452195
0.000441868
0.000448777
0.00044009
0.000453384
0.000450286
0.0254337
0.0192066
0.000448768
0.00044489
0.000495597
0.016696
0.000451201
0.000448971
0.000427057
0.000489959
0.000431499
0.00134713
0.000452927
0.000437062
0.000448346
0.00048675
0.0242739
0.0186216
0.0218406
0.0246326
0.000560185
0.00250741
0.0185068
0.000524718
0.00427068
0.000457274
0.000510174
0.000447363
0.000501483
0.00054017
0.000430064
0.000401923
0.0221612
0.000459661
0.020399
0.00363296
0.000439819
0.00043691
0.000437255
0.000480859
0.000451498
0.0189483
0.000431272
0.0197258
0.00045436
0.00045337
0.000449642
0.0198049
0.000498586
0.000546336
0.000445233
0.0210627
0.00101731
0.000431097
0.000452396
0.0231249
0.000536919
0.00068177
0.000442596
0.000454062
0.000528408
0.00092923
0.00286261
0.000554669
0.0253182
0.000541246
0.0258168
0.000528293
0.000431592
0.000452193
0.000431442
0.000432981
0.000786319
0.000433953
0.000470263
0.000452154
0.025398
0.00214109
0.000431095
0.000431968
0.000440126
0.000526087
0.000451441
0.000440512
0.000437124
0.0216006
0.0259372
0.000527714
0.000450683
0.000489581
0.0149656
0.000441695
0.000434758
0.000481565
0.000449175
0.000461737
0.000447855
0.000593254
0.000897726
0.000452948
0.000450056
0.000450538
0.000524956
0.0245996
0.00043272
0.000439744
0.000450307
0.000398055
0.000505362
0.000548007
0.0185693
0.000436046
0.0172659
0.000451284
0.025149
0.02134
0.00752012
0.000450049
0.000448256
0.000449883
0.000448926
0.000439501
0.000605365
0.000474886
0.000535122
0.00076983
0.000449054
0.00043639
0.000443806
0.000451993
0.0246741
0.000866323
3.49645e-05
0.000433209
0.0236304
0.000449476
0.000437004
0.000519239
0.000455168
0.0224155
0.000451817
0.000512347
0.000212123
0.000433033
0.0191633
0.0194448
0.0245914
0.0215457
0.000462708
0.000514502
0.000447869
0.000440965
0.000449058
0.000432133
0.0205914
0.000447941
0.017366
0.000443215
0.000451311
0.0182806
0.000450912
0.000428627
0.000449927
0.000440427
0.0188884
0.000450772
0.000445753
0.00046921
0.000443407
0.000460331
0.0181234
0.018835
0.0091099
0.0247851
0.000462232
0.000451186
0.000529749
0.00138504
0.000449898
0.00543307
0.000506288
0.000611229
0.00055084
0.0180257
0.000450076
0.012947
0.000687963
0.0186413
0.0183113
0.000452914
0.000439256
0.000435741
0.000449844
0.000449451
0.000448983
0.000455765
0.0257889
0.0090436
0.000439293
0.000450881
0.000427582
0.000451882
0.000467041
0.0165835
0.0137059
0.000451992
0.00052273
0.000237386
0.0179535
0.000450755
0.0235033
0.00816688
0.000567389
0.00118819
0.0185195
0.000431044
0.000459801
0.000430131
0.000443252
0.000442552
0.000432659
0.000433806
0.000459621
0.0193487
0.000525226
0.000450023
0.000506541
0.0192338
0.00043647
0.0140382
0.000447741
0.00045372
0.000440936
0.000449862
0.000430476
0.000232046
0.000451137
0.00045147
0.0233795
0.000432816
0.000466704
0.0179366
0.000451342
0.0224774
0.0128975
0.0135122
0.000448285
0.000454283
0.000444944
0.00042716
0.000447819
0.0216858
0.00043129
0.000480245
0.000451903
0.000447157
0.0155774
0.00204984
0.00047682
0.000459429
0.000447469
0.000431
0.000469735
0.000433477
0.000163274
0.000443666
0.0138967
0.0216297
0.0276362
0.000450022
0.00431725
0.00550838
0.000469478
0.000567138
0.000443293
0.000444004
0.0218371
0.000296402
0.00888149
0.000450189
0.000497167
0.0193446
0.000446376
0.000432643
0.000444919
0.00045074
0.000433794
0.000451443
0.000471411
0.000440213
0.0004452
0.00124187
0.0011725
0.000454776
0.000502754
0.0264847
0.000503102
0.000451743
0.000445994
0.000586176
0.000426623
0.000450668
0.000456252
0.0254246
0.000442449
0.0202322
0.000416994
0.000474584
0.00045445
0.000462421
0.0100848
0.000450535
0.000469752
0.000446033
0.0122977
0.00325401
0.000443137
0.00047809
0.000437374
0.0147107
0.000437778
0.000450044
0.0066072
0.0136242
0.000430194
0.00171141
0.0202543
0.000461075
0.0206673
0.000453847
0.0194952
0.000476208
0.000463324
0.00049479
0.0183835
0.0228402
0.00048906
0.000437421
0.000442914
0.0197672
0.000445793
0.000428685
0.0256736
0.000450242
0.000536747
0.0199721
0.000450285
0.000471789
0.0261531
0.000684781
0.000447798
0.0134652
0.00045339
0.0251264
0.0024194
0.000469192
0.000439522
0.000446426
0.000443229
0.000444931
0.000448766
0.000440619
0.000525152
0.000453198
0.000447652
0.000435126
0.000435516
0.00047676
0.0266252
0.000442362
0.000448998
0.0239961
0.0264583
0.00044763
0.00044716
0.000462686
0.000451901
0.000435651
0.000450095
0.000459043
0.0278707
0.0202669
0.000452481
0.000435185
0.00043352
0.000440105
0.000450261
0.0175515
0.000435425
0.000448061
0.000514921
0.000439706
0.0248771
0.000450412
0.0121426
0.000428709
0.000868209
0.0004718
0.0253379
0.000552289
0.000428716
0.00044887
0.000464698
0.00047048
0.00044221
0.000428565
0.00987707
0.000451776
0.000443538
0.0156927
0.00045025
0.0241482
0.000426263
0.000450535
0.000470453
0.000432602
0.000661013
0.0189082
0.019108
0.0142459
0.0210772
0.0123977
0.000535445
0.000443846
0.00046211
0.000451186
0.000453532
0.0251195
0.0250471
0.000462364
0.0004545
0.000732088
0.0116205
0.000452673
0.000547852
0.00082887
0.000447406
0.00050965
0.000774709
0.0224097
0.00044787
0.0116957
0.000473918
0.000440157
0.000437035
0.00705041
0.00044739
0.000841379
0.000506294
0.000466431
0.025353
0.000450748
0.000442404
0.000446176
0.000442835
0.0206217
0.000452058
0.000451831
0.0202385
0.000450896
0.000447784
0.0206835
0.000433765
0.00738692
0.0268645
0.0206527
0.000487047
0.000457995
0.00047577
0.000440879
0.000447478
0.0199772
0.000432477
0.00054742
0.000440848
0.000448642
0.000432797
0.000526606
0.000446966
0.000492304
0.000449563
0.000442755
0.015679
0.0223589
0.000685082
0.000401456
0.000427627
0.000449542
0.000479133
0.0236138
0.0197368
0.0241345
0.000463583
0.0207772
0.0255647
0.000589672
0.000455571
0.000476065
0.0145328
0.00050761
0.000856703
0.0108632
0.0221505
0.000584475
0.000452272
0.000448516
0.000449123
0.000428786
0.0236376
0.000449765
0.000522373
0.00043552
0.000660781
0.000450864
0.00046182
0.000438696
0.000437664
0.0217698
0.000435713
0.000535048
0.000498384
0.0262441
0.000458374
0.0247467
0.000445422
0.0139459
0.000433909
0.000437776
0.0081395
0.000511444
0.000515026
0.000447055
0.000451265
0.000500364
0.000459463
0.000442181
0.000433717
0.0257262
0.000505938
0.00045001
0.000448986
0.000476146
0.000485314