/*--------------------------------*- C++ -*----------------------------------*\
| =========                 |                                                 |
| \\      /  F ield         | OpenFOAM: The Open Source CFD Toolbox           |
|  \\    /   O peration     | Version:  v2012                                 |
|   \\  /    A nd           | Website:  www.openfoam.com                      |
|    \\/     M anipulation  |                                                 |
\*---------------------------------------------------------------------------*/
FoamFile
{
    version     2.0;
    format      ascii;
    class       surfaceScalarField;
    location    "400";
    object      phi;
}
// * * * * * * * * * * * * * * * * * * * * * * * * * * * * * * * * * * * * * //

dimensions      [0 3 -1 0 0 0 0];
oriented        oriented;


internalField   nonuniform List<scalar> 
27642
(
-0.176998
0.0400537
0.136944
-0.111255
0.0483895
0.0628658
0.35112
-0.372427
0.0213068
-0.119392
-0.150208
0.2696
0.388228
-0.0371077
0.46767
-0.0316837
-0.435986
-0.0233271
0.0831876
-0.0598605
-0.55744
0.55744
0.494901
-0.397884
-0.0970169
0.430319
-0.381418
-0.0489018
0.338661
-0.575049
0.236388
0.0549106
0.303769
-0.35868
-0.353387
0.494763
-0.141376
0.0966124
-0.0219193
-0.0746931
0.0295022
-0.175091
0.145589
0.361486
-0.306576
-0.241155
0.320291
-0.079136
0.398796
-0.352174
-0.0466219
-0.236053
-0.0972
0.333253
-0.507779
0.313477
0.194301
0.350509
0.0482869
0.528599
-0.246025
-0.282573
0.19421
-0.0666918
-0.127518
0.187715
0.272133
-0.459848
0.150439
0.249307
-0.399747
0.0986952
-0.334748
0.554269
-0.313453
-0.240816
-0.0276402
0.00491085
0.0227293
-0.197545
0.416918
-0.219374
-0.223164
0.527982
-0.304818
-0.147495
0.358525
0.136376
-0.0197159
-0.0915394
0.514364
-0.175703
-0.394893
0.120017
0.274876
0.291196
0.168348
-0.459545
0.341161
-0.21517
-0.125991
-0.259755
0.410194
-0.0141971
0.214592
-0.200395
0.439228
-0.0846648
-0.354563
-0.0115451
-0.0160951
0.368612
0.132048
-0.50066
0.139051
-0.417698
0.278647
-0.213568
0.199371
-0.235625
0.539861
-0.304236
0.09852
-0.00190758
-0.480638
-0.02685
0.507488
0.0775551
0.361673
0.265151
-0.0736357
-0.191515
0.265008
0.0865402
-0.351548
-0.0351897
0.1789
-0.14371
0.293942
-0.405745
0.111803
0.148564
-0.472202
0.323638
0.340149
-0.148377
-0.191772
-0.0578266
0.277841
-0.220014
-0.230162
0.521358
0.132583
-0.390908
0.258325
-0.000943934
0.00377045
-0.00282651
-0.00605441
0.00702841
-0.000973998
-0.462794
0.306753
0.156041
0.142482
0.187772
-0.330254
0.535755
-0.348891
-0.186865
0.468329
-0.319765
0.124516
-0.123411
-0.00110536
0.250759
0.0143913
-0.287691
-0.0913084
0.379
-0.0754858
-0.181631
0.257117
0.0676477
-0.355339
-0.53885
0.26772
0.27113
-0.153014
0.150583
0.00243112
0.0863332
-0.31686
0.230527
-0.498495
0.171993
0.326502
0.317386
-0.0526052
0.154915
-0.35246
0.248513
-0.532026
0.283512
-0.558059
0.265935
0.292124
-0.208467
0.350949
-0.434578
0.342681
0.0918966
-0.418533
-0.0160453
0.0710737
-0.252162
0.181088
-0.119603
0.384611
0.380483
-0.538774
0.280878
0.257896
-0.377601
-0.161249
-0.107346
-0.272953
0.380299
0.0537538
0.263632
-0.455549
-0.0250896
0.463019
-0.11251
-0.108191
-0.133886
0.242077
0.0574413
-0.0107614
-0.0466799
0.184997
0.156164
-0.165495
-0.218889
0.384384
0.235381
0.189886
-0.425267
0.326142
-0.165447
-0.160695
0.220505
-0.340108
-0.255057
0.19723
0.239293
-0.256058
0.016765
-0.159851
0.00683717
0.105546
0.324773
-0.101843
0.266057
-0.164214
0.380849
-0.248266
-0.243216
-0.147691
0.0366575
-0.304283
0.267626
0.341278
0.12174
-0.0079427
0.056781
-0.0488383
0.251977
-0.0378307
-0.214146
0.148593
-0.156678
0.00808421
-0.103119
0.145726
-0.0426066
0.407403
0.0552393
-0.462642
0.0459272
-0.0547307
0.00880353
0.0430301
0.318456
-0.201035
0.42154
0.181715
0.0124944
0.304679
-0.268022
0.497621
-0.139096
0.264218
0.0809913
-0.345209
-0.0750258
0.247206
-0.172181
-0.481009
0.0764639
0.404545
-0.299244
0.342274
0.272538
-0.417943
0.145405
-0.132782
0.397
-0.333381
0.438541
-0.105161
-0.16485
0.42929
-0.26444
0.422932
-0.283881
-0.349422
-0.149073
0.00749236
-0.0764102
0.0689179
0.245217
-0.348002
0.102785
0.397727
-0.125189
0.501693
-0.133081
-0.016108
-0.0282829
0.0443909
0.208983
-0.542364
-0.0870475
0.0828491
0.00419835
0.419785
-0.217072
-0.202713
-0.17817
0.202948
-0.0247777
-0.216773
0.00320455
-0.291332
0.286139
0.00519374
0.225585
0.328683
0.391668
-0.447835
0.056167
-0.0777379
0.469406
0.0174633
-0.0107805
-0.00668283
-0.227854
0.302813
-0.0749587
0.237346
0.222683
-0.460029
-0.130267
0.340916
-0.210648
-0.0941953
0.0193939
0.0748014
0.156696
0.00609726
-0.162793
-0.266299
-0.190341
0.45664
0.0414589
-0.0494016
-0.454978
0.47537
-0.0203914
-0.290142
-0.104751
-0.250089
0.487435
0.315064
0.182556
0.228803
-0.164208
-0.0645947
0.5968
-0.358846
-0.237954
0.0113193
-0.0910918
0.0797725
-0.450454
0.308719
0.141734
0.131421
0.194721
0.246819
0.349981
-0.52687
0.20358
0.323291
0.152113
-0.399906
0.247792
0.409876
-0.166256
-0.24362
-0.254503
-0.0368292
-0.0291771
-0.145914
0.165891
-0.0172972
-0.45438
0.100994
0.00316326
0.00261065
-0.00577391
0.387073
-0.333929
-0.053144
0.170361
-0.0204225
-0.149938
0.217973
-0.323296
0.105323
-0.356891
-0.181883
0.133907
0.283012
0.46767
0.215808
0.203977
-0.450034
0.387594
0.0624398
-0.0275305
0.235922
-0.208391
-0.386261
-0.0637729
0.070747
-0.326847
0.2561
-0.120034
-0.218973
0.339007
0.362992
-0.292245
0.229726
0.168001
-0.139853
0.369579
0.0518023
0.000227761
0.534433
-0.235988
-0.298446
-0.280866
0.227087
0.0537789
-0.0781468
0.0785288
-0.000381931
0.131791
0.272226
-0.404017
0.232116
-0.397611
0.00999875
0.00746459
-0.345028
0.509621
-0.164593
0.177158
-0.176908
-0.000250001
0.346313
0.0407604
-0.102749
0.166499
-0.0637498
0.163834
-0.23886
-0.255315
-0.162628
0.239938
0.140911
0.199791
-0.319826
0.0198164
0.150544
-0.233259
0.533035
-0.299776
0.139452
-0.428252
0.2888
0.115405
0.259765
-0.37517
0.18067
0.0258605
-0.206531
0.190419
-0.187579
-0.00284018
-0.245284
0.216905
0.0283783
0.464836
-0.208104
-0.256732
0.457908
-0.213583
-0.244324
0.104816
-0.140005
0.21892
-0.322438
0.103518
0.29534
0.371374
-0.186377
0.260872
0.203964
0.3075
-0.0622832
-0.0956084
0.314529
0.185914
0.32845
0.0389933
-0.285899
0.246906
0.00654484
-0.127137
0.120592
0.137501
-0.245692
-0.210087
0.0319163
0.173665
0.0551385
0.12037
-0.366206
0.245836
-0.219626
0.116877
0.45738
-0.419493
-0.0378873
0.11157
0.251422
-0.144876
0.155693
-0.0108174
0.0585112
-0.00106989
0.259541
0.273494
0.340323
-0.301329
0.444086
-0.304634
0.221926
0.0173664
-0.0481396
0.0210154
0.0271242
0.155867
-0.25771
-0.299768
0.415173
0.159861
-0.0246734
-0.135188
0.120903
-0.136678
0.0157757
0.23658
-0.462361
0.225782
-0.215009
-0.166409
-0.473252
-0.222766
0.313443
-0.0906773
-0.456011
0.189712
0.102054
-0.221446
0.503711
-0.216394
-0.287317
0.226961
0.230947
0.446809
-0.165112
-0.281697
-0.262965
0.394757
0.00199176
0.175167
-0.257957
-0.022909
0.169213
0.240663
-0.0835204
-0.224882
0.308402
-0.520126
0.23864
0.281486
-0.308504
0.0845611
0.223943
-0.396844
0.131596
0.265249
0.438037
-0.423279
-0.0147584
0.00200376
-0.00294769
0.166471
-0.468527
0.302056
-0.0460386
0.226709
0.242674
0.0185645
-0.261238
-0.262918
0.498299
-0.241081
-0.100466
0.341547
0.461931
-0.419088
-0.0428432
-0.251409
0.362979
0.468657
-0.153593
0.035266
-0.0821512
0.0468852
0.411342
0.107382
-0.518725
-0.137927
-0.419513
-0.0542686
0.296942
0.491899
-0.325428
0.106846
0.355085
0.38973
-0.136061
-0.253668
-0.383006
-0.0886193
0.471625
0.149823
0.271442
-0.421265
0.552354
-0.384326
-0.168028
0.162025
0.227705
-0.423552
-0.0146392
0.438192
-0.222171
0.0854495
0.010028
-0.0954775
-0.00584498
-0.417708
0.222724
-0.233894
0.01117
0.00185899
-0.0006307
-0.00122829
-0.365971
-0.130477
0.496448
0.389907
-0.0486291
0.474495
-0.0869002
0.319462
-0.0825496
-0.236913
0.0132122
-0.116332
0.0775737
-0.0988857
0.021312
0.30591
0.162419
0.451474
-0.235667
0.232152
0.0753476
0.0263291
0.0981868
0.124873
0.349621
-0.333973
0.245103
0.0888696
0.329272
-0.206258
-0.123014
-0.17048
0.105388
0.0650924
-0.556235
0.169095
0.38714
0.560919
-0.325116
-0.235803
-0.210347
-0.364702
0.153097
-0.342382
0.189286
0.0164003
-0.0325084
0.0914913
0.155715
-0.261635
-0.0539969
0.315632
0.347931
-0.194834
-0.0659117
0.503949
0.337662
0.0522451
-0.509563
0.289034
0.220529
-0.438042
0.0930146
0.142458
-0.0215554
-0.249222
0.173736
0.577098
-0.398987
-0.178112
0.0284635
-0.290099
-0.228841
-0.154001
0.382842
0.136482
-0.407795
0.271313
-0.150559
-0.299895
0.401598
0.1755
-0.233824
0.318385
0.205164
0.191284
-0.396448
0.0690144
0.250448
0.0233835
0.387959
0.0933459
0.246977
0.164176
0.165096
0.164845
0.206529
-0.309872
0.493366
-0.183494
0.192369
-0.478328
0.285958
-0.213924
-0.443078
0.318326
0.124752
-0.438155
0.0721833
-0.222012
-0.224377
0.446388
0.275158
0.138481
-0.41364
-0.223691
-0.284088
0.374887
-0.323633
-0.0512542
0.00152686
0.175543
-0.177069
0.237891
-0.253706
0.347052
-0.390285
0.225436
-0.0931973
0.5006
-0.0463854
-0.00175427
-0.369959
-0.0850193
-0.00697993
-0.00304489
0.0100248
0.467462
-0.279746
0.103343
-0.0680768
0.529557
-0.353863
-0.175694
-0.348908
0.107754
-0.050537
0.209404
-0.158867
-0.154637
0.198267
0.0163255
-0.343636
0.480072
-0.136435
-0.205439
0.0162397
0.1892
-0.312806
0.450629
-0.137823
0.0183243
-0.37717
-0.441625
0.131753
0.335146
-0.122071
-0.213074
-0.270425
-0.0492192
-0.15622
-0.0750629
0.075972
-0.000909123
0.0980146
-0.295252
0.197238
0.123019
-0.116474
0.0978023
-0.338883
-0.0106388
0.0960883
-0.0408681
-0.0533272
0.189672
-0.267507
0.077835
-0.000329846
-0.00572456
0.257572
0.117315
0.067743
0.0812777
-0.149021
0.340456
-0.105923
-0.234533
-0.138438
0.348446
-0.210008
0.171883
0.17443
-0.298869
0.317194
0.174068
-0.250063
0.0759942
-0.0343831
0.0274968
0.00688626
-0.246665
0.380572
-0.0836205
0.0602934
0.439476
-0.320375
-0.119101
-0.0105363
0.00355636
-0.405097
0.149782
0.0883621
-0.283196
0.194834
-0.116254
-0.214351
0.330606
-0.183025
0.474267
-0.291243
0.358813
0.202075
-0.00650793
-0.0805395
-0.43081
0.331909
0.0989011
0.597756
-0.178712
-0.419044
0.504462
-0.141652
-0.36281
-0.144229
-0.243699
0.387928
0.24681
-0.155319
0.259826
0.183204
-0.443029
-0.266161
0.108129
0.158031
0.172559
0.268488
-0.375834
-0.169765
-0.0300702
0.199835
0.0210147
-0.300189
-0.172013
0.364523
0.233233
-0.272761
0.394552
-0.121792
0.200225
-0.296036
0.0958101
0.281843
0.157633
-0.00863014
0.0545573
0.297345
-0.0971199
0.201712
-0.240096
0.212566
0.203734
-0.308195
0.104461
-0.397645
-0.192347
-0.28598
0.177417
-0.1659
-0.0115177
0.153367
-0.104465
0.473226
-0.178523
-0.294703
0.558366
-0.430261
-0.128104
0.209465
0.130991
0.286171
0.157915
-0.15175
0.189037
0.284189
-0.0064306
0.107164
-0.100733
0.122103
0.213042
0.00562668
-0.00246342
-0.137834
-0.290418
-0.14763
0.461573
-0.313942
-0.00696868
0.04642
-0.0394514
-0.0592946
0.0667869
-0.064062
-0.106418
-0.211019
0.447599
0.424858
0.245651
-0.0363168
-0.209334
-0.26695
0.375344
-0.346524
0.0737634
0.585705
-0.316979
-0.268726
-0.211036
-0.107834
0.31887
-0.129939
-0.465787
0.0973575
-0.147895
0.0852033
-0.0368138
0.378639
-0.134299
-0.244341
0.148365
-0.456229
0.307864
-0.313132
0.102096
0.282195
-0.193833
0.48461
-0.174476
-0.310135
-0.314199
0.244856
0.0693424
-0.467509
0.181817
0.285692
-0.284908
-0.154293
0.439201
0.151139
0.197306
0.254811
-0.0651385
0.263784
0.155535
0.262117
0.156473
-0.418591
-0.481009
-0.134376
0.38289
-0.186733
0.491797
-0.305064
-0.201148
0.160711
0.040437
0.425046
-0.198085
0.0991986
-0.331141
0.231942
-0.292028
0.341187
-0.0491588
0.19193
0.29268
0.286902
-0.453158
-0.22298
-0.0944763
0.317456
-4.69176e-05
-0.000183621
0.000230538
0.297017
0.23254
0.520723
-0.233037
-0.287686
-0.252152
-0.0818212
-0.000444978
0.00039806
0.391298
-0.359417
-0.0318816
0.455966
-0.3076
-0.292489
0.228824
0.0636653
0.174307
0.29435
-0.0934386
-0.186235
-0.371824
0.077073
0.00611462
-0.0132743
0.470654
0.437807
0.0292366
-0.467044
0.422755
-0.160638
-0.21931
0.499856
-0.280546
0.461191
0.0792611
-0.256556
0.177295
-0.023724
-0.0106591
0.278028
0.120411
-0.398439
0.225434
0.308999
-0.353879
0.488218
-0.134339
0.167015
-0.480359
0.313344
0.20449
-0.548126
-0.170975
-0.177933
0.088893
0.0251219
0.366177
0.289868
-0.191854
0.128933
0.428508
-0.256882
-0.0356075
0.254
-0.394432
0.140432
0.146343
0.0135182
0.43239
-0.0364842
-0.395906
0.234908
0.184087
0.0192812
-0.338364
0.319083
-0.143526
-0.190404
-0.0629298
-0.311447
0.330728
0.187254
0.237791
-0.0342968
-0.0645889
0.405904
-0.204044
-0.20186
-0.017762
-0.0370384
0.0548003
0.013511
-0.456625
0.45078
0.0393307
-0.0570926
-0.0657382
0.0314414
-0.534363
0.0922104
-0.476997
0.384786
-0.448937
0.141501
0.307436
-0.10244
0.219317
0.00152728
-0.0365626
-0.0868479
0.466057
-0.123376
0.0111584
-0.0227035
-0.154482
0.379564
-0.225082
0.308712
0.227043
0.482448
-0.19043
0.462564
-0.0366968
-0.0999815
-0.381838
0.0969303
-0.0602536
0.373731
-0.301242
0.258386
0.130775
-0.389161
-0.0292356
-0.0254952
0.104186
-0.371136
-0.298734
0.155208
0.00634854
-0.00482126
-0.117906
0.292243
-0.174337
0.020372
-0.340946
0.320574
-0.291075
-0.179668
0.191551
0.168409
-0.166882
7.28169e-05
-0.179741
-0.173789
-0.353081
-0.0971512
-0.148132
-0.0985628
-0.261323
0.359886
-0.427056
0.338899
0.0881566
-0.211955
0.472087
-0.260133
-0.154301
0.0518612
0.167998
-0.32248
0.217571
-0.339642
-0.527449
0.265575
0.261874
0.270838
-0.435949
0.335538
0.156361
-0.293476
-0.125057
0.498677
-0.223269
-0.275408
0.139147
-0.37307
-0.181441
-0.261574
0.443015
0.469225
-0.23651
0.107252
-0.133635
0.0263828
-0.0775841
0.0988961
-0.114493
0.318227
0.182847
-0.17675
0.172526
-0.25194
0.0794136
0.224099
0.0961919
0.405943
-0.437627
0.0210021
-0.325285
0.00354863
-0.000496142
-0.00305249
0.0490955
0.00270678
-0.400818
-0.0262382
-0.278332
-0.19343
0.471762
-0.0853746
0.393845
-0.289987
-0.103858
-0.0161341
0.17725
-0.161116
-0.493907
0.181476
0.312431
0.220794
-0.324293
0.103499
-0.301479
-0.117014
0.418492
-0.208021
-0.319428
0.223572
0.280139
0.551622
-0.328051
0.00526761
-0.00149717
-0.194725
0.194798
-0.180941
0.208056
-0.0271147
-0.183826
0.182908
-0.27098
0.0880716
0.39219
-0.119964
0.14824
0.119237
-0.521769
0.384781
0.136988
-0.00252652
0.0303447
-0.0282285
-0.00211626
0.265771
-0.409814
0.144043
-0.214447
-0.000722601
-0.185721
0.484569
-0.298848
-0.523268
0.206556
0.316711
-0.136705
0.402476
-0.0196683
0.0236731
-0.00400479
-0.265483
-0.184934
0.450417
0.111978
-0.460868
0.194532
-0.472864
-0.0501453
0.0472323
0.002913
0.369461
-0.249091
-0.0271129
0.0481283
0.405569
-0.312585
-0.0929847
-0.124039
0.382425
-0.160747
-0.378153
0.285499
0.0926532
0.459177
-0.156827
-0.30235
0.288812
0.105033
0.310094
-0.407146
0.097052
-0.334145
0.112134
0.273728
-0.435433
0.161706
0.0883755
-0.270007
-0.441511
-0.00801203
0.449523
-0.31421
0.136276
0.135218
-0.0279659
-0.235612
-0.189405
0.425017
0.146193
-0.413285
0.267091
0.486255
-0.256848
-0.229407
0.41089
-0.0629595
0.405034
-0.151034
-0.177083
0.487177
-0.167248
-0.263546
0.430795
-0.412614
0.177002
0.426778
-0.276955
0.153656
-0.477151
0.323495
-0.301221
0.0782416
-0.103477
-0.162684
0.489116
-0.153578
0.193258
-0.231088
0.355111
0.134005
-0.305811
0.459468
-0.0916288
0.208028
0.209409
0.289267
0.260532
-0.431479
0.170946
0.294137
0.192118
0.000402704
-0.000105324
-0.00029738
-0.125674
0.384157
-0.258483
0.0797651
0.167045
-0.152081
-0.340601
0.110332
0.230268
-0.178486
0.263575
-0.445016
-0.0587529
-0.295236
-0.193595
0.488831
-0.10379
0.00141401
-0.192253
0.0224882
0.46504
-0.18245
-0.28259
0.189921
0.107424
-0.22361
0.392823
0.282107
0.128783
0.385555
-0.0983199
-0.287235
0.198675
0.162687
0.264349
0.14122
-0.00168987
-0.226164
0.468108
-0.172412
-0.295696
0.231445
0.109471
0.0431726
-0.425009
0.341495
0.0835136
0.153906
-0.471987
0.318081
-0.165998
0.149863
-0.21145
0.310145
0.382827
-0.246345
0.278219
-0.0882979
0.256238
-0.0203159
-0.353616
0.199614
0.494746
-0.177404
-0.317343
0.0967063
0.193162
0.106486
-0.356538
0.250052
-0.281384
-0.0967683
-0.337532
0.00163405
-0.0927259
-0.339699
0.285702
-0.319996
0.113035
0.206961
-0.157751
-0.169346
0.47676
-0.307414
-0.143371
0.414813
-0.460295
0.332897
0.127398
0.348768
0.179214
-0.226538
0.307529
0.39694
-0.414307
0.0173678
-0.149362
0.374024
-0.224662
-0.263682
0.355892
-0.340999
-0.168564
-0.144487
0.435823
-0.291336
0.119647
0.183165
0.220538
-0.0222707
0.271611
-0.465827
0.152375
0.521488
-0.368216
-0.153272
0.0173726
-0.344219
0.425532
-0.279338
-0.126526
0.398261
-0.271736
0.494012
-0.347901
-0.146111
0.322082
-0.0563486
-0.265733
-0.475158
0.31965
-0.235508
-0.339198
0.222944
0.0308618
-0.000517075
0.320551
-0.136173
-0.184378
0.145715
0.279817
0.0391699
-0.0883955
-0.149121
0.343601
0.00188553
0.00514288
0.322247
-0.438185
0.115938
0.393016
-0.486213
-0.0352516
-0.004353
-0.0420323
0.488346
-0.345266
-0.143079
0.150336
0.114574
-0.26491
0.253589
-0.173824
-0.36783
0.218468
-0.103598
0.0369058
0.130064
0.248575
-0.117645
0.157699
-0.319109
0.220546
-0.286011
0.113066
0.172944
-0.0788768
-0.260822
0.291507
0.176936
-0.468444
-0.138165
-0.0324786
0.170644
-0.299232
-0.169295
0.320468
-0.488231
0.167763
0.0494889
-0.023531
-0.380954
-0.0440544
0.0473836
0.00171198
0.336681
-0.230195
0.328445
-0.476075
0.395868
0.00107201
-0.383313
0.11783
-0.00735547
0.0974466
-0.0900911
0.133388
0.00907047
0.216364
0.0993199
-0.00144849
0.00345225
0.488833
-0.314526
-0.423108
-0.330024
0.230202
0.0998217
-0.124282
-0.161729
-0.391694
0.128729
0.311519
-0.00962257
-0.301896
0.00210014
0.507885
-0.185281
-0.322604
0.276952
0.135323
-0.412275
-0.324324
-0.0725202
-0.0055305
0.0655852
-0.0600547
0.213111
0.00742694
-0.0891761
0.395929
-0.164661
-0.225624
0.215975
0.0933317
-0.309306
0.171771
0.0830391
-0.00507381
0.00695933
0.000968067
-0.0478709
0.0469028
0.482683
-0.279208
-0.203475
0.0321698
0.503928
-0.208521
-0.295407
0.35757
-0.192725
-0.0907949
0.262566
-0.427986
-0.0258904
0.453876
0.145468
0.012767
-0.158235
-0.313358
0.0884757
0.302926
0.201002
-0.170322
-0.268475
0.357136
-0.0886606
0.42636
-0.138084
-0.288277
-0.270263
0.224224
0.0180605
-0.156226
-0.156656
-0.0955053
0.0539519
0.181141
0.266605
-0.447746
0.222061
-0.0495347
-0.311806
0.375894
-0.1444
-0.0723724
-0.0170845
-0.377136
0.394221
-0.292323
0.46606
-0.173737
-0.220302
0.208752
0.01155
-0.400982
-0.285081
-0.0838049
0.368886
0.160404
0.197166
-0.211948
-0.0608593
0.272807
0.399994
-0.250558
-0.149436
-0.0328789
-0.0813383
0.114217
-0.491809
0.19123
0.30058
-0.0736752
0.305827
-0.0990377
0.214806
-0.115768
0.314091
-0.503543
0.189452
0.462884
-0.156975
0.0472327
-0.339261
-0.39596
0.132749
0.263211
0.455819
-0.111999
-0.34382
0.135606
0.259704
-0.39531
0.278256
0.151583
-0.42984
0.273271
0.147549
-0.420819
0.137426
-0.408065
0.270639
0.280943
-0.467676
0.103907
-0.457786
0.411775
-0.230635
0.250132
-0.462087
-0.0261298
0.0169391
0.00919072
-0.412498
0.178658
0.233839
0.521707
-0.349028
-0.172679
0.212276
0.0953308
-0.307607
-0.469225
0.176902
0.0050444
-0.00379129
-0.00125311
0.372326
-0.221187
0.0989736
-0.198011
0.375359
-0.0851676
0.437037
-0.291322
0.184706
-0.47469
0.289984
0.256132
-0.131521
-0.124611
0.418498
-0.422873
0.302909
0.289209
-0.192503
-0.260168
-0.17002
0.430189
0.14916
-0.257449
0.108289
0.0475764
-0.259524
-0.362094
0.122416
0.239678
-0.173738
0.475456
-0.301719
0.305437
0.160623
-0.230692
0.352795
0.0956836
0.193525
-0.224864
-0.262987
0.48785
0.100299
-0.346884
0.246585
0.157385
0.298434
0.396446
-0.11819
0.292745
0.15644
-0.449185
0.294977
-0.0790028
0.384374
-0.281288
-0.103086
0.083982
-0.306748
-0.0831553
-0.140075
-0.111865
-0.317091
0.489049
-0.171958
0.0841351
0.229308
0.0732536
-0.106132
-0.0126987
-0.0134312
-0.00362437
0.0500232
-0.0463988
-0.0555753
-0.214688
-0.0153893
0.0303653
-0.014976
-0.113666
-0.0264546
-0.193848
-0.173002
0.18508
0.250267
-0.435347
-0.204424
0.400026
-0.126755
0.152514
0.0898381
0.442891
-0.0860482
-0.356843
0.266193
0.0127145
-0.278908
-0.140634
-0.379492
0.308758
0.134858
-0.443616
-0.344334
0.424897
-0.0805625
0.167818
-0.368853
-0.16327
-0.0168465
0.180117
0.110533
0.167686
-0.065135
0.0161173
0.0490177
-0.14853
0.107732
0.040798
0.361475
-0.124246
-0.237229
0.438732
-0.162397
-0.276335
-0.497818
0.351103
0.146715
0.000662781
-0.375109
-0.0557009
-0.00189797
-0.0731649
-0.305714
-0.186095
0.158478
0.295822
-0.520686
-0.0716838
0.380442
-0.167853
-0.024207
0.19206
-0.0611494
0.327343
0.148519
0.0735418
0.084459
0.255158
-0.339617
-0.404036
0.259549
0.147396
0.214079
0.000255427
-0.00532923
0.00504569
0.00191364
0.109744
-0.422549
-0.181422
0.166052
0.0153698
0.112944
-0.337061
0.224117
0.181953
0.30688
-0.113536
-0.235714
0.34925
-0.461515
0.158463
0.303053
0.132566
-0.434045
0.0102552
0.432636
-0.104507
0.0971516
0.537534
-0.335131
-0.202403
-0.0681647
-0.103885
-0.269328
0.373213
0.161122
0.306987
-0.336846
-0.0860272
0.0720208
0.219717
-0.0693803
0.150662
-0.441751
0.29109
0.34373
-0.230786
0.165868
0.483897
-0.302225
-0.181672
0.510749
-0.117733
0.373946
-0.206127
-0.0629479
0.365874
0.0300832
0.19264
0.286339
-0.390224
0.218576
-0.30561
0.0870331
-0.13843
0.120228
0.0182023
0.480216
-0.137632
-0.342585
0.0785066
-0.333202
0.254696
0.111181
0.144951
0.231729
-0.456106
-0.460717
0.123431
0.337286
0.210998
0.140654
-0.351652
0.279561
-0.369385
-0.27679
0.142955
0.00338824
-0.0408954
0.0372711
0.192998
0.282874
-0.475872
0.387052
-0.199797
-0.305689
-0.136783
0.442472
-0.370092
0.295196
0.0748957
-0.334038
0.233572
0.277598
0.135249
-0.412847
-0.231482
0.319424
-0.0879419
0.15781
0.242184
-0.082645
0.220476
0.0879259
0.176421
0.307476
0.160496
0.21183
-0.305145
0.185437
0.119708
-0.148003
0.413939
-0.438474
0.159153
0.279321
-0.0530283
0.0539963
0.150696
0.316765
0.44838
-0.297718
0.129929
-0.369031
0.239102
-0.00115432
0.146622
0.357647
-0.281183
-0.376192
0.116024
-0.0411245
-0.161709
0.202834
-0.244929
0.437927
-0.233876
0.312383
-0.144272
0.35527
-0.0165265
0.0427021
-0.0261756
-0.307229
0.474244
-0.400866
0.141111
0.231081
0.263734
-0.486139
0.296779
0.18936
-0.210703
0.169578
-0.121128
0.127765
-0.00663717
-0.0434774
-0.137945
0.508724
-0.172948
-0.335776
0.154779
-0.479895
-0.306811
0.244818
0.249929
-0.1188
-0.1356
-0.365985
0.509781
-0.143796
0.0809511
0.278142
0.106232
0.324767
-0.0671942
0.375445
-0.265113
0.20903
0.273653
-0.264272
0.282837
0.199662
-0.3061
0.106438
-0.137279
0.374532
-0.237253
-0.511475
0.281225
0.23025
-0.00357659
0.00578306
-0.00220646
0.182132
0.078977
-0.261109
-0.08976
-0.0438749
-0.0285798
-0.28698
0.31556
0.360737
-0.276278
0.446281
-0.322849
0.305396
-0.368344
0.461939
-0.267407
-0.196314
0.265328
-0.0784461
-0.319438
0.216624
-0.245204
0.162279
-0.280185
-0.123332
0.215009
-0.247189
0.347488
0.279831
0.241657
-0.110038
-0.00266952
-0.0301136
0.0327831
0.0489358
0.275831
-0.267113
0.344435
-0.077322
0.161487
0.286893
0.0204589
-0.0155481
-0.0316781
-0.0334569
-0.0617022
0.0543487
0.0073535
0.135843
0.159134
0.102022
-0.108452
-0.00343034
0.00847603
-0.298645
0.205552
0.0930934
-0.00296654
0.00557719
0.453127
-0.29164
0.149105
-0.00615011
-0.452775
0.149505
0.30327
-0.488898
0.280795
0.460581
-0.155143
-0.0771216
0.121415
-0.0442937
-0.481012
0.236454
0.244558
0.0710214
-0.00739324
-0.0636281
0.145651
-0.294028
0.404004
-0.0284891
-0.375515
0.278179
-0.497489
0.487698
-0.173607
0.269995
0.237889
-0.25663
0.175415
0.0812156
0.0800939
-0.348569
0.131927
-0.3757
-0.088973
-0.144921
0.220191
-0.0716717
-0.316878
0.0497646
0.333556
-0.173152
-0.325288
0.106315
0.338928
-0.131976
-0.206952
0.0431695
-0.387504
0.100206
-0.417297
0.14335
-0.426558
0.283208
-0.37528
-0.0527058
-0.162261
-0.250236
-0.0329201
0.46531
0.0785597
0.0481214
-0.126681
0.309149
0.138698
-0.447846
0.245476
-0.166215
-0.369118
0.23482
-0.00394792
0.00361808
0.149827
-0.438365
0.288539
-0.452241
0.301878
0.150364
0.0683765
-0.0770066
-0.0174601
0.165803
-0.148343
0.0101814
0.122002
-0.234839
-0.261696
0.36894
-0.331689
0.114567
0.217121
0.0551081
-0.211764
-0.133479
0.0437189
-0.320818
-0.140148
0.460966
0.436665
-0.286839
-0.0496576
-0.0988725
-0.0223378
0.441122
-0.181297
-0.000333336
0.0687098
-0.147687
0.396995
0.122364
-0.00740799
-0.114956
0.0425935
0.106511
0.174121
-0.464501
0.290379
-0.553118
0.257881
0.284081
-0.517118
-0.0252302
0.429234
0.00367339
-0.00327068
-0.443509
0.161267
0.282242
-0.251889
0.446606
-0.311142
-0.135463
-0.179938
-0.352087
-0.0594794
-0.310613
0.279039
-0.450786
0.171747
-0.357975
0.240105
0.11787
0.14845
-0.465429
0.453712
-0.078169
0.280686
-0.191966
0.507318
-0.315352
-0.372606
0.311457
0.259684
-0.403488
0.143804
0.308923
-0.112012
-0.196911
-0.459206
0.343098
0.116108
-0.152303
-0.466406
0.283956
-0.12918
0.148291
-0.448639
-0.139759
0.458085
-0.390156
0.0110679
0.379088
0.28254
0.154497
0.16895
-0.0145958
-0.154354
-0.383944
0.0318255
-0.108947
0.00165398
0.00339042
0.242017
-0.256512
0.0144948
0.072342
-0.22255
-0.00228506
0.170971
-0.168686
0.285855
0.175717
-0.0196008
-0.146299
-0.311477
0.402376
-0.0908987
-0.186088
0.0228174
0.0171506
0.199755
-0.108984
0.311591
-0.202607
-0.00137282
0.0322346
0.169104
-0.148626
-0.0204784
-0.00854597
-0.0415993
0.412568
-0.414049
0.00148186
-0.370842
-0.140633
0.114656
-0.00749268
0.315578
0.00454197
-0.32012
0.303118
-0.103456
-0.080616
0.00743185
0.0731841
-0.0455691
-0.218703
-0.224681
-0.100608
0.181613
0.257119
0.0814379
-0.459039
-0.0768207
0.086092
-0.00927134
-0.268148
-0.194405
0.462553
-0.394397
0.267871
0.204467
0.0462928
-0.165185
0.395486
-0.230301
0.433525
-0.0209576
-0.335839
0.0458521
0.190332
0.130219
0.300254
0.160327
-0.112295
0.423814
0.238694
-0.240384
-0.150043
-0.253993
0.223264
-0.38845
-0.0737222
0.205318
0.072523
-0.25199
-0.110104
0.516008
-0.243256
-0.272751
-0.383559
0.25412
0.129439
0.0132111
-0.00281786
-0.0103933
-0.281297
0.472649
-0.191352
-0.057267
0.250525
-0.373991
0.103614
0.270377
0.22826
-0.341796
0.357654
-0.225727
-0.176567
-0.292028
0.468595
-0.105891
-0.353315
-0.0375823
0.353161
-0.327346
0.102665
-0.205777
-0.0114904
0.217267
0.260196
-0.149663
-0.433562
0.266314
0.0375501
-0.00276012
-0.03479
0.283711
0.147413
-0.431124
0.124801
-0.02146
-0.103341
-0.0742051
0.24962
-0.134276
0.39396
0.408892
-0.251082
0.103947
0.25992
-0.363867
-0.279752
-0.103504
0.383257
-0.102864
0.425112
-0.100763
0.0448479
0.00238441
0.145879
-0.163339
0.273682
0.11337
-0.295398
0.446095
-0.045585
0.0944567
-0.337365
0.242908
0.289913
-0.15407
-0.273986
-0.0681453
-0.304461
0.233005
0.407496
-0.219754
-0.187741
-0.32414
-0.169767
0.133731
0.214269
-0.348
0.385966
-0.147326
-0.31693
0.22846
0.0884705
-0.225543
0.0192857
-0.140696
0.356839
-0.216144
-0.111094
-0.31616
0.00468286
0.00698128
0.0689907
-0.30405
0.294427
0.0712889
-0.362252
0.290964
0.374314
-0.238708
-0.254181
0.221839
0.032342
-0.293453
0.474929
-0.270283
0.371627
-0.101344
0.503764
0.163652
-0.155825
0.243047
-0.380468
0.137421
-0.138487
0.385923
-0.363405
-0.0225181
-0.0928686
0.341532
0.292297
0.14169
-0.433987
0.27199
-0.447429
0.175439
0.0258648
0.360059
0.167657
-0.162789
-0.189385
-0.457857
0.234166
0.211473
-0.334428
0.122955
0.328112
0.156457
0.206957
0.0956092
-0.302566
0.376456
-0.235546
-0.0956277
-0.158553
0.4875
-0.314192
-0.0216479
0.0190119
-0.0111144
-0.379311
0.0995585
0.511091
-0.323996
-0.187095
0.206469
0.0796697
0.203222
-0.22552
0.0222984
-0.231544
0.257078
-0.025534
-0.476
0.399741
0.0762595
0.132116
-0.267382
0.452088
0.110691
0.233843
-0.344534
-0.467191
-0.122528
0.351152
-0.228624
0.264643
-0.162589
0.188268
-0.411877
0.0997016
0.209221
0.310258
-0.106591
-0.203666
0.386018
-0.142971
-0.145613
-0.277379
0.422992
0.0865025
-0.293386
0.206883
0.276587
0.081775
-0.0772772
-0.00449776
0.368083
-0.264136
-0.386348
-0.0551631
-0.264341
0.179013
0.0853285
-0.435926
0.30192
0.134005
0.444309
-0.172319
0.00495429
-0.343601
-0.145297
-0.19898
0.294664
0.204818
0.306273
0.279655
0.15759
-0.437244
0.0411455
0.0851345
-0.12628
-0.123914
-0.292157
-0.149594
0.314556
0.114351
0.183863
-0.298214
-0.221703
-0.1148
-0.148116
0.262916
-0.226048
0.307292
-0.0812435
0.0891529
0.0356476
0.363649
-0.380734
0.141029
0.249723
-0.390752
-0.366968
0.145491
0.221477
0.179328
0.074261
0.0347437
0.00280642
-0.0296122
0.0267398
0.00287249
0.0751102
0.145081
0.128891
0.245641
-0.00683437
0.147446
-0.140612
-0.287659
0.407806
-0.120147
0.482314
-0.321193
-0.393333
0.128886
0.264447
-0.125684
-0.263167
0.38885
-0.106552
-0.388472
0.103391
-0.189458
0.0216051
0.452654
-0.206472
0.238699
-0.344212
0.105513
0.233199
0.0961382
-0.329337
0.203234
-0.307922
0.104688
0.466196
-0.174689
0.418478
-0.14088
0.00401811
0.0670033
-0.388494
0.102595
0.252258
-0.377932
-0.148281
0.429232
-0.280951
0.300364
0.193648
0.0358449
0.220001
-0.337455
0.067172
0.157255
-0.441135
-0.122303
0.29405
-0.171747
-0.132663
0.3181
0.383813
-0.0558792
-0.327934
-0.173142
0.19286
-0.0197176
0.0541582
-0.246805
-0.443798
0.154169
0.289628
0.0471788
0.217464
-0.192613
0.149136
0.294534
0.161431
0.0157041
-0.0449397
0.169821
-0.258862
0.089041
0.00781277
-0.0380585
0.0302457
-0.165671
0.212168
-0.352863
0.136693
0.272199
-0.0374065
-0.0837213
0.0558517
-0.239091
0.18324
0.284514
-0.313852
0.029338
-0.289633
-0.162608
-0.248557
0.0427809
-0.160472
0.092277
0.0681951
-0.279748
-0.043193
0.322941
0.331855
-0.120383
-0.15824
0.360242
-0.202002
0.0364152
0.308572
-0.344987
-0.190593
-0.353279
-0.00704657
0.360326
-0.0349088
0.0241474
0.44361
-0.306576
-0.137034
0.0779442
-0.414076
0.126655
0.287421
0.457227
-0.164482
-0.17226
0.457345
-0.285085
-0.497721
0.199664
0.298057
0.30007
-0.0131452
-0.266603
-0.176756
0.232608
-0.218242
0.445672
-0.22743
-0.264011
0.449499
-0.278317
-0.171182
-0.238108
0.315976
0.16424
-0.000447587
-0.0013572
0.00180479
-0.309183
-0.250358
0.241873
-0.406534
0.151884
0.0561719
0.441128
-0.273785
-0.167344
-0.174658
0.192718
0.456974
-0.442357
-0.014617
-0.163122
0.283842
-0.12072
0.154708
-0.107612
-0.0470958
-0.0888346
0.278366
-0.189531
-0.00573814
0.293708
-0.46612
-0.390987
0.265303
-0.270689
-0.210323
-0.168052
-0.365592
0.533644
0.238256
0.00739477
0.199815
0.0110336
-0.210848
-0.226135
0.273711
0.129175
-0.424439