/*--------------------------------*- C++ -*----------------------------------*\
| =========                 |                                                 |
| \\      /  F ield         | OpenFOAM: The Open Source CFD Toolbox           |
|  \\    /   O peration     | Version:  v2012                                 |
|   \\  /    A nd           | Website:  www.openfoam.com                      |
|    \\/     M anipulation  |                                                 |
\*---------------------------------------------------------------------------*/
FoamFile
{
    version     2.0;
    format      ascii;
    class       volVectorField;
    location    "250";
    object      ddt0(U);
}
// * * * * * * * * * * * * * * * * * * * * * * * * * * * * * * * * * * * * * //

dimensions      [0 1 -2 0 0 0 0];


internalField   nonuniform List<vector> 
18540
(
(0.000164814 -0.000587024 -4.69215e-22)
(-0.00185193 -0.00178498 0)
(3.47343e-06 -1.65665e-07 -8.51362e-23)
(-0.00762971 -0.000285321 8.755e-22)
(-0.000164413 0.000119535 0)
(0.000113168 -0.000114753 0)
(0.000202986 -8.5294e-06 2.89257e-24)
(0.0270453 -0.0403291 -1.42579e-23)
(-2.92378e-05 6.80746e-05 0)
(-0.00053439 0.000203546 -3.13523e-22)
(-0.000226181 -0.00013058 0)
(-0.0181291 -0.00262891 2.9132e-21)
(0.00197084 -0.00727187 2.84465e-22)
(0.0181716 -0.0558817 -2.09607e-21)
(-0.000159189 0.0001582 0)
(-1.62782e-05 6.54325e-05 -6.07441e-23)
(0.00194759 -0.00269839 -1.28199e-21)
(2.41145e-05 -5.11229e-05 0)
(9.31199e-06 1.58912e-05 0)
(0.000205449 -2.90791e-05 1.24516e-23)
(0.00158492 -0.000228024 2.31794e-22)
(-2.07612e-05 -1.67909e-06 -1.62223e-23)
(4.47582e-05 2.91962e-05 4.96379e-23)
(-8.68351e-05 -0.000170986 0)
(3.90917e-06 1.05462e-07 1.65889e-22)
(-0.000182439 0.000152381 0)
(-4.6726e-05 -2.48805e-05 5.75848e-23)
(0.0150249 -0.0160513 1.63844e-21)
(-0.00532251 -0.00389408 4.56382e-23)
(0.0112669 -0.0546794 -3.59151e-21)
(0.0272143 -0.0234635 0)
(-8.05865e-06 -1.96234e-06 -2.11162e-22)
(0.000299718 -0.000174704 -4.4214e-23)
(0.00169457 -0.00334314 1.4095e-22)
(-0.000168085 0.00010196 -3.39372e-22)
(-0.000287158 -0.00170568 0)
(0.0225997 0.0186809 -1.19913e-22)
(2.02954e-05 0.000111795 -4.88603e-22)
(-0.000104443 -0.00130263 0)
(0.000594719 -0.000594643 -6.29244e-22)
(0.000983501 0.00029671 0)
(-0.00226371 -0.00210003 1.0973e-23)
(9.36612e-06 1.7374e-05 0)
(-8.71715e-05 -0.000258702 0)
(0.000306855 -0.00053454 0)
(5.17497e-06 -9.94043e-07 -3.0986e-22)
(-0.0262426 0.10107 -2.99639e-22)
(8.78893e-05 -0.00277889 0)
(0.000484822 0.00163292 0)
(-0.0100415 0.000842381 4.93628e-22)
(0.0223018 0.0145765 0)
(5.45415e-06 4.6405e-08 1.07901e-22)
(2.92152e-07 -7.32619e-07 0)
(0.000715168 0.000375267 5.33375e-22)
(-0.00550795 0.00309936 8.55768e-22)
(0.0195594 -0.0234072 9.21194e-23)
(0.000641186 -0.000559608 8.21394e-22)
(0.000119962 0.000333225 2.7995e-22)
(0.000207501 -0.000585703 3.77139e-22)
(0.00155907 -0.000347415 0)
(-5.56552e-05 -7.91985e-05 1.72609e-22)
(-1.40167e-06 1.43833e-05 -1.97559e-22)
(4.97014e-06 -7.69606e-06 -7.78093e-22)
(2.96655e-06 -6.17344e-07 0)
(6.86189e-06 1.62054e-05 0)
(3.97972e-05 1.31332e-05 -1.79716e-22)
(0.000894463 -0.00190484 0)
(-0.00611925 0.00327877 0)
(-0.0158647 -0.00261455 0)
(2.99515e-06 -9.69243e-07 0)
(3.28441e-06 3.27229e-07 4.06587e-23)
(-0.00587719 -0.00371094 -1.47267e-21)
(0.000291215 -0.0047155 -1.35958e-22)
(-1.13891e-05 -6.94426e-06 0)
(0.00077317 0.00153913 3.62156e-21)
(0.0138686 -0.0758037 -8.42932e-23)
(0.00120758 -0.00777724 2.32965e-22)
(-0.000152086 0.000179653 0)
(3.30979e-06 2.35481e-07 6.7542e-23)
(0.0190576 -0.0355911 -2.49479e-22)
(0.000287621 -0.000454963 0)
(9.33767e-05 1.73182e-05 -1.3536e-22)
(-2.24758e-05 -1.47615e-06 0)
(5.41992e-05 -2.55599e-05 1.63562e-22)
(-0.000239804 -0.000146041 3.08589e-22)
(3.31696e-06 2.43971e-08 0)
(0.00378185 -0.000878653 -1.41645e-22)
(-7.99694e-06 -2.1179e-06 1.07501e-22)
(-0.000110505 0.000383025 6.22474e-22)
(-0.0107589 -0.00018181 0)
(0.0046694 -0.0260718 1.21902e-21)
(-0.000586383 -0.0014718 -8.64214e-22)
(0.00111445 -0.00626654 0)
(-2.17181e-05 1.41911e-05 -6.10672e-23)
(2.26923e-05 2.58788e-06 -7.64558e-23)
(9.42052e-05 0.00132012 0)
(0.00403961 -0.000601669 -2.95318e-23)
(1.53541e-05 -9.8042e-06 4.8721e-23)
(0.0221925 -0.0401745 -2.95189e-22)
(0.00017655 -5.34613e-06 -1.13168e-23)
(2.09237e-05 -3.0252e-06 -1.23337e-22)
(0.00550561 0.00498493 0)
(0.000172003 1.24679e-05 1.21085e-23)
(1.40823e-05 -1.00791e-05 0)
(6.31238e-05 1.20988e-06 -3.25044e-22)
(2.33483e-05 -1.37034e-06 0)
(0.000235545 -3.6614e-05 -1.85852e-22)
(0.0102778 0.00837284 3.11746e-22)
(-0.00154428 0.00219883 -1.32321e-21)
(2.64167e-06 3.46886e-06 1.93685e-24)
(-6.15688e-05 -0.00044762 -3.92323e-22)
(-1.30153e-05 -3.74709e-06 7.27661e-23)
(-6.76541e-05 0.000349197 -5.80986e-22)
(1.15801e-05 1.7153e-05 0)
(2.03549e-05 -6.56735e-06 1.32841e-22)
(1.77936e-05 -7.25751e-06 0)
(0.000219644 -0.000276399 -3.10776e-22)
(1.05624e-05 -3.9618e-05 8.13934e-23)
(-0.000151434 -0.000292738 -2.10392e-22)
(3.46428e-06 8.74129e-08 -6.6593e-23)
(1.39489e-05 -9.0901e-06 6.8898e-24)
(5.83228e-05 -0.00145105 0)
(0.00589543 0.00331798 -2.84409e-22)
(-2.30208e-06 8.55647e-06 4.48443e-23)
(-0.000177023 0.000826659 5.05775e-22)
(0.00624087 0.00404374 0)
(0.000233801 -6.37116e-05 0)
(0.00191917 -0.0253212 1.60623e-21)
(5.57961e-06 1.34508e-05 3.47672e-23)
(-1.09201e-05 -9.66279e-05 0)
(0.0176867 -0.00806347 0)
(-0.000105992 -0.000300481 1.62573e-22)
(5.70185e-06 -5.3252e-06 0)
(0.005212 0.00375285 4.33616e-22)
(-9.89282e-06 -1.17908e-06 1.64384e-22)
(-0.000185273 0.000129955 0)
(4.37313e-06 -1.61078e-07 0)
(-9.21767e-05 -0.000455574 3.50391e-22)
(5.00602e-06 -5.26244e-06 3.88525e-22)
(1.64583e-05 -1.01956e-05 0)
(0.000141001 -0.000144519 0)
(4.39941e-06 -2.17878e-07 0)
(2.84995e-06 3.16427e-06 2.93733e-24)
(-6.13508e-05 -7.29308e-05 0)
(-0.0089809 0.000797257 0)
(-5.46386e-06 0.00339278 7.26121e-22)
(-0.00862808 -0.000362996 -2.56352e-21)
(0.019833 -0.0407795 0)
(4.27951e-06 -4.87808e-07 -2.32896e-22)
(6.5298e-06 1.67168e-07 0)
(-0.000993966 0.00245755 -1.48466e-21)
(0.00387009 -0.00184894 0)
(4.9561e-05 -5.84086e-05 0)
(1.56687e-05 0.000100123 2.88728e-22)
(6.18375e-05 -2.22896e-05 0)
(1.59948e-06 -7.39773e-07 0)
(-0.00273962 0.0282324 0)
(-0.000170326 0.0003211 -3.6081e-22)
(2.99373e-06 1.39364e-05 -2.64707e-22)
(0.0243433 -0.041211 1.5923e-21)
(-0.0199661 0.0246505 2.91676e-21)
(-0.000256496 0.00693781 -1.31237e-21)
(0.000414652 0.0035928 -8.32307e-22)
(0.0512447 -0.052242 1.8025e-20)
(0.00308433 0.0053357 1.38592e-21)
(-0.00011968 0.000304133 -3.62237e-22)
(0.000911405 -0.000526376 1.73282e-22)
(-1.28523e-06 8.37946e-06 5.31972e-22)
(2.68677e-06 3.3766e-05 0)
(-0.000110184 0.00084285 -4.75757e-22)
(0.00827415 0.00319579 1.78426e-22)
(3.31915e-06 9.1492e-08 0)
(-0.000436236 -0.00145283 7.77402e-24)
(0.0152658 -0.00394183 6.55214e-22)
(-0.0132885 -0.0198227 2.41131e-21)
(-0.00167199 0.0259074 -1.01188e-21)
(-4.44976e-08 -5.75122e-07 3.2644e-23)
(-0.00223883 -0.000802825 3.29086e-22)
(5.12735e-06 3.45346e-08 -5.38212e-22)
(1.54201e-06 1.4821e-05 2.08327e-22)
(-0.000863968 0.00656919 -1.08092e-22)
(-0.00123024 0.00250273 1.24207e-21)
(2.79005e-05 -8.31819e-05 -8.7169e-23)
(2.0946e-06 -9.30655e-07 -1.39732e-22)
(0.000141797 2.81207e-05 1.04842e-22)
(0.000883337 -0.000673294 3.33709e-22)
(-0.00225821 -0.000104732 -2.46718e-21)
(0.021811 -0.00434887 -3.61124e-22)
(-0.0148615 -0.00117368 7.7126e-23)
(0.00129911 0.000353351 5.93082e-22)
(0.000361056 -0.00313533 3.54661e-22)
(0.047505 -0.0590456 -3.94042e-22)
(-8.83444e-06 6.31547e-05 2.51607e-22)
(0.0258214 -0.0458734 6.19798e-23)
(1.03645e-05 0.000344849 1.8593e-22)
(-2.44101e-06 1.30854e-05 -2.30339e-22)
(-0.0120541 0.0269834 5.19487e-21)
(-0.00248499 0.00249482 -5.98875e-22)
(3.58674e-06 4.64005e-08 6.01448e-23)
(0.00326416 0.0048498 -1.6876e-21)
(7.08537e-05 -2.54181e-05 -3.90843e-23)
(-0.00107523 0.000443084 2.34626e-21)
(0.000106047 -0.000473679 -2.54737e-22)
(-5.80278e-05 -8.61949e-05 0)
(-2.20665e-05 -1.74433e-06 -1.80457e-23)
(6.03252e-06 1.26886e-07 -1.12939e-22)
(-0.023091 -0.0220879 7.25098e-22)
(0.00562764 0.00222548 6.45297e-22)
(-0.0269442 -0.0279834 0)
(0.0127809 -0.0419151 4.62733e-21)
(3.65577e-06 -2.27304e-06 -7.84199e-23)
(0.000147629 1.26912e-05 -1.59447e-22)
(-1.66552e-05 4.92934e-05 -2.54246e-22)
(-0.000479648 -6.1597e-05 0)
(0.00105416 0.00140557 2.2804e-23)
(0.026795 -0.0247765 2.3849e-22)
(-0.000135324 -0.00154386 -6.28735e-24)
(0.000555139 -0.00262204 0)
(-0.0189092 -0.00435355 -2.91997e-21)
(0.0246974 -0.0559122 0)
(-0.00358558 0.000206071 0)
(0.000390941 -0.00067457 0)
(0.0165056 -0.042121 2.83847e-23)
(-0.00416068 0.00538835 -2.21019e-21)
(-0.000330815 0.000263675 -6.32822e-22)
(1.56387e-05 -4.18939e-05 0)
(-0.0161411 -0.0233863 1.133e-21)
(0.00133732 -0.0040807 5.30462e-23)
(-0.00306846 0.0132811 -1.53891e-21)
(-0.000478023 0.00188236 5.38862e-22)
(0.00104455 -0.00363549 -3.92159e-22)
(-5.83607e-05 -2.58543e-05 -2.51884e-22)
(-0.0199829 0.0376937 0)
(0.00113305 0.0015577 -4.23854e-22)
(0.00118477 -0.0056983 0)
(0.000904918 0.000327175 1.44626e-23)
(0.00149392 0.000384877 2.88478e-22)
(-0.000124134 -0.000186951 -3.04244e-22)
(0.000539879 -0.000674798 0)
(-2.06697e-05 1.29484e-05 -6.51408e-23)
(0.00235379 -0.00218587 -1.0204e-21)
(-0.00154243 -0.00201328 0)
(1.9536e-05 -0.000143248 0)
(5.99721e-06 5.37663e-08 -2.3129e-22)
(3.7137e-05 7.57408e-06 2.70492e-22)
(5.27104e-06 -6.916e-06 4.89854e-22)
(-0.00779215 0.0052175 6.11286e-21)
(0.000112374 0.000463583 3.34707e-22)
(1.23744e-05 -0.000149829 -2.84175e-22)
(0.00443623 0.00118088 5.25454e-22)
(-5.1697e-05 -0.000259442 0)
(0.0160754 -0.0339219 -7.61031e-21)
(7.04958e-05 -3.02203e-06 1.06936e-22)
(2.78735e-06 -1.1738e-06 -2.56524e-22)
(-0.0211446 -0.0201126 -5.42074e-21)
(-0.00388286 0.000138575 0)
(-0.00743378 0.0262588 -2.71229e-21)
(0.0392639 -0.0251783 7.86515e-22)
(-0.0121409 -4.53402e-05 -2.74317e-22)
(0.0183735 -0.0562895 0)
(-0.0154296 -0.0283727 0)
(0.0370449 -0.0384142 -4.39646e-22)
(-0.0196137 -0.0281619 0)
(-0.000981 -0.00127199 -5.66473e-22)
(-0.000369307 0.000194075 6.31818e-22)
(-0.0146207 0.0899584 -4.1463e-22)
(8.3252e-06 -2.07834e-06 -2.07466e-22)
(0.000268933 -7.83548e-05 0)
(-0.00213736 0.00253541 -5.32808e-22)
(3.54592e-06 1.08364e-05 0)
(-1.33535e-05 -1.06854e-05 3.04196e-22)
(0.00555113 0.00132675 0)
(-2.53179e-06 -2.81646e-06 -1.09549e-22)
(6.7931e-05 1.03547e-05 3.52669e-22)
(3.05758e-06 -9.86135e-07 0)
(8.88942e-06 -2.39915e-06 2.10688e-22)
(0.000267428 -0.000110877 1.41987e-22)
(0.00107449 0.000521047 6.14254e-22)
(-0.0185032 -0.0211569 0)
(0.00223571 -0.00122208 -1.11419e-21)
(4.67999e-06 6.44895e-07 2.34334e-22)
(7.06178e-05 -1.59434e-05 -6.12765e-23)
(-0.000304994 0.00303545 0)
(3.32782e-06 -2.36397e-06 7.44608e-23)
(-0.0070114 0.00413424 0)
(-0.00863374 0.00846929 3.13173e-21)
(2.74196e-05 -5.6236e-05 0)
(0.000197523 -0.000169277 1.98366e-23)
(0.00758846 0.00444732 1.12975e-22)
(-0.0435603 0.0529724 3.84243e-21)
(-0.000310317 0.000205496 -4.31389e-22)
(-0.00053336 -0.00097791 1.73376e-22)
(0.00176092 -0.00408346 0)
(0.00101561 -0.000461546 1.83119e-22)
(1.46056e-06 4.48471e-06 2.61524e-23)
(1.23741e-05 1.46992e-05 0)
(0.00114024 -0.0045707 4.50953e-22)
(3.1911e-06 4.70957e-08 0)
(-0.000108691 -0.000186906 3.23731e-22)
(-0.00247059 -0.00384805 5.39296e-22)
(-1.46811e-05 1.97593e-06 0)
(0.00425394 0.000492952 0)
(3.29804e-06 -2.30262e-06 9.92749e-23)
(-0.0214289 0.048097 -1.4776e-21)
(0.00137895 0.000438679 -9.17182e-22)
(2.66575e-06 -1.11631e-06 0)
(0.00890401 0.00927508 1.16996e-21)
(3.29351e-06 4.43317e-07 -3.62707e-23)
(0.00280965 -0.0205174 -4.31598e-21)
(-1.21495e-05 4.57599e-06 0)
(9.05136e-05 8.70886e-06 1.20152e-22)
(-0.000337347 0.00021996 1.20659e-22)
(2.47165e-06 5.08449e-08 -9.08228e-23)
(5.8446e-06 1.29542e-07 1.13446e-22)
(0.000788192 0.000353056 0)
(2.03466e-06 4.89585e-07 3.56162e-23)
(0.00299161 -0.00233052 3.43055e-23)
(-0.00017586 -0.00122318 1.3833e-23)
(5.99572e-06 2.13263e-07 2.56081e-22)
(-0.00154307 0.0135064 0)
(2.55741e-06 3.06729e-06 0)
(-4.79263e-05 -2.05636e-05 1.61449e-22)
(4.7343e-06 5.48008e-07 1.49335e-22)
(-2.87113e-05 -1.61834e-05 2.22736e-22)
(-0.011977 0.0461866 5.54674e-22)
(5.97203e-06 4.4207e-08 0)
(4.18998e-05 -0.000414369 6.27043e-22)
(-0.0013484 0.00392759 -5.10872e-22)
(4.81589e-05 -2.85943e-05 -2.16747e-24)
(-0.00060572 -0.00169132 1.24728e-21)
(-0.000112195 3.59367e-05 0)
(-3.18243e-05 -8.03291e-06 0)
(0.000168727 -0.000169098 0)
(3.55248e-06 -2.40999e-06 -9.04131e-23)
(4.43812e-06 -1.86646e-07 1.59267e-22)
(-4.32167e-05 0.000980141 0)
(-0.0226055 -0.00660103 -3.69867e-22)
(-1.72535e-05 -1.54912e-05 8.76267e-23)
(-0.000817781 0.00335139 -1.16148e-21)
(9.55924e-05 -4.95728e-06 0)
(-1.0437e-05 -0.00120597 0)
(-3.74572e-06 4.99225e-06 -4.1694e-22)
(-0.000104047 3.7983e-05 0)
(-1.24297e-06 5.85569e-06 7.84268e-23)
(0.000304577 -0.000132612 -6.16068e-23)
(0.0149446 -0.03802 -7.24725e-23)
(0.000744259 -0.00070177 -2.82685e-22)
(0.0170768 -0.0615947 1.55975e-22)
(1.67903e-06 4.07898e-08 0)
(0.000186564 -0.000203413 -7.74142e-23)
(6.4398e-06 2.78737e-07 0)
(4.3022e-05 2.05284e-05 0)
(-0.000493478 0.000228757 3.07307e-22)
(0.000721833 -0.019584 4.18542e-21)
(0.00436655 -0.00155625 0)
(-0.00710766 -0.00407879 1.68135e-22)
(-1.42768e-05 5.94417e-05 0)
(-1.64282e-05 -1.15537e-05 -2.12682e-22)
(0.0301384 0.0219204 -2.74867e-23)
(1.43688e-05 1.39288e-05 -6.34176e-23)
(4.62472e-06 6.63766e-07 -4.50438e-22)
(-9.1506e-05 0.00103235 0)
(0.00547516 0.00446288 1.15867e-21)
(0.00159245 0.000482353 6.27745e-22)
(-0.000813193 0.00302065 1.22309e-21)
(-1.81575e-05 0.000129083 0)
(-6.06628e-05 6.52586e-05 1.29322e-22)
(2.58996e-05 -3.87713e-05 3.08806e-23)
(-1.52516e-05 -3.60581e-06 0)
(0.00622736 0.00893784 0)
(0.000155582 -0.000182798 0)
(0.0194941 -0.00176166 3.62123e-22)
(-9.34809e-05 0.00151278 0)
(-0.0770006 0.0691861 0)
(-0.0172857 -0.00836994 -2.79781e-21)
(0.0261921 -0.0125942 1.40557e-21)
(-4.93664e-05 -2.7126e-05 -7.69171e-23)
(0.000847592 0.00265187 4.10775e-22)
(-1.73814e-05 -9.28155e-05 4.86047e-23)
(-1.45727e-05 6.85351e-05 0)
(-0.012248 0.0289423 0)
(4.51627e-06 -2.43595e-07 -1.3674e-22)
(-0.000130038 -0.000244276 4.68099e-22)
(1.03558e-05 -3.42502e-05 5.85311e-23)
(0.00336315 -0.00295621 0)
(-0.000265297 -0.000137 -5.88502e-22)
(-0.000242545 0.00117664 0)
(-5.69567e-05 7.20262e-05 -1.02096e-22)
(-0.0143075 0.0233531 -3.34334e-21)
(0.00477849 -0.000275177 4.09941e-22)
(-0.000210831 0.000996143 6.80093e-22)
(0.000275907 0.00108893 1.97059e-21)
(2.90657e-05 -6.48776e-05 -1.70729e-22)
(0.00772858 0.0406169 -6.85366e-22)
(0.0252331 0.0355087 0)
(0.00394905 -0.00132829 4.34232e-22)
(2.45516e-05 5.19344e-06 0)
(-8.37884e-06 -0.00022435 2.10533e-22)
(0.0125867 -0.0386282 5.89238e-22)
(3.73998e-05 -7.75047e-05 0)
(-9.24285e-06 1.89658e-05 2.59161e-22)
(-0.0812869 0.0827597 -9.40006e-23)
(0.00328901 -0.00160052 5.10481e-22)
(-0.000972067 -0.00348574 -4.18296e-22)
(3.89109e-06 1.11216e-08 -3.92742e-23)
(0.000139595 0.00037982 -2.51826e-22)
(8.51948e-06 6.03379e-05 0)
(0.00184172 -0.00659364 -2.0359e-22)
(5.44786e-06 6.89472e-08 3.36586e-22)
(0.00223574 0.000644663 1.00426e-21)
(0.0222389 -0.0278714 -2.21261e-21)
(-8.3482e-06 7.15116e-06 0)
(2.3537e-06 6.67305e-05 -8.7767e-23)
(1.38197e-06 4.71557e-06 1.84447e-23)
(-0.00211596 -0.00232443 -2.69585e-22)
(0.0150346 -0.002789 2.35573e-22)
(-2.65899e-06 -4.50382e-06 -3.40085e-22)
(0.00354156 -0.00244437 1.57689e-21)
(6.0015e-06 3.07724e-05 2.1029e-22)
(0.0201832 -0.00710383 -1.16086e-21)
(-0.0764694 0.067122 0)
(3.28672e-06 -4.67394e-06 0)
(-4.6413e-06 1.77776e-05 -1.17288e-24)
(-0.00162044 -0.00225039 9.3396e-22)
(0.00548016 0.00383222 -1.71075e-21)
(2.08558e-05 8.16684e-05 0)
(6.39645e-06 1.1815e-07 1.46731e-22)
(0.000347293 0.001317 0)
(-0.0185729 -0.0155319 -6.05365e-21)
(-1.67084e-06 1.12781e-05 0)
(-0.000367292 0.000289193 0)
(-5.74924e-05 -6.59444e-05 0)
(3.80786e-06 1.80671e-05 -2.01775e-22)
(-6.19115e-06 0.000102852 -1.89191e-22)
(4.07461e-06 -3.40592e-08 -3.65767e-22)
(1.69367e-07 2.06396e-05 1.02695e-22)
(3.40015e-06 1.30754e-05 3.77371e-23)
(-0.031618 0.00892465 0)
(-7.32094e-05 -0.000261177 0)
(-0.000520231 -0.000155779 -7.81792e-22)
(-0.0712487 0.0545704 0)
(-0.0324064 0.0100684 1.397e-20)
(-0.0102106 0.00776799 -4.3153e-21)
(0.00200468 0.00108298 2.72707e-21)
(6.58686e-06 4.10762e-06 -3.7937e-22)
(-0.000440814 7.79601e-05 -6.46394e-22)
(2.85619e-06 -4.38264e-06 -1.13328e-22)
(-0.0150946 -0.0400315 -1.69846e-22)
(1.0744e-05 3.79153e-05 -1.04947e-22)
(1.72804e-06 8.11438e-06 1.74406e-22)
(0.000333314 0.00105608 0)
(1.99028e-05 -6.01413e-05 -1.42856e-22)
(-1.23783e-05 -2.99585e-06 1.03954e-22)
(-0.0020032 -0.0014575 0)
(-1.9687e-05 -2.05068e-06 0)
(-0.00208378 -0.00196762 -3.09575e-21)
(0.0325464 -0.0550674 0)
(3.90346e-05 -5.5929e-05 -1.8836e-22)
(-0.00247579 -0.00231013 2.6955e-22)
(8.808e-07 3.19665e-06 2.27191e-23)
(6.37015e-06 -3.206e-05 -7.79546e-23)
(-2.17797e-05 4.96616e-05 0)
(-0.0306274 -0.00847899 2.94034e-22)
(-1.26173e-05 -3.89539e-05 2.96317e-22)
(0.019422 -0.0240405 0)
(-0.00867499 -0.0024453 -2.19267e-22)
(-0.000381599 0.00010908 4.2502e-22)
(0.00300596 -0.0313565 -6.71831e-21)
(-1.05171e-05 6.02257e-06 3.50384e-23)
(0.0242522 -0.019898 -3.17638e-22)
(0.00128168 -0.00203394 6.33115e-22)
(-0.0311116 -0.000111056 7.56889e-23)
(5.34906e-07 4.76614e-06 -3.01839e-22)
(-1.3096e-06 4.63898e-06 -5.19202e-23)
(2.96714e-06 -8.33543e-08 -1.07872e-23)
(-0.000428727 -1.52001e-05 0)
(0.0261992 -0.0318523 -4.33543e-22)
(0.000789453 -0.000446062 3.75665e-23)
(0.00142806 -0.00257473 7.06593e-22)
(5.5844e-06 1.61514e-07 -2.31619e-22)
(0.00344923 -0.00217572 0)
(2.94438e-06 -1.26304e-07 1.01959e-23)
(0.00164058 -0.00228747 -5.18148e-22)
(0.0120913 -0.000949468 -2.41657e-22)
(-2.55792e-06 1.01886e-05 1.90459e-22)
(-1.06838e-07 -1.74285e-07 1.3008e-22)
(0.00455636 0.000115586 5.42191e-22)
(-0.000102254 -0.000170069 -4.90701e-24)
(0.0131219 -0.0435444 0)
(5.91503e-06 2.97136e-07 -4.01339e-22)
(0.00368296 -0.00156458 0)
(-2.42656e-05 4.35704e-05 -2.49701e-24)
(-0.0143653 0.00202482 -1.40362e-21)
(8.60946e-05 -0.00129244 1.449e-22)
(-0.0342053 0.0467661 1.67872e-20)
(-0.00657258 -0.00122645 1.00802e-21)
(0.00107081 -0.00128584 0)
(-2.05549e-05 3.47595e-05 -6.34526e-23)
(4.39895e-05 -1.61748e-05 -1.10052e-24)
(-2.37061e-05 -2.87797e-05 -1.13061e-23)
(0.0024581 -0.0101616 -1.29963e-22)
(3.50389e-06 1.74588e-07 -7.51315e-23)
(0.000828761 -0.0165779 1.44403e-22)
(-1.93695e-05 -2.42856e-06 1.53822e-23)
(0.0264299 -0.016441 -3.59381e-22)
(5.48164e-06 7.62918e-07 -1.43789e-22)
(-6.91204e-06 -2.8793e-06 1.82862e-22)
(4.54866e-05 0.000110499 4.92445e-22)
(4.12456e-05 -1.92914e-05 9.10187e-25)
(-7.55102e-07 5.29538e-06 4.94643e-23)
(0.000570281 -0.00208638 0)
(0.0033897 -0.0172376 -1.81661e-22)
(-5.53615e-06 -0.00125056 0)
(0.0361878 0.0106505 1.9422e-21)
(-0.00168607 0.000958466 2.50616e-22)
(0.001122 0.00132639 5.7451e-22)
(0.00160042 0.000975727 -1.26539e-21)
(-7.91248e-07 0.000137106 -4.22815e-22)
(-0.00736561 -0.00254433 0)
(-1.41122e-05 -3.49733e-06 4.51732e-23)
(-1.18628e-06 6.77317e-06 1.00237e-22)
(-1.64741e-05 9.5813e-05 4.79932e-23)
(-5.45138e-06 -2.81626e-06 0)
(0.0169359 -0.00606864 0)
(0.00685413 0.0117255 4.44424e-22)
(0.0360308 0.011618 0)
(-6.31854e-05 4.45647e-05 -3.38301e-22)
(-2.16226e-05 -5.01715e-05 0)
(-0.000179552 -0.000442569 0)
(0.00888415 -0.0334978 -4.372e-21)
(5.23128e-06 -1.45605e-06 1.60895e-22)
(0.0252833 -0.0383593 -3.46047e-23)
(-0.000283483 -0.000154531 0)
(-2.63936e-05 -9.96558e-06 3.0981e-24)
(-5.12479e-06 -4.1497e-05 4.19127e-22)
(-1.86464e-05 1.02545e-05 0)
(4.69122e-05 0.000148189 -2.02135e-22)
(-2.68985e-05 -4.30871e-05 9.69059e-23)
(8.03397e-05 -3.07086e-05 3.85084e-23)
(-0.00174533 -0.00132289 2.63205e-24)
(-0.000267018 -0.0126986 0)
(-0.00204553 0.0012523 0)
(0.0206579 -0.0510455 2.32388e-22)
(3.51412e-06 1.33635e-07 1.8384e-22)
(-1.63142e-05 4.9336e-06 2.29781e-22)
(0.00320059 -0.0151047 -1.99531e-22)
(0.0004841 -4.90021e-06 0)
(5.37792e-06 2.11824e-07 -5.73854e-22)
(0.02455 -0.0406058 -8.58086e-22)
(0.000819481 0.000395638 0)
(-5.45864e-05 -2.9079e-05 0)
(-4.8418e-05 -3.50277e-05 -2.58087e-22)
(0.0375575 -0.0186075 0)
(-0.00562806 -0.00142117 -8.32658e-22)
(3.68715e-05 5.02781e-06 0)
(8.03825e-05 -0.00288178 3.1491e-23)
(-0.00141756 -0.0306972 -4.93004e-21)
(-2.3504e-05 1.36388e-05 5.54692e-23)
(-0.00132463 0.0790748 3.81194e-22)
(0.000283 -0.000276461 3.48961e-22)
(-8.74057e-05 2.4119e-05 5.21003e-22)
(0.0152332 -0.0536877 -1.88227e-23)
(0.00138986 -0.0108324 -2.96499e-23)
(-2.24773e-05 -1.71589e-06 -1.09531e-23)
(0.00342299 0.0194547 5.13291e-21)
(3.12124e-05 7.89693e-06 0)
(-0.000206558 0.00203114 4.62444e-22)
(-6.07734e-05 0.000108183 0)
(1.34841e-05 -0.000284228 -6.76343e-23)
(0.0016991 -0.000200885 -8.71371e-22)
(-6.67126e-05 9.86607e-05 -2.7994e-22)
(0.0052702 -0.018302 0)
(0.0212045 -0.0505874 2.13149e-21)
(3.66128e-05 0.00184057 -9.81302e-22)
(0.00173137 -0.00548069 -2.11917e-22)
(0.000209838 0.00106595 -1.71784e-21)
(0.00131511 -0.00872026 0)
(-0.00379833 0.00447542 3.74174e-22)
(-1.8414e-05 -2.74506e-05 0)
(-0.0300561 0.0452435 -2.40536e-22)
(0.000982091 -0.0163648 2.23358e-22)
(2.76929e-06 -1.07819e-07 7.78566e-23)
(-6.54986e-07 5.65617e-06 0)
(-0.000385104 0.00332407 0)
(5.34045e-06 -8.24609e-07 3.67346e-22)
(8.30349e-07 -4.29343e-07 -1.50852e-22)
(2.29812e-05 0.000217079 5.06967e-22)
(1.32383e-05 3.25222e-06 1.66954e-24)
(-3.70672e-05 1.62001e-05 1.92608e-22)
(-3.8816e-05 2.31632e-05 2.29914e-23)
(-9.75884e-05 2.6421e-05 5.62973e-24)
(-0.000741719 0.00520792 0)
(0.000104874 -0.000174216 0)
(5.35583e-05 -0.000154821 5.78723e-23)
(5.44949e-07 7.04153e-06 -6.1356e-23)
(-0.0172423 -0.018805 6.00971e-21)
(0.000166568 -0.000326626 2.77624e-22)
(-3.14761e-06 6.09897e-06 3.32026e-22)
(-0.001515 -0.0116204 4.95645e-22)
(9.03919e-06 -6.44587e-05 1.43455e-22)
(3.0368e-06 -4.2511e-07 0)
(-0.000667658 -0.0153387 0)
(2.7148e-06 2.87886e-06 2.02274e-24)
(5.84999e-05 -5.6964e-06 -1.64216e-22)
(6.58995e-05 2.33315e-06 2.35532e-22)
(0.00524409 0.0290506 -2.06606e-21)
(-1.23874e-05 -3.08815e-06 0)
(-0.000232005 -0.00142414 5.95416e-23)
(5.00818e-06 1.29338e-07 3.23652e-22)
(-1.29105e-05 -3.17385e-06 0)
(-2.77969e-05 -2.70455e-05 1.45395e-23)
(-0.00498155 -0.00052072 0)
(3.18821e-05 0.00131336 0)
(-0.0193156 -0.0117937 3.67214e-22)
(-2.54381e-05 1.54179e-05 2.56291e-22)
(-9.19693e-06 -0.000132277 4.31287e-24)
(-1.11109e-05 4.37039e-05 0)
(-0.000410398 0.000219032 5.14558e-22)
(4.19852e-05 -2.52343e-05 0)
(3.35437e-06 5.98438e-07 -1.27209e-24)
(-6.09483e-05 -1.14503e-05 1.99013e-22)
(1.30705e-05 3.7556e-05 -2.40889e-22)
(0.000177626 0.00114128 -4.26753e-22)
(4.86096e-06 4.3036e-06 0)
(-0.00118447 -0.00314967 4.14893e-22)
(-0.000951868 -0.000893033 7.89963e-23)
(3.19361e-06 1.01681e-05 1.54977e-23)
(0.0449799 0.00987129 -1.14168e-20)
(3.45134e-06 -6.59481e-08 0)
(9.59526e-06 4.01969e-06 0)
(8.62116e-05 -1.30178e-05 -1.79962e-24)
(2.18059e-05 3.00324e-05 9.55331e-24)
(4.55319e-06 8.30978e-07 -1.56422e-22)
(-0.00100012 -0.000991672 0)
(1.69923e-05 -0.000132539 -4.22934e-26)
(0.00530075 -0.00284665 0)
(6.1828e-05 -7.98391e-06 0)
(-0.00126521 0.0157423 0)
(0.0272496 0.0328336 -1.71974e-21)
(-1.57574e-05 4.06184e-05 -3.60273e-22)
(-0.000670395 0.00244925 -9.17846e-22)
(0.000262417 -0.000188816 -7.23244e-23)
(4.53946e-06 2.86417e-06 -4.65323e-22)
(0.00202583 -0.00170602 5.88834e-22)
(-0.0418464 0.0592353 3.7195e-21)
(0.00162172 -0.00166189 9.18312e-22)
(4.53669e-06 -5.43735e-07 0)
(0.0154524 -0.0055672 2.51743e-22)
(6.93298e-05 -0.000143931 3.53757e-23)
(0.000261845 0.00103358 -4.24713e-22)
(-0.000142734 0.00484793 0)
(-0.0377207 0.0684044 -5.57947e-21)
(3.81428e-05 0.00031483 9.0479e-23)
(-0.00020654 -0.000134146 3.27177e-22)
(-0.00428961 -0.000663166 0)
(-5.01227e-05 -6.5942e-05 -1.90691e-22)
(3.04729e-06 -7.08593e-08 0)
(-0.0027698 -0.00101711 -1.93931e-21)
(-8.03447e-05 -0.000159085 0)
(-3.62567e-05 1.29333e-05 0)
(5.49062e-06 4.38627e-07 4.19316e-24)
(0.0223594 -0.0344254 -3.11086e-21)
(3.46854e-05 0.000125364 2.12083e-22)
(-1.96893e-05 -2.3374e-06 -3.7271e-23)
(-0.000313835 -0.000141664 3.44378e-22)
(3.22589e-05 0.000165065 1.19786e-22)
(-2.63754e-05 -1.09209e-05 -1.9173e-24)
(0.00491041 -0.00341889 2.71443e-22)
(0.0198508 -0.0390448 -9.9766e-23)
(6.50912e-05 0.00010714 -9.65235e-22)
(-4.76918e-05 -6.00637e-05 -1.83772e-22)
(3.31556e-06 4.14067e-07 -7.31542e-22)
(6.97272e-05 9.01658e-05 8.39282e-22)
(-0.00130788 -0.00204175 -5.24212e-22)
(0.000139018 -0.000233765 0)
(-2.70465e-05 -2.97414e-06 -2.31559e-22)
(2.67631e-06 -1.53264e-06 1.7357e-22)
(0.0376465 -0.0185621 0)
(-0.00193681 -0.00149256 -5.52294e-22)
(5.45616e-06 -9.64489e-09 5.48387e-22)
(-0.000214957 0.000211369 4.31995e-22)
(7.7745e-05 0.000332427 2.91639e-22)
(0.000163535 -0.000259295 8.49517e-22)
(-0.00990981 0.00812379 0)
(2.53253e-07 6.21276e-06 -1.68947e-22)
(0.00104439 0.000359443 0)
(-0.0266614 -0.0176739 4.6212e-22)
(2.33716e-06 -5.73401e-05 6.82914e-23)
(-1.28979e-05 -3.16726e-05 -2.13873e-22)
(6.4038e-05 0.000277345 9.21744e-23)
(0.0261465 -0.0213587 -3.09158e-22)
(-1.93429e-05 0.000112644 9.38846e-24)
(-1.71204e-05 9.62817e-05 -1.56738e-22)
(7.98382e-06 -1.48163e-06 -1.59058e-22)
(0.0352016 0.0105863 4.20581e-22)
(0.00745205 0.00816157 -6.19456e-22)
(0.00275095 0.0191504 -3.17295e-21)
(0.00122599 -0.00370429 -4.47842e-22)
(2.85204e-05 2.75775e-05 2.08436e-22)
(8.97505e-06 3.58784e-05 -1.43365e-22)
(0.00185825 -0.00249305 5.43603e-22)
(-2.38997e-05 -1.54161e-06 3.11906e-24)
(0.000139735 -0.000463689 2.51206e-22)
(-0.000335785 -0.000158526 6.99677e-22)
(-0.00307909 -0.0046606 0)
(-0.0325568 0.0103453 2.42923e-22)
(1.76295e-05 2.64771e-05 -8.71468e-22)
(0.000868262 0.000395269 1.75458e-23)
(0.0117981 0.00938154 -1.3544e-21)
(-5.11247e-05 -0.000304274 0)
(1.86095e-06 7.99901e-06 -5.88589e-24)
(-4.72484e-05 -1.09297e-05 0)
(4.4669e-06 2.6395e-06 0)
(-0.00211876 0.000201051 -7.64143e-22)
(-8.06518e-05 -0.000200526 -2.88083e-22)
(7.60173e-06 -1.65341e-06 2.11469e-24)
(-0.00306257 -0.000815697 2.22356e-21)
(-0.000459712 -0.00111012 -1.33248e-22)
(-1.13771e-05 -7.61215e-06 -2.12503e-22)
(-0.00221619 -0.00421269 -6.09762e-22)
(0.00141559 -0.000382918 -1.04715e-22)
(2.24582e-05 5.39359e-05 -8.51992e-23)
(0.0317002 0.0325971 1.38616e-20)
(3.59316e-07 3.91846e-06 -1.75113e-22)
(-0.0334348 0.0260633 0)
(4.8408e-06 -1.99498e-06 -5.70611e-22)
(5.27922e-05 0.00150452 0)
(-0.0342074 0.0135251 4.15641e-23)
(6.24776e-07 -2.46161e-05 0)
(0.000121254 -0.00022273 4.95888e-24)
(-0.000241636 -0.000644562 -4.34875e-22)
(1.55958e-05 4.49518e-05 8.31906e-22)
(0.00163841 0.0104522 1.68487e-22)
(-0.000267215 -0.000320991 -4.0033e-22)
(9.80953e-06 3.37478e-05 1.26909e-22)
(0.0216473 -0.0390167 2.43734e-22)
(2.12046e-06 4.51875e-07 -3.6283e-23)
(2.24324e-05 -0.000132999 0)
(-2.18216e-05 -1.87413e-06 1.98362e-23)
(4.1563e-06 2.47974e-06 -2.89682e-22)
(-0.00701472 -0.00235864 0)
(0.00226581 -0.0090443 -2.65619e-24)
(0.00347482 2.26487e-05 -4.07054e-22)
(-2.09657e-05 -1.92589e-06 -1.94597e-23)
(0.000111423 -0.000212305 4.43397e-22)
(4.3742e-06 8.40693e-06 -3.23109e-23)
(4.41003e-06 -1.17181e-05 -1.22922e-22)
(0.000105821 -0.000466784 -5.40061e-22)
(-0.00055482 -0.00128158 0)
(4.69038e-06 1.85897e-07 1.38134e-22)
(-0.000235504 -0.000325053 0)
(9.07999e-07 3.82802e-06 2.88611e-23)
(-0.00216331 -0.00135649 5.66534e-22)
(2.69168e-06 1.47689e-06 -4.26247e-23)
(-3.22393e-05 -2.37259e-05 -1.1275e-22)
(0.0273432 -0.0258677 -1.57336e-21)
(-0.0399041 0.049311 0)
(-0.00763838 -0.00184905 -1.65928e-23)
(0.00893575 0.0290471 0)
(3.24195e-06 -6.05629e-07 3.44377e-22)
(0.000193338 0.00387523 -5.02203e-22)
(-1.35585e-05 7.31787e-06 -2.22712e-22)
(0.0447632 -0.0461658 -1.74315e-21)
(2.35535e-06 7.43691e-06 -4.36138e-24)
(-7.44356e-07 1.29482e-05 -1.38336e-22)
(-0.00178899 -0.00284157 0)
(0.000246299 0.016007 -1.67104e-21)
(-0.00342298 -0.00511741 6.83107e-22)
(-0.000714744 -0.00140048 -6.56352e-22)
(-1.50994e-05 -0.000144676 4.28735e-22)
(7.80822e-05 -0.000119681 7.00465e-24)
(0.00130741 0.00158666 1.26077e-21)
(7.65503e-06 -0.000134783 -6.55654e-22)
(0.0015698 0.00185875 4.4575e-23)
(-4.0157e-05 0.00115887 6.39894e-22)
(0.0129731 0.0129863 -6.76548e-22)
(0.00436883 -0.016094 0)
(0.00271124 0.000656797 1.16669e-22)
(2.8627e-06 2.29041e-06 4.54186e-23)
(0.0518005 -0.0120351 0)
(0.000431099 -0.000568041 -1.05619e-21)
(0.0221732 -0.0215706 4.60259e-22)
(-2.24457e-05 6.31508e-05 0)
(0.00262605 -0.00105049 -1.18083e-21)
(0.00613739 0.00309832 0)
(8.27408e-06 1.13462e-05 2.25921e-22)
(0.000186286 0.000144697 0)
(0.00349157 -0.00409825 2.05162e-21)
(6.24739e-05 0.000447352 6.9707e-22)
(0.0141019 0.00297456 3.71063e-22)
(2.5804e-06 -3.98918e-07 1.76415e-22)
(2.54662e-06 9.03854e-07 4.1515e-23)
(7.70541e-06 3.2527e-06 -3.57725e-22)
(-0.00037819 0.00137365 1.60589e-21)
(9.94823e-06 0.000308962 0)
(2.86287e-06 -0.000153202 -4.40304e-22)
(0.0177504 -0.0329391 5.78424e-21)
(1.31872e-05 1.02343e-05 0)
(-0.000683498 0.000780618 -4.10492e-22)
(-0.00126375 -0.00150125 -1.46848e-21)
(0.0270921 0.00917353 0)
(8.02339e-05 0.00119665 0)
(2.62815e-06 9.26544e-08 -3.59147e-22)
(-8.13113e-06 0.00436962 0)
(-0.00618075 0.00151096 -1.29658e-21)
(6.15116e-06 -2.89604e-07 -1.16213e-22)
(2.85013e-06 -6.33609e-07 0)
(-0.00396167 -0.000555965 -3.46111e-22)
(-0.00731865 -0.00102029 1.37089e-23)
(0.0251138 -0.0392581 0)
(0.00102981 0.000266111 0)
(0.00166078 -0.0121747 8.39661e-23)
(4.66102e-05 0.00035913 1.72821e-22)
(8.21027e-06 2.53793e-06 0)
(4.99631e-06 -6.71223e-07 0)
(-0.00233438 -0.00109312 0)
(-2.77258e-06 0.000434337 0)
(-0.00111827 0.00228894 8.29295e-22)
(0.0011089 0.00013989 -4.69797e-23)
(2.83132e-06 2.32952e-06 -5.91453e-23)
(0.0511505 -0.0203219 -2.8255e-22)
(0.0181777 0.00230549 1.64627e-21)
(3.10703e-06 -4.56812e-07 -1.09397e-22)
(-0.000571946 -0.00016704 6.80768e-22)
(4.45355e-05 4.90513e-05 -4.87608e-22)
(-0.0232245 -0.00653434 0)
(-1.3077e-05 1.19352e-05 0)
(-0.0034425 0.00248092 6.40441e-22)
(0.0178791 -0.000900222 -3.86935e-23)
(-0.0257802 0.0546671 -1.02737e-21)