/*--------------------------------*- C++ -*----------------------------------*\
| =========                 |                                                 |
| \\      /  F ield         | OpenFOAM: The Open Source CFD Toolbox           |
|  \\    /   O peration     | Version:  v2012                                 |
|   \\  /    A nd           | Website:  www.openfoam.com                      |
|    \\/     M anipulation  |                                                 |
\*---------------------------------------------------------------------------*/
FoamFile
{
    version     2.0;
    format      ascii;
    class       volScalarField;
    location    "250";
    object      k;
}
// * * * * * * * * * * * * * * * * * * * * * * * * * * * * * * * * * * * * * //

dimensions      [0 2 -2 0 0 0 0];


internalField   nonuniform List<scalar> 
18540
(
9.3505e-05
5.70453e-05
8.45226e-05
0.000102669
8.67766e-05
4.48039e-05
8.22781e-05
0.00394716
5.49983e-05
8.75423e-05
8.90133e-05
0.00016082
0.000144991
0.0339219
8.64545e-05
5.48851e-05
6.4811e-05
8.06089e-05
5.98475e-05
8.21004e-05
0.000112857
5.14787e-05
4.93658e-05
9.02182e-05
6.21725e-05
8.662e-05
8.95343e-05
0.0565373
0.000106206
0.0337999
0.0221347
5.45765e-05
8.14863e-05
5.33742e-05
8.69156e-05
6.35748e-05
7.53859e-05
8.47808e-05
5.7441e-05
9.7383e-05
0.000114147
5.71426e-05
8.50337e-05
7.92833e-05
6.3863e-05
5.33467e-05
0.00787236
6.40318e-05
6.02448e-05
0.000109149
7.55813e-05
6.57635e-05
5.50854e-05
0.000114219
9.57795e-05
0.0167199
9.79112e-05
8.44625e-05
9.37782e-05
0.000110981
9.00977e-05
7.64566e-05
7.10857e-05
6.20362e-05
6.00053e-05
5.35316e-05
6.43292e-05
9.68978e-05
0.000135197
6.20863e-05
8.52771e-05
0.000105995
5.31312e-05
6.21511e-05
6.00878e-05
0.00576179
0.000143041
8.63011e-05
8.51218e-05
0.00558478
6.4082e-05
8.27738e-05
5.30793e-05
6.46496e-05
8.91017e-05
8.45834e-05
0.00014952
5.41947e-05
7.55671e-05
0.000113296
8.95868e-05
0.0270846
0.000129462
8.80812e-05
5.33158e-05
6.03962e-05
0.000158157
8.17901e-05
0.001052
8.23134e-05
5.30447e-05
7.62261e-05
8.24887e-05
5.25254e-05
5.32998e-05
5.31471e-05
8.20714e-05
9.59791e-05
7.66846e-05
8.69865e-05
9.15685e-05
6.19418e-05
7.54142e-05
8.47823e-05
5.28859e-05
5.27826e-05
6.419e-05
8.0371e-05
7.90552e-05
8.47421e-05
8.20308e-05
0.0263046
0.00562727
7.70805e-05
8.58444e-05
7.60389e-05
8.18929e-05
8.7519e-05
6.01089e-05
9.11049e-05
0.0114776
7.9258e-05
7.1375e-05
0.00592551
5.07962e-05
8.67629e-05
7.14113e-05
9.14809e-05
7.11639e-05
5.26319e-05
4.46943e-05
7.23563e-05
8.68276e-05
8.99099e-05
0.000104977
8.80501e-05
0.000105851
0.00609419
5.66063e-05
5.62625e-05
0.0112617
7.36225e-05
6.41525e-05
8.48649e-05
6.47289e-05
5.80648e-05
0.000144633
6.75306e-05
7.58817e-05
0.000687373
0.000301298
0.0162387
8.79719e-05
0.0198346
8.96129e-05
6.74633e-05
8.18582e-05
7.69753e-05
7.54495e-05
8.57722e-05
7.63558e-05
8.47487e-05
7.98424e-05
0.00994717
9.12288e-05
0.000136201
5.77449e-05
0.0351515
7.65791e-05
7.60218e-05
0.0164987
7.64997e-05
8.03864e-05
5.51509e-05
8.27116e-05
8.17271e-05
0.0376784
0.000168888
0.000130172
0.000119884
8.16098e-05
0.0204834
8.55196e-05
0.00233584
8.4986e-05
7.66619e-05
0.000198735
0.0177521
8.40636e-05
8.89949e-05
8.19164e-05
0.0364759
6.37646e-05
9.00453e-05
4.68416e-05
6.88943e-05
6.15867e-05
6.69266e-05
0.000102336
0.0319788
8.23848e-05
8.25326e-05
8.60051e-05
6.90361e-05
0.000192205
0.0269308
5.74061e-05
6.42081e-05
0.000181528
0.000472567
9.32114e-05
4.46889e-05
0.00615147
7.82236e-05
8.67314e-05
8.05258e-05
7.64906e-05
0.000115313
0.000103839
7.59222e-05
5.31692e-05
8.92728e-05
0.0244917
0.000215149
0.000125516
0.000114379
0.000123911
9.00495e-05
4.47711e-05
8.82447e-05
6.50157e-05
9.55957e-05
9.16314e-05
6.37709e-05
5.34301e-05
7.11594e-05
7.99166e-05
8.46312e-05
9.1514e-05
6.64132e-05
7.94647e-05
0.0283672
6.50392e-05
8.16675e-05
0.018019
9.35554e-05
0.000167108
0.000381716
0.000118705
0.000633504
0.00666518
0.000886321
0.0204737
6.30329e-05
6.82606e-05
0.00597332
7.28704e-05
8.18648e-05
0.017628
8.57375e-05
5.11415e-05
6.67254e-05
4.94469e-05
5.34163e-05
6.20802e-05
7.27915e-05
8.16905e-05
0.000123698
0.00614703
6.51123e-05
5.55501e-05
8.21302e-05
0.00814895
8.18564e-05
7.94245e-05
0.0492358
8.0432e-05
8.11564e-05
7.64692e-05
0.011266
6.81945e-05
7.93204e-05
0.000118542
8.21076e-05
8.8142e-05
8.46581e-05
5.33518e-05
8.85665e-05
9.01217e-05
0.00010306
5.5783e-05
6.62468e-05
8.17925e-05
0.00606364
0.000124118
8.14811e-05
9.62345e-05
8.55934e-05
8.16931e-05
5.56735e-05
8.26382e-05
8.68867e-05
9.35807e-05
6.99999e-05
0.000113849
8.99615e-05
4.56185e-05
7.99577e-05
6.5607e-05
0.000102472
8.73417e-05
8.9382e-05
6.20309e-05
5.11751e-05
0.00336662
6.3809e-05
6.35632e-05
8.97552e-05
8.1616e-05
6.33967e-05
8.74221e-05
5.10151e-05
7.18508e-05
8.22235e-05
7.4517e-05
8.56058e-05
0.00442406
6.23487e-05
8.86511e-05
8.24077e-05
8.01715e-05
7.78992e-05
8.74574e-05
7.75409e-05
8.16651e-05
0.000146838
8.14425e-05
0.00642973
0.000102608
8.09559e-05
5.74268e-05
4.9263e-05
8.73507e-05
8.19061e-05
7.38576e-05
0.00273112
8.57501e-05
6.22157e-05
8.09811e-05
8.44147e-05
7.61904e-05
8.57278e-05
8.95215e-05
0.000128496
8.84486e-05
7.54165e-05
8.65896e-05
8.09233e-05
4.79606e-05
9.44465e-05
7.17759e-05
0.000139364
6.0545e-05
0.0232517
0.000251364
0.00011736
8.94438e-05
8.67458e-05
9.09553e-05
7.57093e-05
0.0242349
7.42013e-05
9.02675e-05
8.04843e-05
8.40093e-05
8.90059e-05
6.73027e-05
8.64104e-05
0.00023387
0.000187863
6.73965e-05
0.000220407
6.38017e-05
0.00172799
0.00245269
0.000148428
5.34203e-05
7.97178e-05
0.0001545
8.05597e-05
5.03337e-05
0.0226971
8.40239e-05
8.11028e-05
6.25623e-05
8.44326e-05
7.51878e-05
0.000137149
5.99023e-05
5.94342e-05
0.000139665
6.12892e-05
7.53604e-05
8.81101e-05
7.99779e-05
7.52987e-05
6.22211e-05
8.41985e-05
7.53574e-05
7.55374e-05
0.02099
8.10727e-05
5.02239e-05
6.33181e-05
8.90252e-05
8.47305e-05
6.05761e-05
6.02203e-05
0.000104017
7.67666e-05
8.67754e-05
8.9946e-05
4.99855e-05
8.52586e-05
6.2668e-05
5.00946e-05
6.02715e-05
0.000407139
6.31275e-05
8.89994e-05
0.0214107
0.00271652
0.0492339
5.96304e-05
6.65704e-05
6.86467e-05
8.07375e-05
0.0076816
4.9857e-05
6.06138e-05
0.000207742
6.36885e-05
5.08908e-05
6.29155e-05
4.79371e-05
6.31216e-05
0.0338212
6.40512e-05
7.99597e-05
8.95106e-05
8.03124e-05
8.61467e-05
0.00746377
5.16984e-05
0.0200051
7.19742e-05
6.8565e-05
0.00296231
6.14064e-05
0.000238823
6.45042e-05
0.00719735
7.76297e-05
8.93143e-05
8.11347e-05
6.89474e-05
0.000933541
4.49778e-05
6.45996e-05
6.92266e-05
0.000134834
8.17031e-05
0.000109313
5.12444e-05
7.69934e-05
7.90146e-05
0.000196162
9.01278e-05
0.00833563
5.98125e-05
0.000141803
5.51066e-05
0.000123594
9.5376e-05
0.00483915
7.09672e-05
0.000102195
5.51315e-05
8.20187e-05
4.45021e-05
0.000204476
8.51899e-05
0.0015101
4.83289e-05
0.000331261
5.51091e-05
6.17606e-05
7.46424e-05
8.18982e-05
8.88844e-05
6.41326e-05
0.00222982
9.48824e-05
0.00113364
6.16125e-05
0.000178189
5.95915e-05
7.51729e-05
7.16806e-05
4.83372e-05
7.74645e-05
8.54408e-05
6.1959e-05
0.0118029
9.84694e-05
0.00164443
7.67757e-05
6.28144e-05
7.92379e-05
0.00111044
5.22908e-05
0.00527503
8.90376e-05
4.4487e-05
5.1844e-05
5.55621e-05
7.47393e-05
6.27227e-05
8.18692e-05
9.32855e-05
7.59194e-05
6.16767e-05
0.00186574
8.50894e-05
6.87573e-05
0.000955209
0.000100508
7.56269e-05
0.000166714
0.000117032
8.94036e-05
5.13197e-05
0.000294244
7.06551e-05
4.90848e-05
8.13221e-05
0.000398017
5.5535e-05
0.00482413
6.43008e-05
8.76365e-05
0.00614281
0.000185677
4.64341e-05
0.0517749
5.34702e-05
7.57342e-05
8.60256e-05
7.98441e-05
0.000114502
8.6171e-05
0.00330365
0.0336932
7.55261e-05
0.000129302
0.000240851
0.000154499
7.79588e-05
5.14625e-05
0.006825
7.84337e-05
8.02391e-05
8.87335e-05
0.0093622
5.42172e-05
6.11959e-05
7.50224e-05
8.3776e-05
8.79539e-05
8.75893e-05
8.76545e-05
7.68592e-05
8.06504e-05
8.02847e-05
6.07925e-05
0.000109418
6.39444e-05
7.75966e-05
7.55299e-05
6.347e-05
8.3021e-05
7.82992e-05
8.71785e-05
4.88583e-05
4.89597e-05
0.000169821
4.93909e-05
8.00391e-05
7.63181e-05
4.92207e-05
4.44294e-05
7.01846e-05
0.000690546
0.00352191
6.84009e-05
7.0745e-05
7.59219e-05
8.71134e-05
8.16803e-05
8.54738e-05
8.88255e-05
6.6757e-05
6.69154e-05
6.72575e-05
8.085e-05
5.67911e-05
8.59076e-05
0.00132177
8.4063e-05
8.42294e-05
8.22226e-05
4.96327e-05
7.56737e-05
7.89703e-05
9.15871e-05
7.41719e-05
6.50124e-05
0.000107018
0.00219509
7.60965e-05
0.00855176
8.13174e-05
7.58381e-05
0.000112498
0.00859155
0.000107845
5.67996e-05
0.00964934
8.04742e-05
6.67644e-05
7.65521e-05
0.00820294
6.68103e-05
8.91474e-05
7.01014e-05
9.00894e-05
8.32764e-05
7.88994e-05
9.02524e-05
8.81229e-05
5.58902e-05
0.000192689
7.47845e-05
4.82312e-05
8.89375e-05
7.48547e-05
4.44301e-05
7.40994e-05
0.000155489
7.4417e-05
9.01025e-05
6.90769e-05
7.42655e-05
9.58118e-05
7.13932e-05
5.09256e-05
6.98718e-05
0.00120914
9.40431e-05
7.58454e-05
8.64463e-05
8.46372e-05
7.15082e-05
8.1688e-05
7.74157e-05
0.000116881
0.00745607
6.3336e-05
5.16031e-05
6.67312e-05
0.000129406
5.48057e-05
5.48002e-05
6.47988e-05
0.000828069
0.0169615
0.0526835
0.00011194
4.95274e-05
8.49984e-05
0.000112053
5.02534e-05
9.29841e-05
8.89791e-05
0.000106856
0.0072648
7.46827e-05
0.000116877
9.92114e-05
6.32419e-05
8.65465e-05
8.90958e-05
7.58867e-05
9.04982e-05
9.04483e-05
6.48005e-05
7.88838e-05
7.95023e-05
5.10481e-05
0.000104834
0.000108458
7.48017e-05
0.00230826
7.79804e-05
0.00718053
7.1574e-05
0.000994778
0.00729962
5.18393e-05
9.28404e-05
9.15723e-05
6.67317e-05
0.0211112
9.00988e-05
8.49218e-05
0.00468803
8.93345e-05
4.45495e-05
4.747e-05
7.62411e-05
0.000105441
0.000165414
5.94329e-05
4.72449e-05
9.27217e-05
8.57368e-05
7.09196e-05
9.27792e-05
7.96091e-05
7.14024e-05
9.02348e-05
8.90805e-05
9.38293e-05
6.12175e-05
5.12728e-05
0.0173257
0.00710688
0.000105334
0.000173711
6.96546e-05
0.00932943
6.85828e-05
0.0298939
8.64069e-05
6.06131e-05
9.87772e-05
0.000105638
0.000109466
6.32202e-05
6.33042e-05
4.473e-05
0.000207193
7.08332e-05
0.000235702
8.58927e-05
0.000106197
0.00170141
5.95026e-05
8.69839e-05
0.00085773
6.42623e-05
0.000126506
7.59023e-05
6.53046e-05
8.87767e-05
7.50536e-05
8.34488e-05
8.43991e-05
7.49641e-05
7.78852e-05
8.05653e-05
6.14325e-05
6.60788e-05
6.07295e-05
8.49759e-05
6.33682e-05
0.000155395
8.43612e-05
6.79702e-05
6.30598e-05
8.05941e-05
8.57228e-05
6.92583e-05
8.90618e-05
0.0433765
5.82752e-05
8.21274e-05
0.0382042
0.000103088
0.000665762
5.37273e-05
0.00030569
8.48302e-05
6.5916e-05
5.73486e-05
6.27286e-05
7.51733e-05
0.0117799
5.3658e-05
8.7136e-05
0.000487228
7.15399e-05
8.31487e-05
8.90169e-05
6.61129e-05
0.000103399
6.83375e-05
9.18666e-05
7.10173e-05
0.00537369
8.1052e-05
0.0018764
6.43352e-05
0.00134454
6.61533e-05
6.85757e-05
5.46399e-05
7.29801e-05
4.98827e-05
0.000111416
0.000106802
8.66443e-05
6.81627e-05
6.49277e-05
8.72724e-05
6.77942e-05
0.00321594
0.000141224
5.66678e-05
5.23271e-05
0.000128497
6.14053e-05
9.34139e-05
8.9465e-05
6.96876e-05
6.98294e-05
5.23707e-05
8.91018e-05
6.11347e-05
7.85224e-05
8.9403e-05
8.376e-05
9.59684e-05
4.9475e-05
5.1645e-05
7.76304e-05
8.19718e-05
0.000144107
0.000101171
8.51534e-05
5.9737e-05
6.60224e-05
8.88798e-05
8.58435e-05
6.98042e-05
8.17874e-05
7.57641e-05
8.68472e-05
6.62771e-05
4.59785e-05
4.49887e-05
6.39377e-05
7.49847e-05
4.46474e-05
0.0277884
8.45122e-05
8.44725e-05
0.00449943
8.01242e-05
8.80957e-05
8.46776e-05
5.23973e-05
8.45458e-05
8.44477e-05
7.91135e-05
7.59335e-05
8.93313e-05
7.13604e-05
6.2232e-05
0.000132453
0.0187842
5.20277e-05
7.80223e-05
8.88842e-05
8.60992e-05
6.65065e-05
0.00131891
8.4676e-05
8.72721e-05
7.56108e-05
7.53431e-05
7.74502e-05
7.16505e-05
7.16066e-05
5.9749e-05
8.45684e-05
8.08874e-05
7.25732e-05
8.55173e-05
6.94283e-05
8.96474e-05
0.000215624
9.48685e-05
7.31577e-05
5.11117e-05
0.00325956
7.78196e-05
9.25748e-05
8.56229e-05
8.42211e-05
5.21514e-05
8.73146e-05
0.00093416
0.0331474
0.0190881
0.034591
8.04584e-05
0.00684998
8.70147e-05
6.11e-05
8.8969e-05
0.0100338
8.05136e-05
0.000112483
0.000109548
0.00109788
8.62151e-05
4.48494e-05
0.00383995
8.52656e-05
7.11756e-05
3.06326e-05
0.000162358
0.00964051
8.4917e-05
0.00152493
8.10576e-05
0.000145952
7.65613e-05
0.000118675
8.42762e-05
7.05191e-05
8.85378e-05
8.64603e-05
0.00120435
8.11954e-05
0.0261044
8.55645e-05
8.16219e-05
8.92051e-05
9.73137e-05
5.27887e-05
7.72178e-05
6.6471e-05
0.000119875
4.45509e-05
0.000123441
0.0169565
0.0469766
0.000144987
8.58016e-05
0.000171481
7.81922e-05
0.00607091
5.23355e-05
8.76979e-05
0.000120122
8.07266e-05
7.0722e-05
7.68966e-05
6.31247e-05
8.941e-05
8.77359e-05
6.05358e-05
5.68971e-05
8.1662e-05
4.97362e-05
5.22051e-05
5.34855e-05
0.000561182
0.000824878
9.84098e-05
6.28706e-05
0.000138574
8.7661e-05
8.66528e-05
7.52964e-05
0.042782
8.21897e-05
6.45614e-05
7.61124e-05
0.0147196
7.73902e-05
0.0188739
9.66851e-05
8.46909e-05
0.020206
9.14538e-05
9.0251e-05
5.19079e-05
5.22111e-05
6.63286e-05
9.02708e-05
8.59344e-05
0.000134188
7.92291e-05
5.98239e-05
8.32724e-05
5.07961e-05
0.000102787
8.04036e-05
0.000660972
8.5928e-05
8.52161e-05
8.94995e-05
5.20484e-05
9.34776e-05
6.4816e-05
0.00127759
8.56396e-05
8.56403e-05
7.68164e-05
6.8175e-05
9.02659e-05
8.58589e-05
7.07167e-05
8.1906e-05
5.16567e-05
5.17752e-05
8.45718e-05
8.36499e-05
0.0177186
7.45618e-05
8.1037e-05
6.14995e-05
0.000101475
0.000135198
5.23377e-05
8.13153e-05
8.78257e-05
5.0818e-05
0.000607203
8.26368e-05
4.49168e-05
9.89174e-05
0.000115574
6.34722e-05
6.81949e-05
6.79022e-05
0.0184012
4.45765e-05
7.47908e-05
6.1305e-05
8.96844e-05
7.62736e-05
0.00752062
8.17214e-05
8.96307e-05
7.49407e-05
5.43879e-05
5.71748e-05
8.17825e-05
7.9503e-05
6.37522e-05
6.54013e-05
8.00984e-05
8.14822e-05
8.31996e-05
9.24567e-05
0.000102152
7.1695e-05
0.0230973
7.62875e-05
8.72098e-05
0.0220115
4.92014e-05
8.07739e-05
0.00121298
7.19532e-05
5.43456e-05
8.89231e-05
8.96775e-05
9.54501e-05
4.81652e-05
7.59263e-05
6.81406e-05
0.0529562
9.28562e-05
7.17949e-05
0.000247462
8.76226e-05
9.15666e-05
0.00161477
8.78543e-05
0.0481604
5.12378e-05
8.8953e-05
0.000113142
8.92277e-05
7.79394e-05
0.000252427
9.57953e-05
0.000598774
8.05542e-05
8.41271e-05
6.97619e-05
8.54347e-05
8.84528e-05
7.84703e-05
4.46935e-05
5.47492e-05
8.08846e-05
6.17504e-05
5.36869e-05
6.45534e-05
8.05607e-05
7.46451e-05
6.10587e-05
6.17964e-05
0.00539703
5.08556e-05
6.53071e-05
8.13012e-05
8.77121e-05
9.12168e-05
8.18814e-05
0.000102054
6.28848e-05
0.000250638
8.93062e-05
5.85536e-05
9.73952e-05
8.39523e-05
8.90544e-05
4.77817e-05
0.000101966
8.92263e-05
0.00754924
8.03393e-05
9.1534e-05
4.76937e-05
5.61782e-05
8.57678e-05
4.95773e-05
5.37131e-05
4.48872e-05
6.21615e-05
0.000127499
8.85787e-05
6.99401e-05
5.7221e-05
6.79167e-05
5.33734e-05
7.48185e-05
7.052e-05
9.41675e-05
0.000162412
9.19196e-05
7.03214e-05
0.00566258
8.66312e-05
5.53599e-05
5.29345e-05
5.68876e-05
8.37014e-05
6.35893e-05
9.45358e-05
4.49679e-05
9.17508e-05
7.52103e-05
7.52897e-05
5.05103e-05
6.26991e-05
8.18362e-05
9.08106e-05
8.69479e-05
8.96329e-05
0.000109537
7.55715e-05
0.00341332
0.000602496
0.0325698
4.52375e-05
7.02875e-05
8.63703e-05
8.57891e-05
8.87175e-05
8.3635e-05
9.25364e-05
7.85346e-05
8.50375e-05
9.03852e-05
5.16538e-05
0.0176504
5.49963e-05
4.01665e-05
8.17899e-05
5.49262e-05
8.86275e-05
6.39604e-05
6.27874e-05
5.35107e-05
5.59165e-05
5.0451e-05
5.64402e-05
9.22951e-05
0.000139472
6.08305e-05
7.52787e-05
7.86881e-05
5.64325e-05
7.78701e-05
7.04277e-05
8.59468e-05
6.0948e-05
4.98599e-05
6.15466e-05
0.000101372
7.9173e-05
8.43448e-05
6.55015e-05
0.000101117
8.58044e-05
6.78331e-05
0.000836581
1.16895e-05
8.96793e-05
9.05989e-05
5.49387e-05
0.011775
5.14757e-05
9.41135e-05
8.42109e-05
7.10784e-05
8.42824e-05
9.39158e-05
7.0724e-05
6.38827e-05
5.22678e-05
5.12314e-05
6.71925e-05
9.58965e-05
9.15309e-05
0.000144267
0.000203356
0.000215363
4.92554e-05
6.32515e-05
0.00136402
0.000155438
8.81862e-05
4.99084e-05
0.000469085
0.0053638
4.44552e-05
9.13021e-05
7.53984e-05
0.000282864
5.54466e-05
5.24239e-05
7.06847e-05
9.35302e-05
8.59433e-05
5.29317e-05
5.55758e-05
7.33834e-05
0.0001703
8.97056e-05
6.12989e-05
6.72141e-05
9.01477e-05
0.000108287
0.000171304
8.57537e-05
9.96873e-05
7.8561e-05
7.62035e-05
0.00258215
0.000209356
8.66089e-05
9.44151e-05
0.000111742
8.07023e-05
6.22997e-05
9.00227e-05
4.87386e-05
9.6215e-05
6.62874e-05
8.30384e-05
0.01541
0.0339329
8.62803e-05
8.40791e-05
0.00714251
5.06638e-05
7.41069e-05
7.51957e-05
6.56204e-05
0.000113794
0.0158978
4.85752e-05
5.1335e-05
0.0215575
4.90866e-05
5.76028e-05
7.9838e-05
4.90894e-05
7.27817e-05
6.92239e-05
4.4459e-05
0.00407338
8.72956e-05
8.62699e-05
6.28777e-05
0.000108629
8.3438e-05
4.43876e-05
5.75952e-05
8.584e-05
8.09584e-05
5.53418e-05
8.75497e-05
4.869e-05
9.13758e-05
4.82513e-05
8.57547e-05
4.78795e-05
4.84136e-05
5.26814e-05
0.00623936
0.000192309
7.7779e-05
8.21916e-05
7.48482e-05
8.38267e-05
9.06192e-05
4.85277e-05
0.000103076
8.78667e-05
0.00418575
0.0228111
4.741e-05
7.33312e-05
9.27323e-05
9.81539e-05
6.23554e-05
8.56131e-05
4.83696e-05
0.0539945
9.66936e-05
4.90337e-05
4.82143e-05
8.83302e-05
0.000106536
8.57119e-05
5.93882e-05
4.79133e-05
5.53144e-05
7.96305e-05
9.27779e-05
6.29495e-05
9.19566e-05
0.00270279
7.12577e-05
9.14168e-05
5.28777e-05
5.06702e-05
4.43998e-05
7.76385e-05
0.00290468
9.02103e-05
5.20165e-05
9.99844e-05
6.27675e-05
7.87622e-05
0.000157112
0.000135014
7.52496e-05
5.30894e-05
6.28762e-05
0.0421113
7.81715e-05
8.5505e-05
8.30911e-05
0.0314629
0.00515531
8.0801e-05
0.0250687
0.00014646
0.000108666
8.88837e-05
7.71492e-05
7.37426e-05
6.14681e-05
6.29313e-05
9.25518e-05
0.00017226
5.19719e-05
6.06334e-05
4.94674e-05
9.53096e-05
7.66654e-05
0.00896273
5.30236e-05
8.15157e-05
8.84439e-05
0.00930114
8.71571e-05
0.00164485
8.03871e-05
7.42521e-05
6.26743e-05
6.94095e-05
8.97297e-05
6.96046e-05
9.60599e-05
5.42122e-05
0.000126889
5.59115e-05
7.87137e-05
8.69389e-05
8.60913e-05
8.89555e-05
5.24866e-05
7.55464e-05
0.000109787
4.94857e-05
9.82605e-05
0.000140095
4.43926e-05
9.08541e-05
7.09755e-05
0.0215887
7.0128e-05
7.61427e-05
0.000279028
5.41133e-05
7.42866e-05
6.33742e-05
8.28397e-05
6.10448e-05
7.80234e-05
5.93976e-05
5.1408e-05
5.99102e-05
0.017537
5.49705e-05
0.0263008
0.00419134
5.99666e-05
6.08954e-05
9.72355e-05
4.45585e-05
9.40997e-05
9.7848e-05
8.56588e-05
8.0472e-05
5.7623e-05
6.95125e-05
6.09624e-05
6.0424e-05
8.19363e-05
6.77866e-05
5.92807e-05
8.58979e-05
7.83214e-05
8.09218e-05
0.000114229
8.05123e-05
7.20602e-05
8.71046e-05
8.85737e-05
9.34308e-05
9.25322e-05
7.95488e-05
6.06904e-05
0.0268111
8.77217e-05
0.00151481
5.71754e-05
9.62921e-05
5.22069e-05
4.45968e-05
6.19833e-05
7.57779e-05
7.20864e-05
4.8097e-05
0.000176259
5.74084e-05
7.50419e-05
0.00452179
7.73972e-05
8.25997e-05
6.02331e-05
6.95032e-05
6.0673e-05
5.08782e-05
0.0124821
0.000247149
6.0383e-05
9.02704e-05
9.03502e-05
0.0222333
8.16721e-05
8.07876e-05
8.97314e-05
0.000101367
0.0281482
9.10312e-05
6.57605e-05
0.000111581
5.26121e-05
7.39337e-05
0.0001934
0.0204822
0.0331106
5.2477e-05
8.82402e-05
0.0159252
5.14183e-05
0.0149494
6.17353e-05
7.18587e-05
7.07062e-05
6.22061e-05
5.33699e-05
7.18381e-05
0.000150474
0.0184697
8.64305e-05
7.34436e-05
7.99308e-05
6.07443e-05
0.00010099
0.018002
8.84916e-05
8.38113e-05
6.80626e-05
5.30032e-05
7.47509e-05
0.000312559
9.04243e-05
0.000127602
6.08486e-05
7.41813e-05
0.000402729
8.25115e-05
0.000106665
8.41629e-05
7.26927e-05
0.00190355
8.28963e-05
4.93832e-05
6.95255e-05
5.2069e-05
7.43831e-05
8.56528e-05
8.15776e-05
0.000166225
8.42171e-05
4.75635e-05
6.19762e-05
5.7851e-05
6.08948e-05
8.80131e-05
7.62451e-05
8.68996e-05
6.86981e-05
0.0555694
0.000657627
0.000112006
6.35054e-05
4.9352e-05
5.86918e-05
5.97708e-05
6.24019e-05
6.24231e-05
0.000155265
0.000172654
5.20317e-05
6.76654e-05
6.79446e-05
0.0186958
8.50315e-05
9.73981e-05
8.65942e-05
9.02194e-05
4.93059e-05
8.40721e-05
6.34554e-05
9.08016e-05
8.75466e-05
4.80349e-05
6.17614e-05
5.87164e-05
8.26481e-05
8.97418e-05
5.36058e-05
0.0531844
7.90501e-05
4.90145e-05
6.94536e-05
7.37601e-05
9.59443e-05
7.45404e-05
9.24007e-05
8.48546e-05
9.85435e-05
8.9237e-05
7.63222e-05
0.00422151
6.16494e-05
4.21671e-05
0.0243739
5.1688e-05
0.000155573
7.75786e-05
8.94351e-05
0.00339321
0.000101852
8.40698e-05
8.47027e-05
0.000115088
0.00312516
6.43673e-05
5.29095e-05
9.89793e-05
7.2025e-05
6.5029e-05
7.02385e-05
0.000141733
5.40293e-05
8.4436e-05
8.0135e-05
5.18284e-05
8.44461e-05
0.01218
7.34414e-05
6.81186e-05
0.00447813
0.000109191
7.05175e-05
0.000105706
5.10665e-05
9.17851e-05
7.23333e-05
8.58396e-05
5.76658e-05
0.0297128
0.000112672
5.93828e-05
0.0502176
8.80225e-05
5.69801e-05
8.87615e-05
7.54761e-05
9.8965e-05
5.13644e-05
0.000256442
0.0186365
0.0174847
0.000122854
5.83873e-05
8.1987e-05
8.80297e-05
5.46733e-05
9.12389e-05
3.71713e-05
0.000143201
0.00110381
0.000119963
7.67983e-05
9.55808e-05
7.5528e-05
7.04345e-05
7.41676e-05
5.8302e-05
9.28311e-05
7.21407e-05
9.56955e-05
7.51416e-05
9.65783e-05
9.24634e-05
7.95862e-05
6.50377e-05
5.01222e-05
8.57238e-05
8.20666e-05
5.79434e-05
0.00887068
5.51246e-05
0.0389584
5.96361e-05
5.96443e-05
6.75982e-05
5.06229e-05
7.73025e-05
4.98825e-05
0.000125333
0.000147363
8.80611e-05
6.52617e-05
6.93225e-05
0.00182625
5.33241e-05
7.26492e-05
9.24437e-05
8.4349e-05
4.99638e-05
7.1245e-05
5.97294e-05
8.58779e-05
8.83349e-05
7.97305e-05
9.81191e-05
8.9033e-05
0.00585781
7.63661e-05
5.35957e-05
8.10271e-05
0.0112896
5.36477e-05
6.25345e-05
6.58489e-05
4.81732e-05
5.15222e-05
8.46927e-05
0.000107286
9.41507e-05
9.61975e-05
6.82037e-05
0.0140107
6.47008e-05
5.80061e-05
5.94206e-05
7.52584e-05
9.14876e-05
9.19542e-05
5.35883e-05
5.21505e-05
0.00306791
8.59027e-05
6.44611e-05
6.50534e-05
0.000429221
4.43938e-05
8.14636e-05
5.73376e-05
9.00604e-05
8.29413e-05
8.87741e-05
7.77408e-05
8.35551e-05
9.12718e-05
8.44073e-05
8.20267e-05
8.07528e-05
0.000124455
6.39899e-05
8.43161e-05
7.62386e-05
9.05524e-05
8.05976e-05
0.000233252
8.55256e-05
0.00837265
7.20994e-05
5.80845e-05
0.000613706
8.65349e-05
0.00587456
6.03618e-05
9.27418e-05
0.000486889
6.13221e-05
6.11021e-05
0.0252859
0.011233
9.00078e-05
8.10791e-05
0.000126116
0.000763476
4.50085e-05
6.8163e-05
8.00352e-05
8.37468e-05
7.33985e-05
6.11358e-05
5.12396e-05
5.56429e-05
6.51125e-05
0.00578192
0.0287382
7.40731e-05
0.00676994
6.05694e-05
6.09582e-05
7.78016e-05
7.32842e-05
9.02134e-05
9.1169e-05
8.20035e-05
5.09536e-05
0.00108698
0.043657
6.97289e-05
7.02989e-05
8.97657e-05
7.66834e-05
0.000116587
4.94809e-05
8.32546e-05
6.48709e-05
0.0454526
0.000136202
8.85365e-05
6.71318e-05
8.42153e-05
9.45511e-05
8.13799e-05
7.50727e-05
0.000150825
0.000102729
0.000423924
7.97042e-05
0.00122105
0.000100561
7.4323e-05
0.00221744
4.93495e-05
8.6006e-05
7.51327e-05
8.23188e-05
6.09986e-05
8.48601e-05
0.000106639
8.85549e-05
6.8451e-05
0.00161642
0.0236965
7.81513e-05
4.75398e-05
8.43324e-05
9.82409e-05
8.73579e-05
0.00304002
8.96461e-05
9.0818e-05
9.51749e-05
0.000771507
8.57072e-05
8.8224e-05
0.00206554
7.57145e-05
5.33929e-05
7.42697e-05
6.35684e-05
0.00370697
8.3779e-05
6.70207e-05
7.44751e-05
5.17791e-05
7.35915e-05
7.00194e-05
7.63434e-05
7.72622e-05
7.85662e-05
9.01951e-05
9.69684e-05
4.9154e-05
0.000105248
9.3416e-05
8.59735e-05
8.43186e-05
5.40015e-05
7.92737e-05
6.79929e-05
0.00015433
5.90735e-05
4.54201e-05
8.93736e-05
0.000196807
8.56862e-05
0.000126262
4.14153e-05
8.54692e-05
4.92923e-05
4.46211e-05
5.2238e-05
6.4777e-05
0.00361603
4.91315e-05
9.64688e-05
5.57533e-05
0.000725036
0.000193508
7.28586e-05
8.12551e-05
7.40187e-05
8.86924e-05
8.34528e-05
5.5694e-05
0.046039
4.8006e-05
7.56702e-05
5.80494e-05
5.56414e-05
7.55276e-05
6.117e-05
7.9769e-05
9.67119e-05
6.77715e-05
7.94073e-05
7.90418e-05
9.02181e-05
8.9947e-05
6.28557e-05
4.78518e-05
8.47495e-05
7.35232e-05
0.0339104
7.39887e-05
5.41323e-05
7.48497e-05
5.82432e-05
5.02904e-05
0.000101285
6.31335e-05
5.73702e-05
8.24765e-05
4.93046e-05
6.98097e-05
7.54715e-05
6.95603e-05
3.60472e-05
0.000265648
6.97714e-05
9.86069e-05
4.91285e-05
6.54534e-05
7.51357e-05
7.60508e-05
8.39931e-05
7.44944e-05
9.71786e-05
8.86537e-05
5.77766e-05
0.000103205
5.7403e-05
6.3837e-05
5.22531e-05
7.9829e-05
8.03946e-05
7.98968e-05
0.000130406
8.5415e-05
5.8066e-05
0.000134417
5.59994e-05
0.000103206
8.32922e-05
0.00634612
5.15145e-05
9.33692e-05
9.01392e-05
4.44376e-05
5.74835e-05
7.15739e-05
6.75844e-05
7.32421e-05
9.04236e-05
4.86492e-05
0.00664139
8.87632e-05
9.43113e-05
0.0307616
8.42461e-05
5.0109e-05
5.46011e-05
0.0287405
5.89285e-05
0.000171969
0.000112102
5.77039e-05
0.000310098
0.0468111
8.60142e-05
5.25839e-05
5.16507e-05
5.82696e-05
7.13265e-05
5.86383e-05
4.82639e-05
8.00911e-05
0.000104722
7.45751e-05
6.19482e-05
5.36253e-05
0.0465168
6.77458e-05
4.81614e-05
8.62849e-05
8.23981e-05
5.51316e-05
0.0561339
7.01844e-05
9.41766e-05
5.74136e-05
9.46533e-05
8.04042e-05
7.18415e-05
7.85791e-05
8.906e-05
6.19414e-05
6.04758e-05
8.43391e-05
8.1536e-05
6.64258e-05
9.06098e-05
9.1183e-05
5.79548e-05
5.26535e-05
0.000107053
8.64243e-05
0.0543756
6.92411e-05
6.0252e-05
5.02445e-05
5.25867e-05
5.29633e-05
8.18346e-05
9.18e-05
7.18862e-05
5.07604e-05
6.98112e-05
5.8854e-05
8.4294e-05
9.48261e-05
7.3462e-05
4.92331e-05
8.88647e-05
5.23e-05
9.20467e-05
5.09005e-05
7.70536e-05
7.32641e-05
7.96576e-05
0.000126869
6.78616e-05
5.67493e-05
5.21167e-05
8.07071e-05
8.99685e-05
0.00492888
5.09514e-05
7.0113e-05
0.000124142
5.20491e-05
6.24506e-05
9.38326e-05
7.30481e-05
5.04411e-05
0.000153652
5.74703e-05
0.00640196
7.46713e-05
5.23982e-05
0.000240602
0.0033222
0.00512568
8.11032e-05
0.000163326
0.000105206
0.00019146
4.94346e-05
6.41628e-05
5.3148e-05
0.0324437
9.03258e-05
3.35514e-05
0.000101522
0.00170501
6.32167e-05
0.0201037
6.86276e-05
0.00140875
5.52556e-05
9.40329e-05
9.18932e-05
7.40426e-05
0.000127143
5.99035e-05
8.80788e-05
7.61025e-05
7.98449e-05
8.92246e-05
8.14913e-05
0.000139124
0.0232321
8.89811e-05
6.33938e-05
8.34575e-05
0.0372122
7.14683e-05
9.09792e-05
5.02022e-05
6.30246e-05
8.32331e-05
0.00400679
9.99293e-05
0.000129163
0.0142832
7.36503e-05
5.06681e-05
5.47241e-05
5.40427e-05
5.15369e-05
9.00313e-05
8.80215e-05
8.7085e-05
0.00360716
5.98275e-05
5.31516e-05
8.5307e-05
7.2713e-05
9.0442e-05
0.0229211
9.01296e-05
5.96288e-05
7.96563e-05
7.64406e-05
6.88243e-05
2.39233e-05
8.04628e-05
0.00954087
6.05975e-05
5.58022e-05
8.58492e-05
9.26112e-05
7.64282e-05
5.95706e-05
0.021858
5.55125e-05
5.76521e-05
0.000102974
7.64672e-05
0.000133855
6.01407e-05
8.23276e-05
0.000123385
7.61193e-05
7.17791e-05
5.93198e-05
0.00694753
5.10961e-05
6.90749e-05
5.97161e-05
7.52409e-05
8.55248e-05
7.05122e-05
9.42039e-05
9.58599e-05
0.00118397
0.0174654
0.000116574
9.14818e-05
7.87485e-05
8.93885e-05
6.26488e-05
0.000104236
0.00028459
7.56924e-05
0.00010957
0.000731301
5.84709e-05
5.58126e-05
7.79466e-05
6.97401e-05
0.00430669
6.77083e-05
5.58834e-05
0.00325638
6.19759e-05
6.9532e-05
7.0919e-05
0.00648366
0.000110144
0.000100942
4.80688e-05
7.73488e-05
8.51338e-05
0.000141461
8.85417e-05
0.000103404
8.0998e-05
6.80713e-05
0.000104146
7.75726e-05
8.82478e-05
8.85884e-05
0.000102106
9.08403e-05
5.76655e-05
8.49499e-05
0.000615053
8.8152e-05
9.58018e-05
7.98207e-05
0.000149594
8.55169e-05
7.75175e-05
4.80799e-05
0.000100033
5.15104e-05
6.87166e-05
6.90408e-05
8.94508e-05
6.88584e-05
7.93789e-05
9.06807e-05
0.000115982
7.98693e-05
7.97259e-05
6.06945e-05
7.2659e-05
9.7034e-05
8.51055e-05
9.90548e-05
7.10031e-05
7.13151e-05
0.0477294
7.33536e-05
9.28421e-05
7.58406e-05
0.000679384
8.96024e-05
6.22826e-05
0.0217248
0.000115578
5.76405e-05
9.41762e-05
4.83446e-05
0.0344959
8.33398e-05
5.18663e-05
6.31751e-05
7.35246e-05
0.000691651
0.025173
9.44548e-05
8.16952e-05
0.000105474
7.30434e-05
8.55213e-05
9.01325e-05
0.0211096
6.16481e-05
0.000134513
5.61024e-05
0.0069464
9.13208e-05
8.44853e-05
6.24577e-05
5.12242e-05
9.31486e-05
0.000108434
8.85962e-05
0.000483087
4.93668e-05
8.43888e-05
6.53206e-05
8.71868e-05
7.18886e-05
4.85323e-05
0.0258762
7.84069e-05
7.83539e-05
0.00584576
5.95142e-05
6.00312e-05
8.79431e-05
8.8922e-05
7.69022e-05
4.93396e-05
0.00111711
9.10501e-05
7.46865e-05
0.0156326
7.25896e-05
8.39521e-05
5.2637e-05
8.93719e-05
6.29405e-05
0.00548034
9.71271e-05
9.82654e-05
8.43821e-05
6.0303e-05
7.59479e-05
0.00372379
4.85667e-05
6.85452e-05
7.37833e-05
5.11396e-05
9.18116e-05
0.0376235
7.76436e-05
5.09262e-05
9.48662e-05
6.87059e-05
0.0240403
8.73421e-05
8.63164e-05
7.77733e-05
0.000112522
0.000103173
8.64657e-05
6.78003e-05
8.97952e-05
0.00507837
7.34858e-05
5.05997e-05
8.61849e-05
7.0444e-05
8.55709e-05
0.000111958
7.8903e-05
8.35954e-05
9.40704e-05
7.88305e-05
5.81573e-05
9.03911e-05
0.000574267
5.28415e-05
7.72111e-05
8.76578e-05
8.13395e-05
7.9314e-05
5.29117e-05
4.87166e-05
5.27673e-05
7.38017e-05
8.9151e-05
0.0286674
8.30929e-05
9.33987e-05
7.91769e-05
8.92774e-05
5.07425e-05
8.85943e-05
6.76463e-05
0.0062377
8.97553e-05
6.18727e-05
7.60488e-05
0.0170655
6.85611e-05
7.75598e-05
8.21422e-05
8.70353e-05
9.0156e-05
6.13176e-05
6.26682e-05
8.45495e-05
0.000134299
9.37779e-05
8.74239e-05
7.27999e-05
8.24235e-05
9.64922e-05
8.99818e-05
7.01481e-05
6.79924e-05
0.00863673
7.31692e-05
5.94065e-05
5.47703e-05
8.30933e-05
8.1746e-05
0.001659
9.03114e-05
8.97896e-05
5.77636e-05
8.38458e-05
0.00410941
0.00105792
5.16628e-05
0.00428627
6.47505e-05
7.82642e-05
6.43139e-05
8.88405e-05
8.33223e-05
8.14972e-05
7.687e-05
0.0001224
7.23686e-05
7.77471e-05
6.1232e-05
7.42445e-05
9.37916e-05
6.97057e-05
0.00160376
0.000110283
9.14815e-05
4.98538e-05
6.43366e-05
7.47395e-05
5.29229e-05
0.000127885
8.44473e-05
8.67576e-05
0.0196724
9.31942e-05
7.36229e-05
2.42528e-05
4.91642e-05
0.0332544
0.0532732
0.000246493
0.000223468
8.70289e-05
0.000104997
8.40396e-05
8.38038e-05
0.000163247
9.03261e-05
8.16366e-05
8.62652e-05
5.35162e-05
0.000799713
7.62432e-05
5.31295e-05
7.28378e-05
6.09921e-05
8.27925e-05
6.49931e-05
8.53256e-05
8.50956e-05
0.00187867
4.95854e-05
9.3065e-05
7.66809e-05
9.33296e-05
8.83118e-05
7.92531e-05
9.99489e-05
6.44064e-05
6.64187e-05
0.000127016
7.7286e-05
8.89086e-05
6.09432e-05
4.91742e-05
8.7207e-05
0.000118846
6.92792e-05
8.766e-05
6.9817e-05
8.87781e-05
8.75146e-05
0.000148872
5.70771e-05
6.44926e-05
8.28598e-05