/*--------------------------------*- C++ -*----------------------------------*\
| =========                 |                                                 |
| \\      /  F ield         | OpenFOAM: The Open Source CFD Toolbox           |
|  \\    /   O peration     | Version:  v2012                                 |
|   \\  /    A nd           | Website:  www.openfoam.com                      |
|    \\/     M anipulation  |                                                 |
\*---------------------------------------------------------------------------*/
FoamFile
{
    version     2.0;
    format      ascii;
    class       volScalarField;
    location    "100";
    object      p;
}
// * * * * * * * * * * * * * * * * * * * * * * * * * * * * * * * * * * * * * //

dimensions      [0 2 -2 0 0 0 0];


internalField   nonuniform List<scalar> 
18166
(
0.161585
-0.00224024
0.0181946
-0.145595
0.429172
0.153022
-0.00748833
-0.278389
-0.270654
0.476967
0.0150516
0.0199775
-0.530521
-0.236303
-0.181796
-0.236637
0.00939291
0.0794828
0.0249889
-0.205676
-0.222083
0.00971016
-0.216904
0.0242687
-0.0005217
-0.00719904
0.142769
-0.0756272
0.0282205
-0.148316
-0.120216
-0.0145034
0.0133316
0.0180058
-0.0174316
0.00788311
-0.271944
0.00807479
-0.0204902
0.469072
0.00511708
-0.41337
0.0138877
0.0360312
0.160605
0.0218981
-0.088133
-0.120888
-0.107044
0.13405
-0.0797956
-0.0967491
-0.216738
0.00383104
0.014743
-0.145999
-0.421848
-0.538456
0.0239081
-0.061445
-0.152845
-0.0603149
-0.166163
-0.0714531
-0.229513
0.0226166
-0.20588
-0.105923
-0.509718
-0.078218
-0.0172814
-0.0119136
0.15557
-0.0192487
0.426903
0.38684
-0.223354
-0.517121
-0.052943
0.00867885
0.0102821
-0.243537
0.0239943
0.0248126
-0.0140133
-0.0408175
-0.0640376
-0.00063899
-0.0946351
-0.0202128
-0.274857
0.122085
-0.523779
0.0088462
0.00497304
-0.0413499
-0.014349
-0.0248198
0.0871061
-0.074524
-0.0019152
0.01829
-0.178844
-0.0688724
-0.0775121
0.0182774
-0.516618
0.506548
0.028743
0.0139763
-0.536141
-0.284596
-0.139115
-0.125928
0.00990164
-0.024875
-0.0439092
-0.11783
0.0402532
-0.100354
-0.088858
0.0290695
-0.327418
-0.316274
-0.155247
0.0222563
0.0212289
-0.529008
0.0592802
0.0502429
-0.153332
-0.509716
-0.0575316
-0.104777
0.0695445
-0.0859182
0.00852458
-0.00225189
-0.0585361
-0.114095
-0.309428
-0.234379
-0.119779
-0.10641
0.0259911
-0.319932
-0.188275
-0.177262
-0.0298921
-0.0647642
-0.0143143
-0.109582
-0.981797
-0.157211
0.0195455
0.0136622
0.00568348
-0.165937
0.00871859
-0.530752
-0.0117463
-0.103343
-0.0592915
-0.00650637
-0.0966144
0.453942
0.0206916
-0.107015
-0.215363
-0.554165
-0.191409
-0.123932
0.0478433
-0.102501
-0.253926
0.0210112
0.247372
-0.110235
-0.00272054
-0.000519208
0.0102227
0.0357431
0.367928
0.266367
-0.212029
-0.00378955
-0.0554687
-0.14027
0.00381834
-0.0244369
-0.158212
0.0253854
-0.0868031
0.0245642
-0.0295674
-0.118789
0.147062
-0.0242883
-0.119451
0.499617
-0.191099
-0.124057
-0.0282638
-0.18095
0.0165886
-0.0987586
-0.241772
-0.146543
0.373412
-0.333189
0.437321
-0.306652
-0.00255712
0.0222758
-0.085774
0.119305
-0.225237
-0.0371563
-0.214073
-0.247478
-0.0565739
0.00991406
-0.0036961
0.218169
-0.427822
-0.00974921
-0.0192414
-0.00473342
0.0337736
-0.0278272
-0.221559
-0.141098
-0.0456205
-0.117866
-5.12857e-05
-0.0406278
-0.0851597
-0.139828
-0.149086
-0.316485
-0.0868711
-0.223872
-0.194015
-0.0599269
-0.143697
0.0475048
-0.143165
-0.221575
-0.104703
-0.0250587
0.16765
0.0214742
0.0155536
0.060181
-0.110037
-0.527052
0.0133268
-0.202434
-0.555321
-0.0062109
0.0224569
-0.117912
-0.153031
-0.105337
-0.559878
-0.132145
-0.383761
-0.0176192
0.0101211
-0.0761956
0.140415
0.0223503
-0.00128513
-0.142507
-0.094506
-0.121211
-0.111683
-0.00508334
0.385191
-0.0145791
-0.0977407
-0.203305
-0.0151428
-0.0332028
-0.0548031
-0.169987
-0.0605168
-0.035283
-0.275698
0.010389
-0.0752232
-0.0852213
-0.0272546
0.0129094
-0.0131755
-0.118624
-0.00835422
0.0220534
-0.00955133
-0.145541
-0.110993
0.0091042
-0.00124306
-0.00152819
-0.264783
0.0111794
-0.147875
-0.145427
0.0363479
-0.0246632
-0.0562484
0.444814
-0.205399
0.101707
0.0107077
0.445385
0.295725
-0.0297329
0.0225505
-0.146095
0.00782003
0.0838918
-0.125566
-0.148624
0.0611572
0.132539
-0.0361378
0.011713
-0.0194037
-0.114064
-0.00226005
-0.106322
-0.0336291
-0.0280729
-0.531798
-0.335505
-0.180153
-0.202333
-0.277454
-0.117425
-0.0305677
-0.402992
-0.14686
-0.115495
-0.039685
0.0144764
-0.00766276
0.106076
-0.0112627
-0.13421
0.0247749
-0.0832297
0.022122
-0.00321803
0.275024
-0.0631674
0.286822
-0.0887849
0.0148175
-0.0190102
-0.000152344
-0.135434
-0.115354
0.0126613
-0.00707619
0.0261971
0.0202759
-0.111121
0.00585938
-0.443401
0.118182
-0.00151937
0.00842445
-0.182089
-0.236885
-0.266105
-0.115536
0.0122052
-0.0887262
-0.179339
-0.0283019
-0.114728
-0.122811
-0.0647075
-0.0262799
0.0311519
0.0227181
0.00349261
-0.147201
0.0304985
-0.0170744
-0.0654328
-0.0172247
-0.115334
-0.140875
0.0146896
0.0220983
-0.522019
-0.00545682
-0.00483903
-0.00787774
-0.220373
-0.339094
0.00858233
-0.213558
-0.0405459
-0.0277678
-0.122183
-0.123158
0.0343937
-0.258837
-0.533397
0.0640239
-0.177638
-0.0567042
-0.0727954
-0.165907
-0.087625
-0.0166815
0.0170368
-0.034996
0.0220326
0.458226
0.00555135
0.325746
0.0179496
-0.317412
0.0179998
-0.114815
-0.240938
0.102609
0.443335
0.0596165
-0.0358277
-0.0788153
-0.113837
-0.16483
0.002949
-0.456884
-0.0846007
-0.0167284
-0.319677
-0.203218
0.0104553
-0.104025
-0.397183
0.0137953
-0.337094
-0.117167
-0.0273495
0.209813
-0.145046
-0.248808
-0.0813592
-0.10522
0.447855
-0.141576
-0.154123
-0.0169773
-0.52783
0.0241134
0.0180756
0.452418
-0.181439
0.0133127
0.0346943
-0.0830345
-0.0553351
0.0467801
-0.00803169
-0.0137803
-0.0479151
-0.385673
-6.83273e-05
-0.0956903
0.0201609
-0.174054
0.0169406
0.000101134
-0.120448
-0.212219
-0.000490371
-0.14289
0.00486808
0.00562586
-0.247757
-0.479217
-0.143431
-0.0378107
0.267161
0.374917
0.0110396
0.0208581
0.012441
-0.0220293
-0.113295
-0.256855
0.0199895
0.00810379
0.305266
-0.508
-0.307798
-0.017222
0.0469883
-0.120021
0.0175904
0.0216906
0.0103317
-0.0127707
-0.145059
0.364276
-0.0264757
-0.10904
0.00849439
-0.194899
-0.000268742
0.00442461
-0.412144
-0.243534
-0.0470946
-0.11827
-0.139789
-0.21333
-0.253241
-0.228773
-0.290124
-0.184727
-0.0890858
-0.223611
0.0205607
0.284582
-0.026099
-0.0426899
0.297143
-0.121252
0.0250844
-0.308071
-0.191127
-0.0974465
0.0196846
0.0377874
-0.197246
-0.337995
-0.145747
-0.017739
-0.301422
-0.539901
0.055837
-0.0410557
0.0265483
0.090517
-0.519142
-0.537569
0.00373702
-0.240899
0.0177019
-0.104148
-0.054493
-0.00244657
-0.05739
-0.506086
-0.0249941
0.00347929
-0.388009
-0.259076
-0.183464
-0.177183
-0.0373492
0.00928616
0.0213286
-0.118716
0.215819
-0.113846
-0.0781044
-0.05046
-0.18593
-0.086067
-0.542929
0.047823
-0.430698
-0.0130043
0.376524
-0.309907
0.248898
-0.0574527
-0.113987
-0.485039
0.00458669
-0.517402
0.0251124
0.00391509
-0.305822
-0.231818
0.0143787
0.0134911
-0.0117899
0.39694
-0.35656
0.00345754
-0.188627
-0.0270227
-0.0331936
0.00483398
-0.172474
-0.194873
-0.0611528
-0.494954
0.0122675
-0.00333845
-0.112179
-0.273845
-0.15065
-0.185741
0.486513
0.0489992
-0.534603
-0.489495
0.0725736
0.249713
-0.0799129
-0.0504888
-0.0820119
-0.116056
0.10616
-0.151766
-0.017134
-0.0750451
-0.539416
0.00436788
-0.116553
-0.149003
0.0791539
0.0389357
-0.0172473
-0.0393553
-0.116704
0.00377172
0.0176759
-0.152498
-0.0155425
-0.149861
-0.0336107
-0.150682
0.0388898
-0.0810331
-0.018783
-0.48866
-0.194867
0.386079
-0.0185597
-0.252823
-0.252687
0.37038
-0.0278977
-0.33672
0.0538346
-0.563362
0.024132
0.291537
-0.247909
-0.116145
-0.284149
-0.270371
-0.147388
-0.0174866
-0.15912
-0.00213988
0.0995166
0.069561
0.0298967
0.00112898
-0.168381
-0.0960244
-0.0343955
-0.240779
-0.530457
0.201195
-0.0175137
0.0627771
0.00970459
-0.00563322
-0.0126914
0.0217469
0.355846
-0.0547699
-0.242844
-0.348267
-0.162815
-0.346014
0.121589
0.106009
0.0210887
-0.248036
-0.00262693
-0.163013
-0.117944
-0.0163234
-0.0809617
-0.112823
-0.163893
-0.122136
-0.0834794
0.102824
-0.0118687
-0.109117
-0.160459
-0.215248
-0.0746569
-0.245373
-0.244872
-0.0628049
-0.114512
-0.501484
0.103341
0.0052356
-0.220837
-0.0993292
-0.0949479
-0.146703
-0.00650949
-0.104806
0.23618
-0.00709561
-0.130758
-0.165864
-0.110785
-0.384666
0.145938
-0.0756136
0.00130688
0.264834
-0.285021
0.0685726
-0.394478
0.0103911
-0.186591
-0.285618
-0.0621114
0.0309396
0.0161488
0.121126
0.00950375
-0.512698
-0.116094
0.507461
-0.00798845
-0.00746668
-0.0112858
-0.518181
0.505727
0.156079
-0.521335
-0.0918529
-0.25762
0.0238763
0.00250076
-0.329392
0.0137914
-0.129449
0.444406
0.169148
-0.229901
-0.0271248
-0.185342
-0.125633
0.268051
-0.0454098
-0.00862138
-0.0353062
0.0174245
-0.172161
0.0245596
-0.0164811
-0.129671
0.063425
-0.118891
-0.0955728
0.0660599
-0.0012143
-0.11403
-0.0252613
-0.0633265
-0.11247
0.30267
0.00594993
-0.101223
-0.168873
-0.0204051
0.0105045
0.0192672
0.20955
-0.116634
0.00380075
-0.117934
0.00585153
-0.535227
-0.491826
-0.113359
-0.118271
-0.00736414
-0.0775852
0.437716
-0.00164044
-0.180777
-0.0198455
-0.00572542
-0.0180073
-0.0280562
-0.106632
-0.0143123
0.00376216
-0.000434486
-0.0168388
-0.13775
0.0452191
-0.509691
0.004441
0.0174203
0.00405642
-0.124263
-0.187506
-0.563687
0.323481
-0.00546553
-0.141748
-0.229546
-0.0215347
0.0135355
-0.131135
-0.176166
-0.0469367
-0.131872
-0.144065
-0.0556323
-0.0282029
-0.109474
-0.0740263
-0.107874
-0.161833
-0.49837
-0.0195007
-0.150275
-0.00801671
-0.325738
-0.092675
-0.130538
0.0304652
-0.199228
-0.117807
-0.165356
0.0215295
-0.0824065
-0.0176261
-0.162184
0.00487327
-0.0780475
-0.039111
-0.00125607
0.170347
0.00686255
0.0206734
0.470402
0.00706756
-0.317019
-0.0740717
-0.280162
0.0157686
-0.138584
0.0180026
0.0194996
-0.536172
-0.295587
-0.145855
0.0208743
0.0888057
-0.222695
-0.19362
0.0138098
0.00741728
-0.0486389
-0.119086
-0.0161673
-0.148219
-0.173163
0.0439154
-0.0169807
0.00260536
-0.0013652
-0.112434
-0.0159537
-0.0998276
-0.0921203
-0.0192385
-0.00899552
-0.254959
0.00674883
-0.0502684
-0.00495726
0.00505327
-0.14712
-0.134726
0.412446
-0.119686
-0.044974
-0.0281786
-0.50385
0.493262
-0.241454
-0.238065
0.231888
-0.14947
0.00441501
-0.0764609
-0.50942
-0.201254
-0.203496
0.00728877
0.00883893
-0.0572251
-0.359027
-0.317721
0.0182451
0.283259
0.0930397
0.482058
-0.260825
0.35071
-0.00735922
-0.288733
0.00355653
-0.0281448
-0.390156
0.00332867
-0.0403583
-0.562586
-0.115453
-0.00154338
-0.169007
0.268428
-0.0240562
0.34012
-0.016795
-0.552641
-0.442472
-0.151382
-0.169978
-0.335173
0.360285
-0.0179012
-0.0387783
0.0139224
-0.0166787
-0.0172269
-0.0533718
-0.28071
-0.130605
-0.0134599
-0.120252
-0.0918728
0.149088
0.0126853
-0.0458147
-0.18403
-0.52618
-0.316854
-0.122959
0.0207974
-0.0925577
-0.117261
-0.0579714
-0.215622
-0.12895
-0.457468
-0.104551
-0.0142856
0.00665401
-0.0540532
0.00348658
0.0747102
0.473826
-0.0388364
-0.27419
0.00715696
0.0182748
-0.00454602
-0.546976
-0.122093
0.00405152
-0.0269625
-0.470993
0.0173192
-0.259575
0.499649
0.0139144
-0.315778
0.0131861
-0.130378
0.468332
-0.238738
-0.292332
0.0104275
-0.0927805
0.467979
0.0358471
-0.189934
-0.403915
-0.105632
0.0280299
-0.122148
-0.0414212
0.0261131
-0.16828
0.495517
0.258034
-0.151763
-0.017013
-0.220169
-0.0907811
-0.0346847
0.228773
-0.502098
-0.138502
0.479752
0.0683697
0.333822
-0.236762
-0.016614
-0.0440159
0.0145714
0.205507
-0.0929283
-0.0101375
-0.0901156
0.207362
-0.0655975
-0.218579
0.00348297
0.187566
-0.285887
-0.234553
-0.101808
-0.335159
-0.00660862
0.032537
-0.514549
0.294715
-0.00819482
-0.0134287
-0.112844
0.148952
-0.156341
0.0218832
-0.042208
-0.196906
-0.142636
-0.435208
0.018635
-0.173281
0.031949
-0.105477
-0.141138
0.0411638
-0.147166
-0.118541
-0.11949
-0.119468
-0.0526389
0.515942
-0.13053
-0.240838
-0.0967899
-0.203984
0.14571
-0.563205
0.0191433
0.0193871
0.00632622
0.010991
-0.0465743
-0.0825374
0.00026218
-0.118924
-0.000964254
-0.023128
-0.121148
0.0184305
-0.0881307
-0.143506
-0.119046
-0.458974
-0.0289645
0.0376474
-0.00436324
0.019
-0.100292
-0.13297
-0.147073
-0.349359
-0.438824
-0.00908679
0.0391583
-0.04346
0.00428553
-0.0807745
-0.0339459
0.150653
-0.0176683
0.0136182
0.0600461
0.0108276
-0.137796
-0.214603
-0.0576978
0.323599
0.0113106
-0.00294009
-0.164956
-0.0698366
-0.168513
-0.292108
-0.0866316
-0.222267
-0.328754
-0.115203
-0.028959
-0.415759
0.00323788
0.491535
-0.0820104
-0.202635
-0.184759
-0.111579
0.125095
-0.0954988
0.0379471
0.0107986
0.00153173
-0.112798
-0.0843514
-0.290901
-0.141279
-0.110274
-0.0104782
0.512802
-0.117353
-0.000329057
-0.0409012
-0.0804007
0.0547944
-0.192812
-0.0672101
-0.0667713
0.493625
0.00992129
-0.309155
0.0652655
0.00475118
-0.404802
-0.00611214
-0.114358
-0.0310916
-0.16353
0.00373615
-0.115693
0.0144434
-0.0328357
0.481317
-0.151161
-0.0130493
-0.0103522
0.148885
-0.01784
-0.000518229
-0.184225
0.0532749
-0.234024
-0.120633
0.010933
-0.233487
-0.170736
-0.215685
-0.123807
-0.000720951
-0.111436
0.0383389
-0.106516
-0.0120076
0.223251
0.0588897
-0.0281124
-0.0912194
0.0216371
-0.482026
-0.115159
-0.332613
-0.00470793
0.0105684
0.0107211
-0.0156745
-0.178812
-0.0283262
-0.507285
-0.437977
-0.112022
-0.150139
-0.302302
-0.14601
-0.22374
-0.0176823
-0.0312198
-0.0494409
-0.11641
-0.056066
-0.0411492
-0.116576
0.00969531
-0.143647
0.0638078
-0.487992
-0.359671
-0.0142591
-0.10813
-0.173208
-0.104939
-0.079347
-0.11161
-0.297875
-0.106642
-0.538511
0.00737453
-0.115663
0.27283
-0.100638
-0.284082
-0.288974
-0.125677
-0.559357
-0.215597
-0.526387
-0.00986042
-0.117395
-0.0159493
-0.0383648
-0.0383275
0.0184283
0.0181743
-0.0183766
-0.00444993
0.0109786
-0.155841
-0.27522
-0.174668
-0.183879
-0.0173283
0.03228
-0.0232958
-0.121543
-0.316174
-0.00100148
-0.569349
0.0008338
0.00142617
-0.0914435
-0.386661
0.0490821
-0.332659
-0.0193372
-0.115847
-0.0267789
-0.200309
0.0723591
-0.173574
0.00724251
0.0120174
0.214837
-0.392018
0.00371185
0.0015807
-0.0823246
-0.100446
-0.0947524
-0.0179703
-0.166992
-0.415158
0.150861
-0.213742
0.104118
0.0171017
-0.214035
-0.00888876
-0.462774
-0.0272391
-0.118259
-0.0364829
-0.179076
-0.0172139
0.240095
0.00653134
-0.0068954
0.0776419
0.00913175
-0.0889373
-0.00158362
0.0159243
0.014365
0.0263292
0.00288885
-0.431465
-0.0669763
-0.467023
-0.154279
-0.225639
-0.330979
-0.220737
0.0131531
-0.289336
-0.511116
-0.00858919
-0.11851
-0.0708347
0.0355267
-0.114373
0.00125472
-0.477845
-0.0122969
-0.0877463
-0.118399
-0.186483
-0.0449456
-0.228013
-0.0330433
-0.199118
-0.104267
0.00302757
-0.286872
-0.406325
0.473523
-0.231845
-0.437374
-0.0687194
-0.519704
-0.302821
0.428841
-0.015157
-0.181105
0.0735807
-0.116383
-0.135408
-0.14297
0.184984
0.203947
-0.0192376
-0.283525
-0.00551635
0.488102
-0.1202
-0.10952
-0.00670306
-0.0835612
-0.189575
0.000245051
-0.154895
-0.152586
0.0556844
-0.121045
0.0206433
-0.20868
0.00613976
-0.48649
0.360619
-0.360946
-0.202576
-0.141605
-0.460228
0.37407
0.0327143
-0.126062
0.449223
0.0385878
0.0535578
-0.0184145
0.10174
-0.459433
-0.104816
-0.157746
-0.341361
-0.0697228
-0.0356021
0.0934829
0.00624836
-0.234041
-0.474234
-0.147489
0.175136
-0.088918
-0.0442811
-0.171681
-0.0254436
-0.0219779
-0.0425737
-0.206421
0.0490208
0.0102702
-0.111068
-0.456171
-0.136419
-0.0538207
-0.180149
0.00242479
0.0264221
-0.30057
-0.367578
-0.0348503
-0.149069
-0.111994
-0.191253
0.00296047
-0.119091
0.00331208
-0.157466
-0.0867444
-0.212078
-0.124334
-0.16433
-0.286143
-0.118395
-0.0216238
-0.12021
-0.0493793
-0.110376
-0.0236864
-0.17456
-0.165798
-0.412119
-0.162699
-0.279872
0.299977
-0.142537
-0.0818171
0.0122556
-0.29879
-0.346119
0.0621855
-0.0801024
-0.096668
0.0260467
-0.116658
0.00604651
-0.0906387
-0.385854
0.220692
0.0194867
-0.112173
-0.0257489
0.00875072
-0.410162
-0.0164071
-0.0750967
-0.121379
-0.0110616
-0.210715
0.327051
-0.0211855
-0.141559
-0.0168091
0.490952
-0.189917
0.0158931
0.0177751
0.0367586
-0.241109
-0.116125
-0.150332
-0.139388
-0.480534
-0.46297
-0.209034
-0.117624
-0.0161346
0.261898
-0.13423
-0.182226
0.0062705
-0.483621
0.0279574
-0.140809
-0.437691
-0.0163911
0.0117189
0.0657406
0.00816207
0.0150714
-0.203248
-0.109542
-0.102777
-0.115935
-0.0421434
-0.17186
-0.182234
-0.11686
-0.178668
-0.219539
0.0349745
0.0321572
-0.170417
-0.172447
-0.190292
0.00356735
0.0702951
0.0263095
-0.131384
-0.146893
-0.00111655
-0.175907
-0.113199
0.0196993
-0.463491
-0.321839
-0.0847286
-0.108448
-0.00210455
0.012937
-0.118094
-0.000311544
0.057192
-0.0590676
0.000512453
-0.016186
-0.0126374
-0.0756475
-0.147392
-0.113126
-0.134208
0.0121312
0.0179597
0.00199254
-0.10917
0.0171567
-0.407939
0.0202556
-0.121341
-0.250409
-0.00661662
-0.00664672
0.00372385
-0.0105262
-0.0361098
-0.301745
-0.421677
0.230212
-0.154995
-0.148065
-0.0825715
-0.000863027
-0.0547564
-0.040859
-0.519627
-0.0341943
-0.169049
0.0377282
-0.165718
-0.10776
-0.0942492
-0.158189
-0.128151
-0.0527022
-0.113957
0.283182
-0.0194541
0.0268596
0.00209247
-0.0319713
-0.485414
-0.00613372
-0.116622
-0.0285708
-0.156623
-0.207279
0.0215053
0.458011
-0.547243
0.101541
-0.0240682
-0.116469
-0.17755
-0.0135252
0.0162768
0.450992
-0.046889
0.00655851
-0.0159177
0.00439145
-0.198286
0.0814643
-0.12273
0.00735721
-0.14699
0.0311756
-0.306518
-0.137358
0.0813275
0.374708
0.0347346
-0.0392353
-0.0817197
-0.133301
0.0244796
0.0152139
-0.41107
-0.0738266
-0.020278
0.439354
-0.354731
-0.00895222
-0.198385
0.00798121
-0.439488
-0.148865
-0.0618179
0.449048
0.275849
-0.161472
-0.159584
-0.187313
-0.0246867
-0.0335124
-0.486125
-0.396581
0.00789728
0.404716
0.0519506
-0.55519
0.000652363
-0.0135427
-0.00176093
-0.238204
0.0165364
0.0106747
-0.153096
-0.0394416
-0.0144347
-0.137137
0.0437279
-0.0750143
0.386441
-0.460786
-0.0210193
0.0033543
-0.00251735
-0.255671
-0.0396504
-0.484292
-0.156448
-0.475893
0.00364618
-0.278566
-0.27386
-0.130926
-0.113781
-0.0259428
0.0812564
-0.109456
-0.111622
-0.0378905
0.023183
0.00914873
-0.00700544
-0.114254
-0.112496
-0.389193
-0.118812
0.0475781
-0.16142
-0.00798673
0.029313
0.0254408
0.0747554
0.0520214
-0.317495
-0.124732
0.0318194
-0.43517
-0.437259
-0.121047
-0.129613
-0.00515458
-0.306448
-0.407286
-0.0652748
-0.0171529
0.0010351
-0.108933
0.0586451
0.0171189
-0.092858
-0.282943
-0.119545
-0.121137
-0.404745
-0.0404633
-0.0385322
-0.134954
-0.0109718
-0.0177957
-0.191722
0.0819491
-0.0192936
0.113187
0.0962803
-0.0320939
0.345247
-0.116878
-0.480723
-0.0839132
-0.312239
-0.238804
-0.180527
-0.178233
0.0479737
0.00288132
-0.558448
-0.477774
-0.165065
-0.115734
-0.283392
-0.0478981
0.000916552
-0.225131
-0.154525
-0.154077
-0.00762341
-0.115038
0.0170691
0.0350115
-0.0926183
-0.115809
-0.0314617
0.0228669
-0.0171878
-0.242378
-0.150154
-0.116783
-0.0258831
-0.0729928
0.0151749
0.0171245
-0.10824
-0.252325
0.00366653
-0.503369
0.0250647
-0.164192
-0.0930165
-0.243023
-0.139275
-0.0112765
-0.559508
-0.00219846
-0.115452
-0.131941
-0.136861
-0.241661
0.0184137
-0.0214744
-0.00385056
0.0128469
0.355754
-0.0126424
-0.0539913
-0.0392313
-0.311162
0.0257912
-0.000641029
-0.13449
0.0179919
0.155546
-0.00815322
0.0114757
0.412234
0.0203885
0.0960878
0.0121476
-0.375896
-0.393071
-0.00208801
0.00389118
0.0265974
0.465634
0.0658058
-0.282397
-0.173826
-0.186559
0.0228963
-0.119989
-0.00997578
-0.153086
-0.0110235
-0.145387
-0.12862
-0.205635
-0.111658
-0.0261333
0.00807078
-0.00576228
-0.11556
0.0154209
-0.11615
0.454261
0.0112052
-0.117396
-0.0154409
-0.0687435
0.0108397
-0.132049
-0.0208115
-0.0239177
0.392975
0.00455678
-0.471605
0.00343252
0.0701629
-0.000609256
-0.0146688
0.00262087
0.0105938
-0.55274
-0.0726948
-0.213327
0.0198717
-0.0411982
-0.190108
-0.0920258
-0.0606341
-0.130941
0.196176
-0.0164673
0.0361324
-0.113863
0.01199
-0.139802
0.426601
-0.496005
0.0198945
-0.214503
0.0118928
0.0102862
-0.115958
-0.0203779
0.00537818
-0.367025
-0.0200852
0.0820773
0.000629361
0.334214
-0.173749
-0.159273
-0.161732
0.171644
0.00558685
0.0113467
-0.543769
-0.0357697
0.00382625
-0.00306668
0.097039
-0.398159
0.0207461
0.0174816
-0.108926
0.000377641
-0.118731
-0.11977
-0.025951
-0.129876
0.467521
-0.0624731
0.00900118
-0.217738
-0.0641483
-0.23446
0.416903
-0.0132408
0.00347963
0.0207744
-0.038633
0.0110723
-0.00733617
-0.0333244
-0.543543
-0.0914269
-0.00835024
0.018022
-0.201583
-0.119795
0.110539
-0.211667
0.0267255
-0.039883
0.32292
-0.153305
-0.0799739
-0.562505
-0.134275
-0.028948
-0.0358725
-0.558215
0.0282566
0.0110676
0.038239
0.0312456
0.180135
-0.302598
-0.0392693
-0.12049
-0.29958
0.000767996
-0.0607678
0.0512732
-0.311858
-0.160525
0.00159486
0.398099
-0.340733
-0.171222
-0.20511
-0.00555753
0.0514849
-0.4659
0.0786241
-0.00619137
-0.258203
-0.178088
-0.220685
0.0230275
-0.307536
0.0248507
0.00484441
-0.185157
-0.0989702
-0.206834
-0.538217
-0.109102
-0.0835232
-0.0205336
-0.0319387
0.00180898
0.00716761
-0.129408
-0.34503
0.00298771
-0.016664
-0.0341089
-0.0421558
-0.15991
0.206006
-0.0109843
-0.179057
-0.139629
-0.0421158
-0.399229
-0.0161132
0.0483041
0.00691875
-0.0119572
-0.021645
-0.0419928
-0.109758
-0.20061
-0.304559
-0.0867162
-0.216874
-0.249554
-0.479861
-0.160122
-0.119057
0.427938
-0.000106121
0.00492776
-0.116041
-0.129434
-0.102339
-0.24013
-0.284814
-0.551066
-0.195273
-0.498012
-0.0295047
0.00282347
-0.21011
-0.0389018
0.00817995
0.445363
-0.0761571
-0.106066
-0.230575
-0.188213
-0.115774
-0.0314604
-0.191873
0.143296
0.00204285
-0.0132316
-0.15743
-0.376477
-0.368511
-0.382498
-0.011867
0.0222671
0.198566
0.0369511
-0.255997
-0.24751
-0.267383
-0.199502
0.0122637
-0.0510692
-0.0860836
-0.526022
-0.0149276
-0.282453
0.00917701
-0.0186858
-0.184407
-0.256137
-0.0306796
-0.150563
-0.370625
-0.166176
-0.0178167
-0.116207
0.0345289
-0.304326
-0.0195326
-0.00716878
0.246748
-0.121767
-0.0688027
-0.0275556
-0.496997
-0.110382
-0.425485
-0.253363
0.154265
0.00414686
-0.136059
-0.261743
-0.0173301
0.0178608
-0.237256
-0.544607
0.0396637
-0.0316497
0.011482
-0.554058
0.004114
-0.177566
-0.303393
-0.118813
-0.110199
-0.20438
0.00606036
-0.0710127
-0.0147571
-0.336352
0.241594
0.00656777
0.0203926
-0.112505
-0.277327
-0.00243746
-0.312391
0.00297832
0.00300765
-0.099171
-0.32174
-0.0580148
-0.066497
-0.0234242
-0.0433746
-0.153312
-0.127268
-0.410601
-0.101217
0.0456304
0.340814
-0.117177
-0.224318
-0.139768
0.0642835
-0.117611
0.0321634
-0.194412
-0.117205
0.00766835
-0.214483
-0.113573
0.00742476
-0.0284936
-0.182119
0.00801896
0.0234813
-0.045877
0.0872885
-0.120161
-0.00428975
-0.0182996
-0.0702962
0.0210547
-0.323778
-0.0406313
-0.547073
0.0256526
0.0088281
-0.181938
-0.133994
-0.42613
-0.148269
0.460381
-0.469386
-0.102903
-0.0247778
0.0234321
-0.145122
-0.0983153
-0.020442
-0.063255
-0.0282388
0.0721733
-0.175591
-0.208436
-0.211755
-0.315856
-0.0342409
-0.132413
-0.483837
-0.00987358
0.49598
-0.0302165
-0.0211119
0.154992
-0.0151715
0.00468574
-0.049428
0.0417335
-0.0965434
0.36945
-0.026649
-0.247666
-0.560843
-0.114738
-0.521426
0.0362593
-0.0314825
-0.301765
-0.338403
-0.119459
-0.0708887
-0.381377
-0.130337
-0.155235
0.00930945
-0.0213957
-0.169219
0.00708025
0.187407
-0.207348
-0.0947374
0.266126
0.00554838
-0.0119775
0.0163735
-0.0394337
-0.116298
-0.244337
0.0669799
-0.139662
-0.543564
-0.0107883
-0.0505404
-0.190257
-0.470061
0.00393695
-0.113771
-0.128596
-0.459401
-0.0489891
-0.385673
-0.116558
-0.0706142
-0.175139
0.363171
-0.212935
-0.135163
-0.14466
-0.117662
0.00788635
-0.175379
-0.139363
-0.0354595
0.0962263
-0.0430324
-0.308858
0.0119638
-0.00215787
0.0113761
-0.0769122
0.130283
-0.364751
0.0561842
-0.540089
-0.555597
-0.252554
-0.436925
0.000681072
-0.0651348
0.0247142
-0.0943878
-0.0244703
0.00794268
-0.103861
-0.470965
-0.00060531
0.0153607
-0.154654
-0.322502
-0.034546
0.369392
0.0305578
-0.0486548
0.0300693
-0.151925
-0.0370268
-0.00304148
-0.0260065
-0.215625
-0.118708
-0.10649
-0.0615457
-0.0111582
-0.194048
-0.0471384
-0.155672
-0.12224
-0.470011
-0.16763
0.00497475
-0.132159
-0.0571725
-0.0364342
-0.0219908
0.0074769
-0.191518
-0.0196511
0.0232806
0.00746597
-0.0039343
0.00941171
-0.25401
0.17034
-0.132946
-0.151411
-0.20682
-0.327781
-0.211978
-0.0133227
-0.0379367
-0.387833
-0.15892
-0.126145
-0.200872
-0.14523
0.049428
-0.0271977
-0.489895
-0.0156522
-0.297586
-0.529534
0.0218345
-0.131459
-0.428875
-0.336615
0.0141827
-0.0266889
-0.0851205
-0.00133383
0.197352
-0.0119358
0.00116075
-0.13659
-0.12376
-0.496506
0.0308154
-0.009765
0.0146174
-0.124475
-0.0157336
-0.117569
-0.205772
-0.116762
-0.00353439
-0.0755083
0.0120105
0.00809138
-0.0111879
-0.120878
0.00337417
-0.391454
0.354444
-0.428787
-0.0227566
0.231069
-0.361113
-0.0463738
-0.30842
-0.369055
-0.187321
0.0304892
-0.304995
-0.115848
0.00295821
-0.164909
-0.497211
0.000945795
-0.225585
-0.132037
-0.1306
-0.145442
0.0255556
-0.113867
-0.196948
0.43039
0.0252806
-0.151258
-0.20158
0.257503
-0.367827
0.446546
-0.433836
0.0177042
0.000913448
-0.0936348
-0.516819
-0.121093
-0.24536
-0.0969373
-0.213455
-0.242339
-0.297223
0.0820305
-0.00517464
-0.0017944
-0.340313
-0.26523
-0.490014
-0.5436
-0.0861608
0.1649
-0.111096
-0.202582
-0.00366535
-0.558765
-0.0104339
0.0636625
0.00107507
0.00155489
-0.412404
-0.0133232
0.209796
-0.146667
-0.036469
0.0269359
-0.133473
-0.0347211
-0.010335
-0.18963
-0.0274554
-0.11683
-0.273087
-0.125058
0.00334186
-0.489662
-0.0159307
-0.207146
-0.292071
0.0187727
0.0171483
-0.0329935
0.00735314
0.0144056
-0.0353491
0.0173105
0.00661977
-0.264263
0.079035
-0.00418976
-0.0237467
-0.0115136
-0.18279
-0.152998
-0.138329
0.020113
-0.0291795
-0.371814
-0.154246
0.158636
0.000531379
0.0168114
-0.0154625
-0.133333
-0.167418
0.0629512
-0.215899
-0.254727
-0.282776
-0.426475
-0.108449
-0.00176754
-0.120335
-0.116901
-0.109066
0.00123069
-0.38884
-0.0297908
-0.544445
-0.0232687
-0.119718
-0.0075941
-0.350278
-0.133715
-0.0946154
-0.22534
-0.205994
0.0105179
-0.0909672
-0.22267
-0.101295
-0.0214755
0.0359012
0.0394406
-0.510664
0.23037
0.00218277
-0.0122713
-0.155578
-0.0159734
-0.0818022
0.497013
-0.114487
-0.174842
-0.141502
0.0151501
-0.113253
-0.00670156
-0.398638
-0.0186936
-0.181817
0.0831099
0.00245527
0.0203665
-0.153922
0.146495
-0.00352675
-0.353573
-0.0257986
-0.237455
-0.171127
-0.217576
-0.400832
-0.118672
-0.233171
-0.117046
0.0535003
-0.0792621
-0.0796198
0.0109211
-0.0181769
-0.115883
-0.143778
0.00719217
-0.015662
-0.0130852
0.00347671
0.420227
-0.124079
0.0403155
-0.120286
-0.313396
0.156501
-0.118057
-0.12019
0.170168
0.101358
-0.0606119
0.0076818
-0.0179488
-0.015059
0.14155
-0.00782271
0.0117663
-0.0505481
-0.232458
0.00756723
0.0155511
0.0018352
-0.0153422
0.0091724
-0.0949417
-0.0685732
-0.115851
-0.113502
-0.0148351
0.432537
-0.182922
-0.0193763
-0.173207
-0.218588
0.0192553
-0.403068
-0.133001
-0.0115572
-0.113664
-0.136258
-0.0882289
0.0187943
-0.0927042
-0.0243327
-0.176587
-0.096788
-0.199538
-0.446012
-0.137606
-0.0681774
0.00732167
-0.339457
-0.0887907
-0.112215
-0.382864
-0.34467
-0.117896
-0.312849
-0.030065
0.105374
-0.510032
-0.258683
-0.0704688
0.149215
-0.161127
-0.00994079
-0.116524
-0.116271
-0.242993
0.0221435
0.103946
-0.564182
-0.16794
-0.00967444
-0.235945
0.0746924
-0.0207997
-0.157916
-0.345378
-0.0591475
0.0281447
-0.0525472
0.489921
-0.0621122
-0.553476
-0.252586
-0.493178
0.0116199
0.0146983
-0.118581
-0.120179
0.102305
-0.0771685
-0.0827238
-0.117225
0.413577
-0.301735
-0.166139
-0.396337
-0.273142
0.0229359
-0.21443
-0.213089
-0.0277196
-0.481421
-0.115349
-0.0556184
-0.109548
-0.194934
-0.114818
-0.0167542
0.187693
-0.169243
-0.092225
-0.0141158
0.00766501
-0.117493
-0.0106595
0.0847011
-0.141269
-0.120024
-0.410247
0.4195
-0.189245
-0.228558
-0.296646
-0.12485
0.00511352
0.0711771
-0.0564346
-0.32872
0.00642306
-0.176628
-0.208988
-0.233333
-0.439366
0.0687102
-0.239614
-0.155212
-0.352227
-0.273416
-0.0630552
0.387712
0.0144916
-0.0240788
-0.135421
-0.0835187
-0.124125
-0.325233
0.00198218
0.00236761
-0.483052
-0.0041456
-0.165448
-0.00496855
-0.174939
0.0147374
-0.065176
-0.186538
-0.00382103
-0.248475
-0.227021
-0.204392
0.0310865
-0.0882006
-0.135323
-0.188002
-0.290098
-0.475204
-0.12282
-0.0606303
-0.00999096
-0.00212865
-0.133778
-0.0439935
-0.152834
-0.35057
-0.254819
0.0850256
-0.289838
-0.0135524
-0.119746
0.414423
0.0245481
0.00254391
-0.276591
-0.0386823
-0.0245737
0.407365
-0.00400769
-0.283293
-0.473957
-0.500186
-0.513191
0.143858
-0.16677
-0.000692843
-0.211932
-0.00671018
0.0367672
0.0150886
-0.101747
0.0061694
0.00721926
-0.407211
-0.0104895
-0.0211522
-0.0434366
0.240106
-0.114715
-0.21693
-0.11554
-0.0795188
0.00202981
-0.374561
-0.0986628
0.0421001
-0.0522352
-0.234112
-0.217044
0.00300379
-0.417872
-0.441313
-0.0803386
-0.181246
-0.0663062
0.0272502
-0.286189
-0.391321
-0.222577
0.411978
-0.10422
0.0379309
0.112626
-0.0514877
0.0204973
-0.22135
-0.287936
0.0124915
-0.0197619
-0.473021
-0.40992
-0.290224
0.100849
-0.181386
0.18153
-0.117575
0.0387525
-0.0211356
-0.15238
-0.112256
-0.222997
-0.140289
0.144233
-0.103904
-0.34011
-0.276705
-0.0874768
-0.119385
0.2129
-0.0144383
-0.110747
0.0444581
-0.0205654
-0.00745617
-0.459531
0.00780223
-0.0148942
0.0491184
-0.289637
-0.0445233
0.0998389
0.0216854
0.432767
-0.0851506
0.098697
0.0119572
-0.259359
-0.221651
0.0979129
-0.008968
0.001038
-0.151311
-0.125982
0.0188465
0.0541989
0.44278
-0.0170419
-0.233897
0.16762
-0.358641
0.0116416
-0.0833626
-0.0118413
0.0465436
-0.0292922
0.422126
-0.176644
0.423475
0.437073
-0.029149
0.304632
-0.0893301
-0.113523
-0.00902814
0.0177032
0.0768821
-0.214659
-0.343089
-0.047591
-0.012974
0.208342
0.404729
-0.436293
-0.0236557
-0.362294
0.0276984
0.0205132
0.0146626
0.438247
-0.0232568
-0.0419234
0.00513406
-0.314377
-0.0565141
-0.00772363
-0.257355
-0.126809
0.00278635
-0.478033
-0.0692106
0.205681
-0.397259
0.450842
-0.00594219
-0.4467
-0.135111
-0.541248
-0.0154448
-0.118078
-0.0378407
-0.0768601
-0.222886
-0.034875
0.466451
-0.0905654
-0.116908
-0.168366
-0.0127544
-0.164913
-0.296526
-0.136541
0.0173835
-0.125797
-0.109329
-0.0770395
-0.367614
0.111689
-0.231117
-0.142735
-0.119086
-0.124911
-0.0165769
0.0233764
0.113793
0.299333
-0.0955313
-0.0132868
-0.0551426
0.0242059
-0.140767
-0.0138481
-0.235809
0.0140389
-0.208471