/*--------------------------------*- C++ -*----------------------------------*\
| =========                 |                                                 |
| \\      /  F ield         | OpenFOAM: The Open Source CFD Toolbox           |
|  \\    /   O peration     | Version:  v2012                                 |
|   \\  /    A nd           | Website:  www.openfoam.com                      |
|    \\/     M anipulation  |                                                 |
\*---------------------------------------------------------------------------*/
FoamFile
{
    version     2.0;
    format      ascii;
    class       surfaceScalarField;
    location    "100";
    object      phi_0;
}
// * * * * * * * * * * * * * * * * * * * * * * * * * * * * * * * * * * * * * //

dimensions      [0 3 -1 0 0 0 0];
oriented        oriented;


internalField   nonuniform List<scalar> 
26940
(
0.133593
-0.0851247
-0.0484681
0.502382
-0.18971
-0.312672
0.128667
-0.470766
0.342099
-0.0330348
0.125039
-0.0920042
-0.0205048
0.00664775
0.0138571
-0.103798
0.102491
0.00130628
-0.373439
0.394009
-0.0205695
-0.00422415
0.00422415
-0.00341144
-0.000266012
0.00367745
0.00838045
-0.0128545
0.00447404
-0.28344
-0.0989578
0.382398
0.275579
0.0604655
-0.336044
-0.00342963
0.00468332
-0.00125369
0.0968899
-0.0123479
-0.084542
-0.0229802
-0.0225635
0.0455437
0.0979497
-0.00105979
-0.0157678
0.313773
-0.298005
-0.0219132
-0.0197779
0.0416911
0.331233
-0.148257
-0.182976
-0.000369843
0.000479768
-0.000109925
0.106865
-0.123133
0.0162675
0.352292
-0.36806
0.135856
-0.0289908
-0.42421
0.250947
0.173263
-0.00568947
-0.365549
0.371238
0.10216
-0.475599
-0.0902697
0.142696
-0.0524267
-0.210739
0.106153
0.104586
-0.0697852
-0.193113
0.262898
-0.12759
0.0945549
0.00360324
-0.000810888
-0.00279235
0.00506393
0.372509
-0.377573
0.252148
-0.328605
0.0764569
0.365861
-0.192213
-0.173648
-0.231445
0.410789
-0.179344
-0.517288
0.231122
0.286167
0.00111488
-0.00452632
-0.207341
-0.309948
0.0729318
-0.308435
0.235504
-0.00556609
0.0139465
0.372755
-0.481382
0.108626
-0.0907829
0.0474881
0.0432948
0.369863
-0.117715
0.308939
-0.248039
-0.0608999
-0.0730567
-0.0351837
0.10824
0.489653
-0.27716
-0.212493
0.135695
-0.0131079
-0.122587
0.00360324
0.110423
-0.101866
-0.00855733
0.130525
-0.0698454
-0.0606795
-0.0459886
-0.116043
0.162031
0.15721
-0.132927
-0.0242827
-0.0788949
-0.0473328
0.126228
0.122535
-0.461357
0.338822
-0.405998
0.122558
-0.00569944
0.00103514
0.0046643
-0.0481673
-0.0426156
-0.00181607
0.0111431
-0.00932704
0.193566
-0.253043
0.0594765
-0.0159594
-0.155835
0.171795
0.101142
-0.153792
0.0526502
0.199905
-0.0374551
-0.16245
-0.00331388
0.0039479
-0.000634017
-0.212672
0.101641
0.111031
-0.0780537
-0.0205362
0.0985899
-0.179905
0.367684
-0.18778
0.00294638
-0.00467072
0.00172434
0.0185963
-0.0304757
0.0118794
-0.00220102
0.0310657
-0.0288646
0.206412
-0.152728
-0.0536836
-0.402148
0.170703
-0.0765533
-0.169799
0.246352
-0.12511
0.0520537
-0.18346
0.215639
-0.0321787
-0.017917
0.017917
-0.021439
0.0281751
-0.00673615
-0.0712449
0.125094
-0.0538486
-0.0230475
0.0208465
0.0577772
-0.220636
0.162858
-0.170533
0.467796
-0.297263
-0.479412
0.0143022
0.46511
-0.0067716
-0.00599722
0.0127688
-0.237198
-0.433466
0.150657
0.282809
-0.422346
0.533517
-0.111171
0.180627
-0.280239
0.0996124
0.221918
-0.239124
0.0172062
-0.389144
0.548504
-0.15936
-0.141461
0.157923
-0.0164617
-0.261725
0.334657
0.00372888
-0.00391156
0.00018268
-0.128789
0.0178626
0.110926
-0.0105252
0.00124416
0.00928108
0.29013
0.189019
-0.479148
-0.07941
0.452165
-0.0686708
0.249298
-0.0662228
-0.299098
0.365321
0.107268
-0.113584
0.00631611
-0.182269
0.146824
0.0354447
0.0331616
-0.185635
0.152473
0.489715
-0.475941
-0.0137744
-0.43384
0.138378
0.295462
0.035055
-0.0580353
-0.0861796
-0.126492
0.109186
0.0972259
-0.324866
-0.108974
-0.0203989
0.0156528
0.00474616
-0.00561827
0.00302993
0.00258834
0.118037
0.022996
-0.141033
-0.294367
-0.103197
0.397564
0.007835
-0.00965108
-0.00404682
0.00802502
-0.0039782
-0.0137347
0.0121288
0.00160588
-0.0209133
0.0522562
-0.0313429
-0.0917698
0.400007
-0.308237
0.110943
0.214778
-0.325721
-0.106729
0.117106
-0.0103771
0.00082364
-0.00128692
-0.188873
-0.0367084
0.225582
-0.054276
0.00209515
-0.0258838
-0.0312664
-0.22646
0.156674
-0.0245879
-0.0685238
0.0931116
-0.0457329
0.0406476
0.00508531
-0.130574
0.0944672
0.0361064
-0.389514
0.244046
0.145468
0.233267
-0.382581
0.149314
0.00730851
-0.00318251
-0.004126
-0.18073
0.106528
0.0742026
-0.0760089
-0.0343524
0.110361
0.109518
-0.116964
0.00744527
0.0344177
0.0127722
-0.04719
0.154025
-0.217205
0.0631806
0.00365157
-0.0179397
0.0142881
-0.175339
0.0723753
0.102963
-0.0118093
0.147504
-0.446659
0.239318
0.141312
0.200831
-0.342143
-0.049531
0.203556
-0.00144038
0.00127033
0.000170049
0.000262738
0.0011985
-0.00146124
-0.0991243
0.0210706
-0.0627382
-0.0227953
0.0855335
0.00151127
-0.0144174
0.221751
-0.103713
-0.00875518
-0.0473205
0.0560757
0.000507502
-0.000507502
-0.0619705
0.0179308
0.0440397
0.217579
-0.297063
0.0794842
0.24083
-0.0988427
-0.141988
0.358645
-0.424868
-0.0133313
0.0155175
-0.00218618
-0.0203989
-0.0581534
-0.0724201
-0.0776977
-0.303955
0.381652
-0.433021
0.138654
-0.214073
-0.0102283
0.224301
-0.00409302
0.000779136
-0.297754
-0.148905
0.00387888
0.109947
0.318497
-0.428444
0.0332755
-0.0142335
-0.019042
0.144182
-0.22018
0.0759985
-0.417526
-0.0380998
0.455626
0.015749
0.0180566
-0.0239316
0.005875
-0.102602
0.375202
-0.2726
0.00906089
-0.00754962
-0.00628833
-0.00694833
0.0132367
0.00984519
-0.0104096
0.0005644
-0.0954057
0.105332
-0.00992649
-0.0625113
0.041598
0.059551
-0.13556
0.0218056
-0.00320932
0.0653644
0.0178668
-0.0832312
0.129007
0.181888
-0.310895
-0.045734
0.0230432
0.0226907
0.00304535
-0.0320034
0.0289581
-0.237347
-0.285538
0.522885
-0.463704
0.07456
-0.348663
0.256893
0.0493925
-0.138801
0.0894086
0.0257339
-0.0484271
0.0226932
-0.0408205
-0.0049135
0.0196688
0.0577963
-0.0774651
-0.256485
0.424728
-0.168243
-0.138793
0.0460387
0.0927547
-0.0448678
-0.0834692
0.128337
-0.339201
-0.0447724
0.383973
-0.228092
0.339035
-0.0275895
0.128731
0.271948
0.0592845
0.174322
-0.162909
-0.0114129
-0.26348
-0.169986
-0.186761
0.142092
0.044669
-0.00294094
0.000116706
0.00282423
-0.0914608
-0.012337
-0.133133
-0.0536282
-0.00171882
-0.0036685
-0.00194976
0.00570802
-0.101114
9.18487e-05
0.0102975
-0.0103894
-0.185979
0.313351
-0.127373
-0.0170735
-0.044897
0.0249453
-0.201118
0.176172
-0.165431
0.0325041
0.0117221
-0.0184936
-0.00600288
0.000303438
-0.020763
0.0243467
-0.00358366
0.00706556
-0.00706556
-0.011968
-0.00853682
0.0020049
-0.00174216
0.265035
-0.174354
0.365995
-0.19164
-0.135677
0.180953
-0.0452756
-0.103794
-0.0249944
-0.0748477
-0.0175288
0.0923765
0.000538892
0.0125146
-0.0188029
-0.0113779
0.00538065
-0.172073
-0.0285979
0.20067
0.0162726
0.316417
-0.33269
-0.409777
0.153292
-0.0967567
0.0507296
0.0460272
0.00987343
-0.0100252
0.000151731
-0.106218
0.287072
-0.180854
-0.107902
-0.00568195
0.546801
-0.395801
-0.151
-0.150239
-0.0454465
0.195685
-0.297482
0.111503
0.000509132
-0.000732832
0.0002237
0.0129717
-0.00413335
-0.00883833
0.256225
-0.101342
-0.154883
0.00231006
-0.000981655
-0.00132841
-0.410158
0.544494
-0.134337
0.102766
-0.261514
0.158748
-0.175953
0.0402757
-0.0878969
-0.0564585
0.144355
0.00913352
-0.00793982
-0.0011937
0.0593432
-0.0680984
0.16097
0.0133523
0.00928112
-0.00702534
-0.00225578
-0.000934643
-0.000747088
0.00168173
-0.152361
0.136401
-0.00380299
0.0531199
-0.0493169
-0.199995
0.220576
0.0801713
0.00228052
0.0070006
0.00463816
-0.0213816
0.0167434
0.224951
-0.247366
0.022415
0.0644521
0.0691407
0.412216
-0.178949
-0.232982
0.257928
-0.102529
-0.0782015
-0.016258
0.00292672
0.00806544
-0.00105097
-0.00701447
0.110712
0.295707
-0.406419
0.0116267
0.00230657
-0.0139332
0.00146362
0.00838157
-0.431552
0.0140257
-0.190149
0.370315
-0.180166
0.0016494
0.000660664
-0.0974543
0.116138
-0.0186835
0.0345517
0.0758714
-0.00385303
0.00503541
-0.00118238
-0.0112835
0.0165867
-0.00530323
-0.00394207
-0.00716904
0.0111111
-0.206082
0.0226219
-0.0366471
-0.442765
0.113316
-0.0801543
0.0402552
-0.345536
0.171182
0.316542
-0.470085
0.153543
0.000182148
-0.0279986
0.0278164
0.145561
0.0123612
0.000150931
0.00797814
-0.00812907
-0.0328678
0.0359131
0.22098
0.32582
-0.025826
0.00438709
0.363709
0.123703
-0.0268498
-0.0968534
-0.00212553
0.00507191
-0.183728
-0.0223545
0.169844
-0.278675
0.10883
0.0644571
-0.23653
-0.140341
0.0440297
0.0963116
-0.0204104
0.220316
0.294977
-0.149034
-0.145943
0.00476311
-0.00364824
-0.0286124
-0.32005
-0.0349365
-0.175803
0.11947
-0.13128
0.220974
-0.121028
-0.099946
-0.292401
0.403113
-0.223273
0.0395457
-0.000883882
-0.00205706
-0.310428
-0.0541119
0.36454
-0.137022
-0.208515
0.17937
-0.285588
-0.0684118
0.0646089
0.00260559
0.0388011
-0.0414067
-0.443182
0.272649
-0.315372
0.0785106
0.236861
-0.0986399
0.415182
-0.0308577
-0.0323185
0.0631762
-0.402937
0.192745
0.210192
-0.00482677
-0.00117611
-0.128557
0.0987297
0.0298271
0.187362
0.121577
0.21191
-0.330661
0.118751
0.144229
-0.217338
0.0731089
-0.0229792
0.00644513
0.016534
0.000651403
-0.00102125
0.0536325
0.107095
-0.160728
0.316804
-0.345416
-0.0140577
0.0152569
-0.00119917
-0.0581239
0.0106527
0.0474712
0.10605
0.114924
0.175845
-0.0913311
0.0921753
-0.000844256
-0.155254
0.362902
-0.207647
-0.133762
-0.0485064
0.0133243
-0.0132324
-0.122402
0.0249476
0.135664
-0.111594
-0.0240704
-0.124675
0.0548294
0.188793
0.106184
-0.175937
-0.227
-0.295901
0.400733
-0.104832
0.0169517
0.00161763
-0.0185694
-0.209358
0.35067
-0.0107658
-0.0949376
-0.338882
0.059939
0.278943
0.0388913
0.00644833
-0.0453396
-0.00780072
0.00644617
0.00135455
0.0994264
-0.0148358
-0.0845906
-0.000510941
0.0121376
0.00381368
-8.48029e-05
0.0185461
0.00075449
-0.0193006
0.323354
-0.105775
0.00510232
0.00197733
-0.00707965
-0.0849448
-0.00638629
0.00359037
-0.00104753
-0.00254284
-0.168116
0.270881
0.263056
-0.378384
0.115328
0.346532
0.0329046
-0.379437
0.157739
-0.104106
0.186557
-0.26311
0.0567293
-0.144626
-0.00427941
0.197846
-0.0100871
0.129557
-0.322691
0.18567
0.307474
-0.430228
0.122754
0.0485448
0.017727
-0.0662718
0.17696
0.0449581
0.00707981
-0.0652037
0.161964
-0.152544
-0.00942022
-0.142942
-0.38609
0.0901897
-0.342885
-0.120819
-0.0150904
0.00380695
-0.00220028
0.000700423
0.00149986
0.116597
-0.408998
0.298365
-0.402853
0.104489
0.210652
0.13239
-0.343042
-0.394812
0.00439228
0.390419
-0.0103119
0.0995333
-0.0892214
0.567347
-0.330561
-0.236787
-0.0146518
0.0229765
-0.00832468
-0.0405978
0.0186846
-0.526513
0.400694
0.125819
-0.300033
0.144778
-0.0873467
0.0715601
0.0157866
-0.00496025
0.00790304
-0.00294279
-0.0176384
0.0565296
0.00213891
0.00145145
0.379961
-0.516011
0.13605
-0.000944825
-0.0020002
0.101427
-0.0255303
0.000355504
-0.00179588
-0.0112785
0.0860261
-0.0747477
0.107108
0.133723
0.0761399
-0.240721
0.164581
-0.328921
0.263444
0.065477
0.19041
0.220259
0.299456
-0.519715
-0.000605313
0.00973883
-0.218821
-0.1101
0.285371
0.117245
-0.402616
0.151633
-0.219717
0.0680844
-0.0498696
-0.239423
0.289292
0.0128679
-0.0134827
0.000614875
0.0283457
0.086553
-0.114899
0.171771
-0.471912
0.300141
0.166962
-0.0123334
0.0018082
0.217282
-0.396209
0.178927
0.245362
-0.404031
0.158669
0.26813
-0.277201
0.00907036
0.0871694
0.0130466
-0.100216
-0.00157849
-0.00622223
-0.226374
0.516503
0.0628158
-0.043147
-0.28577
0.200936
0.0848338
-0.211606
-0.085876
-0.00240376
-0.00630761
0.00871137
-0.00812332
0.00571956
-0.258093
0.10457
0.153523
0.0457184
-0.076576
0.00663062
-0.134931
0.121498
0.0134332
-0.0689716
0.06509
0.00388152
0.0755586
0.141468
-0.217026
-0.0114815
-0.174153
-0.0747614
-0.0655799
0.073166
0.00332086
-0.0764869
-0.145986
-0.414866
-0.516259
0.30212
0.214139
0.312718
-0.154823
-0.157895
-0.195834
-0.19368
0.0156072
0.00244943
-0.208964
0.042373
0.166591
-0.0153983
-0.0136549
0.0290532
-0.3251
0.453768
-0.107855
0.0832668
0.237206
0.128655
-0.00159523
-0.000605056
0.00248179
-0.00248179
0.175257
-0.0609377
-0.114319
0.0231771
-0.012157
-0.0110201
0.0292631
0.106401
0.163685
-0.184031
0.138043
0.0144446
-0.00157675
-0.0517939
-0.00885503
0.0606489
0.462896
-0.456822
-0.00607405
-0.0187442
0.0040924
0.160252
0.0159966
-0.176248
-0.282088
-0.118132
0.400219
-0.0117388
-0.0339941
0.00510708
-0.00723262
0.324462
-0.308189
0.0108385
0.022437
0.00871901
-0.00361669
-0.318007
-0.115014
-0.00756653
0.00756653
0.0701215
-0.0804334
-0.293796
0.0821899
-0.0386812
-0.0580755
-0.0302103
0.0303924
-0.0167634
0.0821277
-0.168235
0.0521919
-0.0133015
-0.0123017
-0.001756
-0.0645572
0.0929029
-0.0679836
-0.0594206
0.127404
0.258493
-0.308363
-0.00889112
0.00570861
0.18146
-0.329716
0.309153
-0.126027
-0.183126
0.0149821
0.008195
-0.0050084
-0.0639632
0.151312
0.0795559
-0.230868
-0.0801426
-0.17795
0.171926
-0.0116745
-0.148294
0.223852
-0.253466
0.0534707
0.31418
0.032352
-0.461346
0.0390004
0.134301
-0.112195
-0.0221053
-0.00110638
0.00160453
-0.00049815
-0.464758
0.121872
0.129798
-0.00609533
-0.506155
0.111343
-0.000307472
0.00317759
-0.00287012
-0.282907
-0.233352
-0.446652
0.0364943
-0.0160531
-0.072625
0.0886781
0.00372257
0.0321103
-0.0358329
0.110267
-0.102361
-0.00790599
0.00287919
0.00832873
-0.0112079
-0.277244
-0.110263
0.387507
0.366066
-0.0883861
-0.27768
-0.00158659
-0.00979128
0.00379724
-0.0515082
0.047711
0.0847205
-0.141179
-0.245321
-0.0180739
0.263395
-0.0435842
0.0477532
-0.004169
-0.00678518
0.032519
-0.301138
-0.154361
0.455499
-0.399409
0.296807
-0.0391358
0.419096
-0.011923
-0.18735
0.199273
-0.00199825
0.01895
0.00968316
-0.00136338
-0.00831979
0.311475
-0.196243
-0.115232
-0.246967
0.0593087
0.187659
-0.0565398
0.0153731
0.0411667
-0.000643337
-0.00636989
0.00701323
-0.00581719
3.86507e-05
0.00577854
-0.116777
-0.184085
0.00861919
0.175466
-0.0435222
0.108035
0.452418
-0.24645
-0.205968
-0.436865
0.14667
0.290196
0.0558467
0.28974
-0.345586
-0.0771706
0.155331
-0.0781607
0.0421936
-0.0326995
-0.00949403
-0.0188309
-0.0366858
0.0555167
-0.0091445
0.0823105
0.170043
0.101955
-0.098254
-0.00370079
-0.277392
0.271703
0.271944
0.202132
-0.474075
-0.00160543
0.0106999
-0.00909442
-0.0220133
0.0402057
-0.0181924
-0.118498
-0.0202954
0.036607
-0.0336613
-0.0029457
-0.0103035
-0.00343125
-0.0461994
0.049922
0.0105838
-0.00090063
-0.112382
0.0411369
0.00959019
0.00413373
-0.0137239
-0.0011208
-0.000476758
0.00159755
0.0983757
-0.111484
0.000946117
-0.000436985
0.360853
-0.085274
0.0556246
0.0244207
0.20053
-0.201316
0.275038
-0.0737222
-0.0253897
-0.0311501
-0.0877343
0.0249961
-0.141178
-0.111865
0.0710977
-0.0972523
0.0261547
-0.0123423
0.064505
-0.0521626
0.185636
-0.102019
-0.0836171
0.3177
-0.395398
0.158793
0.110017
-0.268809
0.0344735
-0.0564868
-0.00477902
-0.00345151
0.00823053
0.0147488
-0.0118696
-0.121216
0.394185
-0.27297
0.10097
-0.0298726
-0.0047491
0.00175891
0.00299018
-0.0668014
0.228946
-0.162145
-0.0719484
-0.213821
-0.0774426
0.288095
0.0696083
-0.161901
0.0922925
-0.00408103
0.0384988
-0.00243001
0.010265
-0.314827
0.437362
-0.00531897
0.017041
-0.488321
0.268581
0.219741
-0.0141167
-0.00726489
-0.0964091
0.154186
-0.0140245
-0.225343
0.239367
-0.155581
0.0113654
0.144216
0.00808953
-0.00873287
0.32352
-0.11161
0.348111
-0.420949
0.0728377
0.000790798
-0.00189718
-0.0146386
0.0132752
-0.123265
0.0355212
0.087744
0.0529859
0.0151405
-0.260461
-0.159509
-0.283673
0.342706
-0.389986
0.0472794
0.000604912
0.000679683
-0.0012846
-0.00511586
0.0634664
-0.0583506
-0.000879655
0.00125853
-0.000378878
0.168722
-0.0103261
-0.158396
-0.0508623
0.0320314
-0.00478102
-0.0100207
0.0148017
-0.078095
-0.0978576
0.0111431
0.0254261
-0.209511
0.00920817
0.00066526
-0.0612507
-0.317978
0.379229
-0.0396639
0.0328787
-0.00890632
0.016248
-0.00734169
0.0137008
0.0348683
-0.0485691
-0.0729766
-0.00154469
0.0200908
0.00712269
0.00278381
-0.00990649
-0.0342925
-0.268946
0.303239
-0.00251052
0.034956
-0.0324455
0.0163645
0.255584
-0.415095
-0.0462614
-0.00581719
0.00888194
-0.00568658
-0.00319536
0.430306
-0.258535
-0.412869
0.0948625
0.436846
-0.326899
-0.000132215
-0.0206308
-0.00225452
0.00876632
-0.0065118
-0.0742283
0.42234
0.100491
-0.0522944
-0.0481971
-0.136126
0.212266
0.196171
-0.277362
0.0811909
0.120488
-0.397732
-0.107393
-0.0129754
0.120369
0.103246
-0.00129152
0.193798
-0.0496161
-0.000876843
0.0319425
-0.292383
0.40898
-0.102303
-0.0302622
-0.00372414
-0.000500007
0.0957858
-0.0783604
-0.0174253
-0.00131495
0.000194155
0.00680114
0.00209276
-0.0088939
-0.0393194
-0.181577
0.220897
0.00318902
0.00149429
-0.0317209
0.0355181
-0.0705048
0.175271
-0.104766
-0.00368785
-0.0261912
0.029879
-0.106316
0.0926841
0.0136317
-0.196766
-0.0238697
-0.0859454
0.142526
-0.0565806
0.0109611
0.00348356
0.0927998
0.0824572
0.0621126
-0.130096
0.201141
-0.230982
0.0298418
-0.174877
0.00622462
0.168653
-0.00156007
0.32078
-0.355072
-0.0257861
0.0332482
-0.00746202
-0.12815
0.0509798
-0.0191824
0.0863371
-0.0671547
0.108943
0.455637
-0.197144
-0.0485526
-0.232777
0.281329
0.00883611
-0.00810617
-0.000729948
-0.344403
-0.0765465
-0.168192
-0.320129
0.122306
-0.0381696
-0.0841363
0.292798
-0.396926
0.104128
-0.0690715
-0.0825037
0.0109952
0.0985232
-0.274151
0.0852778
0.159573
-0.170632
0.0110584
-0.272448
-0.113642
-0.0010411
0.0166939
-0.00115378
0.000219134
0.0154073
-0.0188894
0.00348217
0.196844
0.00429622
0.00256581
0.000105004
-0.00267082
0.00549332
0.00509048
-0.0457672
0.00610331
-0.313316
0.241784
0.0715327
0.00811145
-0.0128905
-0.0325442
0.207344
-0.00647363
-0.00423604
-0.437975
0.174495
0.0628001
-0.0109739
-0.0518262
0.007008
0.0637869
-0.0707949
0.00256303
-0.00186261
0.00475953
-0.0610903
0.0905475
-0.0294571
0.00991536
-0.0105207
-0.425962
0.0636936
-0.00254344
0.00298466
-0.00044122
0.153965
0.33575
0.0552594
-0.157771
0.102511
0.100809
-0.171314
0.322838
-0.181671
-0.141168
-0.531592
0.311272
0.22032
-0.00277577
-0.00210278
0.00487855
-0.0101232
0.127589
-0.117466
0.0930125
-0.227065
0.134053
0.0155564
-0.0208754
0.0161593
-0.0193578
0.00319853
0.0294731
0.0581126
-0.0875858
-0.0151733
0.185788
-0.134663
-0.0511257
0.37798
-0.414627
-0.135406
0.352688
0.332255
-0.276409
0.254278
-0.125271
0.022564
0.0196296
-0.00624706
-0.149334
-0.0353943
-0.010384
0.0457783
0.000679347
-0.00465842
0.00397908
0.00237131
0.00157659
-0.00492109
0.00560044
0.0480424
-0.0538873
0.00584487
-0.175554
0.0401162
0.135438
-0.248021
-0.13456
-0.0490752
0.0560832
0.422457
-0.221626
-0.00582773
0.00179824
0.00402948
0.000400472
-0.0110946
0.0106941
-0.38309
0.101002
-0.10261
0.186184
-0.0835742
0.000268609
0.0162742
-0.0165429
-0.0102912
0.0169354
-0.00664415
0.0161284
0.0204785
0.165398
-0.00582477
-0.149369
-0.31605
0.107929
0.208121
0.00211386
0.0134036
-0.00298609
0.000442649
-0.00817268
0.0559276
-0.0477549
-0.116232
0.00991667
0.0757336
-0.092497
0.00288482
-0.0951937
-0.0210388
-0.00060701
0.00574788
-0.00514087
-0.00148716
-0.0505264
0.0520136
-0.000597282
0.0486397
0.255803
-0.000447211
-0.00028562
0.0767297
-0.10358
0.121123
-0.131246
-0.000467353
0.0103827
0.405669
-0.132528
-0.273141
-0.13064
0.0446453
0.0859946
-0.039891
0.0535919
0.178665
0.227004
0.0986417
-0.0877217
-0.01092
0.007134
-0.0589279
-0.00973078
0.00912377
-0.0161438
0.0122017
-0.039892
0.11655
-0.0766576
0.182354
-0.00258938
-0.179765
-0.418299
-0.113293
0.00171733
-0.0453015
-0.0788411
0.0147111
0.06413
-0.0568085
-0.11853
0.00644265
0.00227636
0.248177
-0.309745
0.0615682
0.0132256
-0.0180066
-0.0103841
0.00633729
-0.180541
-0.0139252
0.194467
0.152323
-0.129327
-0.381285
-0.0444154
0.425701
0.122413
-0.0201527
-0.10226
0.444261
-0.0662817
0.0228024
-0.00664306
0.0682427
0.0574351
-0.125678
0.00116637
0.00186356
0.0835808
0.415812
-0.237147
-0.10821
-0.20784
-0.0353338
0.0338467
-0.00140455
0.00257092
0.0378072
-0.122932
0.016962
-0.0194725
0.0184239
-0.135559
0.117135
0.077634
-0.0597672
-0.255553
-0.182422
-0.426083
-0.00658852
0.432671
0.0186145
0.0532766
-0.0718911
0.251798
-0.100486
0.0399737
-0.078917
0.0389433
-0.0112693
0.0694783
-0.00278967
-0.0666887
0.0182163
-0.093064
0.176117
0.107267
-0.283384
0.00281521
0.000996359
-0.00381157
0.030581
-0.00512223
-0.0254588
0.000387728
-0.0412082
0.0675848
0.18864
0.480121
-0.361646
-0.118476
-0.12359
0.216603
-0.447068
0.372206
0.0748626
-0.113248
0.020656
0.0925919
0.0584894
0.163261
0.39553
-0.121262
-0.274268
0.097604
0.00103771
0.217984
-0.131328
-0.0866556
0.000939046
-0.000334133
-0.0209906
-0.0639859
0.0849765
-0.105668
-0.226216
-0.300298
0.0136919
-0.00273079
-0.106667
0.321445
-0.222637
0.0420952
-0.00695202
0.000773127
0.0108046
0.0519954
-0.291943
0.203557
-0.0649686
0.043978
-0.0162027
0.0059115
-0.367657
0.225336
0.142322
-0.297537
-0.139329
0.283584
-0.223119
0.0673018
-0.0378287
0.00152903
0.00103401
-0.413429
0.00740594
-0.00869158
0.00128564
0.374138
0.19321
0.00978109
-0.00590221
0.00143745
0.020017
-0.0214544
0.000390677
-0.000908473
-0.00081035
0.00236532
0.170161
0.0121932
-0.00235698
-0.0206222
-0.0530878
-0.422853
-0.0549725
0.037899
-0.21298
-0.154678
-0.381062
0.39268
-0.0116181
0.0988259
0.291033
-0.389859
0.176725
-0.293638
0.116913
0.0197947
-0.00524009
-0.0145546
-0.0666155
-0.197271
0.263887
0.0981163
-0.442519
-0.0584308
-0.256941
0.173267
0.222263
-0.0474013
-0.0259119
0.0733133
0.138918
-0.185914
0.0469957
-0.00124082
0.00933036
-0.288624
0.409111
-0.322527
-0.124542
0.276007
0.0256365
0.00494447
0.000277745
0.000229756
-0.00859548
-0.0315252
0.0161269
-0.384641
0.00357895
0.00266821
0.00632423
0.00255771
0.157711
-0.169634
0.305229
0.0427623
-0.347991
0.00845595
-0.00552819
-0.00292776
0.00483406
-0.00514154
0.194584
-0.182526
-0.0120575
-0.0355618
0.117196
-0.081634
0.00219122
0.0390471
-0.0412383
0.0592829
0.0750178
-0.278389
-0.0349276
0.158212
-0.0993595
-0.0588526
-0.155095
-0.0197825
0.0578603
0.100352
-0.0134624
-0.00446641
0.0179288
0.0130726
-0.0116352
-0.075293
-0.225003
0.300296
0.0048177
-0.00421629
-0.000601411
0.192428
0.223384
-0.00500481
0.0843726
-0.0793678
-0.0143077
0.135431
0.147358
-0.0906283
0.104017
-0.000702584
0.000556413
0.000146171
0.00853137
-0.00112542
0.0571862
0.0096428
-0.066829
0.466306
-0.130289
0.120202
0.267383
0.188254
-0.000614784
-0.490565
0.221618
0.00689527
0.150691
-0.157586
-0.225184
0.0704386
0.154745
-0.0991483
0.377648
-0.2785
0.008947
0.0605313
-0.182944
-0.02602
-0.232244
-0.0658488
0.298093
0.00531324
0.00931714
-0.0146304
-0.465999
0.389782
0.0762172
0.00629922
-0.0152055
-0.0677929
0.173946
0.0745519
0.00448253
-0.0790345
0.371041
-0.24793
-0.12311
0.101618
-0.0150646
0.0523959
-0.0760985
0.0237026
0.185448
0.00735109
-0.080267
0.0960568
-0.0157898
-0.028019
0.0952026
-0.343224
0.0258696
0.120954
0.0771063
0.0479873
0.00792047
0.0290042
-0.0369246
0.34644
-0.0412111
0.0329978
-0.247071
0.100601
0.0990522
-0.199653
0.00359804
-0.0293842
-0.397645
0.27881
0.118835
0.125131
-0.0184217
-0.10671
-0.0432882
-0.0699597
-0.0236939
0.162612
-0.276008
-0.130065
0.406073
-0.441138
0.0150553
0.457945
-0.0109866
-0.446959
0.0361386
0.0751671
-0.111306
-0.0902917
-0.0714769
0.0240756
-0.0326563
-0.10153
0.134186
0.243015
-0.318308
0.200809
-0.196027
-0.0047828
-0.000204178
0.00276999
-0.264356
-0.0800497
0.344405
-0.0240685
0.202766
-0.178697
-0.150847
-0.198601
-0.291963
0.152633
-0.0620171
-0.0906163
0.10551
-0.0842069
-0.0213033
0.0177848
-0.0896601
0.073607
0.163925
-0.243428
0.0795029
-0.0739847
0.250102
-0.010226
0.00149312
0.00736823
-0.000567093
0.0148272
-0.0502214
-0.001593
0.00190094
-0.000307942
-0.0580172
0.0529013
0.010841
0.122632
-0.411256
0.0666266
-0.169237
-0.00966819
0.00842737
-0.000279995
-0.000422589
-0.00118824
0.00629532
-0.341367
-0.124632
0.079424
-0.027028
0.105322
0.00543729
-2.52829e-05
-0.000473375
0.00342195
-0.00294857
-0.0869964
-0.245195
0.332191
-0.0594065
0.0340169
-0.0810679
0.150676
0.00417591
0.00558867
-0.00976458
0.000145089
0.00165513
-0.00180022
0.0230705
-0.00766321
0.400524
-0.0770039
0.0941538
-0.0171499
0.447073
-0.226814
-0.312753
0.232958
0.0797955
0.0093501
-0.00290746
0.299707
0.176484
0.202213
-0.250766
0.00138944
-0.00524247
-0.00219263
0.000738732
0.0014539
0.359305
-0.00479462
0.00201885
0.0187652
0.0227029
-0.0414682
-0.330769
0.102677
-0.0188811
-0.0126441
-0.411037
0.135029
-0.00376291
0.0108002
-0.00703727
0.000247447
-0.00171436
0.00146692
-0.00528379
-0.00361684
-0.00117778
-0.0917613
0.0232375
0.0218581
0.0024886
-0.387028
0.265812
-0.16608
-0.0591044
0.0968181
-0.29446
0.197642
0.365911
-0.403294
0.0373835
-0.143755
0.328152
-0.184397
0.216116
-0.151659
0.00794686
-0.0057749
-0.00217195
-0.0135756
-0.00334231
0.016918
0.2294
0.0268572
-0.256257
0.00130256
-0.00258779
0.00128523
0.191089
-0.160173
-0.0309165
-0.107901
0.0164406
0.294131
0.058961
-0.353092
-0.0810887
0.245014
-0.00139695
0.00421216
0.00206822
-0.00619421
-0.00413958
0.00366621
-0.00878367
-0.0384024
0.0471861
-0.399233
0.166989
-0.0115009
0.157062
-0.00238905
0.00169372
0.000695336
-0.0713323
0.2128
0.100229
-0.01306
0.0827291
-0.0427554
0.0067267
-0.00453037
-0.00219633
0.00820505
-0.0248205
0.0166155
0.162784
0.0967213
-0.361077
-0.217592
0.0692985
0.346976
-0.440207
0.0932306
0.0790824
-0.0982648
-0.00541213
0.0107254
-0.250851
-0.0862296
0.0251392
-0.442598
0.101231
-0.0823226
-0.388443
0.374212
-0.256398
-0.117814
-0.00892477
0.000777812
0.00814696
-0.0839035
0.408713
-0.28608
-0.198607
0.305874
-0.00737474
-0.00214838
0.00952312
0.144612
-0.336824
-0.00261755
0.00276264
-0.00273619
-0.00168392
0.00442012
-0.122073
-0.206532
-0.0761755
0.09479
0.193926
0.00496659
0.00348935
-0.00407141
-0.00823034
-0.00739013
0.00242988
-0.00354438
0.0888524
-0.085308
-0.143779
0.442659
-0.298881
-0.107413
0.125836
0.0148843
-0.000814307
-0.01407
-0.232581
0.0823428
-0.000490874
-1.66281e-05
0.00532009
0.00220704
-0.00752713
0.00567801
0.0426895
-0.201522
0.158832
0.16581
-0.106963
-0.0588468
-0.20221
0.0292543
0.172956
-0.174227
0.216917
0.0544188
-0.00456414
-0.0498547
-0.00766311
0.0039946
0.0536336
0.0292201
-0.114604
0.0853836
0.222155
-0.118364
0.0337101
0.0846541
-0.12494
0.019882
0.105058
-0.169063
0.226806
-0.0577433
-0.0656144
0.0719263
-0.00631193
-0.00357595
-0.00665005
-0.000838207
0.00602362
-0.00518541
-0.0107617
0.0169012
-0.128495
0.0127053
-0.0315865
-0.00140118
-0.000191819
-0.366319
-0.0369752
0.161501
-0.238149
0.0766487
0.454537
-0.417307
-0.03723
0.0183626
0.0451038
0.0331032
-0.171484
0.13838
-0.0224642
0.106039
-0.138695
0.0886012
-0.0707747
-0.0178265
0.130452
0.0754815
-0.205933
0.0820072
0.445093
-0.0751467
0.0246327
0.050514
-0.00517107
0.0147613
0.00221646
0.0243722
-0.0290146
0.00464237
0.000840471
0.00622509
-0.138594
-0.26426
0.276155
-0.171585
-0.000245186
-0.0701536
0.0367275
0.0334261
-0.357733
0.303621
-0.196385
0.223243
-0.000772562
0.000584774
0.000187788
0.0732766
0.0694198
0.104195
-0.00972746
0.175258
0.0605775
-0.261893
-0.000391968
-0.000761809
-0.00481456
0.00536922
-0.000554663
0.0396841
-0.0407252
-0.294928
0.207932
0.0140791
-0.00341351
-0.0106656
-0.179395
0.133948
-0.103437
0.0873337
0.0161035
-0.00230014
0.017049
0.163602
-0.20031
0.113658
0.0389758
0.117926
-0.0817872
0.000541692
0.00119536
-0.00173705
0.00744663
-0.00788083
0.000434204
-0.0650111
-0.151834
0.216845
-0.000539596
-0.000501612
0.00104121
0.053404
-0.014292
-0.039112
0.0900071
-0.0142735
0.142378
0.0432585
0.00821368
-0.00940191
0.0846537
-0.124546
0.0102559
-0.00951408
-0.00074178
-0.41174
0.0619297
0.34981
-0.364118
0.0601632
-0.449716
0.177324
0.272392
-0.357445
0.280857
0.0765872
-0.17041
0.0690684
-0.122811
-0.0454234
-0.144143
-0.320615
0.0658828
0.322288
-0.0896554
0.00782046
-0.00766953
0.38662
-0.111039
-0.275581
0.151058
-0.052682
0.000504204
-0.00531877
-0.00202695
0.00111848
-0.0203522
-0.0565987
0.0769509
0.275968
-0.0992426
0.295523
-0.108162
-0.266529
-0.137502
0.0689558
-0.480696
-0.0020826
-0.098324
0.0106024
-0.0503825
-0.0781743
-0.00581899
-0.000495696
0.00631469
-0.00363812
0.00388557
0.0309047
0.237226
-0.0317682
-0.107033
-0.0436975
-0.16179
0.205488
0.515435
-0.243492
-0.00190947
0.0675955
-0.236658
0.0780907
0.0384588
-0.128002
0.414125
-0.286124
-0.117163
-0.0595347
0.185565
-0.126031
-0.437348
0.293569
0.102665
-0.124015
0.0213501
0.0138804
-0.0927753
-0.154883
0.126285
0.0274136
-0.00555549
-0.287887
-0.0695578
-0.254133
0.240108
-0.0037838
0.06097
-0.193173
0.106994
-0.00707096
0.00496818
-0.00736158
-0.0902233
0.0975849
0.0670909
0.0839669
-0.095382
0.0778532
-0.00268326
-0.0043823
-0.00117162
0.00152712
-0.236861
-0.0331237
0.269984
-0.0170878
0.0154824
-0.202099
0.101254
0.100845
0.00894821
-0.0047723
-0.151278
0.173699
-0.0224217
0.015789
-0.0162999
-0.00545823
0.00406128
-0.0029537
0.00182623
0.0186184
-0.0333248
-0.0209512
-0.135159
0.293952
-0.460269
0.159131
-0.0380321
0.256343
-0.218311
-0.013224
0.0134926
0.115666
0.0652863
-0.00625039
0.00682652
-0.0109599
-0.010907
0.0136021
-0.00269506
0.107104
-0.364916
0.257812
0.00265618
-0.00319578
-0.00923137
0.00963184
0.0702861
-0.435835
0.267777
-0.0655642
-0.127141
0.0411951
-0.246865
0.0886775
0.158188
0.031481
-0.0235606
-0.0714673
-0.121706
0.175399
-0.0237664
0.00463204
-0.276038
0.422708
0.0051907
-0.00515205
0.110158
0.107826
-0.225437
0.215209
-0.0119112
0.0834197
-0.0715085
-0.21253
0.0165037
-0.000602514
0.258311
-0.24084
-0.0174713
0.00347293
-0.345692
-0.0945147
-0.000318353
-0.00187428
0.330111
0.124426
0.0859954
0.198115
-0.28411
-0.00864955
0.00457814
-0.0370433
-0.0631369
0.10018
0.271005
-0.347874
0.144711
0.203163
-0.0187465
-0.0242887
0.0430352
0.266184
0.314996
-0.430341
0.115345
0.00270662
-0.00171026
-0.172946
-0.0641943
0.23714
0.000491341
-0.00117537
0.000684025
0.0159808
0.0747068
-0.0906877
-0.361438
-0.0988308
0.00139911
-0.000214234
-0.00118487
-0.0114902
0.0144543
-0.00296415
-0.125382
0.0599934
0.0653882
-0.0328022
0.132911
-0.100109
-0.175603
0.254113
-0.00345794
0.169003
0.12652
-0.0668301
-0.0638098
-0.131308
0.449806
0.0537482
-0.0790508
0.0253026
-0.200811
0.141277
0.0883945
-0.325255
-0.113798
0.100382
0.0134158
0.199722
-0.000499136
0.00698774
-0.00648861
-0.00790022
0.00593464
0.00196558
0.00503115
-0.0175534
0.0125222
-0.0308736
-0.181657
-0.0625898