/*--------------------------------*- C++ -*----------------------------------*\
| =========                 |                                                 |
| \\      /  F ield         | OpenFOAM: The Open Source CFD Toolbox           |
|  \\    /   O peration     | Version:  v2012                                 |
|   \\  /    A nd           | Website:  www.openfoam.com                      |
|    \\/     M anipulation  |                                                 |
\*---------------------------------------------------------------------------*/
FoamFile
{
    version     2.0;
    format      ascii;
    class       volScalarField;
    location    "300";
    object      epsilon;
}
// * * * * * * * * * * * * * * * * * * * * * * * * * * * * * * * * * * * * * //

dimensions      [0 2 -3 0 0 0 0];


internalField   nonuniform List<scalar> 
34253
(
6.96571e-07
8.69101e-07
1.35882e-06
1.37169e-05
4.68306e-07
9.7133e-05
1.59985e-06
0.00114831
0.00941432
6.26398e-05
1.65675e-06
0.00106236
6.56803e-07
1.48293e-06
4.83854e-07
1.4915e-06
0.00317743
4.16628e-07
8.68476e-06
0.00846933
0.00102908
1.548e-06
5.61951e-05
0.000769143
1.33238e-06
2.38372e-06
9.0721e-05
1.46133e-06
0.00175403
1.11483e-06
1.54629e-06
1.66141e-06
2.38303e-06
4.18056e-07
1.40506e-06
1.60806e-06
1.19058e-06
5.27508e-07
1.05122e-06
1.05417e-06
5.34982e-07
9.37445e-07
5.24429e-07
1.50443e-06
8.763e-05
1.65056e-06
0.00967992
5.74982e-07
5.74802e-07
1.05983e-06
0.00115108
1.37277e-06
1.10828e-06
0.000606518
2.77135e-06
9.47078e-05
8.78599e-07
1.65487e-06
1.38206e-06
1.37617e-06
8.84713e-07
1.03366e-06
0.000314312
0.000132592
0.000602037
1.34787e-06
1.64938e-06
1.23308e-06
1.45799e-06
4.67214e-07
8.50326e-07
1.12647e-06
1.10281e-06
0.000387431
4.83688e-07
0.0106029
0.00944866
1.36081e-06
5.67859e-07
1.45126e-06
1.77006e-06
1.11375e-06
5.6748e-07
0.00077377
0.000766626
1.4875e-06
0.0035541
0.000152584
1.6095e-06
8.7253e-07
1.35885e-06
1.25982e-06
1.3536e-06
8.89653e-07
0.00964767
1.24868e-05
1.12247e-06
1.03076e-06
0.000134265
0.000611021
6.30705e-07
4.25461e-06
1.51025e-06
0.00174822
0.0106699
5.17961e-06
0.000594879
8.92133e-07
9.35183e-07
0.000398469
5.42683e-07
1.52692e-06
1.25451e-06
6.58962e-07
1.3679e-06
4.66963e-06
4.12956e-07
0.000345814
0.000593267
7.06533e-07
3.14286e-06
1.23828e-06
6.8477e-07
0.00847204
6.63498e-07
1.31123e-06
1.24703e-06
1.1313e-06
1.14199e-06
1.45597e-06
1.59704e-06
0.000395844
6.56886e-07
1.34863e-06
1.60295e-06
1.71861e-06
0.0114971
4.86429e-07
3.28099e-05
0.00598006
0.00185758
0.010923
0.0106239
1.16807e-06
6.86565e-07
1.75909e-06
1.45545e-06
1.34099e-06
5.52385e-07
8.54645e-07
2.57262e-06
1.44108e-06
1.40444e-06
1.87045e-06
0.00170743
8.06455e-07
0.0010807
3.75387e-06
0.00884362
1.58083e-06
0.00199012
1.62231e-06
1.83452e-06
1.44775e-06
1.3525e-06
1.57651e-06
1.33878e-06
4.82372e-07
8.30864e-07
1.45666e-06
1.60918e-06
4.12737e-07
1.15548e-06
0.0107396
0.0107142
0.00257283
9.0923e-07
0.000208135
4.4226e-05
0.00160937
1.08086e-05
1.5164e-06
1.01501e-06
1.34438e-06
1.60414e-06
0.00183452
1.31725e-06
9.96182e-05
6.93766e-07
4.15955e-07
1.34312e-06
8.32712e-07
1.34198e-06
4.37944e-07
8.87514e-06
1.0167e-06
4.32721e-05
0.000236771
5.29907e-07
5.23343e-07
0.00751627
1.71665e-06
1.71417e-06
8.0881e-07
5.60949e-07
1.19407e-06
9.92469e-05
1.87635e-06
1.08911e-06
1.278e-06
4.14261e-07
7.10105e-07
0.000959059
0.00463659
1.62643e-06
1.47221e-06
8.0735e-07
1.69556e-06
0.00808333
1.34275e-06
5.99057e-07
0.00752615
1.64824e-06
0.00164012
1.62123e-06
1.05011e-06
5.97852e-07
0.000589574
5.03443e-07
7.42454e-07
1.65657e-06
0.0119638
4.2753e-06
0.000587386
1.64839e-06
8.08093e-07
8.09545e-07
1.36632e-06
7.32456e-07
3.8798e-06
0.0121573
5.04985e-07
6.4593e-06
1.71113e-06
0.0133768
0.000165298
2.04442e-06
5.72527e-07
1.476e-06
1.38706e-06
1.46634e-06
1.33516e-06
1.13205e-06
7.1217e-07
1.34026e-06
1.53218e-06
0.00421099
1.53915e-06
3.48935e-06
5.00976e-07
0.0112016
6.39446e-07
5.4458e-07
0.00421131
1.39558e-06
1.38556e-06
5.01713e-07
1.49893e-06
1.34232e-06
1.49779e-06
1.53431e-06
1.68403e-06
0.000122996
1.03946e-06
1.34882e-06
1.45954e-05
8.008e-07
1.5096e-06
1.0277e-05
5.73865e-07
4.11719e-07
8.09596e-07
9.04831e-07
1.53799e-06
2.04099e-06
1.37951e-06
0.000169608
1.52421e-05
0.0118585
0.000388636
4.38683e-07
9.11484e-07
0.000188634
1.37711e-06
1.06359e-06
2.14193e-06
9.62575e-07
0.000380321
6.33968e-05
0.000124317
4.41518e-05
0.000373549
1.66024e-06
1.53892e-06
1.40131e-06
5.57519e-07
7.67499e-05
0.000363891
1.39299e-06
1.33381e-06
1.34375e-06
8.25827e-07
1.48711e-06
0.000788707
8.80359e-07
1.62259e-06
1.23984e-06
1.27359e-06
0.0103516
1.54463e-06
1.74264e-06
1.80621e-06
1.23486e-06
1.53576e-06
0.0112903
1.73664e-06
1.78105e-06
5.56732e-07
1.04597e-06
1.65768e-06
1.01686e-06
1.53585e-06
0.00773578
3.16485e-06
8.76596e-07
1.71819e-06
1.32493e-06
5.54763e-07
9.02035e-07
0.00603337
1.71441e-06
0.005655
0.00807388
4.80866e-07
5.23367e-07
8.27274e-07
8.31124e-07
5.54277e-07
0.00700267
0.00362402
1.08382e-06
4.16907e-07
0.0110638
6.58227e-07
0.0146295
1.16028e-06
0.00620402
1.97223e-06
0.00104144
1.13504e-06
0.000279568
8.18337e-05
1.09935e-06
6.85629e-07
9.13586e-07
1.17524e-05
1.33201e-06
0.0140736
1.59337e-06
0.00724179
0.0116826
1.32424e-06
8.31624e-07
2.94792e-06
0.00998303
8.17809e-05
1.1378e-06
4.71881e-05
9.2138e-05
2.07179e-05
0.000767071
8.43183e-05
2.75319e-06
1.15512e-06
0.00014629
0.000315524
5.51383e-07
1.71452e-06
8.2699e-07
5.41317e-07
6.56635e-07
0.000215964
1.16445e-06
2.26846e-06
5.22894e-07
8.95922e-07
4.81357e-07
5.50879e-07
1.13106e-06
1.12901e-06
5.41442e-07
2.1165e-06
1.03013e-06
1.0278e-06
1.37398e-06
1.32838e-06
0.0121364
1.60436e-06
1.98153e-06
0.00885815
5.03704e-07
1.07183e-06
0.00888507
1.13259e-06
1.66149e-06
0.0102424
0.0117004
1.20209e-06
0.00291526
0.00186317
1.33329e-06
8.08087e-07
6.48482e-07
1.01269e-06
5.07365e-07
4.59269e-05
0.0116644
1.74019e-06
3.45129e-05
1.45576e-06
7.36068e-06
5.26891e-07
6.98302e-07
0.0115303
4.9894e-07
1.43898e-06
0.0019072
2.27525e-06
4.14477e-06
1.4873e-06
5.52445e-07
1.1267e-06
0.000155158
1.50237e-06
1.10116e-06
0.00998238
0.00580709
6.9462e-07
8.03101e-07
1.60816e-06
5.0214e-07
8.09082e-05
1.07554e-06
0.000210071
5.23766e-07
0.00317923
1.68919e-06
1.45451e-06
9.72171e-07
1.06917e-06
1.45928e-06
1.38315e-06
0.00672859
5.51968e-07
1.08992e-06
4.35951e-07
2.75944e-06
6.40967e-07
0.00943549
1.36891e-06
1.52822e-06
8.06089e-07
9.16036e-05
1.44466e-06
2.2515e-06
1.45157e-05
0.000151869
1.60038e-06
6.93009e-07
1.24298e-06
1.25421e-06
2.17612e-06
6.54053e-07
1.45834e-06
1.73583e-06
0.0017352
8.04979e-07
1.58622e-06
1.13157e-06
1.14668e-06
9.72024e-07
1.45299e-06
1.2712e-06
4.3488e-07
1.45233e-06
5.70549e-07
1.13929e-06
6.9392e-07
4.93687e-07
0.00306023
1.01793e-06
4.37965e-07
4.127e-07
0.000277968
4.12461e-07
0.00098732
1.12465e-06
8.37194e-07
1.68131e-05
4.81789e-07
0.000222437
1.35e-06
1.51519e-06
1.45954e-06
8.53344e-07
4.17429e-07
5.58278e-07
5.02289e-07
0.00763013
1.32183e-06
0.000275961
1.66612e-06
1.99057e-06
8.71189e-07
0.00802228
1.0898e-06
8.55459e-07
4.06589e-06
9.15174e-07
7.55512e-05
0.000293817
0.000218193
1.23153e-06
7.17329e-07
9.16159e-07
1.41207e-06
1.26523e-06
5.00483e-07
1.81713e-06
9.9523e-07
1.29322e-06
1.24744e-06
8.79067e-07
8.70009e-07
8.37338e-07
1.61259e-06
1.22773e-06
5.33493e-07
1.6582e-06
8.31443e-07
9.60692e-05
0.00806005
1.26893e-06
1.30729e-06
1.34363e-06
0.000341744
0.00712342
2.00837e-06
1.7437e-06
6.99474e-07
6.86218e-07
1.61151e-06
1.07221e-06
8.31708e-07
1.05343e-06
0.00262637
0.00146354
4.08996e-05
9.20643e-05
9.14423e-07
4.8139e-06
1.98218e-06
6.00397e-07
6.93462e-07
1.37026e-06
0.00608733
0.000973892
0.00780185
0.00782402
0.000340377
1.28852e-05
0.00790592
1.97487e-06
1.73277e-06
5.02461e-07
4.41137e-07
2.63989e-06
6.95082e-07
1.37182e-06
0.00802756
0.00297922
1.74206e-06
1.73996e-06
0.00509519
1.9568e-06
1.15547e-06
0.000146415
1.22273e-06
5.21191e-06
9.28723e-07
0.000207546
8.0884e-07
4.13899e-07
0.00486041
2.035e-05
3.59154e-05
1.64475e-06
1.33388e-06
0.000210844
6.23435e-07
9.30131e-07
1.65274e-06
0.000147108
1.90938e-06
0.010221
0.00252945
7.34021e-07
9.70721e-07
1.06601e-06
1.36179e-06
1.30661e-06
1.35369e-06
0.0029544
0.00859139
0.001021
0.00867148
0.00947561
5.34149e-07
1.38801e-06
8.43366e-07
0.000141831
0.00578599
4.90269e-06
9.27613e-07
4.15215e-07
0.000731548
1.12463e-06
1.15735e-06
0.00767285
0.00752457
1.14924e-06
1.40783e-06
1.15845e-06
1.07473e-06
5.45495e-07
1.02538e-05
0.000484969
6.1429e-07
0.00724237
1.30895e-06
0.000712578
1.42353e-06
0.00626377
0.000341655
9.3309e-07
7.66772e-07
1.33914e-06
2.7336e-06
1.1402e-06
0.000150923
1.9437e-06
1.5032e-06
4.99137e-07
0.00982772
1.23116e-06
9.48822e-05
0.00168509
6.54954e-07
1.21949e-06
1.1493e-06
1.00921e-06
1.61072e-06
5.47559e-07
0.000457518
0.00778807
3.40464e-06
0.000528299
0.0106026
5.30084e-05
1.69316e-06
4.97072e-07
1.058e-06
1.45943e-06
9.2433e-05
1.15448e-06
6.22752e-07
5.06196e-07
9.72085e-07
6.81393e-07
0.00956731
0.00109418
5.45423e-07
1.18984e-06
0.0110715
0.000265837
0.00859055
1.14348e-06
0.000154407
1.21514e-06
1.09526e-06
1.55463e-06
1.33796e-06
0.00256614
5.27762e-05
1.39497e-06
8.94332e-07
5.60115e-07
4.76979e-07
2.96062e-06
5.87546e-07
1.14803e-06
0.00224126
3.10824e-06
0.000302553
1.60422e-06
0.000292382
2.64379e-06
4.31586e-05
0.000139584
1.19383e-06
0.0108309
1.12121e-06
0.000264935
6.49478e-07
1.59359e-05
5.86515e-07
0.00237117
5.19347e-07
1.99062e-06
1.11858e-06
3.76869e-05
5.98172e-05
1.68522e-05
0.00889662
0.0106821
1.13086e-06
9.29186e-07
7.99174e-07
9.64917e-07
6.91188e-07
1.41226e-06
5.49792e-07
5.19296e-07
1.32247e-06
9.47087e-05
4.42933e-07
5.37782e-07
4.45082e-07
1.29062e-06
0.000227995
6.99205e-07
9.19376e-07
0.00159043
1.3429e-06
1.28874e-06
0.0094463
1.18846e-06
0.00770151
9.25323e-05
1.12829e-06
0.00942914
1.06741e-06
1.4641e-06
0.00831038
1.60421e-06
9.14776e-07
1.23573e-06
0.000138606
1.09828e-06
0.0119942
0.00179015
7.1931e-07
5.03725e-07
1.25757e-06
0.000233101
1.12393e-06
0.00964777
1.90793e-06
9.93266e-07
9.22825e-07
7.46676e-07
1.88398e-06
1.55524e-06
6.21477e-07
1.56442e-06
1.32475e-06
6.41372e-07
1.14362e-06
5.02473e-07
0.00722696
0.000154368
1.16315e-06
1.24629e-06
1.66603e-06
0.00637138
3.34949e-05
1.64936e-06
0.00236671
0.00933552
1.52869e-06
0.000764133
1.26469e-06
9.18974e-05
1.65158e-06
1.53811e-06
1.68912e-06
4.2171e-06
1.09578e-06
1.49706e-06
2.11714e-05
1.04364e-06
4.11879e-07
0.00874555
2.7826e-06
1.54683e-06
5.9933e-07
1.46649e-06
1.337e-06
1.39237e-06
1.09396e-06
5.46229e-07
0.000124966
0.00287023
0.00176547
6.45887e-07
1.28938e-06
0.000141297
1.20061e-06
4.99529e-07
3.90361e-05
2.05435e-06
0.000353277
1.61025e-06
1.08267e-05
2.97157e-05
4.74657e-07
5.38095e-07
9.20267e-07
0.000709952
0.0108908
0.000971131
4.12709e-07
0.0081211
1.4939e-06
5.38127e-07
0.00763033
9.22193e-07
1.28228e-06
0.000805712
3.66488e-06
4.13707e-07
1.78141e-06
1.19242e-06
8.12038e-07
1.54547e-06
1.81334e-06
1.55004e-06
1.6267e-06
1.10376e-06
1.36265e-06
1.56246e-06
1.21279e-06
5.19568e-06
0.000745958
0.00947845
8.97186e-07
5.34172e-07
2.4913e-06
2.57113e-06
0.00901731
8.15341e-07
1.51987e-06
0.00169766
1.24749e-06
0.00406059
0.000127076
0.000354824
7.83746e-07
6.18444e-07
0.00617157
1.25168e-06
1.116e-06
0.000253319
1.40233e-06
1.36706e-06
2.64932e-06
8.68179e-07
1.31549e-06
1.0596e-06
0.000252545
0.00229212
0.00883581
0.00239285
5.38549e-07
1.1307e-06
1.21754e-06
0.000121478
0.00615791
4.80458e-07
8.76299e-05
1.76849e-06
1.39208e-06
0.0100527
1.20045e-06
0.00656416
0.00884442
1.01544e-06
1.15412e-06
5.64857e-07
1.05349e-06
0.000444034
8.49308e-07
1.65495e-06
8.81545e-07
8.44972e-07
0.00706278
8.97043e-05
0.000147048
5.43656e-07
5.31729e-07
1.1271e-06
1.19194e-06
0.00939448
1.01332e-06
1.21124e-06
1.52253e-06
1.79509e-06
1.57322e-06
0.0105994
0.00016004
3.85404e-06
1.23767e-06
1.48265e-06
8.76558e-07
3.12124e-06
4.95825e-07
0.00429367
7.4101e-05
3.44678e-06
0.00243201
0.000160214
1.34769e-06
1.52272e-06
1.33859e-06
2.48907e-06
3.03878e-06
1.72532e-06
3.07732e-05
8.79232e-07
0.00501965
1.62353e-06
1.31372e-06
0.000283853
1.34608e-06
0.00924476
9.71416e-05
5.31751e-07
1.25371e-06
0.00186295
1.35434e-06
1.44008e-06
0.00757473
1.44179e-06
1.21915e-06
5.02024e-07
4.75506e-07
9.24207e-07
2.02563e-06
5.01298e-07
1.09927e-06
1.27402e-06
0.000287101
6.40028e-07
1.70143e-06
0.00152326
1.63615e-06
1.30401e-06
2.0117e-06
0.000138706
0.000149081
1.48202e-06
8.53983e-05
8.53433e-05
1.24121e-06
0.00698412
1.1404e-06
1.19598e-06
1.20963e-06
1.5497e-06
1.21369e-06
0.0101471
1.55923e-06
6.17031e-07
6.58223e-07
1.48743e-06
9.36163e-07
1.65225e-06
1.5083e-06
2.43648e-06
1.32435e-06
1.6329e-06
2.44731e-06
1.50107e-06
1.74574e-06
1.30844e-06
2.31554e-05
1.46451e-06
4.14278e-07
2.36407e-06
5.49128e-07
1.68142e-05
5.02554e-07
1.50473e-06
0.000229538
1.08549e-06
7.01119e-07
1.35206e-06
5.32466e-07
1.52355e-06
8.94437e-07
5.10438e-07
1.25024e-06
1.25035e-06
0.0072722
9.45091e-07
9.7696e-05
8.38787e-07
1.92272e-05
1.17762e-05
9.69388e-07
5.67174e-07
0.0109471
1.76194e-06
2.77074e-05
1.53932e-06
1.43906e-06
2.65013e-06
5.31367e-07
1.34165e-06
1.34972e-06
1.71238e-06
0.0077013
5.75983e-07
8.04175e-07
1.23857e-06
1.81156e-05
1.63145e-06
0.00225126
9.48421e-07
4.45163e-07
1.27173e-06
1.13344e-06
5.44791e-07
4.53629e-07
9.36845e-07
4.81514e-07
5.75378e-07
5.23544e-07
8.43068e-07
6.44014e-07
0.00306698
4.82001e-07
1.41847e-06
4.52978e-07
1.98117e-06
5.56972e-07
0.000439425
0.00580169
6.14267e-07
1.34581e-06
9.66582e-07
4.72337e-07
1.58034e-06
4.0484e-06
1.81637e-05
5.379e-07
1.48747e-06
0.000826985
0.000126311
1.64981e-06
3.03166e-05
1.71867e-06
1.62246e-06
0.000130389
8.01125e-07
0.0100173
1.30475e-06
9.66179e-05
1.31595e-06
0.00740859
4.60484e-05
4.27146e-07
5.6863e-07
5.25518e-07
8.86988e-05
1.44101e-06
1.64036e-06
0.0120922
5.1049e-07
1.30633e-06
8.14881e-07
0.0062652
1.03457e-06
8.09777e-07
0.0103223
6.12962e-07
1.45312e-06
0.0110006
1.8565e-06
2.21891e-06
0.000126062
0.00946376
9.97973e-07
1.00757e-06
1.45474e-06
1.00264e-06
0.0109084
5.55714e-07
1.09788e-06
4.74698e-06
5.34826e-07
1.08329e-06
1.5935e-06
5.64155e-06
0.0074345
5.50533e-07
1.57724e-06
1.44455e-06
3.11391e-06
5.35005e-07
0.0091554
1.09409e-06
0.0114056
1.06663e-06
0.00900073
1.71344e-06
0.00013145
1.43553e-06
1.60646e-06
0.000817084
5.51997e-07
1.47786e-06
5.90171e-07
4.46104e-07
9.61727e-05
0.000191388
1.31545e-06
1.38563e-06
3.29832e-06
1.46251e-06
1.69765e-06
1.98939e-06
0.000428766
1.77202e-06
3.93048e-05
6.89959e-07
0.00593232
5.08353e-05
0.000594721
3.89216e-06
0.00313669
1.65707e-06
1.13208e-06
5.52152e-06
0.000166684
1.85323e-06
0.000398518
8.66312e-07
9.73565e-07
0.00137262
1.70387e-06
8.43158e-07
0.00602259
8.06526e-07
0.00638784
6.90623e-07
1.52021e-06
6.22075e-07
4.15178e-07
9.4171e-07
0.0059527
1.13209e-06
1.62032e-06
2.2704e-06
6.49918e-07
1.30334e-06
7.98551e-07
5.46681e-07
1.44014e-06
1.04886e-06
2.62388e-05
4.78157e-07
1.40959e-06
1.42598e-06
4.77274e-05
1.02343e-06
5.48637e-07
1.42756e-06
1.29525e-06
1.32209e-05
1.68667e-06
5.3122e-05
1.73757e-06
1.11756e-06
1.32008e-06
7.86782e-07
1.5228e-06
2.55431e-05
1.15037e-06
1.2567e-06
0.000981056
5.29495e-07
0.000188435
5.3405e-07
1.54601e-06
1.71962e-06
1.65867e-06
1.44371e-06
2.93821e-06
0.0127119
9.37805e-07
1.16075e-06
0.000994986
0.000827294
2.2034e-06
2.12358e-06
0.00325812
1.64382e-06
2.7116e-05
7.25002e-07
7.24524e-07
2.93864e-05
0.0112441
1.45397e-06
1.37929e-06
5.02089e-06
9.48143e-05
1.49209e-06
5.28673e-07
1.30669e-06
1.68622e-06
2.01373e-06
0.00826961
9.56457e-07
5.25156e-07
7.60749e-06
5.6569e-07
0.000142374
1.88578e-06
1.44875e-06
1.60676e-06
0.00963111
1.47693e-06
0.0119639
6.88846e-07
5.40881e-07
4.71113e-07
9.37645e-07
1.59337e-06
5.62606e-07
1.16237e-06
1.397e-06
4.88783e-07
5.91304e-07
1.61428e-06
1.11105e-06
2.50632e-06
0.000219845
1.58351e-06
0.000718896
5.24248e-07
1.31869e-06
3.95003e-05
2.80832e-05
1.47498e-06
1.14736e-06
4.09886e-07
5.60767e-07
0.00366967
1.27191e-06
5.00025e-05
0.00912425
2.20481e-05
1.68851e-06
7.16831e-05
7.3416e-05
7.31935e-07
1.4541e-06
0.00156817
1.35519e-06
2.98054e-06
0.00914924
1.25463e-06
1.2365e-06
6.23977e-06
1.57445e-06
8.94455e-07
0.000208118
1.72802e-06
1.30604e-06
1.10622e-06
6.84326e-07
1.0053e-06
1.34676e-06
1.14253e-06
6.37472e-07
1.3404e-06
8.45568e-05
1.71212e-05
1.42642e-06
0.00081832
0.0091154
8.03713e-07
0.00752305
0.000759019
0.00977152
9.36753e-07
0.000170726
1.84241e-06
1.10569e-06
1.39673e-06
1.20528e-06
1.30618e-06
0.0080273
4.44847e-05
9.34165e-07
0.00565712
8.84835e-07
1.058e-06
2.02832e-06
1.80193e-06
1.89314e-05
3.21582e-06
3.03074e-05
7.11664e-05
1.32407e-06
1.53798e-06
1.08792e-06
4.8381e-05
0.0100183
1.30886e-06
1.33231e-06
1.08563e-06
1.05427e-06
8.31569e-07
0.0024404
1.04985e-06
5.62528e-07
1.38487e-06
5.81113e-07
1.20771e-06
2.14578e-06
0.0106794
1.4344e-06
0.00014307
1.08228e-06
8.61727e-07
1.23249e-06
1.03589e-06
0.00207998
0.000801591
6.99299e-07
2.0011e-06
1.38227e-06
2.21788e-06
0.00875423
1.15484e-06
4.78868e-07
1.32218e-06
0.00654174
1.08754e-06
5.10676e-06
1.43033e-06
1.32775e-06
1.139e-06
6.56187e-07
1.56455e-06
1.61991e-06
2.07388e-05
1.05012e-06
9.9515e-07
1.40158e-06
1.262e-06
8.59538e-07
1.12811e-06
7.44026e-07
1.34163e-06
1.18452e-05
1.24222e-06
9.79824e-07
1.23559e-06
1.12196e-06
1.05235e-06
2.29296e-06
1.31883e-06
1.77785e-06
0.00525019
8.3691e-07
2.82008e-06
9.94602e-07
0.00717441
5.3434e-05
1.32839e-06
7.92783e-07
2.34836e-05
1.2133e-06
9.77997e-07
1.57768e-06
6.70801e-05
0.000965824
1.37777e-06
1.60101e-06
1.14859e-06
0.00132728
0.000110967
1.41808e-06
2.50493e-06
0.000251713
4.16126e-07
7.426e-07
0.000323929
1.65755e-06
1.1229e-06
2.44646e-05
1.06927e-06
5.40687e-07
0.00869391
2.81621e-05
1.74141e-05
3.04195e-05
0.000142174
1.43942e-06
1.04148e-05
7.18883e-06
3.58852e-05
1.01611e-06
5.98679e-07
5.98542e-07
0.000114352
7.47644e-05
1.7911e-06
2.30595e-05
8.32489e-07
2.29859e-06
0.00986488
1.78571e-06
1.53934e-06
9.65913e-05
1.23243e-06
3.95882e-06
1.49971e-05
5.91416e-07
7.02628e-07
1.46454e-06
0.000207246
1.08309e-06
4.18035e-07
0.000214432
6.06896e-05
1.07315e-06
0.00790269
8.10934e-05
2.0852e-06
0.000153463
1.43074e-06
6.02778e-07
6.02844e-07
7.99316e-07
0.00226485
2.7747e-05
0.00273613
9.30885e-07
2.52637e-06
1.21288e-06
1.28205e-05
9.44272e-07
0.00223633
0.000141205
6.04993e-07
0.00483504
0.00244268
7.98289e-07
2.24255e-06
0.00138017
0.00437438
1.5869e-06
4.15247e-05
0.000111142
1.4601e-06
0.00950014
0.000682622
1.41889e-06
4.12964e-07
1.52452e-06
0.000137842
1.47606e-06
1.06787e-06
1.52185e-06
0.00608718
0.00806417
0.0112577
9.02676e-05
1.52698e-05
0.0110692
1.39043e-06
1.14366e-05
1.13471e-06
0.00302287
0.00822179
0.0107214
1.51311e-06
0.000840398
3.77048e-06
6.0351e-07
3.79601e-06
2.00457e-06
6.97931e-07
4.92698e-07
1.1396e-06
0.0087887
5.07612e-07
9.51722e-05
0.00445516
1.35161e-06
1.34644e-06
1.41609e-06
2.91543e-05
0.00462748
0.0110728
1.53676e-06
1.14017e-06
1.07508e-06
4.78862e-07
1.33334e-06
1.24546e-06
0.000848015
0.00896952
1.1505e-06
7.41252e-07
1.14754e-06
1.79536e-06
1.59136e-06
0.00653694
4.86981e-07
5.98171e-06
1.57512e-06
1.15736e-06
0.000105696
4.16205e-07
1.63483e-05
2.06785e-06
1.51022e-06
3.39821e-06
1.51045e-06
4.7466e-07
0.0153751
7.96903e-07
1.35018e-06
1.08184e-06
0.00828725
4.79038e-05
0.000144716
1.08089e-06
1.21102e-06
4.5157e-07
6.71765e-06
1.66041e-06
0.000107319
1.16233e-06
0.000629131
0.000370242
1.76523e-06
7.76773e-07
1.44241e-06
1.75163e-06
1.55843e-05
1.72039e-06
0.000816464
0.000190892
0.00463088
1.533e-06
1.34241e-06
8.02224e-07
4.79659e-07
6.27493e-05
0.00624923
4.73194e-07
1.36616e-05
2.88174e-06
8.14499e-07
9.59508e-07
0.00850212
1.94809e-06
1.72093e-06
1.50529e-06
4.18586e-07
1.66173e-06
1.13466e-06
9.84134e-07
1.45008e-06
0.000741168
1.11062e-06
1.24346e-06
1.22711e-06
7.76879e-07
1.98217e-05
1.0659e-05
4.1858e-05
1.2314e-06
5.48999e-07
1.35727e-06
1.79365e-06
1.40525e-06
7.93418e-07
1.8926e-06
0.00844046
0.00204333
1.82327e-06
0.00293318
0.00317388
1.57064e-06
1.34139e-06
0.000199848
5.2243e-07
9.21829e-05
8.04418e-07
1.87008e-05
5.22169e-07
4.99637e-07
0.00904841
9.82859e-07
0.0103475
1.34296e-06
0.0107757
1.15184e-06
1.11635e-06
9.12714e-05
5.22468e-07
1.59421e-06
0.000121404
1.7913e-06
1.01939e-06
1.75764e-06
1.93087e-06
1.56904e-06
5.35629e-07
1.26051e-06
1.6141e-06
2.91945e-06
0.0001207
1.36248e-06
1.33399e-06
1.65978e-06
6.86342e-07
0.00746002
0.00949165
4.70964e-07
0.00522984
1.67981e-06
1.44812e-06
0.011007
0.0102661
1.84903e-05
6.24249e-06
9.94696e-07
9.38327e-06
2.07026e-06
0.00514489
0.000152055
1.27087e-06
4.12419e-07
0.00742623
1.49629e-06
1.02476e-06
0.000159154
0.00532824
8.03536e-07
1.19917e-06
1.13215e-06
0.000211556
0.0088582
1.44529e-06
0.0103534
1.32494e-06
8.0531e-06
0.00999404
1.51244e-05
0.000153996
0.000175698
1.22964e-06
8.2365e-06
1.24257e-06
1.52364e-06
1.40834e-06
1.01016e-06
1.46336e-06
1.22153e-06
0.0113111
1.60602e-06
2.26928e-05
0.00014966
6.51789e-07
5.35038e-07
2.91614e-06
1.2253e-06
5.55084e-07
4.95505e-07
1.60879e-06
0.000205759
1.55924e-06
0.00482418
4.77953e-07
1.26449e-05
0.0035701
6.50651e-07
9.9105e-07
9.57516e-07
5.37906e-07
0.00765562
5.51237e-07
1.13068e-06
9.69776e-07
8.56646e-05
1.25574e-06
1.30602e-06
1.33284e-06
0.0029891
9.26961e-05
0.00175533
1.26663e-06
1.33533e-06
1.47593e-06
6.52294e-07
9.74516e-07
9.21922e-05
7.8558e-07
5.18245e-07
0.000818544
1.79827e-06
0.00392154
4.48962e-06
0.0103379
1.57844e-06
5.14187e-07
4.74889e-05
0.00970682
9.67977e-07
1.28665e-06
4.73385e-07
0.00116559
1.78187e-06
9.46585e-06
1.39655e-06
8.37081e-07
1.13761e-06
8.60636e-05
0.000420774
2.28388e-06
0.00482117
9.62545e-07
0.000593681
1.5758e-06
0.00978339
8.14464e-07
1.59459e-06
8.00051e-07
5.16325e-07
1.11613e-06
6.48189e-07
0.00759859
1.9856e-06
1.56539e-06
1.60642e-06
1.42322e-06
1.25434e-06
1.30252e-06
8.22386e-07
0.0106045
2.02659e-05
1.82462e-06
8.10358e-07
4.98982e-07
0.000535858
0.00828339
1.17858e-06
8.1828e-07
1.33247e-06
1.21943e-05
4.96132e-07
4.98421e-07
4.95664e-07
6.90612e-07
4.89708e-06
1.30891e-06
0.00328018
1.3195e-06
0.00455191
9.96654e-06
1.61192e-06
3.62754e-06
2.95935e-06
1.39874e-06
0.000136749
1.57521e-06
1.44907e-06
5.91082e-07
4.17119e-07
0.013371
1.3745e-06
8.0371e-07
0.00162938
8.23988e-07
2.12452e-06
1.12292e-06
3.53257e-05
1.22175e-06
1.39152e-06
0.00833628
1.45404e-06
1.16761e-06
2.21674e-06
9.24617e-07
2.55379e-06
1.4498e-06
4.13381e-07
1.39509e-06
1.385e-06
1.47376e-06
1.11603e-06
5.43775e-07
0.000158552
8.88918e-07
7.21909e-07
5.92796e-06
5.51311e-07
6.84167e-05
3.87044e-05
1.16575e-06
1.59041e-06
1.06295e-06
9.94175e-05
5.47241e-07
5.24976e-07
0.000480869
2.21549e-06
8.16246e-07
0.00993985
0.000159809
4.13576e-07
7.38493e-07
1.43898e-06
1.21201e-06
1.60719e-06
9.4988e-07
9.34203e-07
0.000175301
0.000115166
9.00203e-05
0.00182051
8.19588e-07
8.74383e-07
7.37153e-07
1.42898e-06
2.58383e-05
0.000291227
8.873e-07
3.31681e-05
1.0135e-06
1.70938e-06
4.77443e-06
1.05195e-06
1.44941e-06
3.6924e-05
6.41559e-06
8.05047e-07
1.80902e-06
1.9397e-06
0.000165794
8.07192e-07
0.00249857
8.51198e-07
6.29258e-07
6.57528e-07
8.80619e-05
7.23857e-07
1.59606e-06
1.5744e-06
0.00884267
9.0043e-05
5.87436e-07
1.59015e-06
0.0108502
1.39785e-06
1.01984e-06
5.84068e-06
0.0130978
3.06707e-06
4.41286e-06
2.0258e-06
7.802e-07
1.5169e-06
0.000161098
3.7903e-05
1.20603e-06
0.00771219
1.28605e-06
0.000287441
8.53086e-07
1.17556e-06
0.0053268
1.7374e-06
1.92032e-06
1.24587e-06
0.00216488
4.71638e-07
1.15757e-06
1.31113e-06
5.1909e-07
2.02559e-06
2.47391e-06
2.68643e-05
2.32191e-06
0.00524528
0.000220805
1.01441e-06
1.60225e-06
0.000762256
0.000407514
1.2092e-06
9.46756e-07
9.99241e-06
0.0118404
6.06435e-07
9.42769e-07
7.66533e-05
0.000389071
1.20207e-06
7.98555e-07
2.63834e-06
0.0073198
0.00970486
2.36026e-06
0.0102194
7.82183e-07
1.55569e-06
1.56558e-06
1.66594e-06
1.43482e-06
1.62993e-06
1.90519e-06
9.16618e-05
0.0062901
1.44659e-06
1.31007e-06
3.632e-06
1.62647e-06
0.00023679
8.49606e-07
0.000132299
1.46153e-06
0.000156895
1.0839e-06
0.00604404
3.20496e-06
2.07434e-06
6.86078e-07
3.01576e-05
1.20422e-06
8.91054e-05
1.30126e-06
9.64624e-07
2.21843e-06
1.01286e-06
0.00884003
1.2339e-06
6.37078e-07
1.29907e-06
4.77819e-07
0.00559311
0.0121862
1.44348e-06
1.45341e-06
0.00908398
1.66027e-06
5.80187e-06
1.60243e-06
1.11619e-06
1.67007e-06
1.49931e-05
1.45342e-06
4.50832e-05
1.80719e-06
1.8667e-06
8.11526e-05
1.06254e-06
0.00773605
0.00852317
3.83781e-06
0.0026933
4.76235e-07
8.87116e-07
0.00681808
0.00241809
5.1324e-07
0.00222639
8.21293e-07
1.47433e-06
1.43253e-06
0.00623592
1.03697e-06
1.07906e-06
1.32763e-06
1.42139e-06
1.39674e-06
1.06006e-06
0.000135478
1.30733e-06
1.95442e-06
0.00261869
7.81726e-07
1.03134e-06
0.00680721
2.0613e-06
4.7678e-06
4.87509e-07
1.29809e-06
1.32341e-06
7.03218e-07
1.05237e-05
1.28892e-06
4.87041e-07
1.0023e-06
1.44985e-06
0.000913285
1.69666e-06
4.6982e-07
4.80834e-07
0.00910711
1.45963e-06
5.42048e-07
0.00545649
4.57884e-07
6.07209e-07
1.47417e-06
0.00762235
3.5907e-06
4.42488e-05
1.32245e-06
7.98168e-07
9.49523e-07
1.60678e-06
8.0456e-07
1.44488e-06
4.48033e-06
0.00392621
1.06009e-06
1.24672e-06
4.43436e-07
6.62228e-07
0.00840229
0.00865212
4.48795e-07
1.02696e-06
7.04383e-07
0.01806
9.54192e-07
7.44699e-05
0.00054248
0.00695418
7.05007e-05
1.59587e-06
0.000425077
5.58194e-07
4.9539e-07
8.88609e-07
8.53437e-07
1.2554e-06
0.00482455
1.07619e-05
1.55039e-06
0.00305598
1.45613e-06
1.47226e-06
4.7726e-07
5.13645e-05
1.41626e-06
1.44536e-06
1.28504e-06
1.42992e-06
1.66456e-06
1.39223e-06
6.19583e-07
0.00596741
0.008314
0.0125274
9.81227e-07
7.40751e-07
1.58316e-06
0.00995803
7.83394e-07
1.88257e-06
6.60685e-07
2.1857e-06
1.71452e-06
1.2542e-06
1.66429e-06
0.0124196
1.02755e-06
0.00233599
7.99306e-07
1.39435e-06
4.56982e-07
1.11276e-05
1.48617e-06
1.30333e-06
1.26132e-06
1.17001e-06
5.63974e-05
0.00381637
8.86272e-07
1.32365e-06
2.82318e-06
2.16998e-06
3.00644e-06
4.90306e-07
4.95475e-05
0.00989227
1.78355e-06
1.65259e-06
0.000631742
0.00975361
1.22437e-06
0.00015818
0.00276398
7.32122e-07
0.00528195
4.86937e-07
6.62503e-07
1.80258e-06
5.43989e-05
5.84457e-07
4.94895e-07
1.79202e-06
0.0110872
1.82311e-06
1.68413e-06
0.000143704
8.64375e-07
0.00225151
9.47291e-07
0.00724648
8.13704e-07
1.33011e-06
6.21491e-07
1.25283e-06
1.63777e-06
5.8355e-07
1.38826e-06
1.19264e-06
1.61504e-06
9.43502e-07
4.17648e-07
2.36768e-05
0.000178847
0.00062521
6.69248e-07
2.45962e-06
1.3246e-06
3.81589e-05
1.2208e-06
1.37498e-05
8.65682e-07
0.00249278
1.7983e-06
0.000323119
1.45615e-06
1.02705e-06
7.32292e-07
1.32874e-06
0.00144891
0.003244
7.16416e-05
0.000919318
0.0113475
1.32317e-06
1.35405e-06
7.69087e-07
0.00641414
2.98382e-06
1.20656e-06
0.00854256
4.14137e-07
1.00638e-06
1.45162e-06
1.89386e-06
0.00915756
0.000190776
1.3548e-06
7.86602e-07
1.17707e-06
0.00506985
2.18041e-05
0.0056113
0.0155617
2.00629e-06
1.44113e-06
1.50952e-06
0.00142721
9.30397e-07
1.61665e-06
1.48766e-06
1.01686e-06
0.00679569
1.20506e-06
5.04216e-07
2.3859e-06
1.0887e-06
4.12695e-07
2.55157e-06
0.000176049
4.38574e-06
3.61974e-05
2.09645e-05
9.28582e-07
1.85665e-06
5.06481e-07
0.00747895
1.24659e-06
1.45145e-06
4.26338e-06
1.36532e-06
1.13767e-06
6.68388e-07
7.27255e-07
9.97715e-06
2.7885e-06
1.5338e-06
1.02952e-06
1.06842e-06
4.77637e-07
0.0065538
4.23065e-06
0.00023859
1.58446e-06
1.72176e-06
4.79997e-05
2.36224e-06
1.31892e-06
0.000126059
1.55109e-06
8.10722e-07
1.39384e-06
7.27141e-07
8.7508e-07
3.71103e-06
1.50291e-06
1.12124e-05
0.000805618
1.67494e-06
1.19609e-06
1.02955e-06
1.45015e-06
0.00695051
7.30799e-07
3.46372e-05
0.0108476
0.000321566
6.10885e-07
1.72578e-06
8.02176e-07
1.45875e-06
4.48031e-07
0.000498897
7.03092e-05
0.0118397
1.44831e-06
1.45995e-06
8.69876e-05
1.60567e-06
1.50623e-06
1.21638e-06
1.42895e-06
0.00218743
7.28135e-05
1.62382e-06
1.07659e-06
1.33057e-06
1.63232e-06
1.24609e-06
4.97859e-07
0.000110528
7.91469e-07
8.09045e-07
3.89278e-05
0.00727094
8.17752e-05
1.17434e-06
0.000170283
1.15647e-05
4.79307e-07
1.0397e-06
0.00613102
6.18777e-07
1.00482e-06
0.00164529
0.0059879
0.00017129
0.00986258
9.99397e-07
4.78876e-07
6.51568e-07
5.04969e-07
0.000396628
0.00573396
5.58945e-07
1.67603e-06
1.17443e-06
7.99575e-07
1.28673e-06
2.78494e-06
3.89297e-06
1.35984e-06
6.24359e-05
1.21453e-06
0.00209905
2.33792e-05
2.49985e-05
0.00138508
0.000157007
1.27889e-06
8.17052e-06
4.2904e-07
1.28824e-06
0.000122365
6.17984e-07
1.34049e-06
0.00760174
0.00956618
2.33789e-05
3.19445e-05
1.18535e-06
2.55914e-05
0.000186724
1.28068e-06
7.5249e-07
7.88714e-07
1.42494e-06
1.19905e-06
1.39133e-06
0.00229185
1.3512e-06
1.53742e-05
1.34545e-06
1.31473e-06
0.00493321
4.47605e-07
1.21988e-06
6.018e-06
0.000328961
1.86565e-06
0.00648119
1.20294e-06
0.000696543
1.91885e-05
5.19813e-05
6.67866e-05
2.42738e-06
1.50549e-06
9.41607e-07
5.06947e-07
1.61548e-06
1.97166e-06
1.3534e-06
1.10583e-06
4.19003e-07
4.2287e-06
3.18316e-06
0.000200526
0.000475474
1.36349e-06
6.98128e-07
9.47238e-07
1.13237e-06
1.49844e-06
1.2071e-05
3.44495e-06
9.42572e-07
0.000985229
7.56947e-07
0.00740619
7.97631e-05
1.21286e-06
2.92646e-06
5.06181e-05
1.17624e-06
1.45683e-06
9.08063e-07
6.10474e-07
0.00248082
0.00358998
1.96943e-06
9.30191e-07
1.62309e-06
2.3018e-06
1.41114e-06
1.10042e-06
0.000708976
0.00674542
0.00307195
1.91703e-06
0.00353502
0.000201687
1.59148e-06
1.42783e-06
4.73791e-07
0.0115184
0.00511906
0.00509285
1.63826e-06
4.74177e-07
0.0108326
0.00389997
0.00875853
1.6431e-06
6.94516e-07
1.38077e-06
1.44624e-06
1.19356e-06
1.50052e-06
1.11862e-06
9.41757e-07
3.57068e-06
0.000111837
5.64843e-05
0.00432916
1.42036e-06
7.38316e-07
4.79272e-07
0.0117836
1.53064e-06
1.38846e-06
3.70999e-05
0.0143934
0.0114037
4.24416e-07
0.00830846
1.59341e-06
5.65164e-07
1.0167e-05
1.21208e-06
6.22165e-05
1.27628e-06
0.0039243
0.000156954
0.00953382
1.12847e-06
8.01802e-07
1.44247e-06
1.14935e-06
0.0024696
4.91002e-07
1.50168e-06
1.73623e-06
4.29497e-05
9.05553e-07
7.37652e-07
3.33885e-05
0.00442934
7.99729e-07
4.04658e-06
1.20188e-06
1.53625e-06
6.31822e-07
0.00212554
5.40069e-07
8.27932e-05
0.00661078
0.000205483
0.000241025
4.97113e-07
0.00244001
0.00929854
0.00130879
0.00834525
5.23692e-07
4.78348e-07
0.000533649
1.00732e-06
1.4074e-06
7.92324e-07