/*--------------------------------*- C++ -*----------------------------------*\
| =========                 |                                                 |
| \\      /  F ield         | OpenFOAM: The Open Source CFD Toolbox           |
|  \\    /   O peration     | Version:  v2012                                 |
|   \\  /    A nd           | Website:  www.openfoam.com                      |
|    \\/     M anipulation  |                                                 |
\*---------------------------------------------------------------------------*/
FoamFile
{
    version     2.0;
    format      ascii;
    class       surfaceScalarField;
    location    "300";
    object      phi_0;
}
// * * * * * * * * * * * * * * * * * * * * * * * * * * * * * * * * * * * * * //

dimensions      [0 3 -1 0 0 0 0];
oriented        oriented;


internalField   nonuniform List<scalar> 
51027
(
0.0674798
-0.301869
0.234389
-0.249288
-0.0281435
0.277432
-0.279817
0.126379
0.153439
0.193171
-0.15021
-0.0429604
0.231096
-0.390593
0.159497
0.0745243
-0.289973
0.215449
-0.0630491
-0.203197
0.266247
0.068045
0.0442868
-0.112332
0.00318466
-0.00574713
0.00256248
0.201557
0.102296
-0.303853
-0.0798638
0.151228
-0.0713641
-0.133572
-0.0683407
0.201912
0.395494
-0.199401
-0.196093
0.0300123
-0.182794
0.152782
0.151501
-0.428765
0.277264
0.22327
0.13251
-0.35578
0.114673
-0.0739541
-0.0407193
-0.258298
0.33025
-0.0719526
0.248337
-0.113658
-0.134679
0.0236922
-0.00395006
-0.0197421
0.209363
-0.0365933
-0.17277
0.1435
0.0671766
-0.210676
-0.0794256
0.280983
0.0190459
-0.162817
0.143771
0.0258638
0.198405
-0.224269
0.115884
-0.107374
-0.00850918
0.218158
-0.171437
-0.0467216
0.0148454
-0.141831
0.126986
0.170836
-0.137142
-0.0336943
0.086156
-0.278037
0.191881
-0.073325
-0.134589
0.207914
0.0773982
0.081761
-0.159159
0.0228859
0.0929977
0.149161
-0.407458
0.12903
-0.213996
0.0849657
-0.166477
0.166236
0.000240851
-0.244265
0.343808
-0.0995433
-0.445676
0.235629
0.210048
-0.179986
-0.155691
0.335677
0.0499727
-0.229959
-0.399061
0.263432
0.135629
0.119177
0.191825
-0.311003
-0.437099
0.295761
0.141338
-0.255328
0.166612
0.0887161
0.335777
-0.261253
-0.157835
0.0779709
-0.0132809
0.0287563
-0.0154754
0.152021
-0.361205
0.209183
0.330624
-0.178602
0.180715
-0.395181
0.214466
0.0184081
0.190955
0.311643
-0.154647
-0.156996
0.353795
-0.0941185
-0.259676
0.0845732
-0.195124
0.110551
-0.157524
0.0182915
0.139233
0.249212
-0.367126
0.117913
-0.153248
-0.13968
0.292928
-0.108906
-0.0489284
0.332247
-0.216935
-0.115311
0.153493
0.178753
-0.29912
0.145872
0.241427
-0.276143
0.0347162
0.067735
-0.262509
0.194774
0.419025
-0.21155
-0.207475
0.200526
-0.115953
-0.176754
0.202618
-0.162635
0.0537285
-0.0702798
-0.192028
0.262308
0.167342
-0.152497
0.381038
-0.149942
-0.425356
0.117384
0.307972
0.0703617
-0.254186
0.183824
0.23703
0.116765
0.165596
-0.202189
0.385517
-0.234017
0.00356032
-0.004957
0.00139668
-0.025022
0.0117411
0.351628
-0.155265
-0.196364
0.103691
0.229439
-0.333129
-0.193221
-0.0652324
0.258454
-0.085979
-0.0588817
0.144861
-0.191152
0.277308
-0.22512
0.328811
-0.0731412
0.141186
0.157146
-0.1381
-0.0893854
0.312656
-0.0746569
0.0334365
0.0412204
0.319376
-0.241338
-0.0780378
0.00157596
-0.168053
-0.329886
0.080598
0.227522
0.124106
0.288847
-0.188139
-0.100708
0.133279
-0.338197
0.204918
-0.177057
-0.122063
0.00561074
-0.00242609
-0.35607
0.231465
0.124604
0.285603
-0.215242
0.284334
-0.042907
0.218414
0.200611
-0.0253002
0.0911339
-0.0658336
0.353316
0.0101072
-0.363423
0.0922708
-0.0181594
-0.0741114
0.0846985
0.162719
-0.247418
0.106875
0.0639607
0.0311548
-0.0245797
0.202486
0.156024
-0.35851
0.114534
0.085992
0.141019
-0.318077
-0.201768
0.320945
0.152307
0.107961
-0.260268
-0.403966
0.192998
0.210968
0.147112
0.0259349
-0.173047
0.152012
0.136835
0.244113
0.0792537
-0.323367
0.156378
-0.0375299
0.240016
0.0877901
-0.360957
0.273167
0.210001
-0.0444046
0.194298
-0.079764
-0.350547
0.30986
0.0406872
-0.122702
0.0891655
0.0335369
0.0051631
-0.222084
0.216921
-0.152121
-0.178587
0.330708
0.00240407
-0.000313826
-0.00209024
-0.0264076
0.379724
-0.348322
0.262582
0.0857404
0.26414
-0.119694
-0.144446
0.0993649
0.19669
-0.296055
0.199629
0.101026
-0.300654
0.0651626
-0.2412
0.176037
-0.233617
0.170568
0.237802
-0.085495
-0.102014
0.346128
0.285455
-0.144244
-0.141211
-0.15827
0.159846
-0.0918049
0.14692
-0.0551148
-0.00204566
0.00560598
-0.31648
-0.112285
0.221298
0.109228
-0.330526
0.00515185
-0.00435946
-0.000792387
-0.0603515
0.104638
0.040322
-0.0231
-0.017222
0.0313584
-0.004703
-0.0266554
0.275754
-0.0302819
-0.245472
-0.179316
-0.173091
0.352407
0.0524065
-0.138386
0.036451
-0.229672
0.0509471
0.1594
-0.210347
-0.260436
0.399684
-0.139248
-0.0656484
-0.359708
-0.10756
0.0747142
0.0328463
-0.0384336
-0.145822
0.184256
0.232073
-0.103043
-0.0998192
-0.0833754
0.183195
0.0964848
-0.0430935
-0.0533913
-0.208904
-0.137375
0.346279
0.0706094
-0.204181
-0.0752236
0.11145
-0.0362265
-0.0196549
0.0561446
-0.0364897
-0.231263
0.157938
0.0406713
0.0704756
-0.111147
0.264359
-0.419593
0.155234
-0.0353023
0.119768
0.128909
0.395048
-0.239498
-0.155549
0.0958874
0.162298
-0.258185
0.110052
-0.276978
0.166926
0.429721
-0.222079
-0.207642
-0.292689
-0.0451594
0.337848
-0.197268
0.000201526
0.197067
0.101865
-0.305062
0.371193
-0.283403
-0.124576
0.299156
-0.17458
0.0140866
0.0262353
-0.0370945
0.0243339
0.0127606
0.0914809
-0.0508096
-0.237252
0.384229
-0.146977
-0.330759
0.218757
0.112003
0.3309
-0.216095
-0.114804
0.167152
-0.0602763
0.0887573
-0.0886346
-0.00012274
-0.0624015
0.209514
0.0935193
-0.3061
0.212581
0.165071
0.120384
-0.158818
0.000548214
0.0689977
0.0274872
-0.226365
-0.121957
0.395452
-0.200088
-0.195363
-0.203196
0.270676
0.334174
-0.329611
-0.00456315
-0.202953
-0.122624
0.325578
0.173137
-0.374016
0.200879
0.215414
-0.164467
0.131801
-0.359437
0.227636
0.152031
0.04114
0.345716
-0.252197
0.139791
0.198178
-0.337968
0.119963
-0.0504091
-0.0695535
-0.197558
-0.248118
-0.346666
0.3495
-0.00283361
0.0134392
-0.0655231
0.0520839
-0.0869779
-0.0552489
0.142227
-0.142946
0.0559684
0.148108
-0.357012
0.0745136
-0.332874
0.25836
0.0449622
-0.289227
0.176382
0.21907
0.0650183
0.288553
-0.353571
-0.295476
0.201601
0.0938756
0.303859
-0.151837
-0.152022
-0.0867128
0.420887
-0.335443
-0.0151048
-0.0683937
-0.0604356
0.0799453
-0.0195098
0.254716
-0.224548
-0.0301681
0.377667
-0.377667
-0.192205
0.340313
0.181809
-0.0563716
-0.125437
0.00305357
-0.0006495
0.0669298
-0.257729
0.190799
0.407388
-0.0925628
-0.314825
0.00115067
-0.0574
0.0562493
0.110421
-0.163415
0.0529933
-0.113282
-0.0651077
0.17839
0.0461274
0.208589
0.352078
-0.22492
-0.127158
0.081871
0.325517
0.102702
0.0915964
0.0648174
-0.284283
0.219465
-0.252685
0.386955
-0.134269
-0.0522133
0.000164498
-0.0295762
0.0294117
0.0801354
0.0121354
-0.102267
0.204969
0.113021
-0.167873
0.0548516
-0.342248
0.204873
0.152471
-0.344677
0.070241
-0.213112
0.142871
-0.152983
-0.158
0.310984
-0.0497128
0.107338
-0.0576256
-0.00417017
-0.0145152
0.0186854
0.32343
-0.258613
0.156669
0.0916677
0.0527435
-0.144548
0.0108507
-0.0150209
-0.000433542
-0.0589849
0.0594184
-0.403623
0.172531
0.231093
0.0974265
-0.311678
0.214251
0.12678
-0.0967673
0.0904608
-0.206392
0.115931
-0.0718652
-0.138019
0.209884
0.22783
0.167218
0.329855
-0.222975
-0.10688
-0.284955
0.415314
-0.13036
-0.128344
0.352047
-0.223703
0.406876
-0.289879
-0.116997
0.0831086
-0.0569188
-0.0261898
0.232847
-0.085791
-0.147056
0.0332502
-0.108474
-0.271766
0.323662
-0.0518961
0.0309135
-0.00705395
-0.0238595
-0.385299
0.0401325
0.345167
0.322627
-0.371299
0.0486721
0.0596257
0.0234829
0.230904
-0.060603
-0.170301
0.200274
-0.109813
0.0267246
-0.298491
-0.149845
-0.123971
0.273816
0.255656
-0.188726
0.118194
-0.180595
-0.171014
-0.0343783
0.205393
0.140647
0.0411623
0.400119
-0.181705
-0.349983
0.230855
0.119128
0.110754
-0.313707
0.308004
-0.0776774
-0.230327
0.156514
-0.359159
0.202646
-0.206784
-0.0485442
0.0855376
0.00321967
0.356872
-0.259445
-0.239595
0.346146
-0.106551
-0.359204
0.36299
-0.00378573
0.206356
-0.394061
0.187705
0.149517
0.0833305
-0.145095
0.0486034
0.0964917
0.162597
-0.376046
0.21345
-0.0550496
-0.0809026
0.135952
0.246027
0.0619773
0.0244372
-0.0242727
0.155763
0.0820392
-0.214883
0.398527
-0.183644
0.0688068
-0.297146
0.228339
0.0554946
0.064468
0.122024
-0.366197
0.244173
-0.322344
0.233939
0.088405
-0.139264
-0.132359
-0.158989
0.291348
0.234992
-0.0792293
0.0519136
0.166245
0.201912
0.198207
-0.224266
-0.106908
0.331173
0.149492
0.0855006
0.145536
-0.0681381
0.143539
0.0694799
-0.213019
0.211406
-0.1524
-0.0590062
-0.056294
0.307046
-0.250752
-0.0654763
-0.198177
0.263654
-0.0846769
0.234169
0.0245115
0.0485574
0.166857
-0.340997
0.212653
-0.159648
0.368232
-0.208583
-0.0900011
0.208195
0.0560634
-0.218881
0.0186101
0.234573
-0.253183
0.121166
0.068343
-0.189509
0.0498044
-0.206391
0.156587
0.158955
0.144904
0.0298956
-0.0321204
0.00222477
0.237335
-0.0938356
0.14329
-0.0908836
-0.147189
0.0328548
0.114334
-0.203512
0.253317
-0.0667342
0.210273
0.0383445
-0.00881176
-0.0295327
-0.249726
-0.169867
-0.125942
0.0670599
-0.262174
0.20588
0.126139
0.225939
-0.0503937
0.3441
-0.248064
-0.0960358
-0.150275
0.219754
-0.0491661
0.0503167
-0.0645823
-0.0581201
-0.203345
0.221955
-0.0988099
-0.0441364
0.0560294
-0.212179
0.156149
0.0932832
0.213763
-0.0259859
0.316462
-0.290476
-0.0624851
0.0398537
0.0226314
0.0472244
0.0967414
-0.143966
-0.00243849
0.0028892
-0.000450711
0.0608672
-0.0136308
-0.0472364
0.20911
0.22061
0.00193695
-0.348603
-0.377028
0.147412
0.229617
-0.253214
-0.123815
0.308723
-0.21544
0.0294492
0.0101649
-0.0396141
-0.0336024
-0.0410545
0.176374
0.0980078
-0.274381
0.108173
0.248977
-0.35715
0.0311564
0.239582
-0.341597
-0.00299165
0.0114106
-0.00841899
-0.343576
0.348518
-0.004942
-0.0332381
-0.029247
0.0752557
0.0357252
-0.110981
0.115823
-0.184164
-0.152105
-0.136167
0.288272
-0.128191
0.356339
-0.17348
-0.182858
0.0917318
-0.272749
0.181017
-0.376643
0.173806
0.202836
-0.249451
0.318258
0.286768
0.0563802
-0.343148
0.28586
-0.120789
0.00592974
-0.0089214
0.0488769
-0.168128
0.119251
-0.0231574
0.0526066
0.0154065
-0.0190975
0.00369092
0.214409
-0.158379
0.352795
-0.179659
-0.095344
0.0913274
0.00401664
-0.0123793
0.0325982
-0.0202189
0.148547
0.207792
0.0565661
-0.208671
0.182384
0.148515
0.385809
-0.179363
-0.206446
0.249852
-0.0931832
-0.160313
-0.0501346
0.210447
-0.309637
0.24416
-0.105506
0.0341437
0.0713622
-0.296779
0.121673
0.175106
-0.333457
0.227138
0.106319
0.198057
-0.130322
0.0772622
0.231461
-0.144866
0.0460557
0.193147
0.0570888
0.265538
-0.129848
0.369431
-0.366733
0.157694
0.209039
0.0345135
0.24124
0.0439291
-0.121585
0.0776563
-0.332337
0.355831
-0.0234944
0.165657
0.1786
-0.344257
0.150663
0.234855
0.331526
-0.254264
-0.107002
-0.199356
0.306358
-0.201554
0.300918
0.310603
-0.253514
0.089962
-0.242472
0.15251
0.11993
-0.342607
0.222677
0.342518
-0.222588
0.344896
-0.222871
0.135863
0.149996
-0.0197146
0.00758633
0.0121283
-0.0526261
-0.136589
0.189215
0.103722
-0.0284666
0.0127076
0.0171503
-0.0298579
0.118545
0.241359
-0.359904
-0.330414
0.235897
0.0945168
0.0308049
-0.0180973
0.10951
-0.297898
0.188389
-0.175524
0.123792
0.0517323
0.0319615
-0.000603025
0.0304746
-0.0165023
-0.0139723
0.141887
0.144289
-0.286176
-0.00268396
0.00114778
0.00153618
0.188646
-0.170238
-0.163621
0.348475
-0.196004
0.381976
-0.17447
-0.207506
0.224191
0.119909
-0.249305
-0.0378606
0.287166
-0.248577
0.169151
0.0181202
0.0123545
0.0553814
0.0849532
-0.140335
0.115501
-0.28674
0.17124
0.107571
-0.18688
0.0793092
0.0489234
-0.0998971
0.0509737
-0.20147
0.342329
-0.150406
-0.191923
0.0205271
-0.00512061
-0.0882677
-0.26861
0.356878
-0.0900878
-0.19039
0.280478
0.170342
0.0183045
-0.159693
0.020525
0.139168
-0.115773
0.0660598
-0.112919
-0.149054
0.261973
0.106373
0.220983
-0.327357
0.232547
0.097308
0.247137
0.0590834
-0.30622
-0.256538
0.106694
0.304274
-0.218975
-0.0852995
0.00152209
-0.0180351
0.0165131
0.0031156
0.00203624
0.159249
0.18308
-0.192627
-0.151829
0.344456
-0.0525211
0.176452
-0.123931
0.0967948
0.226636
0.259063
0.0568568
-0.31592
-0.287945
-0.0424683
0.306107
-0.224474
-0.0816331
0.0412241
-0.373561
0.05826
0.0564134
-0.183932
0.0707132
0.113219
0.141358
0.0636182
-0.204976
-0.250688
0.296568
-0.0458799
-0.312268
0.123932
0.188336
0.086046
-0.240345
0.154299
-0.245076
-0.121121
-0.00093959
-0.00307702
0.00401661
-0.201769
0.308143
-0.184925
-0.0983173
0.283242
0.0845491
-0.341227
0.256678
-0.0280562
-0.129468
-0.0784012
-0.306898
0.0235435
-0.0431984
-0.308578
0.20278
0.105798
-0.031272
-0.143128
0.1744
0.165711
-0.358337
-0.101778
-0.214054
0.315831
-0.255473
0.0735499
0.181923
-0.158391
-0.00130206
-0.0117313
0.0842301
-0.0724988
0.0903304
0.229045
-0.224295
0.178436
0.045859
0.349091
-0.192564
-0.156526
0.150049
0.114091
0.353978
-0.142546
-0.211432
0.0425013
0.0615326
-0.104034
0.225298
0.170196
-0.0388114
-0.158457
-0.145061
0.0364225
0.108638
-0.17337
0.0600879
0.196806
-0.348635
0.175508
-0.126631
0.397328
-0.278371
-0.118956
-0.119858
0.294562
-0.174704
-0.0436057
-0.207082
-0.111727
0.219297
-0.0147644
-0.170355
0.18512
-0.18459
0.269139
-0.221766
-0.0337062
-0.347276
-0.00202211
0.349298
0.30395
-0.104321
-0.153099
0.355127
-0.202028
0.12272
-0.347582
0.224863
0.0754068
-0.126784
0.051377
0.299026
-0.361955
0.0629282
-0.209426
0.118959
-0.358554
0.315364
-0.163736
-0.151628
-0.227303
-0.134657
0.205808
-0.135199
-0.345741
0.345015
0.00072634
0.0855239
-0.279705
0.194181
0.146924
-0.358554
0.21163
-0.399531
0.189819
0.209712
0.329336
-0.148645
-0.180691
-0.116683
-0.224314
0.133243
0.068851
-0.202094
0.272201
-0.207038
-0.174741
0.310877
-0.136136
-0.182726
0.410813
-0.228087
0.252806
-0.178293
0.315572
-0.218778
0.0108572
-0.00698288
-0.00387428
-0.278882
0.110094
0.168788
0.15533
0.160034
-0.0511776
-0.124347
-0.0416471
0.094712
-0.0530649
0.348083
-0.242507
-0.105576
0.0265923
-0.00290012
0.0981451
-0.28307
-0.312015
0.137273
0.0547231
-0.109567
0.054844
-0.177329
-0.127047
0.304376
-0.135435
0.332504
-0.197069
-0.125855
0.0344243
0.0914308
-0.169858
-0.196876
0.284507
-0.188145
-0.0963614
0.35184
-0.311708
-0.303322
0.125994
-0.338899
0.354821
-0.015922
0.161731
-0.176496
0.255973
-0.372312
0.116339
-0.0619452
-0.111751
0.173696
-0.325592
0.0883395
-0.129982
-0.124616
0.254598
0.17823
0.175748
0.395777
-0.122486
-0.273292
0.0994484
0.248635
0.254238
-0.168714
0.0800851
-0.188202
0.108117
0.173453
0.111054
-0.308537
0.30802
0.000516532
-0.117488
-0.0503847
0.0681415
0.186097
0.103141
0.219076
-0.322216
-0.00543845
-7.57662e-05
0.00551422
0.306897
-0.147943
0.074392
-0.241335
0.166943
-0.326218
0.203593
0.284279
-0.19706
-0.0872189
-0.000517009
-0.00277371
0.00329071
0.11713
0.0182419
-0.135372
-0.132346
-0.0127146
-0.34061
0.190204
0.173188
-0.32531
-0.117018
0.197104
-0.367432
0.350073
0.0173592
-0.196041
0.264182
-0.337559
0.112639
-0.0550436
0.13045
0.0539878
0.0980492
-0.152037
-0.23163
0.343059
-0.111429
0.212329
0.0159975
-0.307957
0.29196
-0.069566
-0.0644204
0.133986
0.0620752
-0.193493
0.333932
-0.140439
-0.198887
0.358136
-0.200528
-0.108051
-0.012898
-0.039419
0.052317
-0.234758
0.11969
0.115068
-0.0206965
0.0545052
-0.0338087
0.0546822
-0.041243
0.0534079
0.230871
-0.209145
-0.00441225
-0.0010262
-0.0519185
0.169048
-0.0937242
0.149106
-0.228039
0.346584
-0.367599
0.152717
0.110908
-0.080083
-0.0308251
-0.351986
-0.0770373
-0.00260919
-0.0438764
0.0464856
-0.00188952
-0.000794445
-0.0672928
-0.0650533
-0.137328
0.0700357
0.0469272
-0.0782933
0.225626
-0.135664
-0.139067
-0.142979
0.282046
0.110711
0.33757
-0.164117
-0.113586
0.0799172
0.0336685
0.324148
-0.211914
-0.112233
0.201729
0.104378
-0.155518
-0.165323
0.32084
-0.173287
0.368361
-0.195074
-0.0245767
0.0715039
0.315706
-0.14058
-0.175126
-0.340711
0.109081
-0.191818
0.0373855
0.154432
0.218802
0.133245
-0.173065
-0.128782
-0.227172
0.355954
0.18358
-0.31589
0.132311
-0.0347206
-0.222746
0.0422105
-0.124152
0.081941
-0.0291349
-0.00153683
0.0306718
0.0156087
-0.0895628
0.157265
-0.310249
0.192821
0.126287
-0.319108
-0.112431
0.298044
-0.185613
0.281356
-0.0591609
-0.222195
0.242042
-0.16765
-0.192939
-0.00422128
0.00203021
0.00219106
-0.0485071
0.0102487
0.0382585
0.0731734
-0.0135311
-0.0596423
-0.010858
-0.0376491
0.0256179
-0.0379972
0.101265
-0.409802
-0.332601
0.0875247
0.100591
-0.288681
0.188091
-0.313496
0.124505
-0.00181354
-0.000624947
0.0951219
-0.198962
0.10384
0.0660572
0.25809
-0.415473
0.18817
-0.246446
0.193785
0.0526611
0.333063
-0.100517
0.142335
-0.281402
0.0557643
-0.00501227
-0.050752
0.00575307
0.00510409
0.102664
0.151221
-0.253885
-0.226794
0.0293777
0.197416
-0.267555
-0.201176
-0.111092
-0.104402
-0.266898
-0.0821751
0.0836897
-0.0015146
0.0516983
-0.19737
0.145671
-0.295481
0.101988
-0.00287999
0.00863305
0.295191
-0.114476
-0.183761
-0.062685
-0.169419
0.376857
-0.207437
-0.0727126
0.00466623
0.0680464
-0.0784069
-0.0474482
-0.348876
0.21409
0.134786
-0.319097
-0.131698
0.258077
0.0774938
0.0433973
-0.120891
0.311599
-0.210574
-0.318003
0.226006
0.0919966
0.100838
-0.184589
0.0837506
-0.176775
0.261474
0.34485
-0.0888768
0.0465002
-0.0559885
0.00948826
0.163971
-0.234251
0.319048
-0.204766
-0.114282
-0.169047
0.11124
0.0578069
-0.138308
-0.179394
0.317703
0.172372
0.165199
-0.273688
0.200548
0.0731402
0.317657
-0.0934655
-0.0718731
0.19564
-0.123766
-0.380984
0.236872
0.144112
0.225776
-0.174077
0.00266393
0.0582032
-0.0946399
0.189762
0.0629108
-0.00571428
-0.0571966
0.00282653
0.326335
-0.135286
-0.191049
0.0504929
0.116726
0.235621
0.109229
-0.207706
-0.129853
0.120856
0.112228
-0.233084
0.211314
0.107735
-0.242921
-0.0307668
0.212164
0.150977
-0.363141
-0.378087
0.181363
-0.307754
0.126391
0.126228
-0.3534
-0.0102713
-0.0147507
-0.0745813
-0.0938374
0.168419
0.116554
0.207428
-0.323982
-0.301225
-0.0122056
0.313431
0.0107195
0.0204352
0.317862
-0.162532
0.000778386
0.00746879
-0.00824717
-0.270258
0.0480486
0.222209
-0.0524522
0.299589
0.125328
0.163027
-0.288355
-0.275481
0.177164
-0.134301
-0.0744038
0.208705
-0.114428
0.276485
-0.162057
-0.0799893
0.0193214
0.0606679
0.138314
0.188021
-0.106371
-0.22623
-0.168914
0.334571
-0.408137
0.24114
0.166997
0.400889
-0.215178
-0.185711
0.101384
-0.0830926
0.126347
-0.292511
0.166164
-0.06971
0.000424498
0.000837664
-0.00126216
-0.0017198
-0.0738615
0.0755813
0.052522
-0.202618
0.150096
0.268904
-0.167039
-0.190434
0.242956
0.0315611
0.079347
-0.141506
-0.0843797
0.225886
0.323158
-0.117097
-0.206061
-0.256263
-0.0245612
-0.0125333
0.182123
0.215205
0.17058
0.147282
-0.38104
0.169357
0.211684
0.0800297
0.169823
0.309897
-0.18355
-0.00197943
0.00128841
0.000691017
0.109299
-0.337316
0.228017
-0.11901
0.0332822
0.0857281
0.0892736
0.24379
-0.119414
0.0332965
-0.174802
-0.156865
-0.201689
0.0241574
-0.0281075
0.0186849
-0.0208313
0.00214635
0.290374
-0.259895
-0.030479
0.307858
-0.124279
-0.165604
0.322117
0.147412
-0.279771
0.169775
-0.211642
-0.0151515
-0.274651
-0.129316
0.328525
-0.219225
-0.343757
0.117392
0.343311
-0.0940984
-0.0799013
0.290135
-0.210234
-0.168293
-0.230768
-0.293371
0.213469
0.0762143
-0.247311
0.171097
0.155404
0.101042
-0.256446
0.185898
0.148925
-0.334823
0.20362
-0.32807
0.12445
0.0643335
0.102818
-0.096349
-0.126336
0.222685
-0.029445
-0.166145
0.19559
-0.0427701
-0.000147641
0.0429177
-0.235162
0.286512
-0.0513509
-0.0438539
0.221425
-0.325097
0.103672
0.295484
-0.0987933
0.0408181
-0.00703026
-0.0337878
-0.0864472
0.13869
-0.279665
0.140974
-0.0378225
0.0102079
0.0276145
0.133343
-0.185969
-0.338046
0.117357
0.220689
-0.160012
0.165175
0.200243
0.122915
-0.112268
-0.282914
-0.00802828
-0.0116863
0.175604
-0.0596855
-0.115919
0.345951
-0.346447
0.000496134
0.106034
-0.334073
-0.121482
0.275159
-0.153677
-0.0981759
0.25358
0.224352
0.066022
-0.0338069
-0.151738
-0.125571
0.333125
-0.207553
0.175524
0.132334
0.337398
0.0144425
0.085035
0.140591
-0.082138
0.210814
-0.128676
0.355013
-0.142849
-0.24318
0.108879
-0.261681
0.157377
-0.383043
0.225666
0.200431
-0.316904
0.116473
-0.130953
0.0042116
-0.00709159
-0.29379
-0.281988
-0.0615876
-0.212147
0.260676
-0.0485285
0.0555135
0.104926
-0.16044
0.0576399
-0.0177863
0.309549
-0.226715
-0.0828342
-0.158895
0.0414073
-0.00169997
-0.000279457
0.118245
0.0643799
0.0087935
0.140921
0.165976
0.2122
-0.313978
0.109117
0.0454998
-0.154617
0.066321
-0.158287
-0.161577
0.319864
0.103647
-0.0489243
0.109897
0.194377
0.0828147
-0.226848
0.144033
-0.0925864
-0.179269
0.271856
-0.223845
-0.195159
-0.166812
0.361971
-0.0526299
0.0417719
-0.0924852
-0.0130208
-0.119078
-0.119647
0.238725
-0.246875
0.385505
-0.13863
-0.338948
0.127707
0.211241
-0.168406
0.278459
0.359304
0.0178126
-0.377117
0.32122
-0.114864
0.363377
-0.2135
-0.149877
0.206036
-0.328751
0.122716
0.0888876
-0.14859
0.0597025
-0.0697716
0.14486
-0.0750888
0.226813
0.155164
0.245049
-0.168835
-0.313115
0.196017
-0.132197
0.274085
0.227305
0.370469
-0.230678
-0.31655
0.158263
-0.255217
0.0581563
-0.173651
0.12113
0.00336257
0.208724
0.100825
0.364801
-0.169396
-0.195405
0.0882465
0.222356
-0.134426
-0.205191
0.121851
0.08334
0.0306019
-0.0332831
0.00268114
0.170657
-0.222892
0.0522343
-0.354221
0.159062
-0.0062045
0.21668
-0.133866
0.303035
-0.214789
-0.000634115
0.000273806
0.000360308
-0.127798
0.17012
-0.199565
0.0252049
-0.151604
0.1264
0.0768846
0.0345656
0.287887
-0.339785
0.0518983
0.159075
-0.0471335
-0.111941
-0.0654811
0.255295
-0.189814
-0.338146
0.263519
0.0746268
0.211325
-0.144148
-0.154971
0.0651678
0.0898034
-0.217119
0.0980402
0.0991477
0.0976413
-0.196789
-0.0684058
0.205377
-0.135136
-0.0804898
-0.16345
0.24394
0.31515
-0.142778
0.0245729
-0.094139
0.0619605
0.000950341
-0.00368443
-0.0235103
0.0271948
-0.400066
0.239461
0.160605
0.364697
0.125739
-0.153796
-0.051464
-0.0560965
-0.0382341
0.00952092
0.0287132
-0.298662
-0.0394844
-0.204427
0.0698376
-0.104714
-0.273261
0.0611135
-0.0677951
0.0595658
0.00822928
0.340753
-0.134717
-0.228801
-0.0264152
0.0643183
-0.317004
0.21009
0.144922
-0.0386459
0.0418937
-0.00324783
-0.111946
0.285581
-0.173635
-0.212425
-0.146426
0.358851
0.316695
-0.146115
-0.115544
0.27814
0.124928
0.219967
-0.0615101
0.139004
0.186139
0.130977
-0.317116
0.0735385
-0.275611
0.202072
-0.162347
-0.14883
0.311177
0.141414
0.175281
-0.00110071
0.00152521
-0.0417284
-0.0109015
-0.00103454
0.00195856
-0.000924029
0.124568
0.191566
-0.316135
-0.172459
0.281968
-0.323924
0.144811
-0.334878
0.190066
0.0381982
0.0194417
0.368021
-0.256945
-0.111075
-0.206496
0.11546
0.0436151
0.161775
0.049631
-0.00105154
0.0309472
-0.245992
0.180511
0.000942104
-0.000667062
-0.000275042
-0.0509822
0.050127
0.000855199
-0.343924
0.156155
0.18777
0.178036
0.101337
-0.279373
-0.183177
-0.22496
-0.184107
0.23408
0.0738205
0.151955
0.364148
-0.0715955
-0.292553
0.183426
-0.101665
0.184815
-0.314569
0.129754
0.257227
0.106921
-0.00362576
0.00268617
-0.32599
0.131356
0.194633
-0.276182
0.00848424
0.267698
0.391682
-0.182745
-0.208937
0.0884318
-0.299316
0.210884
-0.1712
0.36962
-0.19842
-0.247367
0.000533534
0.0402845
-0.332695
-0.00649353
0.339188
0.182426
0.132724
0.10328
-0.162808
0.0595274
-0.17592
-0.0614607
0.237381
0.243331
-0.147443
0.0213318
-0.0026469
0.0132714
-0.251457
0.238186
0.0733615
-0.11359
0.0402282
-0.277064
0.085036
-0.205271
0.133406
0.15327
0.0813536
-0.119375
0.038021
-0.118779
0.3544
-0.0393548
0.073096
-0.0337411
0.0590278
-0.0594613
-0.368736
0.147267
0.221469
-0.0369806
-0.0430087
0.219386
-0.206115
0.0298517
0.197671
0.167119
-0.0638392
0.274985
-0.155175
-0.11981
-0.0374672
0.106892
-0.0694249
-0.208583
-0.154813
0.363396
0.0331884
-0.209108
0.00283923
-0.0652566
0.0624173
-0.130647
0.315462
0.00695667
-0.0673922
-0.0427682
0.146119
-0.103351
-0.204597
0.278136
-0.298183
0.134447
-0.21281
0.323563
0.0202156
-0.0239
-0.355745
0.188582
0.167163
-0.216695
0.305127
0.110538
-0.269338
0.1588
-0.131584
-0.00555749
0.0580765
0.1473
-0.346218
0.229899
0.116318
-0.00159268
-0.00203307
-0.273577
0.18349
-0.228788
-0.123055
0.351843
0.110397
-0.335157
0.22476
0.23128
0.169609
-0.123533
-0.204537
0.233029
-0.0703991
-0.16263
0.321754
-0.211357
-0.00506808
0.355141
0.0749527
-0.250571
0.175618
-0.21441
-0.0837726
0.374623
-0.217246
-0.136532
-0.0474001
-0.163878
0.0892963
0.125523
0.0882736
-0.239599
0.311678
-0.0720791
-0.0242982
0.338401
-0.138158
-0.278229
0.00204604
0.413261
-0.261327
-0.151934
0.319339
-0.360877
0.0415381
0.0668739
0.252465
-0.0353618
-0.16488
0.200242
0.0398964
0.0111202
-0.0510166
0.311195
-0.110763
-0.204336
0.262417
-0.0580813
-0.226589
-0.0263409
0.25293
0.15486
-0.230688
0.0758279
0.261555
-0.136227
-0.0313311
0.0289577
0.00237341
0.118095
-0.200233
0.345833
-0.135742
-0.329249
0.101362
0.0680173
-0.169379
-0.124065
-0.161645
0.116369
0.045276
0.261216
0.152046
-0.059053
0.135212
-0.0761593
0.11152
-0.322537
0.211017
0.0132473
-0.137297
0.12405
0.146264
0.294351
-0.229333
0.11025
-0.174245
0.0639956
0.0165973
-0.256197
0.28966
-0.0828782
-0.206782
-0.0908834
0.189998
-0.0991148
0.177122
-0.350409
0.412862
-0.124309
-0.40349
0.235814
0.167676
0.159506
-0.23205
0.0725434
-0.233518
0.339552
0.273025
-0.110306
-0.0510888
0.124319
-0.0732302
-0.17503
0.273175
0.176454
0.175494
-0.351948
-0.227877
0.0666561
-0.320661
0.254005
0.205559
0.201317
-0.150261
-0.18702
0.337282
-0.333006
0.288451
0.044555
0.312018
-0.0656445
-0.312022
-0.0528217
0.00121909
0.0516026
0.201126
-0.322862
0.121736
-0.226144
-0.129601
-0.394196
0.254531
0.139665
0.215421
0.0742382
-0.119078
0.29496
-0.175882
-0.0485203
0.229883
-0.184483
-0.219007
-0.0318378
-0.000745268
0.0325831
0.0413215
0.108112
-0.149433
0.320525
-0.211297
-0.221744
0.0714696
0.0655262
-0.223326
0.1578
-0.0731919
0.107336
0.292924
-0.226268
-0.166938
0.210523
-0.043585
0.0808283
0.0432012
-0.16455
0.121349
-0.000724256
9.01408e-05
0.0685943
-0.380272
-0.174638
0.340348
-0.195416
0.160054
-0.222279
0.154041
0.0682382
-0.0990246
-0.00206847
-0.22793
0.33197
-0.10404
0.225721
0.133082
-0.358803
0.247784
-0.172832
0.204597
0.321095
-0.204541
0.331659
0.0139323
-0.345592
-0.266357
-0.127704
-0.108679
0.322237
-0.213558
0.166309
-0.376943
0.210634
0.336985
-0.179114
-0.15623
-0.00283417
-0.0013871
-0.331793
0.223114
-0.0587886
-0.166305
0.225093
-0.0228483
0.354508
0.179959
0.0530699
0.0656971
-0.326133
0.0647945
0.151895
-0.216689
-0.00160174
-0.000492351
0.00209409
0.19972
0.146113
-0.0274941
-0.249484
0.19522
-0.326402
0.131182
0.392328
-0.21958
-0.172748
-0.0930523
-0.178175
0.271227
-0.0362056
0.270285
-0.178724
-0.0915613
0.321263
-0.196695
0.175283
-0.0739214
-0.189418
0.048627
0.140791
0.136407
0.204346
0.0568909
0.126536
0.329142
-0.135918
-0.193224
0.0691272
0.103339
-0.172467
-0.140744
0.0979756
0.117815
-0.325233
0.207418
0.167833
-0.333437
0.0352761
-0.025524
-0.00975211
-0.27984
0.107847
0.171993
0.386437
-0.197855
0.0581381
0.156271
-0.000199518
0.00114162
-0.310219
0.118461
0.191758
0.015093
-0.331804
0.316711
-0.299819
-0.0474569
0.141695
0.206586
-0.34828
0.177355
-0.31279
0.343011
-0.343011
-0.0641816
0.169435
-0.105253
-0.02429
0.016235
0.00805503
-0.283328
-0.0496778
0.174396
0.083272
-0.257668
0.109645
0.187642
-0.297286
-0.00394297
-0.000416495
-0.222727
-0.119879
0.380576
-0.117057
0.0281085
-0.00377458
-0.146948
0.346668
-0.100911
-0.0235489
-0.0010307
-0.170621
0.108675
-0.0816971
0.125626
-0.210936
-0.00259899
0.00158132
0.00101766
0.19805
-0.321661
0.123612
0.333475
-0.207356
-0.126119
0.209342
-0.341505
0.132163
0.206036
0.127439
0.00192944
0.00397881
-0.00590825
-0.325943
0.353627
-0.0276831
0.270668
-0.178937
-0.0111073
-0.0764516
0.0875589
0.0754629
0.227573
-0.100367
0.276741
-0.132116
0.0383198
-0.116951
0.0786317
-0.0611047
-0.00441847
-0.249199
-0.131785
0.0883351
0.158677
-0.247012
0.208604
-0.00511445
-0.20349
-0.172537
0.116387
0.0561501
-0.223853
0.00367597
-0.00419297
-0.18558
-0.00151817
-0.00491356
0.00643173
-0.100935
0.270007
-0.169072
-0.0313146
0.0317936
-0.000478963
0.0705589
0.0763609
-0.188261
-0.136972
0.227546
-0.162019
-0.155365
0.168612
-0.0828655
-0.122325
-0.372389
0.231611
0.140778
0.14547
0.0804043
-0.225874
-0.346204
0.0536924
0.104732
-0.356183
0.251451
0.180195
0.206242
-0.285717
0.111397
0.174321
-0.183197
0.248672
-0.0483984
0.114604
0.283912
-0.110582
-0.173329
0.19183
-0.0511832
0.0776865
0.0462921
-0.123979
0.198043
-0.133248
0.113782
-0.161431
0.0476486
0.118793
-0.367058
0.193966
-0.113617
0.0201043
0.0935124
-0.316919
0.210012
0.0718144
0.160834
-0.232648
-0.0367051
-0.052227
0.141115
0.124929
-0.181181
0.0562521
0.102396
-0.0311181
-0.0824676
0.0949201
-0.136452
0.0415317
0.133347
-0.124209
-0.00913809
-0.144663
0.218483
0.309253
-0.123114
-0.233262
-0.131328
0.36459
0.139795
-0.0571586
-0.0826367
0.142482
-0.0952576
-0.136969
-0.0206275
-0.0520851
0.244751
0.135826
-0.000171328
-0.00143041
0.108239
0.237713
-0.0567417
-0.138209
0.194951
0.354692
-0.346323
-0.0083689
-0.247057
0.35523
-0.071235
-0.267469
0.338704
-0.0258852
-0.0877315
-0.295018
0.0825928
0.195226
-0.0740595
0.204279
0.199483
-0.373953
0.255719
-0.0813237
0.36383
-0.225438
-0.138392
-0.152981
0.389853
0.0035968
0.205008
-0.24104
-0.120914
0.0965998
0.223925
-0.417304
0.202126
-0.244289
0.0939638
0.150325
-0.0727862
0.237624
-0.164838
-0.178717
0.376894
0.203233
0.139285
0.234095
0.165589
0.155642
-0.228428
-0.38639
0.174363
0.212026
-0.109976
0.396744
-0.113659
0.156861
-0.0620871
-0.254832
-0.123229
-0.182353
-0.122238
0.304591
-0.108447
0.27785
-0.169403
-0.28529
-0.0739142
0.140352
-0.197094
0.0516609
0.0832233
-0.134884
0.210383
0.0887729
0.073352
-0.251879
0.178527
-0.0641002
0.435009
-0.142084
-0.325753
0.14082
0.184933
-0.227161
-0.132787
-0.066884
0.133573
-0.0630145
-0.170782
0.106601
0.150611
-0.21898
0.0683693
-0.0202287
-0.0751153
-0.00395223
0.0076282
-0.326176
0.124408
0.0311352
0.311875
-0.145415
-0.0774762
-0.164213
0.100699
-0.058198
0.0964775
-0.161148
0.0646707
0.00158518
-0.00147407
-0.00011111
0.169751
-0.11286
-0.145719
0.26122
-0.276701
-0.0251629
0.301864
0.0508295
-0.32753
0.322702
-0.135193
-0.187509
0.0226255
-0.0141468
-0.00847864
0.275629
-0.136939
0.167944
0.0807283