/*--------------------------------*- C++ -*----------------------------------*\
| =========                 |                                                 |
| \\      /  F ield         | OpenFOAM: The Open Source CFD Toolbox           |
|  \\    /   O peration     | Version:  v2012                                 |
|   \\  /    A nd           | Website:  www.openfoam.com                      |
|    \\/     M anipulation  |                                                 |
\*---------------------------------------------------------------------------*/
FoamFile
{
    version     2.0;
    format      ascii;
    class       volVectorField;
    location    "50";
    object      ddtCorrDdt0(U);
}
// * * * * * * * * * * * * * * * * * * * * * * * * * * * * * * * * * * * * * //

dimensions      [0 1 -2 0 0 0 0];


internalField   nonuniform List<vector> 
18649
(
(0.00601813 0.00126326 -3.96942e-22)
(-0.000768482 -0.00357642 -1.44076e-20)
(0.00452911 0.00330779 0)
(-0.000343063 -0.00766479 -4.29811e-20)
(0.00770085 0.0375314 -4.96692e-20)
(0.00338551 -0.00495055 -5.85565e-20)
(-0.0853525 -0.02639 -8.00726e-20)
(-0.0104982 -0.0266009 -2.30867e-21)
(0.0100822 -0.00334523 1.48541e-19)
(-0.0010235 -0.00203706 -8.20137e-23)
(-0.0220172 -0.0369231 -9.03329e-19)
(-0.0206426 0.00739348 -2.60391e-20)
(0.0156485 -0.0418825 -9.64182e-20)
(0.00421899 0.00336367 0)
(-0.000237066 -0.000328785 0)
(0.00319233 -0.0140844 3.66938e-20)
(0.000463182 -9.66225e-05 6.37254e-21)
(0.0084259 -0.00488511 1.57682e-20)
(-0.0437921 0.180523 8.16629e-20)
(-0.0339422 -0.0160814 -9.08284e-20)
(-0.0169458 -0.0017781 -6.56219e-21)
(0.00138492 -0.00396706 0)
(-0.0214209 -0.000963417 0)
(0.000700282 -0.00866248 0)
(0.000392554 -0.000752627 0)
(-0.0297462 -0.010116 -1.93874e-20)
(0.000717079 -0.00316867 -4.57486e-21)
(-0.0213469 0.00781858 -7.43139e-20)
(-0.00134814 -0.0137223 0)
(0.000961562 0.000138776 -5.53197e-20)
(0.00220372 -0.00319319 1.47535e-20)
(0.0286951 -0.0853981 -1.97746e-22)
(1.66724e-05 -0.000223163 -4.11305e-23)
(-0.00148688 -0.00429348 3.22457e-20)
(0.000129862 -0.00541753 -6.793e-21)
(-0.0269976 -0.00340341 -1.71296e-20)
(0.00085331 -0.00795389 -5.13185e-20)
(-0.00014452 -0.002407 -8.82051e-21)
(0.0015078 -0.000595616 3.04838e-20)
(0.00243053 -0.0712988 4.45496e-19)
(0.0128215 -0.00853205 -4.90811e-20)
(0.0146607 -0.00966741 1.69148e-20)
(0.011706 -0.0178208 -3.2913e-21)
(-0.0186045 -0.00595112 2.08017e-22)
(-0.000435808 -0.00510347 -7.82355e-21)
(0.000941445 0.000209291 -4.81437e-20)
(-0.00413606 -0.00828809 -4.53434e-20)
(0.000186562 -0.00775645 3.05684e-20)
(-0.0521145 -0.0188128 1.43861e-21)
(0.00130538 -0.00115902 6.37385e-20)
(-0.0818168 -0.105652 5.94077e-20)
(0.00229544 -0.00752613 -7.63946e-21)
(-0.0594171 -0.00849975 9.67345e-21)
(-0.0646387 -0.012359 0)
(2.51383e-05 -0.000222356 2.57493e-20)
(-0.0604544 -0.00934093 2.46449e-20)
(-0.0293041 0.00786514 0)
(0.0115216 -0.0300779 0)
(0.00154849 0.00152812 -1.94774e-20)
(-0.000929605 -0.00195009 -1.15022e-21)
(0.00610563 0.00129023 -1.38761e-20)
(-5.64388e-06 -0.000229916 -2.13982e-20)
(0.0135243 -0.0133029 0)
(0.00124815 -0.0072673 -1.56273e-20)
(-0.000448553 -0.00288891 0)
(0.00126369 -0.00756286 5.45828e-20)
(0.00181403 -0.00258124 0)
(-0.0313718 0.00912969 0)
(0.00310948 -0.00338823 -2.28956e-20)
(0.0303206 -0.0176017 6.47533e-20)
(-0.0249171 -0.00194067 9.25719e-21)
(-0.000136369 -0.000615098 -3.08627e-21)
(0.0209849 -0.0647273 2.02372e-21)
(0.00435057 -0.00488209 5.79053e-23)
(-0.00201911 -0.0034718 -3.07135e-20)
(-0.0157152 -0.00239697 7.6904e-21)
(-0.00589898 -0.034836 -1.08703e-21)
(0.0018527 -0.0220125 2.34884e-20)
(0.00361828 -0.00191196 -1.49639e-20)
(-0.129607 -0.141447 0)
(0.00047555 -0.000109207 0)
(-0.00217986 -0.00827805 0)
(-0.00382479 -0.0060655 9.12724e-20)
(-0.0630959 -0.00974835 -9.54466e-21)
(-0.0327515 -0.00452223 0)
(0.00150473 -0.000520598 -4.2775e-20)
(-0.00206565 -0.00449136 -4.08513e-20)
(0.00206226 -0.00752725 5.82174e-20)
(0.0020135 -0.0180608 2.25163e-20)
(0.00556323 -0.00269551 0)
(0.00670415 0.000475305 -5.29554e-20)
(-0.0015765 -0.0039347 0)
(-0.000209246 -0.00153845 1.69497e-20)
(-0.0854146 -0.0134773 -1.29506e-19)
(0.00103033 -0.00305051 0)
(-0.0195677 0.0123554 7.34954e-20)
(-0.00132835 -0.00252428 0)
(-0.00590784 0.0972648 1.15852e-20)
(0.00363884 -0.00235042 -1.09249e-20)
(0.000636823 -0.00290761 4.59661e-21)
(-0.0211977 -0.0015895 -9.47301e-20)
(-0.00703907 0.00631514 0)
(0.000692624 -0.000463945 3.19968e-23)
(-0.0855279 -0.107473 0)
(0.00367601 -0.00243526 1.24311e-20)
(0.00199931 -0.00645251 -1.1937e-21)
(0.000298966 0.00115728 1.43731e-20)
(0.00188939 -0.00383586 -2.97306e-21)
(-0.0209503 0.0734479 1.66968e-20)
(-0.000641153 -0.00128364 -2.54562e-20)
(-0.0266802 -0.00458616 -4.30377e-20)
(-0.00243172 -0.0138418 1.68345e-19)
(-0.000301032 -0.00237689 1.56867e-20)
(-0.0025351 -0.00354815 7.18338e-21)
(0.00345768 -0.0073135 1.64968e-19)
(0.00504543 0.00327431 -2.33948e-20)
(3.36676e-05 -0.000225577 4.42594e-22)
(-0.0475172 0.00414635 0)
(-0.0194905 -0.00563405 0)
(0.0018267 -0.000841315 0)
(0.00221962 0.00176867 2.02163e-20)
(0.000128354 -0.00270394 0)
(-0.0172865 -0.101853 -1.45263e-21)
(-0.000149889 -0.000526071 -3.23617e-22)
(-0.0105836 -0.00944896 2.26341e-20)
(0.000432008 -0.00077465 0)
(-2.84586e-05 2.49679e-05 4.57244e-20)
(-0.0376768 -0.0085153 1.92016e-20)
(0.00010859 0.000550483 2.06417e-20)
(-0.0487872 0.00353372 3.39144e-20)
(-3.77599e-05 -0.00148031 -1.99056e-21)
(-0.00375563 -0.00602046 -5.80648e-20)
(0.000277048 -0.00128596 -3.80429e-20)
(-0.00011102 0.00256232 1.57103e-20)
(0.000626778 -0.0128271 -2.01712e-20)
(-5.20526e-06 0.000273272 4.37179e-20)
(-0.0217413 -0.00560383 -2.04453e-22)
(-0.0303243 0.00773356 0)
(0.0110023 -0.00303444 5.60088e-20)
(-0.0111438 0.0020164 0)
(0.0326662 0.0403799 1.6987e-20)
(0.000509374 -0.00298956 0)
(0.0011668 -0.000856314 0)
(5.49251e-05 -0.000454015 -2.04684e-20)
(-0.000107097 9.51042e-05 5.87342e-20)
(-0.0150174 0.0144967 0)
(0.00120734 -0.000828863 0)
(-8.09694e-05 -0.000272868 5.06764e-20)
(-0.0178473 -0.000262039 0)
(0.00329128 -0.00307114 2.62409e-20)
(-0.00767162 0.0100308 -3.93697e-20)
(6.64306e-05 0.00138958 0)
(-0.0135842 -0.00379266 0)
(0.00301542 -0.000550335 -3.41652e-20)
(4.6038e-05 -0.00255871 0)
(5.95383e-05 -0.00041212 0)
(-0.0180534 -0.00362058 0)
(-0.114305 -0.0528435 -3.35489e-20)
(5.70874e-05 -0.000128246 1.50113e-20)
(-0.00130189 -0.00202213 -1.03974e-20)
(-0.000257963 -0.000115547 -3.33579e-20)
(-0.00714889 -0.0210626 1.02259e-19)
(0.00255639 0.00203566 -1.67469e-20)
(0.00289003 -0.000514696 -3.32219e-20)
(-0.0111707 -0.00967093 0)
(0.00862213 -0.00495596 -1.77856e-19)
(0.000299211 0.000831616 0)
(-5.11676e-05 -0.0007466 1.11549e-20)
(0.000268854 -0.00356541 -1.86489e-20)
(0.00508228 0.00254342 -3.9218e-20)
(-0.000147723 -0.00136903 0)
(0.0031196 0.0361995 -1.14822e-19)
(0.00556877 0.00879821 0)
(0.00945523 0.0238526 0)
(0.000548058 -0.00330484 -3.37437e-20)
(-0.0889669 -0.0602217 -1.20306e-19)
(-0.0141036 -0.000537878 1.9196e-22)
(0.00204474 -0.00963425 2.53194e-20)
(5.32518e-05 -0.000139341 1.3217e-20)
(0.0209581 -0.012356 0)
(-0.000647195 0.00217356 0)
(0.00102476 6.97909e-05 0)
(-8.20649e-06 4.92049e-06 -2.41541e-20)
(-0.00824199 0.0402288 -2.04368e-19)
(0.00285214 -0.00628948 0)
(0.0120745 -0.0120606 0)
(-0.0001272 0.000197546 -4.43232e-20)
(0.00052208 -0.00276481 0)
(0.0151997 0.00392112 0)
(0.00923273 -0.00737214 0)
(-0.0431496 0.10696 6.73711e-21)
(0.00045032 -0.00404884 0)
(-0.0156817 0.0084249 6.01081e-21)
(0.00268258 -0.000391611 0)
(0.000607651 -0.000334934 2.64294e-20)
(0.000157225 0.000627276 0)
(-0.00386194 -0.00623161 1.45415e-20)
(-0.00934054 0.0596516 -1.4819e-20)
(-0.00112578 -0.00145852 -1.63846e-20)
(-8.17224e-06 1.95867e-05 0)
(-0.000124391 -0.000350842 0)
(0.00892354 -0.0219764 0)
(-0.0303856 0.00977631 -7.34568e-21)
(-0.000691798 -0.00210252 1.19334e-20)
(-0.00150617 -0.00104709 1.15821e-20)
(0.00969689 -0.00612798 5.61805e-20)
(0.017177 0.00542345 8.68454e-21)
(-0.00598972 -0.00831396 2.90464e-20)
(0.0018315 -0.00340082 0)
(-0.00519426 -0.00449483 -4.74508e-20)
(-0.000252969 -0.0029225 1.06461e-20)
(0.000206766 -0.00417732 -7.85704e-21)
(-0.000184086 -0.00306366 0)
(-0.00980891 0.00591463 -1.06254e-20)
(-0.00537461 -0.00515946 7.93684e-20)
(0.00146856 -0.00129337 -2.64841e-20)
(-0.0217479 -0.0880683 0)
(0.000506319 -0.00163624 2.82076e-20)
(-0.0101283 -0.00942022 -2.44779e-22)
(-0.000569849 -0.00234614 -4.68423e-20)
(0.00358179 0.0250662 3.63996e-20)
(0.000216517 -0.00179973 1.69857e-20)
(-0.0643279 -0.0378783 2.21775e-19)
(0.0130657 0.0229948 2.5659e-22)
(-0.0369427 -0.0145033 7.17991e-20)
(-0.071744 -0.00479981 6.10189e-20)
(0.00138283 -0.00187025 3.10304e-20)
(-0.000879046 -0.00124451 1.90339e-20)
(-0.0606194 -0.00908076 0)
(-0.0836787 -0.059519 2.94951e-19)
(0.00814321 0.0064434 3.41222e-20)
(0.000317445 -0.00128796 -1.69339e-20)
(-0.0128075 0.00112941 0)
(0.00605153 0.00158137 -3.51222e-20)
(-0.0400694 -0.0146529 7.00086e-20)
(0.00396107 0.0337926 -6.44961e-19)
(-0.0411348 -0.043597 1.05388e-19)
(-0.0152177 -0.0376596 -2.08876e-20)
(0.000333486 -0.00137909 4.41151e-20)
(-0.0176257 0.0406724 2.70976e-20)
(0.000828361 -0.000243213 0)
(-0.0216138 0.00406514 -3.37458e-20)
(0.00522778 -0.000335343 6.86566e-21)
(0.0010656 -0.000327363 1.96543e-21)
(-0.00207118 -0.00509637 -1.53908e-20)
(-0.0105637 -0.00111381 -3.20223e-20)
(-0.0471513 -0.00373782 5.05372e-20)
(-0.000754801 -0.00207422 0)
(-0.0539702 -0.000255665 1.44451e-20)
(0.0156186 0.0562929 4.21993e-20)
(0.00269455 0.00488207 7.32326e-20)
(-0.0831843 -0.0239037 1.0152e-19)
(0.00951984 -0.00563447 0)
(-0.000634474 -0.00254637 -7.22077e-21)
(0.0030739 -0.00696454 6.05169e-20)
(-0.020132 -0.00434636 0)
(0.000373982 -0.00208959 -2.09593e-20)
(0.000110796 0.0005917 0)
(-0.000498062 -0.00223742 -7.50173e-21)
(-0.00104604 -0.00289183 2.68343e-20)
(0.00137979 -0.00126407 -1.19871e-20)
(0.00889484 -0.0141834 -8.75562e-20)
(-0.00624912 -0.0049329 4.56873e-20)
(-0.000590083 -0.0015215 -3.47968e-20)
(0.000561527 -0.00032426 -2.85476e-20)
(-0.00144115 -0.0080147 1.64626e-20)
(-0.0906583 -0.047986 -6.0254e-20)
(-3.76903e-05 -6.57544e-05 0)
(-0.0202337 0.0308136 -1.24046e-19)
(0.000811651 -0.000443337 0)
(-0.0129741 0.0140513 2.64217e-20)
(0.0155295 -0.0218475 -1.52487e-21)
(-0.0569139 -0.00900926 1.09101e-20)
(-0.0583508 -0.0176854 0)
(-0.00999186 0.244316 0)
(0.00266256 -0.000877079 6.1478e-21)
(0.000560009 -0.000288936 0)
(0.0366854 -0.0379216 -2.96108e-20)
(-0.0706431 -0.00741649 0)
(-0.010551 -0.00983077 -1.21504e-21)
(-9.43663e-05 0.000452446 -6.68802e-21)
(0.000438864 -0.00160883 8.02772e-20)
(-0.0124065 -0.00408762 1.3624e-20)
(-0.00495131 -0.00501738 -4.56224e-20)
(-0.0763201 0.00216841 4.59477e-20)
(-0.0121728 0.00121932 0)
(0.00322708 0.000426349 0)
(0.0288966 0.0273281 0)
(0.000323111 0.00108514 0)
(0.00126934 0.000106437 0)
(0.0228384 -0.0296757 -9.15305e-21)
(0.00317969 0.00533992 3.10024e-20)
(-0.0797911 -0.0257888 -7.49661e-20)
(0.0175719 0.0410221 5.24656e-20)
(0.00696593 -0.0300199 2.35063e-21)
(0.00037967 -0.00392642 3.56984e-20)
(0.00949291 -0.0320036 0)
(0.0309486 -0.00664384 0)
(0.000639424 -0.000445915 0)
(-0.0898609 -0.0486971 0)
(7.02971e-05 -8.0768e-06 3.86624e-20)
(-0.00202803 -0.0048832 -4.37818e-20)
(-0.000793365 -0.00271032 0)
(1.84755e-05 -0.000370275 4.04823e-21)
(0.00178633 -0.000823286 2.7023e-20)
(-0.0280095 -0.0354442 -1.29588e-20)
(0.000109244 -0.000574079 -4.92369e-20)
(0.010596 -0.00689913 3.97679e-20)
(0.00154433 -0.0195457 1.44762e-20)
(-0.00143772 -0.0036938 2.921e-20)
(-0.0279155 -0.00580808 0)
(-0.000421781 -0.00267988 -2.69046e-20)
(0.0809969 -0.0706696 -3.42596e-20)
(-0.000222874 -0.00025439 -2.83681e-20)
(0.00316865 -0.000626501 1.19913e-20)
(0.00033555 -0.00133305 0)
(0.00331484 0.000550498 6.88289e-20)
(-3.06667e-07 2.15352e-05 5.41618e-20)
(-0.00537036 -0.00526478 -4.73842e-20)
(-0.0176237 -0.00534584 -5.67845e-20)
(-0.000171993 -0.00124087 0)
(-0.000274374 -0.000143885 1.71403e-20)
(0.0137936 -0.00964176 3.66595e-20)
(-3.36127e-06 5.96618e-06 -3.63148e-20)
(2.00671e-05 -0.000347363 2.73776e-20)
(0.00145322 -0.0023721 0)
(-8.24435e-05 -0.000485869 0)
(0.000110745 -0.00216377 3.69016e-20)
(-0.0421405 0.0023121 0)
(-0.0040718 -0.00631676 4.59722e-19)
(-0.000841995 -0.00245053 1.13668e-20)
(5.81993e-06 -0.000722313 0)
(-0.000281053 0.000508515 -1.42994e-20)
(0.0128006 0.00475079 7.78438e-21)
(6.83314e-05 -0.000147247 -1.57011e-20)
(0.000280781 0.000591948 0)
(0.0143506 0.0347746 -1.66945e-19)
(-0.00100634 0.000715462 0)
(8.16222e-05 -0.0209374 1.66536e-20)
(-0.00173979 -0.00660915 0)
(-0.00185574 -0.0330414 -5.60643e-20)
(6.40912e-05 -0.0001503 0)
(0.00619513 -0.000522906 0)
(0.000633939 -0.00497994 -2.55643e-20)
(0.0022164 -0.00484481 3.18023e-20)
(-0.000239615 -0.000670844 -1.32278e-20)
(-5.46711e-05 0.000286342 2.5082e-20)
(0.000780281 -0.0002389 -3.42122e-20)
(0.00840937 -0.00931368 -1.04015e-19)
(0.00619521 -0.0058192 0)
(-0.00012749 -0.000259491 -2.39386e-20)
(0.0431994 -0.0572958 -6.95312e-20)
(-0.000177506 -0.000441077 0)
(0.0016806 -0.00251163 0)
(0.00182609 -0.00114908 -3.52905e-20)
(-0.0147274 -0.026386 0)
(0.00364456 -0.00178319 0)
(-0.024532 -0.0136288 0)
(-0.0115521 0.0159445 0)
(-0.00926986 -0.00949505 -9.68593e-21)
(-0.0830548 -0.0263639 0)
(0.00190438 -0.00302913 -2.76865e-20)
(-0.084672 -0.0257082 0)
(-0.000217046 -0.000521112 0)
(-0.0295878 -0.0130142 5.74437e-20)
(0.047121 0.0376619 1.42094e-20)
(-0.00143448 -0.0027432 1.89628e-20)
(0.00139179 0.00241108 3.39283e-20)
(0.0119638 -0.00480058 -6.14513e-20)
(0.00225928 -0.00319551 0)
(0.000380496 -0.00219051 2.09802e-20)
(0.00110392 -0.000839326 0)
(-0.000431036 -0.0020162 -2.72695e-20)
(-0.0237632 0.00227833 -3.21244e-20)
(-0.000939376 -0.0080386 0)
(-0.0356075 -0.00968905 -7.3759e-20)
(-0.00205472 -0.00281041 4.80299e-21)
(0.0083917 -0.0359833 0)
(-0.0409791 -0.0045775 -3.29562e-20)
(0.00457122 -0.00263554 -2.2962e-20)
(3.76338e-05 3.04158e-05 -3.03025e-20)
(0.0167519 -0.00483269 0)
(0.000214841 -0.00124395 0)
(0.00125764 0.130981 0)
(-4.46851e-06 5.20286e-06 -7.31872e-20)
(-1.20794e-05 0.000707231 2.44669e-20)
(0.00785842 0.00208966 0)
(-0.0807739 -0.0287807 0)
(0.00262625 -0.00310713 -1.45987e-20)
(0.00131403 -0.00124699 0)
(-0.000907128 -0.0147726 2.76424e-20)
(-0.000451685 -0.0138092 -1.16965e-20)
(-0.000401609 -0.000866473 -3.41362e-20)
(-0.0695313 -0.0622747 -1.2876e-19)
(0.00405182 0.0034429 3.52692e-20)
(-0.00155194 0.00525244 -4.25143e-20)
(-0.0264131 -0.00511436 1.16714e-19)
(0.00362857 -0.00592486 -1.94463e-20)
(-8.18611e-05 -2.85559e-05 1.30398e-20)
(0.00627384 0.0322561 0)
(-0.0233088 0.00109037 0)
(0.0127894 -0.00494891 -2.3414e-20)
(-0.00017376 -0.00092553 0)
(-0.000200626 -0.000148056 0)
(-0.0241016 0.00504998 0)
(0.0073909 0.0341132 2.06274e-19)
(0.000599356 -0.0018495 0)
(-0.00894849 -0.0391356 2.82937e-20)
(0.000893994 -0.000616992 0)
(0.000717277 -0.00263408 9.03439e-22)
(-0.0796239 -0.0180659 0)
(0.00164117 -0.000398332 1.38573e-21)
(-0.0452525 0.00126192 0)
(0.00324673 -0.00418565 0)
(0.0194208 -0.0124419 0)
(-0.0367186 -0.00648066 5.1994e-20)
(0.0301856 -0.0606539 7.70524e-20)
(-0.0945784 -0.0640984 6.43482e-19)
(0.000189649 -0.00111719 0)
(0.0426228 0.0434411 -4.03138e-21)
(-0.000262912 -0.000507825 0)
(0.0251333 -0.0322961 3.07294e-20)
(-0.00433085 -0.0382741 0)
(-0.0276777 -0.0159226 3.48777e-20)
(-0.0590568 -0.0101373 7.8628e-20)
(0.00111491 -0.000820479 -1.82419e-20)
(-9.95106e-06 0.000491934 -7.69205e-22)
(-0.0368659 -0.00361801 0)
(-0.00842858 -0.00990881 -1.84024e-20)
(0.00637589 -0.000665901 1.53403e-20)
(-0.0747252 0.0381339 -2.12932e-20)
(0.00208371 -0.00354755 1.38142e-20)
(-7.58749e-05 -0.000365974 7.51626e-20)
(0.000524223 -0.000254681 -3.81893e-20)
(-0.0496824 0.00275609 -4.0414e-22)
(0.0437982 -0.0592593 5.85814e-20)
(-0.00470552 0.0513377 2.81039e-21)
(0.00217006 -0.00313541 2.48867e-20)
(-0.000532876 0.000279627 1.30399e-20)
(0.0241931 0.000919828 0)
(-0.0140726 -0.00523144 -4.8859e-20)
(-0.00290581 -0.00283974 4.91832e-20)
(-0.000337018 -0.00819667 3.86098e-20)
(0.00127048 -0.00122549 0)
(0.00094736 -0.000521883 -4.03786e-20)
(-0.00937448 -0.00983969 0)
(-0.0353964 -0.00858991 3.52319e-20)
(1.45876e-05 -0.000184321 1.70146e-21)
(0.00259566 0.00118755 -3.09279e-20)
(-0.0268425 -0.00424154 0)
(0.00151546 -0.000910592 2.98573e-21)
(-0.0204018 -0.00448731 1.06151e-19)
(0.00127763 -0.00120507 -4.65869e-20)
(0.00486418 0.000129962 0)
(0.00359096 -0.0241055 -3.88188e-20)
(-0.0283253 -0.0145682 3.04117e-20)
(-7.44768e-05 -0.00397128 1.66603e-20)
(-0.0662567 -0.0132298 -3.80567e-20)
(-0.00259275 -0.00278059 2.95385e-21)
(-0.00176654 -0.0093321 4.38909e-20)
(0.00960735 -0.00933188 -1.81153e-19)
(0.000893149 -0.00357016 -3.2666e-20)
(0.00908402 -0.00421546 2.10467e-20)
(0.00450014 -0.00266164 0)
(-0.00052438 -0.00146822 0)
(0.00107968 -0.00659337 3.27344e-21)
(0.0208667 -0.0409245 9.88205e-20)
(0.00125792 8.87133e-06 0)
(0.00359701 -0.00276211 0)
(-0.0141761 -0.0050125 1.3597e-20)
(0.000894061 -0.00101468 7.64608e-20)
(-4.78468e-05 8.96841e-05 0)
(0.0215742 -0.0314717 0)
(0.000285457 -0.000781966 5.36214e-20)
(-0.0185223 -0.00538312 -2.92394e-20)
(0.00350566 0.000740013 0)
(0.00381936 0.000144948 0)
(0.00248581 0.00145231 0)
(0.00475817 -0.00583601 -2.4823e-20)
(0.00401061 0.00359539 3.16177e-20)
(2.74448e-05 0.000687903 -8.14543e-22)
(0.0352886 0.0376086 0)
(0.000747932 -0.00260199 -2.12972e-21)
(-0.00320208 0.01354 0)
(-0.000281611 -4.34162e-05 1.65887e-20)
(0.000659748 -0.00135995 7.31464e-20)
(-0.0186402 -0.0061112 -6.55109e-20)
(6.16233e-05 -0.00047756 -2.52345e-21)
(-0.0726722 -0.0241002 1.66801e-20)
(0.00162043 -0.00445612 0)
(-0.087854 -0.0311628 0)
(0.00782891 0.0271549 1.28764e-19)
(0.005732 0.025024 0)
(-0.0183588 -0.00332676 0)
(0.00594766 -0.00726155 2.78914e-20)
(-0.00415339 -0.0323419 3.25218e-21)
(0.022044 -0.00293224 8.97794e-21)
(-0.0202963 -0.0043304 -5.09968e-20)
(-0.000518234 -0.00116135 0)
(-0.0379418 0.0144022 1.19819e-19)
(-0.00200866 -0.00580209 -2.77387e-20)
(-0.0094145 0.0193502 -2.44372e-20)
(0.00526413 -0.0192519 -8.10776e-19)
(-0.0168416 -0.0205656 0)
(-5.02518e-06 6.09963e-06 2.96509e-20)
(-0.0820692 -0.0425275 1.56754e-20)
(0.00720581 -0.0241937 5.51344e-20)
(-0.0790907 -0.0179707 1.14919e-20)
(0.00171024 -0.00209192 0)
(-0.025766 -0.00520371 -7.60502e-19)
(-0.000960794 -0.0032997 5.65899e-22)
(0.0141049 -0.0266535 -1.79501e-20)
(-0.000187189 0.000554406 -1.70388e-21)
(0.0032796 -0.0542096 -2.33481e-20)
(-0.0158029 -0.00673719 4.65449e-20)
(-0.000445468 -0.00114272 2.30256e-20)
(0.0024502 0.00121858 0)
(0.0104802 0.0262653 0)
(0.00169149 -0.00107798 0)
(-0.0265288 0.115849 -1.13372e-20)
(0.00147489 -0.00111379 0)
(0.004235 -0.00530172 5.43146e-20)
(0.000879594 -0.00301918 2.00282e-20)
(0.002371 -0.00690744 1.93149e-20)
(0.000290948 -0.000720765 -1.75825e-20)
(0.138008 0.443661 2.78275e-20)
(5.39657e-05 0.00016772 -1.25859e-20)
(-0.0950797 -0.0454596 -2.46559e-20)
(0.00172654 -0.00188128 0)
(-0.018254 -0.00312624 -6.41943e-20)
(0.0122976 -0.0122369 0)
(-0.0851656 -0.0158242 7.44439e-20)
(-0.0142893 -0.00625084 -5.43919e-20)
(0.00326329 -0.00183048 0)
(-0.00599269 -0.0352549 7.14766e-21)
(0.0110409 -0.0146266 4.05104e-20)
(-0.0540489 -0.00214945 9.52784e-20)
(-0.00136224 -0.00242776 -6.04398e-21)
(0.00193562 -0.000659385 2.97852e-21)
(-0.0127983 0.000652182 -1.20791e-20)
(0.0175849 0.0119204 -2.0718e-19)
(0.00397064 0.000469667 3.60698e-20)
(0.00689889 -0.0678039 1.45636e-20)
(0.000482484 -0.00363002 0)
(0.000229427 0.00204236 -1.39504e-20)
(0.00421599 -0.0025466 -1.36421e-20)
(3.04455e-05 -1.95061e-05 -2.49038e-20)
(1.75051e-07 0.000210193 -3.09474e-20)
(-0.000276399 -0.00341059 -2.18456e-20)
(-0.0202789 0.0132621 2.31629e-20)
(0.000798613 -0.00074795 0)
(0.000805097 -0.00152636 0)
(0.00372595 -0.00448122 -1.40533e-20)
(0.00410047 -0.00263805 5.88531e-22)
(-0.0651646 0.0065652 -3.11193e-20)
(-0.0722911 -0.00741636 6.75491e-20)
(-0.000500114 -0.00103632 1.50184e-21)
(0.0182686 0.0094699 1.37051e-20)
(-0.0126861 -0.0067578 0)
(-0.0182738 0.00727522 0)
(8.57512e-05 4.54799e-05 -3.27013e-20)
(-0.0157216 -0.00934853 0)
(-0.0616471 -0.0665339 -5.51005e-19)
(-0.026934 -0.00556797 0)
(-0.00207505 -0.00980361 -1.82748e-20)
(0.00799965 0.00184672 0)
(0.00128948 -0.00753324 8.81494e-21)
(-0.00825881 -0.00656338 -1.04612e-19)
(0.00989509 0.00100255 0)
(0.00298146 0.000930151 -6.39037e-22)
(0.00201474 -0.0306639 2.0499e-20)
(-0.000168339 -0.00118632 0)
(0.00288248 -0.000879061 4.77788e-21)
(0.00132091 -0.000357725 2.07467e-20)
(-0.0752326 -0.00206955 0)
(-0.0254891 -0.0134298 -9.41839e-20)
(-0.0118344 0.0171644 -4.90901e-20)
(-0.00758406 -0.00574273 -1.90721e-20)
(-0.000226481 -0.000669191 2.29758e-20)
(-0.0232673 0.00467847 0)
(0.00113896 -0.0074266 -2.87228e-20)
(-0.239665 -0.12685 -4.22619e-20)
(0.000671931 -0.00336508 -3.33177e-20)
(0.014856 0.0213474 1.49363e-21)
(-0.0323459 0.0173114 -1.205e-20)
(5.56877e-05 -2.96937e-05 -2.67833e-20)
(0.00787373 0.0244942 0)
(0.00269368 -0.00910817 -5.05797e-22)
(-0.00209067 -0.00340512 0)
(-0.000782689 -0.00178705 0)
(-0.0938315 -0.0777984 1.32233e-19)
(0.00351254 -0.00161483 5.3981e-21)
(0.0034238 -0.000666304 0)
(0.0353132 -0.0717915 0)
(0.000143033 -0.000763029 8.09082e-21)
(-0.00161383 -0.00805478 -4.1348e-20)
(-0.00823652 0.0111766 2.94442e-19)
(0.137966 0.11471 3.66656e-20)
(-0.00022123 0.000987234 -7.92223e-21)
(-0.0544051 -0.00262754 -8.82349e-20)
(0.00930246 -0.00368845 1.37642e-20)
(-0.0965076 -0.110163 -1.02132e-19)
(-4.68572e-05 -0.00349275 -2.77676e-20)
(-0.0836849 0.00287143 -2.62677e-20)
(0.0020643 -0.000416014 3.52123e-20)
(0.0105768 0.00130925 -1.9688e-20)
(0.000231467 -2.3253e-05 -2.29823e-20)
(-0.0266123 -0.0117447 -3.70496e-20)
(-0.000201937 -0.0158261 -2.26608e-19)
(0.00846082 -0.00195709 0)
(0.0368583 0.0101724 1.31296e-20)
(-0.0132682 -0.00734618 0)
(0.00609407 0.000603288 -1.54522e-23)
(-0.0148121 0.0172366 8.92319e-20)
(0.00271673 -0.0014604 0)
(-0.0040106 0.0129453 0)
(-0.0719514 -0.0109165 -8.74773e-20)
(0.00417434 -0.0052704 3.00678e-20)
(1.13584e-05 -0.000220649 0)
(0.00166826 0.00411103 1.67915e-20)
(0.0041922 -0.000495806 -4.05018e-20)
(0.00972512 -0.00252094 6.32533e-20)
(0.000798437 -0.00196689 4.80663e-22)
(-0.000658652 -0.000401088 -1.73271e-20)
(-0.108352 -0.0190488 3.12e-20)
(-0.0402815 -0.0888637 0)
(-0.00580169 -0.00798018 -4.22373e-20)
(-2.27116e-06 2.07044e-05 0)
(-0.018448 -0.00558503 3.06698e-20)
(0.00129227 -0.00112174 0)
(0.0950218 0.235552 -1.71684e-20)
(0.00957251 -0.00257044 1.31716e-20)
(0.00133271 -0.000409675 -2.15307e-20)
(0.00152669 -0.00209836 -3.52317e-20)
(-0.00100666 -0.00307141 9.13447e-21)
(0.0124703 -0.0245515 0)
(-0.00104861 -0.00214221 2.36896e-20)
(-0.0124996 -0.00908977 2.29967e-21)
(0.0103742 -0.00561337 1.83223e-20)
(0.00559612 -0.0261479 -3.83338e-20)
(0.000834761 -0.00245069 0)
(0.000480065 -0.00149128 -4.79356e-20)
(-0.000248077 -0.00266128 0)
(-0.0648921 -0.00965512 3.84009e-20)
(-5.48995e-06 -0.00059744 -2.19096e-20)
(-0.00141422 -0.0132399 -3.00764e-20)
(0.000730677 -0.000456087 -3.60892e-20)
(-0.0730525 -0.109654 2.80482e-20)
(8.70567e-06 6.48381e-05 0)
(-0.00155297 -0.00219884 -2.63119e-20)
(0.00397532 0.00219677 -9.05127e-21)
(0.000770073 -0.000827456 -3.98376e-20)
(-0.0269428 -0.00432365 7.51966e-20)
(0.0086038 -0.0312969 -3.36086e-20)
(-0.0652732 -0.0508829 0)
(0.000804485 -0.00436767 -3.94246e-20)
(-0.0707314 -0.00493591 -5.48202e-22)
(0.00976419 -0.00617155 0)
(0.00145991 -0.000637555 1.09854e-20)
(0.00842027 0.00323398 4.23375e-20)
(0.00352842 -0.00180853 0)
(0.00200868 -0.00707841 3.51993e-20)
(0.00158585 -0.00262398 1.90172e-20)
(-0.0642227 -0.010114 3.60709e-20)
(-0.0845333 -0.0395696 0)
(-0.000125824 -0.000361708 -4.91242e-20)
(-0.0112581 -0.00412586 0)
(-0.0199856 0.00111601 0)
(0.00260683 -0.00175838 1.93503e-20)
(0.0035641 3.56441e-05 0)
(0.00864605 0.000822812 2.63118e-19)
(-6.66707e-05 -0.00239708 2.65844e-20)
(-0.000588033 -0.000411013 0)
(0.318335 0.269813 0)
(-0.0248254 -0.00169539 -1.10808e-20)
(0.00287754 -0.0250964 0)
(-0.0636914 -0.0104299 -7.39597e-20)
(-0.000440114 -0.000650873 6.43438e-20)
(-0.0675555 0.0014013 0)
(-6.81037e-05 -0.000767094 0)
(-4.55526e-05 -0.000556052 1.25971e-20)
(0.00138292 -0.000658717 -2.09836e-20)
(0.00106861 -0.00726351 0)
(0.000693245 -5.89983e-05 -4.96313e-20)
(6.73444e-05 -0.00200584 3.51053e-20)
(-0.0336408 0.0168075 5.25998e-23)
(-0.0147713 -0.00550008 -7.92858e-20)
(0.00328371 -0.00366736 5.87687e-20)
(0.00745777 -0.0350735 6.83032e-20)
(-0.000297042 -0.00358601 -2.00288e-20)
(3.55386e-05 -0.000222039 0)
(-0.0895538 -0.0447734 0)
(0.00651098 -0.00794957 1.19378e-22)
(0.0208058 -0.0792186 0)
(0.000211783 -0.00440517 0)
(-0.124039 -0.102463 5.63447e-22)
(0.000600227 0.000517095 -2.62092e-20)
(0.00600587 0.000457041 -1.66436e-20)
(3.1282e-05 0.00067218 -3.37109e-20)
(-0.0439425 0.0397375 3.2362e-20)
(0.000730303 -0.00259427 0)
(-0.000889771 -0.00768548 9.48297e-21)
(-0.0574528 -0.00659035 0)
(0.0124959 -0.0171473 -1.26423e-19)
(0.00313928 0.0010364 4.91704e-22)
(-0.00859284 -0.00959261 0)
(-0.000736073 -0.0025138 -2.92945e-20)
(-0.0217498 -0.00568717 -8.16357e-20)
(-0.0213073 -0.0287819 0)
(0.0125604 -0.0192401 1.97149e-20)
(-0.000594878 -0.00104638 -3.75516e-20)
(0.00157484 -0.00236603 3.48788e-20)
(-0.00497289 -0.00861689 -1.4739e-20)
(-0.0881605 -0.0462516 0)
(0.00830499 0.000202812 -1.99114e-20)
(-0.0214855 0.0215427 -5.39822e-19)
(-0.00234167 -0.0593606 -3.47231e-20)
(-5.90474e-05 0.00134662 -2.68905e-20)
(-0.0011507 0.00849739 -4.54357e-21)
(-0.0713277 -0.0109622 9.87341e-20)
(0.00126502 -0.00142371 5.34481e-20)
(-0.000140426 -0.000855455 7.66265e-23)
(0.00140942 -0.00302492 0)
(-0.0353637 0.00698191 -2.87547e-20)
(-0.10089 -0.0638373 -1.22858e-19)
(-0.0245838 -0.0156627 -5.18436e-20)
(0.000824747 -0.0212047 4.88279e-20)
(0.000149551 -2.23294e-05 -2.42935e-20)
(-0.000771241 -0.00321813 -3.25167e-20)
(-0.0195297 -0.00544492 6.40929e-20)
(-0.0123556 -0.00815272 0)
(0.000393172 -0.000154794 2.73751e-20)
(0.00836192 -0.00365477 -4.62806e-20)
(0.000528556 -0.000282785 3.21168e-20)
(-0.129325 0.0725626 1.04921e-20)
(-0.00024058 -0.000749574 0)
(0.0103521 -0.0129397 -4.13173e-20)
(0.00657362 -0.0372443 3.86606e-20)
(-0.000105189 -0.000413954 -4.43255e-20)
(0.00296562 0.00323304 0)
(-0.0159096 -0.00684323 1.78107e-20)
(-0.00020481 -0.000612843 0)
(0.000861337 -0.00789273 2.14157e-20)
(-0.0008479 -0.00120963 1.79045e-20)
(0.000247606 -4.48302e-05 3.60046e-23)
(-0.000186707 -0.00162848 5.13781e-22)
(-0.198596 0.0960715 -4.5339e-19)
(0.0789272 0.240407 -1.48303e-19)
(-0.00768009 -0.011979 -1.46587e-20)
(-0.081166 -0.0247943 -8.54058e-20)
(-0.0151288 -0.00622987 4.19687e-20)
(-0.0595365 0.00465346 0)
(2.69572e-05 -0.000114539 6.12982e-20)
(0.0126111 -0.0140433 0)
(-0.00273704 0.000316552 -3.87406e-20)
(0.00306534 -0.00682963 -6.47295e-20)
(-0.00429556 -0.0198153 -3.13174e-20)
(-0.00038253 -2.37007e-05 0)
(-0.000497508 -0.00103979 4.44136e-21)
(0.0018351 -0.000624923 0)
(0.0781165 0.118949 -1.70772e-19)
(-0.0683696 -0.00368884 -1.39023e-19)
(-0.083491 -0.0238424 3.49239e-21)
(-0.00036306 -0.000637899 5.51773e-20)
(0.00239747 -0.0200448 4.55534e-20)
(0.00155319 -0.000459623 -1.63188e-22)
(0.00136319 -0.000722712 6.75925e-24)
(0.000290617 0.000446085 -5.55551e-20)
(-0.00170298 -0.00745196 2.55947e-20)
(0.00144023 -0.0238747 4.1394e-20)
(-0.0763882 -0.112483 -2.917e-21)
(-0.00253085 -0.00293424 -1.02054e-20)
(-1.04904e-05 -0.000473447 0)
(-0.0715009 0.157911 -9.52869e-21)
(0.037278 0.290006 4.61632e-19)
(-0.0112085 0.0526953 -6.03437e-22)
(-9.71479e-05 -0.00031198 -2.50058e-20)
(-0.0634761 -0.00269279 -1.57854e-19)
(-0.00614615 -0.00750996 0)
(-0.000149059 -0.00102959 -4.76461e-20)
(0.00265175 -0.00411947 -2.6474e-20)
(-0.00671869 -0.0248721 -1.99299e-20)
(0.0130472 -0.00505729 0)
(-0.00594727 -0.0136123 0)
(-6.93414e-05 0.00115202 0)
(-0.00161334 -0.00467507 1.4665e-20)
(-0.0139124 -0.0659163 0)
(0.00355643 -0.000430986 -2.25162e-20)
(0.0214653 -0.0425344 -1.14287e-20)
(0.00186343 -0.00204877 -4.76825e-21)
(-0.0898499 -0.106455 -5.33825e-20)
(-0.018709 0.0175947 9.90803e-20)
(-0.0208878 -0.00449097 -4.11163e-20)
(0.0037609 0.000505703 5.15617e-21)
(-0.0144903 -0.0038481 0)
(-0.000747396 -0.0475186 -8.15961e-22)
(-0.0237383 0.00371496 0)
(0.00455129 0.0248304 0)
(-0.0325024 -0.00246567 -1.6601e-20)
(0.00188214 -0.000939537 0)
(-0.0149809 -0.00529761 8.63848e-20)
(-0.0642018 -0.0112 0)
(0.00163021 0.00453303 0)
(-1.3021e-05 -0.00209789 0)
(0.00249413 0.00139075 0)
(-0.00702823 -0.00380334 1.28971e-20)
(0.0207653 0.000171015 0)
(0.000871766 -0.00295794 2.05352e-20)
(0.0192588 -0.0247665 5.33959e-20)
(-0.00100637 -0.00568719 0)
(-0.0250755 0.146846 -2.06897e-20)
(0.00664133 -0.00359646 0)
(-0.0237354 0.00339533 0)
(-0.064627 0.00265491 1.33556e-19)
(0.00141073 -0.00116976 -5.47921e-21)
(0.00401473 -0.0162254 0)
(0.00504322 0.00089188 8.57531e-21)
(0.00133908 0.00258076 -8.61759e-20)
(-0.0260671 -0.0493219 0)
(-0.066311 -0.00369619 5.96314e-20)
(-0.000196011 -0.000470764 2.78009e-20)
(-0.000964351 -0.00191396 0)
(-0.0210037 -0.0046176 -3.57456e-20)
(-0.0183493 0.00455806 -5.3697e-20)
(-0.024687 -0.0145463 0)
(-7.24473e-05 -0.000762038 0)
(-0.0408385 -0.00475998 -4.07598e-20)
(-0.0991162 -0.106795 -2.60397e-20)
(-0.000425497 -0.000302472 3.20733e-20)
(-0.0497455 -0.0122429 -6.65256e-20)
(-0.0192266 -0.0419145 -1.09331e-18)
(0.000375637 -0.00018147 2.15972e-22)
(-0.0960291 -0.0458396 0)
(0.0126066 0.033972 -4.45411e-20)
(0.000465087 -0.00164332 -2.54659e-20)
(0.00617087 -0.000831306 0)
(-0.028157 -0.00289118 -6.0244e-22)
(-0.000316107 -0.000260446 1.88688e-20)
(-0.0341815 -0.0171644 -6.19059e-20)
(0.000443676 -0.00172464 3.46648e-20)
(-0.000349286 -0.000988499 3.22344e-20)
(-0.000461466 -0.000983486 -4.49137e-21)
(0.00636401 -0.00536681 -5.15891e-20)
(1.6294e-05 -0.000477952 0)
(0.00083393 0.000577244 3.80737e-20)
(-0.0560286 0.00534734 1.21102e-19)
(3.96422e-05 -0.000118332 4.21608e-20)
(0.00332737 -0.00291132 -5.62383e-20)
(0.00289679 -0.00124617 3.82824e-20)
(-0.0890643 -0.0476804 6.59747e-20)