/*--------------------------------*- C++ -*----------------------------------*\
| =========                 |                                                 |
| \\      /  F ield         | OpenFOAM: The Open Source CFD Toolbox           |
|  \\    /   O peration     | Version:  v2012                                 |
|   \\  /    A nd           | Website:  www.openfoam.com                      |
|    \\/     M anipulation  |                                                 |
\*---------------------------------------------------------------------------*/
FoamFile
{
    version     2.0;
    format      ascii;
    class       surfaceScalarField;
    location    "50";
    object      ddtCorrDdt0(phi);
}
// * * * * * * * * * * * * * * * * * * * * * * * * * * * * * * * * * * * * * //

dimensions      [0 3 -2 0 0 0 0];
oriented        oriented;


internalField   nonuniform List<scalar> 
27740
(
-0.000296647
0.000167985
0.000128622
0.000712377
0.000333145
-0.00104546
-0.00149185
-2.86503e-05
0.0015205
0.000382937
-0.000121518
-0.000261409
-0.00265303
0.00117677
0.00147634
-0.00050832
-0.00077445
0.00128275
0.00368065
0.00241549
-0.0060961
0.00166074
0.000301197
-0.00196199
-0.000692581
-0.0010412
0.00173378
0.000678767
-0.000136813
-0.00054196
0.0024158
-0.00316933
0.000753555
-0.000542502
0.000984415
-0.000441912
0.00337547
-0.00114872
-0.0022268
-0.0013846
-0.000107271
8.17147e-05
2.29725e-05
-0.000104678
0.00197121
0.000304925
-0.00227613
0.000193032
-0.000219921
2.68909e-05
0.00131795
0.000653253
-0.00956835
0.000235819
0.0093326
-0.000459045
0.00261918
-0.00216014
-0.00106524
0.000758425
0.000306828
0.000754133
3.17449e-05
-0.000785905
0.00111659
-0.000658405
-0.000458183
0.000892072
-0.00280563
0.00191354
-0.000241583
-8.95125e-05
0.000331095
-0.00152664
0.00106759
0.000730089
-0.0010102
0.000280136
0.000517656
-0.00106015
-0.000883493
9.83997e-05
0.000785045
0.00051281
-0.000379797
-0.000133003
0.000467265
0.00057013
-0.00103741
-0.0058878
0.000812241
0.00507566
9.13622e-05
-1.41681e-05
-7.71944e-05
-0.000867422
0.000249617
0.000617799
-0.000282133
0.000790322
-0.000508082
-0.00123919
-3.73362e-06
0.00124293
-0.000429549
-0.000219154
0.000648756
0.00058925
-0.000781382
0.000192162
0.000482726
-0.000662907
0.0001802
0.00357579
-0.00191503
0.00126912
-0.0019617
0.00343958
-0.00254751
0.00388887
-0.00172323
-0.00216564
-0.000933504
0.000839638
9.38538e-05
3.42788e-05
0.00067812
0.00024234
0.000270454
-0.00038313
0.000565519
-0.000182345
0.000336264
4.66558e-05
0.00384398
-0.00465644
0.000812491
-0.000684266
0.000554454
0.000129828
0.00519569
0.00297701
-0.00817271
0.00135574
-0.000425424
-0.000930306
-0.00389116
0.00430659
-0.000415473
-0.00381284
-0.000704473
0.0045173
-1.35656e-05
0.000104923
0.000325952
0.00351807
-0.00222359
0.00141939
0.000804177
0.00143744
-0.0012946
-0.000142867
0.000100704
-0.000128912
2.8233e-05
0.000465988
0.000212776
-0.000148775
-0.000147863
0.000123216
-9.96967e-05
-2.35881e-05
0.00207453
0.00181435
0.000392618
-0.000266483
-0.000126218
-0.000163068
0.000752286
0.000241389
0.000151265
-0.000654585
0.00107668
-0.000422107
-0.0013859
0.00206994
-0.000684049
-0.000275413
6.08767e-05
0.000214546
-0.00170092
-0.000994923
0.0026958
-0.00118095
0.000923823
0.000257121
-0.000137374
0.000180413
-4.30919e-05
0.00850052
-0.00547726
-0.00302327
0.000512849
0.000366275
-0.000879148
-0.000348533
0.000776459
-0.000427939
-0.000609396
-0.000455833
0.00100808
-0.00333932
0.00233129
0.0016086
-0.00285966
0.00125102
-0.000679397
0.00119223
0.013599
-0.0124214
-0.00117755
0.000219573
-2.6544e-05
-0.000404495
2.13697e-05
1.594e-05
0.000222981
-0.000238886
-0.00381107
-8.01002e-05
0.00203799
-0.00262121
0.000583198
0.000587743
-0.000105014
0.00121433
-0.000248197
-0.000966098
0.00122569
0.000130065
-0.00127162
0.00105889
0.000212697
-0.000143328
0.00105763
-0.000914322
0.00188528
-0.00113236
-0.000752934
-0.000220145
-0.000446574
0.000666763
0.000287252
0.000136079
-0.000423332
-0.00513822
0.00504764
9.05612e-05
-0.000155739
0.000909894
0.00107136
0.00134447
0.000239352
-0.000724981
0.000485635
-0.00731019
0.00642384
0.000886388
-1.83283e-05
-0.000171477
0.000189803
0.000849106
-0.000119066
0.000666196
0.000450381
-0.0018952
-0.00115493
0.00305017
0.000269779
6.42473e-05
-0.000334016
0.00923291
-0.00403725
0.000142018
-0.000160351
0.000520507
-0.000945948
-0.000103838
-0.000271929
0.000375903
0.000548409
-0.00104681
0.000498387
-0.00468689
0.0027917
-0.000671252
0.000303591
0.000367671
-0.00115087
-8.83187e-05
-0.0017515
-0.000754128
0.00250563
-0.000322066
0.000609298
0.000199729
-0.000709749
0.000510036
-0.000321736
0.00113215
-0.000810413
-0.00124675
0.00160256
-0.000355841
7.86589e-05
-9.22469e-05
-0.00170239
-0.00097915
0.00268151
-0.00102941
9.58928e-05
-0.000160807
-0.000518322
0.000679109
4.6139e-05
5.45878e-05
4.90166e-05
0.000578087
-0.000627111
0.00261273
5.96901e-05
-0.000197109
-0.000274699
0.000621777
-0.000347048
4.73593e-05
-0.000288941
3.05285e-05
-3.05064e-05
0.00213853
-0.00240509
0.000266547
-0.00059029
0.0006393
0.000924894
-0.0026273
-0.000374152
0.000383992
-9.83196e-06
-0.000281336
0.000297283
0.000310313
-0.000422626
0.000112278
4.49112e-05
-0.000173843
-4.76912e-05
-0.00038187
4.86683e-05
-9.62146e-05
4.74817e-05
0.000932413
-4.28902e-05
-0.000889516
-0.00123253
-0.00099106
0.00216034
-0.000275059
0.00169934
-9.07381e-05
0.00100547
-0.00176007
0.000754601
0.00110653
-0.000607847
-0.000498693
0.000628197
-0.000214364
-0.000413849
1.12724e-05
0.000129567
-0.000140867
-3.23814e-05
-6.37199e-05
9.61499e-05
0.000918497
-0.000843836
-7.4678e-05
0.000411048
0.000217145
3.71146e-05
-0.000163245
0.00012615
-0.000555175
-0.000257212
0.00081237
-0.000133392
-0.0011103
0.000705872
0.000404406
-0.000403522
0.000122748
0.00028081
2.62993e-05
-0.000599397
0.000573124
-0.00108094
0.000670456
0.000410467
-0.000197389
-0.000416592
0.000613956
-0.000127978
0.000139247
0.00151574
0.000415138
-0.0019309
0.00725381
0.0063452
-1.38257e-05
5.09205e-05
-3.70981e-05
0.000493105
-0.000433848
-5.92464e-05
-2.26842e-05
4.40983e-05
-2.13913e-05
-0.000646109
0.00132469
-0.000678598
0.000158846
-0.000112715
-0.000634051
-0.000446884
0.000573893
-0.000848572
0.0010926
-0.0014143
0.000104143
-0.000207988
-8.5363e-05
-0.000154065
0.000239413
0.000714099
-0.000911504
-0.00150256
0.000255793
-1.60979e-06
-0.000372551
-0.00198835
0.00209043
-0.000102092
-0.000747631
0.00218507
-0.0041446
0.00149156
3.90007e-05
-0.000728376
0.000689375
0.00642047
0.00247631
-0.00889681
5.58652e-05
-0.000611041
-0.00120968
-0.00037736
0.00158705
4.48335e-05
-5.86541e-05
0.0014442
-0.00314513
0.00016083
0.000674834
-0.000835727
-0.00040434
0.000501638
-9.73066e-05
-4.96555e-06
4.25938e-06
6.94861e-07
-0.00211681
9.77634e-05
0.000952278
-0.00105003
0.00216411
-0.00168218
-0.000481928
-0.000107025
7.46433e-05
0.000547265
0.000559275
0.00217147
3.73757e-05
-0.00220885
0.000196195
0.000255105
-0.000451333
0.0086874
-0.0115358
0.00284841
-9.27536e-07
0.000756671
-0.000755784
0.000204421
-0.000617382
0.000412988
0.00080274
2.18717e-05
-0.000824627
-0.000233591
-5.00882e-05
0.000283679
2.62466e-05
-2.81448e-05
1.85011e-06
0.00118653
2.78217e-05
-0.00636326
0.00636089
2.49567e-06
-0.000572991
0.000224466
-4.77663e-06
-1.98099e-07
0.000124839
-8.77544e-05
-0.00241079
0.000241342
0.00216944
-0.0018971
0.000511206
-0.000437814
0.000553158
-0.000115298
-0.000971903
-0.000299723
-0.00178464
0.00202815
-0.00024344
-0.000370566
0.000177265
0.000193309
0.000176225
0.000389289
0.00104835
-0.000499947
-0.000151587
-9.24217e-05
0.000244042
-8.09314e-05
-0.000420321
0.000501262
0.000356179
0.000676772
-0.001033
-0.000181624
-0.000449448
0.000631078
0.000403305
-0.000198854
0.000155111
0.00021707
-0.000372141
-0.000150152
-0.000521719
0.000671835
0.00241074
0.0031765
-0.00558723
-7.82541e-05
-0.000452797
0.00053105
0.000848784
-0.000227005
0.000427505
0.000589613
-0.00101717
0.000203815
-0.00122097
0.00101714
0.000543657
-9.80644e-05
-0.000445616
-0.00145767
0.00345321
-0.00199559
0.000390584
-0.00237896
-0.00256667
0.00223862
0.000328073
0.00367355
0.000708485
-0.00438205
-0.000629725
0.000479551
2.34884e-05
0.000403999
0.00396238
-0.00365021
-0.000312192
-0.00234311
0.00876357
-0.0014557
0.00292904
-0.00147335
-0.000368748
-6.39584e-05
0.000432718
-0.000612517
0.000106519
0.00050601
-0.00131926
0.000964173
0.000355096
0.00215955
0.000459624
-5.61852e-05
0.000320107
-0.000263944
0.00184361
-0.000327843
0.000679758
-0.00248688
0.00180725
0.000464302
-0.000153993
0.00277294
0.000919632
-0.00369253
-8.54418e-05
-0.000252724
0.000338165
-0.00120624
0.000749806
0.000456421
-0.000914691
-0.000541015
-0.000542526
0.000138184
-0.000471533
-0.000374019
0.00057025
-0.00239572
-0.000461775
0.00285745
0.000509468
-1.63971e-05
0.00205031
-0.00360214
0.00155185
-0.0021497
-0.00421354
2.86269e-05
-0.00016747
0.000138781
0.00527657
-0.00159593
0.00119252
0.000971587
-0.000396879
0.000114739
0.00114236
-0.00104461
0.00107906
-0.000203953
-0.000875113
-8.33229e-05
0.000626997
-2.16359e-05
-5.9303e-05
-0.000303867
-0.000405952
0.000592614
-0.000289053
-0.000572473
0.000750764
-0.000178253
-0.000458573
-0.00129293
-0.000320826
0.000169241
0.000239316
0.000158262
-0.000397698
1.06968e-05
-0.000244283
-1.04707e-05
-0.000394004
0.00480693
-0.00878618
0.00397923
5.87044e-05
-3.24576e-05
-0.00160983
-0.000506898
-7.88993e-05
-0.00031091
0.0003898
0.000259762
0.000658724
-0.00170627
-0.00109824
0.00280447
0.000151304
-0.000834852
0.00288527
-0.0137807
0.00421231
-9.7915e-05
0.000900656
-0.000216578
0.000227271
-0.000170168
0.00354562
0.00412407
-0.000450493
0.00050173
0.000347066
1.9953e-05
-0.000126951
0.000425678
-0.000503935
0.000569286
-0.000542986
-0.00129333
0.000915028
0.000378313
0.0047002
-0.00627052
0.00157033
-0.000342424
-0.000270088
-0.00126263
0.00070755
0.000555074
-0.0018775
0.00288558
9.9767e-05
0.000131191
-0.000230971
-0.000249995
-0.000250782
0.000500776
0.00246653
-0.00226271
0.000303493
-0.000274868
-0.00388889
-0.0021166
0.00600551
-0.00143139
0.000793972
0.00220914
-0.0028003
0.000591147
-0.000501804
0.000756568
-0.000254787
-0.000995199
-0.000115106
0.00172157
-0.00260507
0.000197679
-0.000247767
0.00846584
-0.00365887
-2.29665e-05
-8.69792e-06
3.16609e-05
-0.000347217
-0.000520195
0.000628892
-0.000389593
9.34565e-07
-0.00012894
-0.000733432
0.000572617
0.000852666
-0.00017283
0.000148428
0.00175779
-0.00144698
-0.000310807
-0.00212727
-0.00035959
-0.000323388
4.10954e-05
-0.00156774
0.000725032
-0.000259036
-0.00311362
-0.00110632
0.00421994
-8.60672e-06
9.03323e-05
-0.000592171
9.55543e-05
-0.000453339
0.00101821
-0.000564885
-1.92969e-06
-5.97055e-06
7.89968e-06
-0.000126211
0.00090089
-0.000943291
4.2388e-05
0.00029704
-0.000163133
-0.000133746
7.80669e-05
-0.00010075
0.00213278
-0.000863654
-3.90293e-06
2.43374e-06
1.46423e-06
-0.000114423
0.000115348
0.000910716
-0.000690608
-0.000220104
1.02856e-05
9.71e-06
-0.000769037
0.000594177
0.000174863
-0.00294554
0.00237491
0.000570623
-0.00384903
0.00206444
-0.000110509
-6.19307e-06
0.000116729
0.000123653
-0.000209055
0.000132692
-7.01894e-05
-6.25068e-05
-0.00102938
-0.000485194
0.00151459
-1.49675e-05
5.07225e-05
-3.57592e-05
-0.000237385
-1.00628e-05
0.000247447
-0.00218412
0.00128972
0.000894428
-0.00184571
-0.000798836
0.00264451
-0.00176094
0.00229883
-0.000537945
-0.000850881
0.000413112
0.00211831
-0.00276445
3.5957e-05
-0.000851426
0.0014473
-0.000595919
-0.000771921
0.000744853
-0.00080058
5.57337e-05
7.82377e-05
-0.000129209
5.09968e-05
0.000118816
-6.00989e-05
0.000214759
-0.0003002
-0.00182587
0.00131787
0.00050799
-0.000147915
-0.00117134
-6.37582e-05
-1.1723e-05
7.54521e-05
-0.00358966
-0.00110789
0.00469752
8.29487e-05
-0.00014672
0.000727784
0.000182929
2.08588e-05
-0.000109111
8.82153e-05
0.00267715
-0.00237511
-0.000302033
-0.00104865
0.000595303
-0.00146389
0.00192574
-0.000461863
0.000716575
-0.000772767
0.000885646
-0.000383914
-0.00217277
0.00586395
-0.0036912
-0.000120724
0.000865585
-0.00582281
0.00365005
-0.000133655
0.000216572
-0.00196437
0.00158832
0.000376069
-0.000812076
-0.00230158
0.000499499
0.000225501
0.000458906
0.000211122
-0.000670059
-0.00290987
0.0010641
0.000955464
-0.000488212
-0.00053568
0.000534737
0.000218822
-0.000433198
-2.62488e-05
0.000189318
-0.000163018
0.00135482
-0.00079785
-0.000556989
0.000197246
-0.000966263
-0.000407115
-0.000207267
5.65622e-05
0.000150684
-0.00263498
0.00248684
0.000148136
-0.00234735
0.00268647
-0.000339163
0.0012807
-0.00130385
2.31522e-05
-1.57307e-05
4.62776e-05
-0.00238643
-0.000489136
0.00287556
3.45665e-05
0.000349855
-0.000384417
0.00995843
-0.00127103
2.30433e-06
-2.02283e-06
-2.84527e-07
-7.24793e-05
-0.000331002
-0.000612342
0.000589625
2.26123e-05
0.00256323
-0.00645215
-0.000214356
0.000742647
-0.000528288
-0.000761453
0.000260046
0.000501428
0.00168703
-0.0016024
-8.46126e-05
0.00103013
9.78079e-05
-0.00112794
0.000364163
0.000109675
-0.000473855
0.00270093
-0.00564344
0.00294247
-0.000255099
0.00146224
-0.00120714
0.000111753
0.000347228
-7.28905e-05
0.000865229
-0.000792334
-0.0015801
0.00102546
0.000554633
8.05935e-05
5.05858e-05
0.0019652
-0.00164975
-0.000315433
0.000542444
0.000812364
-0.00180947
0.000260798
0.00154867
0.000290247
-9.26667e-05
-0.000197562
9.70044e-05
3.56826e-05
0.00128063
-0.000662845
-0.000617793
-0.000724543
-0.00145957
-0.000595215
0.000142416
0.00135347
-0.00300969
0.00165619
0.000349518
6.31099e-05
-0.00041263
-0.000537984
0.000782088
-0.000244115
0.00561109
0.000145503
-0.00575662
-0.000622974
0.000466462
0.000156499
-0.00243649
-0.000509047
-0.000597658
-0.000982444
0.00150349
-0.00269519
0.00119168
-3.4258e-05
-0.00231311
-0.0047384
0.0080259
-0.0055496
-0.000316855
0.000383773
-6.68978e-05
0.00217953
0.00150219
-0.0036817
-0.000152574
1.89008e-05
0.0031501
-0.00332028
-0.0050131
0.0020583
0.00295479
-0.00185277
0.00145105
0.00040164
0.00121379
0.00322777
-0.00444156
0.000542008
-0.000323182
-0.000204717
9.08831e-05
0.00158559
0.00118739
-0.000803337
0.000546366
0.000256979
-0.00128754
0.000436092
-0.000568464
-0.00303361
0.000578128
-0.000792485
0.000508953
-0.00015545
-0.000353476
6.18295e-06
-0.000219681
0.000213493
0.00232625
-0.00140135
0.00333562
-0.0044435
0.00155336
0.000626193
-0.000498795
0.00106892
-8.23556e-05
-0.000137772
0.000522252
-0.00113463
0.000654112
-0.000740199
8.60959e-05
0.000168755
0.000924305
-0.00109304
-0.000312417
-0.00044901
0.000374927
-2.54152e-05
0.000393422
0.000492237
0.00253631
-0.00039779
-7.06855e-05
-2.76542e-07
7.09531e-05
-3.50445e-05
-0.000674799
0.000709844
0.00116587
-9.8979e-05
-0.00106689
-0.000547298
-6.85772e-06
0.000554142
-0.000812475
-1.64102e-05
0.000828879
-0.000424231
-0.000176945
0.000176957
-0.00157719
0.00260731
0.00147021
-0.001989
0.000518751
6.97193e-05
0.000110399
-0.000180111
0.00120173
-0.00501457
-6.01235e-05
-0.000147164
0.000347076
-0.00159768
0.0012506
-0.00171605
0.000674848
0.000304735
0.000204184
-0.00101537
0.00154792
-0.000532565
0.00128162
-9.30949e-07
-0.000249668
-7.47023e-05
0.000324379
-0.000500025
-0.000793304
-0.00086942
0.000492065
0.00037738
-0.000528606
0.000278616
0.000128449
-0.00101752
0.000889067
-4.88016e-05
0.000702923
0.000149579
0.000316373
-0.000465961
5.83563e-05
6.0479e-05
0.000168184
0.00298191
0.000287689
-0.000328833
4.11447e-05
0.00100736
-0.000117479
-0.000889893
0.00101396
-0.00136144
0.000347465
-0.000542661
0.00110656
-0.000563913
-5.90678e-05
0.000839825
-0.000780763
-0.000663403
0.00126393
-0.000600548
0.0012111
-0.00146623
-1.08818e-07
-8.23238e-05
8.24769e-05
0.00241152
0.00195709
-0.00436859
-0.000779612
0.000241642
0.000126885
-0.000630735
0.000503903
7.62859e-05
1.78776e-06
-0.000423608
-0.000279271
0.000702853
0.000828482
1.11496e-05
2.14749e-05
-2.1583e-05
-0.00283573
0.00553877
-0.00270306
0.000171541
0.000758743
-0.000930259
0.00427916
-0.00672283
0.00244371
9.78358e-05
0.00118707
-0.00128484
0.000811152
0.0004082
-0.00121927
0.000877727
-0.000502286
-0.000375503
0.000860353
-0.00152376
-0.00188012
0.000256507
0.00162358
0.000542607
-0.000864232
5.17579e-05
-0.000314644
0.000117588
0.000197033
0.00349617
-0.000296471
-0.00319976
-0.00085245
-0.000274581
0.00112704
-0.00106257
-0.00267582
0.000265019
-3.25132e-05
-0.000308686
0.000341207
-2.29683e-06
-1.60937e-06
-0.00088369
0.00389208
-0.00300837
0.00343075
-0.000346548
-0.00308421
0.00482482
0.000786263
0.000304573
-0.000837579
0.000533014
-0.000903164
0.000830269
-0.000469221
0.000374411
9.48113e-05
-0.00219553
0.000549923
0.00164561
0.000139268
-0.000138764
-5.1644e-07
-0.00185337
-0.00315975
-0.000870273
0.000802629
6.75948e-05
-0.000130757
0.000427824
0.000857932
-0.000892981
0.000908997
0.000594668
3.93013e-05
-0.000634001
-0.00240818
-0.00490198
0.000612374
-0.000543277
-6.91384e-05
-0.00123165
0.000723322
-0.000534006
-0.000476189
0.000713314
-0.000400246
-0.000313082
0.0003103
-2.26018e-05
-0.00853102
-0.0133481
0.0218792
4.56642e-05
-2.89544e-05
-1.6704e-05
-0.00656535
0.000480227
0.00608511
0.000789065
-0.000484488
0.000507771
0.000369955
-0.00155246
0.000919778
0.000632663
-0.00208995
-0.00304826
-0.000767764
0.000614679
0.000153074
-0.000768319
0.000896742
-0.000894972
0.00357212
0.00141888
-0.00243425
0.00320781
-0.000312909
-0.00289488
-5.39799e-05
-0.000114182
-0.000562829
0.000677004
-0.000166018
0.000292908
2.60692e-05
0.00147742
-0.00110453
0.000378151
0.000726376
0.000350843
-0.00400617
0.00365531
-0.000753596
4.60821e-05
0.000707498
-0.000435028
-0.00100099
-0.000103535
-1.52171e-05
9.33817e-06
5.88214e-06
1.94193e-05
2.62428e-05
-0.000182704
-0.00057088
-0.00115034
-0.000401463
0.00155175
-0.000404318
0.000325417
0.000352313
-0.00058816
0.000235848
-0.000847714
0.000704382
-0.000592521
-3.71518e-05
0.000629647
0.00341698
0.00519052
-0.000142926
-0.000106163
-0.000208505
0.00104515
-0.000938653
0.00147093
-0.000532297
0.00242662
-0.00245912
6.07652e-06
0.000433059
-0.000923075
0.000490006
-0.00818767
0.00584454
0.00153784
-0.000173953
-0.00136389
0.00171954
-0.00136871
0.00125678
-0.00147294
0.000888345
0.000584535
-0.00152825
-0.00209932
0.00362755
0.000334468
0.0014709
-0.000456942
0.0033306
-0.00112144
0.000376113
-0.000381789
5.67437e-06
0.000988075
0.000482821
-0.00042333
-6.05304e-05
0.000483858
0.00162219
0.00291441
-0.00453658
-0.000494154
-0.00113431
0.000232703
0.000901605
-0.000968754
-0.000326445
0.0012952
8.72539e-05
-0.000309362
0.000222133
0.000509577
0.000771058
-0.000152102
0.000393445
-0.00399922
-0.00753655
-0.000541764
0.00011813
0.00276312
-0.00106287
-0.00170023
0.000335832
-0.00172043
0.00138462
-3.07631e-05
7.79344e-06
-0.000594855
0.00100309
0.00108944
-0.00168195
0.000788203
-0.000669028
-0.000119188
0.000211549
0.000229244
-0.000440807
-0.0162573
0.0121771
0.00408024
6.63209e-05
-0.000188646
0.000122328
-0.000653884
-0.00836464
-0.000166361
0.000275865
-0.000206283
-0.00135233
0.000850543
0.000202206
-0.000353886
0.000151685
-0.000906242
-0.00949362
0.0103999
0.000117531
-0.000264163
0.0001466
0.00371359
-0.000505806
-0.0009096
-0.000222766
-0.005461
0.00975286
-0.00429189
0.000267375
-0.000683964
-0.00137807
-0.00409817
0.00547618
0.000426994
0.000286308
-0.00120036
0.00216542
-0.000965066
-7.86977e-06
-8.73262e-05
9.51965e-05
0.00211916
-0.000530809
0.000217012
-0.00012091
-9.6103e-05
0.000791896
0.000740246
-0.00153214
-0.00296918
-0.000523346
0.00349252
-0.000805149
0.000596096
0.000209036
-0.000185639
-0.00110192
-0.00105733
-7.69863e-05
-0.000902272
0.000826495
7.57708e-05
0.00073057
0.00464762
0.000127228
-0.00477487
0.000520772
-0.00129525
5.00707e-05
-6.42435e-05
-0.00201727
0.00478035
-0.000149077
0.00119887
-0.00104979
-0.000404748
0.00216183
-0.00175707
0.00061723
-0.000264924
-0.000105921
-0.000161828
0.000267772
0.000540972
-0.00230105
0.00807625
-0.00440197
-0.00367426
-0.000356589
0.000478355
-0.000121762
-8.94695e-06
7.0145e-06
0.00013922
0.00086814
-1.81948e-05
0.000572646
0.00172865
-0.00859858
0.00686984
-0.000616953
6.76797e-05
-0.000491014
-0.00023718
0.000650727
-0.000413558
-0.000225469
0.000291073
-0.00136399
0.00107289
-0.000514937
0.000234139
0.000280857
0.00118401
-0.00306412
-0.00141481
-0.00078071
0.00136657
-0.000309897
-0.00105664
-2.31117e-05
0.000488101
-0.000465001
-0.000106137
0.000531818
-0.000119136
-0.00018474
-2.23035e-05
0.00337124
-0.00334894
-2.37128e-05
0.000146901
0.00103991
-0.000776893
-0.000263004
-4.40945e-05
0.000313878
-0.00170731
-0.00473719
0.00644451
-2.12367e-05
2.12366e-05
-8.3217e-09
-0.000552527
0.000960899
-0.000408352
-0.000179746
0.00125355
-0.0010738
-0.000254742
1.49941e-05
0.00285169
0.000579054
-0.0027876
0.00359337
-0.000805827
-0.00117537
-0.00349239
0.00469381
-0.00120147
-0.00183401
0.000924408
-0.000168914
-0.000493994
-0.00162189
0.000374789
0.00124709
-0.000105162
-0.00134517
0.000447393
0.000897753
8.3426e-05
-0.000738015
0.00357051
-0.00359281
-0.00788153
0.00370097
0.0041805
0.000151876
-5.75276e-05
-9.43691e-05
0.000103809
0.000465486
0.000845434
0.00030471
-0.00115017
-0.00078903
-0.000113243
0.000864468
-5.78143e-05
-0.000806655
-0.000349193
0.000991098
-0.000641907
-0.000207131
0.000418699
-1.0839e-06
0.000118584
0.00387973
0.00607869
-0.000617051
-0.000563896
0.000666028
-0.000463815
0.000399808
0.00317069
9.06145e-05
0.000153045
-0.000243699
0.00299866
0.000120686
-0.00311939
0.000107654
-0.000261741
9.51937e-05
7.64754e-05
-0.000171662
-0.000612971
0.000444058
-6.0519e-06
-0.000260448
-0.000344988
0.000315725
2.92623e-05
-0.000463874
0.000502865
-0.0013888
0.0017246
0.000670277
-0.000755273
8.50154e-05
0.00122398
-0.000430954
-0.00079301
-0.000560234
-0.00224008
-0.000109923
-0.000431843
8.96024e-05
-1.0959e-05
-0.00475221
-0.00242822
0.00718043
0.00137611
-0.00100984
0.000930011
0.00714621
0.000804293
-0.000755645
-4.86267e-05
0.00471243
-0.0056828
0.000970305
-0.000166488
0.000385071
-0.000218583
0.000645748
-0.000831405
-3.94085e-05
0.000142815
-0.000103431
-0.00307394
0.000549747
0.0025242
-0.000630969
0.000410396
-0.000381569
-2.88033e-05
0.00375742
-0.00321975
-0.00053767
0.000433858
0.00111459
-0.0015485
-0.000140912
0.000165713
-2.48247e-05
-0.000409914
-0.00043858
0.000553999
-0.000115318
-3.06092e-05
0.000963026
-0.00113867
0.00249967
-0.00136103
-0.000671017
0.000547145
-0.000317931
0.000490599
0.000612172
-0.000435924
0.00391571
0.0045501
-0.000311676
-5.89061e-05
-0.000728443
0.00179978
0.00434587
-0.00465458
5.19973e-05
0.000242221
0.000104882
7.89266e-05
0.00456866
-3.77137e-05
5.85698e-05
0.000296557
-0.000209334
0.000535419
-0.000795279
0.000259874
-0.001432
0.00226164
-0.000829648
-0.00599569
0.0087225
-0.00272682
-0.00134367
-0.000509122
0.00109087
-0.00041803
-0.00067282
-1.31438e-05
5.90834e-05
-4.59364e-05
0.000580913
0.000207236
-0.00089019
-0.000233867
-0.000720461
0.000954368
-0.000191793
0.000170332
2.14568e-05
0.000576772
0.000883457
-0.00146023
-0.000210396
0.00335773
-0.00655259
0.00319487
2.32776e-05
0.000116033
-0.000856299
-0.000696184
-0.000229953
0.00457578
-9.76186e-05
-6.56349e-05
0.00138871
-0.00111834
-0.000270371
-0.000384862
-0.000485426
7.89369e-05
9.8054e-05
-0.000177022
0.00131933
-0.00114778
6.69511e-05
-0.000172881
8.47345e-05
-9.26048e-05
0.000145701
0.000206071
-0.000351774
0.00258515
0.00520305
-0.00778829
0.00234892
0.00899764
-0.0113465
-0.00102095
0.00111934
0.00374735
-0.000717649
-5.01214e-05
-0.000981473
-0.0016773
0.00265875
-5.72474e-05
4.15289e-05
-0.00206355
0.00134145
0.00072208
-0.000488291
-8.19827e-05
0.000570263
0.00121655
-0.000632003
-0.000584541
0.0013856
-3.21217e-05
-9.88407e-05
-3.03711e-05
9.76505e-05
-0.000347337
0.000522208
-0.000636393
-0.00371387
0.00225619
0.00320842
0.000915657
0.00387453
-0.000421335
0.00010075
-0.00019913
9.83608e-05
0.00181701
-0.00472689
9.64411e-05
0.000491304
-0.000292396
-0.00032057
-0.000239735
2.34817e-06
0.00102055
-0.000976141
-4.43702e-05
0.00233552
-0.000968957
-0.00757192
0.00586466
0.000658004
0.000382003
-7.76373e-05
0.000172836
0.0136776
0.00197192
0.00138579
-0.00223936
0.00465007
0.000187673
-6.39598e-05
-0.000123677
-0.000793203
-0.00283709
0.00363028
0.000122403
-0.000478977
6.15633e-05
0.000235066
-0.000240975
-5.46595e-06
0.000246457
0.000856411
0.000830615
-0.002232
0.000594973
0.00163703
0.000642225
0.00117479
-0.000167929
0.000219814
-5.19113e-05
0.000731252
-0.000375068
0.0015659
0.00193029
0.000123313
-0.000180425
5.70745e-05
-0.00591991
0.00306096
0.00285896
0.000508338
0.000568345
0.00377192
0.00110718
-0.00118951
8.23412e-05
0.000801845
4.3806e-05
-0.000845707
-5.15136e-05
0.00091597
-3.05698e-06
-0.000596371
0.00398613
-0.00260298
-0.00138314
0.00129285
-0.00109755
-0.000195281
-0.00189774
0.00393572
-9.97128e-05
0.00163755
-0.000679743
0.000161401
-6.99136e-05
0.00393574
-0.00353594
0.00113295
-0.00084188
0.000593599
0.000798866
0.000899277
0.000154371
-0.0010537
0.00160503
0.000284017
0.000565127
-0.0016266
0.00206045
-0.00018913
0.000993436
0.00735169
-0.00714714
-0.000204655
5.9309e-05
-0.00158756
0.000930722
0.000362117
-0.00138046
0.00300265
0.000623725
-0.000641934
0.000708164
0.000677411
0.00100042
-0.00224823
0.00124782
0.000668693
0.000422152
-0.00140934
-0.00190482
0.00331412
0.00379609
-0.000587675
-0.000125973
0.000185277
-5.9248e-05
-0.00149842
0.000769993
9.55013e-05
0.000851504
-0.000946991
0.00076699
0.000978932
-0.00174591
-0.000537946
1.69128e-05
-0.000280916
0.000263978
0.000290745
-0.00660422
0.012905
-0.00630074
-0.000103522
-8.10034e-05
0.000184605
-0.00363198
0.00358606
4.59145e-05
0.00209071
-0.00378585
0.00169521
-0.000147385
-4.4411e-05
-0.00657192
6.60224e-06
0.00124067
-0.000231196
0.000111845
0.000119352
0.000702138
0.000164316
-0.000866455
-0.00140573
0.00146803
-6.23049e-05
4.74081e-05
-0.0001509
0.00264174
-0.00128898
-0.00135277
0.000110605
0.000253485
0.000112004
-0.000320171
0.000208175
-0.000218236
0.000315953
0.000850787
0.000863648
-0.00171442
0.000110038
-1.90427e-05
0.000368623
-0.000349578
-0.00263303
0.00165155
-1.25607e-05
-2.69056e-05
-0.000319708
-0.000817184
0.000853985
-3.67871e-05
0.00813128
-0.00421563
0.00153247
-0.00259884
0.0010664
3.16101e-05
-0.000157546
-0.000688444
-4.50051e-05
0.00190476
0.000736991
-0.000699352
0.000745461
-0.00601321
0.00588555
0.000127661
2.54082e-05
0.000365184
0.000202045
-0.000528493
-0.00528845
0.00245271
6.79567e-05
0.000952621
-0.00134275
0.00180433
-0.000461594
0.000814186
-0.00224278
-0.000879009
0.000337271
-0.000775812
0.000426576
-0.000155181
-0.000271392
-0.00152602
0.00172809
0.00125287
-0.00153216
-0.00365592
-0.0013978
1.31968e-05
-7.39675e-06
0.000223434
-0.000216029
0.00129236
0.000465425
-8.00604e-06
0.000775039
0.000371456
-0.0011465
-0.000483867
0.000581668
9.7568e-05
-0.000583436
0.00048593
2.82556e-05
9.66155e-05
0.000894172
-0.00119009
0.000295906
0.00151267
-0.00059765
0.00156454
-0.0015391
-0.000258495
9.20882e-05
0.000166419
-0.0001163
-0.000239973
0.000356257
-0.00149284
-0.00129478
0.000101175
-0.000329404
0.000228226
-0.0012579
0.00180565
-0.000547816
-0.00241873
-0.000384408
0.00280311
-1.31896e-05
-0.00158451
0.00313693
-0.00393015
-6.73132e-05
-0.00010067
0.000783411
2.51111e-05
7.18688e-05
-0.00369739
0.00228803
-0.00676568
0.000752525
-0.00275499
-0.00184418
0.00149221
0.00035195
-9.81922e-05
3.10567e-05
6.71151e-05
-0.00259628
-0.00110113
0.000475553
-0.000417486
9.28156e-05
0.000324698
-0.00135973
0.000764906
1.47431e-05
-0.00115457
0.00113977
-0.00679455
0.00752779
-0.000733212
-0.00193711
0.000122826
0.00181426
-0.000620545
0.000625902
-5.35424e-06
0.00101534
-0.000765257
-0.00025012
0.000102159
0.000652045
-0.000754205
0.00122495
-0.000943413
-0.000281538
-0.000200134
-0.00017113
0.000371279
-0.00464295
-0.00648587
0.0111289
-0.0025843
0.000299699
-0.00041601
0.00156954
-7.73193e-05
-0.00114494
0.00122222
0.000390028
-0.002151
-9.37961e-05
-0.000125618
0.00104944
0.00985471
-0.00458996
-0.0052647
-0.00114818
0.000308742
0.000839431
0.000505311
-0.00087156
0.000366248
-0.0041086
-0.000381855
0.00449041
-0.00126186
0.000903481
-0.000885498
-0.00105162
-1.10439e-05
-3.62345e-05
4.72767e-05
0.000132998
-0.000185737
5.2693e-05
0.000770873
-6.87474e-05
-0.000221112
0.000174425
4.66623e-05
-0.000303784
7.25898e-05
-0.000814827
-9.3522e-05
0.000908315
-0.000280302
0.00149142
0.000394977
-0.000744159
-0.000669553
-0.000334714
0.00100426
-0.0075283
0.000762627
-0.0042149
-0.00170682
0.00592171
-0.00104508
-0.00229415
7.05173e-05
0.00462971
0.00126548
4.21106e-05
-0.00130754
-0.00414411
0.00358569
0.000558384
-8.63953e-06
2.67188e-06
-0.000180088
-5.45622e-05
4.14198e-05
0.00444406
-0.00323028
-0.00215435
0.00515291
-1.76072e-06
-2.64157e-05
0.00143938
0.00102715
-0.000194554
0.00644362
-0.00210601
-0.00433766
-0.000105021
-0.00125469
0.00380619
0.00155896
0.000362636
-0.00192157
0.000177485
0.000340884
-0.000518364
-0.000632166
0.000716849
-0.00194173
0.000235487
-1.40761e-05
0.000138985
-0.00012491
0.000488595
-0.000311109
0.000128521
-0.000135887
-3.14483e-06
-4.96069e-05
5.27452e-05
0.000991421
2.39117e-05
0.000305844
-0.000789726
-0.000382569
6.57205e-05
-0.000128027
-0.00021695
-0.000277146
-0.000825272
0.000356043
2.80309e-06
-0.000472238
0.000469411
0.0028713
0.00111484
0.00010994
0.000316633
-1.00776e-05
0.00126294
-0.00024441
-6.00398e-05
0.000304481
0.00117357
-0.00145387
0.000922832
0.000763465
-0.00168631
0.00541583
-0.00112098
-0.00429486
-0.00267286
0.000948348
-0.000991246
0.000207217
0.00441718
-0.00462437
-0.000249806
-0.000633852
0.00100413
0.00232645
0.000208434
0.000165963
0.0023567
0.00149648
-0.00385314
0.000704911
0.000105845
-0.000810732
-0.000122753
-0.00127506
6.8408e-05
-8.07833e-05
1.2382e-05
5.4286e-05
0.000549548
-0.00184413
-0.00592987
0.00777399
-0.00112947
0.00511095
-0.0104209
0.00531001
0.00342705
-0.000135149
0.000151491
0.000927564
-0.00105061
0.000381061
0.00264945
-0.0048038
-0.00032361
-0.000286578
0.000898331
0.000326613
0.000135997
0.000151813
-8.47861e-05
-6.70064e-05
-0.000116354
0.000107867
8.52342e-06
-7.52209e-06
7.50895e-06
0.000807914
-0.000246703
-0.00056121
0.000906371
-0.000491227
-0.000103221
-0.00240317
0.000498298
0.00020175
-0.000279078
-2.71867e-05
0.000171667
-0.000144514
-0.00292965
-0.000702341
-0.0001151
0.00162779