/*--------------------------------*- C++ -*----------------------------------*\
| =========                 |                                                 |
| \\      /  F ield         | OpenFOAM: The Open Source CFD Toolbox           |
|  \\    /   O peration     | Version:  v2012                                 |
|   \\  /    A nd           | Website:  www.openfoam.com                      |
|    \\/     M anipulation  |                                                 |
\*---------------------------------------------------------------------------*/
FoamFile
{
    version     2.0;
    format      ascii;
    class       volScalarField;
    location    "50";
    object      nut;
}
// * * * * * * * * * * * * * * * * * * * * * * * * * * * * * * * * * * * * * //

dimensions      [0 2 -1 0 0 0 0];


internalField   nonuniform List<scalar> 
18649
(
0.00107896
0.000595773
0.00297164
0.00648185
3.44228e-05
0.000639663
0.0200906
0.000241146
0.000370941
0.000820732
0.000193425
0.0132258
0.000447412
0.0021337
0.00663126
0.000483944
0.00672475
0.000516966
8.31285e-05
0.0181059
0.00482359
0.00129795
0.0021032
0.000728729
0.00673494
0.0171802
0.00220039
0.0142705
0.000557735
0.00672358
0.00195661
0.000141687
0.00672557
0.000626161
0.00159364
0.00121811
0.000330736
0.00249729
0.00674426
0.000260276
0.000411968
0.000696734
0.00035256
0.0113454
0.000630822
0.00672255
0.0111656
0.00705935
0.0025219
0.00675289
0.0142093
0.000460802
0.00839004
0.0156673
0.00672535
0.00288213
0.0208096
0.000274429
0.00386682
0.00105379
0.00124397
0.00673599
0.000389122
0.00801829
0.00228743
0.00864932
0.00280183
0.0201534
0.00669928
0.000559032
0.00912342
0.00673901
0.000147345
0.00077385
0.000839384
0.00504127
0.00016853
0.000283278
0.000769284
4.00615e-05
0.00673149
0.01141
0.00762425
0.00852672
0.000106905
0.00674279
0.000389882
0.000626792
0.000277119
0.000723834
0.000595164
0.00259231
0.00265168
0.0239393
0.00217087
0.000171083
0.00129559
5.49502e-05
0.00644968
0.00194801
0.0021161
0.000177126
0.0067278
0.0158038
0.0061502
0.000387493
0.00672977
0.00173702
0.00020209
0.000793844
0.0019293
8.72369e-05
0.00325179
0.000825089
0.000445163
0.00214559
0.00672486
0.0200633
0.010802
0.00551086
0.00421036
0.00131782
0.000145771
0.00673877
0.0162198
0.00673585
0.00672651
0.0191301
0.00169294
0.0197198
0.00354771
0.00814739
0.00668286
0.00340464
0.000375044
0.00672747
0.00791476
0.0195188
0.000618334
0.000415991
3.80559e-05
0.00259902
0.00674274
0.00673033
0.00672948
0.0157946
0.00674195
0.00673153
0.00200889
0.00629311
0.000715827
0.00672768
0.00631815
0.00317694
0.00164004
0.00672915
5.61292e-05
7.55826e-05
0.00672344
0.00314382
0.0067326
0.000443513
0.00425449
0.00380649
0.0163059
0.00060258
0.0067298
0.00673999
0.00179251
0.00154207
0.00443
3.85123e-05
0.000400939
3.14342e-05
0.00263275
0.0093139
0.00152913
0.000683139
0.00672327
0.000639947
0.00057305
0.0067242
0.00672569
0.0122102
0.000600934
0.000469273
0.00672924
0.00361207
0.000667459
0.000252271
9.49313e-05
0.00279786
0.0015742
0.00329566
0.00672696
0.00672754
0.000213224
0.000157551
0.000679475
0.00672583
0.00673097
0.000343779
0.0200463
0.000410435
0.000273114
0.000106757
0.000362715
0.0107395
0.00162926
0.00087983
0.00348499
0.000715932
0.00193347
0.00104559
0.00803293
0.00357577
0.000221424
0.00402904
0.0154243
0.0023482
0.000447153
0.00389586
2.14405e-05
5.90041e-05
0.0156865
0.0209587
0.00415903
0.00287368
0.00908216
0.00643769
0.000794738
0.00614606
0.00157463
0.000575669
0.0160174
0.000485577
5.83153e-05
4.70005e-05
0.00596667
0.000236054
0.00672432
0.0177593
0.000618258
0.00672377
0.00078058
0.000188801
0.010514
0.00409621
0.00222997
0.000153763
0.00179425
0.0212373
0.000452512
0.00137791
0.000644694
0.0125201
0.00354443
0.00246644
0.000654061
0.000880347
0.00579357
8.28231e-05
0.00129657
0.00282635
0.00672702
0.011646
0.0171194
0.00672761
0.0137719
0.00673166
0.0147652
0.000140803
0.00890934
0.00242656
8.82598e-05
0.00365291
0.00672647
0.000396353
0.0235081
0.0153894
0.00672891
0.00485953
0.00732729
0.000571946
0.00549982
0.00225241
0.0028919
0.000172286
0.0067276
0.0067266
0.000369879
0.00322642
0.0214274
3.2254e-05
0.000568961
0.000824042
0.000616954
0.000478515
0.00672727
0.0153873
0.00672197
0.000548103
0.00150439
0.0067303
0.00605097
8.6468e-05
0.00672763
0.000414028
3.02979e-05
0.000785956
0.0180658
0.00104411
3.43574e-06
0.00673938
0.00387853
0.00503358
0.00216153
0.00672585
0.00755736
0.0142725
0.00672662
0.00673235
0.000433199
0.00672495
0.00672939
0.00224724
0.00672836
0.000293119
0.0228695
8.00725e-05
0.00150904
0.00638849
0.00673154
0.000419964
0.00672349
0.00674273
0.0130698
0.000436865
0.000777519
0.000367743
0.000426231
0.00672313
0.00123772
0.00181763
0.000893834
0.00673617
0.00672749
0.00672445
0.000673844
0.000528112
0.00673915
0.000269801
0.00672925
0.00508656
0.00138649
0.000372463
0.00187711
0.0159696
0.00046796
0.0159598
0.0199808
0.00111978
0.0212206
0.00673973
0.011254
1.57659e-05
0.00111651
0.00044907
0.000541704
0.00202096
0.00230506
0.00674111
0.00673463
0.0184865
0.000274026
0.0171443
0.00138676
0.000603699
0.0109724
0.00135308
0.00672649
0.000492576
0.00600717
7.76195e-05
0.00672571
0.00672763
6.39951e-05
0.0211138
0.0013057
0.00623047
0.000336196
0.000178185
0.00228772
0.0136359
0.00284018
0.00058563
0.00120552
0.00116158
0.0067277
0.0144243
0.0187818
0.000487455
0.00572533
0.00673122
0.0176217
0.0139748
0.00398219
0.000169442
0.00673392
0.00326301
0.0231748
0.00674628
0.019578
0.000766054
0.000454408
0.0109728
0.000271919
0.0114756
0.00674709
0.00130234
0.00655787
0.000470655
0.000236883
0.012614
0.016977
0.0067395
0.0067618
0.000300315
0.01533
0.00145591
0.00257329
0.00121296
0.000915025
0.00672603
0.0196712
0.000359336
0.00112819
0.00184904
0.00161114
5.57688e-05
0.00787567
0.000503249
0.00103465
0.00548179
0.00673413
0.0157323
0.0184226
0.0067246
0.00501165
0.00195437
0.00675673
0.000940625
0.006591
5.12784e-05
0.000268077
0.0120665
0.000392052
0.0148329
0.000833946
0.000713331
0.00038403
0.00191012
0.000421625
0.00131623
0.00306474
0.000567095
4.32028e-05
0.00672735
0.00147997
0.00739502
0.0067352
0.00672738
0.000959891
0.0067341
0.012843
0.00293616
0.00210128
0.00585221
0.000730762
0.00284592
0.0067268
2.62239e-05
0.00457226
0.000147412
0.00673171
0.000599092
0.0108425
0.00672692
0.00687962
0.000597241
0.0215501
0.0144557
0.0147166
0.00124214
0.000768843
0.000206224
0.000484499
0.00141656
0.00247774
0.000134898
0.000923736
6.93409e-05
0.000322037
0.000175164
0.00672482
4.43632e-05
0.000438546
0.0206627
0.0026949
0.00220671
0.000587139
0.00031638
0.00673027
0.000226195
0.0101613
0.00672601
0.0049402
0.0139602
0.00533046
6.01926e-05
0.00574165
0.000522017
0.00193038
0.000328671
0.00673338
2.27649e-05
0.0067261
0.0206744
0.00246056
0.00142172
0.000430449
0.0244626
0.00945624
0.00161033
0.000851226
0.000409853
0.0207026
0.000910107
0.00623403
0.000144757
0.000438928
0.00204117
0.000484266
0.00198362
0.00672881
0.00194303
0.00672708
0.00672617
0.00182065
0.00385395
0.00673287
0.0048365
0.00073952
0.00113026
2.95092e-05
0.0219744
0.00237088
0.00041626
0.000486186
0.000152952
0.00673158
0.00842778
0.00486947
0.00567888
0.000676091
0.000682115
0.00110796
0.000707886
0.000787246
0.00270169
0.000589949
0.00395667
0.00264064
0.00673411
0.0218493
0.01333
0.0161072
0.000567386
0.00525754
0.0185902
0.00875534
7.94492e-05
0.00073813
0.00016641
0.021183
0.00673048
0.0141786
0.000874173
0.000821347
0.0016627
2.27091e-05
0.00623477
0.0034133
5.80139e-05
0.000407897
0.00139822
0.000695801
8.70312e-05
0.00524126
0.0214695
0.000610092
0.0174711
0.00215043
0.00692452
0.000562783
0.000870178
0.00680724
0.0131303
0.000304942
0.000408265
0.000430718
0.0123393
0.00105662
0.0170493
0.00256064
0.000442188
0.0225339
0.000772029
0.00672595
0.000100608
0.00191028
0.000454113
0.00480147
0.00381076
2.0057e-05
0.000258037
0.0144458
0.00672562
0.0124183
0.00675348
4.91686e-05
0.000577164
0.00673463
0.00226207
0.00137496
0.000258459
0.00145014
0.000203677
0.000334488
0.000327808
0.00313969
0.004646
0.00096448
0.0184268
0.00673441
0.000302127
0.00672777
0.0148452
0.00672643
0.000819412
0.00300411
0.00673391
0.00108776
0.000404453
3.50446e-05
0.000862048
0.00775523
0.000615333
0.00674456
0.000692793
0.00606076
0.00106034
0.00243312
0.0191042
0.0126058
0.00673272
0.00782565
0.00369138
0.00230368
0.00293053
0.000306824
0.00141127
0.00390728
5.8339e-05
0.00954924
0.000796061
0.018624
0.00627178
0.00323247
0.00674093
0.006736
0.00674201
0.00763458
0.00674874
0.00256321
0.0215505
0.00785718
0.00138668
0.000369348
0.000584832
0.00672476
0.0213796
0.000969286
0.000131274
0.00174642
5.23479e-05
0.00673184
0.00117706
0.00672663
0.000140284
0.00258563
0.00830746
0.00963896
0.000318158
0.00486736
0.0156757
0.000326243
0.00735763
0.00111261
0.000466867
0.00142579
0.00313295
0.0106107
0.0147905
0.000219623
0.00016143
0.000224031
0.0067365
0.000547043
0.0205959
0.000849565
0.00617503
0.000998255
0.0192305
0.0198328
0.0142665
0.000336231
0.00679979
0.000927746
0.0112679
0.0110831
0.00672438
0.000744014
0.00672653
7.55528e-05
0.0067313
0.000384436
0.00016788
0.00673153
0.0043432
0.0103728
0.00617333
0.000650492
0.00420976
0.00676391
0.00331188
0.000139697
6.60503e-05
0.000593628
0.0216438
0.00894073
0.0200131
0.00672651
0.000176595
0.000478156
0.000689572
0.000300466
0.00656399
0.00302588
0.00640659
2.25082e-05
0.0233954
1.75735e-05
0.00512348
0.000504392
0.00674313
0.00674242
0.0067577
0.00101058
0.000351438
0.0147071
0.000258555
0.0067356
4.55442e-05
5.07286e-05
8.24269e-05
0.00673451
0.0221895
0.014012
0.00610917
0.00683696
0.000370459
0.000500327
0.000585471
0.00672949
0.000902815
0.000132404
0.00573705
0.000407044
0.00321885
0.016302
0.0183828
0.00162041
0.00305652
0.00581046
0.000261455
0.0132731
0.000126124
0.00563335
0.00629891
0.00729364
0.0177121
0.00010476
0.00200497
0.0058673
0.000490362
0.000589708
0.00209462
0.000316534
0.00162159
0.000117424
0.00065079
0.0132385
0.019469
0.0067558
0.000364602
0.000227071
0.000352465
0.000229646
0.0215482
0.00674237
0.000161374
5.21427e-05
0.000465787
0.0139625
0.00275357
0.0109114
0.0203391
0.00401041
0.0161216
0.000211608
0.00672472
0.0207598
0.0136096
0.00181714
0.000367876
0.0184339
0.00416611
0.0166269
0.00228656
0.00482945
0.00357836
0.000647447
0.00673553
0.00672914
0.0199425
0.00672647
0.000612892
0.00276406
0.0125418
0.000148083
0.00674198
0.00672945
0.0163431
0.00203222
4.10746e-05
4.01141e-05
0.000523943
0.00508585
0.000841351
0.000856516
0.00809235
0.000515528
0.000367736
0.00535277
0.000697319
0.000559962
0.000564024
0.0026264
0.00673271
0.000441229
0.00672703
0.0172859
0.000228421
0.00241964
0.00673108
0.000689659
0.000536269
4.7657e-05
0.0029278
0.0067316
7.56906e-05
0.00442749
0.000626898
0.00166576
0.00093682
0.0228332
0.00672918
0.0138463
0.00673098
0.000201964
2.15285e-05
0.000532733
0.000511369
0.00672422
0.000229811
0.00265706
0.00820555
0.0141274
0.000824114
0.000155696
0.000357684
0.00161999
0.0015982
0.00789744
0.0116231
0.0067494
0.0156265
0.000153345
0.00673251
8.97173e-05
0.00077341
0.000613123
0.00479543
0.0097479
0.0203185
0.0141477
0.00955085
0.0211626
0.00645073
0.000338731
0.00672347
0.000580932
0.000330821
0.00674323
0.00161277
0.017023
0.00313609
0.00019701
0.0150332
2.46106e-05
0.0165345
0.000172537
0.0040837
0.000213705
0.000203459
0.006726
0.00644989
0.0067508
0.0158403
0.00242774
0.00672763
0.000425492
0.00237081
0.00863494
0.0149271
6.96067e-05
0.000772063
0.00672861
0.00170293
0.00892681
0.000136916
0.000859258
0.00672787
0.0067343
0.00672449
0.00128119
0.000156293
0.00674769
0.0067514
0.000580392
0.000537099
0.00324151
0.000311824
0.00342981
0.000691289
0.00521625
0.00303333
0.000555177
0.00606035
4.4696e-05
0.00907961
0.0110102
3.18375e-05
0.000653238
0.00115642
0.000178861
0.0108644
0.00271123
0.00674289
0.00673187
0.00173843
0.000109108
9.81558e-05
0.000179316
0.000124293
0.000615482
0.0128611
0.0159699
0.00182578
5.1146e-05
0.0116439
0.00172673
0.00524966
0.00673597
0.00672642
0.00430669
3.92614e-05
0.0073184
0.000181397
0.000560858
0.00278203
0.0158063
0.000588706
0.00612943
5.44406e-05
0.000470581
8.59662e-05
0.000208024
0.000784683
0.0179857
0.0038903
2.84369e-05
4.24329e-05
0.00672899
0.00524089
0.000790395
0.0116943
0.00119375
0.00673097
0.00171576
0.00044264
0.00542904
0.0119571
0.00155473
0.00672595
0.00579919
0.000158325
0.000752941
0.000885525
0.00601345
0.00672822
0.000705396
0.000404409
0.00047362
0.00446862
0.00839447
0.00267401
0.000373143
0.000171662
0.0208884
0.00644379
0.0205397
0.000281328
0.00126037
0.000233898
0.00187071
8.67035e-05
0.000953645
0.0054699
0.0180696
0.000398351
0.00150162
0.0150937
0.0101957
0.00461462
0.00416242
0.000659252
0.0022803
0.00146085
0.0169535
0.00673739
0.00673927
0.00231345
0.00454865
0.000200303
0.000418789
0.020872
0.000454645
0.00045538
0.0213948
0.0013831
0.00672911
0.000193543
0.00147317
0.019928
0.0101815
0.000659162
0.00673841
0.000188937
0.0176767
0.005329
0.00224454
0.0156917
0.0161878
0.00309928
0.00672354
0.00585096
0.00041073
0.00672331
0.000903627
0.00215504
0.00223778
0.000970395
0.00265859
0.0138767
0.000193514
0.00672464
0.000480228
0.00672368
0.00447918
0.000310193
0.010223
0.00296191
0.00037996
0.00043297
0.00673348
0.000618831
0.00490151
0.0175264
0.0204027
0.00202703
0.0112071
0.00535038
0.00673767
0.000898436
0.00402021
4.74168e-05
0.000436241
0.00672863
0.0174546
0.00649048
0.000351361
0.00672386
0.00126215
0.00670767
0.000400742
0.00672377
0.00537957
0.00661649
0.00560977
0.00214634
0.0215483
0.00673059
0.0012883
0.00476277
0.00172324
0.0107536
0.00634143
0.00672539
0.0112773
0.0227064
6.6323e-05
0.0140334
0.000752914
0.00143682
0.000326014
0.00509431
0.000255253
0.00423995
0.000390018
0.0182338
0.000416966
0.000643547
0.00115597
0.00016911
0.0148878
0.000275907
3.54105e-05
0.00040074
0.000192231
0.0164652
0.000728067
0.0150315
0.0175527
0.000348823
0.0118519
0.00072364
0.000280562
0.0054235
0.00672213
0.00625374
0.00102958
3.51628e-05
0.014875
0.00039765
0.000572911
0.00673649
0.0035584
0.0180481
0.000185272
0.0104447
0.00175571
0.00162341
0.00537955
0.00616511
0.00673927
0.00101956
0.00149629
7.51231e-05
0.0174765
0.0204353
0.00165421
0.0067262
0.0156302
0.000367394
0.000353875
0.00614649
0.00526286
0.000146563
0.00590987
0.00672687
0.00901276
0.00674569
0.000858001
0.00219325
0.00672443
0.000293869
0.00673634
0.00269637
0.00672637
0.00134213
0.022038
0.0140969
0.0067264
0.0187044
8.53081e-05
0.00378291
0.0215875
0.0193458
0.00673169
0.00604816
4.45333e-05
0.00142951
0.00672663
0.00571883
0.000624463
0.000411143
0.00672951
0.0107596
0.0075586
0.00672613
0.00083793
0.00506889
0.00672292
0.000441751
0.00941455
0.00673761
0.014518
0.0188405
0.00410406
0.0113546
0.00683404
0.0194485
0.00653298
0.00672997
0.0107882
0.00940924
0.00674944
0.017294
0.00107863
0.0152149
0.000926457
0.000339891
0.0171461
0.000617947
4.03029e-05
0.0167183
0.00235347
7.17502e-05
0.00050726
0.016772
0.0198894
0.00213737
0.0210983
0.001396
0.00207466
0.00673104
6.33004e-05
0.00789244
0.000667521
0.000785411
0.0124396
0.000377481
0.00518839
0.00674069
0.0161478
0.00594915
0.00041629
0.00151644
0.00674447
0.000451393
0.012408
0.00015138
0.000993346
0.000423547
0.0176026
0.00148322
0.00032816
0.0190173
9.54706e-05
0.016261
0.0189046
0.000295386
0.000280081
0.00561779
0.00673543
0.0137927
0.0190456
0.00520912
4.03379e-05
0.0171322
0.00036863
0.00383688
7.26417e-05
0.0208219
0.0166435
0.000951354
0.0180044
0.000748547
8.76504e-05
0.0188792
0.0176404
0.0153992
9.05252e-05
0.0118826
0.0122228
0.0006319
0.00609167
0.00312764
0.00119928
0.00672432
0.00672738
3.54119e-05
0.00118246
0.00691279
0.00495284
0.0189853
0.0193461
5.24295e-05
3.13683e-05
0.000583985
0.0221274
4.32402e-05
0.00674207
0.00104532
3.48657e-05
0.00602162
0.00674477
0.014623
0.00568212
0.00571469
0.00121577
0.00526668
0.002178
0.0176934
2.76001e-05
0.000436355
0.000253463
0.00132342
0.0152676
0.0206245
0.00483941
0.000521072
0.0145147
0.000184724
0.00261856
0.000203701
0.0170588
0.000173533
0.00673624
0.00672727
0.0204713
7.51035e-05
0.00010012
0.00743214
0.0170184
0.0131754
0.00673375
0.00535869
0.00673096
0.000484022
0.000175122
0.00120858
0.00312964
7.17969e-05
0.000279633
0.000231979
0.00673185
0.00674347
0.00609202
9.95391e-05
0.00674832
7.76712e-05
0.00675759
0.00673139
0.00301436
0.0136294
0.0192611
0.00553268
0.000612283
0.0115577
0.00156663
0.00321368
0.00673447
0.00674631
0.000365782
0.00673051
0.00647288
0.00293334
0.00672375
0.00673831
0.00316852
0.00672225
8.14764e-05
0.000572863
0.0060545
0.00672643
0.00197998
0.000431546
0.000438719
0.00672642
0.00672364
0.000187207
2.81542e-05
0.00343031
0.000152968
0.000605656
0.000232231
0.00150125
0.000145227
0.00627036
0.00116961
0.00545317
0.000209663
0.00672573
0.000223145
0.00036371
0.00342555
6.77244e-05
0.0067263
0.00673069
0.000400478
0.000418294
0.00016672
0.00266927
0.00672843
0.00673031
0.000368092
0.00674044
0.000263748
0.0211724
0.000532084
0.000420404
0.00258048
0.00021418
0.00672722
0.00672422
0.00245311
0.000342454
0.00107531
0.00114724
0.0133456
0.00672316
0.000178709
0.0067462
0.00216216
0.000911888
7.95295e-05
0.00673754
0.00673924
0.000453313
0.000441286
0.00328263
0.000552531
0.00334493
0.0115806
0.000679964
0.00672468
0.019073
6.6324e-05
2.83162e-05
0.00650339
0.000371322
0.0064647
2.60333e-05
0.000157287
0.00101169
0.00611744
0.000415402
0.00031402
0.00538324
0.00673821
0.00672734
0.00672707
4.15094e-05
0.00423136
0.00108379
0.00673181
0.00673081
0.000510839
0.000318531
0.000888729
0.000568126
0.000283261
0.0067389
0.00193994
0.00673896
0.00040277
0.00333643
0.0091843
0.00659871
0.00219856
0.0187646
0.000121667
0.00649861
0.00673585
0.00672759
0.00673052
0.000723407
0.00674686
0.00266091
0.000718294
0.000110446
0.0115726
7.4548e-05
0.00673132
0.00573675
0.0001097
0.00128008
0.000551662
0.00540055
0.0169185
0.00673953
0.00523822
0.000387705
0.00042875
0.0195694
0.00655576
0.0184968
0.00673096
0.000675908
0.00280087
0.0122409
0.0198771
0.000873042
0.00672787
7.11174e-05
0.00087441
0.00117662
0.00672382
0.000845061
0.00490134
0.0015583
0.0211425
0.00674007
0.0064841
3.8623e-05
0.00109189
0.00401486
0.00673424
0.00275484
4.78455e-05
0.00673421
0.000456312
0.000595826
0.000321216
4.27656e-05
0.00672709
0.000427063
0.00673283
0.000115362
0.000179687
3.16798e-05
0.00255011
0.0139282
0.00672342
0.00237783
0.00518157
0.00672617
0.00347788
0.00449545
0.0147602
0.0201835
0.00672604
0.0122479
0.00181845
0.00674623
0.00672955
0.0182309
3.95226e-05
9.34904e-05
0.00780141
0.000231765
0.00514732
0.00454325
0.0192027
0.00277153
0.000261109
0.00888037
0.0155576
0.00148926
0.000893249
9.33723e-05
0.00051095
0.000550267
8.70696e-05
0.000385474
0.00993505
0.00672574
0.00187271
0.00573038
0.0213511
0.0067325
0.000634741
0.00173455
0.000501974
0.00261019
0.000143435
0.00673017
4.19488e-05
6.68081e-05
0.00314955
0.00115057
0.0110263
0.00632491
0.00152109
0.00536619
0.00135073
0.00236913
0.000326936
0.00488482
0.0173508
0.000208986
0.00352674
0.00672703
0.00673085
0.00127479
0.0105652
0.000429259
0.000423052
0.00467421
0.000670616
0.00116228
0.000376776
0.0078413
0.00242049
0.0129706
0.000413246
0.000318216
0.00672455
0.000536506
0.0002422
0.00169377
0.000109472
0.00375475
0.00483984
0.000123981
0.00573581
0.000612594
5.94315e-05
0.000414747
0.0108021
0.000653034
0.00939317
0.00886398
0.0170764
0.0176384
0.00161307
3.16914e-05
0.0175705
0.00066846
0.00219729
0.00164933
0.00672754
0.000667397
0.000184676
0.000349305
0.00037961
0.000153773
0.0104452
0.00672619
0.000102187
0.00197988
0.0193531
0.0149731
0.00553466
0.00268021
0.00672698
0.0112907
3.93504e-05
0.000324744
0.00221338
0.000437788
0.000944494
0.00583233
0.000266819
0.00133373
0.0207586
0.000176084
0.00673446
0.00377121
0.000480747
0.000477395
0.000525925
0.00575692
0.000918461
0.00672797
0.00673225
0.000845993
0.0101601
0.0067281
0.00330681
3.40958e-05
0.000411804
0.00673947
0.00672804
0.000222609
0.000127983
0.000280162
0.000392603
0.00121718
0.00673799
0.0002171
0.000372197
0.00994705
0.000520265
3.16395e-05
0.0037871
0.00674186
0.0140086
0.00672394
0.00673311
0.00673847
0.00106781
0.00050257
0.000497635
0.000603606
0.00071448
0.00019161
0.00451299
0.000784358
0.00673662
0.00519877
0.000249911
3.8528e-05
0.00343252
0.00673606
0.00506066
0.00649537
0.0010683
5.66952e-05
0.00521776
0.0057391
0.023863
0.00046882
0.000314451
0.00324672
0.00675752
0.0028401
0.000667915
0.00345111
0.000821056
0.00574256
0.0215405
0.000480301
0.000235784
0.00673203
0.00672393
0.0149402
8.86319e-05
0.0014528
0.00672777
0.00192492
0.00216817
0.000582012
0.00255483
0.00819748
0.00675653
0.00673284
0.0151989
0.000341443
0.00155732
0.00050834
0.00188803
0.0020556
0.0160256
0.00672902
0.000302442
0.0119052
0.00673113
0.00673103
0.00673037
0.000966743
0.00673325
0.0188035
0.00178022
0.000146015
0.00672607
3.72944e-05
0.00778508
0.00674817
0.0131902
0.000164956
0.0149983
0.00254828
0.00372226
3.44165e-05
0.00268785
0.0228497
0.00064373
0.00109773
0.0053232
0.000363335
0.0152513
0.0165488
0.000575555
0.00673048
0.000320033
0.00672392
4.82754e-05
0.0135551
0.00990278
0.00029687
0.000572683
0.00672592
0.000684298
0.00129109
0.00331919
5.91353e-05
0.000161602
0.00108289
0.00103597
0.00673655
0.003324
0.00882671
0.0002459
2.64564e-05
0.00110477
0.000272148
0.000363964
0.00050049
0.00672751
0.00604953
0.000796457
0.0189096
0.0217426
0.00208115
0.000829498
0.0140452
0.00672632
0.00149978
0.00673969
0.0150459
0.00510189
0.00672377
0.00064518
0.00619406
0.00431968
0.00529596
7.31031e-05
0.00549887
0.00577342
0.00102536
0.00673327
0.000526847
0.00241575
0.000274419
0.000484165
0.000107057
3.05457e-05
0.000685325
8.80395e-05
0.00473351
0.00313495
0.00673716
0.00672726
0.00674154
0.00640455
0.00675174
0.00150514
0.00674222
0.000657294
0.00100146
0.000327685
0.000310239
0.00672395
0.0095335
0.00673437
0.000655747
0.000877366
0.00807604
0.00674944
0.00260943
0.00106508
0.00131129
0.0145652
0.000365187
0.00348581
0.00443042
9.28008e-05
0.00673918
0.00367233
0.0166753
0.000467917
0.00090962
0.00101614
0.0157303
0.00299643
0.000754384
0.00147981
0.0124928
0.00672869
0.00673312
0.00673101
0.000578794
0.000892248
0.000999145
0.000386808
0.019463
0.000735174
0.00557256
0.00125707
0.0127438
0.00673907
0.00742434
0.00672654
0.00044727
3.1649e-05
0.000988442
0.0103113
0.000360267
3.46639e-05
0.000324024
0.0067481
0.00102658
0.00038573
0.00386212
0.000979252
0.000198716
0.00222533
0.00672643
0.000655029
0.000635702
0.000360503
0.000455596
0.0212565
0.00359749
0.00672806
0.0116811
0.0067283
0.00011902
0.000563647
4.77875e-05
0.0124506
0.000585692
0.000763706
0.000329659
4.47237e-05
0.000240207
0.000152825
0.00285338
0.00051092
0.00133256
0.0117533
0.00133113
0.00619678
0.000303857
0.00439633
2.84884e-05
0.00130342
0.00672381
0.000531021
0.000796213
0.000887667
0.00674168
0.00187735
0.0035518
0.0193597
0.00673721
0.021622
0.0116421
0.00481615
0.00673667
0.0179523
0.0012151
0.00419678
0.015099
0.0195283
0.000224593
0.0153047
0.000808861
0.00592511
0.00463057
0.000144846
0.00673161
0.0173685
0.0020072
0.000353694
0.000258313
0.000261041
0.0154195
0.000309118
0.00416245
0.00478465
0.0131077
0.00191647
0.0131841
0.0122562
0.000976772
0.0174196
0.00672406
0.0171725
3.22297e-05
0.000375335
0.000115283
0.000423008
0.000100547
0.00824646
0.00448317
0.000108068
0.000977206
0.0043473
0.00132037
0.00673262
0.00147175
0.00540305
0.00366689
0.000343433
0.000700742
0.00155578
4.1594e-05
0.000356542
0.000560968
0.00153582
0.00671788
0.000859811
0.00391602
0.00024677
0.00675644
0.00957224
0.00039771
0.00108228
3.59515e-05
0.0142425
0.00672782
0.00265845
0.000269833
0.0191268
0.00312154
0.00564156
0.000440447
0.00673139
0.0160825
0.000616356
0.00020916
0.0035902
0.0200661
0.00673836
0.00104036
0.000545623
0.000298902
9.73158e-05
0.000260237
0.000825051
0.000425923
0.000326257
0.00151169
0.0171928
5.20854e-05
0.0150294
9.024e-05
0.0127945
0.00717218
0.00375416
3.10906e-05
0.00124222
0.000810422
0.00457665
0.00776113
0.0118195
0.000253211
0.00308845
0.0019434
0.00026173
0.00390454
0.00847119
0.00117219
0.000453023
0.00115491
0.00208967
0.00672684
0.00105869
0.0113516
0.0199286
0.00673368
0.0191247
0.0208978
0.0125129
0.000442318
0.0209826
0.00152791
0.00673332
0.0208323
0.00674619
0.00190357
0.00103607
0.0182903
0.00697024
0.00201165
9.04067e-05
0.0210568
0.00672618
0.000344497
0.000315573
0.000739889
0.0140867
0.0191904
0.00673198
0.0134634
0.00145898
0.00672398
0.0215235
0.018381
0.000301339
0.00103463
0.000743219
0.0216716
0.00121947
0.00673031
0.00392041
0.000339067
0.000444305
0.0142084
0.00102272
0.00185946
0.00120323
0.0172816
0.0202574
0.0199888
0.00672899
7.0436e-05
0.00672639
0.00182373
3.7753e-05
0.00125747
0.000669121
0.00672567
0.00672844
0.00672477
0.021515
0.00166484
0.00674082
0.000788224
0.00672377
0.00672937
0.000906021
0.0216142
0.0144981
0.000341844
0.00672845
0.0128391
0.00675183
0.00674994
0.000527244
0.0150262
0.0152242
0.00181081
0.000662406
0.0113244
0.000781538
0.00672469
4.89971e-05
0.00672837
0.00468165
0.00674695
0.00673046
0.00357821
0.00673148
0.000743306
0.00263713
0.00534832
0.00644884
0.00174339
0.000374359
0.000274353
0.00672717
0.00673154
0.00674282
0.0136933
0.0067328
0.00549993
0.00154794
0.00237526
8.92446e-05
0.00353321
0.0162912
0.0215461
0.000529275
0.00311108
0.00673906
0.000270654
0.0181805
0.00673118
3.04025e-05
0.00051385
6.09817e-05
0.00216253
0.00674135
0.00166723
0.0211123
0.000414943
0.00674286
0.000980125
0.0148604
0.00248429
0.0200445
0.00644436
0.00390153
0.00611489
0.008481
0.00119885
0.00673524
0.00648351
0.000212345
0.000271202
0.000533655
0.00050272
0.00599366
0.00672862
0.0147987
0.00673493
0.000439329
0.00101911
0.000486608
0.0214211
4.76352e-05
0.000380264
0.00246886
0.00675166
9.94165e-05
0.0128219
0.000829868
0.00167564
0.0130201
0.0030409
0.00590698
0.000628017
0.000119862
0.00086948
0.00905651
0.00430822
0.00124097
0.00672633
0.00655997
0.00182279
0.000609614
0.00673447
0.00177028
0.00673017
0.00672436
0.00123747
0.00673032
0.0151548
0.00323021
5.94342e-05
0.00674152
0.00248319
0.000594692
0.00242812
0.0159876
0.000897891
0.000265521
0.000223163
0.0026614
0.00672736
0.000521763
7.95825e-05
0.000365179
0.00133893
0.00102385
0.000151706
3.67976e-05
0.00188329
0.000702076
0.00545292
0.00107378
0.0017921
0.000571805
0.0151772
0.00673102
0.00067924
0.00176875
0.000383172
0.0191684
0.000422549
0.00231849
0.00672473
0.00673287
0.00672652
0.00467986
0.00048212
0.000280469
0.00563493
0.00131452
0.00673054
0.0019514
0.0155044
0.000369919
0.00179766
0.000284683
0.00673061
0.000278347
3.16918e-05
0.0215527
0.00674316
0.00689866
0.0067265
0.0255473
0.0150754
0.000145191
0.00035425
0.00132006
0.000279108
0.00114503
0.0208905
0.000742507
0.000822104
0.000760701
0.000452134
0.00065866
8.67862e-05
0.000544455
0.000332906
0.00673984
0.00168253
0.00016078
0.00290198
0.00673138
0.000187792
0.00795252
0.00672301
0.000203932
0.000641141
2.6215e-05
0.000416771
0.00921956
0.000271423
0.00023175
0.00319138
0.00144796
0.00675955
0.00672711
0.00672674
0.00254353
0.00039802
0.000350255
0.00398539
3.9137e-05
0.000740165
0.000143583
0.0143733
0.000233975
0.00740739
0.00673906
0.0190686
0.00014122
0.000547412
0.00251937
7.09902e-05
0.0201404
0.00623861
0.000474929
0.0038759
0.000406254
0.0014259
0.000585203
0.0142272
0.0067544
0.00619008
0.0159446
0.0120371
0.0249047
0.000337708
0.00673738
0.00966329
0.00674935
0.00503249
0.00392224
0.00110969
0.000100058
0.00340504
0.0164828
0.000843066
5.63146e-05
0.00651379
0.0067287
0.000809751
0.0203663
0.00702102
0.0178444
0.00211684
0.00715343
0.000665985
0.0119687
0.00604674
0.000894387
0.0178541
0.00236788
0.0151121
0.00937422
0.00735139
0.00173217
0.00674517
0.00587673
0.00304834
0.00167335
0.00732759
0.01544
0.000289508
0.01758
0.00171896
0.0164942
0.00672515
0.00420907
0.018713
0.0199646
0.00672851
0.000802659
3.31219e-05
0.00387021
0.012048
0.00115957
0.00933755
0.00672205
0.00107861
0.00104834
0.00149479
5.02484e-05
0.0141202
0.00586167
0.000248404
0.000360584
0.000175351
0.000166856
0.00357856
0.00636133
0.0049878
0.0117408
0.0067406
0.00210241
0.00672692
0.000355701
0.0048345
0.0067467
0.0233458
0.000730483
0.000544688
0.00352791
0.0135803
0.00672668
0.000216748
0.00623835
0.000525785
0.00672536
0.00675404
0.000432656
0.00204512
0.00388469
0.00837754
0.00603261
0.014634
0.0198306
0.00446387
0.00778457
0.00256445
0.000437577
0.00673249
0.00414318
0.00698472
0.000364914
8.89031e-05
0.00673863
0.00672412
0.00023386
0.00249523
0.00260936
0.0138425
0.00356736
0.00135708
0.00491456
3.74154e-05
5.088e-05
4.07383e-05
0.00613882
0.00307895
0.000663509
0.00672495
0.00247201
0.00578044
0.00100789
0.00291497
0.000371272
0.0193588
0.00121239
0.0148619
0.000492687
0.0011828
0.00531949
0.02393
0.00679483
0.0222108
0.00575584
0.00497713
0.00716453
0.00391971
0.00827717
4.88133e-05
0.00055869
0.000401981
0.0147022
0.0011255
0.0067243
0.0178801
0.0013722
0.00183512
0.0177524
0.0067263
0.00672669
0.0100488
0.0145367
0.0217142
0.00673196
0.00153434
0.00431894
0.000829135
0.00856295
0.00103095
0.00365304
0.00575682
0.0094219
6.24646e-05
0.00880837
0.00673445
0.000142423
6.79169e-05
0.00269994
0.000347652
0.000147316
0.0237033
0.0104103
0.00118521
0.00672887
0.000942242
0.000390687
0.00226626
0.00447817
0.000784194
0.00355453
0.000891363
0.0105518
0.000246474
0.00674386
0.00186254
0.000309959
0.00673039
0.0134824
0.000120416
0.000240437
6.68241e-05
0.00383612
0.00365195
0.000202841
0.00225334
0.00238689
0.00515106
0.000909322
0.000369406
0.00990818
0.000344874
0.00280308
0.000239735
0.0101659
0.000247798
0.00674205
0.00396295
0.00672597
0.000557815
0.0004593
0.0003573
0.000207165
0.00275537
9.97702e-05
0.0139973
0.0140269
0.000554562
0.01367
0.00015077
0.0216238
0.00017301
0.00673006
0.020441
0.0118635
0.000522856
0.00729357
0.000141159
0.000234754
0.000245399
0.000802636
0.00945609
0.00422704
0.00674374
0.00343682
0.000436191
0.0163494
0.0132156
0.0067291
0.0204036
0.000216974
0.0146211
0.00935903
0.000499719
0.00673055
0.00210968
0.00346584
0.00234579
0.000102577
0.00412131
0.00119666
0.00297123
0.000222169
0.0123855
0.000823837
0.00336802
0.00588528
0.00429318
0.000504585
0.000547107
0.0123656
0.00052797
0.00283222