/*--------------------------------*- C++ -*----------------------------------*\
| =========                 |                                                 |
| \\      /  F ield         | OpenFOAM: The Open Source CFD Toolbox           |
|  \\    /   O peration     | Version:  v2012                                 |
|   \\  /    A nd           | Website:  www.openfoam.com                      |
|    \\/     M anipulation  |                                                 |
\*---------------------------------------------------------------------------*/
FoamFile
{
    version     2.0;
    format      ascii;
    class       volScalarField;
    location    "50";
    object      p;
}
// * * * * * * * * * * * * * * * * * * * * * * * * * * * * * * * * * * * * * //

dimensions      [0 2 -2 0 0 0 0];


internalField   nonuniform List<scalar> 
18649
(
-0.572944
-0.00765318
-0.0638915
-0.58401
0.402955
-0.117091
-0.656498
-0.399849
-0.247329
0.0710376
-0.338413
-0.650745
-0.485556
-0.0627107
0.0407364
-0.203532
-0.0162151
-0.20222
-0.239993
-0.617807
-0.574705
-0.0403786
-0.635304
-0.324046
-0.0134918
-0.617459
-0.0283571
-0.650416
-0.491022
-0.0300827
-0.050082
-0.115321
-0.000586307
0.0550351
0.0407244
-0.616393
0.144462
-0.00103736
-0.0327328
-0.389075
-0.255056
-0.323934
-0.24923
-0.609568
-0.0123986
-0.0303555
-0.589437
-0.583913
-0.547059
-0.029429
-0.481116
-0.126027
-0.584488
-0.633079
-0.000713774
-0.552173
-0.656766
-0.298368
-0.570075
0.068669
-0.572463
0.0122403
-0.242694
-0.583049
-0.00306577
-0.58346
-0.0410191
-0.659603
-0.578794
-0.46449
-0.623273
0.0107734
-0.0997708
-0.109405
0.0509588
-0.577031
0.137645
-0.0485654
-0.105944
-0.117141
-0.0165581
-0.589414
-0.589662
-0.585715
0.126985
-0.0325012
0.128886
-0.123227
-0.179694
-0.115236
-0.149152
0.0680955
0.0119412
-0.651726
-0.0394896
-0.328061
0.0606089
-0.0683258
-0.577149
-0.0274422
-0.632967
0.0598428
-0.0201482
-0.485664
-0.577131
-0.131176
0.0364964
-0.055441
0.0565326
0.0545131
-0.616573
0.263569
0.01262
0.0595951
-0.406967
-0.0729428
-0.000211616
-0.672394
-0.610931
-0.0381498
-0.571212
-0.0123861
-0.102985
0.0117916
-0.605356
-0.0135967
0.0127582
-0.627283
-0.010781
-0.674939
0.0220832
-0.58931
-0.00935839
-0.570216
0.148797
0.0304817
-0.610537
-0.657479
-0.145823
-0.0423988
0.233609
-0.0169698
-0.0277558
-0.00299485
0.0194986
-0.664645
-0.0284277
0.0154956
-0.641375
-0.578626
-0.475445
0.0368399
-0.59418
-0.0540045
-0.0147038
-0.00246663
0.319661
-0.106466
-0.00382838
0.0376261
0.0192497
-0.446388
-0.570742
-0.0535648
-0.603567
-0.40554
0.0361873
0.008521
-0.0164629
-0.071226
0.0231806
0.402006
-0.290321
0.392359
-0.00527232
-0.571375
-0.642257
-0.0183154
-0.00349825
-0.475684
-0.493267
-0.028325
0.00216832
-0.629638
-0.101951
-0.200421
0.0190995
-0.0178471
-0.158617
0.017089
-0.276296
-0.00491822
-0.570747
-0.0489449
-0.0188968
0.014084
0.123864
-0.0309084
0.0512915
0.00196813
0.0158261
-0.375221
-0.658604
0.130803
-0.186318
0.258269
-0.521623
-0.589061
-0.0536681
-0.584406
0.0373898
-0.0117117
-0.00741693
-0.571664
-0.590082
-0.0330844
0.147844
-0.0164508
-0.600108
0.0205018
-0.272689
-0.0101642
0.082528
0.387711
-0.614083
-0.661756
-0.0341922
0.0207935
-0.584889
-0.560488
-0.155737
-0.00988352
-0.646864
-0.20442
-0.616051
-0.451344
0.321142
0.414291
-0.00914383
-0.417004
-0.0222028
-0.638424
-0.155148
-0.0279473
0.0579366
0.0108062
-0.588344
0.0369402
-0.551018
-0.0319393
-0.659631
-0.662327
-0.197087
0.0410731
-0.106879
-0.614516
-0.0103337
0.0378787
0.0628075
0.0522405
-0.0305407
0.26642
-0.58449
0.0401642
-0.0181696
-0.589427
-0.613638
0.0146407
-0.625584
-0.0218668
-0.664536
-0.154597
-0.583829
-0.562107
-0.254421
-0.048414
-0.0179221
-0.471522
-0.669567
-0.602296
0.0182768
-0.0151663
-0.594025
-0.0672508
-0.568037
-0.647546
-0.0560263
0.131638
0.0310021
-0.030507
-0.266778
-0.659833
-0.653236
0.492949
-0.514779
0.0118653
-0.485822
-0.504281
-0.0192057
-0.610106
-0.00553163
0.0576119
0.0598646
-0.00175367
-0.0370788
0.414371
0.0309262
-0.228032
0.425262
0.0550014
-0.617516
0.0668274
-0.279047
0.0402906
-0.0556752
-0.00997029
-0.0661131
0.000949778
-0.589791
-0.613198
0.0366147
0.0198678
-0.257269
0.000257857
-0.00126034
-0.0350233
0.017833
0.0801096
-0.66096
0.266112
-0.581832
0.00939767
0.0214322
-0.236437
-0.00456797
-0.0309457
-0.627742
0.00700081
-0.54515
0.134795
-0.443348
-0.00422652
-0.0891153
-0.00866108
-0.0698854
0.0238665
0.014886
-0.0218192
-0.144847
-0.202202
0.0314422
-0.468011
0.0316553
-0.0351165
-0.58026
-0.57053
-0.0673434
-0.609692
-0.439164
-0.59989
-0.654768
-0.0677461
-0.658148
0.0307799
-0.599234
-0.168363
0.0643966
0.126363
0.00812967
-0.0486334
-0.00663148
-0.026914
0.0234933
-0.634982
0.0852683
-0.614322
-0.582556
-0.487804
-0.590634
-0.0834157
0.013385
-0.147933
-0.00700699
-0.269121
0.000296826
0.0361361
0.505374
-0.647727
-0.0606981
-0.029993
-0.491623
-0.146927
0.0251105
-0.554587
-0.0596427
0.123964
-0.611022
-0.0844724
0.0315848
-0.634362
-0.636488
-0.194472
0.013305
0.0213427
-0.641968
-0.630909
-0.016782
-0.509641
-0.023368
-0.0206173
-0.66351
-0.0345088
-0.657571
-0.085091
-0.352808
-0.586303
-0.48418
-0.5821
-0.00778784
-0.564909
0.0309508
-0.472135
-0.220687
-0.601715
-0.628664
-0.0264762
-0.0304555
-0.420021
-0.599243
-0.0908746
-0.550023
-0.0581869
-0.0423122
-0.0170367
-0.66954
-0.468688
-0.569601
-0.0519023
0.0684354
0.500393
-0.596806
0.126022
0.0186804
-0.0297819
-0.024076
-0.599861
-0.623528
-0.0010051
-0.047448
-0.618481
-0.0335423
-0.599067
-0.0291733
-0.579729
-0.138531
-0.599423
0.062394
-0.630071
-0.582714
-0.0252558
-0.24655
-0.0437785
-0.232806
-0.0817798
0.0380921
-0.0681241
0.306461
-0.0306391
-0.0717114
-0.596771
-0.0222882
0.0155491
-0.460243
-0.0112858
-0.613149
-0.0582071
-0.0655273
-0.0458189
-0.126383
-0.0582275
0.0170812
0.208479
-0.0212044
0.170621
0.0200841
-0.103185
-0.609184
0.0171933
-0.60551
-0.0832674
-0.651286
-0.651031
-0.653784
-0.594922
-0.129769
-0.259134
-0.152962
-0.599256
0.0521297
-0.248119
0.0466894
0.401124
-0.386497
-0.132142
0.000139845
0.381508
-0.396828
-0.66436
-0.0407329
-0.610617
0.103716
-0.280244
0.0355541
-0.225714
-0.602099
0.036397
-0.0465137
-0.650945
-0.035356
-0.0782495
-0.0336738
-0.121315
-0.0269626
-0.174457
-0.0112078
0.115636
0.00599009
-0.617377
-0.0424405
-0.59413
-0.548743
-0.639454
-0.599276
-0.0695053
-0.566825
-0.231507
-0.657386
-0.582314
-0.038589
0.179414
-0.346118
-0.0699085
-0.40564
-0.00451883
0.0361308
-0.0687778
-0.00366518
0.00640114
-0.00386032
-0.567021
-0.0222344
-0.022404
-0.119331
-0.0464592
0.235998
-0.651833
0.0535368
-0.241623
-0.457803
-0.12588
0.0208466
-0.586439
-0.548518
-0.577966
-0.40937
-0.158989
-0.0463657
-0.133423
-0.147258
-0.0599511
-0.510203
0.00365195
-0.0600173
-0.0303586
-0.635535
-0.598192
-0.667324
-0.0336237
0.0108759
-0.640077
-0.582961
-0.336238
-0.106334
0.24503
-0.666986
-0.00511584
-0.656166
-0.0429593
0.0695978
0.0744342
0.132299
-0.575989
-0.0579188
0.133176
0.0628971
0.0143336
-0.57342
-0.242769
0.0276604
-0.659158
-0.150379
-0.494415
-0.0127593
-0.574024
-0.173059
-0.111148
-0.0115531
-0.596661
-0.226646
-0.2512
-0.236405
-0.601562
-0.0912819
-0.66663
-0.0540798
-0.0368908
-0.665023
-0.113568
-0.00108533
0.250725
-0.0683633
-0.225861
-0.0219059
0.0312222
0.214286
-0.376399
-0.59651
0.000850315
-0.612001
-0.0303809
-0.0805628
-0.19754
-0.0303924
-0.0372664
0.0628234
-0.542925
0.0539301
-0.260262
-0.288694
0.0125604
-0.0142759
-0.0149202
0.0648329
-0.648138
0.0118016
0.0955003
-0.0207925
-0.463945
0.0115554
0.0740053
-0.0586785
-0.0218656
-0.618003
-0.388738
0.425466
-0.0148461
-0.579414
-0.147013
-0.0321708
-0.117569
-0.576318
-0.0864893
-0.0393969
-0.65068
-0.612294
0.0173668
-0.593436
-0.567137
-0.0545072
-0.0595331
-0.234566
0.0729489
0.0267345
-0.34064
-0.625084
-0.572891
-0.646309
0.0269972
-0.55306
0.00866464
0.00144131
-0.0314696
-0.58283
-0.0213496
-0.00673303
-0.668102
-0.598012
-0.0688282
-0.526838
-0.105561
-0.000344552
-0.625826
-0.111366
-0.353721
0.00621142
-0.189706
-0.0312585
-0.0932459
0.0287128
-0.329857
-0.0154806
-0.587229
-0.586531
-0.408588
-0.57174
-0.599882
0.105425
-0.609525
-0.529996
-0.278509
0.074176
-0.0360602
-0.588502
-0.612507
-0.528255
-0.315941
-0.143033
0.024169
-0.0212133
-0.665064
-0.580848
0.0114548
-0.0601146
-0.658142
-0.592135
-0.601017
-0.374879
-0.00851649
0.0674798
-0.611864
-0.590688
-0.0145227
-0.12555
-0.0172772
-0.265121
0.035376
-0.556521
-0.1473
0.0160579
-0.0505706
-0.603906
0.0289438
-0.0786847
0.0322076
-0.0115503
0.0161454
-0.362584
0.0530132
-0.485167
-0.655814
-0.600013
-0.616643
0.0134874
-0.547675
0.122805
-0.092911
-0.505943
0.0244381
0.0391658
-0.0376395
-0.00480652
-0.674298
0.131555
0.0247745
0.0143767
-0.0330605
-0.0308143
-0.0308168
0.0151891
0.0139551
-0.460927
0.0889837
0.00177133
-0.0824476
-0.283856
0.143764
0.00306557
-0.674149
-0.596589
0.0108263
-0.579785
-0.47927
-0.197897
0.0154422
0.0234754
-0.00874782
-0.23953
-0.573828
-0.441176
-0.041372
-0.492551
-0.668839
-0.600229
-0.0593656
-0.594606
-0.405256
-0.638483
0.134456
-0.577022
-0.038498
-0.597542
-0.643496
-0.550044
-0.00479186
-0.0466199
-0.0378351
-0.48048
-0.0285687
-0.402284
0.00428511
-0.314472
-0.129943
-0.63669
-0.633771
-0.0311445
-0.493268
-0.105203
-0.365205
-0.309154
-0.671949
0.0203904
-0.305462
0.252677
-0.434634
-0.599889
0.0243531
-0.589734
-0.53255
0.0338742
-0.621856
-0.361233
-0.0138243
-0.61289
-0.632082
-0.0181091
-0.152873
-0.63289
0.0348675
-0.606986
0.0234664
0.0221265
0.0388632
-0.154448
0.0024823
-0.0316413
-0.614866
0.028859
-0.0874163
-0.0548697
-0.602584
0.121451
0.021284
-0.0361763
-0.604347
-0.00320241
0.0580657
0.373019
-0.0284785
-0.597165
0.0141557
-0.125296
-0.573821
-0.343806
0.108838
0.0102029
-0.0252081
-0.0976
-0.492463
-0.0625507
0.00703174
-0.222781
0.0369121
-0.656833
-0.15312
-0.000372084
0.0152703
-0.109148
-0.0624738
0.355435
0.0486617
-0.0196782
0.427936
0.0192479
-0.517438
-0.53141
-0.0255081
-0.674418
0.0228291
-0.613297
0.0217456
-0.310185
0.04584
-0.352757
-0.182254
-0.00648919
-0.304651
-0.0665668
-0.587932
-0.654607
-0.502884
-0.369286
-0.230781
0.00900145
-0.0181347
-0.599072
-0.63177
0.0115503
-0.54917
-0.456386
-0.0200147
0.256359
-0.498144
-0.551456
-0.0362748
-0.622734
-0.560765
-0.62021
-0.588214
-0.660633
-0.660469
-0.233348
-0.00265316
0.119202
-0.147412
0.0184985
-0.0164722
-0.608858
-0.057926
-0.240866
-0.654596
0.0720057
-0.557982
0.146926
-0.561702
-0.358673
-0.266739
0.000879952
-0.57938
-0.00846513
-0.624182
-0.542194
0.013739
-0.259843
0.0389975
-0.578852
-0.658237
-0.224856
-0.506205
-0.0317763
-0.00532719
-0.598826
-0.138997
-0.579101
-0.0316209
0.00656557
0.000261004
-0.0171127
-0.162459
-0.00787588
-0.0207314
0.125858
0.106602
0.00174139
-0.39293
0.00934023
-0.0953061
0.0331372
-0.0565757
-0.414725
-0.602073
-0.352373
-0.610106
-0.595544
0.399253
-0.498753
0.103106
0.0586466
-0.600893
-0.0612171
-0.00939993
0.0169106
-0.0535203
-0.264178
-0.131402
-0.395055
-0.114517
-0.0213458
-0.613597
-0.654872
-0.532968
0.357007
-0.630013
0.00993046
0.0378599
0.0211217
0.0105288
-0.0198629
0.32961
-0.598481
-0.318137
-0.489687
-0.569583
-0.620895
-0.0619041
0.0270225
0.241889
-0.0379159
0.276911
-0.520856
-0.127956
-0.565118
-0.57103
0.16096
0.405773
-0.0314739
-0.0294646
-0.106234
-0.589993
-0.0458842
0.0225066
0.0541615
0.122128
0.0370254
-0.59164
-0.0792611
0.000359908
-0.00797247
-0.334283
0.047593
-0.0928637
-0.574917
-0.019092
-0.493441
0.0891258
-0.226573
-0.0204628
-0.587513
0.0383188
-0.372082
-0.32834
-0.655415
-0.032733
-0.614243
0.0168609
-0.0629344
0.158987
-0.0685853
-0.0698356
-0.0581214
-0.0307475
-0.639862
-0.432526
-0.0705836
-0.599351
-0.588343
0.0338645
0.00785075
-0.134539
-0.0531065
0.0576968
-0.638402
-0.0311116
0.0288936
-0.00354448
-0.591581
-0.544277
-0.109944
-0.661692
-0.175463
-0.510334
-0.666954
-0.07027
0.0290042
-0.350277
-0.0685054
-0.584237
-0.587746
-0.54451
0.0437018
-0.0871618
-0.637522
0.0250215
-0.569597
-0.599606
-0.550786
0.0398561
-0.00161383
-0.59987
0.104433
-0.0229519
-0.11385
-0.0314636
-0.00142567
0.096537
0.00460137
-0.613928
-0.0959884
-0.000907678
-0.435989
-0.00192479
-0.572148
-0.229154
-0.615031
-0.059898
-0.473539
-0.298161
0.0162024
-0.469038
0.0033717
-0.667674
-0.61417
-0.0730394
-0.636966
-0.0460312
0.0432094
-0.600062
-0.0295927
-0.581343
-0.183099
0.0294509
-0.607466
-0.0343845
-0.0639148
-0.000344687
-0.0229026
-0.0306672
-0.106346
-3.5424e-05
-0.0121926
-0.0320047
-0.0470927
-0.0489057
-0.653641
0.0139018
-0.585152
-0.571473
-0.081658
-0.590243
-0.00889789
-0.00901903
-0.590174
-0.659949
-0.198884
-0.646522
0.0781898
0.00704021
-0.148759
0.0224199
0.00336404
-0.0515133
-0.231539
-0.528896
-0.396103
-0.0984634
-0.0946679
-0.43137
-0.606535
0.0225201
0.304804
0.103664
-0.354037
-0.656623
-0.522477
-0.452373
-0.635193
-0.233175
-0.602749
-0.58504
-0.141122
0.0195933
-0.00555041
-0.603289
-0.0926218
-0.109588
-0.454552
-0.179124
0.092241
0.021801
-0.556385
-0.611821
0.118243
-0.600666
-0.0663384
-0.0677175
-0.572794
-0.0461327
0.0322508
-0.579888
0.00260571
0.115523
-0.624767
-0.620253
0.00451467
0.00556162
-0.638766
-0.290821
-0.543133
-0.00696068
-0.578523
-0.348876
-0.575419
0.00884428
-0.586884
-0.0338539
-0.0099032
-0.0534891
-0.00058373
-0.361603
-0.00980223
0.0552517
0.00999496
-0.0308818
-0.673884
-0.623453
0.00931555
-0.586134
0.110549
-0.534565
-0.671203
-0.657546
-0.0211317
-0.038834
0.331455
-0.0268563
0.0122253
-0.0155131
0.0958428
-0.328366
0.0347512
-0.61873
-0.587718
0.00520439
0.0491241
0.0127182
-0.00331444
-0.305496
-0.586713
0.0320829
-0.616198
-0.649506
0.0055392
-0.582458
-0.0464064
-0.6585
0.0191175
-0.0313168
-0.602445
-0.583551
-0.00441475
-0.60991
0.0950014
-0.639392
-0.0431601
-0.235451
-0.626384
-0.0899331
0.448551
-0.61226
-0.0668766
0.237337
-0.124557
-0.61332
-0.644043
-0.0696397
-0.658923
0.073726
-0.030245
0.0339292
0.300546
-0.591763
-0.0159662
-0.529319
-0.617973
-0.0555126
-0.546417
-0.028459
-0.605264
0.0251629
-0.345053
0.0561482
-0.0343692
-0.241823
-0.62056
-0.554085
-0.129292
-0.297137
-0.617027
-0.0851247
-0.321536
-0.644769
-0.534228
-0.607811
-0.659435
-0.400995
-0.183388
-0.0343782
0.0228042
-0.616501
-0.631141
-0.0480246
0.206404
-0.612941
-0.176277
-0.584913
0.1746
-0.659318
-0.606074
-0.104263
-0.627942
-0.120086
0.140714
-0.657014
-0.518832
-0.611471
0.078621
-0.601234
-0.637808
0.0181839
-0.0457051
-0.0567339
-0.0857752
-0.00618408
-0.017523
0.376621
-0.526583
-0.580762
0.0463339
-0.600965
-0.650319
0.129329
0.320254
-0.143085
-0.672588
0.403744
0.0261433
-0.59025
0.0403341
0.00244861
-0.033522
-0.619659
-0.0270895
-0.566754
0.0194925
-0.0221512
-0.0475631
-0.609808
0.175567
-0.220161
-0.389112
-0.607487
-0.661285
-0.585819
-0.0455058
-0.449099
-0.552162
-0.580933
0.0539669
-0.267424
-0.62497
-0.579263
0.0131666
0.0238165
-0.622248
-0.215329
0.223355
-0.575195
-0.629932
-0.619758
0.0162335
0.0127643
0.0340525
-0.252446
-0.338819
0.0384181
0.0240384
0.406212
-0.3536
-0.181231
0.0292937
-0.0303478
0.0111759
0.0538946
-0.0345597
0.100886
-0.030687
0.035842
-0.662035
-0.609773
-0.597684
-0.0470662
-0.156867
-0.510535
-0.0210665
-0.0548999
-0.0274183
-0.0282498
-0.569606
0.000173714
0.0241607
0.00806
-0.000567878
-0.0011827
-0.569574
-0.0224782
0.165734
-0.416499
0.0113398
0.00947582
-0.0373088
-0.33672
-0.254882
0.0110771
-0.000822176
0.142333
0.455258
-0.0560212
-0.164153
-0.107568
-0.580111
-0.0828894
-0.00353242
-0.0335995
-0.587882
-0.580292
-0.361126
0.000454998
-0.553603
-0.0343241
0.00732998
0.225961
0.00808927
-0.000453975
-0.298089
-0.20222
-0.0480724
0.0253107
0.0152384
-0.00365676
-0.252363
-0.033244
-0.532318
-0.63499
-0.129761
0.120598
-0.0553092
-0.357625
0.0184201
0.00219313
0.00712255
-0.231943
-0.11345
-0.0955257
-0.612068
-0.00248774
-0.240071
-0.0342569
0.0824207
-0.00738104
0.236343
0.0302581
-0.00275829
0.014726
0.107204
0.00551653
-0.558341
0.0398515
-0.619016
-0.475848
0.00174345
-0.631055
-0.230149
0.219811
-0.580258
0.0203979
0.01067
0.0131976
-0.306301
-0.103881
-0.0175906
-0.162536
-0.529636
0.0217328
-0.000401681
0.0181344
0.0244396
0.194077
0.0159284
-0.0148747
0.0279378
-0.0089304
-0.0172738
-0.0676396
-0.0168076
-0.499684
-0.321085
0.0279185
-0.0695627
0.0304168
-0.218257
-0.0562069
-0.587474
0.00339785
-0.0114178
-0.631875
-0.162143
-0.0476131
0.0324508
-0.0199022
0.00153701
-0.121815
-0.0292504
0.0382664
-0.487444
0.291197
-0.608524
-0.221383
0.0114941
0.0115324
0.284339
0.0908533
-0.459718
0.0190647
-0.632112
-0.00271767
-0.00562733
0.11742
-0.31624
-0.597399
-0.58109
-0.513247
0.00105507
0.0916917
-0.581749
-0.525954
-0.642336
-0.519071
-0.0303831
0.229087
-0.014654
0.0313358
-0.00114517
-0.106122
-0.0220673
-0.0334652
-0.666838
-0.0323036
-0.0328462
-0.120312
-0.0972136
-0.00915533
0.0238422
-0.546977
0.0662218
-0.0266022
-0.220593
-0.0202837
-0.390687
0.136845
0.0266337
-0.213828
-0.0101258
-0.252327
-0.00590381
0.184891
0.0148364
-0.602902
-0.00238117
-0.0608441
-0.0467243
0.00406531
0.0480346
-0.0225709
-0.597135
-0.662143
0.00421252
-0.537006
-0.626686
-0.0368763
-0.0102503
-0.581364
0.228131
0.156573
-0.587523
-0.0666914
-0.0226428
-0.00683274
-0.654327
0.00284927
-0.357127
-0.586854
-0.633617
0.053335
-0.0588037
-0.331863
-0.202322
-0.154748
0.273116
0.0989142
-0.585931
0.000562979
-0.660647
-0.574369
-0.674238
0.0388747
-0.511991
-0.0657513
-0.338234
0.0222798
-0.215308
-0.010461
0.425747
-0.184804
-0.0586469
-0.587162
-0.622895
-0.0462549
-0.603563
-0.0135613
-0.0350862
0.014443
-0.419145
0.00472118
-0.643688
-0.307232
-0.552397
0.0270675
0.0331754
-0.119231
-0.586777
0.0752625
-0.231101
0.0468389
-0.587027
-0.0648602
-0.30281
-0.59257
0.0502529
-0.601806
-0.224707
-0.361347
-8.70809e-05
0.0670671
0.1597
-0.0252897
0.230392
0.0400968
-0.0470237
-0.321444
-0.0266234
-0.468591
-0.0628927
-0.22887
-0.607274
-0.0881384
-0.600751
-0.595902
-0.561289
-0.635083
0.0548757
0.383419
-0.497161
-0.0575028
-0.00671509
-0.0470076
0.0209245
0.0771843
-0.349307
-0.0221889
-0.244613
-0.225738
-0.588025
-0.0293913
0.224948
-0.587729
-0.651291
-0.597534
-0.0469987
0.00715618
-0.029681
-0.49707
0.378291
-0.379497
-0.651795
-0.200011
-0.14505
-0.0179833
-0.11883
-0.0481086
-0.674744
-0.0393304
-0.022984
-0.566771
-0.152961
-0.258874
-0.126459
-0.582621
0.0752486
-0.0318046
0.0272898
0.0535027
-0.602953
-0.0197689
-0.0213876
0.353109
0.0154361
-0.0132453
-0.0319173
0.108601
-0.245045
-0.176869
-0.320538
0.078747
-0.0374561
0.114181
-0.294754
-0.588126
-0.293115
0.458238
-0.0315949
-0.02947
-0.633889
0.000967207
-0.0244429
-0.0176196
-0.0296558
-0.157722
-0.0728977
-0.59072
-0.500037
-0.0866325
-0.559939
-0.398642
0.0293695
-0.572307
-0.39146
0.443016
-0.020849
-0.0248653
-0.5941
-0.0303864
-0.0593549
-0.197265
-0.0086827
0.0355302
-0.657194
-0.260696
-0.276347
0.00583715
-0.0307978
-0.662713
-0.424296
0.0301252
-0.106733
0.0261378
-0.653077
-0.30061
-0.0088101
0.0263709
0.00107008
-0.604812
0.489811
-0.0870468
-0.00638988
-0.0651229
-0.0681679
-0.154399
-0.569162
-0.583886
-0.028166
0.018589
-0.620552
-0.0996107
-0.0291258
0.0221236
-0.0782394
-0.030462
-0.608334
0.0346721
-0.398609
-0.446766
0.0143935
0.0118425
0.0267078
-0.552657
-0.0266693
-0.64594
-0.581063
-0.342542
0.00120034
0.414898
-0.583869
-0.0308486
-0.598894
-0.299314
-0.636543
-0.0296104
0.0289276
0.370128
-0.0289345
-0.669136
-0.419457
-0.575199
0.0240868
0.0839203
-0.642265
-0.632111
-0.128889
0.0355916
-0.173706
0.000713877
0.515411
-0.634842
-0.592135
-0.254258
-0.000234681
0.00107212
-0.550643
-0.651026
0.0154429
-0.387879
-0.295907
-0.565719
-0.104426
0.0327383
-0.61798
-0.593569
-0.0268558
0.0530727
0.0265214
-0.323989
-0.14939
-0.18007
0.0209594
0.0402604
-0.11153
-0.643746
-0.673591
-0.571532
-0.125003
-0.540297
0.00897905
-0.570509
0.0279649
-0.63198
-0.662
-0.00403392
-0.0994968
-0.0165698
0.0187748
0.0215302
-0.220195
-0.573286
-0.0460344
-0.581505
0.0170375
-0.0904139
-0.566003
-0.535297
-0.178878
0.292922
-0.117293
-0.586372
-0.202924
-0.00569103
-0.00554649
0.0117478
-0.0057677
-0.0075673
-0.579446
-0.0339621
0.0426766
-0.0335727
-0.00370017
-0.0172496
-0.262181
0.0909429
0.000428856
-0.587208
0.0122772
0.0478197
-0.115054
-0.596223
-0.0305205
0.0190849
-0.0334869
0.0427817
-0.597232
-0.280778
0.0467207
0.0321737
-0.206408
-0.0171751
0.00532567
-0.577245
-0.390095
-0.512789
-0.0832115
-0.604589
-0.593049
-0.124556
-0.0370599
-0.648237
-0.0311794
0.0384741
0.0330856
-0.487599
-0.592949
-0.0209926
-0.288131
-0.605638
0.0342516
-0.00653777
-0.067323
-0.594509
0.0101552
-0.661809
0.0122415
-0.205506
0.19415
0.0018022
-0.596133
-0.398163
0.449422
-0.21275
-0.010332
0.0333997
-0.180829
0.0270148
-0.563232
-0.571874
-0.0502657
0.011066
-0.150428
-0.0190423
-0.435411
-0.488196
-0.635521
0.0409738
0.037038
-0.589543
0.0373799
0.245151
-0.0728371
-0.00423247
-0.644986
-0.457929
-0.0960989
-0.351723
0.489694
-0.25432
-0.194838
-0.0495447
-0.176331
0.0675619
-0.590328
-0.0638461
-0.581719
-0.26367
-0.0154559
0.0968479
0.0415149
0.00053778
-0.189952
-0.121135
-0.604289
0.00750847
-0.0615701
0.0259736
-0.611983
-0.0349454
-0.64004
-0.616349
0.0480268
-0.0347088
-0.61216
-0.052353
-0.574872
-0.616822
-0.62254
-0.0681241
-0.608326
-0.499043
-0.0468909
0.00657523
0.0512035
-0.00434622
-0.628927
-0.0122058
-0.327592
-0.107195
-0.219036
-0.621627
-0.233216
0.0347776
-0.0110745
-0.649122
-0.568719
-0.644038
-0.596871
-0.12581
-0.627532
0.00145933
-0.631183
0.280879
-0.405551
0.0480089
-0.427004
-0.433432
-0.584213
0.016522
0.30784
-0.0327205
-0.0309396
0.0160093
-0.0207654
0.0363339
-0.568178
-0.00771007
-0.40498
-0.480687
-0.602401
0.415079
-0.0433691
-0.12577
-0.0194386
0.0363668
-0.591947
-0.607827
-0.331435
-0.030441
-0.612626
-0.416327
-0.119417
0.333666
-0.640384
0.00435024
0.0376805
-0.567102
-0.63529
-0.0189865
-0.0285261
-0.207483
-0.0287074
-0.625307
-0.468648
0.110036
-0.0412274
-0.665697
-0.0162701
-0.0362843
0.0644268
-0.419061
-0.157841
-0.10783
-0.103022
-0.227457
-0.347989
0.0384288
-0.617785
0.309536
-0.634662
0.282582
-0.540733
-0.578548
-0.55609
0.248396
-0.0667072
-0.121425
-0.577814
-0.577615
-0.591404
-0.109172
-0.042288
-0.0328882
-0.286172
0.0405919
-0.582384
-0.58646
-0.59228
0.0823121
-0.0713086
0.0372068
-0.078216
-0.608244
-0.616764
-0.0251789
-0.573688
-0.661253
-0.595008
-0.203241
-0.604476
-0.020791
0.0180423
-0.652235
-0.0101567
-0.0513426
0.0728589
-0.656451
-0.581647
-0.0304663
0.299815
-0.659564
0.00762144
-0.195906
-0.100912
0.0880295
-0.664291
-0.651823
0.0400577
-0.598856
-0.565425
-0.000403872
-0.639739
-0.617635
-0.362847
-0.113558
-0.0134872
-0.67553
-0.0695759
-0.00941794
0.0414003
-0.327854
-0.117699
-0.62043
-0.627856
-0.0105834
-0.0375537
-0.637459
-0.622578
-0.609025
0.0280373
0.355582
-0.0144932
-0.589309
0.33179
-0.518827
-0.131162
0.000245904
-0.0319734
0.00141955
-0.675156
0.0810585
0.00781042
-0.6075
0.000615946
-0.0171478
-0.120475
-0.676643
-0.639221
-0.411662
0.0157353
-0.615036
-0.0307313
-0.030683
-0.343776
-0.594421
-0.647548
-0.562071
0.0479707
-0.62071
-0.401862
-0.00704206
0.474958
0.0280045
0.046908
-0.00860026
0.0398778
0.0479142
-0.0189954
-0.135307
-0.636018
-0.0154148
-0.0102401
-0.0730271
-0.144738
-0.33423
0.00551291
0.0323171
0.0168838
-0.443146
-0.00992234
-0.0137724
-0.0887992
0.0483753
-0.197026
0.0312251
-0.637572
-0.673652
-0.120398
-0.624186
-0.015846
-0.351581
-0.619386
0.011945
-0.0703084
-0.395769
0.36403
0.0488165
-0.035488
-0.57935
-0.636516
-0.236918
-0.035731
0.0711124
-0.622798
0.0177193
-0.616999
0.000488592
0.0524632
0.0521638
-0.582083
-0.086903
-0.00837415
0.0225541
-0.157731
-0.271569
-0.0123757
-0.347108
-0.580953
0.0365083
-0.611309
0.0293223
-0.219972
-0.460147
-0.00953205
-0.674742
0.506857
-0.0876953
0.0381864
-0.0126978
-0.219587
-0.600091
0.0236316
-0.566403
-0.606879
0.0487718
-0.0189218
-0.481935
-0.298193
-0.484158
-0.590048
-0.0509452
-0.606153
0.00894881
0.0270282
0.0693413
0.0535305
0.0148202
-0.0478307
0.0266994
0.00211256
-0.0670672
0.0027532
-0.5983
0.0421196
0.358527
0.0111437
-0.0312382
-0.429961
-0.583374
-0.638625
-0.103366
-0.298585
-0.0814049
-0.0272837
0.0360533
-0.0830584
0.0906862
-0.285395
-0.631217
-0.589437
-0.221558
-0.601887
-0.0363688
-0.585711
0.0352601
-0.105606
-0.624444
-0.0571056
-0.624222
0.0270088
-0.632212
-0.573142
-0.252372
-0.629657
-0.235214
-0.658121
-0.0220215
-0.0314085
-0.00163149
-0.574481
-0.301208
0.0355734
0.0251414
-0.0505748
0.0401781
0.00119794
-0.663089
-0.412342
-0.0496646
-0.401894
0.00225388
-0.320099
0.296201
-0.660199
-0.035687
-0.577543
-0.0150861
-0.651587
-0.632332
0.0720061
-0.271905
-0.0929467
-0.345169
-0.578468
-0.656783
0.0863653
-0.105897
0.0832895
-0.0819106
-0.103107
-0.374835
-0.152762
-0.305965
0.0234442
0.0659737
0.0735056
-0.0479246
-0.00920925
-0.0682407
-0.590908
-0.0298222
-0.188611
-0.201146
-0.0144336
-0.401754
-0.662162
-0.368803
0.00865808
-0.00787056
-0.609394
-0.0379213
0.0316345
0.0067792
0.0462863
-0.105293
0.0873015
-0.0545275
0.376438
-0.0944375
-0.294258
-0.625859
0.0113489
-0.591306
0.039078
-0.641662
-0.209726
0.112955
-0.0321209
0.0388422
-0.627752
-0.0238065
0.0562962
-0.579087
-0.0868735
-0.0390712
-0.395276
-0.551923
-0.013657
-0.0285984
-0.628102
-0.597501
-0.648642
-0.0447967
0.0122954
-0.593488
-0.03757
0.0228449
0.0613617
0.041508
0.121747
-0.0205171
-0.63072
-0.114109
0.28503
-0.0162331
0.0340192
0.0889834
-0.663815
-0.585341
-0.514616
-0.0611995
-0.57807
-0.492135
-0.591771
0.0253405
-0.0392064
-0.644416
-0.0183446
-0.638914
-0.596095
-0.592148
-0.0145396
-0.0306884
-0.0158277
-0.0596205
0.0664783
-0.593017
-0.618813
0.176843
-0.50444
-0.021237
-0.628284
-0.0080931
0.0330949
-0.648903
-0.627716
-0.0320913
-0.0918204
0.464354
0.0183639
-0.598771
-0.119522
-0.583635
-0.0023143
-0.619812
-0.531498
-0.0847524
-0.462931
-0.616805
-0.574767
-0.388989
-0.270824
-0.132829
-0.473318
0.0172414
-0.0482537
0.0201751
-0.504753
0.0394213
0.0358393
0.0119878
-0.26835
0.0385769
-0.0338321
-0.654899
-0.565573
-0.312914
-0.614397
-0.647205
0.014413
-0.378123
-0.66164
-0.171766
-0.00865887
-0.0219112
0.0657005
-0.620407
-0.559853
-0.593501
-0.014419
-0.664237
-0.666603
-0.571087
-0.585714
-0.0336908
-0.305972
-0.0206208
-0.0322642
-0.584464
-0.424317
-0.0179318
0.0287637
0.00117884
-0.012426
-0.572862
-0.571601
-0.593324
-0.04334
-0.604895
-0.0489092
0.426703
0.504359
0.330815
-0.0459545
0.0275121
-0.606551
-0.00919177
-0.570409
-0.016254
-0.47234
0.0594273
-0.24357
-0.645671
-0.0692067
-0.614769
-0.184742
-0.585811
0.0462441
-0.67516
-0.0135508
-0.652101
-0.658148
-0.571536
-0.578178
0.051359
-0.584777
0.040698
-0.172105
-0.306439
-0.624367
-0.0793656
-0.00914963
-0.660197
-0.0411486
-0.0622614
-0.624715
0.00718576
0.0146867
-0.585467
-0.659252
-0.631577
0.0287019
-0.628968
0.0212344
-0.0760986
-0.656833
-0.0807461
-0.0467444
-0.573676
-0.598198
-0.143393
-0.581867
0.00563375
-0.232145
0.473929
-0.574542
-0.12649
-0.241749
-0.673911
-0.585203
-0.572144
-0.0282726
0.0850091
0.143456
-0.0675168
-0.0289127
-0.111313
0.0395518
-0.570679
-0.613586
-0.0243421
-0.0354405
0.0325928
0.17931
0.0114046
-0.600425
-0.285067
-0.503266
0.371817
-0.0488293
-0.0332276
-0.357457
-0.0334859
-0.649724
0.0256207
-0.60876
-0.4139
-0.588748
-0.271818
-0.0186954
-0.171249
-0.663268
-0.2793
0.0172192
-0.618781
-0.0164145
0.0564131
-0.177199
-0.184118
-0.577315
-0.576363
0.212681
-0.633103
-0.596632
-0.129931
-0.594395
-0.219216
-0.660019
0.111679
-0.0310013
-0.675202
-0.591475
0.109774
-0.663158
0.0388362
-0.153505
-0.0359768
-0.126374
-0.590335
0.0513068
-0.0360658
0.0404737
-0.301783
-0.608607
-0.610131
-0.0107215
-0.648642
-0.347963
-0.646092
-0.592157
-0.507779
0.0322001
-0.591422
-0.592549
-0.0226572
0.104961
-0.0531928
-0.0122193
0.0282907
0.184334
-0.593401
-0.146834
-0.554895
-0.0237513
0.0230381
-0.408704
-0.347476
-0.522796
0.116405
-0.0598425
-0.551046
-0.612836
-0.5364
-0.595555
-0.594049
-0.557948
0.26777
0.0653729
-0.629648
0.00906736
-0.602281
-0.616568
0.348967
-0.656935
-0.661084
0.00801506
-0.019932
-0.493357
-0.342656
0.281933
0.0304583
-0.0220926
-0.572826
-0.576818
-0.532299
-0.185019
0.0563913
-0.00986413
0.0126581
-0.00899152
0.0590113
-0.186302
-0.0483361
-0.585164
-0.567024
0.036554
0.024184
-0.00916993
0.415133
-0.20184
-0.643647
0.0200325
-0.0159166
-0.375968
0.000642052
-0.424803
0.288415
-0.278856
0.36259
-0.59028
-0.0185264
-0.63932
0.231313
0.0343587
-0.132817
-0.0362502
-0.624318
-0.0847188
-0.587378
-0.595563
0.000197078
-0.674707
0.0870094
0.341102
-0.188557
-0.14116
0.210472
-0.58092
-0.0346662
-0.60667
-0.118803
-0.532951
0.0376771
-0.661638
-0.328595
0.0302804
-0.591742
-0.459752
-0.018349
-0.0546846
-0.548589
-0.123748
-0.609832
-0.161146
0.500241
-0.577276
-0.627663
-0.66203
-0.585008
-0.000376312
0.00956643
-0.623392
-0.613451
-0.610174
0.0485814
-0.0470232
-0.210033
-0.597793
-0.562053
-0.60535
-0.618829
-0.606985
-0.0370334
-0.0415355
-0.0160262
0.000487682
-0.189833
-0.0278627
-0.473342
-0.297299
-0.500962
-0.626578
-0.00479515
-0.0322913
-0.661806
-0.209069
0.0403975
-0.674353
-0.593745
-0.490286
-0.0791008
-0.636664
-0.579145
-0.587263
-0.665769
0.0388437
-0.0320591
-0.633479
0.173616
0.0994472
0.0343635
-0.493993
0.121127
-0.199853
-0.0287631
-0.647358
-0.508421
-0.605253
0.0301374
-0.189271
-0.629079
-0.450802
-0.621337
-0.619385
-0.576828
0.0156188
-0.129469
-0.333085
-0.602937
-0.0912338
-0.150206
0.0365418
0.00222142
-0.051967
-0.590442
-0.644172
-0.664471
-0.0522974
-0.626663
0.000892326
-0.0871861
0.0930327
0.190475
-0.0636862
-0.277797
0.109858
-0.00162044
0.0127121
-0.0717707
0.269012
-0.584102
0.0461762
0.00746055
-0.659735
-0.652494
-0.0413627
0.146176
-0.0889636
-0.0187849
0.0160305
-0.607243
-0.663661
0.436041
-0.307375
-0.583157
-0.234911
-0.590578
-0.663562
-0.590012
-0.66929
-0.00715583
0.352946
-0.530322
0.00202215
-0.668138
-0.0216946
-0.591336
0.00191689
-0.59427
-0.615613
-0.0381527
-0.651966
0.209602
-0.589975
-0.162761
0.0131137
-0.534886
0.00704112
-0.00774897
-0.592286
-0.608579
-0.0352507
0.169613
-0.198402
-0.0606055
-0.0356118
-0.124463
-0.625666
-0.0826629
-0.594076
-0.130193
0.040099
-0.589597
-0.603567
-0.625216
0.0967799
-0.0321418
0.0467325
-0.594895
-0.0302734
0.108248
-0.533875
-0.614619
-0.0230386
-0.60418