/*--------------------------------*- C++ -*----------------------------------*\
| =========                 |                                                 |
| \\      /  F ield         | OpenFOAM: The Open Source CFD Toolbox           |
|  \\    /   O peration     | Version:  v2012                                 |
|   \\  /    A nd           | Website:  www.openfoam.com                      |
|    \\/     M anipulation  |                                                 |
\*---------------------------------------------------------------------------*/
FoamFile
{
    version     2.0;
    format      ascii;
    class       volScalarField;
    location    "100";
    object      ddt0(omega);
}
// * * * * * * * * * * * * * * * * * * * * * * * * * * * * * * * * * * * * * //

dimensions      [0 0 -2 0 0 0 0];


internalField   nonuniform List<scalar> 
18598
(
0.00248324
-0.135296
2.67274e-08
0.0229026
2.8971e-06
0.00261725
-0.0234612
-5.19755e-07
-0.0230461
-0.151395
-2.59275e-06
-0.211037
1.72626e-07
-0.187096
-5.71605e-07
0.00604727
0.386025
0.00071125
-8.20836e-05
-0.460407
1.37123e-06
6.71526e-06
-0.331916
-5.51086e-06
9.0337e-07
0.31975
-0.133108
-1.41211e-07
-0.0679064
7.73566e-05
-1.7199
-7.27486e-07
0.000135369
0.0192928
-0.0107191
0.0126927
1.41606e-06
-5.82862e-06
1.7567e-06
0.148224
-0.00678028
-0.666884
0.0167298
-0.215911
0.000113503
0.000336022
1.05744e-06
0.839205
7.55786e-06
8.50725e-07
-3.1394e-07
-2.16365
0.0514452
-0.104278
4.26545e-06
-4.43576e-07
1.90657e-06
-5.23543e-08
-5.47057e-07
0.00107657
-0.0663086
-0.181245
5.03882e-07
8.08991e-07
-0.0252618
1.99724
1.54002e-06
-5.93448e-05
1.90579
5.19682e-07
-0.000629223
0.0164798
1.2544
0.0166136
5.72499e-07
-0.0120558
-5.65415e-07
-5.35489e-07
0.0193557
-0.000463271
-0.507225
0.000276339
-2.26529e-07
0.243768
6.85274e-05
-1.55968
7.15684e-07
-0.00470906
-2.28857e-07
-0.00105789
-0.00108597
-0.0786491
-0.000154639
0.0549157
0.304381
-6.73488e-06
0.351685
-2.64711e-06
-0.522739
0.0023944
1.82794e-06
-5.37788e-08
-0.00281181
-0.00330007
0.0312632
-0.000206468
-0.0130339
-0.234715
2.12628e-06
-0.00684575
0.00397095
-0.0955401
-3.03655e-07
-0.0072147
-0.0302578
0.000102262
-0.535588
0.00223382
0.000422629
9.70331e-07
-0.183826
-1.67628e-06
-1.4776e-05
0.00330107
0.320261
-0.000215704
-0.000119691
-0.0057967
0.033463
-5.5362e-07
2.28312e-05
0.0328073
-0.10378
-0.000415391
2.26459
3.66553e-07
0.0118321
1.41966e-06
1.14724e-06
-0.0186049
0.0238102
1.07423e-05
1.69565e-06
-0.212522
-5.80724e-06
-0.000214682
-1.54615
0.00498164
-2.70832e-06
0.000711846
-0.000161444
-4.80467e-05
-3.54302e-06
0.183928
-8.61891e-06
-5.28028e-07
0.238887
-0.000215668
-9.0698e-08
0.000530734
-0.00949674
0.0220926
6.91995e-06
2.74217e-06
7.74457e-07
0.0972028
-0.029995
-1.61339e-07
0.0339004
0.00962888
4.91796e-07
0.0129463
-0.139802
-0.0353165
-0.000550209
7.31554e-06
-0.137565
2.09013e-05
1.69553e-05
0.0379324
0.00713731
0.223728
0.056775
-5.42906e-06
0.0439371
-0.00123707
-0.202071
0.139255
1.27595e-06
-0.105177
-4.50697e-05
9.37784e-07
0.025075
0.268305
-0.00524543
-2.57526e-07
-0.527109
-0.132949
-0.00555091
0.0383803
0.123049
-7.26747e-07
0.012067
3.06926e-08
-0.00116037
-0.0569425
-0.534742
-4.46375e-06
-9.19634e-05
-4.04407e-05
-0.00109806
0.391726
-1.91771e-07
-0.00371378
0.0147626
-0.0140715
0.0218268
4.37176e-05
-3.32436e-07
-0.0184935
-9.21779e-07
-3.03079e-06
-0.000294286
4.52464e-07
-0.00709211
7.16681e-06
-1.34671e-05
7.19565e-07
-0.255027
2.13976e-06
-0.0834891
0.206121
-4.23241e-06
2.18628e-06
-0.0360619
-0.24206
-9.41167e-05
-0.000734404
-9.87872e-07
-1.00841e-05
0.000135891
0.0119052
-0.0843516
-2.01489e-06
-0.012863
-0.000255279
0.00336274
1.09688e-06
-0.00738352
-9.97633e-07
0.275602
-0.00688224
-0.0139425
-0.189908
-0.0229103
-0.41982
0.00686502
1.90917
1.16192e-06
0.248393
-0.000540595
-0.0167829
1.78455
-1.25838
-1.05854
5.41223e-05
-9.03344e-07
-0.498799
-0.0120076
-0.000428346
-1.79668e-07
-1.63906e-06
-0.00413699
-3.74355e-06
1.75467
-0.031182
0.104456
0.364945
0.0107969
-0.00638102
0.0106183
-0.0658722
0.000325764
0.0667599
0.277273
-0.000602469
-0.0106451
0.017847
2.05532e-06
-0.220121
-0.00460393
0.354249
0.0466523
0.406157
4.06974
-0.00707718
-2.7707e-06
-0.148208
-0.00529074
-0.00709406
-0.178247
-0.187045
-0.00631146
0.350743
0.000209788
-0.00213516
-0.0354745
-0.000261585
-0.0831337
-0.0731194
4.62395
-1.91171e-05
-0.039804
0.00660437
-0.0135815
-0.00843881
0.0081912
4.40965e-05
7.55073e-07
-1.78956
-6.38861e-05
-0.190221
-1.44723e-05
-9.20898e-05
-0.000607256
0.0312108
8.05331e-09
-0.0396996
-0.0110051
-0.000251197
0.00028866
-6.1184e-05
0.444997
0.0931765
5.44666e-07
0.105032
6.5625e-05
-0.159458
0.00121822
-5.41203e-06
0.00823802
0.0423887
-0.0166569
0.282418
-1.54567e-05
-1.83804
0.224081
0.106439
0.178151
0.0181243
6.08071e-05
-0.000458275
-0.000143393
0.0454037
0.014606
-1.9572e-05
-0.00384251
0.213053
0.0201387
1.33014e-06
8.59991e-07
0.365351
9.92909e-07
1.99007e-07
-2.39103e-06
6.58644e-06
0.142864
-0.171018
-0.00989311
-0.0988633
0.00570084
-2.04758
-0.00139607
0.122336
-5.40541e-07
1.06223
-0.00647382
-0.000400783
1.19734e-06
0.125732
-0.459069
8.01938e-07
-0.00561354
0.0176856
-4.40447e-05
-0.453565
-5.72938e-07
1.07753e-08
-4.62276e-07
0.00149762
-0.174457
-0.000188998
-5.21941e-07
1.93535e-05
0.267934
3.18214e-05
-1.9876e-05
-4.69353e-08
0.0819242
-0.000595739
5.21114e-05
1.04439e-06
7.4141e-08
4.22949e-08
0.420528
0.279748
-2.16726
0.103289
0.360108
0.0189496
1.02112e-06
-1.03181
1.33966e-06
0.000158129
0.0171576
0.014447
0.00200574
-0.00782519
-15.5287
-0.00788736
0.000113413
-1.64233e-06
2.32612e-08
-1.15211
-0.000133292
-0.000112417
-0.000194942
-0.000288319
-0.025024
-1.64663
3.87983e-06
-0.0104998
4.40013e-05
0.0652789
-0.0358817
-1.52658
-1.56353e-06
8.30679e-07
0.154902
-4.4996e-07
2.73985
0.00492418
-5.96217e-07
-1.8733e-05
-1.02433e-05
-1.21369
-0.0484605
0.00681566
-6.42068e-05
0.0235466
-1.67618e-06
0.335735
0.0184965
3.79008e-09
-14.5697
0.0031448
-0.000133142
2.56838e-07
-0.00014827
4.45657e-07
0.102941
-7.06777e-07
6.52266e-09
-0.0636959
-0.00582686
-2.69033e-07
0.327467
1.3218e-06
-0.116239
-7.62846e-05
5.43631e-06
5.89035e-05
1.8077e-07
0.0613697
-2.78767e-06
-1.02254e-06
0.00321578
-5.24433e-05
-0.485321
0.0322279
-1.357e-06
-3.10525
-0.0265379
-0.00323156
-7.24238e-07
2.84612e-05
-4.63206e-07
-4.6018e-07
0.00949704
-6.29538e-07
8.9651e-05
0.00932945
0.00621204
-0.0427299
-1.72793
-0.000353224
0.0154378
-0.0299363
-0.52022
5.82667e-07
-0.164595
0.0916923
-2.51271e-05
-0.0864837
-3.40304e-05
-1.63443e-05
-0.0541117
-2.50198e-05
-8.44828e-06
-0.19601
-0.00818393
-0.000157501
-8.59595e-05
1.77409e-06
-0.00445644
-9.30678e-06
8.7367e-06
0.174582
0.0770795
-7.95232e-06
6.91457e-05
0.397942
-0.000599848
4.76726e-05
8.44978e-05
-13.0942
5.50005e-05
7.0677e-08
-3.82762
0.0928942
1.30232e-06
-0.0121807
-4.16785e-06
5.06593e-05
-0.167642
-0.138917
-0.0800006
-4.85006e-06
-1.22891e-05
4.26987
9.00922e-05
0.402557
1.33589e-06
-3.08787e-06
-1.29279e-05
-0.0577478
-5.48527e-06
0.0460228
8.18972e-07
1.01798
-0.111538
-1.62932
0.00276044
-2.34415e-06
3.26777
-1.38442e-05
0.339284
-0.146754
-3.14565e-06
-5.50665e-09
-0.738155
0.0196694
0.0046975
-0.00344324
1.43381e-07
-0.417422
-2.63173e-06
-6.39909
6.1336e-05
0.000247927
8.7724e-07
-0.272204
1.89944e-06
0.00346539
0.56478
-0.36962
2.16371e-06
-0.0131329
1.23356e-06
-0.000137381
-0.0665923
0.0618008
-0.109574
-1.28352e-06
1.263
-0.0652955
1.05874e-06
0.142772
2.02606e-06
4.0002
-0.0251697
3.21351e-05
-0.470118
4.88279e-07
-0.0227192
0.256927
-0.00175017
-2.18013e-07
-4.0743e-07
4.80337e-06
-0.00108637
-4.32854e-06
0.000175703
4.5305e-05
6.63557e-06
0.12881
2.16275e-06
0.0089806
6.7634e-09
3.1419e-07
0.019829
-0.0593144
0.0637
4.83705e-06
-0.540601
-5.00821e-06
-8.76911e-05
2.07929e-08
-9.75169e-06
1.01566
0.00693397
-6.90295e-06
3.54987e-08
0.00595769
-1.64833e-07
-2.76198e-05
-0.0549152
6.54051e-07
1.82176e-07
-4.67874e-07
7.53674e-07
-6.94572e-05
2.05554e-07
-0.198001
4.1932e-06
-2.45644e-06
0.0090314
6.73099e-05
0.0480091
0.23644
0.000565089
1.57671e-06
-9.90531e-05
-0.012369
-1.51518e-06
-0.000360116
-5.48448e-07
-1.08837e-08
0.232138
-0.193239
1.24937e-05
-3.98447e-07
-7.89137e-05
-1.82158e-07
-5.08277e-05
0.0691148
0.338907
-0.0371687
-7.81423e-05
0.055801
-2.87062e-05
0.000334998
0.0018567
0.0344149
-0.0066132
0.335346
-6.98043e-07
9.60291e-08
0.05985
-2.02775e-06
2.28091e-06
-0.115735
2.80654e-06
0.183763
0.000339688
1.77004e-09
3.23674e-06
4.34238e-07
0.0583367
-0.0146389
0.00170158
6.59747e-06
-3.70768e-05
1.29342e-06
-0.00959345
0.0748441
-0.000490422
0.327015
-2.50913e-07
-1.4248e-05
-7.58683e-05
4.41589e-05
9.47848e-08
-0.00601809
3.95567e-06
0.134953
0.973106
0.0249999
6.057e-05
-9.4741e-07
1.68571e-08
-0.0457978
1.83244e-06
0.0832558
-7.87435e-05
-3.87426e-05
-0.0359968
0.0226062
0.0115563
1.13944e-06
-0.0248542
-1.75613e-07
0.312585
-2.10949e-05
-0.413561
-0.0244561
-0.325764
0.0019348
-4.06826e-09
-0.00331493
0.00891086
9.75191e-07
0.350194
-0.506983
0.000210129
-0.000171268
1.03988e-07
-0.0108934
2.17726e-05
6.03576e-07
1.18047
2.55118e-05
-0.0207037
-0.31011
1.44354e-06
-0.0710246
-2.51127e-07
1.15804e-06
0.818466
-0.0451245
3.26916e-10
0.000874866
-2.97027e-07
0.00540753
1.63812
-0.0876831
-0.172359
0.132221
0.305581
0.00156781
0.0588
-1.00584e-07
-0.000536762
7.85227
1.95734
0.00846912
0.0130549
0.217262
0.272782
0.206314
-1.37376
0.00939588
1.54024e-05
-2.76519e-06
-0.044638
-3.20695e-06
0.457114
-0.0126091
8.21921e-06
1.79653
-0.00581032
-6.56727e-05
1.38109e-05
6.91984e-07
-4.0973e-09
-1.06969e-06
-0.0261817
-0.00201887
3.93789e-08
0.151901
1.21241e-06
0.0144543
-0.00736265
-0.94543
6.35705e-06
-0.325017
-3.93512e-06
-2.09104e-06
-0.00051492
-0.135186
-0.00763567
9.49376e-08
1.01687e-06
9.97822e-08
-0.00883995
7.94995e-07
0.388317
-0.177782
0.195243
-0.28136
-1.01658e-05
0.0002571
-0.0840401
1.00619e-06
8.89662e-05
-3.26095e-06
-1.30763e-06
0.37676
-3.22205e-07
4.86645e-07
0.000922898
-0.0248575
-4.00061e-05
0.234849
-0.746874
-0.00534101
-0.000965486
-3.03385e-06
7.44121e-07
-3.51713
3.54554e-09
3.79561e-05
7.77084e-05
5.30783e-07
-3.59508e-07
1.64753e-06
0.202127
-0.368215
1.60477e-05
-2.10336e-05
-0.107999
2.65441
-1.40406e-06
4.06919e-07
-2.06598e-06
-0.000773331
0.206452
-0.0268019
0.0432356
-0.0164873
-5.91164e-06
0.0244824
1.86937e-06
0.0012452
0.000723627
-4.1132
-1.24222
6.86773e-06
0.0061062
3.4482e-06
-0.000244069
0.00336631
-1.03159e-05
-9.63582e-07
0.00637464
0.0138854
1.81067e-06
0.00504245
0.13759
-0.121915
0.105161
0.0171519
8.67767e-07
2.36602e-05
3.51971e-06
-8.43709e-08
-0.288396
-0.136231
0.0198543
0.00235226
1.46614e-06
-0.0307699
-1.03532e-07
-0.0353171
1.41985e-06
-2.6303e-06
0.0308988
2.20621e-06
-0.000864677
0.00916354
1.76671e-05
1.1211e-08
-7.45055e-06
-0.000309027
-0.0325903
-0.15942
-0.00146667
3.51453e-06
0.000533376
1.66458e-07
-0.85738
0.146753
-1.791e-06
-0.000100315
-1.18569e-05
-0.000768439
0.0139816
6.13826e-07
0.140529
-0.0308398
5.08053e-09
-0.127435
0.0391776
-3.13745e-06
0.211726
-1.01973e-07
3.9401e-07
-0.0411461
-1.31885
-0.000194952
-0.275939
2.10795e-06
-0.225481
-6.63204e-07
8.10024e-08
-1.51807e-05
-6.66429e-07
0.0015561
-8.43376e-07
0.0108525
1.41336e-07
-0.64222
-0.265936
0.0316947
2.24416e-06
-1.54164
0.0379593
-0.00129374
-3.04102e-07
5.61552e-06
-3.24402
5.02548e-06
1.88112e-06
-0.00419242
-0.00504447
1.36056e-07
-1.64616e-06
2.10988e-06
0.00428646
0.0711626
1.52258e-07
9.37586e-07
3.25185e-06
0.0329944
1.59487e-07
-2.28425e-08
5.69144e-08
-0.012976
-3.37335e-06
4.97808e-06
-7.65028e-07
-0.0065915
-2.65355e-05
-1.12307e-06
-0.397726
-7.58214e-06
-0.158568
0.000349791
1.39906e-06
0.442852
0.241983
0.0173535
-0.601099
2.44116e-06
0.0291694
3.4204e-07
-0.427741
-0.0315162
4.18944e-07
0.000481184
0.154388
-2.35995
-0.0283242
-1.96862e-06
-0.335444
-0.000193123
0.000242667
1.04106
0.0297807
3.28893e-07
9.84109e-07
-0.000211112
7.00884e-09
1.93278e-05
-0.000158442
-0.172221
-0.00339989
0.0415761
1.02362
-0.000613333
0.226452
-0.558614
-5.19073e-08
-0.0121812
0.0196009
-0.00049039
0.800712
0.765258
0.265345
0.0442256
-0.0003462
-0.000786393
1.61995e-06
-0.00127316
1.04659e-08
0.0138799
-0.0821643
-0.000131552
-6.43783e-06
-0.0417368
-2.03226e-05
-0.0413216
9.90446e-07
1.14651e-06
-2.67956e-05
-1.55589e-06
-0.0258513
-0.398988
-0.0364074
-5.02549e-05
9.21225e-06
-0.000603152
-5.07827e-07
-2.48211e-07
2.88819e-05
4.74261e-07
-0.480716
-0.000377486
-4.80168e-07
0.196088
-0.000113953
0.563966
0.0645067
-2.65833e-06
0.0676117
0.00324063
-4.60477e-05
-2.3287e-07
0.00500686
-7.48609e-08
0.256275
-0.072821
6.7734e-06
-0.442336
0.00128158
0.00118323
-0.00979791
-3.97197e-07
-2.6388e-07
1.44709e-06
-0.000256385
-0.00621388
7.58056e-05
-0.981718
-0.000122736
8.10111e-06
1.07858
-0.000124061
0.0806563
-1.98772e-05
-4.96669e-05
-0.031532
0.0434696
0.00249064
-0.304338
-0.00773401
9.68018e-05
-0.121747
-3.17143e-07
-0.0211069
-3.86882e-06
0.330254
-2.21334e-06
-0.157092
9.13312e-06
-0.556939
1.49972e-05
-0.413767
3.39461e-06
0.0421618
1.85436e-05
-1.48353e-06
-0.00310545
-1.64886e-06
0.0255393
-0.674704
4.30502e-07
-0.49118
0.00175469
0.335628
-2.49743e-06
-0.00221674
-5.05781e-06
-0.00555323
0.0600214
-1.82079e-06
3.65046
0.0566527
-0.0418065
2.26881e-07
-0.0156399
-0.00015041
-5.88689e-07
-1.24781e-06
0.292886
0.00238544
4.06388e-06
0.182701
3.15265
9.84695e-07
0.093402
0.246646
-0.00829703
-1.43326e-05
0.0145623
-0.115544
0.0695416
0.0129653
6.3198e-05
-5.18298e-05
5.23504e-05
-3.35773e-05
-0.101721
4.01829e-10
1.9252e-06
-1.63823e-06
-9.92176e-07
1.83431e-06
-1.57914e-05
0.0403841
0.238582
1.6123e-06
0.073608
-0.0179337
-0.050819
5.20708e-06
-0.000379153
-0.0131808
-0.0106434
0.00497709
-0.403877
1.96692e-08
-4.85694e-07
-6.53263e-05
-1.43629e-07
-5.21956e-07
-1.71841e-05
-0.342031
0.167429
0.0122584
7.86179e-06
2.22696e-05
-1.87965e-07
-2.17106e-07
1.0939e-05
-0.258115
-0.215667
-0.0578719
1.01178e-06
3.38867e-06
-7.53735e-05
-0.122513
2.14437e-05
0.282453
1.41344e-07
0.63781
-0.132848
4.90878e-06
9.36436e-07
-2.02996e-07
-2.3143e-09
-0.014853
-9.20634e-05
-0.000555004
-0.00277001
-0.445541
-0.358595
-0.00285627
0.00192942
-0.000352209
-0.0657353
9.59746e-09
-0.81506
-0.00103033
-0.00101412
0.00164012
-0.00160878
-1.09571e-05
-4.19977e-05
0.0172271
1.34294e-05
0.009329
-4.09771e-05
-0.598579
-1.73156e-06
-0.000722465
-0.00198175
0.307389
0.00514966
-0.50003
1.26209e-06
-9.16353e-07
-5.95965e-06
-0.371374
9.19229e-07
-6.84473e-06
-0.0147853
-0.00234078
-0.00477893
-0.0206883
0.0151401
0.222658
-2.67065e-06
-1.16356e-07
3.68167e-06
0.00772707
1.90671e-05
-0.0183739
-2.19311e-08
-6.09261e-06
-0.0185074
-8.40296e-06
-2.10343e-06
0.0165212
-0.016428
-0.291496
1.61891e-06
1.13612
3.1288e-06
0.855573
1.27397e-05
-0.261657
-0.00965605
-0.0297004
-1.07779e-06
0.00186846
1.66435
-0.011161
-1.86224e-05
0.0676142
-9.65792
0.389926
3.72876e-06
0.353043
-0.0110315
-0.347292
-0.0102905
-0.162226
0.363464
1.01e-05
1.38468e-07
-1.96132e-07
-7.03538e-06
-7.04107e-06
1.43651e-06
1.63304e-05
2.07916e-05
4.5346e-07
-0.477635
-0.0829578
1.94608e-06
0.264933
2.06597e-07
-0.135254
1.38842e-06
-4.23667
4.78767e-07
-2.96833e-07
-0.019436
6.9254e-05
-2.057
-2.17345e-07
8.80855e-07
-1.92049e-06
-0.496633
2.02213e-09
-3.42217e-08
-0.0211209
0.864187
-0.272555
-1.20271e-06
-0.000968348
-0.0258087
-6.98037e-06
-3.55846e-06
0.000457172
-6.99825e-07
8.54733e-07
-1.29141
-1.52449
-0.0318494
-7.03603e-06
-3.17369e-05
6.7303e-06
5.84611e-09
0.0237008
-0.0170362
-1.47094e-06
4.129e-06
0.570139
-0.0210256
-7.59297e-08
-0.00464025
-0.000210093
0.736745
-0.000102018
0.00294078
0.0181566
-0.0309409
0.270286
1.95707e-07
0.0252974
0.0132033
-1.9039e-06
-1.99408e-08
7.89287e-07
6.36731e-05
2.6072e-05
-0.0806762
0.000299482
0.0106109
0.000744011
2.03154
0.12741
-0.000138506
3.51975e-05
2.0963e-07
-7.01625e-07
4.21054e-06
5.3476e-05
0.0103472
2.53811e-08
1.16596e-07
1.77683e-08
0.0510043
-0.100003
-0.00526798
-0.00744254
1.98499e-06
-6.22948e-05
-0.128657
6.90129e-05
0.00137094
0.0127094
0.295337
-7.56387
0.000148709
-1.00726e-07
3.0199e-06
-0.0820289
-4.86945e-05
2.10915e-06
0.00450668
0.0307491
-9.11818e-06
-0.667298
0.0240576
-2.23317e-06
0.260227
0.000217929
-0.33906
-0.299966
0.0158565
-2.96022e-05
-0.000792997
-0.015949
1.00241e-06
-1.09456e-05
7.64941e-05
-6.89133e-06
-0.0215511
-0.00241402
0.125988
1.33018e-06
0.0137358
-4.61688e-08
0.000983445
-0.183271
1.86049e-05
-0.154839
0.0165043
-3.59102e-07
-0.000228585
0.00244203
1.13549e-06
-1.04781e-05
-0.00443437
1.84774e-07
2.23028e-07
0.118426
0.00582529
-0.000550444
0.000678494
3.07781e-06
-0.00321431
-0.00838693
-0.0155911
-0.00687083
1.66618e-07
-0.0133688
0.164383
-0.138799
-2.73147e-05
0.0789552
5.184e-07
-7.26133
0.141953
-0.149784
-6.05371e-05
5.58959e-06
1.02483e-06
8.18832e-07
0.0985698
0.0228802
0.0049873
-3.02852e-06
0.0207268
-9.64713e-07
-7.07799e-06
0.341576
0.01055
0.076454
-8.50349e-07
0.351947
1.30532e-06
-0.00335414
2.55304e-06
-0.190066
1.20102e-06
-2.80828e-06
-0.435192
0.0117522
-3.64057e-06
3.33898
0.0541228
-0.109503
4.7397e-05
-0.300533
0.00713018
-1.85917e-05
5.08202e-08
0.0504377
0.000105028
5.31546e-07
0.0538828
0.000279663
0.00396198
21.9114
-9.35372e-06
0.0207084
0.800214
3.67635e-07
4.38513e-06
0.137212
-2.94381e-06
-0.0003736
-0.0314273
0.0501894
2.66307e-07
-0.423364
1.85709e-06
3.9637e-07
1.023
4.28863e-07
-0.0026805
-0.00867178
-1.324e-05
-1.79121e-06
2.8491e-06
0.0512043
-0.696598
1.5564e-06
-1.47307e-07
3.98416e-08
-0.00801444
-1.08393e-05
0.314963
2.19449e-05
-3.0697e-06
0.0128133
-0.00595518
-0.000176545
0.00622137
1.15515e-05
-0.00757564
-5.41027e-05
-0.00488835
7.79825e-06
0.0225878
-1.07135
-4.97039e-05
-2.60775e-08
6.15383e-07
2.11899e-07
-0.448869
-0.586904
-6.75644e-05
3.49036e-06
-1.09952e-06
0.000262388
-0.000113255
0.138881
-0.56953
4.53179e-07
-0.00169395
-5.60812e-05
-0.0148781
2.32398e-07
1.92243e-06
0.0396777
0.0953118
-0.0144079
5.10053e-07
1.91718e-09
0.00696669
-9.6811e-07
0.097113
1.69115e-06
0.0157422
-0.0179426
-0.00078292
0.000175483
-6.47135e-07
-0.0666213
4.50299e-07
0.0126573
2.69677e-07
-2.4878e-05
0.0104
-1.1853e-08
-0.00170701
0.00167718
-0.0577569
-0.0985664
-0.135724
2.52002e-06
-1.67843e-06
1.91406e-05
0.00359933
-0.000321898
-4.86776e-05
1.12939e-07
2.60989e-06
0.0261459
-2.22471e-07
-0.0132373
-0.000285201
0.271274
-0.538026
-9.83808e-05
-0.00596301
-0.142018
-1.29683
-2.44137e-06
-0.0747858
-0.596581
-9.45288e-05
-0.61097
1.63994e-05
4.0801e-06
0.0376721
0.0118422
4.11183e-07
0.16745
0.00143417
0.040553
1.43552e-06
-0.373698
0.0145522
0.0315261
-0.0844715
-0.0449938
-0.0886889
-2.30389e-05
4.36281e-05
-0.00225508
-3.77583e-07
0.00749598
-1.26718e-07
-3.16906e-06
0.0382369
2.53459e-06
1.69737
1.6311
3.22737e-07
-9.28575e-07
-0.00883759
0.0948714
-0.0125235
-5.50126e-06
-3.18604e-05
-0.01257
0.00264495
0.0635283
-0.000536416
-4.37755e-05
0.273387
1.15917
0.0632376
0.00579368
-0.00463581
0.0669542
-0.144198
3.1065e-06
-0.106019
-0.0109758
-0.152456
0.000230494
7.89365e-07
-7.50789e-07
4.56513e-07
-3.88213e-06
-1.74865
4.84621e-07
-0.0225769
-4.61528e-06
6.78677e-07
-9.16452e-05
1.58389e-07
-0.191567
0.00295422
6.19436e-05
6.86281e-07
-1.6194e-07
-0.00733651
0.0150513
-1.68591e-05
-0.000632993
-3.55798e-08
-8.63439e-06
0.000745589
-10.7005
-9.08221e-06
0.066419
0.000233341
0.318486
3.28026e-05
-0.0721714
-3.6592e-06
4.40649e-06
-0.00065483
1.37493e-06
0.155388
4.44204e-07
0.00292079
4.50829e-08
0.00382138
-0.0127116
0.0393838
0.000552846
2.13975e-07
-0.0152309
-4.46628e-07
2.96532e-06
3.40056e-06
2.05535e-05
-3.46422e-06
0.000297233
-0.0428205
1.7575e-06
-2.30046e-05
0.00584756
0.0800426
-7.45919e-06
-0.000186857
-0.805075
5.30982
-0.0309517
0.0001824
-0.0164043
3.51044e-08
1.00414e-06
0.0171018
-1.33173e-06
0.316978
-0.0100245
-8.48302e-08
-7.05663e-06
-0.0143004
0.267841
-0.144156
2.44414e-07
-1.49683e-07
1.70699e-05
0.0308043
0.0300469
-0.0002014
0.0143551
7.80814
-0.117524
0.000237774
-0.0183179
0.0624963
0.24962
0.420516
0.11258
1.30804e-07
-4.81257e-08
-0.209312
2.36365
5.55051e-07
-0.0147417
-0.103768
-0.561114
-1.49879e-05
-0.0789995
5.98501e-07
1.38862
2.39546e-07
-0.0212467
-2.84696e-08
0.000610643
0.0820706
-6.40891e-06
0.00226306
-5.28124
3.40488e-07
-0.00270557
-1.26847e-06
-0.0381159
1.23513e-06
-0.0822281
-2.72746e-06
-0.00177834
-3.77176e-06
-0.249832
0.0685219
3.53328e-08
-0.000711243
0.605003
-4.51731e-07
0.000776655
0.242759
-6.73614e-06
-9.25007e-07
1.19807e-06
8.96694e-06
-0.0384904
-0.000820375
-8.82491e-06
-7.66015e-06
-0.00185819
1.68714e-07
-0.0536736
-0.000853871
-8.31167e-05
-0.00796396
1.58556e-09
-6.46193e-06
2.41743e-08
4.36858e-05
-1.3562e-07
-3.41647e-07
0.0151846
0.158305
-0.437275
-3.74409e-06
-0.256315
-0.000421986
-2.83888
0.362946
0.642031
1.31011e-06
-9.84689e-07
-1.85205e-06
-2.20737e-06
0.144324
1.52951e-05
-0.0344362
-2.92268e-05
0.014907
-3.19117e-07
6.72693e-07
-0.0102
-8.76789e-07
0.00470933
-0.10898
-0.131073
1.06331e-05
0.000687027
-0.00109498
-0.0154942
-3.00084e-06
-0.0195776
2.16428
1.78836e-05
1.04538
-5.67712e-07
-0.00259866
-3.10509e-06
-0.0409472
-0.000871103
0.0124212
0.327007
-4.08041e-05
1.68179e-05
0.00135436
-8.79044e-08
1.88514e-05
0.295961
-3.0015e-05
-0.000131365
-3.49506e-09
-1.83693e-05
-0.0247655
-0.295081
-0.00283475
-0.24626
-1.5475
0.00280832
-0.0339982
-1.02732e-09
-1.85683e-05
-5.90928e-07
4.27217e-06
-0.000162354
-0.005249
-1.27707e-06
0.15965
-0.019691
-0.0126276
0.0188533
0.3063
-0.00884175
-1.93378
3.48375e-09
-0.0192737
-0.114973
0.00144628
0.177793
2.31835
-0.015121
-0.112173
-0.748297
-0.254043
0.00124776
-1.48366e-07
-0.27708
0.00819231
1.77818e-05
0.000581023
0.000347943
0.0118629
0.0212988
-0.00367583
-4.07438e-06
1.48992e-05
-0.0267198
0.128154
-4.19134e-05
1.51983e-07
0.000488312
-0.193782
-4.08637e-06
-2.93406
-3.6557e-06
-1.16819e-06
0.000881046
-1.31042e-05
-1.84027e-07
-3.48893e-07
-0.00128237
1.29667e-06
0.0673744
0.000470377
-2.07028e-07
-0.00618126
4.73096e-08
1.80206e-06
0.0953721
-0.068447
7.64006e-07
-3.6216e-07
0.571765
0.0859695
9.01864e-06
7.82612e-08
-0.00360108
-0.00402348
-27.1997
-0.00335026
-0.00217269
-6.45414e-07
0.264312
-0.534252
-9.24674e-06
0.0522283
-1.23954
-7.88386e-05
-0.0748111
0.392525
0.475928
2.97481e-07
-0.0271242
-0.000153373
3.53344e-07
0.104935
-0.0171815
-0.0162003
6.02213e-07
0.142466
1.27581e-06
-1.00752e-06
0.185933
-8.26808e-07
-0.0795656
-1.34445e-06
2.68794e-09
-0.386714
0.113574
-7.96774e-07
-1.35412e-05
-3.93802e-06
0.184536
-0.0456318
0.0273078
-0.264732
-2.9009e-06
-5.49802e-06
6.52686e-07
-1.03041e-05
0.44246
-0.397409
0.744935
-0.0140957
-1.12793
-1.33408e-06
0.00206046
0.00167643
7.4484e-05
-3.13973e-07
-0.0100105
-5.44346e-07
5.14828e-05
-5.02471e-06
2.68207e-05
-3.63829e-08
0.208086
-1.0547e-05
-9.63714e-07
-0.0758244
-0.00766595
0.0105053
-1.57558e-06
0.0343204
-2.5443e-06
-1.02282e-06
2.78487e-09
3.30108e-06
0.220498
2.90589
0.0043898
-0.221525
-0.0516292
3.27568e-07
-3.01279e-05
-3.83267e-06
-0.000174523
0.0105792
9.31722e-05
-3.45886e-06
0.0296628
-0.910153
-0.193259
0.119245
-8.77956e-07
-5.67085e-06
0.00695408
0.00123757
-0.000328679
-2.84103e-05
0.208844
0.240875
-4.82969e-06
0.000293567
0.235092
-4.82127e-07
-0.0330474
0.239057
-0.400071
-0.000647795
-1.31358
-0.0586541
0.262318
1.07809e-06
3.66084e-07
1.13044e-06
-4.15058e-06
-0.0716697
-0.0774647
0.122124
0.00976774
2.78222e-06
1.45236e-07
1.22814e-06
-0.0467222
4.02447e-06
-5.70729e-06
-0.116477
-0.48691
-0.000124751
2.09539e-06
-1.24585e-07
0.00443487
3.93936e-06
-0.000827361
-4.79755e-05
3.19956e-07
-8.29674e-07
0.0505762
6.49573e-07
-1.46657e-07
3.65088e-08
-0.181321
-0.000663052
0.138389
0.00639363
-2.43559e-06
-0.27756
-1.71957e-07
-0.629769
-1.08351e-08
-1.14295
-6.1543e-06
-7.7506e-06
-1.02519e-05
0.000471558
-0.000783751
8.44074e-07
1.24742e-06
-3.23771e-07
-0.344596
-0.000534502
0.0494261
0.00160386
-5.44421e-07
-0.0337401
0.000738844
6.78763e-07
4.65116e-08
-0.0106742
-7.71316e-08
-0.523993
-3.38849e-06
1.40041e-08
-0.0250811
-0.486715
-0.00384257
0.000126259
0.00444716
7.23667e-05
-3.87619e-05
0.00805561
2.76397e-07
0.00968438
2.91617e-06
-0.116687
0.240171
0.0169878
1.31994e-06
3.42626e-07
-0.104526
5.11044e-06
-0.00146088
0.00352102
-1.47231
-0.214486
0.00742461
-0.409052
1.27098e-06
-8.70218e-08
-0.192206
-0.040718
5.71487e-06
0.00208826
-3.1846e-06
1.68352e-05
-1.70332e-08
-0.0580791
-1.5695e-06
-0.00461537
-0.345245
-0.318232
2.50534e-07
0.00325536
0.347442
-2.17866e-05
0.000349013
-0.000846268
1.01053e-09
-0.175038
0.0839853
4.59962e-05
0.0708109
0.000105599
-0.446622
0.263016
-3.86521e-06
7.91214e-07
-0.0013647
2.1131e-05
-11.3917
0.126743
-4.01899e-05
-0.000386318
0.000336007
0.0187565
3.48145e-05
0.13258
-0.0381646
0.281187
-8.39943e-07
0.000418553
0.131554
0.000121051
0.100492
1.80834e-06
2.24038e-07
-0.0262391
-0.000159917
0.00399374
0.00829219
0.190244
-0.108654
0.00654604
-7.3701e-08
-3.44369e-07
-1.8701e-07
0.0204247
0.0249742
-0.0135519
0.0524339
0.266483
-1.51056e-09
0.00186718
-0.0813984
6.4863e-07
5.40695e-05
0.000383161
-1.22142
0.00199774
0.250457
6.63921e-07
-0.106342
1.18327e-06
-0.0406568
0.00315262
-0.0222953
-0.00896328
0.382686
0.177421
-0.272094
-0.00597007
0.00205157
-4.36951e-07
-0.172146
-0.152777
2.27618e-06
0.000480719
1.09438e-06
1.5611e-06
-2.24011e-06
-0.0558509
0.00599037
-1.52e-05
0.000314757
0.0023781
3.33837e-06
-1.19725e-07
0.349711
0.000178131
-0.00301079
0.0654959
-3.3939e-05
-0.000201672
-5.11519e-06
-6.27967e-06
2.70433
-1.20183e-06
2.05601e-06
-0.0500112
5.26412e-07
-0.0045233
-0.500949
0.0164043
-0.0629424
-0.130083
0.00196427
-0.23346
3.30377e-05
0.00394092
0.00234774
-0.00902534
-5.94253e-06
3.3381e-07
0.00735688
0.0468177
-3.12732e-06
1.65549e-06
0.895895
-4.89154e-06
0.0115645
-0.0552792
2.90202e-06
-0.000979814
-7.02394e-06
8.87746e-07
3.41508
-1.03113e-05
8.84364e-05
-0.231297
-7.78134e-07
-0.0158598
1.16214
1.46986e-06
0.0105124
0.314978
0.409935
-3.17914e-07
2.01939e-07
0.0770613
-3.8531e-07
-1.65516
-0.046767
0.321874
2.28396e-06
0.00175246
-3.71395e-06
-7.40862e-08
4.11948e-10
-9.26433e-08
-2.47364e-06
-0.0458706
-1.92956e-06
-1.59736
8.55592e-07
-0.0592298
1.70877e-06
0.041621
0.379785
0.00758579
1.04563e-06
7.98765e-05
-0.0175413
0.000101838
-0.0409462
-0.0244192
-0.95155
7.55083e-05
4.4839e-05
-2.67274e-05
-4.60151e-05
-0.0298137
0.00044148
-0.00039455
-2.07797e-08
-0.0767789
0.150078
0.0124364
0.0174773
-0.000283109
4.51802e-07
-4.25453e-07
2.90804e-05
-5.00771e-06
-0.00703587
-1.18473e-07
0.00107027
-1.6612
3.54423e-06
-0.0298089
-3.59651e-06
-0.153228
-0.000814943
0.11024
1.50572e-09
0.150582
0.00595371
-1.50422e-06
-0.00106282
0.148295
-2.16799e-05
-0.327749
4.43752e-07
-1.49872e-05
5.67858e-07
-0.231587
-0.123634
0.0728004
-0.0816061
-0.0116912
0.000944395
1.55226
0.00041709
0.000191773
-0.105167
-0.00315234
-0.00862774
-1.18414
0.00167579
-0.496855
-0.000764503
0.0137021
-0.000530556
-1.1682e-07
-0.0144492
7.7839e-07
2.91948
0.00041292
1.38436e-09
7.40819e-06
6.82933e-07
7.65201e-07
1.25599e-06
9.54587e-07
-4.41182e-07
-0.198017
-0.133475
-5.4688e-08
-16.1828
0.0134717
0.000325654
1.40956e-05
0.0252779
-3.14849e-06
-4.69679e-07
-4.42237e-06
-0.0159515
-0.0733919
-0.0028819
0.0450743
-5.31997e-08
-0.103979
2.98136e-07
-2.0909e-05
-1.28943e-05
-0.0224214
-3.61742e-07
0.000470676
0.000360207
-0.0101358
1.48652e-06
0.00131021
0.000916043
-0.0101132
0.0289965
-0.0493615
-0.311733
-0.034115
-2.76323e-07
-0.000529384
-0.00441183
-2.94535e-07
-0.00742214
0.174673
-0.0713328
1.74299
-0.0204557
3.11376
-1.18838e-05
3.4736e-06
5.08701e-05
1.04101e-06
2.57306e-06
0.16322
0.279131
0.115048
2.56986e-07
0.0322024
-0.00682338
-0.000448936
0.00176574
-0.0239158
-5.33536e-07
-4.98786e-05
0.00148033
-6.71598e-08
-0.152342
-0.0714559
-0.0740493
0.00873517
-1.74979e-06
4.1111e-08
-0.0308272
0.083188
0.255162
0.370216
2.42626e-07
0.36047
-0.0223783
-5.30521e-07
-1.50607e-06
-1.14853
3.00508e-05
0.0509562
-2.64744
-0.0130408
-0.0248739
-0.538178
-0.40434
0.00104833
0.00550516
-0.0502223
0.00714454
0.00568293
5.73754e-07
1.42718e-06
-1.05865
0.480976
0.0154336
0.154636
2.6339e-06
0.00185383
-0.259934
-0.000215615
-0.00334859
-1.15626e-07
-0.146425
0.802268
-0.0618099
-5.11706e-07
-5.95281e-09
0.188108
0.0194156
7.45286e-07
-0.369881
-1.14627e-07
-5.70964e-07
1.46287e-06
0.0108135
1.48837e-07
0.0443274
-0.448469
-0.181058
4.60458e-08
1.15181e-06
-1.10641
-0.000310758
-0.213036
0.0125527
6.44569e-07
1.07229
0.00441268
0.00045457
-1.99147e-06
2.57306e-06
-0.122449
-0.00571739
-0.0417357
-0.123123
-0.366819
2.63264e-06
0.123418
0.0421529
0.0167502
0.160273
2.41905e-05
0.0693033
-8.68549e-07
-0.418069
0.000523066
-3.06999e-06
2.76285e-07
-0.00154939
-0.169653
0.886182
-0.146388
-0.221971
-0.0563973
-0.000544179
-1.17724e-08
-0.254729
-0.000448781
4.46762e-07
-0.417569
0.00414719
-1.99041e-07
-0.0469032
-0.11662
8.9985e-07
9.04474e-07
-4.27947e-07
-0.159105
-0.159157
-1.68276e-08
-0.0117345
1.63212e-06
3.53314e-05
-1.38611e-07
2.69363e-07
-0.00837173
-3.2444e-06
0.000121107
-6.30941e-08
-0.0027923
-0.0560984
-0.00541121
1.88013
0.24408
-0.158806
-0.000520123
-0.0248417
0.767077
-0.208772
0.000657374
-0.124466
-1.37688e-07
-1.34046e-06
0.82247
-0.305418
0.614394
-0.374159
-0.149209
-2.86546e-06
0.000730078
-0.120188
-0.154912
-2.0914e-06
0.170224
10.2216
-1.61817
-0.249752
0.590083
1.96265e-09
-6.13413
5.47281e-07
-3.38159e-08
-0.00427388
-0.00984876
-0.120208
0.0093392
2.47896e-06
-0.204555
2.57051e-09
-0.0100095
-9.22721e-06
-0.14958
-0.000997317
-0.430124
-1.76215e-07
0.0190091
1.00073e-06
1.16559e-06
-0.0477651
0.0208122
-3.23816e-08
-0.0500927
-2.51043e-07
-0.0872234
-0.0285772
-0.000795435
-0.188457
0.00909212
0.251063
-0.00513888
3.67199e-07
-0.0194216
-0.438579
-0.00101343
-1.16445e-07
0.196288
-0.121677
-1.06744
5.24004e-08
-4.13313e-07
0.242608
-0.168689
-0.0587022
-0.0150608
0.00177723
6.13537e-07
-0.0620107
0.00127925
-0.182279
0.000544186
-0.274767
0.00549126
-4.58359e-07
0.263645
0.107718
-0.0226256
0.154615
0.0469006
1.25041e-06
-0.00199001
-3.13828e-05
4.41358e-07
0.131087
1.17581e-09
-0.0856907
2.8302e-07
1.54502e-06
1.52317e-06
0.000318373
-0.00118009
-0.00618171
0.00361954
7.92915e-06
9.35873e-07