/*--------------------------------*- C++ -*----------------------------------*\
| =========                 |                                                 |
| \\      /  F ield         | OpenFOAM: The Open Source CFD Toolbox           |
|  \\    /   O peration     | Version:  v2012                                 |
|   \\  /    A nd           | Website:  www.openfoam.com                      |
|    \\/     M anipulation  |                                                 |
\*---------------------------------------------------------------------------*/
FoamFile
{
    version     2.0;
    format      ascii;
    class       volScalarField;
    location    "100";
    object      omega_0;
}
// * * * * * * * * * * * * * * * * * * * * * * * * * * * * * * * * * * * * * //

dimensions      [0 0 -1 0 0 0 0];


internalField   nonuniform List<scalar> 
18598
(
0.052174
0.291585
0.0222927
0.0697126
0.0216439
0.0349185
0.0438457
0.0221604
0.293345
4.4833
0.0219351
8.48261
0.0215222
7.3057
0.0221349
0.0895931
6.17723
0.0340581
0.0237129
7.91093
0.0219475
0.0217558
8.96703
0.0217585
0.0216234
6.41311
0.340506
0.0219897
0.33395
0.0504929
2.79882
0.0221675
0.0228721
0.0723481
0.0425583
0.227737
0.0216578
0.0219325
0.0216391
8.24117
0.115565
0.407474
0.172991
8.21735
0.0252136
0.0224258
0.0216369
1.29617
0.0216019
0.0216254
0.0217928
3.92444
0.134234
0.140561
0.0217529
0.0218264
0.0219894
0.022139
0.0215617
0.033742
9.24993
0.272395
0.0219914
0.0217499
0.192815
3.76418
0.0215624
0.022884
1.72368
0.0215771
0.0261404
0.0401439
1.6553
0.132511
0.0220771
0.109624
0.0221011
0.0218236
0.0511477
0.0261174
8.65152
0.0224463
0.0219753
6.46813
0.0228287
3.07854
0.0215837
6.32345
0.0219659
0.0292033
0.0253084
0.134931
0.0249434
0.0876771
18.6253
0.0218011
6.09814
0.0219171
8.06512
0.0760495
0.0219704
0.0221298
0.0293824
0.0366306
0.051216
0.0231815
0.0823458
5.91169
0.0219805
0.191052
0.0323806
6.45964
0.0221143
0.0290021
0.135824
0.0223969
8.44498
0.0330217
0.0286872
0.0216618
7.53379
0.0217424
0.0218388
0.0326507
6.93024
0.024272
0.0242984
0.052179
0.231639
0.0216235
0.0215319
0.0614972
8.30104
0.0249418
1.50103
0.021797
0.0655368
0.0219832
0.0216349
0.0828817
0.337234
0.0218425
0.0219816
9.35417
0.0218904
0.0231936
0.70948
0.127314
0.0219095
0.0320087
0.0231346
0.0286579
0.021865
7.7121
0.021796
0.0218939
8.21086
0.0243991
0.0215163
0.0279483
0.0636333
0.0856633
0.0216114
0.0215986
0.0216255
7.21833
0.286932
0.022172
0.0555327
0.0573911
0.0220712
0.0410901
7.35572
0.144228
0.0255805
0.021751
6.68684
0.022439
0.0268391
6.488
0.0588071
0.349547
0.0593601
0.0228598
8.59366
0.0316131
5.10711
6.50948
0.0220158
0.151192
0.0224639
0.0217323
0.0549636
4.97223
0.0287806
0.0216859
8.3665
8.94369
0.0614323
0.174979
4.34225
0.0218194
0.0414008
0.0222846
0.0246646
8.54418
0.429038
0.0218692
0.0242763
0.0242297
0.0538777
5.7927
0.021716
0.0701375
0.114492
0.0304666
0.112926
0.0219267
0.0221286
0.0656236
0.0214824
0.0219199
0.0231679
0.0220234
0.038222
0.0219182
0.0218371
0.0219222
9.4889
0.0215924
8.31648
6.08406
0.0219151
0.0219598
0.257384
9.4286
0.0227592
0.0320175
0.0217409
0.0249325
0.0243646
0.053439
9.50018
0.0215538
0.0905282
0.0227617
0.0420267
0.0218434
0.0324402
0.0216902
7.7747
0.293163
6.28236
8.22864
0.0456259
8.83794
0.0382752
7.71502
0.0220011
6.39721
0.0267359
0.0528706
5.39437
15.1214
0.670004
0.02244
0.0214803
4.29213
0.112737
0.0251103
0.0216972
0.0220112
0.0508
0.0218338
29.1776
9.81424
8.51733
6.35527
0.112585
0.0544652
0.0516863
25.3109
0.0235845
26.5108
7.13085
0.0309559
0.105434
0.0842
0.0216981
5.10992
0.0968001
0.413348
6.81079
0.387241
9.20555
0.0338447
0.021554
0.263407
0.0391952
0.0543602
10.3857
4.4914
0.0409832
6.63446
0.0253914
0.0873867
6.49189
0.0325315
7.15399
0.292256
17.5836
0.0241939
0.279313
5.65901
0.0599634
0.0491635
0.0668236
0.0242725
0.0220053
6.28424
0.0227912
8.34148
0.0219396
0.0245086
0.023017
7.43009
0.0221058
0.0792572
0.0302547
0.0226136
0.024575
0.0227906
21.0694
6.7566
0.0216878
0.0991314
0.0231376
6.67234
0.110599
0.0223315
0.0491962
0.25641
0.128667
5.04411
0.0220873
6.45912
6.06093
4.2929
0.142099
6.6961
0.0240297
0.0284575
0.0299361
0.0928429
0.118016
0.021916
0.0543344
7.93666
0.0956706
0.0216889
0.0219748
5.47829
0.0220716
0.0216917
0.0215145
0.0217542
34.7685
4.04535
0.0577248
6.05001
0.0492486
0.602596
0.0249655
8.1948
0.0221294
0.567683
7.26512
0.0229407
0.0219806
8.54484
7.66995
0.0220608
0.0325217
0.0603913
0.0260192
3.68795
0.0219414
0.0222703
0.0214919
0.0310774
0.257812
0.0262841
0.0218534
0.0220893
20.3724
0.0220647
0.024692
0.0219791
0.191786
0.0232173
0.0259159
0.0219895
0.0216806
0.0222641
10.729
6.37954
2.11631
6.8098
5.56512
0.0529927
0.0220552
6.38048
0.0219762
0.0260744
0.0888206
0.034754
0.0453533
0.027734
19.7594
0.0280229
0.0225028
0.0219
0.022083
2.54691
0.0243277
0.0252594
0.0244971
0.0229931
0.0468389
3.08833
0.0217326
0.337929
0.0223594
0.180942
0.0770742
3.2417
0.0215356
0.0220648
0.122135
0.0218586
19.5498
8.29255
0.0221626
0.0219247
0.0220543
3.46404
6.97353
6.59778
0.0265337
0.396421
0.0215368
6.16518
10.726
0.0222759
4.13984
0.0277025
0.0230769
0.0220612
0.0250043
0.0220573
0.277628
0.0221686
0.0222637
5.99582
0.10305
0.0219451
0.439174
0.0219943
8.58165
0.0240657
0.0217768
0.0219291
0.0217021
22.3355
0.0219001
0.0216882
0.0527618
0.025539
5.07967
0.0704016
0.021526
9.49809
0.0978103
0.0377469
0.0221692
0.0230999
0.0221302
0.0221313
0.0290551
0.021906
0.0234541
0.112387
0.0340937
0.116739
2.81753
0.0252009
0.0887327
0.0924949
8.26065
0.021759
8.19409
0.126803
0.0220745
4.01266
0.0229254
0.0219243
6.90336
0.022144
0.0219563
6.15421
0.0378554
0.0244153
0.0232399
0.0216782
0.0321699
0.0218335
0.0223444
6.25905
9.10872
0.0223237
0.0223965
5.87444
0.0252234
0.0224283
0.0242461
2.99959
0.0228729
0.0218912
3.77049
6.77283
0.02164
0.109767
0.0219489
0.0231703
0.239989
8.31074
0.190807
0.0217814
0.0219237
0.583463
0.0229622
0.34007
0.0231591
0.0218535
0.0220405
6.47403
0.0220406
0.117878
0.0215567
0.427579
4.47601
19.9415
0.298574
0.0219131
2.84363
0.0225135
5.95091
8.36827
0.0216101
0.0222691
4.48624
0.0701455
0.0288929
0.0275942
0.021758
9.39087
0.0219251
5.07945
0.022086
0.0247147
0.0217686
0.156151
0.0219819
0.0485577
9.45209
9.39342
0.021899
0.0516028
0.0219032
0.0241224
0.187294
0.117651
7.56155
0.0215248
27.924
7.22982
0.0218132
0.230157
0.0219877
7.6182
0.309472
0.0230819
9.28862
0.0220612
0.110508
4.92487
0.0553764
0.0217728
0.0221544
0.0221055
0.0255791
0.0216807
0.0259435
0.0221974
0.0217334
7.3106
0.021771
0.0496412
0.0222752
0.0218126
8.9424
6.44925
2.18345
0.0217702
9.12705
0.0218349
0.0242292
0.0217554
0.022504
12.2289
6.78396
0.0218672
0.0217006
0.066734
0.021566
0.0226283
0.168039
0.0219799
0.0221729
0.021571
0.0219773
0.0240416
0.0219164
0.271564
0.0231503
0.021924
0.052494
0.0228541
9.46472
0.408072
0.0228378
0.0220641
0.0241261
0.0643092
0.0218922
0.0404152
0.0214911
0.0222724
4.91978
8.55653
0.0219566
0.0221156
0.0228957
0.0217137
0.0241061
7.67236
5.509
0.210102
0.0279228
0.14382
0.0222778
0.0561805
0.0277331
0.0907731
0.0388239
5.46163
0.0218932
0.022027
8.011
0.0218665
0.021609
6.27901
0.0217196
6.29868
0.023478
0.0222499
0.0216065
0.0220573
0.204535
10.4396
0.0522002
0.0217797
0.022744
0.0219931
0.0436234
6.9718
0.0234247
0.737497
0.0221653
0.0219005
0.0225293
0.0220565
0.0217093
0.0420306
0.0220325
0.395486
9.068
0.0707891
0.0222884
0.0215122
0.0222778
0.0682304
0.0219868
7.25389
0.0315606
0.0229486
0.0598224
0.0711788
11.5224
0.0216714
6.6238
0.0221143
8.72606
0.0243532
5.04511
0.0409331
4.37783
0.0287438
0.0222675
0.0321223
0.030119
0.0219798
5.26833
8.22076
0.028392
0.0238347
0.0217123
0.201587
0.0221467
0.0216869
0.386533
0.0228174
0.206878
4.47307
0.0216782
0.271844
0.022159
0.0220371
0.532326
0.0667617
0.0222697
0.226193
0.0221206
0.0544946
0.644005
6.47698
6.38542
7.39851
6.96064
0.0366983
0.201233
0.0220912
0.0312366
2.3595
18.4414
0.0274899
0.0519537
4.88108
6.74637
19.3716
0.713366
4.22985
0.0219531
0.0219267
0.0778433
0.0218726
10.2593
0.0419515
0.0225268
0.340079
0.0354922
0.0226808
0.0228718
0.021681
0.0222712
0.0218307
0.204476
0.0261661
0.0218449
6.37896
0.0219882
0.0515035
0.0569027
3.92041
0.0224105
5.11317
0.0224351
0.0216947
0.0236905
8.57125
0.042615
0.0218523
0.02204
0.0222717
0.0500289
0.0220079
11.704
0.16006
4.54271
10.4718
0.0224513
0.136357
0.347486
0.0219537
0.0231596
0.0219118
0.0220734
13.1137
0.022118
0.0216367
0.0248555
0.0832968
0.0224049
5.90777
4.19775
0.0333558
0.0275438
0.0217906
0.0219892
0.831703
0.0222763
0.0227376
0.0227859
0.0220099
0.0215784
0.0220284
14.902
9.05045
0.0220471
0.022615
0.269094
7.55926
0.0215142
0.021713
0.0218989
0.0285617
4.6132
0.289999
0.0822062
7.47172
0.0219327
0.0518376
0.0219783
0.0290837
0.0246788
1.00152
3.86678
0.0219228
5.03944
0.0217413
0.0230391
0.0305604
0.0218981
0.0218165
0.0528596
0.0518466
0.0218006
0.0617447
7.41434
0.260853
0.221718
0.0804683
0.0220493
0.0219301
0.0216527
0.0220329
8.59901
8.4725
0.0831806
0.0249623
0.0219748
0.249537
0.0221143
6.37257
0.022024
0.0217855
0.329672
0.0216541
0.0292362
0.188731
0.02183
0.022264
0.021863
0.0247036
0.157079
10.9076
4.18606
0.0216672
0.0250737
0.0220363
4.67387
0.171761
0.0216202
0.0237721
0.0220257
0.0260565
0.0750711
0.0217047
9.57395
0.0931591
0.0222693
6.89846
0.112825
0.0219264
7.38903
0.0221114
0.0215842
6.11618
2.998
0.0243877
0.337407
0.0217095
0.419688
0.0221636
0.021747
0.02259
0.0215223
0.0270359
0.0218309
0.0296619
0.0217057
0.986638
0.373116
0.0940972
0.0219779
3.26343
0.0786687
0.10085
0.0221195
0.0223561
0.822724
0.0218364
0.021721
0.0464871
0.14136
0.021554
0.025684
0.0219775
0.0425798
6.40556
0.0220609
0.0216657
0.0216421
0.0873774
0.0218943
0.0222422
0.022238
0.114408
0.0218579
0.0217685
0.021836
0.0399312
0.0224665
0.0219815
0.425045
0.0219562
9.4796
0.0235558
0.0219789
11.0731
1.61516
0.0605026
8.50376
0.0215718
6.61359
0.0216768
4.4081
0.0520956
0.0220574
0.023467
2.28292
1.08101
0.138894
0.022096
9.35575
0.0229554
0.0335447
0.316899
0.049475
0.0214998
0.0216021
0.0243625
0.0222408
0.0219301
0.0226824
0.405836
0.0591162
0.0955252
0.452273
0.0305207
4.6916
8.66772
0.0221581
11.8593
0.048153
0.0223713
0.388797
10.8855
13.9466
9.52117
0.0429164
0.0289579
0.0216346
0.0277936
0.0222517
0.177351
0.340301
0.0229331
0.0224379
0.0734204
0.0229697
0.116069
0.0220507
0.021674
0.0219338
0.0219077
0.19902
8.55636
5.43987
0.0225106
0.0222958
0.0487126
0.021616
0.0214506
0.0220674
0.021641
4.88444
0.0270599
0.022096
0.162288
0.0230579
9.98682
10.8613
0.0218751
0.271839
0.0289559
0.0240359
0.0214558
0.0487246
0.0221803
4.96789
5.47031
0.0217723
8.3732
0.0412278
0.0329272
6.79427
0.0219397
0.0217777
0.0216705
0.040161
0.0468672
0.0232428
3.99749
0.0241722
0.0222185
0.981056
0.0232028
0.379652
0.0219393
0.0224679
4.19216
0.0535143
0.0274597
8.99896
0.0394855
0.0237943
6.34448
0.0214967
7.04974
0.0218552
6.00659
0.0218024
6.71046
0.0229452
8.81368
0.0219723
9.58588
0.0217446
9.06188
0.0223054
0.0219073
0.0390564
0.0219583
0.0742529
0.452987
0.0219361
8.70185
0.0400395
5.19517
0.0219183
0.0269372
0.0218391
0.0432427
6.99659
0.0219435
0.958382
7.39747
8.17924
0.0216331
7.14894
0.0228096
0.0219112
0.0219329
5.23069
0.0461965
0.0216338
0.399853
1.01756
0.0220527
4.48671
8.75459
0.0399243
0.0223793
0.0492931
8.83156
0.161258
0.0534823
0.0372851
0.0226356
0.0221494
0.0236401
0.147612
0.0222618
0.0220307
0.0219304
0.0218188
0.0219782
0.0219363
7.87938
16.9502
0.0216589
7.29788
0.0483382
0.742485
0.0217416
0.0258698
0.0479927
0.0429873
0.0353298
0.359159
0.0222862
0.0219278
0.022328
0.0221843
0.0219051
0.022774
0.675239
0.266628
0.118104
0.0217783
0.0223305
0.0217116
0.0221749
0.0218355
10.1116
0.414556
9.84429
0.0220516
0.0217946
0.0240629
6.17751
0.0230812
7.09771
0.0219562
0.550423
6.2177
0.0231562
0.0219326
0.0219118
0.0221989
0.0466501
0.0380267
0.0251973
0.0375236
0.383687
0.979912
0.139931
0.0250419
0.0254523
0.345465
0.0219537
0.697801
4.34547
0.0225698
0.0488573
0.0275346
0.0218779
0.0222243
0.0498737
0.021745
0.0328009
0.022325
8.35875
0.0219377
0.0304499
0.0260737
5.30393
0.0790225
17.2703
0.0216919
0.0214664
0.022125
9.00761
0.0216309
0.0219229
0.0295103
0.0347942
0.0599727
0.102782
0.126555
6.24766
0.0215951
0.0221529
0.021805
0.0506337
0.0219685
0.114789
0.022261
0.0215946
0.102052
0.0392796
0.0217801
0.0399531
0.0508533
1.1493
0.0216402
3.83442
0.0216699
6.7996
0.0229885
11.689
0.153619
0.0562523
0.0218146
0.0278866
28.9263
0.0289634
0.0220979
0.12382
42.4668
5.72156
0.0216411
5.43196
0.129334
1.43358
0.131035
7.94525
6.4035
0.0217271
0.0220608
0.0218387
0.0219082
0.022464
0.0219754
0.0235509
0.0218826
0.0219776
4.72277
0.135813
0.0216291
0.309859
0.0217973
0.432323
0.021995
0.236092
0.0219831
0.0218357
0.0491484
0.0232238
1.49854
0.0231916
0.0216747
0.0218961
20.5274
0.0222767
0.0222583
0.192868
6.96938
4.1465
0.021691
0.0263413
0.0712085
0.0218476
0.0218642
0.0225814
0.021523
0.0220593
3.46324
1.44326
0.0655259
0.0219528
0.0224796
0.0224278
0.0222848
7.35122
0.0481998
0.0217758
0.021804
12.5709
0.0835079
0.0220369
0.138296
0.0275901
1.03893
0.0229501
0.0514178
0.0480523
0.092728
6.83202
0.0218906
0.069002
0.0509895
0.0219337
0.0218051
0.0219766
0.0223679
0.0219385
6.14967
0.0253947
0.0426823
4.16316
28.8417
0.380165
0.0239206
0.0219352
0.0221803
0.0221182
0.0219532
0.0228136
0.0318401
0.0222853
0.0222225
0.0222769
6.45456
6.43822
0.0445247
0.104652
0.0216988
0.0241205
8.22651
0.0226133
0.028522
7.94781
0.368308
0.57081
0.0290742
0.0217522
0.0216973
6.41259
0.024576
0.0219936
0.0400672
0.172059
0.021526
0.81804
0.309794
0.0218182
8.05127
0.0245002
8.58796
0.352923
0.0579836
0.0225635
0.0277626
0.0899009
0.0219254
0.0218681
0.0221114
0.0220823
0.0964821
0.105462
6.5445
0.0217235
0.0784113
0.0221483
0.0386423
0.337645
0.0220599
6.49312
0.0793436
0.0219617
0.0244563
0.0970606
0.022302
0.022327
0.0781796
0.0218016
0.0216263
4.63646
0.0393363
0.0297054
0.0245068
0.0217015
0.110643
0.0902194
0.0430458
0.0746384
0.0215593
0.0709489
5.91357
6.45002
0.0256958
9.13008
0.022003
0.914975
18.3969
0.178457
0.0225112
0.0223493
0.0219904
0.0219571
0.257095
0.065622
0.105544
0.0218009
0.0920854
0.021517
0.02187
6.46736
9.63996
0.574979
0.0220021
5.57165
0.0216159
0.0721671
0.0218859
0.116438
0.0217196
0.0219993
7.57593
0.0691139
0.022117
2.64768
0.0575988
6.20065
0.0224217
4.54153
0.0869721
0.022073
0.0218826
0.329222
0.0238217
0.0219205
0.321959
0.0263294
0.0566011
44.5733
0.0218387
0.125695
0.790908
0.021978
0.0216896
0.274961
0.0218864
0.0276724
6.46399
0.12335
0.0219602
9.29517
0.0219781
0.021983
4.40246
0.0219706
0.0454327
0.0417506
0.0218887
0.0218018
0.0218434
0.152261
0.5406
0.0217919
0.0221029
0.0222691
0.0392612
0.0226156
6.62481
0.0221903
0.0219057
0.172291
0.0417118
0.0991839
0.0556507
0.02315
0.0464579
0.022639
0.0342358
0.0217559
0.0420421
0.575992
0.0220554
0.0221521
0.0219818
0.021957
8.72746
4.87537
0.0230137
0.0217517
0.0220098
0.0223806
0.0231206
14.7197
8.46196
0.021929
0.099494
0.0226092
0.0418857
0.0221934
0.0220255
0.0754327
0.394124
0.0776888
0.0220151
0.0222592
0.0371174
0.021769
7.0508
0.0216363
0.0948933
0.101724
0.0254644
0.247223
0.0219474
0.291859
0.021881
0.0506827
0.02202
0.0219503
0.0388305
0.0222711
0.0428012
0.035033
12.3798
10.2502
9.01627
0.0217405
0.0219191
0.0222445
0.0276635
0.0275214
0.0238136
0.0218696
0.0218421
7.99409
0.0219504
0.0446774
0.0409215
16.0664
8.11933
0.0229976
0.0387504
6.45209
1.10293
0.0218476
8.51144
8.14469
0.0237156
8.30476
0.0218512
0.0222325
0.185131
0.0326451
0.0216796
22.666
0.031106
0.107221
0.0216279
5.13528
0.0428937
0.12077
9.4864
0.16953
0.640756
0.0221587
0.0229737
0.0339448
0.0218508
0.131803
0.0218976
0.0218711
9.69045
0.0216853
5.39602
12.8216
0.0219606
0.0219662
0.0411154
19.3425
0.0340699
0.0219583
0.0226017
0.0335973
0.031344
7.09028
0.0271546
0.0226108
8.74483
10.3854
0.184541
0.0518923
0.0259318
7.27517
6.39382
0.0216337
11.5982
0.416731
6.72946
0.0256239
0.0220161
0.022152
0.0218174
0.0219181
0.663601
0.0219709
0.131604
0.0219595
0.0216894
0.0243414
0.022068
6.27825
0.0514329
0.0222802
0.0220079
0.0217027
0.026505
0.0648154
0.0222413
0.0264799
0.0218617
0.0223123
0.0306533
13.7866
0.0218455
7.82103
0.0239033
5.11327
0.0260046
6.93396
0.0216249
0.0220059
0.0227457
0.0216215
5.2198
0.0216138
0.0342057
0.0222753
0.0495427
0.0953402
0.152903
0.0234589
0.0221983
0.0608032
0.0221171
0.0217349
0.0218523
0.0221258
0.0219455
0.0945283
0.0701844
0.0216286
0.0218993
0.0643619
0.178024
0.0218618
0.024737
4.58299
4.96437
0.077913
0.0225799
0.109646
0.0222814
0.0218208
0.0491723
0.0219198
6.70703
0.0396002
0.0217208
0.0218615
0.0696108
8.0268
0.102211
0.0220572
0.0220673
0.0221562
7.80499
0.108888
0.0231839
0.0719608
0.824981
0.284086
0.0222287
0.0672324
7.5083
5.41363
11.1005
0.305038
0.0221692
0.0221494
6.47086
14.6206
0.0216151
0.0995986
5.9602
8.39251
0.0218843
8.57512
0.0219947
2.79331
0.0219236
0.191063
0.022163
0.0222544
18.3353
0.021872
0.0241183
1.68854
0.0219711
0.128765
0.0219458
0.068674
0.0220663
6.64893
0.021605
0.0275436
0.0225105
8.58547
7.87391
0.0222768
0.0336511
7.30257
0.0217387
0.024137
6.17245
0.0225863
0.0219713
0.0220399
0.022065
0.20456
0.0275809
0.0218893
0.0220085
0.0462822
0.0220571
6.90653
0.0246799
0.0240238
0.0383651
0.0222708
0.0219574
0.0219759
0.022409
0.0220636
0.0220896
8.00299
6.23102
9.73381
0.0218615
6.70351
0.0298743
6.15763
6.07546
19.5344
0.0216506
0.0218112
0.0219781
0.0217467
5.41397
0.0218676
0.18765
0.0223926
0.118396
0.0217237
0.0217475
4.07773
0.0217512
0.0534532
13.9612
9.01431
0.0218577
0.0241976
0.0260885
0.166227
0.0226349
0.0890831
2.50547
0.0234043
1.44702
0.0217427
0.0392659
0.0219071
6.19554
0.0263691
0.0670014
6.08321
0.0258423
0.0220241
0.0255002
0.0222622
0.0219485
5.70505
0.0259316
0.0240118
0.0222763
0.0219132
0.0743112
10.3193
0.0337048
6.51604
0.763595
0.03788
10.7998
0.0222894
0.0221585
0.0218073
0.0217726
0.024193
0.147094
0.0215043
6.6978
0.0748848
0.160671
7.28245
0.645767
0.0410211
1.32417
0.0222356
0.127403
6.34869
0.0336376
7.35315
0.709823
7.53428
0.34762
4.27165
0.261066
0.0381047
0.0220639
0.538856
0.119133
0.0218436
0.0499257
0.0265482
0.0688995
7.55654
0.0283846
0.0221962
0.0218361
0.126098
6.78544
0.0229173
0.0222154
0.0331906
0.235394
0.0218695
2.0959
0.0218464
0.0230062
0.047139
0.0221092
0.0219559
0.0221425
6.67344
0.0218424
4.51571
0.0464194
0.022167
0.065451
0.0222117
0.0218127
0.782258
6.02832
0.0216686
0.0221214
0.917983
0.162664
0.0221646
0.0220085
0.0270359
0.0504456
28.9347
0.0363242
0.0258415
0.0214399
5.81713
4.21205
0.0219514
0.180871
3.97343
0.0224352
6.55974
5.61572
9.58489
0.0220808
0.0694024
0.0231132
0.0215715
0.249644
5.30009
0.0733761
0.0220534
5.92834
0.021602
0.0218514
0.305357
0.0219891
0.187506
0.0219339
0.0222531
10.0286
0.305008
0.0214706
0.0218437
0.0219871
0.269314
7.92263
0.307374
0.29637
0.0224202
0.0230369
0.0218453
0.0221588
21.623
8.45087
10.0198
0.0847656
1.24552
0.0218213
0.0241
0.0311959
0.0239734
0.0221409
0.0284145
0.021931
0.0220923
0.0219252
0.0222048
0.021828
8.23606
0.0221834
0.0218537
0.152476
0.0259147
0.0537288
0.0218479
0.0747455
0.0219359
0.0231549
0.0222525
0.0216562
6.15054
5.73253
0.0269326
8.30629
0.302573
0.0219297
0.0291358
0.0218591
0.0225284
0.0267021
0.0230084
0.0219598
0.0782019
17.4098
6.36038
0.168802
0.0218212
0.0218022
0.0264403
0.0265227
0.0677079
0.0223371
4.59841
0.328558
0.0217675
0.0250101
5.61542
0.0217661
0.342656
5.88654
10.1115
0.0269341
8.74031
4.02547
0.291062
0.0215786
0.0220586
0.021744
0.0218576
7.93845
6.42701
0.175306
0.0460587
0.0216524
0.0217084
0.0220181
6.34804
0.021777
0.0218678
6.13062
8.95532
0.0227241
0.0219926
0.0221145
0.263574
0.0217354
0.0251756
0.023078
0.0220158
0.0219752
0.317477
0.0220295
0.0216227
0.0221642
6.39559
0.026705
0.160398
0.0385674
0.0218632
17.3075
0.0222224
17.4427
0.0221679
0.877168
0.0219908
0.0218844
0.021848
0.0250847
0.0442988
0.0219757
0.0215946
0.0221471
8.48944
0.0235957
0.624011
0.0320305
0.0218625
0.290648
0.0253937
0.0216478
0.0220889
0.0865167
0.0221856
3.93071
0.0220293
0.0222793
0.0914342
9.40206
0.0384846
0.022496
0.0347258
0.0226553
0.0219727
0.0474072
0.0219326
0.0462449
0.0217115
6.01938
4.84859
0.041725
0.0219774
0.0215286
10.8936
0.021848
0.0290261
0.0357158
42.5533
6.30889
0.0394107
9.0926
0.021996
0.021853
9.10269
0.288481
0.0219639
0.109315
0.0223886
0.0222964
0.0222744
0.159001
0.0219329
0.0383856
0.358452
6.91838
0.0217178
0.0290854
0.435915
0.0220795
0.0257883
0.0237693
0.0222541
7.23334
0.161572
0.0224958
0.233733
0.025256
2.04062
0.272679
0.021807
0.0220735
0.0404666
0.0225373
4.87238
0.282878
0.0222816
0.0237367
0.022501
0.0491221
0.0219481
6.82361
0.0759046
6.04098
0.0215659
0.0235234
13.5579
0.0221831
7.04416
0.0216206
0.0220717
0.0456449
0.0224861
0.0349733
0.30794
4.64267
6.79407
0.0341885
0.0221362
0.0215057
0.0219175
0.049097
0.270526
0.0670692
0.372522
5.47852
0.0222076
0.0350165
8.44101
0.0220602
0.0230525
0.0256935
0.55724
0.0281131
0.367232
0.0218477
0.266768
0.0215842
11.1317
0.0373988
0.0594535
0.0452581
17.7942
0.24349
0.194282
0.0777774
0.0334556
0.022131
11.8398
8.65462
0.0218241
0.0362197
0.0220178
0.0216151
0.0216189
0.327903
0.0487727
0.0218853
0.0494669
0.173692
0.0216594
0.0215003
14.8713
0.025952
0.0391029
0.156156
0.0225664
0.0224474
0.021901
0.0220662
15.5482
0.0215185
0.0216997
0.282572
0.0220429
0.0312721
0.329985
0.150881
4.84523
6.18402
0.0258346
2.6165
0.0220542
0.0430418
0.0280408
0.025909
0.0222879
0.0220593
0.0280008
6.70779
0.0218612
0.0220107
2.03004
0.0219054
0.0575056
0.224504
0.0216059
0.0309391
0.0218801
0.0216246
20.5813
0.0218538
0.0222504
2.86079
0.0214404
0.0609617
1.2663
0.0218271
0.128275
0.296034
0.322614
0.021537
0.0220922
15.9977
0.0217211
3.13112
0.177561
11.3626
0.0216473
0.0638936
0.0214181
0.0222288
0.0220494
0.0218481
0.0217982
6.46653
0.0216378
1.84709
0.0220556
9.37054
0.0219768
0.118555
0.851336
0.0433397
0.0220449
0.0221632
0.0423757
0.0224019
0.290189
0.0902951
39.2532
0.0221468
0.0227496
0.0225268
0.0238787
0.0658346
0.0231021
0.0245162
0.0222778
13.3135
0.246463
0.0413197
0.255072
0.0239792
0.0219863
0.0220849
0.0221649
0.0219294
0.0482463
0.0221738
0.0263994
3.2488
0.021715
0.256138
0.0219157
6.76217
0.0279412
7.55512
0.0222767
4.4087
0.0266515
0.0216256
0.0387391
0.298208
0.0243724
10.5765
0.0219726
0.0219572
0.0215352
0.125228
5.98463
6.95056
0.370104
0.11443
0.0257325
2.47845
0.0590204
0.0229272
0.155251
0.0450613
0.0885882
3.96641
0.0306322
9.49576
0.0255877
0.0999912
0.0225926
0.0221063
0.0819589
0.0219313
3.16375
0.0230071
0.0222708
0.0218539
0.02168
0.0220256
0.0216205
0.0219324
0.0218213
0.175376
5.98239
0.022082
8.74261
6.51081
0.0264318
0.0243953
0.153604
0.0218475
0.0221283
0.0219109
0.0493857
5.06282
0.0471595
0.295171
0.0221069
0.281079
0.0218699
0.0219305
0.022396
0.062118
0.0220761
0.0325023
0.0247745
0.110486
0.0219741
0.026147
0.0544098
0.0461283
0.163158
5.49988
5.25172
0.130841
0.0219614
0.0234421
0.0253402
0.0217181
0.119155
6.84536
10.1962
3.16286
0.154953
0.908752
0.0220169
0.0216817
0.0238859
0.0215826
0.0218599
5.39136
6.90406
0.316041
0.0218119
7.08156
0.0288936
0.0224314
0.0269008
0.204421
0.0219897
0.0231812
0.0525047
0.0218054
0.194329
7.69611
11.7451
0.0809924
0.0218001
0.0222553
0.14487
7.04514
5.91948
6.37794
0.0215305
5.95923
0.0819438
0.022136
0.0219824
4.05183
0.0218531
7.79286
6.05151
0.0896663
0.06365
9.17146
10.1626
0.0256693
0.0341965
0.22486
7.9891
0.0326751
0.0220601
0.0216071
4.14294
7.54125
0.0457355
6.34457
0.0217031
0.0378159
0.228666
0.0247822
0.0329315
0.0221898
6.2038
1.14686
6.13419
0.0221276
0.0222799
0.173065
0.100728
0.0219782
0.267553
0.0219363
0.0215152
0.0220494
0.0556899
0.0217065
8.11171
9.01056
0.252108
0.0220347
0.021646
2.08913
0.0284618
3.71055
0.0425052
0.0219292
5.87414
0.0322707
0.0376556
0.0219227
0.0216938
0.108998
0.124206
6.18424
6.5163
0.403263
0.0216841
0.217811
0.221255
0.084261
0.250673
0.0223527
6.94231
0.0219378
8.7072
0.0274088
0.0220366
0.0218996
0.0270141
6.18827
6.84483
4.00849
8.70008
0.130645
0.0236041
0.0221965
6.39687
0.0276037
0.0215297
10.0119
0.0381427
0.0219472
0.185962
0.252867
0.022066
0.021565
0.0218113
0.289507
6.83636
0.0222538
7.95186
0.0219905
0.0220674
0.0221069
0.0220542
0.10729
0.0219299
0.0234908
0.0221727
0.0516372
12.1787
0.103453
0.610955
6.44405
6.85334
0.0279262
0.0730841
0.510848
0.335812
0.0317898
8.69387
0.0220281
0.0218922
10.3357
6.67419
0.686744
9.60115
6.35038
0.0221304
0.0250136
6.21844
6.93396
0.0219013
0.35492
1.51633
7.71326
6.45566
0.592695
0.0222943
15.8993
0.021597
0.0222617
0.0702
0.033917
6.04053
0.0722033
0.0216914
0.237653
0.0222879
0.0281447
0.0219205
6.15111
0.0369968
8.6968
0.0220949
0.0824523
0.0216772
0.0219257
6.51763
6.58277
0.0221497
7.502
0.021701
0.308242
0.700841
6.55643
6.22486
0.0789726
5.59499
0.0864559
0.0215148
8.26972
0.259196
0.0300581
0.0221839
6.71371
6.10068
0.861492
0.0218649
0.0219802
5.22515
0.165659
6.79217
0.167894
0.0692781
0.0219308
8.56999
0.0315742
6.64518
0.0226446
6.63268
0.0248519
0.0221684
0.282152
0.223654
0.0507611
7.02374
0.119846
0.022014
7.77462
0.0226312
0.0219777
0.251936
0.0222709
0.122179
0.021934
0.0216466
0.0220073
0.0256083
0.0243269
6.52613
0.0278664
0.021728
0.0218113
0.0217941
3.64532
0.0706828
4.71633
0.0259387
6.05204
0.0220946
0.0224325
0.0665702
6.74359
5.11455
0.0219128
8.06317
5.17825
0.246631
0.0441146
0.061763
0.647825
0.0948718
0.0536103
9.67236
0.298609
0.0217328
5.98178
6.41829
0.0763797
0.0220303
0.0218818
0.264897
5.59169
0.0282024
0.375803
0.0218789
0.0219667
8.58168
0.0220039
0.146942
0.0440679
0.0219191
0.0219404
0.161516
0.0321277
0.0216073
0.0271721
6.36104
4.8051
7.10653
0.021872
10.5059
0.0218132
0.0218719
37.9762
0.0220276
0.986403
0.0219143
0.42388
0.293836
1.04239
0.0223463
4.34456
0.0895154
7.05112
0.0219295
9.08712
0.021958
0.0236532
0.0218068
0.304983
0.383351
0.022079
0.0247759
0.0215297
0.0220277
0.0246391
0.0220595
0.101996
0.0298708
0.0220203
6.3568
0.0220691
0.024114
0.0217481
0.0219831
0.0222785
0.0219094
0.0220313
0.0218048
0.0223751
0.220802
6.90022
0.357996
0.0222142
0.0964069
8.69589
0.0221185
0.0737914
0.084804
0.0227126
0.0253836
0.0219247
6.7243
0.0218217
0.0327017
6.24464
0.0909857
0.0232362
0.0269362
0.0644214
0.0218897
0.0321247
0.0221583
6.39057
0.0230264
0.0768681
0.0218318
6.47894
0.0668757
0.0849901
0.0218904
0.0222769
0.0220902
0.0221885
0.0219483
0.755904
0.021729
7.3039
0.0220563
0.0246293
5.20403
0.061941
0.0286604
0.208456
6.65281
0.0230447
0.0216608
0.0335671
0.0220883
0.0219716
0.0229198
0.0216412
0.427066
0.0315608
0.0221073
0.0219402
0.0217096
0.0258177
0.0220803
0.251498
0.246674
0.0220222
4.10705
0.0216567
0.336926
0.0218541
0.0218657
0.043142
0.278195
0.0221738
0.0287397
0.0214512
16.0561
0.0239128
0.0224911
0.0258809
27.5439
14.0453
0.0702732
0.0259394
0.0219646
0.0233333
6.95089
0.0218621
0.02667
0.211031
0.0219334
5.31019
0.0634805
0.0667266
0.0237949
0.0230045
0.0220278
0.0222584
4.34088
0.0220645
0.0228644
0.0888576
0.0219347
0.0384649
0.0226577
0.113598
0.0218714
0.683105
0.0223318
0.0247971
0.0220477
1.81955
20.0484
0.0220444
0.0266113
8.4507
0.0485717
0.0278228
13.1921
0.0221324
0.0628595
4.31683
8.32347
0.0416263
0.0220242
0.0219196
0.0222917
0.0220083
0.316356
0.0229018
0.471627
0.241501
0.021719
0.0557194
5.63616
0.0220348
0.0704618
0.0651804
0.155269
0.0227151
0.0352701
0.021756
0.0221251
0.0219435
6.21584
0.0944977
0.124458
0.0222933
0.0216467
0.0220343
0.0215105
17.6123
0.0218256
0.0620588
0.0222722
12.418
0.0222952
0.0220547
0.0877811
9.70527
0.0218973
0.0301693
0.235647
0.228204
0.0215709
0.0229064
0.0630369
0.0220073
6.67345
6.43005
0.0246578
0.0317669
0.0219433
0.0219198
0.290639
0.0217168
1.88184
0.0218094
0.37391
0.0218004
0.0219156
6.20066
0.0238199
0.0224324
0.0217791
0.0296403
0.025931
0.0302718
0.0218363
6.54941
0.19635
0.0238817
0.0708117
0.0242625
0.0217034
0.0235863
0.0217108
0.317194
0.0534248
0.412352
0.0425201
0.0216738
0.122089
0.0221624
2.98977
0.0255876
7.26978
0.022553
0.0983771
5.60629
8.33613
0.0241754
0.0368081
0.2222
0.154711
8.83743
0.0220276
0.0265089
0.0228636
0.0492459
0.0241417
12.8814
0.0221662
0.0218211
0.0222073
0.0218835
0.0222296
6.63422
0.0218345
0.0219333
6.23081
0.0219766
0.0220028
0.0733133
7.69172
0.580692
0.0367591
0.0306401
0.0262812
11.8732
5.96133
0.0221058
0.0668096
6.35907
0.0214512
0.0241994
0.0219916
6.42451
0.094944
0.224689
19.4431
0.0220876
0.0219173
0.0296726
0.0275447
0.0220779
4.96986
0.036277
0.0219151
0.0219202
5.14016
0.0220917
0.0305243
0.0231415
0.0220383
0.0219844
2.73124
0.0274031
0.0912058
0.0227404
0.0219175
0.34755
0.0220304
0.0222454
5.71168
0.0217538
0.022119
9.64464
0.0217072
0.108411
0.0238158
0.245134
0.0239868
0.208175
0.228613
0.152842
0.0222245
6.60246
0.0219107
0.0218346
2.94854
0.0262561
5.38849
7.64597
0.0216297
0.022021
0.13429
0.0840667
0.0826522
0.0219911
0.0216271
6.47324
0.0286047
0.0214846
0.0219314
0.093548
0.0220756
8.31581
0.072332
0.0387874
0.0230552
0.0228568
19.6785
0.022029
0.0216275
0.134381
0.0319731
0.0219953
0.0219597
0.0222399
0.0217296
0.0830249
0.19504
0.0219295
0.0214753
0.0224956
0.0219221
0.0564162
0.0218902
0.0220507
0.0221308
6.48971
0.0216094
6.78817
7.07999
0.231663
6.15545
0.0223507
0.0752021
4.65792
0.0257001
0.0218857
0.0220185
0.0271178
0.022055
0.205163
0.553482
0.0223331
0.0258435
0.0221111
0.028994
0.0308944
0.257397
0.0401742
0.282753
0.0214912
0.7234
0.336188
0.0716549
0.0219454
2.2219
0.0220108
13.0163
8.7855
0.0219339
5.53229
0.0222353
0.0578047
0.0221308
0.0519853
0.0602604
9.84709
0.021503
0.0925117
0.0886632
0.0474153
0.021904
0.0217297
4.17694
0.47065
0.0224582
0.0222154
0.0264618
0.0277123
0.758354
0.0217853
0.233006
0.0446175
7.32843
7.30617
36.4958
0.0224232
0.0217967
0.114822
0.0215967
0.0285694
0.0219576
0.0926727
23.7405
0.281508
0.0304293
5.13559
0.0219275
0.0367479
0.0888431
0.110172
10.7684
8.12126
0.0218895
0.0221733
0.0796423
0.153134
7.73405
0.303829
0.0219767
0.0220022
0.0267102
0.0954926
4.55334
0.0218853
6.04009
0.0219066
7.08061
0.295192
0.022216
15.6833
0.022166
4.03268
38.3743
0.0253356
0.308591
0.502723
8.78861
22.3353
0.0228435
9.96648
0.0280227
0.698189
0.0219871
0.277944
0.0219781
0.0396995
9.49388
0.0866511
6.41493
0.0228931
6.23956