/*--------------------------------*- C++ -*----------------------------------*\
| =========                 |                                                 |
| \\      /  F ield         | OpenFOAM: The Open Source CFD Toolbox           |
|  \\    /   O peration     | Version:  v2012                                 |
|   \\  /    A nd           | Website:  www.openfoam.com                      |
|    \\/     M anipulation  |                                                 |
\*---------------------------------------------------------------------------*/
FoamFile
{
    version     2.0;
    format      ascii;
    class       volScalarField;
    location    "100";
    object      p;
}
// * * * * * * * * * * * * * * * * * * * * * * * * * * * * * * * * * * * * * //

dimensions      [0 2 -2 0 0 0 0];


internalField   nonuniform List<scalar> 
18598
(
-0.043603
-0.134471
0.0211593
-0.0818661
0.00144648
-0.0620989
-0.067073
0.0235167
-0.0468716
-0.0569319
0.0344626
-0.389844
0.00364077
-0.393256
0.025123
-0.151781
-0.0593341
-0.0605732
0.0113101
-0.345365
0.0224372
0.00600096
-0.246274
-3.58428e-05
0.00668706
-0.0633296
-0.0784515
0.0314695
-0.080203
-0.0423696
-0.0697685
0.0233923
-0.0117781
-0.0835912
-0.0639277
-0.0606421
0.00707117
0.0348567
0.00111516
-0.297728
-0.0746374
-0.0147486
-0.191242
-0.392384
0.103647
0.00804953
0.00733077
-0.153266
-0.00264181
0.00686676
0.012348
-0.324548
-0.182323
-0.115223
0.00537431
0.0136771
0.0232318
0.0178801
-0.00163715
-0.0165117
-0.0735787
-0.131697
0.0315065
0.000493557
-0.0706589
-0.214432
-0.0014951
-0.0197413
-0.162836
0.00728771
-0.033951
-0.0548392
-0.150557
-0.176038
0.0263394
-0.07358
0.0243882
0.0136698
-0.0520293
-0.0344632
-0.348038
0.00789582
0.0391874
-0.061346
-0.0104341
-0.06973
0.00738299
-0.392615
0.024783
0.0141839
0.0689505
-0.112562
0.100585
0.148251
-0.355078
-0.00516905
-0.0698477
0.0306941
-0.331348
-0.0851997
0.0250156
0.017815
-0.037745
-0.0366989
-0.0464582
-0.0234363
-0.0536814
-0.101067
0.0318395
-0.0714766
0.0648886
-0.0737374
0.0251915
-0.0361807
-0.110405
0.0584396
-0.334446
-0.0137257
-0.0412028
0.00710723
-0.382
-0.00209054
-0.00653844
0.0585564
-0.0719044
-0.0304168
-0.0284058
-0.0621467
-0.0617109
0.00322978
0.00561518
-0.0355085
-0.146709
0.0722768
-0.126244
0.0122828
-0.122455
0.0318445
0.00715071
0.240456
-0.0493389
0.0171797
0.0232764
-0.37
0.0242827
0.0141067
-0.289244
-0.108633
0.0280238
0.081005
-0.0227035
-0.0325833
0.0219638
-0.196958
-0.00510124
0.0243682
-0.219215
-0.0313112
0.00345374
-0.0369596
-0.108216
0.132243
-0.00291315
0.00178512
0.00286555
-0.300047
-0.0726967
0.02502
-0.0407878
-0.11149
0.0265191
-0.00202741
-0.37009
-0.179713
-0.0374006
0.00641389
-0.389822
0.0598972
-0.0437032
-0.198709
-0.0484503
-0.0867464
-0.0363503
-0.00964147
-0.0569098
0.0883506
-0.0819815
-0.121553
0.023994
-0.186587
-0.0130768
-0.00167624
-0.045973
-0.067357
-0.044366
0.00225376
-0.250944
-0.103317
-0.105467
-0.198603
-0.112222
0.0134819
0.00445596
0.0210841
0.0624901
-0.370863
-0.25593
0.0225635
-0.0300654
-0.00431023
-0.0435221
-0.0604466
0.00981819
-0.129525
-0.166605
-0.0477018
-0.165888
0.0122333
0.0248976
-0.0724347
0.00412871
0.0297786
0.0158093
0.0239704
-0.0526983
0.0116345
-0.00631952
0.0227963
-0.381405
0.0019797
-0.148812
-0.0926708
0.030228
0.022846
-0.229164
-0.360721
-0.00848741
0.0934283
0.00053024
0.0665429
-0.0302622
-0.0566695
-0.0789491
-0.00123509
0.242002
0.00711787
0.0103718
0.0172823
-0.0508952
0.00180362
-0.159178
-0.236077
-0.393041
-0.156106
-0.0843237
-0.244258
0.152514
-0.279946
0.0313661
-0.0612508
-0.0424359
-0.0987844
-0.218256
-0.348678
-0.279482
0.0371948
0.00396455
-0.0623914
-0.129081
-0.0347309
0.00922257
0.0052583
-0.0832501
0.0171647
-0.17095
-0.3696
-0.311051
-0.0597916
-0.0701687
-0.10188
-0.0556643
-0.394191
0.0129469
-0.163315
-0.0772365
0.0957558
-0.1273
-0.142931
0.00348024
-0.0809731
-0.153449
-0.0847694
-0.0576582
-0.151589
-0.271116
-0.0605541
-0.00106298
-0.209774
0.153645
-0.0625155
-0.359142
-0.0613204
0.0145521
-0.0710661
-0.035822
-0.0536383
-0.200954
0.0865421
-0.0683173
-0.21519
-0.358297
-0.029937
-0.217081
-0.0690672
-0.106266
-0.0811168
-0.115958
-0.0308378
0.0309751
-0.275379
-0.0188187
-0.164284
-0.00919813
0.0943824
0.0169959
-0.0768944
0.0245135
0.0117733
-0.0467854
0.00906527
-0.03143
-0.01469
-0.202561
-0.201943
0.00876573
0.173568
0.0753211
-0.080478
-0.0709034
0.00992898
-0.0817422
-0.125647
-0.166265
-0.0652663
0.0449271
-0.0829781
-0.0942015
-0.114004
-0.0479443
-0.272172
0.0745508
-0.0331334
-0.031894
0.153479
-0.061589
0.0104071
0.126252
-0.191638
-0.149562
0.00264647
0.0329745
-0.0666098
0.0234923
0.00886442
0.00547121
0.00705187
-0.206648
-0.0960334
-0.103733
-0.388872
-0.0424927
-0.0428821
0.0647143
-0.305336
0.0252879
-0.0844452
-0.0939506
0.018789
0.0239438
-0.294488
-0.350511
0.0267002
-0.0588531
-0.0483578
-0.0355299
-0.0685727
0.030643
0.019392
0.00441396
0.100354
-0.20112
0.0924909
0.0148645
0.0494634
-0.365491
0.0117683
-0.00473358
0.0328636
-0.0671344
0.0373249
-0.0344016
0.0220092
0.00152262
0.019396
-0.221772
-0.061363
-0.0414682
-0.123048
-0.0595846
-0.0505001
0.0278828
-0.0769355
0.0400007
0.0915387
-0.150038
0.00283351
-0.0838715
0.0335787
-0.316198
0.00772611
0.0373358
0.0215743
0.0267957
-0.320446
-0.0284476
-0.0361223
-0.0292392
0.0728692
-0.0871921
-0.0415784
0.000957574
-0.101636
-0.0118429
-0.0664383
0.00789244
-0.0779681
-0.000404366
0.0265279
-0.0456033
0.0151601
-0.367774
-0.143977
0.0232495
-0.00853515
0.0443908
-0.0689984
-0.0923292
-0.301417
-0.00338432
-0.0698833
-0.000215841
-0.0718219
-0.145895
0.019153
-0.156983
0.00952121
0.0362781
0.027956
-0.0272241
0.0280888
-0.0874593
0.0231228
0.0241595
-0.388803
-0.144309
0.0304253
-0.146313
0.0218741
-0.0969125
-0.0233839
-0.00466639
0.0132016
0.00390797
-0.376839
0.0219226
0.00141639
-0.105486
-0.0327154
-0.0650633
-0.12011
1.90857e-05
-0.169064
-0.0937583
-0.0408061
0.0228275
-0.0222064
0.0250921
0.0247537
-0.0412082
0.0279993
0.00630847
-0.0607079
0.00227657
-0.156663
-0.0735212
0.0731547
-0.146908
-0.150696
-0.348433
0.00947534
-0.164593
-0.0523754
0.0452358
-0.0954818
-0.0194111
0.013812
-0.35127
0.046244
0.0350953
-0.0956749
-0.0396714
-0.0308512
-0.0232119
0.00112083
0.14469
0.0167536
-0.0146252
-0.0965353
-0.0701883
0.0370204
0.0410747
-0.060513
-0.0292289
-0.0130087
-0.0295317
-0.217459
-0.013223
0.021037
-0.0219973
-0.205371
0.000712031
-0.147136
0.0343433
-0.0225258
-0.224464
-0.159551
-0.0460169
0.00500177
0.0108172
-0.287998
-0.0130371
-0.101769
-0.0229484
0.018411
0.0433079
-0.332993
0.0476195
-0.0919933
0.00614215
0.0211588
-0.0585169
-0.367591
-0.0738983
0.0286308
-0.191779
-0.0171895
-0.0660629
-0.0978531
-0.00257809
0.019057
-0.0658479
-0.0806852
0.0191724
-0.0349154
0.011181
-0.301132
0.0332365
-0.137038
0.0505923
-0.0322778
-0.00411931
-0.102205
0.0301149
-0.0438526
-0.154667
-0.294203
0.0249066
-0.102751
0.0249542
-0.0235147
-0.106794
-0.0936278
-0.359439
0.000228815
-0.382577
-0.35064
0.015462
-0.086686
0.0240446
-0.112751
-0.0729196
-0.0217704
-0.29824
0.0278982
0.181477
-0.0697472
-0.108871
0.011861
0.0251937
0.0457662
0.0921734
0.00488455
-0.0392965
0.00238584
-0.00561568
-0.0706279
0.00902202
-0.0437608
0.0189954
0.0152163
-0.0745036
-0.273659
-0.0702681
0.00956295
-0.307927
0.0170681
-0.0302982
0.0110282
-0.0140252
-0.331456
-0.0877707
0.0215197
0.00939324
-0.0790283
0.00179747
-0.014676
-0.0691178
0.0332103
0.0246244
0.00165624
0.0333122
-0.0240769
0.0226842
-0.207025
-0.0225709
0.0301815
0.130991
0.0514837
-0.0575176
-0.100062
0.0210597
0.0236517
-0.0293135
-0.0714833
0.0187452
-0.0738745
0.00426192
0.0241201
-0.0667222
-0.184597
0.0196089
0.024428
-0.014693
0.0096612
-0.0241963
-0.076906
-0.0696277
-0.0699326
0.0766613
-0.190004
-0.0121599
-0.0792572
-0.0305314
-0.121561
0.168375
-0.0577411
0.0213703
0.0241882
-0.05864
0.0195297
0.00212199
-0.333565
-0.00518502
-0.065979
0.00864308
0.0192604
0.00177089
0.0280122
-0.120358
-0.371538
-0.0860906
0.0104203
0.0508561
0.0224984
-0.0872384
-0.39328
0.0763273
-0.282346
0.0250884
0.0280974
-0.0135128
0.0124839
0.00970144
-0.00760086
0.046702
-0.10171
-0.289714
-0.107131
0.0584085
0.000681433
0.0207953
-0.119546
0.0298119
-0.100582
0.1413
-0.0198496
-0.0649317
-0.107609
-0.313126
0.00764993
-0.336361
0.0256263
-0.227013
0.0727455
-0.0740473
-0.0115516
-0.0592736
-0.0430411
0.0236729
-0.0592152
-0.0401619
0.033467
-0.0664205
-0.24583
-0.0398315
-0.0204082
0.0098427
-0.0720003
0.0478935
0.00837573
0.0112332
0.0559714
-0.0705244
-0.0670638
0.0079131
-0.128299
0.025062
0.0266506
-0.259733
-0.121031
0.018917
-0.207362
0.025232
-0.0775158
-0.275531
-0.349501
-0.0912314
-0.0734616
-0.0756086
-0.0356675
-0.197377
0.0264991
-0.057679
-0.190886
-0.130998
0.00740953
-0.0840578
-0.0700052
-0.0617615
-0.3807
-0.283481
-0.0619942
0.0198695
0.0300088
-0.000896233
0.02033
-0.201197
-0.0780498
-0.0163466
0.00161105
-0.0366016
-0.0141861
0.0204648
0.00810748
0.0237299
0.0167783
-0.049709
-0.00454453
0.0135204
-0.096958
0.02225
-0.00888764
-0.104441
-0.0696121
-0.0155222
-0.0744625
-0.0163562
0.00537973
-0.0186314
-0.186784
-0.0854473
0.0137232
0.0267422
0.0206952
-0.096511
0.0308161
-0.385089
-0.108097
-0.103486
-0.363934
-0.0132928
-0.183605
-0.0688168
0.0208835
-0.0228682
0.0254495
0.0404511
-0.38426
0.0250298
0.00619278
-0.0245125
-0.0124963
-0.0107665
-0.0688913
-0.0651824
0.0135828
0.0780891
0.0131644
0.0192513
-0.281835
0.0188653
0.0581468
-0.0139771
0.0308052
0.00185263
0.0287444
-0.37587
-0.26066
0.0484767
0.0107111
-0.205078
-0.286258
0.00045595
0.00588905
0.00514175
-0.0426079
-0.102773
-0.0719107
-0.131278
-0.338638
0.0167575
0.00298808
0.0388955
-0.0420332
0.097137
-0.289413
-0.079733
0.0152976
-0.0825188
-0.00430891
0.0744029
0.103766
0.0277177
0.013443
-0.00525004
-0.0746537
0.0140376
-0.0977559
-0.0759118
-0.229706
-0.0853431
-0.143921
0.0265784
0.0268263
0.00137422
0.0170664
-0.2054
-0.0930508
-0.143653
0.0555417
0.0388279
-0.0470599
0.0179165
-0.395797
0.0288884
0.0128144
-0.0740733
0.00599366
-0.0366067
-0.196441
-0.00541816
0.0224648
0.0216382
-0.0315439
-0.0687309
-0.358058
-0.12052
0.000745911
-0.0262962
0.0241391
-0.141198
-0.13166
-0.00290822
-0.0240952
0.0425615
0.0937377
-0.0497767
-0.00495214
-0.30144
-0.0933098
0.0192191
-0.0776916
-0.0794802
0.032694
-0.0776988
0.0178485
0.00173672
-0.387739
-0.318826
-0.029344
-0.179364
0.00546987
-0.141446
0.0229557
0.0110831
-0.0146364
0.00597082
0.00776048
0.0141104
-0.0422184
-0.00503182
-0.296615
-0.0895986
-0.123299
0.0261411
-0.0730883
-0.123997
-0.0695081
0.0254476
0.0383305
-0.196941
0.0167598
0.00678914
-0.0863261
-0.0582694
0.00176037
0.104412
0.0258435
-0.0580016
-0.167699
0.0279655
0.00633436
0.00383991
-0.147407
0.0161613
0.0234635
0.0233892
-0.15457
0.0194751
0.00717577
0.0144153
-0.0386229
-0.0140802
0.0406308
-0.138017
0.0361605
-0.359311
-0.0131067
0.0294728
-0.229692
-0.0716654
-0.0965977
-0.314303
-0.00166472
-0.394286
0.00519493
-0.0692104
-0.0169172
0.0228984
-0.013391
-0.0822753
-0.215701
-0.181464
0.0420658
-0.288387
0.0328189
-0.0544971
0.00316452
-0.0472294
0.000396571
0.00559114
-0.0224846
0.0187934
0.0262731
-0.00650245
-0.174719
-0.0496151
-0.152673
-0.0727591
0.103078
-0.099508
-0.335052
0.025175
-0.369723
-0.0536621
0.0295443
-0.0131911
-0.197603
-0.381289
-0.0568203
-0.0166694
-0.0355626
0.00508957
-0.0330319
0.0193394
-0.0590526
-0.106411
0.0340862
0.0101898
-0.115664
-0.0144779
-0.154754
0.0281991
0.00532446
0.0146584
0.0254244
-0.0727608
-0.224243
-0.0809189
-0.0160192
-0.0141713
-0.0450761
-0.00237102
0.00491912
-0.00343728
0.00621427
-0.0637047
0.0364259
0.0244425
-0.119899
-0.0207788
-0.13214
-0.307547
0.0207185
-0.0894309
0.118077
-0.0245745
0.00503476
0.0591179
0.0248615
-0.0657536
-0.135607
0.00720285
-0.228919
-0.0574489
-0.0536853
-0.334124
0.0151861
0.012025
0.00634367
0.171492
-0.0449846
-0.0233095
-0.065613
0.00111023
-0.011202
-0.285376
-0.00678163
-0.0697131
0.0241859
0.0413772
-0.121853
-0.0424964
-0.0365684
-0.249202
-0.057789
0.00916228
-0.305681
0.000587098
-0.0887223
0.0183309
-0.0703576
0.0138612
-0.0872104
0.053404
-0.331
0.021277
-0.352499
0.00239852
-0.0710373
-0.0116356
0.022235
-0.0677069
0.0376392
-0.0829596
-0.263178
0.0224171
-0.250166
-0.0713555
-0.0655196
-0.00863659
0.0309171
0.0178729
-0.0871358
-0.0569875
0.0338378
-0.233141
-0.121681
-0.14389
0.00849374
-0.0725665
-0.0077205
0.0222991
0.0295367
-0.0800534
-0.0841538
0.00416349
-0.0695751
-0.247433
0.0230919
-0.0919547
-0.244197
0.0242889
-0.0157701
-0.0714891
-0.0889877
-0.18128
-0.0763145
0.0979602
0.056987
0.0100429
-0.0184976
-0.187532
0.0183707
0.0264322
0.0303906
0.0136846
0.0289054
0.0228716
-0.103083
-0.385032
0.00601608
-0.275579
-0.0822712
-0.287169
0.00198112
-0.0342048
-0.0858923
-0.0798186
-0.0410303
-0.0940927
0.0237451
0.033094
0.0284807
0.0246907
0.0291452
0.0560145
-0.274639
-0.0707607
-0.0624662
0.00993287
-0.00648948
0.00967294
0.0247936
-0.00583644
-0.363722
-0.137356
-0.0760575
0.0267084
0.0117052
-0.0286646
-0.382974
-0.00646561
-0.0743369
0.0329139
-0.252044
-0.349338
-0.0230611
0.0226618
-0.00865676
0.0181873
-0.0727277
0.0780033
-0.0352185
0.102726
-0.242917
-0.29271
-0.120901
0.0579784
0.0711678
-0.0689627
0.0332854
-0.282759
-0.0598419
0.0182904
-0.0994468
-0.0404192
-0.00598753
0.0377979
-0.082291
-0.00577114
-0.0597314
-0.0125195
-0.318287
0.0347279
-0.0321113
0.00141465
-0.0764888
-0.0521782
-0.171916
-0.00473086
0.00464343
0.0431868
-0.2543
0.00722702
0.0322967
-0.0362612
0.012913
-0.0544529
-0.146331
-0.0633522
-0.0622073
-0.00258237
0.0253321
0.00786905
-0.056723
0.0223207
-0.104751
0.0241353
-0.00255205
-0.102207
-0.0730173
0.012531
-0.0579347
0.0861604
-0.096679
0.00510136
-0.22072
0.00109988
-0.198
-0.0186949
-0.353052
-0.0679751
-0.0568959
0.0134645
-0.0304294
-0.385167
0.0108801
0.0414434
-0.0977686
-0.355098
-0.0626659
0.00415229
-0.0683562
-0.0370945
-0.0829037
-0.0577858
-0.364657
-0.0711996
-0.00527873
0.027983
0.0139582
0.0293363
-0.0141924
0.0292879
-0.0177784
-0.000909976
0.0336165
-0.0652912
-0.00885277
0.000620072
-0.176686
0.0115773
-0.139453
0.021475
-0.283951
0.0179866
0.0139298
0.090933
-0.0235754
-0.0711063
0.00473437
0.00605407
0.0188495
-0.3303
0.0186505
0.022365
-0.0477312
-0.193951
-0.104472
-0.00483524
-0.0397569
-0.111961
0.0186117
0.0196424
0.011537
0.00241688
0.0276569
-0.0797831
-0.0452716
-0.0760258
0.035693
-0.0158426
-0.0142039
0.0238181
-0.130325
-0.0969061
0.0121894
0.00841011
-0.245558
0.172207
0.0171647
-0.118468
-0.0368899
-0.164527
-0.0161827
-0.0543022
-0.0945907
-0.117312
-0.0624901
0.016181
-0.104583
-0.0732996
0.0290599
0.0126073
0.0298253
0.0395858
0.0161511
-0.392731
-0.0329859
-0.0387064
-0.0581292
-0.372189
-0.0695831
-0.0275844
0.00782848
0.0244842
0.024537
0.0289971
0.0544663
-0.0579058
0.0213374
0.023996
0.0205531
-0.163558
-0.266863
-0.0461108
-0.070745
0.00672768
-0.0248462
-0.1502
0.0137761
0.113841
-0.108729
-0.182137
-0.283785
-0.0331215
0.0111814
0.0026634
-0.395058
-0.0310848
0.0234476
0.0347846
-0.064997
0.00574643
-0.0679083
-0.0359726
0.0152417
-0.204809
0.0951006
-0.214928
-0.0909222
-0.0939778
-0.0175613
-0.0335129
-0.12378
0.0225419
0.021903
-0.00337195
0.0183311
-0.143303
-0.160353
-0.16559
0.00650742
-0.0506258
0.0179995
0.0841284
-0.0958148
0.0157615
-0.263893
-0.14151
0.0394575
-0.0233412
-0.101554
0.0541074
0.0118999
-0.0263916
0.0142937
0.00838616
-0.0873187
-0.0737625
-0.030857
0.00134984
0.0030727
-0.104154
-0.141443
-0.0148053
0.191401
0.00161925
-0.110179
-0.0680902
-0.384828
-0.038062
-0.316109
0.0199684
-0.285966
-0.380163
-0.0660675
-0.0156246
0.0552657
0.0216254
0.0207179
-0.0862206
-0.10156
-0.159996
0.0138205
-0.124159
0.00254733
0.0226109
-0.0728622
-0.0570724
-0.268077
0.0411427
-0.0670778
0.0068813
-0.113684
0.0236513
0.0990178
0.00914852
0.043987
-0.342675
0.192595
0.0454169
-0.257698
-0.0446601
-0.371378
0.0568942
-0.0736413
-0.0233766
0.0191151
0.0184343
-0.0532076
-0.0228112
0.0149924
-0.0518137
-0.0012005
-0.0929066
-0.377439
0.0174051
0.0718245
-0.279347
0.0345641
0.0034567
-0.0997559
0.023961
-0.0379058
-0.304808
-0.0958181
0.0376169
-0.290339
0.0393627
0.0181421
-0.251841
0.017666
-0.0914278
0.0194321
0.024939
0.0140111
0.0175712
-0.156392
-0.225976
0.0134123
0.0261919
0.0204443
-0.074723
-0.00432644
-0.0590008
0.00142448
0.0285111
-0.0576331
0.187077
-0.155139
-0.0589263
-0.0217126
-0.0461423
0.0490186
-0.00980929
-0.00463947
-0.0236841
-0.233566
0.0486318
0.0179271
0.0191182
0.0172969
-0.352697
-0.0647836
-0.0198113
-0.00381709
0.0448521
0.00698981
0.0443603
-0.372783
-0.333009
0.0199453
-0.123038
-0.0141153
-0.0737515
0.024334
0.026713
-0.120388
-0.105304
-0.131931
0.0187132
0.0186689
-0.0708607
0.0119045
-0.120147
0.00052165
-0.129357
-0.153588
0.0978171
-0.0495359
0.0335262
-0.138117
0.0182052
0.0588253
0.018649
0.0236157
-0.0721964
0.0240936
0.184287
-0.0429741
-0.368021
-0.366025
-0.365986
-0.000775738
0.030508
-0.0028835
0.0089775
0.117636
-0.0190408
0.0172014
0.0183469
-0.0900569
0.0331741
-0.0897707
0.0297304
-0.38347
-0.341229
-0.0160017
0.172606
-0.271272
-0.296709
0.0180829
-0.102348
-0.316421
-0.0234266
-0.311346
0.0141983
-0.0133171
-0.0680375
-0.0620424
0.00635126
-0.379597
-0.0455387
-0.0782865
0.0047848
-0.0718312
-0.0225093
0.0829126
-0.0852013
-0.0699655
-0.279567
0.0475586
-0.0175063
-0.0116264
0.0117044
-0.171942
0.0143804
0.022856
-0.321309
0.00306504
-0.212934
-0.167651
0.0174903
0.00992551
-0.0716274
-0.377028
-0.0656769
0.0385483
-0.015885
-0.0638492
-0.0555858
-0.0565028
-0.0304818
-0.0160666
-0.236764
-0.148299
-0.0674852
0.0163281
0.012817
-0.394324
-0.298771
0.00447184
-0.35649
-0.0699541
-0.384138
-0.0380348
0.0202916
0.0222659
0.0114347
0.0298527
-0.23976
0.0322799
-0.168217
0.0382194
0.00451999
0.0956826
0.0276705
-0.331786
-0.0657888
0.0369257
0.020212
0.00935948
0.0098068
-0.119998
-0.00264383
0.0857378
0.0146498
-0.0150381
-0.0387848
-0.253643
0.0179328
-0.0995203
-0.0226899
-0.0684464
-0.0346209
-0.0634585
-0.00273362
0.0420597
0.0174873
0.00695407
-0.0614479
0.00801663
-0.00152505
0.0221092
-0.0970357
-0.144743
-0.154752
0.0726045
0.0242619
-0.051063
0.0198358
0.00818854
0.01651
0.0469577
0.0299494
-0.130855
-0.0864067
0.00354491
-0.00148566
0.0552266
-0.191689
0.0212869
-0.0219028
-0.0648121
-0.13316
-0.0378015
-0.0020033
-0.0723308
0.0220392
0.0151886
-0.0535879
0.0259315
-0.0613966
-0.0395269
0.0101306
0.021088
-0.065578
-0.167192
0.107782
0.0281402
0.0175135
-0.00958497
-0.0581937
-0.163531
-0.0230284
-0.0500779
-0.28815
-0.169244
0.0236539
-0.0775782
-0.0956033
-0.0787076
-0.233211
-0.155059
0.0248188
0.0180325
-0.296853
-0.158299
0.00421137
-0.120274
-0.383017
-0.333088
0.0245486
-0.202723
0.0198661
-0.109195
0.0198105
-0.0690679
0.0179937
0.0243605
-0.375761
0.0228403
0.0380205
-0.281871
0.0319142
-0.0388649
0.0333906
-0.0879783
0.0242331
-0.197839
-0.00210533
0.116407
-0.016302
-0.36766
-0.105668
0.020908
-0.0625803
-0.208191
0.0105894
-0.00915929
-0.0930939
-0.0179163
0.00934041
0.0243499
0.0477406
-0.0694462
-0.032525
0.02602
0.0448792
-0.0729382
0.0281366
-0.0737791
0.0989024
-0.0279513
-0.0729677
0.0186889
0.0381346
0.0160113
0.0346021
0.0172565
0.0263522
-0.145162
-0.0628122
-0.348955
0.0199175
-0.265557
0.137817
-0.304186
-0.0662536
-0.38026
0.0067785
0.0132425
0.040762
-0.00324768
-0.0591956
-0.00102367
-0.0731389
-0.0111325
-0.00254087
0.0102499
0.00734886
-0.0517642
0.00784547
-0.066249
-0.323364
-0.3543
0.0147373
-0.0100965
0.108165
-0.0634766
0.0551448
0.119734
-0.112619
-0.0172122
-0.235133
0.0107288
-0.0472158
0.0294795
-0.386449
-0.0397062
-0.121014
-0.0623013
-0.0362425
0.0457133
0.0149997
0.0235409
0.0280687
-0.0695186
-0.035767
-0.0283407
0.0193049
-0.00908872
0.177328
-0.374327
-0.0457392
-0.357904
-0.068019
-0.0729349
-0.0631329
0.024084
0.0458186
0.0129391
0.0115016
-0.0296819
-0.0673979
0.00253963
-0.160978
0.226863
-0.036482
-0.0754713
-0.240809
-0.0584667
-0.0670622
0.0187216
-0.0652563
-0.358584
-0.0197242
-0.105884
-0.281028
-0.133843
-0.0987375
-0.0813523
-0.218033
-0.0527142
0.0174303
-0.272386
-0.0398413
0.0033264
-0.0531474
0.0749893
-0.111596
-0.126926
0.00793825
0.0365848
0.00381475
-0.10629
-0.0909775
-0.0199861
0.0241181
-0.018641
-0.0696586
0.0225531
-0.281279
0.0181829
0.00508795
-0.0683594
0.00986874
0.0252428
0.0222221
-0.165397
0.0182412
-0.0867001
-0.0935689
0.0250208
-0.107886
0.024472
0.00695458
-0.167192
-0.387205
0.00740113
0.0199775
-0.223804
-0.0855251
0.00367214
0.0165252
0.0368516
0.0182799
-0.329773
0.168933
-0.0219755
0.00485813
-0.0683534
-0.0826192
0.0374405
-0.0658569
-0.0756604
0.0333346
-0.20637
-0.0622677
-0.162812
0.0261349
0.0564263
-0.0207513
0.00740526
-0.100717
-0.149619
-0.112352
0.0227063
-0.0576789
0.00659907
0.0163847
-0.185882
0.0431793
-0.0692248
0.0282558
0.0187076
-0.35018
-0.101273
0.00461968
0.00661564
0.0418017
-0.119215
-0.0632288
-0.104221
-0.230672
0.00885477
-0.0174356
0.0170504
0.0121281
-0.0580702
-0.219518
-0.345758
-0.116387
-0.0697552
-0.00575153
0.0373631
-0.0579106
-0.0270049
0.0253366
-0.0343201
0.0287125
0.0510851
0.0333515
-0.0104738
0.00972293
-0.395105
0.0116843
0.0170062
-0.193427
0.0382284
-0.0580272
0.0163872
-0.12423
0.0344633
0.0427799
0.0188191
0.00168869
-0.0986959
-0.145018
-0.0120588
-0.38385
-0.173526
0.0165264
-0.0307669
0.0193348
0.00264422
0.0319081
0.0407861
0.0370273
-0.118848
-0.361001
-0.32028
-0.0851406
0.0135882
0.013316
0.0358427
0.0903368
0.225861
0.0311396
-0.101621
-0.226485
-0.000169465
-0.0313083
-0.0603085
0.0115478
-0.0761858
-0.0779599
-0.346239
-0.0307401
-0.293791
-0.0535857
-0.0705707
0.0049288
0.0225274
0.0107894
0.018801
-0.0659361
-0.316425
-0.171088
-0.0919133
0.00208619
0.00392491
0.0259882
-0.395376
0.0117741
0.0220693
-0.368909
-0.349573
-0.0056245
0.0238028
0.0260312
-0.0819968
0.00793454
0.0942042
-0.0197948
0.0428008
0.0347671
-0.0749867
0.0206018
0.00256388
0.0249678
-0.302341
0.0836566
-0.176649
-0.0606008
0.0191019
-0.36121
0.0233391
-0.362957
0.0188502
-0.287591
0.0404372
-0.00643952
0.018104
-0.0237532
-0.047246
0.0241336
0.00534578
0.0251848
-0.209563
-0.0173326
-0.0685502
-0.0419393
0.0184943
-0.239182
0.101972
0.00776545
0.0259524
-0.0986664
0.0247552
-0.0671808
0.0466584
0.0215993
-0.0990131
-0.331753
-0.0459721
0.0230241
-0.0510744
-0.00333268
0.0328567
-0.0748909
0.0215188
-0.0850102
0.00438525
-0.370066
-0.0974098
-0.0714059
0.0230131
0.00481619
-0.362966
0.0175094
-0.0368989
-0.0519863
-0.366908
-0.359388
-0.0730487
-0.267276
0.029631
0.0144154
-0.363917
-0.140703
0.0393318
-0.151415
0.0090773
-0.0053623
0.0214995
-0.161052
0.0274469
-0.0651969
-0.221212
-0.262291
0.00892652
-0.0388036
-0.0727479
0.0105187
0.1096
-0.00256424
0.0183524
-0.386184
-0.162693
-0.014782
-0.0992086
-0.0364917
-0.257972
-0.15072
0.0143842
0.023887
0.0566397
0.0615178
-0.219564
-0.17907
0.0380291
-0.0245778
0.00931133
-0.0825518
0.00830675
-0.0626787
-0.10178
-0.0813723
-0.00150153
0.00418872
-0.0577311
-0.00373244
-0.395493
0.00537283
0.0275118
-0.0872588
0.0115354
-0.0512006
-0.238481
-0.0867066
-0.371656
-0.0604004
0.0178884
0.00525499
0.0195017
-0.0812681
-0.237012
-0.114777
-0.0828208
-0.0770921
0.0182339
-0.0521729
-0.181786
0.0274329
-0.0186272
-0.0328414
-0.0449804
0.123606
-0.155897
0.0136424
-0.0673324
0.00490654
-0.064698
-0.073705
-0.0520872
-0.0364219
-0.371365
-0.11697
-0.201804
-0.0501917
-0.0585468
0.0254709
-0.341013
-0.201818
0.016258
-0.0716269
0.0255347
0.0053444
-0.000958897
-0.0688557
-0.0701557
-0.00855785
-0.0565543
-0.0643897
0.000876706
0.00454393
-0.378992
0.0995348
0.0564794
-0.190897
0.054006
0.00283492
0.0270607
0.0142032
-0.165795
0.000726084
-0.00278551
-0.21364
0.0209034
-0.0546849
-0.236152
-0.0272205
-0.132576
-0.357313
0.0198267
-0.24541
-0.00418876
-0.0471483
-0.0258584
0.0322864
0.0542366
0.0221246
-0.0279192
-0.259831
0.0186252
0.0242145
-0.124339
0.0290893
-0.0576137
-0.0431765
-0.00261552
0.140048
0.0226566
0.00770039
-0.162481
-0.00785301
-0.0019514
-0.0774653
0.00435286
-0.053325
-0.22993
0.0127982
-0.0644654
-0.220661
-0.11358
0.00133848
0.0257448
-0.36763
0.0102119
-0.0759554
-0.0479299
-0.392493
0.0056965
-0.115526
0.00487361
0.0232224
0.0185357
0.0142071
0.0135686
-0.297481
-0.00139762
-0.0692297
0.0276925
-0.342394
0.0283068
-0.149087
-0.289533
-0.0397067
0.0283451
-0.0028222
-0.0796049
0.00718196
-0.0927347
-0.128202
-0.366285
0.0353679
-0.0136394
-0.0168929
-0.0224187
-0.0729394
0.0690014
-0.0193202
0.0240502
-0.365585
-0.149856
-0.0378274
-0.16732
-0.0258563
0.017786
0.0236505
0.0364372
0.0328504
0.100728
0.024898
0.0774721
-0.0770867
-0.00304515
-0.225102
0.0259149
-0.386998
-0.0431167
-0.0577979
0.018568
-0.107171
0.0335617
-0.0013432
-0.0450479
-0.0472602
-0.0299109
-0.341358
0.0178371
0.00512605
0.00330504
-0.0881972
-0.367783
-0.129817
-0.0763308
-0.127547
0.0840565
-0.242593
-0.115068
0.0654848
-0.15013
0.153282
-0.145422
-0.0796051
-0.0562922
-0.338126
-0.0371468
-0.0616203
0.0223576
0.026268
-0.0476859
0.019405
-0.131698
0.0704152
0.0185992
-0.000448807
0.00666481
0.0254286
0.00418863
0.0220704
0.0134277
-0.0932482
-0.36569
0.0265498
-0.31274
-0.394662
-0.00125311
-0.0305179
-0.052843
0.0185723
0.0244385
0.0243098
-0.0850504
-0.10107
-0.0575056
-0.0815986
0.0259624
-0.231526
0.0187561
0.0278283
-0.0150335
-0.0727106
0.0243277
-0.0432704
0.0923758
-0.161964
0.0286861
0.0871154
-0.0601591
-0.0655943
-0.054306
-0.0841725
-0.07292
-0.170873
0.0388955
0.0713973
0.0354551
0.0100872
-0.064998
-0.168998
-0.0618398
-0.126588
-0.0711078
-0.288019
0.0457407
0.000233983
-0.0273284
0.00668103
-0.00301633
-0.0594278
-0.0636647
-0.245601
0.0128245
-0.312438
0.0206696
0.0320222
-0.0102303
-0.0411279
0.0161675
-0.0168098
-0.0591565
0.0132085
-0.164294
-0.376912
-0.361947
0.25161
0.0136232
0.0236651
-0.0767201
-0.394284
-0.0805684
-0.0665494
0.00499033
-0.0627896
-0.110443
0.0249236
0.0424094
-0.0735253
0.00433591
-0.333015
-0.0832186
-0.119437
-0.101358
-0.341222
-0.34291
0.111258
-0.00622437
-0.111842
-0.115813
-0.0613243
0.0271977
0.00662526
-0.0790773
-0.203921
-0.0832163
-0.12655
0.00534853
-0.0438249
-0.129091
-0.0152111
-0.0453216
0.0245901
-0.346746
-0.244929
-0.383964
0.0254603
0.0241005
-0.179431
-0.15554
0.0187538
-0.0358456
0.0218519
0.000972055
0.0242957
-0.0343393
0.0096797
-0.171077
-0.264735
-0.0668752
0.0180387
0.00760048
-0.0667227
-0.0295091
-0.0773827
-0.0722352
0.0177539
-0.18567
0.0553939
0.0880382
0.0324543
-0.00439537
-0.0787466
-0.113079
-0.0627791
-0.25158
-0.241774
0.000643756
-0.0898462
-0.100069
-0.140935
-0.122895
0.055736
-0.0639631
0.0274006
-0.240078
-0.0413798
0.00510242
0.0148739
0.1127
-0.348421
-0.18859
-0.0846253
-0.206833
-0.139725
-0.00243362
0.0246381
-0.332632
-0.0312359
0.00333055
-0.336292
-0.0535899
0.0222888
-0.069967
-0.176616
0.0232685
0.00472961
0.0130432
-0.237227
-0.388548
0.023467
-0.113685
0.029912
-0.00420526
0.02615
0.0223001
-0.0445849
0.0334656
0.003374
0.0189557
-0.0634317
-0.318302
-0.140172
-0.217716
-0.094039
-0.208283
-0.0424846
-0.0655756
-0.270993
-0.225514
0.00452565
-0.213385
0.0167907
0.0263965
-0.1462
-0.298205
-0.28413
-0.314899
-0.3089
-0.0109374
-0.0173082
-0.339405
-0.199394
0.0274971
-0.188739
-0.282336
-0.1723
-0.317684
-0.276745
0.0188284
-0.338996
-0.00175971
0.0231726
0.202711
-0.0343179
-0.36666
-0.051315
0.00421369
-0.132225
0.0188816
0.0296593
0.027339
-0.351651
-0.0613329
-0.236386
0.0264616
-0.0501839
-0.0039603
0.0248371
-0.233889
-0.253407
0.0179223
-0.142063
0.00973719
-0.0679891
-0.236066
-0.265379
-0.345352
-0.140744
-0.0615837
-0.116169
0.00466861
-0.170156
-0.0382416
0.10727
0.0190124
-0.135151
-0.378064
-0.0635164
0.0145246
0.0410895
-0.0598472
-0.152093
-0.0645006
-0.0708574
-0.0513054
0.0278638
-0.208589
0.143503
-0.248292
0.0129688
-0.35534
0.0365615
0.0218484
-0.227358
-0.280171
-0.0287605
-0.0642963
-0.116104
0.0258181
-0.114568
0.0461311
0.0176344
-0.21842
0.0185243
-0.103736
0.016721
0.00541773
0.0286927
-0.0380006
-0.0182951
-0.228675
0.0493139
-0.00518317
0.0119967
0.0136547
-0.0630948
-0.10792
-0.0857668
-0.0326922
-0.365986
0.0267289
0.00489757
-0.116214
-0.386417
-0.0616178
0.0250606
-0.116865
-0.0611739
-0.0664486
-0.0355878
-0.102001
-0.269721
-0.11558
-0.0531044
-0.3278
-0.0906427
-0.000339091
-0.319412
-0.393399
-0.135955
0.0187699
0.014407
-0.199208
-0.0703009
-0.0286926
-0.0697727
-0.00841916
0.00558107
-0.195262
0.0408808
-0.125988
0.127999
0.0237712
0.0269761
-0.0498092
0.0186378
0.0055967
0.0757996
-0.319555
-0.0920259
-0.288354
0.0186231
-0.373602
0.00402628
0.0217612
-0.35123
0.0280174
-0.125708
0.0214195
-0.166177
-0.0699773
-0.0714325
0.0555932
-0.0960208
-0.14218
-0.251674
0.016326
-0.259244
0.0358769
-0.0171781
0.0139558
-0.118675
-0.0995661
0.0272409
0.0985376
0.00357543
0.0284117
0.0506279
0.018431
-0.0436241
-0.0524017
0.0415528
-0.136778
0.0172967
0.0698549
0.00508425
0.0187629
0.0225765
0.0246394
0.0294817
0.0141845
-0.0135395
-0.222086
-0.336605
-0.232673
0.0242319
-0.150184
-0.218683
0.0256271
0.0352298
-0.138682
0.0666512
0.0186705
0.0318318
-0.0623646
0.0159231
-0.0601555
-0.340209
-0.112579
-0.0236129
0.0631852
-0.106347
0.0246713
0.0269281
0.0186405
-0.382825
0.0671788
-0.0383292
0.01193
-0.310043
-0.116148
-0.100067
0.0261949
0.0185
0.0268365
0.0191139
0.0368001
-0.111865
-0.00381942
-0.363019
0.0274325
-0.0306837
-0.0753059
-0.0772283
-0.0343004
-0.0579808
-0.235392
-0.0220176
0.0073182
-0.0629966
0.0483197
0.040941
-0.0196655
-0.0001311
-0.117269
-0.0504466
0.0511339
0.0213673
0.00980828
-0.032794
0.0242207
-0.230513
-0.224458
0.0299137
-0.080393
0.00242252
-0.0696879
-0.00245191
0.0146813
0.123201
-0.227441
0.000228867
-0.0298959
0.00283447
-0.359037
-0.0267468
-0.0154107
-0.0375927
-0.165853
-0.374705
-0.0717638
-0.0315614
0.0297064
-0.0173929
-0.390089
0.00463458
0.0280478
-0.0691532
0.0338668
-0.0648252
-0.112648
-0.124475
-0.0215662
0.0391986
0.0296731
0.0191911
-0.100953
0.0183809
-0.0176743
-0.0473216
0.0299072
0.159394
0.0478588
-0.169427
0.0174908
-0.294103
0.0597549
0.0530599
0.0204077
-0.221742
-0.210681
0.0185896
0.0631813
-0.178918
-0.0637322
-0.0323209
-0.389017
0.0206154
-0.114762
-0.0787763
-0.375262
-0.079064
0.0283253
0.0247831
0.0543946
0.0282447
-0.229609
0.0305733
-0.202807
-0.114088
0.00734532
-0.0562676