/*--------------------------------*- C++ -*----------------------------------*\
| =========                 |                                                 |
| \\      /  F ield         | OpenFOAM: The Open Source CFD Toolbox           |
|  \\    /   O peration     | Version:  v2012                                 |
|   \\  /    A nd           | Website:  www.openfoam.com                      |
|    \\/     M anipulation  |                                                 |
\*---------------------------------------------------------------------------*/
FoamFile
{
    version     2.0;
    format      ascii;
    class       volScalarField;
    location    "400";
    object      epsilon;
}
// * * * * * * * * * * * * * * * * * * * * * * * * * * * * * * * * * * * * * //

dimensions      [0 2 -3 0 0 0 0];


internalField   nonuniform List<scalar> 
18649
(
0.00266657
2.17707e-06
1.69177e-06
0.00377714
6.7282e-05
1.99288e-06
0.0193821
2.32843e-05
2.64729e-06
2.33854e-06
1.6767e-05
0.00526293
0.0211372
1.69986e-06
2.89766e-06
2.22643e-06
2.41209e-06
2.22787e-06
2.06391e-05
0.0180496
0.0353473
2.10317e-06
0.00602357
1.24512e-05
2.46338e-06
0.015991
2.17283e-06
0.00538275
0.000660146
1.8369e-06
2.02978e-06
5.16216e-06
3.05431e-06
2.24271e-06
2.31749e-06
0.0064758
2.30534e-06
2.34576e-06
1.99672e-06
2.02505e-05
2.76937e-06
1.12703e-05
2.86233e-06
0.00501645
2.1742e-06
1.82946e-06
0.0105101
0.00398993
0.0485928
2.1098e-06
0.010547
2.12181e-06
0.0636372
0.0374012
3.07796e-06
0.0536091
0.00822062
3.38342e-06
0.0072809
2.34653e-06
0.00261321
2.9173e-06
2.84433e-06
0.00465181
2.33996e-06
0.00530112
2.06384e-06
0.00846354
0.00431895
3.29724e-05
0.00467106
2.83539e-06
5.62692e-06
1.89476e-06
2.24569e-06
0.0322411
2.69669e-06
2.24537e-06
1.89136e-06
6.34088e-05
2.39523e-06
0.00891615
0.00417657
0.0663647
4.33096e-06
1.9926e-06
2.36577e-06
2.10195e-06
2.47489e-06
1.91718e-06
1.95287e-06
2.4303e-06
2.46837e-06
0.0125561
2.11405e-06
1.34366e-05
2.34442e-06
2.82275e-05
0.00447651
2.17918e-06
0.00601848
3.00632e-06
2.26858e-06
0.0108069
0.00403252
2.12433e-06
3.7203e-06
2.01779e-06
3.04915e-06
2.2612e-06
0.00573716
8.48741e-06
2.48005e-06
2.26444e-06
9.14441e-06
1.7174e-06
3.11295e-06
0.0111632
0.00487435
1.97162e-06
0.00671967
2.23226e-06
5.24322e-06
2.84712e-06
0.00889941
2.43837e-06
4.27696e-06
0.0173244
2.23473e-06
0.0118336
2.61152e-06
0.0043627
2.43686e-06
0.0100794
2.32408e-06
3.83747e-06
0.00444474
0.0084988
1.94235e-06
2.23058e-06
0.00198682
2.27496e-06
2.10802e-06
2.80322e-06
3.59707e-06
0.00579947
2.09658e-06
3.11618e-06
0.00657841
0.0040187
6.61349e-05
3.90616e-06
0.00399318
1.86801e-06
2.25549e-06
2.82027e-06
2.45446e-05
4.54719e-05
3.07905e-06
2.52316e-06
3.20574e-06
0.000561216
0.0076567
1.87655e-06
0.00940566
9.22207e-06
3.70064e-06
2.77735e-06
2.24508e-06
1.71955e-06
2.62019e-06
0.0177956
3.20579e-06
6.61602e-05
2.33496e-06
0.0301737
0.00767244
2.16611e-06
3.09956e-06
6.38511e-05
0.000170896
1.97782e-06
4.0602e-06
0.00998321
2.05602e-06
2.20221e-06
3.6354e-06
2.25577e-06
2.03048e-06
2.45555e-06
0.0249471
2.31468e-06
0.00383553
1.8891e-06
2.30957e-06
3.76435e-06
2.34999e-06
3.83242e-06
2.24426e-06
4.14146e-06
3.1462e-06
6.12862e-06
0.00823028
2.29569e-06
2.54111e-06
6.16532e-06
0.00302711
0.011831
2.02378e-06
0.00397932
2.48844e-06
2.17814e-06
2.25666e-06
0.00292137
0.00433577
2.12072e-06
3.67658e-06
2.33252e-06
0.00907029
2.45114e-06
3.6935e-06
2.34329e-06
0.0268796
0.015426
0.0204261
0.0119777
2.10835e-06
2.46007e-06
0.0592828
0.0307208
2.02759e-06
2.4492e-06
0.00734028
2.22945e-06
0.0196361
0.00058013
1.95043e-05
6.2112e-05
2.45143e-06
0.00310492
2.19135e-06
0.00654958
2.0239e-06
1.99333e-06
2.25876e-06
2.46076e-06
0.0428093
2.53115e-06
0.13973
3.72224e-06
0.00843104
0.0186416
2.18181e-06
2.30967e-06
2.05471e-06
0.00523349
2.35562e-06
2.49838e-06
2.26385e-06
2.25585e-06
2.11071e-06
7.84416e-06
0.0036989
2.53018e-06
2.33429e-06
0.00807338
0.0278165
3.7889e-06
0.00988618
2.22918e-06
0.00567877
7.13067e-06
0.0572974
0.151271
2.22137e-05
1.87996e-06
2.34813e-06
0.0165128
0.0123642
0.00978784
3.59995e-06
2.3506e-06
0.00418182
2.1406e-06
0.0502351
0.00667352
1.85482e-06
2.72972e-06
3.91907e-06
1.92335e-06
3.43387e-06
0.00715276
0.0244961
0.00125633
0.00136391
2.25439e-06
0.000165142
0.00139479
2.29431e-06
0.0289879
3.03061e-06
2.24166e-06
2.35284e-06
2.8489e-06
1.9869e-06
6.25887e-05
3.86911e-06
2.38892e-06
7.40766e-05
2.24427e-06
0.0148393
2.33833e-06
0.101263
2.91426e-06
1.86252e-06
2.43693e-06
1.83775e-06
4.17794e-06
0.00418122
0.00588366
3.79447e-06
3.23634e-06
2.7675e-06
3.98812e-06
2.86881e-06
2.10946e-06
3.6338e-06
2.40345e-06
0.0128252
5.95209e-06
0.0034402
2.79515e-06
3.33731e-06
2.82269e-06
3.02822e-06
1.67079e-06
0.00862007
2.24574e-06
0.00819808
2.30806e-06
0.000655296
3.04403e-06
1.78316e-06
2.25044e-06
2.01926e-06
2.9929e-06
3.84562e-06
2.2072e-06
1.93352e-06
2.23152e-06
2.93607e-06
0.0209759
2.91803e-06
2.11323e-06
0.0034163
0.0215096
1.83621e-06
0.0142349
0.000346569
0.00944526
0.0223498
2.0228e-06
0.021045
2.8985e-06
0.027121
0.0590715
2.34349e-06
2.26315e-06
2.23689e-06
2.03469e-06
2.29727e-06
2.11768e-06
3.031e-06
0.00757198
2.42146e-06
0.018731
0.00358012
0.000481093
0.0384956
1.87586e-06
4.23407e-06
2.01138e-06
2.49804e-06
0.029566
4.1484e-06
3.93282e-06
0.0191807
0.0253438
2.00303e-06
2.11263e-06
0.00250314
2.89905e-06
2.47273e-06
0.0112208
1.69497e-06
2.26224e-06
0.0059233
1.99177e-06
3.93875e-06
0.00814161
0.00747602
2.17334e-06
2.66048e-06
3.34704e-06
0.00735365
0.00848042
2.32335e-06
0.00445533
2.18744e-06
2.25926e-06
0.0197076
1.95225e-06
0.01335
1.99557e-06
9.19404e-06
0.0339958
0.0227873
0.0297283
2.50847e-06
0.0565411
2.88304e-06
0.0143543
4.20763e-06
0.0235504
0.0369562
2.13213e-06
1.63126e-06
0.00362869
0.0102105
1.78843e-06
0.139009
2.00704e-06
2.11018e-06
2.3829e-06
0.0124439
0.0223608
0.0267612
2.01949e-06
2.43587e-06
0.0169535
0.00430487
2.26163e-06
2.26562e-06
2.12323e-06
2.17538e-06
0.0100612
0.0163941
3.13474e-06
1.77444e-06
0.00595234
2.0244e-06
0.00569684
2.11806e-06
0.00842324
2.83408e-06
0.0252176
2.27876e-06
0.037699
0.00398593
2.16846e-06
2.6401e-06
2.11157e-06
2.45771e-06
1.87088e-06
2.57e-06
2.1471e-06
0.0183109
1.92899e-06
1.93333e-06
0.00419734
2.22449e-06
3.82686e-06
0.00889486
2.52426e-06
0.00538318
1.84171e-06
1.82271e-06
1.75709e-06
1.94612e-06
1.69007e-06
4.25075e-06
0.000958954
2.24812e-06
2.83886e-06
3.28707e-06
2.11363e-06
0.00489926
4.20383e-06
0.0334622
2.07143e-06
0.0196095
0.00697815
0.00679165
0.00456511
1.95068e-06
4.82921e-06
2.02605e-06
0.00514377
2.5072e-06
8.56511e-06
2.24844e-06
2.53568e-05
7.15655e-06
3.56786e-06
3.96311e-06
0.000708225
8.95496e-06
0.0205769
2.04983e-06
0.0050133
2.27273e-06
3.72689e-06
3.25373e-06
4.64606e-06
0.0047994
3.82782e-06
1.77684e-06
0.00688232
2.02257e-06
2.65584e-05
2.05299e-06
1.99513e-06
2.17141e-06
2.19755e-06
2.5412e-06
7.70732e-05
4.16002e-06
0.0188135
2.04408e-06
0.0044516
0.00693042
0.0124261
0.00466671
1.93527e-06
0.0188648
2.4585e-06
0.0167324
0.00378827
1.95134e-06
2.93654e-06
8.39243e-06
1.85748e-06
4.17702e-05
2.28394e-06
3.76235e-06
1.86393e-06
3.18957e-06
4.20031e-06
2.27622e-06
0.115701
2.21871e-06
2.24491e-06
1.91974e-06
2.11315e-06
0.00118773
0.0121052
2.4991e-06
2.84473e-06
6.34256e-05
3.60263e-06
3.2812e-06
0.0206313
0.0305918
0.0450922
4.86244e-05
2.03069e-06
2.09928e-06
1.98054e-06
1.94179e-06
1.83442e-06
0.0010646
2.53298e-06
1.82772e-06
1.9934e-06
0.0101197
0.0240067
0.00601864
2.22313e-06
2.67332e-06
0.00716574
0.00586991
0.0300999
2.12359e-06
3.20621e-06
0.00779231
3.06103e-06
0.00671001
2.1183e-06
2.2959e-06
2.36715e-06
0.00151621
0.00467461
1.84858e-06
5.8938e-05
2.29146e-06
2.26028e-06
0.0031482
0.000573352
2.72903e-06
0.017549
1.95319e-06
0.0115845
2.26248e-06
0.079747
2.18192e-06
1.8024e-06
2.69365e-06
0.0255474
2.67099e-06
2.66801e-06
2.94528e-06
0.00560949
1.79733e-06
0.0061537
1.94395e-06
2.24033e-06
0.0210698
1.99419e-06
3.02912e-06
3.37267e-06
1.89325e-06
2.69048e-06
2.25348e-06
2.62742e-06
0.00311476
0.00247749
0.00852274
4.12777e-06
0.00526769
2.09354e-06
0.000139152
2.18418e-06
1.99969e-06
2.09821e-06
2.33685e-06
0.00459421
2.36055e-06
4.97883e-06
3.82455e-06
2.71904e-06
2.30047e-06
2.35995e-06
2.26862e-06
0.0291448
2.93402e-06
2.361e-06
2.25009e-06
0.0095573
4.13794e-06
2.2913e-06
1.71711e-06
2.23375e-06
0.00681955
8.04273e-06
0.0116826
2.17028e-06
0.0761588
1.95281e-06
2.01227e-06
1.83169e-06
0.00420809
1.97895e-06
2.0748e-06
0.0310112
0.0315864
3.103e-06
0.00430126
0.0652054
1.94529e-06
1.8092e-06
3.15032e-06
2.37888e-06
2.74743e-06
0.0456317
0.00471371
0.00417748
0.0325348
2.81411e-06
0.107625
2.76047e-06
2.77907e-06
2.01694e-06
0.00431947
2.2181e-06
2.32215e-06
0.00791436
0.00430486
1.96912e-06
0.00306752
2.13543e-06
3.13538e-06
0.023106
1.89236e-06
0.00111464
2.25863e-06
0.000188222
1.72014e-06
1.80083e-06
4.22369e-06
3.89373e-05
2.29428e-06
0.0044452
0.0528172
1.03118e-05
0.00664418
0.00956762
2.29113e-06
0.00438833
0.0139629
3.74421e-06
2.36167e-06
2.1025e-06
0.0110986
0.0296258
0.00414404
1.28809e-05
3.68896e-06
3.0161e-06
2.16992e-06
0.0221504
0.0038112
2.69313e-06
2.07106e-06
0.00947516
0.0183357
0.02113
6.07449e-06
2.85615e-06
2.28913e-06
0.00497526
0.0164227
2.49908e-06
1.88454e-06
2.3707e-06
0.0475298
3.27646e-06
0.0110497
3.67404e-06
3.10249e-06
1.67621e-06
0.00484108
2.88013e-06
2.07309e-06
2.63504e-06
2.6149e-06
2.56407e-06
0.0134864
9.75903e-06
0.00047577
0.0229894
0.00452555
0.00975847
4.20901e-06
0.00627577
2.26409e-06
2.02221e-06
0.00327644
2.97649e-06
2.57872e-06
1.96271e-06
0.0344631
0.0119871
0.0214883
2.74567e-06
2.23924e-06
1.97496e-06
2.03569e-06
1.67162e-06
2.21594e-06
2.69039e-06
0.00952942
2.34069e-06
2.78971e-06
3.94899e-05
0.0641305
3.46659e-06
2.80261e-06
0.0124353
0.00769475
2.70567e-06
0.00422772
0.00183121
2.20913e-06
2.23e-06
3.52968e-06
2.18314e-06
7.59767e-06
0.0053183
0.0205981
2.05721e-06
0.0112111
0.00645753
0.00511058
1.80498e-06
0.00393334
2.16868e-05
0.00520419
4.18599e-06
0.0564036
1.96683e-06
0.0041997
0.0343814
0.00605258
2.32561e-06
1.76105e-06
2.16457e-06
8.26965e-05
2.17202e-06
9.68805e-06
2.25274e-06
0.00039927
1.98242e-06
0.00519449
0.00978634
2.08737e-06
0.00196587
3.40248e-06
5.42572e-06
4.50158e-06
0.0123798
2.83027e-06
1.04683e-05
9.6433e-06
0.00017838
0.0225435
2.50784e-06
0.0371504
0.0199121
2.70919e-06
0.0251419
1.96651e-05
2.52057e-06
0.018168
0.00827561
2.20302e-06
2.37037e-06
0.0103233
2.70574e-06
0.0212044
2.46477e-06
2.68115e-06
2.59495e-06
2.0029e-06
2.81256e-06
1.76469e-06
0.00969064
4.26084e-06
1.98323e-06
1.92773e-06
0.0306533
2.80549e-06
2.84282e-06
1.99807e-06
0.0218998
2.29432e-06
0.00348001
0.0189793
2.23276e-06
0.0316962
2.22363e-06
1.87325e-06
0.070817
0.000316423
2.29176e-06
2.58915e-06
2.2174e-06
2.11277e-06
0.000610116
1.71194e-06
2.91898e-06
2.37796e-06
3.8646e-06
0.00598934
2.88623e-06
2.31468e-06
3.16144e-06
2.02991e-06
2.13834e-06
0.0164489
2.60443e-06
2.2935e-06
0.0135686
2.62108e-06
0.00102239
0.0472183
2.1702e-06
0.0132193
3.55225e-06
0.00573607
3.3836e-06
4.50782e-06
0.0023332
0.0010462
2.17511e-06
2.87354e-06
4.46693e-06
1.82467e-06
0.00439553
0.00660934
0.0351399
0.000107946
2.56206e-06
2.25941e-06
2.16814e-06
0.0043138
0.00497362
2.62332e-06
0.0251015
0.0231105
2.28414e-06
6.50532e-06
0.000234553
0.011442
2.00581e-06
0.00471785
0.0220809
0.00563914
0.0174716
0.0244075
0.00697596
2.57153e-06
3.13695e-06
2.26321e-06
2.33237e-06
2.80788e-06
2.20776e-06
0.00847561
1.67877e-06
3.37927e-06
0.0055189
0.00115864
0.0115196
2.75055e-06
0.0434386
1.3888e-05
4.93149e-06
4.21181e-06
0.00398512
2.80211e-06
0.0394761
0.0915502
3.75486e-06
3.39575e-06
2.5217e-06
0.056609
0.00658066
0.000606792
0.0180132
1.87839e-06
2.26777e-06
0.00453472
6.30395e-06
0.00367922
1.87093e-06
2.89471e-06
3.22166e-06
2.17446e-06
2.95174e-06
2.4982e-06
2.22923e-06
2.26417e-06
2.27159e-06
2.39412e-06
1.80957e-05
2.57956e-06
2.10019e-06
2.67839e-06
1.6734e-06
0.000111904
0.0327251
0.0567989
0.00457458
0.054984
0.000906508
0.000544312
2.26777e-06
3.71732e-06
0.00505722
1.71144e-06
2.75088e-06
3.12355e-06
2.01489e-06
0.00412016
5.66677e-06
0.0352093
3.51285e-06
2.16472e-06
0.00534946
0.0056811
0.0564658
1.04109e-05
0.00496411
2.25271e-06
2.84632e-06
3.01163e-06
4.27776e-06
2.27658e-06
2.78497e-05
0.0042136
4.62712e-06
0.000188393
0.0152317
0.0232524
2.13283e-06
2.83237e-06
9.588e-06
2.15967e-06
7.15735e-06
0.00776896
1.86615e-06
0.0226685
0.0866504
6.78015e-05
0.0107747
1.75943e-06
2.13039e-06
2.02766e-06
0.0118745
2.10153e-06
3.37604e-06
2.38584e-06
2.26499e-06
2.8592e-06
0.0116148
1.85761e-06
4.20117e-06
2.48144e-06
3.33359e-05
2.24487e-06
2.01488e-06
0.00493601
2.30627e-06
0.000190672
2.29484e-06
2.3913e-06
2.26935e-06
0.0186149
2.47948e-06
6.16696e-06
0.00888883
0.0205607
2.04044e-06
0.0124014
2.37651e-06
2.03176e-06
2.47492e-06
1.87819e-06
4.71602e-06
2.07136e-06
2.10934e-06
0.00673716
0.000126622
1.95526e-06
0.0125032
0.0125004
2.68201e-06
2.4509e-06
1.93374e-06
1.96198e-06
2.36058e-06
0.0358126
1.69181e-06
2.89728e-06
2.34538e-06
0.0310505
0.00435587
2.16429e-06
0.0251501
2.18273e-06
0.00156876
0.00796399
1.94881e-06
3.67362e-06
1.77236e-05
1.9636e-06
0.0201844
0.0474091
0.00469789
2.92509e-06
3.26231e-06
0.00678761
2.76236e-06
0.0245208
0.0115417
0.0116047
2.54334e-06
3.21956e-06
0.0325089
2.27579e-06
2.15804e-06
1.81071e-06
2.15376e-06
2.30405e-06
2.29052e-06
2.41273e-06
0.00569497
3.40974e-06
3.11003e-06
0.000421315
3.18935e-06
0.0683854
2.56411e-06
0.0123451
1.72345e-06
0.017378
7.56099e-06
3.0511e-06
0.000143443
2.54585e-06
0.00627749
0.0128616
1.74243e-06
0.00496444
1.8231e-06
2.94367e-06
0.00596371
2.15685e-06
0.00901102
2.1828e-06
3.69699e-06
0.0174923
2.01934e-06
4.34689e-06
3.30797e-06
2.17493e-06
1.72375e-06
2.14796e-06
3.33566e-06
2.39413e-06
2.0751e-06
1.70943e-06
2.02767e-06
0.0188683
3.15973e-06
0.0037929
0.00599605
1.85646e-06
0.0137489
2.46719e-06
2.73172e-06
0.0173131
0.012682
0.000109845
0.00719039
2.26871e-06
2.25321e-06
2.53844e-06
2.69884e-06
2.24818e-06
1.67421e-06
2.80994e-06
0.0201171
7.63164e-06
2.04914e-06
1.87603e-06
0.0426575
0.0066502
2.37285e-06
0.0145906
2.34393e-06
1.37191e-05
0.00578729
0.055442
0.00924966
0.00842062
2.56221e-06
0.00535756
0.00419411
2.53887e-06
2.63698e-06
3.00291e-06
0.0327509
1.87924e-06
0.000152685
0.00926971
2.18765e-06
2.27622e-06
2.98925e-06
0.121715
0.0167749
2.6773e-06
0.00492572
1.89583e-06
1.94488e-06
0.00589497
1.69164e-06
2.95408e-06
0.00352128
2.267e-06
4.41061e-06
0.00715743
0.0236961
2.27413e-06
4.20491e-06
0.00568986
3.79858e-06
0.00759704
2.51094e-06
0.0380596
0.000122771
0.00436889
3.61559e-06
0.0188719
1.96835e-06
2.18554e-06
1.96193e-06
3.16681e-06
5.61683e-06
2.73054e-06
2.52215e-06
4.23723e-06
2.14445e-06
0.00869155
0.0101497
3.61732e-06
0.0187574
8.73741e-06
0.0302445
0.0078389
0.0170325
2.25078e-06
1.95602e-06
0.000216745
2.16019e-06
4.23706e-06
2.35802e-06
2.27454e-06
5.8518e-06
3.5236e-06
0.00484199
0.00416396
4.16036e-06
2.25295e-06
2.67244e-06
3.23537e-06
8.93985e-06
0.0162307
2.97415e-06
0.0230984
0.00844503
2.56377e-06
0.0299497
1.64494e-06
0.00814778
2.79329e-06
1.73843e-06
0.00499636
0.0512012
3.15198e-06
0.00870758
2.2924e-06
0.00557125
2.10125e-06
2.56708e-06
0.00928108
2.07131e-06
0.000485994
0.0147991
1.79576e-06
3.60246e-05
2.09587e-06
0.0197216
0.026983
1.87201e-06
0.00824148
2.38019e-06
2.69928e-06
3.2724e-06
5.62569e-06
0.00430877
2.17373e-06
0.0128745
0.00515604
2.55694e-06
0.0304176
1.91266e-06
0.00799894
2.67647e-06
7.83652e-06
2.35402e-06
1.94538e-06
2.97565e-06
0.00513751
0.00631911
1.86532e-06
3.80215e-06
0.0211169
1.79161e-06
4.01247e-06
0.0119876
0.00341775
0.0152827
0.00911237
9.48194e-06
2.9751e-06
2.0301e-06
3.0288e-06
0.0420318
0.00996914
1.71562e-06
4.28072e-05
0.0172588
2.53316e-06
0.0303768
5.12244e-05
0.0080405
0.0185203
1.90901e-06
0.00884818
1.83823e-06
8.58022e-06
0.00918073
0.0158276
0.0413257
9.95296e-06
0.00543889
0.00506567
2.20819e-06
1.66122e-06
1.79068e-06
2.06809e-06
2.88903e-06
2.34698e-06
0.000387154
0.0673245
0.00414305
2.75261e-06
0.0103828
0.00859058
9.35471e-06
0.000173803
1.94884e-06
0.00815929
0.00833843
2.86746e-06
0.0043064
1.05227e-05
2.62511e-06
1.6787e-06
0.00578267
2.16005e-06
0.0745149
2.2723e-06
2.25028e-06
2.03123e-06
0.00962353
0.00186329
2.32087e-06
0.000250073
0.00575264
0.00645613
0.0198602
1.65098e-06
2.01084e-05
0.0112957
0.00670751
2.53163e-06
4.95318e-06
0.00746799
0.0065103
2.92953e-06
4.0929e-06
0.0165284
8.6101e-05
3.59422e-06
0.0767068
0.0217264
0.00536012
3.03749e-06
2.64544e-06
3.24571e-06
3.36115e-06
0.00114623
2.32202e-06
2.49573e-06
4.97464e-05
5.67978e-06
2.99132e-06
3.20636e-06
1.64842e-06
2.61729e-06
4.0443e-06
1.67961e-06
9.86592e-06
1.70529e-06
3.30513e-06
0.00741236
0.0275401
0.0188955
1.69869e-06
2.00514e-06
0.0108184
2.18109e-06
1.65727e-06
1.96644e-06
1.91331e-06
0.0134663
2.88728e-06
2.79448e-06
2.35283e-06
3.73419e-06
2.66778e-06
0.0101518
2.17022e-06
8.18531e-06
0.000119531
2.72584e-06
4.28086e-06
2.11776e-06
6.90426e-06
4.71959e-06
4.17698e-06
3.27747e-06
3.79055e-06
0.000290845
1.78514e-06
3.77743e-06
1.99994e-06
0.00597098
1.86127e-06
3.88721e-06
2.04357e-06
0.00411607
0.0338223
1.45541e-05
4.15872e-06
0.00875862
2.51093e-06
2.45942e-06
7.68541e-06
4.18614e-06
2.87349e-06
3.79446e-06
2.21822e-06
2.57959e-06
2.48531e-06
3.43723e-06
2.78399e-06
2.6731e-06
1.69813e-06
0.0036862
0.0156321
2.08886e-06
2.2942e-06
1.93047e-06
1.47611e-05
3.88473e-06
3.53035e-06
2.34749e-06
2.59114e-06
1.90856e-06
1.8555e-06
0.0309655
3.32896e-06
4.77225e-06
1.68386e-06
2.33973e-06
2.19334e-06
8.40707e-06
2.9746e-06
2.64524e-06
2.20448e-06
2.27741e-06
2.42837e-06
0.0108621
2.6038e-06
0.00499036
0.000203014
3.27719e-06
0.0147485
0.0161207
0.0233437
0.00392104
2.23487e-06
2.73858e-06
0.00165599
9.73565e-06
1.92068e-06
2.32913e-06
2.13334e-06
0.00191745
2.72828e-06
2.67969e-06
3.90633e-06
4.16152e-06
5.92385e-05
2.61242e-06
2.18386e-06
3.20577e-06
2.63846e-06
2.21346e-06
2.60089e-06
2.16816e-06
0.00127872
4.48071e-06
2.93897e-06
1.88679e-06
2.95281e-06
2.32477e-06
1.66333e-06
0.0048908
2.63309e-06
2.33496e-06
0.0153824
6.78859e-06
1.79029e-06
3.01324e-06
2.2738e-06
2.91245e-06
1.87764e-06
1.86652e-06
2.55341e-06
0.00921472
5.33722e-06
0.0245256
1.64927e-05
3.11141e-06
2.66234e-06
4.66515e-06
2.27438e-06
3.07784e-05
2.66636e-06
0.00850374
2.63115e-06
2.47372e-06
2.2829e-06
9.22378e-06
0.0138741
0.00388202
0.0152033
2.88493e-06
2.30397e-06
0.0269238
0.0110713
0.00870781
0.0267855
1.80229e-06
7.02309e-06
2.18868e-06
2.28692e-06
3.24737e-06
1.90575e-06
2.25224e-06
2.14081e-06
0.0130551
1.97834e-06
2.065e-06
0.0134876
1.86343e-06
2.37146e-06
3.06129e-06
0.0725008
1.03495e-05
2.09657e-06
2.66166e-06
2.22627e-06
7.95509e-06
0.000833174
4.16656e-06
2.65286e-06
2.5729e-06
4.90294e-06
2.77639e-06
0.0142671
2.55707e-06
0.0340187
3.16344e-06
1.69441e-06
1.66754e-06
4.19766e-06
2.6458e-06
2.24444e-06
0.0107888
0.0142598
4.16438e-06
0.0111617
0.00613583
1.86453e-06
2.61564e-06
0.0147287
4.87248e-05
8.98288e-06
0.00423462
2.55877e-06
2.24416e-06
2.39625e-06
0.0181974
2.40578e-06
5.58627e-06
0.0175207
0.00821237
2.36979e-06
2.07693e-06
6.51678e-05
2.76759e-06
1.99786e-06
4.49109e-06
2.33515e-06
0.0458108
4.12238e-06
0.0083055
0.00461041
0.00938233
3.11848e-06
0.000830185
1.94752e-06
7.05087e-05
2.47379e-06
6.03761e-06
2.59852e-06
0.000265561
0.000144197
1.70753e-06
0.00408817
0.0048723
1.64231e-06
0.00528602
2.38751e-06
2.13012e-06
2.49109e-06
6.58084e-05
2.54444e-06
0.0329251
0.000258039
0.0645654
4.10439e-06
3.29738e-06
1.82957e-06
0.0503004
2.28722e-06
2.81524e-06
2.76477e-06
0.00451047
2.0306e-06
3.83114e-06
0.00430072
2.58895e-06
0.030916
2.37933e-06
5.37709e-06
3.1899e-06
2.24846e-06
2.43946e-06
2.16621e-06
3.68195e-06
2.64698e-06
1.79191e-06
2.64211e-05
2.17492e-06
0.0250435
1.82121e-05
2.44537e-06
0.00490537
2.06778e-06
0.00463294
0.00456528
0.0139784
0.0183438
2.37669e-06
0.000272449
0.0148058
2.13119e-06
2.31161e-06
2.07984e-06
3.9094e-06
2.26582e-06
1.99354e-05
2.46561e-06
2.574e-06
6.84708e-06
0.0412775
1.95585e-06
6.01907e-06
0.00362997
0.0301924
0.00994531
1.81311e-06
2.43663e-06
1.94693e-06
0.0104917
1.69635e-05
6.28639e-06
0.00702631
2.19314e-06
1.94643e-06
2.31913e-06
2.43829e-06
2.07655e-06
0.00964144
2.53069e-06
2.12663e-06
0.0895899
2.10578e-06
3.40668e-06
1.88267e-06
0.0317808
2.29568e-06
1.84636e-06
3.18983e-06
2.25263e-06
0.0322053
2.28773e-06
2.24828e-06
0.000823879
2.49245e-06
2.55003e-06
1.82278e-06
2.5783e-06
9.30217e-06
2.53583e-06
5.75995e-06
2.38267e-06
1.95059e-06
2.57469e-06
3.55582e-06
0.0151794
3.80572e-06
0.000535392
2.1324e-06
1.85567e-06
0.00535458
3.55709e-06
2.14804e-06
2.34947e-06
2.14542e-06
2.12511e-06
2.16122e-06
0.00483794
0.000246321
5.70915e-06
0.0678005
0.00739521
2.99047e-06
0.00538146
7.5345e-06
0.000208906
2.25658e-06
2.0581e-06
0.0318949
2.23869e-06
2.06654e-06
0.0226051
2.44485e-06
2.85422e-06
0.0146807
5.18322e-06
2.91433e-06
2.45216e-06
1.68654e-06
0.00748426
2.57933e-05
2.60022e-06
1.99237e-06
2.84719e-06
0.008649
9.09134e-06
2.7226e-06
3.20512e-06
3.53532e-06
0.0245752
0.016705
1.76949e-06
2.76637e-06
1.90589e-06
1.79972e-06
1.99339e-06
0.0148491
0.0119976
2.14637e-06
3.11675e-06
0.0406835
2.29397e-06
2.15068e-06
2.22691e-06
1.85117e-06
2.16113e-06
0.00747443
3.55959e-06
9.76232e-06
0.00888811
3.13933e-06
3.14026e-06
3.45072e-06
0.0103037
2.09523e-06
0.0095792
0.00334849
4.87388e-05
4.20399e-06
0.000193201
0.0140372
1.72658e-06
0.025114
0.00774596
0.0348114
2.16562e-06
2.57655e-06
0.000174068
2.16996e-06
0.00878791
2.44988e-05
0.020708
2.77392e-06
2.29178e-06
0.00758756
0.0196847
1.88455e-06
3.33178e-06
2.94598e-06
3.39747e-06
0.0113589
0.00526092
0.0542205
2.67071e-06
2.1883e-06
4.18682e-06
0.00640363
0.0079584
2.59045e-06
0.0108529
8.3557e-06
0.0141295
1.8962e-06
2.99153e-06
0.00501767
0.00458555
2.50359e-06
0.000796769
2.23478e-06
4.5817e-06
2.31129e-06
2.19059e-06
3.9425e-06
2.88339e-06
1.86869e-06
0.00706489
0.00830443
0.0230427
1.92325e-06
0.0255432
4.24065e-06
0.00264872
2.91798e-06
0.00935519
0.00631508
3.17439e-06
2.02294e-06
2.34706e-06
2.64847e-06
2.70841e-06
0.000102276
0.0049583
1.68144e-06
0.00366084
3.07972e-06
2.09728e-06
0.0246095
0.00261386
2.17321e-06
4.52509e-06
0.00968689
0.00439328
0.000132355
2.4832e-06
2.34282e-06
2.88885e-06
2.79344e-06
2.86568e-06
0.0630597
1.65381e-06
2.33286e-06
1.69189e-06
2.17995e-06
2.17597e-06
2.79585e-06
2.31313e-06
3.3655e-06
0.0051919
2.9577e-06
2.23785e-06
1.8209e-06
0.00436518
1.77041e-06
2.44053e-06
2.13517e-06
2.32456e-06
0.0123371
3.01327e-06
2.65502e-06
2.65269e-06
2.18246e-05
2.34806e-06
2.45815e-06
0.0141521
1.41177e-05
0.031159
1.95953e-06
0.00765929
0.0038071
1.93432e-06
2.12571e-06
0.00514875
1.74307e-06
3.0991e-06
3.32638e-06
0.000708612
0.00496492
2.1691e-06
3.20735e-06
0.0101696
2.2399e-06
2.45544e-06
1.99968e-06
0.0417512
2.83902e-06
0.00661789
4.17817e-06
2.46368e-06
0.016089
2.18659e-06
0.00504115
7.9617e-06
0.000811102
2.55552e-06
2.46579e-06
2.29477e-06
2.45987e-06
2.69018e-06
0.0184787
0.142984
1.97678e-06
4.23696e-06
1.96917e-06
2.16673e-06
7.04791e-05
0.00151966
0.0153373
2.65562e-06
3.62885e-06
0.0153548
3.72502e-06
3.15093e-06
2.15347e-06
0.00115844
0.00510642
3.05974e-05
2.02607e-06
4.79925e-06
0.0109899
3.38541e-06
3.96862e-06
1.97928e-06
2.13639e-06
2.45229e-06
0.00985839
2.02542e-06
0.0421702
2.7978e-06
2.32361e-06
0.00276027
2.29294e-06
3.55658e-06
2.16625e-06
1.93067e-06
0.00604082
2.72139e-06
1.82319e-06
2.696e-06
0.0254966
1.821e-06
0.0130896
0.0050183
2.72251e-06
1.82926e-06
0.00968444
2.06406e-06
0.0520571
0.0259951
0.019291
4.16116e-06
0.00686875
0.000239372
1.67697e-06
2.57361e-06
3.60197e-06
3.11184e-06
0.0358664
2.27421e-06
4.34716e-06
2.29622e-06
2.58398e-06
0.0243632
2.69653e-06
2.73813e-06
2.40807e-06
0.00522103
0.0106319
0.00519517
0.035316
1.87119e-06
0.0101016
3.4628e-06
0.00993618
0.0225624
2.28887e-05
8.05976e-06
0.000298668
0.0151919
0.0265751
2.58349e-06
5.68014e-06
2.1418e-06
2.14019e-06
2.25831e-06
2.26298e-06
2.33737e-06
0.0492866
2.4556e-06
3.31802e-05
0.000184281
0.00525895
0.000409138
2.32402e-06
2.07329e-06
2.17481e-06
2.84187e-06
0.004769
0.00438455
5.82274e-06
1.78835e-06
0.0374505
5.24224e-05
1.82858e-06
0.0211697
0.0053633
3.10376e-06
2.46408e-06
0.00976094
0.0121272
2.27142e-06
2.12873e-06
2.49397e-06
2.02478e-06
0.0226432
5.58548e-05
2.66172e-06
2.01449e-06
0.0207507
2.38046e-06
2.12867e-06
2.24761e-06
0.0154334
6.03873e-06
2.68183e-06
1.98066e-06
2.43753e-06
5.02115e-06
2.33221e-06
0.0079407
1.59379e-05
0.00559107
4.25288e-06
0.01122
0.00506291
0.0662755
0.0197173
2.01777e-06
1.84827e-06
0.0391603
0.0552947
0.0166012
2.73622e-06
2.00919e-06
2.1442e-06
3.73937e-06
2.6748e-06
0.00554421
0.00398331
0.00561366
2.3497e-06
1.72771e-06
3.76015e-06
1.96758e-06
0.00503839
0.0139864
2.14429e-06
0.018518
0.00781084
0.0362282
2.19891e-06
0.0183477
2.19192e-06
3.10838e-06
0.00838076
2.47755e-06
2.03338e-06
2.39407e-06
0.0134479
0.00407919
2.71295e-06
5.25806e-06
0.0242147
4.15074e-06
2.41201e-06
2.15977e-06
2.27949e-06
0.00571981
0.0158036
3.11891e-06
0.02761
0.0427071
3.76203e-06
0.0132314
0.0195509
5.74728e-06
1.86684e-06
2.17501e-06
0.0147866
1.9978e-06
2.63812e-06
2.68363e-06
4.08955e-06
2.40539e-06
0.00561092
0.00702553
2.28207e-06
2.12096e-06
0.00821956
0.0197209
0.0100795
3.68308e-06
1.03846e-05
2.48049e-06
0.00375434
0.0123513
0.0306016
1.92443e-06
4.14967e-06
1.85378e-06
3.24379e-06
0.0144638
2.3714e-06
2.72801e-06
0.00725342
3.53523e-06
2.3669e-06
1.84388e-06
0.014146
0.00768476
0.000132532
3.41445e-06
0.0417687
1.74182e-06
1.62761e-06
1.17482e-05
0.0284617
0.00722258
0.0966755
2.23802e-06
0.0049262
0.00567873
2.89944e-06
0.000377787
3.72807e-06
2.73701e-06
2.49768e-06
3.18672e-06
2.61624e-06
2.31456e-06
1.9332e-06
0.00596116
2.33779e-06
2.41909e-06
1.735e-06
2.26857e-06
4.57297e-06
3.20929e-06
3.34804e-06
2.80824e-06
0.00879119
2.55963e-06
2.37894e-06
1.77529e-06
2.48077e-06
5.3544e-05
2.60959e-06
0.00810109
0.00891834
2.0784e-06
0.0052147
2.37973e-06
5.09365e-06
0.0171462
3.0893e-06
0.00571583
1.98062e-05
1.3282e-05
2.46943e-06
1.87664e-06
0.00323344
0.0187381
2.47743e-06
1.88629e-06
2.29146e-06
0.00579832
2.42606e-06
0.0250007
2.60485e-06
2.56736e-06
2.57383e-06
0.0061522
1.89046e-06
2.60652e-06
2.90387e-06
3.54474e-06
3.45699e-06
2.22043e-06
0.000167303
0.0409318
3.65526e-06
0.0435702
3.0153e-06
2.68138e-06
0.00695975
2.21027e-06
0.00868617
0.0135514
2.17007e-06
2.45702e-06
2.57527e-06
0.0131454
0.0491041
2.22833e-06
0.0203288
0.0306621
2.6275e-06
2.2973e-06
8.36448e-05
2.88588e-05
0.00732038
0.0047122
1.70602e-06
0.00573941
4.18089e-06
2.88264e-06
2.4194e-06
2.2398e-06
2.99875e-06
2.07555e-06
3.48576e-06
3.63656e-06
2.01169e-06
2.95629e-06
0.011864
2.60387e-06
1.3865e-05
2.75843e-06
2.15206e-06
0.0194727
0.00326669
0.00791884
1.9873e-06
3.74538e-06
2.41404e-06
2.18456e-06
3.98701e-06
2.10215e-06
4.59627e-06
3.15021e-06
0.00705267
0.004307
7.29523e-06
0.0164463
2.12281e-06
0.00428697
2.73321e-06
1.91728e-06
0.00618683
2.12419e-06
0.0243489
3.2774e-06
0.00875132
0.00265938
2.77018e-06
0.0118474
2.4762e-06
0.00778728
2.19505e-06
1.71413e-06
3.00905e-06
0.0676584
7.30305e-06
2.29262e-06
2.80917e-06
2.067e-06
3.15948e-06
2.32367e-06
0.0063467
0.000478653
2.03808e-06
3.00052e-05
2.92792e-06
4.09482e-06
0.000155961
0.0131339
1.74262e-06
0.00530429
2.45913e-06
0.0129344
0.0170245
2.96065e-06
2.90735e-06
1.84188e-06
5.1365e-06
0.00344674
0.0267796
2.27707e-06
1.97494e-06
2.29117e-06
2.16356e-06
2.02789e-06
0.00806792
2.09552e-06
3.45719e-06
2.90075e-06
2.45664e-06
2.85082e-06
2.00028e-06
2.63207e-06
3.14494e-06
0.00431993
1.84924e-06
3.6973e-06
2.76642e-06
0.00388936
9.18016e-06
0.00626256
5.84739e-06
2.352e-06
2.38138e-06
0.00564035
1.92736e-06
4.18934e-06
3.4001e-06
2.50097e-06
2.16856e-06
2.31409e-06
1.78648e-06
2.42279e-05
2.05035e-06
1.72795e-05
0.0093591
3.33282e-06
0.00417292
2.94573e-06
0.00814696
4.05597e-06
2.26767e-06
2.14651e-06
8.11602e-06
0.0145817
2.2226e-06
2.26197e-06
0.0307433
2.38986e-06
2.11656e-06
7.81293e-06
0.011222
2.52551e-06
2.14009e-06
0.0203087
0.0332801
0.0122881
2.2999e-06
2.8721e-06
0.0271429
1.85963e-06
2.74067e-06
2.54236e-06
2.28617e-06
3.76788e-06
2.25565e-06
0.0224016
1.85396e-06
6.51836e-06
2.35745e-06
3.58706e-06
2.30906e-06
0.00831561
0.00394989
0.0209823
1.81227e-06
0.00566284
0.000439191
0.0101497
2.66923e-06
2.12444e-06
0.00893215
2.25097e-06
0.00556529
0.00470996
0.00417168
2.2181e-06
1.75519e-06
2.34813e-06
1.76107e-06
2.42548e-06
0.00417568
0.0101016
2.39886e-06
0.0125146
2.18806e-06
0.00738841
2.77592e-06
2.65915e-06
0.0167473
0.0138828
1.82849e-06
2.04542e-06
0.000215535
2.42129e-06
0.030975
1.83508e-06
0.0616924
3.3695e-06
0.00705835
0.0965497
1.79828e-06
0.0196504
0.00570644
0.072871
7.6097e-05
2.86605e-06
4.88231e-06
0.00674662
2.6202e-06
1.77528e-06
2.67709e-06
0.0106786
2.89261e-06
2.38829e-06
3.7613e-06
2.80252e-06
2.76712e-06
1.67279e-06
0.0129583
0.0136128
7.48338e-06
0.00478557
0.0070862
4.21497e-06
8.36041e-05
0.00597905
2.11614e-06
2.74885e-06
2.18772e-06
2.26594e-06
0.00597537
0.119832
0.0320744
2.37579e-06
0.0057319
0.00907501
0.00936746
0.023821
2.13422e-06
6.49373e-06
2.22201e-06
2.11497e-06
0.0283638
1.83469e-05
3.98951e-06
2.95063e-06
3.42851e-06
2.40785e-06
0.0027385
0.0028049
0.0292381
2.03239e-06
0.005438
1.78329e-06
0.000443506
0.0110823
0.00959358
1.74773e-06
2.55319e-06
0.0068361
2.7331e-06
0.00313502
2.3477e-06
0.0073338
2.52485e-06
2.67894e-06
0.0172575
2.01526e-06
0.0273749
2.13566e-06
0.00390751
2.7842e-06
0.0140667
2.60956e-06
0.0124511
0.00585456
0.0873472
0.00693698
2.60178e-06
0.00455585
4.87138e-05
2.0616e-06
5.02607e-06
0.00960919
2.01723e-06
2.75904e-06
0.0155497
2.10722e-06
1.95975e-06
0.0102795
4.19097e-06
4.18811e-06
0.058226
0.00647244
0.018144
3.18718e-06
0.00640411
2.62442e-06
2.06831e-06
0.00536852
1.96679e-06
2.00366e-06
0.00674662
0.00467684
4.15821e-05
0.0682414
2.87866e-06
6.22313e-06
0.00192433
0.00280312
2.32913e-06
7.07573e-06
0.0120216
0.0578783
0.0066523
2.02798e-06
2.29732e-06
2.29995e-06
1.84911e-06
2.16211e-06
2.00568e-06
2.62092e-06
0.00263302
0.00481458
2.32233e-06
1.90758e-06
2.38857e-06
2.45756e-06
3.1646e-06
0.0111957
2.35134e-05
0.00334775
3.51915e-05