/*--------------------------------*- C++ -*----------------------------------*\
| =========                 |                                                 |
| \\      /  F ield         | OpenFOAM: The Open Source CFD Toolbox           |
|  \\    /   O peration     | Version:  v2012                                 |
|   \\  /    A nd           | Website:  www.openfoam.com                      |
|    \\/     M anipulation  |                                                 |
\*---------------------------------------------------------------------------*/
FoamFile
{
    version     2.0;
    format      ascii;
    class       volVectorField;
    location    "400";
    object      U;
}
// * * * * * * * * * * * * * * * * * * * * * * * * * * * * * * * * * * * * * //

dimensions      [0 1 -1 0 0 0 0];


internalField   nonuniform List<vector> 
18649
(
(-0.202072 -0.0407122 9.34723e-23)
(1.01412 -0.113343 1.72993e-21)
(1.06947 -0.000785025 0)
(-0.207053 -0.0494711 -1.17005e-19)
(0.476902 -0.178859 1.20694e-19)
(1.10805 -0.0700277 -2.76975e-20)
(0.141543 0.0200622 -5.55625e-20)
(1.28355 -0.227232 -1.7094e-20)
(1.20829 -0.0107724 2.28193e-20)
(0.958801 -0.0518941 -8.8861e-22)
(1.2309 -0.293621 7.46034e-20)
(-0.237374 -0.0370114 -2.13882e-20)
(0.99842 0.0439412 -9.2118e-20)
(1.06817 -0.0011203 0)
(0.992025 -0.0184867 0)
(1.17394 -0.0544773 3.34426e-20)
(1.01521 -0.00233988 3.70918e-22)
(1.17398 -0.0516429 1.45358e-20)
(1.13239 -0.392236 4.05509e-20)
(0.0405941 -0.00708857 -1.373e-19)
(0.101752 -0.0676912 -1.0643e-20)
(1.04517 -0.0642268 0)
(-0.285042 -0.0505802 0)
(1.28174 0.0595619 0)
(1.01607 -0.0154661 0)
(0.00603188 -0.0102449 -2.97339e-20)
(1.03507 -0.0550647 -4.86748e-22)
(-0.230354 -0.0353391 -6.25813e-20)
(1.35234 -0.170706 0)
(1.02989 -0.00193588 -9.75268e-21)
(1.05319 -0.0451396 3.52628e-21)
(1.05591 -0.320688 8.55058e-21)
(1.00498 -0.00955245 -8.398e-23)
(0.962538 -0.101625 -2.60035e-20)
(0.980619 -0.0673769 5.3384e-21)
(-0.288569 -0.0501923 -3.2863e-20)
(0.880817 -0.0704158 6.21416e-20)
(1.01431 -0.0508907 7.93599e-22)
(1.03371 -0.0139391 5.34034e-21)
(1.27669 -0.230162 -5.13674e-20)
(1.21276 -0.0105754 -6.89445e-20)
(1.27896 0.0578935 -3.34304e-21)
(1.2153 0.0129541 -3.4641e-21)
(-0.228802 -0.040847 -6.61167e-23)
(1.01722 -0.11327 5.9386e-22)
(1.03022 -0.00184564 -8.68288e-21)
(-0.0846589 -0.0473937 -1.20848e-19)
(-0.199688 -0.0501712 8.402e-20)
(1.0831 -0.291763 5.61141e-22)
(1.03139 -0.0196118 9.09648e-21)
(-0.120603 -0.112824 3.11695e-20)
(1.11028 -0.109861 -4.37656e-21)
(0.441436 -0.0907537 2.75851e-20)
(0.533019 0.034008 0)
(1.00482 -0.00907623 -1.40723e-21)
(1.0535 -0.286875 9.39819e-20)
(-0.136348 -0.0147875 0)
(1.23335 -0.0248925 0)
(-0.119161 -0.0415417 -1.26304e-19)
(0.960725 -0.0516658 1.01096e-21)
(-0.201329 -0.0397061 -8.72231e-20)
(1.00346 -0.0206437 3.45193e-21)
(1.21259 0.0151168 0)
(-0.177145 -0.0500833 -4.98432e-20)
(1.01563 -0.0507287 0)
(-0.163068 -0.0502087 1.78966e-19)
(1.04475 -0.0371656 0)
(-0.13007 -0.0127572 0)
(-0.171282 -0.0486384 -9.2974e-20)
(1.30824 -0.0432838 7.83498e-20)
(-0.25375 -0.043514 1.11321e-20)
(1.00439 -0.0229873 4.63099e-22)
(1.04124 -0.330174 2.39876e-21)
(1.10565 -0.0379812 -7.79013e-23)
(0.967068 -0.0945754 2.08901e-20)
(0.0906879 -0.0698828 1.15525e-20)
(0.864406 -0.167981 1.2471e-20)
(1.04083 -0.160678 4.58146e-21)
(1.10327 -0.0373973 -9.25922e-21)
(0.974495 -0.509485 0)
(1.0156 -0.00197734 0)
(-0.109556 -0.0481072 0)
(-0.213045 -0.0500421 2.03191e-19)
(0.477833 -0.0942196 -2.63577e-20)
(0.841492 -0.269842 0)
(1.03341 -0.0130996 -7.47608e-21)
(0.888921 -0.12032 5.59173e-20)
(1.10825 -0.106684 3.31369e-20)
(1.14567 -0.150271 1.79981e-20)
(1.11042 -0.0429083 0)
(1.13987 -0.0219477 -4.0956e-20)
(0.966142 -0.0311802 0)
(1.00479 -0.0442293 -3.12254e-21)
(-0.0509189 -0.00384902 -6.96334e-20)
(1.04441 -0.0624811 0)
(1.22491 -0.286898 1.06475e-19)
(0.966223 -0.056327 0)
(0.949415 -0.467136 1.22072e-21)
(-0.16302 -0.048524 -4.70074e-20)
(1.03427 -0.05348 4.10015e-22)
(-0.285568 -0.0494722 -1.08365e-19)
(0.922848 -0.235488 0)
(1.01958 -0.00709638 2.54362e-23)
(-0.10703 -0.109663 0)
(-0.173053 -0.0475671 5.14455e-20)
(1.11361 -0.109824 -7.06977e-22)
(0.999108 -0.00504958 -5.02676e-21)
(1.05757 -0.0483797 -8.11696e-22)
(0.923968 -0.241963 -2.02038e-20)
(0.965054 -0.0866412 1.78998e-20)
(-0.286051 -0.0495678 -5.95503e-20)
(0.684421 -0.222971 -1.36169e-19)
(1.00454 -0.0430999 -2.81995e-21)
(0.960798 -0.0841394 -5.65101e-21)
(1.28031 -0.0331052 6.02232e-20)
(1.0782 -0.00146793 -1.06172e-20)
(1.00441 -0.00869012 -2.46322e-23)
(-0.0574034 0.00193205 0)
(-0.234547 -0.0416784 0)
(1.04003 -0.0183406 0)
(-0.125337 -0.0421718 1.25997e-19)
(1.02242 -0.0641226 0)
(1.04544 -0.323258 -2.24577e-21)
(1.00393 -0.0228058 5.09691e-23)
(-0.125236 -0.0333005 3.87288e-20)
(1.01638 -0.0160485 0)
(1.00002 -0.000346387 -6.80466e-21)
(0.0347431 -0.00260232 2.53019e-20)
(1.02139 -0.0630864 -8.0969e-22)
(-0.042535 0.00496142 4.53493e-20)
(0.999009 -0.0353353 4.95543e-22)
(-0.208944 -0.049841 -1.3127e-19)
(1.01714 -0.0299172 3.13623e-22)
(-0.0963831 -0.0447306 1.01221e-19)
(0.875764 -0.070238 -2.23666e-20)
(0.999701 -0.00447633 -1.1553e-20)
(-0.254463 -0.0454172 3.47452e-23)
(-0.129696 -0.0134985 0)
(1.13792 -0.0201443 3.59342e-20)
(1.03801 -0.157118 0)
(0.476466 -0.557735 -2.34514e-20)
(1.02491 -0.042989 0)
(1.02883 -0.0154798 0)
(1.0084 -0.0144999 8.5257e-22)
(1.00017 -0.00825899 -1.22263e-20)
(-0.220532 -0.0300201 0)
(1.02935 -0.015249 0)
(1.00172 -0.0164808 -9.0971e-21)
(-0.281823 -0.0478497 0)
(-0.175888 -0.0482512 1.03558e-19)
(1.30938 -0.0236434 -4.41638e-20)
(0.999584 -0.00303521 0)
(-0.240645 -0.0492294 0)
(1.05683 -0.0201196 -1.08125e-20)
(1.02407 -0.0548979 0)
(1.008 -0.0141333 0)
(0.591731 -0.251977 0)
(0.972441 -0.49185 -6.22345e-21)
(1.00486 -0.0049379 -4.56349e-22)
(0.988247 -0.0398951 3.97349e-21)
(1.00067 -0.0144111 6.8048e-21)
(1.31018 -0.30974 1.19245e-19)
(-0.116199 -0.0430899 -1.04011e-19)
(1.05635 -0.0209742 -1.02651e-20)
(-0.11672 -0.0320332 0)
(1.28032 -0.0360352 -6.00466e-20)
(0.999104 -0.00535489 0)
(1.00562 -0.0240856 -1.47823e-21)
(1.02502 -0.0559401 -1.53069e-22)
(1.07643 -0.00196825 -1.71625e-20)
(0.998384 -0.0349597 0)
(0.141791 -0.453905 1.19367e-19)
(1.22962 -0.0264024 0)
(0.483455 -0.199806 0)
(1.01692 -0.0488998 1.87287e-21)
(0.554707 0.035216 -9.11652e-20)
(-0.284958 -0.0483924 -6.04358e-23)
(1.02163 -0.11609 -1.60355e-21)
(1.00455 -0.00475901 -4.63755e-22)
(1.31442 -0.0421872 0)
(1.32316 -0.0360709 0)
(1.02777 -0.00497398 0)
(1.00003 -0.000689092 1.81551e-21)
(-0.208038 -0.0225815 -6.04153e-20)
(1.09333 -0.0943828 0)
(1.17611 -0.0268217 0)
(1.00022 -0.00783931 9.23188e-21)
(1.02544 -0.0425607 0)
(1.15405 0.015477 0)
(0.976446 -0.19721 0)
(0.889324 -0.807716 -2.26886e-20)
(1.01655 -0.0535746 0)
(-0.170636 -0.027546 -7.28909e-20)
(1.05142 -0.0195158 0)
(1.01825 -0.00608555 2.14026e-21)
(1.00034 -0.00533432 0)
(0.892926 -0.11799 -2.01169e-20)
(0.985824 -0.295144 -1.19422e-21)
(0.966449 -0.0974625 1.09655e-20)
(1.00005 -0.000603782 0)
(1.0016 -0.0157915 0)
(1.26816 -0.0366543 0)
(-0.135459 -0.0136719 -6.16545e-21)
(0.891708 -0.0826565 -1.7422e-20)
(1.14945 -0.153731 9.00454e-21)
(0.711813 -0.191286 1.96581e-20)
(1.35187 -0.159034 3.40697e-20)
(-0.0652714 -0.0478549 7.82168e-20)
(1.05612 -0.0476265 0)
(-0.246557 -0.0468456 -1.5339e-19)
(0.987653 -0.0430665 -4.0942e-21)
(1.01887 -0.0985713 5.87773e-22)
(1.0188 -0.0622039 0)
(-0.183615 -0.0290019 1.59376e-19)
(-0.212806 -0.0499239 1.72082e-19)
(1.03647 -0.0307093 -4.15762e-21)
(0.834167 -0.23102 0)
(1.02251 -0.030014 1.31413e-21)
(-0.121004 -0.0338711 -3.86436e-23)
(0.998956 -0.0481342 1.04626e-20)
(1.23412 0.0297672 1.67431e-20)
(1.0197 -0.0401942 -2.05206e-22)
(0.319256 -0.820368 3.53675e-20)
(0.167375 -0.468674 -1.09798e-21)
(0.0728773 -0.00970257 1.03854e-19)
(-0.0481293 0.00490076 3.56282e-20)
(1.03747 -0.0315009 4.8755e-21)
(0.998849 -0.0467527 -4.60296e-21)
(0.414358 -0.0829787 0)
(0.619772 0.0384513 1.18721e-19)
(1.15317 0.0227645 6.59468e-21)
(1.01698 -0.0275108 -7.75573e-23)
(-0.282954 -0.0492995 0)
(1.17297 -0.0612659 -3.11057e-20)
(0.0643275 -0.00691362 1.07894e-19)
(1.31807 -0.291431 1.60932e-20)
(0.599441 -0.232273 7.27462e-20)
(0.479627 -0.121262 6.39639e-20)
(1.01676 -0.0291014 -4.01892e-22)
(1.25056 -0.455588 -8.68681e-20)
(1.02125 -0.00478757 0)
(-0.185718 -0.0269984 -3.29672e-20)
(1.15231 0.020641 1.46184e-21)
(1.02728 -0.0047603 2.48363e-22)
(0.96161 -0.086724 1.18834e-20)
(0.98213 -0.195488 1.09292e-20)
(0.277899 -0.056769 1.24254e-19)
(0.988901 -0.0393356 0)
(0.783705 -0.35399 2.14475e-20)
(0.988847 -0.289174 -3.44809e-21)
(-0.277944 -0.0469053 6.8872e-20)
(0.124891 0.0188754 7.02836e-20)
(1.17366 -0.0247965 0)
(0.980057 -0.0694284 6.09102e-21)
(1.09655 -0.0942636 2.92199e-20)
(-0.224177 -0.038628 0)
(1.01966 -0.0390782 1.90708e-22)
(0.987704 -0.0420612 0)
(0.958174 -0.0845864 5.91583e-21)
(0.966664 -0.0890827 -1.87804e-20)
(1.03313 -0.0235156 -1.73562e-21)
(0.688665 -0.209472 8.12747e-20)
(-0.245734 -0.0471674 1.45242e-19)
(0.986736 -0.0388204 1.36893e-20)
(1.01753 -0.00608308 -2.05211e-21)
(-0.124562 -0.0481092 4.18239e-20)
(0.398841 0.0320289 -4.73114e-20)
(1.00028 -0.00529307 0)
(-0.206996 -0.0232503 -2.98823e-20)
(1.02213 -0.0111698 0)
(-0.227481 -0.0320544 1.87959e-20)
(1.07515 -0.34388 -1.27585e-20)
(0.385841 -0.0808937 3.03664e-20)
(0.682948 -0.318789 0)
(1.14232 -0.389381 0)
(1.05114 -0.0184919 1.71835e-21)
(1.01719 -0.00552002 0)
(1.07677 0.0412101 -5.82317e-20)
(-0.0377298 0.00563475 0)
(-0.10745 -0.0338271 -2.16233e-21)
(1.00029 -0.00819104 1.37132e-21)
(1.02146 -0.0297443 2.67343e-21)
(-0.232254 -0.0487735 2.54491e-20)
(1.06183 -0.12729 -1.4111e-20)
(0.959125 -0.128079 8.99173e-20)
(-0.280578 -0.0481979 0)
(1.05892 -0.0195283 0)
(0.867013 -0.175612 0)
(0.99976 -0.00362887 0)
(1.03048 -0.00607092 0)
(1.23018 0.0282906 -1.64077e-20)
(-0.27453 -0.0461776 2.84791e-20)
(0.270869 0.0333654 -5.79651e-20)
(0.29849 -0.0698575 -1.77572e-19)
(1.35637 -0.125302 1.16056e-22)
(1.00208 -0.0791036 -8.71133e-21)
(1.31499 -0.0215369 0)
(1.3573 -0.169125 0)
(1.01861 -0.0065327 0)
(0.447266 0.0350597 0)
(1.0053 -0.000899956 -6.57636e-22)
(0.960154 -0.103064 3.56161e-20)
(0.967215 -0.0541333 0)
(1.00768 -0.0143242 -2.03598e-22)
(1.03894 -0.0180766 5.36576e-21)
(0.469206 -0.134558 4.18638e-20)
(0.999741 -0.00427944 1.32194e-20)
(1.19336 -0.0291503 3.77424e-20)
(0.464594 -0.10368 -5.58396e-20)
(0.963161 -0.0984928 -2.27884e-20)
(-0.0130632 -0.0107479 0)
(0.961531 -0.0543246 3.61724e-20)
(0.497021 -1.15826 -2.89711e-20)
(0.992455 -0.0180239 1.06185e-20)
(1.05847 -0.0203698 1.01824e-20)
(1.01725 -0.0285354 0)
(1.06871 -0.0208826 2.70545e-20)
(1.00003 -0.000306355 -3.51801e-21)
(-0.21652 -0.0500932 -1.00837e-19)
(-0.203359 -0.0356835 -7.04312e-20)
(0.99932 -0.00421583 0)
(1.00048 -0.014304 -3.76633e-21)
(1.21423 -0.00774103 5.2127e-20)
(1.00024 -0.000454133 2.12589e-21)
(1.00725 -0.0139047 -1.40364e-21)
(1.03933 -0.0389314 0)
(1.00034 -0.00774648 0)
(0.925091 -0.163027 -3.2451e-20)
(-0.0257367 0.00483408 0)
(0.701704 -0.177656 6.73397e-20)
(-0.236228 -0.0466445 3.93502e-20)
(1.00514 -0.0236747 0)
(1.00005 -0.0125477 3.52758e-21)
(1.21097 0.0211679 1.33917e-20)
(1.0054 -0.00488246 4.0224e-22)
(1.03221 -0.000485757 0)
(-0.208377 -0.0177792 -6.15803e-20)
(0.994132 -0.151871 0)
(1.29683 -0.104997 6.04434e-20)
(0.887766 -0.0849088 0)
(1.30703 -0.317759 -5.86095e-20)
(1.00509 -0.00470994 0)
(1.09162 -0.0104205 0)
(1.01979 -0.0634397 9.37905e-22)
(1.06984 -0.0689753 1.00402e-20)
(0.999128 -0.0199535 3.05548e-21)
(1.00024 -0.00463356 -4.02603e-21)
(1.02078 -0.00431634 -3.48755e-21)
(1.13773 -0.0158692 -2.06139e-20)
(1.17162 -0.0635275 0)
(0.99608 -0.0205652 7.17404e-21)
(1.00174 0.0433491 -5.52699e-20)
(0.995829 -0.0211927 0)
(1.03923 -0.0382841 0)
(-0.231281 -0.0455338 -1.39431e-19)
(1.03751 0.027582 0)
(1.06994 -0.0217044 0)
(-0.0267357 -0.0187993 0)
(1.3088 -0.29195 0)
(-0.113471 -0.0347577 -1.71493e-20)
(0.216892 0.0288588 0)
(1.06832 -0.0671156 -8.96231e-21)
(0.183713 0.0254983 0)
(0.996067 -0.0218748 0)
(0.1392 -0.0358489 1.14793e-19)
(0.525414 -0.958489 2.19352e-20)
(0.963344 -0.0541923 -2.57288e-20)
(0.905166 -0.0462817 -4.05552e-20)
(0.994084 -0.148239 7.05075e-21)
(1.0519 -0.0438774 0)
(1.01757 -0.0547123 -1.2238e-21)
(1.02795 -0.0151169 0)
(0.999367 -0.0187564 4.62493e-21)
(-0.157726 -0.0217947 -3.28912e-20)
(0.919439 -0.16482 0)
(0.0482215 -0.00979722 -1.08337e-19)
(-0.238886 -0.0467248 1.7119e-20)
(1.34879 -0.151133 0)
(0.239267 -0.0517531 -7.87398e-20)
(1.08393 -0.0328075 -1.08265e-20)
(0.999961 -0.000538748 4.72796e-21)
(1.14876 0.0265588 0)
(1.01492 -0.0268978 0)
(0.84639 -0.838808 0)
(1.00006 -0.000125125 4.36355e-21)
(0.999668 -0.00295586 -7.8981e-21)
(0.0762441 -0.214602 0)
(0.29587 0.0343292 0)
(1.0623 -0.0497239 -4.31102e-21)
(1.03228 -0.0211494 0)
(1.34192 -0.277501 7.45706e-20)
(1.10837 -0.218108 -9.36954e-21)
(0.995941 -0.0463379 1.13322e-20)
(-0.175688 -0.0644113 -3.8788e-20)
(1.0654 -0.00119109 1.36193e-20)
(0.907695 -0.0446804 5.10666e-20)
(-0.287983 -0.0513963 1.7647e-19)
(1.08243 -0.0668806 -7.27111e-21)
(0.999771 -0.00340048 -3.98067e-21)
(-0.207354 -0.0167521 0)
(-0.160399 -0.0225062 0)
(1.17322 -0.0195751 -1.74052e-20)
(1.00395 -0.0307486 0)
(1.00012 -0.0121429 0)
(-0.161991 -0.0215903 0)
(-0.207236 -0.0172754 7.57142e-20)
(1.02293 -0.0310616 0)
(1.33974 -0.249061 6.76738e-20)
(1.02383 -0.0123034 0)
(1.02723 -0.0391275 5.17088e-23)
(0.149507 0.0262977 0)
(1.03575 -0.0129598 2.60226e-22)
(-0.0138301 0.00684863 0)
(1.08264 -0.0687903 0)
(1.27352 0.0344219 0)
(0.194965 -0.0457715 1.22499e-19)
(0.963047 0.0451746 6.84112e-20)
(0.516873 0.0329882 1.31793e-19)
(1.01491 -0.0248392 0)
(0.0246811 -0.0766601 6.00254e-20)
(0.99586 -0.0225346 0)
(1.10714 0.0396466 8.23417e-20)
(1.15732 -0.24505 0)
(0.0991811 -0.0280921 6.681e-20)
(0.427276 0.0217591 9.3487e-20)
(1.02741 -0.0146462 -2.30533e-21)
(1.03241 -9.10583e-05 -1.53667e-22)
(1.24511 -0.466561 0)
(-0.09892 -0.0357729 -3.49445e-20)
(1.09297 -0.0111874 8.49029e-21)
(0.6927 -0.305764 -6.1555e-20)
(1.06067 -0.0496835 3.89341e-21)
(1.04508 -0.0837023 1.1229e-20)
(1.01625 -0.00497519 -2.50381e-21)
(-0.0283218 0.00670083 1.80911e-22)
(0.964343 0.0450612 5.90166e-20)
(-0.0593179 -0.0511271 -3.56022e-20)
(1.05482 -0.0445701 6.35404e-21)
(0.966121 -0.0299716 -7.37582e-21)
(0.0949543 -0.22865 0)
(-0.235624 -0.0480839 -8.50953e-20)
(0.90612 -0.0401261 -5.87607e-20)
(0.996944 -0.0782081 -1.12752e-20)
(1.03219 -0.0219696 0)
(1.02452 -0.0123155 -4.65273e-21)
(-0.102443 -0.0344673 0)
(0.0198879 -0.00326552 4.78731e-20)
(1.00428 -0.00756122 -8.96654e-23)
(1.05053 -0.00937154 -8.76504e-21)
(-0.286183 -0.049719 0)
(1.03529 -0.0176266 5.1602e-22)
(-0.283386 -0.050526 1.96941e-19)
(1.03131 -0.0203138 -6.69091e-21)
(-0.164251 -0.0294005 0)
(1.10237 -0.216008 -2.90243e-20)
(0.117969 -0.0313435 6.09623e-20)
(0.947649 -0.138444 -1.56929e-20)
(0.567436 0.0350349 -3.77892e-20)
(-0.242334 -0.0462114 9.97105e-21)
(1.02546 -0.124685 -5.29496e-22)
(1.20715 -0.0148891 -2.51842e-20)
(1.04607 -0.0821114 -5.05371e-21)
(1.19812 -0.0192606 2.14714e-20)
(1.08277 -0.0311725 0)
(0.988709 -0.0358933 0)
(1.06179 -0.130359 8.296e-22)
(0.203424 -0.594325 -6.38563e-20)
(1.03067 -0.00656428 0)
(1.07291 -0.0416992 0)
(-0.23877 -0.0485608 2.30782e-20)
(1.02296 -0.0129967 7.54893e-21)
(1.00021 -0.00462287 0)
(1.18017 0.0372158 0)
(1.01439 -0.0152648 1.10649e-21)
(-0.218215 -0.0385197 -3.69784e-20)
(1.06119 -0.0187601 0)
(1.06834 -0.0185164 0)
(1.04921 -0.00732212 0)
(1.11788 -0.0493543 -2.82736e-20)
(1.06413 -0.000685197 1.17656e-20)
(1.00005 -0.000515832 1.21898e-22)
(0.547869 -0.562002 0)
(1.02779 -0.0402534 -1.45874e-22)
(0.83142 -0.150127 0)
(1.00047 -0.0134803 -3.52386e-21)
(1.09107 -0.116406 3.53102e-20)
(-0.23255 -0.0417869 -8.67656e-20)
(1.00004 -0.00104004 -1.25615e-22)
(0.77554 0.0411242 1.46631e-20)
(1.0773 -0.0982639 0)
(0.145045 0.0169126 0)
(-0.214848 -0.0204122 6.11268e-20)
(-0.215573 -0.0211222 0)
(-0.276442 -0.0526796 0)
(1.12061 -0.0499308 3.17513e-20)
(1.18571 -0.232671 7.01573e-22)
(1.15176 0.0256327 7.67344e-21)
(-0.281501 -0.0504883 -9.86335e-20)
(0.978347 -0.0353071 0)
(1.16107 -0.313072 -5.24869e-20)
(0.971378 -0.0907228 1.76477e-20)
(0.534945 -0.042451 9.95057e-20)
(1.27224 -0.0352576 -5.28582e-20)
(1.0833 -0.264588 0)
(1.00028 -0.000436366 -1.73383e-21)
(0.38945 -0.356304 -7.45567e-20)
(1.27581 -0.0125679 6.82981e-20)
(0.167833 0.0278484 8.48812e-21)
(1.04414 -0.0336231 0)
(-0.283649 -0.0505503 -2.31507e-19)
(0.928227 -0.0468082 -6.12076e-22)
(1.23559 0.0233093 -1.717e-20)
(0.996918 -0.0120876 6.15687e-21)
(1.1605 -0.25215 -3.65193e-20)
(-0.228245 -0.0440231 6.7395e-20)
(0.999437 -0.00384464 -8.0831e-21)
(1.04966 -0.00875345 0)
(-0.217596 -0.0216949 0)
(1.03735 -0.0197621 0)
(0.963495 -0.458046 -1.17793e-21)
(1.03563 -0.0203204 0)
(1.11066 -0.0704572 2.56554e-20)
(1.03427 -0.0561276 1.69859e-21)
(1.14715 -0.0985214 1.52484e-20)
(1.01409 -0.0146795 -4.03913e-22)
(0.732616 -0.491329 -2.22334e-20)
(1.00008 -0.00091698 1.30048e-21)
(0.11574 -0.000428763 -1.54199e-20)
(1.04534 -0.0336819 0)
(-0.276225 -0.0511361 -1.29187e-19)
(1.29442 -0.073895 0)
(-0.0577335 -0.00594191 4.13022e-20)
(-0.227593 -0.0457744 -8.78949e-20)
(1.07101 -0.0409329 0)
(1.079 0.0222036 6.28866e-21)
(1.19665 -0.0225287 4.13432e-20)
(0.058139 0.0157785 8.69424e-20)
(-0.239935 -0.0464878 -2.17778e-20)
(1.04047 -0.0169762 6.4092e-22)
(0.823849 -0.148238 2.65135e-20)
(1.27024 0.0346231 -5.46173e-20)
(1.07201 -0.0250893 1.39949e-20)
(1.29323 0.0291614 8.73941e-21)
(1.01666 -0.0596906 0)
(0.999254 -0.00469864 4.57996e-21)
(1.07098 -0.0260912 -5.14826e-21)
(1.0037 -0.000655251 7.88974e-22)
(1.00007 -0.000747085 3.17304e-21)
(1.01624 -0.0612491 1.87797e-21)
(0.419076 -0.166592 1.2277e-19)
(1.02265 -0.0117573 0)
(1.02759 -0.0311369 0)
(1.11324 -0.0432871 -1.07894e-20)
(1.04754 -0.0913236 9.19727e-23)
(0.513013 -0.545209 4.43905e-20)
(-0.0596256 -0.00246631 3.27458e-20)
(0.97724 -0.0351513 -7.42551e-22)
(1.21383 0.0192146 1.51721e-20)
(1.32477 -0.155387 0)
(1.0776 -0.269007 0)
(1.00028 -0.0134049 7.40065e-21)
(0.032859 -0.0541716 0)
(0.661119 0.03894 -4.14105e-20)
(0.186298 -0.078093 0)
(1.29223 0.027015 -1.04478e-20)
(1.15478 0.0178109 0)
(1.04944 -0.0809164 1.70377e-21)
(1.12185 -0.0594276 7.95892e-21)
(1.13943 -0.0175716 0)
(1.06285 -0.0185317 -6.17348e-21)
(1.35624 -0.120062 3.0055e-20)
(1.00975 -0.0344828 0)
(1.06311 -0.017687 -7.04258e-21)
(1.03078 -0.0100326 3.40034e-21)
(-0.139738 -0.0134432 0)
(0.101179 -0.0336825 -1.92032e-19)
(-0.216879 -0.0270619 -3.18575e-20)
(1.03016 -0.15436 -9.15919e-22)
(1.00513 -0.0297162 -3.52802e-21)
(-0.167506 -0.0230467 0)
(-0.150547 -0.0502404 -9.57746e-20)
(0.916745 -0.806505 1.7375e-20)
(1.09332 -0.118444 -1.65833e-20)
(0.763873 -0.0600517 -1.67411e-21)
(-0.163533 -0.0101898 -6.61713e-21)
(1.00501 -0.000693199 5.75885e-22)
(-0.218661 -0.0226767 0)
(1.04535 -0.0906683 -7.81924e-23)
(0.956191 -0.0652895 0)
(0.958223 -0.0385699 0)
(0.595725 -0.617215 -2.88239e-20)
(-0.15622 -0.0482457 2.49458e-20)
(1.06077 -0.0196379 0)
(0.727204 -0.471227 0)
(0.946075 -0.143167 -9.22626e-21)
(1.0007 -0.0779872 1.0444e-20)
(-0.189785 -0.0275521 -9.47885e-20)
(1.06685 -0.570412 -3.40376e-20)
(0.996554 -0.0287853 4.59108e-21)
(0.0715251 0.016934 -8.24276e-20)
(1.13991 -0.024912 1.07425e-20)
(-0.0820883 -0.100019 -5.84566e-20)
(1.02297 -0.0553265 2.1472e-22)
(0.674685 -0.143391 -7.90619e-20)
(1.14631 -0.0962768 2.78396e-20)
(1.11569 0.0141431 -1.28376e-20)
(1.01104 -0.000442871 -6.59187e-22)
(0.119091 -0.0364814 -7.68329e-20)
(1.18059 -0.128097 2.46442e-20)
(1.20867 -0.0214522 0)
(1.21321 0.0330215 1.41384e-20)
(-0.202216 -0.0414951 0)
(1.09291 -0.0133387 8.24979e-23)
(-0.20963 -0.0251892 5.84166e-20)
(1.05657 -0.0306095 0)
(1.0326 -0.158354 0)
(0.169403 0.0296239 -7.18702e-20)
(1.1057 -0.0717555 1.44264e-20)
(1.00532 -0.00984921 0)
(0.754986 -0.0643657 -1.52642e-21)
(1.07013 -0.0311415 -1.47792e-20)
(1.20487 0.0258755 7.18289e-20)
(1.02693 -0.0302962 3.71396e-23)
(0.993628 -0.0337979 6.14181e-21)
(0.470068 -0.591906 -3.38532e-20)
(1.20516 -0.502677 0)
(-0.127945 -0.0410175 -8.28757e-20)
(1.00008 -0.000422108 0)
(-0.221135 -0.0391166 3.84801e-20)
(1.03222 -0.0194042 0)
(0.919681 -0.552309 1.00147e-21)
(1.17522 -0.0216111 1.0391e-20)
(1.03082 -0.0106464 -3.58751e-21)
(1.0414 -0.0375535 -6.12104e-21)
(0.964336 -0.0565441 -8.93894e-21)
(1.29521 -0.0357277 0)
(0.971996 -0.0561451 -1.45552e-20)
(1.18504 -0.239056 5.36869e-22)
(1.23824 0.021318 1.28918e-20)
(0.972047 -0.227333 1.53136e-20)
(1.02301 -0.0420814 0)
(1.02107 -0.0287902 -1.65312e-21)
(0.95701 -0.0821642 0)
(0.308143 0.0324343 3.62234e-20)
(1.00352 -0.0200259 3.28137e-21)
(0.915704 -0.14133 -1.55153e-20)
(1.0202 -0.00711811 -3.30905e-21)
(-0.142478 -0.128284 1.69683e-20)
(1.00003 -0.00144115 0)
(0.951743 -0.0662288 2.49415e-20)
(1.06393 -0.00414937 -3.34995e-21)
(1.02245 -0.0123958 -3.92781e-21)
(-0.288853 -0.0502462 1.06076e-19)
(1.27294 -0.0138328 -3.15126e-20)
(0.187382 -0.399383 0)
(1.01857 -0.116474 2.12814e-21)
(0.574866 -0.119993 -1.69431e-21)
(1.13756 -0.026004 0)
(1.03312 -0.0142467 1.88771e-21)
(1.12162 0.0194302 3.18744e-20)
(-0.166401 -0.0478382 0)
(1.08475 -0.0633025 1.26063e-20)
(1.04338 -0.0373308 3.5519e-21)
(0.350748 0.0348162 3.54998e-20)
(0.545779 0.043189 0)
(1.00124 -0.0169809 9.49297e-21)
(-0.226113 -0.0486956 0)
(0.197643 -0.0925607 0)
(1.05696 -0.0318524 5.66423e-21)
(1.06297 -0.0152244 0)
(1.17946 -0.175505 2.59207e-20)
(0.959924 -0.0375545 -1.43456e-20)
(0.99707 -0.0285632 0)
(0.840408 -0.874114 0)
(-0.251949 -0.0431519 -1.32928e-20)
(-0.183592 -0.0243769 0)
(0.383885 0.0333666 -7.56841e-20)
(0.997284 -0.0257796 -1.78821e-20)
(0.797071 -0.287636 0)
(1.00564 -0.0249398 0)
(1.00792 -0.0196894 -8.67919e-22)
(1.03224 -0.0137508 -3.42345e-21)
(-0.186129 -0.0495582 0)
(1.02047 -0.00110798 -4.89694e-21)
(1.01797 -0.0498889 -1.42798e-21)
(-0.157791 -0.0094786 8.73028e-23)
(-0.238242 -0.0476635 -1.34741e-19)
(1.07011 -0.0487064 2.03716e-20)
(1.34839 -0.123101 1.09016e-19)
(1.09222 -0.121626 -1.00577e-20)
(1.00425 -0.00822851 0)
(0.246708 0.018162 0)
(1.10728 -0.0368512 -2.30519e-22)
(1.1921 -0.49579 0)
(1.00724 -0.074989 0)
(1.02382 -0.555432 -4.91304e-22)
(1.03215 -0.00111888 -5.13772e-21)
(1.09475 -0.0138958 -9.10321e-21)
(0.999959 -0.000907361 8.75157e-21)
(1.20964 -0.361927 6.5127e-20)
(1.02383 -0.0427722 0)
(-0.198948 -0.0500764 2.25681e-20)
(0.361503 -0.0733853 0)
(1.28823 -0.102004 -7.59935e-20)
(-0.124929 -0.0448045 2.62317e-24)
(-0.111272 -0.0358981 0)
(0.913276 -0.105348 3.94459e-20)
(-0.257253 -0.0458643 -1.02295e-19)
(1.27595 -0.24445 0)
(1.23678 0.027378 1.84309e-20)
(0.957901 -0.0404423 4.82713e-21)
(1.0402 -0.0373069 5.96021e-21)
(-0.0750714 -0.0485969 -4.01824e-20)
(0.470127 0.0381638 0)
(1.34098 -0.162249 -3.91518e-20)
(1.21589 -0.289393 -1.00462e-19)
(1.09182 -0.2683 -2.98088e-20)
(0.999079 -0.0194247 5.15454e-21)
(1.02303 -0.122549 4.89102e-23)
(0.189594 0.0309089 8.26858e-20)
(-0.236198 -0.0455297 2.1236e-19)
(1.00478 -0.0288001 1.74395e-22)
(1.06059 -0.0846186 0)
(-0.104333 -0.00820243 -2.47063e-20)
(0.0985309 -0.0195402 -7.89967e-20)
(0.0679135 -0.0270905 -1.00395e-19)
(1.26755 -0.0484516 5.88095e-20)
(1.00812 -0.000329032 -1.48796e-22)
(0.958044 -0.0662873 2.89282e-20)
(-0.231575 -0.0409983 8.0219e-20)
(-0.00527427 -0.0457086 0)
(1.01355 -0.003142 1.31755e-21)
(1.12104 -0.0238661 -3.57532e-20)
(1.01657 -0.00549995 2.12399e-21)
(0.741791 -0.916762 -6.28024e-22)
(0.997167 -0.0116156 0)
(1.25337 -0.0733875 -6.02077e-20)
(1.09739 -0.263175 3.47502e-20)
(1.00158 -0.0169157 8.08242e-21)
(1.05607 -0.000923527 0)
(-0.227941 -0.0439307 2.47146e-20)
(0.996745 -0.0230887 0)
(1.07435 -0.0974321 7.57042e-21)
(0.993122 -0.03317 -6.19243e-21)
(1.01117 -0.000750928 8.6966e-23)
(1.00246 -0.0373403 7.45063e-23)
(1.09626 -0.65391 -2.07905e-20)
(0.875116 -0.378486 -3.0176e-20)
(1.34828 -0.1641 -2.69127e-20)
(0.232641 0.0299587 -6.33089e-20)
(-0.233823 -0.0461555 6.75802e-20)
(-0.168607 -0.0194552 0)
(1.00001 -0.00090471 -9.58499e-21)
(1.29602 -0.0655608 0)
(0.907898 -0.052895 5.3267e-20)
(1.08801 -0.0815834 -2.82393e-20)
(1.3478 -0.243205 -7.48565e-20)
(0.998901 -0.0205524 0)
(0.988107 -0.0351007 -1.73425e-21)
(1.03939 -0.0165674 0)
(0.336616 -0.884883 -2.96807e-20)
(-0.044684 0.00559985 -8.19109e-20)
(0.348852 -0.776896 1.62876e-20)
(0.998023 -0.0285975 -1.4696e-20)
(0.989915 -0.146076 -7.25469e-21)
(1.03411 -0.0128026 -2.89832e-23)
(1.03171 -0.0141014 1.15143e-22)
(1.03207 -0.000333313 -1.09837e-20)
(0.997637 -0.0943486 -7.15022e-21)
(0.97181 -0.222697 -1.65458e-20)
(-0.136314 -0.128261 -1.71791e-23)
(0.921634 -0.141573 1.35367e-20)
(1.00759 -0.01931 0)
(0.952193 -0.484183 -1.39398e-21)
(0.678619 -0.941008 -1.99966e-20)
(0.841985 -0.224539 1.12039e-21)
(1.00695 -0.0193827 2.29333e-21)
(-0.028651 0.00803275 -1.04401e-19)
(-0.14488 -0.0420074 0)
(1.00502 -0.0281733 7.36453e-21)
(-0.176527 -0.0489715 -9.89265e-20)
(1.33934 -0.273434 -6.84959e-20)
(1.17746 -0.0101994 0)
(0.989377 -0.141964 0)
(0.999807 -0.0092732 0)
(1.01751 -0.0959909 -1.09349e-21)
(1.15614 -0.304586 0)
(-0.141681 -0.0469463 -1.13323e-19)
(1.00768 0.0487661 -1.73346e-20)
(1.04488 -0.0360909 -8.39338e-22)
(-0.0983761 -0.103759 -3.15206e-20)
(-0.197317 -0.0216402 6.36307e-20)
(-0.282345 -0.0508099 -7.57067e-20)
(1.06285 -0.0145219 1.8709e-21)
(-0.245922 -0.0493324 0)
(1.28914 -0.204221 -2.64705e-21)
(-0.233648 -0.0374864 0)
(0.838765 -0.259313 0)
(0.253492 -0.0905156 -7.3976e-20)
(1.04055 -0.0190444 0)
(-0.241806 -0.0481793 1.46606e-19)
(0.433822 0.0364401 0)
(1.27043 -0.0302734 0)
(1.01669 -0.052025 0)
(1.05002 -0.00790443 0)
(1.03745 -0.131522 1.37088e-21)
(1.31637 -0.0368389 0)
(1.03512 -0.0524085 2.08123e-21)
(1.28516 -0.104784 1.04516e-19)
(1.00899 -0.0751686 0)
(1.16043 -0.497172 2.3918e-20)
(1.11957 -0.0609046 0)
(-0.23373 -0.0370398 0)
(-0.149589 -0.0135668 5.86492e-20)
(1.03312 -0.0201297 -8.6656e-22)
(1.34828 -0.243846 0)
(1.06385 -0.262725 1.08197e-20)
(1.26342 -0.0487898 -1.05819e-19)
(1.23254 -0.151002 0)
(-0.0329777 0.00714484 3.60758e-20)
(1.00039 -0.0249255 -6.2449e-21)
(1.20977 -0.282568 0)
(0.691751 -0.254803 2.84328e-20)
(1.30637 -0.274291 -1.08504e-19)
(0.0851153 -0.0301692 0)
(0.996763 -0.0429522 0)
(0.222651 -0.0515533 -1.00182e-19)
(0.19049 -0.0369354 -2.36252e-20)
(0.992947 -0.0287496 -1.08006e-20)
(0.15907 0.00380092 -8.7285e-20)
(1.2478 -0.27983 -4.07409e-20)
(1.01299 -0.00309351 9.68522e-24)
(0.0981764 -0.00237274 0)
(-0.208841 -0.0173998 -1.65544e-20)
(1.02689 -0.0665571 -4.21592e-22)
(1.12339 -0.153203 0)
(-0.0933706 -0.0123216 4.417e-22)
(0.992597 -0.0282513 -6.71008e-21)
(0.079603 -0.0175266 -9.96188e-20)
(0.996928 -0.0469322 -1.15173e-20)
(0.999199 -0.0315145 -8.07042e-21)
(0.988596 -0.0339079 1.7548e-21)
(1.14066 -0.0452043 -4.48991e-20)
(1.00714 -0.0191682 0)
(1.03223 -0.00200541 7.38431e-21)
(-0.174698 -0.0198125 4.71771e-20)
(0.999949 -0.00047104 -1.15106e-20)
(1.08507 -0.0655015 -2.16222e-20)
(1.05742 -0.0285665 1.10657e-20)
(0.524919 0.0410652 5.24852e-20)
(0.875959 -0.192169 0)
(1 -0.0245882 8.39027e-22)
(1.03813 -0.0184882 -1.0165e-21)
(0.0853349 -0.0159676 -6.807e-20)
(1.01558 -0.0583929 0)
(0.634758 -0.68102 3.66485e-20)
(0.156943 -0.507201 0)
(1.02514 -0.155124 9.71753e-22)
(0.827615 0.040096 -2.68563e-20)
(0.998391 -0.0929477 1.17828e-20)
(1.12343 -0.0152514 4.3763e-20)
(0.484115 -0.0988805 -2.92758e-20)
(1.31292 0.0695153 0)
(0.90983 -0.106829 -3.7467e-20)
(1.00578 -0.033509 0)
(1.02278 -0.151158 -4.58621e-23)
(1.0871 -0.116179 0)
(1.35221 -0.157289 0)
(1.06803 -0.00269627 0)
(1.00504 -0.0185397 0)
(1.19052 -0.0258791 -4.0271e-20)
(0.999499 -0.00343934 8.5029e-21)
(-0.205919 -0.0287617 6.53149e-23)
(1.11371 -0.212747 -3.39614e-20)
(1.01329 -0.0571736 0)
(1.00168 -0.0154053 -5.01783e-23)
(1.10085 -0.0849126 3.54902e-20)
(1.05811 -0.125074 -6.1472e-21)
(0.183057 -0.529703 0)
(0.982955 -0.0288589 -1.93501e-20)
(1.02006 -0.0111161 -7.41265e-22)
(0.165173 -0.400484 0)
(1.00069 -0.0344192 -4.54573e-22)
(1.34946 -0.0823065 -5.18739e-20)
(1.11007 -0.366846 -1.72935e-19)
(1.02516 -0.127429 -2.89084e-23)
(-0.00874213 0.0102977 6.30946e-20)
(0.999919 -0.0090197 0)
(-0.207249 -0.0364297 0)
(1.0001 -0.0116035 -6.75573e-21)
(1.2321 -0.158152 -1.29867e-20)
(0.667733 -0.674092 -9.28147e-21)
(1.30229 0.068212 7.18436e-20)
(1.15661 -0.0783504 0)
(1.0072 -0.00573474 -3.50289e-22)
(1.22718 -0.160291 4.36485e-20)
(1.06935 -0.0195851 8.49735e-21)
(-0.203418 -0.0501891 -1.37912e-19)
(-0.219189 -0.0231128 -1.05546e-19)
(1.15355 -0.50548 -5.55084e-20)
(1.23857 -0.376756 6.91989e-20)
(1.18523 -0.103888 0)
(1.00439 -0.0768429 4.10775e-21)
(1.02328 -0.0969361 3.97393e-22)
(-0.240361 -0.0472917 -9.8428e-20)
(-0.241978 -0.0401167 4.55837e-20)
(1.00497 -0.0320063 0)
(0.355409 -0.000312968 2.21991e-20)
(0.960886 0.0450415 -2.30053e-20)
(1.02053 -0.0117652 7.74379e-22)
(0.706552 -0.205088 0)
(1.32279 -0.028976 -1.24951e-20)
(1.26259 -0.105363 5.14092e-20)
(1.03827 -0.0193661 -4.24152e-21)
(-0.249633 -0.0427799 0)
(0.238412 -0.0162228 -1.45708e-20)
(-0.212246 -0.0353993 1.02026e-19)
(0.00377523 -0.0510456 0)
(0.234584 0.033686 -3.9513e-20)
(-0.253723 -0.0398666 1.05738e-19)
(1.18605 -0.107463 1.23081e-20)
(1.00429 -0.0056139 1.1076e-21)
(0.908687 -0.0600468 2.58482e-20)
(1.1205 -0.149404 1.13178e-20)
(1.00126 -0.0256401 5.7734e-21)
(1.02564 -0.0675349 0)
(-0.136767 -0.0288456 -1.32757e-19)
(1.06415 0.000503147 -1.29984e-20)
(1.18367 -0.179522 -3.55029e-20)
(-0.225648 -0.033709 0)
(0.677596 -0.634857 0)
(-0.148098 -0.058433 -3.85176e-20)
(0.855838 -0.166026 1.41442e-20)
(1.0472 -0.150086 -8.52577e-20)
(1.25513 -0.240206 -9.58784e-20)
(1.19547 -0.224052 0)
(1.00002 -0.000219879 3.46221e-21)
(-0.180814 -0.048673 0)
(1.00803 -0.000677503 -1.32595e-22)
(0.501589 0.0205359 -1.95735e-20)
(0.947498 -0.353024 -6.7668e-20)
(1.00043 -0.00567146 0)
(1.22719 0.0309784 1.58258e-20)
(0.987338 -0.0396156 -2.32591e-20)
(0.793841 -0.0831324 1.37049e-19)
(-0.216579 -0.0224699 9.05154e-20)
(1.04496 -0.574941 0)
(1.24544 -0.39261 2.281e-21)
(1.0321 -0.00572751 0)