/*--------------------------------*- C++ -*----------------------------------*\
| =========                 |                                                 |
| \\      /  F ield         | OpenFOAM: The Open Source CFD Toolbox           |
|  \\    /   O peration     | Version:  v2012                                 |
|   \\  /    A nd           | Website:  www.openfoam.com                      |
|    \\/     M anipulation  |                                                 |
\*---------------------------------------------------------------------------*/
FoamFile
{
    version     2.0;
    format      ascii;
    class       surfaceScalarField;
    location    "200";
    object      phi_0;
}
// * * * * * * * * * * * * * * * * * * * * * * * * * * * * * * * * * * * * * //

dimensions      [0 3 -1 0 0 0 0];
oriented        oriented;


internalField   nonuniform List<scalar> 
26940
(
0.133588
-0.0851307
-0.0484572
0.502387
-0.189713
-0.312674
0.128667
-0.470766
0.342099
-0.0329916
0.125064
-0.0920727
-0.0205835
0.00667372
0.0139098
-0.103791
0.1025
0.00129107
-0.373441
0.394017
-0.0205758
-0.00437242
0.00437242
-0.0033832
-0.000198938
0.00358214
0.00847853
-0.0128884
0.00440983
-0.283431
-0.0989674
0.382398
0.275573
0.0604773
-0.33605
-0.00333509
0.00461924
-0.00128415
0.0969292
-0.0121958
-0.0847334
-0.0229185
-0.0226258
0.0455444
0.0981281
-0.00119886
-0.0157735
0.313777
-0.298003
-0.0219443
-0.0198765
0.0418208
0.331234
-0.148248
-0.182986
-0.000370444
0.000534471
-0.000164027
0.106896
-0.123121
0.0162247
0.35229
-0.368064
0.135842
-0.0289459
-0.424211
0.25094
0.173271
-0.00569445
-0.36555
0.371245
0.102166
-0.475607
-0.0902801
0.142694
-0.0524143
-0.210759
0.106163
0.104596
-0.0697967
-0.193107
0.262904
-0.12762
0.0946281
0.00363464
-0.000831178
-0.00280346
0.00506192
0.372521
-0.377583
0.252146
-0.328613
0.0764671
0.365863
-0.192206
-0.173657
-0.231444
0.410803
-0.179359
-0.517291
0.231128
0.286163
0.00105809
-0.00444129
-0.207348
-0.309943
0.0729385
-0.308444
0.235505
-0.00550353
0.0139821
0.372755
-0.481382
0.108626
-0.0905932
0.0473723
0.0432209
0.369871
-0.117725
0.308944
-0.248034
-0.0609102
-0.07304
-0.0351948
0.108235
0.489651
-0.277164
-0.212487
0.135757
-0.0130997
-0.122657
0.00363464
0.110647
-0.101981
-0.00866525
0.130523
-0.0698574
-0.060666
-0.0460239
-0.116042
0.162066
0.157237
-0.132937
-0.0242996
-0.0788454
-0.0473798
0.126225
0.122535
-0.461357
0.338822
-0.405999
0.122568
-0.00567156
0.00103952
0.00463204
-0.0480432
-0.0425499
-0.00184648
0.0111494
-0.00930289
0.193564
-0.253054
0.0594904
-0.0159619
-0.155846
0.171808
0.101133
-0.153797
0.0526642
0.199924
-0.0374735
-0.16245
-0.00335209
0.00397221
-0.000620118
-0.212688
0.101644
0.111044
-0.0782686
-0.0203605
0.0986292
-0.179913
0.367686
-0.187773
0.00299349
-0.0047505
0.00175701
0.0185523
-0.0304074
0.0118551
-0.00217225
0.0310848
-0.0289126
0.20643
-0.152749
-0.0536807
-0.402163
0.170719
-0.076565
-0.169799
0.246364
-0.125105
0.0520651
-0.183477
0.21565
-0.0321731
-0.0179801
0.0179801
-0.0213183
0.0282723
-0.00695401
-0.0712817
0.125085
-0.0538035
-0.0231185
0.0209462
0.0577782
-0.220649
0.162871
-0.17054
0.4678
-0.29726
-0.479412
0.0143024
0.465109
-0.00686045
-0.00586011
0.0127206
-0.237191
-0.433469
0.150668
0.282801
-0.422355
0.533531
-0.111176
0.18063
-0.280234
0.0996036
0.221933
-0.239142
0.0172097
-0.389144
0.548509
-0.159365
-0.141471
0.15795
-0.0164784
-0.261727
0.334666
0.00380747
-0.00399251
0.000185033
-0.128784
0.0178472
0.110937
-0.0104649
0.00121534
0.00924952
0.290129
0.189019
-0.479148
-0.07941
0.452165
-0.0686614
0.249292
-0.0662216
-0.299108
0.36533
0.107283
-0.113595
0.00631131
-0.182264
0.146832
0.0354318
0.0331669
-0.185653
0.152486
0.489719
-0.475945
-0.0137742
-0.433841
0.138384
0.295458
0.0352325
-0.058151
-0.0861913
-0.126497
0.109202
0.0972276
-0.324863
-0.108979
-0.0202787
0.0155868
0.00469181
-0.00560599
0.00292669
0.0026793
0.118052
0.0229845
-0.141036
-0.294359
-0.103205
0.397564
0.00779685
-0.00964333
-0.00399147
0.00793239
-0.00394092
-0.0136772
0.0120932
0.00158395
-0.0208647
0.052149
-0.0312843
-0.0917741
0.40001
-0.308236
0.110953
0.214772
-0.325725
-0.10674
0.117121
-0.0103813
0.000884889
-0.00139078
-0.188865
-0.0367225
0.225588
-0.0542827
0.0021226
-0.0256241
-0.0312002
-0.226467
0.156671
-0.0244858
-0.0688731
0.0933589
-0.0455603
0.0405975
0.00496271
-0.130635
0.0945773
0.0360577
-0.389516
0.244056
0.14546
0.233262
-0.382581
0.149319
0.00727778
-0.00312752
-0.00415026
-0.180737
0.106522
0.0742149
-0.0760015
-0.034368
0.110369
0.109478
-0.11704
0.00756111
0.0346408
0.0127673
-0.0474081
0.154043
-0.217217
0.0631737
0.00366695
-0.0178407
0.0141738
-0.17534
0.0723631
0.102977
-0.0118419
0.147599
-0.446663
0.239314
0.14131
0.200837
-0.342147
-0.0495252
0.203568
-0.0015237
0.00122686
0.000296839
0.000262354
0.00114784
-0.0014102
-0.0992295
0.0209609
-0.0635271
-0.022634
0.086161
0.00156122
-0.014338
0.221762
-0.10371
-0.00862659
-0.0472734
0.0559
0.000580631
-0.000580631
-0.0621749
0.0178394
0.0443355
0.21758
-0.297068
0.0794873
0.240846
-0.0988415
-0.142004
0.358656
-0.424878
-0.0132673
0.0154163
-0.00214899
-0.0202787
-0.0581369
-0.0724981
-0.0776974
-0.303955
0.381652
-0.433022
0.138662
-0.214088
-0.010217
0.224305
-0.00413106
0.000778973
-0.29775
-0.148912
0.00394269
0.109951
0.318503
-0.428454
0.0331825
-0.0141888
-0.0189937
0.144192
-0.220196
0.0760035
-0.417532
-0.0380997
0.455632
0.0157654
0.0179889
-0.0239132
0.00592426
-0.102608
0.375205
-0.272597
0.00903023
-0.00746901
-0.00639078
-0.00687311
0.0132639
0.0100086
-0.0106185
0.000609873
-0.0956225
0.105533
-0.00991064
-0.0623199
0.0414552
0.0595665
-0.135568
0.0217588
-0.00320652
0.0656777
0.017752
-0.0834297
0.128999
0.181899
-0.310898
-0.0457342
0.0230592
0.0226751
0.00301001
-0.0319244
0.0289144
-0.23735
-0.28554
0.52289
-0.463709
0.0745645
-0.348665
0.256891
0.0493832
-0.138807
0.0894239
0.0257003
-0.0484081
0.0227078
-0.0408287
-0.00490551
0.0199124
0.0572147
-0.0771271
-0.256486
0.424733
-0.168247
-0.138806
0.0460392
0.0927666
-0.0448314
-0.0835265
0.128358
-0.339198
-0.0447791
0.383977
-0.228086
0.339039
-0.0276038
0.128737
0.271957
0.0592764
0.174357
-0.162923
-0.0114344
-0.263473
-0.169996
-0.186779
0.142099
0.0446795
-0.00293539
0.000128969
0.00280642
-0.0914713
-0.0123193
-0.13314
-0.0536388
-0.0017746
-0.00378703
-0.00181896
0.00569957
-0.101322
8.84414e-05
0.0102362
-0.0103246
-0.185973
0.313351
-0.127378
-0.0170287
-0.0451462
0.024958
-0.20113
0.176172
-0.165458
0.0325211
0.0115845
-0.018445
-0.00597057
0.000299013
-0.020828
0.0244329
-0.00360491
0.00708232
-0.00708232
-0.0120064
-0.00857712
0.00193911
-0.00167676
0.265037
-0.174364
0.365997
-0.191633
-0.135711
0.180981
-0.0452695
-0.103806
-0.0249774
-0.0748464
-0.0174102
0.0922566
0.00054355
0.0124301
-0.0188209
-0.011267
0.00540693
-0.172085
-0.0285977
0.200683
0.0162621
0.316426
-0.332688
-0.409782
0.153296
-0.0967497
0.0507189
0.0460308
0.00982613
-0.00998096
0.000154822
-0.106213
0.287076
-0.180862
-0.107918
-0.00567692
0.546807
-0.395805
-0.151003
-0.150254
-0.045434
0.195688
-0.297483
0.111509
0.000472784
-0.000701462
0.000228677
0.0129184
-0.00408946
-0.00882889
0.256224
-0.101334
-0.15489
0.00240329
-0.000903229
-0.00150007
-0.41016
0.544498
-0.134338
0.102757
-0.261508
0.158751
-0.175977
0.0402659
-0.087892
-0.0564717
0.144364
0.00912978
-0.00791909
-0.00121069
0.0594935
-0.0681201
0.160988
0.0133697
0.00931427
-0.00697148
-0.00234279
-0.00100186
-0.000756142
0.001758
-0.152372
0.13641
-0.00361902
0.0528673
-0.0492483
-0.199986
0.220577
0.080233
0.00234816
0.00696611
0.004636
-0.0212819
0.0166459
0.224966
-0.247376
0.0224105
0.0644573
0.0691305
0.412215
-0.178953
-0.23298
0.257938
-0.102544
-0.078193
-0.0161504
0.00288309
0.00833846
-0.00109881
-0.00723966
0.110719
0.295701
-0.406421
0.0116571
0.00234482
-0.0140019
0.00141569
0.00859289
-0.431557
0.014025
-0.190158
0.370317
-0.180159
0.00162273
0.000780559
-0.0974502
0.11614
-0.0186893
0.0346504
0.0759962
-0.00393796
0.00529037
-0.00135241
-0.0112474
0.0165115
-0.00526415
-0.00399002
-0.00720844
0.0111985
-0.206093
0.0226152
-0.0366474
-0.442764
0.113328
-0.080161
0.0402433
-0.345539
0.171175
0.316549
-0.470091
0.153541
0.000303231
-0.0280078
0.0277045
0.145572
0.0123774
0.000147839
0.00791592
-0.00806375
-0.032829
0.035839
0.220983
0.325824
-0.0260586
0.00474027
0.363718
0.123747
-0.0268686
-0.0968786
-0.00216071
0.0051542
-0.183746
-0.0223465
0.169837
-0.278669
0.108831
0.0644591
-0.236544
-0.140349
0.0440366
0.096312
-0.0203969
0.220321
0.294988
-0.149039
-0.145949
0.0046755
-0.00361741
-0.0286163
-0.320048
-0.034941
-0.175818
0.11951
-0.131352
0.220987
-0.121041
-0.099946
-0.292397
0.403116
-0.223286
0.0395396
-0.000907857
-0.00202753
-0.310429
-0.0541181
0.364547
-0.137031
-0.208508
0.179378
-0.285591
-0.0683708
0.0647517
0.00263683
0.0387245
-0.0413613
-0.443186
0.272645
-0.315378
0.0785031
0.236875
-0.0986377
0.415187
-0.030757
-0.0321398
0.0628968
-0.402946
0.192742
0.210204
-0.00480883
-0.00116174
-0.128578
0.0986486
0.0299298
0.187356
0.121589
0.211902
-0.330664
0.118761
0.144243
-0.217348
0.0731052
-0.0229639
0.00643194
0.016532
0.000690123
-0.00106057
0.0536148
0.10711
-0.160724
0.316802
-0.345418
-0.0139004
0.0150507
-0.00115028
-0.0581188
0.0106576
0.0474612
0.106061
0.114927
0.175839
-0.0917239
0.0925214
-0.000797491
-0.155265
0.362909
-0.207644
-0.133772
-0.0484915
0.0132472
-0.0131587
-0.122405
0.0249546
0.13567
-0.111611
-0.024059
-0.124678
0.0548202
0.1888
0.106188
-0.175948
-0.226998
-0.2959
0.400741
-0.104841
0.0168815
0.00160593
-0.0184874
-0.209363
0.350673
-0.0106711
-0.0949371
-0.338886
0.059945
0.278941
0.0392117
0.00627265
-0.0454843
-0.00781835
0.00655811
0.00126024
0.0996442
-0.0149595
-0.0846847
-0.000547234
0.0122043
0.00388723
-7.97605e-05
0.0184709
0.000744213
-0.0192151
0.323358
-0.105777
0.0050888
0.00203471
-0.00712351
-0.0851904
-0.00653343
0.00365105
-0.00120898
-0.00244207
-0.168117
0.270874
0.263048
-0.378384
0.115336
0.346535
0.0329104
-0.379446
0.157732
-0.104117
0.186559
-0.263124
0.0567415
-0.144633
-0.00429341
0.197857
-0.0101278
0.129638
-0.322695
0.185663
0.307476
-0.430233
0.122757
0.0485404
0.0177243
-0.0662647
0.176975
0.0449581
0.00707599
-0.0651948
0.161993
-0.152555
-0.00943813
-0.142951
-0.386098
0.0901983
-0.342885
-0.120824
-0.0150277
0.00378037
-0.00232362
0.000790349
0.00153327
0.116604
-0.409
0.298366
-0.402861
0.104495
0.210641
0.1324
-0.343041
-0.394812
0.00439277
0.390419
-0.0103103
0.0995406
-0.0892304
0.567347
-0.330561
-0.236787
-0.0145428
0.0228795
-0.00833673
-0.0406829
0.0187385
-0.526519
0.400696
0.125823
-0.300039
0.144774
-0.0871516
0.0712895
0.0158621
-0.00485755
0.00788346
-0.00302591
-0.0177524
0.0569641
0.00226768
0.00138338
0.37996
-0.516011
0.13605
-0.000929541
-0.00189662
0.101541
-0.0255355
0.00023656
-0.00176026
-0.0110551
0.0867191
-0.075664
0.107109
0.133737
0.0761367
-0.240731
0.164595
-0.328919
0.26345
0.0654696
0.190404
0.220259
0.299456
-0.519715
-0.000575896
0.00970568
-0.21883
-0.110089
0.285374
0.117257
-0.402632
0.15165
-0.219733
0.0680822
-0.0498653
-0.239431
0.289296
0.0127966
-0.0134085
0.000611913
0.0284727
0.0865618
-0.115035
0.171771
-0.471912
0.30014
0.166956
-0.0122677
0.00180287
0.217281
-0.396215
0.178934
0.245361
-0.404036
0.158675
0.268145
-0.277207
0.00906229
0.0874155
0.012847
-0.100263
-0.00147168
-0.00634666
-0.226374
0.516503
0.0627448
-0.0428325
-0.285766
0.200938
0.0848278
-0.211602
-0.0858808
-0.00238672
-0.00625507
0.00864178
-0.00806385
0.00567713
-0.2581
0.104582
0.153517
0.0454577
-0.0762147
0.00688413
-0.134936
0.121515
0.0134204
-0.0690125
0.0651738
0.00383868
0.0755567
0.141481
-0.217037
-0.0114843
-0.174168
-0.0747679
-0.0655806
0.0732004
0.00330794
-0.0765083
-0.145998
-0.414884
-0.516258
0.302125
0.214133
0.312731
-0.15483
-0.157901
-0.195827
-0.193689
0.0155792
0.0024097
-0.208969
0.0423636
0.166605
-0.0153252
-0.0136725
0.0289977
-0.325101
0.453767
-0.107954
0.0834682
0.237214
0.12865
-0.00163073
-0.000692884
0.00263218
-0.00263218
0.175253
-0.0609252
-0.114328
0.023151
-0.0121367
-0.0110143
0.0292508
0.106419
0.163692
-0.184069
0.138045
0.0143653
-0.00156867
-0.0521675
-0.00859548
0.060763
0.462896
-0.456822
-0.00607399
-0.0186435
0.0041007
0.160256
0.0160124
-0.176269
-0.28209
-0.118138
0.400228
-0.0116029
-0.0339574
0.00515463
-0.00731535
0.324461
-0.308199
0.0107962
0.0223862
0.00877651
-0.00368772
-0.318001
-0.115021
-0.0077047
0.0077047
0.0701256
-0.0804358
-0.293798
0.0821959
-0.0386701
-0.0580797
-0.0300765
0.0303797
-0.0166534
0.0823311
-0.16826
0.0522184
-0.0132047
-0.0120803
-0.00182014
-0.0647496
0.0932224
-0.0679961
-0.0594562
0.127452
0.258501
-0.308367
-0.00884587
0.00571835
0.181471
-0.329719
0.309159
-0.126039
-0.183121
0.015002
0.00814899
-0.00507701
-0.0639354
0.151308
0.0795711
-0.230879
-0.0801549
-0.177945
0.171947
-0.0116908
-0.148306
0.223863
-0.253465
0.0534793
0.314189
0.0323465
-0.461358
0.0390036
0.134317
-0.112204
-0.0221127
-0.00110089
0.00151814
-0.00041725
-0.464762
0.121877
0.129842
-0.00609521
-0.506155
0.111343
-0.000282568
0.00321033
-0.00292776
-0.282912
-0.233346
-0.446655
0.0364948
-0.0157961
-0.0732885
0.0890846
0.00363543
0.0323083
-0.0359438
0.110278
-0.102379
-0.00789926
0.00292329
0.00828048
-0.0112038
-0.277241
-0.110272
0.387512
0.366071
-0.0883949
-0.277676
-0.00149828
-0.00976876
0.00374425
-0.0513759
0.0476317
0.0847149
-0.141187
-0.245323
-0.0180711
0.263394
-0.0435472
0.047731
-0.00418384
-0.00679233
0.0324927
-0.301136
-0.154363
0.455499
-0.39941
0.296802
-0.0391363
0.419097
-0.0119171
-0.187362
0.199279
-0.00198773
0.0188692
0.00965863
-0.00144867
-0.00820996
0.311483
-0.196239
-0.115244
-0.246971
0.0592992
0.187672
-0.056533
0.0153661
0.0411669
-0.000655338
-0.00633204
0.00698738
-0.00586956
4.78328e-05
0.00582173
-0.116789
-0.184097
0.00863115
0.175466
-0.0433765
0.10803
0.452417
-0.246445
-0.205972
-0.436869
0.146677
0.290192
0.0558536
0.289742
-0.345596
-0.0772039
0.155361
-0.0781576
0.0421797
-0.0326868
-0.00949296
-0.0188895
-0.0366605
0.0555501
-0.0091045
0.0823049
0.17005
0.102095
-0.0984374
-0.00365787
-0.277399
0.271704
0.271943
0.202132
-0.474075
-0.00172872
0.0107307
-0.00900194
-0.0219601
0.0402803
-0.0183203
-0.118514
-0.020292
0.0365272
-0.0335876
-0.00293966
-0.0102797
-0.00339749
-0.0464383
0.0500737
0.0104734
-0.000814725
-0.112385
0.041103
0.00963699
0.00405607
-0.0136931
-0.00117608
-0.000472203
0.00164829
0.0984468
-0.111547
0.000930181
-0.000457396
0.360858
-0.0852852
0.0556164
0.0244279
0.200538
-0.20132
0.275033
-0.0737132
-0.0253851
-0.0311479
-0.0885433
0.0250162
-0.141173
-0.111881
0.0713139
-0.0974307
0.0261168
-0.0124002
0.064703
-0.0523028
0.185664
-0.102044
-0.0836199
0.3177
-0.395398
0.158803
0.110006
-0.268809
0.0345924
-0.0565525
-0.00467256
-0.00361935
0.00829191
0.0147497
-0.0118264
-0.121229
0.3942
-0.272971
0.101177
-0.0298628
-0.00469239
0.00160897
0.00308342
-0.0668138
0.22895
-0.162136
-0.071942
-0.213824
-0.0774541
0.288095
0.0695961
-0.1619
0.0923037
-0.00401455
0.0386554
-0.00248977
0.0102866
-0.314827
0.437362
-0.00543248
0.017017
-0.488322
0.268586
0.219736
-0.0140411
-0.00724084
-0.0964184
0.154197
-0.0140145
-0.225357
0.239372
-0.15559
0.0113615
0.144228
0.00803807
-0.00869341
0.323522
-0.11162
0.348109
-0.420952
0.0728428
0.000897716
-0.00199861
-0.0145929
0.0131443
-0.123272
0.0355312
0.087741
0.0530719
0.0151388
-0.260461
-0.159516
-0.28367
0.342703
-0.389987
0.047284
0.000749384
0.000614233
-0.00136362
-0.0051392
0.0634787
-0.0583395
-0.000768351
0.00121378
-0.000445432
0.168735
-0.0103231
-0.158411
-0.0509427
0.0320532
-0.00478524
-0.0100857
0.0148709
-0.0781169
-0.0978605
0.0111494
0.0254158
-0.209513
0.00917368
0.000652457
-0.0612572
-0.317981
0.379238
-0.0396395
0.0328472
-0.00909034
0.0162974
-0.00720705
0.0137189
0.0348535
-0.0485723
-0.0729735
-0.00153479
0.0200057
0.00708495
0.00278374
-0.00986869
-0.0342865
-0.268951
0.303237
-0.00231543
0.0349028
-0.0325874
0.0163743
0.255583
-0.415095
-0.0462614
-0.00586956
0.00887901
-0.00559978
-0.00327922
0.430306
-0.258534
-0.41287
0.0948697
0.436856
-0.326906
-0.0001307
-0.0206973
-0.0021733
0.00883361
-0.00666031
-0.0742338
0.422343
0.100533
-0.0521974
-0.048336
-0.13614
0.212277
0.196165
-0.277357
0.0811926
0.120496
-0.397737
-0.107409
-0.0129533
0.120362
0.103425
-0.00132937
0.193812
-0.0496198
-0.000885093
0.0319699
-0.292379
0.408982
-0.102306
-0.0301922
-0.00387037
-0.000502047
0.0961419
-0.0785224
-0.0176195
-0.00137153
0.00019545
0.0067348
0.00219478
-0.00892957
-0.0393309
-0.181568
0.220899
0.00325044
0.00136881
-0.031794
0.0355382
-0.0704921
0.17527
-0.104778
-0.00372982
-0.0262795
0.0300093
-0.10633
0.0926935
0.0136362
-0.196781
-0.0238682
-0.0859557
0.142536
-0.0565799
0.0109055
0.00345982
0.0927873
0.0824658
0.0621436
-0.13014
0.201155
-0.230992
0.0298369
-0.174895
0.00623063
0.168664
-0.00144195
0.320784
-0.35507
-0.0256975
0.0331517
-0.00745423
-0.128174
0.0509703
-0.0191668
0.0863443
-0.0671775
0.10895
0.455645
-0.197144
-0.0485484
-0.232779
0.281328
0.00877
-0.00804404
-0.000725964
-0.344401
-0.0765512
-0.168198
-0.320124
0.122384
-0.0382265
-0.0841572
0.2928
-0.396935
0.104135
-0.0690822
-0.0825036
0.0109032
0.0985752
-0.274154
0.0852894
0.159585
-0.170648
0.0110629
-0.272449
-0.11365
-0.000891125
0.016478
-0.00122389
0.000222024
0.0151549
-0.018676
0.00352111
0.196851
0.00430466
0.00260744
0.000109995
-0.00271743
0.00549992
0.00497343
-0.0457552
0.00611566
-0.313319
0.241778
0.0715409
0.00829435
-0.0129669
-0.0325324
0.20734
-0.00552421
-0.00475002
-0.437977
0.174504
0.0627819
-0.0109592
-0.0518227
0.00712122
0.0635481
-0.0706693
0.00265362
-0.00186327
0.00490901
-0.0613422
0.090649
-0.0293067
0.00992181
-0.0104977
-0.425987
0.063706
-0.00254592
0.00299283
-0.000446902
0.153966
0.335753
0.0552449
-0.157769
0.102524
0.100822
-0.171314
0.322838
-0.18168
-0.141158
-0.531594
0.311273
0.220321
-0.00281655
-0.00209314
0.00490969
-0.0101279
0.127626
-0.117498
0.0930158
-0.227074
0.134059
0.015441
-0.0208735
0.0161418
-0.0194573
0.00331552
0.0294537
0.0581237
-0.0875773
-0.0151845
0.18579
-0.134676
-0.051114
0.377979
-0.414627
-0.135412
0.352693
0.332265
-0.276411
0.254278
-0.125279
0.022552
0.0196277
-0.00624293
-0.149347
-0.035534
-0.0103856
0.0459196
0.000648983
-0.00461431
0.00396532
0.0023756
0.00159661
-0.00493069
0.00557967
0.0481357
-0.0539136
0.00577785
-0.175558
0.0401268
0.135431
-0.248017
-0.134563
-0.0487486
0.0558698
0.422463
-0.221627
-0.00585307
0.0017874
0.00406567
0.000399419
-0.011028
0.0106286
-0.383098
0.101008
-0.102612
0.186197
-0.0835854
0.000256157
0.0162062
-0.0164624
-0.0104033
0.0169728
-0.00656949
0.0160914
0.0204358
0.165414
-0.00582885
-0.149363
-0.316059
0.107937
0.208122
0.00207368
0.0133426
-0.00300232
0.000456397
-0.00840099
0.0560991
-0.0476981
-0.116246
0.00991607
0.0760396
-0.0926931
0.00302834
-0.0952078
-0.021038
-0.000560293
0.00571945
-0.00515916
-0.00128032
-0.050763
0.0520433
-0.000516832
0.0486526
0.2558
-0.000445136
-0.000256326
0.0767436
-0.103612
0.121152
-0.13128
-0.000430367
0.0103522
0.405678
-0.132536
-0.273141
-0.130723
0.0447198
0.0860032
-0.0398792
0.0535981
0.178674
0.227004
0.0985951
-0.0879233
-0.0106718
0.00693737
-0.0591049
-0.00962157
0.00906128
-0.016181
0.012191
-0.0398816
0.116544
-0.0766626
0.182369
-0.0025878
-0.179782
-0.4183
-0.113294
0.00174687
-0.0452941
-0.0790275
0.0147141
0.0643134
-0.056797
-0.118543
0.0064525
0.00232401
0.248176
-0.309752
0.0615766
0.0132763
-0.0180615
-0.0103168
0.00632535
-0.180546
-0.013938
0.194484
0.152321
-0.129337
-0.381286
-0.044415
0.425701
0.12241
-0.0201377
-0.102273
0.444261
-0.0662819
0.0229088
-0.00676702
0.0681813
0.0574756
-0.125657
0.00100204
0.00192465
0.0835874
0.41582
-0.237147
-0.108218
-0.207841
-0.0353089
0.0340286
-0.00149101
0.00249305
0.0377961
-0.122927
0.017168
-0.0194834
0.0184353
-0.135607
0.117172
0.0775232
-0.0597711
-0.255545
-0.182432
-0.426083
-0.00658828
0.432671
0.0185657
0.0532191
-0.0717848
0.251807
-0.1005
0.0400619
-0.0790771
0.0390152
-0.0113064
0.069467
-0.00276348
-0.0667035
0.0181448
-0.0929911
0.176122
0.107273
-0.283395
0.0028852
0.000995659
-0.00388086
0.0304964
-0.00509264
-0.0254038
0.000399609
-0.0412283
0.0675768
0.188647
0.480129
-0.361651
-0.118479
-0.123596
0.216612
-0.44707
0.372203
0.0748671
-0.113371
0.0207918
0.0925791
0.0585028
0.163259
0.395539
-0.121268
-0.27427
0.097754
0.000841075
0.217985
-0.131341
-0.0866442
0.000997943
-0.000248559
-0.0209784
-0.0640149
0.0849934
-0.105685
-0.226221
-0.300299
0.0136174
-0.0027119
-0.106677
0.321449
-0.222653
0.0421064
-0.00704508
0.00083285
0.0107906
0.0519913
-0.291949
0.203554
-0.0649857
0.0440073
-0.0162738
0.00587054
-0.367665
0.225342
0.142323
-0.297533
-0.139335
0.283593
-0.223116
0.0672927
-0.037839
0.00162362
0.00103
-0.413432
0.00734759
-0.00862266
0.00127507
0.374138
0.19321
0.00979885
-0.00585617
0.00132574
0.0201528
-0.0214785
0.000458514
-0.0007965
-0.000978098
0.00236019
0.170177
0.0121922
-0.00233758
-0.0206263
-0.053089
-0.422856
-0.0551462
0.0381175
-0.212986
-0.154679
-0.381068
0.392685
-0.0116166
0.0988377
0.291036
-0.389873
0.176729
-0.293646
0.116917
0.0196921
-0.005209
-0.0144831
-0.066623
-0.197273
0.263896
0.0981207
-0.442521
-0.0584243
-0.256954
0.173274
0.222265
-0.0474054
-0.0259124
0.0733178
0.138932
-0.185918
0.0469854
-0.00124095
0.00927902
-0.288621
0.409117
-0.322524
-0.124546
0.276005
0.0255746
0.00492177
0.000322718
0.000257914
-0.00796927
-0.0315683
0.0162431
-0.384645
0.00357716
0.00263864
0.0062551
0.0026239
0.157722
-0.169639
0.305224
0.0427721
-0.347997
0.0083867
-0.00548407
-0.00290263
0.00491433
-0.00519689
0.194594
-0.18254
-0.0120548
-0.0355666
0.117122
-0.0815555
0.00208636
0.038962
-0.0410484
0.059292
0.0750247
-0.278387
-0.0349328
0.158233
-0.0993834
-0.0588492
-0.155106
-0.0197893
0.0578795
0.100353
-0.0135591
-0.00439071
0.0179498
0.0130593
-0.0117336
-0.0752862
-0.225013
0.300299
0.00479611
-0.00420651
-0.000589601
0.192428
0.223393
-0.00495116
0.0843658
-0.0794147
-0.0143212
0.135473
0.147367
-0.0906259
0.104008
-0.000758115
0.000621968
0.000136148
0.00846627
-0.00111868
0.0572832
0.00982689
-0.0671101
0.466306
-0.130361
0.120233
0.267391
0.188254
-0.00062672
-0.490566
0.221615
0.00692363
0.150693
-0.157617
-0.225192
0.0704397
0.154752
-0.0991539
0.377655
-0.278501
0.00892353
0.0605435
-0.182958
-0.0260104
-0.232252
-0.06584
0.298092
0.00519124
0.00934787
-0.0145391
-0.466001
0.389779
0.0762217
0.00619886
-0.0152892
-0.067799
0.173962
0.0744164
0.00443396
-0.0788504
0.371048
-0.247928
-0.12312
0.101626
-0.0150644
0.0524153
-0.0761178
0.0237025
0.185444
0.00730909
-0.0804903
0.0962679
-0.0157775
-0.0279901
0.0952068
-0.343224
0.0258824
0.12095
0.0770581
0.0480271
0.00795681
0.029003
-0.0369598
0.346446
-0.0412212
0.0329894
-0.247078
0.100592
0.0990637
-0.199656
0.0035979
-0.0292954
-0.397656
0.278812
0.118844
0.125196
-0.0184481
-0.106748
-0.043433
-0.0699379
-0.0236813
0.162614
-0.276011
-0.130077
0.406088
-0.441138
0.015055
0.457948
-0.0109837
-0.446964
0.0361366
0.0751757
-0.111312
-0.0902979
-0.0713178
0.0239125
-0.0326618
-0.101542
0.134204
0.243024
-0.318311
0.200812
-0.196038
-0.00477339
-0.000214204
0.00282164
-0.264354
-0.0800585
0.344412
-0.0240692
0.202778
-0.178709
-0.150854
-0.198606
-0.29196
0.152656
-0.0620425
-0.090613
0.105399
-0.0842191
-0.0211801
0.0178494
-0.0893605
0.0735644
0.163935
-0.243434
0.079499
-0.0739895
0.250111
-0.0101672
0.00147374
0.00741254
-0.000677737
0.0147503
-0.0502843
-0.0016057
0.00190819
-0.000302488
-0.0580256
0.0528864
0.0109515
0.12264
-0.411261
0.0666377
-0.16925
-0.00961374
0.00837279
-0.000332088
-0.000426028
-0.00121432
0.00636895
-0.341364
-0.124637
0.0794422
-0.0270269
0.105331
0.00553523
-4.36962e-05
-0.000516875
0.00348131
-0.00296443
-0.0870094
-0.245187
0.332197
-0.0594016
0.0340165
-0.0810784
0.150674
0.00416839
0.00537636
-0.00954475
0.000151292
0.00171359
-0.00186488
0.0228928
-0.00773789
0.400532
-0.0769105
0.0942168
-0.0173063
0.447073
-0.226814
-0.312754
0.232951
0.0798033
0.0094169
-0.0029644
0.299707
0.176484
0.202217
-0.250765
0.0014832
-0.00542116
-0.00229125
0.000867856
0.0014234
0.35931
-0.00484676
0.00203021
0.0187819
0.0226854
-0.0414673
-0.330774
0.102688
-0.0188075
-0.0127608
-0.411052
0.13504
-0.00408154
0.0106268
-0.00654528
0.000282425
-0.00172595
0.00144352
-0.00523615
-0.0036454
-0.00120136
-0.0920753
0.0232022
0.0219247
0.0025082
-0.387042
0.265813
-0.166087
-0.0591054
0.096828
-0.294466
0.197638
0.365919
-0.40331
0.0373908
-0.143752
0.328159
-0.184407
0.216129
-0.15167
0.00786285
-0.00570699
-0.00215586
-0.0135225
-0.00331555
0.016838
0.229408
0.0268511
-0.256259
0.00131515
-0.00261478
0.00129964
0.191107
-0.160192
-0.0309148
-0.107897
0.0164254
0.294127
0.0589706
-0.353098
-0.0810847
0.24502
-0.00139305
0.00427825
0.00200332
-0.00615358
-0.00420068
0.0036838
-0.00877982
-0.0383652
0.047145
-0.399234
0.166981
-0.0115177
0.15709
-0.00244118
0.00173278
0.000708402
-0.0713301
0.212811
0.100287
-0.0128718
0.0827701
-0.0427082
0.00670147
-0.00451853
-0.00218293
0.0081712
-0.0247399
0.0165687
0.162785
0.0967296
-0.361083
-0.217602
0.0692959
0.346975
-0.440209
0.0932344
0.0791034
-0.0982702
-0.0054394
0.0106306
-0.25085
-0.0863868
0.0250446
-0.4426
0.101235
-0.0823224
-0.388443
0.37422
-0.256398
-0.117822
-0.00894547
0.000692731
0.00825274
-0.0843436
0.408718
-0.286078
-0.198612
0.305885
-0.00735603
-0.00213458
0.00949062
0.144622
-0.336828
-0.00266428
0.00281557
-0.00268243
-0.00176246
0.0044449
-0.122083
-0.20653
-0.075934
0.0944998
0.193923
0.00492453
0.00346217
-0.00394288
-0.00813742
-0.00734548
0.00248793
-0.00350567
0.0887425
-0.0852368
-0.143785
0.442662
-0.298877
-0.107454
0.125889
0.0147541
-0.000680864
-0.0140733
-0.232588
0.0823338
-0.000506275
-7.43565e-05
0.00528022
0.00217095
-0.00745117
0.00565099
0.0427039
-0.201532
0.158828
0.165842
-0.10698
-0.0588623
-0.202222
0.0292576
0.172965
-0.174222
0.216926
0.05456
-0.00472658
-0.0498334
-0.0076067
0.00381967
0.0536353
0.0291712
-0.114636
0.0854648
0.222167
-0.118308
0.0335755
0.0847329
-0.124952
0.019888
0.105064
-0.169067
0.22681
-0.0577435
-0.0655999
0.0719297
-0.00632983
-0.00354325
-0.0066239
-0.000827695
0.00597606
-0.00514837
-0.0106936
0.016888
-0.128499
0.0127702
-0.0315777
-0.00139778
-0.000207917
-0.366328
-0.0369819
0.161509
-0.238155
0.0766459
0.454537
-0.417307
-0.0372297
0.018392
0.0450867
0.0331218
-0.171513
0.138391
-0.0224739
0.10605
-0.138712
0.0885903
-0.0707803
-0.0178099
0.130467
0.075482
-0.205949
0.0820386
0.445095
-0.0751359
0.0246137
0.0505221
-0.00509159
0.0147286
0.00228368
0.0242902
-0.0289392
0.00464901
0.000851434
0.00623088
-0.1386
-0.264261
0.27616
-0.171578
-0.000209677
-0.0701406
0.0367215
0.0334191
-0.357741
0.303623
-0.196395
0.223246
-0.0008128
0.000526537
0.000286263
0.0732847
0.0694097
0.104231
-0.00965385
0.175253
0.0605699
-0.261889
-0.000444929
-0.000778958
-0.00478628
0.00533148
-0.000545196
0.0399082
-0.0407993
-0.294933
0.207924
0.0141315
-0.00336808
-0.0107634
-0.179394
0.13396
-0.103594
0.0874987
0.0160957
-0.00224036
0.0169901
0.163596
-0.200319
0.113658
0.0389972
0.11793
-0.0817937
0.000447075
0.0012507
-0.00169777
0.00738893
-0.00781851
0.00042958
-0.0650124
-0.151844
0.216857
-0.000450743
-0.000595872
0.00104661
0.0532268
-0.0142312
-0.0389956
0.090237
-0.0141974
0.142387
0.0432772
0.00826165
-0.00947597
0.0846593
-0.124541
0.0104218
-0.00969956
-0.000722211
-0.41174
0.0619301
0.34981
-0.364118
0.0601629
-0.449723
0.177333
0.27239
-0.35745
0.280854
0.0765966
-0.170409
0.0690759
-0.122843
-0.0454171
-0.144148
-0.320614
0.0664506
0.322289
-0.0896541
0.00776449
-0.00761665
0.386625
-0.111051
-0.275575
0.151154
-0.0527074
0.000498915
-0.0052852
-0.00211865
0.00132215
-0.0203191
-0.0569406
0.0772597
0.275975
-0.0992458
0.295527
-0.108172
-0.266536
-0.137501
0.0689554
-0.480696
-0.00210407
-0.0984394
0.0105162
-0.0504689
-0.0781095
-0.00582084
-0.00048111
0.00630195
-0.00359075
0.00387317
0.0309144
0.237231
-0.0317588
-0.107048
-0.0437008
-0.161798
0.205499
0.515435
-0.243492
-0.00191362
0.0675964
-0.236663
0.0780955
0.0384488
-0.128015
0.414142
-0.286127
-0.117169
-0.0595219
0.185564
-0.126042
-0.437351
0.293566
0.102564
-0.123976
0.0214123
0.0139305
-0.0927759
-0.154892
0.126295
0.0275179
-0.00559317
-0.287883
-0.0695675
-0.254134
0.24012
-0.00398805
0.0612713
-0.193188
0.106997
-0.0071252
0.00503206
-0.00744236
-0.0900718
0.0975142
0.0671528
0.0840014
-0.09535
0.0779398
-0.00268699
-0.00439533
-0.00126606
0.00150262
-0.236866
-0.0331251
0.269991
-0.0170594
0.0153306
-0.202111
0.101269
0.100842
0.0088034
-0.00463501
-0.151281
0.173722
-0.022441
0.0158044
-0.0163517
-0.00553501
0.00414196
-0.00279904
0.00189787
0.018604
-0.0332927
-0.02099
-0.135151
0.293954
-0.460269
0.159133
-0.0380257
0.256345
-0.218319
-0.0131606
0.0134168
0.115672
0.0653092
-0.00626075
0.0068314
-0.0109209
-0.0108341
0.0134927
-0.00265861
0.107112
-0.364924
0.257812
0.00273162
-0.00318237
-0.00916888
0.0095683
0.0702913
-0.435842
0.267775
-0.0655587
-0.127151
0.0411954
-0.246867
0.0886676
0.158199
0.0314873
-0.0235305
-0.0714774
-0.121711
0.175412
-0.0237611
0.0047301
-0.276034
0.422711
0.00525493
-0.0052071
0.110148
0.107837
-0.225438
0.215221
-0.0119061
0.0833951
-0.071489
-0.212534
0.0164958
-0.000515961
0.258322
-0.240849
-0.0174734
0.00341368
-0.345691
-0.0945184
-0.000443634
-0.00184762
0.330111
0.124426
0.0859976
0.198111
-0.284109
-0.00848249
0.00453961
-0.0372664
-0.0629301
0.100197
0.271007
-0.347883
0.144719
0.203164
-0.0187916
-0.0242816
0.0430732
0.266185
0.314997
-0.430347
0.11535
0.00276365
-0.00176799
-0.172936
-0.0642061
0.237142
0.000462623
-0.00117584
0.00071322
0.0156669
0.0747495
-0.0904164
-0.361437
-0.0988324
0.00140489
-0.000228235
-0.00117665
-0.011585
0.0144909
-0.00290585
-0.125372
0.0599781
0.0653935
-0.0327774
0.132888
-0.100111
-0.175617
0.25412
-0.0035538
0.168997
0.12653
-0.0668238
-0.0638991
-0.131313
0.449816
0.0537485
-0.0790443
0.0252958
-0.200808
0.141286
0.0883976
-0.325264
-0.113908
0.10042
0.0134879
0.199728
-0.000512792
0.00697539
-0.0064626
-0.00787242
0.00591457
0.00195785
0.0049113
-0.0176252
0.0127139
-0.030865