/*--------------------------------*- C++ -*----------------------------------*\
| =========                 |                                                 |
| \\      /  F ield         | OpenFOAM: The Open Source CFD Toolbox           |
|  \\    /   O peration     | Version:  v2012                                 |
|   \\  /    A nd           | Website:  www.openfoam.com                      |
|    \\/     M anipulation  |                                                 |
\*---------------------------------------------------------------------------*/
FoamFile
{
    version     2.0;
    format      ascii;
    class       volVectorField;
    location    "200";
    object      U;
}
// * * * * * * * * * * * * * * * * * * * * * * * * * * * * * * * * * * * * * //

dimensions      [0 1 -1 0 0 0 0];


internalField   nonuniform List<vector> 
18166
(
(0.847524 -0.00555447 -2.49318e-20)
(1.00565 -0.00153895 2.44607e-22)
(0.999974 -0.000719937 1.01823e-20)
(1.15332 0.0128332 -2.35296e-20)
(0.0905875 -0.403998 -1.05191e-19)
(0.847154 -0.127944 -3.81547e-20)
(1.01368 -0.0110386 2.14788e-21)
(-0.11725 -0.00733184 -3.36038e-21)
(0.077134 0.0331539 5.25532e-20)
(0.161966 -0.172445 -4.38619e-20)
(0.999505 -0.0102708 0)
(0.996457 -0.01688 0)
(-0.0885973 -0.0189912 -1.57681e-19)
(1.23308 -0.0157548 0)
(0.792364 0.0774836 -2.13671e-20)
(1.23391 -0.012907 3.39554e-22)
(1.00075 -0.005637 1.24795e-21)
(0.330535 -0.875265 2.52623e-21)
(0.9926 -0.0184817 2.36688e-21)
(0.0136627 0.00897148 5.90581e-20)
(1.21703 -0.0717731 9.29083e-20)
(1.00065 -0.00568614 -4.4071e-21)
(1.21276 -0.068255 -7.83253e-20)
(0.996374 -0.00300107 1.96667e-21)
(1.0079 -0.0116603 8.1367e-24)
(1.01324 -0.0106744 -3.43025e-21)
(0.86817 -0.0348226 -2.93678e-20)
(1.08795 -0.0415434 2.18811e-20)
(0.989173 -0.0286174 7.32627e-21)
(1.15608 0.0139133 -2.48797e-20)
(0.00473679 -0.0896149 0)
(1.01777 -0.000896046 2.52019e-21)
(1.00155 -0.0306565 2.71739e-21)
(0.997675 -0.0200591 0)
(1.02124 -0.000927554 0)
(1.00197 -0.00870825 1.38753e-22)
(0.100369 0.0345711 0)
(1.00181 -0.00846488 -1.17497e-22)
(1.02773 -0.0100573 0)
(0.177954 -0.203579 8.571e-20)
(1.00006 -0.000690092 -2.04925e-21)
(1.17436 -0.149834 2.48127e-20)
(1.00112 -0.0315938 6.84501e-22)
(0.982945 -0.0194763 0)
(0.846334 -0.0429079 -1.02987e-20)
(0.998402 -0.00262852 -9.47545e-21)
(1.10152 0.0482169 -2.37615e-20)
(0.00163879 -0.0706522 0)
(1.1198 0.063976 1.2755e-20)
(0.878053 -0.0286449 2.69142e-20)
(1.09322 0.0234958 1.56598e-20)
(1.10891 0.00547979 -2.27826e-20)
(1.21377 -0.0433775 -2.60207e-20)
(1.00016 -0.000656768 8.52907e-22)
(0.999645 -0.0100517 0)
(0.13598 0.0119407 4.22213e-21)
(1.17734 -0.155705 -7.51049e-20)
(-0.306508 -0.0112221 -8.99932e-20)
(0.991894 -0.0649195 -1.13327e-20)
(1.0742 -0.0364183 7.94384e-21)
(1.15453 -0.103028 0)
(1.07312 -0.00276431 -7.13585e-21)
(0.0969089 0.0115259 -5.57564e-20)
(1.08227 -0.0861813 0)
(1.22963 -0.00174391 -9.06416e-23)
(0.997081 -0.00470908 0)
(0.0894578 0.0237312 -9.71273e-21)
(0.485675 0.0599874 0)
(0.648338 -0.12865 -1.05283e-21)
(1.09085 -0.0138597 0)
(1.02102 -0.000933752 0)
(1.02539 -0.0459772 0)
(0.85255 -0.0476911 0)
(1.03308 -0.0733947 1.48034e-22)
(0.0339677 -0.321109 -6.55593e-20)
(0.368475 0.350264 6.71444e-20)
(1.21868 -0.0584897 1.17607e-20)
(0.491442 -0.0953145 0)
(1.06559 -0.0552597 0)
(1.00134 -0.00747145 -1.01762e-21)
(0.999996 -0.00137758 1.84844e-21)
(0.246918 0.0513109 1.94601e-20)
(0.996646 -0.00288376 -1.47076e-20)
(0.995246 -0.00520007 7.94381e-21)
(1.01741 -0.00184566 0)
(1.05235 0.00238613 0)
(1.07654 -0.0322005 3.6067e-21)
(1.00575 -0.00635393 2.12912e-25)
(1.10695 0.00831011 -1.08648e-20)
(1.02724 -0.00969612 2.88329e-21)
(-0.0988864 0.00345626 1.02152e-19)
(0.879654 -0.150861 -1.7338e-20)
(-0.259692 -0.0123095 0)
(1.00003 -0.000664225 0)
(1.0001 -0.000774821 2.15352e-21)
(1.05291 0.00312854 0)
(1.01772 -0.00149677 2.63447e-21)
(1.01482 -0.247996 -1.42357e-21)
(0.930847 -0.0161005 -1.22951e-20)
(1.08685 -0.0327248 1.64401e-20)
(1.00537 -0.000584614 3.04408e-22)
(0.999109 -0.0048052 -2.47256e-21)
(0.844359 0.0763141 -3.49556e-20)
(1.07966 -0.0877151 0)
(1.09033 -0.0126034 0)
(0.999181 -0.00446314 -4.75971e-21)
(0.0966539 -0.230037 2.98237e-20)
(0.094327 -0.006886 -1.12239e-19)
(0.986721 -0.0761727 9.56283e-21)
(0.999912 -0.00847215 1.93935e-21)
(-0.26854 -0.0105095 -1.73072e-19)
(0.147475 0.040737 0)
(0.265448 0.0346908 0)
(0.842925 0.0828864 3.75098e-20)
(1.00048 -0.00474903 2.3526e-21)
(1.03234 -0.00349385 -6.23172e-21)
(1.03279 -0.250408 0)
(0.0233226 0.0359131 -3.36214e-20)
(0.977919 -0.0315802 3.00569e-21)
(0.628993 0.0785557 0)
(0.682252 0.812812 -3.98225e-21)
(0.988322 -0.0282215 -4.65874e-21)
(1.3078 -0.167449 7.47047e-20)
(0.695117 0.038827 0)
(1.16245 0.022659 -1.6588e-20)
(0.994976 -0.0154152 -4.27327e-21)
(0.998781 -0.00259192 -3.13094e-21)
(-0.158848 -0.0126403 9.60556e-20)
(0.953429 -0.106091 6.15409e-21)
(0.953512 -0.179081 1.53987e-20)
(1.16073 0.0316116 1.99413e-20)
(0.897799 -0.387725 2.5756e-20)
(1.06998 -0.011208 3.66784e-22)
(0.271948 0.0486108 -1.3789e-20)
(0.944446 -0.0909573 1.78428e-20)
(1.09951 0.0480888 1.9466e-20)
(1.00165 -0.00849312 0)
(1.00832 -0.00939593 0)
(1.07095 -0.0105994 0)
(-0.0274829 -0.00542098 -2.64597e-20)
(0.0213926 0.0262471 0)
(1.23458 -0.00276637 -2.53017e-20)
(1.13397 0.0768877 0)
(0.223293 0.0487546 0)
(0.989251 -0.0758862 -1.1879e-20)
(1.06478 0.00121722 9.92254e-20)
(0.00484029 0.00398654 0)
(0.942422 0.074135 0)
(1.03919 -0.00923873 3.34481e-21)
(1.07751 -0.0143906 -1.54344e-20)
(1.01761 -0.00130739 4.41064e-21)
(0.293439 0.0315225 -1.79023e-20)
(0.495636 -0.604065 9.53503e-21)
(1.16428 0.0210743 0)
(0.999876 -0.000998608 -2.13198e-21)
(1.00003 -0.00825246 1.97638e-22)
(1.00919 -0.0529478 0)
(0.0848361 0.00872725 4.14292e-20)
(1.00149 -0.00817985 -1.158e-21)
(-0.148355 -0.0137962 8.75356e-20)
(1.01504 -0.00144043 0)
(0.415361 0.0541881 0)
(1.07169 -0.0400055 1.02568e-20)
(1.0099 -0.00128592 -1.62167e-21)
(1.10882 0.00753215 2.46769e-20)
(0.346277 -0.00560471 -3.11776e-20)
(0.99886 -0.00306002 -7.83499e-21)
(0.193577 0.0461289 1.54656e-20)
(0.266609 0.0524366 1.69609e-20)
(-0.252765 -0.0175916 1.87915e-19)
(1.19481 0.0181225 0)
(0.884967 0.0828814 -1.13546e-20)
(0.956167 -0.173877 -1.12068e-20)
(0.468939 0.0598614 0)
(1.22883 0.0187576 0)
(0.995475 -0.0206207 0)
(0.62533 0.385795 9.97456e-20)
(0.560522 0.0685123 3.98305e-20)
(1.00611 -0.00122117 0)
(1.00551 -0.00599651 0)
(1.00042 -0.00478505 -2.84377e-21)
(0.969693 -0.168842 9.43881e-21)
(0.546527 -0.0783788 -1.13333e-19)
(0.610773 0.361766 -3.00823e-20)
(1.12462 0.0581258 4.13264e-20)
(1.00806 -0.00506167 -7.22859e-22)
(1.05251 -0.206055 9.55787e-21)
(1.14857 0.0143561 2.4115e-20)
(1.00264 -0.00601172 0)
(1.03175 -0.00324555 3.44519e-21)
(1.15973 -0.100796 1.30254e-20)
(0.992195 -0.0190973 -2.77746e-21)
(1.09971 0.0132644 0)
(0.995522 -0.0049865 0)
(1.03714 -0.142402 0)
(-0.00422155 -0.072495 0)
(0.854998 -0.122236 6.43604e-20)
(1.03208 -0.14265 -2.50632e-21)
(0.0225425 0.0345522 -1.26658e-20)
(0.120919 -0.0053794 -2.01559e-19)
(1.19443 0.0157631 1.40756e-20)
(0.270644 0.0289391 0)
(1.03687 -0.00486994 -5.46536e-21)
(0.961895 0.0738921 -1.04112e-20)
(0.999051 -0.0380402 2.78586e-21)
(1.11082 0.0047443 2.4082e-20)
(0.290127 0.0540894 3.35691e-20)
(0.124072 0.0102518 -5.24732e-21)
(0.143777 -0.509115 1.29195e-19)
(-0.15869 -0.00530728 3.66723e-21)
(0.0967369 -0.372666 -6.50551e-20)
(0.0422047 0.0282736 3.20434e-20)
(1.00594 -0.00156177 0)
(0.997686 -0.00367693 -2.86517e-21)
(1.09862 0.0199834 8.21623e-23)
(0.883571 -0.143236 0)
(1.228 0.0107619 5.96032e-20)
(1.02637 -0.244663 -2.83191e-21)
(0.304791 0.0558992 -1.49153e-20)
(0.212565 0.0471643 -3.34895e-20)
(1.06913 -0.0315695 1.72583e-20)
(1.00268 -0.0167165 -2.42458e-21)
(1.00785 -0.00484332 6.30146e-22)
(0.777358 -0.0296234 -3.05778e-21)
(-0.241641 -0.00347994 0)
(1.01694 -0.0136116 1.56649e-21)
(1.00953 -0.24104 4.34672e-21)
(1.00811 -0.00144891 -3.36558e-22)
(0.982389 -0.0638661 0)
(1.03632 -0.00497035 1.1095e-20)
(-0.0194126 0.006501 -4.28685e-21)
(0.261063 0.0359372 1.88275e-20)
(1.05765 -0.00264227 4.10769e-21)
(-0.038351 -0.0127772 1.97948e-20)
(1.00343 -0.000576071 2.72815e-22)
(1.05206 0.000855635 -1.1808e-20)
(1.09813 0.0185571 0)
(1.14339 -0.105117 -1.88807e-20)
(0.202449 0.0271275 -1.71103e-20)
(1.1384 -0.0070484 -1.77415e-20)
(1.09964 0.0147293 0)
(0.190182 0.0443949 0)
(0.0388428 0.0103209 0)
(1.07249 -0.0356898 -1.77352e-20)
(0.934544 0.0785803 3.28999e-20)
(0.97275 -0.00550244 -1.5974e-20)
(1.15116 0.0150231 4.63346e-22)
(0.178207 0.0421386 0)
(0.314626 0.048321 2.81669e-20)
(1.03817 -0.0506032 0)
(0.8404 -0.00384207 -1.81858e-20)
(0.998686 -0.00253995 8.71607e-21)
(0.999992 -0.0375708 -1.96647e-21)
(0.952716 -0.102467 1.1089e-20)
(0.279773 0.0289432 9.64996e-21)
(-0.214874 -0.00348956 1.28018e-19)
(1.00006 -0.00680476 0)
(0.236743 0.0462449 3.17506e-20)
(-0.224499 -0.020464 -2.41231e-19)
(1.00958 -0.00142736 1.94388e-21)
(0.997377 -0.0041768 0)
(-0.0346535 -0.0182212 -2.28645e-20)
(1.15333 -0.118029 6.73743e-20)
(1.11825 0.0642066 1.68788e-20)
(-0.108503 -0.0584385 0)
(0.335081 0.043865 0)
(0.222533 0.0269521 -1.67301e-19)
(1.03131 -0.0743969 -1.04244e-21)
(1.00001 -0.00111844 0)
(1.08903 -0.0324332 -1.95351e-20)
(0.87082 -0.028584 3.2256e-20)
(0.997738 -0.00343051 -1.86216e-23)
(1.0068 -0.00770262 4.44451e-23)
(0.595895 0.0701103 -1.55544e-20)
(1.10687 0.0103484 -7.98039e-21)
(0.211037 0.0147489 0)
(0.594256 0.0722733 0)
(1.00845 -0.00139516 3.66863e-22)
(0.399058 0.326009 0)
(1.01785 -0.00110731 8.56282e-23)
(1.11039 0.039861 -9.00166e-21)
(0.107784 0.0271307 0)
(1.02907 -0.072651 0)
(1.04332 0.00111374 1.93921e-21)
(1.0673 -0.0322352 -1.15822e-20)
(1.16267 -0.168416 0)
(1.07342 -0.00156955 0)
(1.04695 -0.0268218 0)
(0.125908 0.0377063 0)
(1.00035 -0.00441161 2.48062e-21)
(1.08743 -0.043828 2.11413e-20)
(1.09876 0.0461659 2.40045e-20)
(1.04071 -0.0737357 4.99846e-21)
(1.00017 -0.00689215 0)
(1.02696 -0.0736881 0)
(-0.00741021 -0.0667924 0)
(1.01458 -0.011202 -5.79515e-22)
(0.998038 -0.00319793 8.58438e-21)
(1.01658 -0.0133968 -1.54726e-21)
(0.98734 0.0778854 2.54202e-20)
(0.651691 0.0765643 -4.25636e-20)
(1.00122 -0.00752325 2.2892e-21)
(1.01533 -0.0448019 0)
(1.00699 -0.0075925 0)
(1.01933 0.0452066 0)
(1.00342 -0.0331089 0)
(0.130301 0.011956 -4.86056e-21)
(1.1533 0.0361521 -1.64945e-20)
(0.982438 -0.0204871 0)
(1.03203 -0.00208852 5.12091e-21)
(1.06874 -0.0134623 -1.39788e-20)
(0.341427 -0.138122 -8.44922e-20)
(0.0282137 0.0120091 -1.82329e-20)
(0.913225 -0.0526528 -2.79997e-20)
(1.00033 -0.00443452 0)
(0.0657561 0.361963 5.41597e-22)
(0.669378 0.0244123 2.15243e-22)
(1.043 -0.0737663 2.28586e-21)
(0.997402 -0.0039094 -3.53923e-21)
(1.15917 0.0600275 -3.10017e-21)
(1.00407 -0.0173501 2.5e-21)
(0.934178 -0.0166034 5.17264e-20)
(0.289171 0.0326584 0)
(1.14898 -0.11832 -5.48402e-20)
(0.944782 -0.155771 0)
(0.879827 -0.0232714 -6.87356e-20)
(1.04777 -0.0263082 7.00548e-21)
(1.00293 -0.0323295 0)
(1.02529 -0.00606382 2.45956e-21)
(0.368455 0.0442178 -1.12648e-21)
(1.00851 -0.00964453 -2.22497e-22)
(0.241108 0.0471606 8.95633e-22)
(1.04378 0.00151058 0)
(1.03679 -0.00389202 0)
(0.502621 1.04221 8.77896e-20)
(0.127423 0.0330657 0)
(1.18575 0.0292266 -5.33112e-20)
(0.257288 0.0484242 2.56276e-20)
(-0.0913115 0.00562411 -7.64136e-20)
(0.403867 0.0494992 0)
(1.03999 -0.00904428 -3.66552e-21)
(0.14543 0.0217613 0)
(1.15929 0.0589789 0)
(-0.0639818 0.0172224 -2.17754e-20)
(1.05097 0.000866986 1.119e-20)
(0.999758 -0.00934038 4.60136e-21)
(1.01437 -0.0124271 -1.97766e-21)
(0.908681 -0.0494124 1.59195e-20)
(1.02483 -0.0472119 -3.22212e-21)
(1.13803 -0.106122 9.37601e-21)
(0.991083 -0.0675044 1.00138e-20)
(1.09686 0.0460908 -1.12886e-20)
(0.998101 -0.00303774 -6.37348e-21)
(1.00732 -0.0045597 -7.04429e-22)
(0.698304 0.0554978 1.93664e-20)
(1.07599 -0.0303557 6.95566e-21)
(0.683079 0.0280572 0)
(1.10147 0.0105117 -1.80021e-20)
(0.999602 -0.00949262 0)
(1.02478 -0.00607663 -4.8657e-21)
(1.00521 -0.00596915 0)
(0.318308 0.0406841 -6.36715e-21)
(-0.0192876 0.047433 -8.70894e-21)
(1.00021 -0.00653067 1.53405e-21)
(1.01279 -0.00976373 0)
(0.993682 -0.00672072 4.78997e-21)
(0.999931 -0.000464057 0)
(1.0828 -0.302359 -2.08602e-20)
(1.00005 -0.000559466 0)
(0.426465 -0.00812379 0)
(0.379322 -0.808213 6.82859e-21)
(1.00638 -0.00611246 0)
(1.00366 -0.0174194 -1.68417e-21)
(1.19174 0.0556388 3.53609e-20)
(0.152096 0.0402632 0)
(0.653817 0.909037 1.76149e-20)
(-0.0602232 0.018252 4.29096e-20)
(1.00003 -0.00173816 3.69358e-21)
(1.10149 0.0123331 1.90407e-20)
(1.1849 0.0319773 8.83033e-20)
(1.03706 -0.00427272 7.26048e-22)
(-0.0332691 -0.007632 4.4494e-20)
(1.13609 0.0760513 1.96225e-20)
(1.07741 -0.0133984 1.09521e-20)
(1.03977 -0.0664906 5.25541e-21)
(0.988193 -0.0126478 4.2404e-21)
(0.997105 -0.00440533 0)
(1.00002 -0.00014751 6.77447e-22)
(0.212504 0.0286053 0)
(0.988813 -0.0124532 -3.21247e-21)
(1.02076 -0.00112752 0)
(1.07802 -0.017898 4.1902e-21)
(1.02381 -0.00987601 -1.29857e-21)
(0.30982 0.0340233 0)
(1.15149 0.0580161 5.91445e-20)
(0.999964 -0.00191688 -3.02149e-21)
(0.998213 -0.00271177 6.32289e-21)
(-0.279551 -0.0133229 -4.39374e-20)
(1.01195 -0.0114019 0)
(1.01118 -0.0109106 0)
(1.0211 -0.0419875 1.20231e-21)
(1.22015 0.000429715 7.10764e-20)
(0.148551 0.0324587 -1.42017e-20)
(1.00005 -0.000793056 0)
(1.07937 0.0616663 0)
(1.0519 -0.000944025 -6.02539e-21)
(1.03634 -0.00575993 -1.48856e-20)
(0.202418 0.0130648 3.2516e-20)
(0.216251 0.0162138 0)
(0.982689 -0.0446633 3.40462e-21)
(1.08365 0.0380242 5.34397e-20)
(-0.162449 0.00514066 -1.84356e-19)
(0.938054 -0.177249 0)
(1.08172 0.0693101 4.6278e-20)
(1.06916 -0.0178775 6.91294e-21)
(1.08519 -0.0345818 2.7398e-21)
(1.15804 -0.172283 0)
(1.01101 -0.442264 -4.29172e-21)
(1.02006 -0.000264498 2.96605e-21)
(0.999034 -0.00697372 -6.67854e-21)
(1.04677 -0.0289893 1.56471e-22)
(0.995201 -0.0148562 0)
(0.322084 -0.0298307 0)
(1.00907 -0.0781212 1.60804e-21)
(0.44228 -0.44179 3.08382e-20)
(0.99997 -0.000803621 -3.34797e-21)
(1.2933 -0.168095 0)
(0.997659 -0.0206092 0)
(-0.020657 0.0418011 8.40022e-21)
(-0.0756917 -0.00371872 -2.74307e-21)
(0.91435 -0.00504661 1.6423e-20)
(0.379897 0.0458416 7.12919e-20)
(0.945169 -0.164602 0)
(1.04758 -0.028282 0)
(1.09212 0.0219437 -2.08098e-20)
(0.302149 0.0326611 0)
(0.991534 0.0737957 -5.2111e-20)
(1.00038 -0.000165442 -6.31966e-22)
(0.358239 -0.00714272 4.22731e-20)
(1.09752 0.000513456 0)
(1.02263 -0.00829151 0)
(0.732755 0.0357187 0)
(0.132794 0.0312445 -3.57472e-20)
(1.00237 -0.0169481 -3.38785e-21)
(0.412341 0.0533365 0)
(0.186213 0.023254 3.54073e-20)
(0.999957 -0.00773156 -2.02295e-22)
(-0.158872 -0.0094027 -3.28008e-21)
(1.08507 -0.314134 -1.09792e-20)
(1.03572 -0.00589363 1.27261e-20)
(0.78786 -0.0291163 2.43864e-21)
(0.633548 0.0729635 -1.64662e-20)
(1.23793 0.0190254 -1.27917e-20)
(1.09491 0.0235864 -1.03884e-20)
(0.285277 0.0467328 3.75595e-20)
(0.0863132 0.337208 1.64789e-20)
(1.15438 0.0600588 3.09912e-20)
(1.16071 -0.0191616 2.62281e-20)
(1.02337 -0.00965986 3.51935e-21)
(-0.204153 -0.0121429 -7.65134e-20)
(0.993298 -0.018415 -4.53062e-21)
(0.997741 -0.0361539 0)
(0.353473 0.0479712 -9.30429e-20)
(1.10069 0.0679449 -1.78128e-20)
(1.00205 -0.0609929 4.99661e-21)
(0.982521 -0.0429792 -3.13155e-21)
(1.09595 0.00116535 1.7817e-21)
(1.06778 -0.0170538 -6.6452e-21)
(0.973527 -0.00630249 1.23748e-20)
(1.01485 -0.0126956 2.01048e-21)
(1.01712 -0.00169999 0)
(1.04239 -0.222433 7.92045e-21)
(-0.0153884 0.0189344 0)
(1.00499 -0.00561551 -9.52596e-23)
(1.10851 0.0400397 1.36219e-20)
(0.999955 -0.000367403 -2.02067e-21)
(0.0992574 0.0169023 -2.28613e-20)
(0.999117 -0.00672306 2.10288e-21)
(1.00327 -0.000388936 -3.35449e-22)
(1.14006 0.0739341 -1.43514e-20)
(0.823186 0.0706337 -2.81948e-20)
(0.99246 -0.235448 0)
(0.316199 0.043548 0)
(1.00371 -0.00993877 0)
(1.00325 -0.00975662 8.05313e-22)
(0.209279 0.0486588 -3.6674e-20)
(0.886343 -0.163048 -1.04628e-19)
(1.14646 -0.109009 2.06696e-20)
(1.04856 -0.00423365 -1.09254e-20)
(0.617039 -0.354778 0)
(0.530675 -0.0658607 1.02626e-19)
(1.00015 -0.00329898 1.24692e-21)
(0.998853 -0.00287664 2.88087e-24)
(1.00001 -0.0020027 -5.38798e-21)
(1.03543 -0.0529404 1.13086e-21)
(0.381987 0.0463894 -1.64215e-20)
(0.216943 0.0481807 -1.06193e-20)
(0.996068 -0.0347003 2.49867e-21)
(1.00707 -0.056233 0)
(0.643771 0.122007 -9.37438e-22)
(-0.16772 -0.00553263 0)
(-0.167262 -0.00423518 -4.87451e-20)
(1.02098 -0.00112807 2.22171e-21)
(0.970134 -0.048181 -3.16668e-21)
(0.623383 0.855442 -4.173e-20)
(0.998106 -0.0371647 -2.82834e-21)
(0.998713 -0.00219144 0)
(1.00089 -0.00753457 0)
(1.01802 -0.0081135 -2.82952e-21)
(1.15192 -0.0502646 0)
(0.481244 -0.276712 9.20155e-20)
(0.718029 -0.767745 0)
(1.02873 -0.455461 2.04805e-20)
(1.00148 -0.00779819 3.26044e-21)
(1.1972 0.00534358 2.26327e-20)
(1.00788 -0.0120086 6.55532e-23)
(1.00002 -0.000324828 -1.17565e-22)
(0.245944 0.017261 6.54163e-20)
(0.965256 -0.763408 1.64839e-20)
(1.04491 -0.203121 5.84995e-21)
(0.590846 0.0705534 2.09524e-21)
(0.27262 0.0368678 -7.12504e-21)
(0.877493 0.0717788 4.75026e-20)
(0.192336 0.0475325 2.72838e-21)
(1.22354 -0.0599339 -3.12633e-20)
(0.249735 0.0465501 -8.77957e-20)
(0.0487152 0.00903728 -2.74554e-20)
(1.10238 0.0497125 1.48255e-20)
(-0.0136556 0.00834239 3.1802e-20)
(0.995987 -0.017238 1.7731e-21)
(0.684412 0.0505395 0)
(1.03932 -0.0495418 4.6918e-21)
(1.05439 0.00070123 -1.73558e-20)
(0.658814 0.110418 8.39399e-22)
(1.12412 0.0779006 0)
(0.990636 -0.063129 7.61942e-21)
(1.29868 -0.0972328 0)
(1.02344 0.0710516 1.0861e-20)
(1.10958 -0.000852248 -2.16365e-20)
(0.999881 -0.000883842 1.09313e-20)
(0.982123 -0.0111244 -8.2881e-23)
(0.938088 -0.740014 -7.77352e-21)
(0.170506 0.0358691 0)
(0.3367 0.0472614 -3.83391e-20)
(1.02205 -0.00234891 2.11069e-21)
(1.29196 -0.0945749 0)
(-0.0745028 -0.0200119 1.85929e-23)
(0.96378 -0.0135948 0)
(1.0524 -0.00170783 1.27461e-20)
(0.993366 -0.00658894 -2.66603e-21)
(0.926599 -0.0277504 -1.74154e-20)
(0.76821 -0.3149 -5.57247e-20)
(-0.245289 -0.0101347 1.64452e-19)
(1.00016 -0.000621394 -8.25015e-22)
(0.325815 0.0569071 0)
(0.999027 -0.00587151 0)
(0.323953 0.0469982 -3.24409e-20)
(1.06732 -0.0562895 -7.13388e-21)
(1.01617 -0.0418711 -2.83833e-22)
(1.06964 -0.0710001 -1.05556e-20)
(-0.209544 -0.0059653 -1.1891e-19)
(1.03251 -0.00183128 -2.66937e-21)
(1.00247 -0.00525188 0)
(0.0246088 0.0211423 6.92933e-20)
(0.261631 0.0526462 9.57225e-21)
(1.1741 -0.167539 -5.24528e-20)
(0.887797 0.0758493 3.92734e-20)
(1.04802 -0.0048194 1.1605e-20)
(1.00108 -0.00714985 0)
(0.999268 -0.00148366 -1.29179e-21)
(-0.0174311 -0.0141672 -5.31527e-21)
(0.734243 -0.262258 1.04785e-20)
(-0.0195643 -0.0194105 0)
(1.08964 -0.0611555 -1.77082e-20)
(0.674511 -0.811575 0)
(0.297761 0.0507004 -1.55333e-20)
(1.0991 0.0175533 -2.56894e-20)
(-0.232202 -0.00486926 -5.48722e-22)
(0.96946 -0.0467415 3.13028e-21)
(-0.229052 -0.00215212 1.49563e-20)
(1.01794 -0.0070817 0)
(0.5315 -0.0330372 0)
(0.306793 0.0451912 2.27665e-20)
(0.705732 -0.211447 1.10148e-19)
(1.07007 -0.0129777 1.44167e-20)
(0.391865 0.0481542 0)
(-0.256708 -0.0040421 1.54556e-19)
(1.00234 -0.00613225 0)
(0.6374 -0.159416 -8.241e-20)
(0.992311 -0.0198677 3.63394e-22)
(1.00011 -0.00057494 -9.99145e-22)
(-0.138592 -0.00696437 -2.78586e-20)
(0.164771 0.0419717 0)
(0.999964 -0.0020384 6.27606e-21)
(1.00005 -0.00752406 0)
(1.01513 -0.00119878 -2.02966e-21)
(0.112227 -0.477381 -5.115e-20)
(0.196444 0.0331376 5.62156e-20)
(1.00261 -0.00556415 0)
(1.19323 0.0301061 -3.25476e-20)
(1.04059 -0.0685899 -7.27209e-21)
(1.04318 -0.000102516 0)
(1.00355 -0.00945595 -6.34989e-22)
(1.17312 -0.0866367 3.09436e-20)
(1.19729 0.00807731 -1.65133e-20)
(1.07368 -0.039764 -1.71818e-20)
(0.717224 -0.133519 -4.13157e-20)
(1.00029 -0.00661608 -3.03909e-21)
(1.00752 -0.00480102 6.73231e-22)
(0.615035 0.07283 0)
(-0.112735 -0.0109984 0)
(1.16221 0.0577873 -5.88716e-21)
(0.0387086 0.00727399 -7.17397e-21)
(0.166907 -0.106087 -5.08925e-20)
(0.970848 -0.0113173 -2.0512e-20)
(-0.0649325 -0.0197961 5.1974e-20)
(0.716824 -0.120378 -3.97495e-20)
(0.944502 -0.0483186 2.12801e-20)
(0.203827 -0.701609 -2.60829e-20)
(1.06843 -0.244762 0)
(1.06326 -0.0558574 0)
(1.0866 -0.148804 -1.05974e-20)
(0.304631 0.0327168 0)
(0.910399 -0.00415909 0)
(1.15855 -0.021769 -2.61092e-20)
(1.03074 -0.0536978 8.70188e-22)
(1.08617 -0.0794156 -8.13664e-22)
(-0.108934 -0.0164918 -5.41699e-20)
(1.00234 -0.00597612 -1.19821e-21)
(0.531748 0.0656893 3.3116e-20)
(1.15535 -0.0520661 -1.2979e-20)
(0.908873 -0.234733 -2.16111e-20)
(0.965601 -0.175333 -1.16729e-20)
(1.0234 -0.00912484 0)
(1.05036 -0.00379593 -2.85919e-21)
(0.229468 0.0151598 1.69908e-20)
(1.00225 -0.00510943 -1.0131e-21)
(0.999096 -0.00562566 -2.16528e-21)
(1.15957 0.00924032 -2.92617e-20)
(1.02123 -0.00841876 -2.00665e-21)
(1.15213 -0.107894 -2.27587e-20)
(1.04372 0.000295561 -2.18919e-21)
(1.15825 0.0320361 9.5056e-21)
(0.979373 -0.0311467 5.28151e-21)
(1.09254 -0.0573574 -2.98111e-20)
(1.02462 -0.00652054 0)
(0.444683 -0.413508 -1.47969e-19)
(0.0259356 0.00772018 0)
(0.083315 0.505133 -1.17369e-19)
(1.03218 -0.0530011 0)
(-0.0685304 0.00463804 0)
(0.197647 0.0469658 2.18694e-20)
(0.546669 -0.0219948 0)
(1.03648 -0.00214741 0)
(0.220567 0.0376951 -5.02696e-20)
(0.966222 -0.00497026 2.08448e-20)
(0.0496936 0.124833 -5.28983e-21)
(0.995788 -0.00518658 0)
(0.665829 -0.119498 -8.36109e-20)
(1.1709 0.0349974 0)
(-0.023607 0.0483855 1.61341e-20)
(-0.124375 -0.0112122 -4.93434e-20)
(1.26244 -0.00484044 -7.64405e-20)
(0.23481 0.0327308 1.52485e-20)
(1.02131 -0.000676487 -6.30611e-21)
(0.0856878 0.00761724 0)
(1.00563 -0.000682355 0)
(0.914327 -0.0686896 -8.58962e-21)
(0.947521 -0.0491938 0)
(0.989539 -0.0112963 6.70007e-21)
(1.00225 -0.000787819 0)
(0.117806 0.0178905 -1.09027e-20)
(1.10854 0.0364526 1.27126e-20)
(1.04645 -0.032238 6.88401e-21)
(0.374495 0.0601426 3.54366e-20)
(0.383117 -0.0833476 0)
(0.787058 -0.136404 -1.91487e-20)
(1.02137 -0.000784487 3.8211e-21)
(0.952053 -0.0819938 1.94145e-20)
(1.00005 -0.00110986 0)
(1.01228 -0.011828 7.2998e-22)
(1.01779 -0.00777496 0)
(0.994894 -0.0208704 2.98952e-21)
(0.476465 -0.30853 -8.2832e-20)
(1.06711 -0.0712094 7.7687e-21)
(0.789749 0.0640679 -6.39497e-20)
(-0.108221 0.0110035 3.37359e-20)
(0.0960363 0.0113531 -1.39201e-20)
(-0.134783 0.00692883 -7.90908e-20)
(0.771692 -0.442077 -2.96562e-21)
(0.910826 0.00402555 -9.67137e-21)
(0.998955 -0.0023728 3.7317e-21)
(1.12454 0.0398861 -2.94409e-20)
(1.00851 -0.00913976 -2.9787e-22)
(0.123838 0.0165624 -4.7387e-20)
(0.268647 0.0249563 1.42646e-20)
(1.02208 -0.00819394 0)
(1.09069 -0.0921811 -1.02793e-21)
(0.339125 0.0394411 0)
(0.36361 0.0550755 -1.89266e-20)
(0.596442 0.0710119 -2.02705e-20)
(1.09487 -0.0566712 8.31708e-21)
(0.914484 0.00442766 0)
(1.02051 -0.0182117 -2.46023e-21)
(0.285258 0.031765 1.89134e-20)
(0.0940143 0.00924804 0)
(1.00121 0.0669766 2.0275e-20)
(1.06156 -0.250435 1.05459e-20)
(1.24796 0.0150404 -7.79217e-20)
(-0.0656575 -0.0102952 0)
(1.05127 -0.24614 -1.31431e-20)
(0.14988 0.0183035 3.21776e-20)
(0.96173 -0.299241 1.19371e-21)
(0.795975 -0.446746 -1.53759e-20)
(1.00355 -0.0100888 7.91546e-22)
(-0.0112225 0.00776386 -3.91366e-20)
(1.11171 0.0408319 4.77951e-21)
(1.10746 0.0346919 -3.87611e-20)
(0.247532 0.0344822 0)
(1.01498 -0.0170564 -1.33082e-21)
(1.11679 0.0520255 0)
(0.720813 -0.216984 0)
(1.01553 -0.0171055 1.61193e-21)
(1.14197 0.0610454 1.70948e-20)
(0.963802 0.07509 3.9069e-20)
(0.197852 0.0257042 -3.03795e-21)
(0.290677 0.026908 8.60221e-20)
(0.865684 0.0083727 -2.15688e-20)
(1.08758 -0.0491314 0)
(1.00208 -0.00080384 0)
(0.630324 -0.335528 0)
(1.12527 -0.602902 2.65956e-20)
(0.945678 -0.0862176 -5.8849e-21)
(0.165728 0.0246513 -7.96493e-20)
(1.00318 -0.0226508 2.20173e-21)
(0.33228 0.0544259 2.88956e-20)
(0.188607 0.0430071 0)
(1.07492 -0.00997652 1.7618e-21)
(0.984417 -0.0764744 0)
(0.999965 -0.000904664 0)
(0.88398 -0.127766 1.57086e-20)
(1.00009 -0.00126228 -6.3537e-22)
(0.493073 -0.097587 8.5633e-20)
(1.1265 0.0433896 0)
(0.0700398 0.0198544 1.46151e-19)
(1.01411 -0.0108687 9.18686e-22)
(1.01566 -0.0164709 0)
(1.01997 -0.0183845 -2.37599e-21)
(0.766403 -0.225875 -4.6831e-20)
(0.0709708 0.0408682 9.16842e-20)
(0.853651 0.000641269 -1.9492e-20)
(0.457346 -0.111066 9.44684e-20)
(1.10473 0.039956 0)
(1.193 0.0250383 5.33685e-20)
(0.996081 -0.00494919 0)
(1.00086 -0.00044629 1.90193e-23)
(1.29221 -0.246347 -4.00459e-20)
(1.00153 -0.0628864 -2.23587e-21)
(1.14732 0.0727824 0)
(0.0505529 -0.414733 0)
(0.800822 -0.245291 9.29519e-22)
(1.2333 0.0099035 0)
(1.03876 -0.030719 -1.86993e-21)
(0.0897901 0.0181774 -5.62711e-21)
(0.546844 0.0669556 2.19851e-21)
(0.624792 0.333431 -4.55836e-21)
(1.0573 -0.00185933 -1.25867e-20)
(1.01199 -0.00149448 -2.45746e-23)
(1.04756 -0.0328403 -6.49594e-21)
(0.999391 -0.00440447 0)
(1.17823 0.041439 5.12709e-20)
(0.990691 -0.0778538 0)
(1.02335 -0.0115755 7.70586e-21)
(1.14135 0.0623581 0)
(0.954882 -0.0331055 1.39538e-20)
(-0.0204683 -0.0184008 -1.57532e-20)
(1.03802 -0.399056 -2.77624e-20)
(0.937575 -0.168946 -1.78695e-20)
(1.00612 -0.00609994 -6.80999e-23)
(0.316229 0.0354704 -1.30107e-21)
(1.03287 -0.00322408 1.00792e-20)
(1.07614 -0.0113219 -7.55914e-23)
(0.100368 -0.0092026 -8.90822e-21)
(0.648264 -0.122675 0)
(1.00311 -0.00990957 0)
(1.03793 -0.414742 -1.93145e-21)
(0.341168 0.0517384 -7.19843e-21)
(1.02882 -0.015548 -4.56946e-21)
(1.00078 -0.00716639 0)
(0.996941 -0.0170767 0)
(0.774765 -0.133311 -2.61533e-20)
(-0.0200345 0.0536779 -3.24344e-20)
(1.0025 -0.00566216 2.52833e-22)
(0.209425 0.0114189 -3.90214e-20)
(1.00005 -0.000749587 0)
(-0.19417 -0.0138403 0)
(0.434738 -0.0539424 -1.1836e-19)
(-0.0199247 -0.0124269 0)
(0.00102001 0.0398127 -1.40601e-20)
(0.998228 -0.243843 0)
(1.08954 -0.0481793 1.4388e-20)
(0.371678 -0.132211 -4.90868e-20)
(1.00508 -0.000719999 -4.4574e-22)
(1.01301 0.072421 3.77208e-20)
(1.02826 -0.0157375 0)
(1.00952 -0.00392395 -2.14078e-22)
(1.02259 -0.00297486 0)
(1.03819 -0.0188267 -1.30188e-20)
(0.31262 0.0418418 -3.61056e-21)
(1.02443 -0.0236013 -1.71995e-21)
(1.00212 -0.00480432 9.64118e-22)
(1.01442 -0.043672 3.249e-24)
(1.0237 -0.0113138 -2.91721e-21)
(0.99442 -0.598895 2.13077e-20)
(0.971736 -0.0517032 7.69981e-22)
(-0.23102 -0.00700199 6.71762e-20)
(1.00369 -0.00930738 6.25859e-22)
(0.999478 -0.00403992 4.06092e-21)
(1.00256 -0.00616996 0)
(0.532941 0.0655993 0)
(0.019107 0.00396753 6.86447e-20)
(0.195062 0.180224 7.99417e-20)
(0.463386 -0.426695 -7.89271e-20)
(1.00927 -0.00400122 -2.51162e-22)
(0.255822 0.034449 -2.7601e-20)
(0.154449 0.0402756 -1.05335e-20)
(1.035 -0.0516253 1.57979e-21)
(1.00034 -0.0139954 -3.91869e-21)
(0.178779 0.0137226 0)
(0.116352 0.020372 1.83297e-20)
(1.05983 -0.0579297 5.92016e-21)
(1.1404 0.0417399 1.45508e-20)
(0.69864 0.0766997 2.03393e-20)
(1.0503 -0.220271 0)
(1.03683 -0.00260071 -9.75721e-22)
(1.12087 0.0146401 2.25016e-21)
(1.08513 -0.0819559 1.97501e-21)
(1.11956 0.0162423 -1.86211e-21)
(0.374624 0.0551121 3.39094e-21)
(0.324134 -0.0386379 -4.28362e-20)
(1.02528 -0.00532656 -2.87864e-23)
(0.123949 0.0116413 8.88985e-23)
(1.01618 -0.0165059 -1.43413e-21)
(1.31056 -0.114577 0)
(1.10542 0.0349366 -2.56279e-21)
(1.13526 -0.101748 0)
(0.98894 -0.0115453 3.71357e-21)
(0.0129162 0.00602814 0)
(0.222294 0.0143352 2.39682e-20)
(1.06047 0.0698022 2.72717e-20)
(0.999152 -0.00146213 6.5228e-21)
(1.09599 0.0444956 2.17174e-20)
(1.02379 -0.0089633 0)
(0.0869005 0.00925411 2.98687e-20)
(1.00219 -0.00601906 -1.50708e-21)
(1.09128 0.018763 1.42072e-20)
(1.05073 -0.0226637 -7.98775e-21)
(1.00837 -0.0113451 -9.47212e-23)
(0.79541 -0.259693 -1.10478e-21)
(1.0078 -0.0756692 -4.5019e-21)
(0.997738 -0.00623898 8.12763e-21)
(0.258516 0.105146 1.3707e-19)
(1.00126 -0.00562043 1.23034e-21)
(0.262128 0.0421855 -1.16844e-20)
(1.08658 -0.0400437 -2.81844e-20)
(1.205 -0.427167 -6.19891e-20)
(0.99948 -0.0287714 7.6701e-21)
(1.14782 0.0570891 -6.23014e-20)
(0.954564 -0.303974 0)
(0.996485 -0.0358946 -2.66758e-21)
(-0.199155 -0.0114775 0)
(1.2872 -0.0837741 -5.28509e-20)
(0.656152 0.0735543 -4.99262e-21)
(0.999041 -0.00239357 0)
(0.928586 -0.017548 0)
(1.21797 -0.0533058 -1.33482e-20)
(0.644363 0.0740042 6.5436e-21)
(1.00022 -0.0144622 4.46036e-21)
(1.00749 -0.052652 8.09291e-22)
(1.06093 -0.00338915 9.54176e-21)
(0.509714 0.0634392 -4.51205e-20)
(1.02038 -0.00355638 -5.20132e-21)
(1.15575 -0.000220132 2.59752e-20)
(1.17937 0.0392561 3.19868e-20)
(0.972921 -0.053115 2.90684e-21)
(1.02081 -0.00166193 0)
(1.00076 -0.000468456 4.21425e-23)
(1.00653 -0.00682851 -9.08714e-24)
(1.11634 -0.132913 2.55905e-20)
(1.02179 -0.00857309 4.18832e-21)
(0.969908 -0.568679 -1.45141e-20)
(1.10381 -0.0314691 -4.47722e-23)
(1.02485 -0.0052207 -2.15788e-23)
(1.02306 -0.0706366 4.45757e-21)
(-0.0621754 0.00701206 0)
(1.00484 -0.0176237 0)
(1.06286 -0.0424515 -1.15051e-20)
(1.01147 -0.0113362 -4.72212e-22)
(1.00203 -0.00585874 1.39726e-21)
(1.15282 -0.0629383 -4.42737e-20)
(1.14369 0.0573496 2.67437e-20)
(0.0662191 -0.497284 6.30153e-20)
(1.13355 0.0726872 -2.36356e-20)
(1.05662 -0.0103637 -7.97228e-21)
(1.03995 -0.0310247 5.6221e-21)
(-0.230165 -0.00595346 1.33561e-19)
(0.136387 -0.102676 6.57131e-20)
(0.838314 0.0583844 9.00268e-20)
(-0.0536187 0.00425165 0)
(0.711908 -0.26355 -1.09727e-19)
(1.16208 0.0589595 -3.26884e-21)
(1.00354 -0.00885509 0)
(1.08674 -0.0907117 -1.43188e-20)
(-0.263332 -0.00779072 0)
(0.0196139 0.00825654 0)
(0.15049 0.0336609 -2.00784e-20)
(1.00114 -0.00537437 -1.70014e-21)
(0.965297 -0.303484 3.1803e-21)
(1.05377 -0.212352 0)
(-0.151981 -0.0217847 1.14783e-19)
(-0.0851278 0.0127263 3.37098e-20)
(0.998081 -0.0105996 -2.85561e-21)
(0.677966 0.117695 0)
(0.92402 -0.0252905 -1.70783e-20)
(0.0926664 0.207072 4.62209e-22)
(-0.0530504 0.00997656 0)
(0.126513 0.545361 1.52244e-19)
(1.01322 -0.0101343 8.26185e-22)
(1.26231 -0.0132478 1.62871e-20)
(1.00002 -0.000179854 4.59432e-24)
(1.03675 -0.00123613 0)
(0.205304 0.0252514 7.63085e-20)
(0.999999 -1.58416e-05 0)
(1.05152 -0.00395732 -1.3666e-20)
(-0.112208 -0.0635598 9.60573e-20)
(-0.0444068 0.0176638 -1.56792e-20)
(1.00681 -0.00700869 0)
(0.101376 0.0146314 1.36474e-20)
(0.673643 -0.215199 3.64934e-20)