/*--------------------------------*- C++ -*----------------------------------*\
| =========                 |                                                 |
| \\      /  F ield         | OpenFOAM: The Open Source CFD Toolbox           |
|  \\    /   O peration     | Version:  v2012                                 |
|   \\  /    A nd           | Website:  www.openfoam.com                      |
|    \\/     M anipulation  |                                                 |
\*---------------------------------------------------------------------------*/
FoamFile
{
    version     2.0;
    format      ascii;
    class       volVectorField;
    location    "200";
    object      U_0;
}
// * * * * * * * * * * * * * * * * * * * * * * * * * * * * * * * * * * * * * //

dimensions      [0 1 -1 0 0 0 0];


internalField   nonuniform List<vector> 
18166
(
(0.847524 -0.00555457 -2.49328e-20)
(1.00565 -0.00153894 2.44347e-22)
(0.999974 -0.00071995 1.01824e-20)
(1.15331 0.0128403 -2.35294e-20)
(0.0905943 -0.403975 -1.05188e-19)
(0.847154 -0.127944 -3.81572e-20)
(1.01368 -0.0110386 2.1473e-21)
(-0.11718 -0.00732906 -3.36058e-21)
(0.0771256 0.0331829 5.2553e-20)
(0.161965 -0.172428 -4.38588e-20)
(0.999505 -0.0102709 0)
(0.996457 -0.01688 0)
(-0.0885915 -0.0189915 -1.5768e-19)
(1.23313 -0.0157931 0)
(0.792288 0.0774511 -2.13698e-20)
(1.23395 -0.0129475 3.39476e-22)
(1.00075 -0.00563702 1.24807e-21)
(0.330526 -0.875261 2.52603e-21)
(0.9926 -0.0184817 2.36699e-21)
(0.0136815 0.00896711 5.9055e-20)
(1.21705 -0.0717659 9.29044e-20)
(1.00065 -0.00568616 -4.4075e-21)
(1.21277 -0.0682493 -7.83221e-20)
(0.996374 -0.00300115 1.96665e-21)
(1.0079 -0.0116603 8.49914e-24)
(1.01324 -0.0106743 -3.42934e-21)
(0.868169 -0.0348228 -2.9369e-20)
(1.08795 -0.0415432 2.18801e-20)
(0.989173 -0.0286174 7.32668e-21)
(1.15608 0.0139219 -2.48795e-20)
(0.00473588 -0.0896184 0)
(1.01777 -0.000896043 2.51985e-21)
(1.00155 -0.0306565 2.71775e-21)
(0.997675 -0.0200591 0)
(1.02124 -0.000927549 0)
(1.00197 -0.00870827 1.38771e-22)
(0.100355 0.0346024 0)
(1.00181 -0.0084649 -1.17512e-22)
(1.02773 -0.0100573 0)
(0.177954 -0.203563 8.57037e-20)
(1.00006 -0.000690102 -2.04964e-21)
(1.17435 -0.149809 2.48147e-20)
(1.00112 -0.0315939 6.84593e-22)
(0.982945 -0.0194764 0)
(0.846334 -0.0429082 -1.02992e-20)
(0.998402 -0.00262858 -9.4754e-21)
(1.10152 0.0482225 -2.3761e-20)
(0.0016377 -0.0706547 0)
(1.11983 0.0640177 1.27548e-20)
(0.878053 -0.0286451 2.69153e-20)
(1.09322 0.0234969 1.56593e-20)
(1.10891 0.0054802 -2.2782e-20)
(1.21377 -0.0433748 -2.60206e-20)
(1.00016 -0.000656782 8.53119e-22)
(0.999645 -0.0100517 0)
(0.135963 0.011942 4.22249e-21)
(1.17733 -0.155686 -7.51114e-20)
(-0.306481 -0.0112226 -8.9989e-20)
(0.991894 -0.0649196 -1.13342e-20)
(1.0742 -0.0364181 7.94342e-21)
(1.15453 -0.103032 0)
(1.07312 -0.00276395 -7.13553e-21)
(0.0968879 0.0115238 -5.57619e-20)
(1.08227 -0.0861815 0)
(1.22964 -0.00178088 -9.09388e-23)
(0.997081 -0.00470915 0)
(0.0894846 0.0237188 -9.71203e-21)
(0.485693 0.0599836 0)
(0.648346 -0.128664 -1.05288e-21)
(1.09085 -0.0138592 0)
(1.02102 -0.000933747 0)
(1.02539 -0.0459772 0)
(0.852549 -0.0476915 0)
(1.03308 -0.0733947 1.48009e-22)
(0.033972 -0.321106 -6.55637e-20)
(0.368484 0.350181 6.72032e-20)
(1.21868 -0.0584787 1.17605e-20)
(0.491438 -0.0953248 0)
(1.06559 -0.0552596 0)
(1.00134 -0.0074715 -1.01774e-21)
(0.999996 -0.00137762 1.84859e-21)
(0.246928 0.0513327 1.94587e-20)
(0.996646 -0.00288384 -1.47075e-20)
(0.995246 -0.0052001 7.94382e-21)
(1.01741 -0.00184566 0)
(1.05235 0.00238623 0)
(1.07654 -0.0322002 3.60653e-21)
(1.00575 -0.00635392 1.47673e-25)
(1.10695 0.00831045 -1.08645e-20)
(1.02724 -0.0096961 2.88298e-21)
(-0.098876 0.00346147 1.02148e-19)
(0.879654 -0.150862 -1.73394e-20)
(-0.259672 -0.0123134 0)
(1.00003 -0.000664225 0)
(1.0001 -0.000774837 2.15393e-21)
(1.05291 0.00312865 0)
(1.01772 -0.00149677 2.63412e-21)
(1.01482 -0.247995 -1.42308e-21)
(0.930847 -0.0161006 -1.22955e-20)
(1.08685 -0.0327244 1.64394e-20)
(1.00537 -0.000584614 3.03956e-22)
(0.999109 -0.00480525 -2.47261e-21)
(0.844293 0.0762738 -3.49602e-20)
(1.07966 -0.0877154 0)
(1.09033 -0.0126029 0)
(0.999181 -0.0044632 -4.7598e-21)
(0.0966627 -0.23006 2.98237e-20)
(0.0943272 -0.00686236 -1.12223e-19)
(0.986721 -0.0761728 9.56404e-21)
(0.999912 -0.00847221 1.93946e-21)
(-0.268514 -0.0105115 -1.73061e-19)
(0.147439 0.040774 0)
(0.26543 0.0346989 0)
(0.842973 0.0828866 3.75078e-20)
(1.00048 -0.00474906 2.35281e-21)
(1.03234 -0.00349382 -6.23116e-21)
(1.03279 -0.250406 0)
(0.0233335 0.0359273 -3.3621e-20)
(0.977919 -0.0315803 3.00583e-21)
(0.629019 0.0785544 0)
(0.682348 0.813058 -3.97673e-21)
(0.988322 -0.0282215 -4.659e-21)
(1.30787 -0.167499 7.46364e-20)
(0.695178 0.0387863 0)
(1.16243 0.0226733 -1.65879e-20)
(0.994976 -0.0154153 -4.27344e-21)
(0.998781 -0.00259197 -3.13092e-21)
(-0.158835 -0.0126465 9.60518e-20)
(0.953429 -0.106091 6.15464e-21)
(0.953512 -0.179081 1.54008e-20)
(1.1607 0.0316255 1.99416e-20)
(0.897785 -0.387684 2.57556e-20)
(1.06998 -0.0112077 3.66766e-22)
(0.271954 0.0486186 -1.37888e-20)
(0.944446 -0.0909574 1.78441e-20)
(1.09951 0.0480942 1.94655e-20)
(1.00165 -0.00849314 0)
(1.00832 -0.00939592 0)
(1.07095 -0.0105991 0)
(-0.0274851 -0.00542091 -2.64589e-20)
(0.0213483 0.0262638 0)
(1.23459 -0.00280087 -2.53103e-20)
(1.13374 0.076892 0)
(0.223301 0.048762 0)
(0.989251 -0.0758862 -1.18806e-20)
(1.06472 0.00119558 9.92144e-20)
(0.00484008 0.00398456 0)
(0.942405 0.074078 0)
(1.03919 -0.00923867 3.34454e-21)
(1.07751 -0.0143902 -1.54337e-20)
(1.01761 -0.00130739 4.41004e-21)
(0.293442 0.0315156 -1.79007e-20)
(0.49566 -0.604074 9.53524e-21)
(1.16427 0.0210901 0)
(0.999876 -0.000998679 -2.13198e-21)
(1.00003 -0.00825252 1.9765e-22)
(1.00919 -0.0529478 0)
(0.0848157 0.00872554 4.14334e-20)
(1.00149 -0.00817989 -1.15814e-21)
(-0.148341 -0.0137986 8.75324e-20)
(1.01504 -0.00144042 0)
(0.415371 0.0541867 0)
(1.07169 -0.0400053 1.02563e-20)
(1.0099 -0.00128592 -1.6212e-21)
(1.10882 0.00753248 2.46762e-20)
(0.346287 -0.00560999 -3.11848e-20)
(0.99886 -0.00306008 -7.835e-21)
(0.193585 0.0461356 1.54654e-20)
(0.266635 0.0524218 1.69592e-20)
(-0.252767 -0.0175799 1.87919e-19)
(1.19482 0.0181663 0)
(0.885013 0.0828818 -1.13537e-20)
(0.956168 -0.173877 -1.12083e-20)
(0.468956 0.0598582 0)
(1.2287 0.0188256 0)
(0.995475 -0.0206207 0)
(0.625317 0.385813 9.97627e-20)
(0.56054 0.0685127 3.98272e-20)
(1.00611 -0.00122117 0)
(1.00551 -0.00599651 0)
(1.00043 -0.00478509 -2.844e-21)
(0.969694 -0.168842 9.44031e-21)
(0.546528 -0.0783869 -1.13345e-19)
(0.610758 0.361771 -3.00897e-20)
(1.12468 0.0580989 4.13213e-20)
(1.00806 -0.00506166 -7.22483e-22)
(1.05251 -0.206054 9.55736e-21)
(1.14857 0.0143605 2.41148e-20)
(1.00264 -0.00601173 0)
(1.03175 -0.00324552 3.44487e-21)
(1.15973 -0.1008 1.30249e-20)
(0.992195 -0.0190973 -2.77757e-21)
(1.09971 0.0132649 0)
(0.995522 -0.00498653 0)
(1.03714 -0.142402 0)
(-0.00422177 -0.0724969 0)
(0.854998 -0.122236 6.43645e-20)
(1.03208 -0.142649 -2.50583e-21)
(0.0225523 0.0345592 -1.26658e-20)
(0.120918 -0.00536772 -2.01533e-19)
(1.19445 0.0158034 1.40753e-20)
(0.270644 0.0289417 0)
(1.03687 -0.0048699 -5.4649e-21)
(0.961912 0.0738236 -1.04131e-20)
(0.999051 -0.0380403 2.78621e-21)
(1.11082 0.00474471 2.40813e-20)
(0.29013 0.0541148 3.35661e-20)
(0.124054 0.0102525 -5.2478e-21)
(0.143789 -0.509095 1.29191e-19)
(-0.158708 -0.00530734 3.66736e-21)
(0.0967411 -0.372642 -6.50523e-20)
(0.0421597 0.028293 3.20464e-20)
(1.00594 -0.00156176 0)
(0.997686 -0.00367697 -2.86516e-21)
(1.09862 0.0199842 8.21598e-23)
(0.883571 -0.143237 0)
(1.22794 0.0108075 5.96299e-20)
(1.02637 -0.244661 -2.83154e-21)
(0.304811 0.0558851 -1.4914e-20)
(0.212577 0.0471859 -3.34867e-20)
(1.06913 -0.0315693 1.72574e-20)
(1.00268 -0.0167165 -2.42488e-21)
(1.00785 -0.00484331 6.29818e-22)
(0.777357 -0.0296235 -3.05791e-21)
(-0.24163 -0.00348092 0)
(1.01694 -0.0136116 1.56617e-21)
(1.00953 -0.241039 4.34586e-21)
(1.00811 -0.00144891 -3.36432e-22)
(0.982389 -0.0638661 0)
(1.03632 -0.0049703 1.1094e-20)
(-0.0193808 0.00649951 -4.28648e-21)
(0.261042 0.035945 1.88285e-20)
(1.05765 -0.00264209 4.10745e-21)
(-0.038352 -0.0127811 1.97942e-20)
(1.00343 -0.000576071 2.73246e-22)
(1.05206 0.000855745 -1.18072e-20)
(1.09813 0.0185578 0)
(1.14339 -0.105119 -1.888e-20)
(0.202427 0.0271318 -1.71116e-20)
(1.13839 -0.00708807 -1.77404e-20)
(1.09964 0.0147298 0)
(0.190216 0.0443884 0)
(0.0388487 0.0103157 0)
(1.07249 -0.0356896 -1.77343e-20)
(0.934447 0.0786416 3.29e-20)
(0.97275 -0.00550254 -1.59741e-20)
(1.15115 0.0150288 4.63342e-22)
(0.178242 0.0421298 0)
(0.314629 0.0483286 2.81661e-20)
(1.03817 -0.0506031 0)
(0.840399 -0.00384216 -1.81866e-20)
(0.998686 -0.00254001 8.71603e-21)
(0.999992 -0.0375709 -1.96671e-21)
(0.952716 -0.102467 1.10899e-20)
(0.279776 0.0289352 9.64911e-21)
(-0.214907 -0.0035219 1.28049e-19)
(1.00006 -0.00680479 0)
(0.236771 0.0462211 3.17481e-20)
(-0.224506 -0.0204468 -2.41238e-19)
(1.00958 -0.00142736 1.94332e-21)
(0.997377 -0.00417685 0)
(-0.0346546 -0.0182249 -2.28639e-20)
(1.15333 -0.118033 6.73717e-20)
(1.11827 0.0642486 1.68786e-20)
(-0.10857 -0.0584486 0)
(0.335066 0.0438755 0)
(0.222582 0.0269047 -1.67287e-19)
(1.03131 -0.0743969 -1.04224e-21)
(1.00001 -0.00111846 0)
(1.08903 -0.0324328 -1.95343e-20)
(0.87082 -0.0285841 3.22574e-20)
(0.997738 -0.00343055 -1.86145e-23)
(1.0068 -0.0077026 4.43022e-23)
(0.595912 0.0701165 -1.55542e-20)
(1.10687 0.0103486 -7.98017e-21)
(0.211038 0.0147494 0)
(0.594273 0.0722756 0)
(1.00845 -0.00139516 3.66725e-22)
(0.399062 0.326021 0)
(1.01785 -0.00110731 8.56168e-23)
(1.1104 0.0398629 -9.00146e-21)
(0.107811 0.0271161 0)
(1.02907 -0.072651 0)
(1.04332 0.00111378 1.93907e-21)
(1.0673 -0.032235 -1.15816e-20)
(1.16266 -0.168418 0)
(1.07342 -0.00156917 0)
(1.04695 -0.0268217 0)
(0.125892 0.0377404 0)
(1.00035 -0.00441165 2.48082e-21)
(1.08743 -0.0438279 2.11403e-20)
(1.09876 0.0461707 2.40039e-20)
(1.04071 -0.0737357 4.99779e-21)
(1.00017 -0.00689218 0)
(1.02696 -0.073688 0)
(-0.00741049 -0.0667943 0)
(1.01458 -0.0112019 -5.79389e-22)
(0.998038 -0.00319797 8.58435e-21)
(1.01658 -0.0133968 -1.54694e-21)
(0.987218 0.0779519 2.54204e-20)
(0.651699 0.0765724 -4.25597e-20)
(1.00122 -0.00752329 2.28943e-21)
(1.01533 -0.0448019 0)
(1.00699 -0.00759248 0)
(1.01933 0.0452717 0)
(1.00342 -0.033109 0)
(0.130282 0.0119571 -4.861e-21)
(1.15327 0.0361498 -1.64947e-20)
(0.982438 -0.0204872 0)
(1.03203 -0.0020885 5.12044e-21)
(1.06874 -0.013462 -1.39781e-20)
(0.341424 -0.138129 -8.45108e-20)
(0.0282347 0.0120032 -1.82319e-20)
(0.913226 -0.052653 -2.8001e-20)
(1.00033 -0.00443456 0)
(0.0657713 0.362061 5.41393e-22)
(0.669373 0.0244109 2.15377e-22)
(1.043 -0.0737663 2.28558e-21)
(0.997402 -0.00390945 -3.53923e-21)
(1.15923 0.0599761 -3.10244e-21)
(1.00407 -0.0173501 2.50041e-21)
(0.934178 -0.0166035 5.17277e-20)
(0.28917 0.0326616 0)
(1.14898 -0.118323 -5.48381e-20)
(0.944783 -0.155771 0)
(0.879827 -0.0232716 -6.87383e-20)
(1.04777 -0.0263081 7.00497e-21)
(1.00293 -0.0323296 0)
(1.02529 -0.0060638 2.45929e-21)
(0.368463 0.0442132 -1.12636e-21)
(1.00851 -0.00964452 -2.22292e-22)
(0.241115 0.0471678 8.95613e-22)
(1.04378 0.00151062 0)
(1.03679 -0.00389198 0)
(0.502532 1.04239 8.78032e-20)
(0.127391 0.0330478 0)
(1.18574 0.0292594 -5.33089e-20)
(0.257314 0.0483989 2.5626e-20)
(-0.0913042 0.00563089 -7.64105e-20)
(0.403874 0.0494987 0)
(1.03999 -0.0090442 -3.66524e-21)
(0.14548 0.0217299 0)
(1.15936 0.0589218 0)
(-0.0639964 0.0172241 -2.17755e-20)
(1.05097 0.000867087 1.11893e-20)
(0.999758 -0.00934042 4.60162e-21)
(1.01437 -0.0124271 -1.97716e-21)
(0.908682 -0.0494126 1.59203e-20)
(1.02483 -0.0472119 -3.22133e-21)
(1.13803 -0.106124 9.37565e-21)
(0.991083 -0.0675045 1.00151e-20)
(1.09686 0.0460955 -1.12883e-20)
(0.998101 -0.00303777 -6.37345e-21)
(1.00732 -0.00455969 -7.03992e-22)
(0.698303 0.0554991 1.93676e-20)
(1.07599 -0.0303555 6.95532e-21)
(0.683077 0.0280555 0)
(1.10147 0.0105121 -1.80016e-20)
(0.999602 -0.00949267 0)
(1.02478 -0.00607661 -4.86517e-21)
(1.00521 -0.00596915 0)
(0.318293 0.040694 -6.36709e-21)
(-0.0192925 0.0474436 -8.70871e-21)
(1.00021 -0.00653069 1.53415e-21)
(1.01279 -0.00976373 0)
(0.993682 -0.00672073 4.79e-21)
(0.999931 -0.000464074 0)
(1.0828 -0.302354 -2.08604e-20)
(1.00005 -0.000559469 0)
(0.426456 -0.00809809 0)
(0.379312 -0.808195 6.82868e-21)
(1.00638 -0.00611245 0)
(1.00366 -0.0174194 -1.68442e-21)
(1.19163 0.0556276 3.53322e-20)
(0.152125 0.0402703 0)
(0.653789 0.909328 1.76378e-20)
(-0.0602372 0.0182551 4.29101e-20)
(1.00003 -0.00173822 3.69379e-21)
(1.10149 0.0123336 1.90402e-20)
(1.18489 0.03201 8.83012e-20)
(1.03706 -0.00427268 7.25988e-22)
(-0.0332717 -0.00763232 4.44929e-20)
(1.13597 0.0759966 1.96155e-20)
(1.07741 -0.013398 1.09516e-20)
(1.03977 -0.0664906 5.25475e-21)
(0.988193 -0.0126479 4.24048e-21)
(0.997105 -0.0044054 0)
(1.00002 -0.00014751 6.7763e-22)
(0.212482 0.0286101 0)
(0.988813 -0.0124532 -3.21253e-21)
(1.02076 -0.00112751 0)
(1.07802 -0.0178976 4.19001e-21)
(1.02381 -0.00987598 -1.29842e-21)
(0.309824 0.03402 0)
(1.15148 0.0579049 5.91741e-20)
(0.999964 -0.00191695 -3.02161e-21)
(0.998213 -0.00271183 6.32285e-21)
(-0.279532 -0.0133254 -4.39342e-20)
(1.01195 -0.0114019 0)
(1.01118 -0.0109106 0)
(1.02111 -0.0419874 1.20197e-21)
(1.22018 0.000405284 7.10809e-20)
(0.148528 0.0324345 -1.42029e-20)
(1.00005 -0.000793061 0)
(1.07948 0.0616304 0)
(1.0519 -0.000943905 -6.02499e-21)
(1.03634 -0.00575988 -1.48844e-20)
(0.202419 0.0130654 3.25145e-20)
(0.216252 0.0162148 0)
(0.982689 -0.0446634 3.40486e-21)
(1.08358 0.0381034 5.34345e-20)
(-0.16243 0.0051021 -1.84381e-19)
(0.938055 -0.177249 0)
(1.08187 0.0692202 4.62922e-20)
(1.06916 -0.0178773 6.91259e-21)
(1.08519 -0.0345815 2.73968e-21)
(1.15804 -0.172284 0)
(1.01103 -0.442298 -4.29297e-21)
(1.02006 -0.000264497 2.9657e-21)
(0.999034 -0.00697377 -6.67876e-21)
(1.04677 -0.0289892 1.56467e-22)
(0.995201 -0.0148562 0)
(0.322079 -0.0298222 0)
(1.00907 -0.0781211 1.60883e-21)
(0.442273 -0.441802 3.08329e-20)
(0.99997 -0.00080364 -3.34801e-21)
(1.2935 -0.16819 0)
(0.997659 -0.0206092 0)
(-0.0206619 0.0418099 8.40002e-21)
(-0.0756287 -0.00371662 -2.74343e-21)
(0.91435 -0.00504678 1.64234e-20)
(0.379884 0.0458194 7.13021e-20)
(0.945169 -0.164602 0)
(1.04758 -0.0282819 0)
(1.09212 0.0219448 -2.08091e-20)
(0.302152 0.0326573 0)
(0.991483 0.0737753 -5.21249e-20)
(1.00038 -0.000165444 -6.3217e-22)
(0.358235 -0.00711641 4.22696e-20)
(1.09752 0.000514017 0)
(1.02263 -0.00829148 0)
(0.732809 0.0356756 0)
(0.132824 0.0312279 -3.57442e-20)
(1.00237 -0.0169481 -3.38825e-21)
(0.41235 0.0533365 0)
(0.186264 0.0232198 3.54032e-20)
(0.999957 -0.00773161 -2.02306e-22)
(-0.158778 -0.00939557 -3.27998e-21)
(1.08507 -0.314128 -1.09794e-20)
(1.03572 -0.00589359 1.27251e-20)
(0.78786 -0.0291165 2.43882e-21)
(0.633571 0.0729706 -1.64665e-20)
(1.23784 0.0191012 -1.27889e-20)
(1.09491 0.0235876 -1.03881e-20)
(0.285281 0.0467401 3.75583e-20)
(0.0863447 0.337278 1.64731e-20)
(1.15438 0.0599765 3.10286e-20)
(1.16072 -0.0191569 2.62275e-20)
(1.02337 -0.00965982 3.51891e-21)
(-0.204135 -0.0121491 -7.65081e-20)
(0.993298 -0.018415 -4.53081e-21)
(0.997741 -0.0361539 0)
(0.353484 0.047975 -9.30593e-20)
(1.10084 0.0678588 -1.7817e-20)
(1.00205 -0.0609929 4.99766e-21)
(0.982521 -0.0429793 -3.13176e-21)
(1.09595 0.0011659 1.78164e-21)
(1.06778 -0.0170535 -6.64487e-21)
(0.973527 -0.00630259 1.23749e-20)
(1.01485 -0.0126956 2.00997e-21)
(1.01712 -0.00169999 0)
(1.04239 -0.222431 7.91982e-21)
(-0.0153815 0.0189071 0)
(1.00499 -0.00561551 -9.54031e-23)
(1.10851 0.0400421 1.36216e-20)
(0.999955 -0.000367402 -2.02066e-21)
(0.0992433 0.0168968 -2.28628e-20)
(0.999117 -0.00672309 2.10295e-21)
(1.00327 -0.000388936 -3.35976e-22)
(1.14014 0.073847 -1.43545e-20)
(0.823207 0.0705906 -2.8194e-20)
(0.992461 -0.235448 0)
(0.316176 0.0435576 0)
(1.00371 -0.00993877 0)
(1.00325 -0.00975661 8.05463e-22)
(0.209289 0.0486824 -3.66715e-20)
(0.886368 -0.163065 -1.04631e-19)
(1.14646 -0.109012 2.06689e-20)
(1.04856 -0.00423354 -1.09246e-20)
(0.617039 -0.354777 0)
(0.530674 -0.0659188 1.0265e-19)
(1.00015 -0.00329902 1.24701e-21)
(0.998853 -0.0028767 2.87773e-24)
(1.00001 -0.00200276 -5.38829e-21)
(1.03543 -0.0529404 1.13071e-21)
(0.381996 0.0463847 -1.64198e-20)
(0.21694 0.0482146 -1.06187e-20)
(0.996068 -0.0347004 2.49892e-21)
(1.00707 -0.056233 0)
(0.64377 0.122008 -9.37501e-22)
(-0.167709 -0.00553692 0)
(-0.16728 -0.00423428 -4.87461e-20)
(1.02098 -0.00112807 2.22145e-21)
(0.970134 -0.048181 -3.16687e-21)
(0.623431 0.855684 -4.1819e-20)
(0.998106 -0.0371648 -2.82866e-21)
(0.998713 -0.00219151 0)
(1.00089 -0.00753461 0)
(1.01802 -0.00811347 -2.82907e-21)
(1.15192 -0.0502639 0)
(0.48128 -0.276655 9.20242e-20)
(0.718057 -0.76771 0)
(1.02876 -0.455473 2.04776e-20)
(1.00148 -0.00779823 3.26081e-21)
(1.19723 0.00537034 2.2632e-20)
(1.00788 -0.0120085 6.57971e-23)
(1.00002 -0.000324828 -1.1759e-22)
(0.245981 0.0172504 6.54082e-20)
(0.965294 -0.763393 1.64852e-20)
(1.04491 -0.203119 5.84943e-21)
(0.590838 0.0705692 2.09512e-21)
(0.2726 0.0368762 -7.12533e-21)
(0.877538 0.0717301 4.75003e-20)
(0.192339 0.0475618 2.72823e-21)
(1.22354 -0.0599189 -3.12628e-20)
(0.249689 0.0465919 -8.78029e-20)
(0.0487098 0.00903319 -2.74566e-20)
(1.10238 0.0497187 1.48252e-20)
(-0.0136223 0.00834101 3.1799e-20)
(0.995987 -0.017238 1.77318e-21)
(0.68441 0.0505391 0)
(1.03932 -0.0495417 4.69128e-21)
(1.05439 0.000701368 -1.73547e-20)
(0.658811 0.110418 8.39447e-22)
(1.12386 0.0779217 0)
(0.990636 -0.063129 7.62032e-21)
(1.29863 -0.0971972 0)
(1.02355 0.0709684 1.08624e-20)
(1.10958 -0.00085161 -2.16359e-20)
(0.999881 -0.000883909 1.09312e-20)
(0.982123 -0.0111245 -8.28662e-23)
(0.938104 -0.739975 -7.77435e-21)
(0.170473 0.0358533 0)
(0.336677 0.0472714 -3.83414e-20)
(1.02205 -0.0023489 2.11045e-21)
(1.29192 -0.0945081 0)
(-0.0745026 -0.0200037 1.87335e-23)
(0.96378 -0.0135949 0)
(1.0524 -0.0017077 1.27453e-20)
(0.993366 -0.00658895 -2.66604e-21)
(0.926599 -0.0277506 -1.7416e-20)
(0.768199 -0.314859 -5.57229e-20)
(-0.245264 -0.010136 1.64444e-19)
(1.00016 -0.000621407 -8.25229e-22)
(0.325816 0.0569305 0)
(0.999027 -0.00587155 0)
(0.323956 0.0470045 -3.24398e-20)
(1.06732 -0.0562895 -7.13344e-21)
(1.01617 -0.0418711 -2.83506e-22)
(1.06964 -0.0710001 -1.05549e-20)
(-0.209534 -0.00596885 -1.18902e-19)
(1.03251 -0.00183126 -2.66912e-21)
(1.00247 -0.00525189 0)
(0.0246246 0.0211105 6.92929e-20)
(0.261622 0.0526837 9.57216e-21)
(1.17409 -0.167541 -5.24517e-20)
(0.887739 0.0758066 3.92796e-20)
(1.04802 -0.0048193 1.16042e-20)
(1.00108 -0.00714989 0)
(0.999268 -0.00148371 -1.29177e-21)
(-0.017435 -0.0141712 -5.31519e-21)
(0.734242 -0.262262 1.04793e-20)
(-0.0195651 -0.0194114 0)
(1.08964 -0.0611555 -1.77074e-20)
(0.674531 -0.811551 0)
(0.297777 0.0506728 -1.5533e-20)
(1.0991 0.0175539 -2.56887e-20)
(-0.232186 -0.0048703 -5.48619e-22)
(0.96946 -0.0467416 3.13045e-21)
(-0.229039 -0.00215303 1.49563e-20)
(1.01794 -0.00708167 0)
(0.531509 -0.0330429 0)
(0.306756 0.0452043 2.27693e-20)
(0.705731 -0.211449 1.10156e-19)
(1.07007 -0.0129774 1.4416e-20)
(0.391873 0.0481524 0)
(-0.2567 -0.00404021 1.5455e-19)
(1.00234 -0.00613227 0)
(0.637399 -0.159419 -8.2408e-20)
(0.992311 -0.0198677 3.63411e-22)
(1.00011 -0.000574953 -9.99392e-22)
(-0.138605 -0.00696352 -2.7859e-20)
(0.164803 0.0419742 0)
(0.999964 -0.00203847 6.2763e-21)
(1.00005 -0.00752411 0)
(1.01513 -0.00119877 -2.02934e-21)
(0.112238 -0.477364 -5.11488e-20)
(0.196454 0.0330953 5.62172e-20)
(1.00261 -0.00556416 0)
(1.19319 0.030149 -3.2548e-20)
(1.04059 -0.0685899 -7.2712e-21)
(1.04318 -0.000102467 0)
(1.00355 -0.00945595 -6.35138e-22)
(1.17313 -0.0866406 3.09423e-20)
(1.19732 0.0081113 -1.65129e-20)
(1.07368 -0.0397638 -1.71809e-20)
(0.717237 -0.133536 -4.13162e-20)
(1.00029 -0.0066161 -3.03929e-21)
(1.00752 -0.00480101 6.72821e-22)
(0.615046 0.0728356 0)
(-0.112634 -0.0109919 0)
(1.16231 0.057734 -5.88339e-21)
(0.0387043 0.00727067 -7.17415e-21)
(0.166901 -0.10608 -5.08876e-20)
(0.970848 -0.0113174 -2.05123e-20)
(-0.0649327 -0.0197951 5.1974e-20)
(0.716836 -0.120393 -3.97506e-20)
(0.944502 -0.0483188 2.12811e-20)
(0.203828 -0.701602 -2.60818e-20)
(1.06843 -0.244759 0)
(1.06326 -0.0558573 0)
(1.0866 -0.148803 -1.05969e-20)
(0.304634 0.0327121 0)
(0.910399 -0.00415928 0)
(1.15855 -0.0217649 -2.61086e-20)
(1.03074 -0.0536977 8.70034e-22)
(1.08617 -0.0794159 -8.13622e-22)
(-0.10893 -0.0164879 -5.41694e-20)
(1.00234 -0.00597614 -1.19849e-21)
(0.531748 0.0656987 3.31132e-20)
(1.15536 -0.0520655 -1.29786e-20)
(0.908874 -0.234734 -2.16137e-20)
(0.965602 -0.175333 -1.16748e-20)
(1.0234 -0.00912481 0)
(1.05036 -0.00379582 -2.859e-21)
(0.229469 0.0151593 1.69894e-20)
(1.00225 -0.00510946 -1.01337e-21)
(0.999096 -0.00562569 -2.16533e-21)
(1.15957 0.0092503 -2.92614e-20)
(1.02123 -0.00841873 -2.00639e-21)
(1.15213 -0.107897 -2.27579e-20)
(1.04372 0.000295609 -2.18903e-21)
(1.15822 0.032046 9.50575e-21)
(0.979373 -0.0311468 5.28177e-21)
(1.09254 -0.0573574 -2.98098e-20)
(1.02462 -0.00652052 0)
(0.444706 -0.413541 -1.47956e-19)
(0.0259416 0.00771626 0)
(0.0833508 0.50527 -1.17301e-19)
(1.03218 -0.0530011 0)
(-0.0685009 0.00464141 0)
(0.197652 0.0469937 2.18681e-20)
(0.546688 -0.0219985 0)
(1.03648 -0.00214738 0)
(0.220547 0.0376729 -5.02741e-20)
(0.966222 -0.0049704 2.08449e-20)
(0.0497341 0.124807 -5.29196e-21)
(0.995788 -0.00518663 0)
(0.66583 -0.119499 -8.36154e-20)
(1.17073 0.0351254 0)
(-0.0236138 0.0483975 1.61338e-20)
(-0.124265 -0.0112057 -4.93444e-20)
(1.26253 -0.00491561 -7.6455e-20)
(0.234787 0.0327363 1.52498e-20)
(1.02131 -0.000676487 -6.3054e-21)
(0.0856664 0.0076164 0)
(1.00563 -0.000682355 0)
(0.914327 -0.0686898 -8.59008e-21)
(0.947521 -0.0491939 0)
(0.989539 -0.0112963 6.70019e-21)
(1.00225 -0.000787823 0)
(0.117787 0.0178867 -1.09037e-20)
(1.10854 0.036454 1.27123e-20)
(1.04645 -0.0322379 6.88346e-21)
(0.37449 0.0601693 3.54336e-20)
(0.383109 -0.0833531 0)
(0.787058 -0.136405 -1.91499e-20)
(1.02137 -0.000784485 3.82066e-21)
(0.952053 -0.0819939 1.94158e-20)
(1.00005 -0.00110987 0)
(1.01228 -0.011828 7.29715e-22)
(1.01779 -0.00777493 0)
(0.994895 -0.0208704 2.98968e-21)
(0.476476 -0.308489 -8.28475e-20)
(1.06711 -0.0712094 7.76821e-21)
(0.789811 0.0641168 -6.39447e-20)
(-0.108258 0.0109993 3.3738e-20)
(0.0960148 0.0113515 -1.39216e-20)
(-0.134818 0.00692558 -7.90955e-20)
(0.771685 -0.442109 -2.9631e-21)
(0.910826 0.00402536 -9.67158e-21)
(0.998955 -0.00237285 3.73168e-21)
(1.12445 0.039998 -2.94339e-20)
(1.00851 -0.00913975 -2.97641e-22)
(0.123816 0.0165604 -4.73916e-20)
(0.26865 0.0249551 1.42631e-20)
(1.02208 -0.00819391 0)
(1.09069 -0.0921815 -1.02788e-21)
(0.339131 0.0394353 0)
(0.363607 0.0550618 -1.89279e-20)
(0.596434 0.0710276 -2.02692e-20)
(1.09487 -0.0566712 8.3167e-21)
(0.914484 0.00442747 0)
(1.02051 -0.0182117 -2.45979e-21)
(0.285261 0.0317592 1.8912e-20)
(0.0939925 0.00924703 0)
(1.00132 0.0669307 2.02739e-20)
(1.06156 -0.250432 1.05457e-20)
(1.24799 0.0150799 -7.79227e-20)
(-0.06557 -0.0102917 0)
(1.05127 -0.246137 -1.31425e-20)
(0.149883 0.018294 3.21759e-20)
(0.961683 -0.299218 1.19307e-21)
(0.795957 -0.446756 -1.53761e-20)
(1.00355 -0.0100888 7.91706e-22)
(-0.0111916 0.00776126 -3.91335e-20)
(1.11171 0.0408339 4.7794e-21)
(1.10747 0.0346931 -3.87601e-20)
(0.247509 0.0344884 0)
(1.01498 -0.0170564 -1.33039e-21)
(1.1168 0.0520349 0)
(0.720812 -0.216986 0)
(1.01553 -0.0171055 1.61146e-21)
(1.1419 0.0609603 1.71035e-20)
(0.963735 0.0750699 3.9079e-20)
(0.197854 0.0256955 -3.03777e-21)
(0.290729 0.0268608 8.60148e-20)
(0.865684 0.00837254 -2.15695e-20)
(1.08758 -0.0491312 0)
(1.00208 -0.000803845 0)
(0.630324 -0.33553 0)
(1.12529 -0.602895 2.66046e-20)
(0.945678 -0.0862178 -5.88532e-21)
(0.165777 0.0246125 -7.96417e-20)
(1.00318 -0.0226508 2.20202e-21)
(0.332295 0.0543966 2.88957e-20)
(0.188567 0.0430474 0)
(1.07492 -0.00997616 1.76171e-21)
(0.984417 -0.0764745 0)
(0.999965 -0.000904679 0)
(0.88398 -0.127767 1.57097e-20)
(1.00009 -0.00126231 -6.35427e-22)
(0.493073 -0.0975953 8.56353e-20)
(1.12651 0.0433798 0)
(0.0700405 0.0198848 1.46131e-19)
(1.01411 -0.0108686 9.18456e-22)
(1.01566 -0.0164709 0)
(1.01997 -0.0183844 -2.37553e-21)
(0.766389 -0.225865 -4.68286e-20)
(0.0709751 0.0408982 9.16678e-20)
(0.853651 0.000641193 -1.94927e-20)
(0.457344 -0.11107 9.44667e-20)
(1.10473 0.039959 0)
(1.19281 0.0251323 5.33522e-20)
(0.996081 -0.00494925 0)
(1.00086 -0.000446292 1.90263e-23)
(1.29229 -0.246419 -4.00324e-20)
(1.00153 -0.0628864 -2.23639e-21)
(1.14725 0.0727367 0)
(0.0505567 -0.414712 0)
(0.800822 -0.245293 9.29589e-22)
(1.23326 0.00994285 0)
(1.03876 -0.0307189 -1.86977e-21)
(0.0897887 0.0181689 -5.62725e-21)
(0.546833 0.0669713 2.19844e-21)
(0.624774 0.333436 -4.5591e-21)
(1.0573 -0.00185916 -1.2586e-20)
(1.01199 -0.00149448 -2.45739e-23)
(1.04756 -0.0328401 -6.49542e-21)
(0.999391 -0.00440453 0)
(1.17821 0.0414889 5.12748e-20)
(0.990692 -0.0778538 0)
(1.02335 -0.0115755 7.70487e-21)
(1.14126 0.0622779 0)
(0.954882 -0.0331056 1.39543e-20)
(-0.0204715 -0.0184048 -1.5753e-20)
(1.03805 -0.399055 -2.77619e-20)
(0.937576 -0.168947 -1.78713e-20)
(1.00612 -0.00609992 -6.77419e-23)
(0.316232 0.0354654 -1.30092e-21)
(1.03287 -0.00322405 1.00782e-20)
(1.07614 -0.0113216 -7.55914e-23)
(0.100505 -0.00929333 -8.90444e-21)
(0.648262 -0.122668 0)
(1.00311 -0.00990957 0)
(1.03796 -0.414745 -1.93193e-21)
(0.341164 0.0517248 -7.19886e-21)
(1.02882 -0.0155479 -4.56895e-21)
(1.00078 -0.00716643 0)
(0.996941 -0.0170767 0)
(0.774765 -0.133312 -2.6155e-20)
(-0.0200404 0.0536914 -3.24336e-20)
(1.0025 -0.00566218 2.52898e-22)
(0.209425 0.0114189 -3.9019e-20)
(1.00005 -0.000749599 0)
(-0.194151 -0.0138444 0)
(0.434717 -0.0539358 -1.18366e-19)
(-0.0199259 -0.0124273 0)
(0.001023 0.0398214 -1.406e-20)
(0.99823 -0.243842 0)
(1.08954 -0.0481791 1.43874e-20)
(0.371683 -0.132208 -4.90895e-20)
(1.00508 -0.000719999 -4.45015e-22)
(1.01308 0.0723408 3.77302e-20)
(1.02826 -0.0157375 0)
(1.00952 -0.00392395 -2.14012e-22)
(1.02259 -0.00297485 0)
(1.03819 -0.0188266 -1.30176e-20)
(0.312623 0.0418452 -3.61042e-21)
(1.02443 -0.0236012 -1.71968e-21)
(1.00212 -0.00480435 9.64375e-22)
(1.01442 -0.043672 3.59045e-24)
(1.0237 -0.0113138 -2.91685e-21)
(0.994358 -0.598756 2.13157e-20)
(0.971736 -0.0517033 7.70029e-22)
(-0.231009 -0.00700618 6.71712e-20)
(1.00369 -0.00930737 6.26006e-22)
(0.999478 -0.00403998 4.06101e-21)
(1.00256 -0.00616997 0)
(0.532929 0.0656146 0)
(0.0191041 0.0039647 6.86461e-20)
(0.194967 0.180402 8.00058e-20)
(0.463377 -0.426726 -7.89101e-20)
(1.00927 -0.00400122 -2.51074e-22)
(0.255803 0.0344566 -2.76023e-20)
(0.154484 0.0402752 -1.05323e-20)
(1.035 -0.0516253 1.57961e-21)
(1.00034 -0.0139954 -3.91899e-21)
(0.178775 0.0137241 0)
(0.11634 0.0203651 1.83309e-20)
(1.05983 -0.0579297 5.91972e-21)
(1.14039 0.0417108 1.45506e-20)
(0.698663 0.0767108 2.03398e-20)
(1.0503 -0.220269 0)
(1.03683 -0.00260067 -9.75641e-22)
(1.12087 0.0146395 2.25012e-21)
(1.08514 -0.0819562 1.9749e-21)
(1.11956 0.0162414 -1.86207e-21)
(0.374619 0.0551016 3.3912e-21)
(0.324112 -0.038631 -4.28387e-20)
(1.02528 -0.00532654 -2.8785e-23)
(0.123929 0.011642 8.8907e-23)
(1.01618 -0.0165058 -1.43377e-21)
(1.31045 -0.114605 0)
(1.10542 0.0349381 -2.56271e-21)
(1.13526 -0.10175 0)
(0.98894 -0.0115453 3.71364e-21)
(0.0129278 0.00602586 0)
(0.222295 0.0143351 2.39666e-20)
(1.06057 0.0697216 2.72816e-20)
(0.999152 -0.00146218 6.52273e-21)
(1.09599 0.0444999 2.17168e-20)
(1.02379 -0.00896327 0)
(0.086879 0.00925279 2.98718e-20)
(1.00219 -0.00601909 -1.5074e-21)
(1.09128 0.0187639 1.42067e-20)
(1.05073 -0.0226635 -7.9872e-21)
(1.00837 -0.0113451 -9.45136e-23)
(0.79541 -0.259695 -1.10475e-21)
(1.0078 -0.0756692 -4.50385e-21)
(0.997738 -0.00623905 8.12774e-21)
(0.258501 0.10512 1.37092e-19)
(1.00126 -0.00562045 1.23051e-21)
(0.262086 0.042197 -1.16859e-20)
(1.08658 -0.0400435 -2.81831e-20)
(1.20489 -0.42713 -6.20012e-20)
(0.99948 -0.0287714 7.6709e-21)
(1.1478 0.0569596 -6.23241e-20)
(0.954567 -0.303974 0)
(0.996485 -0.0358947 -2.66784e-21)
(-0.199135 -0.0114803 0)
(1.28717 -0.0836336 -5.29057e-20)
(0.656176 0.0735621 -4.99272e-21)
(0.999041 -0.00239363 0)
(0.928586 -0.0175482 0)
(1.21797 -0.0532974 -1.3348e-20)
(0.644313 0.0739705 6.54399e-21)
(1.00022 -0.0144622 4.4607e-21)
(1.00749 -0.052652 8.09541e-22)
(1.06093 -0.00338893 9.54122e-21)
(0.509713 0.0634482 -4.51167e-20)
(1.02038 -0.00355638 -5.20068e-21)
(1.15575 -0.000213008 2.59748e-20)
(1.17934 0.039301 3.19886e-20)
(0.972921 -0.0531151 2.90704e-21)
(1.02081 -0.00166192 0)
(1.00076 -0.000468459 4.21574e-23)
(1.00653 -0.00682849 -9.06714e-24)
(1.11634 -0.132914 2.55896e-20)
(1.02179 -0.00857305 4.18777e-21)
(0.969873 -0.568611 -1.45133e-20)
(1.10381 -0.0314685 -4.47616e-23)
(1.02485 -0.00522067 -2.15775e-23)
(1.02306 -0.0706366 4.45584e-21)
(-0.0621475 0.00701693 0)
(1.00484 -0.0176237 0)
(1.06287 -0.0424514 -1.15044e-20)
(1.01147 -0.0113362 -4.72016e-22)
(1.00203 -0.00585877 1.39754e-21)
(1.15282 -0.0629388 -4.42721e-20)
(1.14366 0.0572277 2.67506e-20)
(0.0662251 -0.497275 6.30188e-20)
(1.13349 0.0726331 -2.36387e-20)
(1.05662 -0.0103635 -7.97181e-21)
(1.03995 -0.0310246 5.62156e-21)
(-0.230155 -0.0059556 1.33552e-19)
(0.136385 -0.102659 6.57058e-20)
(0.838389 0.0584336 9.00197e-20)
(-0.0535845 0.00425262 0)
(0.711907 -0.263553 -1.09735e-19)
(1.16217 0.058914 -3.2683e-21)
(1.00354 -0.00885508 0)
(1.08674 -0.0907121 -1.4318e-20)
(-0.263322 -0.00779369 0)
(0.0196283 0.00825264 0)
(0.150519 0.0336426 -2.00771e-20)
(1.00114 -0.00537439 -1.70037e-21)
(0.965301 -0.303484 3.18252e-21)
(1.05378 -0.21235 0)
(-0.151846 -0.0217752 1.14771e-19)
(-0.0851629 0.0127323 3.37116e-20)
(0.998081 -0.0105996 -2.85572e-21)
(0.677964 0.117695 0)
(0.92402 -0.0252907 -1.70789e-20)
(0.0926872 0.207104 4.62105e-22)
(-0.0530276 0.00998392 0)
(0.126548 0.545482 1.52151e-19)
(1.01322 -0.0101343 8.25966e-22)
(1.26242 -0.0133515 1.62902e-20)
(1.00002 -0.000179855 4.59419e-24)
(1.03675 -0.0012361 0)
(0.205355 0.0252099 7.63005e-20)
(0.999999 -1.58414e-05 0)
(1.05152 -0.00395719 -1.36651e-20)
(-0.112267 -0.0635603 9.60629e-20)
(-0.0444156 0.0176682 -1.5679e-20)
(1.00681 -0.00700868 0)
(0.101357 0.0146281 1.36487e-20)