/*--------------------------------*- C++ -*----------------------------------*\
| =========                 |                                                 |
| \\      /  F ield         | OpenFOAM: The Open Source CFD Toolbox           |
|  \\    /   O peration     | Version:  v2012                                 |
|   \\  /    A nd           | Website:  www.openfoam.com                      |
|    \\/     M anipulation  |                                                 |
\*---------------------------------------------------------------------------*/
FoamFile
{
    version     2.0;
    format      ascii;
    class       volVectorField;
    location    "200";
    object      ddt0(U);
}
// * * * * * * * * * * * * * * * * * * * * * * * * * * * * * * * * * * * * * //

dimensions      [0 1 -2 0 0 0 0];


internalField   nonuniform List<vector> 
18540
(
(0.000213456 -0.000588472 0)
(1.66413e-08 -3.78648e-07 6.76914e-22)
(6.11056e-06 -1.28723e-06 -6.46896e-22)
(0.000727573 -0.000172326 0)
(-2.08854e-05 4.1467e-05 3.28118e-22)
(-6.86446e-05 0.000121262 -3.84177e-22)
(-2.34971e-05 4.19069e-05 -8.26566e-22)
(4.91298e-05 -8.7489e-06 0)
(-0.000113524 -0.000237277 7.49136e-22)
(1.93242e-05 -2.01982e-05 -1.85594e-24)
(3.2373e-05 -3.60851e-05 -5.90781e-22)
(2.94483e-06 -5.46588e-06 1.16342e-21)
(0.000284665 -0.000188537 1.20717e-21)
(5.57845e-06 -2.54497e-06 -8.80763e-22)
(0.000264635 -0.000693387 8.79704e-24)
(-0.000211218 -0.000806015 0)
(0.000166276 1.6848e-05 0)
(2.51038e-05 -5.68294e-05 0)
(0.000274377 -8.83392e-06 0)
(0.000546508 0.00013509 -4.51122e-22)
(3.26262e-06 -9.77786e-05 -6.07481e-22)
(-3.99281e-05 8.98974e-05 0)
(2.94343e-06 -5.77579e-06 1.82225e-22)
(-0.00151612 -0.00144764 0)
(5.29384e-05 -1.6519e-06 0)
(8.68483e-05 1.11984e-05 0)
(-0.000162119 3.14151e-05 -1.69936e-21)
(0.00014678 -1.78067e-05 -4.76695e-22)
(-2.11446e-05 8.89422e-05 7.37598e-22)
(-8.19307e-05 -0.000524397 -4.42154e-22)
(1.09401e-08 -5.58457e-07 -1.2102e-21)
(2.977e-06 -7.40199e-06 0)
(0.00037732 -0.000370998 4.44627e-22)
(-0.000736219 -0.00338943 6.37987e-22)
(5.79244e-05 -8.35931e-06 0)
(0.000735391 -0.000153248 0)
(-4.53543e-05 9.93185e-05 -6.50585e-22)
(4.35192e-06 1.6152e-06 4.08161e-22)
(-3.31579e-07 4.70026e-06 3.32539e-22)
(1.97769e-05 -9.06375e-05 0)
(1.11024e-07 -1.3198e-06 3.08542e-22)
(3.59114e-06 -1.41427e-05 2.12701e-21)
(-0.000176155 -9.60855e-05 0)
(-0.00017281 -0.00120319 -3.94858e-22)
(0.000142464 -1.10262e-06 4.02503e-22)
(8.41518e-05 1.35762e-05 0)
(0.000355719 -0.000127206 4.98423e-22)
(5.95696e-06 -1.45038e-06 3.87206e-22)
(5.23798e-06 -9.48599e-05 -1.2453e-21)
(1.90921e-05 0.000109883 4.54404e-22)
(5.37465e-06 -2.70112e-06 -7.59572e-22)
(2.2279e-05 -0.000243961 0)
(0.000560885 0.000164551 0)
(9.69786e-08 -6.64932e-07 0)
(6.7758e-05 1.69014e-05 -1.81668e-22)
(-8.37787e-05 0.000158867 0)
(0.000299878 -0.000166091 -1.15905e-21)
(-0.000154217 5.77642e-05 5.21188e-22)
(0.000520682 0.000104112 0)
(-1.53386e-06 -5.08082e-06 0)
(0.000709695 2.40854e-05 -7.07633e-22)
(1.45687e-05 4.39404e-05 0)
(6.08054e-05 1.69998e-05 -6.98577e-22)
(0.00025682 2.44402e-05 0)
(0.000164238 -0.000559012 -1.52068e-21)
(7.88241e-06 1.95567e-06 -6.35882e-22)
(8.51923e-05 -0.000119852 -6.83231e-22)
(1.90448e-06 -1.20543e-06 5.48661e-22)
(0.000393479 8.1308e-05 2.85598e-22)
(-7.49988e-07 2.88795e-06 -4.08235e-22)
(-9.15643e-05 0.00014591 0)
(3.60256e-05 -7.24357e-05 5.07286e-22)
(0.000220899 -0.000438476 0)
(-0.000118049 5.57334e-05 -8.49724e-22)
(0.000101775 0.000315418 -7.5496e-22)
(0.000242534 5.49278e-05 -1.38512e-21)
(0.000158886 1.53841e-05 0)
(2.68477e-06 -6.30755e-07 1.30234e-22)
(2.54384e-05 -5.54013e-05 2.07417e-22)
(0.000142958 0.00017506 -2.30934e-22)
(3.97445e-05 -5.59458e-06 -2.32484e-22)
(0.00116727 0.000194507 0)
(4.18884e-06 1.54295e-06 0)
(0.00105768 -6.46356e-05 3.52591e-22)
(0.000729625 1.78838e-05 0)
(-0.000471129 -0.00140743 9.51437e-22)
(1.15633e-05 -1.23127e-05 0)
(2.19305e-06 -6.02554e-06 0)
(4.49933e-05 2.71519e-05 0)
(-0.000507307 -0.00148009 -1.4841e-21)
(0.000156502 0.000317922 -1.20583e-22)
(-0.000168826 2.9066e-05 -1.54528e-21)
(0.000110341 9.31837e-06 2.98771e-22)
(1.87189e-06 6.03014e-07 1.30443e-23)
(-5.97152e-06 4.69688e-05 4.31056e-24)
(1.99595e-05 -2.06883e-05 1.2805e-21)
(3.86652e-05 1.31119e-05 -1.60243e-21)
(3.01908e-05 4.61637e-05 -1.48264e-21)
(0.000181243 6.09155e-05 9.54134e-22)
(0.000154136 2.41736e-05 -1.0634e-22)
(-2.67899e-06 1.46767e-05 -2.90849e-22)
(3.41365e-06 -1.60696e-07 -5.84268e-22)
(0.000146303 0.000160638 7.87773e-22)
(-0.000237413 -0.000784196 0)
(0.000215486 -5.09506e-05 3.25959e-22)
(0.000357204 -0.000343273 0)
(-2.56268e-06 1.56217e-05 -6.95156e-22)
(-0.000233667 -0.000116908 -1.12347e-21)
(6.04965e-05 1.41673e-05 7.30557e-22)
(1.36681e-05 -4.92123e-05 0)
(0.000354145 3.90619e-05 -1.8074e-21)
(-0.00135188 -0.000986025 -8.27375e-22)
(2.54026e-06 -7.61209e-07 0)
(5.53543e-05 9.67991e-06 5.41005e-22)
(0.0002908 0.000347096 4.54671e-22)
(8.13197e-05 2.68518e-06 -4.5992e-22)
(8.7747e-05 -7.3721e-06 -1.04454e-21)
(2.94255e-05 4.65232e-05 2.96856e-24)
(5.57955e-05 -7.71338e-06 0)
(-5.86662e-05 0.000121686 -4.57432e-22)
(0.000282477 -2.19578e-05 1.51431e-21)
(0.00107713 4.99136e-05 -1.86634e-22)
(0.000899158 6.68995e-05 -6.77028e-22)
(0.000894097 0.000516583 1.90122e-22)
(4.30815e-06 -1.89454e-06 1.52835e-21)
(-2.69151e-05 8.57516e-05 -7.53522e-22)
(-4.8611e-07 0.000169279 -4.95142e-22)
(5.82909e-05 -5.40388e-05 3.46114e-22)
(-0.000153051 -8.20271e-05 0)
(0.000251499 4.11228e-05 1.38425e-21)
(0.000406711 2.57891e-05 -5.41026e-22)
(8.1887e-05 6.12712e-06 -2.28504e-22)
(8.71974e-05 0.000300676 0)
(-0.000246156 -0.00116628 2.02195e-22)
(5.9377e-06 -1.92588e-06 0)
(3.70305e-06 -6.53566e-08 1.01195e-21)
(3.2118e-05 -3.5139e-05 1.12497e-21)
(4.84894e-05 3.62242e-05 0)
(7.86032e-06 -3.2333e-05 3.79485e-22)
(7.73188e-06 2.67708e-06 3.22856e-22)
(0.000174065 -0.000526011 -4.83289e-22)
(-7.75635e-05 -0.000124566 7.82155e-22)
(4.62943e-05 8.39309e-05 5.79432e-22)
(0.000152731 1.34576e-05 1.01738e-23)
(4.02274e-06 7.35015e-06 -6.08544e-22)
(4.70142e-06 8.26383e-07 -1.38651e-21)
(-1.10196e-05 0.000174519 -4.35836e-22)
(-0.000214493 -0.0012002 0)
(5.02512e-05 3.56389e-05 0)
(0.00107316 6.73867e-05 2.05064e-22)
(4.32947e-06 -1.45337e-06 0)
(1.18032e-05 -3.70027e-05 2.54455e-24)
(5.72114e-06 2.18966e-06 -2.38416e-22)
(0.000224523 0.000368975 8.44571e-22)
(0.000346206 -0.000156816 0)
(-5.40623e-05 -0.00012612 0)
(0.00113213 0.000186921 0)
(4.16211e-06 7.62774e-06 -2.18635e-22)
(8.5926e-06 -3.8601e-06 -1.31324e-21)
(-0.000198596 -0.000129147 1.08184e-21)
(0.000359154 8.05343e-05 0)
(8.22458e-05 0.000161588 9.78156e-23)
(-2.16425e-08 -3.96557e-06 8.75946e-22)
(5.75946e-06 -1.9879e-06 0)
(0.000154154 -2.40871e-05 0)
(2.81179e-06 -5.44541e-06 -9.59658e-22)
(-0.00023549 -0.00112002 -7.84031e-22)
(5.53888e-05 -5.41727e-05 -3.14034e-22)
(0.000228955 -0.000727328 5.68992e-22)
(7.96951e-06 1.58663e-05 0)
(2.17483e-06 -6.28474e-06 0)
(-2.73441e-05 0.00010578 0)
(3.47653e-05 2.18201e-05 0)
(4.33225e-05 2.7484e-05 5.26914e-22)
(2.00615e-05 -1.17936e-05 -4.61147e-22)
(0.000701828 0.000470569 -4.08394e-22)
(1.40832e-05 4.3021e-05 0)
(0.000868652 2.27271e-05 0)
(0.000433665 -0.000172186 0)
(0.000382217 -0.000236955 -1.07505e-21)
(4.28497e-05 2.34498e-05 0)
(7.80561e-05 -4.81432e-05 9.32057e-22)
(9.04672e-05 0.000170687 1.66199e-22)
(-0.000162813 2.20929e-05 1.99091e-21)
(1.27008e-05 -5.20662e-05 -6.66589e-22)
(-0.000391669 -1.29171e-05 0)
(1.82835e-05 -3.14493e-05 0)
(-3.24016e-06 3.89144e-05 3.15751e-22)
(-0.000317572 0.00038014 -6.92274e-22)
(8.41416e-05 -6.54657e-06 1.48539e-21)
(-2.67521e-05 9.98328e-05 3.7383e-22)
(3.84394e-05 -5.58797e-06 7.80959e-22)
(-0.00135873 -0.000883211 0)
(4.19306e-06 -2.36625e-06 -1.22779e-21)
(-2.50672e-05 -0.000130954 0)
(8.34387e-06 -3.24927e-06 0)
(-2.03454e-05 0.000199732 4.68312e-22)
(-0.000473816 -0.000325783 -8.07701e-22)
(0.00103502 -0.000105168 8.25744e-22)
(5.43924e-05 1.40073e-05 -3.17379e-22)
(8.25323e-05 1.90071e-05 5.02498e-22)
(-0.000139356 0.000103653 -1.44006e-21)
(6.34108e-05 -4.5181e-05 -1.12791e-21)
(1.06337e-05 0.000109628 -2.29202e-22)
(-0.000297439 -0.00127378 1.1091e-21)
(-0.00132466 -0.00105009 -1.02362e-21)
(2.94419e-06 -7.80455e-06 -5.01512e-22)
(0.000752821 -0.00013526 0)
(0.000356818 0.000355275 3.00424e-22)
(3.84671e-05 6.05328e-05 -1.60698e-22)
(2.88133e-06 -8.32487e-06 0)
(-7.65376e-05 6.69027e-05 5.84426e-22)
(0.000880684 3.2942e-05 1.15757e-24)
(1.27516e-06 -6.20579e-06 0)
(0.000106791 9.57606e-06 0)
(2.79891e-05 4.79878e-05 0)
(0.00079367 0.000516815 -1.86554e-22)
(0.000158512 -0.000247453 0)
(-0.00151846 -0.00126026 6.3034e-22)
(-0.000403848 -0.00103042 1.31611e-21)
(-6.53662e-05 5.29356e-05 -1.16451e-21)
(0.000123575 0.000102559 -3.32863e-22)
(-0.000498912 -0.000862697 0)
(1.11004e-05 -6.71044e-05 1.42185e-21)
(0.000369965 -0.000163279 -1.08076e-21)
(6.24547e-05 -1.34055e-05 -5.15287e-22)
(2.7992e-05 4.94889e-05 0)
(3.84741e-05 6.32128e-05 5.3629e-22)
(0.000383188 9.05364e-05 3.21493e-22)
(0.000152728 8.53124e-05 0)
(3.89168e-05 1.57084e-05 3.96556e-22)
(-0.000409838 0.000228344 6.63428e-22)
(0.000243764 -0.000471925 -7.73212e-24)
(3.9839e-05 1.17885e-05 7.16123e-22)
(1.81415e-08 -2.62368e-06 0)
(-1.14991e-05 5.08542e-05 4.85554e-22)
(2.8321e-06 -1.08146e-05 0)
(-1.13131e-06 -6.71617e-05 0)
(0.000329748 8.41668e-05 0)
(6.26498e-05 -4.77341e-05 2.18769e-24)
(8.95194e-05 9.55543e-08 0)
(0.000635184 0.00015847 -1.24155e-21)
(0.000104475 0.000193957 5.45011e-22)
(2.75208e-05 4.93133e-05 7.0741e-22)
(-0.000266404 -0.0012516 -1.26336e-21)
(0.000131635 0.000296028 -6.32903e-22)
(1.10918e-07 -1.27883e-06 7.39892e-22)
(4.92047e-06 3.36335e-07 0)
(3.16142e-05 5.09528e-05 0)
(1.15563e-05 -2.17346e-05 1.18989e-21)
(0.000178307 8.96519e-06 -3.23643e-22)
(0.000380794 0.000331808 -6.83481e-22)
(-0.000419331 -2.70756e-05 -3.80612e-22)
(1.24636e-05 -3.76195e-05 -1.00959e-21)
(1.26015e-05 -5.28369e-05 0)
(0.000239215 4.22334e-05 -9.75765e-22)
(-0.000250699 0.000263871 0)
(0.000271404 0.000289904 7.68887e-22)
(2.97965e-06 -4.80271e-06 -8.013e-24)
(-0.000310741 -0.00197003 0)
(0.000236253 7.28567e-05 4.39549e-22)
(0.000766239 -2.67992e-05 3.45492e-22)
(2.61994e-06 -2.94773e-05 -2.43193e-21)
(-4.69178e-05 -0.000218765 6.18405e-22)
(0.000478288 -8.54881e-06 0)
(3.08308e-05 5.08878e-05 -6.48207e-22)
(0.000975825 0.000471503 1.19377e-21)
(0.000631256 0.00049728 0)
(4.25135e-06 1.5635e-06 3.62942e-22)
(1.48464e-06 -6.77935e-06 -3.85001e-22)
(-0.000378081 -1.82453e-05 -4.83677e-22)
(-0.000412239 -2.42227e-05 0)
(0.00027325 -2.61567e-05 -1.57324e-21)
(1.42431e-05 2.6841e-05 9.83286e-22)
(-5.45127e-05 -0.000318863 1.56168e-21)
(0.000341088 -0.000617658 0)
(5.49732e-06 2.34329e-06 -8.365e-22)
(2.52765e-05 3.85743e-05 -7.77514e-22)
(0.000175186 0.000286854 -5.92378e-22)
(7.83502e-06 -1.52506e-06 1.84311e-21)
(1.68242e-06 -1.37998e-05 8.37566e-22)
(0.00021129 -0.000746164 -7.07482e-22)
(1.66035e-05 3.74619e-05 1.01794e-22)
(3.00335e-06 -1.09778e-05 -1.27386e-21)
(-1.84536e-05 -0.000248496 -7.18162e-22)
(-1.01845e-06 2.71495e-06 9.34145e-22)
(-8.09696e-05 -0.000174727 -1.79788e-21)
(0.000140585 8.7582e-05 -4.70041e-22)
(0.000801195 -0.000117198 0)
(0.000118442 -0.000480047 0)
(0.000220468 0.000355544 0)
(-0.000348587 -0.000999742 -1.20118e-21)
(0.000111542 -2.73944e-05 -6.64227e-22)
(4.06392e-06 1.49589e-06 0)
(0.00101526 2.34891e-05 -7.99917e-22)
(0.000125216 0.000411849 3.68401e-22)
(-0.000502631 -0.000330279 7.51123e-22)
(8.53554e-05 1.71564e-05 -1.05168e-21)
(0.00121734 0.000461438 7.33461e-22)
(-2.21905e-05 -0.000135327 0)
(9.84023e-06 -2.04209e-05 0)
(0.000668447 0.000108784 0)
(0.00172898 2.8812e-05 1.04875e-21)
(3.99006e-05 -9.74161e-05 1.03292e-21)
(0.000133085 -9.20573e-05 -7.60246e-22)
(5.96721e-06 -4.26308e-06 0)
(0.000109208 -7.64031e-05 0)
(4.28233e-06 -1.58724e-06 3.74158e-22)
(9.63582e-05 6.67779e-05 7.61497e-22)
(3.0568e-06 -8.89257e-06 0)
(-3.25155e-05 -0.00222351 1.03237e-21)
(-8.76543e-06 1.53835e-05 0)
(0.000357127 -0.00058772 0)
(-7.408e-06 0.000193254 0)
(0.000637534 0.00029838 -6.45053e-22)
(2.70886e-05 -0.000101259 -5.25463e-22)
(0.000274546 -0.000675017 2.79918e-22)
(6.6619e-07 -5.37962e-06 -1.04966e-21)
(-0.000543174 -0.000864042 0)
(-0.000365854 -4.22954e-05 8.24382e-22)
(0.000876803 4.47034e-05 2.95531e-22)
(-0.000236669 -0.000176636 -6.45639e-22)
(1.15714e-05 -2.09926e-05 0)
(0.000530998 8.26442e-05 0)
(1.83646e-05 3.66591e-05 -1.69507e-22)
(-1.10908e-05 -6.09099e-06 -2.54511e-22)
(7.71453e-05 0.000139995 0)
(5.4545e-05 7.33097e-06 0)
(6.52065e-06 -1.5614e-06 1.28534e-21)
(5.88089e-06 1.77446e-06 -4.54245e-22)
(4.82455e-06 7.7792e-07 7.16711e-22)
(-6.5637e-05 -0.000107013 -6.56314e-22)
(-0.000311974 -0.000102003 -8.71533e-22)
(-3.14707e-07 -6.57403e-05 -2.01599e-21)
(0.000482238 1.78163e-06 5.74281e-22)
(0.000256737 8.05335e-06 -3.04641e-22)
(7.41277e-06 1.66484e-05 7.1198e-22)
(1.53632e-06 -8.51343e-06 -3.85483e-22)
(-5.44333e-05 -6.81496e-05 -6.81065e-22)
(4.9932e-05 -9.58505e-05 0)
(2.79239e-05 4.82989e-05 0)
(4.60241e-05 7.86912e-05 6.85227e-22)
(-4.00123e-06 3.48173e-05 -6.2007e-22)
(9.29406e-05 -0.000116319 0)
(3.77933e-05 0.000263201 -4.71385e-22)
(8.77032e-05 0.000168219 4.91076e-22)
(7.59177e-06 -9.39354e-07 -7.77839e-22)
(0.000131718 0.000103217 7.47308e-22)
(-1.19511e-05 4.11263e-05 7.07275e-22)
(8.35269e-05 3.30578e-05 0)
(0.000392223 -0.000277471 -5.36095e-22)
(1.36299e-06 -7.80449e-06 -3.93018e-22)
(0.00105733 1.98005e-05 1.35336e-21)
(2.04552e-05 -1.77611e-05 -2.7659e-22)
(1.66612e-06 -1.31447e-05 -5.55442e-23)
(0.000591168 0.000526625 -3.65341e-22)
(1.7926e-06 -8.03755e-06 7.71948e-22)
(5.79849e-06 2.85927e-06 0)
(1.3286e-05 -8.93346e-06 0)
(-0.000378031 -0.00209531 5.43427e-22)
(0.000139687 0.000385388 -1.10832e-21)
(5.71755e-06 -2.33679e-06 8.37854e-22)
(5.81116e-06 -5.24448e-06 1.32092e-21)
(4.19402e-05 2.18753e-05 0)
(0.000278631 0.000325148 0)
(0.000106686 -3.48275e-05 -3.46278e-22)
(-7.50709e-07 -4.53107e-06 1.44704e-24)
(3.92953e-06 -1.32442e-05 -5.8919e-22)
(8.57524e-06 1.60227e-05 3.66206e-22)
(4.46456e-06 -1.03935e-06 -1.22711e-21)
(0.00034469 -0.000277315 9.6902e-25)
(4.68878e-06 -1.95004e-07 1.04602e-21)
(9.62759e-06 0.000234987 0)
(3.78933e-05 -1.96219e-05 1.67916e-21)
(1.59041e-06 -8.46536e-06 -4.04398e-22)
(0.00165933 -6.92294e-05 0)
(2.87816e-06 -9.91189e-06 0)
(0.000966064 -0.000370165 0)
(1.55505e-05 3.68711e-05 -7.87364e-23)
(-0.00176301 -0.00371118 -4.81603e-22)
(0.000699243 0.000124809 4.20511e-22)
(4.13404e-06 -1.5835e-06 7.66124e-22)
(0.0001833 1.69286e-05 -1.12214e-22)
(-0.000433779 0.000267063 -3.63907e-22)
(5.2409e-05 -3.97377e-05 3.27449e-24)
(4.60448e-06 1.24196e-06 7.6484e-22)
(3.17521e-05 -0.00019993 1.08599e-24)
(-0.000105005 -0.000536111 -7.94964e-22)
(6.04616e-07 -5.0649e-07 -1.32773e-21)
(0.000801501 6.77525e-05 6.92762e-22)
(0.000686703 0.000529608 1.00618e-21)
(4.09163e-06 -1.63934e-06 -4.12218e-22)
(4.13707e-05 2.98361e-05 -5.1555e-22)
(0.00065085 0.000113921 1.11589e-21)
(0.00032462 -0.000256694 1.62716e-21)
(4.71668e-06 -1.0025e-05 7.61118e-22)
(-1.58901e-06 0.000259852 0)
(0.000767583 -0.000133634 0)
(5.18307e-07 -5.37815e-07 1.3811e-21)
(-7.11825e-05 -0.000191647 9.41481e-22)
(-0.000235103 -0.000206785 0)
(-0.0002261 -0.00114969 -7.88797e-24)
(-1.17342e-05 3.96121e-05 -6.64518e-22)
(4.4846e-08 -1.74621e-05 -1.59365e-21)
(6.46379e-05 9.15438e-05 -1.96586e-22)
(5.56083e-06 4.30574e-06 -2.06492e-22)
(0.000209265 -0.00139123 8.79242e-24)
(0.000888979 7.19389e-05 0)
(1.43409e-05 -2.51831e-05 0)
(0.000328245 0.000450015 -4.69147e-22)
(-0.00164146 -0.00308524 -1.4233e-21)
(-0.000397711 -2.20939e-05 7.68364e-22)
(0.000233313 7.34921e-05 5.03382e-22)
(5.54023e-06 -2.33288e-06 -8.38104e-22)
(6.51229e-05 8.54658e-05 -6.33367e-22)
(-5.19232e-06 -0.000147759 0)
(1.77849e-06 -9.15335e-06 7.75558e-22)
(-6.98958e-05 0.000158525 0)
(8.44584e-05 0.000168941 5.98131e-22)
(-0.000209134 0.00020003 0)
(-0.000624979 -0.000140333 6.04696e-22)
(0.000227887 -0.000553367 5.10866e-22)
(4.41975e-06 -1.26098e-06 7.87439e-22)
(2.97026e-05 -0.000223125 0)
(3.96936e-06 3.89564e-08 3.25592e-22)
(0.000117217 0.000174372 -1.33231e-21)
(3.9306e-06 2.42351e-07 -3.96705e-24)
(1.38965e-05 -0.000225892 6.83138e-22)
(4.81123e-05 -3.34804e-05 -1.59761e-21)
(8.28411e-05 -3.4438e-06 -5.0273e-22)
(5.85247e-06 1.67153e-06 0)
(0.00075026 -8.53981e-05 7.18297e-22)
(8.80904e-05 0.00011171 6.27431e-22)
(0.000588817 0.000498535 0)
(4.05051e-05 8.31965e-06 -2.08218e-22)
(6.80331e-05 -6.81039e-05 0)
(2.70272e-06 -6.02817e-06 -1.70738e-22)
(2.83537e-06 2.85829e-06 -2.60489e-22)
(0.00101696 3.69457e-05 0)
(5.33853e-06 -3.92925e-06 4.24083e-22)
(-4.365e-05 -0.00017225 -4.40991e-24)
(1.40362e-05 -4.81151e-05 0)
(7.79841e-05 -3.83432e-05 -1.89674e-21)
(0.000673105 -3.55958e-05 5.40267e-22)
(5.36593e-06 -3.12125e-06 4.18844e-24)
(-2.71861e-07 1.77925e-05 1.0467e-21)
(5.89112e-06 -2.28583e-05 0)
(0.000663608 -1.73121e-05 -6.91125e-22)
(2.37642e-06 -4.6359e-06 9.30777e-22)
(-1.44364e-06 1.74535e-06 -4.48348e-22)
(0.00078974 0.000128079 0)
(9.13146e-06 0.000271754 6.40744e-22)
(3.67334e-06 -9.99022e-08 4.82801e-24)
(2.62061e-06 3.59582e-06 2.88169e-22)
(-1.04955e-05 -4.47124e-06 0)
(-1.6367e-06 -2.33169e-05 8.60911e-22)
(-5.50654e-05 0.000255178 -2.75863e-22)
(5.54203e-06 -2.94977e-06 8.12713e-22)
(0.000604613 -1.52671e-06 0)
(0.000102244 9.67974e-05 1.92417e-21)
(-5.24272e-05 3.93554e-05 5.10544e-24)
(1.93071e-05 -1.19296e-05 0)
(7.69633e-05 0.000129529 6.00197e-22)
(4.29406e-05 2.95193e-05 -1.16854e-21)
(1.43433e-06 -5.68448e-06 2.38101e-25)
(0.0001042 4.45555e-06 -1.16372e-21)
(0.00059851 0.000460428 0)
(-6.19028e-05 5.84166e-05 -6.37963e-22)
(-0.0004749 -0.000392688 -8.35363e-22)
(-2.41155e-05 -0.000310261 -1.80236e-21)
(0.000102266 -4.29713e-05 0)
(0.000116993 -9.85319e-05 -6.02879e-22)
(-0.000311533 1.41127e-05 3.54139e-22)
(4.84015e-07 5.23318e-05 0)
(0.000367989 -8.9304e-05 0)
(-2.24401e-08 -2.68709e-06 -5.25749e-22)
(0.000743197 -6.68981e-05 -1.20848e-21)
(3.21928e-06 -2.15324e-07 1.11694e-21)
(-0.000483307 -0.000884165 0)
(1.99762e-06 6.92239e-07 -2.20678e-22)
(2.27364e-05 3.82046e-05 1.02819e-21)
(-7.26528e-08 1.11269e-07 2.53132e-22)
(0.000907667 0.000495369 -1.11343e-21)
(1.26386e-05 -2.37621e-05 0)
(-5.67194e-05 6.08882e-05 6.53771e-22)
(5.39339e-05 -9.854e-06 -7.19793e-22)
(0.000101391 0.00027062 0)
(-0.000359261 -3.44482e-05 5.88484e-22)
(4.87795e-06 -5.27313e-06 0)
(1.45168e-05 2.76775e-05 0)
(-3.80101e-05 -0.000146152 0)
(0.000284185 6.04182e-05 -1.90775e-21)
(2.61529e-05 -0.000129382 0)
(0.000797853 4.06934e-05 0)
(-0.00147001 -0.00158745 -1.04752e-21)
(-1.78803e-05 -8.92364e-05 -5.24027e-22)
(5.25202e-05 6.7557e-06 -1.17491e-21)
(0.000730195 -2.08146e-05 -6.86613e-22)
(-0.000314528 -0.000114794 0)
(3.04091e-05 -3.54017e-05 -1.09424e-21)
(-0.000140397 -0.000222044 0)
(0.000120796 -7.87384e-05 9.23883e-22)
(-1.07364e-06 -4.6447e-06 -4.7093e-22)
(0.000139608 -0.000130479 0)
(-7.85928e-09 -1.01563e-06 -5.11614e-22)
(1.78951e-05 3.73107e-05 2.31131e-22)
(0.000397186 -0.000172634 4.95046e-22)
(-1.8662e-05 3.52006e-06 3.65375e-22)
(5.31864e-05 -0.000132243 0)
(0.000851442 -5.21053e-06 0)
(9.33643e-06 -1.93909e-05 6.96048e-22)
(-1.09238e-06 -2.28887e-05 -2.80205e-21)
(3.32507e-06 -1.46377e-05 -1.14136e-21)
(0.000296231 0.000435774 4.4055e-22)
(-0.000405833 -0.00284796 0)
(3.8317e-05 -1.7999e-05 -9.74736e-22)
(1.09066e-05 4.66206e-05 4.1869e-22)
(3.59778e-06 7.3262e-07 -5.27568e-23)
(-0.000868264 -0.000313362 -9.16534e-22)
(2.07619e-06 -1.14315e-06 6.54942e-22)
(0.000323892 2.75881e-06 -7.59599e-22)
(2.79592e-06 -1.39884e-05 0)
(0.000231819 1.09143e-05 0)
(0.00121399 0.000463773 0)
(8.78217e-05 0.000256476 4.84949e-22)
(7.83504e-08 -2.52233e-06 3.68174e-24)
(3.74949e-06 -1.16203e-05 0)
(0.000796242 -0.000104762 0)
(3.69463e-06 9.03641e-07 0)
(1.16768e-05 -1.19318e-05 7.88697e-22)
(0.000415547 0.000244434 -4.90138e-22)
(0.000625483 0.000200986 3.33382e-22)
(0.000115655 -2.61439e-05 0)
(2.46492e-06 -5.89649e-06 0)
(6.60518e-08 -7.37696e-07 3.73279e-24)
(-7.98504e-06 1.49673e-05 1.6915e-22)
(0.000604206 0.000338076 2.11424e-22)
(0.00019623 -0.000291941 -8.55918e-22)
(7.36689e-05 -7.98551e-06 4.56679e-22)
(1.04928e-05 -1.05218e-05 -7.36586e-22)
(1.09489e-06 -6.38412e-06 0)
(1.28979e-05 -7.60111e-05 -6.18708e-22)
(4.87797e-06 0.000242677 5.49325e-22)
(8.27485e-05 8.85428e-05 7.09202e-22)
(-9.81848e-05 6.93793e-05 0)
(4.11739e-08 -2.12496e-06 0)
(-0.000289356 2.33423e-05 0)
(0.000607338 0.000320271 0)
(2.42723e-05 -4.51044e-05 1.14063e-21)
(2.52848e-05 6.35205e-05 0)
(-5.60665e-06 -5.71685e-05 1.43359e-21)
(5.47979e-06 -2.5237e-06 0)
(0.000160304 -0.000484119 0)
(0.000679901 0.000503547 0)
(4.25421e-08 -1.36785e-07 0)
(-3.46854e-05 0.000226759 7.27143e-22)
(-0.000489649 -0.000393381 -7.49952e-22)
(0.000802268 0.000133088 -8.07253e-22)
(0.000703647 -7.29162e-05 0)
(3.09407e-06 1.15136e-07 1.05175e-21)
(3.76654e-05 1.66737e-05 -4.36094e-22)
(5.20229e-05 4.74049e-06 1.14256e-21)
(3.71097e-06 1.33086e-06 2.97202e-22)
(-5.97725e-06 -5.58262e-05 -8.76264e-22)
(1.27869e-05 3.09544e-05 1.35638e-24)
(0.000419191 -0.000274377 8.61629e-22)
(5.28957e-06 -2.44936e-06 0)
(0.000109539 -8.18759e-05 -1.68392e-21)
(-7.72983e-06 -5.56073e-05 0)
(8.01401e-05 -5.09063e-05 -1.86065e-21)
(-4.16705e-08 2.26094e-06 -6.15085e-22)
(5.00906e-09 -1.93331e-06 0)
(0.00019172 -0.000287284 -1.11469e-21)
(-1.81412e-05 4.72535e-06 1.99313e-22)
(-0.000502598 -9.1782e-05 -3.91898e-23)
(-8.17965e-05 4.14783e-05 6.12456e-22)
(-5.0855e-06 -1.04976e-07 2.0536e-22)
(5.37596e-05 1.15031e-05 9.23048e-22)
(-1.06238e-05 -3.47964e-06 2.18571e-22)
(7.77904e-06 -9.63102e-08 -1.34697e-21)
(-0.000116711 0.000116468 4.01453e-22)
(1.32342e-06 -6.12175e-06 -7.3898e-22)
(0.000518609 0.000235427 4.41862e-22)
(-0.00150048 -0.00135186 -5.48284e-22)
(0.000411079 0.000165351 -1.00607e-24)
(2.32658e-06 -7.18309e-05 7.05526e-22)
(8.47218e-06 -5.19412e-06 -3.90911e-22)
(4.51915e-06 -4.97962e-06 5.49139e-22)
(-5.24567e-05 3.45911e-05 2.71007e-22)
(-0.000292805 0.000291786 0)
(2.32046e-05 0.000116049 -7.84563e-22)
(1.7121e-06 -5.67222e-07 3.75788e-23)
(3.06198e-06 -1.39825e-05 0)
(1.31658e-05 -2.37079e-05 0)
(-0.000406844 -1.91129e-05 0)
(6.05847e-07 -4.89966e-06 2.60817e-22)
(-3.53183e-06 6.21986e-06 0)
(0.000164704 6.4432e-05 -8.56411e-23)
(1.34844e-05 2.9352e-05 0)
(-5.91128e-07 4.0687e-06 0)
(0.00104243 1.16355e-05 1.31454e-21)
(0.000258896 -5.5133e-06 -9.92609e-22)
(-8.59463e-06 -2.93775e-06 0)
(7.80432e-05 -7.42708e-05 0)
(-0.000203971 -0.000159496 0)
(5.40513e-05 -3.76934e-05 1.28859e-21)
(9.9711e-05 6.34804e-06 5.66847e-22)
(-2.30805e-08 -1.80507e-05 -1.12203e-21)
(1.41631e-06 -1.39242e-05 -1.09476e-21)
(0.000265859 -2.97324e-05 -2.64223e-22)
(-7.41725e-05 6.14022e-05 -5.53182e-22)
(-0.00085601 -0.000248863 5.04896e-22)
(-0.000174002 -0.000169665 0)
(0.000189444 7.84682e-05 -6.92468e-22)
(1.28563e-05 -8.66062e-06 0)
(0.000871757 0.000123927 0)
(1.36911e-05 -8.89827e-06 0)
(3.66813e-08 -8.73449e-07 -3.7805e-22)
(0.000561365 -0.00143389 -1.41087e-23)
(-1.42262e-05 -7.129e-06 0)
(0.000586302 -0.000184711 -6.62243e-22)
(0.000387497 -0.000114522 5.16714e-22)
(3.21223e-06 3.55568e-09 0)
(0.000385937 0.000185276 4.25949e-22)
(0.000369457 -4.38793e-06 0)
(-0.00145063 -0.00142552 4.95453e-22)
(0.000115981 7.12901e-05 0)
(-4.03248e-05 4.06541e-05 6.41378e-22)
(0.000110421 7.38191e-05 2.54092e-24)
(0.000854082 1.70879e-05 0)
(2.96235e-06 5.86188e-05 0)
(-0.000427271 -0.00373905 -1.10088e-21)
(-0.000274286 2.15877e-05 4.88363e-22)
(0.000116262 0.000306372 9.21575e-22)
(5.59782e-08 -4.62801e-07 -6.06845e-22)
(-8.22999e-06 1.36511e-05 -3.25679e-22)
(7.60996e-06 -4.58748e-05 0)
(-0.000543892 0.000188554 1.9215e-22)
(-7.33688e-08 -1.95765e-06 6.62623e-23)
(-1.95771e-05 9.48599e-05 0)
(0.000540366 -0.000200392 0)
(0.000119844 -0.000334735 2.04706e-22)
(8.72608e-06 -3.21826e-05 -7.96617e-22)
(-1.8563e-05 0.000219192 7.76255e-22)
(-0.000269868 -0.000200541 2.84156e-22)
(-0.000277782 -0.000340687 1.47576e-21)
(3.73405e-05 -7.59888e-06 8.59046e-22)
(6.82378e-05 1.94624e-05 6.29577e-22)
(9.4611e-07 -1.54129e-05 -2.20455e-21)
(3.00597e-05 -3.45019e-05 1.14299e-21)
(0.000798536 0.000198099 -7.53299e-22)
(5.77043e-06 8.33948e-07 1.15087e-21)
(1.61942e-06 -1.55266e-05 0)
(-5.41525e-06 4.30875e-07 5.75299e-22)
(3.65519e-05 -7.01968e-05 0)
(-0.000178475 -0.00121948 1.01011e-21)
(-8.38962e-06 -3.43153e-06 0)
(0.000386013 1.95534e-05 1.46498e-21)
(-1.13468e-05 -5.08968e-06 2.6316e-22)
(0.000906241 3.85937e-05 7.6746e-22)
(5.75044e-06 4.65217e-07 -1.63681e-21)
(-0.00122432 -0.00095852 0)
(0.000305799 -0.000130634 0)
(-3.96359e-06 4.85149e-05 -7.2803e-22)
(-0.000119128 5.2868e-05 -1.47339e-22)
(7.83795e-05 8.6986e-05 -6.77104e-22)
(6.40811e-06 -2.3412e-05 6.55535e-22)
(0.000562405 -0.00179581 -7.00386e-22)
(0.000208702 -0.00133055 0)
(1.3391e-05 -9.07837e-05 0)
(4.54225e-05 -2.79256e-06 1.32546e-21)
(7.52208e-06 -0.000114824 1.92926e-24)
(-0.000604675 -0.003697 1.25338e-21)
(4.61244e-05 -0.000114551 0)
(-0.000521868 -4.56586e-05 0)
(1.80122e-05 -3.05836e-05 -3.74004e-22)
(-6.3543e-05 -9.28152e-05 1.30545e-21)
(-0.000678266 -0.000227626 -7.02753e-22)
(7.45252e-06 1.37731e-05 0)
(1.02107e-05 -1.16001e-05 4.55624e-24)
(1.95518e-05 -1.93738e-05 -4.93245e-22)
(7.81606e-06 -6.66695e-07 9.747e-22)
(-0.00132202 -0.0029775 -2.16821e-21)
(-8.13105e-07 5.48058e-05 0)
(3.37299e-05 2.06517e-05 4.07518e-22)
(5.50658e-06 5.93291e-05 0)
(0.000616824 0.000300534 -1.25124e-21)
(6.60939e-05 2.17356e-05 -7.20588e-22)
(-9.19997e-06 3.91547e-05 1.22336e-21)
(7.43068e-06 -4.54228e-05 6.18528e-22)
(3.49822e-06 7.46912e-08 -1.2366e-21)
(-0.00161136 -0.00123428 0)
(1.0779e-05 -0.000173917 0)
(-6.78631e-05 5.3356e-05 0)
(2.63729e-05 4.58264e-05 -1.01452e-21)
(0.000397632 -0.000244606 0)
(2.2738e-06 3.39509e-06 5.43793e-22)
(9.44994e-05 6.55232e-05 0)
(-8.88216e-06 3.74694e-05 -5.42891e-22)
(-0.000377246 -1.66816e-05 0)
(8.5531e-05 -3.8851e-05 0)
(-2.26643e-08 4.82201e-06 4.83737e-23)
(1.44167e-05 2.89031e-05 0)
(7.16927e-06 2.02621e-05 0)
(2.68863e-06 3.12569e-06 5.94225e-22)
(3.49875e-06 1.89766e-06 -3.11769e-22)
(0.000140423 -0.00022405 1.34433e-21)
(5.18951e-05 -9.38911e-06 3.45699e-22)
(-3.20316e-06 -0.000128007 0)
(0.000898888 9.96149e-05 0)
(-1.39397e-06 3.02077e-06 -1.683e-22)
(-7.28692e-06 1.33923e-05 3.71856e-24)
(-0.00125276 -0.000903221 9.10038e-22)
(0.000881522 0.000113403 6.85052e-22)
(0.000112578 -0.00124341 8.2525e-22)
(2.27018e-06 -1.67099e-05 0)
(1.59051e-06 -6.46601e-06 2.37285e-21)
(1.01031e-05 -6.86522e-05 1.15469e-21)
(3.46427e-06 -9.63535e-07 -7.24332e-22)
(0.000196882 -2.30957e-05 0)
(-0.000363281 -0.000104577 1.16833e-21)
(2.84616e-05 -3.4878e-05 0)
(9.82606e-09 -7.8701e-08 1.36298e-21)
(1.91903e-06 -6.28037e-06 -7.36403e-22)
(6.42164e-05 2.80285e-05 0)
(5.24555e-05 -5.02742e-05 1.29378e-21)
(-1.1762e-05 -0.000102727 5.95355e-22)
(1.21836e-06 -1.30148e-05 4.85115e-22)
(3.22671e-08 -1.28538e-06 8.89029e-22)
(6.39131e-05 2.6093e-05 0)
(4.17909e-05 -0.000307912 8.14652e-22)
(2.1745e-05 -4.63953e-05 7.49286e-22)
(1.82224e-06 5.55519e-05 0)
(0.0001112 7.22485e-05 0)
(0.000901562 2.98866e-05 -8.90307e-22)
(1.41136e-06 -6.8662e-06 3.7208e-22)
(3.56521e-06 5.94851e-08 -3.6794e-22)
(-0.000676328 -0.00373281 -6.4209e-22)
(-0.000118127 0.000107108 1.5819e-21)
(0.000149853 0.000448815 -3.73892e-22)
(3.03139e-06 1.48714e-07 -9.7998e-22)
(-3.99323e-05 7.50265e-05 1.24048e-21)
(1.63104e-05 2.12389e-05 -6.12698e-22)
(0.000248994 -4.56223e-05 -9.10003e-22)
(2.83684e-05 4.5858e-05 -1.2564e-21)
(2.92879e-05 4.64453e-05 3.40247e-22)
(-0.000153738 0.000122033 0)
(5.33928e-06 1.17057e-05 0)
(-0.000162251 -0.000245248 2.92483e-22)
(8.7248e-05 -0.000525695 7.62628e-22)
(0.000360158 -8.97238e-05 0)
(5.25843e-06 1.68442e-06 -1.37536e-21)
(4.46933e-06 9.99058e-07 -2.1987e-22)
(3.16604e-06 1.75493e-07 3.69505e-22)
(3.38909e-06 -2.88301e-07 4.26825e-22)
(-4.4994e-05 7.95991e-05 -1.29939e-21)
(-4.45531e-06 3.59863e-05 9.69856e-22)
(2.18639e-05 -7.77838e-05 0)
(3.93185e-06 -1.52388e-07 0)
(1.32519e-07 1.84618e-05 4.54051e-22)
(0.000216304 -7.58526e-05 3.52619e-22)
(1.61947e-06 -6.32269e-06 -1.56485e-21)
(4.7208e-06 -5.19897e-07 -7.38315e-22)
(5.02486e-06 -2.34125e-06 9.17687e-22)
(9.86919e-06 -0.000183562 1.00277e-21)
(-0.000486631 0.000162733 0)
(4.36775e-06 1.76114e-06 3.79218e-22)
(5.17149e-05 -4.84303e-05 -1.22942e-24)
(-0.000120358 -6.58771e-06 6.66438e-22)
(2.83848e-05 6.52297e-05 0)
(9.35962e-05 -1.74135e-05 -6.09069e-22)
(0.00014227 -0.000106045 0)
(0.000810533 -0.000153143 9.55617e-23)
(0.000195631 9.33747e-05 -8.62868e-22)
(3.05934e-05 -3.00799e-06 -1.12922e-21)
(-9.90553e-05 0.000100738 -4.06314e-22)
(4.46627e-06 1.23145e-06 0)
(0.000606559 9.47439e-05 3.86643e-22)
(3.00903e-06 -8.77123e-05 1.74298e-21)
(3.36828e-06 -8.70987e-07 7.30075e-22)
(0.000762585 0.000457186 5.57101e-22)
(-7.83381e-05 -0.0010133 -4.98004e-22)
(9.97737e-06 -1.15433e-05 -5.74167e-22)
(-3.65102e-06 2.14724e-05 6.50683e-22)
(0.000147919 6.39908e-06 -8.08218e-22)
(0.000190457 8.51844e-05 7.88579e-22)
(2.04713e-05 -1.87899e-05 2.44304e-22)
(0.000536797 -0.000313305 8.91703e-21)
(-0.000100278 -3.06873e-05 7.59844e-22)
(1.45141e-05 -0.000100543 2.94886e-24)
(1.48584e-05 -4.97382e-05 1.48469e-21)
(-3.48632e-05 0.000247906 -1.13196e-21)
(0.000284365 3.49773e-05 2.69528e-22)
(6.22399e-06 -2.72961e-06 0)
(1.31187e-06 3.11188e-05 0)
(0.000599985 0.000307695 5.94856e-22)
(-8.63304e-06 4.74007e-05 2.95445e-22)
(7.10065e-05 -7.34671e-06 4.03021e-22)
(-5.08913e-05 -0.000258827 -1.58958e-21)
(3.43912e-05 4.65697e-05 0)
(-2.58788e-05 7.95262e-05 9.75102e-23)
(1.11776e-05 4.57363e-05 -4.55727e-22)
(0.000173731 -0.00116503 -1.28375e-21)
(2.42308e-05 -4.32303e-05 -1.80914e-21)
(1.28274e-05 1.95436e-05 0)
(0.000171381 2.19946e-05 -2.54879e-22)
(2.9321e-05 6.75727e-06 0)
(4.62141e-06 -7.28609e-07 7.52934e-22)
(-4.68016e-05 -0.000283373 1.16109e-21)
(3.32932e-06 -1.24026e-07 -1.10453e-21)
(5.82526e-05 1.32836e-05 -1.31417e-21)
(5.16529e-06 1.78535e-06 1.39808e-21)
(8.1024e-05 -6.15319e-07 0)
(-0.000423246 -3.57058e-05 0)