/*--------------------------------*- C++ -*----------------------------------*\
| =========                 |                                                 |
| \\      /  F ield         | OpenFOAM: The Open Source CFD Toolbox           |
|  \\    /   O peration     | Version:  v2012                                 |
|   \\  /    A nd           | Website:  www.openfoam.com                      |
|    \\/     M anipulation  |                                                 |
\*---------------------------------------------------------------------------*/
FoamFile
{
    version     2.0;
    format      ascii;
    class       volScalarField;
    location    "250";
    object      ddt0(ReThetat);
}
// * * * * * * * * * * * * * * * * * * * * * * * * * * * * * * * * * * * * * //

dimensions      [0 0 -1 0 0 0 0];


internalField   nonuniform List<scalar> 
18355
(
-0.639437
-0.843905
-0.00053758
0.116369
1.94459
-104.794
-0.192931
117.362
-8.95046
-0.105579
0.489879
-0.0223196
63.6538
-0.97603
-4.90542
-4.69231
-0.0432904
-0.0738156
1.17889
-0.813892
-3.86505
-2.56573
0.838452
6.8741
35.2448
-2.9883
0.795093
-13.5529
0.147602
-1.01006
3.44377
6.20532
-0.0908417
0.0312727
-2.38964
-0.255474
13.9812
-18.4078
4.28982
1.04388
0.415518
-14.3031
-0.376245
0.00163765
0.350934
-65.2495
-16.9378
19.1815
3.74094
-0.171226
0.127707
-0.723063
-0.186485
0.35631
-0.323469
-0.12342
-83.1415
-1.72119
78.9975
51.4121
-0.161651
-33.2008
0.0935478
-16.4348
-0.0509729
2.13512
-0.108088
-0.772349
0.278422
-10.1654
-172.126
-0.0593759
-139.801
0.0976747
133.079
-0.031144
3.67227
2.55493
38.5192
-0.509293
-0.160649
-466.754
-1.91554
-5.73047
-0.243332
44.0173
-1.02518
-0.841418
0.180493
0.938546
118.64
0.19537
-0.204976
0.0846486
-0.0467212
0.765956
-0.531677
32.723
0.19203
-0.064392
0.172249
-0.0289507
-5.36141
218.015
-7.59489
51.7214
0.184089
-18.8471
-16.9739
4.85151
0.518073
7.97255
-6.57648
15.6726
-0.547741
-0.0756104
-4.90934
3.39545
-57.4315
0.878092
-0.032755
-1449.08
4.92351
-13.734
0.0417087
-24.5611
-0.681576
0.0987382
134.277
0.12516
0.130592
43.2454
-47.4334
-9.51991
-6.83574
0.321779
-2.67228
-0.0217289
0.126456
-4.87379
0.208135
0.252239
-3.39492
3.15472
-16.1856
7.25092
6.18048
-0.0787336
0.187495
0.634513
15.2658
8.17278
14.2085
10.6474
-14.88
-0.0530586
-1.49878
24.3073
0.216285
-38.386
1.66005
5.74314
91.8825
-25.3116
2.71881
17.4656
0.0489553
-11.2693
8.60451
-0.131914
1.45527
0.688193
0.190648
0.587581
-0.553884
-1.15977
50.7524
-0.586764
807.078
31.7395
-0.444448
-23.3745
-17.7587
-0.183865
32.4213
-1.21678
1.08279
-42.7661
4.09054
-0.0417605
77.5669
-0.731749
7.95939
31.809
2.19405
-11.6803
-427.366
16.3546
36.7999
0.00933074
0.34942
1.01914
-0.790198
0.954121
0.301207
-0.393541
20.898
-0.221111
-0.156267
-13.8956
-2.69209
10.4539
-0.918055
-0.656358
-0.284643
-359.201
-2.55819
-0.897893
-2.21021
0.203728
216.085
1.50322
7.72956
-2.20044
0.0603457
2.3453
-0.16188
-1.26986
1.22584
-1.19797
0.237295
41.3737
0.00674015
-0.177354
-1.54889
-1.96062
-0.622379
73.4806
-320.394
0.252048
-8.96151
-91.2158
0.090699
-0.261122
-17.6674
-1.21983
-19.0256
-4.90911
40.8902
0.557853
4.48647
-120.012
-38.4496
-0.179923
22.6067
-0.0609781
-2.96677
-12.3641
-0.0917332
-0.175092
1.41614
-57.8108
-4.0741
-23.1981
-0.224433
-0.331665
-0.238367
30.4896
-4.70053
0.952246
-12.9479
1.0159
-59.4664
64.813
1.79037
-60.4549
-0.718188
-0.365853
739.232
-0.213436
-0.133502
-67.2635
0.372632
0.0253796
-27.7339
-7.49327
-0.0457384
-8.27384
-0.0489918
20.026
0.0314263
0.0903944
4.38208
-0.30014
-0.774061
-0.00825183
-2.43993
-4.13425
117.209
-41.4191
-0.0482412
-187.181
-5.74334
-0.0180112
-40.7922
45.8795
-759.344
-28.2134
0.133057
-2.69039
13.8096
-0.554476
131.901
-0.748788
-80.6441
-20.5809
-0.747766
0.18991
158.641
1.2464
-0.254892
0.50487
-39.469
-0.0152447
2.57132
-23.2169
-21.4724
-0.937933
-13.043
0.0819992
98.8454
-2.21928
0.232539
-0.144692
132.719
-0.0495847
-0.272305
2.70932
-1.03474
-0.402786
-11.4239
-40.822
74.0632
0.145419
41.4602
4.42731
-0.0484874
0.620211
1.64161
1.08777
-1.00004
-179.482
-22.2639
-19.1736
0.660501
-0.391865
-0.51742
-0.974675
-0.437978
-2.77099
89.574
-57.8395
8.66776
1.48814
-0.330324
69.4824
-1078.02
0.489067
0.00773479
-6.14923
-1.14284
0.452997
-0.956395
0.683738
-5.48666
0.148173
-0.901488
-1.20286
5.60698
1.06482
3.29542
0.815156
0.584155
0.358
-5.21308
-0.177458
-0.624479
13.6808
-6.46404
0.0336085
-12.1293
-519.487
-7.05555
-2.91235
-0.806835
-0.00357794
-2.84643
0.126599
0.00713769
-0.202166
0.256604
39.4641
-0.854603
-0.861874
2.41176
-0.173836
-20.8318
-0.605643
60.0085
-0.099543
-1.57773
-0.0577256
151.915
5.1813
-7.53038
-0.0835145
-0.0861076
0.121191
5.01409
-0.251694
-0.083652
-0.0366989
-0.118185
-0.0757243
14.4625
84.1566
-0.051525
9.83237
-0.92054
3.8198
-81.6899
1.68533
86.0732
0.0414642
-0.15683
6.01147
3.13492
4.3364
2.19988
-0.00970808
-0.179311
-168.658
0.155388
-4.4584
-4.56847
0.259909
-8.60382
-95.1835
-0.261602
-0.0648754
-1.32805
-1.04973
-47.7632
0.0749793
10.4358
-0.0591693
-0.172055
-0.444752
-0.476191
-0.502322
0.226473
-0.0376571
20.1194
7.98623
1.06259
0.0661707
-1.17962
-2.48546
-0.0997173
-0.661073
-0.148858
0.235275
0.157762
-0.52773
0.34256
-2.0511
0.0918431
1682.06
-29.6431
-0.157965
5.21615
-7.47957
-178.413
-0.61107
0.4532
10.8092
-2.81183
0.281033
-55.8583
-0.11723
0.190975
-28.8237
-0.1317
-0.225179
0.232445
-0.0776665
-0.927407
0.256474
-1.32135
-30.7994
-4.91932
0.774023
4.15516
25.9821
-508.795
0.128816
2.62939
-1.19879
0.756365
-0.392505
-1.44577
0.629966
-1.70871
0.432662
-0.0317352
128.493
2.12565
-2.59896
-0.786685
-3.79338
-0.912163
4.85069
-1.05136
-0.461129
-7.47396
-2.41637
-0.134937
-1.86479
-1.14204
-188.345
-0.365917
-82.8369
1276.15
-1.07457
-1.13092
6.23718
19.4019
-0.0998754
6.13644
-48.5095
61.894
256.986
-1.14962
-0.0340264
0.129972
-0.476509
6.10642
-4.33266
-16.3213
-3.30836
10.8909
3.99564
0.167175
-3.56312
-7.92077
4.63914
1.62308
0.0223513
-0.387169
-0.115354
-12.8068
13.969
-2.5788
3.8702
2.24967
-39.163
0.167309
-0.281977
-1.14904
48.9186
2.83762
-6.64179
-10.8575
0.278746
-45.2593
-0.0784527
-0.29563
47.3353
-0.142177
1.69332
-1.39768
0.789494
-0.856668
0.519988
0.573294
114.476
-4.20644
-1.8162
-43.7613
13.9948
-23.9396
-0.692237
-70.2911
156.946
44.1638
-9.13906
37.5291
-0.128334
16.7393
-3.64119
-9.11393
-27.9923
-1.18299
-3.93087
-0.0866214
-0.347866
0.166431
-2.30304
-1.01367
0.66403
0.72995
-1.71132
-0.0482625
-21.8959
-6.2473
0.0296239
6.8756
21.8125
36.2938
159.227
-0.555619
-0.309579
1.8583
8.87058
0.464143
1.68748
-3.62565
-0.161013
-0.789505
-2.21831
0.306871
-0.0205849
-90.3859
0.0970735
-0.132054
-3.06589
-17.768
-1.00348
-3.90741
1.31342
-14.2377
0.871762
15.3685
2.24295
0.31443
29.0105
67.9492
0.0240627
-506.471
-0.679751
4.07394
0.136626
0.199098
2.40532
-8.31259
-0.721694
18.0393
-7.95974
3.49969
12.6698
-0.00732394
0.295358
1.84242
0.0805546
-0.43355
-9.08243
-2.3288
0.453558
1.97365
0.852639
-4.64529
0.441073
-0.192076
-0.167552
-0.341699
-0.041464
54.3549
-0.295413
-0.166504
-0.539716
-2.62746
-6.24603
-2.54782
23.216
-2.71012
33.1421
-2.58266
3.9425
-1.18696
28.0185
-24.8222
-23.3476
0.665562
-0.120699
4.37086
0.0859125
3.92441
7.00655
-16.2035
-0.14418
8.87276
-0.705962
-1.0104
-1.3094
-156.239
-0.182189
-0.0735731
-5.22635
-0.410833
1.36912
-0.750967
-0.869269
-1.6884
-119.092
-1.91817
-17.681
-1.60011
-5.10915
-0.104685
-0.011665
0.150345
-3.25668
0.226441
13.9706
-0.36876
17.1214
-0.420528
0.425808
16.5212
171.516
0.656509
-0.0948181
6.21309
-34.6189
-0.346879
0.59913
-3.17986
-135.508
-0.385902
-7.30761
1.84052
-8.15322
-0.684022
-1.65178
-0.926057
-0.482558
-5.72841
-9.21922
-0.199351
-1.19102
841.303
1.13911
178.711
-0.0612145
-0.117473
0.064108
52.6278
-0.0908644
0.147052
20.3639
0.00451427
-0.179535
-0.518231
-0.316991
-0.72083
6.6766
-0.132105
-2.37589
-1.04604
1.20781
0.0925094
0.470306
-0.612673
1.06318
-2.96942
-0.132939
-0.793504
-0.202741
-6.32473
3.01559
5.54495
14.0018
0.145918
-0.456781
-2.91042
-9.73849
-0.661396
-12.0602
-6.38117
-0.0143259
0.448314
-2.93706
-0.0813913
-1.96242
1.11274
-0.0289628
5.41081
-1.04946
-0.0787177
-6.69535
-57.1496
-0.123885
-25.643
0.116405
8.51699
-0.907845
-0.0539147
13.0037
240.689
-33.9293
0.0194505
-0.45497
-0.571304
-0.14782
75.3636
-1.67164
-0.481578
0.632691
-151.995
0.0255251
-9.16959
-2.98701
-0.111914
7.02973
2.75682
0.0396701
15.9113
-0.018306
-784.992
-36.9092
0.345067
-0.325882
-0.277906
-1.7269
-0.0907766
0.778919
1199.37
-0.226453
0.577825
1.90857
0.679519
13.3289
106.296
-0.460682
116.418
0.792403
0.13547
0.839642
0.573053
-0.971772
0.075522
0.0850009
15.22
-0.154384
0.286818
0.180519
-0.662911
-0.227882
0.705795
0.0367132
-4.32369
0.27804
-0.0110527
-1.16824
-0.258595
-0.0284006
2.86078
-0.0906871
-0.25562
-0.411558
-0.895606
5.33
22.5776
2.14217
0.406329
6.16358
-1.43115
1.68462
1.37584
0.326723
1.30397
-4.22117
0.361777
1.2554
-0.0248325
-0.890042
-0.174648
0.443648
0.0639275
-30.5891
-0.0844485
-3.10392
3.90285
-0.000506122
0.0872653
-4.051
0.211871
0.115972
48.7777
-0.17405
-9.34293
0.620316
89.4569
0.0542321
6.63779
0.36729
-5.9138
0.135194
9.19
-1.00111
-28.4357
-22.0972
-0.280747
-4.66601
-1.36765
0.376161
0.202611
8.98117
23.744
-0.766963
-0.18293
-0.0620656
15.0289
-2.33351
0.180333
6.90402
-14.2851
0.243052
0.146762
2.06018
-111.961
-0.0414567
2.84635
-0.156622
-23.8934
4.56042
0.644539
0.505221
88.8486
-2.62188
-1.14737
-0.905252
-0.118686
1.33512
0.205671
-389.496
-0.0536961
5.47023
-2.43645
-0.998146
4.90938
0.0532781
8.56735
279.527
-0.460549
-0.0146729
-0.158619
-0.908824
-0.207098
-1.46814
1.04818
-0.201657
15.5307
-1.37775
1.5289
-24.9065
2.9322
-0.112488
0.0859979
0.0774817
-2.30693
-764.487
3.41756
0.185339
-867.439
-0.204628
-14.8966
0.00447804
-14.8817
45.0571
5.36083
-1.12542
-0.0455691
7.23196
0.256729
82.2029
-19.1904
39.6457
0.0498944
-0.399823
80.7439
-8.68894
0.886838
-22.4537
128.587
0.0211679
-2.9628
26.843
-17.7577
120.306
-1.45109
0.310811
-28.2651
-0.0641259
0.207441
2.00332
0.130559
-0.140889
-14.6044
-5.18435
-0.948025
-1.47493
5.24394
-0.543097
0.966294
-5.39028
-0.480875
-0.012245
-2.6742
1.73134
-2.45276
0.0252565
4.95136
-2.80568
15.4281
-2.18868
-0.68158
0.264977
-0.0526102
-32.2929
0.178916
127.13
0.559888
0.100443
-0.183943
4.4206
0.0179318
-0.0964299
-2.7983
-0.281864
16.8582
0.18829
-0.737474
0.0291182
-1.71385
17.4563
5.67894
0.0733519
-0.0639356
-2.92672
-4.25188
0.185623
-4.63977
-0.211244
-0.193903
3.1414
-2.5878
-95.9936
-0.154586
0.101587
0.508034
-1.15303
-4.32416
145.865
-7.59792
0.292332
112.176
0.42943
-6.66602
2.52899
0.347524
-0.0922633
-0.408921
-1.40722
-36.6455
-2.01764
-7.45717
1.12112
-0.115072
-0.259758
0.592329
-0.0428849
30.4292
0.88858
-467.621
141.944
19.7505
-0.361497
1.04343
-3.87991
-0.113465
-0.00265361
3.18048
-1.13947
0.130197
3.7216
-2.3078
43.9277
-0.0435106
-2.82032
-0.0805761
-0.27275
143.204
-5.35989
0.0109707
5.17107
-15.0266
-0.608335
-0.711785
-0.57284
-21.524
14.6569
0.00185383
-17.8794
10.7366
-0.356944
-5.78306
0.137289
-1.35595
5.20861
-4.74331
-19.8024
39.6347
-2.86361
-1.00296
-0.617419
-5.76428
0.110538
-2.21788
-0.0851757
12.182
-2.74478
0.153418
-8.22802
-0.155444
1.08769
34.9029
-1.40818
-0.0590921
-20.6987
-0.404989
-0.0533095
-0.603025
-0.00556144
748.98
-0.359828
-12.4404
-0.0547176
8.40608
-14.6281
-8.20255
3.54968
209.351
-6.65719
-3.10806
0.382481
-0.0725322
-11.2584
-0.305704
-0.132217
10.9076
41.5493
-0.512945
0.578925
0.0153392
-1.67131
-0.218722
-0.828468
11.8125
-4.38629
-5.97176
7.86532
0.0524075
-6.16228
0.0471797
1.15285
6.03839
0.0807063
-216.466
-0.25506
403.514
27.6409
54.7673
-108.095
2.18781
-0.0579922
0.171791
-0.512573
-0.930867
-14.2402
-37.631
0.0968188
0.627055
-2.95108
-0.141416
-345.336
4.74919
1.46619
-0.0270984
-1.88122
-1584.02
-79.9663
4.02152
244.125
540.886
0.245528
-0.0261713
-0.722829
-0.0383036
-0.849688
4.27014
-0.143485
-0.162465
-0.717671
-1.37388
-1.31226
-2.19
-0.138485
0.54957
22.3008
5.39154
0.00887161
0.180891
-10.813
4.1389
11.2429
-12.6508
-0.249322
182.286
0.419481
-0.383075
0.97251
-0.315846
-7.10392
1.42891
-4.51307
25.2481
74.8397
-0.0440571
-0.0797449
-0.642496
172.551
-1.09965
-0.220976
-0.269696
-0.911913
-0.0726093
-0.0533833
0.437027
-5.72273
0.435478
29.4417
-35.9855
-2.07267
-97.2869
-0.157001
0.164241
-15.3196
-0.132376
0.337334
-1.37097
-19.4712
-208.611
0.175688
0.135224
-1.14442
6.14688
72.2033
-34.9109
0.29537
47.0548
-0.177416
-0.0193953
0.243547
-0.578678
0.0334225
0.452006
0.543059
-399.695
38.1652
0.01628
0.0967687
-0.811992
-6.55808
0.0652097
-0.0750476
-0.00784547
12.7202
0.545164
0.027513
0.205503
-0.0447975
0.0801283
1.83433
-2.25861
-9.52029
0.64567
-0.759979
0.911189
-5.16316
53.0959
-0.127344
0.417986
8.72518
-9.55301
0.147266
64.9813
708.101
78.7792
-0.322453
0.815068
-1.2442
0.102864
0.121872
-25.7507
3.27666
0.166248
-0.19608
-1.81436
-0.0179913
-3.77675
0.295777
-26.0287
-1.4708
0.0222585
1.09472
-205.441
-10.4475
1124.35
-41.7403
20.0819
2.10213
173.501
2.10579
-4.98403
-0.0809079
-0.0630121
-139.163
0.473741
-742.91
-257.064
-0.156494
-81.1687
0.411274
23.8849
-1.87913
16.1526
13.5276
-0.298597
124.829
-0.0391714
4.92206
-63.5512
-0.0539352
-6.24503
-0.0672638
-7.29408
0.347241
-2.06515
0.0562008
-0.319628
-0.8321
0.299403
-5.43084
-569.298
-1.76833
-0.0356422
-0.561633
-0.0928147
-8.29274
2.21146
0.298203
21.0997
0.458041
0.338326
-0.214387
-0.0381358
0.264322
0.0535726
-0.0592704
32.8746
-1.83267
3.38825
0.151414
-0.0409597
-241.956
1.43062
-0.134634
-23.5134
0.224202
-0.093472
34.8372
-0.908164
4.90843
-1.12494
0.0284412
0.19526
103.898
-0.0456755
0.170611
4.89583
-638.145
-27.8945
5.74357
-61.6646
-0.139017
-3.32108
-11.8323
-0.121099
0.3032
-5.19363
0.00752757
0.109396
-71.7037
3.82701
-108.013
-1.11332
-1.28995
-9.36046
0.0433673
216.353
4.34915
26.392
1.72306
0.997991
0.14152
-0.0491804
18.8331
-27.5611
-52.9035
-0.111941
-129.053
-1.91393
0.0571688
4.01163
-46.1904
-5.26512
-0.504497
0.162484
2981.01
-0.143407
1.02624
0.136369
0.0895644
-0.239566
415.078
-0.0972712
-23.0602
-6.30022
16.1018
10.6186
-0.150538
104.441
34.5739
-17.2853
6.11137
-6.57103
-1.53681
3.12699
-1.86489
0.319617
5.49615
2.99272
22.851
-0.679236
100.13
-0.118573
-0.692574
-0.230477
9.23514
4.45266
-0.604542
-1.77174
0.627799
2.89565
-18.4435
-2.62217
-1.29362
-0.137493
0.147218
-0.106566
-384.461
50.9322
-0.0716155
-20.4356
-1546.53
13.7504
1.01933
16.7585
9.20702
-0.0639981
0.12119
87.5044
5.55109
-45.9412
-0.419892
-0.0959811
0.822736
0.427153
-0.838466
-11.7965
-1.38074
0.67845
0.319527
0.120619
2.37671
538.341
-3.52864
0.0950079
0.507855
-57.0147
-0.313239
-0.229579
0.985031
164.371
-1.2432
-1.17367
0.140985
-3.90314
1.40216
0.465944
-80.3166
-223.206
-1.75692
-0.236783
7.58427
-206.508
0.198473
68.52
-4.01229
-1.26043
-0.14413
2.65233
-0.107807
-2.17713
-1.5345
519.642
-4.5689
53.7621
0.100122
5.93152
-2.17264
1.37327
-1.22015
1.53204
58.2297
-0.055445
-82.3728
2.36386
0.815499
433.746
0.155852
0.868054
-3.56053
-0.60011
0.726601
0.0171454
-4.45221
0.124405
1970.92
-2.57663
157.727
-212.596
-0.107948
0.929356
0.144281
-5.43376
-5.25145
-1.56282
0.176246
0.205464
-18.9074
0.0117987
-1.94657
-0.14901
4.54874
-14.4136
-3.90737
7.48364
34.6391
-0.280943
-0.047204
-0.561283
-2.82026
-129.831
-1.69765
46.9619
-1630.21
-6.37192
0.886395
0.353493
1.72683
-1.85645
4.84436
0.870785
45.6239
-1.76091
0.192623
1.77008
36.7485
0.661105
4.65191
72.509
-31.8945
0.0165429
5.57394
-0.0205561
29.9738
19.4111
48.5
-0.0220873
0.499222
-8.67507
0.0709665
-0.0864612
-5.5466
0.208475
0.143456
-20.0994
0.733719
-78.2227
22.2939
-0.153818
-3.45508
-515.919
26.7497
12.765
0.0752625
-6.32862
5.42949
-110.889
-0.345656
-1.90041
0.317211
16.377
1.06409
-224.926
0.155726
-3.06403
-0.999197
-0.0544989
0.239732
-0.377204
-18.969
62.6128
-10.4162
-8.3856
26.4762
-0.0585648
-0.37868
8.63009
-2.12104
-3.86347
1.53508
1.39518
0.00924702
0.608546
0.156332
-0.733519
-0.133014
-12.9101
-0.0244195
-1.01566
-0.1019
1.62037
0.567798
-2.42405
107.589
-0.0362629
-1.38664
2089.77
0.33287
0.724523
-0.283073
0.717555
1.14342
-2.34081
1.99636
1.77415
116.404
-60.5766
9.90226
-1.55689
-1.71128
0.0828002
-1.0557
-10.1244
0.137213
1.49565
-55.9255
0.376504
0.033418
-0.0188054
5.30276
1140.83
-1.56401
-1.40749
-3.48822
0.863712
-43.6532
0.01309
0.795803
30.8466
-101.215
-5.71133
-0.112459
-0.2541
9.9785
-14.0647
-204.107
-2050.78
-0.124099
-55.2033
-5.4514
2.73776
-0.104808
0.153713
56.653
-10.6238
1.05989
6.86614
0.010624
-0.0889486
7.15491
-1.64544
-0.471618
-0.127603
-1.43457
47.8606
-8.30904
0.22104
-0.132799
1.294
-1.17526
-0.299125
-0.25872
547.441
0.409521
-2.47708
-0.113685
-63.3218
57.8499
22.0876
-1.11421
0.233769
-0.0698859
7.76468
-14.4356
-0.0735536
0.110444
7.76401
45.7669
-0.211611
0.363118
55.8763
10.1196
-5.48491
-3.36209
-0.033233
-3.87234
-0.0857382
1.03005
-0.0814079
30.1604
1.85347
0.045734
-37.8573
0.999495
7.16667
0.620863
3.74445
-1.3289
0.0437538
-1.68332
-48.0914
-1324.25
-2.17237
-0.118484
2.37263
0.699267
-0.0826844
48.2949
-0.164156
3.64734
0.0402989
-53.4704
5.94936
-4.9561
54.6691
1.42537
0.288738
0.0261528
-0.0639468
0.842907
0.626328
-1.17876
2.0306
-3.42118
-6.93928
-8.27393
-0.0364848
-0.0240143
3.41842
-134.537
-0.173649
0.0181579
52.4876
-0.171144
339.675
-0.020561
-5.85147
-0.0406343
0.388519
-0.302257
1.37012
-33.8645
-0.108705
-3.14815
-599.965
13.3913
57.7265
1.69655
3.33668
-0.114099
-14.8541
-0.0526452
-2373.35
-0.0709974
0.926636
-0.283046
1.17644
-0.0426908
0.285031
-0.722335
-0.263527
0.386298
0.040887
2.51216
-15.7178
-8.97418
-0.213805
-1.92879
-0.178513
-0.282536
-124.266
1.17073
-0.0437664
0.0981274
-32.1048
-12.3622
3.41808
0.202157
0.808081
-5.18922
10.9196
0.00986641
2.89824
-0.250532
0.554017
-3.60928
-1.38052
1.36479
-0.0325404
0.351373
387.278
-6.83306
4.7979
-184.171
-11.1586
1.10617
1.27798
1.16545
0.322329
-0.0960615
-7.82083
-1.23463
1.15077
-0.24281
18.826
-13.9741
0.0342182
-0.198774
-1.26069
-3.50397
-0.539591
-1.24595
0.584315
0.149416
0.738159
1.04515
-3.38473
-21.9796
-0.408249
-0.196623
-0.0847466
7.05196
-0.161682
-0.0783832
-9.8412
0.332547
-0.082957
0.635618
-23.7422
-670.575
-26.6547
-0.459976
-1.99992
-0.528357
-32.2184
5.19012
-0.630013
-88.4229
-0.711298
-0.087913
0.365002
-1.06443
-0.0146596
-0.235312
1.44936
0.0554247
11.2455
-7.11763
32.8392
0.430529
-103.416
0.933351
-4.98195
-1.20378
-0.405495
0.401349
9.13748
7.45863
8.37541
-541.705
-0.0709843
-12.9796
40.1714
101.295
-0.00112902
-5.51113
0.969041
0.819755
-74.1087
13.9645
-57.0738
0.737732
-0.192527
0.407851
0.0997574
-1.93025
-0.0431592
-1.1605
-0.138383
-0.0641113
-0.580027
0.155871
1592.35
-0.048239
-0.0497975
17.592
0.481576
-1.0921
1.69309
-2.22474
0.069342
-0.0233051
-0.877245
32.8205
-0.122811
-26.1247
0.473971
0.018998
-0.270824
1.08386
4.96114
-7.10631
-8.14286
0.0723199
-2.81846
1.47584
11.4637
0.222063
-4.13607
-1.38176
-0.0508191
-1.14547
1.05522
0.0923876
-392.184
-15.1825
-0.0969997
0.349822
3542.86
-6.25592
1.90527
3198.51
0.00335873
0.276763
-0.823864
4.8089
-0.434686
0.000476928
-237.441
-0.0477564
27.8983
0.374059
16.3926
309.132
0.300897
-0.245385
-0.503388
0.111483
1.74251
-1.60707
-1.87915
1.72707
-2.85906
-0.0432982
0.305462
-0.11421
-40.8902
-0.0535963
2.44914
-51.1579
-0.0825047
-0.326871
3.63909
-0.0889477
5.929
0.0387772
-0.168987
-0.279521
-6.46917
10.3368
419.812
-1.39287
2202.19
1790.91
7.13353
3993.43
-0.235068
10.0717
0.0272772
54.0408
-1.13733
1.02155
-0.716761
-0.147407
-0.508213
1.0661
-1.50844
82.2684
-0.425067
-0.369804
-0.0376243
-0.0673065
0.867097
-0.197079
0.151288
0.00513895
0.126945
-0.498893
0.309907
13.8507
0.101317
-258.055
-0.062201
-0.127803
0.905143
1.95141
-6.04088
6.64681
-0.248277
-11.1967
-0.031725
-41.3486
-7.53596
1.20981
-0.0551002
1.62335
1.69355
0.0824965
14.5852
0.059577
0.52752
-0.0709346
1.19204
0.091417
-3.49866
-0.0710282
0.350642
-0.103228
0.471511
-35.029
0.455684
3.25494
-107.855
29.2306
-0.17521
-5.121
-1.39888
-1.39662
0.27955
0.255405
0.0191715
25.5383
-0.640112
3.51589
-0.673106
0.154863
-19.1123
29.2508
0.352855
1.38074
-0.451743
-0.0156741
0.357725
0.546959
82.8106
-0.52367
-3.42416
315.774
8.89037
-3.00322
-2.59612
-0.0463841
0.350889
5.75831
-0.0806155
3.81755
-25.6843
-205.603
25.8492
1314.65
-1.36577
-0.30306
-0.107248
-1.11635
-0.131191
78.4173
-108.212
4.1471
0.0697188
-1.34794
-0.0576953
2.23353
-0.261779
44.1885
-3.74438
-22.9204
-2.60899
279.5
1.35707
-0.0689951
1.98316
0.0182916
-0.10935
35.8169
3.74575
-6.48155
-1.68507
0.00188932
22.1549
-0.766625
-3.57978
-10.3929
-0.083258
50.8575
3.33995
-13.7202
-0.455097
-1.14543
19.152
37.1413
-15.2186
-3.62277
0.821428
0.418701
-0.167221
16.0218
-3.76831
-3.66643
27.9111
-0.320588
7.40678
0.699583
32.1063
-0.1035
2.41896
-0.173273
1.10401
-0.0265805
-82.8678
-2.33286
-0.0229871
2.07755
9.63001
-0.647916
-6.08694
3.63645
-0.615008
-0.0801654
-220.607
-0.476882
-0.256858
0.439068
-0.167078
18.6941
5.00726
-20.6213
-0.0308602
-0.141378
-0.703376
-0.0839334
0.0781383
-0.434792
0.298322
2.24686
4.23308
-0.553698
52.4937
0.470975
-15.9716
-0.0334532
-6.32469
-0.0347143
1.23847
-3.42265
-0.505634
-0.0248301
3.92404
-3.6718
-0.0774366
-0.569541
-0.169876
-15.3428
-0.403309
0.908513
-0.0699228
0.221301
0.059478
-51.0438
-0.00329977
-4.14018
9.55334
-0.167225
-0.806573
-1.1471
0.0809311
-1.5615
12.091
59.3913
-0.254321
8.88709
-0.19024
-0.77713
-7.98527
-754.988
-35.8597
0.719159
-12.9873
10.7194
-5.72658
-1.88816
-0.655032
-0.257775
-0.0690857
-0.404455
0.680878
-61.5081
-0.422052
0.0531538
0.207342
-1.10081
0.074525
48.5076
0.289361
-0.213965
-35.8857
37.5589
27.5195
-0.159028
1.5319
23.9491
-2.4821
1.93035
-2.37399
3.77807
145.7
-20.0474
0.325222
-0.283541
-17.916
-2.23109
0.063144
0.0945654
0.319402
385.643
-15.2002
-327.879
18.1669
0.218151
-2.85779
0.0858905
-0.154555
-12.9574
1.40227
-199.425
-16.2279
30.6011
-306.563
-0.145059
-2248.49
-3.2705
-0.752817
31.1152
0.38891
0.129211
-0.0619777
-1.80282
5.6168
-0.41476
0.0856924
2.59387
-0.267906
-0.0265032
-0.794608
-25.55
3.16961
-0.137407
0.0828678
-63.4603
0.285029
3.39395
0.290347
-1.05339
-0.307458
3.31387
-0.301533
170.368
0.890412
4.49547
0.342254
23.1423
0.582795
36.1771
0.0185893
-0.307496
-0.171022
-1.01742
-0.341197
-0.303314
5.59686
0.966689
1.07753
-0.394036
0.00471113
-0.462224
0.0996416
-0.138093
-10.0476
-0.181289
0.14238
-5.68279
-14.0404
-0.320326
-1.89016
-761.335
-14.1589
12.511
-0.169026
3.02763
4.53358
-15.7341
-0.191461
-0.00539622
3.55994
0.119114
-0.138935
62.6355
-11.0955
47.6948
0.357378
0.621416
0.528546
1163.33
-0.83579
6.15931
1.08409
-1.37898
-0.657079
-5.69891
0.456964
0.143281
326.059
-1.03736
-0.144787
-2.00281
-0.0238408
-0.325048
8.04631
-0.0676845
-3.03701
-0.0862009
-614.791
-0.0374861
-1.39529
-0.0417962
0.196058
0.0519452
-6.15361
-10.5817
-32.9897
13.0718
-115.14
0.0172181
-0.145807
-0.330644
4.51294
7.77461
-34.5969
-46.3153
0.0670875
2.17018
-0.673162
-76.0428
39.1078
1.29985
-0.0426718
29.9402
118.455
1.12576
-2.9357
3.50473
-0.51314
-0.227913
-6.27071
-0.123107
-96.3281
-0.670446
0.574772
1.29533
3.20384
0.59213
-0.342502
5.75045
-981.732
53.1134
-33.734
0.177955
-10.1288
-128.649
-0.11972
-1.22392
0.452918
92.5167
0.250823
0.133982
0.473309
0.0702837
-0.0397031
-0.0443271
-0.37726
-0.862261
4.37717
-79.7966
11.1316
-0.0795346
-0.546383
-0.215073
-21.0016
14.394
-33.9218
0.00199188
-10.8703
42.645
0.309891
8.22115
-2.06781
-0.106425
-5.92614
33.9837
-34.7843
0.137971
-0.0847703
-1.32868
20.6239
-13.6744
-6.00022
11.6524
24.4438
566.276
-0.00155978
-0.0545859
0.348806
9.19031
-0.266301
-147.714
-40.6659
0.180252
-0.575535
0.223817
-4.47075
0.0566643
-0.274115
3.74325
-27.4882
-1.74347
167.936
0.199847
0.176236
-1.14364
-0.22771
-518.055
0.486143
1.56022
20.3165
15.9717
2.46018
-0.698567
-0.372719
-1.28626
-44.2444
-3.66921
-0.182005
-0.317288
0.0133889
0.97165
-0.118761
-0.132018
-2.35031
-8.89313
0.395583
0.058546
-0.261458
-0.29276
-30.1526
-0.63614
12.6192
-0.987558
-0.644185
0.409639
17.2049
0.219894
43.0757
32.4174
7.51961
9.89124
0.0539733
-5.22946
0.111075
18.9219
0.0694254
-105.535
-0.460602
0.0250067
9.47644
3.56958
0.443917
-1.19134
-0.0427377
-0.263126
-3.28895
0.238792
8.0347
42.9116
0.519671
0.0560394
0.40651
-472.587
18.7957
-34.6001
-15.6807
0.17024
7.30242
68.4851
-4.20202
46.9459
-0.0960636
-6.863
1.16988
20.6398
-1.14962
0.0640114
-11.8751
0.0515691
-0.350495
-2.09534
-14.4418
-0.0550973
-1.24179
0.503902
-15.0505
0.219231
-5.53295
0.459553
36.8004
-0.984128
-4.33904
1659.31
7.55227
-0.18623
-2.48564
-0.682013
-19.4041
-39.9319
-1.48993
-5.14632
-0.204155
6.79359
0.40619
-2.59295
-2.87388
1.15729
-107.82
0.145832
-12.9753
-24.7443
-7.32239
81.6761
0.148259
-0.207076
-11.428
4.0071
4.7896
-0.237503
-13.2184
-1935.62
-128.679
-0.101056
4.08696
0.179042
-1.00571
-0.0796454
52.0714
-0.193135
109.098
2.88514
-0.937669
0.0922068
0.291933
12.7656
-1.23011
-19.2659
75.0734
25.0243
0.469556
-8.47048
-0.199098
0.127705
-0.72141
32.8826
0.584206
-3.63351
84.7374
-2.95906
6.76008
-2.36821
-1.63844
-0.327736
0.112885
-0.53561
-0.0532042
19.3578
48.6708
0.376781
-0.118384
0.318301
-2.0938
-101.034
-7.53107
-0.0106797
242.346
50.5824
49.019
-8.84921
115.595
53.4405
6.48645
-1.67815
0.319427
1.01116
-0.531681
0.315057
-0.250549
-13.3669
461.693
0.967262
285.747
-0.213804
1.0189
15.8735
35.3614
-1.90875
-1.20102
-18.0798
-39.2009
35.5486
-88.6614
6.36123
-10.5423
1.10155
1.00277
0.883052
-0.0327347
-0.108963
-1.28638
0.65427
1.0575
-110.971
20.0472
-56.2217
-48.8572
-0.555835
2.0279
3.73167
-0.144853
-7.96214
-0.385684
0.638861
-0.344817
7.37813
-0.153341
-2.5749
14.1575
36.2227
0.936659
42.747
-6.63633
-0.40629
0.137591
-3.91349
0.161838
-38.1235
0.10805
-204.8
-0.023654
0.325052
-0.0761926
-0.0585557
-2.47383
20.4653
-0.166377
19.9963
-8.67123
0.0080257
-7.84668
3.13174
-18.9614
3.6723
-2.77742
0.135198
-0.0448201
0.0243191
-3.12144
-0.622111
0.479349
-2.5279
-0.316346
-4.29658
0.0881023
-0.0660476
-125.954
1.24685
1.20715
-11.2881
-0.935735
0.207013
0.00324523
1.65984
16.7614
18.1958
4.14129
0.0453765
-0.0472702
0.900187
-0.0287867
-15.3692
-39.6692
-6.01194
38.1983
-1443.49
-0.896775
-1.41241
169.708
-15.7082
1.50631
2.19596
-4.86348
20.3469
-7.64852
18.7287
-14.0908
-3.19024
-0.0622746
-19.3624
0.00811997
-0.0380915
-1.06649
1.41951
0.181089
-0.166256
16.3218
1.33084
4.23593
2.26556
-0.0427617
-2.50107
-0.138647
9.00967
0.980554
-11.2031
-10.9134
3.86975
-0.0228033
-1.36777
-3.66739
5.62759
16.5937
-83.0742
0.346934
-7.5006
0.0211004
0.866167
-0.294692
0.403488
4.56763
-119.706
6.51807
0.472271
1.96728
-2.82493
-6.35304
-0.657763
0.447153
-0.00421803
-22.8513
1.21208
0.306029
-42.4186
0.286987
3.90137
-0.826683
-0.79016
0.00386297
16.6641
1.83181
0.602232
0.213262
-0.121028
-29.8683
-2.38782
-73.6876
-40.0392
-3.81804
4.27354
0.599746
-30.648
0.443669
-0.8542
-0.106064
9.22312
-0.086405
-32.4744
-208.274
-0.173973
2.02626
1.01274
-282.628
-0.561152
-65.0511
2.12799
-5.23906
9.06414
-0.0281951
52.0202
-0.0930737
4.5203
-0.463748
8.85482
-0.909267
12.8879
-0.0389399
-1.28357
390.261
-21.2076
0.343443
0.0748361
45.2168
-2.34715
-0.519991
38.5829
-98.4784
0.805896
-3.57588
-20.6328
3.29579
403.544
73.2621
1.9586
425.87
310.716
3.16376
-0.0521995
-0.174566
-657.301
-20.6488
-9.89106
-8.06153
0.289917
1.30115
-14.3591
0.18594
-0.0663261
0.0412315
-18.8004
0.954508
1.81711
-0.0922935
-0.762585
21.6018
0.090946
-1.1515
-57.5638
432.42
-3.67608
0.264385
0.375398
-0.109486
2.58378
0.0341079
33.3672
-3.00129
-0.164036
-0.00017454
6.75954
46.6673
-1.49247
-3.42322
1.45261
0.105014
-4.25623
0.315398
-49.9635
0.296189
-30.5501
0.128202
0.957968
351.769
-0.0789557
14.3073
-13.341
125.198
1.53596
818.802
-0.920524
-319.72
3.31269
-10.5443
1.17142
-15.218
-0.159127
0.153197
-0.178394
0.792816
3.24446
0.518871
0.0922735
1.78524
0.358693
0.0756742
-4.23138
0.75383
167.286
0.0853065
-12.4019
0.424974
0.273677
-32.1146
-20.7447
35.7422
-1100.79
-0.164031
-0.268456
-0.124715
-0.14634
-21.2201
-698.962
198.523
-583.742
-0.884749
5.59429
0.673693
9.20853
0.131844
-1.09968
-0.0329508
-1.20552
0.918142
0.00173868
-0.316249
-27.9556
-10.5355
-1.3642
-12.2462
2.45557
0.0177943
-0.243811
-3.6781
-3.41477
-0.522879
-0.428369
0.475665
-1.28854
28.8652
6.04615
184.755
126.19
-1.74923
-0.687231
-1.36733
0.754165
-4.56479
0.0834068
-484.892
1.53813
-6.63076
5.39724
0.0834547
37.3898
713.795
-0.243557
-1.18154
0.587556
-0.501951
-1.39724
0.542169
45.0909
-2.52344
-26.0929
1.59769
-0.0453899
-0.062333
-106.474
10.7527
-0.387672
-1.3327
6.03894
576.021
-0.010377
-0.841107
-6.65521
-1.19828
17.6897
-0.642049
-0.38484
20.1047
22.293
-55.8776
-2.75888
-2.79532
-0.364145
5.77378
30.4864
-21.2827
-0.039846
0.226591
0.0899297
-0.13707
-0.110967
0.128743
1.10594
3.40448
-6.45253
-1.84518
4.02329
-2.66323
-3.57278
-0.453847
-1.28371
-0.273386
0.335957
-0.162998
-168.322
-0.169213
-17.3935
113.854
0.115911
9.82582
0.0468451
-1.7538
-38.605
-0.15795
0.249952
2.34413
-3.3641
60.0985
0.0189299
-0.171676
-18.329
-0.111394
-3.90862
-2.29329
-31.28
11.5412
-0.0520618
-1.30826
-27.1405
-1.5244
1.65323
-11.8772
30.7072
6.07625
-2.83311
-242.604
4.79515
-0.0392427
718.605
-1.54268
0.773026
-21.3127
-8.39553
-7.21248
5.43745
-0.121091
-17.921
9.13945
-4.30011
-4.11757
0.180097
0.472869
109.33
5.57491
-0.619519
-145.796
-14.022
-10.7548
1.98341
-1.74777
0.116992
-1.35081
-0.349635
-42.8195
-60.6519
-11.9579
13.6878
-0.315903
13.3012
-0.953123
1.75368
20.2104
-1.34011
-0.289901
-37.1922
105.49
-21.9005
5.85198
-0.240766
-12.9953
-0.972141
-0.064487
0.403003
-3.3051
-14.6863
-0.210126
45.2277
-72.6426
-0.251611
1.12751
-11.3868
86.3372
0.146985
3.58901
4.85577
-16.7732
-1.39866
-0.103568
0.717769
276.455
-0.162098
4.24555
0.240024
4.34996
-0.416182
46.9644
151.405
-12.9874
0.119041
-27.3546
-6.28127
3.13409
-21.9491
-12.2981
-0.10807
-0.199821
-2.13076
-11.3352
-1.59683
12.6419
31.3086
39.625
0.188366
0.0559753
-5.42433
0.937148
-1.1623
-17.513
-14.218
2.11577
1600.87
1.00814
-4.42124
0.129657
7.61751
1.64667
-0.116392
-0.239366
1.65078
-102.112
5.59329
-94.7672
-42.2948
-0.141065
-3.83826
0.0421649
0.0823077
12.3815
-3.84528
-14.358
-0.064063
0.0219504
-0.0700972
15.9826
-1.0152