/*--------------------------------*- C++ -*----------------------------------*\
| =========                 |                                                 |
| \\      /  F ield         | OpenFOAM: The Open Source CFD Toolbox           |
|  \\    /   O peration     | Version:  v2012                                 |
|   \\  /    A nd           | Website:  www.openfoam.com                      |
|    \\/     M anipulation  |                                                 |
\*---------------------------------------------------------------------------*/
FoamFile
{
    version     2.0;
    format      ascii;
    class       volScalarField;
    location    "250";
    object      ddt0(k);
}
// * * * * * * * * * * * * * * * * * * * * * * * * * * * * * * * * * * * * * //

dimensions      [0 2 -3 0 0 0 0];


internalField   nonuniform List<scalar> 
18355
(
-2.27206e-07
-0.00264497
1.18059e-09
1.01668e-08
-1.93349e-07
4.8926e-06
7.65175e-09
3.42494e-06
-5.17799e-08
-0.00128028
-3.7888e-08
0.000227358
1.7119e-06
-2.90862e-09
-4.3557e-07
3.05706e-07
-0.00019825
3.96033e-08
5.33467e-08
-0.00460247
1.75398e-06
4.49604e-08
0.00174324
-2.30027e-07
1.04975e-07
1.29646e-08
-4.69286e-09
3.0814e-07
0.00125113
-3.47806e-08
1.75677e-07
2.40824e-08
2.99322e-08
8.74449e-09
7.48699e-06
-6.47825e-07
-2.30226e-07
-5.21127e-06
8.26653e-08
-2.76596e-08
-1.87798e-08
3.88741e-06
-3.67602e-08
-8.80606e-05
-1.3143e-07
4.39116e-05
3.19261e-06
-6.42661e-07
-1.30956e-06
2.90008e-08
-2.51344e-08
-2.12635e-08
-1.98714e-09
-0.00468004
1.864e-08
-2.56293e-09
1.25014e-05
-4.0163e-07
-0.000234005
-8.53759e-05
1.43712e-08
4.21818e-06
2.41418e-08
-3.77051e-06
0.00033586
-9.20678e-07
-0.000828983
7.65299e-07
-3.08712e-09
7.67034e-09
1.23462e-05
-3.36759e-10
0.000127267
3.48805e-08
-9.37759e-06
9.88068e-09
-0.00936348
-1.97625e-07
-1.3743e-06
9.30406e-08
3.87136e-10
0.000729549
5.91196e-07
-6.20537e-07
8.40831e-09
6.60046e-06
-0.0017817
-0.00447985
0.00113369
-0.00237049
-0.000143142
-4.58612e-08
9.76606e-09
-1.22108e-08
0.00115722
0.00189367
1.37817e-07
-1.08186e-06
-0.00434816
-0.00018677
0.000419273
-0.00023523
1.93371e-06
-0.00255802
4.42242e-07
-3.32962e-06
-0.000240756
1.62254e-05
-2.30836e-06
-5.88167e-05
4.98632e-08
-1.38978e-07
1.82189e-08
-2.62721e-07
-0.00480778
3.60571e-09
5.29804e-05
-0.00901848
-0.000238358
-3.70102e-06
-0.00136649
-0.0302632
-6.40813e-08
9.11171e-06
1.41135e-07
2.29718e-05
-1.59538e-08
-6.93207e-09
0.0384809
-1.38087e-08
-2.30968e-08
-0.000296526
-2.45434e-06
-9.04247e-07
-4.13702e-07
-6.39522e-09
-5.69192e-07
-3.34005e-08
-7.26091e-08
-6.09e-06
0.000497192
0.000697053
5.25681e-08
2.2389e-08
2.2756e-05
-3.49378e-07
2.27281e-07
0.00503091
-4.1645e-07
0.00797194
-2.20278e-07
2.62888e-07
5.82183e-06
-0.000794388
-8.15674e-06
7.08148e-10
-0.000137342
-0.000187265
-1.55925e-10
1.86641e-06
-1.4813e-06
-3.13837e-06
-2.45479e-07
-7.56056e-08
-5.73271e-06
-0.00126844
-0.00186328
1.42092e-06
-0.000124817
1.69361e-08
-0.00224438
0.00211796
-1.84203e-08
-2.35143e-08
3.12058e-07
-0.00245463
-3.90981e-06
1.47917e-08
-0.00705042
-0.00403222
2.44611e-07
-0.000193197
-3.31738e-07
-1.19501e-08
-1.37628e-05
-0.00271074
-0.000436412
6.46559e-05
-1.23988e-07
-0.000182615
2.56039e-05
-4.18082e-09
9.34773e-07
-0.00738717
4.01008e-07
3.45217e-08
0.012782
1.24943e-06
1.64705e-06
-2.21724e-08
8.92927e-08
1.96879e-07
-0.00301546
-0.000101755
8.85364e-05
-2.6373e-07
0.000237009
-0.000522264
0.00060755
1.7774e-06
-2.3586e-07
-3.42193e-07
-0.00435438
1.75557e-07
1.41518e-08
0.000243455
0.00107417
-0.00447417
-3.57406e-10
-4.67635e-07
8.44655e-05
-8.18447e-08
2.33377e-06
-2.6023e-07
-0.00145842
1.36308e-07
-0.000605761
-0.00270315
6.57167e-06
1.29077e-07
-2.36639e-09
-4.62854e-07
-1.29347e-06
-0.000795867
-1.50434e-07
4.98589e-09
8.55479e-09
-9.91708e-05
0.000544382
0.000530387
-3.51389e-07
0.00030393
2.9144e-07
1.89758e-08
1.15108e-07
-0.00220484
0.00620009
-4.19077e-05
-2.62078e-06
-1.27252e-06
9.30015e-08
-0.000741621
2.62862e-06
0.000457359
-2.54436e-07
-0.000400827
0.00145076
-3.66249e-06
-1.0963e-07
2.75259e-08
-2.02934e-06
5.67596e-06
-0.00379634
6.03644e-07
-1.24479e-08
2.45468e-08
-4.08639e-09
5.97417e-06
-4.23549e-07
6.46285e-06
2.48698e-07
0.00155396
9.47901e-05
-1.39634e-05
-2.65477e-07
-0.00699748
-6.58817e-10
-1.77247e-08
0.0118776
-6.45942e-09
5.75953e-09
6.43632e-06
-4.17375e-08
-0.000116147
2.36002e-06
4.54391e-08
5.46978e-09
2.46771e-06
0.000109908
3.31718e-08
1.182e-08
1.05353e-08
-5.72153e-05
-0.00325837
-5.12655e-09
-1.04305e-11
0.00098296
3.83671e-06
5.86183e-06
-2.50069e-06
-1.57511e-08
8.51347e-06
-5.53843e-07
-2.54839e-11
3.1582e-07
-2.4672e-05
0.00224275
-7.08701e-05
-2.06961e-08
2.8862e-06
-1.2678e-08
-9.32151e-09
-0.00627081
2.06273e-09
0.000223123
1.4238e-06
2.57517e-08
3.81122e-10
-0.000137954
0.00375441
-0.00075086
4.48246e-07
-1.67242e-07
7.81819e-05
-4.5053e-08
-0.000119278
9.70065e-07
-8.48461e-07
-2.13209e-05
-2.48784e-08
-0.00193468
2.57498e-07
-2.79118e-07
-8.70921e-10
3.97191e-06
-0.000139278
7.87991e-10
0.000335291
-1.08173e-06
2.97197e-09
3.8515e-06
4.31317e-06
-0.0078075
-0.00534197
-0.00507344
-1.00543e-08
2.86674e-08
0.00230294
-1.7805e-06
-3.65316e-10
2.28322e-07
0.000724681
2.5008e-05
0.00033312
0.00221236
2.32477e-08
2.24947e-08
7.38544e-05
-3.35224e-08
-1.81803e-07
-0.00013694
-3.95742e-08
-4.43526e-07
0.00701485
7.96932e-10
-6.5433e-07
0.00181761
9.55347e-05
1.16851e-08
7.59251e-08
-4.90832e-08
-7.73666e-08
7.61142e-07
-4.93449e-08
8.57633e-08
-3.79627e-08
1.19206e-06
2.25898e-08
-3.07425e-07
3.13943e-08
5.01046e-08
8.86515e-08
1.22928e-07
4.77932e-07
6.17146e-06
-0.000962385
-2.8592e-07
-0.0132541
-8.2622e-07
-0.00175787
2.14829e-06
1.48714e-06
-1.22793e-08
-0.00538754
2.8229e-08
3.54191e-09
-5.46538e-09
2.04926e-08
-0.00490108
-5.28338e-07
-5.59683e-08
7.20978e-08
-1.07802e-06
-7.30492e-08
-5.74667e-08
-0.00120932
1.0534e-07
1.49246e-08
-0.000118163
-1.03343e-07
-8.4289e-06
-0.000130073
-0.000383531
5.93928e-07
9.47916e-08
0.000263637
-5.03052e-10
-1.30883e-07
-0.000494321
-1.83943e-09
-2.3992e-08
-0.000202999
3.69804e-08
-0.000141251
1.56999e-07
-1.13517e-05
-0.000164287
1.97297e-07
-9.84756e-08
-0.00979236
-2.02944e-06
-0.00305091
-0.00260111
-2.53691e-08
-7.75301e-09
1.19944e-07
-0.00860083
7.88155e-07
4.0339e-07
-4.88624e-10
5.59253e-08
-9.61529e-07
-6.73785e-06
1.18944e-06
2.26832e-07
-1.97357e-09
2.98884e-06
8.9226e-05
-0.00353202
-0.000409052
-0.00187651
2.94564e-07
-8.89764e-07
-0.000339537
-1.66926e-07
-3.36788e-09
1.40867e-08
-2.43767e-07
6.15305e-07
7.77497e-09
-2.31602e-08
-0.000173234
-5.3947e-07
4.01101e-06
-0.0028198
-5.80529e-07
-0.00232834
-1.73225e-07
9.69161e-08
-4.41504e-10
-1.90213e-09
-7.4548e-10
-1.22656e-09
-6.34728e-09
0.000759234
2.74961e-07
-1.9917e-08
0.00249344
-2.62338e-05
-9.50243e-09
2.42153e-07
-3.01933e-06
0.0379746
-1.64135e-07
-1.20939e-07
-0.00561283
5.55296e-07
0.000294526
1.73544e-06
-1.28955e-07
9.25056e-05
3.2899e-05
6.48894e-09
-2.78438e-05
0.000675128
-0.00135505
-1.26387e-07
-5.71957e-08
1.13264e-07
3.54126e-07
1.51896e-08
0.0016938
-0.00844708
-0.010829
0.00524847
1.71057e-08
1.09425e-06
-0.00331317
0.00210606
-0.00576171
-1.49946e-07
-1.64381e-06
1.36521e-06
0.000460247
-0.0002192
-0.000202959
1.06624e-07
-6.77196e-08
8.81645e-09
4.7646e-07
4.98142e-09
-0.0106996
-5.77412e-07
-0.00517096
-2.05508e-08
3.11274e-07
1.63124e-08
1.12345e-06
2.96346e-07
0.000151611
-3.02373e-08
2.48083e-06
-0.0171536
5.68372e-06
-8.92066e-08
2.36455e-07
-6.50861e-06
1.5079e-09
2.29842e-06
1.25927e-06
3.40075e-06
-9.83869e-06
6.9291e-08
1.66311e-08
5.62573e-09
5.84403e-10
3.73553e-06
-4.92312e-07
1.72194e-06
-1.56898e-07
-2.10599e-07
-0.00773324
-2.68457e-08
1.02017e-06
1.66657e-07
1.18498e-05
-1.91399e-07
-0.00468731
-4.57462e-07
0.00046828
1.70394e-07
-4.54395e-07
0.000658438
-0.00805119
0.0064414
4.30519e-06
-2.91196e-07
-1.2316e-07
-6.58417e-08
-1.41136e-05
-3.4134e-06
-1.13138e-06
5.76607e-07
0.000767089
6.03317e-06
1.62025e-08
-0.000988812
0.000425599
3.01838e-08
-7.97424e-08
-5.85259e-08
-0.00223577
-1.59936e-06
3.02152e-09
5.25514e-07
9.74886e-05
7.88053e-06
3.06171e-08
0.00120584
-1.01683e-06
3.44344e-06
-0.00159115
0.000140511
0.0171234
1.05689e-06
6.28418e-06
-2.16173e-06
9.4472e-11
-4.98428e-08
-7.42407e-08
2.43057e-05
2.66538e-05
-0.00282857
7.95332e-06
0.000503778
-0.00081607
-4.21279e-07
6.24911e-07
-0.00237438
0.0013031
-3.5615e-08
2.12655e-06
0.000188895
0.00750024
1.58875e-06
-5.23124e-10
-6.72736e-07
1.0311e-06
-4.00245e-06
3.41537e-06
-4.71625e-08
0.000179036
1.08214e-07
-1.03185e-06
0.00030546
3.09682e-07
-9.01486e-07
-0.00609643
-3.36603e-08
-1.49313e-07
0.00222497
-3.56498e-09
4.66865e-06
-2.88897e-08
-0.000278484
2.09785e-06
-5.04399e-07
-9.09691e-07
9.03288e-08
-1.07085e-05
8.54105e-08
0.00867197
-8.86081e-06
-1.23891e-07
0.00156599
-1.77221e-06
-0.000478519
-0.000378493
0.00247507
2.30526e-05
-5.34193e-09
1.63193e-08
0.0006193
-2.42824e-07
2.30034e-06
-7.67773e-09
-2.30314e-06
-0.00100318
-0.00950052
1.72663e-06
0.000740782
3.89146e-07
-1.34197e-06
2.27803e-09
-3.40315e-09
2.30136e-06
-1.56026e-06
2.4773e-08
0.00912294
-1.26265e-06
4.14218e-06
-1.75327e-07
0.00029452
-0.000964216
3.12756e-08
-2.45739e-08
-1.16588e-05
-4.20993e-09
2.44084e-08
-0.000224454
7.27394e-07
5.87736e-07
-8.7957e-08
-2.01493e-05
-3.98968e-06
-6.14127e-07
1.21208e-06
3.48559e-07
-0.00354036
7.5201e-07
1.43421e-07
3.36574e-05
0.0021015
1.11302e-08
-0.0113775
1.00517e-08
-5.33943e-08
-1.04455e-07
1.8962e-06
-0.00114913
-2.06843e-06
-0.00181173
1.48149e-06
-0.0051107
-0.035013
-1.67335e-06
0.000478842
7.81155e-08
-0.000292319
1.53536e-07
0.000280573
-0.00260941
1.76307e-08
-0.000565598
1.66111e-06
-2.09396e-07
0.00555344
3.23941e-06
0.000297839
-1.15556e-08
-0.00477341
-1.60668e-07
0.00776488
-1.8748e-07
1.16324e-06
-4.40938e-06
8.47509e-09
-2.92766e-07
2.85159e-06
-0.00760019
0.00184517
4.90647e-10
0.000189732
2.75791e-07
2.3046e-08
1.03428e-08
-6.93556e-07
5.74865e-05
0.00276332
-2.57751e-06
-1.08404e-06
2.18365e-06
-0.00440028
2.13442e-06
1.27944e-08
-1.67425e-09
2.18665e-06
1.16393e-06
-0.000196988
-1.50651e-07
-0.000442287
-2.93811e-07
-0.000961292
-0.00117626
-0.000590879
-5.3043e-09
-5.50745e-06
-1.09729e-07
1.55173e-07
-8.83996e-07
0.000169965
-1.36992e-08
-3.76459e-08
2.626e-07
0.00103632
5.26691e-07
-2.15014e-07
-4.93217e-07
3.43055e-07
-0.00113666
-0.000149188
-2.19896e-08
1.60247e-10
-0.000611181
9.08825e-08
0.00130194
-0.00289392
-0.000842384
6.53375e-07
5.19816e-06
-0.00963932
-1.57171e-06
-3.96558e-09
2.48077e-08
3.27361e-07
2.66578e-07
1.26263e-08
5.2899e-07
0.0133466
-0.00174991
-5.83007e-07
4.90558e-06
-5.97496e-09
-9.90266e-07
-2.63259e-06
2.58852e-08
-8.66443e-07
-4.17047e-07
-7.82423e-05
-0.000166022
-3.91735e-06
0.000360096
-6.10571e-07
-0.000880564
-8.30605e-06
-0.00393817
0.00272574
1.12112e-06
-0.00140783
-2.27744e-06
-0.000377968
9.80438e-08
-1.98394e-08
-7.10419e-10
1.60345e-06
-0.00286015
1.11542e-08
-5.37221e-10
1.17392e-05
-5.05738e-09
-1.10095e-06
-1.7715e-06
-9.53107e-10
-0.00946742
2.40449e-07
-1.39615e-08
-3.28037e-06
1.90168e-08
0.000107371
-1.62146e-05
-5.95369e-08
1.0212e-07
3.49112e-08
-3.20131e-07
-1.16182e-08
-5.42506e-07
0.00022128
1.02763e-08
0.00220348
-2.30371e-07
0.00204384
3.20293e-07
-4.36671e-06
-4.34293e-08
-1.14093e-05
-2.17659e-06
-8.02267e-09
-1.33606e-07
0.00212474
-8.89547e-08
-0.000436695
-0.000461147
6.29909e-07
-9.91565e-10
2.29699e-08
-9.95452e-09
0.000180829
-1.18303e-07
0.00175557
0.000857089
2.26974e-06
-0.000585858
-4.07985e-08
-4.68827e-08
-0.00073954
0.00243691
-3.77251e-07
2.52769e-09
-3.10499e-08
1.42995e-08
4.67645e-07
-6.36241e-07
0.000469584
-1.80082e-06
0.000132589
0.000240783
-0.000644949
-2.42311e-07
-1.88533e-07
0.0015324
-0.00130664
5.03111e-07
-1.70823e-08
5.14983e-09
0.00338426
2.52251e-09
-0.000171265
7.6966e-07
-1.09593e-09
-8.9056e-07
9.73038e-08
-2.6868e-06
-4.77776e-06
-5.92952e-09
-2.20427e-08
5.49135e-07
0.00070283
2.36686e-10
-5.15995e-07
-0.00101121
3.25586e-07
-8.19796e-08
-1.40568e-07
0.000563798
8.13353e-07
0.00217323
1.11084e-07
-1.73794e-08
8.93641e-08
-0.002082
-3.05891e-05
8.87843e-06
1.23983e-07
1.12906e-06
3.32375e-07
0.00208921
-4.21236e-08
-0.00907702
-1.21813e-06
0.000659351
-3.67759e-09
1.90001e-09
1.05256e-06
-2.25764e-08
0.000800109
-1.3815e-07
0.000458212
-6.85939e-10
3.79226e-08
-5.16084e-07
0.000402992
-0.00026779
-1.84901e-06
1.89431e-07
5.48877e-07
6.35847e-08
3.15637e-08
-4.12181e-10
-5.0771e-07
1.0322e-07
-0.00531617
6.44804e-07
0.00120157
1.14567e-07
1.32003e-09
0.000202944
0.00225573
-0.0127751
-1.95892e-07
-0.00189237
-2.48476e-08
0.000941361
-4.05078e-07
-0.000157272
8.26676e-08
-0.00142823
-4.93851e-08
-2.84656e-06
3.85118e-09
-3.27239e-08
-5.33873e-10
-0.00566145
-0.00183973
-0.00402469
-4.36682e-07
-1.00502e-06
-2.92876e-06
3.89944e-09
1.50647e-08
-1.42846e-09
1.91133e-09
3.63483e-05
-1.5633e-07
0.000787624
-3.08648e-05
-3.68706e-09
2.80628e-07
0.000892909
1.17304e-06
5.08374e-07
2.88089e-07
-5.13638e-07
-0.000289669
1.34121e-06
-8.83037e-07
-6.75185e-06
2.86477e-06
3.50745e-07
1.34184e-08
1.3348e-08
4.04703e-06
2.47953e-08
2.69924e-08
-0.00311971
-5.78316e-07
-0.000397185
5.94193e-07
1.00374e-05
2.92468e-06
-4.30238e-06
-1.8724e-07
6.66715e-09
-0.00167985
-3.52605e-08
0.000880738
-2.17213e-08
5.03015e-09
0.000823792
2.04756e-06
-5.89664e-07
0.00443798
1.79388e-07
-4.49559e-06
-0.00120156
-7.16418e-08
-7.25914e-06
-0.00137474
5.182e-07
-2.91636e-07
-1.20295e-07
5.11394e-07
5.48008e-07
-1.14177e-05
0.000247904
2.85129e-07
9.02666e-07
0.00109452
-7.23265e-08
-0.000150424
-1.89659e-07
-8.19957e-07
-0.000136776
0.000140959
1.94555e-09
-5.55521e-08
-4.09008e-07
5.57614e-08
1.78892e-08
0.00521431
-3.48501e-10
-1.06306e-06
-2.23148e-09
2.21611e-06
1.52046e-08
6.64234e-06
-0.000119916
-4.29053e-08
-0.00198598
2.71768e-09
2.5498e-07
-1.71802e-08
-0.000838613
1.39309e-06
-7.22266e-09
-4.37755e-09
3.03258e-07
-2.11425e-07
2.60212e-05
-0.00150423
-0.000232052
-0.000756985
6.41982e-09
3.95923e-07
-1.09464e-05
8.46238e-08
-3.58704e-08
-0.000425496
0.0012859
-2.28998e-06
-1.1509e-07
0.00167744
-1.86427e-10
-5.5234e-09
-0.00439422
-9.28682e-06
-0.00016478
1.21539e-07
-2.1714e-07
-0.000138685
-4.93992e-08
5.43179e-07
-5.52156e-10
-3.31734e-06
-1.14405e-08
5.55922e-06
-0.000152119
-2.44911e-06
1.77798e-08
-0.00121026
4.26907e-08
-5.27568e-09
-4.24627e-08
-5.30231e-08
-4.86097e-08
-5.54209e-07
-0.00978045
3.11913e-07
-0.00958297
4.52262e-07
8.82694e-07
0.00244652
-1.31877e-08
-3.62787e-05
4.10253e-07
-5.78926e-09
-1.28281e-07
-9.58332e-07
2.92078e-08
3.35172e-08
2.2459e-09
8.73698e-08
-4.07629e-06
1.63874e-08
3.74501e-07
-4.4904e-07
1.55466e-08
1.27715e-06
-0.000420805
-0.00483099
-0.00989127
0.00532266
-1.71728e-05
-4.70264e-06
0.00799638
-0.00379668
3.47749e-07
4.51268e-07
1.86796e-08
3.75383e-06
-0.00527413
1.93492e-06
3.63216e-06
-1.96023e-09
-1.28114e-07
-3.14383e-10
1.8434e-07
0.0107704
-0.00448308
-0.000142555
7.66153e-06
1.53067e-08
-9.54588e-11
9.25822e-11
2.97423e-05
0.00245627
-8.21793e-08
-0.000159918
1.28481e-08
9.57692e-07
2.78274e-08
4.97964e-06
-1.44596e-07
-0.0004172
7.3006e-08
1.12752e-05
-1.13731e-07
5.22202e-10
3.48025e-06
-4.48641e-08
1.12535e-09
-2.40089e-06
3.30846e-05
1.83576e-10
-2.86517e-06
-2.1445e-08
-2.93119e-09
-1.17601e-08
-4.8952e-08
-0.0148639
4.63211e-07
-8.78587e-08
-3.45013e-08
-0.00169535
8.91096e-06
1.30802e-08
-6.85779e-07
7.62213e-08
-0.000554445
0.000125538
-0.00110518
-0.00056863
4.31647e-07
-5.23824e-06
9.97968e-05
2.88091e-06
-0.000267307
-1.97407e-09
-6.67717e-08
1.21876e-08
5.56291e-06
2.70787e-07
0.0001873
3.61884e-08
1.93019e-07
0.00090498
7.97162e-06
3.49449e-07
-5.22844e-07
4.81761e-09
7.70817e-08
0.00104013
-2.10561e-05
-3.59832e-08
-0.00030994
-0.000102333
0.000462979
-0.00605747
9.29893e-09
0.000288114
-2.75502e-08
-7.10345e-07
-7.77033e-09
-1.40049e-08
-0.00251007
3.05285e-07
-4.21551e-07
1.28721e-07
-0.000204347
-2.39768e-06
-0.00145053
-0.0050409
3.58289e-10
-7.33796e-09
-4.56604e-07
-0.0101437
2.71737e-06
1.23693e-06
-7.60737e-07
3.66409e-05
-1.80221e-09
-3.21425e-07
9.16178e-08
-8.1506e-09
3.37864e-07
-6.34959e-07
0.0112569
1.41592e-06
-9.97259e-06
-0.000371153
4.87549e-09
3.64333e-05
3.8397e-05
5.10753e-07
-4.19679e-09
-2.16555e-08
-4.89135e-08
1.90723e-09
3.37598e-09
-0.000129014
3.25286e-05
-0.00403878
-7.66005e-06
-4.74742e-07
3.81759e-07
1.64688e-05
-0.00192916
5.53236e-08
8.34614e-07
-3.45111e-09
-0.00183363
-0.00424993
1.20064e-05
2.30213e-05
-4.59921e-09
0.000341164
-4.32907e-08
-3.31638e-07
-7.02233e-07
-1.14681e-05
-4.66662e-08
-6.734e-06
-0.000639668
-2.88012e-09
0.00087202
-0.00144137
0.00282963
-0.000175969
-1.18655e-06
0.000514665
7.21258e-07
9.97331e-07
-0.000653709
-3.2957e-08
-7.51022e-07
-4.6199e-08
-4.74982e-10
-0.0011836
2.1677e-07
0.00215636
1.47403e-08
-6.52238e-08
-0.00560084
-5.15389e-09
-0.00170827
-2.23941e-07
-1.74975e-05
-2.78909e-08
-3.07819e-09
0.00153968
-1.24869e-08
-7.13882e-06
-9.88e-09
-1.02875e-08
1.02762e-05
-4.73676e-06
1.1568e-08
-1.63293e-07
0.00137267
-6.95545e-06
0.000124836
-7.65384e-09
-6.06121e-08
-2.08527e-08
-6.3241e-08
-1.69172e-08
-7.0208e-07
2.02056e-08
-0.00148036
-1.36041e-07
2.62567e-08
-6.36861e-06
0.00104555
-2.8465e-05
1.25665e-07
-1.15947e-09
5.89971e-07
1.60537e-05
-0.000100145
-0.00141053
0.00751732
8.7934e-07
-1.7445e-06
-0.000106233
9.61921e-08
2.09752e-06
-0.00212902
2.8194e-09
0.000214201
0.00485988
0.000440631
0.000222079
0.00108712
9.24621e-06
-9.71418e-08
-0.00334783
-1.05805e-06
-3.02718e-06
-2.85276e-05
1.18279e-07
2.38921e-05
-3.6941e-08
-5.3742e-08
-3.19183e-06
-0.000170656
-9.69018e-07
1.39943e-09
3.18424e-06
0.00168578
1.5135e-06
5.10393e-05
-7.83769e-08
0.000212724
-4.62736e-08
7.40035e-06
-1.02716e-05
6.36531e-08
-0.000376099
-2.16675e-08
-8.84112e-09
-5.53633e-08
6.6019e-07
0.0024295
-1.55439e-06
7.69225e-10
0.00216786
1.68724e-08
-0.000250188
-1.22122e-08
0.000557577
3.42628e-07
-2.29755e-05
3.20185e-08
9.57444e-08
2.3271e-08
-2.53278e-08
0.000393588
1.99848e-05
-1.50097e-09
-2.78632e-06
0.000720071
0.00282693
-1.54597e-06
-0.00362947
-0.00620155
5.93773e-08
0.000336633
5.0169e-09
-7.72041e-05
2.89959e-09
-1.02901e-08
-2.10856e-07
5.17639e-06
-0.00996737
2.11469e-05
3.33224e-05
-0.000893951
3.86418e-05
4.88169e-05
-0.0017962
-1.11952e-09
-1.05258e-05
-0.000343712
-2.14445e-08
-3.41947e-06
-0.00559961
0.00020297
-8.14764e-08
-0.0051804
-6.44805e-07
0.000903453
-0.0057655
-1.71005e-06
-1.49972e-05
2.55968e-07
2.2035e-07
-4.97602e-09
-0.000306819
3.79048e-05
5.9301e-06
5.29348e-05
-1.4092e-08
-0.00267649
-7.98684e-07
-2.28031e-08
-2.90062e-07
6.01037e-06
8.8756e-07
-3.15579e-09
-1.53983e-09
-0.000234049
-5.6728e-09
7.09209e-06
6.62595e-05
1.52686e-08
-1.50376e-09
-0.00154168
-8.80206e-09
3.32833e-08
-1.7196e-06
-1.27206e-05
-0.000224249
-4.03661e-08
-1.10104e-05
-3.14431e-06
-2.84032e-06
-3.01615e-06
2.09932e-06
6.89833e-06
4.78471e-06
4.02408e-06
0.00152307
-9.27494e-06
-6.12756e-08
-6.23754e-05
-0.00433085
-9.48793e-06
-4.27914e-09
2.00467e-08
-4.32024e-06
-3.30144e-07
-0.011506
4.50068e-05
-6.87808e-07
0.000888063
7.39433e-08
0.000101926
0.000129667
2.69627e-07
-7.848e-10
2.06675e-08
3.29095e-09
-0.0202818
-0.000100186
8.19496e-07
-4.20507e-05
0.000324699
-4.35044e-06
8.34312e-08
6.38118e-07
-1.04537e-05
1.26324e-08
-8.89845e-09
-0.00867224
3.65467e-07
0.000947228
-1.50497e-08
7.89124e-09
-1.56659e-09
8.00662e-08
1.09587e-06
-1.86918e-06
-4.87999e-07
1.25106e-07
0.00253954
-0.000382962
-3.49385e-05
-0.0729714
-1.27469e-08
1.44591e-07
0.00205825
8.49775e-06
-0.000686601
-6.09111e-07
2.00423e-07
5.52055e-06
8.22148e-08
-8.84021e-08
-2.60997e-09
4.92324e-06
-4.03546e-06
0.0019301
1.12543e-05
0.000216313
-1.5997e-07
3.4861e-07
-1.22957e-07
3.09563e-05
-0.000313457
-3.2986e-05
-6.21957e-05
-7.17246e-08
0.000305186
4.43959e-07
-1.41577e-10
1.43264e-07
1.11709e-08
-0.000472639
1.15213e-08
5.91622e-06
1.91605e-08
4.42218e-05
1.81108e-07
0.00497077
-6.89927e-08
-3.48924e-07
-8.92904e-08
2.47192e-08
2.67171e-06
2.64373e-05
0.00171282
2.20963e-06
1.75436e-08
0.00121857
-7.96622e-07
-1.23879e-08
1.56443e-06
-4.97355e-08
6.2682e-07
-1.94449e-08
-0.00174261
2.66518e-06
-1.25985e-05
2.2218e-06
-7.11091e-08
-0.00159176
1.92705e-08
1.79057e-07
8.77126e-08
-7.3767e-08
4.67274e-09
4.4811e-07
-1.88178e-06
8.7949e-10
-2.70385e-06
1.47936e-08
-5.49572e-07
-0.000144818
0.00381961
3.16605e-08
-2.56467e-06
-0.000501743
1.97479e-09
3.92176e-09
1.18828e-06
3.41244e-05
3.72803e-07
1.2921e-05
-0.00887694
-5.06846e-08
-0.00435448
0.00113359
-7.54723e-08
-3.54997e-07
4.80314e-06
-1.25334e-08
-0.0107447
-0.00288088
-0.000373171
1.54259e-07
-3.04675e-06
-2.42776e-08
0.000209675
-8.06987e-07
8.82842e-05
-4.51212e-10
-6.05341e-06
-0.00027545
4.45164e-06
4.20721e-07
-0.00238408
-0.000297343
0.00197371
4.85547e-08
-5.70313e-08
-0.00192595
-0.000124993
-3.22982e-09
4.67771e-10
-7.8169e-05
-9.69983e-08
0.000151973
-0.000138136
1.16683e-08
-6.57969e-07
-0.0282034
-7.31393e-06
-1.01749e-08
-2.71933e-08
4.28042e-06
-3.38059e-08
0.000274502
-7.82291e-08
1.94488e-07
2.31251e-07
-1.26159e-07
6.32988e-09
1.15366e-05
-6.48064e-08
-1.63235e-06
-0.00537404
-0.000369297
0.00112699
1.22495e-07
-1.09898e-05
-1.28126e-06
2.76643e-07
-1.48694e-06
7.72019e-08
1.62887e-09
-7.88516e-07
-0.00603386
-2.19943e-06
-3.03448e-08
-5.44299e-08
-2.04653e-08
-0.000367646
-0.00429132
-4.77663e-08
-6.76976e-08
2.17125e-09
-1.29328e-06
-3.92013e-05
-2.59289e-07
7.89352e-06
2.47073e-09
-2.08284e-06
2.48233e-06
-0.000158648
-0.000168489
5.0034e-08
-0.00301355
0.00239881
1.01712e-06
1.67439e-07
-2.34183e-06
1.3461e-07
6.34116e-07
-1.52919e-06
-1.537e-07
-1.55789e-05
-6.55195e-08
-5.31481e-05
-6.97992e-08
1.90019e-07
-4.81152e-07
-0.00356305
2.69605e-08
3.52987e-08
-5.81777e-05
6.04528e-07
0.00194632
0.000967215
-6.91819e-08
7.63807e-06
-0.00134462
4.17874e-06
5.10082e-07
-1.0502e-06
1.06191e-08
0.00605073
2.70641e-07
-1.99804e-07
9.65475e-06
7.91997e-06
-0.000144424
-0.00113679
1.9176e-08
4.02662e-07
9.72886e-08
5.71483e-05
0.00379965
-1.03314e-09
-4.55502e-06
1.75169e-06
2.90386e-07
-2.27509e-10
-0.000490416
-1.74295e-05
-1.85986e-08
-9.94611e-07
-0.00705867
6.5565e-11
1.01826e-08
1.84757e-06
8.49901e-07
-6.65566e-10
3.67984e-10
-1.40514e-06
0.000511649
1.86456e-06
-1.19868e-07
-1.61865e-08
2.67241e-07
3.62198e-06
-5.92632e-09
-2.5727e-08
-0.00216893
0.00214636
-8.44569e-08
-1.94581e-09
-1.75025e-07
-1.19631e-06
7.9745e-06
3.97179e-08
0.000661504
-7.12903e-10
1.17759e-06
7.88297e-07
0.00395376
0.000374232
-1.31867e-05
-2.97688e-06
-0.00109473
0.000872365
0.00331661
-0.0148383
2.59426e-06
-4.30279e-08
4.64654e-08
-7.36275e-07
-7.63978e-08
-4.28477e-08
7.38154e-08
-4.70506e-06
4.45971e-07
8.39914e-05
-2.01013e-06
-0.00304659
2.49179e-08
-4.99822e-05
3.32658e-08
-4.40728e-07
2.15799e-08
6.16097e-07
5.89967e-07
0.0012674
-1.47578e-07
-8.1253e-10
4.16264e-07
-0.00232799
-2.30185e-08
-1.1031e-06
-3.56972e-09
-2.06354e-06
-0.0004026
-1.28389e-06
-0.00014702
1.07793e-06
-7.21069e-05
-4.32772e-07
-0.00054129
-0.000325029
-3.38336e-09
0.00166911
0.000594284
-1.42396e-07
-2.93507e-08
-4.89519e-07
-6.48758e-07
-1.21913e-06
1.19216e-08
0.000112123
1.25189e-06
3.32377e-06
1.01954e-07
4.23248e-09
3.18611e-08
-0.000603712
-0.00549995
-0.000315925
-2.61713e-07
-0.000289783
2.03887e-08
0.0104447
1.14873e-07
-0.000237065
2.63807e-09
-4.17697e-08
0.00118119
-8.01728e-08
0.000120049
2.6031e-07
-4.72095e-06
-0.00155601
0.00150807
3.90511e-09
0.00302367
1.01769e-08
0.0013992
-2.71034e-09
-0.00126398
-0.0002773
-8.71916e-08
-0.00220465
-1.45959e-06
0.00142018
-3.22438e-08
-1.12279e-06
-3.93052e-07
1.04159e-05
5.57467e-09
-0.000151639
-2.03525e-09
-0.00142242
-5.28596e-06
-0.0035845
-3.82634e-08
1.52312e-08
-0.00217983
1.68181e-07
-4.0866e-07
-6.15168e-08
2.01995e-06
1.82027e-06
-5.85502e-09
-0.000120229
8.38132e-08
-2.8909e-08
-4.10311e-07
-1.06964e-07
-0.00431505
3.58839e-06
3.82789e-09
0.0010871
-0.00126107
-3.05207e-05
-8.43128e-09
2.37315e-05
-0.000214689
-1.76449e-07
5.02145e-08
-5.17497e-07
1.68431e-08
-5.05164e-10
-4.79846e-08
-1.22587e-06
3.48824e-06
-0.000803942
-4.67798e-05
-8.4666e-06
-5.22629e-10
-3.18207e-08
-0.00335681
-1.06075e-06
-2.73129e-08
5.35294e-08
0.00315807
0.00257342
1.59743e-08
-0.00481583
-3.36924e-07
-5.31283e-05
2.56125e-11
-0.00105942
-2.50869e-09
2.96692e-07
4.05429e-09
-2.51116e-09
-1.79283e-07
0.00137505
9.72651e-09
0.00195864
9.03526e-05
0.00335452
-0.00326505
-2.35525e-10
-2.51531e-08
-0.00455745
2.87867e-06
-5.27673e-06
-1.48469e-08
-1.93922e-06
1.71469e-07
0.00234642
0.0012068
-0.00302623
-2.4652e-08
-0.000144836
-0.00165588
-0.00539743
9.85793e-05
-1.89127e-07
-2.60951e-05
3.30197e-07
0.00017595
0.000109544
-4.06291e-06
-0.00391272
-1.31227e-08
2.78912e-09
7.66336e-07
-0.000813869
-3.97677e-07
0.00233107
6.1732e-09
0.014375
-1.79686e-07
-2.72123e-08
-1.55184e-08
2.25054e-07
-3.39161e-06
-6.96078e-09
-1.36656e-06
1.5905e-06
1.67104e-05
-2.57932e-08
-9.81769e-09
-0.000518512
0.00120233
-8.9453e-07
-0.00042118
-1.00478e-07
-1.46675e-08
-0.00245505
-0.00144081
1.02192e-08
-0.00169003
2.00191e-08
-2.19704e-08
-2.39322e-06
0.00124422
-3.15299e-07
-0.00845745
-7.63989e-07
-1.29906e-08
-0.000456788
2.57253e-08
-3.72968e-06
-5.3276e-09
8.08296e-05
1.20405e-08
-0.00052228
7.44107e-08
-1.09634e-06
-9.57701e-08
3.88345e-07
1.17137e-05
0.00266697
1.47962e-06
0.00885953
9.25018e-07
-0.00583682
0.0098702
-0.00400753
-3.90014e-08
-0.00217147
0.0030819
0.000119037
0.000101008
3.83675e-07
-1.41196e-09
9.16029e-08
0.367884
2.4414e-08
-3.0903e-07
-0.00299991
1.57891e-10
0.0014578
9.01529e-07
-0.0109488
-1.47511e-08
-2.78784e-11
3.36572e-05
7.79457e-08
-4.0411e-06
1.58673e-07
9.2629e-06
5.15892e-05
0.00034044
-8.10805e-09
-2.68117e-08
0.00291376
-0.00147362
-1.27829e-09
1.02625e-06
-3.21357e-07
-1.1132e-06
-0.000227868
0.00159933
0.00237371
-7.01736e-05
-0.00032248
-0.00750217
8.14731e-06
-6.43939e-10
-4.54104e-09
9.51475e-07
-9.14795e-09
3.89316e-07
-0.000280656
-0.00259435
8.46994e-09
-1.17497e-06
2.0554e-07
-0.000500467
0.00582191
-0.0550514
-0.00938114
6.86706e-08
-0.0222467
-0.000824465
-2.15803e-07
-0.00200416
-2.28889e-06
2.35485e-07
0.000445995
0.00110448
-0.000217491
-2.61906e-09
5.86185e-07
-3.33733e-06
-0.000149272
4.96365e-08
-7.32366e-08
-5.6305e-11
-1.78643e-08
-3.8185e-09
-0.00202954
-5.27281e-07
1.33784e-08
-0.000302715
8.06895e-11
0.00152533
8.90327e-07
0.00111328
-2.74477e-05
5.90713e-09
0.00313724
-6.29158e-06
7.99895e-05
-5.52469e-07
-1.9412e-06
4.50849e-09
4.6557e-07
-0.00027741
-3.44202e-06
7.63765e-06
-9.4178e-08
-1.0903e-08
-7.60204e-06
4.38864e-08
5.94949e-09
-6.66333e-07
-3.30721e-08
0.00107318
5.52999e-09
-0.00804639
0.000699205
-2.16302e-07
6.05661e-09
0.00161655
-3.01964e-08
-4.13692e-08
0.000262909
-2.27993e-06
6.05049e-07
2.60543e-05
-7.0595e-05
0.00102486
-2.44005e-07
1.93992e-07
3.82943e-07
0.00165914
0.000405063
4.98807e-08
-5.21009e-07
-1.05384e-08
-1.38873e-07
-1.46167e-06
-5.48147e-08
0.000122306
-4.73205e-06
-1.10107e-07
1.51019e-07
1.99174e-08
1.72984e-07
-1.56443e-07
-9.63367e-08
0.00124771
0.0029605
0.0102811
-0.000274313
-0.00815651
5.08682e-05
-1.19435e-07
-0.000320909
0.00397255
-0.00875635
-1.75382e-09
-4.17659e-09
0.000209573
0.00761183
0.000139129
-0.000259884
0.00528048
2.8105e-09
-5.51806e-08
-0.00453039
-1.18592e-08
-6.60729e-05
-4.35486e-05
-3.43593e-07
-0.000364204
-0.00319096
-1.83386e-10
0.000904598
-0.000932889
4.64895e-06
0.000112022
1.2842e-07
0.00214585
-0.000589756
-0.00191817
-5.05638e-09
-4.87814e-07
-0.000285978
1.8102e-08
1.17089e-06
2.54121e-08
-7.24322e-06
-5.53683e-08
-0.000243921
0.000155659
-7.42128e-08
4.99357e-07
7.33399e-07
-0.000290645
-2.73482e-07
3.46342e-08
3.20786e-08
-0.00419682
-2.99529e-09
5.08645e-07
-1.30749e-05
2.30183e-06
5.87232e-07
-7.66612e-06
-8.18747e-07
-3.56518e-08
-1.64955e-05
4.06103e-08
-5.6697e-08
1.64978e-06
-5.46587e-09
4.72924e-06
0.00190583
-9.64744e-06
1.84766e-09
-0.00217399
-0.000154593
-8.39772e-05
-0.000255672
5.7016e-07
-2.66415e-07
0.000896946
1.38655e-06
-8.62456e-07
-2.46002e-06
-3.52407e-06
-6.29165e-08
3.42916e-07
2.94407e-09
0.000300366
-0.00219889
-0.000219657
-0.00457755
-6.09935e-09
-4.07005e-07
2.02049e-05
-2.01924e-05
0.000983871
-1.27387e-09
-0.00457005
5.15278e-07
-0.000454927
-4.23536e-08
0.000398946
-1.11845e-07
-0.00334103
-0.00170511
1.19336e-05
0.00206629
4.73409e-07
-1.07567e-08
6.15605e-06
-0.000277996
-0.000528812
1.6765e-06
-5.68964e-08
3.95445e-09
1.87861e-08
3.21984e-07
5.17898e-11
4.29228e-07
-1.25085e-08
-1.33929e-06
-6.56872e-09
0.000625041
-1.86398e-10
-0.000752343
3.49845e-08
8.19248e-07
-0.00199549
2.62327e-07
-0.0093722
3.3665e-09
-1.63755e-06
4.17129e-07
-3.57893e-09
-6.12506e-08
2.83992e-05
-4.77552e-05
9.99413e-08
1.08318e-07
-4.08611e-08
-0.00540409
-9.89544e-07
0.000510636
3.25047e-05
-6.93319e-09
-2.09247e-07
-1.58595e-07
-7.51553e-07
1.51547e-06
8.41834e-09
-1.59915e-06
-0.00294038
7.79982e-09
4.24302e-05
-3.38999e-07
-2.50788e-08
3.70565e-08
0.000956546
1.34822e-08
0.00282908
1.46449e-06
-1.69688e-09
-0.000188478
2.32624e-05
-0.0047989
-6.96048e-07
5.46507e-07
3.69735e-08
-4.32387e-06
-0.00091519
-8.09791e-09
-2.65237e-06
-5.00588e-08
8.42262e-06
-0.000493945
0.000668365
-0.00172676
0.00747584
6.01498e-07
2.11685e-05
4.13463e-07
-0.000434912
-0.000498808
1.24286e-06
0.00027869
2.00359e-06
-1.68709e-08
6.22107e-08
-6.40577e-09
1.06995e-07
-4.68852e-07
-4.97531e-08
0.00112301
8.76289e-05
-1.36922e-05
0.00105027
8.57001e-09
-0.0029092
3.19435e-08
-6.79375e-09
-1.53836e-06
0.00205867
-5.40106e-08
3.19655e-05
2.76113e-06
1.17977e-05
-0.000943926
-7.68537e-08
4.41778e-06
-0.000996747
-3.21528e-07
4.69989e-07
-2.43165e-05
-1.07914e-07
-1.34794e-09
-2.55396e-10
0.00296584
-0.00118271
-4.50042e-06
7.93871e-09
-0.00291272
-0.00193398
1.9863e-08
-4.22676e-09
-0.000367738
0.000592853
2.29671e-07
1.2216e-05
-3.68476e-05
1.63305e-07
3.45708e-06
1.59502e-08
-0.00481657
-1.61157e-09
0.00102004
-0.00146432
-0.000809394
-9.65958e-07
-1.03756e-06
-6.65005e-08
-2.30546e-08
-5.31261e-05
-9.62319e-08
0.000494444
-0.00596216
3.56885e-06
-9.69685e-09
4.58053e-08
9.283e-05
5.13567e-05
2.9124e-06
0.00520512
-1.53407e-05
0.00739625
9.73249e-08
0.000128112
0.00127756
-1.70929e-06
8.17946e-06
0.00112091
0.0012892
-2.27509e-08