/*--------------------------------*- C++ -*----------------------------------*\
| =========                 |                                                 |
| \\      /  F ield         | OpenFOAM: The Open Source CFD Toolbox           |
|  \\    /   O peration     | Version:  v2012                                 |
|   \\  /    A nd           | Website:  www.openfoam.com                      |
|    \\/     M anipulation  |                                                 |
\*---------------------------------------------------------------------------*/
FoamFile
{
    version     2.0;
    format      ascii;
    class       volScalarField;
    location    "250";
    object      omega_0;
}
// * * * * * * * * * * * * * * * * * * * * * * * * * * * * * * * * * * * * * //

dimensions      [0 0 -1 0 0 0 0];


internalField   nonuniform List<scalar> 
18355
(
0.0341576
5.28241
0.0218976
0.0216626
0.0223458
0.0700756
0.0219581
0.0585979
0.0232907
5.15115
0.0215243
6.02744
0.0911795
0.021974
0.0220481
0.0237467
7.15104
0.0217348
0.0220224
4.36365
0.0255614
0.0224542
5.18019
0.0223511
0.0247745
0.0221474
0.0220722
0.0230967
1.95969
0.0219747
0.0219676
0.023074
0.0217331
0.0218074
0.0528194
0.0352254
0.0225219
0.189218
0.0231113
0.0215396
0.0219761
0.0886979
0.0218938
7.00482
0.0217961
0.186778
0.0498746
0.0239523
0.0457786
0.0217542
0.0215536
0.0218232
0.0222772
4.47254
0.0220865
0.0220663
0.104095
0.0220858
3.98627
0.138425
0.0217592
0.0586685
0.0217158
0.0462286
5.56227
0.0331409
5.35362
0.0334037
0.0220785
0.0223846
0.0605073
0.0222556
0.140806
0.0217994
0.0584309
0.0219515
5.83756
0.0230129
0.0277954
0.0218053
0.0219674
0.808915
0.0256183
0.0437011
0.0221399
0.0882577
6.33715
4.36714
1.98105
4.86042
0.336287
0.0218204
0.0221108
0.0214857
21.1751
4.98035
0.0217671
0.0255039
4.35341
6.43836
5.07026
6.73683
0.0455052
2.65909
0.0225258
0.0939611
10.0936
0.136883
0.0313429
0.38486
0.0219319
0.0228504
0.0221492
0.022942
4.19894
0.0219999
4.59333
5.79708
4.95352
0.0456466
4.85979
1.89011
0.0229883
0.0640465
0.0217673
0.150578
0.0218223
0.0222621
6.6441
0.0214893
0.0215597
2.48853
0.0441286
0.0254022
0.0426356
0.0222567
0.0219182
0.0215205
0.0219605
0.0868196
3.68634
2.25102
0.0223271
0.0219316
0.350174
0.0223219
0.0258523
7.62989
0.0235552
7.27986
0.0222104
0.0223187
0.0519543
4.0407
0.0722954
0.0222693
2.23277
3.92665
0.0222663
0.0632205
0.0265566
0.0249386
0.0301932
0.0257851
0.226411
2.36392
10.3555
0.0414025
0.200905
0.0217672
2.93812
4.83042
0.0215253
0.0215306
0.0235852
7.30397
0.0579936
0.0221033
3.72914
25.0128
0.0882024
0.175412
0.0275658
0.0219121
0.267741
6.78961
5.22009
0.190719
0.0232194
9.00533
0.0987665
0.0219038
0.0255879
3.97158
0.0481774
0.0223408
1.88028
0.0272737
0.0377162
0.0215326
0.022753
0.0239819
13.3093
4.99838
24.193
0.0280066
3.27779
5.55248
5.72106
0.0370899
0.0218875
0.0221415
4.34586
0.0222886
0.0217712
0.824172
4.68568
4.33963
0.0221567
0.0234268
0.661723
0.0219502
0.041221
0.0218932
8.95411
0.0221814
5.20871
7.02257
0.128591
0.0218862
0.0222723
0.0272603
0.0260725
5.45238
0.0226874
0.0221403
0.0221113
0.205715
0.25754
34.2146
0.0306846
0.233539
0.0220092
0.0217812
0.0222386
9.23716
5.99579
3.34628
0.0723531
0.0263518
0.0227621
6.62707
0.0274504
6.04297
0.0221148
5.01082
4.6785
0.0640463
0.0219544
0.0219373
0.0319827
0.0623951
16.4393
0.0451014
0.0218303
0.0217714
0.0222679
0.244661
0.0912948
0.120894
0.0227337
4.17961
0.205481
0.0896761
0.0222609
2.02721
0.0218103
0.021986
13.2756
0.021765
0.0219498
0.0897884
0.0219097
3.81542
0.027076
0.0246553
0.021836
0.0416209
5.51195
0.0230985
0.0216672
0.0219858
0.115478
4.27326
0.0222667
0.0222776
4.73714
0.0441195
0.072152
0.321305
0.0219911
0.0601183
0.0225657
0.0222689
0.246643
0.239378
1.02987
0.125364
0.0214989
0.0983927
0.0224137
0.022021
3.95993
0.0219171
0.271463
0.0881639
0.0221029
0.021586
0.223981
15.48
5.92455
0.0221265
0.0293421
7.91688
0.0216575
0.376552
0.0271104
0.0327875
0.239501
0.0215008
3.80159
0.021995
0.0455824
0.0221148
0.0718102
5.30872
0.0222696
19.2209
0.0352042
0.0220403
0.0487654
0.0586778
3.47737
4.43463
2.82157
0.0220904
0.0217118
5.35285
0.064796
0.0221191
0.0224348
2.10243
0.267435
5.07738
5.63437
0.0220946
0.0232666
2.75549
0.0219301
0.0225433
0.248998
0.0370954
0.0238655
11.276
0.0222755
0.0471021
0.796246
34.8243
0.0216616
0.0220088
0.0219623
0.021782
0.0641454
0.0217822
0.0410792
0.0219656
0.0245238
0.0220995
0.0233623
0.0217861
0.0220064
0.0217827
0.0217745
0.0232981
0.119063
3.97053
0.0219033
5.2362
0.0352836
3.89005
0.0315412
0.0708712
0.0223181
4.24862
0.0224545
0.0220032
0.0221337
0.0216301
4.3317
0.0241191
0.0216433
0.0412525
0.0402915
0.0219352
0.0216542
5.79383
0.0223111
0.0218173
5.46075
0.0219115
4.49782
9.40252
0.227474
0.0255504
0.0225088
5.11789
0.0222448
0.021933
3.97205
0.0222687
0.0215278
8.94132
0.0217922
5.12765
0.0426138
0.0609887
7.41768
0.0223751
0.0219328
5.71083
0.0686227
3.02492
2.59902
0.0219716
0.0219201
0.0222376
4.91602
0.0435029
0.0220432
0.0222743
0.0222732
0.049779
3.43851
0.0272743
0.0222327
0.0222745
0.0310667
0.33161
4.23407
4.99989
5.28951
0.0531155
0.0477783
5.7186
0.0219749
0.0218386
0.0219854
0.0218914
0.0665558
0.0220124
0.0215531
7.60545
0.0519675
0.0467673
5.01415
0.0563339
8.90843
0.0218898
0.0217777
0.0219451
0.0219746
0.0222819
0.0222799
0.0219959
2.12275
0.0221321
0.0215344
1.16451
0.140687
0.0218461
0.022758
0.0597886
10.302
0.0232977
0.0217651
3.72093
0.0237589
2.5783
0.0273924
0.021788
6.77981
0.137293
0.0217274
6.43911
2.73408
6.45754
0.0217876
0.0217524
0.0256107
0.116901
0.0223736
3.64494
4.82276
4.77079
1.22659
0.021622
0.0419938
4.79277
5.01342
4.34203
0.022128
0.0270782
0.0261439
4.60983
6.31381
0.356225
0.0221612
0.0219577
0.0221247
0.0443963
0.0220017
5.63439
0.0268478
4.2417
0.0219738
0.0222233
0.0218999
0.0323088
0.031913
0.333702
0.0219247
0.0876292
3.75435
0.0299547
0.021957
0.0240929
0.0308296
0.0222722
0.0321519
0.037585
0.029985
0.175935
0.0225521
0.0217238
0.0219906
0.0222784
0.0409435
0.0238721
0.0599336
0.0218678
0.0223706
3.66947
0.021511
0.0325514
0.0225185
0.178245
0.02472
4.32165
0.0224082
30.3311
0.0258857
0.0240016
4.69133
3.65297
11.0279
0.0294027
0.0238456
0.021795
0.0219566
0.0909143
0.0471756
0.0334997
0.0915867
2.17013
0.2206
0.0219221
6.4696
3.87729
0.0228659
0.0219557
0.0345378
4.68447
0.0319936
0.0222207
0.0692164
0.167666
0.0560748
0.0312725
5.27353
0.0252058
0.0879673
8.441
0.271645
4.05174
0.0568981
0.164149
0.0267741
0.0220653
0.0229125
0.0219569
0.346042
0.25952
5.93152
0.12411
5.06351
5.9152
0.0601722
0.0238199
6.9901
11.5063
0.0215343
0.15554
4.27228
6.12789
0.0274411
0.0216075
0.0250651
0.0255288
0.0310036
0.0772823
0.021915
31.0545
0.023309
0.0249628
4.53265
0.0218804
0.0331603
4.44167
0.0219383
0.0228004
5.41115
0.0217579
0.087451
0.0215099
4.17343
0.0293676
0.0394806
0.0336416
0.0258465
0.111551
0.0247269
6.37269
0.068389
0.0218978
8.51355
0.0402906
5.3119
7.66114
0.380361
0.345261
0.0219318
0.021635
3.05166
0.0240342
0.0325657
0.0222403
0.0271421
5.02554
6.60685
0.0418385
13.2359
0.0618262
0.0234962
0.0216114
0.0222292
0.0427219
0.0893478
0.0216837
10.5647
0.0287619
0.0451511
0.0221019
6.06494
5.46622
0.0219715
0.02154
0.0718037
0.0222465
0.0217248
4.25955
0.148058
0.0223693
0.0219525
0.121927
0.0455923
0.0282709
0.0607633
0.0219972
4.49041
0.0481792
0.0221731
0.324682
4.79821
0.0219553
6.61107
0.0216579
0.0219409
0.0224466
0.033038
5.6274
0.0347138
7.19467
0.0317695
4.26147
1.66263
0.0265048
5.17885
0.022012
10.6465
0.0228431
8.09063
5.27347
0.0221849
4.52828
0.0256501
0.026249
11.5097
0.0814733
5.02282
0.0218151
4.37797
0.0219638
6.14856
0.022053
0.0268112
0.0297049
0.0218054
0.021545
0.0485575
3.57636
5.11187
0.0219274
2.44694
0.0261535
0.0218136
0.0221171
0.0283234
0.113413
11.437
0.0334783
0.0220539
0.0271049
4.17707
0.0267593
0.0219212
0.021804
0.0272296
0.0297278
14.2011
0.0218765
0.832238
0.0495594
2.81999
6.39423
5.2079
0.021583
0.0559384
0.0219023
0.0222712
0.0271534
3.11389
0.0218337
0.0217941
0.0217922
11.0074
0.0233597
0.0219262
0.03256
0.0305975
5.35826
7.38297
0.0219321
0.0219717
5.14134
0.0221533
5.87857
4.74616
5.58237
0.197595
0.20244
4.94607
0.0297178
0.0221652
0.0217888
0.0219962
0.0223178
0.0221104
0.0223226
9.38774
8.6439
0.0222394
0.0848397
0.0217701
0.0235321
0.0395378
0.0220872
0.0252492
0.0229732
0.508434
2.87775
0.0586584
5.03066
0.0508684
4.39533
0.0905331
4.40779
6.06699
0.04916
4.34825
0.242787
7.05334
0.0217887
0.0219677
0.0219762
0.0257622
4.45149
0.021768
0.0222758
0.0780378
0.0218329
0.0475259
0.0409458
0.0222177
4.79568
0.0218741
0.0219724
0.129916
0.0216886
0.157488
0.380516
0.0220851
0.0227433
0.0218146
0.0648296
0.0218288
0.0235175
0.685414
0.0219818
5.51986
0.0221297
5.58907
0.024366
0.0945104
0.0219552
0.0688655
0.0385276
0.0221728
0.0221083
5.77855
0.0219558
9.09147
7.60646
0.0227612
0.0221057
0.0220788
0.0215706
4.36922
0.0219527
5.8918
9.00643
0.0428317
7.90243
0.021839
0.0218982
5.98937
5.7112
0.0248001
0.0219984
0.0219408
0.0217777
0.0230554
0.0438652
1.21988
0.0249945
2.89318
2.81194
4.56297
0.0340597
0.0218659
9.48
2.81753
0.0323448
0.0219586
0.0221087
6.48913
0.0220063
3.90109
0.0641203
0.0222529
0.028543
0.0215876
0.0330722
0.0268322
0.0218371
0.0215182
0.0229078
6.57412
0.022223
0.0594893
5.96392
0.0220789
0.0219121
0.0450926
2.11852
0.0311261
5.13851
0.0224099
0.0215633
0.0233698
9.08036
0.416585
1.77962
0.0219348
0.0317717
0.021983
4.98083
0.0216539
4.79803
0.0477141
4.57404
0.0221916
0.0219222
0.221758
0.0219323
7.82211
0.021934
4.02191
0.0222585
0.021779
0.0242647
0.713995
5.12108
0.0265814
0.0224353
0.0224758
0.0218917
0.0216785
0.022282
0.10588
0.0223582
4.20039
0.0240785
5.54302
0.021827
0.0215882
0.703754
5.7369
6.57477
0.0224248
5.81583
0.0218466
11.3435
0.0225105
0.184011
0.0218003
7.36706
0.0218893
0.0264551
0.0220466
0.021905
0.022262
4.34403
1.58601
4.79063
0.0342902
0.0256878
0.0249404
0.0219891
0.0216671
0.0217594
0.0231579
0.164077
0.0220161
20.0129
0.0993487
0.0219958
0.0226838
7.93226
0.090947
0.0233736
0.0250172
0.0327154
5.29729
0.0508037
11.1139
0.0585441
0.0667885
0.169647
0.0219828
0.021862
0.0734386
0.0412066
0.0218022
3.31003
0.0287957
5.25271
0.0223182
0.196794
0.033752
0.0648587
0.02765
0.0220572
0.636919
0.0219261
12.3902
0.0220046
0.0220504
5.60044
0.0316105
0.0263802
11.4005
0.0218531
0.116741
8.83684
0.0219501
0.0736973
7.24463
0.0229035
0.0218711
0.0219329
0.0238917
0.024059
0.0705343
4.60975
0.023094
0.0266191
6.40295
0.0215718
8.39498
0.0242992
0.0234245
0.324099
6.87735
0.021748
0.0219099
0.0238523
0.0216955
0.021676
7.33283
0.0222699
0.0268135
0.0215948
0.0601595
0.0217275
0.141686
1.03008
0.0227601
4.41901
0.0219356
0.0236395
0.0218857
4.71074
0.0278907
0.0218658
0.021993
0.0221117
0.0218875
0.0923823
6.13318
7.8418
9.47114
0.0221875
0.0224699
0.0722482
0.0221855
0.0216592
1.9
4.8758
0.0238111
0.0219123
7.30733
0.022227
0.0221869
4.47914
0.0716602
4.6666
0.0232561
0.0218534
4.9956
0.0221533
0.0345443
0.0222242
0.0296185
0.0219777
0.0710589
0.180864
0.0406454
0.0221012
10.7455
0.0226886
0.0218719
0.0221714
0.0220164
0.0219359
0.0220666
5.72622
0.0223287
4.58502
0.0222599
0.0273046
6.05003
0.0218055
0.276487
0.023255
0.0218011
0.0239084
0.0702357
0.0220341
0.0218047
0.0221285
0.0219734
0.0518493
0.0216878
0.0225243
0.0291091
0.0220933
0.03204
12.9023
4.36181
4.97287
7.03984
0.088653
0.0640586
8.84313
4.4001
0.021842
0.0222874
0.0216361
0.127593
4.84732
0.0364248
0.0256655
0.0215902
0.0218969
0.0221601
0.0232549
28.8
17.4642
10.0741
0.061219
0.0221051
0.0222348
0.0221576
6.04896
2.2251
0.0217978
2.87497
0.0216686
0.0325533
0.0229771
0.0422849
0.0318323
0.313495
0.023223
0.131481
0.021624
0.0219035
0.0947739
0.0219281
0.0220515
0.0520688
0.186561
0.0221306
0.0783489
0.0219293
0.0219766
0.0218036
0.0219606
5.90383
0.0300667
0.0231112
0.0221266
4.55139
0.154165
0.022074
0.0328518
0.0304579
5.30739
0.829151
6.18557
0.196119
0.0633038
0.103193
0.119965
0.0871044
5.07842
0.021582
0.0219164
0.0219209
0.174892
0.0221931
9.61718
0.0217796
0.0221701
5.7307
0.0504926
0.0223587
0.0834646
0.0219503
0.0232019
0.707466
0.34126
0.021947
0.601164
0.137589
17.0941
4.43114
0.0219966
5.85646
0.0219254
0.0610558
0.0218704
0.0218441
5.22104
0.045156
0.0234632
0.0219202
5.00881
0.025668
4.28547
5.90524
0.0222683
0.0216414
0.0247979
5.76731
0.251982
0.039209
0.0331889
0.20636
0.0219778
0.0224032
0.0217985
0.0218876
0.0234018
0.0551637
9.38403
0.0654409
0.0989482
5.19934
0.0219896
4.46457
0.128084
0.0511847
0.0221939
0.0219814
0.021919
0.0219191
0.0219429
23.2435
0.189686
4.46277
0.0652373
0.0856264
0.0222233
0.089399
6.74595
0.0237141
0.0248625
0.0218438
12.4782
4.67246
0.103901
0.0934749
0.0219771
4.30972
0.0227344
0.0246588
0.0385878
0.0964106
0.021644
0.0678893
5.28452
0.0222776
26.5002
20.9129
6.09965
22.3054
0.0358649
0.258735
0.0567557
0.0548101
5.13701
0.0218048
0.0343284
0.0216776
0.0222505
7.03088
0.0228763
5.82947
0.0216995
0.0218312
4.77901
0.0219367
15.9851
0.0228091
0.371257
0.0231834
0.0221849
5.46861
0.0245518
0.0623592
0.0218762
0.0217721
0.23168
0.210791
0.022058
0.028381
0.746536
0.058435
2.31848
0.0222607
0.0219492
0.0215258
0.0219322
0.0257729
0.055306
0.0216329
6.37632
0.0218833
0.0220401
0.0690331
6.10523
0.216804
0.0284695
0.0217693
0.0224763
0.0741917
2.00056
1.85613
12.0339
0.026277
0.0363613
0.196504
0.021865
0.0578743
4.51401
0.0219404
0.201998
4.01674
0.271713
0.293428
6.23066
0.069126
0.0221106
2.57545
0.0266525
0.0412447
0.18431
0.0218652
0.109349
0.0218648
0.0219841
0.047473
7.80248
0.0347728
0.0219424
0.0422674
7.02111
0.0866523
3.07129
0.0219299
5.86475
0.0216512
0.0838223
0.10007
0.0219209
5.44667
0.0218021
0.0218407
0.0220966
0.0219201
5.69941
0.0741703
0.0222527
5.16769
0.0220811
6.21164
0.0216589
2.13421
0.049454
0.271059
0.0248889
0.0219079
0.0216799
0.0220678
0.295282
0.140332
0.0221211
0.04007
2.80068
6.44752
0.0417538
4.4257
6.37446
0.0219129
7.38142
0.0217901
0.207677
0.022004
0.0221104
0.0220158
0.0685846
3.2001
0.221866
0.0952978
5.31225
0.543064
0.294827
4.76708
0.0218739
0.0814417
8.53373
0.0215374
0.0464908
5.2
0.162092
0.021899
4.21997
0.0663139
2.03956
2.40718
0.0269553
0.269054
0.0247754
0.0218586
0.0215866
5.00408
0.18592
0.335569
0.169497
0.0219063
1.95818
0.0346863
0.0215103
0.0224466
0.0587345
0.0240142
0.0222161
0.0222713
1.03575
0.0218984
0.0407116
10.3806
0.0216819
0.0218932
1.37956
0.0218327
0.0433066
0.0268658
0.145423
2.91127
0.0219336
0.0616181
0.0279175
0.0875632
0.0278735
0.024789
0.0939826
0.845745
0.0487253
5.53026
0.103973
0.0221347
0.220882
4.5194
0.0681953
0.0217857
0.0220487
0.143864
0.0229903
6.64166
0.685166
0.0282818
2.26358
0.0234932
0.166752
4.62505
0.0219764
0.0221287
0.02207
0.0219904
1.1073
0.371369
0.0249744
0.170828
0.197767
0.0477607
0.0220949
0.0237506
0.0656632
0.0219274
0.0218702
3.60215
0.0227005
2.01487
0.0218222
0.0219979
0.0222713
0.0646611
0.0387584
0.0383926
0.022085
0.0229959
6.00221
2.90559
2.77157
3.06466
0.0257388
0.0224813
6.16117
0.089693
4.61497
0.0614708
0.021888
0.0557408
0.0268829
0.022343
0.0217949
0.091808
0.0681363
4.93725
0.0806052
0.294398
0.0221669
0.0230579
0.0219013
0.100782
10.1769
0.191895
3.99961
0.0218578
5.14105
0.0227731
0.0219706
0.0245112
0.0221762
0.551298
0.0219609
0.0757452
0.0216765
2.96823
0.0341258
5.16451
0.0224343
0.022006
0.0245051
0.0217115
0.0850142
3.5847
5.82957
0.0561701
0.0216302
6.1473
0.0601792
0.0219386
0.0667218
0.0217362
0.023909
0.0215232
0.733142
0.0249986
0.0707536
0.0488521
0.0217621
14.0953
0.0216334
0.0250107
0.0223622
0.0237792
0.0217484
0.021895
0.0307082
0.0222814
0.0255421
0.0216916
0.023858
2.4708
4.64859
0.0224826
0.0421452
6.87654
0.0219148
0.0221591
0.0307589
0.0955236
0.0219067
0.0552588
1.97426
0.0230386
4.86095
2.73504
0.0219532
0.0225542
0.0577621
0.0214686
4.32765
4.44154
5.00454
0.0230184
0.027809
0.0214967
2.20575
0.0287447
0.489842
0.0222488
0.158775
9.51626
0.0725932
0.0235986
1.75762
7.56092
4.77974
0.0225052
0.021757
7.45448
3.01594
0.0218108
0.0221026
0.547666
0.0225481
0.2471
2.34194
0.0217396
0.0226299
2.28617
0.0625597
0.0226343
0.0215038
0.0422415
0.0222842
0.242871
0.0218813
0.0221022
0.0219638
0.023003
0.0220655
0.095198
0.0217469
0.0260741
4.22457
4.96522
7.62534
0.0218201
0.0813121
0.0706003
0.0221206
0.0248308
0.0391047
0.0219088
0.0240546
5.3304
0.0574707
0.0219552
0.0220163
0.021782
5.51527
4.61386
0.0217211
0.0222875
0.0219854
0.0546003
5.61306
0.0239848
0.0747518
0.0221444
0.0661753
0.0271958
0.309629
12.7735
0.0222572
0.631661
5.67529
0.0383325
0.0218509
0.0392586
0.0289486
0.0424426
0.0265738
0.0218091
0.0927261
0.0273108
1.55845
0.0429911
0.0222383
0.0223331
4.4084
0.022145
0.0233826
0.201104
0.0422105
6.93087
2.06332
0.0217908
0.31069
0.447722
0.31984
0.0448104
0.0237895
0.0220631
2.95586
0.0464058
0.0218301
0.0651031
0.0609953
2.7377
5.832
0.0220639
0.0282901
0.0222907
0.220241
0.79913
0.0221842
0.0586476
0.0255844
0.0233768
0.0221872
9.94154
0.0722096
0.0219553
0.0238419
5.97529
0.0222608
0.0220098
0.0260736
0.072482
0.0219796
0.0221617
0.0236082
6.49522
0.030085
0.0218157
0.0218361
0.0218876
0.144503
0.0219952
0.0219443
0.262254
6.58
0.0218637
0.0222632
0.0529398
0.030338
0.0889248
0.022116
2.38075
0.0219057
0.0227425
0.0292446
6.88994
11.2127
0.547036
0.0400218
5.92419
2.07673
8.50095
5.91877
0.0245075
0.0219534
0.02169
0.0419323
0.0218949
0.0219541
0.0218546
0.189113
0.0218783
6.93762
0.0313011
4.94138
0.0218732
4.49508
0.0219871
0.0285468
0.021693
0.022972
0.041148
0.605948
0.0221969
0.0218486
0.0253555
4.57789
0.0219093
0.0388412
0.0221937
0.0360337
4.32605
0.294845
4.10444
0.0308734
0.20512
0.022178
4.62552
11.5531
0.0218809
5.12257
2.31543
0.0219032
0.0215223
0.0448474
0.0309589
0.0428933
0.0216957
5.9277
0.0337522
0.0586212
0.0216018
0.0219553
0.0264748
5.88521
1.49746
5.5988
0.0410481
5.70796
0.0401821
10.0363
0.0219401
3.30555
0.0219727
0.0272407
0.723145
0.0233162
0.188519
0.0218895
0.0249556
6.53002
3.18093
0.0219655
1.75631
0.0220012
5.34766
0.0218032
5.27818
5.11218
0.0218121
5.90733
0.0279323
5.29851
0.0219715
0.0265651
0.0228996
0.0893006
0.0220217
0.503568
0.0218064
6.75529
0.0798493
5.12856
0.0221614
0.0216915
1.92967
0.0231042
0.0330134
0.0218922
0.0925852
0.0244549
0.0219773
2.76455
0.0220463
0.0219379
0.0223174
0.0221097
4.31698
0.0371093
0.0219532
5.36095
3.65497
0.577362
0.0216832
0.0784206
3.99926
0.0218312
0.0261506
0.0224015
0.0220426
0.0219507
0.0219965
0.0275883
0.0282369
5.79546
0.424524
0.265199
0.0222764
0.0219531
4.42162
0.0352625
0.0219256
0.0223299
3.516
5.74385
0.0219893
5.01083
0.0394449
0.555837
0.0222785
5.85907
0.0217547
0.0228451
0.0221016
0.0218856
0.0235276
6.03213
0.0217358
4.67684
0.166174
4.16318
3.3386
0.0221034
0.0220055
4.66784
0.0759813
0.124371
0.0219772
0.105901
0.0222111
6.06015
5.32485
4.83542
0.0220632
6.43001
12.3126
4.3995
0.432352
0.0260856
0.156015
0.0218604
0.372811
4.9717
0.028688
4.3044
0.0218183
0.0220409
0.0659118
2.49049
0.0376788
1.17959
0.0219883
8.92702
0.0396528
0.0525631
0.0218096
0.0432595
0.269822
0.0220379
0.0379552
0.04061
0.273579
0.0215836
0.0219026
4.45219
5.09836
0.0239627
5.12119
0.0391018
0.0219929
8.66416
9.19542
0.0220973
0.561417
0.0217046
0.0220723
0.0442687
4.65552
0.0222759
5.10603
0.0233496
0.0219388
5.43859
0.0221661
0.0648547
0.0218555
2.41944
0.0220237
5.50618
0.0217718
0.0551661
0.0218423
0.0279434
0.214016
5.91447
0.0477839
7.68207
0.0280552
4.50556
8.70013
4.54333
0.021872
9.09857
11.6241
3.33413
0.291006
0.0224694
0.021852
0.0219464
10.1458
0.0219506
0.0220437
0.244961
0.02224
7.58696
0.0230934
5.85509
0.0219485
0.0222335
0.0968977
0.0215176
0.0525203
0.0218596
0.0725736
0.103445
2.32765
0.0218144
0.0219029
6.10061
13.6785
0.0222446
0.0300118
0.0353118
0.0226116
7.44595
5.0541
6.4132
0.145736
4.98541
4.8195
0.234285
0.0218971
0.0217924
0.0228138
0.0219394
0.0320293
6.68857
7.69337
0.0220903
0.0238728
0.0227212
0.999345
7.74428
7.02846
3.89693
0.022084
3.06248
5.79722
0.0270787
4.45464
0.0458988
0.0220993
5.25372
5.4629
5.54475
0.0222063
0.0230931
0.0431324
0.384983
0.0218191
0.0220611
0.0222421
0.0218079
0.0220408
7.11134
0.024148
0.0216909
8.13549
0.0221064
5.40727
0.0408712
5.30472
0.273655
0.0219794
6.90121
0.130694
0.900037
0.0226582
0.0286433
0.0220133
0.0231282
6.57683
0.137862
0.0808468
0.0224955
0.0219344
0.128956
0.0233776
0.0220621
0.0270812
0.0219358
4.54473
0.0220005
5.04523
7.7126
0.0233373
0.0219813
7.46427
0.0218695
0.0216731
1.64868
0.0243254
0.0235747
0.0789328
2.06534
6.68881
0.0331613
0.0237102
0.0222943
4.90768
2.30482
0.0235342
0.0355821
0.0218797
0.0218075
0.0239675
0.0217085
0.337284
0.0295352
0.0220393
0.0222781
0.0220945
0.0218999
0.0218312
0.0219127
3.33511
5.87993
8.25955
0.34673
4.60733
0.47845
0.0245112
5.24474
3.50191
4.78081
0.0220946
0.0216696
3.4203
4.11034
0.556201
0.254304
7.64551
0.022097
0.0219353
4.16334
0.0218449
0.136174
0.137183
0.0225368
11.664
4.42548
0.0222598
10.8882
7.03437
0.171868
0.830686
0.0222244
4.56832
0.780688
5.49769
0.0218527
0.073699
2.99306
0.0218955
0.0398328
0.0217276
0.0492041
0.0220806
6.02516
0.447612
0.0220324
0.0232336
0.0223492
4.97777
0.0421474
0.0221691
0.0222591
4.85299
0.0219247
0.0232667
0.118202
0.397125
0.0224767
0.0892237
0.0508868
0.0219464
0.142933
0.0218963
0.02196
0.0270913
0.0219656
0.0306454
4.78696
0.244715
0.0220016
14.1137
3.36464
0.353934
7.3215
0.0397658
0.0234866
5.227
0.0264829
0.0243402
0.0493398
0.0879531
0.0218721
0.0216769
0.0221113
0.530159
5.09729
6.96016
4.52
0.0218238
0.026092
0.0816377
0.171197
5.07459
0.0221383
4.43729
0.0223361
7.34276
0.0215717
5.16377
0.0228388
16.2979
7.05654
0.0833005
4.81331
0.0601223
0.0218384
0.0911909
5.56173
16.6546
0.0263709
0.022353
0.0219616
0.0221127
0.0297167
0.0222872
0.023478
0.021824
0.0560322
0.0220094
4.99849
0.0222246
4.67751
0.0216776
0.14407
10.0804
0.0230144
4.35009
0.0220159
0.0278597
0.0221345
0.0221997
0.0219316
0.331667
0.21687
0.0217996
0.0242996
0.0219716
4.27374
0.0313438
0.564301
0.195586
0.0219774
0.048008
0.0226506
0.022961
0.0460252
0.0221065
0.0564163
10.0057
0.0220295
4.56026
0.0278696
0.0218935
0.0217222
7.83227
0.0219938
6.05477
0.207005
0.0222688
3.39594
0.103343
4.42455
0.0260599
0.0249852
0.0221031
0.065145
4.54549
0.0221376
0.046117
0.0220717
0.0939389
2.99318
2.16757
7.38295
24.1134
0.0292844
2.59607
0.0221202
4.60829
0.490985
0.0262541
0.680115
0.0612002
0.0215721
0.0516108
0.022004
0.0217612
0.0241768
0.0219556
0.735116
2.43202
0.146769
0.992115
0.0220769
2.26074
0.0220593
0.0219697
0.0422963
4.92369
0.0217292
5.24187
0.118456
0.0969252
7.00944
0.0222175
0.0455641
6.78434
0.0450678
0.0219093
0.370549
0.0219643
0.0221312
0.0222429
2.15849
11.1639
0.0257913
0.0221016
5.0878
11.6532
0.0222642
0.0222397
1.02515
6.51966
0.0221944
0.42319
0.130566
0.0218866
0.0311826
0.0216997
4.81483
0.0219831
10.4285
7.55346
6.64937
0.0250082
0.0324225
0.0217935
0.0218032
3.01159
0.0218478
7.78604
4.38967
0.0824057
0.0218494
0.0216871
0.873417
0.405857
0.0562965
8.71363
0.0859101
2.03274
0.0229937
5.28248
2.04416
0.0270449
0.482283
7.24554
2.03543
0.0220719
8.32612
0.0217413
3.32783
0.278955
1.70597
0.0215858
0.0419104
0.0221087
1.12616
4.59005
0.0226465
0.0228105
10.7041
4.69396
0.0219896
4.85072
3.28845
1.2518
0.0222167
6.82775
0.0221537
5.17075
0.0221141
0.0226562
0.0222021
0.0219925
7.93726
0.850178
0.0217178
4.4215
5.56962
0.0215422
0.0216879
0.0427712
0.0687159
0.0919275
0.051986
26.9431
4.33938
5.11594
7.46485
0.0906457
0.0230647
0.151823
0.128073
5.31607
4.81849
5.7526
0.0916473
0.0513341
0.0245867
5.70141
0.0798341
0.533495
0.0221853
0.026239
11.5804
0.0220957
0.0284073
0.487442
0.0242513
0.0421836
0.0220143
0.0232144
5.28464
0.457123
0.0216368
0.025626
11.0722
0.217479
0.0314027
1.98217
2.87803
0.0434169
0.176025
4.94729
0.0226831
5.05428
0.0915705
2.42428
0.0221465
0.0214733
3.45285
4.97955
5.08319
8.33837
4.59052
0.0398717
0.0790124
0.0238173
4.90225
0.0218716
0.0220279
0.0439501
0.0786234
0.109202
5.81596
0.0229063
5.08422
5.16721
0.0223154
0.085838
0.0232467
0.211985
0.132871
0.0410419
5.59316
5.07157
4.89922
2.24563
0.0320082
0.0219711
0.0226375
0.0278287
0.488755
6.52973
5.27883
7.98181
0.0536004
0.0218038
0.285194
0.0398785
5.03246
0.0220981
12.2033
0.0610191
5.65184
0.0220944
4.68272
0.0923958
0.065869
0.637513
0.0217161
1.94808
5.78578
0.021823
0.0780455
4.83077
0.0224123
0.353561
0.0232323
0.0230584
0.0222575
4.35009
0.0476776
2.18885
0.0285684
8.85903
0.0217461
0.021522
0.0218909
0.0220657
0.0219571
8.74195
0.482535
5.28797
0.0222106
0.0217705
8.24328
0.0284087
4.52302
0.0863605
0.0219738
0.885477
0.0306324
0.0378457
5.5075
0.0270328
41.4142
0.823239
0.0276854
0.0216196
0.325536
0.0215349
0.643111
8.21645
0.184708
0.0217898
6.74108
0.374745
0.0219789
2.00745
0.0221316
5.59118
6.15288
0.0281504
0.0247585
0.0743404
0.0384073
0.0222534
0.0216344
0.0219766
18.9081
0.0252189
2.1703
0.727203
9.7376
0.374695
0.127962
0.0219925
0.190489
8.65275
0.025383
0.0218661
0.0240131
0.0222291
8.59438
0.0872498
5.21506
0.0220001
9.51428
3.98715
5.04358
7.70973
0.0219816
2.25425
3.03383
0.0219946
0.0222853
2.10545
4.16173
0.0262596
0.580779
3.37646
8.08179
0.0294856
0.0229487
0.451385
0.0415898
0.0231406
0.0278372
0.0221223
0.0818516
4.58178
0.0580091
0.0228451
11.2888
0.129797
0.021643
0.183257
0.236738
0.0751173
0.054224
0.0216538
0.0217945
2.12389
3.13998
0.0427356
0.0218356
4.46346
0.456701
0.227048
5.26196
0.023638
0.0216499
0.0220984
0.022199
0.0301723
5.26276
0.0877798
0.0223919
0.129492
0.0220691
5.02277
0.0231561
4.31457
0.0229414
1.20671
0.0515627
4.65136
0.0219297
0.0220911
0.0218053
4.75876
0.0264944
4.72824
4.64774
0.0553695
0.0221408
0.0277149
0.0305429
0.0222563
6.97147
0.0215992
4.56029
5.07086
4.16207
0.0290689
0.0219771
0.0222776
0.0220168
0.0222189
0.0810985
7.28617
5.7868
23.1262
0.799355
2.70777
0.0235777
0.356461
0.0646893
0.0500985
0.0219752
0.021646
0.220262
0.0230242
0.0216421
4.40959
0.307356
0.462543
5.87918
4.09801
0.0221
0.0221296
0.0227625
0.0429139
4.50253
0.0220591
0.0441361
0.563236
1.27804
0.0433111
0.0221584
0.369084
0.0270852
5.73995
0.0220792
0.0217291
0.0219902
0.0219735
0.0227258
4.9586
0.356446
0.0856362
0.116799
0.0805458
0.0218677
0.0488258
0.0226771
0.0221032
0.026857
7.71634
4.67999
0.0218103
0.312356
0.021859
0.0554208
0.0231146
0.02878
0.0221046
0.0816063
0.0599441
5.25397
10.0263
8.64247
7.86555
24.8348
4.97474
1.38253
0.0217119
6.32433
0.0217162
7.43899
0.0255213
4.30215
0.0220933
0.0803422
0.0220657
0.0217641
0.0240859
0.0219952
1.63068
0.021654
0.0219522
0.0216327
0.0217033
0.0218059
0.0305694
0.022127
4.84719
0.0497672
0.0219603
4.62473
0.022037
0.021855
0.0635958
5.50402
0.0391776
0.0286634
0.0217629
0.0216021
5.00312
0.0222288
0.0254842
0.189151
5.94599
9.06709
5.02661
5.54177
5.07386
18.947
1.8307
7.84496
0.065716
1.22088
0.0222282
0.022004
0.0700525
0.0261401
2.52226
0.0221756
0.0431534
0.0473248
0.397275
0.077439
0.0382071
0.0234286
0.0219862
0.0459587
0.0220612
0.0217212
0.412984
0.0222383
5.10727
6.72598
0.12065
0.0217868
5.53638
0.0231285
5.39631
0.586735
0.0218375
6.69645
5.09726
0.0603661
0.0810258
0.0311444
4.67913
4.23529
0.0237392
19.0296
0.0539979
0.039706
5.96913
0.0221352
2.93258
0.0220374
0.0221862
0.0218155
2.46129
0.244587
0.436012
4.39944
0.0251251
0.0457862
3.23809
0.0217888
6.87579
0.0216829
1.85688
5.03447
9.51917
0.130917
8.75964
0.0219746
0.0221738
0.0237254
6.37096
0.0455747
0.0224415
0.0219653
0.0214673
0.0218906
0.0723372
0.184659
0.0793236
0.190418
0.0616114
0.0220046
4.53907
0.0304581
2.24845
0.0225784
0.0217476
0.0225556
0.0222306
0.0377637
0.302989
5.13574
0.588738
5.65709
0.558985
0.0218206
1.69461
0.0215153
0.0220337
0.0229287
0.0217562
0.0313179
0.0219886
0.0671615
0.0218267
4.23944
0.0222769
0.022447
0.0217498
4.55735
0.403903
0.0901387
0.0215531
4.33294
0.145664
0.0793895
4.25499
0.0573844
0.403062
0.0220887
2.09887
0.171312
0.0305002
0.481158
0.0326631
0.0409089
0.974483
0.0279474
17.8834
0.113711
7.3801
0.914409
0.0478971
0.0294339
0.0219932
4.90622
0.0220212
3.23817
0.0219232
0.0218958
0.0215281
0.0320653
6.81206
0.0240554
0.0219196
0.0221143
0.0432708
1.98648
0.113553
3.37237
0.196738
0.0631445
0.0219952
0.0612264
0.0221922
0.0229037
6.37995
0.0323457
0.0386466
0.133298
2.79053
0.150271
0.0416228
0.0717846
0.0629402
0.0247197
2.46262
0.0222029
6.24058
0.0252196
3.20766
0.0842187
2.28904
4.94007
0.11262
4.92183
4.53404
0.124074
0.268361
0.104553
0.39507
0.0220258
0.0798841
0.0623666
10.4083
0.0230481
2.00985
6.69813
0.0215059
0.0217573
4.81786
0.0223155
0.0218663
0.0216186
15.1338
2.27137
2.17046
0.0269224
4.55625
0.39299
2.25618
1.68224
0.0865356
0.0220351
26.7027
3.51057
0.418464
0.514998
0.0219576
0.0218406
0.0220128
0.0221131
0.353931
0.147732
4.07127
0.0802364
0.0221447
0.0219721
0.0222884
0.0315422
11.0194
0.0236935
3.19736
4.23817
0.0539207
0.022123
4.72022
0.18538
3.32252
0.0219593
21.6924
0.112739
0.0221567
7.00956
4.61325
0.0230097
0.0217654
0.0221051
0.022256
0.0219829
0.162505
0.0590601
0.280937
0.0417285
0.022538
0.0309916
0.0220854
0.0256586
0.0219538
7.90624
16.86
0.0351464
0.0220442
5.48227
0.0216796
0.194575
0.469949
9.8925
4.1763
6.7817
0.0220564
0.0223086
0.0221256
0.196612
0.022681
2.2301
0.0254524
0.0218883
0.0219923
0.134968
0.177179
0.0220735
4.68895
0.0782631
0.68032
11.2044
0.0221186
0.679525
4.27724
0.171349
0.0222874
0.02198
0.136646
1.25219
20.5685
0.0231218
8.24907
0.0217387
0.105805
2.3793
0.181588
0.0217234
6.76484
2.23574
7.34225
8.95719
0.0222769
0.0222101
0.0993437
0.140572
0.0429349
0.0230142
4.7249
0.023385
8.41814
4.17382
0.021888
7.1262
0.0218511
0.0853823
7.72376
0.0872047
0.0644816
2.54559
0.024306
2.50307
0.0219984
0.565041
7.3638
2.61626
13.5203
0.0240986
0.053729
0.0217043
7.33089
0.0230162
0.0217359
0.0482044
0.0534274
0.0468285
23.4878
5.1096
4.36963
0.246886
0.0305426
0.0385773
0.0264287
0.0350661
30.139
0.0233133
0.586525
0.0228555
5.29257
0.83841
0.0222275
0.022166
0.0471723
30.5594
0.043482
0.0216124
0.0218852
0.0301287
0.0271722
0.0279919
0.0255921
4.27791
0.0238783
2.04456
0.0722562
0.0219361
0.066157
0.0681805
0.0406348
0.0218362
0.022047
1.95749
4.28294
4.32584
0.0414442
0.0461632
0.0564293
0.0474603
0.0219195
0.0236834
4.97159
0.0455914
0.0239144
4.40618
7.59763
0.270184
3.30627
0.0857834
0.0226478
7.72241
0.0689492
4.20184