/*--------------------------------*- C++ -*----------------------------------*\
| =========                 |                                                 |
| \\      /  F ield         | OpenFOAM: The Open Source CFD Toolbox           |
|  \\    /   O peration     | Version:  v2012                                 |
|   \\  /    A nd           | Website:  www.openfoam.com                      |
|    \\/     M anipulation  |                                                 |
\*---------------------------------------------------------------------------*/
FoamFile
{
    version     2.0;
    format      ascii;
    class       volScalarField;
    location    "250";
    object      p;
}
// * * * * * * * * * * * * * * * * * * * * * * * * * * * * * * * * * * * * * //

dimensions      [0 2 -2 0 0 0 0];


internalField   nonuniform List<scalar> 
18355
(
-0.0674755
-0.0593786
0.0184833
0.00212703
-0.0185693
-0.0816736
0.0131695
-0.113453
0.0800574
-0.0695702
-0.00350069
-0.39086
-0.152165
0.0343592
-0.00033566
0.0374755
-0.444303
0.00355032
0.0193205
-0.0565521
0.0554778
0.0484418
-0.133164
-0.0179242
-0.0267437
0.0217585
0.0247655
0.0772846
-0.0893554
0.0293458
-0.0130916
-0.0231851
0.00351095
0.0053267
-0.112781
-0.0719605
0.063914
-0.193015
0.0756062
-0.00383814
0.0349484
0.0347235
0.0187112
-0.08103
-4.22501e-05
-0.208726
-0.116318
0.0846539
-0.101963
0.00426855
-0.00171169
0.0057153
0.0207992
-0.0673106
0.0187541
0.0124303
-0.0631561
-2.13881e-05
0.407719
-0.21299
0.00475864
-0.0917722
0.00251133
-0.00587419
-0.388472
-0.0646561
-0.0710385
0.155299
0.0243958
0.0467231
-0.133072
0.0143096
-0.222785
0.00727988
-0.114932
0.0130989
-0.0705793
-0.0246294
-0.0352863
0.00563255
0.0134901
-0.301408
0.0537275
-0.0525638
0.0219699
-0.149373
-0.0551504
-0.057128
-0.0930464
-0.0802178
-0.106945
6.6909e-07
0.019842
-0.00172005
-0.125307
-0.136134
-0.00301003
-0.0411436
-0.0658418
-0.440136
-0.0970677
-0.443646
-0.0760634
-0.0976962
-0.0182573
-0.111946
-0.405559
-0.144362
-0.0674019
0.349204
0.0248809
0.0705326
0.0223742
0.0729481
-0.0609987
0.011554
0.462967
-0.0691752
0.453846
-0.0718254
-0.0712433
-0.357358
-0.0236135
-0.134471
-0.00226462
-0.150405
0.00527604
0.0190091
-0.38712
-0.00156834
-0.00167949
-0.16503
-0.0868163
-0.0398085
0.0942125
0.0188979
0.00149495
-0.00352258
0.0307936
-0.148916
-0.100007
-0.121913
0.0263816
0.0253108
0.446944
0.0481466
0.107392
-0.0560138
-0.0321671
-0.0554947
-0.0182635
0.0491555
-0.109197
0.431164
-0.0664606
0.0152396
-0.159446
0.461939
0.0151429
-0.0972157
0.0129671
-0.0220175
0.108825
-0.0395937
-0.0688061
0.192577
-0.438649
-0.0937348
-0.194917
0.00525645
-0.14602
-0.142669
-0.0029389
-0.00337056
0.0349166
-0.0558167
-0.0525491
0.018923
-0.375456
-0.427632
0.286943
-0.191345
-0.0509725
0.0111415
-0.0723785
-0.0565075
-0.0953589
-0.113005
0.0799399
-0.444649
-0.0623405
0.01846
-0.0388812
-0.0868669
0.110196
0.0463268
-0.25483
-0.0493484
-0.071937
-0.0031695
-0.0251417
0.0790976
-0.440199
-0.100621
-0.329603
0.0240302
0.468666
-0.428873
-0.387963
-0.0698376
0.00241819
-0.0176367
-0.0552491
0.0260284
0.00557909
-0.292002
-0.0662823
-0.055865
0.0222951
-0.0307865
-0.313008
0.0289969
-0.0443825
0.00136718
-0.441217
0.0386228
-0.435096
-0.0562228
0.369734
0.00358784
0.020687
-0.0340202
-0.00470874
-0.437428
0.0104071
0.0213181
0.0190379
-0.180309
-0.0862977
-0.326897
-0.064802
-0.20161
-0.013253
0.00627561
0.0416138
-0.0559745
-0.37236
0.507044
-0.0648394
0.0112621
-0.0247457
0.16956
-0.0502873
-0.394144
0.0337256
-0.442457
-0.0655125
-0.0994154
0.024228
0.00865118
-0.0609134
-0.14586
-0.443411
-0.0892102
0.00828163
0.00574859
0.0203047
-0.201384
-0.0887476
0.343609
0.0412971
-0.0607438
-0.114604
-0.111431
-0.0117035
-0.260124
0.00531552
0.0259693
-0.299637
0.00646661
0.0132605
-0.115298
0.0178941
-0.138887
-0.0494185
0.0939533
0.00673787
-0.0933578
-0.404498
-0.023557
0.00241892
0.0314781
-0.0990743
-0.0666058
0.0201508
0.0138149
-0.0632694
-0.088448
-0.0636529
0.2465
0.0256667
-0.139283
0.0587003
0.0138192
0.258602
-0.0685369
-0.0704047
-0.0984543
-0.001521
0.300866
-0.0167356
0.0203548
-0.364311
0.0219981
-0.204807
0.0516868
0.0198137
0.000188353
-0.20703
-0.0618464
-0.426184
0.00737429
0.104544
-0.0818225
-0.00794105
-0.0882413
-0.0321178
0.0578213
-0.0904773
-0.00134643
0.135714
0.0220167
0.0959263
0.0130303
-0.0636666
-0.426131
0.0211581
-0.437711
-0.0776259
0.0264697
-0.111118
-0.09183
-0.104181
-0.0629286
-0.0888266
0.033117
0.00257835
-0.18385
0.270325
0.0204722
0.0134083
-0.0703489
-0.0715562
0.239533
-0.178911
0.0236712
-0.0303627
0.500109
0.0239635
0.0108684
-0.12834
-0.0686621
-0.0326931
-0.0597079
0.0181948
0.16953
-0.324885
-0.362845
0.00243628
0.037075
0.0287887
-0.0010082
0.14784
-0.00146984
-0.0868521
0.0283655
-0.00737061
0.0236495
0.0781281
-0.00945055
0.0145776
-0.00821189
-0.00822861
0.0278152
0.358102
-0.188083
0.000775522
-0.0924373
0.0680304
-0.183853
-0.0624341
-0.146719
0.0433166
-0.10861
0.0618929
0.0116871
0.0215163
0.000669154
-0.0663129
-0.0301356
-0.000105848
-0.0908333
-0.0818326
0.0236377
-0.00788543
-0.438205
0.0458608
0.00570999
0.271676
0.0170726
0.511137
-0.445057
-0.124708
0.103444
-0.0176198
-0.403618
0.0142849
0.0230171
0.297158
0.0167132
-0.00273357
-0.444813
0.00688913
-0.427056
-0.0567012
-0.0566305
-0.444711
0.0587204
0.0226202
-0.0700051
-0.0796499
-0.149057
-0.100788
0.0281107
0.0114698
0.0488912
-0.0606738
0.0566686
0.0194448
0.0155886
0.0272307
0.176118
0.496346
0.0340873
0.0476962
0.0204589
-0.061537
-0.101181
-0.0667184
-0.441344
-0.138362
0.219656
0.156298
-0.079861
-0.0149304
0.00913529
0.0311749
0.000613621
0.162966
0.0254192
-0.000129018
-0.441053
0.182972
-0.106211
-0.0789896
0.229194
-0.0561461
0.0109962
-0.00877965
0.027911
0.0134653
0.015522
0.0205401
0.0258579
-0.119445
0.00580533
-0.0010789
-0.346162
-0.215348
0.00944116
-0.0237055
0.0707015
-0.339854
0.0344355
-0.00408993
-0.0996345
0.0762695
-0.065978
-0.0318612
-0.000907722
-0.439015
-0.217826
0.00376897
-0.400698
-0.113188
-0.443761
-0.000378881
-0.00385987
-0.00230182
-0.0936696
0.0579663
-0.0613473
-0.0629491
-0.0952033
-0.356524
0.00043426
-0.0556068
-0.0555004
-0.138722
-0.0597853
0.0448974
0.0411714
0.0171449
-0.102762
-0.443343
-0.108445
0.0373993
0.0301004
0.0234011
0.0599551
0.0255728
-0.0684171
0.0185641
-0.0604517
0.0367457
0.0267951
0.00887689
0.149234
-0.00615434
-0.0990947
0.0181742
-0.0993597
-0.232906
-0.0446378
0.0231772
0.0805376
-0.0399606
0.0176887
-0.0704485
-0.0703032
-0.044449
-0.219772
0.0127735
0.00371808
0.0306287
0.0212014
-0.0887789
-0.0318212
-0.0940259
0.0111254
-0.0180591
-0.160197
-0.00109938
0.161057
0.0614402
-0.203717
0.0904871
-0.0629393
-0.0190398
-0.0867712
0.0922475
0.0843447
-0.0628779
-0.159094
-0.406571
-0.0431876
-0.028577
-0.000290128
0.0286769
-0.0712279
-0.107714
0.0467016
-0.0793675
-0.118537
-0.0681397
0.00978246
-0.423412
-0.17626
-0.0239624
0.0292375
0.16245
-0.0777325
-0.0593789
0.0177297
0.274173
-0.211277
-0.115668
0.140484
0.0181187
-0.0414311
-0.121039
-0.0612041
-0.0926833
-0.367633
0.158123
-0.169787
-0.0498276
0.0125877
-0.0247333
0.028526
0.435677
0.366272
-0.0562706
0.345153
-0.388987
-0.187977
0.264544
0.0379738
-0.0579654
-0.427734
-0.00377553
0.367731
-0.0824849
-0.279802
0.0299741
0.00078873
-0.0402685
-0.0393745
-0.0391058
-0.135913
0.0216155
-0.0745047
0.0302287
0.054222
-0.103065
0.0127214
-0.00567094
-0.0575182
0.0228666
-0.0159296
-0.248095
0.00586107
-0.0973616
-0.00128497
-0.159769
-0.0434134
-0.0617717
0.0533847
-0.0255991
-0.0946934
0.098567
-0.0572033
-0.0683039
-0.0131111
-0.145375
-0.0618289
0.0529688
-0.442856
-0.337283
-0.103549
0.0250371
0.000245947
-0.115663
0.0825125
-0.0724259
0.0176533
-0.051418
-0.143559
-0.101199
-0.0896815
-0.0882792
0.165303
0.0101923
0.000706703
0.0176593
-0.0934489
-0.0887464
-0.00585267
-0.399329
0.0230009
-0.0835095
0.000393193
-0.396957
-0.43714
0.0303156
-0.00362027
-0.0773522
0.0175443
0.00347108
-0.20008
0.365885
0.0544777
0.0282703
-0.0676982
-0.102988
-0.0352304
0.263877
0.013724
-0.056341
-0.0826466
0.0400717
0.413788
-0.146243
0.0139409
-0.102566
0.0018898
0.0225402
0.0574941
0.174746
-0.44112
-0.0758488
-0.0611983
0.00601139
-0.0560048
-0.366676
-0.0502473
-0.386661
0.037416
-0.429306
-0.024374
-0.0554221
-0.0580676
0.0272222
0.362623
-0.00164452
0.0952753
-0.415111
0.29887
-0.406145
0.00808662
-0.0642895
0.0336526
-0.0555371
-0.0165198
0.0223754
-0.0402631
0.00764131
0.00179411
-0.0727355
-0.0956619
-0.272884
0.0115622
0.497437
-0.0491033
0.00812219
0.0235784
0.0775347
-0.106047
-0.422908
-0.0722916
0.0052582
-0.0101421
-0.0583218
0.0254744
0.0228494
0.0075704
-0.0129491
-0.0617065
-0.0758067
0.0127766
-0.24193
0.101583
-0.175135
-0.441034
-0.0733525
0.000598117
-0.0560132
0.0181433
0.00483396
-0.0496607
-0.0831955
0.00829288
0.000249586
0.00274158
-0.425621
0.0633467
-0.0135082
-0.0268357
-0.0554864
-0.0933471
-0.403504
0.015365
0.033865
-0.094639
0.0387078
-0.376987
-0.0596604
-0.433803
0.243929
0.0939332
-0.0651673
-0.0421715
0.0221224
0.00668908
0.0224558
0.0517179
0.0205045
0.0533866
-0.366428
-0.13
-0.0111833
0.287005
0.00625311
0.00800361
-0.0796146
0.0189998
0.0556861
-0.0169446
0.458286
0.504438
-0.139264
-0.404922
0.16063
-0.0690358
-0.0958053
-0.0538435
-0.329891
-0.0843487
-0.193018
-0.067934
-0.44343
-0.0112232
0.028494
0.0131935
-0.040012
-0.0612977
0.00545682
0.0215025
-0.139346
0.00807449
-0.00199461
0.000675171
0.0140458
-0.0620461
-0.0129223
0.034404
-0.0682004
0.00207247
-0.228322
0.377523
0.0237991
-0.0208522
0.00824927
0.0541935
0.00820973
-0.0193031
-0.355942
0.0324796
-0.183933
-0.0114502
-0.172849
-0.0304419
-0.0660995
0.0221742
-0.0598132
-0.0746346
0.0220508
0.0230162
-0.190657
0.0294001
-0.439336
-0.434671
0.0421949
0.0129136
0.0186246
-0.00137108
-0.203239
0.0276192
-0.170033
-0.122002
-0.0866852
-0.441967
0.00563826
0.0186536
-0.423624
-0.33444
0.0958024
0.0198865
0.0272516
0.00606506
-0.0219367
0.138896
0.3882
-0.021328
-0.0646925
0.499198
-0.0655674
0.154318
-0.00970038
-0.214053
-0.14173
-0.0294743
0.0218469
0.0450557
-0.298422
0.0257017
-0.16647
0.149992
0.0150823
0.0733523
0.000166277
-0.0704869
-0.0392923
0.00821501
-0.000729761
-0.0209387
-0.0986465
0.014839
-0.0524608
-0.0703059
0.0443397
0.0177842
0.171733
-0.0768746
-0.0618186
-0.238445
0.0612429
-0.00141409
0.0793628
-0.0574806
0.420712
0.497452
0.00594994
0.145977
0.020904
-0.234569
-0.00328215
-0.0651094
0.145034
-0.204856
0.0146284
0.010138
0.112244
0.0250138
-0.100163
-0.0144713
0.367329
0.0150771
0.00614625
0.0873118
-0.216876
-0.443836
-0.0035425
-0.0201903
0.0596095
-0.0133336
-0.00601484
0.0214733
-0.153784
0.0203337
-0.0560022
0.0148127
-0.378949
-0.0122645
-0.00113919
-0.346188
-0.336544
-0.106902
0.00967116
-0.0536755
-0.0127367
-0.0919851
0.0596458
-0.205621
0.00531819
-0.441892
0.0167245
-0.0368723
0.0261498
0.0195782
0.0177035
-0.0607485
-0.0941667
-0.0556516
0.158116
-0.0388672
-0.0227473
0.0136427
0.00268143
0.00592548
0.0323858
-0.223051
-0.0157841
-0.12539
-0.181257
0.0195867
0.0634883
-0.0898167
-0.0723644
0.0619906
-0.0234181
0.0716813
-0.443952
-0.0746286
-0.425414
-0.0538518
-0.0703401
0.252413
0.0321255
0.0134075
-0.133827
0.101937
-0.0116869
-0.11001
0.0844969
-0.444178
0.0194501
0.354115
0.172417
-0.138264
0.0412143
0.0256234
-0.355431
-0.0127959
-0.127656
0.0416017
0.0259398
-0.391062
-0.0628769
-0.0350869
-0.412783
0.010588
0.33362
-0.0633019
0.0284274
-0.0553581
-0.0639297
0.0295066
0.0134016
-0.0127753
-0.0338587
-0.0345971
-0.0679529
-0.0662068
-0.0225808
0.0299028
-0.0554509
0.00115576
-0.444101
-0.0293206
-0.0189764
-0.17208
-0.43824
0.00555316
0.0172536
-0.0325344
-0.000106731
0.00240241
-0.204288
0.0180346
-0.0339641
0.000345713
0.260438
0.00399948
0.359628
0.374672
-0.0213044
-0.0730959
0.0118294
-0.0282683
0.0140969
-0.0804472
0.0291542
0.00873966
0.0210864
-0.00337012
0.0163404
-0.118888
-0.440194
-0.4076
-0.441521
0.0176517
0.0585522
-0.060457
0.0462512
-0.0031087
0.163872
-0.118471
0.0135922
-0.0122476
-0.210805
0.0140928
0.0174667
-0.0556178
-0.0791486
-0.0646341
0.0788565
-0.0089371
-0.426524
0.0505377
0.165473
0.0149519
-0.0453859
0.0340921
-0.145674
-0.197908
-0.0600804
0.0182192
-0.438356
0.0679804
0.00899852
0.0111896
0.0426009
0.0251671
-0.0104004
-0.0663457
0.010403
-0.104027
-0.0134054
-0.0505182
-0.342297
0.00725785
-0.162814
0.0535796
0.00718337
0.0819214
-0.0740257
0.0234177
0.00107059
0.0169557
0.0361003
-0.0704294
0.00269655
0.0497934
0.0996838
0.0183779
0.00175144
-0.43926
-0.0535723
-0.0636081
-0.20035
-0.112645
-0.139736
-0.334109
-0.0563934
0.00072198
0.0510579
0.00137951
0.359144
-0.0583529
0.00311361
-0.0037468
-0.000893319
0.0147539
0.0143557
-0.0301391
-0.415166
-0.440808
-0.445694
-0.106869
0.0186966
0.0137156
0.0172149
-0.402506
-0.370457
-0.0105096
0.512455
0.00214371
-0.0698259
-0.0223569
-0.036695
-0.0671146
-0.168705
0.0554196
0.358175
0.00131625
0.0097665
-0.159239
0.0179391
0.0122576
-0.072656
-0.0888401
0.0171448
0.126826
0.0172917
0.0349698
0.00749447
0.0310603
-0.0844976
0.00620908
0.0277829
0.0500278
-0.0739263
0.381412
0.0248993
0.158449
-0.0639982
-0.44427
-0.200517
-0.43199
-0.208756
-0.0536744
-0.0931766
-0.105877
-0.100478
-0.434095
0.000286885
0.0174054
0.02312
0.378248
0.0413691
-0.360696
-0.00776082
0.025808
-0.386451
-0.118508
0.0560519
0.277614
0.0139921
0.0729603
-0.319011
-0.0529151
0.0224958
-0.334645
-0.214449
-0.256503
-0.0603423
0.0294807
-0.382321
0.0151255
-0.0630684
0.00971673
0.00871157
-0.0611159
0.107959
-0.00214299
0.0182202
-0.428165
0.00141446
-0.120628
-0.131325
0.0183603
-0.0024783
0.0967764
-0.0674719
-0.135109
-0.0633908
0.0626199
-0.0877169
0.0334357
-0.0184593
-0.0112941
-0.0115223
0.0755025
0.247054
-0.367547
-0.111126
-0.0937191
-0.441206
0.011321
-0.201995
-0.212513
0.217568
0.014742
0.0289898
0.0179208
0.0100329
0.0107931
-0.359768
-0.211544
-0.0694812
-0.112745
-0.117679
0.0278706
-0.121351
-0.440557
0.000187185
-0.040067
0.00839974
-0.436427
-0.0547971
-0.168953
-0.0853136
0.0359444
-0.0944539
-0.0158892
0.0949792
-0.0663781
-0.0511681
-0.00367807
-0.0747003
-0.437053
0.0166063
-0.252206
-0.438735
-0.29082
-0.36642
-0.0655409
-0.0861411
0.155226
0.249548
-0.0791676
0.000425425
0.0418033
-0.00844022
0.0140227
-0.442984
-0.02029
-0.197203
0.00298539
0.000492693
-0.0589392
0.023116
-0.432002
-0.0166141
0.400917
-0.0293444
0.0220696
-0.135951
-0.0292447
-0.0742979
0.00983022
-0.00714697
-0.0733126
0.135117
0.0245746
0.0963714
-0.332418
-0.0570614
0.504234
0.0199214
0.0221318
-0.00114953
0.0248127
-0.0398912
0.0821745
0.00145703
-0.437672
0.0161271
0.0232795
-0.133986
-0.109729
-0.0857881
-0.0488058
0.0062099
-0.0182796
-0.135013
0.500952
-0.226491
-0.40909
-0.0371477
-0.0674223
-0.0683289
-0.0127633
-0.111923
-0.0688267
0.0106849
-0.14742
-0.0569841
-0.0815302
-0.0972208
-0.382955
-0.0825949
0.0442448
-0.092621
0.0380155
-0.060151
-0.185707
0.0081266
-0.156805
0.00614457
0.0377274
-0.0885731
-0.445196
0.0725971
0.0118912
-0.0753801
-0.148448
0.294793
-0.141911
0.0246615
-0.0541677
-0.00393076
-0.0967216
-0.187645
0.0185335
-0.443035
-0.0104457
0.0084714
0.0441305
0.0065206
-0.244219
-0.0749832
0.0200435
-0.2445
0.0246491
-0.444628
-0.00268982
-0.0799193
0.20853
-0.149613
0.0985806
0.0169895
0.00242064
0.0116024
-0.171235
-0.128783
0.0130916
-0.0716351
-0.101257
-0.334537
-0.0568735
-0.0546722
-0.132362
0.0175217
-0.357524
0.00680801
-0.068438
0.0112741
0.0468284
-0.0155486
-0.143028
-0.217009
-0.074323
-0.180422
-0.440236
0.381529
-0.120214
-0.0691858
0.0113012
-0.1459
-0.4436
-0.000874385
-0.088037
-0.124838
-0.142537
0.0189083
-0.0552964
0.13749
-0.0781208
-0.308369
-0.0484086
-0.123568
-0.0397759
0.00739844
0.000528442
-0.443337
-0.193736
0.205807
-0.18746
0.0110018
-0.211936
0.06263
0.000175315
0.0568336
-0.104846
-0.0351611
0.0218256
0.0168692
-0.321754
0.0120331
-0.0431065
-0.373618
0.00317091
0.0117541
-0.298769
0.00814429
0.143346
-0.0351044
-0.166799
0.484509
0.0227016
-0.0550637
-0.0493555
-0.0656548
-0.0504606
-0.0277737
0.319284
0.419601
-0.117048
-0.244843
0.327925
-0.00244198
-0.105908
-0.0597924
-0.0763847
0.00671188
0.0237393
0.368044
-0.0198701
-0.105781
0.412284
-0.0567137
-0.120313
-0.0264514
-0.183247
-0.0634876
0.020729
0.0140438
0.0187593
0.0113499
-0.111076
-0.160664
-0.0406905
-0.185444
-0.0696117
-0.107896
-0.0124145
-0.0327058
-0.131067
0.00995873
0.0110799
-0.0768773
-0.0234286
0.328054
0.00844058
0.0138457
0.0214674
-0.0467866
0.0112759
-0.0908245
-0.00148679
-0.0280174
-0.234579
-0.163857
0.490406
-0.375218
0.107761
-0.0214043
-0.200821
-0.14902
-0.184519
0.252212
0.016809
-0.119636
0.0343643
-0.0198799
0.00694743
0.294096
-0.0698806
-0.153731
-0.143889
-0.0948886
0.00323235
0.00970611
-0.0138399
-0.0748448
-0.414015
-0.0751325
0.512743
0.0128398
-0.407463
-0.0241057
0.013199
-0.00821933
0.0424198
-0.344398
0.0328256
-0.0743791
0.00294065
0.495187
0.157631
-0.0588382
-0.0211227
-0.0154257
-0.0285262
0.00306462
-0.113414
0.509863
-0.16468
-0.118314
0.0003013
-0.161589
0.228723
0.0267315
-0.0545095
-0.00407698
-0.0347485
-0.000837357
-0.344939
-0.0258279
-0.138033
-0.115166
0.00261087
-0.435541
0.000602719
-0.0410296
0.0594231
-0.0293347
0.00559364
0.00507528
-0.0618081
0.0172413
-0.0237937
0.00270848
-0.0206961
0.508026
-0.0671136
0.0595752
-0.0587232
-0.406214
0.010014
0.0174028
-0.00219455
-0.0738335
0.00556446
-0.113168
-0.221252
0.0296003
-0.0712235
-0.0628092
0.0300788
-0.00190394
-0.0530026
-0.0015168
-0.0757585
-0.0607615
-0.0843617
-0.027198
-0.0504401
-0.00352315
0.498561
0.0801428
0.394885
0.0140836
-0.172915
-0.444915
-0.0629061
-0.0318444
-0.272837
-0.444467
-0.157165
0.0598583
0.00247082
-0.442295
0.481666
0.00786219
0.023537
0.414338
-0.00271665
-0.135415
0.476832
0.00460219
-0.00276222
-0.229648
-0.0760004
-0.0230651
9.68915e-05
-0.0822651
0.0572001
-0.168363
0.0160395
-0.0139458
0.0196265
-0.0205726
0.0212426
-0.186655
-0.00425635
0.0305341
-0.0555616
-0.442851
-0.110854
0.00729759
-0.0405718
-0.0618866
0.0449102
0.0505399
-0.0649857
0.00979752
0.026005
-0.119527
0.0613715
0.0296361
0.0390778
-0.0108036
-0.443788
-0.0700075
-0.00430802
-0.0190603
0.0134043
-0.0570252
-0.41578
0.0815261
-0.155299
0.0209863
0.0644349
-0.0386983
-0.130031
-0.445102
0.00338544
-0.328041
-0.237906
-0.052496
0.0030189
-0.0567076
-0.0587935
0.0491705
0.00192193
-0.0113259
-0.0654823
0.0711462
0.488915
0.0604915
0.0295628
-0.0174093
-0.0569491
0.0363635
0.000250562
-0.104835
0.164925
-0.205389
-0.0747479
-0.00987909
0.397098
-0.327819
0.431639
0.068377
0.0229508
0.0245941
-0.276214
0.206223
-0.0118856
-0.0194983
-0.0935044
0.451669
-0.44239
0.0186287
0.113943
0.0493329
-0.0820037
-0.332445
0.0134629
-0.136988
0.053853
0.0658089
0.0135244
-0.434392
-0.137105
0.0301706
-0.0321398
-0.125656
0.014405
0.0142822
-0.0482357
0.292203
0.0319951
0.0144722
-0.0306251
-0.384153
-0.0619335
-0.00797458
0.00970669
-0.0131792
0.369873
0.0204849
0.0182096
-0.0754524
-0.209959
0.010432
0.0186882
-0.0645939
-0.0456919
0.0256085
-0.0148977
-0.120434
0.00970537
0.0243089
-0.059995
-0.294249
-0.33063
-0.0438848
-0.0698882
-0.435617
-0.116711
-0.393108
-0.0830637
-0.0093942
0.0286446
-5.68298e-05
0.0830217
0.0180023
0.0306026
0.000179323
0.0221071
0.0134222
-0.0833172
-0.0689288
-0.0766349
-0.0133721
-0.0942891
0.0341995
-0.0375858
0.00237141
0.00823586
0.138343
-0.310168
0.00366261
0.0102245
-0.0248146
-0.0783501
0.012563
-0.0679747
0.0219031
-0.0561194
-0.132943
0.219372
0.506715
0.00326656
-0.136833
-0.0110976
-0.0857386
-0.443981
0.00926872
-0.129723
-0.125012
0.0191464
-0.00326179
-0.103751
-0.0641405
-0.0992842
0.00365722
-0.399616
0.168826
-0.136207
0.000710525
0.0110838
-0.0382725
-0.442504
-0.234242
-0.442784
-0.0930425
-0.443993
0.0994847
-0.403155
-0.013733
0.444451
0.0124237
-0.006109
-0.324319
0.0681095
-0.217555
0.0134012
0.00296255
-0.441435
-0.269765
0.0112322
-0.36537
0.0140894
-0.126988
0.00746334
-0.090595
-0.443346
-0.0113193
-0.0612088
-0.0353193
-0.122235
0.0335051
0.000282806
0.0425096
-0.141096
0.0147149
-0.300295
0.00742526
-0.430856
-0.111456
-0.0758035
0.0117542
0.0020434
-0.0656658
-0.0279666
0.159209
0.0170938
0.307868
-0.0119242
0.0314356
-0.15072
0.0296711
0.0179809
-0.0170779
0.025202
-0.0563997
-0.0549792
0.0109977
-0.112213
-0.229722
0.413713
-0.00869789
-0.177228
0.480406
-0.00860784
-0.0472077
-0.0184411
0.0236217
0.0121285
0.0389139
-0.0346409
-0.0482114
-0.428489
-0.0222926
-0.04347
0.017114
0.0188187
-0.0587116
-0.0474156
0.0174823
-0.01945
-0.0593446
-0.277153
0.0335478
-0.0702744
0.055373
0.449089
0.0214964
-0.436866
0.00575841
-0.0212115
0.0156391
0.00938259
0.0676679
-0.11935
0.00434054
-0.136173
-0.174829
-0.0778904
-0.114234
0.0163373
0.0395767
-0.0592106
0.00308419
0.338138
0.0294196
-0.0637479
0.00556218
-0.347887
-0.116065
-0.0534243
0.0113422
-0.403438
-0.440471
-0.0636594
0.350703
0.10544
-0.192324
0.0113418
-0.113644
-0.0987169
-0.046477
-0.056376
0.0074975
0.0264934
-0.035565
-0.155493
-0.000398235
-0.0664048
0.0123039
-0.358947
-0.0666031
0.153108
0.007526
-0.071435
0.390411
0.0266777
-0.0692007
-0.0913881
-0.0711208
-0.00607509
0.012302
-0.0884455
-0.310666
0.0212603
-0.442774
0.0821451
0.0201551
-0.439589
-0.0638034
0.0240056
-0.324879
0.00266429
0.0110124
-0.0774376
-0.116872
0.0142116
-0.0603295
-0.0028262
0.0261461
-0.442972
-0.0177174
-0.0736543
0.00892236
0.474535
0.0256451
-0.443639
0.00202453
0.244589
-0.0125609
0.110067
0.374842
-0.290655
0.228614
-0.344476
-0.047498
-0.0630686
-0.326889
-0.0561351
0.0115591
-0.0556975
-0.425783
-0.130456
-0.0834638
0.0481815
0.0104771
-0.013563
-0.345728
0.0294973
-0.0160866
-0.075073
0.0142035
-0.120714
-0.000949314
-0.0713462
0.0216491
0.0140549
-0.0873584
9.69045e-05
-0.0689275
0.0128464
-0.00566803
-0.177852
-0.13599
0.00771919
0.0193524
-0.272425
-0.437979
0.019195
-0.0535039
-0.0764772
-0.00200987
-0.441948
-0.25455
-0.352092
-0.185392
-0.443339
-0.0633748
-0.0712371
0.00963362
0.00690146
0.0278489
0.0131473
0.0772607
-0.425901
-0.438598
0.0159974
-0.021965
-0.0237616
-0.2333
-0.236757
-0.310308
-0.350729
0.0353647
-0.356675
-0.430311
0.10061
-0.0706007
-0.0792541
-0.0133617
-0.108415
-0.0529221
-0.0798455
0.0219192
-0.00167181
-0.0993976
-0.164145
0.00749828
0.0285574
0.0137331
0.00769304
0.0265486
-0.435889
0.0277164
0.00342333
-0.4156
0.0165441
-0.251034
-0.0937574
-0.30753
-0.0841017
0.0121129
-0.330438
0.362903
0.459328
0.037937
-0.0499902
0.0172729
0.0739885
-0.444701
-0.0795066
-0.160136
-0.0218519
0.0132319
0.35507
-0.0253778
0.0254131
0.116637
0.0175366
-0.112328
0.0126635
-0.0590342
-0.313809
0.0733963
0.0126162
-0.188695
0.0113205
-0.00838568
0.198615
0.00574849
-0.0169592
-0.170907
0.443369
-0.378773
0.00185122
0.079439
0.0101953
-0.263362
-0.134792
0.000103046
-0.0487009
0.0162529
-0.0113409
-0.0192505
-0.00442156
-0.123367
-0.0467591
0.0312893
-0.0128753
0.0238267
0.0180312
-0.0119052
0.0183868
0.382236
-0.0531595
-0.314608
-0.284157
-0.0630682
0.320972
-0.013969
-0.443587
-0.0581408
-0.0623368
0.0237791
-0.00848271
0.44684
-0.37372
-0.245715
-0.261367
-0.238181
0.0159248
0.0254679
-0.0562958
0.00864742
-0.0713104
-0.179371
-0.0225533
-0.442489
-0.0588677
0.0140007
-0.438425
-0.0705509
0.273377
0.447582
0.042618
-0.0679231
-0.31618
-0.0888523
0.00878551
0.28132
-0.167795
0.00955638
-0.0651424
-0.00975429
-0.109849
0.0259885
-0.426656
-0.345532
0.0395592
-0.0290246
0.0566769
-0.434714
-0.0938502
0.0350905
0.0480255
-0.060165
0.0239159
-0.0292737
-0.15685
0.440143
0.0124199
0.31571
0.243048
0.0186291
-0.0664669
0.00416242
0.0287998
-0.0385843
0.0219164
-0.0364082
-0.1334
-0.0822224
0.0290155
-0.436051
-0.169871
-0.0877627
-0.444174
-0.0634614
-0.0302079
-0.352014
-0.0372689
0.0906189
-0.0968149
-0.0820889
-0.012987
0.00176742
0.0157665
-0.253733
-0.0633851
-0.397602
-0.0674063
0.00778093
0.106774
-0.162632
-0.0694795
-0.354736
0.0133615
-0.0553001
0.00947999
-0.437747
-0.00573991
-0.0971314
0.0691145
-0.436792
-0.0641271
-0.123466
-0.198663
0.136702
0.00853907
0.295346
-0.442096
-0.424549
-0.0486558
0.0588353
0.0112619
0.0386972
-0.061451
0.0214169
0.0300715
0.00881465
-0.100062
0.0282517
-0.106071
0.0136669
-0.0815618
-0.000324617
-0.0788285
-0.43942
0.054821
-0.0721524
0.0175457
-0.036945
-0.00803662
0.021854
0.0228779
0.400203
-0.185472
0.0056371
0.0916281
0.034028
-0.0562876
-0.0629664
-0.295622
-0.11014
0.0352378
-0.0844142
-0.0214009
0.0387109
0.223175
0.0238588
-0.0815989
-0.438428
0.0190935
-0.0943695
0.0668479
0.0177001
0.00281681
-0.267398
0.0298155
-0.286166
-0.0155856
0.0214441
-0.176079
-0.152506
-0.11397
-0.0380284
0.0343087
0.0194672
-0.135978
-0.0655916
0.021182
-0.0905448
0.0458137
-0.0616623
0.463561
-0.124133
-0.433061
-0.423568
0.00364711
-0.147164
-0.00643594
-0.087308
-0.324671
-0.0496214
-0.306786
-0.078265
-0.00181439
0.0915696
0.028689
0.00132727
0.0494099
0.0307564
-0.28521
0.0514125
-0.0671036
-0.200503
0.0145261
-0.359789
0.0214999
0.021602
-0.0960135
-0.233342
-0.00450485
-0.41717
0.301124
-0.066903
-0.442431
-0.0186245
-0.105709
-0.0699798
0.0782199
-0.00150418
0.444577
0.0341943
0.0141617
0.0140956
0.323761
-0.43629
-0.0349601
0.0240036
-0.0575694
-0.43714
0.0561344
0.019331
-0.26411
-0.164922
0.0146768
0.327524
-0.201976
0.0164954
-0.0378445
0.00228856
-0.0594526
0.0137067
-0.421013
-0.428836
-0.416621
-0.0195646
0.166617
-0.00987996
0.0074245
-0.148019
0.0107618
-0.0896893
-0.0601207
-0.157967
0.00875974
-0.00116978
0.455106
-0.112182
0.242656
-0.327025
-0.170671
-0.109876
-0.0271879
-0.412323
0.29369
-0.0407867
0.407315
-0.371287
-0.0754777
0.034316
-0.439384
0.0039242
-0.0732279
-0.122769
0.315448
0.00199417
-0.0945867
0.0193427
-0.239744
-0.0534926
-0.020952
0.025945
-0.417284
-0.0617125
0.0172004
-0.128818
-0.122602
-0.114944
0.0183007
-0.359637
0.0209455
-0.141521
0.0200838
-0.0227396
0.0135957
0.0363846
-0.0769456
-0.0697167
0.000540307
-0.0547128
-0.444622
0.000621036
-0.000819635
0.0701256
0.119097
-0.0636335
-0.103697
-0.413603
-0.0697454
-0.40994
-0.403667
-0.0668306
0.0653913
-0.0703771
-0.198447
-0.444359
-0.0616742
-0.0604261
-0.074586
-0.0637705
-0.0211823
-0.444241
0.012423
-0.33532
0.0218783
0.0183935
-0.411781
0.0186253
-0.0025384
0.364831
-0.0196908
-0.0891008
0.0303608
-0.0236059
-0.0792009
0.349037
-0.00436533
0.0216696
-0.404708
-0.0692062
-0.0375729
0.504948
-0.120694
-0.101555
-0.092011
-0.433709
0.0659734
-0.168497
-0.0701179
-0.115062
0.0228026
-0.00138718
-0.177107
-0.443232
-0.438679
-0.426058
-0.0553369
0.0260386
-0.108755
0.0453837
-0.440716
-0.0109694
0.0146521
-0.079132
-0.139169
-0.176291
-0.422214
0.0546024
0.399954
-0.0990817
-0.0175305
-0.106287
0.000636951
0.148485
-0.212985
-0.0864544
-0.0849148
-0.420393
-0.0558064
0.493663
-0.0709511
0.0342362
-0.0232962
-0.047129
-0.286759
-0.380916
-0.418636
-0.1758
0.132848
0.00713946
-0.119936
-0.0887655
-0.294361
0.0179781
-0.42608
-0.114537
-0.322103
0.0157144
-0.0625072
-0.157922
-0.066874
-0.208082
-0.00464778
-0.0901763
-0.0571092
0.00869744
-0.167408
-0.171345
-0.0210283
-0.124511
-0.0234887
-0.0278483
0.0185472
-0.0577227
-0.105925
0.304318
-0.047848
-0.437669
0.000600897
0.000226073
0.0163606
0.0128437
0.0121802
-0.328138
0.366941
-0.12606
0.0217154
0.00150549
-0.430672
-0.0486727
-0.0546043
-0.0742161
0.00469376
0.475131
0.146781
-0.0615798
-0.278032
-0.0396374
-0.420631
0.459617
0.118677
0.000916094
0.349008
-0.000275848
0.379085
-0.376424
-0.0909787
0.00595834
-0.397311
0.432549
0.0254758
-0.105208
0.0230736
-0.372054
-0.41789
0.0453333
0.0224593
0.116567
-0.0860025
0.00264625
-0.00692965
0.0350245
-0.38344
0.102509
0.484155
0.453159
-0.280554
-0.123058
-0.199084
0.0184139
-0.0762683
-0.441119
0.100259
0.0119702
-0.0316622
0.0216026
-0.438134
-0.163902
-0.32604
0.0158827
-0.219944
0.514267
-0.44335
-0.0552061
0.0251395
0.340774
-0.165602
0.0132858
0.0213749
0.468301
-0.0566605
-0.0447661
-0.0710774
0.422302
-0.434348
-0.0610116
0.0727632
0.43914
-0.0957158
0.0100279
0.0374125
0.0154224
0.0189084
-0.0634212
0.268217
0.0714586
-0.443061
-0.0756658
-0.00208702
-0.106227
0.332263
0.13922
-0.0515187
-0.00246532
0.00535583
0.50904
0.398514
-0.0636529
0.00839798
0.371266
-0.312941
-0.0928123
-0.197477
-0.0325272
-0.00147334
0.0238179
0.0135786
-0.059558
-0.426346
-0.0785586
0.0379181
0.356578
0.0251231
-0.259667
0.0635737
-0.0570227
0.0723731
0.100935
-0.05567
-0.113579
0.0134261
0.000103244
0.00757551
-0.0540625
-0.0317338
-0.157765
-0.0689098
-0.0542366
0.0139955
-0.0549841
-0.0287319
0.0322957
-0.425961
0.000610971
-0.0582809
-0.441597
-0.064265
-0.0439124
0.0343573
0.0178598
0.0259423
0.013681
-0.0845691
-0.281899
-0.442081
-0.407996
0.470288
0.355361
0.0778503
-0.275771
-0.0769892
-0.0590991
0.03354
-0.00730273
-0.0685224
-0.014184
-0.00424087
-0.0580526
-0.0951857
-0.296752
-0.142702
-0.181692
0.0145824
0.0198939
-0.0222911
-0.0520269
-0.0640062
0.0204899
-0.0847582
0.451989
0.482858
-0.0789445
0.046635
0.430325
-0.0534714
-0.132948
0.0470265
0.00348699
0.0207651
0.0328937
0.0246868
-0.0605509
-0.112386
-0.0907361
-0.0883287
-0.0977426
0.00450696
-0.0632566
0.0682588
0.0132724
-0.0479105
-0.422575
-0.068219
0.00627887
0.420561
0.00893317
-0.105743
0.0718957
-0.0493506
0.0238109
-0.10462
-0.103678
-0.064251
-0.437016
-0.322012
-0.284459
-0.425251
-0.312075
-0.257611
-0.00058555
-0.225221
0.00311923
-0.44165
0.0343486
0.38789
0.014624
-0.122946
0.037567
0.00602674
0.0462978
0.0122627
0.500117
-0.00807198
0.0100679
-5.49658e-05
0.00298939
0.00738301
-0.0263309
0.0232633
-0.201603
-0.110269
0.0180003
-0.0690687
0.0266646
0.00851875
-0.137282
-0.0975904
0.0279998
-0.0587911
0.00374609
0.001203
-0.339604
-0.0127534
0.104685
-0.207002
-0.0729275
-0.442433
-0.36165
-0.140049
-0.443063
-0.44005
-0.151113
-0.313079
-0.0187011
-0.308755
0.0215639
0.0217205
-0.139763
-0.0391504
0.508167
-0.0117331
-0.0773675
-0.0671592
0.435854
-0.115924
-0.0879885
-0.0286234
0.010966
-0.0715282
0.0318566
0.00479187
0.434035
-0.0159304
-0.288963
-0.374681
-0.190465
-0.0108076
-0.0649065
0.0599884
-0.443672
0.439408
0.00834576
-0.339676
-0.101333
-0.0866061
-0.0877669
-0.0669945
-0.0635124
-0.0564064
-0.0333029
-0.433075
-0.120772
0.141944
-0.228655
0.0399438
-0.0735851
0.0267884
0.000619843
-0.0112095
0.394617
-0.131471
0.380475
-0.0873851
0.0314251
0.21194
0.494482
0.00566338